/*--------------------------------*- C++ -*----------------------------------*\
  =========                 |
  \\      /  F ield         | OpenFOAM: The Open Source CFD Toolbox
   \\    /   O peration     | Website:  https://openfoam.org
    \\  /    A nd           | Version:  7
     \\/     M anipulation  |
\*---------------------------------------------------------------------------*/
FoamFile
{
    version     2.0;
    format      ascii;
    class       volScalarField;
    location    "0.02";
    object      epsilon;
}
// * * * * * * * * * * * * * * * * * * * * * * * * * * * * * * * * * * * * * //

dimensions      [0 2 -3 0 0 0 0];

internalField   nonuniform List<scalar> 
109929
(
0.001933805
0.0019865
0.00199004
0.001989626
0.001988805
0.001987571
0.001986745
0.002090906
0.002100676
0.00210122
0.002100488
0.002098985
0.00199011
0.002100253
0.0021118
0.002112868
0.002112277
0.002110665
0.001989483
0.002100526
0.002112641
0.002114009
0.002113565
0.002111977
0.001988624
0.002099852
0.002112188
0.002113737
0.002113397
0.00211186
0.001987848
0.002099111
0.002111549
0.002113211
0.002112945
0.002111467
0.00198717
0.002098417
0.002110917
0.002112643
0.002112438
0.002111007
0.001986576
0.002097794
0.002110326
0.002112092
0.002111943
0.002110541
0.00198605
0.002097234
0.002109787
0.002111582
0.002111462
0.002110092
0.00198558
0.002096728
0.002109295
0.002111109
0.002111012
0.00210967
0.001985156
0.002096274
0.002108846
0.002110674
0.002110596
0.002109277
0.001984771
0.00209586
0.002108434
0.002110274
0.002110208
0.002108903
0.00198442
0.00209548
0.002108056
0.002109905
0.002109849
0.002108555
0.001984099
0.002095129
0.002107709
0.002109563
0.002109514
0.002108229
0.001983805
0.002094804
0.002107388
0.002109245
0.002109201
0.002107924
0.001983533
0.002094503
0.002107088
0.002108948
0.002108909
0.002107638
0.00198328
0.002094223
0.002106808
0.002108669
0.002108633
0.002107369
0.001983044
0.002093959
0.002106543
0.002108406
0.00210837
0.00210711
0.001982822
0.002093705
0.002106282
0.002108145
0.002108109
0.002106851
0.001982604
0.00209344
0.002105997
0.002107852
0.002107813
0.002106561
0.001982352
0.002093073
0.002105572
0.002107401
0.002107356
0.002106128
0.001981905
0.002092325
0.002104665
0.002106431
0.00210639
0.002105233
0.01203551
0.002090948
0.00210304
0.002104703
0.002104692
0.002103692
0.01216331
0.01206358
0.01205917
0.01205647
0.01205474
0.01205338
0.01205758
0.01204351
0.01204332
0.01204077
0.01203959
0.012039
0.01204638
0.01204148
0.01203997
0.01203917
0.0120387
0.01203837
0.01204283
0.01203976
0.01203942
0.012039
0.0120387
0.01203845
0.01204155
0.01203894
0.01203865
0.0120384
0.01203821
0.01203804
0.01204082
0.01203834
0.01203823
0.0120381
0.012038
0.01203789
0.01204031
0.01203795
0.01203789
0.01203782
0.01203776
0.01203769
0.01203993
0.01203767
0.01203765
0.01203761
0.01203758
0.01203753
0.01203962
0.01203746
0.01203746
0.01203744
0.01203742
0.0120374
0.01203937
0.0120373
0.0120373
0.01203729
0.01203729
0.01203727
0.01203915
0.01203717
0.01203717
0.01203717
0.01203717
0.01203717
0.01203896
0.01203705
0.01203706
0.01203707
0.01203707
0.01203707
0.0120388
0.01203696
0.01203697
0.01203698
0.01203698
0.01203699
0.01203865
0.01203688
0.01203689
0.0120369
0.01203691
0.01203691
0.01203852
0.01203681
0.01203681
0.01203682
0.01203684
0.01203684
0.01203839
0.01203674
0.01203675
0.01203676
0.01203677
0.01203678
0.01203828
0.01203668
0.01203669
0.0120367
0.01203671
0.01203672
0.01203818
0.01203663
0.01203664
0.01203665
0.01203666
0.01203667
0.01203809
0.01203659
0.01203659
0.0120366
0.01203661
0.01203662
0.012038
0.01203654
0.01203655
0.01203656
0.01203657
0.01203658
0.01203792
0.0120365
0.01203651
0.01203652
0.01203653
0.01203654
0.01203784
0.01203647
0.01203647
0.01203648
0.01203649
0.0120365
0.01203777
0.01203643
0.01203644
0.01203645
0.01203646
0.01203646
0.01203768
0.0120364
0.01203641
0.01203641
0.01203642
0.01203643
0.01219329
0.01206078
0.01205449
0.0120529
0.0120521
0.0120515
0.01205293
0.01204229
0.01204329
0.01204052
0.01203937
0.01203881
0.01204508
0.01204138
0.01203988
0.0120391
0.01203859
0.01203827
0.01204093
0.01203963
0.01203938
0.01203902
0.0120387
0.01203845
0.01204031
0.01203886
0.01203861
0.01203837
0.01203817
0.012038
0.01203981
0.01203827
0.0120382
0.01203808
0.01203797
0.01203785
0.01203948
0.0120379
0.01203787
0.0120378
0.01203773
0.01203766
0.01203922
0.01203763
0.01203762
0.01203759
0.01203755
0.0120375
0.012039
0.01203742
0.01203743
0.01203742
0.01203739
0.01203736
0.01203881
0.01203726
0.01203728
0.01203727
0.01203726
0.01203724
0.01203864
0.01203713
0.01203715
0.01203715
0.01203714
0.01203714
0.0120385
0.01203702
0.01203704
0.01203704
0.01203704
0.01203704
0.01203837
0.01203693
0.01203695
0.01203695
0.01203696
0.01203696
0.01203825
0.01203685
0.01203687
0.01203687
0.01203688
0.01203688
0.01203814
0.01203678
0.01203679
0.0120368
0.01203681
0.01203681
0.01203804
0.01203671
0.01203673
0.01203674
0.01203675
0.01203675
0.01203794
0.01203666
0.01203667
0.01203668
0.01203669
0.01203669
0.01203786
0.01203661
0.01203662
0.01203663
0.01203664
0.01203664
0.01203778
0.01203656
0.01203657
0.01203658
0.01203659
0.0120366
0.0120377
0.01203652
0.01203653
0.01203654
0.01203655
0.01203655
0.01203763
0.01203648
0.01203649
0.0120365
0.0120365
0.01203651
0.01203757
0.01203644
0.01203645
0.01203646
0.01203647
0.01203647
0.01203751
0.01203641
0.01203642
0.01203643
0.01203643
0.01203644
0.01203745
0.01203638
0.01203639
0.01203639
0.0120364
0.01203641
0.01219576
0.01205647
0.01205301
0.01205279
0.01205235
0.01205175
0.01205245
0.01204197
0.01204347
0.0120405
0.01203936
0.0120388
0.01204488
0.01204138
0.01203985
0.01203906
0.01203855
0.01203822
0.012041
0.01203961
0.01203934
0.01203897
0.01203868
0.01203842
0.01204029
0.01203884
0.01203859
0.01203836
0.01203816
0.01203799
0.0120398
0.01203826
0.01203818
0.01203808
0.01203796
0.01203785
0.01203947
0.01203789
0.01203786
0.0120378
0.01203773
0.01203765
0.0120392
0.01203762
0.01203762
0.01203759
0.01203755
0.0120375
0.01203898
0.01203741
0.01203743
0.01203741
0.01203739
0.01203736
0.01203879
0.01203725
0.01203727
0.01203727
0.01203726
0.01203724
0.01203863
0.01203712
0.01203714
0.01203715
0.01203714
0.01203714
0.01203848
0.01203701
0.01203703
0.01203704
0.01203704
0.01203704
0.01203835
0.01203692
0.01203694
0.01203695
0.01203696
0.01203696
0.01203823
0.01203684
0.01203686
0.01203687
0.01203688
0.01203688
0.01203812
0.01203677
0.01203679
0.0120368
0.01203681
0.01203681
0.01203802
0.01203671
0.01203673
0.01203674
0.01203675
0.01203675
0.01203793
0.01203665
0.01203667
0.01203668
0.01203669
0.0120367
0.01203785
0.0120366
0.01203662
0.01203663
0.01203664
0.01203664
0.01203777
0.01203655
0.01203657
0.01203658
0.01203659
0.0120366
0.01203769
0.01203651
0.01203653
0.01203654
0.01203655
0.01203655
0.01203762
0.01203647
0.01203649
0.0120365
0.01203651
0.01203651
0.01203756
0.01203644
0.01203645
0.01203646
0.01203647
0.01203647
0.0120375
0.0120364
0.01203642
0.01203643
0.01203643
0.01203644
0.01203744
0.01203637
0.01203639
0.01203639
0.0120364
0.01203641
0.01219149
0.01205558
0.0120525
0.01205181
0.01205128
0.01205082
0.01205233
0.01204191
0.01204334
0.01204047
0.01203933
0.01203879
0.01204489
0.01204136
0.01203984
0.01203905
0.01203854
0.01203821
0.012041
0.01203959
0.0120393
0.01203895
0.01203865
0.0120384
0.01204029
0.01203882
0.01203858
0.01203836
0.01203816
0.01203799
0.01203978
0.01203824
0.01203817
0.01203807
0.01203796
0.01203785
0.01203946
0.01203788
0.01203785
0.01203779
0.01203773
0.01203765
0.01203919
0.01203761
0.01203761
0.01203758
0.01203755
0.0120375
0.01203897
0.0120374
0.01203742
0.01203741
0.01203739
0.01203736
0.01203879
0.01203724
0.01203726
0.01203727
0.01203726
0.01203724
0.01203862
0.01203711
0.01203714
0.01203714
0.01203714
0.01203714
0.01203848
0.012037
0.01203703
0.01203704
0.01203704
0.01203704
0.01203835
0.01203691
0.01203693
0.01203695
0.01203696
0.01203696
0.01203823
0.01203683
0.01203685
0.01203687
0.01203688
0.01203688
0.01203812
0.01203676
0.01203678
0.0120368
0.01203681
0.01203681
0.01203802
0.0120367
0.01203672
0.01203673
0.01203675
0.01203675
0.01203793
0.01203664
0.01203666
0.01203668
0.01203669
0.0120367
0.01203784
0.01203659
0.01203661
0.01203663
0.01203664
0.01203664
0.01203776
0.01203655
0.01203656
0.01203658
0.01203659
0.0120366
0.01203769
0.01203651
0.01203652
0.01203653
0.01203654
0.01203655
0.01203762
0.01203647
0.01203648
0.01203649
0.0120365
0.01203651
0.01203756
0.01203643
0.01203645
0.01203646
0.01203647
0.01203647
0.0120375
0.0120364
0.01203641
0.01203642
0.01203643
0.01203644
0.01203744
0.01203637
0.01203638
0.01203639
0.0120364
0.01203641
0.01219179
0.01205575
0.0120526
0.0120519
0.01205136
0.01205091
0.01205231
0.01204191
0.01204334
0.01204047
0.01203933
0.01203879
0.01204487
0.01204136
0.01203984
0.01203905
0.01203854
0.01203821
0.012041
0.01203959
0.0120393
0.01203895
0.01203865
0.0120384
0.01204029
0.01203882
0.01203858
0.01203836
0.01203816
0.01203799
0.01203978
0.01203824
0.01203817
0.01203807
0.01203796
0.01203785
0.01203945
0.01203788
0.01203785
0.01203779
0.01203773
0.01203765
0.01203919
0.01203761
0.01203761
0.01203758
0.01203755
0.0120375
0.01203897
0.0120374
0.01203742
0.01203741
0.01203739
0.01203736
0.01203879
0.01203724
0.01203726
0.01203727
0.01203726
0.01203724
0.01203862
0.01203711
0.01203714
0.01203714
0.01203714
0.01203714
0.01203848
0.012037
0.01203703
0.01203704
0.01203704
0.01203704
0.01203834
0.01203691
0.01203693
0.01203695
0.01203696
0.01203696
0.01203823
0.01203683
0.01203685
0.01203687
0.01203688
0.01203688
0.01203812
0.01203676
0.01203678
0.0120368
0.01203681
0.01203681
0.01203802
0.0120367
0.01203672
0.01203673
0.01203675
0.01203675
0.01203793
0.01203664
0.01203666
0.01203668
0.01203669
0.0120367
0.01203784
0.01203659
0.01203661
0.01203663
0.01203664
0.01203664
0.01203776
0.01203655
0.01203656
0.01203658
0.01203659
0.0120366
0.01203769
0.01203651
0.01203652
0.01203653
0.01203654
0.01203655
0.01203762
0.01203647
0.01203648
0.01203649
0.0120365
0.01203651
0.01203756
0.01203643
0.01203645
0.01203646
0.01203647
0.01203647
0.0120375
0.0120364
0.01203641
0.01203642
0.01203643
0.01203644
0.01203744
0.01203637
0.01203638
0.01203639
0.0120364
0.01203641
0.01219481
0.01205615
0.01205256
0.01205184
0.01205135
0.01205088
0.01205239
0.01204196
0.01204346
0.0120405
0.01203936
0.0120388
0.01204478
0.01204138
0.01203985
0.01203906
0.01203855
0.01203823
0.012041
0.0120396
0.01203934
0.01203897
0.01203868
0.01203842
0.01204029
0.01203884
0.01203859
0.01203836
0.01203816
0.012038
0.01203979
0.01203825
0.01203818
0.01203807
0.01203796
0.01203785
0.01203946
0.01203789
0.01203786
0.0120378
0.01203773
0.01203765
0.0120392
0.01203762
0.01203761
0.01203759
0.01203755
0.0120375
0.01203898
0.01203741
0.01203742
0.01203741
0.01203739
0.01203736
0.01203879
0.01203725
0.01203727
0.01203727
0.01203726
0.01203724
0.01203863
0.01203712
0.01203714
0.01203715
0.01203714
0.01203713
0.01203848
0.01203701
0.01203703
0.01203704
0.01203704
0.01203704
0.01203835
0.01203692
0.01203694
0.01203695
0.01203696
0.01203696
0.01203823
0.01203684
0.01203686
0.01203687
0.01203688
0.01203688
0.01203812
0.01203677
0.01203679
0.0120368
0.01203681
0.01203681
0.01203802
0.0120367
0.01203672
0.01203674
0.01203675
0.01203675
0.01203793
0.01203665
0.01203667
0.01203668
0.01203669
0.01203669
0.01203784
0.0120366
0.01203662
0.01203663
0.01203664
0.01203664
0.01203776
0.01203655
0.01203657
0.01203658
0.01203659
0.0120366
0.01203769
0.01203651
0.01203653
0.01203654
0.01203654
0.01203655
0.01203762
0.01203647
0.01203649
0.0120365
0.0120365
0.01203651
0.01203756
0.01203644
0.01203645
0.01203646
0.01203647
0.01203647
0.0120375
0.0120364
0.01203642
0.01203642
0.01203643
0.01203644
0.01203744
0.01203637
0.01203638
0.01203639
0.0120364
0.01203641
0.01219459
0.0120575
0.01205277
0.01205197
0.01205143
0.01205092
0.01205264
0.01204229
0.01204328
0.01204052
0.01203936
0.01203881
0.01204475
0.01204138
0.01203988
0.01203911
0.0120386
0.01203828
0.01204099
0.01203962
0.01203938
0.01203902
0.0120387
0.01203845
0.01204028
0.01203886
0.01203861
0.01203837
0.01203817
0.012038
0.01203978
0.01203826
0.01203819
0.01203808
0.01203797
0.01203785
0.01203945
0.0120379
0.01203786
0.0120378
0.01203773
0.01203766
0.01203919
0.01203762
0.01203762
0.01203759
0.01203755
0.0120375
0.01203897
0.01203742
0.01203743
0.01203741
0.01203739
0.01203736
0.01203879
0.01203726
0.01203727
0.01203727
0.01203726
0.01203724
0.01203862
0.01203713
0.01203714
0.01203715
0.01203714
0.01203714
0.01203848
0.01203702
0.01203704
0.01203704
0.01203704
0.01203704
0.01203835
0.01203692
0.01203694
0.01203695
0.01203696
0.01203696
0.01203823
0.01203684
0.01203686
0.01203687
0.01203688
0.01203688
0.01203812
0.01203677
0.01203679
0.0120368
0.01203681
0.01203681
0.01203802
0.01203671
0.01203673
0.01203674
0.01203674
0.01203675
0.01203793
0.01203665
0.01203667
0.01203668
0.01203669
0.01203669
0.01203784
0.0120366
0.01203662
0.01203663
0.01203664
0.01203664
0.01203776
0.01203656
0.01203657
0.01203658
0.01203659
0.0120366
0.01203769
0.01203652
0.01203653
0.01203654
0.01203654
0.01203655
0.01203762
0.01203648
0.01203649
0.0120365
0.0120365
0.01203651
0.01203756
0.01203644
0.01203645
0.01203646
0.01203647
0.01203647
0.0120375
0.01203641
0.01203642
0.01203642
0.01203643
0.01203644
0.01203744
0.01203638
0.01203639
0.01203639
0.0120364
0.01203641
0.01218679
0.01206196
0.01205831
0.01205652
0.01205524
0.01205424
0.01205388
0.0120435
0.01204331
0.01204076
0.01203958
0.01203899
0.0120442
0.01204147
0.01203997
0.01203917
0.0120387
0.01203837
0.01204129
0.01203975
0.01203941
0.01203899
0.0120387
0.01203845
0.01204053
0.01203893
0.01203864
0.01203839
0.01203821
0.01203804
0.01203997
0.01203832
0.01203822
0.0120381
0.01203799
0.01203789
0.01203961
0.01203794
0.01203789
0.01203782
0.01203776
0.01203769
0.01203933
0.01203766
0.01203764
0.01203761
0.01203758
0.01203753
0.01203909
0.01203745
0.01203745
0.01203744
0.01203742
0.01203739
0.01203889
0.01203729
0.01203729
0.01203729
0.01203729
0.01203727
0.01203872
0.01203716
0.01203716
0.01203717
0.01203717
0.01203717
0.01203857
0.01203705
0.01203706
0.01203707
0.01203707
0.01203707
0.01203843
0.01203695
0.01203696
0.01203697
0.01203698
0.01203699
0.01203831
0.01203687
0.01203688
0.01203689
0.01203691
0.01203691
0.01203819
0.0120368
0.01203681
0.01203682
0.01203683
0.01203684
0.01203809
0.01203673
0.01203675
0.01203676
0.01203677
0.01203678
0.01203799
0.01203668
0.01203669
0.0120367
0.01203671
0.01203672
0.01203791
0.01203662
0.01203664
0.01203665
0.01203666
0.01203667
0.01203782
0.01203658
0.01203659
0.0120366
0.01203661
0.01203662
0.01203775
0.01203654
0.01203654
0.01203656
0.01203657
0.01203658
0.01203768
0.0120365
0.0120365
0.01203652
0.01203653
0.01203654
0.01203761
0.01203646
0.01203647
0.01203648
0.01203649
0.0120365
0.01203755
0.01203643
0.01203643
0.01203644
0.01203645
0.01203646
0.01203768
0.0120364
0.0120364
0.01203641
0.01203642
0.01203643
0.01311605
0.01246708
0.01239444
0.01234972
0.01231653
0.01228994
0.01206968
0.01204915
0.01204506
0.01204278
0.01204201
0.01204163
0.01204143
0.01206119
0.01204671
0.01204243
0.01204085
0.01204012
0.01203966
0.01203935
0.01205466
0.01204173
0.01204051
0.01203961
0.01203916
0.01203885
0.01203864
0.01205235
0.01204042
0.01203951
0.01203897
0.01203869
0.01203847
0.01203832
0.01205053
0.01203914
0.01203874
0.01203842
0.01203826
0.01203813
0.01203804
0.01204928
0.01203844
0.0120382
0.01203799
0.01203791
0.01203783
0.01203778
0.0120483
0.01203791
0.01203778
0.01203764
0.0120376
0.01203757
0.01203755
0.01204751
0.01203752
0.01203746
0.01203736
0.01203734
0.01203734
0.01203734
0.01204683
0.01203721
0.01203719
0.01203712
0.01203712
0.01203713
0.01203715
0.01204625
0.01203696
0.01203697
0.01203691
0.01203693
0.01203694
0.01203698
0.01204574
0.01203675
0.01203678
0.01203673
0.01203675
0.01203678
0.01203682
0.01204528
0.01203657
0.01203662
0.01203658
0.0120366
0.01203663
0.01203667
0.01204487
0.01203642
0.01203647
0.01203644
0.01203646
0.01203649
0.01203654
0.01204449
0.01203628
0.01203634
0.01203632
0.01203634
0.01203637
0.01203642
0.01204415
0.01203616
0.01203623
0.0120362
0.01203623
0.01203626
0.01203631
0.01204383
0.01203605
0.01203612
0.0120361
0.01203612
0.01203615
0.01203621
0.01204353
0.01203595
0.01203603
0.01203601
0.01203603
0.01203606
0.01203611
0.01204326
0.01203585
0.01203594
0.01203592
0.01203594
0.01203597
0.01203602
0.012043
0.01203577
0.01203586
0.01203584
0.01203586
0.01203589
0.01203594
0.01204277
0.01203569
0.01203578
0.01203577
0.01203579
0.01203581
0.01203586
0.01204255
0.01203562
0.01203571
0.0120357
0.01203572
0.01203574
0.01203579
0.01204234
0.01203555
0.01203564
0.01203564
0.01203565
0.01203568
0.01203572
0.01204215
0.001980174
0.01203558
0.01203558
0.01203559
0.01203562
0.01203566
0.004220208
0.01268796
0.0120853
0.01207738
0.004178579
0.004341167
0.01206881
0.01205594
0.01205874
0.01205474
0.004338014
0.004340213
0.01206008
0.01204785
0.01205306
0.01204541
0.004334583
0.004333956
0.01205365
0.01204318
0.01205075
0.01204311
0.004329164
0.004328591
0.01205142
0.01204159
0.01204935
0.01204157
0.004324594
0.004324177
0.01204966
0.01204061
0.01204832
0.01204072
0.004320754
0.004320448
0.01204847
0.01203999
0.0120475
0.01204011
0.004317469
0.004317239
0.01204753
0.01203955
0.01204682
0.01203966
0.004314605
0.00431443
0.01204677
0.01203921
0.01204623
0.01203931
0.004312074
0.004311938
0.01204613
0.01203894
0.01204571
0.01203903
0.00430981
0.004309707
0.01204558
0.01203871
0.01204525
0.0120388
0.004307767
0.004307691
0.01204509
0.01203852
0.01204483
0.0120386
0.004305911
0.004305855
0.01204466
0.01203836
0.01204446
0.01203842
0.004304214
0.004304175
0.01204427
0.01203821
0.01204411
0.01203827
0.004302655
0.004302628
0.01204391
0.01203808
0.01204379
0.01203813
0.004301215
0.004301196
0.01204358
0.01203797
0.0120435
0.01203801
0.004299881
0.004299868
0.01204328
0.01203786
0.01204323
0.0120379
0.004298643
0.004298634
0.012043
0.01203777
0.01204297
0.0120378
0.00429749
0.004297485
0.01204274
0.01203768
0.01204274
0.01203771
0.004296415
0.004296411
0.01204251
0.0120376
0.01204252
0.01203762
0.004295407
0.004295397
0.01204228
0.01203753
0.01204231
0.01203755
0.004294449
0.00429438
0.01204208
0.01203746
0.01204212
0.01203748
0.004293446
0.004292958
0.01204188
0.01203739
0.01204194
0.01203741
0.004291755
0.01202633
0.01204214
0.01203733
0.01204133
0.01203687
0.01344742
0.01206591
0.01208007
0.01395428
0.01206356
0.01208242
0.0137071
0.01206152
0.01208649
0.01396108
0.0120623
0.01208665
0.01378903
0.01206127
0.0120871
0.01395127
0.01206241
0.01208707
0.01394023
0.01206131
0.01208691
0.01395133
0.01206252
0.01208687
0.0139503
0.01206143
0.01208687
0.01392475
0.01206242
0.01208692
0.01395517
0.01206138
0.01208719
0.01380674
0.0120624
0.01208708
0.01396016
0.01206136
0.01208664
0.01370973
0.01206275
0.01208649
0.01395147
0.01206233
0.01208247
0.0134467
0.01206671
0.01208005
0.0126911
0.01208415
0.01207735
0.004220202
0.01204843
0.00433079
0.01204674
0.01205305
0.01204541
0.004337896
0.004340244
0.0120369
0.01204193
0.01203741
0.00429345
0.004292966
0.01203733
0.01204133
0.01203735
0.004291757
0.01202622
0.01216141
0.009086833
0.004187156
0.004352313
0.01311618
0.01235447
0.0120747
0.0120578
0.004348843
0.004353222
0.01246692
0.01227987
0.01205754
0.0120549
0.004344741
0.00434799
0.01239435
0.01224833
0.01205309
0.01205138
0.004339419
0.004343431
0.01234966
0.01222616
0.01205096
0.01204892
0.004334968
0.004339381
0.01231654
0.01220564
0.01204963
0.01204774
0.004330769
0.01228994
0.01204843
0.01206803
0.009109685
0.01208623
0.009123075
0.01205181
0.009072199
0.01205763
0.00907278
0.01204742
0.00903414
0.01204976
0.009034761
0.01204557
0.009005642
0.01204697
0.00900603
0.01204438
0.008982848
0.01204527
0.008983106
0.01204354
0.008963942
0.01204416
0.008964094
0.0120429
0.008947811
0.01204335
0.008947897
0.01204238
0.008933793
0.01204272
0.008933834
0.01204194
0.008921423
0.0120422
0.008921429
0.01204156
0.008910378
0.01204177
0.008910369
0.01204123
0.008900426
0.01204141
0.008900406
0.01204094
0.008891384
0.01204109
0.008891362
0.01204068
0.008883123
0.0120408
0.008883096
0.01204045
0.008875535
0.01204055
0.008875504
0.01204024
0.008868536
0.01204032
0.0088685
0.01204004
0.008862057
0.01204012
0.008862017
0.01203987
0.008856041
0.01203993
0.008855998
0.0120397
0.008850441
0.01203976
0.008850397
0.01203955
0.008845215
0.0120396
0.008845172
0.01203942
0.008840329
0.01203946
0.008840294
0.01203929
0.008835763
0.01203932
0.008835728
0.01203917
0.008831472
0.0120392
0.008831415
0.01203905
0.008827266
0.01203908
0.008826672
0.01216917
0.01217072
0.01216322
0.01216491
0.01216211
0.01216116
0.01216394
0.01216236
0.01216297
0.01216187
0.01216367
0.01216178
0.01216177
0.01216347
0.01216572
0.01216503
0.01215681
0.01218192
0.01235448
0.01207469
0.01205779
0.004187143
0.004352371
0.01227952
0.01205754
0.01205488
0.004348887
0.004353265
0.01224781
0.01205309
0.01205137
0.004344764
0.004347997
0.01222554
0.01205096
0.01204892
0.00433945
0.00434348
0.01220498
0.01204961
0.01204677
0.004335011
0.004339523
0.01205451
0.01205873
0.01205474
0.004178464
0.004341148
0.01204201
0.01205075
0.01204311
0.004334535
0.004333974
0.01204052
0.01204934
0.01204157
0.004329166
0.004328591
0.0120396
0.01204832
0.01204072
0.004324551
0.004324166
0.01203905
0.0120475
0.01204011
0.00432072
0.00432047
0.01203866
0.01204682
0.01203966
0.004317479
0.004317269
0.01203836
0.01204623
0.01203931
0.004314621
0.004314448
0.01203813
0.01204571
0.01203903
0.004312079
0.004311944
0.01203795
0.01204524
0.0120388
0.004309817
0.004309709
0.01203779
0.01204483
0.01203859
0.004307767
0.004307713
0.01203765
0.01204445
0.01203842
0.004305939
0.004305883
0.01203754
0.0120441
0.01203827
0.004304245
0.004304203
0.01203743
0.01204379
0.01203813
0.004302686
0.004302644
0.01203734
0.01204349
0.01203801
0.004301233
0.004301217
0.01203726
0.01204322
0.0120379
0.004299915
0.004299894
0.01203718
0.01204297
0.0120378
0.004298674
0.004298653
0.01203711
0.01204273
0.01203771
0.004297525
0.004297512
0.01203705
0.01204251
0.01203762
0.004296446
0.004296438
0.01203699
0.01204231
0.01203755
0.004295451
0.004295393
0.01203694
0.01204211
0.01203747
0.004294465
0.004294396
0.01212477
0.00918108
0.01211889
0.008867606
0.01211625
0.009145906
0.0121274
0.00883039
0.01215624
0.01218399
0.01206066
0.009100807
0.01205805
0.00909816
0.01205063
0.009054476
0.01204931
0.009054056
0.01204708
0.009021374
0.01204657
0.009021134
0.01204532
0.008995503
0.01204498
0.008995319
0.01204419
0.00897451
0.01204393
0.008974366
0.01204339
0.00895684
0.01204317
0.008956722
0.01204277
0.008941658
0.01204258
0.008941555
0.01204226
0.008928378
0.01204209
0.008928283
0.01204184
0.0089166
0.01204169
0.008916507
0.01204147
0.00890604
0.01204134
0.008905955
0.01204116
0.008896492
0.01204103
0.00889641
0.01204087
0.008887798
0.01204075
0.008887717
0.01204062
0.008879836
0.01204051
0.008879762
0.01204039
0.008872506
0.01204029
0.008872439
0.01204018
0.008865733
0.01204009
0.008865672
0.01203999
0.008859455
0.0120399
0.008859398
0.01203982
0.00885362
0.01203974
0.008853564
0.01203966
0.008848185
0.01203958
0.008848128
0.01203951
0.008843111
0.01203944
0.008843048
0.01203937
0.00883837
0.01203931
0.008838307
0.01203925
0.008833922
0.01203918
0.008833866
0.01203913
0.008829619
0.01203907
0.008829663
0.01203901
0.01201422
0.008824634
0.01203809
0.01216632
0.01216707
0.01216278
0.01216318
0.01216209
0.01216199
0.01216336
0.01216255
0.01216196
0.01216147
0.0121655
0.0121647
0.01216351
0.01216259
0.01216922
0.01216975
0.01216219
0.009087243
0.01212505
0.009181249
0.01211891
0.00886734
0.01211637
0.009145638
0.01212729
0.008830735
0.01206543
0.009001188
0.01205776
0.01205181
0.009072355
0.01205764
0.009072798
0.01203917
0.008831531
0.0120392
0.008831501
0.01203913
0.008829602
0.01203907
0.008829763
0.01203905
0.008827307
0.01203907
0.008826597
0.01203901
0.008822482
0.008824714
0.01203808
0.01204196
0.01202644
0.01204196
0.01203728
0.01203728
0.01202634
0.01201451
0.01203809
0.008819272
0.01203809
0.0127589
0.009498734
0.009156494
0.01209592
0.01209596
0.00916281
0.01207959
0.009113925
0.01207353
0.009120807
0.01207338
0.009072576
0.01206673
0.009086986
0.01206993
0.009043377
0.01206227
0.009061018
0.01206741
0.009020021
0.01205963
0.009040366
0.01206543
0.009001091
0.01205776
0.009023133
0.01205233
0.008790955
0.0120568
0.008784606
0.0120493
0.008721749
0.01204409
0.00871884
0.01204747
0.008680914
0.01204285
0.008678959
0.01204622
0.008651672
0.01204257
0.008650056
0.01204526
0.008628664
0.01204237
0.008627259
0.01204447
0.008609798
0.01204217
0.008608544
0.01204379
0.008593798
0.01204196
0.008592683
0.0120432
0.008579942
0.01204174
0.008578938
0.01204271
0.008567747
0.01204152
0.008566832
0.01204228
0.008556874
0.01204129
0.008556037
0.01204191
0.008547087
0.01204107
0.008546316
0.01204158
0.008538205
0.01204084
0.008537492
0.01204129
0.008530092
0.01204063
0.008529432
0.01204103
0.008522645
0.01204044
0.008522031
0.01204077
0.008515773
0.01204024
0.008515202
0.01204053
0.008509411
0.01204006
0.00850888
0.01204031
0.008503505
0.01203988
0.008503009
0.01204009
0.008498006
0.0120397
0.008497545
0.01203988
0.008492879
0.01203953
0.008492448
0.01203969
0.008488089
0.01203936
0.008487687
0.0120395
0.008483609
0.0120392
0.008483233
0.01203932
0.008479414
0.01203905
0.008479062
0.01203915
0.008475465
0.0120389
0.008475122
0.01311781
0.01313272
0.01313492
0.01314881
0.01315575
0.01315381
0.01313091
0.01315948
0.01314803
0.01316517
0.0131625
0.013143
0.01314493
0.01312797
0.01312057
0.0131125
0.01304341
0.01310119
0.01393395
0.00871204
0.0144511
0.008715739
0.01206159
0.008815633
0.01206206
0.00881933
0.01307045
0.01309708
0.01204721
0.008735275
0.0120531
0.008737941
0.01204534
0.0086899
0.01204912
0.008691518
0.01204436
0.008658379
0.01204704
0.008659685
0.01204379
0.008633943
0.01204578
0.008634968
0.01204335
0.008614133
0.01204485
0.008614974
0.01204296
0.008597477
0.01204409
0.008598182
0.01204261
0.008583127
0.01204345
0.008583728
0.01204228
0.008570545
0.01204293
0.008571066
0.01204197
0.008559363
0.01204248
0.008559823
0.01204167
0.008549322
0.01204207
0.008549733
0.01204139
0.008540229
0.01204172
0.008540601
0.01204114
0.008531937
0.0120414
0.008532275
0.0120409
0.008524335
0.01204111
0.008524642
0.01204067
0.00851733
0.01204084
0.008517611
0.01204046
0.008510852
0.01204058
0.008511112
0.01204024
0.008504841
0.01204033
0.008505083
0.01204004
0.008499249
0.0120401
0.008499475
0.01203985
0.008494037
0.01203987
0.008494249
0.01203966
0.008489171
0.01203966
0.008489369
0.01203948
0.008484622
0.01203946
0.008484807
0.01203931
0.008480362
0.01203927
0.008480536
0.01203915
0.008476361
0.0120391
0.008476526
0.01203684
0.008471603
0.01203897
0.008472228
0.01312368
0.01313671
0.01314992
0.01310688
0.01313842
0.01314105
0.01317078
0.01315225
0.01316791
0.01313524
0.01316558
0.01315742
0.01315361
0.01315082
0.0131064
0.01313379
0.01272965
0.009502832
0.01393295
0.008712544
0.01444911
0.008716334
0.01206143
0.008815196
0.01206201
0.008819192
0.01256584
0.008582322
0.01271057
0.00858287
0.0120493
0.008721758
0.01204409
0.008718834
0.01205062
0.009053728
0.01204933
0.00905402
0.01203915
0.00847633
0.01203912
0.008476495
0.01203915
0.008475439
0.008475113
0.01203887
0.008471684
0.01203912
0.01203897
0.008472069
0.0151729
0.008755988
0.01402576
0.008750047
0.01216481
0.008884362
0.01215426
0.008833401
0.01305081
0.0130248
0.012075
0.009153072
0.01208494
0.009133585
0.01206667
0.009112492
0.01207889
0.009091684
0.01206275
0.009082636
0.01207472
0.009058929
0.01206076
0.009059036
0.01207166
0.009032317
0.01205914
0.009039796
0.01206917
0.009011339
0.01205073
0.008766761
0.01205187
0.008770878
0.01204661
0.008709373
0.01204969
0.008711358
0.01204521
0.008672469
0.01204737
0.008673892
0.01204429
0.008645022
0.01204596
0.008646158
0.0120437
0.008623212
0.01204494
0.008624118
0.01204323
0.008605158
0.01204419
0.008605905
0.01204282
0.008589774
0.01204358
0.008590405
0.01204245
0.008576392
0.01204304
0.008576934
0.0120421
0.008564573
0.01204256
0.008565046
0.01204179
0.008554009
0.01204213
0.008554429
0.0120415
0.008544479
0.01204174
0.008544857
0.01204123
0.008535814
0.0120414
0.008536159
0.01204099
0.008527892
0.0120411
0.008528205
0.01204076
0.008520609
0.01204082
0.008520898
0.01204053
0.008513885
0.01204056
0.008514153
0.01204032
0.008507656
0.01204032
0.008507905
0.01204011
0.008501869
0.01204009
0.008502101
0.01203992
0.008496479
0.01203988
0.008496697
0.01203973
0.008491451
0.01203968
0.008491655
0.01203954
0.008486753
0.01203949
0.008486944
0.01203937
0.008482356
0.01203931
0.008482536
0.0120392
0.008478237
0.01203914
0.008478406
0.01203904
0.008474278
0.01203897
0.008474484
0.01313408
0.01313964
0.01313969
0.01315346
0.01311531
0.01314555
0.01315821
0.01315375
0.01313936
0.0131304
0.01313516
0.01315925
0.01317136
0.0131355
0.01314669
0.01315133
0.01303162
0.01297907
0.009156596
0.01209601
0.009161769
0.01209581
0.009148848
0.009132519
0.0120751
0.01208725
0.009113034
0.009119854
0.01207949
0.0120735
0.009109127
0.009090658
0.01206674
0.01208099
0.009071715
0.009086163
0.01207327
0.01206669
0.009079814
0.009058097
0.01206281
0.01207668
0.009042569
0.009060178
0.01206982
0.01206223
0.009056579
0.009031447
0.01206081
0.01207351
0.009019202
0.009039564
0.01206723
0.01205959
0.00903988
0.01206916
0.009010527
0.01205734
0.009110152
0.01208595
0.009123128
0.0120678
0.009100926
0.01205823
0.009098518
0.01206064
0.009033509
0.01204967
0.009034999
0.01204732
0.009020572
0.009021172
0.01204707
0.01204658
0.009004951
0.009005249
0.01204558
0.0120469
0.008994693
0.008994535
0.01204532
0.01204499
0.008982118
0.008983126
0.01204438
0.01204522
0.008974608
0.00897469
0.01204419
0.01204394
0.008964012
0.008964108
0.01204355
0.01204411
0.008947021
0.008947115
0.0120429
0.01204335
0.008940856
0.008940772
0.01204277
0.01204259
0.008933029
0.008933053
0.01204238
0.01204268
0.008928393
0.0089275
0.01204227
0.0120421
0.008921468
0.008921463
0.01204194
0.01204217
0.008916905
0.008916616
0.01204184
0.01204169
0.008910401
0.008909558
0.01204156
0.01204174
0.00890651
0.008905397
0.01204147
0.01204134