/*--------------------------------*- C++ -*----------------------------------*\
  =========                 |
  \\      /  F ield         | OpenFOAM: The Open Source CFD Toolbox
   \\    /   O peration     | Website:  https://openfoam.org
    \\  /    A nd           | Version:  7
     \\/     M anipulation  |
\*---------------------------------------------------------------------------*/
FoamFile
{
    version     2.0;
    format      ascii;
    class       volScalarField;
    location    "0.02";
    object      k;
}
// * * * * * * * * * * * * * * * * * * * * * * * * * * * * * * * * * * * * * //

dimensions      [0 2 -2 0 0 0 0];

internalField   nonuniform List<scalar> 
109929
(
0.003761394
0.003759414
0.003757743
0.003756497
0.00375547
0.00375462
0.003759777
0.003759076
0.003758091
0.00375716
0.003756324
0.003755586
0.003757863
0.003757527
0.003756825
0.003756091
0.003755409
0.003754779
0.003756287
0.003756149
0.00375567
0.003755114
0.003754587
0.003754077
0.003754991
0.003754931
0.003754581
0.003754164
0.003753744
0.003753322
0.003753911
0.003753882
0.003753617
0.003753308
0.003752961
0.003752619
0.003752986
0.003752967
0.003752755
0.003752509
0.003752234
0.003751954
0.003752181
0.003752159
0.003751985
0.003751785
0.003751575
0.003751331
0.00375147
0.003751439
0.003751292
0.003751126
0.003750951
0.003750747
0.003750836
0.003750791
0.003750665
0.003750521
0.003750374
0.003750206
0.003750264
0.003750211
0.003750094
0.003749967
0.003749842
0.003749705
0.003749746
0.003749682
0.003749571
0.00374946
0.00374935
0.00374923
0.003749272
0.003749197
0.003749091
0.003748992
0.003748895
0.003748788
0.00374884
0.003748749
0.003748651
0.003748558
0.00374847
0.003748374
0.003748445
0.003748335
0.003748243
0.003748156
0.003748074
0.003747989
0.003748079
0.003747952
0.003747865
0.003747782
0.003747706
0.003747628
0.003747739
0.003747596
0.003747513
0.003747433
0.003747363
0.003747291
0.003747423
0.003747265
0.003747185
0.00374711
0.003747043
0.003746975
0.003747129
0.003746956
0.003746878
0.003746809
0.003746743
0.003746677
0.003746854
0.003746668
0.003746592
0.003746527
0.003746462
0.003746398
0.003746598
0.003746398
0.003746324
0.003746264
0.003746198
0.003746137
0.003746357
0.003746147
0.003746073
0.003746016
0.003745953
0.003745894
0.003677035
0.003745912
0.00374584
0.003745786
0.003745727
0.003745667
0.003702654
0.003681959
0.00368105
0.003680493
0.003680139
0.003679862
0.003681042
0.00367825
0.003678218
0.003677682
0.003677437
0.003677316
0.003678713
0.003677853
0.003677537
0.003677369
0.003677272
0.003677208
0.003677992
0.003677501
0.003677428
0.003677341
0.003677281
0.00367723
0.003677743
0.003677337
0.003677276
0.003677222
0.003677184
0.00367715
0.003677607
0.003677217
0.003677193
0.003677166
0.003677145
0.003677122
0.003677515
0.003677142
0.003677129
0.003677114
0.003677101
0.003677086
0.003677447
0.003677089
0.003677083
0.003677075
0.003677067
0.003677058
0.003677394
0.00367705
0.003677047
0.003677043
0.003677039
0.003677033
0.00367735
0.003677019
0.003677018
0.003677016
0.003677015
0.003677011
0.003677313
0.003676995
0.003676995
0.003676994
0.003676994
0.003676992
0.003677281
0.003676975
0.003676975
0.003676976
0.003676976
0.003676976
0.003677253
0.003676958
0.003676959
0.00367696
0.003676961
0.003676961
0.003677228
0.003676943
0.003676944
0.003676946
0.003676947
0.003676947
0.003677206
0.00367693
0.003676932
0.003676933
0.003676935
0.003676936
0.003677186
0.003676919
0.003676921
0.003676922
0.003676924
0.003676925
0.003677167
0.003676909
0.003676911
0.003676912
0.003676914
0.003676915
0.00367715
0.0036769
0.003676902
0.003676903
0.003676905
0.003676906
0.003677135
0.003676892
0.003676894
0.003676895
0.003676897
0.003676898
0.00367712
0.003676885
0.003676886
0.003676888
0.003676889
0.003676891
0.003677107
0.003676878
0.003676879
0.003676881
0.003676883
0.003676884
0.003677095
0.003676872
0.003676873
0.003676875
0.003676876
0.003676877
0.003677083
0.003676867
0.003676867
0.003676869
0.00367687
0.003676872
0.003677067
0.003676861
0.003676862
0.003676863
0.003676865
0.003676866
0.003708855
0.003681372
0.003680044
0.003679721
0.003679564
0.003679446
0.003680067
0.00367799
0.003678212
0.003677628
0.003677389
0.003677277
0.003678459
0.003677834
0.003677518
0.003677355
0.00367725
0.003677186
0.003677611
0.003677473
0.003677422
0.003677347
0.003677282
0.00367723
0.003677502
0.003677323
0.003677268
0.003677219
0.003677176
0.003677142
0.003677413
0.003677204
0.003677188
0.003677163
0.00367714
0.003677117
0.003677358
0.003677133
0.003677125
0.003677111
0.003677095
0.00367708
0.003677314
0.00367708
0.003677078
0.003677071
0.003677062
0.003677052
0.003677278
0.003677042
0.003677043
0.003677039
0.003677033
0.003677027
0.003677247
0.003677012
0.003677014
0.003677012
0.003677009
0.003677006
0.003677221
0.003676988
0.003676991
0.00367699
0.003676989
0.003676987
0.003677197
0.003676969
0.003676971
0.003676972
0.003676971
0.00367697
0.003677176
0.003676952
0.003676955
0.003676956
0.003676956
0.003676955
0.003677156
0.003676938
0.003676941
0.003676942
0.003676942
0.003676942
0.003677139
0.003676925
0.003676928
0.003676929
0.00367693
0.003676931
0.003677122
0.003676915
0.003676917
0.003676918
0.003676919
0.00367692
0.003677107
0.003676905
0.003676907
0.003676908
0.00367691
0.00367691
0.003677094
0.003676896
0.003676898
0.0036769
0.003676901
0.003676902
0.003677081
0.003676888
0.00367689
0.003676892
0.003676893
0.003676894
0.003677069
0.003676881
0.003676883
0.003676884
0.003676885
0.003676886
0.003677058
0.003676875
0.003676876
0.003676877
0.003676878
0.00367688
0.003677047
0.003676868
0.00367687
0.003676871
0.003676872
0.003676873
0.003677038
0.003676863
0.003676864
0.003676865
0.003676866
0.003676867
0.003677029
0.003676858
0.003676859
0.00367686
0.003676861
0.003676862
0.003709357
0.003680449
0.003679728
0.003679697
0.003679619
0.003679502
0.003679964
0.003677922
0.003678251
0.003677625
0.003677388
0.003677275
0.003678418
0.003677834
0.003677513
0.003677347
0.003677241
0.003677176
0.003677624
0.00367747
0.003677414
0.003677337
0.003677277
0.003677225
0.003677498
0.003677319
0.003677265
0.003677216
0.003677174
0.003677141
0.003677411
0.003677202
0.003677184
0.003677162
0.003677138
0.003677116
0.003677355
0.003677132
0.003677123
0.003677109
0.003677094
0.003677079
0.003677311
0.003677079
0.003677077
0.00367707
0.003677062
0.003677052
0.003677275
0.003677041
0.003677042
0.003677038
0.003677033
0.003677027
0.003677244
0.003677011
0.003677013
0.003677012
0.003677009
0.003677005
0.003677218
0.003676987
0.00367699
0.00367699
0.003676989
0.003676987
0.003677194
0.003676967
0.003676971
0.003676971
0.003676971
0.00367697
0.003677173
0.003676951
0.003676954
0.003676955
0.003676956
0.003676955
0.003677153
0.003676937
0.00367694
0.003676941
0.003676942
0.003676942
0.003677136
0.003676924
0.003676927
0.003676929
0.00367693
0.003676931
0.00367712
0.003676913
0.003676916
0.003676918
0.003676919
0.00367692
0.003677105
0.003676904
0.003676906
0.003676908
0.00367691
0.00367691
0.003677091
0.003676895
0.003676898
0.003676899
0.003676901
0.003676902
0.003677078
0.003676887
0.00367689
0.003676891
0.003676893
0.003676894
0.003677067
0.00367688
0.003676882
0.003676884
0.003676885
0.003676886
0.003677056
0.003676873
0.003676876
0.003676877
0.003676879
0.00367688
0.003677045
0.003676867
0.00367687
0.003676871
0.003676872
0.003676873
0.003677036
0.003676862
0.003676864
0.003676865
0.003676866
0.003676867
0.003677027
0.003676857
0.003676859
0.00367686
0.003676861
0.003676862
0.003708459
0.003680259
0.003679619
0.003679487
0.00367939
0.003679302
0.003679938
0.00367791
0.003678225
0.003677618
0.003677384
0.003677273
0.00367842
0.00367783
0.003677511
0.003677345
0.003677239
0.003677174
0.003677625
0.003677467
0.003677406
0.003677333
0.003677272
0.003677221
0.003677497
0.003677314
0.003677263
0.003677215
0.003677174
0.003677141
0.003677409
0.003677198
0.003677183
0.003677161
0.003677138
0.003677116
0.003677353
0.003677129
0.003677122
0.003677109
0.003677094
0.003677079
0.00367731
0.003677077
0.003677076
0.00367707
0.003677061
0.003677052
0.003677274
0.003677039
0.00367704
0.003677038
0.003677033
0.003677027
0.003677243
0.003677009
0.003677012
0.003677011
0.003677009
0.003677005
0.003677216
0.003676986
0.003676989
0.003676989
0.003676989
0.003676987
0.003677193
0.003676966
0.003676969
0.003676971
0.003676971
0.00367697
0.003677172
0.003676949
0.003676953
0.003676955
0.003676956
0.003676955
0.003677152
0.003676935
0.003676939
0.003676941
0.003676942
0.003676942
0.003677135
0.003676923
0.003676926
0.003676929
0.00367693
0.003676931
0.003677119
0.003676912
0.003676915
0.003676918
0.003676919
0.00367692
0.003677104
0.003676903
0.003676906
0.003676908
0.003676909
0.00367691
0.00367709
0.003676894
0.003676897
0.003676899
0.003676901
0.003676902
0.003677078
0.003676886
0.003676889
0.003676891
0.003676893
0.003676894
0.003677066
0.003676879
0.003676882
0.003676884
0.003676885
0.003676886
0.003677055
0.003676872
0.003676875
0.003676877
0.003676878
0.00367688
0.003677045
0.003676867
0.003676869
0.003676871
0.003676872
0.003676873
0.003677035
0.003676861
0.003676863
0.003676865
0.003676866
0.003676867
0.003677026
0.003676856
0.003676858
0.00367686
0.003676861
0.003676862
0.003708524
0.003680296
0.00367964
0.003679507
0.003679407
0.003679321
0.003679934
0.00367791
0.003678225
0.003677618
0.003677384
0.003677273
0.003678416
0.00367783
0.003677511
0.003677345
0.00367724
0.003677174
0.003677625
0.003677467
0.003677406
0.003677333
0.003677272
0.003677222
0.003677497
0.003677314
0.003677263
0.003677215
0.003677174
0.003677141
0.003677408
0.003677198
0.003677183
0.003677161
0.003677138
0.003677116
0.003677353
0.003677129
0.003677122
0.003677109
0.003677094
0.003677079
0.003677309
0.003677077
0.003677076
0.00367707
0.003677061
0.003677052
0.003677274
0.003677039
0.00367704
0.003677038
0.003677033
0.003677027
0.003677243
0.003677009
0.003677012
0.003677011
0.003677009
0.003677005
0.003677216
0.003676986
0.003676989
0.003676989
0.003676989
0.003676987
0.003677193
0.003676966
0.003676969
0.003676971
0.003676971
0.00367697
0.003677171
0.003676949
0.003676953
0.003676955
0.003676956
0.003676955
0.003677152
0.003676935
0.003676939
0.003676941
0.003676942
0.003676942
0.003677135
0.003676923
0.003676926
0.003676929
0.00367693
0.003676931
0.003677119
0.003676912
0.003676915
0.003676918
0.003676919
0.00367692
0.003677104
0.003676903
0.003676906
0.003676908
0.003676909
0.00367691
0.00367709
0.003676894
0.003676897
0.003676899
0.003676901
0.003676902
0.003677078
0.003676886
0.003676889
0.003676891
0.003676893
0.003676894
0.003677066
0.003676879
0.003676882
0.003676884
0.003676885
0.003676886
0.003677055
0.003676872
0.003676875
0.003676877
0.003676878
0.00367688
0.003677045
0.003676867
0.003676869
0.003676871
0.003676872
0.003676873
0.003677035
0.003676861
0.003676863
0.003676865
0.003676866
0.003676867
0.003677026
0.003676856
0.003676858
0.00367686
0.003676861
0.003676862
0.003709156
0.003680381
0.003679631
0.003679495
0.003679404
0.003679316
0.003679949
0.003677922
0.003678251
0.003677625
0.003677388
0.003677274
0.003678396
0.003677834
0.003677513
0.003677348
0.003677242
0.003677177
0.003677625
0.00367747
0.003677414
0.003677337
0.003677277
0.003677226
0.003677498
0.003677318
0.003677264
0.003677215
0.003677174
0.003677141
0.00367741
0.003677202
0.003677184
0.003677162
0.003677138
0.003677116
0.003677354
0.003677131
0.003677123
0.003677109
0.003677094
0.003677079
0.00367731
0.003677079
0.003677077
0.00367707
0.003677061
0.003677052
0.003677274
0.00367704
0.003677041
0.003677038
0.003677033
0.003677027
0.003677244
0.003677011
0.003677013
0.003677012
0.003677009
0.003677005
0.003677217
0.003676987
0.00367699
0.00367699
0.003676989
0.003676987
0.003677193
0.003676967
0.00367697
0.003676971
0.003676971
0.00367697
0.003677172
0.00367695
0.003676954
0.003676955
0.003676956
0.003676955
0.003677153
0.003676936
0.003676939
0.003676941
0.003676942
0.003676942
0.003677135
0.003676924
0.003676927
0.003676929
0.00367693
0.003676931
0.003677119
0.003676913
0.003676916
0.003676918
0.003676919
0.00367692
0.003677104
0.003676903
0.003676906
0.003676908
0.003676909
0.00367691
0.003677091
0.003676895
0.003676897
0.003676899
0.003676901
0.003676902
0.003677078
0.003676887
0.003676889
0.003676891
0.003676893
0.003676894
0.003677066
0.00367688
0.003676882
0.003676884
0.003676885
0.003676886
0.003677055
0.003676873
0.003676875
0.003676877
0.003676878
0.00367688
0.003677045
0.003676867
0.003676869
0.003676871
0.003676872
0.003676873
0.003677035
0.003676862
0.003676864
0.003676865
0.003676866
0.003676867
0.003677026
0.003676857
0.003676858
0.00367686
0.003676861
0.003676862
0.003709117
0.003680669
0.003679677
0.003679522
0.00367942
0.003679323
0.003680005
0.003677989
0.00367821
0.003677627
0.003677388
0.003677276
0.003678389
0.003677833
0.003677518
0.003677356
0.003677251
0.003677188
0.003677623
0.003677473
0.003677422
0.003677347
0.003677282
0.00367723
0.003677496
0.003677322
0.003677267
0.003677218
0.003677176
0.003677143
0.003677408
0.003677203
0.003677187
0.003677163
0.003677139
0.003677117
0.003677353
0.003677132
0.003677124
0.00367711
0.003677095
0.00367708
0.003677309
0.003677079
0.003677078
0.003677071
0.003677062
0.003677052
0.003677274
0.003677041
0.003677042
0.003677038
0.003677033
0.003677027
0.003677243
0.003677011
0.003677013
0.003677012
0.003677009
0.003677006
0.003677216
0.003676988
0.00367699
0.00367699
0.003676989
0.003676987
0.003677193
0.003676968
0.003676971
0.003676971
0.003676971
0.00367697
0.003677172
0.003676951
0.003676954
0.003676955
0.003676956
0.003676955
0.003677153
0.003676937
0.00367694
0.003676941
0.003676942
0.003676942
0.003677135
0.003676925
0.003676928
0.003676929
0.00367693
0.003676931
0.003677119
0.003676914
0.003676917
0.003676918
0.003676919
0.00367692
0.003677104
0.003676904
0.003676907
0.003676908
0.003676909
0.00367691
0.003677091
0.003676896
0.003676898
0.003676899
0.003676901
0.003676902
0.003677078
0.003676888
0.00367689
0.003676891
0.003676893
0.003676894
0.003677066
0.003676881
0.003676883
0.003676884
0.003676885
0.003676886
0.003677055
0.003676874
0.003676876
0.003676877
0.003676878
0.003676879
0.003677045
0.003676868
0.00367687
0.003676871
0.003676872
0.003676873
0.003677035
0.003676863
0.003676864
0.003676865
0.003676866
0.003676867
0.003677026
0.003676857
0.003676859
0.00367686
0.003676861
0.003676862
0.003707524
0.003681625
0.003680867
0.003680499
0.00368024
0.003680036
0.003680266
0.003678247
0.003678216
0.00367768
0.003677435
0.003677315
0.003678266
0.003677852
0.003677537
0.003677369
0.003677272
0.003677207
0.003677682
0.003677498
0.003677427
0.003677341
0.003677281
0.00367723
0.003677543
0.003677335
0.003677275
0.003677222
0.003677183
0.00367715
0.003677442
0.003677215
0.003677192
0.003677166
0.003677144
0.003677122
0.003677381
0.003677141
0.003677128
0.003677114
0.003677101
0.003677086
0.003677334
0.003677087
0.003677082
0.003677074
0.003677067
0.003677058
0.003677295
0.003677048
0.003677046
0.003677042
0.003677039
0.003677033
0.003677262
0.003677017
0.003677017
0.003677016
0.003677015
0.003677011
0.003677233
0.003676993
0.003676994
0.003676994
0.003676994
0.003676992
0.003677208
0.003676973
0.003676974
0.003676975
0.003676976
0.003676975
0.003677186
0.003676956
0.003676958
0.003676959
0.003676961
0.003676961
0.003677166
0.003676942
0.003676944
0.003676945
0.003676947
0.003676947
0.003677148
0.003676929
0.003676931
0.003676933
0.003676935
0.003676936
0.003677131
0.003676918
0.00367692
0.003676922
0.003676924
0.003676925
0.003677115
0.003676908
0.00367691
0.003676912
0.003676914
0.003676915
0.003677101
0.003676899
0.003676901
0.003676903
0.003676905
0.003676906
0.003677088
0.003676891
0.003676893
0.003676895
0.003676897
0.003676898
0.003677076
0.003676884
0.003676886
0.003676887
0.003676889
0.003676891
0.003677064
0.003676877
0.003676879
0.003676881
0.003676882
0.003676884
0.003677054
0.003676871
0.003676873
0.003676874
0.003676876
0.003676877
0.003677044
0.003676866
0.003676867
0.003676869
0.00367687
0.003676871
0.003677067
0.00367686
0.003676862
0.003676863
0.003676865
0.003676866
0.003901661
0.003766294
0.003751235
0.003741954
0.003735069
0.003729556
0.003682901
0.003679869
0.003679062
0.003678579
0.003678409
0.003678319
0.003678269
0.003681324
0.003679301
0.003678451
0.003678117
0.003677961
0.00367786
0.003677789
0.003680018
0.00367825
0.003678038
0.003677849
0.00367775
0.00367768
0.003677631
0.00367959
0.003677988
0.003677833
0.00367772
0.003677657
0.003677609
0.003677573
0.003679249
0.003677728
0.003677674
0.003677607
0.003677571
0.00367754
0.003677517
0.003679023
0.003677589
0.003677563
0.00367752
0.003677501
0.003677482
0.003677467
0.003678849
0.003677485
0.003677479
0.003677451
0.00367744
0.00367743
0.003677422
0.003678709
0.00367741
0.003677414
0.003677394
0.003677389
0.003677385
0.003677382
0.003678592
0.003677351
0.003677361
0.003677346
0.003677345
0.003677344
0.003677345
0.003678492
0.003677304
0.003677317
0.003677306
0.003677308
0.003677309
0.003677312
0.003678404
0.003677265
0.00367728
0.003677271
0.003677274
0.003677277
0.003677282
0.003678327
0.003677231
0.003677248
0.003677241
0.003677245
0.003677248
0.003677254
0.003678257
0.003677202
0.00367722
0.003677214
0.003677218
0.003677223
0.003677229
0.003678193
0.003677177
0.003677195
0.003677191
0.003677195
0.003677199
0.003677207
0.003678134
0.003677155
0.003677173
0.003677169
0.003677173
0.003677178
0.003677186
0.003678081
0.003677135
0.003677153
0.00367715
0.003677154
0.003677159
0.003677167
0.003678031
0.003677117
0.003677135
0.003677133
0.003677136
0.003677141
0.003677149
0.003677985
0.003677101
0.003677118
0.003677116
0.00367712
0.003677124
0.003677132
0.003677943
0.003677086
0.003677103
0.003677101
0.003677105
0.003677109
0.003677117
0.003677904
0.003677072
0.003677089
0.003677088
0.003677091
0.003677095
0.003677103
0.003677867
0.003677059
0.003677075
0.003677075
0.003677078
0.003677082
0.00367709
0.003677833
0.003677047
0.003677063
0.003677063
0.003677066
0.00367707
0.003677077
0.003677799
0.003746083
0.003677051
0.003677052
0.003677055
0.003677059
0.003677066
0.003787606
0.003811255
0.003686026
0.003685228
0.003778172
0.003777914
0.003682757
0.003680863
0.003680694
0.003680583
0.003773301
0.003772482
0.003681143
0.003679217
0.003679616
0.003678686
0.00376886
0.003768342
0.003679854
0.003678238
0.003679202
0.003678209
0.003765333
0.003764972
0.003679438
0.003677913
0.003678959
0.003677895
0.003762473
0.003762228
0.003679108
0.003677706
0.003678787
0.003677721
0.003760087
0.003759914
0.003678891
0.003677579
0.003678651
0.003677597
0.003758049
0.003757923
0.003678722
0.003677488
0.003678539
0.003677507
0.003756273
0.00375618
0.003678588
0.003677418
0.003678442
0.003677437
0.003754704
0.003754634
0.003678476
0.003677363
0.003678358
0.00367738
0.0037533
0.003753249
0.003678381
0.003677318
0.003678283
0.003677333
0.003752033
0.003751998
0.003678298
0.00367728
0.003678215
0.003677293
0.003750881
0.003750858
0.003678224
0.003677247
0.003678154
0.003677259
0.003749829
0.003749815
0.003678158
0.003677218
0.003678098
0.003677228
0.00374886
0.003748854
0.003678097
0.003677192
0.003678047
0.003677201
0.003747967
0.003747964
0.003678042
0.003677169
0.003677999
0.003677177
0.003747139
0.003747139
0.003677991
0.003677148
0.003677955
0.003677156
0.00374637
0.003746373
0.003677944
0.00367713
0.003677915
0.003677136
0.003745654
0.00374566
0.003677901
0.003677113
0.003677877
0.003677118
0.003744987
0.003744994
0.003677861
0.003677097
0.003677841
0.003677102
0.003744364
0.003744373
0.003677824
0.003677082
0.003677808
0.003677087
0.003743781
0.003743791
0.00367779
0.003677069
0.003677777
0.003677073
0.003743235
0.003743246
0.003677757
0.003677057
0.003677749
0.003677061
0.003742732
0.003677382
0.003677797
0.003677046
0.003677652
0.003676973
0.003964632
0.00368197
0.003685764
0.004073332
0.003681536
0.003686272
0.004019239
0.003681141
0.003687124
0.004073037
0.00368125
0.003687158
0.004036089
0.003681089
0.003687253
0.004070187
0.003681271
0.003687247
0.004067971
0.003681095
0.003687212
0.004070585
0.003681294
0.003687203
0.004070156
0.00368112
0.003687204
0.004064666
0.003681274
0.003687214
0.004071517
0.00368111
0.00368727
0.004039806
0.003681272
0.003687248
0.004072908
0.003681111
0.003687156
0.004019481
0.003681343
0.003687124
0.004072999
0.003681334
0.003686281
0.003964323
0.003682098
0.003685761
0.00381203
0.003685842
0.003685224
0.003787607
0.003679137
0.003766663
0.003679042
0.003679614
0.003678685
0.003773225
0.003772481
0.003676979
0.003677748
0.00367706
0.003743245
0.003743247
0.003677045
0.003677651
0.003677049
0.003742735
0.003677368
0.003703122
0.003869229
0.003783755
0.003784778
0.0039017
0.003742776
0.00368461
0.003681044
0.00378005
0.003780475
0.003766267
0.003727279
0.003681009
0.003680469
0.003775162
0.003776968
0.003751221
0.003720686
0.003680081
0.003679739
0.003771708
0.00377413
0.003741944
0.003716036
0.003679646
0.003679229
0.003768966
0.003771801
0.00373507
0.003711665
0.00367938
0.00367899
0.003766664
0.003729558
0.003679136
0.003684241
0.003831889
0.003688322
0.003831588
0.003680695
0.003815007
0.003682069
0.003815087
0.003679666
0.003803495
0.00368026
0.003803709
0.003679202
0.003794957
0.003679564
0.003795103
0.003678892
0.003788132
0.003679133
0.003788236
0.00367867
0.003782466
0.003678842
0.003782534
0.003678497
0.003777627
0.003678625
0.003777672
0.003678356
0.003773419
0.003678456
0.003773447
0.003678238
0.003769703
0.003678319
0.003769718
0.003678137
0.003766383
0.003678204
0.003766392
0.003678049
0.00376339
0.003678105
0.003763394
0.003677971
0.00376067
0.003678019
0.003760671
0.003677903
0.003758183
0.003677944
0.003758182
0.003677841
0.003755899
0.003677877
0.003755895
0.003677786
0.003753791
0.003677817
0.003753784
0.003677736
0.003751838
0.003677763
0.00375183
0.00367769
0.003750025
0.003677714
0.003750015
0.003677648
0.003748337
0.00367767
0.003748326
0.00367761
0.00374676
0.003677629
0.00374675
0.003677574
0.003745287
0.003677591
0.003745278
0.003677542
0.003743909
0.003677557
0.003743901
0.003677512
0.003742619
0.003677525
0.003742611
0.003677483
0.00374141
0.003677495
0.003741398
0.003704188
0.003704513
0.00370292
0.003703315
0.003702764
0.003702528
0.003703077
0.003702808
0.003702972
0.003702659
0.003703074
0.003702669
0.003702702
0.003703086
0.003703474
0.003703354
0.003701978
0.003707196
0.003742901
0.003684609
0.003681044
0.003783751
0.003784779
0.003727315
0.003681008
0.003680469
0.003780051
0.003780476
0.003720674
0.003680081
0.003679739
0.003775161
0.00377697
0.003715993
0.003679646
0.00367923
0.003771707
0.003774131
0.003711603
0.003679375
0.003678835
0.003768966
0.003771883
0.003680643
0.003680691
0.003680582
0.003778106
0.003777913
0.003678055
0.003679201
0.003678209
0.003768822
0.003768342
0.003677743
0.003678958
0.003677895
0.003765306
0.003764973
0.003677548
0.003678786
0.003677721
0.003762452
0.003762227
0.00367743
0.00367865
0.003677597
0.003760071
0.003759914
0.003677347
0.003678538
0.003677507
0.003758038
0.003757924
0.003677285
0.003678442
0.003677437
0.003756266
0.003756181
0.003677236
0.003678357
0.00367738
0.003754698
0.003754633
0.003677197
0.003678282
0.003677333
0.003753297
0.003753248
0.003677163
0.003678214
0.003677293
0.003752031
0.003751997
0.003677135
0.003678153
0.003677258
0.003750882
0.003750859
0.003677111
0.003678097
0.003677228
0.003749831
0.003749816
0.003677089
0.003678046
0.003677201
0.003748864
0.003748854
0.00367707
0.003677998
0.003677177
0.00374797
0.003747964
0.003677053
0.003677955
0.003677156
0.003747144
0.00374714
0.003677037
0.003677914
0.003677136
0.003746375
0.003746372
0.003677023
0.003677876
0.003677118
0.00374566
0.00374566
0.00367701
0.00367784
0.003677102
0.003744994
0.003744994
0.003676998
0.003677807
0.003677087
0.003744371
0.003744374
0.003676987
0.003677777
0.003677073
0.003743789
0.003743792
0.003695315
0.003855937
0.003694032
0.003855356
0.003693569
0.003845467
0.003696064
0.003843348
0.003701895
0.003707559
0.003682735
0.003823633
0.003682172
0.003823739
0.003680465
0.003809621
0.003680182
0.003809484
0.0036796
0.003799716
0.003679497
0.003799612
0.003679149
0.003791962
0.003679085
0.003791878
0.003678852
0.00378567
0.003678806
0.003785601
0.003678637
0.003780366
0.003678599
0.003780309
0.003678469
0.003775806
0.003678436
0.003775757
0.003678333
0.003771814
0.003678303
0.00377177
0.003678218
0.003768272
0.003678191
0.003768231
0.00367812
0.003765095
0.003678095
0.003765059
0.003678034
0.003762221
0.003678011
0.003762187
0.003677958
0.003759604
0.003677937
0.003759571
0.003677891
0.003757205
0.003677871
0.003757176
0.003677831
0.003754996
0.003677811
0.00375497
0.003677776
0.003752955
0.003677758
0.003752931
0.003677726
0.003751062
0.003677709
0.00375104
0.003677681
0.003749302
0.003677665
0.003749281
0.00367764
0.003747662
0.003677625
0.003747642
0.003677602
0.003746131
0.003677588
0.003746109
0.003677567
0.003744701
0.003677554
0.003744679
0.003677535
0.003743362
0.003677522
0.00374334
0.003677505
0.003742105
0.003677493
0.003742086
0.003677476
0.003678343
0.003740906
0.00367733
0.003703604
0.003703798
0.003702926
0.003703061
0.003702728
0.003702718
0.003703046
0.003702886
0.003702686
0.003702605
0.003703425
0.003703255
0.003703065
0.003702844
0.003704216
0.003704308
0.003703272
0.00386923
0.003695375
0.003855934
0.003694035
0.003855306
0.003693596
0.003845455
0.003696039
0.00384338
0.003682284
0.003793699
0.003680817
0.003680695
0.003815007
0.00368207
0.003815088
0.003677511
0.003742623
0.003677525
0.003742615
0.003677505
0.003742112
0.003677494
0.003742091
0.003677483
0.003741417
0.003677493
0.003741405
0.003677476
0.003740933
0.003740917
0.00367733
0.003677766
0.003677342
0.003677767
0.003677035
0.003677035
0.003677327
0.003678289
0.003677331
0.003740287
0.003677331
0.003823934
0.003886771
0.003845951
0.003689227
0.003689133
0.003843358
0.003685493
0.003827482
0.003684398
0.003829245
0.003684083
0.003815015
0.003682873
0.003819119
0.003683296
0.003806292
0.003681875
0.003811363
0.003682731
0.003799331
0.003681263
0.003805204
0.003682285
0.003793704
0.003680818
0.003800136
0.003684912
0.003842247
0.003686486
0.00384035
0.003682726
0.003821017
0.003682051
0.003820105
0.003681554
0.003808316
0.003680894
0.003807693
0.003680823
0.003799217
0.003680299
0.00379869
0.003680315
0.003792048
0.003679903
0.003791582
0.003679932
0.003786166
0.003679614
0.003785742
0.00367963
0.003781172
0.003679388
0.003780788
0.003679388
0.003776843
0.003679203
0.003776492
0.003679194
0.003773031
0.003679048
0.003772707
0.003679031
0.00376963
0.003678917
0.00376933
0.003678897
0.003766567
0.003678803
0.003766287
0.003678784
0.003763786
0.003678701
0.003763524
0.003678686
0.003761245
0.003678613
0.003760999
0.003678601
0.003758911
0.003678535
0.00375868
0.003678524
0.003756758
0.003678465
0.003756539
0.003678455
0.003754763
0.003678402
0.003754557
0.003678391
0.00375291
0.003678344
0.003752716
0.003678333
0.003751185
0.00367829
0.003751001
0.003678279
0.003749576
0.003678241
0.003749402
0.00367823
0.003748072
0.003678195
0.003747907
0.003678184
0.003746666
0.003678152
0.003746509
0.003678142
0.003745349
0.003678112
0.003745199
0.003678102
0.003744115
0.003678075
0.003743971
0.003894303
0.003897264
0.003897953
0.003900759
0.003902165
0.003901776
0.003897179
0.003902892
0.003900545
0.003904008
0.003903503
0.003899528
0.00389991
0.003896528
0.003894899
0.003893293
0.003879523
0.003890941
0.004079512
0.003816503
0.004188779
0.003818696
0.00368813
0.003849921
0.003688967
0.003851626
0.003884952
0.003890118
0.003682798
0.003825299
0.00368446
0.003826045
0.003681383
0.003811161
0.003682493
0.003811587
0.003680604
0.003801344
0.003681424
0.003801682
0.003680119
0.003793722
0.003680748
0.003793979
0.003679778
0.00378754
0.003680271
0.003787745
0.003679517
0.003782337
0.003679906
0.003782504
0.003679309
0.003777852
0.003679618
0.003777989
0.003679139
0.003773917
0.003679389
0.00377403
0.003678993
0.003770419
0.003679201
0.003770514
0.003678868
0.003767276
0.003679042
0.003767356
0.003678761
0.003764428
0.003678908
0.003764497
0.003678668
0.003761831
0.003678793
0.003761889
0.003678586
0.003759448
0.003678693
0.003759498
0.003678512
0.003757252
0.003678604
0.003757294
0.003678445
0.003755221
0.003678524
0.003755256
0.003678384
0.003753335
0.00367845
0.003753365
0.003678328
0.003751581
0.003678383
0.003751606
0.003678276
0.003749945
0.003678321
0.003749966
0.003678227
0.003748417
0.003678264
0.003748434
0.003678183
0.003746988
0.003678212
0.003747002
0.003678141
0.003745651
0.003678164
0.003745661
0.003678102
0.003744397
0.00367812
0.003744403
0.00367776
0.00374316
0.003678061
0.00374322
0.003895541
0.003898227
0.003900898
0.003892283
0.003898621
0.003899187
0.003905164
0.003901485
0.003904603
0.003897971
0.003904165
0.00390245
0.003901736
0.003901188
0.003892096
0.003897548
0.003817898
0.003885814
0.004079319
0.003816504
0.004188368
0.003818709
0.003688094
0.003849911
0.003688954
0.003851631
0.003796408
0.003776904
0.003824405
0.003777063
0.003682726
0.003821018
0.003682051
0.003820105
0.003680464
0.003809621
0.003680184
0.003809484
0.003678103
0.003744404
0.003678124
0.003744409
0.003678103
0.003744121
0.003743978
0.003678071
0.003743223
0.003678094
0.003678062
0.003743227
0.004330602
0.003836193
0.0040882
0.003835704
0.003703719
0.003877354
0.003701007
0.003872248
0.003880616
0.003876907
0.003684584
0.003838988
0.003686874
0.003834393
0.003682703
0.003826696
0.003685438
0.003820773
0.00368181
0.003817792
0.00368448
0.003810957
0.003681353
0.003810756
0.003683783
0.003803017
0.003680977
0.003805036
0.003683219
0.003796757
0.00368439
0.003835066
0.003685074
0.003836195
0.003682059
0.003817218
0.003683052
0.003817756
0.003681027
0.00380573
0.003681752
0.003806104
0.003680384
0.003797174
0.003680959
0.003797465
0.003679962
0.00379037
0.00368041
0.003790595
0.003679654
0.003784734
0.003680015
0.003784913
0.003679414
0.003779927
0.00367971
0.003780073
0.00367922
0.003775744
0.003679463
0.003775863
0.003679058
0.003772047
0.003679258
0.003772146
0.003678922
0.003768741
0.003679085
0.003768824
0.003678805
0.003765757
0.003678938
0.003765828
0.003678706