/*--------------------------------*- C++ -*----------------------------------*\
  =========                 |
  \\      /  F ield         | OpenFOAM: The Open Source CFD Toolbox
   \\    /   O peration     | Website:  https://openfoam.org
    \\  /    A nd           | Version:  7
     \\/     M anipulation  |
\*---------------------------------------------------------------------------*/
FoamFile
{
    version     2.0;
    format      ascii;
    class       volScalarField;
    location    "0.02";
    object      p;
}
// * * * * * * * * * * * * * * * * * * * * * * * * * * * * * * * * * * * * * //

dimensions      [0 2 -2 0 0 0 0];

internalField   nonuniform List<scalar> 
109929
(
0.353393
0.4460731
0.4713553
0.4790558
0.4859146
0.4970417
0.1867581
0.2613112
0.2849573
0.2979089
0.3067363
0.316975
0.2256649
0.3416317
0.3952697
0.4186599
0.4359757
0.4499459
0.1752765
0.2739446
0.3211192
0.3429557
0.3622302
0.3790069
0.1670824
0.2661667
0.3177391
0.3430687
0.3646338
0.3829731
0.1517623
0.2446891
0.2941145
0.3199142
0.3423105
0.3610692
0.1417194
0.2306255
0.2784945
0.3048361
0.3277772
0.3475673
0.1332578
0.2181443
0.2641833
0.2900691
0.3131203
0.3332949
0.1259769
0.2071224
0.2514299
0.276735
0.2998024
0.319969
0.119712
0.1973851
0.2401567
0.2646691
0.2874598
0.3074336
0.1141137
0.1886633
0.2300122
0.2536471
0.2760322
0.2959505
0.1091778
0.1808013
0.2208303
0.2435957
0.2655356
0.2852648
0.1047595
0.1737006
0.2124139
0.2344462
0.2557791
0.2752362
0.1007835
0.1672186
0.2047235
0.2261178
0.2467348
0.2658321
0.09718512
0.1613488
0.1984431
0.2184797
0.2383528
0.2571768
0.09388977
0.1559854
0.1935759
0.2114162
0.2305841
0.2490474
0.09084438
0.150967
0.1884306
0.204748
0.2233796
0.2414236
0.08802653
0.1462064
0.1824907
0.1983929
0.2166869
0.2342964
0.08541211
0.1417077
0.1767215
0.1924141
0.2104628
0.2276269
0.08297083
0.1375123
0.1713749
0.186871
0.2046671
0.2214071
0.08071895
0.1336403
0.1665051
0.1817888
0.1992697
0.2156457
0.07865186
0.1301007
0.1620918
0.1771709
0.1942829
0.2103332
0.0367627
0.1268496
0.1580562
0.1741467
0.1897575
0.2054569
0.7342645
0.6871762
0.6711089
0.6859804
0.6924391
0.700687
0.1880016
0.4300671
0.4964126
0.5898051
0.6240088
0.6403258
0.07798592
0.06519206
0.07085822
0.07517678
0.08314655
0.1058699
0.06063515
0.2262689
0.2885105
0.3736106
0.4091983
0.4442404
0.04447846
0.08594508
0.115894
0.1647861
0.1926297
0.2270306
0.03845791
0.122318
0.1687132
0.2331235
0.2691162
0.3055575
0.03415923
0.08771731
0.1240802
0.1793604
0.2129356
0.2484936
0.03080133
0.08443383
0.1212789
0.1758779
0.2100649
0.2460682
0.02806939
0.075097
0.1086685
0.1598072
0.1926084
0.2277086
0.02568978
0.06914847
0.1006144
0.1492452
0.1810299
0.2154691
0.02364321
0.06394305
0.09332798
0.139434
0.1699455
0.2033975
0.02185351
0.05952795
0.08705745
0.1309019
0.1601636
0.1926643
0.02028265
0.05572161
0.08161509
0.1233835
0.1514182
0.1828952
0.01889544
0.05238431
0.07683775
0.1166898
0.1435856
0.1740163
0.01765619
0.049441
0.07264502
0.1106727
0.1365283
0.1659246
0.01653644
0.04683047
0.06890469
0.1050684
0.130122
0.1585106
0.01552602
0.04447986
0.06553516
0.09977312
0.124292
0.1517177
0.01461083
0.04236936
0.06251303
0.09526495
0.1190125
0.1455219
0.01377982
0.04047218
0.059803
0.09153833
0.1142215
0.1398518
0.01302503
0.03876039
0.05734046
0.08813412
0.1098354
0.1346365
0.01233718
0.03720181
0.0550959
0.08493261
0.1057989
0.1298321
0.01170735
0.03576839
0.05303548
0.0818901
0.1020634
0.1254214
0.01113036
0.03445313
0.05116288
0.07911481
0.09864114
0.1213593
0.01435825
0.0332571
0.04943678
0.07654938
0.09519705
0.1175924
0.7243687
0.6087411
0.6360029
0.678178
0.7042276
0.719487
0.1713984
0.4172237
0.5035521
0.6235786
0.660752
0.6886004
0.04976714
0.03497808
0.03907549
0.02931039
0.03592266
0.0486099
0.03575923
0.2241581
0.3184677
0.3961218
0.4403528
0.4831659
0.02157673
0.06841764
0.1070825
0.1367143
0.1777134
0.2144357
0.01899314
0.118525
0.1822646
0.227376
0.2754112
0.3042681
0.01554436
0.07899671
0.1282976
0.1670612
0.2074951
0.2401721
0.01380567
0.07979287
0.1302477
0.1700189
0.2100225
0.2424537
0.01234611
0.07019963
0.1166898
0.153572
0.1912168
0.2227509
0.01113088
0.0649016
0.1091008
0.1442081
0.1805351
0.2114607
0.010135
0.05998276
0.1017649
0.1349548
0.1697444
0.1997057
0.00929451
0.05581029
0.09543876
0.1269294
0.1603416
0.1893798
0.008583361
0.0522017
0.08987354
0.1198029
0.1518817
0.1799848
0.007977298
0.04903344
0.08492929
0.1134338
0.1442586
0.1714528
0.007455462
0.04623622
0.08051953
0.107728
0.1373699
0.1636747
0.007004722
0.0437426
0.07656696
0.1025808
0.1311223
0.1565735
0.006604372
0.04150406
0.07300118
0.09790705
0.1254335
0.1500616
0.006248698
0.03948742
0.06976121
0.09365437
0.1202363
0.1440863
0.005934306
0.03766546
0.06680735
0.08979327
0.1154817
0.1385971
0.005658319
0.03601216
0.0641125
0.08626784
0.1111238
0.1335444
0.005416537
0.03451033
0.06164846
0.08304248
0.1071146
0.1288876
0.005198715
0.03314128
0.05938642
0.08006859
0.1034177
0.1245847
0.005004504
0.03189379
0.05730528
0.07734426
0.1000127
0.1206158
0.004833369
0.03073792
0.05538112
0.07482519
0.09685128
0.1169579
0.7818877
0.6977077
0.7032552
0.6835936
0.6601186
0.6599402
0.1781883
0.4906924
0.6141786
0.727173
0.75987
0.7840488
0.04354979
-0.009606523
-0.03603603
-0.05778387
-0.06057373
-0.0532003
0.03232711
0.2468898
0.3304197
0.4166259
0.4694906
0.5126526
0.01641223
0.055479
0.08563425
0.1245345
0.1621323
0.2028179
0.01700994
0.1164284
0.1729488
0.2382815
0.2759026
0.3096383
0.01379603
0.0796729
0.1192228
0.1680037
0.2032755
0.2374612
0.01276844
0.0826214
0.1243808
0.1741348
0.2100444
0.2442144
0.01153358
0.07343831
0.1112812
0.1569036
0.1909195
0.2239585
0.01055738
0.06839113
0.1042979
0.1477062
0.1807336
0.2131914
0.009741402
0.06354149
0.09726735
0.1383343
0.169988
0.2014441
0.009041071
0.05936658
0.09114307
0.1301634
0.1605719
0.1910878
0.008440655
0.05573653
0.08573876
0.1228807
0.1520552
0.1815877
0.007919629
0.05253228
0.08092982
0.1163576
0.1443663
0.1729328
0.007463797
0.0496919
0.07664453
0.110495
0.137403
0.1650278
0.007061721
0.04715652
0.0728036
0.1051937
0.1310809
0.1577992
0.006703971
0.04487866
0.06934227
0.100376
0.1253208
0.1511727
0.006384129
0.04282539
0.06621722
0.09601881
0.1200743
0.1450954
0.006097036
0.04096736
0.06338455
0.09207184
0.1152775
0.1395128
0.005838589
0.03927947
0.06080746
0.08846876
0.1108834
0.1343751
0.005604805
0.03773974
0.05845402
0.08516787
0.1068418
0.1296379
0.005391756
0.03633338
0.05630277
0.08214315
0.1031291
0.1252786
0.005196578
0.03504507
0.05433466
0.07936676
0.0997035
0.1212505
0.005018587
0.03387137
0.05253193
0.0768169
0.09654165
0.1175276
0.8523236
0.7287235
0.7412443
0.7512206
0.760595
0.7698444
0.1746593
0.5004219
0.6630855
0.8095229
0.8584377
0.8885328
0.04056209
-0.0348116
-0.07381957
-0.1238903
-0.1308904
-0.116992
0.03243267
0.252616
0.320529
0.3703452
0.4145663
0.4586553
0.01507696
0.04356867
0.07731115
0.1105151
0.1439912
0.1806322
0.0157952
0.1043689
0.1754032
0.2306305
0.2722369
0.3062708
0.01304107
0.0732727
0.1187963
0.1610744
0.198491
0.2319008
0.01220916
0.07750996
0.1256068
0.1698296
0.2081553
0.2417577
0.01106132
0.06909215
0.1125321
0.1529929
0.1891826
0.2215454
0.0101297
0.06446083
0.105773
0.14434
0.1794501
0.2112604
0.009340213
0.059886
0.09881506
0.135273
0.1689017
0.199721
0.008656339
0.05591004
0.09271861
0.1273457
0.1596388
0.1895436
0.008068125
0.05244428
0.08731627
0.1202552
0.1512397
0.1801929
0.007556887
0.04938274
0.08248925
0.1138934
0.1436406
0.1716579
0.007109567
0.04667024
0.07817748
0.1081695
0.1367544
0.1638609
0.006715159
0.0442518
0.07430284
0.1030018
0.1304968
0.1567224
0.006364696
0.04208093
0.07080961
0.0983114
0.1247967
0.1501785
0.006051909
0.04012624
0.06764649
0.09405574
0.1195927
0.1441718
0.005771393
0.03835773
0.06477544
0.09017906
0.1148332
0.1386483
0.005518835
0.03675255
0.06215491
0.08664001
0.110466
0.1335683
0.0052901
0.03528804
0.05975617
0.08339147
0.1064458
0.1288852
0.00508154
0.033947
0.05754667
0.08040966
0.1027344
0.1245822
0.004889704
0.03271288
0.05550664
0.07766238
0.09929001
0.120608
0.004712234
0.03156636
0.05360381
0.07512776
0.09608473
0.1169731
0.8485794
0.6883799
0.6813428
0.6868089
0.6939233
0.7006456
0.17398
0.4998107
0.6629435
0.8094859
0.8584165
0.8884754
0.04072516
-0.03499855
-0.07392727
-0.1239688
-0.1309334
-0.1170142
0.03315892
0.252588
0.3204943
0.3703208
0.414549
0.4586538
0.01513854
0.04355857
0.07729542
0.110511
0.1439792
0.1806223
0.01572831
0.1043658
0.1753961
0.2306247
0.2722325
0.3062653
0.01310308
0.0732699
0.1187922
0.1610708
0.1984868
0.2318947
0.01228256
0.07750739
0.1256045
0.1698261
0.2081519
0.2417554
0.01113783
0.06909054
0.1125305
0.1529912
0.1891806
0.2215417
0.01020684
0.06445957
0.1057722
0.1443381
0.1794482
0.2112611
0.009417104
0.05988526
0.09881414
0.1352724
0.1689007
0.1997184
0.008731544
0.05590892
0.0927185
0.1273441
0.1596371
0.1895452
0.008141091
0.05244349
0.08731566
0.1202547
0.1512389
0.1801891
0.007626976
0.04938161
0.08248903
0.1138922
0.1436377
0.1716584
0.007176721
0.04666987
0.07817666
0.1081692
0.1367526
0.1638556
0.006779753
0.04425147
0.0743026
0.1030012
0.1304935
0.1567192
0.006427051
0.0420816
0.07080984
0.09831242
0.1247942
0.1501717
0.006112207
0.04012814
0.06764887
0.09405676
0.1195913
0.1441638
0.005830156
0.03836319
0.06478157
0.09018533
0.1148338
0.1386388
0.005576477
0.03676403
0.06216983
0.08665344
0.1104738
0.1335577
0.005347771
0.03531158
0.05978581
0.08342065
0.1064638
0.1288701
0.005141221
0.0339914
0.05760387
0.08046298
0.102782
0.1245524
0.004954166
0.03278995
0.05560647
0.07775149
0.09938594
0.1205696
0.004784193
0.03168341
0.05375913
0.07522441
0.09624834
0.1168433
0.8011448
0.6830622
0.7211393
0.7358552
0.7442606
0.7518127
0.175132
0.4897064
0.6134824
0.7268108
0.7596852
0.7839438
0.04302286
-0.009839265
-0.03629474
-0.05794139
-0.06066597
-0.05326356
0.03412541
0.2467807
0.3303009
0.4165346
0.4694306
0.5126139
0.01695136
0.05543442
0.08558132
0.1244859
0.1620948
0.2027841
0.01731325
0.1164094
0.1729291
0.2382618
0.2758836
0.3096226
0.01420033
0.07966309
0.1192093
0.1679894
0.2032623
0.2374484
0.01317694
0.0826151
0.1243733
0.1741256
0.2100351
0.2442043
0.01191202
0.07343433
0.1112752
0.1568972
0.1909144
0.2239511
0.01091061
0.06838897
0.1042944
0.1477023
0.1807299
0.2131859
0.01007278
0.06353998
0.09726399
0.1383313
0.1699869
0.2014404
0.009352403
0.05936536
0.09114077
0.1301622
0.1605712
0.1910861
0.008733405
0.05573445
0.08573605
0.1228793
0.1520562
0.1815876
0.00819471
0.05253
0.08092823
0.116357
0.1443678
0.1729338
0.007722629
0.04968948
0.07664218
0.1104944
0.1374058
0.1650312
0.007305654
0.04715412
0.07280193
0.1051935
0.1310844
0.157806
0.006934465
0.04487507
0.0693379
0.1003751
0.1253246
0.1511825
0.006602386
0.0428199
0.06621106
0.09601646
0.120076
0.1451102
0.006304329
0.04095734
0.06336992
0.09206561
0.1152732
0.1395304
0.006035887
0.03926174
0.06077981
0.08845615
0.110866
0.1344052
0.005792411
0.03770787
0.0583997
0.08514568
0.1067969
0.1296843
0.005570895
0.03627671
0.05619928
0.08210778
0.1030257
0.1253846
0.00536897
0.0349617
0.0541614
0.07935064
0.0994887
0.1214783
0.005184363
0.03373784
0.05221909
0.07680604
0.09614527
0.1179216
0.7299757
0.6024633
0.675886
0.7114307
0.7273355
0.7381554
0.176051
0.4174981
0.5035
0.6234856
0.6606634
0.6885279
0.04471109
0.0348348
0.03893455
0.02919343
0.03584064
0.04854168
0.03406083
0.2241662
0.3184013
0.3960587
0.4402933
0.483116
0.01925736
0.06838917
0.1070391
0.1366676
0.1776679
0.2143936
0.01838003
0.118508
0.1822419
0.2273477
0.2753842
0.3042435
0.01498949
0.07898414
0.128284
0.1670422
0.2074759
0.2401522
0.01373534
0.07978363
0.1302395
0.1700065
0.2100093
0.2424397
0.01237957
0.07019357
0.116687
0.1535624
0.191208
0.222741
0.01131542
0.06489928
0.1090994
0.1442027
0.1805296
0.2114527
0.01042945
0.05998238
0.1017668
0.1349501
0.169741
0.1997004
0.009669467
0.0558107
0.09544021
0.1269269
0.1603395
0.1893739
0.009012439
0.05220055
0.0898769
0.1198
0.1518798
0.179981
0.008439948
0.04903216
0.08493135
0.1134325
0.1442577
0.1714466
0.00793818
0.04623495
0.08052343
0.1077269
0.137369
0.1636715
0.00749477
0.04374226
0.07656982
0.1025815
0.1311228
0.1565703
0.007099794
0.04150374
0.07300612
0.09790799
0.1254347
0.1500614
0.006746706
0.03948882
0.06976511
0.09365805
0.1202379
0.1440874
0.006430043
0.0376689
0.06681416
0.08979761
0.115485
0.1385999
0.00614521
0.03602021
0.06412025
0.08627952
0.111132
0.1335538
0.005887599
0.0345242
0.06166154
0.08305867
0.1071273
0.1289044
0.005653517
0.03316388
0.05940078
0.08008264
0.1034462
0.1245903
0.005440039
0.031929
0.0573245
0.07735
0.1000697
0.1206393
0.005241608
0.03075058
0.05534668
0.074665
0.09686782
0.116898
0.5710364
0.5100596
0.5619902
0.5844807
0.5970638
0.6098782
0.1948793
0.4299537
0.4962677
0.5896973
0.6239242
0.6402718
0.04696978
0.06504429
0.07070809
0.0750432
0.0830388
0.1057735
0.03382198
0.2261767
0.2884136
0.3735175
0.4091182
0.4441615
0.02005704
0.08589633
0.1158303
0.1647211
0.1925674
0.2269704
0.01878786
0.1222935
0.168675
0.2330828
0.2690759
0.3055159
0.01528326
0.08769991
0.1240525
0.1793318
0.2129051
0.2484639
0.01388212
0.08441683
0.1212585
0.1758571
0.2100427
0.2460468
0.01257095
0.07508394
0.1086509
0.1597916
0.1925921
0.2276921
0.01152955
0.06914426
0.1006017
0.1492343
0.181017
0.2154579
0.01067096
0.06393945
0.09331482
0.1394252
0.169936
0.2033879
0.009934916
0.0595252
0.08704593
0.1308949
0.1601554
0.1926583
0.009302791
0.05571253
0.08160233
0.123376
0.1514125
0.1828895
0.008741051
0.0523764
0.07682634
0.1166831
0.14358
0.1740137
0.008240384
0.04943291
0.07263184
0.1106658
0.1365246
0.165922
0.007788232
0.04682589
0.0688922
0.1050642
0.1301189
0.158511
0.007380939
0.04447025
0.06551895
0.0997673
0.1242881
0.151719
0.007012423
0.04236208
0.06249531
0.0952553
0.1190071
0.1455284
0.006677099
0.04045424
0.05977544
0.09152283
0.1142072
0.1398644
0.006369179
0.03873781
0.05729674
0.08811459
0.1098033
0.1346682
0.006088822
0.03716008
0.05502022
0.08491326
0.1057208
0.1299017
0.00582942
0.03570425
0.05288904
0.08187342
0.1018926
0.125566
0.005588789
0.03438331
0.05093583
0.07923557
0.09825629
0.1218489
0.01429688
0.03314136
0.04896749
0.07667055
0.09453986
0.1182765
0.3934103
0.4176185
0.4298538
0.4404229
0.4731039
0.4887072
0.01972602
0.2157332
0.3165178
0.3936954
0.421699
0.4386214
0.4529069
0.01592742
0.1525161
0.2582907
0.3159876
0.3415966
0.3407305
0.3520253
0.0132355
0.1684187
0.2980382
0.3752147
0.4053246
0.4228633
0.4375073
0.01021015
0.1279291
0.2451109
0.3144235
0.3436428
0.3627374
0.3799896
0.009064916
0.1204586
0.2373188
0.3099572
0.3424167
0.3635228
0.3819618
0.008174866
0.1050568
0.2155315
0.2856709
0.318264
0.340475
0.3595745
0.007539552
0.09701038
0.2024938
0.2705411
0.3033586
0.3263665
0.3464255
0.007029474
0.08975144
0.1903266
0.2557687
0.2880458
0.3113876
0.3317394
0.006548323
0.08365394
0.1798705
0.2428907
0.2743478
0.2978415
0.318355
0.006141734
0.07852631
0.1707311
0.2314445
0.2619419
0.2852431
0.3058308
0.005779247
0.07405802
0.162639
0.2211346
0.2506158
0.2735584
0.294342
0.005491533
0.07020079
0.1554203
0.211824
0.2403139
0.2627872
0.2834465
0.00522225
0.06680413
0.1489319
0.2033437
0.2309495
0.2527978
0.273223
0.004976353
0.0637653
0.1430966
0.1956697
0.2223881
0.2435692
0.2635943
0.004734054
0.06107443
0.1378419
0.1890159
0.2145365
0.2350269
0.2546892
0.004529152
0.0586511
0.1330571
0.183244
0.2073042
0.2271102
0.2463587
0.004326286
0.05642762
0.128583
0.1776365
0.2005372
0.2197846
0.2385588
0.004141303
0.05437685
0.1243404
0.1718838
0.1941792
0.2129779
0.231287
0.003962098
0.05248359
0.1203547
0.1663953
0.1882312
0.2066352
0.2244961
0.003808478
0.05075709
0.1166406
0.1612904
0.1826834
0.2007131
0.2181675
0.003666772
0.04917012
0.1131977
0.1566041
0.1775215
0.1951681
0.2123111
0.003525295
0.04771746
0.1100061
0.1522783
0.1727284
0.1899885
0.2067805
0.003401733
0.1035781
0.1069596
0.1480514
0.1682641
0.1848699
0.2013252
0.1787242
0.2907929
0.02665479
0.2927786
0.07358684
0.1597326
0.01970848
0.128635
0.02911453
0.1747989
0.05955542
0.1213513
0.01594087
0.1029137
0.01720725
0.1157259
0.04510664
0.09401302
0.01322936
0.09713102
0.01500878
0.09269253
0.01468058
0.063181
0.01019527
0.07247029
0.01177927
0.07148337
0.002630968
0.04935255
0.009050791
0.062314
0.01058616
0.06401149
-0.006474792
0.03829459
0.0081772
0.05300163
0.00929536
0.05554097
-0.01245445
0.03057057
0.007526385
0.0471136
0.008467265
0.05039251
-0.01640708
0.0236295
0.007013735
0.04260685
0.007749176
0.045746
-0.01945169
0.01806796
0.006547476
0.038974
0.007162898
0.04195713
-0.02169994
0.01360253
0.00614064
0.03592049
0.00667115
0.03872239
-0.02336669
0.009993027
0.005786562
0.0333061
0.006250533
0.0359363
-0.02458995
0.007052685
0.005477998
0.03109393
0.005882138
0.03347934
-0.02547429
0.00459024
0.005208584
0.02917127
0.005555072
0.03131823
-0.02610937
0.002504299
0.004963886
0.02746464
0.005263811
0.02940718
-0.026549
0.0007410184
0.004734444
0.02594138
0.005001692
0.02769229
-0.02683644
-0.0007156455
0.004518998
0.02457099
0.004764181
0.0261486
-0.02699078
-0.001965983
0.004319281
0.0233054
0.004550166
0.02475747
-0.0270672
-0.003060221
0.004132305
0.02214959
0.004354734
0.02350423
-0.02707073
-0.004002953
0.003957907
0.02108247
0.004173352
0.0223653
-0.02700612
-0.004781959
0.0038007
0.02011144
0.004006716
0.02133038
-0.02686471
-0.005415987
0.003661223
0.01922856
0.003855339
0.02039072
-0.02666292
-0.005989689
0.003534291
0.01842841
0.003717458
0.01953365
-0.02645029
0.03037726
0.003418218
0.01772435
0.003598234
0.01876572
0.5727685
-0.003072096
0.3072651
1.175596
0.01411822
0.316284
0.6402903
0.01614377
0.3097062
1.211683
0.01611491
0.3094166
0.7314358
0.01714824
0.3024984
1.257242
0.01619012
0.2802595
1.070905
0.01579828
0.2642566
1.296561
0.0150893
0.2569628
1.304396
0.01542083
0.2630129
1.001717
0.01631252
0.2705243
1.241552
0.01682579
0.2926473
0.7479084
0.01706818
0.3015151
1.209369
0.01631558
0.3093405
0.6443158
0.01606261
0.3098119
1.174333
0.01390605
0.3162975
0.5741124
-0.002994576
0.3071793
0.2909735
0.0266599
0.2925115
0.1785545
0.5111371
0.5496533
0.1028341
0.01721166
0.1156966
0.05946966
0.1213135
0.01835454
0.003705821
0.01948111
-0.02668258
-0.00599829
0.01758983
0.003573766
0.0186623
-0.02650635
0.03028238
0.06072969
0.1314758
0.2862654
0.2137278
0.3934982
0.2251438
0.3183577
0.3527274
0.3759278
0.2567327
0.4178478
0.2271437
0.4112701
0.3669752
0.4819581
0.2900829
0.4300738
0.2429945
0.4568723
0.3793613
0.5110489
0.3187782
0.4406395
0.2735887
0.4788686
0.3970329
0.5323348
0.3440931
0.4732352
0.2986255
0.4960519
0.416645
0.5497434
0.4887866
0.5111862
0.05958683
0.1614067
0.08112204
0.2157462
0.04093661
0.1201646
0.04165536
0.1374019
0.03242528
0.08636617
0.03526471
0.09334411
0.02481652
0.06273765
0.02593958
0.06907414
0.02096956
0.0476718
0.02233438
0.05403098
0.01782728
0.03788805
0.01912498
0.04248298
0.0155548
0.03000064
0.01666566
0.03351518
0.01347423
0.0238845
0.01454317
0.02642289
0.01157549
0.0187013
0.01257925
0.02051755
0.009849095
0.01431498
0.01083914
0.01567713
0.008354933
0.01060675
0.009339232
0.01172231
0.007091455
0.007513239
0.008054116
0.008446193
0.00604104
0.00494112
0.006970934
0.00573054
0.005169119
0.002805116
0.006090664
0.003469433
0.004419742
0.001028121
0.005352406
0.001565616
0.003763825
-0.0004557766
0.004703786
-4.19738e-05
0.003193543
-0.00171383
0.004127218
-0.001419089
0.002689248
-0.002787961
0.003615735
-0.002606637
0.002250139
-0.003689442
0.003156778
-0.003619247
0.001885541
-0.004437985
0.00275606
-0.004477546
0.001585695
-0.005058043
0.00242771
-0.005196294
0.001333072
-0.005572663
0.002154985
-0.005809781
0.001083964
-0.006026548
0.001906362
-0.006394252
-0.006235651
0.01676385
-0.01970943
6.498322e-05
-0.02109305
0.003705121
-0.02413434
-0.01343519
-0.01666432
-0.02241818
-0.002582935
-0.01698035
0.004204266
-0.0243103
0.00771788
-0.01815677
0.07972829
0.0104801
0.2249802
0.3181967
0.3526726
0.2859787
0.2135608
0.2269386
0.4111951
0.3669154
0.375709
0.2564844
0.2428324
0.4568146
0.3793398
0.481742
0.2898881
0.273489
0.478839
0.3970269
0.5108712
0.3185906
0.2986007
0.4960354
0.4165579
0.5321833
0.3439701
0.1284809
0.02908973
0.174682
0.0735109
0.1596543
0.09708707
0.01501079
0.09268879
0.04508741
0.09401888
0.07246604
0.01179151
0.07148563
0.01469237
0.06320257
0.06229434
0.01057964
0.06400121
0.002650317
0.0493493
0.05299144
0.00929899
0.05554227
-0.006499314
0.03830929
0.04712517
0.008481247
0.05038476
-0.01244974
0.03057913
0.04260893
0.007752316
0.04573645
-0.01639018
0.02362153
0.03897008
0.007156365
0.04195812
-0.01945296
0.01804773
0.03593995
0.006659598
0.03872326
-0.02171783
0.01356928
0.03333408
0.00626285
0.03595494
-0.0233943
0.01001452
0.03111687
0.005896334
0.0334906
-0.02457107
0.007072447
0.02918923
0.005567451
0.03132572
-0.02544756
0.0046217
0.02747484
0.005265295
0.02940804
-0.02608158
0.002503255
0.02594624
0.005009146
0.02770318
-0.02654067
0.0007654902
0.02458841
0.004772724
0.02616196
-0.0268185
-0.0006736632
0.02328836
0.004555028
0.02476525
-0.02696358
-0.001938759
0.02216995
0.004361333
0.02351333
-0.02706136
-0.003029689
0.02106005
0.004178502
0.02236672
-0.02704811
-0.003977328
0.02011763
0.004012543
0.02132683
-0.02700503
-0.004767288
0.019201
0.003850753
0.02036307
-0.02685832
-0.005418181
0.1538676
0.2344998
0.1656019
0.1794395
0.06610265
0.1714795
0.05694948
0.07473576
0.08097003
0.009286879
0.06157783
0.1550325
0.05084813
0.1643953
0.04154227
0.1060503
0.03411834
0.1079003
0.03497753
0.08022238
0.02881211
0.07756212
0.02802423
0.06070616
0.02184082
0.05788712
0.02455714
0.0483275
0.01920036
0.04609283
0.02088619
0.03829634
0.01640936
0.03631481
0.0182394
0.0304003
0.01438479
0.02865192
0.01585449
0.02388976
0.01247582
0.02256265
0.0137523
0.01847067
0.01075357
0.01752668
0.01191575
0.01398982
0.009157891
0.0133995
0.01033981
0.01030347
0.007761123
0.01001444
0.00901394
0.007256655
0.006585987
0.0072045
0.007927029
0.004735694
0.005613907
0.004848854
0.007020797
0.002624074
0.004787908
0.002878025
0.006243656
0.000848775
0.004078563
0.001204732
0.005560272
-0.0006580058
0.003460663
-0.0002111041
0.00495454
-0.001948572
0.002918522
-0.001458376
0.004410889
-0.003055073
0.002434906
-0.00255349
0.003927975
-0.003998597
0.002026538
-0.003482079
0.003505569
-0.004796445
0.001685738
-0.004263207
0.003140208
-0.00546572
0.001409848
-0.004913145
0.002806566
-0.006055169
0.001163759
-0.005461755
0.002475845
0.01820299
-0.006004237
0.0009190892
0.007059879
-0.01857099
0.002784116
-0.02502918
-0.002972309
-0.02019906
-0.0197688
-0.02180837
-0.01819206
-0.007030961
-0.02113599
0.001740593
-0.02404264
0.004675698
-0.00743405
0.01966417
0.06100958
0.1317757
0.1540935
0.2345141
0.1657057
0.179467
0.06614522
0.171534
0.05690693
0.07504942
0.3474767
0.4973418
0.4264798
0.04090366
0.1201277
0.04163718
0.1373559
0.0013384
-0.005560059
0.002160143
-0.005794928
0.002815477
-0.006049105
0.001173791
-0.005455186
0.001102023
-0.006022689
0.001915767
-0.006387149
0.002495774
-0.006696987
-0.006009872
0.0009296084
0.003291956
0.03234237
0.00332133
0.01708578
0.01689173
0.03225501
0.01776265
0.001665376
-0.006544468
0.001680829
0.319645
0.4048323
0.2966079
0.2656302
0.2260657
0.3135474
0.2663871
0.4032126
0.3560761
0.3744978
0.2896131
0.4387973
0.3694919
0.4024302
0.3098859
0.4585179
0.3894685
0.4211678
0.3299874
0.4781928
0.4092736
0.4391643
0.3475733
0.4974326
0.4265943
0.4559388
0.0248289
0.07991978
0.02762121
0.07624665
0.01347118
0.04695143
0.01345331
0.04664595
0.01001631
0.03518514
0.009279578
0.03564347
0.007357374
0.02739786
0.005912207
0.02800655
0.005570019
0.02220529
0.00378826
0.02300023
0.004274792
0.01850286
0.002353873
0.01936301
0.003231211
0.01575836
0.001265984
0.01661025
0.002263863
0.01362585
0.000410325
0.01447018
0.001384535
0.01180843
-0.0003452262
0.01270552
0.0006328091
0.01027128
-0.0009601283
0.0112019
6.2828e-06
0.008932228
-0.001466228
0.009838446
-0.0005018031
0.007779939
-0.00187222
0.008685203
-0.0009230195
0.006794313
-0.002200967
0.007706341
-0.001265459
0.005934123
-0.002473251
0.006876944
-0.001535678
0.005186072
-0.002688814
0.006161754
-0.001732042
0.004544544
-0.002838773
0.0055483
-0.001877364
0.003985516
-0.002936799
0.005019834
-0.001981215
0.003505369
-0.002995341
0.004558813
-0.00205535
0.003088563
-0.003029496
0.004155084
-0.002106225
0.002724483
-0.003045838
0.003803475
-0.002134393
0.002411253
-0.003046367
0.003503368
-0.002148732
0.002138936
-0.003033068
0.00323695
-0.002159621
0.001895768
-0.003013599
0.002993319
0.3532909
0.3691034
0.3540888
0.3642765
0.3550599
0.3621363
0.349164
0.3636001
0.3444459
0.3625388
0.3629699
0.3603355
0.3562447
0.3588906
0.3429859
0.3436327
0.3580387
0.3711989
0.2507842
0.2335869
0.2367744
0.2597167
0.03146121
0.09775461
0.03661566
0.07503715
0.3677338
0.3658582
0.0162019
0.05219816
0.01556715
0.04949743
0.01126088
0.03796246
0.01040851
0.03688026
0.008402411
0.03011668
0.007280307
0.0292213
0.006382448
0.02437448
0.004899242
0.02367911
0.005061923
0.02045458
0.00347518
0.01984954
0.003907806
0.01743713
0.002329803
0.016903
0.003006298
0.01513949
0.001437225
0.01474923
0.002179513
0.01324268
0.0006366917
0.01290517
0.001431352
0.0116398
-2.686417e-05
0.01130521
0.0007859385
0.01024594
-0.0005833904
0.009919802
0.0002567424
0.009048886
-0.001040402
0.008753554
-0.0001713237
0.008030254
-0.001405221
0.007778696
-0.0005271041
0.007153786
-0.001700225
0.006955709
-0.0008154494
0.006400939
-0.001923915
0.006255574
-0.001050167
0.005749984
-0.002088138
0.005645287
-0.001235227
0.005189187
-0.002206441
0.005118205
-0.001374632
0.004703703
-0.002289662
0.004662322
-0.001483523
0.004279512
-0.002347293
0.004262831
-0.001562724
0.003908894
-0.002384329
0.003920465
-0.0016221
0.003585269
-0.002407178
0.003621549
-0.001661566
0.00330557
-0.002410896
0.003358276
-0.001683764
0.003053121
-0.002410187
0.003127597
-0.002388192
0.002842382
-0.001676257
0.002948371
0.3519115
0.3663542
0.3481954
0.3433205
0.3445719
0.3549896
0.3610094
0.3615573
0.3630155
0.35325
0.3627654
0.3667575
0.3561075
0.364148
0.3521876
0.3697313
0.3041911
0.4001782
0.2506206
0.2337772
0.2369378
0.2602917
0.03146764
0.09786241
0.03659428
0.07517404
0.4337349
0.4988806
0.4788869
0.4328326
0.01346567
0.04693898
0.01344911
0.04663779
0.04150761
0.1061804
0.03399543
0.1078642
-0.001682569
0.003052456
-0.002412594
0.003131175
-0.002165034
0.001896208
0.002989444
-0.003013657
0.002807295
-0.002424621
-0.001692189
0.002944836
0.02353993
0.1016876
0.1006838
0.03019992
0.1609341
0.2218363
0.1307929
0.1985816
0.2858959
0.3525435
0.3483161
0.3297171
0.2311795
0.372058
0.3757976
0.360915
0.2564088
0.4221427
0.3800767
0.3818311
0.2773511
0.4469126
0.3926232
0.4038363
0.3008475
0.4664419
0.4071175
0.4254532
0.3228493
0.4855359
0.02287849
0.06280851
0.02207092
0.0617948
0.01344353
0.04337984
0.01227642
0.04169835
0.0102774
0.03336066
0.00910739
0.03272463
0.007768396
0.02664941
0.006254523
0.02611895
0.006193862
0.02213343
0.004653979
0.02163866
0.004869345
0.01881147
0.003422618
0.01832264
0.003841425
0.01628754
0.002522668
0.01581398
0.002942788
0.01426005
0.001699777
0.01381118
0.002132416
0.01254012
0.000959461
0.01209445
0.001394363
0.01103836
0.0002880083
0.01058729
0.000754812
0.009755327
-0.0002605261
0.00929539
0.0002467951
0.008668223
-0.0006947046
0.008221346
-0.000164137
0.007735145
-0.00104029
0.007321153
-0.0005008246
0.006935421
-0.001314126
0.006550873
-0.0007787806
0.006246541
-0.001529059
0.005893538
-0.00100037
0.005648457
-0.001693976
0.005328656
-0.001173591
0.00513062
-0.001816049
0.004841544
-0.001304458
0.004678102
-0.001905755
0.004421115
-0.001402418
0.004291824
-0.001962183
0.004057842
-0.00147356
0.003950783
-0.002001018
0.003742111
-0.001525883
0.003651999
-0.002022217
0.003463141
-0.001558385
0.003392147
-0.00202647
0.003218287
-0.001582734
0.003163808
-0.002019648
0.00299994
0.3636458
0.3668206
0.3531117
0.3647231
0.3411534
0.3526165
0.3588815
0.362446
0.3476528
0.3513974
0.3520341
0.3675013
0.3630422
0.3577273
0.3598862
0.3670133
0.3715234
0.3697973
0.2965777
0.2656064
0.3132241
0.2257984
0.3293012
0.3717205
0.3482373
0.2307297
0.4029376
0.3741743
0.2658868
0.355708
0.3606396
0.4218526
0.3755677
0.2559779
0.4385484
0.4021254
0.289181
0.3691447
0.381619
0.4466533
0.3798982
0.2769894
0.4583518
0.4208924
0.3095219
0.3891951
0.4036919
0.4662005
0.3924093
0.3005581
0.4780635
0.4389548
0.3297255
0.4090947
0.4253504
0.3227462
0.4853453
0.4070068
0.1614158
0.08115211
0.2156577
0.05960533
0.1550196
0.0508365
0.164308
0.06162234
0.08649677
0.03520392
0.09329448
0.03242699
0.08031542
0.07753402
0.03491989
0.02868336
0.06283631
0.06910818
0.02466364
0.02579627
0.06072408
0.05793515
0.02789383
0.02169609
0.04771956
0.05403667
0.02094494
0.02222988
0.04834445
0.04610448
0.02461394
0.01922794
0.03788434
0.04248821
0.01782677
0.01913522
0.03001721
0.03347822
0.01546728
0.01658996
0.03036041
0.02862237
0.01817563
0.01430196
0.02387827
0.02640116
0.01340628
0.01447965
0.02389074
0.02255018
0.0158253
0.0124417
0.0187075
0.02054379
0.01157038
0.01256905
0.0184979
0.0175439
0.01376993
0.0107655
0.0143167
0.01569826
0.009854308
0.01084919
0.01401138
0.01339932
0.01198693
0.00916585
0.01062242
0.01174903
0.008365357
0.009334357
0.01033132
0.01002728
0.01033105
0.007755477
0.007537168
0.008463237
0.007065904
0.008044963
0.007277748
0.007212423
0.009007709
0.006552759
0.004966338
0.005750453
0.006012188
0.006952498
0.004766129
0.004862583
0.007920799
0.005585516
0.00283603
0.003501025
0.005144289
0.006078896
0.002652924
0.00290191
0.007024515
0.004763006
0.00105678
0.001588782
0.004411045
0.00534054
-0.0004349279
-2.415344e-05
0.003740351
0.0046883
-0.0006255786
-0.0002002782
0.005562934
0.003439111
-0.001683655
-0.001399527
0.003181636
0.004122906
-0.002772319
-0.002584185
0.002667674
0.003607016
-0.003022765
-0.002525155
0.004411954
0.002413257
-0.003652948
-0.003594763
0.002245702
0.003155688
-0.003979884
-0.003451271
0.003920075
0.00201941
-0.004423665
-0.004463989
0.001859124
0.002741545
-0.004779075
-0.004240783
0.003497318
0.001661638
-0.005041409
-0.005178821
0.001563663
0.002414407
-0.005453874
0.001399264
-0.004885882
0.003144759
0.1875805
0.1593848
0.1530119