/*--------------------------------*- C++ -*----------------------------------*\
  =========                 |
  \\      /  F ield         | OpenFOAM: The Open Source CFD Toolbox
   \\    /   O peration     | Website:  https://openfoam.org
    \\  /    A nd           | Version:  7
     \\/     M anipulation  |
\*---------------------------------------------------------------------------*/
FoamFile
{
    version     2.0;
    format      ascii;
    class       surfaceScalarField;
    location    "0.02";
    object      phi;
}
// * * * * * * * * * * * * * * * * * * * * * * * * * * * * * * * * * * * * * //

dimensions      [0 3 -1 0 0 0 0];

internalField   nonuniform List<scalar> 
260377
(
-0.001468202
0.001458861
1.422191e-06
-0.0001383992
-0.0002496041
-0.0001790476
-0.0002406644
0.0001395238
0.0002518918
0.000180707
0.0002435114
-0.00215529
0.001433292
4.715707e-05
-8.751136e-05
-0.0002879839
-0.0001554019
-0.0002624641
-0.002851752
0.001367346
6.38224e-05
-3.366212e-05
-0.0003109137
-0.0001187041
-0.0002714269
-0.003511712
0.0013017
6.107635e-05
1.315781e-05
-0.0003395269
-9.151206e-05
-0.0002849351
-0.00412632
0.001201844
6.130256e-05
6.03253e-05
-0.0003608256
-5.903632e-05
-0.0002890011
-0.004675622
0.001073963
5.468035e-05
0.0001073819
-0.0003762647
-2.31687e-05
-0.0002872907
-0.005138676
0.0009016592
4.445172e-05
0.0001558441
-0.0003821946
1.882999e-05
-0.0002755361
0.0006882739
3.424867e-05
0.0002041945
-0.0003769164
6.141735e-05
-0.0002565365
-0.005493357
-0.001499096
0.002172665
-4.937484e-05
9.612545e-05
0.0002992737
0.0001647429
0.0002745253
-0.002174506
0.002109588
-8.862887e-07
-0.00287326
0.002026828
3.927272e-05
-0.003543306
0.001928015
4.373159e-05
-0.004177166
0.001789772
4.5932e-05
-0.004754207
0.001608803
4.220107e-05
-0.005250688
0.001361409
3.673103e-05
0.001050308
2.799855e-05
-0.005640721
-0.001522718
0.002942407
-6.954741e-05
5.018622e-05
0.0003365397
0.0001386706
0.0002971275
-0.0022232
0.002853022
-4.295132e-05
-0.002947725
0.002751403
-5.006115e-08
-0.003653552
0.002628316
5.526503e-06
-0.004333872
0.002458465
1.162712e-05
-0.004967878
0.002231232
1.15775e-05
-0.005529848
0.001912694
1.06861e-05
0.001500709
7.857414e-06
-0.005988107
-0.001572717
0.003737205
-7.23034e-05
1.155002e-05
0.0003850325
0.0001233679
0.0003302715
-0.002294541
0.003626887
-5.204083e-05
-0.003052999
0.003516471
-6.609768e-06
-0.003803293
0.003379515
-9.040177e-07
-0.004546821
0.003195116
6.877404e-06
-0.005262478
0.002939114
7.774854e-06
-0.005922784
0.002565343
7.656375e-06
0.002056085
5.419813e-06
-0.006483579
-0.001621539
0.004562118
-7.717299e-05
-2.760016e-05
0.0004338976
0.0001066805
0.0003608218
-0.002373303
0.004439416
-6.076393e-05
-0.0031734
0.004330648
-1.407945e-05
-0.003982325
0.004197128
-8.688534e-06
-0.004808849
0.004022004
-3.641723e-07
-0.005637964
0.003766906
1.32375e-06
-0.006447201
0.003373752
8.290696e-07
0.002769528
2.537937e-07
-0.007160898
-0.001670572
0.005411141
-8.078425e-05
-6.680534e-05
0.0004844389
9.157651e-05
0.0003931234
-0.00245033
0.005282646
-6.347064e-05
-0.003290854
0.005187359
-1.618694e-05
-0.004162103
0.005078775
-1.039759e-05
-0.005085964
0.004948133
-2.266425e-06
-0.006061048
0.004739642
2.347982e-06
-0.00709975
0.004413091
-6.3709e-07
0.003735373
-3.347267e-06
-0.008062248
-0.001706938
0.006279634
-8.591843e-05
-0.0001079386
0.0005348615
7.39323e-05
0.0004235081
-0.002509302
0.006150695
-6.56843e-05
-0.003382845
0.006079506
-1.860329e-05
-0.004310162
0.006018128
-1.203574e-05
-0.005332019
0.005975427
-5.437619e-06
-0.006466061
0.005870372
3.313461e-06
-0.007843158
0.005793206
-3.017549e-06
0.005107942
-1.43188e-05
-0.009201408
-0.001721351
0.007154892
-8.731331e-05
-0.0001518909
0.0005842201
5.09805e-05
0.0004500975
-0.002529297
0.007024892
-6.625087e-05
-0.003410595
0.006980474
-1.966985e-05
-0.004362262
0.00698106
-1.126495e-05
-0.005465987
0.007084357
-5.203888e-06
-0.006833621
0.007218599
1.940659e-05
-0.008666697
0.00758974
3.654362e-05
0.002241399
-0.0001264144
0.001062621
0.00226459
0.001750064
-0.01075101
-0.001723161
0.008029962
-8.535753e-05
-0.0001973999
0.0006317722
2.515086e-05
0.0004739259
-0.00252266
0.007890915
-6.652355e-05
-0.003382602
0.007860419
-2.000261e-05
-0.004294385
0.007903092
-1.024745e-05
-0.005344043
0.0081353
-1.285284e-06
-0.006732827
0.008541884
6.550007e-05
-0.00256971
0.009596497
0.0002561465
-0.001558139
-0.00267952
-0.002188361
-0.002911803
0.00256926
1.423342e-05
-0.001699084
0.008890641
-8.07253e-05
-0.0002448631
0.0006756563
-4.663905e-06
0.0004930016
-0.002461032
0.008719104
-6.62418e-05
-0.003229912
0.008649928
-2.062896e-05
-0.003962908
0.008645292
-9.203671e-06
-0.004635578
0.008816215
-8.244664e-06
-0.005363065
0.009159123
0.0001102473
-0.002220257
0.01021499
0.0003198449
-0.0006417082
-0.002226438
-0.001212996
0.003347987
0.0001285667
-0.003493134
-0.0004583597
-0.0007650344
-0.0007415391
-0.0002387434
0.0005724853
-0.0001578719
-0.0003468621
-6.775137e-05
-0.001705699
0.009751951
-7.918732e-05
-0.0002886448
0.000722134
-2.638169e-05
0.0005164684
-0.002450326
0.009529864
-6.613205e-05
-0.003161664
0.009379618
-1.835015e-05
-0.0037648
0.009255497
-7.068222e-06
-0.004144782
0.009186982
9.216235e-06
-0.004244472
0.009148943
0.0001098695
-0.001457216
0.009318245
0.0003276925
-0.0003023517
-0.001203549
-0.0007123069
-0.003411547
0.002687955
5.692751e-05
-0.0001658532
-0.0003474364
-0.0002378917
-3.936945e-05
-0.001756096
0.01063875
-8.090053e-05
-0.0003274537
0.0007744437
-4.291631e-05
0.0005461265
-0.002517507
0.01035908
-6.780071e-05
-0.003239366
0.01012078
-1.929886e-05
-0.003838882
0.009860642
-5.628051e-06
-0.004209385
0.009556141
1.345376e-06
-0.004266504
0.009092712
0.0001133501
-0.001311161
0.008504245
0.0002692753
-0.0004611894
-0.001180434
-0.0007689946
-0.00269769
0.002055674
0.0001023207
-0.0001824602
-0.0003183575
-0.000206357
-6.429084e-05
-0.001863079
0.01158116
-8.526438e-05
-0.000361373
0.0008351659
-5.231842e-05
0.0005844597
-0.002683651
0.01125131
-7.165895e-05
-0.00349013
0.01094656
-1.93081e-05
-0.004220869
0.01059657
-5.187029e-06
-0.004838278
0.0101569
1.66506e-05
-0.00544962
0.009544084
0.0001599702
-0.001684869
0.00857967
0.0004931703
-0.001196113
-0.00166278
-0.001474454
-0.0020315
0.001589089
0.0001131353
-0.0003940005
-0.0003659765
-0.0003160969
-0.0002795195
-0.002006286
0.01259816
-9.159232e-05
-0.0003936465
0.0009031723
-5.776244e-05
0.0006291092
-0.002908626
0.0122305
-7.684882e-05
-0.003821697
0.01188377
-2.413669e-05
-0.004726878
0.01150303
-1.275321e-06
-0.005554158
0.01100327
-1.909081e-05
-0.00674731
0.01048812
0.0002491195
-0.002101021
0.00962179
0.0004000418
-0.001694456
-0.002242198
-0.002151795
-0.001821284
-0.002073479
0.001617881
0.0001758609
-0.002167092
0.01369843
-9.844251e-05
-0.0004271549
0.0009768333
-6.200939e-05
0.0006776043
-0.003150227
0.01329761
-8.397956e-05
-0.004167647
0.01292588
-2.468717e-05
-0.005172071
0.01252263
-1.517626e-05
-0.006198137
0.01203016
-8.189858e-07
-0.007322218
0.01150392
0.0001082783
-0.008872242
0.01077627
0.0003955437
0.01051355
0.0004701456
-0.00187854
-0.002372666
-0.002400713
-0.00252996
-0.01067406
-0.002340854
0.014888
-0.0001051756
-0.0004628919
0.001055633
-6.582335e-05
0.0007295368
-0.003409928
0.01445632
-8.962873e-05
-0.004527595
0.01406728
-2.37339e-05
-0.005649244
0.0136557
-1.142613e-05
-0.006822113
0.01319763
5.395155e-06
-0.00812586
0.0127254
8.226412e-05
-0.009670948
0.0121774
0.0001439559
0.01170362
0.0003780862
-0.0112391
-0.002518253
0.0161682
-0.0001122727
-0.00050184
0.001138941
-7.030577e-05
0.0007835365
-0.003666037
0.01570065
-9.654529e-05
-0.004859769
0.01528693
-2.591055e-05
-0.00604332
0.0148572
-1.794752e-05
-0.007250106
0.01440899
-4.568687e-06
-0.008502769
0.01397146
6.611478e-06
-0.009862046
0.01351951
1.717452e-05
0.01316677
2.398094e-05
-0.01134918
-0.002707275
0.01754443
-0.0001195124
-0.0005432251
0.001227491
-7.436758e-05
0.0008406604
-0.003935653
0.01703208
-0.0001030508
-0.005202907
0.01658082
-2.663918e-05
-0.00644377
0.01611645
-1.838156e-05
-0.007682315
0.01565027
-2.736799e-06
-0.008925969
0.01520798
7.129253e-06
-0.0102137
0.01479672
1.052004e-05
0.01447362
2.592461e-05
-0.01154647
-0.002914189
0.01902552
-0.0001274069
-0.0005865791
0.001322482
-7.715313e-05
0.0009017587
-0.004226738
0.01845517
-0.0001105428
-0.005563486
0.01794628
-2.870626e-05
-0.006846122
0.01742018
-2.108973e-05
-0.008089417
0.01689898
-5.414057e-06
-0.009295086
0.01641493
-1.274473e-06
-0.01049316
0.01599358
1.21471e-06
0.01568435
-3.195633e-07
-0.01170358
-0.003151981
0.0206277
-0.0001365667
-0.0006307434
0.001425886
-7.724682e-05
0.000968474
-0.004560673
0.01998314
-0.0001192783
-0.005974726
0.01939156
-3.122364e-05
-0.007299733
0.01876865
-2.346189e-05
-0.00854053
0.01814591
-6.136864e-06
-0.009694719
0.01757117
-2.052311e-06
-0.01079554
0.01709243
1.977666e-06
0.01676077
2.491654e-06
-0.01187445
-0.003437683
0.02237621
-0.0001475859
-0.0006745506
0.001540576
-7.264965e-05
0.001043377
-0.004963621
0.02163857
-0.0001294877
-0.00647198
0.02093405
-3.412879e-05
-0.007843993
0.02016603
-2.536568e-05
-0.009070137
0.01937941
-7.346306e-06
-0.0101448
0.01864981
-3.978212e-06
-0.01111657
0.01806431
-1.07783e-07
0.0176894
-1.219009e-06
-0.01204397
-0.003785877
0.02430644
-0.0001628105
-0.0007173018
0.001669206
-6.200123e-05
0.00112856
-0.005460002
0.02345732
-0.0001446202
-0.007093545
0.02260973
-4.214002e-05
-0.008534954
0.02164241
-3.497289e-05
-0.009743321
0.02060137
-1.359948e-05
-0.01070423
0.01962163
-1.090679e-05
-0.01149027
0.01885446
-4.113132e-06
0.01841583
-5.842799e-06
-0.01221087
-0.004231416
-0.0001809185
-0.000757148
0.001816909
-4.029444e-05
0.001230837
0.02646847
-0.006108137
-0.0001571498
0.02549119
-0.007928245
-4.339267e-05
0.02447323
-0.009464721
-2.415589e-05
0.02320304
-0.01063589
-9.67197e-06
0.02178222
-0.01141383
-6.762681e-06
0.02040632
-0.01193436
-2.645605e-06
0.01937764
-7.065611e-06
0.01885838
-0.01236983
5.49115e-06
3.639039e-05
-0.0002544202
7.588735e-05
3.22575e-07
-8.823352e-06
6.696315e-06
2.071077e-06
4.920666e-05
3.815951e-05
4.901859e-05
2.394582e-05
0.0003474396
-0.0004287509
6.716382e-05
-2.038921e-05
-1.13864e-05
1.555357e-05
6.423838e-06
3.507531e-05
0.0005451383
-0.0006187443
5.838678e-05
-2.89348e-05
-1.86621e-05
2.077674e-05
6.964185e-06
4.607481e-05
0.000730418
-0.0007910564
4.760278e-05
-4.601098e-05
-2.43562e-05
2.729751e-05
1.003065e-05
5.60802e-05
0.0009031959
-0.0009507539
2.86e-05
-5.282012e-05
-2.99534e-05
3.253282e-05
1.311859e-05
6.648215e-05
0.001061786
-0.001095662
1.274297e-05
-6.660842e-05
-3.408088e-05
3.872062e-05
1.662024e-05
7.509294e-05
0.001201105
-0.001221022
1.722379e-06
-8.130088e-05
-3.685499e-05
4.31199e-05
1.813812e-05
8.225538e-05
0.001319919
-0.001320838
-1.873121e-05
-8.96379e-05
-3.940827e-05
4.682546e-05
1.961535e-05
-5.674541e-06
-3.637838e-05
-7.682192e-05
0.0002548172
8.410858e-07
-6.959259e-06
8.734029e-06
-2.341175e-06
-4.919469e-05
-3.809707e-05
-4.892524e-05
-0.001642121
0.001632904
1.698912e-06
-0.0001791866
-0.0002249697
-0.0001843857
-0.0002256533
0.0001814862
0.0002262766
0.0001866004
0.0002287721
-0.002447538
0.001620893
3.754286e-05
-0.0001687766
-0.0002345197
-0.0001749302
-0.0002276345
-0.003223394
0.001548175
5.019755e-05
-0.0001509913
-0.0002360919
-0.0001502946
-0.0002213165
-0.003960499
0.001476885
5.294477e-05
-0.0001337319
-0.0002408034
-0.0001376647
-0.0002194482
-0.004652867
0.001367091
5.336832e-05
-0.0001028543
-0.0002381651
-0.0001170274
-0.0002087417
-0.005272629
0.001221688
4.97587e-05
-7.31403e-05
-0.00023268
-9.506731e-05
-0.0001961167
-0.005790949
0.001025931
4.503448e-05
-4.881327e-05
-0.0002182269
-6.618029e-05
-0.0001749733
0.0007828554
3.475562e-05
-8.042821e-06
-0.0001958963
-3.34131e-05
-0.0001487493
-0.00618821
-2.413801e-05
-0.0003481412
-7.004406e-05
0.0004318649
2.277283e-05
-1.578711e-05
1.080987e-05
-7.337106e-06
-0.001696077
0.002471577
-3.680257e-05
0.0001757708
0.0002469332
0.0001828893
0.0002392392
-0.002529729
0.002453851
-1.930202e-07
-0.003339352
0.002359576
3.749552e-05
-0.004118593
0.002248164
5.169387e-05
-0.004854626
0.00208926
5.979599e-05
-0.00552518
0.001877342
5.710029e-05
-0.006102784
0.001589713
5.055329e-05
0.001225703
3.870133e-05
-0.006556334
-3.595053e-05
-0.0005537256
-6.633128e-05
0.0006345548
3.277536e-05
-2.087465e-05
1.837988e-05
-8.827888e-06
-0.001726064
0.003333495
-5.216203e-05
0.0001700142
0.0002617239
0.0001689792
0.000246044
-0.002588882
0.003316124
-4.240503e-05
-0.003433017
0.003205225
-1.563552e-06
-0.004254264
0.003060338
1.459952e-05
-0.005043498
0.002861859
2.826321e-05
-0.005781671
0.002596773
3.031902e-05
-0.006436143
0.002225852
2.902017e-05
0.001746055
2.195838e-05
-0.006970596
-4.81223e-05
-0.000758567
-6.12684e-05
0.0008328012
5.024429e-05
-2.772503e-05
2.412762e-05
-1.14903e-05
-0.001788331
0.004226222
-6.074031e-05
0.0001669776
0.0002837662
0.0001696354
0.0002636619
-0.002678734
0.004216759
-6.227271e-05
-0.003555692
0.00409535
-1.977717e-05
-0.004428105
0.003934054
-2.206009e-06
-0.00529107
0.003716989
1.471212e-05
-0.006125219
0.003419136
1.956242e-05
-0.006895082
0.002982585
2.078729e-05
0.002392214
1.519538e-05
-0.007551016
-5.972314e-05
-0.0009635672
-5.513444e-05
0.00103489
6.218987e-05
-3.369575e-05
3.040637e-05
-1.536518e-05
-0.001845506
0.005150692
-6.851005e-05
0.0001610087
0.0003059851
0.0001657866
0.0002795933
-0.002771199
0.005159488
-7.779965e-05
-0.003694269
0.005040041
-3.569964e-05
-0.004633874
0.004883231
-1.825994e-05
-0.005592704
0.004674771
6.837595e-07
-0.006558606
0.004378675
7.687291e-06
-0.007501116
0.003915176
1.074876e-05
0.003224167
6.584416e-06
-0.0083394
-7.138358e-05
-0.001176259
-4.599576e-05
0.001243037
7.217198e-05
-3.91508e-05
3.708564e-05
-1.950507e-05
-0.001901369
0.006105058
-7.158561e-05
0.0001520103
0.000328404
0.0001633745
0.0002940153
-0.002860445
0.006139348
-8.425314e-05
-0.003829763
0.0060357
-4.252716e-05
-0.004840654
0.005908524
-2.479944e-05
-0.005913022
0.00574979
-4.916413e-06
-0.007052208
0.005515977
4.233068e-06
-0.008254432
0.005110347
6.41512e-06
0.004360717
-3.408745e-06
-0.009390921
-8.391752e-05
-0.001394991
-3.206069e-05
0.001456537
8.009334e-05
-4.520931e-05
4.374089e-05
-2.419295e-05
-0.001943803
0.007087417
-7.365812e-05
0.0001340324
0.0003483174
0.0001599245
0.0003069098
-0.002928772
0.007148014
-8.938039e-05
-0.003937735
0.007073432
-4.737174e-05
-0.005013662
0.007001307
-2.889245e-05
-0.006205051
0.006943691
-7.948508e-06
-0.007559756
0.006868905
5.090039e-06
-0.009159078
0.006702818
3.833132e-06
0.005945557
-2.047725e-05
-0.01073776
-9.679244e-05
-0.001618261
-2.227784e-05
0.001673975
9.374969e-05
-5.177729e-05
4.989638e-05
-2.851275e-05
-0.001962317
0.008079945
-7.548023e-05
0.0001205479
0.0003664148
0.0001533643
0.0003176292
-0.002952966
0.008163739
-9.132648e-05
-0.003972329
0.008122123
-4.899832e-05
-0.005075014
0.008121353
-2.862526e-05
-0.006355491
0.008222848
-3.883891e-06
-0.007925442
0.008435261
2.300194e-05
-0.009996043
0.008782077
2.788653e-05
0.002340606
-0.0001182911
0.001865496
0.002241827
0.001843418
-0.01234995
-0.0001096629
-0.00184363
-1.68466e-05
0.001893132
0.0001126677
-5.821878e-05
5.542287e-05
-3.286442e-05
-0.001966039
0.009069249
-7.828042e-05
0.0001126539
0.0003860197
0.0001447672
0.0003262185
-0.002948047
0.009170748
-9.152343e-05
-0.00394647
0.009148754
-4.821086e-05
-0.005010119
0.009198848
-2.409202e-05
-0.006252269
0.009451232
1.248119e-05
-0.007755395
0.009930769
7.31178e-05
-0.002757578
0.010896
0.0001953733
-0.002227163
-0.002648884
-0.002174923
-1.080616e-05
-0.003269344
0.002856016
7.162582e-06
-0.0001220851
-0.002069765
-1.107355e-05
0.002111329
0.0001319475
-6.371805e-05
6.060222e-05
-3.723741e-05
-0.001939404
0.01003974
-7.946312e-05
0.0001031761
0.0004015883
0.0001323248
0.0003305598
-0.002880401
0.01013506
-8.95562e-05
-0.003778744
0.01007292
-4.645464e-05
-0.004641149
0.01007115
-1.909959e-05
-0.005496786
0.01027702
2.160383e-05
-0.006263194
0.01069754
0.0001098799
-0.002274712
0.01182893
0.0001643241
-0.001249351
-0.002269735
-0.001246799
-1.579982e-05
0.003726787
3.911315e-05
-0.00336524
-0.0005185196
-0.0008147123
-0.0005169792
-0.0008093616
-7.600748e-06
0.0007098046
-0.0002475906
-0.000460215
5.6015e-06
-0.0001338864
-0.002293611
-4.825403e-06
0.002328527
0.0001478514
-6.854683e-05
6.588653e-05
-4.139578e-05
-0.001946189
0.01101147
-8.092931e-05
9.523468e-05
0.000417917
0.000124135
0.0003389153
-0.002867632
0.01107882
-8.84528e-05
-0.003694248
0.01092405
-4.285674e-05
-0.00440357
0.01078604
-1.26351e-05
-0.004870511
0.01071175
4.142739e-05
-0.004893369
0.01071456
0.0001157118
-0.001200636
0.01083436
0.000186164
-0.0006972313
-0.001165363
-0.0006940451
1.387796e-05
-0.003474173
-0.0008338596
0.003076026
1.749345e-05
-0.0001457855
-0.002518336
1.88982e-06
0.002548843
0.0001609933
-7.340457e-05
7.137386e-05
-4.557475e-05
-0.002004077
0.01201396
-8.299651e-05
8.825592e-05
0.0004400534
0.0001209844
0.0003543887
-0.0029458
0.01204278
-9.003634e-05
-0.003784766
0.01178603
-4.231235e-05
-0.004486071
0.0114895
-7.783892e-06
-0.004941384
0.01112108
4.732785e-05
-0.004896625
0.0106456
0.0001375488
-0.00112794
0.009632614
0.0001979873
-0.0007234031
-0.001105207
-0.0006670388
-3.413889e-05
-0.0005804832
0.002209457
3.814319e-05
-0.002760918
-0.0001578426
-0.002749154
4.562286e-06
0.002779393
0.0001743472
-7.839654e-05
7.703994e-05
-4.994884e-05
-0.00212607
0.01307889
-8.772674e-05
8.963435e-05
0.000470876
0.0001249151
0.0003781766
-0.003139137
0.01307889
-9.469977e-05
-0.004073499
0.0127436
-4.251759e-05
-0.004924021
0.0123389
-4.063563e-06
-0.005648022
0.01179255
6.918166e-05
-0.006119861
0.0110899
0.0001875104
-0.001631624
0.009650957
0.0003657421
-0.001429133
-0.001550442
-0.001399577
-2.209393e-05
-0.001892889
0.001592421
3.616248e-05
-0.0002985349
-0.0003805774
-0.0003745578
-0.0002915549
-0.0001702098
-0.002993658
4.94361e-06
0.003025906
0.0001878747
-8.342491e-05
8.315102e-05
-5.458262e-05
-0.002290631
0.01422781
-9.417561e-05
9.633016e-05
0.0005073829
0.000133512
0.0004070722
-0.003402787
0.01421564
-0.000101437
-0.004473274
0.01383665
-4.670012e-05
-0.005519015
0.01338403
-6.673273e-07
-0.006626595
0.01281951
6.153455e-05
-0.007624368
0.01210323
0.0002335674
-0.008909004
0.01097704
0.0003585957
0.009375156
0.0006461276
-0.001781069
-0.001990533
-0.001757469
-0.002021037
-0.0001231263
-0.0003943974
7.989319e-05
-0.000238033
-0.002574386
-0.002814372
-0.002488235
-0.002827525
-0.0001831736
-0.003256814
4.757243e-06
0.003291867
0.0002019746
-8.86158e-05
8.971618e-05
-5.971105e-05
-0.002474363
0.01547036
-0.000101574
0.0001047802
0.0005470475
0.0001443757
0.0004387464
-0.003688099
0.01545607
-0.0001106734
-0.004874272
0.01505032
-5.218186e-05
-0.006070056
0.01457757
-1.292894e-05
-0.007335425
0.01403131
5.275279e-05
-0.0086752
0.01340757
0.0001437137
-0.01022173
0.01263267
0.0002864477
0.01166071
0.0003102464
-0.01234738
-0.0001968606
-0.00354085
4.516339e-06
0.003578723
0.0002168844
-9.386354e-05
9.671249e-05
-6.526236e-05
-0.002670523
0.01681285
-0.0001089433
0.000114007
0.0005888727
0.0001565369
0.0004723819
-0.003985663
0.01680145
-0.0001198731
-0.005275777
0.01637493
-5.822859e-05
-0.006581083
0.01589176
-2.030484e-05
-0.00794921
0.01536875
3.607665e-05
-0.009396267
0.01482715
0.0001097372
-0.01108048
0.01426282
0.0001980253
0.01370701
0.0003215654
-0.01307027
-0.0002112418
-0.003846602
4.331095e-06
0.003887338
0.0002323258
-9.912147e-05
0.0001041668
-7.119683e-05
-0.002872834
0.0182578
-0.0001169229
0.0001234658
0.0006326077
0.0001689569
0.0005075
-0.00428419
0.01824673
-0.0001304619
-0.005660073
0.01779173
-6.682936e-05
-0.007037798
0.01728584
-3.429913e-05
-0.008446424
0.01676273
1.008304e-05
-0.009907491
0.0162486
4.623544e-05
-0.01147622
0.01575854
9.017976e-05
0.0153271
0.0001074575
-0.01317978
-0.0002263545
-0.00417526
4.269015e-06
0.004218851
0.0002483773
-0.0001043154
0.0001120221
-7.75898e-05
-0.003088009
0.01981173
-0.0001246786
0.0001333634
0.0006785483
0.0001824866
0.0005448486
-0.004596867
0.01979338
-0.0001408483
-0.006053304
0.0192955
-7.397021e-05
-0.007490328
0.01874735
-4.286937e-05
-0.008924499
0.01819647
-2.308823e-06
-0.01036932
0.01767578
2.476157e-05
-0.01186209
0.01721074
5.109035e-05
0.01684043
6.481636e-05
-0.0134143
-0.0002421366
-0.004527814
3.392482e-06
0.004575162
0.000264901
-0.0001093952
0.0001203211
-8.443071e-05
-0.003324426
0.02148477
-0.0001334028
0.0001453913
0.0007284077
0.0001978119
0.000585773
-0.004936566
0.02144742
-0.000152435
-0.006471838
0.02088432
-8.224987e-05
-0.007956717
0.02026317
-5.202758e-05
-0.00939554
0.01964409
-1.420544e-05
-0.01079746
0.01907181
4.62381e-06
-0.01219026
0.01858455
2.020235e-05
0.01822152
2.076479e-05
-0.01359243
-0.0002586851
-0.004907166
1.317818e-06
0.004959098
0.0002824755
-0.0001143589
0.0001290871
-9.176838e-05
-0.003596296
0.02329549
-0.0001434551
0.0001607941
0.0007832226
0.0002167071
0.0006317446
-0.005326655
0.0232245
-0.0001659971
-0.006949469
0.02256778
-9.186831e-05
-0.008482089
0.02183351
-6.117829e-05
-0.009916041
0.02109458
-2.267582e-05
-0.01125606
0.02041537
-5.595961e-06
-0.01253558
0.01985852
7.532133e-06
0.01947064
7.47423e-06
-0.01378968
-0.0002760381
-0.005316062
-2.576325e-06
0.005374432
0.0003005527
-0.0001190869
0.0001383958
-9.961715e-05
-0.00392257
0.02527273
-0.0001557158
0.000181785
0.000845416
0.0002409967
0.0006852656
-0.005797271
0.02515258
-0.0001828702
-0.007527774
0.02436882
-0.0001046669
-0.009115824
0.02346897
-7.277711e-05
-0.01053305
0.02253792
-3.345765e-05
-0.0117815
0.02167705
-1.721031e-05
-0.01291191
0.02099433
-5.500794e-06
0.02055344
-7.096945e-06
-0.01398883
-0.0002942195
-0.005759402
-9.940772e-06
0.00582718
0.0003192598
-0.0001233367
0.0001484028
-0.0001079437
-0.004321537
0.02745538
-0.0001721711
0.0002102687
0.0009174417
0.0002724365
0.0007481026
-0.006379744
0.02727269
-0.0002065222
-0.008253777
0.02632598
-0.0001252545
-0.009920848
0.02519466
-9.358628e-05
-0.01131908
0.02397429
-5.173587e-05
-0.01243601
0.02281878
-3.570318e-05
-0.01335421
0.02193127
-2.286019e-05
0.02140972
-2.458587e-05
-0.01419175
0.0003741404
-0.0005828316
-0.006326105
-0.0003276238
0.0001988591
-0.000173855
5.458787e-05
0.00678283
-0.004824818
-0.0001919065
0.001003065
0.0002500718
0.0003142865
0.000823896
0.02989987
-0.007129257
-0.0002340893
0.02965407
-0.009217531
-0.0001497813
0.02852064
-0.01101254
-0.0001134833
0.027079
-0.01237323
-7.654945e-05
0.02540186
-0.01328242
-6.01687e-05
0.02378137
-0.01389238
-4.809755e-05
0.02258668
-4.947277e-05
0.02194909
-0.01438934
3.742843e-05
-8.003774e-06
-0.0002385675
6.911277e-05
6.067282e-06
4.814529e-05
3.776923e-05
4.804836e-05
-0.002094597
0.0006909225
6.429518e-06
3.41081e-05
-0.0001003521
3.699366e-05
-1.832195e-05
0.0003074009
0.0004120293
0.000315448
0.0004099394
-0.002705921
0.0006472316
3.242171e-05
8.078414e-05
-0.0001353085
2.881583e-05
-4.262094e-05
-0.003332477
0.0006498932
1.627037e-05
0.0001257745
-0.0001601249
4.237375e-05
-4.763006e-05
-0.003897946
0.00059682
1.779395e-05
0.0001544467
-0.0001916682
4.519848e-05
-5.712248e-05
-0.004409397
0.0005328379
1.567333e-05
0.0001853384
-0.0002125318
5.222612e-05
-6.209259e-05
-0.004836075
0.000443846
1.276046e-05
0.0002140887
-0.0002356567
6.018521e-05
-6.854491e-05
0.0003352608
9.990126e-06
0.0002373411
-0.0002526759
6.512179e-05
-7.231591e-05
-0.005158797
-3.761726e-05
6.791245e-06
-7.059916e-05
0.0002404984
-4.904837e-06
-4.822254e-05
-3.790793e-05
-4.803789e-05
-0.001571657
0.001558853
1.895954e-06
-0.0001727908
-0.0002131372
-0.0001726628
-0.0002188877
0.0001758783
0.0002163746
0.0001758551
0.0002219779
-0.00240602
0.001535946
2.688265e-05
-0.003203679
0.0014674
2.768768e-05
-0.003943542
0.00141215
3.055176e-05
-0.004632608
0.001307856
3.139821e-05
-0.00524937
0.001170192
2.916694e-05
-0.005769461
0.0009827632
2.620834e-05
0.0007485795
1.979011e-05
-0.006167814
-0.0007326686
0.00215099
-2.949066e-06
-3.539502e-05
-3.919605e-05
0.0001022439
1.581115e-05
-0.0003105381
-0.000415969
-0.0003193053
-0.0004130235
-0.001612303
0.002425403
-2.371797e-05
-0.002470665
0.002393185
9.303219e-07
-0.003313279
0.002326917
2.059273e-05
-0.004105079
0.002221022
3.462185e-05
-0.004845936
0.002066654
4.1855e-05
-0.005519038
0.001858775
4.162004e-05
-0.006097026
0.001574081
3.7223e-05
0.001213646
2.830886e-05
-0.0065517
-0.0007315207
0.00284402
-2.674786e-05
-8.398495e-05
-3.309244e-05
0.00014043
4.188518e-05
-0.001640417
0.00330785
-2.571197e-05
-0.002554387
0.003286488
-2.173763e-05
-0.003427277
0.00319902
-7.754071e-07
-0.004270006
0.003059538
1.881318e-05
-0.005071698
0.002864973
3.163661e-05
-0.005818081
0.00260069
3.478857e-05
-0.006478085
0.002230304
3.280269e-05
0.001749722
2.479234e-05
-0.007016994
-0.0007940457
0.003612513
-1.100071e-05
-0.0001311017
-4.878369e-05
0.0001692751
4.716407e-05
-0.001713499
0.004198392
-3.182829e-05
-0.002647439
0.004198244
-4.008847e-05
-0.003555833
0.004110303
-2.26657e-05
-0.004453249
0.003956239
-1.491406e-06
-0.00533103
0.003741507
1.596071e-05
-0.006176171
0.003442389
2.300538e-05
-0.006954313
0.003004892
2.434141e-05
0.002410785
1.798915e-05
-0.007618169
-0.0008148287
0.004396765
-1.822446e-05
-0.0001656573
-5.568112e-05
0.000207597
6.254249e-05
-0.001770612
0.005122828
-3.716203e-05
-0.002742863
0.005146102
-5.340705e-05
-0.003697824
0.005068399
-3.883355e-05
-0.004662551
0.004921206
-1.849965e-05
-0.005636309
0.004714634
1.315441e-06
-0.00661326
0.004415978
1.105058e-05
-0.007564633
0.003952419
1.459559e-05
0.003257674
9.442433e-06
-0.00841438
-0.0008438811
0.005206487
-1.673151e-05
-0.0002025549
-6.56278e-05
0.0002459567
7.311713e-05
-0.001827928
0.006074976
-3.968625e-05
-0.002833294
0.006127237
-6.00218e-05
-0.003834695
0.006074774
-4.750019e-05
-0.004870072
0.005959332
-2.754754e-05
-0.00595594
0.005802156
-6.570048e-06
-0.007103439
0.005562838
4.872703e-06
-0.008312496
0.005160391
7.499428e-06
0.004409524
-2.500508e-06
-0.009465255
-0.0008626104
0.006029381
-2.003369e-05
-0.0002384341
-7.381211e-05
0.0002878147
8.418233e-05
-0.001869536
0.007049685
-4.144152e-05
-0.002902242
0.007135426
-6.486174e-05
-0.003942584
0.00712085
-5.310532e-05
-0.005041006
0.007061606
-3.274411e-05
-0.006240872
0.007004117
-1.004273e-05
-0.007593608
0.006915929
4.734427e-06
-0.009177934
0.006746639
1.911975e-06
0.005987111
-2.390286e-05
-0.0107521
-0.0008702316
0.00686113
-2.055842e-05
-0.0002771517
-8.401019e-05
0.0003261508
9.405183e-05
-0.001886555
0.00803286
-4.233057e-05
-0.002926439
0.008150785
-6.68008e-05
-0.003976788
0.008177167
-5.496592e-05
-0.005100779
0.008189779
-3.280617e-05
-0.006382776
0.008286803
-4.572658e-06
-0.007928794
0.00846254
2.240911e-05
-0.009900532
0.008722489
2.37738e-05
0.002281315
-5.364499e-05
0.001871528
0.002225926
0.001854233
-0.01221107
-0.0008702253
0.007699364
-1.927192e-05
-0.0003198991
-9.563813e-05
0.000362822
0.0001039785
-0.001888637
0.009016583
-4.359191e-05
-0.002920154
0.009157629
-6.685066e-05
-0.003949001
0.009211512
-5.370786e-05
-0.005031764
0.009275529
-2.707858e-05
-0.006264099
0.009517521
1.409788e-05
-0.007716258
0.009922505
6.531189e-05
-0.002693657
0.01078008
0.0001115342
-0.002195119
-0.002631024
-0.00217021
-1.045463e-05
-0.003199307
0.002791439
5.980386e-06
-0.0008612212
0.008535755
-1.428245e-05
-0.0003629918
-0.0001085106
0.0003981369
0.0001124775
-0.001864422
0.009984378
-4.405707e-05
-0.002851902
0.01012078
-6.522533e-05
-0.003780208
0.01014405
-5.068225e-05
-0.004664053
0.01015994
-1.966221e-05
-0.005512284
0.01035745
2.991022e-05
-0.006272799
0.01070475
8.814491e-05
-0.002295053
0.01170417
0.0001082722
-0.001283576
-0.002288441
-0.001273767
-1.925098e-05
0.00366523
1.679742e-05
-0.003294262
-0.0005186271
-0.0008145084
-0.0005192984
-0.0008111348
-9.532769e-07
0.0007144644
-0.0002510233
-0.0004634616
9.736422e-07
-0.0008673434
0.009378999
-1.111402e-05
-0.0004036414
-0.0001199468
0.0004367413
0.0001220611
-0.001871568
0.01095227
-4.459158e-05
-0.002837314
0.01106232
-6.424488e-05
-0.00369153
0.01100249
-4.708109e-05
-0.004416913
0.0108852
-1.251223e-05
-0.004866927
0.01080357
4.531523e-05
-0.004869352
0.01073026
9.263362e-05
-0.001192849
0.01071584
0.0001133014
-0.0007185695
-0.001179769
-0.000716972
-0.003386219
-1.15666e-06
-0.0008282177
0.003015928
6.816819e-06
-0.0008934443
0.01024736
-1.017935e-05
-0.0004417377
-0.0001303982
0.0004754906
0.0001319096
-0.001926625
0.01194783
-4.538283e-05
-0.002912593
0.01202349
-6.52436e-05
-0.003777298
0.011871
-4.612078e-05
-0.004488489
0.01159625
-7.647941e-06
-0.004913717
0.01121974
5.638812e-05
-0.004829346
0.0106734
0.0001100364
-0.001113066
0.009548748
0.0001400907
-0.0007003366
-0.00110614
-0.0006848167
-1.411173e-05
-0.0005607255
0.002142166
9.468524e-06
-0.002689863
-0.0009448916
0.01116567
-1.114706e-05
-0.0004797154
-0.0001408037
0.0005156115
0.0001426383
-0.002042349
0.01300527
-4.77102e-05
-0.003101808
0.01305675
-6.849279e-05
-0.004060918
0.01283455
-4.695803e-05
-0.004917754
0.01245362
-4.592562e-06
-0.005605472
0.01190093
7.571153e-05
-0.006051326
0.01116197
0.0001447901
-0.001598824
0.009695574
0.0002418862
-0.001462876
-0.001577539
-0.001435055
-3.306705e-05
-0.001830724
0.001563446
8.522797e-06
-0.0003639147
-0.0002851584
-0.0003754276
-0.0002825012
-0.001014334
0.01215118
-1.222231e-05
-0.0005200357
-0.0001516332
0.0005588373
0.0001538737
-0.002199447
0.01414699
-5.077311e-05
-0.003361441
0.01419027
-7.296585e-05
-0.004457464
0.01393344
-4.956035e-05
-0.005508501
0.01350557
-1.576932e-06
-0.006566774
0.01292887
9.186603e-05
-0.007563007
0.01219893
0.0001928397
-0.008919525
0.01100492
0.0004057683
0.009307749
3.326067e-05
-0.001781075
-0.001897524
-0.001741755
-0.001891697
-0.002365504
-0.002757526
-0.002389996
-0.00278933
-0.001093655
0.01321394
-1.352637e-05
-0.0005634084
-0.0001628523
0.0006051803
0.0001655018
-0.002375858
0.01538261
-5.499199e-05
-0.003643997
0.01542786
-8.012083e-05
-0.004858351
0.01515353
-5.792521e-05
-0.006057246
0.01470579
-1.425421e-05
-0.007275013
0.01414055
5.88424e-05
-0.008570613
0.013479
0.0001592477
-0.01011589
0.01255577
0.0002808794
0.01156475
0.0002479017
-0.01231055
-0.00118
0.0143607
-1.393277e-05