/*--------------------------------*- C++ -*----------------------------------*\
  =========                 |
  \\      /  F ield         | OpenFOAM: The Open Source CFD Toolbox
   \\    /   O peration     | Website:  https://openfoam.org
    \\  /    A nd           | Version:  7
     \\/     M anipulation  |
\*---------------------------------------------------------------------------*/
FoamFile
{
    version     2.0;
    format      ascii;
    class       volScalarField;
    location    "0.03";
    object      epsilon;
}
// * * * * * * * * * * * * * * * * * * * * * * * * * * * * * * * * * * * * * //

dimensions      [0 2 -3 0 0 0 0];

internalField   nonuniform List<scalar> 
80136
(
0.0009389854
0.0009596943
0.0009664926
0.0009680791
0.000968444
0.0009684566
0.0009683428
0.0009597006
0.001000779
0.001013703
0.001017083
0.001017937
0.001018066
0.001017972
0.0009665221
0.001013748
0.001030165
0.001034695
0.001035909
0.001036117
0.001035999
0.0009681635
0.001017239
0.001034844
0.001039954
0.001041387
0.001041642
0.00104149
0.0009686323
0.001018288
0.001036335
0.001041713
0.001043276
0.001043565
0.001043389
0.0009688069
0.001018681
0.00103692
0.001042438
0.001044087
0.001044411
0.00104423
0.0009688789
0.001018847
0.001037179
0.00104278
0.001044495
0.001044862
0.001044695
0.000968913
0.001018926
0.001037309
0.001042963
0.001044732
0.001045142
0.001045002
0.0009689315
0.001018967
0.001037378
0.001043067
0.001044876
0.001045326
0.001045217
0.0009689406
0.001018989
0.001037417
0.001043129
0.001044963
0.001045442
0.00104536
0.0009689478
0.001019002
0.001037439
0.001043162
0.001045011
0.00104551
0.001045451
0.0009689516
0.001019009
0.00103745
0.001043178
0.001045036
0.001045546
0.001045504
0.0009689553
0.001019014
0.001037455
0.001043185
0.001045045
0.001045561
0.001045534
0.0009689581
0.001019017
0.001037458
0.001043187
0.00104505
0.001045568
0.00104555
0.0009689605
0.001019019
0.001037459
0.001043188
0.001045049
0.00104557
0.001045557
0.000968963
0.00101902
0.001037459
0.001043186
0.001045047
0.001045568
0.001045559
0.0009689648
0.001019021
0.001037459
0.001043184
0.001045043
0.001045563
0.001045555
0.0009689669
0.001019022
0.001037456
0.001043178
0.001045033
0.00104555
0.001045541
0.0009689677
0.001019019
0.001037447
0.001043162
0.00104501
0.00104552
0.001045506
0.000968965
0.001019007
0.001037424
0.001043125
0.001044956
0.001045448
0.001045418
0.0009689569
0.001018981
0.001037373
0.001043037
0.001044825
0.001045275
0.001045205
0.0009689367
0.00101892
0.001037251
0.001042834
0.001044514
0.001044849
0.001044677
0.0009688902
0.001018793
0.001036997
0.001042374
0.001043755
0.001043743
0.001043271
0.002040945
0.002068214
0.002083066
0.002086205
0.002086666
0.002086704
0.002086568
0.002086371
0.002040636
0.01181208
0.0118121
0.0118121
0.0118121
0.0118121
0.0118121
0.0118121
0.0020682
0.01181209
0.01181214
0.01181215
0.01181215
0.01181215
0.01181215
0.01181215
0.002083073
0.01181209
0.01181214
0.01181215
0.01181215
0.01181215
0.01181215
0.01181215
0.002086232
0.01181209
0.01181214
0.01181215
0.01181215
0.01181215
0.01181215
0.01181215
0.002086734
0.01181209
0.01181214
0.01181215
0.01181215
0.01181214
0.01181214
0.01181214
0.00208687
0.01181209
0.01181214
0.01181215
0.01181215
0.01181214
0.01181214
0.01181214
0.002086925
0.01181209
0.01181214
0.01181215
0.01181215
0.01181214
0.01181214
0.01181214
0.002086952
0.01181209
0.01181214
0.01181215
0.01181215
0.01181215
0.01181215
0.01181215
0.002086974
0.01181209
0.01181214
0.01181215
0.01181215
0.01181215
0.01181215
0.01181215
0.00208699
0.01181209
0.01181214
0.01181215
0.01181215
0.01181215
0.01181215
0.01181215
0.002087006
0.01181209
0.01181214
0.01181216
0.01181215
0.01181215
0.01181215
0.01181215
0.002087023
0.01181209
0.01181214
0.01181216
0.01181216
0.01181216
0.01181216
0.01181216
0.00208704
0.01181209
0.01181215
0.01181216
0.01181216
0.01181216
0.01181216
0.01181216
0.002087057
0.0118121
0.01181215
0.01181216
0.01181216
0.01181216
0.01181216
0.01181216
0.002087075
0.0118121
0.01181215
0.01181216
0.01181216
0.01181216
0.01181217
0.01181217
0.002087092
0.0118121
0.01181215
0.01181217
0.01181217
0.01181217
0.01181217
0.01181217
0.002087109
0.0118121
0.01181215
0.01181217
0.01181217
0.01181217
0.01181217
0.01181217
0.002087126
0.01181211
0.01181216
0.01181217
0.01181217
0.01181217
0.01181217
0.01181218
0.002087142
0.01181211
0.01181216
0.01181217
0.01181217
0.01181217
0.01181218
0.01181218
0.002087159
0.01181211
0.01181216
0.01181218
0.01181218
0.01181218
0.01181218
0.01181218
0.002087174
0.01181212
0.01181217
0.01181218
0.01181218
0.01181218
0.01181218
0.01181218
0.002087188
0.01181212
0.01181217
0.01181218
0.01181218
0.01181218
0.01181218
0.01181218
0.01181012
0.01181212
0.01181217
0.01181218
0.01181218
0.01181218
0.01181218
0.01181218
0.00205832
0.0009779316
0.0009934752
0.0009991968
0.001000489
0.001000747
0.00100077
0.002057963
0.01181345
0.01181206
0.01181208
0.01181209
0.01181209
0.01181209
0.01181209
0.0009779368
0.01181195
0.01181345
0.01181345
0.01181345
0.01181345
0.01181345
0.01181345
0.0009935094
0.01181197
0.01181345
0.01181345
0.01181345
0.01181345
0.01181345
0.01181345
0.0009992792
0.01181196
0.01181345
0.01181345
0.01181345
0.01181345
0.01181345
0.01181345
0.001000651
0.01181195
0.01181345
0.01181345
0.01181345
0.01181345
0.01181345
0.01181345
0.001001017
0.01181194
0.01181345
0.01181345
0.01181345
0.01181345
0.01181345
0.01181345
0.001001151
0.01181193
0.01181345
0.01181345
0.01181345
0.01181345
0.01181345
0.01181345
0.001001209
0.01181191
0.01181345
0.01181346
0.01181346
0.01181346
0.01181346
0.01181346
0.001001237
0.0118119
0.01181346
0.01181346
0.01181346
0.01181346
0.01181346
0.01181346
0.001001254
0.01181189
0.01181346
0.01181346
0.01181346
0.01181346
0.01181346
0.01181346
0.001001265
0.01181187
0.01181346
0.01181346
0.01181346
0.01181346
0.01181346
0.01181347
0.001001273
0.01181187
0.01181346
0.01181346
0.01181347
0.01181347
0.01181347
0.01181347
0.001001279
0.01181186
0.01181347
0.01181347
0.01181347
0.01181347
0.01181347
0.01181347
0.001001285
0.01181185
0.01181347
0.01181347
0.01181347
0.01181347
0.01181347
0.01181348
0.001001291
0.01181185
0.01181347
0.01181347
0.01181347
0.01181348
0.01181348
0.01181348
0.001001295
0.01181185
0.01181347
0.01181347
0.01181348
0.01181348
0.01181348
0.01181348
0.001001299
0.01181186
0.01181348
0.01181348
0.01181348
0.01181348
0.01181348
0.01181349
0.001001304
0.01181186
0.01181348
0.01181348
0.01181348
0.01181348
0.01181349
0.01181349
0.001001307
0.01181187
0.01181348
0.01181348
0.01181348
0.01181349
0.01181349
0.01181349
0.001001309
0.01181188
0.01181348
0.01181348
0.01181349
0.01181349
0.01181349
0.01181349
0.001001308
0.01181189
0.01181348
0.01181349
0.01181349
0.01181349
0.01181349
0.01181349
0.001001299
0.0118119
0.01181349
0.01181349
0.01181349
0.01181349
0.01181349
0.01181349
0.001001273
0.01181191
0.01181349
0.01181349
0.01181349
0.01181349
0.01181349
0.01181349
0.002071692
0.0009927805
0.00102042
0.001029447
0.001031649
0.001032136
0.001032224
0.002071516
0.01181345
0.01181207
0.01181211
0.01181212
0.01181212
0.01181212
0.01181212
0.0009927899
0.01181197
0.01181345
0.01181345
0.01181345
0.01181345
0.01181345
0.01181345
0.001020469
0.01181201
0.01181345
0.01181345
0.01181345
0.01181345
0.01181345
0.01181345
0.00102956
0.011812
0.01181345
0.01181345
0.01181345
0.01181345
0.01181345
0.01181345
0.00103186
0.01181199
0.01181345
0.01181345
0.01181345
0.01181345
0.01181345
0.01181345
0.001032473
0.01181198
0.01181345
0.01181345
0.01181345
0.01181345
0.01181345
0.01181345
0.001032692
0.01181197
0.01181345
0.01181345
0.01181345
0.01181345
0.01181345
0.01181345
0.00103278
0.01181195
0.01181345
0.01181346
0.01181346
0.01181346
0.01181346
0.01181346
0.001032824
0.01181194
0.01181346
0.01181346
0.01181346
0.01181346
0.01181346
0.01181346
0.001032848
0.01181193
0.01181346
0.01181346
0.01181346
0.01181346
0.01181346
0.01181346
0.001032863
0.01181192
0.01181346
0.01181346
0.01181346
0.01181346
0.01181346
0.01181347
0.001032874
0.01181191
0.01181346
0.01181346
0.01181347
0.01181347
0.01181347
0.01181347
0.001032883
0.0118119
0.01181347
0.01181347
0.01181347
0.01181347
0.01181347
0.01181347
0.001032891
0.0118119
0.01181347
0.01181347
0.01181347
0.01181347
0.01181347
0.01181348
0.001032898
0.0118119
0.01181347
0.01181347
0.01181347
0.01181348
0.01181348
0.01181348
0.001032903
0.0118119
0.01181347
0.01181347
0.01181348
0.01181348
0.01181348
0.01181348
0.001032908
0.0118119
0.01181348
0.01181348
0.01181348
0.01181348
0.01181348
0.01181349
0.001032913
0.01181191
0.01181348
0.01181348
0.01181348
0.01181348
0.01181349
0.01181349
0.001032918
0.01181191
0.01181348
0.01181348
0.01181348
0.01181349
0.01181349
0.01181349
0.001032922
0.01181192
0.01181348
0.01181348
0.01181349
0.01181349
0.01181349
0.01181349
0.00103292
0.01181193
0.01181348
0.01181349
0.01181349
0.01181349
0.01181349
0.01181349
0.001032908
0.01181194
0.01181349
0.01181349
0.01181349
0.01181349
0.01181349
0.01181349
0.001032873
0.01181196
0.01181349
0.01181349
0.01181349
0.01181349
0.01181349
0.01181349
0.00207453
0.0009981024
0.001028884
0.001039822
0.001042481
0.001043078
0.001043194
0.002074272
0.01181345
0.01181208
0.01181212
0.01181213
0.01181213
0.01181213
0.01181213
0.0009981127
0.01181198
0.01181345
0.01181345
0.01181345
0.01181345
0.01181345
0.01181345
0.001028942
0.01181202
0.01181345
0.01181345
0.01181345
0.01181345
0.01181345
0.01181345
0.001039952
0.01181201
0.01181345
0.01181345
0.01181345
0.01181345
0.01181345
0.01181345
0.001042723
0.011812
0.01181345
0.01181345
0.01181345
0.01181345
0.01181345
0.01181345
0.00104346
0.01181199
0.01181345
0.01181345
0.01181345
0.01181345
0.01181345
0.01181345
0.001043721
0.01181198
0.01181345
0.01181345
0.01181345
0.01181345
0.01181345
0.01181345
0.001043828
0.01181196
0.01181345
0.01181346
0.01181346
0.01181346
0.01181346
0.01181346
0.001043879
0.01181195
0.01181346
0.01181346
0.01181346
0.01181346
0.01181346
0.01181346
0.001043906
0.01181194
0.01181346
0.01181346
0.01181346
0.01181346
0.01181346
0.01181346
0.001043923
0.01181193
0.01181346
0.01181346
0.01181346
0.01181346
0.01181346
0.01181347
0.001043934
0.01181192
0.01181346
0.01181346
0.01181347
0.01181347
0.01181347
0.01181347
0.001043944
0.01181191
0.01181347
0.01181347
0.01181347
0.01181347
0.01181347
0.01181347
0.001043954
0.01181191
0.01181347
0.01181347
0.01181347
0.01181347
0.01181347
0.01181348
0.001043962
0.01181191
0.01181347
0.01181347
0.01181347
0.01181348
0.01181348
0.01181348
0.001043967
0.01181191
0.01181347
0.01181347
0.01181348
0.01181348
0.01181348
0.01181348
0.001043973
0.01181191
0.01181348
0.01181348
0.01181348
0.01181348
0.01181348
0.01181349
0.001043978
0.01181192
0.01181348
0.01181348
0.01181348
0.01181348
0.01181349
0.01181349
0.001043984
0.01181192
0.01181348
0.01181348
0.01181348
0.01181349
0.01181349
0.01181349
0.001043989
0.01181193
0.01181348
0.01181348
0.01181349
0.01181349
0.01181349
0.01181349
0.001043989
0.01181194
0.01181348
0.01181349
0.01181349
0.01181349
0.01181349
0.01181349
0.001043975
0.01181195
0.01181349
0.01181349
0.01181349
0.01181349
0.01181349
0.01181349
0.001043934
0.01181197
0.01181349
0.01181349
0.01181349
0.01181349
0.01181349
0.01181349
0.00207487
0.0009980954
0.001028872
0.001039805
0.001042464
0.001043063
0.001043178
0.002074389
0.01181345
0.01181208
0.01181212
0.01181213
0.01181213
0.01181213
0.01181213
0.0009981069
0.01181198
0.01181345
0.01181345
0.01181345
0.01181345
0.01181345
0.01181345
0.001028936
0.01181202
0.01181345
0.01181345
0.01181345
0.01181345
0.01181345
0.01181345
0.001039945
0.01181201
0.01181345
0.01181345
0.01181345
0.01181345
0.01181345
0.01181345
0.001042713
0.011812
0.01181345
0.01181345
0.01181345
0.01181345
0.01181345
0.01181345
0.001043452
0.01181199
0.01181345
0.01181345
0.01181345
0.01181345
0.01181345
0.01181345
0.001043717
0.01181198
0.01181345
0.01181345
0.01181345
0.01181345
0.01181345
0.01181345
0.001043826
0.01181196
0.01181345
0.01181346
0.01181346
0.01181346
0.01181346
0.01181346
0.001043875
0.01181195
0.01181346
0.01181346
0.01181346
0.01181346
0.01181346
0.01181346
0.001043901
0.01181194
0.01181346
0.01181346
0.01181346
0.01181346
0.01181346
0.01181346
0.001043913
0.01181193
0.01181346
0.01181346
0.01181346
0.01181346
0.01181346
0.01181347
0.00104392
0.01181192
0.01181346
0.01181346
0.01181347
0.01181347
0.01181347
0.01181347
0.001043929
0.01181191
0.01181347
0.01181347
0.01181347
0.01181347
0.01181347
0.01181347
0.001043943
0.01181191
0.01181347
0.01181347
0.01181347
0.01181347
0.01181347
0.01181348
0.001043954
0.01181191
0.01181347
0.01181347
0.01181347
0.01181348
0.01181348
0.01181348
0.001043957
0.01181191
0.01181347
0.01181347
0.01181348
0.01181348
0.01181348
0.01181348
0.001043958
0.01181191
0.01181348
0.01181348
0.01181348
0.01181348
0.01181348
0.01181349
0.001043963
0.01181192
0.01181348
0.01181348
0.01181348
0.01181348
0.01181349
0.01181349
0.001043976
0.01181192
0.01181348
0.01181348
0.01181348
0.01181349
0.01181349
0.01181349
0.001043985
0.01181193
0.01181348
0.01181348
0.01181349
0.01181349
0.01181349
0.01181349
0.001043986
0.01181194
0.01181348
0.01181349
0.01181349
0.01181349
0.01181349
0.01181349
0.001043972
0.01181195
0.01181349
0.01181349
0.01181349
0.01181349
0.01181349
0.01181349
0.001043932
0.01181197
0.01181349
0.01181349
0.01181349
0.01181349
0.01181349
0.01181349
0.00207387
0.0009927407
0.001020362
0.001029367
0.001031567
0.001032068
0.001032149
0.00207354
0.01181345
0.01181207
0.01181211
0.01181212
0.01181212
0.01181212
0.01181212
0.000992761
0.01181197
0.01181345
0.01181345
0.01181345
0.01181345
0.01181345
0.01181345
0.001020435
0.01181201
0.01181345
0.01181345
0.01181345
0.01181345
0.01181345
0.01181345
0.001029526
0.011812
0.01181345
0.01181345
0.01181345
0.01181345
0.01181345
0.01181345
0.001031811
0.01181199
0.01181345
0.01181345
0.01181345
0.01181345
0.01181345
0.01181345
0.001032431
0.01181198
0.01181345
0.01181345
0.01181345
0.01181345
0.01181345
0.01181345
0.001032678
0.01181197
0.01181345
0.01181345
0.01181345
0.01181345
0.01181345
0.01181345
0.001032777
0.01181195
0.01181345
0.01181346
0.01181346
0.01181346
0.01181346
0.01181346
0.001032811
0.01181194
0.01181346
0.01181346
0.01181346
0.01181346
0.01181346
0.01181346
0.001032826
0.01181193
0.01181346
0.01181346
0.01181346
0.01181346
0.01181346
0.01181346
0.001032818
0.01181192
0.01181346
0.01181346
0.01181346
0.01181346
0.01181346
0.01181347
0.001032805
0.01181191
0.01181346
0.01181346
0.01181347
0.01181347
0.01181347
0.01181347
0.00103281
0.0118119
0.01181347
0.01181347
0.01181347
0.01181347
0.01181347
0.01181347
0.001032841
0.0118119
0.01181347
0.01181347
0.01181347
0.01181347
0.01181347
0.01181348
0.001032865
0.0118119
0.01181347
0.01181347
0.01181347
0.01181348
0.01181348
0.01181348
0.001032859
0.0118119
0.01181347
0.01181347
0.01181348
0.01181348
0.01181348
0.01181348
0.001032837
0.0118119
0.01181348
0.01181348
0.01181348
0.01181348
0.01181348
0.01181349
0.001032842
0.01181191
0.01181348
0.01181348
0.01181348
0.01181348
0.01181349
0.01181349
0.001032879
0.01181191
0.01181348
0.01181348
0.01181348
0.01181349
0.01181349
0.01181349
0.001032905
0.01181192
0.01181348
0.01181348
0.01181349
0.01181349
0.01181349
0.01181349
0.001032912
0.01181193
0.01181348
0.01181349
0.01181349
0.01181349
0.01181349
0.01181349
0.001032901
0.01181194
0.01181349
0.01181349
0.01181349
0.01181349
0.01181349
0.01181349
0.001032865
0.01181196
0.01181349
0.01181349
0.01181349
0.01181349
0.01181349
0.01181349
0.002065031
0.0009777314
0.0009932877
0.000998868
0.001000157
0.001000527
0.001000455
0.002064895
0.01181345
0.01181206
0.01181208
0.01181208
0.01181208
0.01181208
0.01181208
0.0009777987
0.01181195
0.01181345
0.01181345
0.01181345
0.01181345
0.01181345
0.01181345
0.0009933816
0.01181197
0.01181345
0.01181345
0.01181345
0.01181345
0.01181345
0.01181345
0.0009991799
0.01181196
0.01181345
0.01181345
0.01181345
0.01181345
0.01181345
0.01181345
0.001000462
0.01181195
0.01181345
0.01181345
0.01181345
0.01181345
0.01181345
0.01181345
0.001000902
0.01181194
0.01181345
0.01181345
0.01181345
0.01181345
0.01181345
0.01181345
0.001001133
0.01181193
0.01181345
0.01181345
0.01181345
0.01181345
0.01181345
0.01181345
0.001001306
0.01181191
0.01181345
0.01181346
0.01181346
0.01181346
0.01181346
0.01181346
0.001001227
0.0118119
0.01181346
0.01181346
0.01181346
0.01181346
0.01181346
0.01181346
0.001001211
0.01181189
0.01181346
0.01181346
0.01181346
0.01181346
0.01181346
0.01181346
0.001001136
0.01181188
0.01181346
0.01181346
0.01181346
0.01181346
0.01181346
0.01181347
0.00100095
0.01181187
0.01181346
0.01181346
0.01181347
0.01181347
0.01181347
0.01181347
0.001001017
0.01181186
0.01181347
0.01181347
0.01181347
0.01181347
0.01181347
0.01181347
0.001001117
0.01181185
0.01181347
0.01181347
0.01181347
0.01181347
0.01181347
0.01181348
0.001001217
0.01181185
0.01181347
0.01181347
0.01181347
0.01181348
0.01181348
0.01181348
0.001001167
0.01181185
0.01181347
0.01181347
0.01181348
0.01181348
0.01181348
0.01181348
0.001000988
0.01181186
0.01181348
0.01181348
0.01181348
0.01181348
0.01181348
0.01181349
0.001000993
0.01181186
0.01181348
0.01181348
0.01181348
0.01181348
0.01181349
0.01181349
0.001001188
0.01181187
0.01181348
0.01181348
0.01181348
0.01181349
0.01181349
0.01181349
0.001001277
0.01181188
0.01181348
0.01181348
0.01181349
0.01181349
0.01181349
0.01181349
0.001001294
0.01181189
0.01181348
0.01181349
0.01181349
0.01181349
0.01181349
0.01181349
0.001001284
0.0118119
0.01181349
0.01181349
0.01181349
0.01181349
0.01181349
0.01181349
0.001001251
0.01181191
0.01181349
0.01181349
0.01181349
0.01181349
0.01181349
0.01181349
0.002050767
0.002097416
0.002165091
0.002173214
0.002173003
0.002175736
0.002174545
0.002173
0.002050521
0.01181208
0.0118121
0.0118121
0.0118121
0.0118121
0.0118121
0.0118121
0.002097472
0.01181209
0.01181214
0.01181215
0.01181215
0.01181215
0.01181215
0.01181215
0.002164479
0.01181209
0.01181214
0.01181215
0.01181215
0.01181215
0.01181215
0.01181215
0.002175159
0.01181209
0.01181214
0.01181215
0.01181215
0.01181215
0.01181215
0.01181215
0.002175723
0.01181209
0.01181214
0.01181215
0.01181215
0.01181214
0.01181214
0.01181214
0.00217645
0.0118121
0.01181214
0.01181215
0.01181214
0.01181214
0.01181214
0.01181214
0.002178939
0.01181209
0.01181214
0.01181215
0.01181215
0.01181214
0.01181214
0.01181214
0.002181442
0.01181209
0.01181214
0.01181215
0.01181215
0.01181215
0.01181215
0.01181215
0.002177379
0.01181209
0.01181214
0.01181215
0.01181215
0.01181215
0.01181215
0.01181215
0.002177168
0.01181209
0.01181214
0.01181215
0.01181215
0.01181215
0.01181215
0.01181215
0.002178437
0.0118121
0.01181214
0.01181216
0.01181215
0.01181215
0.01181215
0.01181216
0.002173549
0.01181209
0.01181214
0.01181216
0.01181216
0.01181216
0.01181216
0.01181216
0.002176416
0.01181209
0.01181215
0.01181216
0.01181216
0.01181216
0.01181216
0.01181216
0.002175749
0.0118121
0.01181215
0.01181216
0.01181216
0.01181216
0.01181216
0.01181217
0.002177111
0.0118121
0.01181215
0.01181216
0.01181216
0.01181216
0.01181217
0.01181217
0.002177072
0.0118121
0.01181215
0.01181217
0.01181217
0.01181217
0.01181217
0.01181217
0.002175248
0.0118121
0.01181215
0.01181217
0.01181217
0.01181217
0.01181217
0.01181217
0.002173738
0.01181211
0.01181216
0.01181217
0.01181217
0.01181217
0.01181217
0.01181218
0.0021766
0.01181211
0.01181216
0.01181217
0.01181217
0.01181217
0.01181218
0.01181218
0.002177365
0.01181211
0.01181216
0.01181218
0.01181217
0.01181217
0.01181218
0.01181218
0.002177463
0.01181212
0.01181216
0.01181218
0.01181218
0.01181218
0.01181218
0.01181218
0.002177481
0.01181212
0.01181216
0.01181218
0.01181216
0.01181217
0.01181217
0.01181218
0.002177463
0.01181212
0.01181217
0.01181218
0.01181218
0.01181218
0.01181219
0.01181218
0.004499107
0.004567796
0.004694034
0.00468848
0.004554646
0.004695635
0.004688645
0.004554171
0.004577669
0.0009395615
0.0009601242
0.000966622
0.0009684712
0.0009688471
0.0009686105
0.0009687824
0.004682889
0.0009599849
0.001000908
0.001013776
0.001017191
0.001018072
0.001018218
0.001018215
0.004668132
0.0009666556
0.001013805
0.001030197
0.001034744
0.001035999
0.001036283
0.001036276
0.004701597
0.0009682048
0.001017268
0.001034857
0.001039976
0.001041456
0.001041813
0.001041811
0.004696803
0.0009688766
0.001018349
0.001036332
0.001041696
0.001043292
0.001043686
0.001043686
0.004623316
0.0009694093
0.001018787
0.001036894
0.00104236
0.001044007
0.001044411
0.001044409
0.002108421
0.0009694453
0.001018937
0.001037113
0.001042624
0.001044288
0.001044689
0.001044679
0.004660334
0.0009691866
0.00101894
0.001037189
0.001042725
0.001044393
0.00104478
0.001044755
0.004701578
0.0009689497
0.001018917
0.001037218
0.001042767
0.001044429
0.001044797
0.001044751
0.004703047
0.0009689546
0.001018931
0.00103724
0.001042794
0.00104445
0.001044801
0.001044731
0.004698482
0.0009692179
0.001018997
0.001037273
0.001042826
0.001044485
0.001044831
0.001044742
0.002099435
0.0009695404
0.00101905
0.001037308
0.001042873
0.00104455
0.001044905
0.001044812
0.004657232
0.0009693438
0.001019043
0.001037337
0.001042933
0.001044643
0.001045022
0.001044937
0.004670323
0.0009690779
0.001019013
0.001037363
0.001042995
0.001044745
0.001045163
0.001045095
0.00470293
0.0009689628
0.001018999
0.00103739
0.001043054
0.001044842
0.001045296
0.001045248
0.004703417
0.0009690115
0.001019022
0.001037416
0.001043101
0.001044917
0.001045397
0.001045368
0.004690111
0.0009693366
0.001019079
0.001037438
0.001043128
0.001044959
0.001045458
0.001045442
0.004555893
0.0009693374
0.001019077
0.001037434
0.001043127
0.001044968
0.001045478
0.001045468
0.004697359
0.0009690126
0.001019013
0.001037403
0.001043096
0.001044933
0.001045442
0.001045434
0.004704057
0.0009689456
0.001018953
0.001037329
0.001042999
0.001044818
0.00104532
0.001045314
0.00470429
0.0009689099
0.001018857
0.001037157
0.001042751
0.001044516
0.001044998
0.001044999
0.004704367
0.0009688326
0.00101862
0.001036696
0.001042055
0.001043663
0.001044112
0.001044172
0.004704466
0.0009685993
0.001017841
0.001035108
0.001039686
0.001040829
0.001041232
0.001041599
0.001912384
0.004758172
0.004758185
0.01181076
0.001924165
0.00197866
0.004578032
0.004690448
0.01180806
0.0118081
0.001991363
0.001997953
0.004693155
0.004699621
0.01180829
0.01180818
0.001999338
0.002000027
0.004700485
0.004702235
0.01180836
0.01180819
0.002000217
0.002000286
0.004702346
0.004702606
0.0118084
0.01180819
0.002000313
0.0020003
0.004702628
0.004702683
0.01180844
0.0118082
0.002000264
0.002000183
0.004702663
0.004702567
0.01180846
0.01180822
0.002000061
0.001999918
0.004702466
0.004701967
0.01180846
0.01180825
0.00199984
0.004701738
0.01180845
0.00192416
0.001978659
0.004577755
0.01180826
0.004690419
0.01180835
0.001991364
0.001997956
0.004693145
0.01180847
0.004699627
0.01180844
0.001999345
0.002000038
0.004700494
0.01180849
0.004702258
0.01180845
0.002000236
0.002000321
0.004702372
0.01180849
0.004702659
0.01180844
0.002000369
0.0020004
0.004702693
0.0118085
0.004702813
0.01180843
0.002000416
0.002000435
0.004702832
0.0118085
0.004702901
0.01180842
0.002000441
0.002000454
0.004702916
0.0118085
0.004702978
0.01180841
0.002000459
0.002000469
0.004702982
0.0118085
0.004703062
0.0118084
0.002000472
0.002000482
0.00470307
0.01180851
0.004703149
0.01180839
0.002000485
0.002000494
0.004703152
0.01180851
0.004703235
0.01180837
0.002000498
0.002000507
0.00470324
0.01180851
0.004703329
0.01180836
0.002000512
0.002000521
0.004703334
0.01180852
0.004703429
0.01180834
0.002000526
0.002000535
0.004703433
0.01180852
0.004703532
0.01180833
0.002000541
0.00200055
0.004703537
0.01180849
0.004703638
0.01180832
0.002000555
0.002000565
0.004703644
0.01180844
0.004703744
0.01180831
0.00200057
0.002000579
0.00470375
0.01180838
0.004703852
0.0118083
0.002000585
0.002000594
0.004703857
0.01180831
0.004703958
0.01180828
0.0020006
0.002000609
0.004703964
0.01180825
0.004704063
0.01180827
0.002000614
0.002000623
0.004704069
0.01180818
0.004704169
0.01180826
0.002000628
0.002000635
0.004704175
0.0118081
0.004704271
0.01180825
0.00200064
0.002000647
0.004704274
0.01180803
0.00470437
0.01180824
0.00200065
0.002000655
0.004704371
0.01180795
0.004704464
0.01180823
0.002000656
0.002000655
0.004704465
0.01180787
0.004704542
0.01180822
0.004559949
0.004559658
0.01181348
0.004657111
0.004656662
0.01181348
0.004658771
0.004658334
0.01181348
0.004663568
0.004663796
0.01181348
0.004664271
0.004664506
0.01181348
0.004666711
0.004664949
0.01181348
0.004666071
0.004665695
0.01181348
0.004667103
0.004665068
0.01181348
0.00466704
0.00466511
0.01181348
0.004666987
0.004664851
0.01181348
0.004666291
0.004665312
0.01181348
0.004663338
0.0046654
0.01181348
0.004663454
0.004663893
0.01181348
0.004659919
0.004657408
0.01181348
0.004658757
0.004655713
0.01181348
0.004553393
0.004559788
0.01181348
0.004728319
0.004758322
0.01181077
0.001915228
0.002084734
0.01180807
0.0118054
0.001936995
0.001996264
0.00468727
0.0118083
0.01180817
0.002005278
0.002001272
0.00469523
0.01180836
0.01180819
0.001999552
0.00200022
0.004554626
0.01180839
0.0118082
0.002003423
0.00201345
0.004688807
0.01180846
0.0118082
0.002013474
0.002003509
0.004695552
0.01180846
0.01180822
0.00200046
0.002000382
0.01180848
0.002012963
0.01180847
0.004630731
0.01180845
0.001994249
0.002006306
0.01180849
0.004700156
0.01180845
0.002002243
0.002000228
0.01180849
0.004700446
0.01180844
0.002000214
0.002000327
0.01180849
0.004628363
0.01180845
0.002001208
0.002007123
0.01180852
0.004698923
0.0118084
0.002009121
0.002001543
0.01180851
0.004703034
0.01180839
0.002000538
0.00200047
0.01180851
0.004701493
0.01180838
0.002000471
0.002000543
0.01180851
0.004640488
0.01180838
0.002001516
0.002009001
0.01180582
0.004611631
0.01180838
0.002017566
0.002014849
0.01180852
0.004632176
0.01180836
0.002006912
0.002009198
0.01180848
0.004701516
0.01180832
0.002003459
0.002000739
0.01180844
0.004703578
0.01180831
0.002000545
0.002000544
0.01180838
0.004697125
0.01180831
0.00200055
0.00200077
0.01180835
0.004555879
0.01180834
0.002003789
0.002013763
0.01180825
0.004690301
0.01180824
0.002013768
0.002003814
0.01180816
0.004703855
0.01180826
0.002000807
0.002000603
0.0118081
0.004704268
0.01180825
0.00200061
0.002000614
0.01180802
0.004704359
0.01180824
0.002000617
0.002000627
0.01180795
0.004704456
0.01180823
0.00200063
0.002000625
0.01180788
0.004704547
0.01180821
0.00200061
0.002000603
0.01180474
0.003819464
0.01180193
0.003991298
0.01180198
0.004011628
0.01180236
0.00403103
0.01180246
0.004041739
0.01180239
0.004034082
0.01180245
0.004043086
0.01180241
0.004034117
0.01180243
0.004043171
0.01180242
0.004034129
0.01180241
0.0040432
0.01180244
0.004034135
0.01180239
0.00404319
0.01180247
0.004034053
0.01180237
0.004043059
0.004033782
0.01180236
0.01180207
0.003991283
0.01180206
0.004011614
0.01180246
0.004031032
0.01180249
0.004041741
0.01180247
0.004034086
0.01180243
0.004043092
0.01180246
0.004034131
0.01180235
0.004043188
0.01180244
0.004034159
0.01180226
0.004043238
0.01180242
0.004034206
0.01180217
0.004043279
0.0118024
0.004034252
0.01180208
0.004043319
0.01180238
0.0040343
0.01180197
0.004043362
0.01180235
0.00403435
0.01180185
0.004043406
0.01180233
0.004034405
0.01180173
0.004043454
0.0118023
0.004034464
0.01180158
0.004043504
0.01180227
0.004034526
0.01180143
0.004043557
0.01180224
0.004034591
0.01180125
0.004043613
0.01180221
0.004034659
0.01180107
0.004043672
0.01180217
0.004034729
0.01180088
0.004043732
0.01180214
0.0040348
0.01180068
0.004043793
0.01180211
0.004034872
0.01180048
0.004043853
0.01180208
0.004034942
0.01180028
0.004043914
0.01180205
0.004035013
0.01180008
0.004043973
0.01180202
0.004035081
0.01179988
0.00404403
0.01180199
0.004035147
0.01179969
0.004044086
0.01180197
0.004035211
0.01179949
0.004044138
0.01180194
0.00403527
0.0117993
0.004044187
0.01180856
0.01180854
0.01180856
0.01180855
0.01180856
0.01180855
0.01180856
0.01180855
0.01180856
0.01180855
0.01180856
0.01180855
0.01180856
0.01180855
0.01180856
0.01180855
0.01180886
0.01180855
0.004554271
0.01180845
0.01180826
0.002003266
0.002013055
0.01180826
0.004684852
0.01180835
0.001925163
0.001979092
0.0118085
0.004591562
0.01180844
0.002010567
0.002015827
0.01180577
0.002114165
0.01180553
0.002019529
0.002018231
0.01180196
0.003972376
0.01180187
0.003864471
0.01180208
0.003972176
0.01180203
0.003863047
0.01180884
0.01180854
0.01180228
0.004028206
0.01180215
0.004022012
0.01180237
0.00403383
0.01180213
0.004042425
0.01180237
0.004034067
0.01180208
0.004043137
0.01180237
0.004034127
0.01180203
0.004043177
0.01180238
0.004034139
0.01180198
0.004043197
0.01180239
0.004034089
0.01180196
0.004043171
0.01180241
0.004033853
0.01180196
0.004042987
0.01180242
0.004028205
0.01180236
0.004022007
0.01180252
0.004033832
0.0118024
0.004042426
0.01180251
0.004034078
0.01180237
0.004043145
0.01180251
0.004034152
0.01180233
0.004043195
0.0118025
0.004034199
0.01180229
0.004043241
0.0118025
0.004034244
0.01180225
0.00404328
0.01180249
0.004034292
0.0118022
0.004043321
0.01180248
0.004034341
0.01180214
0.004043363
0.01180247
0.004034394
0.01180208
0.004043407
0.01180246
0.004034452
0.01180202
0.004043456
0.01180246
0.004034512
0.01180195
0.004043506
0.01180245
0.004034576
0.01180188
0.00404356
0.01180244
0.004034644
0.01180181
0.004043616
0.01180243
0.004034713
0.01180174
0.004043674
0.01180242
0.004034783
0.01180168
0.004043734
0.01180241
0.004034855
0.01180161
0.004043795
0.0118024
0.004034926
0.01180154
0.004043855
0.01180239
0.004034995
0.01180146
0.004043915
0.01180238
0.004035064
0.0118014
0.004043974
0.01180237
0.004035129
0.01180133
0.004044031
0.01180236
0.004035192
0.01180127
0.004044086
0.01180235
0.004035252
0.01180122
0.004044138
0.01180234
0.004035316
0.004044188
0.01180123
0.01180855
0.01180854
0.01180855
0.01180854
0.01180855
0.01180854
0.01180855
0.01180854
0.01180855
0.01180854
0.01180855
0.01180854
0.01180855
0.01180854
0.01180855
0.01180853
0.01180473
0.003817569
0.01180209
0.003971777
0.01180204
0.003863322
0.01180029
0.006325394
0.004044581
0.005886494
0.01180096
0.004084552
0.01179631
0.005788246
0.004107393
0.005787029
0.01179618
0.004100754
0.01180137
0.005889409
0.004104996