/*--------------------------------*- C++ -*----------------------------------*\
  =========                 |
  \\      /  F ield         | OpenFOAM: The Open Source CFD Toolbox
   \\    /   O peration     | Website:  https://openfoam.org
    \\  /    A nd           | Version:  7
     \\/     M anipulation  |
\*---------------------------------------------------------------------------*/
FoamFile
{
    version     2.0;
    format      ascii;
    class       volScalarField;
    location    "0.03";
    object      k;
}
// * * * * * * * * * * * * * * * * * * * * * * * * * * * * * * * * * * * * * //

dimensions      [0 2 -2 0 0 0 0];

internalField   nonuniform List<scalar> 
109978
(
0.003733069
0.003732838
0.003733034
0.003733276
0.003733532
0.003733786
0.003732819
0.003732125
0.003732254
0.00373248
0.003732729
0.003732985
0.003733016
0.003732253
0.003732337
0.003732532
0.003732762
0.00373301
0.00373326
0.00373248
0.003732533
0.003732703
0.00373291
0.00373314
0.003733519
0.003732729
0.003732762
0.003732908
0.003733096
0.003733308
0.003733773
0.003732982
0.003733005
0.003733133
0.003733302
0.003733498
0.003734026
0.003733239
0.00373326
0.003733372
0.003733525
0.003733705
0.003734282
0.003733507
0.003733522
0.003733622
0.00373376
0.003733926
0.003734543
0.003733782
0.003733789
0.003733879
0.003734005
0.003734159
0.003734806
0.003734062
0.003734057
0.003734143
0.003734259
0.003734401
0.003735074
0.003734347
0.003734333
0.003734412
0.00373452
0.003734652
0.003735344
0.003734634
0.003734611
0.003734687
0.003734786
0.003734911
0.003735616
0.003734925
0.003734892
0.003734966
0.003735059
0.003735175
0.003735891
0.003735219
0.003735178
0.003735248
0.003735337
0.003735446
0.003736168
0.003735517
0.003735469
0.003735539
0.003735619
0.003735723
0.003736446
0.003735819
0.003735765
0.003735827
0.003735906
0.003736004
0.003736727
0.003736123
0.003736069
0.003736118
0.003736199
0.003736291
0.00373701
0.003736431
0.003736375
0.003736416
0.003736501
0.003736583
0.003737297
0.003736742
0.003736686
0.003736719
0.003736803
0.00373688
0.003737587
0.003737055
0.003737
0.003737027
0.003737103
0.003737182
0.003737881
0.003737373
0.003737321
0.00373734
0.003737408
0.00373749
0.003738178
0.003737697
0.003737648
0.00373766
0.003737722
0.003737814
0.003641638
0.003738029
0.003737984
0.003737987
0.003738045
0.003738137
0.003731322
0.003731592
0.003731873
0.00373215
0.003732428
0.003732707
0.003731365
0.00364121
0.003641213
0.003641217
0.003641221
0.003641224
0.003731611
0.003641216
0.003641218
0.003641222
0.003641226
0.00364123
0.003731892
0.003641222
0.003641224
0.003641227
0.003641231
0.003641235
0.003732172
0.003641227
0.003641229
0.003641233
0.003641237
0.003641241
0.003732454
0.003641233
0.003641235
0.003641239
0.003641243
0.003641246
0.003732739
0.003641239
0.003641241
0.003641245
0.003641248
0.003641252
0.003733023
0.003641245
0.003641247
0.003641251
0.003641254
0.003641258
0.003733307
0.003641251
0.003641253
0.003641257
0.00364126
0.003641264
0.003733591
0.003641257
0.003641259
0.003641262
0.003641266
0.00364127
0.003733875
0.003641263
0.003641265
0.003641269
0.003641272
0.003641276
0.003734163
0.003641269
0.003641271
0.003641275
0.003641278
0.003641282
0.003734453
0.003641275
0.003641277
0.003641281
0.003641285
0.003641288
0.003734746
0.003641281
0.003641283
0.003641287
0.003641291
0.003641295
0.00373504
0.003641288
0.003641289
0.003641293
0.003641297
0.003641301
0.003735338
0.003641294
0.003641296
0.0036413
0.003641303
0.003641307
0.003735638
0.003641301
0.003641302
0.003641306
0.00364131
0.003641314
0.003735941
0.003641307
0.003641309
0.003641313
0.003641316
0.00364132
0.003736247
0.003641314
0.003641315
0.003641319
0.003641323
0.003641327
0.003736557
0.003641321
0.003641322
0.003641326
0.00364133
0.003641334
0.003736869
0.003641328
0.003641328
0.003641333
0.003641337
0.003641341
0.003737186
0.003641335
0.003641335
0.00364134
0.003641344
0.003641348
0.003737505
0.003641342
0.003641342
0.003641346
0.003641351
0.003641355
0.003737978
0.003641348
0.003641349
0.003641353
0.003641358
0.003641362
0.003731367
0.003731627
0.003731915
0.0037322
0.003732484
0.003732766
0.003731408
0.00364121
0.003641212
0.003641216
0.00364122
0.003641223
0.003731644
0.003641215
0.003641217
0.003641221
0.003641225
0.003641229
0.003731931
0.003641221
0.003641223
0.003641227
0.00364123
0.003641234
0.003732218
0.003641226
0.003641228
0.003641232
0.003641236
0.00364124
0.003732504
0.003641232
0.003641234
0.003641238
0.003641242
0.003641245
0.003732792
0.003641238
0.00364124
0.003641244
0.003641247
0.003641251
0.003733079
0.003641244
0.003641245
0.003641249
0.003641253
0.003641257
0.003733366
0.003641249
0.003641251
0.003641255
0.003641259
0.003641262
0.003733655
0.003641255
0.003641257
0.003641261
0.003641264
0.003641268
0.003733944
0.003641261
0.003641263
0.003641267
0.00364127
0.003641274
0.003734236
0.003641267
0.003641269
0.003641273
0.003641276
0.00364128
0.00373453
0.003641273
0.003641275
0.003641279
0.003641282
0.003641286
0.003734827
0.003641279
0.003641281
0.003641285
0.003641288
0.003641292
0.003735127
0.003641285
0.003641287
0.003641291
0.003641295
0.003641298
0.00373543
0.003641291
0.003641293
0.003641297
0.003641301
0.003641305
0.003735735
0.003641297
0.003641299
0.003641303
0.003641307
0.003641311
0.003736043
0.003641304
0.003641306
0.00364131
0.003641313
0.003641317
0.003736353
0.00364131
0.003641312
0.003641316
0.00364132
0.003641324
0.003736668
0.003641317
0.003641318
0.003641323
0.003641326
0.00364133
0.003736985
0.003641323
0.003641325
0.003641329
0.003641333
0.003641337
0.003737306
0.00364133
0.003641332
0.003641336
0.00364134
0.003641344
0.00373763
0.003641337
0.003641338
0.003641343
0.003641347
0.003641351
0.003737959
0.003641344
0.003641345
0.003641349
0.003641354
0.003641358
0.00373137
0.003731633
0.003731923
0.003732209
0.003732492
0.003732775
0.003731411
0.00364121
0.003641212
0.003641216
0.003641219
0.003641223
0.00373165
0.003641215
0.003641217
0.003641221
0.003641225
0.003641229
0.003731939
0.003641221
0.003641223
0.003641227
0.00364123
0.003641234
0.003732226
0.003641226
0.003641228
0.003641232
0.003641236
0.00364124
0.003732513
0.003641232
0.003641234
0.003641238
0.003641242
0.003641245
0.003732802
0.003641238
0.00364124
0.003641244
0.003641247
0.003641251
0.003733091
0.003641243
0.003641245
0.003641249
0.003641253
0.003641257
0.003733381
0.003641249
0.003641251
0.003641255
0.003641259
0.003641262
0.00373367
0.003641255
0.003641257
0.003641261
0.003641265
0.003641268
0.00373396
0.003641261
0.003641263
0.003641267
0.00364127
0.003641274
0.003734251
0.003641267
0.003641269
0.003641273
0.003641276
0.00364128
0.003734546
0.003641273
0.003641275
0.003641279
0.003641282
0.003641286
0.003734844
0.003641279
0.003641281
0.003641285
0.003641288
0.003641292
0.003735145
0.003641285
0.003641287
0.003641291
0.003641295
0.003641298
0.003735447
0.003641291
0.003641293
0.003641297
0.003641301
0.003641305
0.003735753
0.003641297
0.003641299
0.003641303
0.003641307
0.003641311
0.003736062
0.003641303
0.003641306
0.00364131
0.003641313
0.003641317
0.003736373
0.00364131
0.003641312
0.003641316
0.00364132
0.003641324
0.003736688
0.003641316
0.003641318
0.003641323
0.003641327
0.00364133
0.003737006
0.003641323
0.003641325
0.003641329
0.003641333
0.003641337
0.003737328
0.00364133
0.003641332
0.003641336
0.00364134
0.003641344
0.003737653
0.003641337
0.003641338
0.003641343
0.003641347
0.003641351
0.00373798
0.003641343
0.003641345
0.003641349
0.003641354
0.003641358
0.003731372
0.003731634
0.003731925
0.003732211
0.003732493
0.003732776
0.003731412
0.00364121
0.003641212
0.003641216
0.003641219
0.003641223
0.003731651
0.003641215
0.003641217
0.003641221
0.003641225
0.003641229
0.003731941
0.003641221
0.003641223
0.003641227
0.00364123
0.003641234
0.003732229
0.003641226
0.003641228
0.003641232
0.003641236
0.00364124
0.003732515
0.003641232
0.003641234
0.003641238
0.003641242
0.003641245
0.003732804
0.003641238
0.00364124
0.003641243
0.003641247
0.003641251
0.003733093
0.003641243
0.003641245
0.003641249
0.003641253
0.003641257
0.003733383
0.003641249
0.003641251
0.003641255
0.003641259
0.003641262
0.003733673
0.003641255
0.003641257
0.003641261
0.003641265
0.003641268
0.003733962
0.003641261
0.003641263
0.003641267
0.00364127
0.003641274
0.003734253
0.003641267
0.003641269
0.003641273
0.003641276
0.00364128
0.003734548
0.003641273
0.003641275
0.003641279
0.003641282
0.003641286
0.003734846
0.003641279
0.003641281
0.003641285
0.003641288
0.003641292
0.003735146
0.003641285
0.003641287
0.003641291
0.003641295
0.003641298
0.003735449
0.003641291
0.003641293
0.003641297
0.003641301
0.003641305
0.003735754
0.003641297
0.003641299
0.003641303
0.003641307
0.003641311
0.003736062
0.003641303
0.003641306
0.00364131
0.003641313
0.003641317
0.003736373
0.00364131
0.003641312
0.003641316
0.00364132
0.003641324
0.003736688
0.003641316
0.003641318
0.003641322
0.003641326
0.00364133
0.003737006
0.003641323
0.003641325
0.003641329
0.003641333
0.003641337
0.003737327
0.00364133
0.003641332
0.003641336
0.00364134
0.003641344
0.003737651
0.003641336
0.003641338
0.003641342
0.003641347
0.003641351
0.003738148
0.003641343
0.003641345
0.003641349
0.003641354
0.003641358
0.003731372
0.003731634
0.003731925
0.003732211
0.003732493
0.003732776
0.003731413
0.00364121
0.003641212
0.003641216
0.003641219
0.003641223
0.003731651
0.003641215
0.003641217
0.003641221
0.003641225
0.003641229
0.003731941
0.003641221
0.003641223
0.003641227
0.00364123
0.003641234
0.003732229
0.003641226
0.003641228
0.003641232
0.003641236
0.00364124
0.003732515
0.003641232
0.003641234
0.003641238
0.003641242
0.003641245
0.003732804
0.003641238
0.00364124
0.003641244
0.003641247
0.003641251
0.003733093
0.003641243
0.003641245
0.003641249
0.003641253
0.003641257
0.003733383
0.003641249
0.003641251
0.003641255
0.003641259
0.003641262
0.003733673
0.003641255
0.003641257
0.003641261
0.003641265
0.003641268
0.003733962
0.003641261
0.003641263
0.003641267
0.00364127
0.003641274
0.003734252
0.003641267
0.003641269
0.003641273
0.003641276
0.00364128
0.003734547
0.003641273
0.003641275
0.003641279
0.003641282
0.003641286
0.003734845
0.003641279
0.003641281
0.003641285
0.003641288
0.003641292
0.003735146
0.003641285
0.003641287
0.003641291
0.003641295
0.003641298
0.003735449
0.003641291
0.003641293
0.003641297
0.003641301
0.003641305
0.003735754
0.003641297
0.003641299
0.003641303
0.003641307
0.003641311
0.003736062
0.003641303
0.003641306
0.00364131
0.003641314
0.003641317
0.003736373
0.00364131
0.003641312
0.003641316
0.00364132
0.003641324
0.003736688
0.003641316
0.003641318
0.003641322
0.003641327
0.00364133
0.003737005
0.003641323
0.003641325
0.003641329
0.003641333
0.003641337
0.003737326
0.00364133
0.003641332
0.003641336
0.00364134
0.003641344
0.00373765
0.003641337
0.003641338
0.003641343
0.003641347
0.003641351
0.003738148
0.003641343
0.003641345
0.003641349
0.003641354
0.003641358
0.003731372
0.003731634
0.003731924
0.00373221
0.003732492
0.003732775
0.003731413
0.00364121
0.003641212
0.003641216
0.003641219
0.003641223
0.003731651
0.003641215
0.003641217
0.003641221
0.003641225
0.003641229
0.003731941
0.003641221
0.003641223
0.003641227
0.00364123
0.003641234
0.003732228
0.003641226
0.003641229
0.003641232
0.003641236
0.00364124
0.003732514
0.003641232
0.003641234
0.003641238
0.003641242
0.003641245
0.003732803
0.003641238
0.00364124
0.003641244
0.003641247
0.003641251
0.003733092
0.003641243
0.003641246
0.003641249
0.003641253
0.003641257
0.003733382
0.003641249
0.003641251
0.003641255
0.003641259
0.003641262
0.003733672
0.003641255
0.003641257
0.003641261
0.003641265
0.003641268
0.003733962
0.003641261
0.003641263
0.003641267
0.00364127
0.003641274
0.003734252
0.003641267
0.003641269
0.003641273
0.003641276
0.00364128
0.003734548
0.003641273
0.003641275
0.003641279
0.003641282
0.003641286
0.003734846
0.003641279
0.003641281
0.003641285
0.003641288
0.003641292
0.003735147
0.003641285
0.003641287
0.003641291
0.003641295
0.003641298
0.00373545
0.003641291
0.003641293
0.003641297
0.003641301
0.003641305
0.003735755
0.003641297
0.003641299
0.003641303
0.003641307
0.003641311
0.003736064
0.003641304
0.003641306
0.00364131
0.003641314
0.003641317
0.003736375
0.00364131
0.003641312
0.003641316
0.00364132
0.003641324
0.00373669
0.003641316
0.003641319
0.003641323
0.003641327
0.003641331
0.003737007
0.003641323
0.003641325
0.003641329
0.003641333
0.003641337
0.003737329
0.00364133
0.003641332
0.003641336
0.00364134
0.003641344
0.003737653
0.003641337
0.003641338
0.003641343
0.003641347
0.003641351
0.003738148
0.003641343
0.003641345
0.003641349
0.003641354
0.003641358
0.00373137
0.003731629
0.003731917
0.003732203
0.003732487
0.003732771
0.00373141
0.00364121
0.003641212
0.003641216
0.00364122
0.003641223
0.003731645
0.003641215
0.003641217
0.003641221
0.003641225
0.003641229
0.003731933
0.003641221
0.003641223
0.003641227
0.00364123
0.003641234
0.003732221
0.003641226
0.003641229
0.003641232
0.003641236
0.00364124
0.003732508
0.003641232
0.003641234
0.003641238
0.003641242
0.003641245
0.003732798
0.003641238
0.00364124
0.003641244
0.003641247
0.003641251
0.003733087
0.003641244
0.003641245
0.003641249
0.003641253
0.003641257
0.003733376
0.003641249
0.003641251
0.003641255
0.003641259
0.003641262
0.003733665
0.003641255
0.003641257
0.003641261
0.003641265
0.003641268
0.003733955
0.003641261
0.003641263
0.003641267
0.00364127
0.003641274
0.003734247
0.003641267
0.003641269
0.003641273
0.003641276
0.00364128
0.003734543
0.003641273
0.003641275
0.003641279
0.003641282
0.003641286
0.003734841
0.003641279
0.003641281
0.003641285
0.003641288
0.003641292
0.003735142
0.003641285
0.003641287
0.003641291
0.003641295
0.003641298
0.003735445
0.003641291
0.003641293
0.003641297
0.003641301
0.003641305
0.003735751
0.003641297
0.003641299
0.003641303
0.003641307
0.003641311
0.003736059
0.003641304
0.003641306
0.00364131
0.003641314
0.003641317
0.003736371
0.00364131
0.003641312
0.003641316
0.00364132
0.003641324
0.003736686
0.003641317
0.003641318
0.003641323
0.003641327
0.003641331
0.003737004
0.003641323
0.003641325
0.003641329
0.003641333
0.003641337
0.003737326
0.00364133
0.003641332
0.003641336
0.00364134
0.003641344
0.003737651
0.003641337
0.003641338
0.003641343
0.003641347
0.003641351
0.00373816
0.003641344
0.003641345
0.003641349
0.003641354
0.003641358
0.003731382
0.003731651
0.003731935
0.003732216
0.003732496
0.003732774
0.003731423
0.00364121
0.003641212
0.003641216
0.00364122
0.003641224
0.003731667
0.003641216
0.003641218
0.003641222
0.003641226
0.003641229
0.00373195
0.003641222
0.003641223
0.003641227
0.003641231
0.003641235
0.003732233
0.003641227
0.003641229
0.003641233
0.003641237
0.003641241
0.003732516
0.003641233
0.003641235
0.003641239
0.003641242
0.003641246
0.003732799
0.003641239
0.003641241
0.003641245
0.003641248
0.003641252
0.003733081
0.003641245
0.003641247
0.00364125
0.003641254
0.003641258
0.003733364
0.003641251
0.003641253
0.003641256
0.00364126
0.003641264
0.003733649
0.003641257
0.003641259
0.003641262
0.003641266
0.00364127
0.003733937
0.003641263
0.003641265
0.003641268
0.003641272
0.003641276
0.003734228
0.003641269
0.003641271
0.003641275
0.003641278
0.003641282
0.00373452
0.003641275
0.003641277
0.003641281
0.003641284
0.003641288
0.003734813
0.003641281
0.003641283
0.003641287
0.003641291
0.003641294
0.003735109
0.003641288
0.003641289
0.003641293
0.003641297
0.003641301
0.003735409
0.003641294
0.003641296
0.0036413
0.003641303
0.003641307
0.00373571
0.003641301
0.003641302
0.003641306
0.00364131
0.003641314
0.003736015
0.003641307
0.003641308
0.003641313
0.003641316
0.00364132
0.003736322
0.003641314
0.003641315
0.003641319
0.003641323
0.003641327
0.003736633
0.003641321
0.003641322
0.003641326
0.00364133
0.003641334
0.003736948
0.003641328
0.003641328
0.003641333
0.003641337
0.003641341
0.003737265
0.003641335
0.003641335
0.003641339
0.003641343
0.003641348
0.003737586
0.003641342
0.003641342
0.003641346
0.00364135
0.003641355
0.00373814
0.003641349
0.003641349
0.003641353
0.003641357
0.003641361
0.003697892
0.003698478
0.003699603
0.003700714
0.003701811
0.003702907
0.003697911
0.003641258
0.003641271
0.003641286
0.003641301
0.003641315
0.003641331
0.003698504
0.003641269
0.003641279
0.003641295
0.003641309
0.003641323
0.003641336
0.003699638
0.003641281
0.003641291
0.003641302
0.003641316
0.00364133
0.003641343
0.003700765
0.003641293
0.003641303
0.003641314
0.003641324
0.003641339
0.003641352
0.00370188
0.003641304
0.003641315
0.003641325
0.003641336
0.003641347
0.003641361
0.003703003
0.003641316
0.003641326
0.003641337
0.003641348
0.003641358
0.003641369
0.003704119
0.003641328
0.003641338
0.003641349
0.00364136
0.00364137
0.003641381
0.003705231
0.00364134
0.00364135
0.003641361
0.003641372
0.003641382
0.003641393
0.00370634
0.003641352
0.003641362
0.003641373
0.003641384
0.003641394
0.003641405
0.003707444
0.003641364
0.003641375
0.003641385
0.003641396
0.003641406
0.003641418
0.003708562
0.003641377
0.003641387
0.003641397
0.003641408
0.003641419
0.00364143
0.003709695
0.003641389
0.0036414
0.00364141
0.003641421
0.003641431
0.003641443
0.003710835
0.003641401
0.003641412
0.003641423
0.003641433
0.003641444
0.003641456
0.003711979
0.003641414
0.003641425
0.003641435
0.003641446
0.003641457
0.003641469
0.003713138
0.003641427
0.003641438
0.003641448
0.003641459
0.003641469
0.003641482
0.003714307
0.003641439
0.003641451
0.003641462
0.003641472
0.003641483
0.003641495
0.003715485
0.003641452
0.003641465
0.003641475
0.003641486
0.003641496
0.003641509
0.003716672
0.003641465
0.003641478
0.003641488
0.003641499
0.003641509
0.003641522
0.003717874
0.003641479
0.003641492
0.003641502
0.003641513
0.003641523
0.003641536
0.00371908
0.003641492
0.003641506
0.003641516
0.003641527
0.003641537
0.00364155
0.0037203
0.003641506
0.00364152
0.00364153
0.003641541
0.003641551
0.003641565
0.003721531
0.00364152
0.003641535
0.003641545
0.003641556
0.003641566
0.00364158
0.003722773
0.003641638
0.003641626
0.00364164
0.003641655
0.003641672
0.003641687
0.003713638
0.003691258
0.003691277
0.003641214
0.003713843
0.003713157
0.003697886
0.003698302
0.003641217
0.003641223
0.003713011
0.003713774
0.003698467
0.003699369
0.003641225
0.003641232
0.003713629
0.003714446
0.00369959
0.00370043
0.003641233
0.00364124
0.003714312
0.003715128
0.003700697
0.003701502
0.003641241
0.003641249
0.003715006
0.003715818
0.00370179
0.003702576
0.003641249
0.003641258
0.003715709
0.003702883
0.003641258
0.003713833
0.003713146
0.003697908
0.00364122
0.003698291
0.003641227
0.003713004
0.003713768
0.003698501
0.003641231
0.003699358
0.00364124
0.003713626
0.003714449
0.003699633
0.003641243
0.003700425
0.003641252
0.003714313
0.003715142
0.00370076
0.003641254
0.003701511
0.003641264
0.003715018
0.003715848
0.003701877
0.003641266
0.003702606
0.003641277
0.00371573
0.003716564
0.003702999
0.003641278
0.003703712
0.003641289
0.003716452
0.003717288
0.003704115
0.003641291
0.003704825
0.003641302
0.003717186
0.003718011
0.00370523
0.003641303
0.003705943
0.003641315
0.003717904
0.003718723
0.003706337
0.003641316
0.003707064
0.003641328
0.003718618
0.003719443
0.003707442
0.003641329
0.003708182
0.003641342
0.003719332
0.00372017
0.00370856
0.003641342
0.003709313
0.003641355
0.003720052
0.003720904
0.003709693
0.003641355
0.003710451
0.003641369
0.003720773
0.003721642
0.00371083
0.003641368
0.003711595
0.003641383
0.003721503
0.00372239
0.003711975
0.003641382
0.003712746
0.003641397
0.003722239
0.003723148
0.003713134
0.003641396
0.003713909
0.003641411
0.003722982
0.003723913
0.003714302
0.00364141
0.003715084
0.003641426
0.003723731
0.003724685
0.003715479
0.003641424
0.003716272
0.00364144
0.003724488
0.003725464
0.003716667
0.003641438
0.003717472
0.003641455
0.003725252
0.003726252
0.003717866
0.003641453
0.003718684
0.00364147
0.003726024
0.003727047
0.003719074
0.003641467
0.003719908
0.003641486
0.003726802
0.003727852
0.003720292
0.003641482
0.003721146
0.003641501
0.00372759
0.003728667
0.003721523
0.003641498
0.003722398
0.003641517
0.003728393
0.003642203
0.003722773
0.003641513
0.003723668
0.003641531
0.003697823
0.003697873
0.003641213
0.003697266
0.00369732
0.003641213
0.003697261
0.003697312
0.003641212
0.003697256
0.003697313
0.003641212
0.003697253
0.003697307
0.003641212
0.003697254
0.003697313
0.003641212
0.003697253
0.003697306
0.003641212
0.003697253
0.003697313
0.003641212
0.003697251
0.003697309
0.003641212
0.003697253
0.003697312
0.003641212
0.003697253
0.003697309
0.003641212
0.003697259
0.003697309
0.003641212
0.003697255
0.003697309
0.003641212
0.003697259
0.003697319
0.003641212
0.00369726
0.00369732
0.003641213
0.003697824
0.003697878
0.003641213
0.003691251
0.003691271
0.003641214
0.003713638
0.0036983
0.003641214
0.003641223
0.003713846
0.003713157
0.003699367
0.003641222
0.003641232
0.003713011
0.003713774
0.0037015
0.003641252
0.003641249
0.003714324
0.003715128
0.003702575
0.003641246
0.003641258
0.003715007
0.003715818
0.003641255
0.00371571
0.00364122
0.003698283
0.003641227
0.003713834
0.003713146
0.003641231
0.003699346
0.00364124
0.003713004
0.003713767
0.003641254
0.00370149
0.003641264
0.003714316
0.003715141
0.003641278
0.003703683
0.003641289
0.003715733
0.003716562
0.00364129
0.003704793
0.003641302
0.003716453
0.003717287
0.003641303
0.003705914
0.003641315
0.003717185
0.003718011
0.003641315
0.003707028
0.003641328
0.003717905
0.003718723
0.003641328
0.003708147
0.003641342
0.003718617
0.003719443
0.003641341
0.003709274
0.003641355
0.003719333
0.003720171
0.003641354
0.003710412
0.003641369
0.003720052
0.003720904
0.003641368
0.00371155
0.003641383
0.003720775
0.003721642
0.003641381
0.003712702
0.003641397
0.003721505
0.003722391
0.003641395
0.003713865
0.003641411
0.003722241
0.003723149
0.003641424
0.003716226
0.00364144
0.003723736
0.003724686
0.003641438
0.003717426
0.003641455
0.003724491
0.003725464
0.003641452
0.003718635
0.00364147
0.003725256
0.003726252
0.003641467
0.003719861
0.003641486
0.003726027
0.003727048
0.003641498
0.003722347
0.003641517
0.003727596
0.003728666
0.003641513
0.003723669
0.003641533
0.003728393
0.003642277
0.003641284
0.003673983
0.003641294
0.003673504
0.003641271
0.00367422
0.00364132
0.003675057
0.003641289
0.003675826
0.003641349
0.003676852
0.00364131
0.003677489
0.003641379
0.003678588
0.00364133
0.003679121
0.00364141
0.003680295
0.003641352
0.003680758
0.003641442
0.003681988
0.003641374
0.003682402
0.003641474
0.003683669
0.003641397
0.003684052
0.003641507
0.00368536
0.00364142
0.003685714
0.003641541
0.003687055
0.003641444
0.003687383
0.003641577
0.003688764
0.003641469
0.003689062
0.003641614
0.003690472
0.003641495
0.003690753
0.003641651
0.003692184
0.003641521
0.003692456
0.00364169
0.003693903
0.003641548
0.003694174
0.003641728
0.003695634
0.003641575
0.003695904
0.003641767
0.003697372
0.003641603
0.003697653
0.003641806
0.003699123
0.003641632
0.003699415
0.003641846
0.003700883
0.003641662
0.003701195
0.003641887
0.003702661
0.003641692
0.003702989
0.003641929
0.00370445
0.003641722
0.003704804
0.003641971
0.003706256
0.003641754
0.003706632
0.003642014
0.003708071
0.003641786
0.003708477
0.003642058
0.0037099
0.003641819
0.003710338
0.003642105
0.003711742
0.003641852
0.003712221
0.003641284
0.003641282
0.003641284
0.003641283
0.003641284
0.003641283
0.003641284
0.003641283
0.003641284
0.003641283
0.003641284
0.003641283
0.003641284
0.003641283
0.003641284
0.003641283
0.003641282
0.003641281
0.003700429
0.00364123
0.00364124
0.00371363
0.003714445
0.003641242
0.00370041
0.003641238
0.003713627
0.003714436
0.003641266
0.003702584
0.003641256
0.003715019
0.003715831
0.003641409
0.003715038
0.003641368
0.003722985
0.003723878
0.003641482
0.003721097
0.003641425
0.003726806
0.003727812
0.003641266
0.003673662
0.00364127
0.00367538
0.003641281
0.003641279
0.003641293
0.003675084
0.003641294
0.003674146
0.003641319
0.003676787
0.003641317
0.003675789
0.003641346
0.003678482
0.003641341
0.003677531
0.003641373
0.00368017
0.003641366
0.003679223
0.003641401
0.003681843
0.003641392
0.003680887
0.00364143
0.003683513
0.003641419
0.003682564
0.003641459
0.003685197
0.003641447
0.003684234
0.003641489
0.003686883
0.003641476
0.003685898
0.003641519
0.003688591
0.003641505
0.003687558
0.00364155
0.003690309
0.003641536
0.003689231
0.003641582
0.003692036
0.003641567
0.003690909
0.003641614
0.003693776
0.003641599
0.003692595
0.003641647
0.003695531
0.003641632
0.003694284
0.003641681
0.0036973
0.003641665
0.003695991
0.003641715
0.003699085
0.003641699
0.003697707
0.00364175
0.003700884
0.003641733
0.00369944
0.003641786
0.003702702
0.003641769
0.003701183
0.003641822
0.003704537
0.003641805
0.003702943
0.003641859
0.00370639
0.003641841
0.003704713
0.003641897
0.00370826
0.003641879
0.003706502
0.003641936
0.003710149
0.003641917
0.003708299
0.003641975
0.003712052
0.003641956
0.003710116
0.003642017
0.003643436
0.003711949
0.003642161
0.003641282
0.003641281
0.003641283
0.003641281
0.003641283
0.003641281
0.003641283
0.003641281
0.003641283
0.003641281
0.003641283
0.003641281
0.003641283
0.003641281
0.003641282
0.00364128
0.003641283
0.003673983
0.003641257
0.003673719
0.003641266
0.003675392
0.003641365
0.003678553
0.003641358
0.003679159
0.003641344
0.003680254
0.003641353
0.003679123
0.003641294
0.003673512
0.003641271
0.003674221
0.003641293
0.003675113
0.003641309
0.003674147
0.00364132
0.003675049
0.003641288
0.003675824
0.003641319
0.003676826
0.003641339
0.003675791
0.003641375
0.003680229
0.003641401
0.003679232
0.003641442
0.003681988
0.003641374
0.003682402
0.00364143
0.003683588
0.003641468
0.003682564
0.003641474
0.003683663
0.003641395
0.00368405
0.003641459
0.003685279
0.003641502
0.003684232
0.003641507
0.003685351
0.003641419
0.003685713
0.003641489
0.003686973
0.003641537
0.003685895
0.003641541
0.003687047
0.003641443
0.00368738
0.00364152
0.003688689
0.003641574
0.003687557
0.003641577
0.003688754
0.003641468
0.00368906
0.003641551
0.003690412
0.003641611
0.003689228
0.003641614
0.003690466
0.003641493
0.003690751
0.003641651
0.003692184
0.003641521
0.003692456
0.003641615
0.003693891
0.003641688
0.003692594
0.003641689
0.003693899
0.003641546
0.003694171
0.003641648
0.00369565
0.003641728
0.003694286
0.003641789
0.003702837
0.003641893
0.00370119
0.003641887
0.003702657
0.00364169
0.003702991
0.003641824
0.003704675
0.003641936
0.003702945
0.003642058
0.003709906
0.003641819
0.003710338
0.003641977
0.00371219
0.003642117
0.003710121
0.003642104
0.003711742
0.003641851
0.003712218
0.003642017
0.003714113
0.003711953
0.003642167
0.003724034
0.003641953
0.003724036
0.003641529
0.003641529
0.003642303
0.003643205
0.003642041
0.003713602
0.003642047
0.003688891
0.003688089
0.003681244
0.003680742
0.003681125
0.003680901
0.003682505
0.003682108
0.003682437
0.003682192
0.00368377
0.003683445
0.003683756
0.003683479
0.003685028
0.003684764
0.003685063
0.003684761
0.003686286
0.003686091
0.003686368
0.003686045
0.003687546
0.003687424
0.003687675
0.00368733
0.003688812
0.003688752
0.003688986
0.003688617
0.003690084
0.003690082
0.003690303
0.00368991
0.003691364
0.003691422
0.003691631
0.003691209
0.003692653
0.00369277
0.003692966
0.003692518
0.003693949
0.003694124
0.003694311
0.003693835
0.003695254
0.003695487
0.003695663
0.00369516
0.003696569
0.00369686
0.003697024
0.003696496
0.003697894
0.003698242
0.003698394
0.003697842
0.003699231
0.003699638
0.003699775
0.003699199
0.003700578
0.003701042
0.003701167
0.003700569
0.003701939
0.003702462
0.003702573
0.003701952
0.003703312
0.003703891
0.00370399
0.003703347
0.0037047
0.003705337
0.003705422
0.003704758
0.0037061
0.003706794
0.003706865
0.003706181
0.003707516
0.00370827
0.003708326
0.003707622
0.003708947
0.003709755
0.003709798
0.003709077
0.003710394
0.003711258
0.003711287
0.003710548
0.003685799
0.003685688
0.00368581
0.003685726
0.003686025
0.003686024
0.003685835
0.003685995
0.003685913
0.003685819
0.003685998
0.00368605
0.003685942
0.003685806
0.003685992
0.003685984
0.003685807
0.003685953
0.003680876
0.003680659
0.003681026
0.003680433
0.003685635
0.003685639
0.003682021
0.003681972
0.003682316
0.003681656
0.003683289
0.00368328
0.003683631
0.003682939
0.003684554
0.003684587
0.003684942
0.003684227
0.00368582
0.003685897
0.003686258
0.00368551
0.00368709
0.003687211
0.003687576
0.0036868
0.003688363
0.003688531
0.003688898
0.003688094
0.003689641
0.003689857
0.003690225
0.003689389
0.003690927
0.003691191
0.003691559
0.003690693
0.00369222
0.003692533
0.003692899
0.003692001
0.003693523
0.003693887
0.003694248
0.003693319
0.003694835
0.003695249
0.003695607
0.003694646
0.003696156
0.003696623
0.003696974
0.003695981
0.003697485
0.003698004
0.003698351
0.003697326
0.003698828
0.0036994
0.00369974
0.003698686
0.003700181
0.003700806
0.003701141
0.003700056
0.00370155
0.00370223
0.003702556
0.003701442
0.00370293
0.003703662
0.003703982
0.003702839
0.003704327
0.003705113
0.003705426
0.003704254
0.003705736
0.003706574
0.003706881
0.003705681
0.003707164
0.003708056
0.003708354
0.003707128
0.003708604
0.00370955
0.00370984
0.003708587
0.003710062
0.003711061
0.003711342
0.003710065
0.003712994
0.003712711
0.003711435
0.003711564
0.003685815
0.003685716
0.003685954
0.003685954
0.003686013
0.003686044
0.003685821
0.003685749
0.003685882
0.003685997
0.003685676
0.003685702
0.003685867
0.003685867
0.003685865
0.003685963
0.00368894
0.00368809
0.003641266
0.003673669
0.00364127
0.003675387
0.003641285
0.003673491
0.003641266
0.003674274
0.003641279
0.003675175
0.003641288
0.003674145
0.00364131
0.003675035
0.003641287
0.003675882
0.0036413
0.003676888
0.003641309
0.003675767
0.003685006
0.003684744
0.003685082
0.003684706
0.003685765
0.003685897
0.003686204
0.003685502
0.003641393
0.003680173
0.003641352
0.003680768
0.003641366
0.003681891
0.003641377
0.003680753
0.003641422
0.003681812
0.003641375
0.003681237
0.003680734
0.003680896
0.003681114
0.003682021
0.003681996
0.003682339
0.003681656
0.003682505
0.003682102
0.003682193
0.003682431
0.003683288