/*--------------------------------*- C++ -*----------------------------------*\
  =========                 |
  \\      /  F ield         | OpenFOAM: The Open Source CFD Toolbox
   \\    /   O peration     | Website:  https://openfoam.org
    \\  /    A nd           | Version:  7
     \\/     M anipulation  |
\*---------------------------------------------------------------------------*/
FoamFile
{
    version     2.0;
    format      ascii;
    class       volVectorField;
    location    "0.03";
    object      U;
}
// * * * * * * * * * * * * * * * * * * * * * * * * * * * * * * * * * * * * * //

dimensions      [0 1 -1 0 0 0 0];

internalField   nonuniform List<vector> 
80136
(
(0.0003582712 -0.0003493622 7.205649e-08)
(0.0005675853 -0.0003437248 -2.414525e-06)
(0.0007877341 -0.0003104213 -4.803775e-06)
(0.0009802825 -0.000283071 -3.549199e-06)
(0.001153936 -0.0002387165 -4.141417e-06)
(0.001294417 -0.0001883153 -1.435779e-06)
(0.001399525 -0.0001270232 -1.345022e-06)
(0.0003843697 -0.0005650624 2.801305e-06)
(0.0005984703 -0.0005465196 2.196618e-07)
(0.0008314592 -0.0005063237 -5.764241e-06)
(0.001035288 -0.00045576 -3.614321e-06)
(0.001221878 -0.0003882958 -3.365791e-06)
(0.001375541 -0.0003075155 -2.255793e-06)
(0.00149427 -0.0002092832 -1.513122e-06)
(0.0003970573 -0.0008173316 5.376704e-06)
(0.0006355956 -0.0007923551 6.131567e-06)
(0.0008852546 -0.0007368253 -5.73299e-07)
(0.001106953 -0.000665991 1.300221e-06)
(0.00131337 -0.0005710027 6.843993e-07)
(0.00148603 -0.0004560826 1.012816e-06)
(0.001625052 -0.0003169533 6.251059e-07)
(0.0004294487 -0.001078587 2.161432e-06)
(0.0006858435 -0.001046926 5.049538e-06)
(0.0009574836 -0.0009775803 -2.43451e-06)
(0.001200691 -0.0008870256 -8.496631e-08)
(0.001431738 -0.0007677244 -4.514467e-07)
(0.001629791 -0.0006212146 8.957379e-08)
(0.001796179 -0.0004431943 1.997483e-08)
(0.0004647567 -0.001367214 1.653505e-06)
(0.0007456911 -0.001330526 5.822507e-06)
(0.001044729 -0.001249424 -2.47755e-06)
(0.00131654 -0.001141097 2.09773e-07)
(0.001579255 -0.0009984779 -2.50852e-07)
(0.001810881 -0.0008212588 3.127256e-07)
(0.002013778 -0.0006042206 2.115071e-07)
(0.0005085223 -0.001679119 1.205117e-06)
(0.000815771 -0.00163912 6.025629e-06)
(0.001146534 -0.001547719 -3.027841e-06)
(0.001451256 -0.001424438 -1.472939e-08)
(0.001751459 -0.001262129 -4.677823e-07)
(0.002024111 -0.001058106 1.991868e-07)
(0.002273036 -0.0008059355 1.31251e-07)
(0.0005564004 -0.002022439 4.498988e-06)
(0.000892155 -0.001981203 6.74797e-06)
(0.00125906 -0.001882503 -3.049877e-06)
(0.001601665 -0.001748089 8.656924e-08)
(0.001945328 -0.001570263 -4.217954e-07)
(0.002266935 -0.001344493 2.736223e-07)
(0.002572015 -0.001062095 2.288203e-07)
(0.0006072566 -0.002398015 7.277351e-06)
(0.0009739996 -0.002357566 7.116786e-06)
(0.001379303 -0.002254721 -3.137059e-06)
(0.001762975 -0.002114031 7.957639e-08)
(0.002154717 -0.001926982 -4.421768e-07)
(0.002532047 -0.001687535 2.781234e-07)
(0.002903006 -0.00138453 2.393636e-07)
(0.0006586815 -0.002807413 1.030762e-05)
(0.001057286 -0.002770863 7.640219e-06)
(0.001502252 -0.002668 -3.16471e-06)
(0.001928858 -0.00252692 1.123625e-07)
(0.002371458 -0.002338318 -4.512473e-07)
(0.002809118 -0.002095303 3.257325e-07)
(0.003252434 -0.001784744 2.158637e-07)
(0.0007097567 -0.003250675 1.268018e-05)
(0.00113897 -0.003220819 7.954453e-06)
(0.001622913 -0.003122384 -3.255084e-06)
(0.002092107 -0.002987379 9.508908e-08)
(0.002585956 -0.002806198 -4.524728e-07)
(0.003085354 -0.002571901 3.785033e-07)
(0.003605062 -0.002270801 4.279187e-07)
(0.0007568011 -0.003725981 1.41258e-05)
(0.001215257 -0.003705874 8.211255e-06)
(0.001735374 -0.003616615 -3.390826e-06)
(0.00224452 -0.003494398 4.489207e-08)
(0.002786579 -0.003330154 -5.189409e-07)
(0.003344263 -0.003118059 3.566097e-07)
(0.003936772 -0.00284614 3.173535e-07)
(0.0007976344 -0.004230405 1.435059e-05)
(0.001282566 -0.004222796 8.479789e-06)
(0.001834109 -0.00414681 -3.605622e-06)
(0.002378096 -0.00404323 -2.433512e-08)
(0.002961972 -0.003904184 -5.385915e-07)
(0.003569144 -0.003725692 2.954223e-07)
(0.00422341 -0.003498528 4.294248e-07)
(0.0008305946 -0.004758954 1.304529e-05)
(0.001337899 -0.004766564 8.819812e-06)
(0.001914715 -0.004707199 -3.871647e-06)
(0.002486745 -0.004626899 -9.079582e-08)
(0.003103849 -0.004519383 -6.37648e-07)
(0.003749741 -0.00438293 2.548829e-07)
(0.004451551 -0.004211035 2.13355e-07)
(0.0008526501 -0.005306488 1.062296e-05)
(0.001378664 -0.005331717 9.412914e-06)
(0.001973607 -0.005290797 -4.164804e-06)
(0.002565603 -0.005236815 -1.330131e-07)
(0.00320574 -0.005165094 -6.716074e-07)
(0.003877364 -0.005076284 8.793362e-08)
(0.004610109 -0.00496685 2.129791e-07)
(0.000867851 -0.005866703 7.414337e-06)
(0.001403501 -0.005911422 9.25731e-06)
(0.00200952 -0.005889333 -4.447063e-06)
(0.002612238 -0.00586308 -2.3139e-07)
(0.003264243 -0.005828949 -8.145838e-07)
(0.003947903 -0.005789969 9.238119e-08)
(0.00469422 -0.005745676 -5.1054e-08)
(0.0008775521 -0.006435097 1.138359e-05)
(0.001410928 -0.006497461 9.365795e-06)
(0.002021922 -0.006494497 -4.378005e-06)
(0.002625884 -0.006495415 -2.504901e-07)
(0.003278786 -0.006498403 -8.279423e-07)
(0.003960596 -0.006508651 -1.467869e-07)
(0.004703493 -0.006528913 3.747602e-09)
(0.0008738129 -0.007005791 1.073346e-05)
(0.001404467 -0.007082561 8.747881e-06)
(0.002011615 -0.007098073 -4.398775e-06)
(0.002608325 -0.007123669 -3.622761e-07)
(0.003251018 -0.00716084 -1.004875e-06)
(0.003917389 -0.007216559 -1.02957e-07)
(0.004639494 -0.007297575 -3.895024e-07)
(0.0008601324 -0.007569954 8.114752e-06)
(0.001384927 -0.007660682 8.470859e-06)
(0.001980924 -0.007692076 -4.646008e-06)
(0.002563201 -0.007738542 -4.832556e-07)
(0.003185951 -0.007804663 -1.113959e-06)
(0.003823898 -0.007899145 -5.727575e-07)
(0.0045084 -0.008033214 -4.190669e-07)
(0.0008413647 -0.008123096 7.338211e-06)
(0.001353958 -0.008226321 8.276089e-06)
(0.001933892 -0.008269665 -4.780761e-06)
(0.002495901 -0.008331225 -6.665133e-07)
(0.003090522 -0.008417698 -1.41399e-06)
(0.003688894 -0.008539019 -5.366249e-07)
(0.004319188 -0.008713372 -1.063883e-06)
(0.0008165556 -0.008661823 4.967301e-06)
(0.001315276 -0.008775645 7.765453e-06)
(0.001876187 -0.008827667 -5.32502e-06)
(0.002415373 -0.008898334 -1.346252e-06)
(0.002978313 -0.008995435 -2.274482e-06)
(0.003528282 -0.009130512 -2.417337e-06)
(0.004088996 -0.009325504 -2.098426e-06)
(0.000788321 -0.00918302 3.233444e-06)
(0.001270163 -0.009305446 7.360298e-06)
(0.00181138 -0.009362251 -5.378668e-06)
(0.002328344 -0.009432036 -1.324665e-06)
(0.002858493 -0.009524019 -2.250859e-06)
(0.003358881 -0.009641262 -8.410326e-07)
(0.003840555 -0.009826589 -2.621558e-06)
(0.000754095 -0.009685439 7.279524e-08)
(0.00122303 -0.009817845 6.215848e-06)
(0.001749718 -0.009880958 -7.348704e-06)
(0.002253771 -0.009949762 -5.410359e-06)
(0.002769127 -0.01002743 -7.78264e-06)
(0.003225714 -0.01012374 -1.320867e-05)
(0.003622317 -0.01024371 -1.029214e-05)
(0.0007125355 -0.01016944 -2.712444e-06)
(0.001166596 -0.01031373 6.331716e-06)
(0.001679512 -0.01038444 -5.647933e-06)
(0.002181874 -0.01043518 -9.676657e-07)
(0.00268434 -0.01048328 -2.742053e-06)
(0.003142418 -0.01044519 9.257643e-06)
(0.003490986 -0.01046462 -6.625472e-06)
(0.0003022026 -4.712707e-05 1.844538e-05)
(0.0005346131 -4.122237e-05 4.505445e-05)
(0.0008556236 -4.299734e-05 2.16772e-05)
(0.001077195 -4.119098e-05 4.73121e-05)
(0.001301338 -3.220664e-05 3.891001e-05)
(0.001487654 -2.877755e-05 5.100349e-05)
(0.001641938 -1.686782e-05 4.416181e-05)
(0.00172614 -7.410048e-06 4.894174e-05)
(4.985356e-05 -0.000303944 -1.834978e-05)
(0.0003600619 -0.0003516481 -4.700327e-07)
(0.000583061 -0.0003319191 4.336043e-07)
(0.0007954522 -0.0002982225 -1.622643e-06)
(0.0009887621 -0.0002721069 4.152798e-07)
(0.00116412 -0.0002308328 -9.073914e-07)
(0.001305804 -0.0001815493 -5.288566e-07)
(0.001410664 -0.0001230229 -3.602172e-07)
(4.318089e-05 -0.0005288245 -5.683236e-05)
(0.0003710721 -0.0005826644 -1.057017e-07)
(0.00060841 -0.0005559104 7.930438e-07)
(0.0008313501 -0.0005162813 -4.700147e-06)
(0.001037271 -0.0004640606 -3.143394e-06)
(0.001222071 -0.0003944767 -4.296211e-06)
(0.001375877 -0.0003137193 -3.160399e-06)
(0.001494154 -0.0002131148 -2.276396e-06)
(5.689546e-05 -0.0008984254 -3.193958e-05)
(0.0003828526 -0.0008313657 1.617185e-06)
(0.0006471529 -0.0007927597 6.427878e-06)
(0.0008848027 -0.0007372539 2.726346e-07)
(0.001108744 -0.0006655178 1.935626e-06)
(0.001313102 -0.0005705609 2.200309e-08)
(0.001485965 -0.000455577 4.628179e-07)
(0.001624668 -0.0003164432 1.477569e-07)
(5.750882e-05 -0.001222263 -4.001118e-05)
(0.0004123296 -0.0010974 -1.87608e-07)
(0.0007000055 -0.00104921 6.207783e-06)
(0.000956888 -0.0009804316 -7.55551e-07)
(0.001203267 -0.0008887501 1.329598e-06)
(0.001432108 -0.0007690571 -7.692034e-07)
(0.001630555 -0.0006220722 -9.340605e-08)
(0.001796891 -0.0004434537 -2.417852e-07)
(6.126499e-05 -0.001563969 -4.847789e-05)
(0.0004450114 -0.001386699 5.231231e-07)
(0.0007618928 -0.001331444 8.675817e-06)
(0.001043927 -0.00125081 6.819053e-07)
(0.001319381 -0.001141562 3.161013e-06)
(0.00157965 -0.0009987968 6.056556e-07)
(0.001811813 -0.0008212028 1.194202e-06)
(0.002014787 -0.0006038083 6.479365e-07)
(6.940836e-05 -0.001929503 -6.28445e-05)
(0.0004874995 -0.001698718 -3.184647e-07)
(0.0008338663 -0.001640362 9.006843e-06)
(0.001145656 -0.00154928 5.488928e-07)
(0.001454472 -0.001425287 3.349245e-06)
(0.001752057 -0.001262791 6.090109e-07)
(0.002025354 -0.00105831 1.288147e-06)
(0.002274585 -0.0008056291 7.425761e-07)
(7.970115e-05 -0.002343995 -6.977383e-05)
(0.00053596 -0.002042727 -5.102609e-07)
(0.0009091404 -0.001982523 9.794514e-06)
(0.001257966 -0.001883785 8.96633e-07)
(0.001604981 -0.001748905 3.93453e-06)
(0.001945982 -0.001570934 1.011634e-06)
(0.002268405 -0.001344712 1.764348e-06)
(0.002573931 -0.001061792 1.129618e-06)
(9.008884e-05 -0.002784452 -8.243784e-05)
(0.0005904458 -0.002422793 -9.912292e-07)
(0.000990375 -0.002359271 1.008333e-05)
(0.001378267 -0.002256164 9.156716e-07)
(0.001766369 -0.002115078 4.139524e-06)
(0.002155442 -0.001927878 1.075149e-06)
(0.002533675 -0.001687994 1.859751e-06)
(0.00290531 -0.001384491 1.167384e-06)
(9.972645e-05 -0.00326511 -9.413588e-05)
(0.0006424084 -0.002837082 -1.015475e-06)
(0.001072984 -0.002772756 1.072294e-05)
(0.001501159 -0.002669598 1.043599e-06)
(0.001932272 -0.002528139 4.407648e-06)
(0.002372172 -0.002339376 1.169475e-06)
(0.002810839 -0.002095994 1.933843e-06)
(0.003254806 -0.001784833 1.153127e-06)
(0.0001080688 -0.003783396 -0.0001109611)
(0.0006951241 -0.003286539 -1.034889e-06)
(0.001154717 -0.003223037 1.14123e-05)
(0.001621911 -0.003124203 1.104632e-06)
(0.002095608 -0.00298881 4.602006e-06)
(0.002586678 -0.002807474 1.15114e-06)
(0.00308724 -0.00257288 1.904652e-06)
(0.003607808 -0.002271399 1.111556e-06)
(0.0001148076 -0.004341283 -0.000130113)
(0.0007420764 -0.003768601 -7.311481e-07)
(0.001231774 -0.003708118 1.230365e-05)
(0.001734468 -0.003618633 1.202579e-06)
(0.002248071 -0.003495998 4.814412e-06)
(0.00278724 -0.003331606 1.107577e-06)
(0.003346011 -0.003119343 1.72848e-06)
(0.003939109 -0.002847154 6.216843e-07)
(0.0001198499 -0.004935478 -0.0001485772)
(0.0007807122 -0.004280347 -3.213123e-07)
(0.001300684 -0.004224883 1.31749e-05)
(0.001833218 -0.004149025 1.237343e-06)
(0.002381807 -0.004044959 4.986864e-06)
(0.00296257 -0.003905803 9.814394e-07)
(0.003570922 -0.003727161 1.594342e-06)
(0.004225708 -0.003499871 3.60621e-07)
(0.0001237042 -0.005569606 -0.0001642838)
(0.0008092849 -0.004815986 3.098364e-07)
(0.001358627 -0.004768206 1.411687e-05)
(0.001913715 -0.004709547 1.281773e-06)
(0.002490599 -0.004628694 5.156287e-06)
(0.003104423 -0.004521129 9.356855e-07)
(0.003751338 -0.004384647 1.471763e-06)
(0.004453428 -0.004212664 3.463731e-07)
(0.0001247557 -0.006238472 -0.0001803949)
(0.0008241611 -0.005370364 8.550232e-07)
(0.001402174 -0.005333638 1.47037e-05)
(0.00197221 -0.005293188 1.213218e-06)
(0.002569694 -0.005238702 5.274548e-06)
(0.003206157 -0.005166964 7.640195e-07)
(0.003878948 -0.005078089 1.428211e-06)
(0.00461177 -0.004968702 9.603999e-08)
(0.0001224633 -0.006908117 -0.0002027906)
(0.0008391165 -0.005929883 -1.831522e-08)
(0.001430309 -0.005913567 1.480906e-05)
(0.002008301 -0.005891424 1.001374e-06)
(0.002616465 -0.005865032 5.297772e-06)
(0.00326473 -0.005830907 6.967403e-07)
(0.003949325 -0.005791982 1.265214e-06)
(0.004695703 -0.005747668 1.823766e-07)
(0.0001202614 -0.007588334 -0.0002219744)
(0.0008512951 -0.006501339 -1.538064e-06)
(0.001434587 -0.006499875 1.490605e-05)
(0.00202057 -0.006496399 6.767193e-07)
(0.002630051 -0.006497482 5.279291e-06)
(0.003279051 -0.006500523 4.625866e-07)
(0.003962051 -0.006510788 1.290143e-06)
(0.004704749 -0.006531213 -1.046939e-07)
(0.0001158282 -0.008245868 -0.0002498981)
(0.0008511917 -0.007083754 -2.684939e-06)
(0.001428649 -0.007085241 1.472963e-05)
(0.002010698 -0.007100319 3.437854e-07)
(0.002612343 -0.007125923 5.142243e-06)
(0.003251419 -0.007163189 3.824559e-07)
(0.003918625 -0.007219098 1.015314e-06)
(0.004640685 -0.00730015 2.060872e-08)
(0.0001142923 -0.008940015 -0.0002694375)
(0.0008350439 -0.007653416 -2.905947e-06)
(0.001410872 -0.007662847 1.441625e-05)
(0.001980058 -0.007694497 1.056043e-07)
(0.002567327 -0.007740983 4.978629e-06)
(0.003186009 -0.007807276 7.40975e-08)
(0.003825179 -0.007901859 9.999519e-07)
(0.004509355 -0.008036275 -3.670824e-07)
(0.0001115277 -0.009600676 -0.0002950603)
(0.0008145978 -0.008211875 -3.015828e-06)
(0.001379912 -0.008228665 1.415136e-05)
(0.001932866 -0.008272479 -4.709941e-10)
(0.002499844 -0.008334324 4.848185e-06)
(0.003090783 -0.008421156 2.558675e-07)
(0.003689783 -0.008543228 8.798864e-07)
(0.004319966 -0.008717603 6.333905e-08)
(0.000108436 -0.01025143 -0.000317561)
(0.0007904718 -0.008756785 -2.899611e-06)
(0.001342061 -0.00877821 1.358788e-05)
(0.001874802 -0.008830501 -3.037812e-07)
(0.002419022 -0.008901366 4.302096e-06)
(0.002977422 -0.008998732 -4.106861e-07)
(0.003528937 -0.009133495 1.483826e-07)
(0.004089675 -0.009329894 -6.647457e-07)
(0.0001044055 -0.0108817 -0.0003393416)
(0.0007625836 -0.009283573 -2.542908e-06)
(0.001297474 -0.009308675 1.352239e-05)
(0.001810164 -0.009366576 3.330279e-07)
(0.00233202 -0.009438457 5.13628e-06)
(0.002858978 -0.009531911 1.350463e-06)
(0.003358827 -0.009654268 2.575986e-06)
(0.003839708 -0.009837745 1.185511e-06)
(9.937204e-05 -0.01149601 -0.0003581006)
(0.000724641 -0.009791599 -2.156708e-06)
(0.001249741 -0.009820624 1.225736e-05)
(0.001745461 -0.00988377 -8.109266e-07)
(0.002254058 -0.009952237 2.115299e-06)
(0.002761853 -0.01003087 -1.632882e-06)
(0.00322322 -0.0101177 -5.437057e-06)
(0.003624407 -0.01025126 -1.529203e-06)
(0.001745321 -0.01198038 6.1951e-05)
(0.0006806539 -0.01028221 -5.312315e-07)
(0.001195487 -0.0103202 1.343582e-05)
(0.001678942 -0.01039374 2.923745e-06)
(0.002185178 -0.01045689 9.165276e-06)
(0.002693583 -0.01051033 7.393913e-06)
(0.003138399 -0.01051904 1.886457e-05)
(0.00347679 -0.01050796 3.994053e-06)
(0.0002927254 -3.862753e-05 -1.604471e-05)
(0.0006023758 -9.763102e-05 2.950852e-06)
(0.0007608006 -8.618827e-05 -2.226648e-05)
(0.0009658418 -8.828285e-05 -5.276091e-06)
(0.001123856 -7.255239e-05 -1.130737e-05)
(0.001262199 -5.771111e-05 -8.839325e-06)
(0.001361388 -3.858337e-05 -5.560532e-06)
(3.868585e-05 -0.0002948557 1.390782e-05)
(0.0003433182 -0.0003325154 -3.384594e-07)
(0.0005697081 -0.0003244885 -1.23196e-05)
(0.0007955694 -0.0002797022 -1.325778e-05)
(0.000991403 -0.0002605076 -1.12056e-05)
(0.001165697 -0.0002184107 -9.644385e-06)
(0.001309054 -0.0001724696 -8.991619e-06)
(0.001415529 -0.0001161542 -5.773642e-06)
(0.0001112296 -0.0006175416 -4.298811e-06)
(0.0003643345 -0.0005654969 1.341797e-05)
(0.0005908298 -0.0005375143 8.049003e-07)
(0.0008257907 -0.000501399 -3.734874e-06)
(0.001035291 -0.0004514922 -4.289652e-06)
(0.001221688 -0.0003850162 -5.209138e-06)
(0.001377475 -0.0003045089 -4.095922e-06)
(0.001496581 -0.0002072454 -2.916982e-06)
(0.0001141012 -0.0008190992 2.247829e-05)
(0.0003631248 -0.0008253677 1.574186e-05)
(0.000630538 -0.0007855612 5.851478e-06)
(0.0008778247 -0.000730687 7.861805e-07)
(0.001105733 -0.0006592669 -1.357201e-07)
(0.001311531 -0.0005653412 -1.405661e-06)
(0.001486052 -0.0004511066 -9.574451e-07)
(0.001625233 -0.000313183 -6.986785e-07)
(0.0001342319 -0.001102892 1.039409e-05)
(0.0004000607 -0.0010907 1.810472e-05)
(0.0006810278 -0.00104489 7.520169e-06)
(0.000949027 -0.0009768664 2.430402e-06)
(0.00119926 -0.0008851981 1.357322e-06)
(0.001429835 -0.0007663312 -4.058187e-07)
(0.00163035 -0.0006194698 -2.479991e-08)
(0.001797232 -0.0004412927 -8.580583e-08)
(0.0001430929 -0.001388148 1.604465e-05)
(0.0004314605 -0.001381729 2.12301e-05)
(0.0007410391 -0.001328428 1.010504e-05)
(0.00103513 -0.001248602 4.133722e-06)
(0.001314781 -0.001139302 3.08291e-06)
(0.001576815 -0.0009969815 9.259077e-07)
(0.00181122 -0.0008193254 1.268857e-06)
(0.002014872 -0.0006019106 8.621905e-07)
(0.000158782 -0.00170788 1.34666e-05)
(0.0004748617 -0.001698061 2.321682e-05)
(0.0008112591 -0.001638975 1.115724e-05)
(0.001136301 -0.001548429 4.676114e-06)
(0.001449396 -0.00142438 3.558859e-06)
(0.001748923 -0.001262052 1.216381e-06)
(0.002024782 -0.001057305 1.584596e-06)
(0.002274831 -0.000804227 1.149243e-06)
(0.0001736821 -0.002052883 1.058769e-05)
(0.0005200646 -0.00204495 2.261285e-05)
(0.0008877258 -0.001981326 1.252288e-05)
(0.001248098 -0.001883416 5.267814e-06)
(0.00159962 -0.001748397 4.192106e-06)
(0.001942629 -0.001570504 1.702908e-06)
(0.002267726 -0.001344009 2.122809e-06)
(0.002574388 -0.001060658 1.687754e-06)
(0.0001916983 -0.002428713 1.247593e-05)
(0.0005699911 -0.002424484 2.258292e-05)
(0.0009696084 -0.002358025 1.388771e-05)
(0.001367688 -0.002256104 5.583519e-06)
(0.001760699 -0.002114944 4.488946e-06)
(0.002151776 -0.001927837 1.85543e-06)
(0.002532815 -0.001687767 2.274187e-06)
(0.002905749 -0.001383849 1.802729e-06)
(0.0002080408 -0.002834769 1.429763e-05)
(0.0006180107 -0.002837687 2.257231e-05)
(0.001052574 -0.002771057 1.524567e-05)
(0.00148968 -0.002669512 5.952455e-06)
(0.00192623 -0.002528056 4.82389e-06)
(0.002368122 -0.002339522 1.99906e-06)
(0.002809645 -0.00209599 2.409371e-06)
(0.003254935 -0.001784617 1.838762e-06)
(0.0002242963 -0.003274893 1.778812e-05)
(0.0006652745 -0.003285257 2.330562e-05)
(0.001133861 -0.003220856 1.672204e-05)
(0.001609243 -0.003124043 6.287898e-06)
(0.002089062 -0.002988726 5.076298e-06)
(0.002582136 -0.002807742 2.008783e-06)
(0.003085626 -0.002573138 2.354535e-06)
(0.003607412 -0.002271638 1.718684e-06)
(0.0002384131 -0.003744487 2.016673e-05)
(0.0007082519 -0.003765206 2.493882e-05)
(0.001209438 -0.003705829 1.813744e-05)
(0.001720453 -0.003618373 6.676862e-06)
(0.002241002 -0.003495869 5.351224e-06)
(0.002782102 -0.003331965 1.966853e-06)
(0.003343824 -0.003119652 2.210762e-06)
(0.00393792 -0.002847671 1.201312e-06)
(0.0002499731 -0.004241482 2.116252e-05)
(0.0007451664 -0.004274667 2.714213e-05)
(0.001275878 -0.004222789 1.908298e-05)
(0.001818003 -0.004148646 6.957375e-06)
(0.002374109 -0.004044788 5.517484e-06)
(0.002956941 -0.003906095 1.836059e-06)
(0.003568292 -0.003727442 1.949798e-06)
(0.004223764 -0.003499967 8.49805e-07)
(0.000258511 -0.004762189 2.626905e-05)
(0.0007733015 -0.004808944 3.033844e-05)
(0.001330162 -0.004766929 1.974014e-05)
(0.001897451 -0.004709142 7.294838e-06)
(0.002482411 -0.004628545 5.719606e-06)
(0.003098312 -0.004521418 1.759743e-06)
(0.003748697 -0.004384733 1.870346e-06)
(0.004451371 -0.004212751 7.140265e-07)
(0.000263585 -0.005310137 3.129455e-05)
(0.0007916271 -0.005364234 3.32182e-05)
(0.001369892 -0.005332961 1.969739e-05)
(0.001955617 -0.005293003 7.438838e-06)
(0.002560961 -0.005238616 5.749959e-06)
(0.003199903 -0.005167211 1.577569e-06)
(0.00387605 -0.005078254 1.610769e-06)
(0.004609505 -0.004968657 4.111258e-07)
(0.0002693222 -0.005871473 2.993625e-05)
(0.0008079786 -0.005932481 3.635202e-05)
(0.001395111 -0.005913137 2.026796e-05)
(0.001991268 -0.005891808 7.556538e-06)
(0.002607621 -0.005865011 5.830322e-06)
(0.003258121 -0.005831162 1.421753e-06)
(0.003946653 -0.00579196 1.51984e-06)
(0.004693426 -0.005747672 2.548281e-07)
(0.0002712317 -0.006434084 1.717974e-05)
(0.0008152097 -0.006507521 3.176979e-05)
(0.00140379 -0.006499462 2.054159e-05)
(0.002003467 -0.006497096 7.099466e-06)
(0.002621324 -0.006497484 5.713535e-06)
(0.003272675 -0.006500636 1.1753e-06)
(0.003959246 -0.006510823 1.240048e-06)
(0.004702614 -0.006530997 4.065132e-08)
(0.0002723474 -0.006996392 2.357079e-05)
(0.0008135326 -0.007083347 3.16194e-05)
(0.001398252 -0.007085049 2.097286e-05)
(0.00199322 -0.007100581 6.767961e-06)
(0.002604075 -0.007125894 5.640111e-06)
(0.003244746 -0.007163186 9.258586e-07)
(0.00391625 -0.007218861 1.076472e-06)
(0.004638521 -0.007299933 -2.40119e-07)
(0.0002682829 -0.007550101 2.600727e-05)
(0.0008009928 -0.007652425 3.29022e-05)
(0.001378747 -0.007663365 2.055042e-05)
(0.001962824 -0.007694383 6.461657e-06)
(0.002558961 -0.007740821 5.305325e-06)
(0.00317991 -0.007806826 6.083666e-07)
(0.003822671 -0.00790143 6.515007e-07)
(0.004507509 -0.008035435 -4.904591e-07)
(0.0002616817 -0.008101035 2.18821e-05)
(0.0007830345 -0.008211287 3.243619e-05)
(0.001347937 -0.008229348 1.98963e-05)
(0.001916164 -0.008272101 6.250351e-06)
(0.002492079 -0.008333977 5.125418e-06)
(0.003084541 -0.008420339 4.650961e-07)
(0.003687962 -0.008542144 5.517604e-07)
(0.004318136 -0.008716135 -7.068141e-07)
(0.0002541739 -0.008634473 2.336326e-05)
(0.0007600067 -0.008755385 3.305675e-05)
(0.001309029 -0.008778583 1.901077e-05)
(0.00185875 -0.008829497 5.778072e-06)
(0.002411316 -0.008900322 4.350356e-06)
(0.002972278 -0.008996772 -1.248009e-07)
(0.003527288 -0.009131474 -3.75719e-07)
(0.004088501 -0.009327212 -9.933536e-07)
(0.0002448376 -0.009151366 2.27006e-05)
(0.0007330976 -0.00928196 3.335895e-05)
(0.001264396 -0.00930921 1.851852e-05)
(0.001795088 -0.009365027 6.196741e-06)
(0.002325488 -0.009436586 4.834105e-06)
(0.002853976 -0.009527811 8.178445e-07)
(0.003357957 -0.009649455 6.755942e-07)
(0.003838259 -0.00983042 -4.635012e-07)
(0.0002329995 -0.009646372 2.073852e-05)
(0.0007010096 -0.00978873 3.359699e-05)
(0.001215975 -0.009820495 1.658736e-05)
(0.001732071 -0.009880901 5.195553e-06)
(0.002249209 -0.009948699 2.789708e-06)
(0.002759961 -0.01002494 -2.541494e-07)
(0.003225009 -0.01011225 -1.874306e-06)
(0.003625678 -0.0102452 9.064435e-07)
(0.00021932 -0.01013081 2.414242e-05)
(0.0006633824 -0.01027879 3.528042e-05)
(0.001161779 -0.0103189 1.705792e-05)
(0.001667617 -0.01038805 8.007048e-06)
(0.002182144 -0.01044782 6.892831e-06)
(0.002690926 -0.0104904 5.044653e-06)
(0.003137851 -0.01049285 5.015252e-06)
(0.003474652 -0.01047157 1.583676e-06)
(0.0002937302 -3.240297e-05 -2.201997e-06)
(0.0006309467 -8.931217e-05 2.605051e-06)
(0.0007652493 -7.643027e-05 -5.970429e-06)
(0.000978788 -8.411432e-05 -1.621161e-06)
(0.001135241 -6.819968e-05 -2.786595e-06)
(0.00127621 -5.469938e-05 -1.204254e-06)
(0.001375367 -3.621859e-05 -1.350173e-06)
(3.261957e-05 -0.0002985171 2.318317e-07)
(0.0003421897 -0.0003312849 1.961803e-07)
(0.0005688011 -0.0003281368 -2.008726e-06)
(0.0007964077 -0.0002750712 -2.134621e-06)
(0.0009910034 -0.0002575541 -8.87672e-07)
(0.001163743 -0.0002152346 -1.126166e-06)
(0.001306693 -0.0001705251 -6.443769e-07)
(0.001412575 -0.0001141598 -4.062689e-07)
(0.0001031075 -0.0006486629 -2.416891e-06)
(0.0003679417 -0.000565776 1.953681e-06)
(0.0005900253 -0.0005370785 1.766717e-07)
(0.0008261626 -0.0004999339 -6.305323e-07)
(0.00103521 -0.0004505551 -4.826293e-07)
(0.001221118 -0.0003838086 -1.01244e-06)
(0.001376765 -0.0003035062 -6.165424e-07)
(0.001495607 -0.0002062343 -3.934943e-07)
(0.0001041035 -0.0008276032 5.175304e-06)
(0.0003586854 -0.0008278531 2.223411e-06)
(0.0006289911 -0.0007870535 1.093571e-06)
(0.0008780698 -0.0007311146 3.023795e-07)
(0.0011059 -0.0006592997 3.370726e-07)
(0.001311387 -0.0005649489 -1.776957e-07)
(0.001485798 -0.0004504957 1.417397e-07)
(0.001624911 -0.0003122403 2.634619e-07)
(0.0001301327 -0.001119155 -6.200613e-07)
(0.0003987334 -0.001092434 1.067366e-06)
(0.0006803234 -0.001046258 1.158015e-06)
(0.0009495381 -0.0009777546 5.908125e-07)
(0.001199615 -0.0008855209 7.06464e-07)
(0.001430051 -0.0007662641 4.66686e-08)
(0.001630618 -0.000618941 4.124973e-07)
(0.001797661 -0.0004402513 5.293459e-07)
(0.0001369797 -0.001400413 1.431793e-06)
(0.0004284742 -0.001381559 1.622493e-06)
(0.0007399342 -0.001329125 2.16582e-06)
(0.001035423 -0.001249493 1.276855e-06)
(0.001315192 -0.001139718 1.505623e-06)
(0.001577258 -0.0009970036 6.8447e-07)
(0.001811962 -0.0008187921 1.104144e-06)
(0.002016012 -0.0006006983 1.117937e-06)
(0.0001509996 -0.001722258 2.762589e-06)
(0.000469798 -0.001697319 1.658949e-06)
(0.000809907 -0.001639422 2.585544e-06)
(0.001136303 -0.001549375 1.437912e-06)
(0.00144988 -0.001424938 1.730731e-06)
(0.001749546 -0.001262239 8.241315e-07)
(0.002025843 -0.001056937 1.32574e-06)
(0.002276586 -0.0008029689 1.385687e-06)
(0.0001640012 -0.00206888 5.056293e-06)
(0.0005121663 -0.002043223 1.835064e-06)
(0.0008859066 -0.001981403 3.220436e-06)
(0.001247583 -0.001884315 1.726826e-06)
(0.001600082 -0.001749004 2.059916e-06)
(0.001943312 -0.001570811 1.080676e-06)
(0.002269104 -0.00134376 1.668356e-06)
(0.002576763 -0.001059498 1.823145e-06)
(0.0001790647 -0.002449687 8.453617e-06)
(0.0005584875 -0.002422331 2.26403e-06)
(0.0009670521 -0.002358255 3.85908e-06)
(0.001366499 -0.002257061 1.886231e-06)
(0.001761052 -0.002115662 2.206748e-06)
(0.002152443 -0.001928326 1.143901e-06)
(0.002534284 -0.001687733 1.790004e-06)
(0.00290845 -0.001383087 1.975377e-06)
(0.0001940267 -0.002862357 9.719421e-06)
(0.0006051333 -0.002835357 2.421498e-06)
(0.001049513 -0.002771642 4.380962e-06)
(0.001488031 -0.002670524 2.051586e-06)
(0.001926428 -0.002528859 2.366608e-06)
(0.002368689 -0.002340114 1.185337e-06)
(0.002811084 -0.002096194 1.854078e-06)
(0.003257681 -0.001784156 2.030598e-06)
(0.0002088063 -0.003308222 1.096901e-05)
(0.0006509226 -0.00328257 2.546121e-06)
(0.00113031 -0.003221808 4.719503e-06)
(0.001607216 -0.003125071 2.108362e-06)
(0.002089108 -0.002989596 2.409623e-06)
(0.002582533 -0.002808482 1.103686e-06)
(0.003086961 -0.002573573 1.738738e-06)
(0.003610109 -0.00227178 1.903162e-06)
(0.0002224477 -0.003785332 1.149069e-05)
(0.0006934186 -0.003762381 2.802366e-06)
(0.001205545 -0.003707276 4.994891e-06)
(0.001718305 -0.003619431 2.210364e-06)
(0.002240816 -0.003496789 2.448142e-06)
(0.002782301 -0.003332743 9.735409e-07)
(0.003344781 -0.003120356 1.528329e-06)
(0.003940011 -0.00284816 1.478399e-06)
(0.0002344299 -0.004291038 1.034283e-05)
(0.0007309319 -0.004271656 2.574083e-06)
(0.001271937 -0.004224583 4.732942e-06)
(0.001815973 -0.004149663 2.067956e-06)
(0.002373844 -0.004045667 2.329287e-06)
(0.002956852 -0.003906882 7.373067e-07)
(0.003569029 -0.00372813 1.181353e-06)
(0.004225309 -0.003500691 9.915103e-07)
(0.0002443392 -0.004820221 7.783212e-06)
(0.0007618698 -0.004805662 2.565547e-06)
(0.001326405 -0.004768634 4.476868e-06)
(0.001895776 -0.004710044 2.017794e-06)
(0.002481958 -0.004629311 2.226148e-06)
(0.003098129 -0.004522096 5.221443e-07)
(0.00374903 -0.004385544 9.09494e-07)
(0.004452422 -0.00421349 6.646462e-07)
(0.0002512513 -0.005368323 2.893372e-06)
(0.000784506 -0.005359371 1.761625e-06)
(0.001366667 -0.005333841 3.958255e-06)
(0.001954182 -0.005293604 1.762755e-06)
(0.002560537 -0.005239175 2.056964e-06)
(0.003199352 -0.005167809 2.483625e-07)
(0.003876254 -0.005078845 5.448151e-07)
(0.004609957 -0.004969485 2.139992e-07)
(0.000255542 -0.005929237 4.880555e-06)
(0.0007983278 -0.005925918 2.030067e-06)
(0.001391567 -0.005913104 4.03304e-06)
(0.001989683 -0.005892151 1.639841e-06)
(0.002606919 -0.005865386 1.88251e-06)
(0.003257624 -0.005831586 -4.157452e-08)
(0.003946449 -0.005792604 2.460398e-07)
(0.004693635 -0.005748287 -1.45089e-07)
(0.0002568963 -0.006498622 6.756926e-06)
(0.0008026095 -0.006499838 1.371689e-06)
(0.001400127 -0.006499202 4.047155e-06)
(0.002001517 -0.006497271 1.313841e-06)
(0.002620685 -0.006497729 1.690852e-06)
(0.003271726 -0.00650108 -3.619786e-07)
(0.003959097 -0.006511302 -1.38362e-07)
(0.00470239 -0.006531838 -5.520718e-07)
(0.0002565243 -0.007069506 8.096508e-06)
(0.0007997519 -0.007075143 1.626971e-06)
(0.001394111 -0.007084975 3.999728e-06)
(0.001991124 -0.007100735 1.030844e-06)
(0.002603092 -0.007126162 1.317083e-06)
(0.003244012 -0.007163648 -8.116113e-07)
(0.003915602 -0.00721964 -5.728848e-07)
(0.004638218 -0.00730073 -1.101514e-06)
(0.0002531901 -0.007633544 5.961803e-06)
(0.0007891941 -0.007644226 1.159317e-06)
(0.001374748 -0.007663445 3.54393e-06)
(0.001960622 -0.007694561 5.101722e-07)
(0.002558125 -0.007741151 8.370613e-07)
(0.00317855 -0.007807513 -1.38754e-06)
(0.003822245 -0.007902298 -1.251645e-06)
(0.004506814 -0.008036822 -1.694402e-06)
(0.0002475532 -0.008188109 4.829623e-06)
(0.0007718963 -0.008202599 6.384317e-07)
(0.0013442 -0.008229539 2.965252e-06)
(0.001913999 -0.008272573 1.532189e-10)
(0.002490787 -0.008334864 1.617806e-07)
(0.00308346 -0.008421678 -2.037596e-06)
(0.003686789 -0.008544272 -1.944898e-06)
(0.004317294 -0.008718343 -2.536416e-06)
(0.0002403698 -0.008728717 3.342087e-06)
(0.000749844 -0.008746015 -2.325269e-07)
(0.00130539 -0.008778789 2.091139e-06)
(0.001856109 -0.008829915 -1.078213e-06)
(0.002409898 -0.008901319 -1.144351e-06)
(0.002969941 -0.00899834 -3.44214e-06)
(0.003526218 -0.009133676 -3.742233e-06)
(0.004087236 -0.009330291 -3.97832e-06)
(0.0002319094 -0.009252251 2.198283e-06)
(0.0007239997 -0.009272443 -5.657037e-07)
(0.001261068 -0.009310283 1.538989e-06)
(0.001792478 -0.009366663 -1.347621e-06)
(0.002323405 -0.009440046 -1.630441e-06)
(0.002852006 -0.009532547 -3.71863e-06)
(0.003355542 -0.009656852 -4.063999e-06)
(0.00383613 -0.009837307 -4.78622e-06)
(0.0002217823 -0.009755362 -1.233077e-06)
(0.000694048 -0.009778313 -2.03463e-06)
(0.001212068 -0.009821205 -5.456449e-07)
(0.00172749 -0.009881576 -3.895948e-06)
(0.00224513 -0.009950586 -5.516936e-06)