/*--------------------------------*- C++ -*----------------------------------*\
  =========                 |
  \\      /  F ield         | OpenFOAM: The Open Source CFD Toolbox
   \\    /   O peration     | Website:  https://openfoam.org
    \\  /    A nd           | Version:  7
     \\/     M anipulation  |
\*---------------------------------------------------------------------------*/
FoamFile
{
    version     2.0;
    format      ascii;
    class       volScalarField;
    location    "0.03";
    object      k;
}
// * * * * * * * * * * * * * * * * * * * * * * * * * * * * * * * * * * * * * //

dimensions      [0 2 -2 0 0 0 0];

internalField   nonuniform List<scalar> 
53911
(
0.003739709
0.003739506
0.003739203
0.003739232
0.003739168
0.003738938
0.003738578
0.003738124
0.003737462
0.003736802
0.003735999
0.003735018
0.003734245
0.003733957
0.003739384
0.003744704
0.003744343
0.003744353
0.003744194
0.003744092
0.003743932
0.003743753
0.003743535
0.003743287
0.003743021
0.003742785
0.003742674
0.003734314
0.003739405
0.003744715
0.003744195
0.003744225
0.003744067
0.003743986
0.003743844
0.003743685
0.003743495
0.00374328
0.003743069
0.003742915
0.003742961
0.003734999
0.003739525
0.003744763
0.003744248
0.003744281
0.003744124
0.003744056
0.003743941
0.003743824
0.003743686
0.003743536
0.003743409
0.00374335
0.003743472
0.003736342
0.00373968
0.003744837
0.003744291
0.003744373
0.003744223
0.0037442
0.003744121
0.003744055
0.00374398
0.003743908
0.003743872
0.003743912
0.003744082
0.00373796
0.003739812
0.003744936
0.00374442
0.003744508
0.00374439
0.00374439
0.00374436
0.003744354
0.003744358
0.003744382
0.003744472
0.003744636
0.003744921
0.003739912
0.003739984
0.003745045
0.003744524
0.003744648
0.003744551
0.003744599
0.003744619
0.003744682
0.003744773
0.003744913
0.003745142
0.003745499
0.003745891
0.003742441
0.003740269
0.003745162
0.003744652
0.003744795
0.003744728
0.00374481
0.00374488
0.003745009
0.003745196
0.003745461
0.003745907
0.003746569
0.003747494
0.003746717
0.003740505
0.003745269
0.00374476
0.003744934
0.003744883
0.00374501
0.003745127
0.003745326
0.003745609
0.003746027
0.003746678
0.003747786
0.003748661
0.003754851
0.0037407
0.003745363
0.003744863
0.003745056
0.003745024
0.003745176
0.003745325
0.003745561
0.003745892
0.003746345
0.003747072
0.003748055
0.003748975
0.003754886
0.003763648
0.003758272
0.003756446
0.003754836
0.003753408
0.003751911
0.003740855
0.003745441
0.003744948
0.003745156
0.003745132
0.003745304
0.003745469
0.003745721
0.003746058
0.003746507
0.003747144
0.003747966
0.0037492
0.003750683
0.003751227
0.003750914
0.003750586
0.003750235
0.003749898
0.00374951
0.003740947
0.0037455
0.003745011
0.00374523
0.003745211
0.00374539
0.003745558
0.003745808
0.003746125
0.003746533
0.003747065
0.003747714
0.003748547
0.003749499
0.003750178
0.003750292
0.003750169
0.003749975
0.003749733
0.003749453
0.003740975
0.003745539
0.003745053
0.003745275
0.003745257
0.003745436
0.003745599
0.003745836
0.003746127
0.003746487
0.003746933
0.003747457
0.003748052
0.003748726
0.0037492
0.003749377
0.003749407
0.003749333
0.003749196
0.003749003
0.003741017
0.003745555
0.003745072
0.003745292
0.003745273
0.003745446
0.0037456
0.00374582
0.00374608
0.003746393
0.003746763
0.003747184
0.00374764
0.003748115
0.003748499
0.00374871
0.003748809
0.003748817
0.00374876
0.00374864
0.003741059
0.003745548
0.003745067
0.003745281
0.003745261
0.003745426
0.003745569
0.003745769
0.003746
0.003746272
0.003746584
0.003746928
0.003747292
0.003747659
0.003747967
0.003748178
0.003748309
0.003748368
0.003748368
0.003748306
0.00374114
0.003745521
0.003745043
0.003745247
0.003745225
0.00374538
0.003745511
0.003745692
0.003745897
0.003746134
0.003746399
0.003746687
0.003746986
0.003747284
0.003747549
0.003747757
0.003747914
0.003748018
0.003748073
0.003748073
0.003741018
0.003745478
0.003744999
0.003745189
0.003745169
0.003745313
0.003745432
0.003745596
0.003745778
0.003745986
0.003746215
0.00374646
0.003746715
0.003746968
0.003747204
0.003747409
0.003747584
0.003747725
0.003747834
0.003747897
0.003740877
0.003745424
0.003744936
0.00374512
0.003745096
0.003745228
0.003745336
0.003745485
0.003745648
0.003745832
0.003746033
0.003746246
0.003746468
0.003746691
0.003746908
0.003747112
0.003747306
0.003747487
0.003747661
0.00374781
0.003740701
0.003745342
0.003744853
0.003745033
0.003745006
0.003745128
0.003745228
0.003745363
0.00374551
0.003745675
0.003745853
0.003746042
0.003746238
0.003746438
0.00374664
0.003746843
0.003747053
0.003747271
0.003747514
0.003747753
0.003740461
0.003745248
0.003744765
0.003744933
0.003744902
0.003745015
0.003745108
0.003745232
0.003745366
0.003745516
0.003745675
0.003745844
0.00374602
0.0037462
0.003746388
0.003746586
0.00374681
0.003747067
0.003747399
0.003747785
0.003740258
0.003745142
0.00374466
0.003744818
0.003744786
0.003744892
0.003744979
0.003745095
0.003745219
0.003745355
0.003745501
0.003745652
0.003745809
0.00374597
0.003746138
0.00374632
0.003746541
0.003746811
0.00374721
0.003747757
0.003641405
0.003641449
0.003641479
0.003641469
0.003641457
0.003641461
0.003641454
0.003641445
0.003641436
0.003641431
0.003641423
0.00364141
0.003641357
0.00364162
0.003641357
0.003641364
0.003641369
0.003641374
0.003641367
0.003641367
0.003641369
0.003641372
0.003641377
0.003641384
0.003641393
0.00364141
0.003641564
0.003742531
0.00364139
0.003641376
0.00364137
0.003641369
0.003641371
0.003641374
0.003641379
0.003641385
0.003641394
0.003641406
0.00364142
0.00364144
0.003641649
0.003742861
0.0036414
0.003641372
0.003641375
0.003641379
0.003641383
0.003641389
0.003641397
0.003641408
0.003641423
0.003641443
0.00364147
0.003641519
0.003641772
0.003743447
0.003641406
0.003641379
0.003641382
0.003641385
0.003641393
0.003641402
0.003641414
0.00364143
0.003641453
0.003641486
0.003641532
0.003641613
0.003641968
0.003744163
0.003641417
0.003641383
0.003641389
0.003641394
0.003641404
0.003641415
0.003641432
0.003641454
0.003641488
0.003641541
0.003641615
0.003641768
0.003642284
0.003745144
0.003641426
0.00364139
0.003641395
0.003641401
0.003641413
0.003641427
0.003641448
0.003641477
0.003641522
0.003641597
0.003641728
0.003642003
0.003643067
0.00374607
0.003641432
0.003641395
0.0036414
0.003641407
0.003641421
0.003641437
0.003641462
0.003641498
0.003641558
0.00364167
0.003641892
0.003642443
0.003643551
0.003644878
0.003641438
0.0036414
0.003641404
0.003641412
0.003641426
0.003641444
0.003641471
0.003641512
0.003641582
0.003641712
0.003642006
0.00364269
0.003645673
0.003664128
0.003641443
0.003641402
0.003641406
0.003641414
0.003641428
0.003641446
0.003641472
0.003641511
0.003641574
0.003641689
0.003641915
0.003642456
0.003643851
0.003653357
0.003664878
0.003643412
0.003642561
0.003642395
0.003642214
0.003642168
0.003641447
0.003641404
0.003641407
0.003641414
0.003641427
0.003641444
0.003641468
0.003641502
0.003641553
0.003641639
0.003641783
0.003642098
0.003642707
0.003643285
0.00364324
0.003642759
0.003642603
0.003642242
0.003642102
0.003641894
0.00364145
0.003641404
0.003641406
0.003641412
0.003641424
0.00364144
0.00364146
0.003641488
0.003641528
0.003641586
0.003641671
0.003641811
0.003642055
0.003642371
0.003642561
0.003642371
0.003642129
0.003641999
0.003641926
0.003641883
0.003641452
0.003641403
0.003641405
0.00364141
0.00364142
0.003641433
0.00364145
0.003641473
0.003641503
0.003641543
0.0036416
0.00364168
0.003641784
0.003641907
0.003641947
0.003641936
0.003641902
0.003641849
0.003641823
0.003641786
0.003641453
0.003641402
0.003641403
0.003641406
0.003641416
0.003641427
0.003641442
0.003641461
0.003641486
0.003641518
0.003641561
0.003641618
0.003641689
0.003641768
0.003641811
0.003641804
0.003641773
0.003641744
0.003641721
0.003641699
0.003641452
0.003641402
0.003641403
0.003641406
0.003641415
0.003641426
0.00364144
0.003641458
0.00364148
0.003641508
0.003641542
0.003641583
0.003641627
0.00364167
0.003641697
0.003641702
0.003641697
0.003641684
0.00364167
0.003641655
0.003641451
0.003641403
0.003641404
0.003641408
0.003641417
0.003641428
0.003641441
0.003641457
0.003641477
0.0036415
0.003641528
0.003641559
0.003641592
0.003641624
0.003641646
0.003641654
0.003641653
0.003641645
0.003641633
0.003641621
0.003641448
0.003641403
0.003641404
0.003641408
0.003641417
0.003641428
0.003641441
0.003641456
0.003641473
0.003641493
0.003641516
0.003641541
0.003641567
0.003641591
0.003641609
0.003641619
0.003641622
0.003641619
0.003641611
0.003641601
0.003641446
0.003641402
0.003641403
0.003641408
0.003641417
0.003641427
0.003641439
0.003641453
0.003641469
0.003641486
0.003641506
0.003641526
0.003641548
0.003641568
0.003641585
0.003641597
0.003641604
0.003641607
0.003641604
0.003641599
0.003641443
0.003641399
0.003641402
0.003641406
0.003641416
0.003641426
0.003641437
0.00364145
0.003641464
0.003641479
0.003641496
0.003641514
0.003641532
0.00364155
0.003641567
0.003641581
0.003641593
0.003641602
0.003641609
0.003641616
0.003641439
0.003641396
0.003641399
0.003641404
0.003641414
0.003641423
0.003641434
0.003641446
0.003641458
0.003641472
0.003641487
0.003641502
0.003641518
0.003641535
0.003641551
0.003641569
0.003641587
0.003641609
0.003641634
0.003641691
0.003641434
0.003641393
0.003641397
0.003641402
0.003641411
0.00364142
0.00364143
0.003641441
0.003641453
0.003641465
0.003641477
0.003641491
0.003641505
0.00364152
0.003641537
0.003641557
0.003641583
0.00364162
0.003641685
0.003641822
0.003641387
0.003642501
0.003745478
0.00374522
0.003744961
0.003744842
0.003744679
0.003744507
0.003744306
0.003744099
0.003744
0.003744001
0.003641467
0.003641626
0.003641365
0.003641367
0.003641371
0.003641368
0.003641365
0.003641363
0.003641363
0.003641365
0.003641368
0.003641372
0.003641377
0.003641394
0.003641536
0.003742324
0.003641392
0.003641347
0.003641353
0.003641353
0.003641354
0.003641357
0.003641361
0.003641366
0.003641375
0.003641385
0.003641398
0.003641412
0.003641601
0.003742569
0.003641362
0.003641343
0.003641355
0.00364136
0.003641365
0.00364137
0.003641378
0.003641388
0.003641401
0.003641421
0.003641447
0.003641483
0.003641728
0.00374318
0.003641372
0.00364135
0.00364136
0.003641366
0.003641374
0.003641383
0.003641395
0.00364141
0.003641432
0.003641464
0.00364151
0.003641571
0.003641917
0.003743938
0.003641378
0.003641355
0.003641366
0.003641374
0.003641385
0.003641397
0.003641413
0.003641435
0.003641467
0.003641518
0.003641591
0.003641725
0.003642224
0.003744994
0.003641383
0.00364136
0.003641371
0.003641381
0.003641393
0.003641408
0.003641429
0.003641457
0.003641503
0.003641574
0.003641705
0.003641941
0.003643022
0.003746091
0.003641388
0.003641365
0.003641376
0.003641387
0.003641401
0.003641418
0.003641442
0.003641478
0.003641538
0.003641645
0.003641864
0.003642365
0.003643457
0.00364414
0.003641393
0.003641369
0.003641379
0.00364139
0.003641405
0.003641424
0.003641451
0.003641492
0.003641561
0.003641687
0.003641972
0.003642609
0.003645575
0.003664026
0.003645121
0.003648024
0.003644702
0.003641397
0.003641371
0.003641381
0.003641392
0.003641407
0.003641426
0.003641452
0.003641491
0.003641553
0.003641664
0.00364188
0.003642409
0.003643753
0.003652922
0.003665052
0.003643245
0.003642517
0.003642143
0.00364194
0.003641837
0.003641401
0.003641372
0.003641382
0.003641392
0.003641406
0.003641424
0.003641448
0.003641482
0.003641533
0.003641618
0.003641751
0.003642056
0.003642646
0.003643237
0.00364323
0.003642801
0.003642545
0.003642097
0.003641948
0.003641935
0.003641402
0.003641371
0.003641381
0.003641391
0.003641403
0.00364142
0.00364144
0.003641469
0.003641508
0.003641566
0.003641649
0.003641781
0.003642026
0.003642327
0.003642513
0.003642266
0.003642061
0.003641908
0.00364181
0.003641776
0.003641402
0.00364137
0.00364138
0.003641388
0.003641399
0.003641413
0.003641431
0.003641454
0.003641484
0.003641525
0.003641581
0.00364166
0.003641771
0.003641896
0.00364193
0.003641922
0.003641875
0.003641824
0.003641797
0.003641772
0.003641401
0.003641369
0.003641377
0.003641385
0.003641395
0.003641407
0.003641422
0.003641442
0.003641467
0.0036415
0.003641542
0.003641599
0.003641671
0.003641749
0.003641791
0.00364178
0.003641749
0.003641717
0.003641693
0.003641673
0.003641401
0.003641369
0.003641377
0.003641385
0.003641394
0.003641406
0.003641421
0.003641439
0.003641461
0.003641489
0.003641524
0.003641565
0.00364161
0.003641654
0.00364168
0.003641685
0.003641679
0.003641665
0.003641652
0.003641639
0.003641401
0.00364137
0.003641378
0.003641386
0.003641396
0.003641408
0.003641422
0.003641439
0.003641458
0.003641482
0.00364151
0.003641542
0.003641575
0.003641606
0.003641628
0.003641636
0.003641634
0.003641626
0.003641615
0.003641603
0.003641401
0.003641369
0.003641379
0.003641387
0.003641397
0.003641409
0.003641422
0.003641437
0.003641455
0.003641475
0.003641499
0.003641524
0.003641549
0.003641573
0.003641592
0.003641602
0.003641605
0.003641601
0.003641594
0.003641585
0.003641399
0.00364137
0.003641378
0.003641386
0.003641397
0.003641408
0.003641421
0.003641435
0.003641451
0.003641469
0.003641488
0.003641509
0.00364153
0.003641551
0.003641568
0.00364158
0.003641587
0.003641589
0.003641586
0.003641582
0.003641396
0.003641368
0.003641376
0.003641385
0.003641395
0.003641407
0.003641419
0.003641432
0.003641446
0.003641462
0.003641479
0.003641497
0.003641515
0.003641533
0.00364155
0.003641564
0.003641576
0.003641585
0.003641592
0.003641598
0.003641391
0.003641365
0.003641374
0.003641383
0.003641393
0.003641404
0.003641416
0.003641428
0.003641441
0.003641455
0.00364147
0.003641485
0.003641501
0.003641518
0.003641535
0.003641552
0.00364157
0.003641592
0.003641616
0.003641669
0.003641386
0.003641362
0.003641371
0.00364138
0.003641391
0.003641401
0.003641412
0.003641423
0.003641435
0.003641448
0.00364146
0.003641474
0.003641488
0.003641503
0.00364152
0.00364154
0.003641565
0.003641601
0.003641664
0.003641791
0.003641387
0.003642608
0.003745102
0.00374473
0.003744389
0.003744231
0.003744042
0.003743841
0.003743618
0.003743398
0.003743384
0.003743499
0.003641478
0.003641637
0.003641376
0.003641365
0.003641373
0.003641368
0.003641365
0.003641361
0.003641361
0.003641361
0.003641363
0.003641367
0.003641372
0.003641391
0.00364153
0.00374225
0.00364137
0.003641347
0.003641351
0.003641351
0.003641352
0.003641354
0.003641358
0.003641363
0.00364137
0.003641379
0.003641391
0.003641406
0.003641594
0.003742477
0.003641355
0.00364134
0.003641352
0.003641357
0.003641364
0.003641368
0.003641375
0.003641384
0.003641397
0.003641416
0.003641441
0.003641479
0.003641726
0.003743069
0.003641365
0.003641346
0.003641355
0.003641362
0.003641371
0.00364138
0.003641392
0.003641406
0.003641427
0.003641459
0.003641504
0.003641568
0.003641915
0.003743846
0.003641368
0.003641351
0.003641361
0.00364137
0.003641381
0.003641394
0.003641409
0.003641431
0.003641463
0.003641515
0.003641586
0.003641724
0.003642229
0.003744926
0.003641374
0.003641356
0.003641366
0.003641376
0.003641389
0.003641405
0.003641425
0.003641454
0.003641499
0.003641571
0.003641702
0.003641941
0.003643026
0.003746049
0.003641379
0.00364136
0.003641371
0.003641381
0.003641396
0.003641414
0.003641439
0.003641475
0.003641536
0.003641642
0.003641863
0.003642355
0.003643471
0.00364405
0.003641384
0.003641363
0.003641374
0.003641385
0.003641401
0.00364142
0.003641448
0.003641488
0.003641558
0.003641683
0.003641967
0.003642605
0.003645504
0.003662967
0.003644344
0.003645956
0.003643576
0.003641388
0.003641365
0.003641376
0.003641387
0.003641402
0.003641422
0.003641448
0.003641487
0.00364155
0.003641663
0.003641878
0.003642412
0.003643723
0.003651879
0.0036687
0.003643033
0.003642446
0.003642327
0.003641993
0.003641886
0.003641391
0.003641366
0.003641377
0.003641387
0.003641402
0.00364142
0.003641445
0.003641479
0.003641531
0.003641616
0.003641754
0.003642059
0.003642651
0.003643222
0.003643133
0.003642743
0.003642508
0.003642031
0.003641866
0.003641927
0.003641393
0.003641367
0.003641376
0.003641385
0.003641399
0.003641416
0.003641437
0.003641466
0.003641506
0.003641564
0.003641647
0.003641778
0.003642019
0.003642327
0.003642512
0.003642258
0.003642026
0.003641864
0.003641782
0.003641754
0.003641394
0.003641366
0.003641375
0.003641383
0.003641395
0.00364141
0.003641428
0.003641451
0.003641481
0.003641523
0.00364158
0.00364166
0.003641766
0.003641887
0.00364192
0.003641918
0.003641875
0.003641803
0.003641777
0.003641757
0.003641394
0.003641365
0.003641373
0.00364138
0.003641391
0.003641404
0.00364142
0.00364144
0.003641465
0.003641498
0.003641541
0.003641599
0.00364167
0.003641748
0.003641788
0.003641778
0.003641744
0.003641709
0.003641687
0.003641669
0.003641394
0.003641365
0.003641373
0.003641379
0.00364139
0.003641403
0.003641418
0.003641436
0.003641459
0.003641488
0.003641523
0.003641564
0.003641609
0.003641652
0.003641678
0.003641684
0.003641678
0.003641662
0.00364165
0.003641637
0.003641393
0.003641366
0.003641374
0.003641381
0.003641392
0.003641404
0.003641419
0.003641436
0.003641457
0.003641481
0.003641509
0.003641541
0.003641574
0.003641606
0.003641627
0.003641636
0.003641633
0.003641625
0.003641614
0.003641603
0.003641392
0.003641365
0.003641374
0.003641381
0.003641393
0.003641405
0.003641419
0.003641435
0.003641453
0.003641474
0.003641498
0.003641523
0.003641549
0.003641573
0.003641591
0.003641602
0.003641604
0.003641601
0.003641594
0.003641585
0.003641389
0.003641364
0.003641373
0.003641381
0.003641392
0.003641405
0.003641418
0.003641433
0.00364145
0.003641468
0.003641488
0.003641509
0.00364153
0.00364155
0.003641568
0.00364158
0.003641587
0.003641589
0.003641587
0.003641583
0.003641386
0.003641362
0.003641371
0.00364138
0.003641391
0.003641404
0.003641416
0.00364143
0.003641445
0.003641461
0.003641478
0.003641496
0.003641515
0.003641533
0.003641549
0.003641564
0.003641576
0.003641585
0.003641592
0.003641599
0.003641382
0.003641359
0.003641369
0.003641378
0.00364139
0.003641401
0.003641414
0.003641426
0.00364144
0.003641454
0.003641469
0.003641485
0.003641501
0.003641517
0.003641534
0.003641552
0.00364157
0.003641592
0.003641616
0.003641668
0.003641377
0.003641356
0.003641366
0.003641375
0.003641387
0.003641398
0.00364141
0.003641422
0.003641434
0.003641447
0.00364146
0.003641473
0.003641488
0.003641503
0.00364152
0.00364154
0.003641566
0.003641601
0.003641663
0.003641791
0.003641389
0.003642612
0.003744944
0.003744501
0.003744102
0.003743927
0.003743718
0.003743509
0.003743275
0.003743067
0.003743097
0.003743319
0.003641477
0.003641639
0.003641371
0.003641368
0.003641376
0.003641366
0.003641366
0.003641361
0.00364136
0.003641361
0.003641362
0.003641366
0.003641369
0.003641389
0.003641526
0.003742229
0.003641372
0.00364135
0.003641353
0.003641352
0.003641352
0.003641353
0.003641357
0.003641361
0.003641367
0.003641376
0.003641388
0.003641403
0.003641591
0.003742446
0.003641357
0.003641343
0.003641353
0.003641356
0.003641362
0.003641366
0.003641373
0.003641381
0.003641393
0.003641411
0.003641437
0.003641475
0.003641725
0.003743042
0.003641368
0.003641349
0.003641355
0.003641361
0.003641369
0.003641378
0.003641389
0.003641403
0.003641423
0.003641454
0.0036415
0.003641565
0.003641914
0.003743821
0.003641373
0.003641353
0.003641361
0.003641368
0.003641378
0.003641391
0.003641406
0.003641428
0.003641459
0.00364151
0.003641583
0.003641721
0.003642233
0.003744915
0.00364138
0.003641358
0.003641365
0.003641374
0.003641386
0.003641402
0.003641422
0.00364145
0.003641495
0.003641567
0.003641699
0.00364194
0.003643042
0.003746056
0.003641384
0.003641363
0.00364137
0.003641379
0.003641393
0.003641411
0.003641435
0.003641472
0.003641532
0.003641639
0.00364186
0.003642362
0.003643484
0.003644012
0.003641389
0.003641366
0.003641373
0.003641382
0.003641397
0.003641417
0.003641444
0.003641485
0.003641554
0.003641679
0.003641965
0.003642602
0.003645515
0.003663256
0.003644183
0.00364518
0.003643498
0.003641393
0.003641368
0.003641375
0.003641384
0.003641399
0.003641418
0.003641445
0.003641484
0.003641547
0.003641658
0.003641873
0.003642394
0.003643723
0.003652035
0.003665887
0.003643053
0.003642429
0.003642048
0.003641995
0.00364183
0.003641396
0.003641369
0.003641375
0.003641384
0.003641398
0.003641416
0.003641441
0.003641476
0.003641528
0.003641613
0.003641748
0.003642054
0.003642631
0.003643224
0.003643121
0.003642746
0.003642522
0.003642055
0.003641884
0.003641963
0.003641398
0.00364137
0.003641375
0.003641382
0.003641395
0.003641412
0.003641434
0.003641463
0.003641503
0.003641561
0.003641644
0.003641776
0.003642017
0.003642317
0.003642513
0.003642262
0.003642042
0.003641875
0.003641789
0.003641763
0.003641399
0.003641369
0.003641373
0.00364138
0.003641391
0.003641406
0.003641424
0.003641448
0.003641479
0.003641521
0.003641578
0.003641658
0.003641765
0.003641886
0.00364192
0.003641921
0.003641882
0.003641811
0.003641785
0.003641768
0.0036414
0.003641368
0.003641372
0.003641377
0.003641387
0.0036414
0.003641416
0.003641437
0.003641463
0.003641496
0.00364154
0.003641598
0.00364167
0.003641747
0.003641789
0.003641779
0.003641746
0.003641711
0.003641688
0.003641672
0.003641399
0.003641368
0.003641371
0.003641377
0.003641386
0.003641399
0.003641415
0.003641434
0.003641457
0.003641486
0.003641522
0.003641563
0.003641608
0.003641652
0.003641678
0.003641685
0.003641679
0.003641664
0.003641651
0.003641639
0.003641399
0.003641368
0.003641372
0.003641378
0.003641388
0.003641401
0.003641416
0.003641434
0.003641455
0.003641479
0.003641508
0.00364154
0.003641574
0.003641606
0.003641627
0.003641636
0.003641634
0.003641625
0.003641615
0.003641604
0.003641397
0.003641368
0.003641372
0.003641378
0.003641389
0.003641402
0.003641416
0.003641433
0.003641452
0.003641473
0.003641497
0.003641522
0.003641548
0.003641573
0.003641591
0.003641602
0.003641605
0.003641601
0.003641594
0.003641586
0.003641395
0.003641366
0.003641371
0.003641378
0.003641389
0.003641401
0.003641416
0.003641431
0.003641448
0.003641467
0.003641487
0.003641508
0.00364153
0.00364155
0.003641567
0.00364158
0.003641587
0.003641589
0.003641587
0.003641584
0.003641391
0.003641364
0.003641369
0.003641377
0.003641388
0.0036414
0.003641414
0.003641428
0.003641444
0.00364146
0.003641478
0.003641496
0.003641514
0.003641532
0.003641549
0.003641564
0.003641576
0.003641585
0.003641592
0.0036416
0.003641387
0.003641362
0.003641367
0.003641375
0.003641386
0.003641398
0.003641411
0.003641425
0.003641439
0.003641453
0.003641468
0.003641484
0.003641501
0.003641517
0.003641534
0.003641552
0.003641571
0.003641592
0.003641617
0.003641669
0.003641382
0.003641359
0.003641364
0.003641372
0.003641383
0.003641396
0.003641408
0.00364142
0.003641433
0.003641446
0.003641459
0.003641473
0.003641487
0.003641503
0.00364152
0.00364154
0.003641566
0.003641601
0.003641664
0.00364179
0.003641391
0.00364262
0.003744893
0.003744425
0.003743998
0.003743821
0.003743609
0.003743394
0.003743161
0.003742952
0.003743006
0.003743262
0.003641475
0.003641639
0.003641371
0.003641371
0.003641377
0.003641366
0.003641367
0.003641362
0.00364136
0.003641361
0.003641362
0.003641365
0.00364137
0.003641389
0.003641526
0.003742219
0.003641375
0.003641352
0.003641355
0.003641351
0.003641351
0.003641353
0.003641356
0.00364136
0.003641366
0.003641374
0.003641386
0.003641402
0.003641591
0.003742439
0.003641358
0.003641345
0.003641354
0.003641357
0.003641362
0.003641365
0.003641372
0.00364138
0.003641391
0.003641409
0.003641435
0.003641474
0.003641725
0.003743031
0.003641372
0.003641351
0.003641356
0.003641361
0.003641368
0.003641376
0.003641387
0.003641401
0.003641421
0.003641451
0.003641497
0.003641563
0.003641915
0.003743812
0.003641375
0.003641356
0.003641361
0.003641368
0.003641377
0.003641389
0.003641404
0.003641425
0.003641456
0.003641507
0.00364158
0.003641721
0.003642236
0.00374491
0.003641383
0.003641361
0.003641366
0.003641373
0.003641384
0.003641399
0.003641419
0.003641447
0.003641492
0.003641564
0.003641696
0.003641939
0.003643046
0.003746051
0.003641387
0.003641365
0.00364137
0.003641378
0.003641391
0.003641408
0.003641432
0.003641469
0.003641529
0.003641636
0.003641858
0.003642363
0.003643508
0.003644139
0.003641392
0.003641369
0.003641373
0.003641382
0.003641395
0.003641414
0.003641441
0.003641482
0.003641551
0.003641676
0.003641961
0.003642598
0.00364546
0.003664659
0.003644286
0.003645555
0.003643524
0.003641396
0.003641371
0.003641375
0.003641383
0.003641396
0.003641415
0.003641442
0.003641481
0.003641544
0.003641655
0.003641868
0.003642385
0.003643704
0.003651885
0.003666057
0.003643012
0.003642442
0.003642116
0.003641877
0.003641866
0.0036414
0.003641372
0.003641376
0.003641383
0.003641396
0.003641413
0.003641438
0.003641473
0.003641525
0.00364161
0.003641747
0.003642051
0.003642624
0.00364322
0.003643101
0.003642751
0.003642521
0.003642051
0.003641842
0.00364194
0.003641402
0.003641372
0.003641375
0.003641382
0.003641393
0.003641409
0.003641431
0.00364146
0.003641501
0.003641559
0.003641642
0.003641773
0.003642013
0.003642313
0.003642509
0.003642259
0.003642028
0.003641868
0.003641779
0.00364175
0.003641403
0.003641372
0.003641374
0.003641379
0.003641389
0.003641403
0.003641421
0.003641446
0.003641477
0.003641519
0.003641576
0.003641656
0.003641762
0.003641883
0.003641916
0.00364192
0.003641881
0.003641798
0.003641775
0.003641764
0.003641403
0.003641371
0.003641372
0.003641376
0.003641385
0.003641397
0.003641414
0.003641434
0.003641461
0.003641495
0.003641539
0.003641597
0.003641668
0.003641746
0.003641785
0.003641777
0.003641742
0.003641707
0.003641685
0.003641669
0.003641403
0.003641371
0.003641372
0.003641376
0.003641384
0.003641396
0.003641412
0.003641432
0.003641456
0.003641485
0.003641521
0.003641562
0.003641607
0.003641651
0.003641677
0.003641683
0.003641678
0.003641661
0.003641649
0.003641638
0.003641403
0.003641371
0.003641372
0.003641377
0.003641386
0.003641398
0.003641413
0.003641432
0.003641453
0.003641478
0.003641507
0.003641539
0.003641573
0.003641605
0.003641627
0.003641635
0.003641633
0.003641624
0.003641614
0.003641603
0.003641401
0.00364137
0.003641372
0.003641378
0.003641387
0.003641399
0.003641414
0.003641431
0.00364145
0.003641472
0.003641496
0.003641522
0.003641548
0.003641572
0.003641591
0.003641601
0.003641604
0.003641601
0.003641594
0.003641586
0.003641398
0.003641369
0.003641371
0.003641377
0.003641387
0.003641399
0.003641413
0.003641429
0.003641447
0.003641466
0.003641486
0.003641507
0.003641529
0.00364155
0.003641567
0.00364158
0.003641587
0.003641589
0.003641587
0.003641584
0.003641394
0.003641367
0.003641369
0.003641376
0.003641386
0.003641398
0.003641412
0.003641427
0.003641442
0.003641459
0.003641477
0.003641495
0.003641514
0.003641532
0.003641549
0.003641564
0.003641576
0.003641586
0.003641593
0.003641602
0.00364139
0.003641364
0.003641367
0.003641374
0.003641384
0.003641396
0.003641409
0.003641423
0.003641438
0.003641452
0.003641468
0.003641484
0.0036415
0.003641517
0.003641534
0.003641552
0.00364157
0.003641592
0.003641616
0.003641665
0.003641385
0.003641361
0.003641364
0.003641371
0.003641381
0.003641393
0.003641406
0.003641419
0.003641432
0.003641445
0.003641459
0.003641473
0.003641487
0.003641502
0.003641519
0.00364154
0.003641566
0.003641601
0.003641663
0.003641792
0.003641391
0.003642601
0.003744874
0.003744407
0.003743963
0.003743788
0.003743573
0.003743357
0.003743123
0.00374292
0.003742977
0.003743247
0.003641476
0.00364164
0.003641371
0.003641372
0.003641378
0.003641366
0.003641367
0.003641362
0.003641361
0.003641361
0.003641362
0.003641365
0.003641369
0.003641388
0.003641526
0.003742217
0.003641376
0.003641353
0.003641356
0.003641351
0.003641351
0.003641352
0.003641355
0.003641359
0.003641366
0.003641374
0.003641386
0.003641401
0.003641591
0.003742439
0.003641359
0.003641347
0.003641355
0.003641358
0.003641362
0.003641365
0.003641371
0.003641379
0.00364139
0.003641408
0.003641434
0.003641473
0.003641725
0.003743028
0.003641373
0.003641353
0.003641357
0.003641361
0.003641368
0.003641375
0.003641386
0.003641399
0.003641419
0.00364145
0.003641496
0.003641562
0.003641914
0.003743811
0.003641376
0.003641357
0.003641362
0.003641368
0.003641376
0.003641387
0.003641402
0.003641423
0.003641454
0.003641505
0.003641579
0.00364172
0.003642237
0.003744909
0.003641384
0.003641363
0.003641367
0.003641373
0.003641384
0.003641397
0.003641417
0.003641445
0.00364149
0.003641562
0.003641695
0.003641938
0.003643047
0.003746051
0.003641388
0.003641367
0.003641371
0.003641378
0.00364139
0.003641406
0.00364143
0.003641466
0.003641527
0.003641634
0.003641856
0.003642362
0.003643507
0.003644172
0.003641393
0.00364137
0.003641374
0.003641381
0.003641394
0.003641412
0.003641438
0.003641479
0.003641549
0.003641674
0.00364196
0.003642595
0.003645446
0.003664648
0.003644181
0.003644997
0.003643469
0.003641397
0.003641373
0.003641376
0.003641383
0.003641395
0.003641413
0.003641439
0.003641479
0.003641542
0.003641653
0.003641866
0.003642381
0.003643697
0.003651876
0.003666048
0.003643044
0.003642411
0.003642036
0.00364199
0.003641808
0.003641401
0.003641374
0.003641376
0.003641383
0.003641394
0.003641411
0.003641436
0.003641471
0.003641523
0.003641608
0.003641744
0.003642048
0.003642618
0.003643215
0.003643096
0.003642737
0.003642522
0.003642044
0.003641881
0.003641955
0.003641403
0.003641374
0.003641376
0.003641381
0.003641392
0.003641407
0.003641428
0.003641458
0.003641499
0.003641557
0.00364164
0.003641771
0.003642011
0.003642311
0.003642509
0.003642259
0.003642034
0.003641869
0.003641784
0.003641755
0.003641404
0.003641374
0.003641374
0.003641379
0.003641388
0.003641401
0.003641419
0.003641444
0.003641475
0.003641517
0.003641575
0.003641655
0.003641761
0.003641881
0.003641916
0.003641918
0.003641881
0.003641805
0.003641781
0.003641766
0.003641405
0.003641373
0.003641372
0.003641376
0.003641384
0.003641395
0.003641411
0.003641433
0.003641459
0.003641494
0.003641538
0.003641596
0.003641667
0.003641745
0.003641786
0.003641777
0.003641744
0.003641709
0.003641687
0.003641671
0.003641404
0.003641373
0.003641372
0.003641376
0.003641383
0.003641394
0.00364141
0.00364143
0.003641454
0.003641484
0.00364152
0.003641561
0.003641607
0.00364165
0.003641677
0.003641684
0.003641679
0.003641662
0.00364165
0.003641639
0.003641404
0.003641373
0.003641373
0.003641377
0.003641385
0.003641396