/*--------------------------------*- C++ -*----------------------------------*\
  =========                 |
  \\      /  F ield         | OpenFOAM: The Open Source CFD Toolbox
   \\    /   O peration     | Website:  https://openfoam.org
    \\  /    A nd           | Version:  7
     \\/     M anipulation  |
\*---------------------------------------------------------------------------*/
FoamFile
{
    version     2.0;
    format      ascii;
    class       surfaceScalarField;
    location    "0.03";
    object      phi;
}
// * * * * * * * * * * * * * * * * * * * * * * * * * * * * * * * * * * * * * //

dimensions      [0 3 -1 0 0 0 0];

internalField   nonuniform List<scalar> 
161064
(
9.043075e-05
0.0005704393
-0.002351847
-3.409824e-05
-0.0001533373
-7.697452e-05
8.553669e-05
-1.244396e-06
0.0005366492
0.000676856
0.0006575896
0.0001549793
0.00237797
-0.002243227
-0.0001660036
-0.0001683807
-7.775661e-05
8.480259e-05
3.761567e-05
0.0001444717
0.002287134
-0.002228114
-0.0001402668
-0.0001310625
-6.084621e-05
8.842786e-05
4.025539e-05
0.0001431173
0.002269118
-0.002178103
-0.000179045
-9.444594e-05
-8.803174e-05
7.767298e-05
4.971742e-05
0.0001732454
0.002207355
-0.002125617
-0.0002177545
-0.0001075791
-6.090955e-05
8.803331e-05
4.322755e-05
0.0001705419
0.002143189
-0.002044469
-0.0002493958
-0.0001124778
-5.26306e-05
9.259331e-05
5.26497e-05
0.0001632706
0.002035502
-0.001925079
-0.0002690496
-0.0001077625
-4.442501e-05
9.222095e-05
5.53234e-05
0.0001573755
0.001899958
-0.001782073
-0.0002917264
-0.0001040093
-3.325692e-05
9.242349e-05
6.130947e-05
0.0001299403
0.001746777
-0.001612615
-0.0003069152
-8.269203e-05
-1.836265e-05
8.739772e-05
5.646977e-05
0.0001297812
-0.001387483
-0.0003239871
-8.063144e-05
-9.307723e-06
8.471097e-05
4.970461e-05
0.001537213
0.0001089915
0.001301204
-0.001119372
-0.0003411286
-7.388863e-05
-1.093018e-05
7.576431e-05
5.935963e-05
9.268086e-05
0.001010685
-0.0008175072
-0.0003663495
-7.154145e-05
1.886338e-05
7.50612e-05
5.81075e-05
7.56859e-05
0.0006824439
-0.0004885299
-0.0003475179
-4.956609e-05
1.436213e-05
5.953424e-05
5.358763e-05
5.653738e-05
0.0003534657
-0.000367116
9.543742e-06
3.245835e-05
5.705945e-05
4.845918e-05
-3.233957e-05
-4.452015e-05
-5.346135e-05
-6.008687e-05
0.0005534246
-0.0001046702
-0.002105725
5.186487e-05
-0.0001776332
0.0005582786
0.0006131922
0.000611268
-0.008825166
-0.0005316925
2.064256e-05
0.0002798767
-0.0003597046
0.0002623007
1.235141e-05
0.001987574
0.002020478
0.002589557
0.002543784
-0.008477387
-0.0003487165
-1.331504e-05
0.0003538324
-0.0003686622
8.273997e-05
-5.365841e-05
-0.00824811
-0.0006796551
8.825264e-05
0.000443386
-0.0002871594
0.0001703096
3.559023e-05
-0.007905972
-0.0007883478
-1.656572e-05
0.0004610609
-0.0002607261
0.0001798625
8.257892e-05
-0.007527977
-0.001025874
-3.299672e-05
0.0004972953
-0.0002065447
0.0002337833
0.0001563428
-0.007045134
-0.001262572
-6.732529e-05
0.0005164802
-0.0001472344
0.0002754688
0.0002023399
-0.006463862
-0.001552952
-9.384865e-05
0.0005413581
-7.287944e-05
0.0003265481
0.0002705023
-0.005749949
-0.001869649
-0.0001172829
0.0005567419
1.001584e-05
0.0003869797
0.0003192816
-0.004896175
-0.002225277
-0.0001373251
0.0005768636
0.0001010854
0.0004428867
0.0003879926
-0.003880962
-0.002585196
-0.0001663275
0.0005888676
0.0002002872
0.0004964017
0.0004507548
-0.002752005
-0.002974575
-0.0001350066
0.0006064604
0.0003108612
0.0005551743
0.0005081288
-0.0002682945
-0.00327636
-6.464844e-05
-0.000517957
-0.000354907
-0.0004362813
0.0005883029
0.0004220371
0.0005962818
0.0005598209
-0.0006936851
-3.788723e-05
0.0005964836
-5.088306e-05
1.508218e-06
-2.191741e-05
-6.191379e-05
0.0005630506
2.014925e-05
-0.002137168
-2.437087e-05
-0.00021248
0.0005632728
0.0006145945
0.0006129523
-0.009003901
-0.0004946067
-0.0006154719
0.002165715
0.002150943
0.002649121
0.002616509
-0.008512713
-0.0005669652
-0.0002729395
-0.008347885
-0.0008125747
-3.190711e-05
-0.008054329
-0.00102498
-5.69238e-05
-0.00772793
-0.001315892
-3.638035e-05
-0.00728941
-0.001648
-5.309149e-05
-0.00674066
-0.002039946
-6.175466e-05
-0.006051143
-0.002485261
-7.390519e-05
-0.00521242
-0.002990271
-7.372927e-05
-0.004192779
-0.003536641
-6.819626e-05
-0.003088787
-0.004105805
2.723863e-05
-0.0002295219
-0.004632273
0.0001218226
-0.0006686606
-0.0004193932
-0.0005371209
0.000984865
-0.001082893
-1.295976e-05
-3.877147e-05
2.383069e-05
-1.885802e-05
-8.473591e-05
0.0005745702
2.282905e-05
-0.002178639
-3.680542e-05
-0.0002099555
0.0005734119
0.0006281007
0.0006264878
-0.009232412
-0.0005100473
-0.0005314136
0.002209738
0.00219782
0.002690528
0.00268118
-0.008798675
-0.0007100142
-0.0002906871
-0.008635934
-0.0009926328
1.731785e-05
-0.008361164
-0.001266765
-3.298594e-05
-0.008052696
-0.001620814
-3.545098e-06
-0.007657154
-0.00202971
-1.383073e-05
-0.007157698
-0.002528425
-1.09764e-05
-0.006515417
-0.003110611
-1.693093e-05
-0.005707859
-0.003791984
-5.845282e-06
-0.004680274
-0.004560085
-4.140996e-06
-0.003479353
-0.005404108
9.738087e-05
-0.0001889715
-0.006220996
0.0001508779
-0.0008052249
-0.0004555599
-0.0005917518
0.001473141
-0.001519958
-4.982676e-05
5.445882e-05
-1.172339e-05
-3.732737e-05
-9.773602e-05
0.0005861985
4.775907e-05
-0.002233638
-5.633144e-05
-0.0002071959
0.0005838374
0.0006417155
0.000637655
-0.009390138
-0.0005426074
-0.0006460889
0.002277994
0.00226506
0.002765239
0.002760494
-0.008955653
-0.0007885344
-0.0003559645
-0.008847611
-0.001091449
-9.224731e-06
-0.008636505
-0.00142307
-5.480066e-05
-0.008415033
-0.001834412
-7.873984e-06
-0.008097593
-0.00232973
-1.742034e-05
-0.007688555
-0.002927319
-1.014352e-05
-0.007135807
-0.003650252
-1.310678e-05
-0.006405076
-0.004529866
7.151008e-06
-0.005407706
-0.005567874
1.041978e-05
-0.004180916
-0.006786857
0.000155959
-0.0002176861
-0.008050417
0.0002073289
-0.00102756
-0.0005624266
-0.0007511516
-0.002032315
-4.865135e-05
0.002002872
-4.112547e-05
6.307814e-05
-1.205062e-05
-0.0001494937
0.0005508936
7.406932e-05
-0.002283109
-5.851996e-05
-0.0001496456
0.0005439991
0.0006597643
0.0006625482
-0.00969632
-0.0005475329
-0.0006411987
0.002333656
0.002320787
0.002846422
0.00284158
-0.00929909
-0.0008337528
-0.000352012
-0.009218273
-0.001168768
-3.498561e-06
-0.009059799
-0.001530353
-5.119103e-05
-0.008899488
-0.001985859
-8.864986e-06
-0.008683532
-0.002533348
-1.233707e-05
-0.008393811
-0.003215811
-1.230281e-06
-0.007973956
-0.004067014
-3.092829e-06
-0.007376094
-0.005145187
1.745967e-05
-0.006466188
-0.006499227
2.144624e-05
-0.005228068
-0.00820499
0.0001800123
-0.0002953217
-0.0101877
0.0002415213
-0.001339032
-0.0007431619
-0.0009547954
0.002612532
-0.002640443
-0.0001016554
-6.354267e-05
9.114522e-05
-2.252381e-05
-0.0001708337
0.000551266
5.450426e-05
-0.002343823
-3.907344e-05
-0.0001313343
0.0005511522
0.0006791689
0.0006781391
-0.009971207
-0.0005492569
-0.0006672955
0.002401613
0.002389138
0.00292795
0.002921526
-0.009595745
-0.0008322061
-0.0003770086
-0.009572447
-0.001174931
-1.713452e-05
-0.009495487
-0.001546139
-6.117332e-05
-0.009451178
-0.002022589
-7.579265e-06
-0.009374379
-0.002597411
-1.273622e-05
-0.009263149
-0.003326112
-9.274914e-07
-0.00906551
-0.004260054
-4.599423e-06
-0.008728607
-0.005507185
2.509414e-05
-0.00808768
-0.007160569
2.041467e-05
-0.007050063
-0.009533308
0.0002906997
-0.0004763732
-0.01284144
0.000307226
-0.001831284
-0.0009593145
-0.001436573
0.003380756
-0.003378578
-0.0001507621
-0.0001146392
7.75525e-05
-3.100402e-05
-0.0002596983
0.000632302
-0.002427796
-5.166472e-05
-0.0002045147
0.0006352954
0.0006924535
0.0006928799
3.104497e-05
-0.01029855
-0.0005203691
-0.0007061495
0.002485545
0.002471455
0.003010857
0.003007951
-0.009949497
-0.0007980168
-0.0003832368
-0.009980498
-0.001129702
-1.422806e-05
-0.009979577
-0.001488041
-5.901903e-05
-0.01003721
-0.001955149
-9.806338e-06
-0.01011058
-0.002510768
-1.326958e-05
-0.01020737
-0.003229016
-3.097992e-07
-0.01029516
-0.004170928
-1.337485e-06
-0.01036767
-0.005452397
1.772577e-05
-0.0103305
-0.007238551
4.080608e-05
-0.01014653
-0.009970129
0.0002528492
-0.001144337
-0.01445615
0.0007509408
-0.003214051
-0.001725316
-0.003199053
0.004411017
-0.004691844
-2.840188e-05
-0.0002344187
8.584262e-06
-0.0001741618
-0.0004351134
0.0006058839
6.731544e-05
-0.002488811
-3.412021e-05
-0.0001959999
0.0006046046
0.0007212201
0.0007199071
-0.01058313
-0.0004750649
-0.0007289027
0.002546843
0.002539562
0.003093696
0.003086625
-0.01026122
-0.0007211364
-0.0003987843
-0.01034861
-0.001023014
-1.93038e-05
-0.0104302
-0.001340827
-6.562406e-05
-0.01062632
-0.001754261
-4.765287e-06
-0.01088234
-0.002241758
-1.298652e-05
-0.01124738
-0.002864184
2.014086e-07
-0.01175533
-0.003659705
-3.26318e-06
-0.01249877
-0.004728701
1.974222e-05
-0.01370407
-0.00605284
1.958235e-05
-0.01586208
-0.008175927
0.0003638046
-0.002859407
-0.01092049
0.001022826
-0.006437261
-0.004295137
-0.00682876
0.006358203
-0.006072414
9.592779e-05
-0.0008135817
-0.0003541267
-0.0006412853
-0.001432131
0.0006687345
4.010809e-05
-0.002554566
-4.228949e-05
-0.0002356752
0.0006645493
0.0007282311
0.0007309075
-0.01084847
-0.0004028565
-0.000759598
0.00261402
0.00260003
0.003162946
0.00315886
-0.01055474
-0.0006093702
-0.0004054889
-0.01069445
-0.0008620839
-2.122363e-05
-0.01084324
-0.001126685
-6.535428e-05
-0.01113222
-0.001461138
-4.142699e-06
-0.01151794
-0.00184415
-1.188329e-05
-0.01206994
-0.00231358
1.398423e-06
-0.01284285
-0.002888094
1.294179e-06
-0.01403136
-0.003563421
2.323112e-05
-0.01582625
-0.004304864
4.691079e-05
-0.01915437
-0.005141701
0.0002938942
-0.005402172
-0.005624898
0.0009581422
-0.006260163
-0.006828676
-0.006917094
0.004372812
-0.007490333
-0.002380397
9.574551e-05
0.0006820333
0.009536533
-0.00961155
0.0001098738
7.578827e-05
-0.0006582332
0.0003160357
-0.0004504818
-0.000519565
0.008701251
-0.007737307
0.002131716
0.0007305479
-0.001229948
-0.0009456528
-0.001131045
-0.0007264142
0.007373416
-0.006750954
0.002937078
0.0008736439
-0.001320716
-0.001108446
-0.001277612
-0.000822822
0.006470277
-0.005986658
0.003270662
0.0009487019
-0.001319744
-0.001217141
-0.001343279
-0.0008600276
0.005780717
-0.005372066
0.003462923
0.0009886725
-0.001355329
-0.001284689
-0.001360202
-0.0008774153
0.005203063
0.003582456
0.0009677422
-0.001297457
-0.001311878
-0.001419086
-0.004847427
0.0006802296
-0.002602369
-4.463617e-05
-0.0002356162
0.0006775301
0.0007433274
0.0007395044
4.203043e-05
-0.01106884
-0.0003129441
-0.0007799134
0.002662615
0.00265261
0.003224493
0.003219127
-0.01079752
-0.0004704003
-0.0004102916
-0.0109695
-0.0006653174
-2.47857e-05
-0.01116565
-0.0008615795
-6.895299e-05
-0.01152588
-0.001099216
-1.694577e-06
-0.01199565
-0.001362633
-1.174991e-05
-0.01264797
-0.001661321
6.501437e-08
-0.01354309
-0.001992545
-4.288257e-07
-0.01480416
-0.002311627
9.269372e-06
-0.01656012
-0.002568741
1.984064e-05
-0.01922686
-0.002595457
0.0001204939
-0.02292904
-0.002279252
0.0003565315
-0.02599894
-0.0003377997
0.000139115
0.001999179
-0.0005389057
0.001449668
0.0003586428
-0.02623017
0.004208385
-2.176784e-05
0.0006749711
-0.002505931
-0.000325138
-0.001799295
-0.02458916
0.008032935
-0.0008311295
-0.0008216431
-0.003285364
-0.00187401
-0.002861797
-0.02274358
0.01050387
-0.0005763453
-0.001680436
-0.00371178
-0.002832046
-0.003548837
-0.02092169
0.01227684
-0.0006355923
-0.002159051
-0.004015083
-0.003350385
-0.003938623
-0.01920506
0.01339831
-0.0006107464
-0.00251746
-0.004167919
-0.003663334
-0.004155469
0.01401954
-0.0005414667
-0.002760936
-0.003873591
-0.01753205
-0.0042392
-0.004277353
0.0006308331
5.817265e-05
-0.002626171
-3.581087e-05
-0.0001680311
0.0006236698
0.0007576699
0.0007596677
-0.01123506
-0.0002124524
-0.0007702842
0.002687044
0.002676455
0.003276148
0.003265208
-0.01097785
-0.0003129414
-0.0004146752
-0.01117454
-0.0004432457
-2.53781e-05
-0.01139826
-0.0005678614
-6.999447e-05
-0.01178742
-0.000709239
-8.156388e-07
-0.01228359
-0.0008556868
-1.077671e-05
-0.01294588
-0.001000328
1.293722e-06
-0.0138111
-0.00112998
2.654532e-06
-0.01493882
-0.001194798
1.088732e-05
-0.01637858
-0.001150338
2.136367e-05
-0.01820265
-0.0008434391
7.204719e-05
-0.02047735
-0.0001296188
0.0001250687
-0.02245509
0.001424397
0.0002155455
-0.02294944
0.004379372
0.0003233601
-0.02221064
0.006776503
0.0005176294
-0.02101132
0.008718758
0.0005857858
-0.01966968
0.01021748
0.0007177205
-0.01833772
0.01126672
0.0007996297
0.0119864
0.0007521585
-0.01705674
0.0006184823
2.551798e-05
-0.002637723
-1.468956e-05
-0.0001352405
0.0006164924
0.0007643445
0.000762816
-0.01134785
-0.0001003961
-0.0007687745
0.002704524
0.002698801
0.003308028
0.003293214
-0.01109681
-0.0001476597
-0.0004163164
-0.0113008
-0.0002119643
-2.729878e-05
-0.0115332
-0.0002655457
-6.99157e-05
-0.01192735
-0.0003150517
-3.009697e-08
-0.01241778
-0.0003547026
-1.055264e-05
-0.01305136
-0.0003669812
2.237546e-07
-0.01384544
-0.0003357683
-1.305613e-07
-0.01482956
-0.0002131734
2.499408e-06
-0.01602076
4.014747e-05
7.10702e-07
-0.0174028
0.0005362988
2.307659e-06
-0.01891121
0.001388429
-9.645257e-06
-0.02014976
0.00272648
-6.352812e-05
-0.02047519
0.004737374
-3.257501e-05
-0.02014727
0.006612435
-0.0001638511
-0.01944444
0.008214118
-0.0001981892
-0.01854018
0.009508373
-0.0001951606
-0.01754893
0.0104704
-0.0001949228
0.01115876
-0.0002049123
-0.01651638
0.0006203922
1.080398e-05
-0.002649901
-2.620513e-06
-0.0001312381
0.0006199504
0.0007668975
0.0007657154
-0.01139677
1.54668e-05
-0.0007795439
0.002714971
0.002714719
0.003316608
0.003314151
-0.01114701
1.886756e-05
-0.0004162847
-0.011349
1.839022e-05
-2.835956e-05
-0.01157654
3.100304e-05
-6.900884e-05
-0.01195652
6.421957e-05
7.050157e-07
-0.01241691
0.0001156281
-9.942811e-06
-0.01299321
0.0002089515
3.642624e-07
-0.01368754
0.0003583174
2.476171e-07
-0.01450722
0.0006034953
3.016042e-06
-0.01544711
0.0009763734
3.658888e-06
-0.01646679
0.001547188
8.790346e-06
-0.01746415
0.002372052
1.374241e-05
-0.01828214
0.003519625
2.484147e-05
-0.01860376
0.0049952
6.378791e-05
-0.01849389
0.006428147
7.442432e-05
-0.01808881
0.007731187
7.784418e-05
-0.01750447
0.008819961
0.0001040789
-0.01681389
0.009670476
0.0001093348
0.01029057
9.357185e-05
-0.01603927
0.0006228503
-4.939274e-06
-0.002661265
1.772063e-05
-0.0001374856
0.0006243779
0.0007699565
0.0007687846
-0.01138343
0.0001207165
-0.000787014
0.002717147
0.002721662
0.003306041
0.003320346
-0.01112869
0.000179783
-0.0004156533
-0.01132108
0.0002392819
-2.850567e-05
-0.01153755
0.0003133615
-6.589122e-05
-0.01189286
0.0004180495
1.489336e-06
-0.01231279
0.0005449592
-9.401697e-06
-0.01282509
0.0007214923
-2.412032e-07
-0.01342341
0.0009578269
-1.193214e-06
-0.01410521
0.00128501
2.836283e-07
-0.01485516
0.00172662
-2.915738e-07
-0.01563346
0.002326009
-5.299636e-07
-0.01637059
0.003111264
-2.082207e-06
-0.01694449
0.004095579
-2.045719e-06
-0.01721895
0.005267108
2.543721e-06
-0.01721781
0.006436037
-9.028993e-06
-0.01700011
0.007528369
-1.487929e-05
-0.01663613
0.008466948
-1.097071e-05
-0.01617215
0.009219235
-1.273877e-05
0.009763342
-2.337845e-05
-0.01562154
0.000695369
-0.002685657
2.621997e-05
-0.000216812
0.0007002649
0.0007626371
0.0007565569
-3.857901e-05
-0.01131017
0.0002211816
-0.0008135948
0.002719328
0.002722493
0.0032868
0.003294681
-0.01105296
0.0003346506
-0.0004120829
-0.01123234
0.0004464299
-2.776688e-05
-0.01143033
0.0005745202
-6.316678e-05
-0.01175387
0.0007400232
1.56642e-06
-0.01212862
0.0009281401
-8.428794e-06
-0.01257537
0.001168363
-1.242249e-07
-0.01308296
0.001466406
-9.871042e-07
-0.01364366
0.001845056
6.522325e-07
-0.01423937
0.002321022
1.314283e-06
-0.01483649
0.002920519
2.608513e-06
-0.01538442
0.003654141
5.047476e-06
-0.01581956
0.004521523
9.202403e-06
-0.01606974
0.005502725
1.455679e-05
-0.01614381
0.006491838
1.827297e-05
-0.01607097
0.007435106
2.041811e-05
-0.01589413
0.008264471
2.563538e-05
-0.01564374
0.00894239
2.64615e-05
0.009419783
2.092948e-05
-0.01532111
0.0006899542
-2.354662e-05
-0.00265228
2.592564e-05
-0.0002383233
0.0006904403
0.0007549269
0.0007529025
-0.01119373
0.0003176089
-0.0008147769
0.00269196
0.002699859
0.003254775
0.003265487
-0.01092493
0.0004751192
-0.0004092657
-0.01108181
0.0006353756
-3.207228e-05
-0.0112638
0.000813849
-5.733779e-05
-0.0115537
0.001027752
2.168956e-06
-0.01188393
0.001265216
-6.840173e-06
-0.01226962
0.001553669
3.812471e-07
-0.01269755
0.001895076
-7.387147e-07
-0.01315955
0.002306689
3.626816e-07
-0.01363898
0.002799943
5.121877e-07
-0.01410928
0.003389836
9.863195e-07
-0.01453722
0.004080305
1.770453e-06
-0.01488459
0.004866032
2.865022e-06
-0.01511508
0.005728332
4.877822e-06
-0.01523528
0.006606357
5.683156e-06
-0.01526669
0.007459154
7.358804e-06
-0.01524045
0.008228438
9.788192e-06
-0.01518385
0.008877382
8.406329e-06
0.009328215
2.433786e-06
-0.01509471
0.0006798452
-3.12569e-05
-0.002608017
2.597201e-05
-0.0002286658
0.0006807714
0.0007429267
0.0007384248
-0.01103999
0.0003989645
-0.0007762416
0.002647239
0.002659375
0.003208047
0.003220213
-0.01075586
0.0005967477
-0.0004057563
-0.01089734
0.0008043908
-2.753605e-05
-0.01105291
0.001024227
-5.480915e-05
-0.01130738
0.001280088
2.1413e-06
-0.01159462
0.001557945
-5.498137e-06
-0.01192466
0.001883119
5.913263e-07
-0.01228414
0.00225539
-8.285428e-07
-0.01266491
0.002687481
-2.881985e-08
-0.01305223
0.003187185
7.781615e-08
-0.01342669
0.003763776
5.278422e-07
-0.01376658
0.004418915
1.28011e-06
-0.01405095
0.005147997
2.405529e-06
-0.01426467
0.005938032
4.021037e-06
-0.01441821
0.006753655
6.236336e-06
-0.01453593
0.007568244
8.635072e-06
-0.01465213
0.008332297
1.233263e-05
-0.01480066
0.00901352
1.239281e-05
0.009499566
1.371266e-05
-0.01498572
0.0006114873
-1.612011e-05
-0.00255073
2.800632e-05
-0.0001505486
0.0006075138
0.0007352368
0.0007351543
-0.0108137
0.0004741312
-0.0007539116
0.002583961
0.002595411
0.00314867
0.003164406
-0.01052258
0.0007107611
-0.0004051337
-0.01065816
0.0009622827
-2.231361e-05
-0.01079704
0.001213192
-5.008671e-05
-0.01102206
0.001502095
3.019088e-06
-0.01127083
0.001811104
-4.394549e-06
-0.01155252
0.002164265
5.408516e-07
-0.01185399
0.002557936
-1.068594e-06
-0.0121679
0.003001906
-5.186666e-07
-0.01248182
0.003501741
-6.407698e-07
-0.01278142
0.004063833
-4.533698e-07
-0.01305239
0.004690022
-1.363786e-07
-0.01328381
0.005378932
4.877197e-07
-0.01347235
0.006125133
1.436521e-06
-0.01363401
0.006912027
3.292226e-06
-0.01380032
0.007729496
5.053481e-06
-0.01402052
0.008543457
9.034572e-06
-0.01434772
0.009333915
6.811934e-06
0.009897577
1.339145e-05
-0.01475913
0.0005797416
-4.644495e-05
-0.002482725
4.657011e-05
-0.0001139428
0.0005817986
0.0007174371
0.0007175651
-0.01056902
0.0005489877
-0.0007318118
0.002517632
0.002534369
0.003080459
0.003093519
-0.01027977
0.0008126454
-0.0003911398
-0.01039209
0.001094802
-2.020058e-05
-0.01050798
0.001378421
-4.933165e-05
-0.01070475
0.001695812
3.042892e-06
-0.01092008
0.002029511
-3.06967e-06
-0.01116026
0.002403767
6.782044e-07
-0.0114131
0.002811772
-1.000888e-06
-0.0116719
0.0032613
-5.919691e-07
-0.01192594
0.003756541
-7.56187e-07
-0.01216384
0.004302338
-6.13902e-07
-0.0123754
0.004901967
-3.803839e-07
-0.01255552
0.005558856
1.931891e-07
-0.0127078
0.006276399
1.012168e-06
-0.01285536
0.007056285
3.308545e-06
-0.01304286
0.007911778
5.217242e-06
-0.01334812
0.008834405
1.431104e-05
-0.01388451
0.009849315
2.098882e-05
0.01077552
7.050524e-05
-0.01483297
0.0005649406
-5.621592e-05
-0.002420709
5.367987e-05
-0.0001086366
0.0005678509
0.0006995599
0.0006995298
-0.01028711
-0.0007101914
0.002449988
0.002469274
0.003001177
0.003012656
0.0006131981
-0.009992547
-0.0003823521
0.0009004309
-0.01009086
-1.867825e-05
0.001211792
-0.01018863
-4.743724e-05
0.001523633
-0.01035948
3.075377e-06
0.001863588
-0.01054683
-1.31219e-06
0.002218171
-0.01075219
1.448896e-06
0.00260768
-0.01096482
-1.974409e-07
0.003024598
-0.01117846
2.340376e-07
0.003474706
-0.01138272
1.617858e-07
0.003960633
-0.01156702
3.949867e-07
0.004486251
-0.01172151
6.671023e-07
0.005055782
-0.01184115
1.272466e-06
0.005677231
-0.01192824
1.831034e-06
0.006361658
-0.01200663
3.976096e-06
0.007130696
-0.01211573
4.405145e-06
0.008016473
-0.01235741
1.431613e-05
0.009061766
-0.01288491
2.989717e-05
0.01034692
0.0001654525
-0.01424858
0.01197374
-0.01034826
-0.0003128577
-0.0001684978
0.000184265
-0.0001104527
0.0002125935
-0.000157712
0.0003894365
-0.0001035849
0.0004184063
-7.995141e-05
0.002603332
0.002477797
0.002548252
0.002447234
-0.01148357
-0.001444314
0.0007077774
0.0002748764
2.590353e-05
0.0002340651
-1.476306e-05
0.0004918912
0.0002059982
0.0005919521
6.19234e-05
-0.01075418
-0.0007795055
6.300119e-05
0.0001570461
-8.162202e-05
0.0001217412
-9.3349e-05
0.000324715
4.33968e-06
9.636522e-05
-0.0005421152
-0.01030323
-0.0005617896
-0.0001888817
0.0001306791
-8.151791e-05
0.0001130122
-0.0001163152
0.0001577497
-3.295143e-05
0.0008058215
-0.000676758
-0.00990898
-0.0004643679
-3.752329e-05
0.0001038683
-0.0001062884
8.633251e-05
-0.0001131675
9.948391e-05
-6.057723e-05
0.0007707783
-0.0006727851
-0.009406425
-0.0005885579
-0.0001011564
0.0001040536
-9.818399e-05
8.715396e-05
-9.328042e-05
0.000101698
-4.938157e-05
0.0007619009
-0.0006267984
-0.008779682
-0.0007149822
-0.0001174619
9.070398e-05
-9.878673e-05
7.673477e-05
-9.30073e-05
0.0001019768
-4.085946e-05
0.0007417742
-0.0005728338
-0.008028146
-0.0008823854
-0.0001494831
8.243376e-05
-9.263597e-05
7.324277e-05
-8.026831e-05
0.0001069085
-2.338022e-05
0.0007191528
-0.0005051192
-0.007111878
-0.001054149
-0.000174798
5.972864e-05
-7.930481e-05
5.812531e-05
-8.43175e-05
0.0001113248
-8.144666e-06
0.0006855136
-0.0004302454
-0.006029522
-0.001231405
-0.0002085922
5.376499e-05
-6.668257e-05
4.87936e-05
-7.781799e-05
0.0001112673
1.455428e-06
0.0006348498
-0.0003479873
-0.004813044
-0.001388342
-0.0001926104
4.333119e-05
-5.250962e-05
2.580012e-05
-8.275813e-05
0.0001127967
1.700845e-05
0.0005631522
-0.0002623464
-0.003609026
-0.001501206
-0.000231917
3.948794e-05
-5.502548e-05
-6.427713e-06
-9.822938e-05
8.783149e-05
-6.579235e-05
0.0004416172
0.000185644
-0.0004179816
-0.001845647
-0.0003207591
3.031762e-05
-5.128159e-05
-2.916412e-05
-0.0001153231
0.0001244569
5.127935e-05
0.0002802572
1.487726e-05
-0.0004703415
-0.0004080059
-0.000451711
0.0001468586
-1.357932e-05
-0.0001685245
-0.0003829117
1.75049e-07
-0.009989772
-0.0007995148
-0.0001737592
0.0001065257
-0.0002227395
0.000127314
-0.0002406769
0.002361485
0.002390664
0.00244697
0.003680645
-0.01084407
-0.0008197332
0.0002503595
-0.01085153
-0.0007785386
-6.815749e-06
-0.01049879
-0.0008687286
4.245046e-05
-0.01001648
-0.0009484723
-1.477557e-05
-0.009481682
-0.00114126
-1.509104e-05
-0.008854676
-0.001380044
-2.926871e-05
-0.008111649
-0.001676056
-4.320506e-05
-0.007222205
-0.002004566
-5.630938e-05
-0.00616032
-0.002362854
-6.776067e-05
-0.004883814
-0.002738289
-9.288627e-05
-0.00328482
-0.003169268
-6.593811e-05
-0.001373077
-0.003682424
-0.0001396148
-0.003468804
-4.470382e-05
8.221494e-05
6.82387e-05
-1.196788e-05
-0.000190592
0.0006390457
0.0004691411
0.0006117311
0.0004726188
-0.01040298
-0.0001267833
-0.002384402
0.0001624813
-0.0001941095
0.0001582815
-0.0001996343
0.002507916
0.002567052
0.00305351
0.004059153
-0.01059444
-0.0007245073
-0.0005192358
-0.01044929
-0.0009061071
-0.0002905174
-0.01016895
-0.001070741
-0.0001102412
-0.009821878
-0.001260926
-9.153788e-05
-0.009383056
-0.001545981
-7.048096e-05
-0.008840405
-0.001897922
-7.786258e-05
-0.008164599
-0.002326393
-8.722456e-05
-0.007326716
-0.002823079
-9.327449e-05
-0.006287145
-0.003384405
-9.174934e-05
-0.005016882
-0.004017706
-5.904313e-05
-0.003443169
-0.004715123
-6.188894e-07
-0.001589406
-0.005446751
3.238696e-05
-0.004950219
6.722089e-05
4.889973e-05
0.0001464292
-7.259609e-05
-0.0002979451
-0.01046073
-0.0002245682
-0.002571439
0.000144534
-0.0002170707
0.000137843
-0.0002186639
0.00256408
0.002570287
0.004018175
0.004130773
-0.01059704
-0.0006525998
-0.0004670151
-0.01047765
-0.0009231081
-0.0003930732
-0.01023458
-0.001220257
-7.623585e-05
-0.009938643
-0.001520341
-6.950815e-05
-0.009567652
-0.00189693
-2.358706e-05
-0.009094053
-0.002352958
-3.239358e-05
-0.008494555
-0.002909647
-2.722049e-05
-0.007733042
-0.003573008
-2.851511e-05
-0.006758052
-0.004354082
-1.115878e-05
-0.005516963
-0.00527277
9.834324e-06
-0.003898789
-0.006314694
7.877801e-05
-0.001856182
-0.007371739
3.325939e-05
-0.006767509
-2.829705e-06
0.0001060575
0.0002713849
-5.117242e-05
-0.0003623327
-0.01078986
-0.0002854064
-0.002675064
0.00013655
-0.0002159471
0.0001291896
-0.0002217596
0.002619768
0.002636391
0.004208415
0.004233157
-0.01081244
-0.0006769164
-0.000599188
-0.01062414
-0.0009975074
-0.0004698687
-0.01040035
-0.001331439
-0.0001218342
-0.01017926
-0.001701568
-9.466619e-05
-0.009895082
-0.002153653
-3.532548e-05
-0.009521275
-0.002709006
-3.51789e-05
-0.009033921
-0.003386805
-2.034015e-05
-0.008386684
-0.004220305
-1.304642e-05
-0.00750953
-0.005241382
1.72983e-05
-0.006325955
-0.006497277
5.135178e-05
-0.004657394
-0.007975602
0.000148306
-0.002288263
-0.009617761
8.421945e-05
-0.008986424
4.825713e-05
0.0001096323
0.0003414325
-8.619449e-05
-0.0004824749
-0.01105895
-0.0002888476
-0.002784507
0.0001061708
-0.000225636
9.538003e-05
-0.0002365348
0.002691659
0.002712794
0.004348826
0.004354238
-0.01108417
-0.0006673343
-0.0006255565
-0.0109088
-0.001012585
-0.0005123023
-0.0107292
-0.001390446
-0.0001240937
-0.01057487
-0.001809252
-9.783738e-05
-0.01039171
-0.00231715
-2.85296e-05
-0.01014548
-0.002942767
-2.48094e-05
-0.009804943
-0.003723829
-4.739023e-06
-0.009325882
-0.004708849
6.389804e-06
-0.00862216
-0.005968823
4.117824e-05
-0.007584989
-0.007595439
8.243763e-05
-0.005872723
-0.009691282
0.0001834248
-0.0031757
-0.01217664
0.0001033768
-0.01215298
-2.811715e-05
0.0001892971
0.000476308
-5.613071e-05
-0.0005905062
-0.01137632
-0.0002695584
-0.002888139
0.0001031712
-0.0002327787
0.0001078861
-0.0002393187
0.002774535
0.002784561
0.00447253
0.004474583
-0.01140866
-0.0006591257
-0.0006431626
-0.01125734
-0.001004144
-0.0005367742
-0.01112739
-0.001391857
-0.0001456708
-0.01106587
-0.00182469
-0.0001072519
-0.01100117
-0.002356374
-3.306111e-05
-0.0109136
-0.003017214
-2.585713e-05
-0.01078382
-0.003853989
-5.421182e-07
-0.01057629
-0.00493499
1.400575e-05
-0.01018553
-0.006399589
6.510314e-05
-0.009504034
-0.008366638
0.0001101155
-0.007942094
-0.01126023
0.0002977029
-0.00482824
-0.01512899
0.0001457211
-0.004448082
4.986894e-05
0.0002551464
0.0005980838
-0.0001935521
-0.0005327352
-0.004079737
-0.004386672
-0.004243537
-0.01168857
-0.0002586406
-0.002962964
0.0001389139
-0.0002340802
0.0001452196
-0.000242559
0.002843249
0.00285396
0.004565829
0.004570083
-0.01174979
-0.000622244
-0.0006818061
-0.01162829
-0.000952745
-0.0005561376
-0.01155985
-0.001327078
-0.0001474485
-0.011582
-0.001748194
-0.000113362
-0.01164553
-0.002269343
-3.331537e-05
-0.01173953
-0.002912359
-2.412298e-05
-0.01185676
-0.003739014
1.949516e-06
-0.01198337
-0.004830168
2.045158e-05
-0.0121011
-0.006326481
6.234799e-05
-0.01214045
-0.008423955
0.0001374642
-0.01181806
-0.01162844
0.00029868
-0.001720314
-0.01659971
0.0005028038
-0.003367666
-0.001655097
-0.003356131
0.0001065413
-0.0009974988
-0.005183312
-9.412759e-05
-0.01199266
-0.000232465
-0.003040556
0.0001344178
-0.0002328564
0.0001507453
-0.0002448986
0.002904042
0.002924736
0.004685899
0.004684958
-0.01207919
-0.0005566895
-0.0007079316
-0.01199696
-0.0008595402
-0.0005742217
-0.0119925
-0.001195924
-0.0001549152
-0.01211218
-0.001573549
-0.0001205894
-0.01231448
-0.002035705
-3.610559e-05
-0.01261718
-0.002597786
-2.485569e-05
-0.01304647
-0.003312993
3.466748e-06
-0.01367845
-0.004226623
2.517052e-05
-0.01459733
-0.005467576
7.971994e-05
-0.01615064
-0.00702797
0.0001769096
-0.01831944
-0.009516525
0.0004206911
-0.004591359
-0.01234389
0.0007375054
-0.006598256
-0.004689
-0.006411327
0.000197307
-0.00630625
-0.0002514482
0.006643036
-0.001856972
-0.0008091386
-0.001337311
-0.0008705829
-0.01226986
-0.0002025159
-0.003110562
0.0001563009
-0.0002361428
0.0001547426
-0.0002466381
0.00297433
0.002981191
0.004779712
0.004786975
-0.01238149
-0.0004720029
-0.0007326552
-0.01233037
-0.0007272271
-0.000588917
-0.01237956
-0.001007655
-0.0001603024
-0.01257527
-0.001318874
-0.0001243185
-0.01288382
-0.001693627
-3.766985e-05
-0.01333273
-0.002135444
-2.531944e-05
-0.0139729
-0.0026742
2.781858e-06
-0.01489254
-0.003330711
2.501929e-05
-0.01629159
-0.004113099
6.779694e-05
-0.0184282
-0.005004778
0.000160333
-0.02187675
-0.006100298
0.0003262224
-0.006786121
-0.006762901
0.0007409335
-0.00699657
-0.006681318
-0.006776523
0.004208137
-4.402714e-05
-0.008305088
-0.002727114
8.196946e-05
0.0004768211
-0.0002727516
0.01020435
-0.0100392
-0.000645191
0.0001844709
-0.0002223864
0.0005118177
-0.0001979362
-0.03241157
0.01148313
0.001852737
-0.0007256642
-0.001529666
4.793733e-06
-0.0008485761
-0.002603796
-0.004082966
-0.002610273
-0.004097784
0.009032086
0.008911626
0.008889404
0.008736519
-0.0289951
0.01555953
0.001476858
-0.0008597149
-0.001481378
5.14006e-05
-0.0007838849
-0.003944539
-0.004821463
-0.003950948
-0.004662338
-0.02600071
0.01695945
0.00181125
-0.001025484
-0.001553143
-5.122159e-05
-0.000849357
-0.004283261
-0.005044632
-0.004070667
-0.004887321
-0.02376464
0.01766354
0.001974288
-0.001086235
-0.001530919
-3.658685e-05
-0.0007807383
-0.004411485
-0.005057321
-0.004110765
-0.004859837
0.01818738
0.001552415
-0.001099083
6.488391e-06
-0.004464429
-0.004200303
-0.02153718
-0.001489326
-0.0007212824
-0.005085045
-0.004914268
-0.01250811
-0.0001712385
-0.003169346
0.0001548974
-0.0002413236
0.000148365
-0.0002561035
0.003032486
0.00305185
0.004872226
0.004883784
-0.01263709
-0.0003716514
-0.0007512912
-0.0126097
-0.0005649699
-0.0005999389
-0.01270041
-0.0007764778
-0.000165247
-0.01295274
-0.001006372
-0.0001291311
-0.01333304
-0.001275071
-3.994629e-05
-0.01387557
-0.001577389
-2.727217e-05
-0.01462889
-0.001919857
-9.643016e-07
-0.01567996
-0.00229638
1.631959e-05
-0.01717137
-0.002660558
4.812908e-05
-0.01930841
-0.002947625