/*--------------------------------*- C++ -*----------------------------------*\
  =========                 |
  \\      /  F ield         | OpenFOAM: The Open Source CFD Toolbox
   \\    /   O peration     | Website:  https://openfoam.org
    \\  /    A nd           | Version:  7
     \\/     M anipulation  |
\*---------------------------------------------------------------------------*/
FoamFile
{
    version     2.0;
    format      ascii;
    class       volScalarField;
    location    "0.03";
    object      epsilon;
}
// * * * * * * * * * * * * * * * * * * * * * * * * * * * * * * * * * * * * * //

dimensions      [0 2 -3 0 0 0 0];

internalField   nonuniform List<scalar> 
109978
(
0.001937796
0.001989717
0.001992637
0.001991756
0.001990549
0.001988991
0.001990375
0.00209446
0.002103869
0.002104053
0.002102997
0.002101203
0.001993021
0.002103211
0.002114498
0.002115274
0.00211441
0.002112545
0.001991796
0.002102949
0.002114901
0.002116052
0.002115399
0.002113607
0.001990444
0.002101787
0.002114006
0.00211539
0.002114883
0.002113178
0.001989258
0.002100631
0.002112985
0.002114525
0.002114122
0.002112507
0.001988229
0.002099572
0.002112007
0.002113635
0.002113322
0.002111779
0.001987329
0.002098628
0.002111107
0.002112794
0.002112562
0.002111062
0.001986532
0.002097781
0.00211029
0.002112019
0.00211183
0.002110379
0.001985821
0.002097017
0.002109546
0.002111303
0.002111148
0.002109739
0.001985181
0.002096332
0.002108868
0.002110645
0.002110518
0.002109145
0.001984599
0.002095707
0.002108246
0.002110041
0.002109932
0.00210858
0.001984069
0.002095133
0.002107675
0.002109484
0.00210939
0.002108054
0.001983585
0.002094603
0.002107151
0.002108968
0.002108884
0.002107562
0.001983144
0.002094114
0.002106665
0.002108488
0.002108412
0.002107102
0.001982736
0.002093661
0.002106214
0.002108041
0.002107972
0.002106671
0.001982357
0.002093239
0.002105792
0.002107621
0.002107558
0.002106266
0.001982004
0.002092843
0.002105394
0.002107227
0.002107167
0.00210588
0.001981672
0.002092466
0.002105011
0.002106845
0.002106783
0.0021055
0.001981352
0.002092085
0.002104611
0.002106439
0.002106373
0.002105092
0.001981003
0.002091611
0.002104077
0.002105882
0.002105806
0.002104534
0.001980468
0.002090763
0.002103071
0.002104813
0.002104739
0.002103513
0.01181417
0.002089295
0.002101354
0.002102998
0.002102969
0.002101921
0.01202239
0.01186833
0.01186186
0.01185729
0.01185409
0.01185147
0.01184513
0.01182619
0.01182582
0.01182212
0.01182042
0.01181954
0.01183175
0.01182315
0.01182091
0.01181972
0.01181901
0.01181852
0.01182605
0.01182052
0.01182005
0.01181942
0.01181898
0.01181858
0.01182404
0.01181929
0.01181885
0.01181846
0.01181818
0.01181792
0.01182282
0.01181832
0.01181818
0.011818
0.01181784
0.01181767
0.01182197
0.01181773
0.01181765
0.01181754
0.01181745
0.01181734
0.01182132
0.01181728
0.01181725
0.0118172
0.01181715
0.01181709
0.0118208
0.01181694
0.01181693
0.01181691
0.01181689
0.01181685
0.01182037
0.01181667
0.01181667
0.01181667
0.01181667
0.01181665
0.01182
0.01181644
0.01181646
0.01181647
0.01181647
0.01181647
0.01181967
0.01181626
0.01181628
0.01181629
0.0118163
0.0118163
0.01181938
0.0118161
0.01181612
0.01181614
0.01181615
0.01181616
0.01181912
0.01181596
0.01181598
0.011816
0.01181602
0.01181603
0.01181889
0.01181584
0.01181586
0.01181588
0.0118159
0.01181591
0.01181867
0.01181573
0.01181574
0.01181577
0.01181579
0.0118158
0.01181848
0.01181563
0.01181565
0.01181567
0.01181569
0.0118157
0.0118183
0.01181554
0.01181555
0.01181557
0.0118156
0.01181561
0.01181813
0.01181546
0.01181547
0.01181549
0.01181551
0.01181553
0.01181798
0.01181538
0.0118154
0.01181541
0.01181543
0.01181545
0.01181783
0.01181531
0.01181533
0.01181534
0.01181536
0.01181538
0.0118177
0.01181525
0.01181526
0.01181528
0.0118153
0.01181531
0.01181758
0.01181519
0.0118152
0.01181522
0.01181523
0.01181525
0.01181741
0.01181514
0.01181515
0.01181516
0.01181518
0.01181519
0.01206559
0.01185913
0.01185463
0.01185219
0.01185046
0.01184898
0.0118381
0.01182443
0.01182581
0.01182181
0.01182013
0.01181928
0.01183027
0.011823
0.01182078
0.01181963
0.01181885
0.01181836
0.01182312
0.01182031
0.01182001
0.01181946
0.01181897
0.01181858
0.0118221
0.01181918
0.01181879
0.01181842
0.01181811
0.01181786
0.01182121
0.01181823
0.01181814
0.01181797
0.0118178
0.01181762
0.01182064
0.01181765
0.01181761
0.01181751
0.0118174
0.01181729
0.01182018
0.01181721
0.01181722
0.01181717
0.01181711
0.01181704
0.01181979
0.01181688
0.0118169
0.01181688
0.01181684
0.0118168
0.01181946
0.01181661
0.01181664
0.01181664
0.01181662
0.0118166
0.01181917
0.01181639
0.01181643
0.01181643
0.01181643
0.01181642
0.01181891
0.01181621
0.01181625
0.01181626
0.01181626
0.01181626
0.01181867
0.01181605
0.01181609
0.0118161
0.01181611
0.01181611
0.01181846
0.01181592
0.01181595
0.01181596
0.01181597
0.01181598
0.01181826
0.0118158
0.01181583
0.01181584
0.01181585
0.01181586
0.01181808
0.01181569
0.01181572
0.01181573
0.01181575
0.01181576
0.01181792
0.01181559
0.01181562
0.01181563
0.01181565
0.01181566
0.01181777
0.0118155
0.01181553
0.01181554
0.01181556
0.01181557
0.01181762
0.01181542
0.01181545
0.01181546
0.01181547
0.01181548
0.01181749
0.01181535
0.01181537
0.01181538
0.0118154
0.01181541
0.01181737
0.01181528
0.0118153
0.01181531
0.01181533
0.01181534
0.01181725
0.01181522
0.01181524
0.01181525
0.01181526
0.01181527
0.01181714
0.01181516
0.01181518
0.01181519
0.0118152
0.01181521
0.01181704
0.0118151
0.01181512
0.01181513
0.01181514
0.01181515
0.01206863
0.01185295
0.01185246
0.01185209
0.01185044
0.01184886
0.01183741
0.01182391
0.01182606
0.0118218
0.01182012
0.01181926
0.0118302
0.01182301
0.01182075
0.01181956
0.01181877
0.01181828
0.01182323
0.01182026
0.01181993
0.01181938
0.01181894
0.01181854
0.0118221
0.01181914
0.01181875
0.0118184
0.0118181
0.01181785
0.01182121
0.01181819
0.01181811
0.01181796
0.01181779
0.01181762
0.01182063
0.01181764
0.0118176
0.01181751
0.0118174
0.01181728
0.01182017
0.01181719
0.0118172
0.01181716
0.0118171
0.01181703
0.01181978
0.01181686
0.01181689
0.01181688
0.01181684
0.0118168
0.01181945
0.0118166
0.01181663
0.01181664
0.01181662
0.0118166
0.01181915
0.01181638
0.01181642
0.01181643
0.01181643
0.01181642
0.01181889
0.0118162
0.01181624
0.01181625
0.01181626
0.01181626
0.01181866
0.01181604
0.01181608
0.0118161
0.01181611
0.01181611
0.01181844
0.0118159
0.01181594
0.01181596
0.01181598
0.01181598
0.01181825
0.01181578
0.01181582
0.01181584
0.01181586
0.01181586
0.01181807
0.01181567
0.01181571
0.01181573
0.01181575
0.01181576
0.0118179
0.01181558
0.01181561
0.01181563
0.01181565
0.01181566
0.01181775
0.01181549
0.01181552
0.01181554
0.01181556
0.01181557
0.01181761
0.01181541
0.01181544
0.01181546
0.01181547
0.01181549
0.01181748
0.01181533
0.01181536
0.01181538
0.0118154
0.01181541
0.01181735
0.01181527
0.01181529
0.01181531
0.01181533
0.01181534
0.01181724
0.0118152
0.01181523
0.01181525
0.01181526
0.01181527
0.01181713
0.01181515
0.01181517
0.01181519
0.0118152
0.01181521
0.01181703
0.01181509
0.01181511
0.01181513
0.01181514
0.01181515
0.01205716
0.0118515
0.01185171
0.01185059
0.01184927
0.011848
0.0118372
0.01182379
0.01182582
0.01182176
0.01182007
0.01181922
0.01183034
0.01182296
0.01182069
0.01181952
0.01181876
0.01181826
0.01182323
0.01182023
0.01181986
0.01181931
0.01181886
0.01181848
0.01182209
0.01181909
0.01181873
0.01181839
0.01181809
0.01181784
0.01182118
0.01181815
0.01181809
0.01181795
0.01181779
0.01181762
0.01182062
0.01181761
0.01181758
0.0118175
0.01181739
0.01181728
0.01182015
0.01181717
0.01181719
0.01181716
0.0118171
0.01181703
0.01181977
0.01181684
0.01181687
0.01181687
0.01181684
0.0118168
0.01181943
0.01181658
0.01181662
0.01181663
0.01181662
0.0118166
0.01181914
0.01181636
0.0118164
0.01181642
0.01181643
0.01181642
0.01181888
0.01181618
0.01181622
0.01181625
0.01181626
0.01181626
0.01181865
0.01181602
0.01181607
0.01181609
0.01181611
0.01181611
0.01181843
0.01181589
0.01181593
0.01181596
0.01181597
0.01181598
0.01181824
0.01181577
0.01181581
0.01181583
0.01181585
0.01181586
0.01181806
0.01181566
0.0118157
0.01181572
0.01181574
0.01181576
0.0118179
0.01181556
0.0118156
0.01181563
0.01181565
0.01181566
0.01181774
0.01181548
0.01181551
0.01181554
0.01181555
0.01181557
0.0118176
0.0118154
0.01181543
0.01181545
0.01181547
0.01181549
0.01181747
0.01181532
0.01181535
0.01181538
0.01181539
0.01181541
0.01181735
0.01181526
0.01181528
0.01181531
0.01181532
0.01181534
0.01181723
0.01181519
0.01181522
0.01181524
0.01181526
0.01181527
0.01181712
0.01181514
0.01181516
0.01181518
0.0118152
0.01181521
0.01181702
0.01181508
0.01181511
0.01181513
0.01181514
0.01181515
0.01205894
0.01185196
0.01185209
0.01185092
0.01184954
0.01184821
0.01183716
0.01182379
0.01182582
0.01182176
0.01182007
0.01181922
0.01183033
0.01182296
0.01182069
0.01181953
0.01181877
0.01181826
0.01182323
0.01182023
0.01181986
0.01181931
0.01181886
0.01181848
0.01182211
0.01181909
0.01181873
0.01181839
0.01181809
0.01181784
0.01182118
0.01181815
0.01181809
0.01181795
0.01181779
0.01181762
0.01182061
0.01181761
0.01181758
0.0118175
0.01181739
0.01181728
0.01182015
0.01181717
0.01181719
0.01181716
0.0118171
0.01181703
0.01181976
0.01181684
0.01181687
0.01181687
0.01181684
0.0118168
0.01181943
0.01181658
0.01181662
0.01181663
0.01181662
0.0118166
0.01181914
0.01181636
0.0118164
0.01181642
0.01181643
0.01181642
0.01181888
0.01181618
0.01181622
0.01181625
0.01181626
0.01181626
0.01181865
0.01181602
0.01181607
0.01181609
0.01181611
0.01181611
0.01181843
0.01181589
0.01181593
0.01181596
0.01181597
0.01181598
0.01181824
0.01181577
0.01181581
0.01181583
0.01181585
0.01181586
0.01181806
0.01181566
0.0118157
0.01181572
0.01181574
0.01181576
0.01181789
0.01181556
0.0118156
0.01181563
0.01181565
0.01181566
0.01181774
0.01181548
0.01181551
0.01181554
0.01181555
0.01181557
0.0118176
0.0118154
0.01181543
0.01181545
0.01181547
0.01181549
0.01181747
0.01181532
0.01181535
0.01181538
0.01181539
0.01181541
0.01181735
0.01181526
0.01181528
0.01181531
0.01181532
0.01181534
0.01181723
0.01181519
0.01181522
0.01181524
0.01181526
0.01181527
0.01181712
0.01181514
0.01181516
0.01181518
0.0118152
0.01181521
0.01181702
0.01181508
0.01181511
0.01181513
0.01181514
0.01181515
0.01206682
0.01185258
0.01185175
0.01185066
0.0118494
0.0118481
0.01183731
0.0118239
0.01182605
0.01182179
0.01182011
0.01181925
0.01183011
0.01182301
0.01182075
0.01181957
0.01181879
0.0118183
0.01182324
0.01182026
0.01181993
0.01181938
0.01181894
0.01181854
0.01182211
0.01181913
0.01181875
0.0118184
0.0118181
0.01181785
0.0118212
0.01181819
0.0118181
0.01181796
0.01181779
0.01181762
0.01182063
0.01181763
0.01181759
0.0118175
0.01181739
0.01181728
0.01182016
0.01181719
0.0118172
0.01181716
0.0118171
0.01181703
0.01181977
0.01181686
0.01181688
0.01181687
0.01181684
0.0118168
0.01181944
0.01181659
0.01181663
0.01181663
0.01181662
0.0118166
0.01181915
0.01181637
0.01181641
0.01181643
0.01181643
0.01181642
0.01181889
0.01181619
0.01181623
0.01181625
0.01181626
0.01181625
0.01181865
0.01181604
0.01181607
0.0118161
0.01181611
0.01181611
0.01181844
0.0118159
0.01181594
0.01181596
0.01181597
0.01181598
0.01181824
0.01181578
0.01181581
0.01181584
0.01181585
0.01181586
0.01181807
0.01181567
0.0118157
0.01181573
0.01181574
0.01181576
0.0118179
0.01181557
0.01181561
0.01181563
0.01181565
0.01181566
0.01181775
0.01181549
0.01181552
0.01181554
0.01181556
0.01181557
0.01181761
0.01181541
0.01181543
0.01181546
0.01181547
0.01181549
0.01181747
0.01181533
0.01181536
0.01181538
0.0118154
0.01181541
0.01181735
0.01181526
0.01181529
0.01181531
0.01181532
0.01181534
0.01181724
0.0118152
0.01181523
0.01181524
0.01181526
0.01181527
0.01181713
0.01181514
0.01181517
0.01181518
0.0118152
0.01181521
0.01181703
0.01181509
0.01181511
0.01181513
0.01181514
0.01181515
0.01206505
0.01185488
0.01185226
0.01185098
0.01184962
0.01184822
0.01183777
0.01182442
0.01182579
0.01182179
0.01182011
0.01181927
0.01182994
0.011823
0.01182078
0.01181965
0.01181887
0.01181839
0.01182323
0.0118203
0.01182
0.01181946
0.01181897
0.01181858
0.01182211
0.01181917
0.01181878
0.01181842
0.01181811
0.01181786
0.01182118
0.01181822
0.01181813
0.01181796
0.0118178
0.01181762
0.01182062
0.01181764
0.0118176
0.01181751
0.0118174
0.01181729
0.01182015
0.0118172
0.01181721
0.01181716
0.0118171
0.01181703
0.01181977
0.01181687
0.01181689
0.01181687
0.01181684
0.0118168
0.01181944
0.0118166
0.01181663
0.01181663
0.01181662
0.0118166
0.01181914
0.01181639
0.01181642
0.01181643
0.01181643
0.01181642
0.01181888
0.0118162
0.01181624
0.01181625
0.01181626
0.01181626
0.01181865
0.01181605
0.01181608
0.0118161
0.01181611
0.01181611
0.01181844
0.01181591
0.01181594
0.01181596
0.01181597
0.01181598
0.01181824
0.01181579
0.01181582
0.01181584
0.01181585
0.01181586
0.01181806
0.01181568
0.01181571
0.01181573
0.01181574
0.01181576
0.0118179
0.01181558
0.01181561
0.01181563
0.01181564
0.01181566
0.01181775
0.0118155
0.01181552
0.01181554
0.01181555
0.01181557
0.0118176
0.01181542
0.01181544
0.01181546
0.01181547
0.01181548
0.01181747
0.01181534
0.01181536
0.01181538
0.01181539
0.01181541
0.01181735
0.01181527
0.01181529
0.01181531
0.01181532
0.01181534
0.01181723
0.01181521
0.01181523
0.01181524
0.01181526
0.01181527
0.01181713
0.01181515
0.01181517
0.01181518
0.0118152
0.01181521
0.01181703
0.0118151
0.01181512
0.01181513
0.01181514
0.01181515
0.0120441
0.01186079
0.01185981
0.01185715
0.01185472
0.01185263
0.01183905
0.01182616
0.01182579
0.0118221
0.0118204
0.01181952
0.01182874
0.01182314
0.01182091
0.01181972
0.01181901
0.01181852
0.01182372
0.0118205
0.01182003
0.01181941
0.01181897
0.01181858
0.01182252
0.01181927
0.01181883
0.01181846
0.01181818
0.01181792
0.01182149
0.0118183
0.01181817
0.01181799
0.01181784
0.01181767
0.01182089
0.01181771
0.01181763
0.01181754
0.01181745
0.01181734
0.01182039
0.01181726
0.01181724
0.0118172
0.01181715
0.01181708
0.01181998
0.01181692
0.01181692
0.01181691
0.01181689
0.01181685
0.01181962
0.01181665
0.01181666
0.01181667
0.01181667
0.01181665
0.01181932
0.01181643
0.01181645
0.01181646
0.01181647
0.01181646
0.01181904
0.01181624
0.01181627
0.01181629
0.0118163
0.0118163
0.0118188
0.01181608
0.01181611
0.01181613
0.01181615
0.01181616
0.01181858
0.01181594
0.01181597
0.01181599
0.01181602
0.01181603
0.01181837
0.01181582
0.01181585
0.01181587
0.01181589
0.01181591
0.01181819
0.01181571
0.01181574
0.01181576
0.01181578
0.0118158
0.01181802
0.01181561
0.01181564
0.01181566
0.01181568
0.0118157
0.01181786
0.01181553
0.01181555
0.01181557
0.01181559
0.01181561
0.01181771
0.01181544
0.01181546
0.01181549
0.01181551
0.01181553
0.01181758
0.01181537
0.01181539
0.01181541
0.01181543
0.01181545
0.01181745
0.0118153
0.01181532
0.01181534
0.01181536
0.01181538
0.01181733
0.01181524
0.01181525
0.01181527
0.01181529
0.01181531
0.01181722
0.01181518
0.01181519
0.01181521
0.01181523
0.01181525
0.01181741
0.01181513
0.01181514
0.01181516
0.01181517
0.01181519
0.01410056
0.01283296
0.01265659
0.01254292
0.01245982
0.01239327
0.01186927
0.01183499
0.01182852
0.01182511
0.01182397
0.01182336
0.01182289
0.01185491
0.01183136
0.01182527
0.01182299
0.01182191
0.01182122
0.01182064
0.01184547
0.01182381
0.01182223
0.01182093
0.01182027
0.01181981
0.0118195
0.01184207
0.01182188
0.01182067
0.0118199
0.01181948
0.01181917
0.01181895
0.01183913
0.01181989
0.01181945
0.011819
0.01181878
0.01181859
0.01181847
0.01183716
0.01181888
0.01181858
0.0118183
0.01181819
0.01181809
0.01181803
0.01183555
0.01181805
0.01181792
0.01181773
0.01181768
0.01181765
0.01181764
0.01183424
0.01181745
0.01181739
0.01181726
0.01181725
0.01181726
0.01181728
0.01183313
0.01181697
0.01181695
0.01181686
0.01181688
0.0118169
0.01181695
0.01183217
0.01181657
0.01181658
0.01181651
0.01181655
0.01181659
0.01181666
0.01183131
0.01181623
0.01181627
0.01181621
0.01181626
0.01181631
0.01181639
0.01183055
0.01181593
0.01181599
0.01181595
0.011816
0.01181605
0.01181614
0.01182985
0.01181567
0.01181575
0.01181572
0.01181576
0.01181582
0.01181591
0.01182922
0.01181544
0.01181553
0.0118155
0.01181555
0.01181561
0.0118157
0.01182864
0.01181524
0.01181533
0.01181531
0.01181536
0.01181542
0.01181551
0.0118281
0.01181505
0.01181516
0.01181514
0.01181518
0.01181524
0.01181533
0.0118276
0.01181488
0.01181499
0.01181498
0.01181502
0.01181507
0.01181517
0.01182714
0.01181473
0.01181484
0.01181483
0.01181487
0.01181492
0.01181501
0.01182671
0.01181459
0.01181469
0.01181469
0.01181473
0.01181478
0.01181487
0.01182631
0.01181445
0.01181456
0.01181456
0.0118146
0.01181465
0.01181473
0.01182593
0.01181433
0.01181444
0.01181444
0.01181448
0.01181452
0.01181461
0.01182558
0.01181422
0.01181432
0.01181433
0.01181437
0.01181441
0.01181449
0.01182525
0.001978637
0.01181422
0.01181423
0.01181426
0.01181431
0.01181439
0.004248922
0.01389245
0.01189458
0.01187554
0.004213577
0.004379154
0.01410053
0.01281341
0.01186968
0.01184664
0.004373237
0.004376677
0.01283281
0.01257817
0.01184518
0.01184195
0.004364871
0.004368696
0.01265649
0.01246491
0.01183956
0.01183722
0.004356902
0.004361942
0.01254286
0.0123844
0.01183676
0.0118338
0.004350346
0.004356095
0.0124598
0.01231636
0.01183495
0.01183207
0.004344377
0.01239318
0.01183342
0.004199699
0.004363119
0.01186782
0.01184443
0.01185328
0.01184307
0.004356399
0.004358163
0.01185304
0.01183342
0.01184416
0.01182908
0.004349508
0.004348757
0.01184378
0.01182593
0.01184034
0.01182574
0.004341275
0.004340696
0.01184049
0.01182355
0.01183788
0.01182328
0.004334434
0.004334107
0.01183766
0.01182198
0.01183612
0.01182202
0.004328693
0.004328525
0.01183576
0.01182102
0.0118347
0.01182107
0.004323785
0.004323719
0.01183422
0.01182032
0.01183352
0.01182039
0.004319509
0.004319509
0.01183298
0.01181978
0.0118325
0.01181985
0.004315729
0.004315772
0.01183192
0.01181935
0.0118316
0.01181941
0.004312349
0.004312424
0.01183101
0.01181898
0.0118308
0.01181904
0.004309297
0.004309398
0.0118302
0.01181867
0.01183008
0.01181872
0.004306524
0.004306641
0.01182947
0.0118184
0.01182942
0.01181845
0.004303987
0.004304118
0.01182881
0.01181816
0.01182882
0.0118182
0.004301653
0.004301792
0.01182821
0.01181795
0.01182826
0.01181798
0.004299498
0.004299638
0.01182766
0.01181776
0.01182775
0.01181779
0.004297501
0.00429764
0.01182715
0.01181758
0.01182727
0.01181761
0.004295646
0.004295784
0.01182668
0.01181742
0.01182683
0.01181745
0.004293918
0.004294055
0.01182625
0.01181728
0.01182642
0.0118173
0.004292307
0.004292439
0.01182584
0.01181714
0.01182603
0.01181716
0.004290797
0.004290919
0.01182546
0.01181702
0.01182567
0.01181703
0.00428937
0.004289428
0.01182511
0.0118169
0.01182533
0.01181691
0.004287927
0.004287561
0.01182478
0.0118168
0.01182501
0.0118168
0.004285837
0.0117949
0.01182524
0.0118167
0.01182395
0.01181584
0.01450084
0.01187254
0.01187663
0.01545118
0.01186642
0.01187863
0.01488043
0.01186462
0.01188608
0.0154233
0.01186549
0.0118866
0.01497074
0.01186439
0.01188722
0.01538064
0.01186612
0.01188687
0.01517045
0.01186451
0.01188646
0.01537844
0.01186652
0.01188637
0.01537022
0.01186474
0.0118865
0.01514254
0.01186628
0.01188655
0.01539623
0.01186453
0.01188718
0.01499442
0.0118662
0.01188716
0.01542133
0.01186401
0.01188659
0.01488236
0.01186668
0.01188606
0.01544794
0.01186442
0.01187869
0.01449783
0.0118738
0.01187661
0.01390182
0.01189271
0.01187548
0.004248912
0.0128161
0.01186967
0.01184661
0.004213561
0.004379146
0.01257966
0.01184518
0.01184191
0.004373237
0.004376716
0.01246555
0.01183956
0.01183718
0.004364892
0.004368654
0.01238471
0.01183676
0.01183377
0.004356885
0.004361987
0.01231628
0.01183495
0.01183204
0.004350363
0.004356097
0.01182177
0.01183787
0.01182328
0.004341213
0.004340696
0.01181943
0.01183469
0.01182107
0.004328665
0.004328539
0.01181873
0.01183351
0.01182039
0.004323767
0.00432372
0.01181827
0.01183249
0.01181985
0.004319494
0.004319519
0.01181791
0.01183159
0.01181941
0.00431573
0.004315799
0.01181761
0.01183079
0.01181904
0.004312363
0.004312435
0.01181699
0.01182881
0.0118182
0.004304001
0.004304128
0.01181678
0.01182825
0.01181798
0.004301674
0.004301803
0.01181663
0.01182774
0.01181779
0.004299522
0.004299649
0.0118165
0.01182726
0.01181761
0.004297527
0.004297652
0.01181629
0.01182641
0.0118173
0.004293951
0.004294066
0.01181616
0.01182602
0.01181716
0.004292339
0.004292455
0.011816
0.01182532
0.01181691
0.004289394
0.004289441
0.01181589
0.011825
0.0118168
0.004287942
0.00428757
0.01181669
0.01182394
0.0118167
0.004285841
0.01179473
0.01210088
0.009270594
0.01194336
0.009310172
0.01195142
0.009306302
0.01191146
0.009238668
0.01191188
0.009241864
0.01189727
0.009178313
0.01189511
0.009192424
0.01188849
0.009135667
0.0118836
0.009154417
0.01188189
0.009101847
0.0118759
0.00912426
0.01187666
0.009074292
0.01187005
0.009099226
0.01185684
0.009237701
0.01188436
0.009247699
0.01183542
0.009175088
0.01184448
0.009175282
0.01182973
0.009119371
0.01183291
0.009120894
0.01182752
0.009077571
0.01182945
0.009078918
0.01182609
0.009044113
0.0118272
0.009045284
0.01182513
0.009016296
0.01182587
0.009017228
0.01182437
0.008992494
0.01182489
0.00899323
0.01182374
0.008971783
0.01182412
0.008972358
0.0118232
0.00895348
0.01182348
0.008953925
0.01182273
0.008937118
0.01182293
0.008937476
0.0118223
0.00892236
0.01182244
0.00892265
0.01182191
0.008908942
0.01182202
0.008909184
0.01182156
0.008896676
0.01182164
0.008896871
0.01182123
0.008885404
0.0118213
0.008885557
0.01182094
0.008875004
0.01182099
0.008875114
0.01182066
0.008865372
0.01182071
0.008865444
0.01182041
0.008856422
0.01182045
0.008856462
0.01182018
0.008848087
0.01182021
0.0088481
0.01181997
0.008840305
0.01181999
0.008840299
0.01181977
0.008833022
0.01181978
0.008833013
0.01181958
0.008826219
0.01181959
0.008826196
0.0118194
0.00881983
0.01181941
0.008819774
0.01181923
0.008813655
0.01181924
0.008813045
0.01213547
0.01213385
0.01211906
0.01211602
0.01211824
0.01211163
0.01211912
0.0121161
0.0121161
0.01211681
0.01211592
0.01211723
0.01211295
0.0121214
0.01212179
0.01212402
0.01209105
0.01214056
0.01183338
0.0043444
0.01184192
0.01185326
0.01184305
0.004199509
0.004363089
0.01183118
0.01184414
0.01182907
0.004356248
0.004358163
0.01182386
0.01184033
0.01182573
0.00434942
0.004348782
0.01182019
0.01183611
0.01182201
0.004334369
0.004334143
0.01181736
0.01183007
0.01181872
0.00430931
0.004309425
0.01181714
0.01182941
0.01181844
0.004306552
0.004306646
0.01181637
0.01182682
0.01181744
0.004295679
0.004295801
0.01181606
0.01182566
0.01181703
0.004290841
0.004290913
0.01200218
0.009351531
0.01197963
0.00903615
0.0119359
0.009292375
0.01193865
0.008968817
0.01208942
0.01214341
0.01192099
0.009288484
0.01192665
0.009271201
0.01189942
0.009228621
0.01191086
0.009206984
0.01188706
0.009185179
0.01189952
0.009158729
0.01187946
0.009150888
0.01189122
0.00912015
0.0118735
0.009122943
0.01188461
0.009089474
0.01184664
0.009216448
0.01184297
0.009214883
0.01183347
0.009150004
0.01183176
0.00914899
0.01182909
0.009102008
0.01182844
0.009100729
0.0118271
0.009063935
0.01182655
0.009062768
0.01182583
0.009033009
0.01182535
0.00903197
0.01182491
0.009006795
0.01182448
0.0090059
0.01182418
0.00898424
0.01182379
0.008983476
0.01182356
0.008964487
0.01182324
0.008963826
0.01182302
0.008946956
0.01182275
0.00894637
0.01182255
0.008931232
0.01182233
0.008930719
0.01182213
0.008917006
0.01182194
0.008916553
0.01182175
0.008904048
0.01182158
0.008903642
0.01182141
0.008892173
0.01182126
0.008891819
0.0118211
0.008881238
0.01182095
0.008880929
0.01182081
0.008871128
0.01182068
0.008870859
0.01182055
0.008861754
0.01182042
0.008861518
0.01182031
0.008853038
0.01182018
0.008852827
0.01182008
0.008844916
0.01181996
0.008844723
0.01181987
0.008837333
0.01181976
0.008837148
0.01181968
0.008830248
0.01181957
0.008830074
0.0118195
0.008823606
0.01181939
0.008823451
0.01181933
0.008817242
0.01181923
0.0088172
0.01181915
0.0117687
0.008810248
0.01181751
0.01212288
0.01212658
0.01211575
0.01212137
0.01211532
0.01211866
0.01211827
0.01211813
0.01211795
0.01211429
0.01212385
0.01211732
0.01212069
0.01211388
0.01213376
0.01213278
0.01210377
0.009270183
0.01192129
0.009282937
0.0119302
0.009271102
0.01191146
0.009238991
0.01191188
0.009241871
0.01182753
0.009076778
0.01182947
0.009078117
0.01182512
0.009015504
0.01182588
0.009017254
0.01182491
0.009006807
0.01182449
0.009005927
0.01182437
0.008992581
0.01182481
0.008993252
0.01182259
0.008931251
0.01182233
0.008930722
0.01182156
0.008896778
0.01182164
0.008896896
0.01182141
0.008892197
0.01182127
0.008891846
0.01182123
0.008885441
0.01182126
0.008885585
0.0118211
0.00888126
0.01182096
0.008880956
0.01182094
0.008875033
0.01182095
0.008875136
0.01182081
0.008871152
0.01182068
0.008870884
0.01182066
0.008865399
0.01182067
0.008865468
0.01182055
0.008861781
0.01182043
0.008861542
0.01182018
0.008848115
0.01182021
0.008848129
0.01182008
0.008844949
0.01181997
0.00884475
0.01181997
0.008840335
0.01181996
0.008840329
0.01181987
0.008837367
0.01181977
0.008837177
0.01181958
0.008825463
0.01181959
0.008826237
0.0118195
0.008823667
0.0118194
0.0088235
0.0118194
0.008819886
0.01181938
0.008819862
0.01181933
0.008817238
0.01181923
0.008817306
0.01181923
0.008813706
0.01181921
0.00881299
0.01181915
0.0108358
0.008810268
0.01181743
0.0140785
0.009622978
0.0151971
0.008742257
0.01571275
0.008732626
0.01423231
0.008686212
0.01468868
0.008680833
0.01374463
0.008653284
0.01411909
0.008650798
0.0134243
0.008630193
0.01374613
0.008629602
0.01319482
0.008612502
0.01347972
0.008613221
0.01302065
0.008598242
0.0132728
0.00859998
0.01467178
0.01474126
0.01478839
0.0148363
0.01483896
0.01485321
0.01476438
0.01485207
0.01475792
0.01485702
0.0148588
0.01478567
0.01478022
0.01474465
0.01465923
0.01461573
0.01439925
0.01455444
0.0164016
0.008762862
0.01684868
0.008765042
0.01451345
0.01455134
0.01480936
0.008700356
0.01541683
0.008698527
0.01411263
0.008665915
0.01462826
0.008661256
0.01369199
0.008642015
0.01414539
0.008635945
0.01339882
0.008623827
0.01380283
0.008616843
0.01317765
0.008609291
0.01354123
0.008601581
0.01469449
0.01476144
0.01478694
0.01465446
0.01474303
0.01476666
0.01488114
0.01483051
0.01488948
0.01475464
0.01490824
0.01487946
0.01482031
0.01483656
0.01464542
0.0147313
0.01409817
0.009620821
0.01200256
0.009344224
0.01198332
0.009035837
0.01193656
0.009291493
0.01193856
0.008968911
0.01193985
0.009310629
0.01195117
0.00931275
0.01423229
0.008686213
0.008680824
0.01468866
0.01189956
0.009223513
0.01191412
0.009206936
0.01189717
0.009177481
0.01189501
0.00919156
0.01188725
0.009182262
0.01190281
0.009158085
0.01188851
0.009136186
0.01188364
0.00915454
0.01188179
0.009100993
0.01187583
0.009123438
0.01187365
0.009121033
0.01188773
0.009088895
0.0118271
0.009063108
0.01182656
0.009061968
0.01182272
0.008643475
0.01182362
0.008643892
0.01182444
0.008637491
0.008635967
0.01182033
0.01182418
0.008984727
0.0118238
0.008983562
0.01182374
0.008971935
0.01182405
0.008972386
0.01182356
0.008964504
0.01182324
0.008963852
0.01182321
0.008953543
0.01182342
0.008953138
0.01182302
0.008946154
0.01182276
0.00894559
0.01182272
0.008936362
0.01182287
0.008937504
0.01182293
0.008572633
0.01182326
0.00857286
0.01182197
0.008515955
0.01182207
0.008516079
0.01182224
0.00851362
0.008512814
0.01182101
0.01182017
0.008458727
0.008459087
0.01182002
0.01790511
0.008820726
0.01699301
0.008823673
0.01199866
0.00906278
0.01199764
0.009020358
0.0140916
0.01431531
0.01531015
0.008720735
0.01578556
0.008724486
0.01433263
0.008676372
0.01475776
0.008676002
0.01382271
0.008648532
0.01419137
0.008645784
0.01348237
0.008628383
0.01381592
0.00862431
0.01323677
0.008612549
0.0135425
0.008607475
0.01304874
0.008599694
0.01333077
0.00859382
0.01472156
0.01475326
0.01473506
0.01480323
0.01470377
0.0147646
0.01484893
0.01484719
0.01480635
0.01477373
0.0147833
0.01487893
0.01491152
0.01478731
0.01478239
0.01483007
0.01451123
0.01440653
0.009074473
0.01187289
0.01187642
0.009237649
0.01188388
0.009247897
0.01185635
0.009216963
0.009215479
0.01184663
0.01184297
0.009175798
0.009175322
0.01183542
0.01184417
0.009149203
0.009149287
0.01183346
0.01183177
0.009118889
0.009120132
0.01182973
0.01183271
0.009101196
0.0118286
0.009099969
0.01182908
0.009043432
0.0118271
0.009044508
0.01182599
0.0090322
0.01182546
0.009031197
0.01182583
0.008922407
0.0118224
0.008921872
0.01182225
0.008908166
0.008908377
0.01182192
0.01182202
0.00885645
0.01182042
0.008855694
0.01182039
0.008833052
0.01181976
0.008832254
0.01181974
0.008829485
0.0118196
0.008829317
0.01181967
0.01636324
0.008773918
0.01645148
0.008774344
0.01443202
0.01440562
0.014668
0.008707834
0.01502436
0.008703556
0.01400956
0.008666571
0.01426948
0.008665134
0.0136115
0.008639632
0.01382553
0.008640073
0.01333654
0.008619757
0.01352326
0.008621452
0.01313273
0.008603992
0.01329777
0.008606664
0.014734
0.01483326
0.01487662
0.01484666
0.01487132
0.01487414
0.01481852
0.01481198
0.01487258
0.01480854
0.0148911
0.01484789
0.01476999
0.01464676
0.0146969
0.01468841
0.01414167
0.01434258
0.01790277
0.008814598
0.008817025
0.017
0.01199799
0.009065982
0.009021867
0.0119975
0.01433269
0.008676345
0.008675984
0.01475721
0.01182316
0.008632079
0.00863244
0.0118234
0.01182381
0.00857632
0.01182139
0.008575174
0.0118221
0.008520396
0.00852051
0.01182206
0.01182234
0.008518337
0.01182108
0.008517574
0.01182492
0.0117951
0.01182492
0.0118166
0.0118166
0.01179493
0.01176933
0.01181751
0.01084584
0.01181742
0.01182018
0.008457028
0.008456346
0.0118196
0.0118156
0.008924819
0.01182034
0.008916307
0.01181946
0.00882456
0.0118111
0.008821563
0.01182185
0.008764912
0.011814
0.008762916
0.01182331
0.008722124
0.01181674
0.008720336
0.01182402
0.008688459
0.0118185
0.00868679
0.01182436
0.008660914
0.01181967
0.008659305
0.01182445
0.008637529
0.01182043
0.008636024
0.01182438
0.008617261
0.01182093
0.008615856
0.01182422
0.008599399
0.01182123
0.008598086
0.01182399
0.008583457
0.0118214
0.008582238
0.01182372
0.008569092
0.01182148
0.008567951
0.01182342
0.008556046
0.01182147
0.00855498
0.01182312
0.00854412
0.01182142
0.008543125
0.01182282
0.008533163
0.01182133
0.008532234
0.01182253
0.008523049
0.01182121
0.008522181
0.01182224
0.008513681