/*--------------------------------*- C++ -*----------------------------------*\
  =========                 |
  \\      /  F ield         | OpenFOAM: The Open Source CFD Toolbox
   \\    /   O peration     | Website:  https://openfoam.org
    \\  /    A nd           | Version:  7
     \\/     M anipulation  |
\*---------------------------------------------------------------------------*/
FoamFile
{
    version     2.0;
    format      ascii;
    class       volScalarField;
    location    "0.03";
    object      k;
}
// * * * * * * * * * * * * * * * * * * * * * * * * * * * * * * * * * * * * * //

dimensions      [0 2 -2 0 0 0 0];

internalField   nonuniform List<scalar> 
109978
(
0.003766753
0.003763598
0.003761108
0.003759251
0.003757717
0.003756442
0.003764542
0.003763507
0.003762052
0.003760675
0.003759437
0.00375834
0.003761674
0.003761198
0.003760154
0.003759057
0.003758039
0.003757099
0.003759314
0.003759157
0.003758459
0.003757634
0.00375685
0.00375609
0.003757372
0.003757333
0.003756824
0.003756202
0.003755577
0.003754947
0.003755754
0.003755769
0.003755389
0.003754928
0.003754413
0.003753903
0.003754368
0.003754401
0.003754101
0.003753732
0.003753325
0.003752907
0.003753162
0.003753194
0.00375295
0.003752651
0.003752339
0.003751975
0.003752097
0.003752118
0.003751913
0.003751665
0.003751405
0.003751102
0.003751146
0.00375115
0.003750975
0.003750761
0.003750543
0.003750292
0.00375029
0.003750282
0.003750121
0.003749933
0.003749747
0.003749543
0.003749514
0.003749491
0.003749339
0.003749174
0.003749011
0.003748832
0.003748805
0.003748765
0.00374862
0.003748473
0.003748329
0.00374817
0.00374816
0.003748095
0.003747962
0.003747825
0.003747694
0.003747552
0.003747571
0.003747477
0.003747352
0.003747223
0.003747102
0.003746974
0.003747027
0.003746905
0.003746785
0.003746663
0.003746551
0.003746434
0.003746521
0.003746373
0.003746258
0.00374614
0.003746038
0.00374593
0.003746051
0.003745877
0.003745766
0.003745656
0.003745558
0.003745457
0.003745613
0.003745416
0.003745308
0.003745206
0.003745109
0.003745011
0.003745204
0.003744984
0.003744879
0.003744784
0.003744688
0.003744594
0.003744822
0.003744581
0.003744477
0.00374439
0.003744293
0.003744204
0.003744465
0.003744205
0.003744102
0.00374402
0.003743927
0.003743839
0.003641782
0.003743855
0.003743754
0.003743675
0.003743588
0.003743498
0.00368342
0.003651515
0.003650174
0.003649217
0.003648553
0.003648007
0.003647314
0.003643607
0.003643546
0.003642761
0.003642406
0.003642227
0.003644539
0.003643018
0.003642548
0.003642298
0.003642152
0.003642055
0.003643379
0.003642481
0.00364238
0.00364225
0.00364216
0.00364208
0.003642991
0.003642236
0.003642141
0.00364206
0.003642001
0.00364195
0.003642762
0.003642044
0.003642013
0.003641973
0.003641941
0.003641907
0.003642608
0.003641929
0.003641911
0.003641888
0.003641868
0.003641845
0.003642494
0.003641843
0.003641836
0.003641825
0.003641814
0.0036418
0.003642403
0.00364178
0.003641777
0.003641772
0.003641767
0.003641758
0.003642328
0.00364173
0.00364173
0.003641728
0.003641727
0.003641721
0.003642264
0.003641689
0.003641691
0.003641692
0.003641692
0.003641689
0.003642209
0.003641656
0.003641659
0.00364166
0.003641662
0.003641661
0.00364216
0.003641628
0.003641631
0.003641633
0.003641635
0.003641636
0.003642116
0.003641603
0.003641606
0.003641609
0.003641612
0.003641613
0.003642077
0.003641582
0.003641585
0.003641588
0.003641591
0.003641592
0.003642042
0.003641563
0.003641566
0.003641569
0.003641572
0.003641574
0.003642009
0.003641546
0.003641548
0.003641552
0.003641555
0.003641557
0.003641979
0.00364153
0.003641533
0.003641536
0.003641539
0.003641542
0.003641952
0.003641516
0.003641519
0.003641522
0.003641525
0.003641527
0.003641926
0.003641504
0.003641506
0.003641509
0.003641512
0.003641514
0.003641902
0.003641492
0.003641494
0.003641497
0.0036415
0.003641502
0.00364188
0.003641481
0.003641483
0.003641486
0.003641489
0.003641491
0.00364186
0.003641471
0.003641473
0.003641476
0.003641478
0.003641481
0.003641832
0.003641462
0.003641464
0.003641466
0.003641469
0.003641471
0.003692333
0.003649553
0.003648605
0.003648106
0.003647758
0.003647458
0.003645823
0.003643228
0.003643543
0.003642692
0.003642343
0.003642172
0.003644265
0.00364299
0.003642521
0.003642278
0.003642117
0.00364202
0.003642787
0.003642437
0.003642373
0.00364226
0.003642161
0.00364208
0.003642613
0.003642216
0.00364213
0.003642054
0.003641989
0.003641938
0.003642453
0.003642025
0.003642006
0.003641968
0.003641934
0.003641898
0.003642358
0.003641915
0.003641904
0.003641883
0.003641859
0.003641836
0.00364228
0.00364183
0.00364183
0.003641819
0.003641805
0.00364179
0.003642217
0.003641768
0.003641771
0.003641766
0.003641758
0.003641748
0.003642162
0.00364172
0.003641724
0.003641722
0.003641718
0.003641712
0.003642114
0.00364168
0.003641686
0.003641685
0.003641684
0.00364168
0.003642072
0.003641647
0.003641653
0.003641654
0.003641654
0.003641652
0.003642034
0.003641619
0.003641625
0.003641627
0.003641627
0.003641627
0.003641999
0.003641595
0.003641601
0.003641603
0.003641604
0.003641605
0.003641967
0.003641574
0.003641579
0.003641582
0.003641583
0.003641585
0.003641938
0.003641556
0.00364156
0.003641563
0.003641565
0.003641566
0.003641911
0.003641539
0.003641543
0.003641546
0.003641548
0.003641549
0.003641886
0.003641524
0.003641528
0.00364153
0.003641532
0.003641534
0.003641863
0.00364151
0.003641514
0.003641516
0.003641518
0.00364152
0.003641842
0.003641498
0.003641501
0.003641503
0.003641505
0.003641507
0.003641821
0.003641486
0.003641489
0.003641491
0.003641493
0.003641495
0.003641803
0.003641476
0.003641479
0.00364148
0.003641482
0.003641484
0.003641785
0.003641466
0.003641469
0.00364147
0.003641472
0.003641474
0.003641769
0.003641457
0.003641459
0.003641461
0.003641463
0.003641464
0.003692947
0.003648211
0.003648134
0.003648086
0.003647757
0.003647435
0.00364567
0.003643119
0.0036436
0.003642691
0.003642343
0.003642169
0.003644247
0.003642994
0.003642516
0.003642266
0.003642103
0.003642005
0.00364281
0.003642429
0.003642357
0.003642243
0.003642154
0.003642072
0.00364261
0.003642208
0.003642124
0.003642049
0.003641986
0.003641935
0.003642453
0.00364202
0.003641999
0.003641968
0.003641931
0.003641896
0.003642356
0.003641913
0.003641901
0.003641881
0.003641858
0.003641834
0.003642278
0.003641828
0.003641827
0.003641818
0.003641805
0.00364179
0.003642214
0.003641766
0.003641769
0.003641765
0.003641758
0.003641748
0.003642159
0.003641717
0.003641722
0.003641722
0.003641718
0.003641712
0.003642111
0.003641678
0.003641684
0.003641685
0.003641684
0.00364168
0.003642068
0.003641645
0.003641651
0.003641654
0.003641654
0.003641652
0.00364203
0.003641617
0.003641623
0.003641626
0.003641627
0.003641627
0.003641995
0.003641593
0.003641599
0.003641603
0.003641604
0.003641605
0.003641964
0.003641572
0.003641578
0.003641581
0.003641583
0.003641585
0.003641935
0.003641553
0.003641559
0.003641562
0.003641565
0.003641566
0.003641908
0.003641537
0.003641542
0.003641545
0.003641548
0.003641549
0.003641883
0.003641522
0.003641527
0.00364153
0.003641532
0.003641534
0.00364186
0.003641508
0.003641513
0.003641516
0.003641518
0.00364152
0.003641839
0.003641495
0.0036415
0.003641503
0.003641505
0.003641507
0.003641819
0.003641484
0.003641488
0.003641491
0.003641493
0.003641495
0.0036418
0.003641474
0.003641477
0.00364148
0.003641482
0.003641484
0.003641783
0.003641464
0.003641467
0.00364147
0.003641472
0.003641474
0.003641766
0.003641455
0.003641458
0.003641461
0.003641463
0.003641464
0.003690546
0.003647895
0.003647973
0.00364776
0.003647502
0.003647249
0.003645623
0.003643095
0.003643549
0.003642683
0.003642333
0.003642162
0.003644279
0.003642985
0.003642504
0.003642258
0.003642101
0.003642001
0.003642811
0.003642424
0.003642343
0.003642228
0.003642136
0.00364206
0.00364261
0.003642198
0.00364212
0.003642046
0.003641985
0.003641934
0.003642448
0.003642012
0.003641996
0.003641966
0.003641931
0.003641897
0.003642353
0.003641908
0.003641899
0.003641879
0.003641857
0.003641834
0.003642275
0.003641824
0.003641825
0.003641816
0.003641804
0.00364179
0.003642211
0.003641763
0.003641767
0.003641764
0.003641757
0.003641748
0.003642157
0.003641714
0.00364172
0.00364172
0.003641717
0.003641712
0.003642109
0.003641675
0.003641682
0.003641684
0.003641683
0.00364168
0.003642066
0.003641642
0.003641649
0.003641652
0.003641653
0.003641652
0.003642028
0.003641615
0.003641622
0.003641625
0.003641627
0.003641627
0.003641994
0.003641591
0.003641597
0.003641602
0.003641604
0.003641605
0.003641962
0.00364157
0.003641576
0.00364158
0.003641583
0.003641585
0.003641933
0.003641551
0.003641557
0.003641562
0.003641564
0.003641566
0.003641906
0.003641535
0.00364154
0.003641545
0.003641548
0.00364155
0.003641882
0.00364152
0.003641525
0.003641529
0.003641532
0.003641534
0.003641859
0.003641506
0.003641511
0.003641515
0.003641518
0.00364152
0.003641837
0.003641494
0.003641498
0.003641502
0.003641505
0.003641507
0.003641817
0.003641482
0.003641487
0.00364149
0.003641493
0.003641495
0.003641799
0.003641472
0.003641476
0.00364148
0.003641482
0.003641484
0.003641781
0.003641462
0.003641466
0.003641469
0.003641472
0.003641474
0.003641765
0.003641453
0.003641457
0.00364146
0.003641463
0.003641464
0.003690925
0.003647994
0.003648053
0.003647832
0.003647558
0.003647294
0.003645614
0.003643094
0.003643549
0.003642683
0.003642333
0.003642162
0.003644273
0.003642984
0.003642504
0.003642259
0.003642102
0.003642002
0.00364281
0.003642424
0.003642343
0.003642228
0.003642136
0.003642061
0.003642613
0.003642198
0.00364212
0.003642046
0.003641985
0.003641935
0.003642448
0.003642012
0.003641996
0.003641966
0.003641931
0.003641897
0.003642352
0.003641908
0.003641899
0.003641879
0.003641857
0.003641834
0.003642275
0.003641824
0.003641825
0.003641816
0.003641804
0.00364179
0.003642211
0.003641763
0.003641767
0.003641764
0.003641757
0.003641748
0.003642157
0.003641714
0.00364172
0.00364172
0.003641717
0.003641712
0.003642109
0.003641675
0.003641682
0.003641684
0.003641683
0.00364168
0.003642066
0.003641642
0.003641649
0.003641652
0.003641653
0.003641652
0.003642028
0.003641615
0.003641622
0.003641625
0.003641627
0.003641627
0.003641994
0.003641591
0.003641597
0.003641602
0.003641604
0.003641605
0.003641962
0.00364157
0.003641576
0.00364158
0.003641583
0.003641585
0.003641933
0.003641551
0.003641557
0.003641562
0.003641564
0.003641566
0.003641906
0.003641535
0.00364154
0.003641545
0.003641548
0.00364155
0.003641881
0.00364152
0.003641525
0.003641529
0.003641532
0.003641534
0.003641859
0.003641506
0.003641511
0.003641515
0.003641518
0.00364152
0.003641837
0.003641494
0.003641498
0.003641502
0.003641505
0.003641507
0.003641817
0.003641482
0.003641487
0.00364149
0.003641493
0.003641495
0.003641799
0.003641472
0.003641476
0.00364148
0.003641482
0.003641484
0.003641781
0.003641462
0.003641466
0.003641469
0.003641472
0.003641474
0.003641765
0.003641453
0.003641457
0.00364146
0.003641463
0.003641464
0.00369257
0.00364813
0.003647982
0.003647776
0.003647529
0.003647271
0.003645648
0.003643118
0.003643599
0.00364269
0.003642341
0.003642167
0.003644226
0.003642993
0.003642517
0.003642267
0.003642105
0.003642007
0.003642812
0.003642429
0.003642357
0.003642243
0.003642154
0.003642072
0.003642613
0.003642207
0.003642123
0.003642048
0.003641986
0.003641936
0.00364245
0.003642019
0.003641998
0.003641967
0.003641931
0.003641896
0.003642354
0.003641912
0.003641901
0.00364188
0.003641857
0.003641834
0.003642277
0.003641828
0.003641827
0.003641817
0.003641805
0.00364179
0.003642213
0.003641766
0.003641769
0.003641764
0.003641757
0.003641748
0.003642158
0.003641717
0.003641722
0.003641721
0.003641718
0.003641712
0.00364211
0.003641677
0.003641683
0.003641684
0.003641683
0.00364168
0.003642068
0.003641644
0.003641651
0.003641653
0.003641653
0.003641652
0.003642029
0.003641617
0.003641623
0.003641626
0.003641627
0.003641627
0.003641995
0.003641593
0.003641599
0.003641602
0.003641604
0.003641605
0.003641963
0.003641571
0.003641577
0.003641581
0.003641583
0.003641584
0.003641934
0.003641553
0.003641558
0.003641562
0.003641565
0.003641566
0.003641907
0.003641536
0.003641542
0.003641545
0.003641548
0.003641549
0.003641882
0.003641521
0.003641526
0.00364153
0.003641532
0.003641534
0.003641859
0.003641507
0.003641512
0.003641516
0.003641518
0.00364152
0.003641838
0.003641495
0.0036415
0.003641503
0.003641505
0.003641507
0.003641818
0.003641484
0.003641488
0.003641491
0.003641493
0.003641495
0.0036418
0.003641473
0.003641477
0.00364148
0.003641482
0.003641484
0.003641782
0.003641463
0.003641467
0.00364147
0.003641472
0.003641474
0.003641766
0.003641454
0.003641458
0.00364146
0.003641463
0.003641464
0.003692201
0.003648627
0.003648089
0.003647844
0.003647575
0.003647295
0.003645748
0.003643226
0.003643541
0.003642689
0.003642341
0.003642169
0.003644189
0.00364299
0.003642522
0.003642281
0.003642121
0.003642024
0.003642809
0.003642436
0.003642372
0.00364226
0.003642161
0.003642081
0.003642614
0.003642214
0.003642129
0.003642053
0.00364199
0.003641939
0.003642448
0.003642024
0.003642004
0.003641967
0.003641934
0.003641898
0.003642353
0.003641913
0.003641902
0.003641882
0.003641859
0.003641836
0.003642275
0.003641829
0.003641828
0.003641818
0.003641805
0.00364179
0.003642212
0.003641767
0.00364177
0.003641765
0.003641757
0.003641748
0.003642157
0.003641718
0.003641723
0.003641721
0.003641718
0.003641712
0.003642109
0.003641679
0.003641684
0.003641685
0.003641683
0.00364168
0.003642067
0.003641646
0.003641652
0.003641653
0.003641653
0.003641652
0.003642029
0.003641618
0.003641624
0.003641626
0.003641627
0.003641627
0.003641994
0.003641594
0.0036416
0.003641602
0.003641604
0.003641605
0.003641963
0.003641573
0.003641578
0.003641581
0.003641583
0.003641584
0.003641934
0.003641555
0.003641559
0.003641562
0.003641564
0.003641566
0.003641907
0.003641538
0.003641542
0.003641545
0.003641547
0.003641549
0.003641882
0.003641523
0.003641527
0.00364153
0.003641532
0.003641534
0.003641859
0.003641509
0.003641513
0.003641516
0.003641518
0.00364152
0.003641838
0.003641497
0.0036415
0.003641503
0.003641505
0.003641507
0.003641818
0.003641485
0.003641489
0.003641491
0.003641493
0.003641495
0.003641799
0.003641475
0.003641478
0.00364148
0.003641482
0.003641484
0.003641782
0.003641465
0.003641468
0.00364147
0.003641472
0.003641474
0.003641766
0.003641456
0.003641459
0.00364146
0.003641462
0.003641464
0.003687869
0.003649916
0.00364974
0.003649194
0.003648693
0.003648259
0.003646026
0.003643602
0.003643542
0.003642758
0.003642403
0.003642224
0.003643921
0.003643017
0.003642548
0.003642298
0.003642152
0.003642054
0.003642904
0.003642477
0.003642377
0.003642249
0.003642159
0.003642079
0.003642689
0.003642233
0.00364214
0.00364206
0.003642001
0.003641949
0.003642505
0.00364204
0.00364201
0.003641973
0.003641941
0.003641907
0.003642402
0.003641926
0.003641909
0.003641887
0.003641868
0.003641845
0.003642317
0.00364184
0.003641834
0.003641824
0.003641814
0.0036418
0.003642249
0.003641776
0.003641776
0.003641771
0.003641766
0.003641757
0.00364219
0.003641727
0.003641729
0.003641728
0.003641726
0.003641721
0.003642139
0.003641687
0.00364169
0.003641691
0.003641692
0.003641689
0.003642095
0.003641653
0.003641657
0.00364166
0.003641661
0.003641661
0.003642054
0.003641625
0.003641629
0.003641632
0.003641635
0.003641635
0.003642018
0.003641601
0.003641605
0.003641608
0.003641612
0.003641613
0.003641985
0.003641579
0.003641583
0.003641587
0.003641591
0.003641592
0.003641955
0.00364156
0.003641564
0.003641568
0.003641572
0.003641574
0.003641927
0.003641543
0.003641547
0.003641551
0.003641555
0.003641557
0.003641901
0.003641528
0.003641532
0.003641535
0.003641539
0.003641542
0.003641877
0.003641514
0.003641518
0.003641521
0.003641525
0.003641527
0.003641855
0.003641502
0.003641505
0.003641508
0.003641512
0.003641514
0.003641835
0.00364149
0.003641493
0.003641496
0.0036415
0.003641502
0.003641815
0.003641479
0.003641482
0.003641485
0.003641489
0.003641491
0.003641797
0.003641469
0.003641472
0.003641475
0.003641478
0.00364148
0.003641832
0.00364146
0.003641463
0.003641466
0.003641469
0.003641471
0.004112736
0.003852872
0.003816676
0.003793209
0.003776022
0.003762243
0.003651291
0.003646122
0.003644896
0.003644171
0.003643909
0.00364377
0.003643692
0.003648594
0.00364527
0.003644104
0.00364362
0.003643383
0.003643228
0.003643117
0.003646708
0.003643649
0.003643421
0.003643147
0.003642999
0.003642894
0.00364282
0.003646085
0.00364327
0.003643102
0.003642943
0.003642848
0.003642777
0.003642722
0.003645536
0.003642863
0.003642845
0.003642754
0.003642702
0.003642657
0.003642624
0.003645178
0.003642665
0.003642668
0.003642611
0.003642584
0.003642558
0.003642537
0.00364489
0.003642504
0.003642531
0.003642495
0.003642482
0.00364247
0.003642459
0.003644659
0.003642388
0.003642423
0.0036424
0.003642396
0.003642392
0.003642389
0.003644466
0.003642296
0.003642335
0.00364232
0.003642321
0.003642322
0.003642325
0.0036443
0.003642221
0.003642262
0.003642251
0.003642256
0.003642261
0.003642268
0.003644153
0.003642158
0.0036422
0.003642192
0.003642199
0.003642205
0.003642216
0.003644022
0.003642104
0.003642145
0.00364214
0.003642148
0.003642156
0.003642168
0.003643904
0.003642057
0.003642098
0.003642094
0.003642102
0.003642111
0.003642124
0.003643796
0.003642016
0.003642055
0.003642053
0.003642061
0.003642071
0.003642084
0.003643697
0.003641979
0.003642017
0.003642016
0.003642024
0.003642034
0.003642047
0.003643607
0.003641946
0.003641983
0.003641982
0.00364199
0.003641999
0.003642014
0.003643523
0.003641916
0.003641951
0.003641951
0.003641959
0.003641968
0.003641982
0.003643445
0.003641888
0.003641922
0.003641923
0.00364193
0.003641939
0.003641953
0.003643372
0.003641863
0.003641895
0.003641897
0.003641904
0.003641912
0.003641926
0.003643305
0.00364184
0.00364187
0.003641872
0.003641879
0.003641887
0.003641901
0.003643242
0.003641818
0.003641846
0.00364185
0.003641857
0.003641864
0.003641878
0.003643184
0.003641798
0.003641825
0.003641829
0.003641835
0.003641843
0.003641856
0.003643124
0.003744058
0.003641804
0.003641809
0.003641816
0.003641823
0.003641836
0.003805401
0.004066304
0.003656405
0.00365371
0.003800288
0.00380087
0.004112759
0.003849703
0.003652376
0.003647496
0.003794729
0.003794507
0.003852852
0.003801071
0.003647214
0.003646583
0.00378727
0.003789362
0.00381666
0.003777489
0.003646047
0.003645597
0.003782234
0.003785214
0.003793199
0.003760678
0.003645485
0.003644883
0.003778235
0.003781813
0.003776017
0.00374639
0.003645131
0.003644533
0.003774876
0.003762222
0.003644828
0.00379134
0.003791097
0.003651052
0.003647391
0.003648037
0.003647068
0.003784359
0.003783267
0.00364828
0.003645193
0.003646316
0.003644233
0.003777844
0.003777248
0.003646426
0.003643625
0.003645627
0.003643548
0.003772623
0.003772262
0.003645822
0.003643146
0.003645192
0.003643062
0.003768398
0.003768214
0.003645289
0.003642823
0.003644889
0.00364281
0.003764868
0.003764787
0.003644943
0.003642628
0.003644651
0.003642623
0.003761853
0.003761836
0.003644666
0.003642486
0.003644454
0.003642488
0.003759227
0.00375925
0.003644445
0.003642378
0.003644285
0.003642383
0.003756904
0.003756954
0.00364426
0.003642291
0.003644137
0.003642297
0.003754827
0.003754897
0.003644102
0.003642219
0.003644006
0.003642225
0.003752952
0.003753036
0.003643963
0.003642158
0.003643887
0.003642163
0.003751248
0.003751341
0.003643839
0.003642105
0.00364378
0.00364211
0.003749688
0.003749788
0.003643728
0.003642058
0.003643681
0.003642063
0.003748253
0.003748358
0.003643626
0.003642016
0.003643591
0.003642021
0.003746928
0.003747032
0.003643533
0.003641978
0.003643507
0.003641983
0.003745699
0.003745802
0.003643447
0.003641944
0.00364343
0.003641948
0.003744558
0.003744659
0.003643368
0.003641913
0.003643358
0.003641917
0.003743495
0.003743594
0.003643295
0.003641885
0.00364329
0.003641888
0.003742503
0.003742601
0.003643227
0.003641859
0.003643228
0.003641862
0.003741577
0.003741673
0.003643164
0.003641835
0.003643169
0.003641838
0.00374071
0.003740804
0.003643105
0.003641813
0.003643114
0.003641815
0.003739899
0.00373999
0.003643049
0.003641792
0.003643063
0.003641794
0.003739153
0.003642499
0.003643121
0.003641774
0.003642894
0.003641637
0.004180723
0.003651691
0.003653814
0.004380164
0.003650474
0.00365425
0.004257339
0.00365012
0.003655828
0.004369637
0.003650205
0.003655939
0.00427537
0.00365006
0.003656069
0.004359382
0.003650338
0.003655993
0.00431692
0.003650083
0.003655904
0.00436011
0.003650424
0.003655884
0.004357852
0.003650132
0.003655913
0.004310742
0.003650375
0.003655925
0.004363598
0.003650086
0.003656058
0.004280176
0.003650359
0.003656054
0.004369273
0.003649982
0.003655934
0.004257284
0.00365047
0.003655825
0.004380051
0.003650133
0.003654264
0.004179856
0.003651899
0.00365381
0.004068361
0.003656101
0.003653705
0.003805402
0.003850456
0.003652375
0.003647496
0.003800286
0.003800871
0.00380156
0.003647213
0.003646582
0.003794727
0.003794508
0.003777782
0.003646047
0.003645596
0.003787268
0.003789361
0.003760888
0.003645486
0.003644882
0.003782232
0.003785215
0.003746507
0.00364513
0.003644534
0.003778234
0.003781812
0.003642864
0.00364519
0.003643062
0.003772556
0.003772262
0.003642375
0.00364465
0.003642623
0.003764832
0.003764785
0.003642232
0.003644453
0.003642488
0.003761833
0.003761834
0.003642137
0.003644284
0.003642382
0.003759211
0.003759248
0.003642062
0.003644136
0.003642297
0.003756895
0.003756954
0.003642
0.003644004
0.003642225
0.003754822
0.003754895
0.003641871
0.003643679
0.003642062
0.003749691
0.003749787
0.003641829
0.003643589
0.00364202
0.003748259
0.003748357
0.003641798
0.003643505
0.003641983
0.003746935
0.003747031
0.003641771
0.003643428
0.003641948
0.003745708
0.003745801
0.003641727
0.003643289
0.003641888
0.003743507
0.003743593
0.003641702
0.003643226
0.003641862
0.003742515
0.0037426
0.003641668
0.003643112
0.003641815
0.003740727
0.003740805
0.003641648
0.003643061
0.003641794
0.003739915
0.003739992
0.003641773
0.003642889
0.003641775
0.003739158
0.003642478
0.003703174
0.003922833
0.003669935
0.003890348
0.00367117
0.003884618
0.003662398
0.003863594
0.003662041
0.003864089
0.003658979
0.003845718
0.003658251
0.003849504
0.003656835
0.003833146
0.003655684
0.003838306
0.003655229
0.003823184
0.003653936
0.003829426
0.003653945
0.003815074
0.003652597
0.003822122
0.003652226
0.003868784
0.003658494
0.003867256
0.003647178
0.003844727
0.003649417
0.003844581
0.003645672
0.003828172
0.003646592
0.003828586
0.003645018
0.003815813
0.003645605
0.003816215
0.003644578
0.003805921
0.003644953
0.003806288
0.00364427
0.003797686
0.003644538
0.003797986
0.003644028
0.003790631
0.003644231
0.003790875
0.003643828
0.003784487
0.003643986
0.003784683
0.003643658
0.003779052
0.003643783
0.003779207
0.00364351
0.00377419
0.00364361
0.003774314
0.003643379
0.0037698
0.00364346
0.003769901
0.003643262
0.003765805
0.00364333
0.00376589
0.003643156
0.003762151
0.003643214
0.00376222
0.003643061
0.003758792
0.003643112
0.003758847
0.003642974
0.00375569
0.003643019
0.003755731
0.003642896
0.003752816
0.003642935
0.003752845
0.003642824
0.003750145
0.003642858
0.003750163
0.003642758
0.003747656
0.003642788
0.003747665
0.003642697
0.003745332
0.003642724
0.003745333
0.003642641
0.003743156
0.003642665
0.003743156
0.003642589
0.003741123
0.00364261
0.003741118
0.003642541
0.003739217
0.00364256
0.003739209
0.003642495
0.00373743
0.003642512
0.003737413
0.003709499
0.003709116
0.00370596
0.003705328
0.003705934
0.003704463
0.003705948
0.003705402
0.003705499
0.003705545
0.003705333
0.003705677
0.003704832
0.003706694
0.003706573
0.003707135
0.003700531
0.003711348
0.003644819
0.003774875
0.003647
0.003648034
0.003647066
0.003791224
0.003791093
0.003644838
0.003646312
0.003644231
0.003784266
0.003783263
0.003643295
0.003645625
0.003643547
0.003777776
0.003777249
0.003642537
0.003644888
0.003642809
0.003768361
0.003768215
0.003641948
0.003643886
0.003642163
0.003752951
0.003753036
0.003641903
0.003643778
0.003642109
0.00375125
0.003751339
0.003641745
0.003643356
0.003641916
0.003744568
0.003744658
0.003641682
0.003643167
0.003641837
0.00374159
0.003741674
0.003682209
0.003905023
0.003678113
0.00390584
0.003666396
0.003887453
0.003667246
0.003884538
0.003700297
0.00371181
0.003663911
0.003877879
0.003666027
0.003874224
0.003659013
0.003860087
0.0036621
0.0038542
0.003656249
0.003847306
0.003659418
0.003839947
0.003654535
0.003837219
0.003657433
0.003828585
0.00365317
0.00382901
0.003655846
0.003819543
0.003650025
0.003856823
0.003649313
0.003857417
0.003646786
0.003837176
0.00364643
0.003836954
0.003645565
0.003823057
0.003645439
0.003822681
0.003644947
0.00381182
0.00364485
0.003811455
0.003644538
0.00380268
0.003644456
0.003802343
0.003644236
0.003794916
0.003644165
0.003794617
0.003643996
0.003788226
0.003643934
0.003787966
0.003643796
0.003782357
0.003643745
0.003782133
0.003643625
0.003777144
0.003643585
0.003776948
0.003643477
0.003772465
0.003643445
0.003772294
0.003643348
0.003768229
0.00364332
0.003768078
0.003643233
0.003764368
0.003643208
0.003764233
0.00364313
0.003760827
0.003643108
0.003760709
0.003643037
0.003757565
0.003643015
0.003757463
0.003642953
0.003754548
0.003642931
0.003754459
0.003642876
0.003751749
0.003642855
0.003751671
0.003642805
0.003749146
0.003642785
0.003749076
0.003642741
0.003746718
0.003642721
0.003746656
0.003642681
0.003744452
0.003642662
0.003744392
0.003642626
0.003742334
0.003642608
0.003742278
0.003642575
0.003740351
0.003642558
0.0037403
0.003642527
0.00373849
0.003642511
0.003738444
0.003642481
0.003644416
0.0037367
0.003642224
0.003706834
0.003707748
0.003705467
0.003706751
0.00370526
0.00370598
0.003705968
0.003706007
0.003705783
0.003705045
0.003707046
0.003705638
0.003706448
0.003704963
0.00370915
0.003708864
0.003703853
0.003922832
0.003663962
0.003876214
0.003666557
0.003874182
0.003662395
0.003863641
0.003662042
0.003864086
0.003645018
0.003815819
0.003645605
0.00381622
0.003644269
0.003797693
0.003644539
0.003797986
0.003644236
0.003794911
0.003644166
0.003794617
0.003644027
0.00379065
0.003644216
0.003790874
0.003643484
0.003772463
0.003643446
0.003772286
0.003643155
0.00376215
0.003643214
0.00376222
0.00364313
0.003760826
0.003643109
0.003760709
0.00364306
0.003758794
0.003643104
0.003758846
0.003643037
0.003757564
0.003643017
0.003757462
0.003642974
0.003755692
0.003643012
0.003755731
0.003642953
0.003754547
0.003642933
0.003754458
0.003642895
0.003752817
0.003642929
0.003752845
0.003642876
0.003751749
0.003642856
0.00375167
0.003642757
0.003747657
0.003642788
0.003747665
0.00364274
0.00374672
0.003642723
0.003746655
0.003642697
0.003745332
0.003642719
0.003745334
0.003642681
0.003744454
0.003642664
0.003744393
0.003642589
0.003741136
0.003642611
0.003741121
0.003642575
0.003740357
0.003642559
0.003740304
0.003642541
0.003739221
0.003642555
0.003739216
0.003642527
0.003738501
0.003642513
0.003738452
0.003642495
0.00373744
0.003642508
0.003737424
0.003642482
0.003654904
0.003736714
0.003642219
0.004098702
0.003919587
0.004340173
0.003824056
0.004432918
0.003821179
0.004148644
0.003807418
0.004234964
0.003805755
0.004051432
0.003797544
0.00412348
0.003796739
0.003987049
0.003790628
0.004049447
0.003790422
0.003940597
0.003785328
0.003996177
0.003785539
0.003905202
0.003781057
0.003954561
0.003781595
0.004218437
0.004232141
0.004242043
0.004251614
0.004252
0.004254858
0.0042371
0.004254735
0.004235704
0.004255392
0.004255937
0.004241237
0.004239969
0.004233076
0.004215901
0.004207275
0.004164026
0.004194563
0.004584747
0.003830599
0.004683743
0.00383225
0.004187182
0.00419397
0.004271049
0.003811751
0.004400461
0.003811137
0.004130564
0.003801405
0.004241036
0.003799934
0.004044932
0.003794246
0.004142284
0.003792338
0.003984874
0.003788796
0.00407175
0.003786613
0.003939332
0.00378444
0.004017581
0.003782062
0.004222739
0.004236425
0.004241487
0.00421496
0.004232832
0.004237625
0.004260198
0.004250134
0.004262019
0.004235139
0.004265807
0.004259937
0.004248253
0.004251547
0.004213374
0.004230345
0.004102716
0.003919504
0.003682247
0.003902727
0.003678623
0.003905834
0.003666528
0.003887432
0.003667227
0.003884545
0.003669427
0.003890427
0.003671132
0.00388652
0.004148642
0.003807415
0.003805755
0.004234959
0.003659025
0.003858787
0.003662584
0.003854196
0.003658952
0.003845731
0.003658234
0.003849493
0.00365628
0.003846278
0.003659931
0.003839926
0.00365684
0.003833175
0.003655689
0.003838308
0.003655204
0.003823173
0.003653924
0.003829428
0.003653193
0.003828292
0.00365634
0.003819538
0.003644947
0.003811817
0.003644853
0.00381146
0.00364667
0.003796213
0.003647223
0.003796269
0.00364682
0.003794328
0.003793825
0.0036463
0.003643995
0.003788221
0.003643934
0.003787966
0.003643827
0.0037845
0.003643974
0.003784683
0.003643796
0.003782354
0.003643747
0.003782133
0.003643658
0.003779064
0.003643772
0.003779214
0.003643625
0.003777147
0.003643587
0.003776957
0.003643507
0.003774207
0.003643601
0.003774314
0.003645353
0.003774294
0.003645639
0.003774301
0.003644464
0.003756714
0.003644614
0.003756699
0.003644486
0.003755977
0.003755687
0.003644349
0.003643696
0.003739172
0.003739135
0.003643731
0.004884503
0.003854066
0.004679705
0.003856396
0.003681489
0.003930558
0.003679926
0.00392824
0.004101319
0.004146636
0.004369946
0.003817853
0.004473014
0.003818808
0.004174176
0.003804534
0.004266395
0.003804342
0.00407089
0.003796186
0.004150994
0.003795272
0.004001448
0.003790146
0.004073847
0.00378883
0.003951034
0.003785399
0.004017356
0.003783809
0.003912266
0.00378155
0.003973416
0.00377974
0.004228414
0.004234669
0.004231138
0.004244611
0.004224745
0.004237192
0.004253962
0.004253746
0.004245564
0.004239161
0.004240789
0.004260019
0.004266401
0.004241478
0.00424064
0.004250276
0.004187052
0.004167101
0.003815098
0.00365304
0.003653898
0.003869086
0.003658421
0.003867276
0.00365215
0.003856821
0.003857433
0.003650022
0.003649311
0.003844868
0.003844594
0.003647176
0.003649368
0.003837167
0.003836965
0.003646783
0.003646433
0.003828257
0.003828598
0.003645672
0.00364656
0.003823056
0.003645466
0.003822693
0.003645564
0.003805962
0.003644935
0.003806301
0.003644561
0.003802681