/*--------------------------------*- C++ -*----------------------------------*\
  =========                 |
  \\      /  F ield         | OpenFOAM: The Open Source CFD Toolbox
   \\    /   O peration     | Website:  https://openfoam.org
    \\  /    A nd           | Version:  7
     \\/     M anipulation  |
\*---------------------------------------------------------------------------*/
FoamFile
{
    version     2.0;
    format      ascii;
    class       volScalarField;
    location    "0.03";
    object      nut;
}
// * * * * * * * * * * * * * * * * * * * * * * * * * * * * * * * * * * * * * //

dimensions      [0 2 -1 0 0 0 0];

internalField   nonuniform List<scalar> 
76598
(
0.0002718082
0.0002739045
0.0002739415
0.0002738745
0.0002738048
0.0002737355
0.0002736862
0.0002736566
0.001337965
0.001304355
0.001294713
0.001293395
0.001293647
0.001293746
0.001293465
0.001293063
0.001312655
0.001259111
0.001246856
0.001248221
0.001249738
0.001250344
0.001249829
0.001246738
0.001305181
0.001248977
0.001239873
0.001262447
0.001262274
0.001264037
0.001270846
0.001250835
0.001304442
0.001250872
0.001262885
0.001274116
0.0005752942
0.000580227
0.001309876
0.001308423
0.001304774
0.001252184
0.001262198
0.0005754088
0.000615847
0.0002856785
0.0006363174
0.0006194636
0.001304587
0.001251522
0.00126038
0.000578096
0.0002883487
0.001303678
0.001248538
0.001256913
0.001263117
0.001295499
0.001316638
0.001320504
0.001320368
0.001302528
0.00124283
0.001227827
0.001228596
0.001234513
0.001239888
0.001241967
0.001242705
0.001301713
0.00123893
0.001218968
0.001214791
0.00121504
0.001216152
0.001217041
0.001217654
0.001301336
0.0012377
0.001216389
0.001210551
0.00120918
0.001209123
0.001209483
0.00120993
0.0013012
0.001237268
0.001215503
0.001209102
0.001207189
0.001206736
0.00120688
0.001207227
0.001301151
0.001237086
0.001215138
0.001208517
0.001206395
0.001205781
0.001205832
0.001206128
0.001301138
0.001237013
0.001214984
0.001208272
0.001206058
0.001205375
0.001205381
0.001205653
0.001301147
0.00123699
0.001214923
0.001208168
0.001205912
0.001205198
0.001205183
0.001205443
0.001301161
0.001236989
0.001214903
0.001208129
0.001205853
0.001205123
0.001205098
0.00120535
0.001301181
0.001237
0.001214904
0.001208119
0.001205833
0.001205094
0.001205062
0.001205311
0.001301205
0.001237018
0.001214916
0.001208124
0.001205832
0.001205088
0.001205052
0.0012053
0.001301232
0.001237041
0.001214934
0.001208138
0.001205843
0.001205096
0.001205057
0.001205302
0.001301261
0.001237067
0.001214959
0.001208159
0.001205859
0.00120511
0.001205069
0.001205313
0.001301296
0.0012371
0.001214988
0.001208186
0.001205884
0.001205134
0.001205092
0.001205335
0.001301335
0.001237139
0.001215029
0.001208228
0.001205926
0.001205177
0.001205136
0.001205378
0.001301385
0.001237196
0.001215094
0.0012083
0.001206006
0.00120526
0.001205221
0.001205464
0.001301454
0.001237288
0.00121521
0.001208437
0.001206162
0.001205427
0.001205393
0.001205636
0.0006106367
0.00129346
0.001274885
0.001268496
0.001267453
0.00126769
0.001268276
0.00126895
0.000101005
0.0001010191
0.0001010317
0.0001010317
0.0001010319
0.000101032
0.0001010319
0.0001010318
0.0001010318
0.0001010049
0.0001010188
0.0001010186
0.0001010188
0.0001010193
0.0001010194
0.0001010192
0.000101019
0.0001010189
0.0001010047
0.0001010189
0.0001010188
0.0001010233
0.0001010347
0.0001010344
0.0001010274
0.0001010232
0.0001010206
0.0001010044
0.0001010192
0.0001010193
0.0001010414
0.0001010553
0.0001010109
0.0001010107
0.000101031
0.0001010249
0.0001010041
0.0001010195
0.0001010197
0.000101055
0.0001010165
0.0001010689
0.0001013251
0.0001010775
0.0001010542
0.0001010037
0.0001010193
0.0001010196
0.000101052
0.000101013
0.0001010514
0.0003349369
0.0003419986
0.0001010032
0.0001010186
0.0001010185
0.0001010295
0.0001010206
0.0001010224
0.0001010203
0.0001010182
0.0001010177
0.0001010029
0.0001010181
0.0001010175
0.0001010175
0.0001010184
0.0001010174
0.0001010173
0.0001010178
0.0001010163
0.0001010025
0.0001010177
0.0001010171
0.0001010169
0.0001010168
0.0001010167
0.0001010174
0.0001010163
0.0001010167
0.0001010022
0.0001010175
0.0001010168
0.0001010167
0.0001010165
0.0001010164
0.0001010166
0.000101017
0.0001010163
0.000101002
0.0001010173
0.0001010167
0.0001010166
0.0001010165
0.0001010164
0.0001010166
0.0001010168
0.0001010168
0.0001010018
0.0001010172
0.0001010166
0.0001010165
0.0001010164
0.0001010164
0.0001010164
0.0001010168
0.0001010167
0.0001010016
0.0001010171
0.0001010165
0.0001010165
0.0001010164
0.0001010164
0.0001010164
0.0001010168
0.0001010168
0.0001010015
0.000101017
0.0001010164
0.0001010164
0.0001010164
0.0001010164
0.0001010164
0.0001010168
0.0001010168
0.0001010013
0.0001010169
0.0001010164
0.0001010164
0.0001010164
0.0001010163
0.0001010163
0.0001010168
0.0001010168
0.0001010012
0.0001010168
0.0001010163
0.0001010163
0.0001010163
0.0001010163
0.0001010163
0.0001010167
0.0001010168
0.0001010011
0.0001010168
0.0001010163
0.0001010163
0.0001010163
0.0001010163
0.0001010163
0.0001010167
0.0001010167
0.000101001
0.0001010167
0.0001010162
0.0001010162
0.0001010162
0.0001010162
0.0001010162
0.0001010167
0.0001010167
0.0001010009
0.0001010167
0.0001010162
0.0001010162
0.0001010162
0.0001010162
0.0001010162
0.0001010166
0.0001010166
0.0001010008
0.0001010166
0.0001010161
0.0001010161
0.0001010161
0.0001010161
0.0001010161
0.0001010166
0.0001010166
0.0001010007
0.0001010166
0.0001010161
0.000101016
0.0001010161
0.0001010161
0.0001010161
0.0001010165
0.0001010166
0.0001010005
0.0001010165
0.000101016
0.000101016
0.000101016
0.000101016
0.000101016
0.0001010165
0.0001010165
0.0001010014
0.0001010165
0.000101016
0.000101016
0.000101016
0.000101016
0.000101016
0.0001010165
0.0001010166
0.0006053945
0.0012713
0.001237647
0.001227498
0.001225557
0.001225726
0.001226508
0.001227554
0.000101005
0.0001010064
0.0001010191
0.000101019
0.0001010192
0.0001010193
0.0001010192
0.0001010191
0.0001010191
0.0001010061
0.0001010064
0.0001010066
0.0001010068
0.0001010072
0.0001010074
0.0001010072
0.0001010071
0.000101007
0.0001010062
0.0001010066
0.0001010068
0.0001010073
0.0001010081
0.0001010082
0.0001010079
0.0001010073
0.0001010071
0.0001010062
0.0001010068
0.0001010072
0.0001010084
0.0001010106
0.000101011
0.0001010108
0.000101008
0.000101065
0.0001010062
0.0001010071
0.0001010075
0.0001010105
0.0001010163
0.0001010705
0.0001013298
0.0001010802
0.000998367
0.0001010059
0.0001010068
0.0001010075
0.00010101
0.0001010129
0.0001010493
0.0003362952
0.001010311
0.0001010055
0.0001010062
0.0001010064
0.0001010068
0.0001010085
0.0001010098
0.0001010074
0.0001010054
0.0001010158
0.0001010052
0.0001010057
0.0001010056
0.0001010056
0.0001010056
0.0001010055
0.0001010053
0.0001010043
0.0001010044
0.0001010049
0.0001010053
0.0001010051
0.000101005
0.0001010048
0.0001010046
0.0001010043
0.0001010043
0.0001010043
0.0001010046
0.000101005
0.0001010049
0.0001010047
0.0001010045
0.0001010044
0.0001010043
0.0001010042
0.0001010043
0.0001010045
0.0001010048
0.0001010047
0.0001010046
0.0001010044
0.0001010043
0.0001010042
0.0001010042
0.0001010043
0.0001010043
0.0001010047
0.0001010046
0.0001010045
0.0001010044
0.0001010043
0.0001010042
0.0001010042
0.0001010043
0.0001010042
0.0001010046
0.0001010045
0.0001010044
0.0001010043
0.0001010043
0.0001010042
0.0001010042
0.0001010043
0.0001010041
0.0001010045
0.0001010044
0.0001010044
0.0001010043
0.0001010043
0.0001010042
0.0001010042
0.0001010042
0.0001010041
0.0001010045
0.0001010044
0.0001010043
0.0001010043
0.0001010042
0.0001010042
0.0001010042
0.0001010042
0.000101004
0.0001010044
0.0001010043
0.0001010043
0.0001010042
0.0001010042
0.0001010042
0.0001010042
0.0001010042
0.0001010039
0.0001010043
0.0001010043
0.0001010042
0.0001010042
0.0001010042
0.0001010041
0.0001010041
0.0001010041
0.0001010038
0.0001010043
0.0001010042
0.0001010042
0.0001010041
0.0001010041
0.0001010041
0.0001010041
0.0001010041
0.0001010038
0.0001010042
0.0001010042
0.0001010041
0.0001010041
0.0001010041
0.000101004
0.000101004
0.000101004
0.0001010037
0.0001010042
0.0001010041
0.0001010041
0.000101004
0.000101004
0.000101004
0.000101004
0.000101004
0.0001010036
0.0001010041
0.0001010041
0.000101004
0.000101004
0.0001010039
0.0001010039
0.0001010039
0.0001010039
0.0001010035
0.0001010041
0.000101004
0.000101004
0.0001010039
0.0001010039
0.0001010039
0.0001010039
0.0001010039
0.0001010034
0.0001010041
0.000101004
0.0001010039
0.0001010039
0.0001010039
0.0001010038
0.0001010038
0.0001010039
0.000604428
0.001263116
0.001225601
0.001213262
0.00121088
0.001211068
0.001212059
0.001213446
0.000101005
0.0001010064
0.0001010191
0.0001010189
0.0001010191
0.0001010192
0.0001010191
0.000101019
0.000101019
0.0001010061
0.0001010064
0.0001010066
0.0001010069
0.0001010073
0.0001010074
0.0001010072
0.0001010071
0.0001010071
0.000101006
0.0001010066
0.0001010068
0.0001010073
0.0001010081
0.0001010082
0.0001010079
0.0001010073
0.0001010071
0.0001010061
0.0001010069
0.0001010072
0.0001010084
0.0001010106
0.000101011
0.0001010108
0.000101008
0.0001010657
0.0001010059
0.0001010071
0.0001010075
0.0001010105
0.0001010165
0.0001010711
0.0001013323
0.0001010856
0.0009502244
0.0001010056
0.0001010068
0.0001010075
0.00010101
0.0001010134
0.0001010492
0.0003275319
0.000957157
0.0001010053
0.0001010062
0.0001010065
0.0001010068
0.0001010085
0.0001010099
0.0001010071
0.0001010057
0.0001010155
0.0001010051
0.0001010057
0.0001010056
0.0001010055
0.0001010056
0.0001010054
0.0001010054
0.0001010042
0.0001010043
0.0001010048
0.0001010053
0.0001010052
0.000101005
0.0001010048
0.0001010046
0.0001010043
0.0001010043
0.0001010043
0.0001010046
0.0001010051
0.0001010049
0.0001010047
0.0001010045
0.0001010044
0.0001010043
0.0001010042
0.0001010043
0.0001010045
0.0001010049
0.0001010047
0.0001010046
0.0001010044
0.0001010043
0.0001010042
0.0001010042
0.0001010043
0.0001010044
0.0001010048
0.0001010046
0.0001010045
0.0001010044
0.0001010043
0.0001010042
0.0001010042
0.0001010043
0.0001010043
0.0001010047
0.0001010045
0.0001010044
0.0001010043
0.0001010043
0.0001010042
0.0001010042
0.0001010043
0.0001010042
0.0001010046
0.0001010045
0.0001010044
0.0001010043
0.0001010043
0.0001010042
0.0001010042
0.0001010042
0.0001010041
0.0001010045
0.0001010044
0.0001010043
0.0001010043
0.0001010042
0.0001010042
0.0001010042
0.0001010042
0.0001010041
0.0001010045
0.0001010044
0.0001010043
0.0001010042
0.0001010042
0.0001010042
0.0001010042
0.0001010042
0.000101004
0.0001010044
0.0001010043
0.0001010043
0.0001010042
0.0001010042
0.0001010041
0.0001010041
0.0001010041
0.0001010039
0.0001010044
0.0001010043
0.0001010042
0.0001010041
0.0001010041
0.0001010041
0.0001010041
0.0001010041
0.0001010038
0.0001010043
0.0001010042
0.0001010041
0.0001010041
0.0001010041
0.000101004
0.000101004
0.0001010041
0.0001010037
0.0001010043
0.0001010041
0.0001010041
0.000101004
0.000101004
0.000101004
0.000101004
0.000101004
0.0001010036
0.0001010042
0.0001010041
0.000101004
0.000101004
0.0001010039
0.0001010039
0.0001010039
0.0001010039
0.0001010035
0.0001010042
0.0001010041
0.000101004
0.0001010039
0.0001010039
0.0001010039
0.0001010039
0.0001010039
0.0001010034
0.0001010042
0.000101004
0.0001010039
0.0001010039
0.0001010039
0.0001010038
0.0001010038
0.0001010039
0.0006042502
0.001261501
0.001223137
0.001210374
0.001207878
0.001208112
0.001209231
0.001210792
0.000101005
0.0001010064
0.0001010191
0.0001010189
0.0001010191
0.0001010192
0.0001010191
0.000101019
0.000101019
0.0001010061
0.0001010064
0.0001010066
0.0001010069
0.0001010073
0.0001010074
0.0001010072
0.0001010071
0.0001010071
0.0001010061
0.0001010066
0.0001010068
0.0001010073
0.0001010081
0.0001010082
0.0001010079
0.0001010073
0.0001010071
0.0001010061
0.0001010069
0.0001010072
0.0001010084
0.0001010106
0.000101011
0.0001010108
0.000101008
0.0001010659
0.0001010059
0.0001010071
0.0001010076
0.0001010105
0.0001010164
0.0001010709
0.0001013328
0.0001010873
0.0009308233
0.0001010056
0.0001010069
0.0001010075
0.00010101
0.0001010136
0.0001010491
0.0003247566
0.0009358761
0.0001010053
0.0001010062
0.0001010065
0.0001010068
0.0001010085
0.00010101
0.0001010071
0.0001010059
0.0001010154
0.0001010051
0.0001010057
0.0001010056
0.0001010056
0.0001010056
0.0001010054
0.0001010054
0.0001010041
0.0001010042
0.0001010048
0.0001010053
0.0001010052
0.000101005
0.0001010048
0.0001010046
0.0001010043
0.0001010043
0.0001010043
0.0001010046
0.0001010051
0.0001010049
0.0001010047
0.0001010045
0.0001010044
0.0001010043
0.0001010042
0.0001010043
0.0001010045
0.0001010049
0.0001010048
0.0001010046
0.0001010044
0.0001010043
0.0001010042
0.0001010042
0.0001010043
0.0001010044
0.0001010048
0.0001010047
0.0001010045
0.0001010044
0.0001010043
0.0001010042
0.0001010042
0.0001010043
0.0001010043
0.0001010047
0.0001010046
0.0001010045
0.0001010044
0.0001010043
0.0001010042
0.0001010042
0.0001010043
0.0001010042
0.0001010046
0.0001010045
0.0001010044
0.0001010043
0.0001010043
0.0001010042
0.0001010042
0.0001010042
0.0001010041
0.0001010045
0.0001010045
0.0001010044
0.0001010043
0.0001010042
0.0001010042
0.0001010042
0.0001010042
0.0001010041
0.0001010045
0.0001010044
0.0001010043
0.0001010043
0.0001010042
0.0001010042
0.0001010042
0.0001010042
0.000101004
0.0001010044
0.0001010043
0.0001010043
0.0001010042
0.0001010042
0.0001010041
0.0001010041
0.0001010041
0.0001010039
0.0001010044
0.0001010043
0.0001010042
0.0001010042
0.0001010041
0.0001010041
0.0001010041
0.0001010041
0.0001010038
0.0001010043
0.0001010042
0.0001010042
0.0001010041
0.0001010041
0.000101004
0.000101004
0.0001010041
0.0001010037
0.0001010043
0.0001010042
0.0001010041
0.0001010041
0.000101004
0.000101004
0.000101004
0.000101004
0.0001010036
0.0001010042
0.0001010041
0.0001010041
0.000101004
0.000101004
0.0001010039
0.0001010039
0.0001010039
0.0001010035
0.0001010042
0.0001010041
0.000101004
0.0001010039
0.0001010039
0.0001010039
0.0001010039
0.0001010039
0.0001010034
0.0001010042
0.0001010041
0.000101004
0.0001010039
0.0001010039
0.0001010038
0.0001010038
0.0001010039
0.000604348
0.001262606
0.001224956
0.001212566
0.001210199
0.001210446
0.001211477
0.00121279
0.000101005
0.0001010064
0.0001010191
0.000101019
0.0001010192
0.0001010192
0.0001010191
0.000101019
0.000101019
0.0001010061
0.0001010064
0.0001010066
0.0001010069
0.0001010073
0.0001010074
0.0001010072
0.0001010071
0.0001010071
0.0001010061
0.0001010066
0.0001010068
0.0001010073
0.0001010081
0.0001010082
0.0001010079
0.0001010073
0.0001010071
0.0001010061
0.0001010069
0.0001010072
0.0001010084
0.0001010106
0.000101011
0.0001010108
0.000101008
0.0001010659
0.0001010059
0.0001010071
0.0001010076
0.0001010105
0.0001010165
0.0001010709
0.0001013327
0.0001010849
0.0009308299
0.0001010056
0.0001010069
0.0001010075
0.00010101
0.0001010136
0.0001010489
0.0003244319
0.0009357899
0.0001010053
0.0001010062
0.0001010065
0.0001010068
0.0001010085
0.00010101
0.0001010071
0.0001010059
0.0001010154
0.0001010051
0.0001010057
0.0001010056
0.0001010056
0.0001010056
0.0001010054
0.0001010054
0.0001010041
0.0001010042
0.0001010048
0.0001010053
0.0001010052
0.000101005
0.0001010048
0.0001010046
0.0001010043
0.0001010043
0.0001010043
0.0001010046
0.0001010051
0.0001010049
0.0001010047
0.0001010045
0.0001010044
0.0001010043
0.0001010042
0.0001010043
0.0001010045
0.0001010049
0.0001010048
0.0001010046
0.0001010044
0.0001010043
0.0001010042
0.0001010042
0.0001010043
0.0001010044
0.0001010048
0.0001010047
0.0001010045
0.0001010044
0.0001010043
0.0001010042
0.0001010042
0.0001010043
0.0001010043
0.0001010047
0.0001010046
0.0001010045
0.0001010044
0.0001010043
0.0001010042
0.0001010042
0.0001010043
0.0001010042
0.0001010046
0.0001010045
0.0001010044
0.0001010043
0.0001010043
0.0001010042
0.0001010042
0.0001010042
0.0001010041
0.0001010045
0.0001010045
0.0001010044
0.0001010043
0.0001010042
0.0001010042
0.0001010042
0.0001010042
0.0001010041
0.0001010045
0.0001010044
0.0001010043
0.0001010043
0.0001010042
0.0001010042
0.0001010042
0.0001010042
0.000101004
0.0001010044
0.0001010043
0.0001010043
0.0001010042
0.0001010042
0.0001010041
0.0001010041
0.0001010041
0.0001010039
0.0001010044
0.0001010043
0.0001010042
0.0001010042
0.0001010041
0.0001010041
0.0001010041
0.0001010041
0.0001010038
0.0001010043
0.0001010042
0.0001010042
0.0001010041
0.0001010041
0.000101004
0.000101004
0.000101004
0.0001010037
0.0001010043
0.0001010042
0.0001010041
0.0001010041
0.000101004
0.000101004
0.000101004
0.000101004
0.0001010036
0.0001010042
0.0001010041
0.0001010041
0.000101004
0.000101004
0.0001010039
0.0001010039
0.0001010039
0.0001010035
0.0001010042
0.0001010041
0.000101004
0.0001010039
0.0001010039
0.0001010039
0.0001010039
0.0001010039
0.0001010034
0.0001010042
0.0001010041
0.000101004
0.0001010039
0.0001010039
0.0001010038
0.0001010038
0.0001010039
0.0006045882
0.001269654
0.001235581
0.001225284
0.001223351
0.001223606
0.001224356
0.001224105
0.000101005
0.0001010064
0.0001010192
0.000101019
0.0001010192
0.0001010193
0.0001010192
0.0001010191
0.0001010191
0.0001010061
0.0001010064
0.0001010066
0.0001010069
0.0001010073
0.0001010074
0.0001010072
0.0001010071
0.0001010071
0.000101006
0.0001010066
0.0001010068
0.0001010073
0.0001010081
0.0001010082
0.0001010079
0.0001010073
0.0001010071
0.0001010061
0.0001010069
0.0001010072
0.0001010084
0.0001010106
0.000101011
0.0001010108
0.000101008
0.0001010657
0.0001010059
0.0001010071
0.0001010076
0.0001010105
0.0001010165
0.000101071
0.0001013326
0.0001010836
0.0009503272
0.0001010056
0.0001010069
0.0001010075
0.00010101
0.0001010134
0.000101049
0.0003255272
0.0009567856
0.0001010054
0.0001010062
0.0001010065
0.0001010068
0.0001010085
0.0001010099
0.0001010072
0.0001010057
0.0001010155
0.0001010051
0.0001010057
0.0001010056
0.0001010056
0.0001010056
0.0001010054
0.0001010054
0.0001010042
0.0001010043
0.0001010048
0.0001010054
0.0001010052
0.000101005
0.0001010048
0.0001010046
0.0001010043
0.0001010043
0.0001010043
0.0001010047
0.0001010051
0.0001010049
0.0001010047
0.0001010045
0.0001010044
0.0001010043
0.0001010042
0.0001010043
0.0001010045
0.0001010049
0.0001010048
0.0001010046
0.0001010044
0.0001010043
0.0001010042
0.0001010042
0.0001010043
0.0001010044
0.0001010048
0.0001010047
0.0001010045
0.0001010044
0.0001010043
0.0001010042
0.0001010042
0.0001010043
0.0001010043
0.0001010047
0.0001010046
0.0001010045
0.0001010044
0.0001010043
0.0001010042
0.0001010042
0.0001010043
0.0001010042
0.0001010046
0.0001010045
0.0001010044
0.0001010043
0.0001010043
0.0001010042
0.0001010042
0.0001010042
0.0001010042
0.0001010046
0.0001010045
0.0001010044
0.0001010043
0.0001010042
0.0001010042
0.0001010042
0.0001010042
0.0001010041
0.0001010045
0.0001010044
0.0001010043
0.0001010043
0.0001010042
0.0001010042
0.0001010042
0.0001010042
0.000101004
0.0001010044
0.0001010043
0.0001010043
0.0001010042
0.0001010042
0.0001010041
0.0001010041
0.0001010041
0.0001010039
0.0001010044
0.0001010043
0.0001010042
0.0001010042
0.0001010041
0.0001010041
0.0001010041
0.0001010041
0.0001010038
0.0001010043
0.0001010042
0.0001010042
0.0001010041
0.0001010041
0.000101004
0.000101004
0.000101004
0.0001010038
0.0001010043
0.0001010042
0.0001010041
0.0001010041
0.000101004
0.000101004
0.000101004
0.000101004
0.0001010037
0.0001010042
0.0001010041
0.0001010041
0.000101004
0.000101004
0.0001010039
0.0001010039
0.0001010039
0.0001010036
0.0001010042
0.0001010041
0.000101004
0.000101004
0.0001010039
0.0001010039
0.0001010039
0.0001010039
0.0001010034
0.0001010042
0.0001010041
0.000101004
0.0001010039
0.0001010039
0.0001010038
0.0001010038
0.0001010039
0.0006071678
0.00128936
0.001269633
0.00126277
0.001261702
0.001262187
0.001262856
0.001261655
0.0001010051
0.0001010064
0.0001010193
0.0001010193
0.0001010196
0.0001010196
0.0001010196
0.0001010195
0.0001010194
0.0001010062
0.0001010064
0.0001010066
0.0001010069
0.0001010073
0.0001010074
0.0001010072
0.0001010071
0.0001010071
0.0001010062
0.0001010066
0.0001010068
0.0001010073
0.0001010081
0.0001010082
0.0001010079
0.0001010073
0.0001010071
0.0001010062
0.0001010069
0.0001010072
0.0001010084
0.0001010106
0.000101011
0.0001010108
0.000101008
0.000101065
0.0001010062
0.0001010071
0.0001010076
0.0001010105
0.0001010165
0.0001010712
0.0001013307
0.0001010802
0.0009989367
0.0001010059
0.0001010069
0.0001010075
0.00010101
0.0001010132
0.0001010492
0.000331088
0.001008889
0.0001010054
0.0001010062
0.0001010064
0.0001010068
0.0001010085
0.0001010098
0.0001010074
0.0001010054
0.0001010158
0.0001010052
0.0001010058
0.0001010056
0.0001010056
0.0001010056
0.0001010055
0.0001010053
0.0001010043
0.0001010044
0.0001010051
0.0001010053
0.0001010052
0.000101005
0.0001010048
0.0001010046
0.0001010043
0.0001010043
0.0001010043
0.0001010047
0.000101005
0.0001010049
0.0001010047
0.0001010045
0.0001010044
0.0001010043
0.0001010042
0.0001010043
0.0001010046
0.0001010049
0.0001010048
0.0001010046
0.0001010044
0.0001010043
0.0001010042
0.0001010042
0.0001010043
0.0001010043
0.0001010048
0.0001010046
0.0001010045
0.0001010044
0.0001010043
0.0001010042
0.0001010042
0.0001010043
0.0001010043
0.0001010047
0.0001010046
0.0001010045
0.0001010044
0.0001010043
0.0001010042
0.0001010042
0.0001010043
0.0001010043
0.0001010046
0.0001010045
0.0001010044
0.0001010043
0.0001010043
0.0001010042
0.0001010042
0.0001010042
0.0001010044
0.0001010046
0.0001010045
0.0001010044
0.0001010043
0.0001010042
0.0001010042
0.0001010042
0.0001010042
0.0001010041
0.0001010045
0.0001010044
0.0001010043
0.0001010043
0.0001010042
0.0001010042
0.0001010042
0.0001010042
0.000101004
0.0001010044
0.0001010044
0.0001010043
0.0001010042
0.0001010042
0.0001010041
0.0001010041
0.0001010041
0.000101004
0.0001010044
0.0001010043
0.0001010042
0.0001010042
0.0001010041
0.0001010041
0.0001010041
0.0001010041
0.0001010039
0.0001010043
0.0001010042
0.0001010042
0.0001010041
0.0001010041
0.000101004
0.000101004
0.000101004
0.0001010038
0.0001010043
0.0001010042
0.0001010041
0.0001010041
0.000101004
0.000101004
0.000101004
0.000101004
0.0001010038
0.0001010042
0.0001010041
0.0001010041
0.000101004
0.000101004
0.0001010039
0.0001010039
0.0001010039
0.0001010037
0.0001010042
0.0001010041
0.000101004
0.000101004
0.0001010039
0.0001010039
0.0001010039
0.0001010039
0.0001010036
0.0001010042
0.0001010041
0.000101004
0.0001010039
0.0001010038
0.0001010038
0.0001010038
0.0001010039
0.0006115328
0.0005981244
0.0005791968
0.0005756236
0.0005741157
0.0005757869
0.0005774776
0.0005765009
0.0001010051
0.0001010191
0.000101019
0.0001010191
0.0001010194
0.0001010195
0.0001010194
0.0001010194
0.0001010194
0.0001010051
0.0001010189
0.0001010186
0.0001010189
0.0001010193
0.0001010194
0.0001010195
0.0001010191
0.000101019
0.0001010052
0.000101019
0.0001010188
0.000101023
0.0001010344
0.0001010347
0.0001010286
0.0001010243
0.0001010213
0.000101005
0.0001010192
0.0001010193
0.0001010414
0.0001010554
0.000101011
0.0001010107
0.000101008
0.0001010245
0.0001010047
0.0001010196
0.0001010197
0.0001010549
0.0001010167
0.0001010716
0.0001013307
0.0001010804
0.0001010783
0.0001010044
0.0001010196
0.0001010195
0.000101052
0.0001010131
0.0001010514
0.0003425255
0.0003562864
0.0001010035
0.000101019
0.0001010186
0.0001010302
0.0001010207
0.0001010223
0.0001010203
0.0001010182
0.0001010177
0.0001010062
0.000101018
0.0001010176
0.0001010175
0.000101018
0.0001010175
0.0001010173
0.000101017
0.0001010163
0.0001010032
0.0001010178
0.0001010171
0.000101017
0.0001010168
0.0001010167
0.0001010175
0.0001010164
0.0001010165
0.0001010028
0.0001010175
0.0001010169
0.0001010167
0.0001010166
0.0001010164
0.0001010165
0.0001010169
0.0001010163
0.0001010026
0.0001010175
0.0001010167
0.0001010166
0.0001010165
0.0001010164
0.0001010165
0.0001010168
0.0001010168
0.0001010032
0.0001010172
0.0001010167
0.0001010165
0.0001010165
0.0001010164
0.0001010164
0.0001010168
0.0001010167
0.0001010057
0.0001010169
0.0001010166
0.0001010165
0.0001010164
0.0001010164
0.0001010164
0.0001010168
0.0001010168
0.0001010057
0.000101017
0.0001010165
0.0001010164
0.0001010164
0.0001010164
0.0001010164
0.0001010168
0.0001010168
0.0001010021
0.000101017
0.0001010165
0.0001010164
0.0001010164
0.0001010164
0.0001010163
0.0001010167
0.0001010167
0.0001010018
0.0001010169
0.0001010164
0.0001010163
0.0001010163
0.0001010163
0.0001010163
0.0001010167
0.0001010167
0.0001010017
0.0001010168
0.0001010164
0.0001010163
0.0001010163
0.0001010163
0.0001010163
0.0001010167
0.0001010167
0.0001010016
0.0001010168
0.0001010163
0.0001010162
0.0001010162
0.0001010162
0.0001010162
0.0001010166
0.0001010166
0.0001010014
0.0001010168
0.0001010163
0.0001010162
0.0001010162
0.0001010162
0.0001010162
0.0001010166
0.0001010166
0.0001010012
0.0001010167
0.0001010162
0.0001010161
0.0001010161
0.0001010161
0.0001010161
0.0001010167
0.0001010165
0.000101001
0.0001010167
0.0001010162
0.0001010161
0.0001010161
0.0001010161
0.0001010161
0.0001010166
0.0001010163
0.0001010008
0.0001010166
0.0001010161
0.000101016
0.000101016
0.0001010162
0.0001010164
0.0001010174
0.0001010163
0.0001010009
0.0001010166
0.0001010161
0.000101016
0.000101016
0.000101016
0.0001010159
0.0001010167
0.000101016
0.0002708397
0.0002664383
0.0002667181
0.0006017547
0.0006040197
0.0002711522
0.0002705914
0.0002668661
0.0001010021
0.00134206
0.001312681
0.001302648
0.001300227
0.001300646
0.001301892
0.001302885
0.001301775
0.000101002
0.001313166
0.001260927
0.001248892
0.00125021
0.001253189
0.001254976
0.001255087
0.001255338
0.0001010017
0.001303746
0.00124904
0.001240376
0.00126327
0.001264941
0.001279859
0.001267541
0.001276791
0.0001010021
0.001300936
0.001250078
0.001262856
0.001274445
0.0001011112
0.0001010688
0.0001010649
0.001312098
0.0001010218
0.001300629
0.001251116
0.00126198
0.0001011578
0.0001011769
0.0001013291
0.0001010914
0.0001011034
0.0001009996
0.001301366
0.001250627
0.001260103
0.0001011052
0.0001010522
0.000101001
0.001300514
0.001247517
0.001256592
0.001263005
0.001294916
0.001313384
0.001317961
0.001318025
0.0001010378
0.001297024
0.001241498
0.001227437
0.001228421
0.00123426
0.001239397
0.001241305
0.001242034
0.000101044
0.001297383
0.001237721
0.001218598
0.001214646
0.001214953
0.001216052
0.001216922
0.001217524
0.0001009969
0.001297371
0.001236754
0.001216054
0.001210416
0.001209127
0.001209107
0.001209486
0.00120994
0.0001009996
0.001297884
0.001236323
0.001215144
0.001208951
0.001207128
0.001206721
0.001206892
0.001207251
0.0001009985
0.001296374
0.00123566
0.00121466
0.001208327
0.001206314
0.001205753
0.001205828
0.001206137
0.0001010568
0.00129254
0.001234979
0.001214372
0.001208043
0.001205964
0.001205338
0.001205369
0.001205652
0.0001010577
0.001292375
0.001234935
0.001214305
0.001207939
0.001205819
0.001205158
0.001205169
0.001205437
0.0001010647
0.001296172
0.001235548
0.001214431
0.001207945
0.001205776
0.001205091
0.001205086
0.001205347
0.0001009981
0.001298875
0.001236236
0.001214612
0.001207996
0.001205782
0.001205076
0.001205059
0.001205313
0.000101073
0.001299563
0.001236515
0.001214721
0.001208047
0.001205808
0.001205087
0.001205062
0.001205309
0.0001009974
0.001299078
0.001236527
0.001214777
0.001208096
0.00120585
0.00120512
0.001205088
0.001205328
0.000101081
0.001298988
0.001236546
0.001214835
0.001208164
0.001205916
0.00120518
0.001205139
0.001205367
0.0001009966
0.001298575
0.001236633
0.001214934
0.001208285
0.001206043
0.001205302
0.001205239
0.001205441
0.0001010002
0.001298665
0.001236731
0.001215135
0.001208555
0.001206347
0.001205583
0.001205457
0.00120559
0.0001010029
0.00129901
0.001236973
0.001215645
0.001209291
0.001207183
0.001206345
0.00120601
0.001205927
0.0001009956
0.001299348
0.001237933
0.001217445
0.001211887
0.001210133
0.001209031
0.001207912
0.001206954
0.0002535412
0.0006455359
0.0002664304
0.0001010038
0.0001010318
0.0002739041
0.0006316864
0.0006099063
0.0006095751
0.0005943702
0.0001011919
0.0001011099
0.000273933
0.0006039397
0.0006009763
0.0006028776
0.0005888438
0.0001013018
0.0001011793
0.0002738826
0.0006002299
0.0005998511
0.0005854936
0.0005836608
0.0001013015
0.0001012278
0.0002738164
0.0005997422
0.0005996592
0.0005832969
0.0005830822
0.0001013305
0.0001012422
0.0002737465
0.0005996423
0.0005995906
0.0005830345
0.0005830117
0.0001013096
0.0001012393
0.0002736954
0.0005995836
0.0005995383
0.0005830142
0.0005830274
0.0001012542
0.000101205
0.0002736626
0.0005995329
0.0005995017
0.0005830491
0.0005830785
0.0001012061
0.0001011745
0.0002736427
0.0005995109
0.000599521
0.0005831024
0.000583125
0.000101167
0.0001011484
0.000649929
0.0006334362
0.0001010032
0.0001021069
0.0001010032
0.0001021141
0.0006297697
0.0006277471
0.0001010036
0.0001021924
0.0001010025
0.0001021954
0.0006274159
0.00062722
0.0001010034
0.0001023349
0.0001010025
0.0001023419
0.0006272465
0.000627248
0.0001010031
0.0001025339
0.0001010025
0.0001025418
0.0006273285
0.0006273359
0.0001010028
0.0001027987
0.0001010021
0.0001028072
0.0002871621
0.0002899359
0.0001011777
0.0001011087
0.0001011122
0.0006274771
0.0001013332
0.0001011876
0.0006219378
0.0001011415
0.0001011082
0.000618888
0.0001011021
0.0001010865
0.0006274239
0.0006274164
0.0001010024
0.0001031088
0.0001010009
0.0001031181
0.000604833
0.0006242862
0.0001010522
0.0001031316
0.0001025027
0.000641029
0.0006469133
0.000102372
0.0001014641
0.0006467809
0.000646515
0.0001016989
0.0001013358
0.0006464472
0.0006463784
0.0001015936
0.0001013225
0.0006274865
0.0006274712
0.0001010017
0.0001033923
0.0001009996
0.0001034024
0.0006275233
0.0006275125
0.0001010012
0.000103623
0.0001009987
0.0001036324
0.0006275595
0.000627557
0.0001010009
0.0001038181
0.000100998
0.0001038235
0.0006275934
0.0006275952
0.0001010007
0.0001039716
0.0001009975
0.0001039763
0.0006276285
0.0006276309
0.0001010006
0.0001041018
0.0001009971
0.0001041054
0.0006276612
0.0006276641
0.0001010005
0.0001042117
0.0001009968
0.0001042155
0.000627691
0.0006276946
0.0001010005
0.0001043101
0.0001009966
0.0001043138
0.0006277199
0.0006277237
0.0001010005
0.0001044016
0.0001009965
0.0001044054
0.0006277483
0.0006277521
0.0001010005
0.0001044904
0.0001009964
0.0001044943
0.0006277771
0.000627781
0.0001010005
0.0001045799
0.0001009963
0.0001045838
0.000627807
0.000627811
0.0001010005
0.000104673