/*--------------------------------*- C++ -*----------------------------------*\
  =========                 |
  \\      /  F ield         | OpenFOAM: The Open Source CFD Toolbox
   \\    /   O peration     | Website:  https://openfoam.org
    \\  /    A nd           | Version:  7
     \\/     M anipulation  |
\*---------------------------------------------------------------------------*/
FoamFile
{
    version     2.0;
    format      ascii;
    class       surfaceScalarField;
    location    "0.03";
    object      phi;
}
// * * * * * * * * * * * * * * * * * * * * * * * * * * * * * * * * * * * * * //

dimensions      [0 3 -1 0 0 0 0];

internalField   nonuniform List<scalar> 
228001
(
0.0002147379
-0.0001937481
-9.398945e-06
-1.159061e-05
0.0002122264
-0.0001829016
-1.623883e-05
-1.308578e-05
0.0001887471
-0.000160997
-1.684998e-05
-1.089999e-05
0.0001570676
-0.0001321451
-1.532407e-05
-9.598419e-06
0.0001198879
-9.903783e-05
-1.346801e-05
-7.382079e-06
8.342387e-05
-6.804317e-05
-1.000033e-05
-5.380371e-06
5.495773e-05
-4.438248e-05
-6.974188e-06
-3.601095e-06
3.528235e-05
-2.848732e-05
-4.48736e-06
-2.307717e-06
-0.003993247
-0.0005234955
-0.0002513016
0.0002032442
-0.0001740735
0.0001205646
-1.8429e-05
0.001042888
0.001084134
0.001254462
0.001255252
-0.003478599
-0.0008962515
-3.78518e-05
0.0003018551
-0.0001008094
0.000149795
6.861537e-05
-0.00285306
-0.001218602
-5.12517e-05
0.0003307438
-2.564804e-05
0.0002033405
0.0001358789
-0.002102448
-0.001427239
-6.813029e-05
0.0003211529
3.546676e-05
0.0002196112
0.0001685271
-0.001409707
-0.001345547
-6.646255e-05
0.0002741164
7.14031e-05
0.0002123023
0.0001614472
-0.0009039782
-0.0009923085
-5.580894e-05
0.0001992481
6.492128e-05
0.0001581949
0.0001200252
-0.0005599374
-0.0006964861
-3.485234e-05
0.0001381062
5.000109e-05
0.0001124729
8.671748e-05
-0.0004506393
-2.093922e-05
8.982762e-05
3.464716e-05
7.336796e-05
5.690965e-05
-0.0003431113
-0.004374657
-0.0008589425
-0.0003380579
0.001180486
0.001171668
0.001347813
0.001348193
-0.00373959
-0.001399963
-0.0001313553
-0.003006585
-0.001913127
-3.847925e-05
-0.002082529
-0.002306838
-4.445596e-05
-0.001192443
-0.00221892
-1.671191e-05
-0.0006144714
-0.001563803
-6.477061e-06
-0.0003261339
-0.0009673222
-1.750133e-05
-0.0005869884
-1.033217e-05
-0.0001794527
-0.004930459
-0.001183435
-0.0004327241
0.001337982
0.00131676
0.001513615
0.001519317
-0.004199317
-0.002035903
-9.520139e-05
-0.003299043
-0.002851573
3.817226e-05
-0.001986517
-0.003758684
0.0001393198
-0.0007104157
-0.000846652
0.0001346113
-0.0008028942
-0.001037122
-0.0009429639
-0.0001161142
-0.0005411522
6.995986e-05
-0.000468002
-0.0006583596
-0.0005605508
3.381632e-05
-0.001152719
3.546645e-05
-0.0006360973
1.430351e-05
6.862163e-05
-0.00576172
-0.001483858
-0.0004990847
0.001546733
0.001515021
0.001746723
0.001752749
-0.005011152
-0.002685286
-0.0001011845
-0.004109362
-0.003955694
0.0002023311
-0.0003600036
-0.001211176
0.0003100046
-0.0005925433
-0.0005288547
-0.000656993
-0.001487174
-0.001577848
-0.001763458
-0.0001393947
-0.001112465
4.520423e-05
-6.414372e-05
0.0001608523
-0.0006650475
2.718628e-05
0.0006540646
-0.000249327
9.772807e-05
-0.0001309262
-0.0002943425
-0.0001937138
-0.0001349137
-0.0002948995
-0.0002272472
-0.0003791428
-0.0001411607
4.900479e-05
-5.893796e-05
-0.0001397358
-9.093416e-05
0.0003997309
-0.006951675
-0.00167381
-0.0005831881
0.00182418
0.001780504
0.0020576
0.00206253
-0.006654076
-0.002915276
-6.760933e-05
-0.001208057
-0.004511893
0.000307613
-0.001767806
-0.001535339
-0.001894287
-0.0009574609
-0.001563087
0.0001013144
0.0001079225
0.001740279
0.0005783803
0.0001403841
0.0001216617
8.598384e-05
9.002996e-05
-0.0008456754
-0.0006071998
-0.0007390615
-0.0006727049
-0.0002272746
0.0002260495
0.0001718244
-0.0001739676
3.368343e-06
-0.000541699
0.0003742236
8.345118e-06
-1.607561e-05
-4.200641e-05
-3.411496e-05
1.99977e-06
-0.0003049732
0.0001978349
9.431075e-06
-7.714927e-06
-2.22631e-05
-1.536606e-05
1.890457e-06
-0.008462403
-0.001607275
-0.0006868391
0.002140348
0.002097545
0.002419191
0.002425621
-0.008634611
-0.002629433
-0.0001136344
-0.001682321
-0.004125373
0.0002908889
-0.002598468
-0.002247996
-0.002783234
0.00195437
-0.001978553
-0.001709125
5.098738e-05
0.0008990535
0.0003896207
-0.0005665665
-0.0007207171
-1.39013e-06
-0.009761113
-0.001376862
-0.0007916097
0.002423529
0.002392149
0.002748523
0.002758107
-0.009980129
-0.002217158
-0.0001932581
-0.01083928
-0.003364637
9.84136e-05
-0.01274299
-0.004138663
-1.379726e-05
0.001782534
0.0009336491
0.001776604
0.001563391
-0.01534848
-0.004507511
-0.0002153808
0.002389234
0.000896038
0.002345212
0.001697898
-0.01584671
-0.00291342
-0.0001762619
0.001727712
-0.0001640028
0.001620456
0.0004037491
-0.01517672
-0.001768083
-0.0002320856
0.001148129
-0.000525026
0.000771245
-6.417495e-05
-0.001209669
-4.492608e-05
0.000961212
-0.0006033201
0.0006330323
-0.0001544189
-0.01475863
-0.01067934
-0.001157181
-0.0008647413
0.002652453
0.002629762
0.003016112
0.003026072
-0.01078571
-0.001852278
-0.0002585112
-0.01151089
-0.002620614
-1.88388e-05
-0.01260064
-0.003052438
3.528612e-06
-0.01382864
-0.003236664
-4.285328e-05
-0.01435733
-0.002329573
-5.515618e-05
-0.01432626
-0.001818098
1.894567e-05
-0.001381852
-7.169835e-05
-0.01408238
-0.01142198
-0.0009504228
-0.0009493365
0.002846135
0.002830546
0.003242611
0.003245264
-0.01146268
-0.001508324
-0.0003032537
-0.01195624
-0.002066529
-6.052358e-05
-0.01262884
-0.002350148
-2.968522e-05
-0.01335748
-0.002505027
-3.000854e-06
-0.01361382
-0.002085313
1.208261e-05
-0.01363493
-0.001795321
-1.67199e-06
-0.001483976
6.862975e-06
-0.01353966
-0.01199697
-0.0007984016
-0.0009801819
0.002997851
0.002986128
0.003419658
0.003421491
-0.01192219
-0.0012546
-0.0003285059
-0.01223292
-0.001682872
-7.291596e-05
-0.01262249
-0.001926246
-3.433692e-05
-0.01305187
-0.002071267
-4.37633e-06
-0.01326265
-0.001877358
2.825648e-06
-0.01333101
-0.001736717
9.7549e-06
-0.001547779
-3.307921e-06
-0.0132639
-0.01246146
-0.000677831
-0.001043166
0.003127194
0.003116132
0.00357037
0.003570356
-0.01230481
-0.001069744
-0.0003415052
-0.01247999
-0.001430858
-7.683326e-05
-0.01271628
-0.001652004
-3.795112e-05
-0.01297532
-0.001807558
-4.668526e-06
-0.0130894
-0.001766086
2.812742e-06
-0.01311407
-0.001717575
5.522359e-06
-0.001613143
5.276051e-06
-0.01305398
-0.01287387
-0.000603415
-0.001059598
0.003237168
0.003227959
0.00369648
0.003697442
-0.01263219
-0.0009530541
-0.000358371
-0.01270627
-0.001276175
-8.059843e-05
-0.01282325
-0.001497808
-3.721792e-05
-0.01296493
-0.001660985
-4.890637e-06
-0.01302639
-0.00170386
-7.660087e-07
-0.0130283
-0.001721126
5.464257e-06
-0.001689381
2.991577e-06
-0.01295505
-0.01322933
-0.0005561229
-0.001100687
0.003335359
0.003327066
0.003809523
0.003810776
-0.01292971
-0.0008842424
-0.0003684302
-0.01293635
-0.001187733
-8.180308e-05
-0.01297613
-0.001420503
-3.751968e-05
-0.01303276
-0.001599115
-5.243105e-06
-0.01303678
-0.001698853
-9.846446e-07
-0.0129979
-0.001764741
4.729861e-06
-0.001786138
4.27322e-06
-0.01290541
-0.01357275
-0.0005371236
-0.001124105
0.003427199
0.00341944
0.003914722
0.003916489
-0.0132188
-0.0008574219
-0.0003807691
-0.01316693
-0.001155626
-8.3977e-05
-0.01314851
-0.001401269
-3.765355e-05
-0.01314261
-0.00159953
-5.486416e-06
-0.01310002
-0.001740229
-1.210025e-06
-0.01302637
-0.001843218
4.826927e-06
-0.00190749
4.138975e-06
-0.01290915
-0.01390523
-0.000538721
-0.001153797
0.003516382
0.00350862
0.004016783
0.004018838
-0.01350737
-0.0008637673
-0.0003915114
-0.0134105
-0.00116715
-8.53504e-05
-0.01334352
-0.001430457
-3.779456e-05
-0.01328822
-0.001649172
-5.651113e-06
-0.01320391
-0.001823627
-9.121447e-07
-0.01309334
-0.001958576
4.783738e-06
-0.002056387
4.403403e-06
-0.01294884
-0.01424423
-0.0005585516
-0.001182606
0.003606467
0.003598266
0.004119871
0.004122059
-0.01380771
-0.0008983389
-0.0004019513
-0.01367123
-0.001216539
-8.708697e-05
-0.01356318
-0.001500649
-3.78542e-05
-0.0134636
-0.001743049
-5.708632e-06
-0.01333995
-0.001946391
-8.801667e-07
-0.01319389
-0.002109511
4.86965e-06
-0.002235015
4.494819e-06
-0.01301975
-0.01459866
-0.0005945191
-0.001213459
0.003700268
0.003691256
0.004227156
0.004229405
-0.01412648
-0.0009582547
-0.0004122657
-0.01395421
-0.001299625
-8.918475e-05
-0.01380716
-0.001609341
-3.835426e-05
-0.01366649
-0.001877799
-5.924143e-06
-0.0135037
-0.002108398
-7.794184e-07
-0.013321
-0.002297168
4.959873e-06
-0.00244575
4.623547e-06
-0.01311489
-0.01497837
-0.0006460637
-0.001246395
0.003800409
0.003790339
0.004341636
0.004343926
-0.01447108
-0.001042799
-0.0004227506
-0.01426398
-0.001415089
-9.163644e-05
-0.01407851
-0.001755723
-3.908459e-05
-0.01389665
-0.00205366
-5.996936e-06
-0.01369298
-0.002311329
-7.445877e-07
-0.01347101
-0.002524111
4.973322e-06
-0.002692235
4.712126e-06
-0.01322923
-0.01539254
-0.0007135752
-0.001282267
0.003909388
0.003898094
0.004466226
0.004468611
-0.01484893
-0.00115264
-0.0004337752
-0.01460575
-0.001563822
-9.444171e-05
-0.01438
-0.001941466
-4.001164e-05
-0.0141546
-0.002273047
-6.007091e-06
-0.013906
-0.002559109
-8.259645e-07
-0.01364013
-0.002795008
5.033775e-06
-0.002979197
4.801212e-06
-0.01335797
-0.01585054
-0.0007981132
-0.001322134
0.004029829
0.0040171
0.00460386
0.004606419
-0.01526765
-0.001289964
-0.0004455648
-0.01498509
-0.001748768
-9.761563e-05
-0.01471517
-0.002170283
-4.110646e-05
-0.01444136
-0.002540787
-6.065421e-06
-0.01414179
-0.002857669
-1.010476e-06
-0.01382536
-0.003116508
5.073125e-06
-0.003313422
4.868259e-06
-0.013496
-0.01636265
-0.0009014988
-0.001367019
0.004164527
0.004150233
0.004757677
0.00476061
-0.01573652
-0.00145776
-0.000458329
-0.01540956
-0.00197463
-0.0001010993
-0.01508936
-0.002448171
-4.231167e-05
-0.01475972
-0.002864636
-5.791762e-06
-0.01440046
-0.003215879
-1.044265e-06
-0.01402423
-0.003498014
5.268101e-06
-0.003704522
4.998341e-06
-0.01363812
-0.01693963
-0.001026674
-0.001417884
0.004316488
0.004300361
0.004931195
0.004934641
-0.0162644
-0.001660603
-0.0004723862
-0.01588666
-0.002247612
-0.0001047589
-0.01550803
-0.002783079
-4.372426e-05
-0.01511254
-0.003254404
-5.714879e-06
-0.01468194
-0.003645313
-1.174791e-06
-0.01423331
-0.003952119
5.483115e-06
-0.004164897
5.126772e-06
-0.01377806
-0.01759553
-0.001476168
0.004489357
0.004470909
0.005128555
0.00513267
-0.001176475
-0.01686539
-0.000487296
-0.001903445
-0.01642871
-0.0001081981
-0.002576091
-0.01598013
-4.490289e-05
-0.003186764
-0.01550568
-5.169663e-06
-0.003723681
-0.01498803
-6.825361e-07
-0.004162279
-0.01444972
6.103413e-06
-0.004496534
5.667578e-06
-0.004711778
-0.01390851
-3.177031e-06
0.0002428707
-0.0009598946
-0.0001019825
1.078148e-05
0.000286024
0.0002417014
0.0002836768
-0.003440949
-0.0004740748
-6.594798e-05
0.0001523218
-0.0001835062
7.767415e-05
-2.917147e-05
0.0008559361
0.001114413
0.0008935098
0.001099795
-0.002777286
-0.0006751506
2.028993e-05
0.0001874587
-0.0001577322
1.574127e-05
-5.426889e-05
-0.002137132
-0.000686672
-4.580798e-05
0.0001774312
-0.0001072386
4.429035e-05
-2.215605e-05
-0.001498608
-0.0006754252
-2.938131e-05
0.0001329521
-7.187067e-05
2.870655e-05
-2.350516e-05
-0.001011288
-0.0005124548
-1.885909e-05
8.998717e-05
-4.763e-05
2.097487e-05
-1.933829e-05
-0.0006544398
-0.0003715887
-1.123696e-05
5.899259e-05
-3.174738e-05
1.253449e-05
-1.380177e-05
-0.0002453838
-4.598056e-06
3.704175e-05
-2.090838e-05
6.370371e-06
-1.020366e-05
-0.000416758
5.431914e-05
5.587571e-05
-0.00120693
-5.064349e-05
-4.270895e-05
-1.091172e-05
7.912581e-05
-1.189578e-05
-6.623478e-06
8.130249e-05
-4.339877e-06
-0.004535376
-0.000663808
-0.0001362933
0.0001334074
7.052807e-06
0.0001230731
7.77311e-07
0.001213229
0.001230373
0.00118807
0.001188192
-0.004064091
-0.0009842879
1.075795e-06
-0.003360132
-0.001398175
-3.218554e-05
-0.002473766
-0.001610902
-3.026546e-05
-0.001660685
-0.001524409
-3.055867e-05
-0.001060884
-0.001143825
-2.423956e-05
-0.0006600071
-0.0007908017
-1.651585e-05
-0.0005102888
-8.887542e-06
-0.0004071536
0.0001019222
5.191026e-05
-0.001293182
-4.363499e-05
-0.0001577089
-3.998364e-06
0.0001008789
-5.700584e-06
-0.005059867
-0.0009674232
-0.0001360877
0.001298519
0.001306552
0.001279629
0.00127681
-0.004412798
-0.001636635
-0.000126077
-0.0035395
-0.002266172
-4.378026e-05
-0.002409136
-0.002746189
-3.953156e-05
-0.001373574
-0.002554309
-2.237191e-05
-0.0007312778
-0.001782141
-1.045619e-05
-0.0003870468
-0.001142464
-1.006942e-05
-0.0006921492
-7.839532e-06
-0.0002076789
0.0001152059
3.901162e-05
-0.001451789
-4.131276e-05
-0.0001994741
-3.959015e-06
0.0001138068
-6.675277e-06
-0.005679432
-0.001331738
-0.0001981073
0.001462151
0.001470273
0.001436332
0.001440372
-0.00495326
-0.002341257
-0.0001167508
-0.003844236
-0.003345286
8.261947e-06
-0.002219677
-0.004286494
5.506658e-05
-0.0008239515
-0.0009782321
5.153127e-05
-0.0009490076
-0.0009801942
-0.0009595191
-0.0001189449
-0.002447181
2.999309e-05
7.645147e-05
-0.001322677
2.028275e-05
-0.0007222198
2.23115e-05
9.851412e-05
0.0001321893
5.105125e-05
-0.001669526
-5.530273e-05
-0.0002317111
-4.587732e-06
0.0001299735
-7.555236e-06
-0.006650925
-0.001668167
-0.0002187496
0.001686188
0.001698968
0.001656353
0.001665508
-0.005909625
-0.003055475
-0.0001282668
-0.004623824
-0.004516218
8.746268e-05
-0.0004764592
-0.001524246
0.0001253111
-0.0006184884
-0.0004800819
-0.0006089594
-0.001743721
-0.00151178
-0.001761887
-1.815237e-05
-0.0001527875
-0.001304669
2.091829e-05
0.001085541
-0.0007819732
0.0001514686
-0.0004934336
-0.0007816789
-0.0004849171
-1.33279e-05
3.949594e-05
-0.0001403604
-5.612351e-05
-8.082154e-05
-0.0004029333
-8.105199e-05
-0.0004070635
0.0007032597
-0.0002712925
5.296425e-05
-0.0001807109
-0.0002751104
-0.0001685178
-0.0001331588
1.323187e-05
-9.337086e-05
-0.000128064
-9.236694e-05
0.0004637736
0.0001532418
6.471365e-05
-0.001952312
-6.587121e-05
-0.0002679731
-5.597468e-06
0.0001504466
-8.544683e-06
-0.008038914
-0.001862109
-0.000263074
0.00198784
0.00200532
0.001953371
0.001966209
-0.007657561
-0.003373305
-0.0001311326
-0.00149168
-0.005256112
0.000139643
-0.001895677
-0.00147923
-0.00188311
-5.250619e-05
-0.001125871
-0.001889452
5.190272e-05
-5.333137e-05
6.356023e-05
0.001906314
0.0006768113
0.0001354731
9.941353e-05
0.00013727
9.61422e-05
-0.0008095704
-0.0007285543
-0.0008109903
-0.0007125371
8.542228e-06
-0.0002355092
0.0009147637
-4.966085e-06
-0.0001537986
-5.869851e-05
-0.0001478617
-5.816497e-05
-0.000408639
-0.000233472
-0.000404168
-4.114508e-07
-0.0006154144
0.0004153507
-7.488632e-05
4.069299e-06
-3.941552e-06
-0.0003101974
0.0002138339
-4.468714e-05
1.183345e-05
0.0001763818
7.25094e-05
-0.002273076
-6.774575e-05
-0.0003085885
-7.298409e-06
0.0001732525
-9.878048e-06
-0.009752149
-0.001778954
-0.0003140929
0.002335583
0.002356233
0.002295583
0.002308847
-0.009937947
-0.003117346
-0.0001837951
-0.002264426
-0.004921092
0.0001467842
-0.002841179
-0.002251863
-0.002771393
-2.181349e-05
0.002085505
-0.002297873
-0.002072622
4.237869e-05
-1.28263e-05
0.0009538096
0.0006006688
-0.0007033192
-0.0008448575
6.525806e-06
-0.002718692
-0.0001106209
0.0001416614
0.0003844451
-8.427336e-05
0.001140326
0.001247154
0.002561231
-0.002378457
-0.0001864669
-0.0001682864
0.0002250291
-5.305002e-05
0.0001975226
6.899365e-05
-0.002573422
-6.154173e-05
-0.0003448972
-1.002747e-05
0.0001945286
-1.207651e-05
-0.01121004
-0.00152899
-0.0003667821
0.002650064
0.002668847
0.002604253
0.002612079
-0.01164472
-0.002607574
-0.0002683428
-0.01256817
-0.003895933
-3.292821e-06
-0.01466816
-0.004835988
-1.865084e-05
0.00187932
0.001635901
0.001827354
0.00159825
-0.01775302
-0.00534247
-9.368266e-05
0.002387025
0.0017855
0.002346252
0.001786858
-0.01869663
-0.003603822
9.470061e-06
0.001600165
0.0005156562
0.001678312
0.0005675647
-0.01770345
-0.002177797
-0.0001478467
0.0006251283
-1.802674e-06
0.0005625509
-8.549668e-05
-0.001515707
0.0001989724
0.0004516719
-6.318784e-05
0.0003060534
2.439194e-05
-0.01715057
0.0002149884
5.991142e-05
-0.002824885
-5.206823e-05
-0.000374439
-1.312895e-05
0.0002125511
-1.414729e-05
-0.01223845
-0.001273697
-0.0004252928
0.002906805
0.002922492
0.002856357
0.002858053
-0.01262348
-0.002139588
-0.0003414627
-0.0134517
-0.003009374
-7.718549e-05
-0.01470619
-0.003556762
-2.120183e-05
-0.01619219
-0.003881926
-1.739373e-05
-0.01693231
-0.002887099
-3.176072e-05
-0.01695754
-0.00220005
6.642609e-05
-0.001679907
-0.0001533431
-0.01671169
0.0002295212
5.093657e-05
-0.003037181
-4.303933e-05
-0.0003991153
-1.559618e-05
0.0002276436
-1.573154e-05
-0.01307543
-0.001054942
-0.0004729168
0.003120173
0.003132656
0.003064316
0.003063113
-0.01338208
-0.001741461
-0.0003947345
-0.01392522
-0.002392182
-0.0001345744
-0.01469339
-0.002750064
-6.82127e-05
-0.01560883
-0.002947067
-2.241995e-05
-0.01598721
-0.002494275
-2.354375e-06
-0.01602192
-0.002145174
-2.184129e-05
-0.001770555
1.260097e-05
-0.01593701
0.0002410735
4.205844e-05
-0.00320992
-3.56287e-05
-0.0004190485
-1.792689e-05
0.0002398561
-1.689859e-05
-0.01372074
-0.0008774004
-0.0005050755
0.00329397
0.003306542
0.003234278
0.003233303
-0.01390825
-0.001450525
-0.0004319333
-0.01425557
-0.001955106
-0.0001626683
-0.01470417
-0.002250025
-8.577511e-05
-0.01520669
-0.002429389
-1.953698e-05
-0.01548042
-0.002217852
1.342823e-07
-0.01558348
-0.002046127
1.377287e-05
-0.001823399
-1.623972e-05
-0.01551771
0.0002507017
3.551389e-05
-0.003353882
-2.999743e-05
-0.0004362242
-1.937834e-05
0.000249937
-1.797625e-05
-0.01426435
-0.0007549073
-0.000537498
0.003437436
0.003450064
0.003375693
0.003372995
-0.01435508
-0.00124337
-0.0004579304
-0.01454454
-0.001663348
-0.0001791341
-0.01480474
-0.001929501
-9.827058e-05
-0.01509882
-0.002110681
-2.930037e-05
-0.0152417
-0.002066128
-6.024228e-06
-0.01527944
-0.002008967
6.106534e-06
-0.001885411
7.553345e-06
-0.01521971
0.0002588978
3.042659e-05
-0.00347681
-2.619973e-05
-0.0004508635
-2.029168e-05
0.0002584911
-1.869017e-05
-0.01471455
-0.0006686267
-0.0005546275
0.003559955
0.003573424
0.003496443
0.003493475
-0.01473466
-0.001105268
-0.0004763602
-0.01480722
-0.00148277
-0.0001886208
-0.01492567
-0.001745674
-0.0001025967
-0.01507444
-0.001936111
-3.068064e-05
-0.01514648
-0.001986348
-8.507841e-06
-0.01515357
-0.002005045
8.630945e-06
-0.001967285
5.39115e-06
-0.01507409
0.0002661936
2.726432e-05
-0.003586032
-2.38111e-05
-0.0004639593
-2.105996e-05
0.000266028
-1.936133e-05
-0.01513347
-0.0006195056
-0.0005752311
0.003669621
0.003683699
0.003604544
0.003601024
-0.01508734
-0.001027297
-0.000492529
-0.0150749
-0.001380682
-0.0001963314
-0.01510006
-0.001652248
-0.0001057787
-0.01514716
-0.001860975
-3.328413e-05
-0.01514812
-0.001977
-9.368144e-06
-0.01510427
-0.00205211
7.944083e-06
-0.002076454
9.684968e-06
-0.01500051
0.0002729896
2.537607e-05
-0.003687323
-2.255989e-05
-0.0004759343
-2.167318e-05
0.0002729749
-1.993064e-05
-0.01552005
-0.0005967311
-0.0005896311
0.003771384
0.003785951
0.003704605
0.003700865
-0.01542707
-0.0009950189
-0.0005060345
-0.01534541
-0.001343838
-0.0002024758
-0.0152982
-0.00162842
-0.0001086976
-0.01527096
-0.001859076
-3.462329e-05
-0.01521646
-0.002023009
-9.695953e-06
-0.01513013
-0.002141784
8.175601e-06
-0.002216006
9.911836e-06
-0.01499635
0.0002795558
2.459828e-05
-0.003785079
-2.227663e-05
-0.000487386
-2.225305e-05
0.0002796538
-2.045542e-05
-0.01590106
-0.0005977914
-0.0006059326
0.003869961
0.003885061
0.003801524
0.003797707
-0.01576745
-0.001000702
-0.0005194347
-0.01563109
-0.001357608
-0.00020794
-0.01552422
-0.001661657
-0.0001114365
-0.01543764
-0.001915945
-3.535668e-05
-0.01533364
-0.002118642
-9.28185e-06
-0.01520398
-0.002274896
8.242928e-06
-0.002388244
1.063297e-05
-0.01503797
0.0002861776
2.473949e-05
-0.003883212
-2.282383e-05
-0.0004988278
-2.277529e-05
0.0002863381
-2.093873e-05
-0.01628902
-0.0006189658
-0.0006213632
0.003969283
0.00398495
0.00389921
0.003895501
-0.01612011
-0.001038855
-0.0005327003
-0.01593677
-0.001415037
-0.0002130001
-0.01577922
-0.001743302
-0.0001137571
-0.01564018
-0.002024626
-3.606545e-05
-0.01548985
-0.002260584
-9.276097e-06
-0.01531858
-0.002449664
8.370718e-06
-0.002595332
1.087428e-05
-0.01511787
0.0002930334
2.571082e-05
-0.003984873
-2.410714e-05
-0.0005105921
-2.33014e-05
0.0002932303
-2.141812e-05
-0.01669476
-0.0006583451
-0.0006384326
0.004072469
0.004088684
0.004000705
0.003997251
-0.01649308
-0.001106436
-0.0005463618
-0.01626742
-0.001511451
-0.0002184387
-0.01606289
-0.00186981
-0.000116374
-0.01587535
-0.002181158
-3.693479e-05
-0.01567906
-0.002448355
-9.289459e-06
-0.01546497
-0.002667339
8.5463e-06
-0.002839798
1.112779e-05
-0.01522701
0.0003003146
2.746695e-05
-0.004093038
-2.607886e-05
-0.0005229931
-2.387162e-05
0.0003005309
-2.19214e-05
-0.01712975
-0.0007151609
-0.0006565941
0.004182505
0.004199321
0.004108995
0.004105939
-0.01689531
-0.001202748
-0.000560879
-0.01662887
-0.00164538
-0.0002241423
-0.0163788
-0.002040017
-0.0001189466
-0.0161425
-0.002385643
-3.781525e-05
-0.01589808
-0.002683957
-9.560844e-06
-0.01563844
-0.002930653
8.654793e-06
-0.00312588
1.131692e-05
-0.01535896
0.0003082091
2.997219e-05
-0.004210493
-2.873542e-05
-0.0005363401
-2.449626e-05
0.0003084201
-2.247252e-05
-0.01760395
-0.0007897563
-0.0006766056
0.004302213
0.004319649
0.004226802
0.004224214
-0.01733561
-0.001328174
-0.0005766817
-0.01702712
-0.001818083
-0.000230232
-0.01672946
-0.002255934
-0.0001217514
-0.01644207
-0.002640517
-3.853054e-05
-0.01614519
-0.002971797
-9.857582e-06
-0.01583439
-0.003245137
8.717817e-06
-0.003459052
1.155526e-05
-0.01550797
0.0003168932
3.322968e-05
-0.004340043
-3.211832e-05
-0.0005509352
-2.519299e-05
0.0003170809
-2.308446e-05
-0.0181285
-0.00088328
-0.0006989176
0.004434449
0.004452539
0.004356878
0.004354939
-0.01782297
-0.001485125
-0.000594144
-0.01746885
-0.00203292
-0.0002369004
-0.01711901
-0.00252196
-0.0001249169
-0.01677476
-0.002951554
-3.928475e-05
-0.01641877
-0.003318466
-1.033021e-05
-0.01604913
-0.003618471
8.774103e-06
-0.003847124
1.181799e-05
-0.01566801
0.0003265564
3.730464e-05
-0.004484674
-3.631844e-05
-0.0005671024
-2.596869e-05
0.000326695
-2.377685e-05
-0.01871527
-0.0009980468
-0.0007239625
0.00458228
0.00460118
0.004502281
0.004501234
-0.01836784
-0.001677333
-0.0006135533
-0.01796312
-0.00229503
-0.0002437096
-0.01755423
-0.002845291
-0.000127866
-0.01714437
-0.003327754
-3.945546e-05
-0.01671885
-0.003734467
-1.055837e-05
-0.01627981
-0.004061532
9.288543e-06
-0.004301333
1.239659e-05
-0.015833
0.0003374008
4.230404e-05
-0.004647728
-4.144892e-05
-0.0005851805
-2.684211e-05
0.0003374623
-2.455536e-05
-0.01937767
-0.001137093
-0.0007521713
0.004749136
0.004768982
0.004666409
0.004666475
-0.01898212
-0.001909894
-0.0006353787
-0.01851901
-0.002611654
-0.000251251
-0.01804149
-0.003235177
-0.00013136
-0.01755427
-0.00378069
-3.998859e-05
-0.01704588
-0.00423334
-1.069598e-05
-0.01652288
-0.004589018
9.973925e-06
-0.004836214
1.313699e-05
-0.01599601
-0.004959998
-1.148804e-05
-0.0001664993
0.004874744
0.0001212347
0.0001420065
-0.02013225
-0.0007834513
-0.001304198
0.004854615
0.004938942
0.004853077
-0.01968156
-0.0006585938
-0.002189282
-0.01915052
-0.0002580597
-0.002992832
-0.01859192
-0.0001336972
-0.003704988
-0.01801235
-3.907748e-05
-0.004326346
-0.01740282
-9.101295e-06
-0.00483446
-0.01677565
1.196527e-05
-0.005222046
1.516326e-05
-0.005472282
-0.01614908
0.0002406272
9.898224e-07
-0.0009442651
-0.0001090752
2.26316e-07
0.0002840594
0.0002415273
0.0002859099
-0.003470264
-0.0005416961
-3.926159e-05
0.0008929466
0.001102526
0.000897334
0.001092468
-0.002775066
-0.0006842277
9.319784e-06
-0.00213879
-0.000671531
-1.055181e-05
-0.001499665
-0.0006571261
-1.137892e-05
-0.001010339
-0.0005003945
-7.790098e-06
-0.0006546081
-0.0003615657
-5.402015e-06
-0.0002400306
-2.422636e-06
-0.0004167526
9.737669e-05
3.45496e-05
-0.001199666
-0.0001639368
-1.914417e-05
3.420832e-06
9.68394e-05
3.721032e-06
-0.004466857
-0.0006898925
-6.726864e-05
0.0001486649
2.434764e-05
0.0001501733
2.774432e-05
0.001175649
0.001201996
0.001171244
0.001187903
-0.004000345
-0.001014255
7.122526e-06
-0.003334691
-0.001360102
-2.196488e-05
-0.002454237
-0.001564016
-1.823361e-05
-0.001650021
-0.001472196
-1.970396e-05
-0.001053651
-0.001105356
-1.56459e-05
-0.0006576673
-0.0007623051
-1.175994e-05
-0.0004938444
-5.530938e-06
-0.0004072098
-0.005120768
-0.0003600409
-9.659117e-05
0.0002232487
-7.096029e-05
0.0003224169
-6.716737e-05
0.0002447617
-4.30483e-06
0.0003465902
3.036312e-06
-0.004920775
-0.0009656014
-6.037391e-05
-0.004346061
-0.001643337
-7.17103e-05
-0.003511557
-0.002208594
-2.979096e-05
-0.002411154
-0.002681632
-2.2316e-05
-0.001378151
-0.00251223
-1.534049e-05
-0.0007338389
-0.001748808
-1.131563e-05
-0.0003935049
-0.001102284
-1.042435e-05
-0.0006785637
-5.099661e-06
-0.0002115251
-0.00577563
-0.0003769308
-0.0001615436
0.0003967987
-6.998579e-05
0.0003912648
-7.539063e-05
-0.005525951
-0.001317947
-9.544285e-05
-0.004875659
-0.002330015
-8.036663e-05
-0.003814566
-0.003268198
6.773273e-06
-0.002223073
-0.004262586
4.452869e-05
-0.000851538
-0.0009861826
4.560827e-05
-0.0009550538
-0.0009802711
-0.0009563324
-0.0001503268
-0.002445409
2.538374e-05
6.717572e-05
-0.001310986
1.148342e-05
-0.000695984
1.503886e-05
9.186892e-05
-0.006673821
-0.0004656445
-0.0002258913
0.0004728415
-7.045306e-05
0.0004545141
-8.225579e-05
-0.006462647
-0.001645989
-0.0001018846
-0.005792515
-0.003047806
-8.060844e-05
-0.004591335
-0.004451131
6.921608e-05
-0.0004999682
-0.001541346
9.359774e-05
-0.00062937
-0.0004894499
-0.0006230302
-0.001753128
-0.001524674
-0.001761241
-2.827745e-05
-0.000168584
-0.001303446
1.415793e-05
0.001093131
-0.0007751194
5.255967e-05
-0.0004823462
-0.0007742355
-0.0004821805
-7.79364e-05
-0.0003880276
-7.204615e-05
-0.0003877381
0.0007013108
-0.0002846299
4.520387e-05
-0.0001782356
-0.00028656
-0.0001619795
-0.0004487759
4.708721e-06
0.0004626261
-0.007872055
-0.0005075386
-0.0002592344
0.0005500997
-8.34448e-05
0.0005275499
-9.608531e-05
-0.007812212
-0.001847944
-0.000120964
-0.007552653
-0.003357937
-8.056165e-05
-0.001507028
-0.005229243
0.0001045203
-0.001880863
-0.001484435
-0.001867091
-5.652924e-05
-0.001130151
-0.001892369
3.067647e-05
-3.972455e-05
3.132423e-05
0.001885156
0.0006608821
0.0001380475
0.0001017969
0.0001390736
9.935483e-05
-0.0007982418
-0.0007125173
-0.0007995548
-0.0007055959
-0.0002323818
-1.504732e-06
0.0009145015
4.603191e-07
-0.0001508852
-0.0001513576
-5.900818e-05
-5.807578e-05
-0.0004036186
-0.0002312017
-0.0004020468
-0.0006088379
3.039529e-06
0.0004021858
-7.903165e-05
-1.985454e-06
5.559839e-06
-1.855579e-05
1.660642e-05
-1.717555e-05
1.386251e-05
-0.0003113886
-0.0001462642
-0.0003051825
-0.0001528178
0.00046658
-0.009245027
-0.0004863069
-0.0003040033
0.0006361519
-9.481755e-05
0.0006125738
-0.0001074164
-0.00947903
-0.001781687
-0.0001463488
-0.009793162
-0.003111819
-0.0001157817
-0.002247831
-0.004941943
9.279435e-05
-0.002803853
-0.002226144
-0.002748642
-4.014671e-05
0.002060447
-0.002258983
-0.002033449
2.430173e-05
-1.038619e-05
0.0009421212
0.000589711
-0.0006917023
-0.0008355145
5.771111e-06
-9.607535e-05
-0.002382555
-7.615551e-05
4.425176e-05
0.001245377
0.001265157
-0.001283472
-0.0001332439
0.0002490365
-0.0003524178
0.0002994458
-0.0001370178
0.002027049
0.004355169
0.002055528
0.004293895
-0.01137397
-0.01049811
-0.0004263062
-0.0003433707
0.0007118376
-0.0001041087
0.0006907082
-0.0001166206
-0.01092579
-0.001543206
-0.0001775847
-0.01150925
-0.002618123
-0.0001785834
-0.01249624
-0.003966047
7.805868e-06
-0.01449992
-0.004886005
9.573027e-07
0.001850573
0.001611816
0.001815595
0.001592097
-0.017406
-0.005466362
-6.76178e-05
0.002365529
0.00181416
0.002352387
0.001814301
-0.01814727
-0.003819762
-8.841937e-06
0.001661543
0.0006194799
0.001671311
0.0006270115
-0.01713743
-0.002457587
-0.0001625805
0.0007361911
7.54027e-07
0.000736716
-1.118056e-05
-0.001409319
0.0002045346
-0.01701715
-0.01150646
-0.0003627877
-0.0003802993
0.0007742233
-0.0001137155
0.000756183
-0.0001233059
-0.01196425
-0.001301102
-0.0002096159
-0.01253123
-0.002154261
-0.0002383438
-0.0134163
-0.003079719
-7.843932e-05
-0.01466738
-0.003639181
-1.69451e-05
-0.01613813
-0.004005231
-7.776678e-06
-0.01697271
-0.003026059
9.120824e-06
-0.01708974
-0.002346319
7.218628e-05
-0.001787228
-8.784636e-05
-0.01677733
-0.01237459
-0.0003029645
-0.0004138454
0.0008271473
-0.0001189657
0.000811855
-0.0001255572
-0.01282928
-0.001075253
-0.0002440794
-0.01332729
-0.00175745
-0.000293539
-0.01394881
-0.002441345
-0.0001514293
-0.0147818
-0.002807916
-6.649005e-05
-0.0157359
-0.003038093
-3.544861e-05
-0.01616272
-0.002587246
-1.435192e-05
-0.01625806
-0.002244826
-2.799135e-05
-0.001796125
1.34117e-05
-0.01624997
-0.01305307
-0.0002557782
-0.0004405558
0.0008692551
-0.0001244534
0.0008564434
-0.0001289492
-0.01346737
-0.000898318
-0.0002677156
-0.0138677
-0.00146367
-0.0003253808
-0.01429624
-0.001990296
-0.0001851829
-0.0148036
-0.002294742
-9.158721e-05
-0.01534912
-0.002485723
-2.638616e-05
-0.01566073
-0.00227762
2.121555e-06
-0.01579807
-0.002103326
9.620324e-06
-0.001858049
-6.138288e-06
-0.01574625
-0.01363405
-0.0002198837
-0.0004628075
0.0009056023
-0.0001280834
0.0008943756
-0.0001320195
-0.01401625
-0.0007666629
-0.0002869626
-0.01433337
-0.001251789
-0.000352686
-0.0146025
-0.001691659
-0.0002086373
-0.01491967
-0.001965446
-0.0001103991
-0.01524531
-0.002151176
-3.820669e-05
-0.01541579
-0.002106451
-6.7113e-06
-0.01547306
-0.002049365
9.421086e-06
-0.001909372
1.179759e-05
-0.01542598
-0.01411908
-0.0001959965
-0.0004810878
0.0009361209
-0.000131567
0.0009260864
-0.000135286
-0.01445877
-0.0006809455
-0.000300663
-0.01470833
-0.001111227
-0.0003673576
-0.01486931
-0.001501109
-0.0002181906
-0.01504502
-0.001774867
-0.000117469
-0.01521997
-0.001967119
-3.978843e-05
-0.01531017
-0.0020173
-7.45083e-06
-0.01532877
-0.002034426
1.228649e-05
-0.001991787
1.075189e-05
-0.01525171
-0.01455727
-0.0001811476
-0.0004977969
0.0009638967
-0.0001344105
0.0009545295
-0.0001381952
-0.01487314
-0.0006292665
-0.0003110389
-0.01506277