/*--------------------------------*- C++ -*----------------------------------*\
  =========                 |
  \\      /  F ield         | OpenFOAM: The Open Source CFD Toolbox
   \\    /   O peration     | Website:  https://openfoam.org
    \\  /    A nd           | Version:  7
     \\/     M anipulation  |
\*---------------------------------------------------------------------------*/
FoamFile
{
    version     2.0;
    format      ascii;
    class       volScalarField;
    location    "0.01";
    object      nut;
}
// * * * * * * * * * * * * * * * * * * * * * * * * * * * * * * * * * * * * * //

dimensions      [0 2 -1 0 0 0 0];

internalField   nonuniform List<scalar> 
86107
(
0.00134296
0.001313884
0.001304607
0.001302441
0.001301901
0.001301812
0.001301916
0.001302074
0.001313883
0.001259753
0.001243611
0.001239416
0.001238297
0.001238065
0.001238147
0.001238285
0.001304595
0.00124359
0.001223669
0.001218231
0.00121671
0.001216391
0.001216511
0.001216712
0.001302401
0.00123934
0.001218159
0.001212112
0.001210388
0.001210083
0.001210341
0.001210718
0.001301806
0.001238117
0.001216501
0.001210236
0.001208514
0.001208426
0.001209096
0.001209964
0.001301617
0.001237726
0.001215987
0.001209743
0.001208344
0.001209091
0.001211136
0.001213596
0.001301576
0.001237643
0.001215936
0.001209913
0.001209352
0.001213352
0.001220775
0.001228362
0.001301593
0.001237687
0.001216103
0.001210485
0.00121131
0.001220703
0.001254006
0.001268313
0.001301631
0.001237776
0.00121635
0.001211215
0.001213635
0.00122818
0.001268826
0.0005892328
0.001301673
0.001237865
0.001216566
0.001211815
0.001215529
0.001235031
0.001301162
0.000621856
0.0001565603
0.001301704
0.001237914
0.001216671
0.001212076
0.001216333
0.001238003
0.001307213
0.0006251349
0.00130172
0.001237918
0.001216646
0.001211981
0.001216052
0.001237225
0.001305266
0.0006227574
0.001301723
0.001237878
0.0012165
0.001211545
0.001214667
0.001232117
0.001289428
0.0006177267
0.001301719
0.001237811
0.001216276
0.001210889
0.001212626
0.001225003
0.001257186
0.0005909372
0.001301715
0.001237741
0.001216039
0.001210194
0.001210495
0.001218469
0.001247059
0.001253941
0.001301715
0.001237683
0.001215843
0.00120963
0.001208742
0.001212068
0.001218129
0.001223796
0.001301726
0.001237651
0.001215716
0.001209271
0.001207648
0.001208094
0.001209687
0.001211556
0.001301749
0.001237648
0.001215657
0.001209091
0.001207146
0.00120688
0.001207375
0.00120803
0.001301784
0.001237674
0.001215659
0.001209037
0.001206981
0.001206512
0.001206692
0.001206991
0.001301838
0.00123774
0.001215727
0.001209091
0.001206994
0.001206453
0.001206527
0.001206705
0.001301923
0.001237867
0.001215889
0.001209275
0.001207181
0.001206617
0.00120665
0.001206779
0.001302066
0.001238096
0.0012162
0.001209656
0.001207605
0.001207053
0.001207071
0.001207172
0.001302307
0.001238481
0.001216755
0.001210374
0.001208436
0.001207935
0.001207955
0.001208031
0.0006152352
0.0006070465
0.0006027075
0.0006018137
0.0006016952
0.0006016875
0.0006017156
0.0006017743
0.0006152422
0.000101173
0.0001011746
0.0001011751
0.000101175
0.0001011749
0.0001011746
0.0001011742
0.0001011738
0.000607049
0.0001011729
0.0001011727
0.0001011739
0.0001011741
0.0001011741
0.0001011739
0.0001011737
0.0001011734
0.0006027089
0.0001011729
0.0001011727
0.0001011727
0.0001011729
0.000101173
0.000101173
0.0001011729
0.0001011728
0.0006018163
0.0001011729
0.0001011728
0.0001011727
0.0001011727
0.0001011729
0.0001011729
0.0001011729
0.0001011728
0.0006016986
0.0001011729
0.0001011728
0.0001011727
0.0001011727
0.0001011727
0.0001011728
0.0001011728
0.0001011727
0.0006016871
0.000101173
0.0001011728
0.0001011728
0.0001011728
0.0001011728
0.0001011728
0.0001011728
0.0001011729
0.0006017028
0.000101173
0.0001011728
0.0001011728
0.0001011728
0.0001011728
0.000101173
0.0001011731
0.0001011733
0.0006017268
0.000101173
0.0001011728
0.0001011728
0.0001011728
0.0001011729
0.0001011736
0.0001011749
0.0001011748
0.0006017546
0.000101173
0.0001011728
0.0001011728
0.0001011728
0.0001011729
0.0001011753
0.0001011833
0.000101175
0.0006017827
0.000101173
0.0001011728
0.0001011728
0.0001011727
0.0001011727
0.0001011764
0.0001011861
0.0001011785
0.0001875821
0.0006018095
0.000101173
0.0001011728
0.0001011727
0.0001011726
0.000101173
0.0001011761
0.0001011847
0.0001013849
0.0006018369
0.000101173
0.0001011728
0.0001011727
0.0001011727
0.000101173
0.0001011763
0.0001011831
0.0001013155
0.0006018642
0.000101173
0.0001011729
0.0001011728
0.0001011728
0.0001011734
0.0001011779
0.0001011907
0.0001011703
0.000601893
0.0001011731
0.0001011729
0.0001011729
0.0001011729
0.000101173
0.0001011805
0.0001011888
0.0001011711
0.0006019241
0.0001011732
0.000101173
0.0001011729
0.0001011729
0.0001011731
0.0001011771
0.0001011875
0.0001011923
0.0006019579
0.0001011732
0.0001011731
0.000101173
0.000101173
0.0001011733
0.0001011755
0.0001011781
0.0001011848
0.0006019956
0.0001011733
0.0001011731
0.0001011731
0.000101173
0.000101173
0.0001011736
0.0001011739
0.0001011743
0.0006020362
0.0001011734
0.0001011732
0.0001011731
0.0001011731
0.000101173
0.0001011732
0.0001011733
0.0001011738
0.0006020801
0.0001011735
0.0001011733
0.0001011732
0.0001011731
0.000101173
0.000101173
0.000101173
0.000101173
0.0006021283
0.0001011736
0.0001011734
0.0001011733
0.0001011732
0.000101173
0.0001011729
0.0001011729
0.0001011728
0.0006021813
0.0001011738
0.0001011735
0.0001011734
0.0001011732
0.0001011731
0.0001011729
0.0001011727
0.0001011726
0.0006022426
0.000101174
0.0001011738
0.0001011736
0.0001011734
0.0001011731
0.0001011728
0.0001011726
0.0001011724
0.0006023621
0.0001011743
0.0001011741
0.0001011739
0.0001011736
0.0001011733
0.0001011728
0.0001011725
0.0001011723
0.0006099645
0.001289268
0.001269009
0.001261688
0.001260012
0.001259645
0.001259601
0.001259635
0.0006100689
0.0001011688
0.0001011967
0.0001011954
0.0001011952
0.0001011934
0.0001011912
0.0001011882
0.0001011843
0.001289277
0.000101173
0.0001011688
0.0001011688
0.0001011688
0.0001011687
0.0001011687
0.0001011686
0.0001011686
0.001269011
0.000101173
0.0001011689
0.0001011688
0.0001011688
0.0001011687
0.0001011687
0.0001011687
0.0001011686
0.001261679
0.000101173
0.0001011689
0.0001011688
0.0001011688
0.0001011688
0.0001011687
0.0001011687
0.0001011687
0.00125997
0.000101173
0.0001011689
0.0001011689
0.0001011688
0.0001011688
0.0001011688
0.0001011688
0.0001011688
0.001259542
0.000101173
0.0001011689
0.0001011689
0.0001011689
0.0001011689
0.0001011689
0.0001011689
0.000101169
0.001259415
0.000101173
0.0001011689
0.0001011689
0.0001011689
0.0001011689
0.000101169
0.0001011692
0.0001011694
0.001259394
0.000101173
0.0001011689
0.0001011689
0.0001011689
0.000101169
0.0001011691
0.0001011697
0.0001011709
0.001259412
0.000101173
0.0001011689
0.0001011689
0.0001011689
0.000101169
0.0001011692
0.0001011702
0.0001011749
0.001259442
0.000101173
0.0001011689
0.0001011689
0.0001011688
0.0001011688
0.0001011689
0.00010117
0.0001011781
0.0001876563
0.001259467
0.000101173
0.0001011689
0.0001011688
0.0001011688
0.0001011687
0.0001011686
0.0001011693
0.0001013889
0.001259478
0.0001011731
0.0001011689
0.0001011689
0.0001011688
0.0001011687
0.0001011687
0.0001011692
0.0001013119
0.001259477
0.0001011731
0.000101169
0.0001011689
0.0001011689
0.0001011688
0.0001011689
0.0001011698
0.0001011697
0.001259477
0.0001011732
0.000101169
0.000101169
0.000101169
0.000101169
0.0001011691
0.0001011696
0.0001011707
0.001259482
0.0001011732
0.0001011691
0.0001011691
0.000101169
0.000101169
0.0001011691
0.0001011694
0.0001011697
0.001259496
0.0001011733
0.0001011692
0.0001011691
0.0001011691
0.0001011691
0.0001011691
0.0001011692
0.0001011694
0.00125952
0.0001011734
0.0001011692
0.0001011692
0.0001011691
0.0001011691
0.0001011691
0.0001011691
0.0001011691
0.001259553
0.0001011735
0.0001011693
0.0001011692
0.0001011692
0.0001011691
0.0001011691
0.000101169
0.000101169
0.001259597
0.0001011736
0.0001011694
0.0001011693
0.0001011692
0.0001011691
0.000101169
0.0001011689
0.0001011689
0.001259655
0.0001011737
0.0001011695
0.0001011694
0.0001011693
0.0001011691
0.000101169
0.0001011688
0.0001011687
0.001259738
0.0001011738
0.0001011697
0.0001011695
0.0001011693
0.0001011691
0.0001011689
0.0001011688
0.0001011686
0.001259859
0.0001011741
0.0001011699
0.0001011697
0.0001011695
0.0001011692
0.0001011689
0.0001011687
0.0001011685
0.001260032
0.0001011744
0.0001011702
0.00010117
0.0001011697
0.0001011694
0.0001011689
0.0001011686
0.0001011684
0.0006059811
0.001269896
0.001235331
0.001224393
0.001221688
0.001221037
0.001220896
0.001220894
0.0006060603
0.0001011688
0.0001011955
0.0001011944
0.0001011945
0.0001011927
0.0001011906
0.0001011876
0.0001011839
0.001269918
0.000101173
0.0001011688
0.0001011688
0.0001011688
0.0001011687
0.0001011687
0.0001011686
0.0001011686
0.001235359
0.0001011729
0.0001011689
0.0001011688
0.0001011688
0.0001011687
0.0001011687
0.0001011687
0.0001011686
0.001224431
0.0001011729
0.0001011689
0.0001011688
0.0001011688
0.0001011688
0.0001011687
0.0001011687
0.0001011687
0.001221717
0.0001011729
0.0001011689
0.0001011689
0.0001011688
0.0001011688
0.0001011688
0.0001011688
0.0001011688
0.001221025
0.0001011729
0.0001011689
0.0001011689
0.0001011689
0.0001011689
0.0001011689
0.0001011689
0.000101169
0.001220814
0.0001011729
0.0001011689
0.0001011689
0.0001011689
0.0001011689
0.000101169
0.0001011692
0.0001011694
0.001220765
0.0001011729
0.0001011689
0.0001011689
0.0001011689
0.000101169
0.0001011691
0.0001011697
0.0001011709
0.001220776
0.0001011729
0.0001011689
0.0001011689
0.0001011689
0.000101169
0.0001011692
0.0001011702
0.0001011749
0.001220805
0.0001011729
0.0001011689
0.0001011689
0.0001011688
0.0001011688
0.0001011689
0.00010117
0.0001011782
0.0001876501
0.001220829
0.0001011729
0.0001011689
0.0001011688
0.0001011688
0.0001011687
0.0001011686
0.0001011693
0.0001013892
0.001220836
0.000101173
0.0001011689
0.0001011689
0.0001011688
0.0001011687
0.0001011687
0.0001011692
0.0001013121
0.00122083
0.000101173
0.000101169
0.0001011689
0.0001011689
0.0001011688
0.0001011689
0.0001011699
0.0001011701
0.001220824
0.0001011731
0.000101169
0.000101169
0.000101169
0.000101169
0.0001011691
0.0001011695
0.0001011707
0.001220824
0.0001011731
0.0001011691
0.0001011691
0.000101169
0.000101169
0.0001011691
0.0001011694
0.0001011699
0.001220837
0.0001011732
0.0001011692
0.0001011691
0.0001011691
0.0001011691
0.0001011691
0.0001011692
0.0001011694
0.001220859
0.0001011733
0.0001011692
0.0001011692
0.0001011691
0.0001011691
0.0001011691
0.0001011691
0.0001011691
0.001220892
0.0001011734
0.0001011693
0.0001011692
0.0001011692
0.0001011691
0.0001011691
0.000101169
0.000101169
0.001220937
0.0001011735
0.0001011694
0.0001011693
0.0001011692
0.0001011691
0.000101169
0.0001011689
0.0001011689
0.001221001
0.0001011736
0.0001011695
0.0001011694
0.0001011693
0.0001011691
0.000101169
0.0001011688
0.0001011687
0.001221095
0.0001011738
0.0001011697
0.0001011695
0.0001011693
0.0001011691
0.0001011689
0.0001011688
0.0001011686
0.001221233
0.000101174
0.0001011699
0.0001011697
0.0001011695
0.0001011692
0.0001011689
0.0001011687
0.0001011685
0.001221423
0.0001011743
0.0001011702
0.00010117
0.0001011697
0.0001011694
0.0001011689
0.0001011686
0.0001011684
0.0006051653
0.001263075
0.001225053
0.001211952
0.00120862
0.001207727
0.00120748
0.001207434
0.000605227
0.0001011688
0.0001011951
0.0001011939
0.0001011941
0.0001011925
0.0001011903
0.0001011874
0.0001011837
0.001263127
0.000101173
0.0001011688
0.0001011688
0.0001011688
0.0001011687
0.0001011687
0.0001011686
0.0001011686
0.001225158
0.0001011729
0.0001011689
0.0001011688
0.0001011688
0.0001011687
0.0001011687
0.0001011687
0.0001011686
0.001212157
0.0001011729
0.0001011689
0.0001011688
0.0001011688
0.0001011688
0.0001011687
0.0001011687
0.0001011687
0.001208948
0.0001011729
0.0001011689
0.0001011689
0.0001011688
0.0001011688
0.0001011688
0.0001011688
0.0001011688
0.001208128
0.0001011729
0.0001011689
0.0001011689
0.0001011689
0.0001011689
0.0001011689
0.0001011689
0.000101169
0.001207873
0.0001011729
0.0001011689
0.0001011689
0.0001011689
0.0001011689
0.000101169
0.0001011692
0.0001011694
0.001207811
0.0001011729
0.0001011689
0.0001011689
0.0001011689
0.000101169
0.0001011691
0.0001011697
0.0001011709
0.001207818
0.0001011729
0.0001011689
0.0001011689
0.0001011689
0.000101169
0.0001011692
0.0001011702
0.0001011749
0.001207845
0.0001011729
0.0001011689
0.0001011689
0.0001011688
0.0001011688
0.0001011689
0.00010117
0.0001011782
0.0001876469
0.001207868
0.0001011729
0.0001011689
0.0001011688
0.0001011688
0.0001011687
0.0001011686
0.0001011693
0.00010139
0.001207877
0.0001011729
0.0001011689
0.0001011689
0.0001011688
0.0001011687
0.0001011687
0.0001011692
0.0001013131
0.001207874
0.000101173
0.000101169
0.0001011689
0.0001011689
0.0001011688
0.0001011689
0.0001011698
0.0001011701
0.001207869
0.000101173
0.000101169
0.000101169
0.000101169
0.000101169
0.0001011691
0.0001011695
0.0001011706
0.00120787
0.0001011731
0.0001011691
0.0001011691
0.000101169
0.000101169
0.0001011691
0.0001011694
0.0001011699
0.001207884
0.0001011732
0.0001011692
0.0001011691
0.0001011691
0.0001011691
0.0001011691
0.0001011692
0.0001011694
0.001207903
0.0001011732
0.0001011692
0.0001011692
0.0001011691
0.0001011691
0.0001011691
0.0001011691
0.0001011691
0.001207928
0.0001011733
0.0001011693
0.0001011692
0.0001011692
0.0001011691
0.0001011691
0.000101169
0.000101169
0.001207967
0.0001011734
0.0001011694
0.0001011693
0.0001011692
0.0001011691
0.000101169
0.0001011689
0.0001011689
0.001208028
0.0001011736
0.0001011695
0.0001011694
0.0001011693
0.0001011691
0.000101169
0.0001011688
0.0001011687
0.001208125
0.0001011737
0.0001011697
0.0001011695
0.0001011693
0.0001011691
0.0001011689
0.0001011688
0.0001011686
0.00120827
0.000101174
0.0001011699
0.0001011697
0.0001011695
0.0001011692
0.0001011689
0.0001011687
0.0001011685
0.001208467
0.0001011743
0.0001011702
0.00010117
0.0001011697
0.0001011694
0.0001011689
0.0001011686
0.0001011684
0.0006051037
0.001263001
0.001224752
0.001211244
0.001207338
0.001205862
0.001205234
0.001205041
0.0006051597
0.0001011688
0.0001011951
0.0001011939
0.0001011942
0.0001011925
0.0001011903
0.0001011874
0.0001011837
0.001263173
0.000101173
0.0001011688
0.0001011688
0.0001011688
0.0001011687
0.0001011687
0.0001011686
0.0001011686
0.001225215
0.0001011729
0.0001011689
0.0001011688
0.0001011688
0.0001011687
0.0001011687
0.0001011687
0.0001011686
0.001212206
0.0001011729
0.0001011689
0.0001011688
0.0001011688
0.0001011688
0.0001011687
0.0001011687
0.0001011687
0.001208991
0.0001011729
0.0001011689
0.0001011689
0.0001011688
0.0001011688
0.0001011688
0.0001011688
0.0001011688
0.001208164
0.0001011729
0.0001011689
0.0001011689
0.0001011689
0.0001011689
0.0001011689
0.0001011689
0.000101169
0.001207909
0.0001011729
0.0001011689
0.0001011689
0.0001011689
0.0001011689
0.000101169
0.0001011692
0.0001011694
0.001207854
0.0001011729
0.0001011689
0.0001011689
0.0001011689
0.000101169
0.0001011691
0.0001011697
0.0001011709
0.00120786
0.0001011729
0.0001011689
0.0001011689
0.0001011689
0.000101169
0.0001011692
0.0001011702
0.0001011749
0.001207877
0.0001011729
0.0001011689
0.0001011689
0.0001011688
0.0001011688
0.0001011689
0.00010117
0.0001011782
0.0001876429
0.001207899
0.0001011729
0.0001011689
0.0001011688
0.0001011688
0.0001011687
0.0001011686
0.0001011693
0.0001013902
0.001207922
0.0001011729
0.0001011689
0.0001011689
0.0001011688
0.0001011687
0.0001011687
0.0001011692
0.0001013134
0.00120794
0.000101173
0.000101169
0.0001011689
0.0001011689
0.0001011688
0.0001011689
0.0001011698
0.00010117
0.001207952
0.000101173
0.000101169
0.000101169
0.000101169
0.000101169
0.0001011691
0.0001011694
0.0001011706
0.001207971
0.0001011731
0.0001011691
0.0001011691
0.000101169
0.000101169
0.0001011691
0.0001011694
0.0001011699
0.001207993
0.0001011732
0.0001011692
0.0001011691
0.0001011691
0.0001011691
0.0001011691
0.0001011692
0.0001011693
0.001208
0.0001011732
0.0001011692
0.0001011692
0.0001011691
0.0001011691
0.0001011691
0.0001011691
0.0001011691
0.001207999
0.0001011733
0.0001011693
0.0001011692
0.0001011692
0.0001011691
0.0001011691
0.000101169
0.000101169
0.001208012
0.0001011734
0.0001011694
0.0001011693
0.0001011692
0.0001011691
0.000101169
0.0001011689
0.0001011689
0.001208052
0.0001011736
0.0001011695
0.0001011694
0.0001011693
0.0001011691
0.000101169
0.0001011688
0.0001011687
0.00120814
0.0001011737
0.0001011697
0.0001011695
0.0001011693
0.0001011691
0.0001011689
0.0001011688
0.0001011686
0.001208281
0.000101174
0.0001011699
0.0001011697
0.0001011695
0.0001011692
0.0001011689
0.0001011687
0.0001011685
0.001208422
0.0001011743
0.0001011702
0.00010117
0.0001011697
0.0001011694
0.0001011689
0.0001011686
0.0001011684
0.0006053584
0.00126973
0.00123362
0.001220411
0.00121534
0.001211171
0.001208658
0.001208169
0.0006054579
0.0001011688
0.0001011954
0.0001011941
0.0001011936
0.000101192
0.0001011899
0.0001011873
0.0001011837
0.001270147
0.000101173
0.0001011688
0.0001011688
0.0001011688
0.0001011687
0.0001011687
0.0001011686
0.0001011686
0.001235621
0.0001011729
0.0001011689
0.0001011688
0.0001011688
0.0001011687
0.0001011687
0.0001011687
0.0001011686
0.001224643
0.0001011729
0.0001011689
0.0001011688
0.0001011688
0.0001011688
0.0001011687
0.0001011687
0.0001011687
0.001221903
0.0001011729
0.0001011689
0.0001011689
0.0001011688
0.0001011688
0.0001011688
0.0001011688
0.0001011688
0.001221181
0.0001011729
0.0001011689
0.0001011689
0.0001011689
0.0001011689
0.0001011689
0.0001011689
0.000101169
0.001220962
0.0001011729
0.0001011689
0.0001011689
0.0001011689
0.0001011689
0.000101169
0.0001011692
0.0001011694
0.001220965
0.0001011729
0.0001011689
0.0001011689
0.0001011689
0.000101169
0.0001011691
0.0001011697
0.0001011709
0.001220981
0.0001011729
0.0001011689
0.0001011689
0.0001011689
0.000101169
0.0001011692
0.0001011702
0.0001011748
0.00122094
0.0001011729
0.0001011689
0.0001011689
0.0001011688
0.0001011688
0.0001011689
0.00010117
0.0001011782
0.0001876386
0.001220946
0.0001011729
0.0001011689
0.0001011688
0.0001011688
0.0001011687
0.0001011686
0.0001011693
0.0001013899
0.001221028
0.000101173
0.0001011689
0.0001011689
0.0001011688
0.0001011687
0.0001011687
0.0001011692
0.0001013131
0.001221125
0.000101173
0.000101169
0.0001011689
0.0001011689
0.0001011688
0.0001011689
0.0001011698
0.0001011701
0.001221186
0.0001011731
0.000101169
0.000101169
0.000101169
0.000101169
0.0001011691
0.0001011694
0.0001011706
0.001221266
0.0001011731
0.0001011691
0.0001011691
0.000101169
0.000101169
0.0001011691
0.0001011694
0.0001011699
0.001221348
0.0001011732
0.0001011692
0.0001011691
0.0001011691
0.0001011691
0.0001011691
0.0001011692
0.0001011693
0.001221321
0.0001011733
0.0001011692
0.0001011692
0.0001011691
0.0001011691
0.0001011691
0.0001011691
0.0001011691
0.001221216
0.0001011734
0.0001011693
0.0001011692
0.0001011692
0.0001011691
0.0001011691
0.000101169
0.000101169
0.001221125
0.0001011735
0.0001011694
0.0001011693
0.0001011692
0.0001011691
0.000101169
0.0001011689
0.0001011689
0.001221089
0.0001011736
0.0001011695
0.0001011694
0.0001011693
0.0001011691
0.000101169
0.0001011688
0.0001011688
0.00122115
0.0001011738
0.0001011697
0.0001011695
0.0001011693
0.0001011691
0.0001011689
0.0001011688
0.0001011686
0.001221289
0.000101174
0.0001011699
0.0001011697
0.0001011695
0.0001011692
0.0001011689
0.0001011687
0.0001011685
0.001221329
0.0001011743
0.0001011702
0.00010117
0.0001011697
0.0001011694
0.0001011689
0.0001011686
0.0001011684
0.0006079527
0.001289373
0.001267412
0.00124558
0.001247957
0.001227199
0.001223271
0.001222565
0.0006080709
0.0001011688
0.0001011967
0.0001011952
0.0001011933
0.0001011914
0.0001011901
0.0001011877
0.0001011839
0.00129033
0.000101173
0.0001011688
0.0001011688
0.0001011688
0.0001011687
0.0001011687
0.0001011686
0.0001011686
0.001269966
0.000101173
0.0001011689
0.0001011688
0.0001011688
0.0001011687
0.0001011687
0.0001011687
0.0001011686
0.001262273
0.000101173
0.0001011689
0.0001011688
0.0001011688
0.0001011688
0.0001011687
0.0001011687
0.0001011687
0.00126063
0.000101173
0.0001011689
0.0001011689
0.0001011688
0.0001011688
0.0001011688
0.0001011688
0.0001011688
0.001260003
0.000101173
0.0001011689
0.0001011689
0.0001011689
0.0001011689
0.0001011689
0.0001011689
0.000101169
0.001259833
0.000101173
0.0001011689
0.0001011689
0.0001011689
0.0001011689
0.000101169
0.0001011692
0.0001011694
0.001260211
0.000101173
0.0001011689
0.0001011689
0.0001011689
0.000101169
0.0001011691
0.0001011697
0.0001011709
0.001260305
0.0001011731
0.0001011689
0.0001011689
0.0001011689
0.000101169
0.0001011692
0.0001011702
0.0001011749
0.001259852
0.000101173
0.0001011689
0.0001011689
0.0001011688
0.0001011688
0.0001011689
0.00010117
0.0001011782
0.0001876295
0.001259735
0.0001011731
0.0001011689
0.0001011688
0.0001011688
0.0001011686
0.0001011686
0.0001011693
0.00010139
0.001260086
0.0001011731
0.0001011689
0.0001011689
0.0001011688
0.0001011687
0.0001011687
0.0001011692
0.0001013135
0.001260539
0.0001011731
0.000101169
0.0001011689
0.0001011689
0.0001011688
0.0001011689
0.0001011698
0.00010117
0.001260575
0.0001011732
0.000101169
0.000101169
0.000101169
0.000101169
0.0001011691
0.0001011694
0.0001011706
0.001260986
0.0001011732
0.0001011691
0.0001011691
0.000101169
0.000101169
0.0001011691
0.0001011694
0.0001011698
0.001261412
0.0001011733
0.0001011692
0.0001011691
0.0001011691
0.0001011691
0.0001011691
0.0001011692
0.0001011694
0.001261276
0.0001011734
0.0001011692
0.0001011692
0.0001011691
0.0001011691
0.0001011691
0.0001011691
0.0001011691
0.001260747
0.0001011735
0.0001011693
0.0001011692
0.0001011692
0.0001011691
0.0001011691
0.000101169
0.000101169
0.001260201
0.0001011736
0.0001011694
0.0001011693
0.0001011692
0.0001011691
0.000101169
0.0001011689
0.0001011689
0.001259861
0.0001011737
0.0001011695
0.0001011694
0.0001011693
0.0001011691
0.000101169
0.0001011688
0.0001011687
0.001259869
0.0001011738
0.0001011697
0.0001011695
0.0001011693
0.0001011691
0.0001011689
0.0001011688
0.0001011686
0.0012601
0.0001011741
0.0001011699
0.0001011697
0.0001011695
0.0001011692
0.0001011689
0.0001011687
0.0001011685
0.001260203
0.0001011744
0.0001011702
0.00010117
0.0001011697
0.0001011693
0.0001011689
0.0001011686
0.0001011684
0.0006125599
0.0005983955
0.0005794176
0.000573745
0.001268722
0.001263934
0.001261817
0.001261467
0.0006125476
0.000101173
0.0001011746
0.0001011747
0.000101175
0.0001011982
0.0001011953
0.0001011935
0.0001011892
0.0005993199
0.0001011729
0.0001011727
0.0001011737
0.0001011739
0.0001011739
0.000101174
0.0001011737
0.0001011734
0.0005806253
0.0001011729
0.0001011727
0.0001011727
0.0001011729
0.000101173
0.000101173
0.0001011729
0.0001011728
0.0005773688
0.0001011729
0.0001011728
0.0001011727
0.0001011727
0.0001011728
0.0001011729
0.0001011728
0.0001011728
0.000577038
0.0001011729
0.0001011728
0.0001011728
0.0001011727
0.0001011727
0.0001011728
0.0001011727
0.0001011727
0.0005768637
0.000101173
0.0001011728
0.0001011728
0.0001011728
0.0001011728
0.0001011728
0.0001011728
0.0001011729
0.0005767805
0.000101173
0.0001011728
0.0001011728
0.0001011728
0.0001011728
0.000101173
0.0001011731
0.0001011733
0.0005775466
0.000101173
0.0001011728
0.0001011728
0.0001011728
0.0001011729
0.0001011736
0.0001011748
0.0001011748
0.0005788731
0.000101173
0.0001011728
0.0001011728
0.0001011728
0.0001011729
0.0001011753
0.0001011834
0.0001011748
0.0005772243
0.000101173
0.0001011728
0.0001011728
0.0001011727
0.0001011728
0.0001011765
0.0001011864
0.0001011783
0.0001876047
0.0005767998
0.000101173
0.0001011728
0.0001011727
0.0001011726
0.000101173
0.0001011761
0.000101185
0.0001013853
0.0005770941
0.000101173
0.0001011728
0.0001011727
0.0001011727
0.0001011731
0.0001011764
0.0001011836
0.0001013099
0.0005782242
0.000101173
0.0001011729
0.0001011728
0.0001011728
0.0001011732
0.0001011779
0.0001011915
0.0001011708
0.0005774471
0.0001011731
0.0001011729
0.0001011729
0.0001011729
0.0001011736
0.0001011771
0.0001011926
0.0001011979
0.0005775714
0.0001011732
0.000101173
0.0001011729
0.0001011729
0.0001011733
0.0001011749
0.0001011805
0.00010119
0.0005788909
0.0001011732
0.000101173
0.000101173
0.000101173
0.0001011732
0.000101174
0.0001011763
0.0001011789
0.0005803088
0.0001011733
0.0001011731
0.0001011731
0.000101173
0.000101173
0.0001011733
0.0001011739
0.000101174
0.0005787811
0.0001011734
0.0001011732
0.0001011731
0.0001011731
0.000101173
0.0001011731
0.0001011733
0.0001011733
0.000577846
0.0001011735
0.0001011733
0.0001011732
0.0001011731
0.000101173
0.0001011729
0.000101173
0.0001011729
0.0005771474
0.0001011736
0.0001011734
0.0001011733
0.0001011732
0.000101173
0.0001011729
0.0001011728
0.0001011727
0.0005771076
0.0001011738
0.0001011736
0.0001011734
0.0001011732
0.0001011731
0.0001011729
0.0001011727
0.0001011726
0.0005773778
0.000101174
0.0001011738
0.0001011736
0.0001011734
0.0001011731
0.0001011728
0.0001011726
0.0001011724
0.0006032621
0.0001011743
0.0001011741
0.0001011739
0.0001011737
0.0001011733
0.0001011729
0.0001011725
0.0001011723
0.0002752905
0.0002651431
0.0002653414
0.0006022519
0.0005938522
0.0005735681
0.0005693071
0.0005750575
0.0002717367
0.001341493
0.001312801
0.001301446
0.00129657
0.001292775
0.001292961
0.001292997
0.001292885
0.0002712633
0.001311535
0.001258893
0.001242578
0.001237651
0.001235957
0.001235609
0.001235711
0.001235861
0.0002742773
0.001302455
0.001242954
0.001223187
0.001217627
0.001215984
0.001215628
0.001215755
0.001215982
0.0002648777
0.001301135
0.001238892
0.001217886
0.001211848
0.001210103
0.001209791
0.00121006
0.001210452
0.0002660247
0.001300209
0.001237696
0.001216311
0.001210094
0.001208382
0.001208298
0.001208977
0.001209854
0.0002687574
0.001300313
0.001237401
0.001215854
0.001209658
0.001208274
0.001209028
0.001211078
0.001213545
0.0002645647
0.001301042
0.001237433
0.001215846
0.001209857
0.001209307
0.001213313
0.001220742
0.001228335
0.0002654227
0.001299879
0.001237388
0.001216007
0.001210438
0.001211274
0.001220666
0.001253971
0.001268287
0.0002848473
0.001299505
0.001237471
0.001216258
0.001211169
0.001213593
0.001228115
0.001268716
0.0001018433
0.0002654886
0.001301211
0.001237709
0.001216496
0.001211759
0.001215449
0.00123485
0.001300645
0.0001012347
0.0001873752
0.0002645657
0.001301479
0.001237777
0.001216583
0.001211987
0.001216123
0.001237456
0.001304734
0.0001014072
0.0002647663
0.001300674
0.0012376
0.00121649
0.001211813
0.001215572
0.001235001
0.001299523
0.0001013559
0.0002715462
0.00129971
0.001237321
0.001216251
0.00121127
0.00121389
0.001228955
0.001271158
0.0001012171
0.0002678845
0.001298805
0.001237059
0.001215952
0.001210533
0.001211623
0.001221817
0.001257894
0.001274757
0.000601821
0.001298512
0.001236872
0.001215681
0.001209849
0.001209535
0.001214427
0.001226004
0.001254286
0.0002775794
0.001298463
0.001236911
0.001215509
0.001209375
0.001208109
0.001209434
0.001214066
0.001220368
0.000284659
0.00129964
0.001237058
0.001215457
0.001209113
0.001207369
0.001207487
0.001208738
0.001210503
0.0002721631
0.001299995
0.001237182
0.001215493
0.00120901
0.001207061
0.001206737
0.001207142
0.001207758
0.0002677403
0.0013008
0.00123742
0.001215593
0.001209034
0.001206991
0.001206506
0.00120666
0.001206941
0.0002650166
0.001301686
0.001237699
0.001215771
0.001209191
0.001207117
0.001206564
0.001206609
0.001206757
0.0002650133
0.001301913
0.001237953
0.001216098
0.001209586
0.001207537
0.001206951
0.001206908
0.001206947
0.0002653995
0.00130189
0.001238338
0.001216802
0.00121057
0.001208661
0.001208016
0.00120777
0.001207591
0.000269099
0.001302021
0.001239388
0.001218904
0.001213607
0.001212148
0.001211316
0.001210334
0.001209316
0.0006568864
0.0002611161
0.0002610035
0.000101177
0.0006528276
0.0006347395
0.0002715525
0.0002649384
0.0001011863
0.0001011892
0.000630663
0.0006285873
0.0002647885
0.0002644438
0.0001011838
0.0001011912
0.00062815
0.0006279506
0.0002643991
0.0002643242
0.0001011836
0.0001011928
0.0006278922
0.0006278855
0.0002643224
0.0002643307
0.0001011835
0.000101194
0.0006278763
0.0006278878
0.0002643331
0.0002643503
0.0001011835
0.0001011949
0.0006278932
0.0006279139
0.0002643533
0.0002643732
0.0001011836
0.0001011957
0.0006279325
0.0006279721
0.0002643768
0.0002644013
0.0001011898
0.0001011961
0.0006280177
0.0006280701
0.0002644103
0.0002644616
0.0001012016
0.0001011962
0.0002644712
0.0006528481
0.0006347436
0.0002715305
0.0001012346
0.0002649388
0.0001012517
0.0006306637
0.0006285887
0.0002647887
0.0001012301
0.0002644445
0.0001012601
0.0006281513
0.0006279536
0.0002644012
0.0001012239
0.0002643278
0.0001012667
0.000627894
0.000627891
0.0002643276
0.0001012205
0.0002643393
0.0001012755
0.0006278791
0.0006278928
0.0002643436
0.0001012173
0.0002643664
0.0001012841
0.0006278925
0.0006279121
0.0002643718
0.0001012144
0.0002643984
0.0001012929
0.0006279139
0.0006279359
0.0002644043
0.0001012106
0.0002644319
0.0001013015
0.0006279395
0.0006279625
0.0002644385
0.0001012057
0.000264466
0.0001013094
0.0006279672
0.0006279897
0.000264473
0.0001012001
0.0002645002
0.0001013167
0.0006279939
0.0006280164
0.0002645079
0.0001011981
0.0002645341
0.0001013231
0.0001558316
0.0006268278
0.00014642
0.0001012327
0.0001071467
0.000101207
0.0002951969
0.0001873656
0.0006280204
0.0006280428
0.000264542
0.0001011999
0.0002645679
0.0001013306
0.0001463287
0.0006237326
0.0001443453
0.0001014
0.0006612761
0.0001012773
0.0006543295
0.0006280467
0.0006280694
0.0002645762
0.0001012016
0.0002646026
0.0001013399
0.0001416802
0.0006235769
0.0001440796
0.0001013669
0.0006593737
0.0001011893
0.000317634
0.0006280734
0.0006280977
0.0002646114
0.0001012034
0.0002646387
0.0001013515
0.0001503067
0.0005992637
0.0002871088
0.0001012152
0.0003504712
0.000101205
0.0001011811
0.0002910913
0.0001011724
0.0006281008
0.0006281272
0.0002646486
0.0001012051
0.0002646779
0.0001013651
0.0006281307
0.0006281587
0.0002646887
0.0001012071
0.0002647201
0.0001013799
0.0006281638
0.0006281933
0.0002647321
0.0001012092
0.0002647654
0.0001013957
0.0006281991
0.0006282309
0.0002647789
0.0001012114
0.000264814
0.0001014125
0.0006282374
0.0006282716
0.0002648292
0.0001012139