/*--------------------------------*- C++ -*----------------------------------*\
  =========                 |
  \\      /  F ield         | OpenFOAM: The Open Source CFD Toolbox
   \\    /   O peration     | Website:  https://openfoam.org
    \\  /    A nd           | Version:  7
     \\/     M anipulation  |
\*---------------------------------------------------------------------------*/
FoamFile
{
    version     2.0;
    format      ascii;
    class       volScalarField;
    location    "0.01";
    object      p;
}
// * * * * * * * * * * * * * * * * * * * * * * * * * * * * * * * * * * * * * //

dimensions      [0 2 -2 0 0 0 0];

internalField   nonuniform List<scalar> 
109929
(
0.5716084
0.7200041
0.7438232
0.7386621
0.7439498
0.7640179
0.3305795
0.4242645
0.4300512
0.436066
0.4519254
0.4712641
0.3988342
0.5582914
0.6008756
0.6123441
0.6265001
0.6408514
0.3379528
0.4876841
0.531264
0.5437453
0.5585603
0.5736564
0.3127738
0.4572063
0.5051686
0.5226747
0.5412054
0.5586266
0.2920044
0.430724
0.4785982
0.497696
0.5171351
0.534111
0.2733688
0.4060128
0.453176
0.473694
0.4938691
0.5120476
0.2584696
0.3854106
0.4317996
0.4525027
0.4732828
0.4921865
0.2458162
0.3672824
0.4125808
0.4334167
0.4545581
0.4736534
0.2348957
0.3511634
0.395441
0.4160171
0.437204
0.4562851
0.2249506
0.3365707
0.3799735
0.4000217
0.4212102
0.4404653
0.2160227
0.3232562
0.3658629
0.3853385
0.4065293
0.4257774
0.2078884
0.3110761
0.3527744
0.3718883
0.3927625
0.4119439
0.2004586
0.2997687
0.3405846
0.3595624
0.3798901
0.3989553
0.1936421
0.2893649
0.3293148
0.3481021
0.3678814
0.3870835
0.1873411
0.2797849
0.3191283
0.3374188
0.3566985
0.3758309
0.1815032
0.2708631
0.3093529
0.3273922
0.3463143
0.3651986
0.176074
0.2625598
0.3000865
0.3180221
0.3366778
0.3552145
0.171033
0.2547714
0.2913195
0.3092784
0.3277105
0.3458347
0.1663168
0.2475167
0.2831393
0.3010961
0.3193226
0.337034
0.1619068
0.2407367
0.275473
0.2934042
0.3114516
0.3288381
0.1577656
0.2344365
0.2683523
0.2860948
0.3040761
0.3212456
0.06296363
0.2285991
0.2617685
0.279451
0.2972586
0.3142568
1.170463
1.042844
1.065598
1.07966
1.096127
1.114441
0.2603321
0.7085352
0.8521835
1.000937
1.056921
1.09153
0.06954198
-0.02916189
-0.02756368
-0.01203993
0.01073147
0.05076993
0.06473978
0.3210603
0.4162115
0.538438
0.5848367
0.6311148
0.04279429
0.1016562
0.1341085
0.218757
0.261584
0.3097463
0.03560469
0.1418401
0.1903892
0.2840092
0.3314302
0.3803484
0.03127723
0.1135311
0.1520835
0.2372752
0.2807999
0.3268762
0.02737454
0.1042996
0.1397188
0.2207772
0.2638217
0.3106182
0.02444848
0.09606968
0.1282145
0.2044595
0.2454527
0.29084
0.02197929
0.08882275
0.1182658
0.1904062
0.2297158
0.2738748
0.01987809
0.08286653
0.1101069
0.1783978
0.2160141
0.2587631
0.01807385
0.07774044
0.1029877
0.1678346
0.2038471
0.2452272
0.01652852
0.07330287
0.09683464
0.1585631
0.1930418
0.2330365
0.0151734
0.06939184
0.09144202
0.1503626
0.1833987
0.2220158
0.01396751
0.06590469
0.08673006
0.1430072
0.1747024
0.2120137
0.01289612
0.06279167
0.0825415
0.1363797
0.1668144
0.2028944
0.01194339
0.06000245
0.07879582
0.1303033
0.1596723
0.1945606
0.01109409
0.05747393
0.07543142
0.1248685
0.153221
0.1869415
0.0103392
0.05518629
0.07239088
0.1199375
0.1473291
0.1799312
0.00966227
0.05310241
0.06962502
0.1154473
0.1419258
0.1734702
0.00905397
0.05119137
0.06709817
0.1113482
0.1369523
0.1675268
0.008493795
0.04942261
0.0647739
0.1076186
0.1323718
0.1620987
0.007978602
0.04779225
0.06266274
0.1041693
0.1281469
0.1570703
0.01212684
0.04631449
0.06073659
0.1009906
0.1241936
0.1524048
1.197987
1.037936
1.118091
1.158313
1.184302
1.204239
0.2177382
0.7558774
0.9186744
1.115152
1.177776
1.223107
0.0223463
-0.1114093
-0.125797
-0.1526008
-0.137362
-0.1051831
0.03443279
0.3133922
0.4644494
0.5564941
0.6289083
0.6744706
0.01516267
0.06044914
0.1156162
0.1597303
0.2261059
0.274179
0.01347369
0.1281818
0.2099122
0.2659952
0.3307438
0.3763872
0.01171854
0.09559117
0.1653063
0.2140219
0.2693553
0.3131575
0.01030024
0.08928051
0.1567008
0.203406
0.2567924
0.3008288
0.009433197
0.08207963
0.1458684
0.1893013
0.2394282
0.2815888
0.008638766
0.07565972
0.1360459
0.1769487
0.2248879
0.2658151
0.007952442
0.07039286
0.1277193
0.1663333
0.2121291
0.2516272
0.007365362
0.06577258
0.1203071
0.1568846
0.2007496
0.2388784
0.006862463
0.0617603
0.1137551
0.1484993
0.1905495
0.2274118
0.006427143
0.05824289
0.1079094
0.1409943
0.1813549
0.2170231
0.006048553
0.05514076
0.1026736
0.1342585
0.1730376
0.2075617
0.005719728
0.05238232
0.09796434
0.1281797
0.1654935
0.1989336
0.005431581
0.04991205
0.09370802
0.122654
0.1586205
0.1910125
0.005177358
0.04768982
0.0898543
0.1176299
0.1523489
0.1837332
0.004952046
0.04569154
0.08634531
0.1130489
0.1466066
0.1770357
0.004750678
0.04388511
0.08313873
0.1088499
0.1413428
0.1708635
0.004572543
0.04225657
0.08019421
0.1050057
0.1364862
0.1651631
0.004412922
0.04078123
0.07747705
0.1014663
0.1319974
0.1598761
0.004262683
0.0394423
0.07496043
0.09821325
0.1278346
0.1549916
0.004125009
0.03818201
0.07262277
0.0951913
0.1239671
0.1504744
1.473332
1.213575
1.191396
1.146678
1.125956
1.128969
0.2243333
0.8729407
1.151146
1.355909
1.421799
1.467689
0.01750206
-0.2016516
-0.2844741
-0.3279108
-0.3271734
-0.3003115
0.03582561
0.3385892
0.4366707
0.5364851
0.601733
0.6442513
0.01435944
0.05628518
0.07749825
0.1430294
0.1996948
0.2443698
0.01535611
0.1380001
0.1917223
0.2728673
0.3287196
0.3727345
0.01370738
0.109437
0.1544943
0.2199958
0.2681039
0.3099246
0.01266848
0.1046423
0.1499194
0.2119859
0.2592211
0.3022427
0.01194802
0.09793338
0.1410483
0.1989013
0.2432041
0.2845395
0.01119205
0.09127344
0.1320833
0.186761
0.2291655
0.2694769
0.0105247
0.08563617
0.1242442
0.1760368
0.2165183
0.2555409
0.009929383
0.08056211
0.1170643
0.1662807
0.205032
0.2427894
0.009402209
0.0760753
0.1106448
0.1575257
0.1946413
0.2311627
0.008935959
0.07208104
0.1048924
0.1496472
0.1852362
0.2205595
0.008521621
0.0685091
0.09973301
0.1425399
0.1766955
0.2108755
0.008152607
0.06530249
0.09509245
0.136106
0.1689337
0.2020266
0.007821971
0.06241049
0.09090137
0.1302666
0.1618619
0.1939124
0.007524681
0.0597922
0.08710698
0.1249517
0.1554161
0.1864584
0.007255622
0.05741141
0.08365504
0.1201075
0.1495116
0.1796024
0.007011641
0.05523766
0.08050569
0.1156782
0.1440976
0.1732839
0.006788642
0.05324087
0.07761781
0.1116194
0.1391123
0.1674551
0.006580978
0.05140135
0.07496493
0.1078946
0.1345262
0.162081
0.006381184
0.04969965
0.07252634
0.1044647
0.1302834
0.1570897
0.006188234
0.04815138
0.07030007
0.1013277
0.1263973
0.1524935
1.602173
1.249316
1.222752
1.207109
1.212754
1.232063
0.2257909
0.9009982
1.248513
1.456725
1.526852
1.574941
0.01202074
-0.2660186
-0.3840862
-0.4403242
-0.4415349
-0.4118459
0.03474578
0.3129235
0.3873962
0.4820375
0.5581629
0.6090778
0.01119815
0.02525943
0.05038581
0.1088147
0.1742328
0.223054
0.01262963
0.1118666
0.1823642
0.2570151
0.3199182
0.3665397
0.01164413
0.09075571
0.1476172
0.2066505
0.2597409
0.3027656
0.01103376
0.08870784
0.1453527
0.2011363
0.2527311
0.2967875
0.01055482
0.08361069
0.1376765
0.1894347
0.2376413
0.2797902
0.009938332
0.07793577
0.1293165
0.178196
0.2242394
0.265314
0.009358726
0.0730643
0.1218602
0.1681548
0.2120714
0.2518211
0.008825025
0.06860573
0.1149278
0.1589404
0.2009365
0.2393992
0.008345479
0.06464796
0.108688
0.1506179
0.1908369
0.2280367
0.007918691
0.06112227
0.1030665
0.1431071
0.1816681
0.217645
0.007539475
0.05796985
0.09801353
0.1363103
0.1733401
0.2081509
0.007201185
0.05514798
0.09345346
0.1301613
0.1657598
0.1994544
0.006898148
0.05260789
0.08933508
0.1245682
0.1588523
0.1914809
0.00662623
0.05031572
0.08559462
0.1194813
0.1525359
0.1841534
0.006381397
0.04823787
0.08219528
0.1148299
0.146756
0.1774066
0.006160758
0.04635124
0.07908547
0.1105796
0.141444
0.1711958
0.005961333
0.04462999
0.07623873
0.1066693
0.1365515
0.1654617
0.005780507
0.04305274
0.07360796
0.1030712
0.1320221
0.1601778
0.005614968
0.04159236
0.07116484
0.09972334
0.1278003
0.1552836
0.005460965
0.04022205
0.0688696
0.09661399
0.123848
0.150803
1.610981
1.224696
1.172019
1.152491
1.155455
1.169409
0.2253281
0.9013031
1.24858
1.45678
1.526894
1.574935
0.01134052
-0.2659554
-0.3840596
-0.4402995
-0.4415169
-0.4118244
0.03475863
0.3129374
0.3874134
0.4820589
0.5581826
0.6091019
0.01100563
0.02526669
0.05039333
0.1088235
0.1742365
0.2230547
0.01242405
0.1118675
0.1823692
0.2570179
0.3199234
0.3665347
0.01157782
0.09075431
0.1476169
0.206653
0.2597412
0.3027586
0.01103034
0.08870382
0.1453516
0.2011345
0.2527288
0.2967849
0.01057466
0.08360683
0.1376738
0.1894347
0.2376401
0.2797843
0.009964151
0.07793182
0.1293146
0.1781934
0.2242379
0.2653176
0.009387616
0.07306077
0.1218566
0.1681554
0.2120707
0.251817
0.008853942
0.06860106
0.1149264
0.1589378
0.2009354
0.2394048
0.008373588
0.06464394
0.1086848
0.1506188
0.1908376
0.2280321
0.007944612
0.06111759
0.1030652
0.1431061
0.1816668
0.2176524
0.007563313
0.05796698
0.09801011
0.1363132
0.173342
0.2081494
0.007223153
0.05514529
0.09345203
0.1301624
0.1657612
0.1994627
0.00691863
0.05260699
0.08933384
0.1245741
0.1588559
0.1914849
0.006645308
0.05031655
0.08559777
0.119486
0.1525437
0.1841555
0.0063997
0.0482435
0.08220355
0.1148445
0.1467657
0.1774078
0.00617855
0.04636423
0.07910801
0.1106052
0.1414658
0.1711927
0.005979285
0.04466078
0.0762855
0.1067285
0.1365958
0.1654572
0.005800353
0.04311844
0.07370764
0.1031955
0.1321335
0.1601931
0.005638892
0.04172292
0.0713582
0.09996856
0.1280269
0.1553138
0.005492487
0.04046462
0.0692291
0.09704907
0.124315
0.1508083
1.549283
1.222943
1.222569
1.215563
1.221156
1.234233
0.2230801
0.8724328
1.151086
1.355894
1.421812
1.467707
0.01620818
-0.2017033
-0.284445
-0.3278665
-0.3271344
-0.3002756
0.03753118
0.3385776
0.4367055
0.5365395
0.60179
0.6443179
0.01392702
0.05629224
0.07751565
0.1430442
0.1997025
0.2443783
0.01477202
0.1380087
0.1917352
0.2728768
0.3287176
0.3727281
0.0132979
0.1094422
0.154499
0.219997
0.2681019
0.3099182
0.0124031
0.104644
0.1499235
0.2119846
0.2592182
0.3022359
0.01176142
0.0979341
0.141049
0.1988993
0.2432036
0.2845326
0.01104691
0.09127378
0.132086
0.1867608
0.2291657
0.2694718
0.01040512
0.085637
0.1242457
0.1760371
0.2165234
0.255538
0.009825157
0.08056263
0.117068
0.1662846
0.2050375
0.2427922
0.009307643
0.07607543
0.1106476
0.1575301
0.1946517
0.2311692
0.008846486
0.07208065
0.1048984
0.1496542
0.1852484
0.2205722
0.008435961
0.06850989
0.09973878
0.1425486
0.1767134
0.2108943
0.008069115
0.06530384
0.09510187
0.1361175
0.1689555
0.2020508
0.007740058
0.06241267
0.0909087
0.130281
0.1618885
0.1939444
0.007443391
0.05979309
0.08711661
0.1249677
0.155444
0.186505
0.007176054
0.05741004
0.08365712
0.120124
0.1495397
0.1796594
0.006934867
0.05522916
0.08049815
0.1156906
0.1441168
0.1733637
0.006715561
0.05321618
0.07758133
0.111621
0.1391077
0.1675661
0.006516709
0.05133838
0.07486931
0.1078672
0.1344443
0.1622804
0.006334424
0.04957128
0.07230937
0.1043924
0.1300329
0.1574115
0.006168387
0.04790815
0.06985693
0.1011988
0.1258122
0.1530833
1.344085
1.136626
1.1944
1.2056
1.217312
1.231892
0.219988
0.7564496
0.9188527
1.115267
1.177824
1.223123
0.02162665
-0.1112896
-0.1256718
-0.1525285
-0.1373085
-0.1051514
0.03879416
0.3134564
0.4645071
0.5565382
0.628938
0.6745146
0.016243
0.06046202
0.1156422
0.1597448
0.2261091
0.2741752
0.01585883
0.1281883
0.2099324
0.2660036
0.3307423
0.3763748
0.01401311
0.09559218
0.1653182
0.214021
0.2693491
0.313138
0.01266445
0.08927866
0.156708
0.2034022
0.256784
0.3008126
0.01177519
0.08207736
0.1458783
0.1892923
0.2394214
0.281577
0.01093026
0.07566083
0.1360539
0.1769434
0.2248838
0.265804
0.01020255
0.07039435
0.1277323
0.1663265
0.212128
0.2516214
0.009568316
0.06577528
0.1203187
0.1568834
0.2007514
0.2388725
0.009014689
0.06176108
0.1137713
0.1484983
0.1905538
0.2274145
0.008526852
0.05824526
0.1079233
0.141
0.1813637
0.2170239
0.008097019
0.05514525
0.1026937
0.1342668
0.1730497
0.2075735
0.007716487
0.05239092
0.09798489
0.128195
0.1655121
0.1989482
0.00737835
0.04992268
0.09373574
0.1226731
0.1586459
0.1910372
0.007075361
0.04770738
0.08988443
0.1176604
0.1523805
0.1837659
0.006804162
0.04571735
0.08638865
0.1130889
0.1466527
0.1770815
0.006561932
0.04392874
0.08319631
0.1089196
0.1414095
0.1709399
0.006347808
0.04232765
0.08028759
0.1051159
0.1365906
0.1652764
0.006159753
0.04090317
0.07762529
0.1016593
0.1322005
0.160072
0.00599593
0.03963642
0.07518893
0.09848079
0.1281468
0.1553082
0.005854759
0.03846465
0.07293129
0.09543447
0.12443
0.1507443
0.9251846
0.877106
0.9133497
0.9322555
0.9557345
0.9825773
0.2491147
0.7087834
0.8523592
1.001072
1.056992
1.091562
0.0335874
-0.02910251
-0.02750172
-0.0120042
0.01074882
0.0507447
0.04291743
0.3210838
0.4162519
0.5384529
0.5848526
0.631094
0.02245803
0.101649
0.1341064
0.2187495
0.2615729
0.3097174
0.0201287
0.1418415
0.1903819
0.2839989
0.331416
0.3803204
0.01793784
0.1135289
0.1520688
0.2372598
0.2807782
0.3268507
0.01598876
0.1042826
0.1397007
0.2207592
0.2637983
0.3105928
0.01467986
0.09604958
0.1281896
0.2044412
0.2454301
0.2908141
0.01355745
0.08881408
0.1182436
0.1903897
0.229695
0.2738547
0.01261054
0.08285571
0.11008
0.1783839
0.2159988
0.2587459
0.01179821
0.07773031
0.1029639
0.1678236
0.2038362
0.2452196
0.01110127
0.07327676
0.09681017
0.1585542
0.1930388
0.2330324
0.01046272
0.06936707
0.09142217
0.1503575
0.1834001
0.2220231
0.009860238
0.06588412
0.08670833
0.1430055
0.1747124
0.2120255
0.009318321
0.06278314
0.08252507
0.1363838
0.1668308
0.2029166
0.008822141
0.0599889
0.07877818
0.1303106
0.1596947
0.1945906
0.008370025
0.0574702
0.07542083
0.1248841
0.153254
0.1869864
0.007963253
0.05517147
0.07237733
0.1199621
0.1473658
0.179998
0.007594552
0.05308774
0.06960537
0.115485
0.1419624
0.1735766
0.00725615
0.05115167
0.06705447
0.1114065
0.1369675
0.1676972
0.006939629
0.04935245
0.06466148
0.1077296
0.1323096
0.1624458
0.006636953
0.04767918
0.06242898
0.1044404
0.127883
0.1578647
0.01201742
0.04612893
0.06017195
0.1015098
0.1234983
0.1535861
0.5881274
0.62404
0.6581415
0.6833966
0.7109051
0.7289298
0.02411102
0.2944767
0.4635908
0.5788972
0.6153945
0.6428421
0.6719163
0.02034364
0.2052592
0.3967096
0.4552621
0.462983
0.4807655
0.5079041
0.01757948
0.2489283
0.4873693
0.5765966
0.5933978
0.6097669
0.6257062
0.01331179
0.1897768
0.4099808
0.4967613
0.5159791
0.5343451
0.5535391
0.01132471
0.1733587
0.3880203
0.4776373
0.5014342
0.5217796
0.5421388
0.01030705
0.1566886
0.3610057
0.4478665
0.4730355
0.4944358
0.5145863
0.009403183
0.1436852
0.3382076
0.4221013
0.4484651
0.4710867
0.4921073
0.008701799
0.1336216
0.319076
0.4002858
0.4268938
0.4502701
0.4718193
0.008100317
0.125142
0.3022177
0.3808557
0.4071487
0.4312258
0.4531566
0.007572045
0.1178985
0.2873646
0.3635701
0.3894062
0.4137006
0.4359279
0.007088719
0.1116053
0.2741907
0.3480308
0.3732586
0.3975092
0.4201771
0.006702166
0.1061047
0.2623715
0.3339245
0.3585424
0.3825074
0.4053582
0.006335701
0.101222
0.2517085
0.3209997
0.3451287
0.3685365
0.3914587
0.006022968
0.09686692
0.2420558
0.309156
0.3328286
0.3556135
0.3783236
0.0057336
0.092966
0.2332268
0.2982757
0.3214549
0.3436244
0.3661317
0.005481764
0.08941148
0.225103
0.2883339
0.3108758
0.3325052
0.3546774
0.005236817
0.08616076
0.2175596
0.2789626
0.3009916
0.3222157
0.343918
0.005012594
0.08319294
0.2105546
0.2702456
0.2918018
0.3126811
0.3338814
0.004799545
0.08045632
0.2040394
0.2621186
0.2832698
0.3038243
0.3245005
0.004610651
0.07793393
0.1979908
0.2545447
0.2753285
0.2955481
0.3157468
0.004427087
0.07560522
0.1923693
0.2474721
0.2678771
0.287799
0.3076548
0.004249675
0.07347686
0.187129
0.2408548
0.2608866
0.2805873
0.3000679
0.004101839
0.1902099
0.1821403
0.2345213
0.2541207
0.2735924
0.292738
0.1752839
0.4313897
0.04378508
0.4592558
-0.03199116
0.1324643
0.0240718
0.1438765
0.04111053
0.2759389
-0.05550584
0.04857409
0.02034522
0.1211731
0.02350163
0.1616973
-0.06456095
0.04031161
0.0175649
0.129566
0.02055758
0.1402967
-0.08120455
0.006641068
0.01329054
0.09405202
0.01598939
0.105357
-0.09016654
-0.002708582
0.01130861
0.07921064
0.01445031
0.09455223
-0.0917595
-0.01168925
0.01031006
0.06936871
0.01279985
0.08266289
-0.09277156
-0.01808576
0.009386761
0.06196777
0.01155473
0.07433091
-0.0922277
-0.0223892
0.008685894
0.05648643
0.01058167
0.06765218
-0.09087617
-0.02530526
0.008102114
0.05191185
0.00974937
0.06203654
-0.08907082
-0.02722409
0.007573183
0.04808448
0.009051286
0.05730425
-0.08703919
-0.02854346
0.007101993
0.0447751
0.008455061
0.05319155
-0.08498184
-0.02947759
0.006691654
0.04201579
0.007918862
0.04957559
-0.08297417
-0.03018393
0.006328468
0.03961183
0.00743536
0.04637316
-0.08102776
-0.03077662
0.006016329
0.03747411
0.007012881
0.04353834
-0.07912972
-0.03123667
0.005740181
0.03557064
0.006629839
0.04098938
-0.07726239
-0.03151582
0.005478382
0.03383531
0.006289728
0.03870752
-0.07544594
-0.03170038
0.005237202
0.03226398
0.005994955
0.03665977
-0.07369286
-0.0318207
0.00500693
0.03084692
0.005725638
0.03483177
-0.07200807
-0.03188806
0.004798831
0.02954904
0.005469358
0.0331718
-0.07036489
-0.03190453
0.004602861
0.02836985
0.005240686
0.03166458
-0.06878467
-0.03190365
0.004421121
0.02727965
0.005034158
0.030285
-0.06728016
-0.03196747
0.004258134
0.02626924
0.004845556
0.02900587
-0.06587774
0.07791654
0.004115253
0.02536423
0.004685333
0.02788682
0.9249829
-0.01983469
0.4235414
1.603462
0.004348547
0.5031614
1.254037
-0.004070554
0.4511384
1.762997
-0.003672886
0.4396564
1.691659
-0.005167058
0.4114647
1.927698
-0.00598878
0.398274
1.914689
-0.005404812
0.3927149
1.970758
-0.006186018
0.3881484
1.976124
-0.006038064
0.388701
1.90698
-0.0057605
0.3905745
1.917506
-0.00584117
0.4017274
1.710068
-0.004788344
0.4108987
1.766629
-0.003495814
0.4400888
1.275927
-0.004886527
0.4509815
1.602971
0.004177603
0.5035641
0.928177
-0.01977396
0.4233775
0.4321731
0.04380543
0.4592317
0.1753445
0.8037267
0.9041583
0.1211906
0.02352529
0.1617286
-0.05549431
0.0486134
0.02623749
0.004838387
0.02898684
-0.06724802
-0.03192726
0.02528101
0.004664254
0.02781026
-0.06589632
0.07777497
0.2355437
0.2169161
0.4671287
0.1985461
0.5876166
0.1282487
0.489883
0.5534878
0.6227445
0.3107525
0.6238784
0.1196301
0.6495164
0.5439963
0.7915003
0.3805062
0.6582498
0.1633325
0.7227172
0.5584765
0.8383433
0.4351207
0.6836612
0.2226167
0.7497034
0.586002
0.8738776
0.4853004
0.711057
0.2765994
0.7764009
0.6210879
0.9041587
0.7289195
0.8036795
0.1050822
0.1251366
0.1411335
0.1674498
0.06433538
0.07705796
0.05196198
0.09021685
0.05132386
0.04876785
0.04002609
0.06590785
0.03862992
0.03300221
0.03192522
0.04346858
0.03071681
0.01894296
0.02505878
0.02984511
0.02535588
0.01191985
0.02124941
0.0208067
0.0211285
0.006325137
0.01785955
0.01388839
0.01793786
0.002314679
0.01531046
0.008797565
0.01544352
-0.0007031136
0.0132443
0.004868763
0.01344222
-0.003023739
0.01160879
0.001791326
0.01180128
-0.00481381
0.01031384
-0.0006403922
0.01039636
-0.006309229
0.009129858
-0.002655301
0.009179226
-0.007559896
0.008083424
-0.004335878
0.008150087
-0.008602551
0.007208323
-0.00574528
0.007260286
-0.009467857
0.006449489
-0.006919384
0.006485522
-0.01014403
0.005763201
-0.007877124
0.00580072
-0.01070096
0.00515991
-0.008689774
0.005201515
-0.01116197
0.004634269
-0.009380764
0.004674278
-0.0115549
0.004169428
-0.009972892
0.004207361
-0.01189883
0.00376436
-0.01048501
0.003787334
-0.01219968
0.003402453
-0.0109249
0.003408616
-0.01245428
0.003077204
-0.011312
0.003008116
-0.01269447
0.002759392
-0.01169745
0.2096485
0.2153162
0.2071084
0.2223215
0.217633
0.2231771
0.2190311
0.2223233
0.2214482
0.2204616
0.2221875
0.2217155
0.2229956
0.2146019
0.2295336
0.2067528
0.2782006
0.189059
0.1285105
0.4900107
0.5537928
0.4670291
0.1985591
0.1195774
0.6498279
0.544297
0.6224742
0.3107338
0.1630306
0.7229952
0.5587599
0.7915347
0.3805201
0.2221826
0.7499179
0.5862152
0.8383809
0.4350289
0.2764533
0.7765725
0.6211214
0.8738638
0.4852558
0.1439802
0.04110728
0.2760186
-0.03179886
0.1325145
0.1295534
0.02059248
0.1403168
-0.0645362
0.04038705
0.09407278
0.01603313
0.1053416
-0.08113887
0.006710403
0.07917123
0.01443471
0.09454732
-0.09011225
-0.002719143
0.06937203
0.01280498
0.08269904
-0.09181038
-0.01163762
0.06200526
0.01156299
0.0743525
-0.09272791
-0.01802778
0.05651157
0.01057942
0.06765476
-0.0921512
-0.02238624
0.0519079
0.009739218
0.06204575
-0.09087226
-0.02534525
0.04811866
0.009037525
0.05732175
-0.08911116
-0.02729795
0.04481701
0.008459013
0.05324466
-0.08712991
-0.02852216
0.04206574
0.0079205
0.04961417
-0.08495675
-0.0294482
0.03964604
0.007438188
0.04640067
-0.08293058
-0.03013119
0.03749741
0.007007014
0.04354651
-0.08098207
-0.0307977
0.03558947
0.006630584
0.0410171
-0.07914803
-0.03119955
0.03387556
0.006293351
0.03874666
-0.07724292
-0.03142627
0.0322544
0.005996959
0.03667409
-0.07540867
-0.03166477
0.0308948
0.005729775
0.03487293
-0.07369103
-0.03173153
0.02954963
0.005473899
0.03318785
-0.07196392
-0.03181728
0.02840499
0.005246744
0.03169343
-0.07033207
-0.03178128
0.02728389
0.00503152
0.03028355
-0.06869737
-0.03184418
0.3274918
0.3703299
0.2636297
0.4218023
0.1419435
0.1685265
0.09489444
0.03621965
0.2801355
0.1855446
0.08643028
0.1204462
0.09407977
0.1286922
0.04755158
0.07623899
0.05456471
0.06441948
0.0437438
0.05585511
0.04739823
0.04885535
0.03210073
0.03607969
0.03474144
0.03101392
0.0268817
0.0255195
0.02900073
0.02093218
0.02246608
0.01740424
0.02402422
0.01374782
0.01910799
0.01153869
0.02037293
0.008217468
0.01648661
0.007138697
0.01753291
0.004091322
0.01441654
0.003742076
0.01526996
0.0008895288
0.0127496
0.001077748
0.01342
-0.001625503
0.01134179
-0.001081158
0.01183006
-0.003628576
0.01012
-0.00287688
0.01045497
-0.005259791
0.009055606
-0.004386828
0.009287832
-0.006619586
0.008136611
-0.005659424
0.008280422
-0.007756703
0.007334399
-0.006690506
0.007406796
-0.008701967
0.006625174
-0.007550451
0.006639161
-0.009467471
0.00600262
-0.008270855
0.005960552
-0.01011944
0.005453771
-0.008896234
0.005356513
-0.01068061
0.004960294
-0.009445558
0.004821108
-0.01115396
0.004516401
-0.009936238
0.00433889
-0.01156019
0.004114405
-0.01036215
0.003896749
-0.01190296
0.00374413
-0.01077169
0.003488882
-0.01220184
0.003336647
0.04816788
-0.01250468
0.003076497
0.2282255
0.2034533
0.2217163
0.2134659
0.2218319
0.220643
0.2220255
0.2205797
0.2207326
0.2216995
0.2189238
0.2213871
0.2059274
0.2241608
0.210332
0.2199113
0.2349662
0.2174224
0.3279948
0.3701951
0.2636774
0.4215176
0.1408921
0.1683248
0.09444531
0.03660326
0.4691085
0.8547752
0.6202784
0.06433988
0.07707346
0.05198172
0.09019901
0.003447946
-0.01242983
0.003107256
-0.01129419
0.003797411
-0.01076658
0.003539707
-0.01218595
0.003100048
-0.01268455
0.002820587
-0.01171501
0.003430821
-0.01130051
-0.01252566
0.003168443
0.00397793
0.0727415
0.004005214
0.02457502
0.02440879
0.07262045
0.04556232
0.002431091
-0.01306844
0.002536619
0.5137285
0.5841781
0.5765523
0.4652831
0.2991952
0.4938116
0.3273004
0.7093089
0.5236148
0.5717695
0.3637918
0.7584105
0.5330071
0.6198489
0.3984874
0.7953163
0.5593397
0.6558076
0.4333977
0.8246232
0.589554
0.6884457
0.4691197
0.854758
0.620298
0.7234586
0.02189313
0.06250964
0.01551338
0.06682628
0.007187312
0.03423631
-0.001707011
0.03839447
0.002921336
0.02419262
-0.005960679
0.02903579
0.001053415
0.01933911
-0.006567185
0.02348397
-0.0005064914
0.01515106
-0.007571446
0.01936655
-0.001107395
0.01294984
-0.007233168
0.01663406
-0.001601499
0.01119464
-0.006963978
0.01439741
-0.001887993
0.009820621
-0.006637026
0.01261666
-0.002073332
0.008664872
-0.006354049
0.01113261
-0.002200816
0.007665568
-0.006096075
0.009884278
-0.002262327
0.006817649
-0.005847561
0.008833533
-0.002316015
0.00607038
-0.005619631
0.007913754
-0.002354789
0.005386251
-0.005434235
0.007101892
-0.002379627
0.004760498
-0.005278393
0.006386164
-0.002393672
0.004204954
-0.005114641
0.005749559
-0.00238574
0.003722893
-0.004942585
0.005186838
-0.002374967
0.003292365
-0.004770712
0.004683534
-0.002354225
0.00290702
-0.004601031
0.004236096
-0.002329183
0.002560805
-0.004441668
0.003833867
-0.002295669
0.002245951
-0.004296774
0.003474469
-0.002270966
0.001953798
-0.00417508
0.003144531
-0.002250723
0.001680011
-0.004067692
0.002839727
-0.002240731
0.001413666
-0.003984811
0.002550835
0.3611476
0.3653429
0.3653224
0.3658133
0.3651454
0.3666261
0.3639595
0.3696441
0.3642545
0.3726387
0.3691678
0.3667286
0.3667266
0.3684669
0.3597098
0.3608265
0.3683667
0.3677424
0.4747782
0.3302127
0.3492043
0.5061664
0.006764811
0.0883311
0.02688826
0.07101508
0.3711174
0.3633229
0.008166778
0.046238
0.01241626
0.04241164
0.002218293
0.0321028
0.0037786
0.02974301
0.001485035
0.02589149
0.002036539
0.02483509
-0.0003394312
0.02073578
-0.0004183612
0.02008142
-0.0009184116
0.01756967
-0.001232632
0.01719635
-0.001491545
0.01507435
-0.001828651
0.01482503
-0.001833849
0.01317831
-0.002132291
0.01294108
-0.002039979
0.01164347
-0.002315414
0.0114042
-0.002165163
0.01035762
-0.002426317
0.01011606
-0.002248851
0.009270743
-0.002492903
0.00902005
-0.002311724
0.008321152
-0.002545284
0.008070428
-0.002356584
0.007480036
-0.002587335
0.007239114
-0.002371
0.006737231
-0.002608978
0.006516626
-0.002368889
0.00608076
-0.002609312
0.005878532
-0.002383874
0.005494944
-0.002597474
0.005291939
-0.002386681
0.004971283
-0.002578156
0.004769935
-0.00237433
0.004502422
-0.002550851
0.004306169
-0.002347987
0.004080851
-0.002521305
0.003898439
-0.002311887
0.003699127
-0.002487959
0.003533283
-0.002281251
0.003348003
-0.002465621
0.003199564
-0.002261312
0.003023859
-0.002448227
0.002887443
-0.002240009
0.002723457
-0.002431161
0.002602228
-0.002386326
0.002452496
-0.002180873
0.002349928
0.3628883
0.365271
0.364336
0.3625507
0.3630985
0.3675168
0.3717115
0.3718596
0.370312
0.3639058
0.3689343
0.3691621
0.365263
0.3693476
0.3613346
0.3675759
0.4733271
0.5853576
0.4742336
0.330198
0.3492355
0.5065147
0.006983946
0.0885303
0.026938
0.07145274
0.6168163
0.7859486
0.7420464
0.6134783
0.007178513
0.03422178
-0.001709846
0.03838951
0.04751853
0.07620328
0.05446346
0.06437796
-0.002228106
0.002729383
-0.002425741
0.002610641
-0.002236143
0.001414698
0.002555322
-0.00398351
0.0024117
-0.002411453
-0.002173307
0.002325436
0.1976485
0.2608699
0.2447486
0.2128051
0.1847233
0.275426
0.1494628
0.2475746
0.3479977
0.4034181
0.5212073
0.4993481
0.2810785
0.6725754
0.5369816
0.540449
0.3111643
0.7339239
0.5418942
0.5876086
0.3485411
0.7687364
0.5623665
0.6250151
0.3877261
0.7997089
0.5853859
0.6641375
0.4253567
0.8278478
0.01307629
0.05728273
0.01662064
0.05279891
0.004189357
0.03610205
0.005305887
0.03375469
0.002816521
0.0286869
0.003428013
0.02743594
0.000813972
0.02281396
0.0006152944
0.02198161
-0.0002331872
0.0190279
-0.0006064467
0.0184022
-0.0008963561
0.01627892
-0.001298544
0.01581681
-0.001407134
0.01412488
-0.001759564
0.01370122
-0.001718218
0.01240455
-0.002044272
0.01200538
-0.001908842
0.01098668
-0.002199858
0.01060115
-0.002037062
0.009783196
-0.002302196
0.009414499
-0.002127898
0.008747697
-0.00237338
0.008396158
-0.002192061
0.007844705
-0.002417709
0.007510609
-0.002220664
0.007049785
-0.002443566
0.006739756
-0.002245574
0.006350136
-0.002444015
0.006049733
-0.002262119
0.00572321
-0.00244383
0.005436636
-0.002273337
0.005162351
-0.00244228
0.004893216
-0.002270923
0.004661792
-0.002430867
0.004412254
-0.002252462
0.004216704
-0.002405611
0.003987265
-0.002221984
0.003821496
-0.002369344
0.003606035
-0.002191771
0.003462004
-0.002337159
0.003261734
-0.002174178
0.003132136
-0.002313472
0.002941121
-0.002157887
0.002825185
-0.00229068
0.002646562
-0.002134407
0.002540601
-0.002259682
0.002374177
0.3668735
0.3681471
0.3645797
0.370882
0.360379
0.3658277
0.3672936
0.3672567
0.3662028
0.3670864
0.3654671
0.3697023
0.3701138
0.3659232
0.3671829
0.3682245
0.377591
0.3889853
0.5763439
0.4648543
0.493617
0.2989263
0.4993663
0.6726242
0.5214903
0.2809261
0.7095523
0.5717818
0.3271258
0.5237248
0.5404497
0.7340506
0.5370468
0.3109735
0.75861
0.6199998
0.3635545
0.5329829
0.587682
0.7690838
0.5420381
0.3483747
0.7955709
0.6558929
0.3982968
0.559245
0.6252845
0.7999632
0.5623567
0.3875057
0.8249098
0.6884374
0.4332451
0.5893212
0.6641639
0.4253852
0.8279012
0.5854063
0.1251401
0.1408346
0.1675594
0.1050793
0.1205007
0.09416225
0.1287578
0.08654222
0.04875651
0.04004802
0.06588207
0.05132368
0.05584231
0.04880819
0.04369072
0.0472712
0.03298169
0.04345158
0.03849567
0.03184777
0.03605977
0.03103282
0.0319764
0.03460076
0.01897655
0.02983569
0.03067346
0.02498844
0.02553478
0.02094975
0.02690522
0.02899808
0.01190344
0.02077432
0.02535099
0.02123937
0.006315658
0.01389237
0.02105651
0.01776173
0.01155172
0.008232583
0.01902035
0.02027037
0.002339576
0.008823656
0.01785583
0.01520863
0.007156551
0.004124786
0.01644634
0.01749366
-0.0006796189
0.004887459
0.0154274
0.01322338
0.003750962
0.000898986
0.01441506
0.01527367
-0.00305212
0.001799013
0.01343681
0.01160307
0.001079577
-0.001613759
0.01278871
0.01343312
-0.004831787
-0.0006707232
0.0117991
0.01033153
-0.001084602
-0.003691253
0.01131092
0.0117648
-0.006316994
-0.002661227
0.01031783
0.009046748
-0.002890052
-0.005274584
0.01003186
0.01035679
-0.007565332
-0.004337835
0.009095153
0.007985646
-0.00438532
-0.006629624
0.00897487
0.009195551
-0.008595126
-0.00570831
0.008070979
0.007124543
-0.005639327
-0.007721147
0.008093952
0.008231569
-0.009450359
-0.006921622
0.00723212
0.006416535
-0.01015291
-0.007875782
0.006408662
0.005676962
-0.007536795
-0.009468691
0.006553146
0.006555731
-0.01067887
-0.008700415
0.005771708
0.0050934
-0.01117471
-0.009366104
0.00513823
0.004569461
-0.00887999
-0.01066631
0.005394296
0.005289312
-0.01152404
-0.009980482
0.004654023
0.00412233
-0.009444042
-0.01118003
0.004933293
0.004775243
-0.01189571
-0.01047248
0.004148529
0.003702267
-0.00991237
-0.01154349
0.004457995
0.004277962
-0.01217055
-0.01089516
0.00374667
0.003350806
-0.01034738
0.003894993
-0.01186326
0.004113498
0.307054
0.3926793
0.3472072
0.2874007
0.04631627
0.1153522
0.04960289
0.1323551
0.3710189
0.3923533
0.01315246
0.04677528
0.006265584
0.04924654
0.003908047
0.02886153
-0.004009765
0.03282064