/*--------------------------------*- C++ -*----------------------------------*\
  =========                 |
  \\      /  F ield         | OpenFOAM: The Open Source CFD Toolbox
   \\    /   O peration     | Website:  https://openfoam.org
    \\  /    A nd           | Version:  7
     \\/     M anipulation  |
\*---------------------------------------------------------------------------*/
FoamFile
{
    version     2.0;
    format      ascii;
    class       surfaceScalarField;
    location    "0.01";
    object      phi;
}
// * * * * * * * * * * * * * * * * * * * * * * * * * * * * * * * * * * * * * //

dimensions      [0 3 -1 0 0 0 0];

internalField   nonuniform List<scalar> 
260377
(
-0.001465884
0.001456017
1.337212e-06
-0.000138775
-0.0002492717
-0.0001798758
-0.0002412116
0.0001402484
0.0002515472
0.0001818281
0.0002440419
-0.002152437
0.001430495
5.029601e-05
-8.766352e-05
-0.0002874414
-0.0001557084
-0.0002634244
-0.002847111
0.001365567
6.618665e-05
-3.352076e-05
-0.0003121949
-0.0001189315
-0.0002724315
-0.003507333
0.001299541
6.419689e-05
1.388649e-05
-0.0003412001
-9.082854e-05
-0.0002853728
-0.00412053
0.001200153
6.310673e-05
6.124481e-05
-0.0003627831
-5.866836e-05
-0.0002898558
-0.004668588
0.001071397
5.694087e-05
0.00010891
-0.000378973
-2.172887e-05
-0.0002884858
-0.005131223
0.000900869
4.690903e-05
0.0001578951
-0.0003856676
2.058982e-05
-0.0002779602
0.0006873692
3.629374e-05
0.000207027
-0.0003806853
6.393107e-05
-0.0002591726
-0.005485985
-0.001496596
0.002169157
-5.259167e-05
9.646277e-05
0.0002986265
0.0001656333
0.0002753256
-0.002173165
0.002108003
-9.375438e-07
-0.002868493
0.002023337
3.75579e-05
-0.003537065
0.001924992
4.312162e-05
-0.00416974
0.00178789
4.493937e-05
-0.004745898
0.001606194
4.136072e-05
-0.005241383
0.001360517
3.583777e-05
0.001048988
2.741352e-05
-0.005630415
-0.001521303
0.002936917
-7.247544e-05
5.03474e-05
0.0003378026
0.0001394763
0.0002983937
-0.002220236
0.002848488
-4.155046e-05
-0.00294277
0.00274622
-3.469381e-07
-0.003647231
0.00262346
5.994181e-06
-0.004325764
0.002454511
1.191358e-05
-0.00495833
0.002226596
1.216464e-05
-0.005519153
0.001910126
1.121553e-05
0.001498098
8.376487e-06
-0.005976639
-0.001571641
0.003732148
-7.60631e-05
1.113364e-05
0.000387081
0.0001232208
0.0003310384
-0.002291745
0.003620364
-5.177018e-05
-0.003047946
0.003510023
-7.601012e-06
-0.003796623
0.003373058
-9.202073e-07
-0.004538307
0.003189702
6.494574e-06
-0.005252855
0.002933383
7.761533e-06
-0.005911077
0.002560712
7.636142e-06
0.002052018
5.390867e-06
-0.006470387
-0.001620612
0.004556092
-8.059394e-05
-2.828162e-05
0.0004370254
0.0001062213
0.0003622985
-0.002370381
0.004429826
-5.96913e-05
-0.003167868
0.004322151
-1.464055e-05
-0.003974727
0.004188194
-8.275168e-06
-0.004798683
0.004013921
-2.622343e-07
-0.005626716
0.003759719
1.698798e-06
-0.006432126
0.003364469
1.653332e-06
0.002763732
9.773166e-08
-0.007143937
-0.001669041
0.005403614
-8.449512e-05
-6.819448e-05
0.0004885912
9.051138e-05
0.0003951085
-0.002448046
0.005271526
-6.269295e-05
-0.003285972
0.005177108
-1.702989e-05
-0.004155818
0.005068359
-1.031711e-05
-0.005076778
0.004937249
-2.365872e-06
-0.006051124
0.00473205
2.015239e-06
-0.007084618
0.004397633
3.299247e-07
0.003729166
-4.886223e-06
-0.008045167
-0.001704317
0.006269162
-8.889201e-05
-0.0001103403
0.0005400993
7.17844e-05
0.0004261199
-0.002506016
0.006137959
-6.473266e-05
-0.003376218
0.006066488
-1.917516e-05
-0.004302167
0.006006099
-1.178836e-05
-0.005321121
0.005961307
-5.102675e-06
-0.006454916
0.005862969
2.87651e-06
-0.007822287
0.005765337
-3.327525e-07
0.005105019
-2.10755e-05
-0.009177064
-0.001719844
0.007142192
-9.065249e-05
-0.0001553551
0.0005909031
4.775999e-05
0.0004541603
-0.002527829
0.007011313
-6.536685e-05
-0.003406389
0.006965264
-2.02142e-05
-0.004356631
0.006967607
-1.126396e-05
-0.005458217
0.007067735
-4.839703e-06
-0.006823004
0.007209541
1.821736e-05
-0.008660474
0.00756747
3.533748e-05
0.002267882
-0.0001315546
0.001039484
0.0022847
0.001704101
-0.01072007
-0.001720134
0.008015013
-8.955249e-05
-0.0002023178
0.0006398696
1.983207e-05
0.0004794824
-0.00251933
0.007875773
-6.526097e-05
-0.003376612
0.007842984
-2.043526e-05
-0.00428685
0.007887881
-1.003256e-05
-0.005337725
0.008118177
4.349399e-07
-0.006724742
0.008531228
6.533232e-05
-0.002580255
0.009567017
0.0002651928
-0.001547732
-0.002685519
-0.002175973
-0.00291613
0.00258978
1.397748e-05
-0.001697775
0.008874169
-8.603263e-05
-0.0002512517
0.0006855191
-1.073815e-05
0.0005011253
-0.002459064
0.008701873
-6.481048e-05
-0.003225511
0.008630065
-2.06301e-05
-0.003957159
0.008628721
-9.188952e-06
-0.004630339
0.008794863
-3.501683e-06
-0.00535525
0.00914571
0.0001104295
-0.002252965
0.01019205
0.0003397944
-0.0006284674
-0.002237999
-0.00120064
0.003336566
0.0001454781
-0.003482517
-0.0004541451
-0.0007844341
-0.0007675119
-0.0002464004
0.0005893875
-0.0001699753
-0.0003527229
-6.668969e-05
-0.001703518
0.009733927
-8.513989e-05
-0.000296856
0.0007338115
-3.471444e-05
0.0005266599
-0.002446801
0.009509784
-6.462674e-05
-0.003156451
0.00935842
-1.870255e-05
-0.00375824
0.00923755
-7.036278e-06
-0.004138647
0.009163929
1.134505e-05
-0.00423979
0.009137608
0.000109248
-0.001467396
0.009297859
0.0003350988
-0.0002920402
-0.001221589
-0.0006996751
-0.003413753
0.002683926
6.56167e-05
-0.0001575507
-0.0003605944
-0.0002517892
-3.325096e-05
-0.001754623
0.01061907
-8.738725e-05
-0.0003374134
0.0007883215
-5.301873e-05
0.0005589831
-0.002514838
0.01033634
-6.634224e-05
-0.00323516
0.01009774
-1.89977e-05
-0.003831444
0.009839654
-5.81647e-06
-0.004206788
0.009531709
7.56608e-06
-0.004263257
0.009078357
0.0001157242
-0.001322376
0.008476788
0.0002804174
-0.0004558911
-0.001180977
-0.0007633557
-0.002697898
0.002046644
0.0001063546
-0.0001727597
-0.0003260849
-0.0002164793
-6.215205e-05
-0.001861149
0.01155941
-9.24427e-05
-0.0003734104
0.000851418
-6.4678e-05
0.0005999242
-0.002680569
0.01122591
-7.014382e-05
-0.0034853
0.01092206
-1.958246e-05
-0.004211518
0.01057126
-5.381968e-06
-0.004831385
0.01013362
1.796109e-05
-0.005423981
0.009516242
0.0001547136
-0.001685515
0.008564387
0.0004942628
-0.001184513
-0.001658132
-0.001477683
-0.002033054
0.0015888
0.0001154098
-0.0003860194
-0.0003702192
-0.0003210254
-0.000279406
-0.002004117
0.01257399
-9.941561e-05
-0.0004080673
0.0009221752
-7.268421e-05
0.0006475236
-0.00290463
0.01220195
-7.552886e-05
-0.003816641
0.0118575
-2.34241e-05
-0.004716467
0.01147425
-3.160017e-06
-0.005556039
0.01098142
-8.228344e-06
-0.006737444
0.01046082
0.0002368319
-0.002121283
0.009627963
0.0004101713
-0.001689105
-0.00226317
-0.002137632
-0.001829803
-0.00207714
0.001613963
0.0001716955
-0.002165094
0.01367169
-0.0001071495
-0.000444279
0.0009991211
-7.983789e-05
0.0006995496
-0.003147716
0.01326674
-8.215713e-05
-0.004163208
0.01289793
-2.493142e-05
-0.005169867
0.01249462
-1.371514e-05
-0.006200688
0.01201096
1.286404e-06
-0.007346908
0.01149553
0.0001115088
-0.008904096
0.01078447
0.0004006789
0.01048562
0.0005009818
-0.001880874
-0.002398473
-0.002380492
-0.002555168
-0.01067569
-0.002337235
0.01485757
-0.0001149592
-0.0004832952
0.001081583
-8.728506e-05
0.0007553078
-0.00340414
0.01442164
-8.799859e-05
-0.004517038
0.01403539
-2.45584e-05
-0.005634821
0.01362441
-1.199565e-05
-0.006805528
0.013174
7.671678e-06
-0.008100178
0.01271192
7.826011e-05
-0.009630427
0.01217094
0.0001437856
0.01170728
0.0003581264
-0.01121021
-0.002514269
0.01613345
-0.000123192
-0.0005259114
0.00116922
-9.575235e-05
0.0008140286
-0.003659873
0.01566191
-9.465709e-05
-0.00484911
0.01525142
-2.679811e-05
-0.006032429
0.01482437
-1.664149e-05
-0.007238827
0.01438306
-2.654039e-06
-0.008488298
0.01394765
1.374727e-05
-0.00984382
0.01350618
2.028621e-05
0.01316586
2.908606e-05
-0.01133149
-0.002701637
0.01750403
-0.0001318172
-0.0005716177
0.001262633
-0.0001045736
0.0008764375
-0.003926349
0.01698794
-0.0001013141
-0.005186895
0.01654024
-2.826405e-05
-0.006424216
0.01607977
-1.806945e-05
-0.007658441
0.01562002
-2.733584e-06
-0.00890079
0.01518265
7.355032e-06
-0.01018606
0.01477953
1.192215e-05
0.01446488
2.877595e-05
-0.01151385
-0.002906998
0.01897813
-0.0001411941
-0.0006198906
0.001363189
-0.0001128642
0.0009436552
-0.004214778
0.01840455
-0.0001088316
-0.005543934
0.01789996
-3.056594e-05
-0.006822968
0.01737933
-2.052225e-05
-0.008062667
0.01686492
-5.191748e-06
-0.00926676
0.01638623
5.196974e-07
-0.01046263
0.01597245
2.946445e-06
0.01566751
3.753418e-06
-0.011669
-0.00314278
0.02057166
-0.000151941
-0.0006697157
0.001472906
-0.00011938
0.001017392
-0.004545074
0.01992444
-0.0001175915
-0.005949931
0.01933821
-3.338461e-05
-0.007270081
0.01872242
-2.294363e-05
-0.008506249
0.01810757
-6.486938e-06
-0.009658102
0.01753944
-1.36185e-06
-0.01075666
0.01706872
2.295718e-06
0.01674164
3.106255e-06
-0.0118339
-0.003425084
0.02230936
-0.0001649113
-0.0007201498
0.00159471
-0.0001224632
0.001100198
-0.004942293
0.02156988
-0.0001282246
-0.006439591
0.02087256
-3.70414e-05
-0.007806874
0.02011546
-2.575147e-05
-0.009029279
0.01933826
-8.273592e-06
-0.01010267
0.0186165
-3.651308e-06
-0.01107339
0.01803949
-5.01744e-08
0.01766872
-6.538454e-07
-0.01199981
-0.003771301
0.02422599
-0.0001817484
-0.0007703352
0.001731863
-0.0001202553
0.001195162
-0.005434636
0.02337585
-0.0001426259
-0.007055404
0.0225373
-4.397334e-05
-0.008490297
0.02158298
-3.262304e-05
-0.009693197
0.02055435
-1.319653e-05
-0.01065235
0.01958474
-9.092883e-06
-0.01144043
0.0188312
-3.62003e-06
0.01839581
-4.907584e-06
-0.01216261
-0.004207156
-0.000203061
-0.0008194458
0.001888733
-0.0001094212
0.001307217
0.02636912
-0.006067197
-0.0001577514
0.02539364
-0.00786951
-4.80394e-05
0.02438766
-0.009404249
-2.927741e-05
0.023147
-0.0105764
-1.200914e-05
0.02173852
-0.01135742
-8.637435e-06
0.0203744
-0.01187949
-4.449643e-06
0.01935772
-8.449e-06
0.01884099
-0.01231623
5.342692e-06
3.642278e-05
-0.0002539168
7.642888e-05
1.478927e-06
-9.778074e-06
6.659751e-06
6.057404e-07
4.9333e-05
3.823424e-05
4.918901e-05
2.366067e-05
0.0003488695
-0.0004260296
6.528081e-05
-2.004731e-05
-1.204648e-05
1.569239e-05
4.620311e-06
3.524366e-05
0.0005463355
-0.0006154902
5.48718e-05
-2.79392e-05
-1.849416e-05
2.132402e-05
4.148818e-06
4.669409e-05
0.0007326219
-0.0007868103
4.292645e-05
-4.511715e-05
-2.414687e-05
2.7771e-05
6.061283e-06
5.705827e-05
0.0009058663
-0.0009462048
2.463669e-05
-5.346802e-05
-2.971948e-05
3.316436e-05
8.667316e-06
6.757864e-05
0.001065822
-0.001089866
7.218054e-06
-6.669403e-05
-3.391621e-05
3.915603e-05
1.070251e-05
7.652868e-05
0.001206148
-0.001214597
-5.932344e-06
-8.070637e-05
-3.681179e-05
4.381783e-05
1.15538e-05
8.399569e-05
0.001325564
-0.001313964
-2.725499e-05
-8.944492e-05
-3.926868e-05
4.777545e-05
1.259821e-05
-5.512008e-06
-3.636417e-05
-7.75609e-05
0.0002545055
-4.433329e-07
-6.902304e-06
9.706108e-06
-8.522276e-07
-4.92883e-05
-3.813288e-05
-4.915524e-05
-0.001635417
0.001625267
1.611738e-06
-0.0001791803
-0.000226191
-0.0001824524
-0.0002276898
0.0001814522
0.0002284397
0.0001847781
0.00023072
-0.002439225
0.001619364
3.766524e-05
-0.0001670366
-0.0002350722
-0.000170591
-0.0002302243
-0.003216667
0.001549301
4.776004e-05
-0.0001465011
-0.0002367756
-0.0001436631
-0.000226492
-0.003955359
0.00147725
5.139148e-05
-0.0001277045
-0.000242178
-0.0001286544
-0.0002272147
-0.004644001
0.001365916
5.206119e-05
-9.878074e-05
-0.0002407028
-0.000106623
-0.0002201214
-0.005261811
0.001219692
4.799267e-05
-6.682171e-05
-0.0002351168
-8.180738e-05
-0.0002091867
-0.005780568
0.001026303
4.258601e-05
-3.873612e-05
-0.0002223758
-5.109156e-05
-0.0001910185
0.000782916
3.260652e-05
3.319163e-06
-0.0002008055
-1.65807e-05
-0.00016653
-0.006179199
-2.387004e-05
-0.0003501846
-6.83091e-05
0.0004299725
2.192638e-05
-1.602398e-05
1.170097e-05
-5.211723e-06
-0.00169459
0.002461454
-3.695379e-05
0.0001746347
0.0002470591
0.0001790426
0.0002420306
-0.002527022
0.002451566
-7.072313e-07
-0.003334603
0.002355964
3.847727e-05
-0.004111155
0.002244098
5.28279e-05
-0.004845521
0.002085134
6.008884e-05
-0.005515046
0.001872881
5.769807e-05
-0.00609095
0.00158675
5.129577e-05
0.001222977
3.94704e-05
-0.006543067
-3.605299e-05
-0.0005559156
-6.32614e-05
0.0006324353
3.108085e-05
-2.171176e-05
1.853116e-05
-5.105296e-06
-0.001726839
0.003323864
-5.011079e-05
0.0001661663
0.0002619697
0.0001626433
0.0002512861
-0.002585137
0.003311985
-4.366939e-05
-0.003427158
0.003198987
-1.348135e-06
-0.004246034
0.003054725
1.424448e-05
-0.005033796
0.002857045
2.776577e-05
-0.00577009
0.002591217
3.012442e-05
-0.006423336
0.002222755
2.845718e-05
0.001743174
2.155269e-05
-0.006956708
-4.875937e-05
-0.0007620717
-5.673277e-05
0.0008295753
4.899676e-05
-2.893616e-05
2.427996e-05
-6.351757e-06
-0.00178811
0.004218
-5.852384e-05
0.0001610692
0.0002844218
0.0001603828
0.0002705616
-0.002672563
0.004208805
-6.413579e-05
-0.003549488
0.004087227
-1.891475e-05
-0.004419468
0.003926015
-2.228101e-06
-0.005280777
0.003710154
1.46965e-05
-0.006113191
0.003411611
1.978325e-05
-0.006880564
0.002976979
2.078632e-05
0.002386848
1.531093e-05
-0.007534157
-6.107171e-05
-0.0009678286
-4.941975e-05
0.00103121
6.087808e-05
-3.55624e-05
3.075051e-05
-8.955383e-06
-0.001845129
0.005142687
-6.583728e-05
0.000153951
0.0003072701
0.000155255
0.0002892116
-0.002764923
0.00514809
-7.918065e-05
-0.00368764
0.005030081
-3.477625e-05
-0.004624183
0.004872609
-1.832348e-05
-0.005580501
0.004665513
6.989539e-07
-0.006544912
0.004369751
7.970356e-06
-0.007482926
0.003905697
1.095088e-05
0.003215301
6.343616e-06
-0.008317626
-7.35309e-05
-0.001181436
-3.981995e-05
0.001239041
7.201218e-05
-4.185774e-05
3.76236e-05
-1.203216e-05
-0.001900123
0.006095329
-6.997983e-05
0.0001451234
0.0003303974
0.0001503784
0.000307068
-0.002855122
0.006125879
-8.548011e-05
-0.003823918
0.006023865
-4.201523e-05
-0.004832716
0.005896127
-2.503475e-05
-0.00590228
0.005737764
-5.050135e-06
-0.007040232
0.005505621
4.099059e-06
-0.008236186
0.005095498
6.482973e-06
0.004344709
-4.74088e-06
-0.009365739
-8.697856e-05
-0.001401722
-2.594978e-05
0.001452199
8.254799e-05
-4.895117e-05
4.427672e-05
-1.542132e-05
-0.001940705
0.00707173
-7.25196e-05
0.0001279468
0.0003521681
0.000144141
0.0003236779
-0.002922715
0.007132889
-8.973067e-05
-0.003929615
0.007058411
-4.68198e-05
-0.005003586
0.006987163
-2.885047e-05
-0.006191643
0.006928553
-7.832947e-06
-0.007548126
0.006860205
4.777644e-06
-0.009134061
0.006676607
4.493035e-06
0.005924568
-2.488006e-05
-0.01071012
-0.0001007627
-0.001626711
-1.411397e-05
0.001668541
9.662444e-05
-5.634865e-05
5.074861e-05
-1.797765e-05
-0.001960077
0.008058558
-7.407717e-05
0.0001119922
0.0003721519
0.0001346025
0.0003379273
-0.002949022
0.008148101
-9.1631e-05
-0.003966936
0.008104534
-4.842029e-05
-0.005067996
0.008105569
-2.86058e-05
-0.006347485
0.008206835
-3.631028e-06
-0.007918309
0.008427564
2.168457e-05
-0.01000587
0.008773873
2.563607e-05
0.002370728
-0.0001260845
0.001813087
0.002269878
0.001790613
-0.01233108
-0.0001146526
-0.0018539
-5.378957e-06
0.001886387
0.00011503
-6.381278e-05
5.673368e-05
-2.040597e-05
-0.001962419
0.009044173
-7.548034e-05
9.906534e-05
0.0003916934
0.0001224056
0.0003495702
-0.00294101
0.009153322
-9.188842e-05
-0.003937894
0.009128256
-4.727098e-05
-0.004998829
0.009180409
-2.393445e-05
-0.006237565
0.009432946
1.306296e-05
-0.007743321
0.009925982
7.267246e-05
-0.002753369
0.01087392
0.0001989247
-0.00221395
-0.002645417
-0.002164366
-7.835366e-06
-0.003268807
0.002888558
5.445252e-06
-0.0001281727
-0.002081409
3.141544e-06
0.002103377
0.0001345458
-7.073116e-05
6.234704e-05
-2.309759e-05
-0.001938088
0.01001371
-7.518872e-05
8.547016e-05
0.0004079992
0.000106796
0.0003574455
-0.002874171
0.01011499
-9.03925e-05
-0.003771187
0.01004935
-4.470904e-05
-0.004632433
0.0100508
-1.832582e-05
-0.005479548
0.01025186
2.469874e-05
-0.006238082
0.01068231
0.0001126348
-0.002285676
0.01180306
0.0001797052
-0.001230927
-0.002263654
-0.001226871
-2.716461e-05
0.00370768
4.295949e-05
-0.00336548
-0.0005003278
-0.0008237114
-0.0005013919
-0.00081824
-3.815458e-06
0.0007008579
-0.000258447
-0.000440768
2.174026e-06
-0.0001411241
-0.002306712
1.223214e-05
0.002319614
0.0001505816
-7.702898e-05
6.815004e-05
-2.571159e-05
-0.001944232
0.01098416
-7.556739e-05
7.329885e-05
0.0004261344
9.521392e-05
0.0003695585
-0.00285939
0.0110551
-8.957677e-05
-0.003686659
0.01089904
-4.111556e-05
-0.004395481
0.01076424
-1.165371e-05
-0.004861146
0.01068602
4.285694e-05
-0.004887043
0.0106998
0.0001176621
-0.001214206
0.0108033
0.0001931993
-0.0006755072
-0.001184596
-0.0006710655
6.005533e-06
-0.003458286
-0.0008526136
0.003065479
2.521054e-05
-0.0001541694
-0.002532631
2.142722e-05
0.002538938
0.0001639697
-8.344454e-05
7.416224e-05
-2.825234e-05
-0.002002539
0.01198424
-7.704861e-05
6.353346e-05
0.000450326
8.948202e-05
0.0003887822
-0.002938275
0.01201584
-9.134502e-05
-0.003776767
0.01175866
-4.011861e-05
-0.004474618
0.01146316
-6.877582e-06
-0.004925811
0.01109434
5.043958e-05
-0.004870603
0.01061887
0.0001414448
-0.001137354
0.009626381
0.0002059154
-0.0007150964
-0.001106901
-0.0006598312
-3.781548e-05
-0.0005842368
0.002201073
4.121613e-05
-0.002757587
-0.0001675563
-0.00276487
2.677618e-05
0.002768506
0.0001778528
-9.012253e-05
8.037139e-05
-3.095696e-05
-0.002123984
0.0130461
-8.111537e-05
6.161712e-05
0.0004828732
9.031938e-05
0.0004159849
-0.003131166
0.01304902
-9.61333e-05
-0.004066482
0.01271492
-4.052513e-05
-0.004914854
0.01230925
-3.100607e-06
-0.005640168
0.01176821
6.940583e-05
-0.006114918
0.01106046
0.0001878854
-0.001629959
0.009670248
0.0003681948
-0.00143583
-0.001552458
-0.001414465
-2.718905e-05
-0.001904396
0.001592513
4.107716e-05
-0.0003026177
-0.0003709612
-0.0003631611
-0.0002952226
-0.0001815232
-0.003011042
2.990088e-05
0.003014066
0.0001925126
-9.70992e-05
8.702967e-05
-3.384409e-05
-0.002287925
0.01419153
-8.708792e-05
6.478094e-05
0.0005213474
9.542556e-05
0.0004486208
-0.00339364
0.01418247
-0.0001032613
-0.004462523
0.01380459
-4.421055e-05
-0.005507196
0.01335179
-1.023058e-06
-0.006600955
0.01278945
6.429735e-05
-0.007608645
0.01207548
0.000229498
-0.008871316
0.0110005
0.000342598
0.009364637
0.000632425
-0.001773641
-0.001994464
-0.001750937
-0.002009521
-0.0001095738
-0.0004096979
0.0001274956
-0.0002244474
-0.002605589
-0.002808455
-0.00251297
-0.002796577
-0.0001963492
-0.003276118
3.265155e-05
0.003279029
0.0002081202
-0.0001044688
9.419664e-05
-3.706083e-05
-0.002471768
0.01543035
-9.397893e-05
6.937121e-05
0.0005634259
0.0001024523
0.000484535
-0.00367905
0.01541997
-0.0001123724
-0.004865947
0.01501605
-4.94899e-05
-0.006062294
0.01454527
-1.083785e-05
-0.00733176
0.01400441
5.579064e-05
-0.008680333
0.01338339
0.0001521819
-0.01021128
0.01264189
0.0002902274
0.01165518
0.0003183236
-0.01231916
-0.000212168
-0.003562321
3.573673e-05
0.003564789
0.0002248444
-0.000112204
0.0001018527
-4.052921e-05
-0.00266643
0.01676803
-0.0001011702
7.411145e-05
0.0006080018
0.0001101376
0.0005227075
-0.003973236
0.01676092
-0.0001221358
-0.005261951
0.01633616
-5.594343e-05
-0.006563811
0.01585535
-2.021761e-05
-0.007926213
0.01533762
3.687356e-05
-0.009370319
0.01479708
0.0001086768
-0.01103094
0.01424956
0.0001967377
0.01368231
0.0003092244
-0.01300916
-0.0002289853
-0.003870416
3.92209e-05
0.003872272
0.0002424848
-0.0001202949
0.0001099736
-4.425498e-05
-0.002868046
0.01820732
-0.0001088224
7.867144e-05
0.0006549757
0.0001178227
0.0005629218
-0.004270287
0.01820133
-0.0001328232
-0.005645458
0.0177487
-6.417203e-05
-0.007020451
0.01724674
-3.303784e-05
-0.00842703
0.01672958
1.196816e-05
-0.009887815
0.01621917
5.244301e-05
-0.01145262
0.01573875
9.590512e-05
0.01530428
0.0001148122
-0.01316031
-0.0002468728
-0.004201704
4.330877e-05
0.004202591
0.0002612115
-0.0001287304
0.000118562
-4.836546e-05
-0.003081446
0.01975415
-0.0001165519
8.294157e-05
0.0007046485
0.0001259882
0.0006057703
-0.004579466
0.01974175
-0.0001437127
-0.006033994
0.01924664
-7.167119e-05
-0.007466253
0.01870356
-4.262599e-05
-0.008896212
0.01815891
-2.095441e-06
-0.01033867
0.01764317
2.581971e-05
-0.01182616
0.01718668
5.149421e-05
0.01681737
6.648986e-05
-0.01337697
-0.0002657854
-0.004557074
4.695481e-05
0.004557706
0.0002808416
-0.0001374646
0.0001276761
-5.285462e-05
-0.003315886
0.0214185
-0.0001252376
8.882102e-05
0.0007586829
0.0001354724
0.0006526073
-0.004915533
0.02138827
-0.0001557024
-0.006448324
0.02082873
-7.985302e-05
-0.007927983
0.02021433
-5.162166e-05
-0.009363211
0.01960253
-1.358185e-05
-0.01076288
0.0190366
6.76781e-06
-0.01215224
0.0185571
2.18957e-05
0.01819782
2.441796e-05
-0.01355335
-0.0002858577
-0.004939492
4.979324e-05
0.004940406
0.0003020749
-0.0001465344
0.0001373226
-5.771258e-05
-0.0035853
0.02321873
-0.0001353758
9.743686e-05
0.0008182672
0.0001478647
0.0007049352
-0.005300971
0.02315614
-0.0001697858
-0.006920283
0.02250414
-8.947742e-05
-0.008446613
0.02177872
-6.100367e-05
-0.009876358
0.0210483
-2.250303e-05
-0.01121358
0.02037696
-4.495308e-06
-0.01249042
0.01982845
7.782397e-06
0.01944513
8.22001e-06
-0.01374284
-0.0003071984
-0.00535169
5.089127e-05
0.005354672
0.0003246211
-0.0001559277
0.0001475978
-6.296422e-05
-0.003907734
0.0251829
-0.0001480507
0.0001109356
0.0008857683
0.0001648353
0.000765176
-0.005764745
0.02507247
-0.0001875409
-0.007490355
0.02429525
-0.0001025362
-0.00907166
0.02340753
-7.324514e-05
-0.01048575
0.02248766
-3.354282e-05
-0.01173238
0.02163621
-1.627531e-05
-0.0128615
0.02096271
-5.179835e-06
0.02052668
-6.150717e-06
-0.01393755
-0.0003299908
-0.005798866
4.944428e-05
0.005806529
0.0003486497
-0.0001656262
0.0001585744
-6.871038e-05
-0.004303515
0.02735032
-0.0001649142
0.0001313045
0.0009639894
0.0001883648
0.0008355992
-0.00634092
0.02717881
-0.0002115508
-0.008209079
0.02624179
-0.0001223513
-0.009868839
0.02512767
-9.299733e-05
-0.01126223
0.02391926
-5.139731e-05
-0.01237678
0.02277586
-3.419231e-05
-0.01329637
0.02190117
-2.247774e-05
0.02138412
-2.357713e-05
-0.01413514
0.0004062876
-0.0006235671
-0.006305026
-0.0004042279
0.0002162563
-0.0001721715
4.962352e-05
0.00683283
-0.004797482
-0.000186577
0.001056341
0.0001612473
0.0002205204
0.0009196084
0.02977361
-0.007074629
-0.0002415477
0.02953976
-0.009152481
-0.0001482988
0.02841991
-0.01093959
-0.0001172085
0.02700272
-0.01230329
-7.707499e-05
0.02534802
-0.0132162
-5.998693e-05
0.02374012
-0.01382858
-4.849786e-05
0.02255759
-4.944886e-05
0.02192527
-0.01432873
3.73796e-05
-7.898059e-06
-0.0002382098
6.894396e-05
5.740739e-06
4.821953e-05
3.772224e-05
4.810207e-05
-0.002092619
0.0006882921
1.083097e-05
3.356684e-05
-0.0001042347
3.964373e-05
-2.288975e-05
0.0003076085
0.0004129973
0.0003169008
0.0004099045
-0.002705815
0.0006507652
3.317574e-05
8.068348e-05
-0.0001390615
3.526511e-05
-4.763211e-05
-0.003328682
0.0006505471
1.814434e-05
0.00012534
-0.0001655617
4.963378e-05
-5.523505e-05
-0.003895222
0.0005993864
2.063837e-05
0.0001545232
-0.0001968351
5.572855e-05
-6.690025e-05
-0.004404889
0.0005352835
1.829569e-05
0.0001855001
-0.0002202003
6.480133e-05
-7.401262e-05
-0.004830351
0.0004473056
1.562834e-05
0.0002142183
-0.0002431192
7.361892e-05
-8.218872e-05
0.0003380995
1.236476e-05
0.0002381569
-0.0002594523
7.99985e-05
-8.771552e-05
-0.005151801
-3.748729e-05
6.677202e-06
-7.055016e-05
0.0002399764
-4.471279e-06
-4.826508e-05
-3.776813e-05
-4.811118e-05
-0.001570469
0.001557195
1.839715e-06
-0.0001729492
-0.0002158722
-0.00017222
-0.0002200036
0.0001761605
0.000219259
0.0001752718
0.0002234012
-0.002403552
0.001533053
2.598849e-05
-0.003199017
0.001468267
2.572432e-05
-0.003937202
0.001410954
2.917009e-05
-0.004624246
0.001307987
3.050625e-05
-0.005239254
0.001170086
2.819886e-05
-0.005758104
0.0009841911
2.455117e-05
0.0007496114
1.848364e-05
-0.006155492
-0.0007300531
0.00214773
-6.63186e-06
-3.477127e-05
-4.15896e-05
0.0001059486
2.12079e-05
-0.0003109194
-0.0004169606
-0.0003202645
-0.0004136957
-0.001609535
0.002422628
-2.290456e-05
-0.002468226
0.002390501
5.375358e-07
-0.003307544
0.002324293
2.176971e-05
-0.004097715
0.002217992
3.596202e-05
-0.004837148
0.00206473
4.278067e-05
-0.005508396
0.001856326
4.270719e-05
-0.006085068
0.001573729
3.843195e-05
0.001213016
2.943114e-05
-0.006538431
-0.0007355789
0.002843371
-2.943922e-05
-8.355557e-05
-3.888164e-05
0.0001444553
4.736013e-05
-0.001641309
0.003302333
-2.408353e-05
-0.002551904
0.003280871
-2.344404e-05
-0.00342222
0.00319401
-7.462984e-07
-0.004262595
0.003054089
1.852436e-05
-0.005062286
0.002860819
3.13697e-05
-0.005806485
0.002595873
3.477899e-05
-0.006464836
0.002227915
3.262305e-05
0.001747294
2.469975e-05
-0.007002259
-0.0007945807
0.003608415
-1.508031e-05
-0.0001304855
-5.577728e-05
0.000175308
5.557157e-05
-0.001712406
0.004191303
-2.96684e-05
-0.002644352
0.004190818
-4.21328e-05
-0.003550097
0.004103094
-2.22527e-05
-0.004445493
0.003948773
-1.513473e-06
-0.005321175
0.003735233
1.596643e-05
-0.006164228
0.003435469
2.324317e-05
-0.006939716
0.002999783
2.440866e-05
0.002405669
1.813094e-05
-0.00760091
-0.0008179144
0.004391721
-2.124156e-05
-0.0001655207
-6.54718e-05
0.000214517
7.232592e-05
-0.001770877
0.005113421
-3.499151e-05
-0.002740019
0.005135979
-5.519832e-05
-0.003691877
0.005058606
-3.842664e-05
-0.004653803
0.004910932
-1.855326e-05
-0.00562458
0.004705451
1.262126e-06
-0.00659969
0.004407289
1.126307e-05
-0.007546525
0.003942869
1.470134e-05
0.003248809
9.252663e-06
-0.008392574
-0.0008465911
0.005199801
-2.068068e-05
-0.0002030493
-7.824684e-05
0.0002546443
8.584377e-05
-0.001827998
0.006063459
-3.860827e-05
-0.00283087
0.006115175
-6.180047e-05
-0.003829615
0.006062737
-4.739825e-05
-0.00486306
0.005947087
-2.774111e-05
-0.005945681
0.0057898
-6.775473e-06
-0.007091625
0.005552497
4.838641e-06
-0.008294216
0.005144425
7.518759e-06
0.00439308
-3.413125e-06
-0.009439815
-0.0008656565
0.006022412
-2.305598e-05
-0.0002397827
-9.001647e-05
0.0002963338
9.956848e-05
-0.001869054
0.007035398
-4.105929e-05
-0.002898657
0.007121114
-6.606425e-05
-0.003935572
0.007105823
-5.298716e-05
-0.005032055
0.007047504
-3.278044e-05
-0.006228303
0.006988336
-1.011605e-05
-0.007582029
0.006906276
4.726003e-06
-0.009153676
0.006718283
2.284217e-06
0.005965158
-2.687025e-05
-0.01072376
-0.0008745286
0.006853838
-2.376227e-05
-0.0002793537
-0.0001030853
0.0003367678
0.0001125361
-0.001887655
0.00801651
-4.20597e-05
-0.00292512
0.008135014
-6.806337e-05
-0.003972672
0.008159869
-5.490968e-05
-0.005094968
0.008174106
-3.290891e-05
-0.006375312
0.008269704
-4.650751e-06
-0.007921557
0.008452119
2.208879e-05
-0.009915118
0.00871581
2.167206e-05
0.0023108
-5.762358e-05
0.001817063
0.002254348
0.001800327
-0.01220096
-0.0008750338
0.007690156
-2.284663e-05
-0.0003227468
-0.0001175095
0.0003764135
0.000125407
-0.001889059
0.00899736
-4.230501e-05
-0.002917003
0.009139401
-6.83294e-05
-0.003942402
0.009191478
-5.347684e-05
-0.005023004
0.009257772
-2.699369e-05
-0.006253624
0.009498854
1.453628e-05
-0.007707519
0.009913507
6.518089e-05
-0.002690189
0.01076111
0.0001110406
-0.002185156
-0.002627977
-0.002161616
-8.326894e-06
-0.003200533
0.002824715
4.7562e-06
-0.0008675183
0.008524501
-1.91364e-05
-0.0003663418
-0.0001331107
0.0004147661
0.0001369956
-0.001866518
0.009962761
-4.15881e-05
-0.00285029
0.01009995
-6.716846e-05
-0.003774086
0.01012067
-5.009606e-05
-0.004654964
0.01013968
-1.935525e-05
-0.005493766
0.01033103
3.132609e-05
-0.006242806
0.01068634
8.884057e-05
-0.002295496
0.01167351
0.0001142645
-0.001260524
-0.002282436
-0.001251302
-2.138667e-05
0.003646393
1.666246e-05
-0.003298551
-0.0004987228
-0.0008216382
-0.0005000899
-0.0008181633
-4.746936e-07
0.0007003621
-0.0002596442
-0.000440589
3.467628e-07
-0.0008737477
0.0093656
-1.666644e-05
-0.0004078451
-0.0001471849
0.00045475
0.0001495968
-0.001873043
0.01092805
-4.155819e-05
-0.002834295
0.01103814
-6.650459e-05
-0.003685562
0.01097738
-4.655476e-05
-0.004408598
0.01086305
-1.197929e-05
-0.004855891
0.01077554
4.56421e-05
-0.004860793
0.01071461
9.430214e-05
-0.001210227
0.01068043
0.0001151786
-0.0006924846
-0.001197969
-0.0006890086
-0.003368494
-5.664491e-06
-0.0008486592
0.003003662
8.931774e-06
-0.0009009636
0.01023241
-1.624852e-05
-0.0004474875
-0.0001604033
0.0004955272
0.0001627698
-0.001928863
0.01192119
-4.228428e-05
-0.002910626
0.01199628
-6.771634e-05
-0.003771424
0.01184353
-4.546924e-05
-0.004477629
0.01156937
-6.986367e-06
-0.004899399
0.01119141
5.635126e-05
-0.00480082
0.01064333
0.0001141443
-0.001120016
0.009543924
0.0001377641
-0.0006905398
-0.001110837
-0.0006747633
-1.673924e-05
-0.0005610648
0.0021333
9.966867e-06
-0.002685476
-0.000953209
0.01114869
-1.750363e-05
-0.0004871181
-0.0001738524
0.0005385257
0.000176874
-0.002044783
0.01297595
-4.429751e-05
-0.0031001
0.01302658
-7.112061e-05
-0.004056707
0.0128059
-4.628378e-05
-0.004910806
0.01242328
-2.913784e-06
-0.005599975
0.01187494
7.505086e-05
-0.006048605
0.01112742
0.0001524376
-0.001598736
0.009689984
0.0002407905
-0.001458789
-0.00157853
-0.001431199
-3.800984e-05
-0.001845629
0.001566977
1.25815e-05
-0.0003528867
-0.000290174
-0.0003643089
-0.0002872821
-0.001023462
0.01213178
-1.926794e-05
-0.0005290738
-0.0001880946
0.0005849421
0.0001918724
-0.002201728
0.01411444
-4.730743e-05
-0.003359047
0.01415688
-7.623501e-05
-0.004449828
0.0139019
-4.94271e-05
-0.005498748
0.01347236
-1.173106e-06
-0.006546175
0.01289977
8.689076e-05
-0.007556005
0.01216938
0.0001973752
-0.00891559
0.01101385
0.0003783182
0.009337044
5.37253e-05
-0.001778036
-0.001922623
-0.00173863
-0.001916243
-0.002395269
-0.002760453
-0.002420681
-0.002741991
-0.001103751
0.01319174
-2.118114e-05
-0.0005742907
-0.0002031703
0.0006347694
0.0002076613
-0.002378734
0.01534658
-5.113721e-05
-0.003642619
0.01539168
-8.328131e-05
-0.004853792
0.01512026
-5.667532e-05
-0.006053381
0.01467298
-1.187375e-05
-0.007275302
0.01411524
6.225026e-05
-0.008576343
0.01345501
0.0001675961
-0.01013358
0.01257258
0.0002887428
0.01156893
0.0002562447
-0.01230339
-0.001190411
0.01433488
-2.25347e-05
-0.0006232271
-0.0002193519
0.00068816