/*--------------------------------*- C++ -*----------------------------------*\
  =========                 |
  \\      /  F ield         | OpenFOAM: The Open Source CFD Toolbox
   \\    /   O peration     | Website:  https://openfoam.org
    \\  /    A nd           | Version:  7
     \\/     M anipulation  |
\*---------------------------------------------------------------------------*/
FoamFile
{
    version     2.0;
    format      ascii;
    class       volVectorField;
    location    "0.01";
    object      U;
}
// * * * * * * * * * * * * * * * * * * * * * * * * * * * * * * * * * * * * * //

dimensions      [0 1 -1 0 0 0 0];

internalField   nonuniform List<vector> 
109929
(
(-1.189564 0.1989122 -0.01585509)
(-1.062504 0.2909173 0.01519437)
(-0.9629186 0.3227758 0.01656454)
(-0.8863175 0.3490166 0.01565398)
(-0.8228425 0.3660738 0.01494521)
(-0.7693233 0.3786952 0.01446107)
(-1.078062 0.172478 -0.03184211)
(-0.9975127 0.2660842 0.01696122)
(-0.9287666 0.3194365 0.01160606)
(-0.8666841 0.3559113 0.009196473)
(-0.8114993 0.3812755 0.007321089)
(-0.7627691 0.399883 0.005667455)
(-0.9876088 0.1218803 -0.02399079)
(-0.9339841 0.1993993 0.01955119)
(-0.882971 0.2535547 0.01497117)
(-0.8329722 0.2933088 0.01232889)
(-0.7867539 0.3230064 0.01043113)
(-0.7441786 0.3456912 0.00889463)
(-0.9111603 0.09641277 -0.02123372)
(-0.8733245 0.1634561 0.01971518)
(-0.8357968 0.2153614 0.01576212)
(-0.79595 0.2555178 0.01372452)
(-0.758012 0.2877278 0.01194526)
(-0.7215952 0.3131716 0.01040367)
(-0.8479568 0.07758969 -0.02009786)
(-0.8192711 0.1344908 0.01861096)
(-0.790903 0.1812379 0.01512037)
(-0.7597026 0.2199605 0.01373008)
(-0.7284548 0.2522345 0.01205461)
(-0.6973738 0.2783607 0.01064069)
(-0.7949124 0.06484282 -0.01914821)
(-0.7716957 0.1138619 0.01773437)
(-0.749536 0.155859 0.01461903)
(-0.7250942 0.1926981 0.01360143)
(-0.698851 0.2232852 0.01218951)
(-0.6725161 0.2498168 0.01084869)
(-0.7492949 0.0555061 -0.01828257)
(-0.7297828 0.09829607 0.01689691)
(-0.7118855 0.135939 0.01407752)
(-0.6918864 0.1699199 0.01319343)
(-0.6702794 0.1991359 0.01222511)
(-0.6479345 0.2252718 0.01089342)
(-0.7094557 0.04836503 -0.01748932)
(-0.6924979 0.08614214 0.01611988)
(-0.6777293 0.1200487 0.01355189)
(-0.6611133 0.1512693 0.01278004)
(-0.6435464 0.1793611 0.01216205)
(-0.6240239 0.2037913 0.01087806)
(-0.6741883 0.04273688 -0.01676042)
(-0.6591096 0.07645485 0.01540883)
(-0.6466445 0.1071588 0.01305506)
(-0.632641 0.1358413 0.01240171)
(-0.6176351 0.162165 0.01182556)
(-0.6008865 0.1853467 0.0108763)
(-0.6426463 0.03817885 -0.01608776)
(-0.6289623 0.06849348 0.0147585)
(-0.6183075 0.09653298 0.0125833)
(-0.6061784 0.1228405 0.01202312)
(-0.5933175 0.1473651 0.01148332)
(-0.5789502 0.1695019 0.01083744)
(-0.614191 0.03441281 -0.01547859)
(-0.6018729 0.06195181 0.01429494)
(-0.5923735 0.08752274 0.01212637)
(-0.5817163 0.1117749 0.01164828)
(-0.5705672 0.1346293 0.01116552)
(-0.5582583 0.1558653 0.01069582)
(-0.5883412 0.03124898 -0.01490684)
(-0.5771086 0.05641366 0.01385256)
(-0.568533 0.07982124 0.01170442)
(-0.5591379 0.102279 0.01128288)
(-0.5493081 0.1235577 0.01086886)
(-0.5383904 0.143528 0.01041003)
(-0.5647093 0.02854644 -0.01437874)
(-0.5543668 0.05165485 0.01342915)
(-0.5465536 0.07314588 0.01132617)
(-0.5381977 0.09404779 0.01093323)
(-0.5294554 0.1138414 0.01057554)
(-0.5196907 0.1325949 0.01013119)
(-0.542997 0.02622416 -0.01388668)
(-0.5333501 0.04749575 0.01302345)
(-0.5263645 0.06737324 0.01104993)
(-0.5187343 0.08677552 0.01059417)
(-0.5108243 0.1052218 0.01029012)
(-0.5020534 0.1228307 0.009872879)
(-0.5229714 0.02417552 -0.01343493)
(-0.5139262 0.04384676 0.01263997)
(-0.5076094 0.06228994 0.01078288)
(-0.5005931 0.0803068 0.01026926)
(-0.49336 0.09754519 0.0100125)
(-0.4854436 0.1141069 0.009648288)
(-0.5044418 0.02236211 -0.01300762)
(-0.4959215 0.04060289 0.01228072)
(-0.4901707 0.05777012 0.01051969)
(-0.4836614 0.07452336 0.009963336)
(-0.4770226 0.09066655 0.009742674)
(-0.4698281 0.1062289 0.009422467)
(-0.4872452 0.02074263 -0.01261358)
(-0.4791846 0.03769863 0.01194189)
(-0.4739141 0.05371008 0.01026453)
(-0.4678232 0.06930001 0.009677593)
(-0.4617685 0.08448407 0.009481417)
(-0.4551656 0.09907881 0.009198917)
(-0.4712518 0.01928594 -0.01223838)
(-0.4636002 0.03508348 0.01162319)
(-0.45875 0.05003085 0.01001232)
(-0.4531271 0.06460288 0.009448929)
(-0.4474767 0.07885508 0.009225644)
(-0.4413425 0.09254683 0.008981338)
(-0.4563445 0.01796389 -0.01189184)
(-0.4490583 0.03271167 0.01131955)
(-0.4445816 0.04668036 0.009765445)
(-0.4394234 0.06034639 0.009252302)
(-0.4340598 0.07369512 0.008974143)
(-0.4282843 0.08653987 0.00876967)
(-0.4424352 0.01676099 -0.01156032)
(-0.4354764 0.03054677 0.01103285)
(-0.4313215 0.04360741 0.009531162)
(-0.4265683 0.05644273 0.009065832)
(-0.4214394 0.06893232 0.00873322)
(-0.4159791 0.08102901 0.008564435)
(-0.4294326 0.01565913 -0.01125171)
(-0.4227716 0.02855938 0.01075999)
(-0.4188718 0.04077239 0.009313521)
(-0.4145159 0.05283975 0.008886309)
(-0.409575 0.06451795 0.008508715)
(-0.4044623 0.07595402 0.008364294)
(-0.4172589 0.01464578 -0.01096198)
(-0.4108823 0.02671212 0.01050453)
(-0.407219 0.03816446 0.00910964)
(-0.4031629 0.04947568 0.008711816)
(-0.3985268 0.06044665 0.008333653)
(-0.3936541 0.07122435 0.008160348)
(-0.3740583 0.01258741 -0.02537861)
(-0.3997594 0.02499651 0.01026282)
(-0.3963045 0.03572576 0.008909296)
(-0.3925224 0.04634064 0.008533351)
(-0.3882195 0.05666497 0.008182801)
(-0.3834942 0.06677731 0.007953523)
(-1.267015 0.2597217 -0.09276046)
(-1.058776 0.3479895 -0.07799383)
(-0.9447701 0.360367 -0.07630992)
(-0.862375 0.3692918 -0.07412472)
(-0.7972053 0.3753712 -0.07202349)
(-0.7439754 0.3795687 -0.06993337)
(-1.284828 0.04884483 -0.005777016)
(-1.147299 0.2031384 -0.03024384)
(-1.029152 0.2800712 -0.02845942)
(-0.9418181 0.3208627 -0.025228)
(-0.8703487 0.3469832 -0.0281211)
(-0.8108842 0.3643448 -0.03028671)
(-1.099985 0.0433245 -0.008201577)
(-1.017569 0.1980586 0.0048351)
(-0.9574055 0.2765946 0.01418862)
(-0.8980396 0.3298074 0.01842912)
(-0.8411855 0.3649482 0.01947452)
(-0.7903075 0.3899984 0.02026683)
(-0.9860786 0.02565262 -0.008322598)
(-0.9477511 0.1257148 -0.009695945)
(-0.8993946 0.1922733 -0.004197052)
(-0.8563523 0.241475 -0.003757534)
(-0.8103599 0.2790936 -0.003741564)
(-0.7674971 0.307773 -0.003554025)
(-0.9010774 0.02027221 -0.008163433)
(-0.8749938 0.1069217 -0.005906884)
(-0.8419589 0.1660187 2.713494e-05)
(-0.8112285 0.2141958 0.0008245982)
(-0.7752074 0.2526548 0.001335756)
(-0.7398751 0.2834222 0.001941793)
(-0.8350002 0.01586103 -0.008118716)
(-0.8169848 0.08531826 -0.006048336)
(-0.7922241 0.1360429 -0.0008786055)
(-0.7697738 0.1796343 -0.000693485)
(-0.7412067 0.2162832 -0.0006164376)
(-0.712085 0.246729 -0.0002807726)
(-0.7808413 0.01313321 -0.008018433)
(-0.7669678 0.07207796 -0.005523993)
(-0.7477257 0.1165003 -0.0006091849)
(-0.7309668 0.1562112 -0.000524607)
(-0.7080788 0.1908153 -0.0005185987)
(-0.6840466 0.2205324 -0.0001905519)
(-0.7347988 0.01112443 -0.007848903)
(-0.7236615 0.06197248 -0.005109874)
(-0.7081809 0.1010888 -0.0004103461)
(-0.6954824 0.1369881 -0.0004254034)
(-0.6769022 0.169085 -0.0005632129)
(-0.6569396 0.19739 -0.0003626368)
(-0.6949134 0.009611275 -0.007662615)
(-0.6856794 0.05419278 -0.004802925)
(-0.6727884 0.08896419 -0.0002793261)
(-0.6629862 0.1215167 -0.0003305632)
(-0.6476801 0.15121 -0.0005241412)
(-0.6309643 0.1779567 -0.0004091829)
(-0.6597947 0.008436371 -0.007466721)
(-0.6519353 0.0480516 -0.004537389)
(-0.6409256 0.07922193 -0.0001715955)
(-0.6332517 0.1088311 -0.0002456352)
(-0.6204684 0.1362401 -0.0004510034)
(-0.6063426 0.1613466 -0.0004159743)
(-0.628497 0.007493695 -0.007269924)
(-0.6216793 0.04304946 -0.004315746)
(-0.6120681 0.07120221 -9.809459e-05)
(-0.6059829 0.09823832 -0.0001806955)
(-0.5951691 0.1235499 -0.0003806487)
(-0.5831136 0.1470556 -0.0004025055)
(-0.6003353 0.006723528 -0.007075565)
(-0.5943232 0.03889982 -0.004123345)
(-0.5857891 0.06449242 -3.784345e-05)
(-0.5809171 0.08926841 -0.0001257254)
(-0.5716537 0.1126833 -0.0003123692)
(-0.5612653 0.1346583 -0.0003809454)
(-0.5747999 0.00608194 -0.006885408)
(-0.5694276 0.03539517 -0.003951498)
(-0.5617442 0.05878439 9.5229e-06)
(-0.5578048 0.08157353 -8.370481e-05)
(-0.5497835 0.1032781 -0.0002615303)
(-0.54075 0.1238094 -0.0003448452)
(-0.5514976 0.005536854 -0.006701432)
(-0.5466461 0.0323897 -0.003793851)
(-0.5396499 0.05386345 4.621168e-05)
(-0.536435 0.07489666 -5.24692e-05)
(-0.5294209 0.09505446 -0.0002258905)
(-0.5215019 0.1142432 -0.0003068777)
(-0.5301196 0.005067663 -0.006524403)
(-0.5257036 0.02977816 -0.003648548)
(-0.5192714 0.04957258 7.639144e-05)
(-0.5166249 0.06904367 -2.335057e-05)
(-0.5104401 0.08779724 -0.0001979775)
(-0.5034414 0.105744 -0.0002723094)
(-0.5104229 0.004658703 -0.006355094)
(-0.5063754 0.02748243 -0.003514805)
(-0.500414 0.04579295 0.0001011576)
(-0.4982208 0.06386341 1.985696e-06)
(-0.4927238 0.08133803 -0.0001736251)
(-0.4864912 0.09814173 -0.0002384442)
(-0.4922104 0.004299131 -0.006193963)
(-0.488479 0.02544495 -0.003390669)
(-0.4829163 0.04243109 0.0001218357)
(-0.4810891 0.05923953 2.306185e-05)
(-0.4761646 0.07554729 -0.0001531496)
(-0.4705772 0.09129846 -0.0002130095)
(-0.4753209 0.003979091 -0.006040826)
(-0.4718637 0.02362103 -0.003275398)
(-0.4666424 0.03941606 0.000139205)
(-0.4651141 0.05507786 4.00093e-05)
(-0.4606675 0.07031965 -0.0001367245)
(-0.4556287 0.08509653 -0.0001956216)
(-0.45962 0.003691797 -0.005895264)
(-0.4564027 0.0219755 -0.003168284)
(-0.451479 0.03669165 0.000153976)
(-0.4501929 0.05130755 5.543466e-05)
(-0.4461488 0.06557361 -0.00012201)
(-0.4415826 0.07944238 -0.0001810909)
(-0.4449958 0.003432417 -0.005757045)
(-0.4419898 0.02048112 -0.003069336)
(-0.4373279 0.03421361 0.0001662763)
(-0.4362396 0.04787113 6.972124e-05)
(-0.4325353 0.0612349 -0.0001080369)
(-0.4283798 0.07425639 -0.0001683719)
(-0.4313509 0.003197594 -0.005625565)
(-0.4285325 0.01911473 -0.002975429)
(-0.4241046 0.03194565 0.0001767208)
(-0.4231785 0.04472068 8.376748e-05)
(-0.4197645 0.05724667 -9.51069e-05)
(-0.4159634 0.06947819 -0.0001584527)
(-0.418602 0.002982568 -0.005500084)
(-0.4159534 0.0178603 -0.002885751)
(-0.4117354 0.02985727 0.0001861311)
(-0.4109449 0.04181783 9.817211e-05)
(-0.4077796 0.05356145 -8.298139e-05)
(-0.4042829 0.06505433 -0.0001519706)
(-0.4066758 0.002784365 -0.005379571)
(-0.4041854 0.01669705 -0.002799296)
(-0.4001602 0.0279231 0.0001955877)
(-0.3994814 0.03912964 0.0001134294)
(-0.3965302 0.05014286 -7.047659e-05)
(-0.393295 0.06094279 -0.0001443893)
(-0.3933201 0.002443484 -0.006196984)
(-0.3931773 0.01563852 -0.002723175)
(-0.3893174 0.0261309 0.0002032655)
(-0.3887344 0.03662819 0.0001286143)
(-0.38597 0.04695674 -5.742239e-05)
(-0.382961 0.0571029 -0.0001365157)
(-1.266488 0.2800748 -0.01789168)
(-1.068407 0.3985313 -0.01200677)
(-0.9543278 0.4023633 -0.01018921)
(-0.8717315 0.4048598 -0.008459867)
(-0.8047016 0.4054048 -0.007588811)
(-0.7491575 0.4069956 -0.007161882)
(-1.304691 0.04700084 -0.0007094662)
(-1.157473 0.1948885 -0.007495706)
(-1.038278 0.2654629 -0.01529048)
(-0.9469295 0.3057274 -0.01673284)
(-0.8731758 0.3310361 -0.01749875)
(-0.8126697 0.3481204 -0.01788796)
(-1.09804 0.04240125 0.0004596669)
(-1.015392 0.1987249 0.00648322)
(-0.9605308 0.2812352 0.005726178)
(-0.897563 0.3347045 0.006306019)
(-0.8412841 0.3717172 0.006595949)
(-0.7896495 0.3965846 0.006636241)
(-0.9848878 0.02489125 0.001080546)
(-0.9477536 0.1232554 0.003980922)
(-0.9056391 0.1892329 0.0006880729)
(-0.8577448 0.2384084 0.0008333171)
(-0.8114087 0.2771412 -2.702523e-05)
(-0.7675704 0.305946 -0.0001357141)
(-0.8991585 0.01983309 0.0009974025)
(-0.8738894 0.1068629 0.00450922)
(-0.8474453 0.1667694 0.001358182)
(-0.8120833 0.2144743 0.001609231)
(-0.7764466 0.2537193 0.00124111)
(-0.7401509 0.2840843 0.001203143)
(-0.8334046 0.01535813 0.0008182281)
(-0.8163557 0.08452815 0.003925841)
(-0.7976158 0.1356202 0.0006566473)
(-0.77088 0.1791089 0.0008907668)
(-0.7424629 0.2158433 0.0003520643)
(-0.712556 0.246321 0.0003433578)
(-0.7794908 0.0126805 0.0006971655)
(-0.7662775 0.07160798 0.003666646)
(-0.7528333 0.1164857 0.0005191038)
(-0.7319778 0.1561283 0.0007491371)
(-0.7092054 0.1908231 0.0002586027)
(-0.684468 0.220579 0.0002741319)
(-0.7336713 0.01074967 0.0006028108)
(-0.7230218 0.06152818 0.003481816)
(-0.7130576 0.1010556 0.0004500985)
(-0.6964698 0.1368733 0.0006366472)
(-0.6779894 0.1690188 0.0001369191)
(-0.6573592 0.1973248 0.0001252584)
(-0.6939614 0.00929297 0.0005298999)
(-0.6850616 0.05379996 0.003312348)
(-0.6774436 0.08895514 0.0004197154)
(-0.6639411 0.1214365 0.0005771907)
(-0.6487186 0.1511776 8.624534e-05)
(-0.6313651 0.1779302 5.996841e-05)
(-0.6589763 0.008164938 0.0004724277)
(-0.651334 0.0477024 0.003169337)
(-0.6453789 0.07922702 0.0004139558)
(-0.6341818 0.1087649 0.0005468415)
(-0.6214672 0.1362194 6.618638e-05)
(-0.6067246 0.1613291 2.415684e-05)
(-0.6277875 0.007260453 0.0004259171)
(-0.6210866 0.04273584 0.003041206)
(-0.6163387 0.07120948 0.000415245)
(-0.6068898 0.09817987 0.0005239412)
(-0.5961267 0.1235411 6.146836e-05)
(-0.5834787 0.1470471 7.01971e-06)
(-0.5997144 0.006518163 0.0003874101)
(-0.5937413 0.03861548 0.002926391)
(-0.5898947 0.06449848 0.0004159809)
(-0.5817966 0.0892181 0.0005051271)
(-0.5725738 0.1126792 6.310199e-05)
(-0.5616167 0.1346514 -3.124436e-06)
(-0.57425 0.005899552 0.0003546946)
(-0.5688569 0.03513293 0.002819816)
(-0.5656961 0.05879115 0.0004164712)
(-0.5586597 0.08153166 0.0004894269)
(-0.5506701 0.1032739 6.462143e-05)
(-0.54109 0.1238059 -7.753756e-06)
(-0.5510066 0.005374169 0.0003263729)
(-0.5460859 0.03214591 0.002720877)
(-0.5434576 0.05387163 0.0004166571)
(-0.5372683 0.07486062 0.0004768874)
(-0.5302779 0.09504897 6.552562e-05)
(-0.5218297 0.1142429 -8.221197e-06)
(-0.5296802 0.004921428 0.0003014675)
(-0.5251523 0.02955084 0.002627609)
(-0.5229442 0.0495811 0.0004175132)
(-0.5174406 0.06901104 0.0004652189)
(-0.5112679 0.08779092 6.484236e-05)
(-0.5037583 0.1057468 -6.781341e-06)
(-0.5100294 0.004526576 0.0002792699)
(-0.5058328 0.02727091 0.002540688)
(-0.5039614 0.04580064 0.000417336)
(-0.4990201 0.0638344 0.0004545739)
(-0.4935238 0.08133349 6.448771e-05)
(-0.4867987 0.09814565 -2.63125e-06)
(-0.4918581 0.004178565 0.0002595279)
(-0.4879448 0.0252481 0.002459414)
(-0.486346 0.04243822 0.0004167543)
(-0.4818719 0.05921374 0.0004444302)
(-0.4769395 0.07554522 6.446711e-05)
(-0.4708766 0.09129962 -9.044916e-08)
(-0.4750053 0.003869187 0.0002416178)
(-0.4713373 0.02343796 0.002383668)
(-0.4699621 0.03942295 0.0004158033)
(-0.4658799 0.05505749 0.0004353233)
(-0.4614216 0.07032025 6.511205e-05)
(-0.4559216 0.08509516 1.518738e-07)
(-0.4593376 0.003591572 0.0002257653)
(-0.4558843 0.02180536 0.002312624)
(-0.4546942 0.03669842 0.0004144343)
(-0.4509438 0.05129205 0.0004284328)
(-0.4468871 0.06557316 6.508129e-05)
(-0.4418685 0.07943756 -1.472066e-06)
(-0.4447426 0.003341112 0.0002113506)
(-0.4414789 0.02032265 0.002246396)
(-0.4404438 0.03422005 0.0004131448)
(-0.436976 0.04785972 0.000423549)
(-0.4332623 0.06123524 6.493409e-05)
(-0.4286582 0.07425243 -4.058085e-06)
(-0.4311249 0.00311343 0.0001981405)
(-0.4280311 0.01896666 0.002183453)
(-0.4271262 0.03195108 0.0004108511)
(-0.4239017 0.04471206 0.0004190323)
(-0.420482 0.05724875 6.359673e-05)
(-0.4162349 0.0694748 -6.857623e-06)
(-0.4184042 0.002905623 0.0001859734)
(-0.4154635 0.01771986 0.002123592)
(-0.4146678 0.02986249 0.0004076172)
(-0.4116537 0.04180949 0.0004155512)
(-0.4084884 0.05356576 6.400123e-05)
(-0.4045508 0.06505267 -8.162914e-06)
(-0.406508 0.002715234 0.0001746282)
(-0.4037095 0.01656596 0.002062807)
(-0.4030052 0.02792951 0.0004036835)
(-0.400175 0.03912178 0.0004118595)
(-0.3972301 0.05014832 6.594943e-05)
(-0.393563 0.06094066 -9.622155e-06)
(-0.3953789 0.00253851 0.0001647747)
(-0.3927102 0.01549622 0.002011917)
(-0.3920838 0.02613374 0.0004029613)
(-0.3894144 0.03661941 0.0004089912)
(-0.3866608 0.04696281 6.847038e-05)
(-0.3832312 0.05710241 -1.105315e-05)
(-1.266864 0.2724954 -0.003318889)
(-1.073852 0.3841457 -0.0004587057)
(-0.957732 0.4053647 -0.0002759239)
(-0.8751625 0.420793 0.0001893109)
(-0.80847 0.4278621 0.000586835)
(-0.7528222 0.43164 0.000805466)
(-1.312238 0.04633872 -0.000519846)
(-1.162614 0.1908146 -0.004524541)
(-1.038978 0.2604707 -0.007609807)
(-0.946937 0.3007662 -0.007778162)
(-0.8734623 0.3265206 -0.008172988)
(-0.8129888 0.3439128 -0.008468674)
(-1.097739 0.04275217 -4.338914e-05)
(-1.014695 0.1995455 -3.57798e-05)
(-0.9572304 0.2768678 0.001273458)
(-0.8954345 0.3310899 0.002004547)
(-0.8393386 0.3684604 0.002442792)
(-0.7880551 0.3933893 0.002530717)
(-0.9849131 0.02492015 8.680018e-05)
(-0.9478323 0.1224468 -0.0006243121)
(-0.9031043 0.186786 0.0009530161)
(-0.8565592 0.2368806 0.0006567817)
(-0.8105137 0.2757961 0.0005901633)
(-0.7670631 0.3044569 0.0006443206)
(-0.8990196 0.01974185 3.947522e-05)
(-0.8745228 0.1066673 -0.0009556157)
(-0.8450631 0.1653336 3.970183e-05)
(-0.8117059 0.2143358 0.0004037123)
(-0.7757512 0.2529499 0.0006056081)
(-0.7397329 0.2834038 0.0007562442)
(-0.8332196 0.01528216 4.592489e-06)
(-0.8172727 0.08467056 -0.0009562654)
(-0.7959966 0.1353189 -0.0001293299)
(-0.7704731 0.1786583 -0.0001021903)
(-0.7419547 0.2152713 8.46691e-05)
(-0.7122497 0.2456421 0.0002314471)
(-0.7793 0.01261586 -1.959973e-05)
(-0.7673026 0.07180332 -0.001001674)
(-0.7513854 0.1164474 -0.0002817593)
(-0.731625 0.1560401 -0.0002550822)
(-0.7087574 0.1906429 -7.484573e-05)
(-0.6841731 0.2203395 6.171542e-05)
(-0.7334473 0.01070153 -3.195023e-05)
(-0.723993 0.06175231 -0.0009640099)
(-0.7117429 0.1011358 -0.0003111352)
(-0.6961903 0.1368997 -0.0003102045)
(-0.6776165 0.1689587 -0.000163846)
(-0.6571112 0.1972038 -5.592633e-05)
(-0.6937037 0.009254152 -3.789884e-05)
(-0.6859905 0.05400649 -0.0009211501)
(-0.6762166 0.08906284 -0.0003088747)
(-0.6637052 0.1215093 -0.0003218624)
(-0.6483961 0.151188 -0.0001957398)
(-0.6311534 0.1778888 -0.0001096982)
(-0.6586842 0.008132919 -3.933313e-05)
(-0.6522113 0.04789191 -0.000873424)
(-0.6442183 0.07934026 -0.000289363)
(-0.6339758 0.1088544 -0.0003113057)
(-0.6211845 0.1362604 -0.0001993014)
(-0.6065465 0.1613251 -0.0001331222)
(-0.6274647 0.007232734 -3.972718e-05)
(-0.6219217 0.04290583 -0.0008301038)
(-0.6152309 0.07131635 -0.0002659048)
(-0.6067034 0.0982686 -0.0002945002)
(-0.5958748 0.1235916 -0.0001910802)
(-0.5833282 0.147061 -0.0001390443)
(-0.5993664 0.006494876 -3.968624e-05)
(-0.5945385 0.03876877 -0.0007903293)
(-0.5888314 0.06459632 -0.0002427938)
(-0.5816247 0.08930222 -0.000274546)
(-0.5723446 0.1127306 -0.0001772707)
(-0.5614899 0.1346744 -0.0001377349)
(-0.5738826 0.005878196 -3.951855e-05)
(-0.5696196 0.03527214 -0.0007547263)
(-0.5646727 0.05887934 -0.0002213523)
(-0.5584994 0.08160807 -0.0002556877)
(-0.5504577 0.1033212 -0.000163071)
(-0.5409797 0.1238335 -0.0001311861)
(-0.5506238 0.005354314 -3.930068e-05)
(-0.5468175 0.03227324 -0.0007222045)
(-0.5424703 0.05395128 -0.0002026796)
(-0.5371178 0.07493057 -0.0002381224)
(-0.5300782 0.09509201 -0.0001503185)
(-0.5217321 0.114271 -0.0001231863)
(-0.529286 0.004902988 -3.908408e-05)
(-0.5258555 0.02966785 -0.0006925651)
(-0.5219902 0.04965349 -0.0001856593)
(-0.5172988 0.06907542 -0.0002225434)
(-0.511079 0.08783019 -0.0001396687)
(-0.5036698 0.105774 -0.0001147081)
(-0.5096261 0.00450941 -3.889249e-05)
(-0.5065099 0.02737891 -0.0006652891)
(-0.5030379 0.04586663 -0.0001708228)
(-0.4988861 0.06389314 -0.0002083527)
(-0.4933437 0.08136938 -0.0001303548)
(-0.4867177 0.0981715 -0.000106647)
(-0.491448 0.004162583 -3.862058e-05)
(-0.4885979 0.02534809 -0.0006402902)
(-0.4854512 0.04249865 -0.0001572928)
(-0.4817446 0.05926751 -0.00019556)
(-0.4767676 0.0755778 -0.0001215303)
(-0.4708009 0.09132315 -9.925079e-05)
(-0.4745902 0.003854207 -3.845354e-05)
(-0.4719685 0.02353076 -0.0006170791)
(-0.4690942 0.03947867 -0.0001455088)
(-0.4657588 0.05510712 -0.0001836197)
(-0.4612566 0.07035067 -0.0001135926)
(-0.4558496 0.08511744 -9.295232e-05)
(-0.4589192 0.003577765 -3.806637e-05)
(-0.4564952 0.02189157 -0.0005957202)
(-0.4538515 0.03675001 -0.0001345811)
(-0.450828 0.05133861 -0.0001731812)
(-0.446728 0.06560115 -0.0001064488)
(-0.4417993 0.07945825 -8.753154e-05)
(-0.4443219 0.003328018 -3.779311e-05)
(-0.4420713 0.02040305 -0.000575747)
(-0.4396242 0.03426818 -0.0001251085)
(-0.4368651 0.04790281 -0.0001629144)
(-0.4331088 0.06126101 -0.0001000135)
(-0.4285917 0.07427267 -8.234826e-05)
(-0.4307035 0.003100751 -3.765052e-05)
(-0.4286063 0.01904211 -0.0005574027)
(-0.4263284 0.03199617 -0.0001162131)
(-0.4237948 0.04475315 -0.000153572)
(-0.4203332 0.0572725 -9.36538e-05)
(-0.4161714 0.06949295 -7.807993e-05)
(-0.4179828 0.002892719 -3.73887e-05)
(-0.4160223 0.01779075 -0.0005401161)
(-0.4138901 0.02990432 -0.0001083681)
(-0.4115504 0.04184741 -0.0001445334)
(-0.4083434 0.05358723 -8.872469e-05)
(-0.4044906 0.06506984 -7.436498e-05)
(-0.406089 0.002701503 -3.699287e-05)
(-0.4042513 0.01663106 -0.0005240455)
(-0.4022464 0.02796701 -0.0001004908)
(-0.4000744 0.03915587 -0.0001364868)
(-0.3970889 0.05016756 -8.260537e-05)
(-0.393504 0.06095493 -7.043898e-05)
(-0.3949627 0.002524889 -3.676053e-05)
(-0.3932358 0.01555272 -0.0005066432)
(-0.3913433 0.02616544 -9.19262e-05)
(-0.3893169 0.03664954 -0.000127011)
(-0.3865238 0.04697998 -7.485618e-05)
(-0.3831722 0.05711391 -6.633694e-05)
(-1.266583 0.2675292 -0.0007014023)
(-1.074936 0.3826312 -0.0002238245)
(-0.9582593 0.3960909 -0.0002438493)
(-0.875226 0.4050738 -0.0002242371)
(-0.808008 0.4080443 -0.0002579159)
(-0.7519813 0.4097553 -0.0003439715)
(-1.314314 0.04585872 -0.0002239332)
(-1.16464 0.1914587 -0.001083581)
(-1.040687 0.2600441 -0.002585381)
(-0.9472229 0.2994321 -0.002769056)
(-0.8737555 0.3247861 -0.002963122)
(-0.8130882 0.3420376 -0.003058885)
(-1.097105 0.04203 5.117603e-05)
(-1.015116 0.1980339 0.0004531422)
(-0.957627 0.27292 -5.722138e-05)
(-0.8955725 0.3292413 0.000100499)
(-0.839347 0.3677536 0.0001480278)
(-0.7878738 0.3929923 0.000186667)
(-0.9836188 0.02517769 0.0001790395)
(-0.9470025 0.1218352 0.001178167)
(-0.9036515 0.1859758 0.0007475105)
(-0.8570415 0.2361184 0.0003811189)
(-0.8106724 0.2755291 6.442093e-05)
(-0.7670326 0.3042554 2.715739e-05)
(-0.8977342 0.0196858 0.0001825731)
(-0.8738019 0.1054701 0.0008293287)
(-0.8456922 0.1653887 0.0005026644)
(-0.8119218 0.2141683 0.0004837424)
(-0.7760705 0.2531099 0.0002856918)
(-0.7398826 0.2836122 0.0002246966)
(-0.8320841 0.01522066 0.0001580971)
(-0.816794 0.08445031 0.0009525664)
(-0.7965042 0.1351209 0.0004137578)
(-0.7706527 0.1784658 0.0003387231)
(-0.7421858 0.2151222 0.000168964)
(-0.7123503 0.2455053 0.0001323172)
(-0.7782839 0.01257177 0.0001373313)
(-0.7668672 0.07164161 0.0008464621)
(-0.7518427 0.1163684 0.0003525419)
(-0.7317773 0.1559666 0.000285849)
(-0.7089603 0.1905952 0.0001421118)
(-0.6842671 0.2202966 0.0001158977)
(-0.7324957 0.01066854 0.0001259726)
(-0.7235892 0.06165167 0.0007863505)
(-0.7121808 0.1010935 0.00031756)
(-0.6963407 0.1368577 0.0002518908)
(-0.6778166 0.168925 0.0001149316)
(-0.6572045 0.1971642 8.890128e-05)
(-0.6928051 0.009227673 0.0001175354)
(-0.685611 0.05392807 0.0007386616)
(-0.6766368 0.08903834 0.0002927106)
(-0.6638538 0.121486 0.0002272001)
(-0.6485907 0.1511723 9.687736e-05)
(-0.6312458 0.1778671 7.21817e-05)
(-0.6578375 0.00811125 0.0001115025)
(-0.6518499 0.04782832 0.000701426)
(-0.6446218 0.07932718 0.0002765025)
(-0.6341225 0.1088428 0.0002115636)
(-0.6213749 0.1362556 8.573225e-05)
(-0.6066368 0.1613151 6.163068e-05)
(-0.6266609 0.007214453 0.0001070104)
(-0.6215757 0.04285087 0.0006689582)
(-0.6156185 0.07130821 0.0002645614)
(-0.6068475 0.09826204 0.0002002887)
(-0.596059 0.1235926 7.966207e-05)
(-0.5834173 0.1470571 5.384621e-05)
(-0.5985998 0.006479045 0.0001032689)
(-0.5942052 0.03872037 0.0006405766)
(-0.589204 0.0645907 0.0002541644)
(-0.5817658 0.08929942 0.0001907527)
(-0.5725244 0.1127348 7.495773e-05)
(-0.5615758 0.1346742 4.967794e-05)
(-0.5731491 0.005864056 9.98611e-05)
(-0.5692978 0.03522852 0.0006149371)
(-0.5650311 0.05887508 0.0002454824)
(-0.5586375 0.08160668 0.0001824549)
(-0.5506315 0.1033259 7.140375e-05)
(-0.5410648 0.1238348 4.68454e-05)
(-0.5499214 0.005341433 9.674159e-05)
(-0.5465059 0.0322337 0.0005919285)
(-0.5428154 0.0539478 0.000237565)
(-0.5372526 0.07493035 0.0001761289)
(-0.5302471 0.09509708 6.870722e-05)
(-0.5218149 0.1142737 4.519119e-05)
(-0.5286133 0.004891212 9.34848e-05)
(-0.5255533 0.02963158 0.0005708122)
(-0.5223229 0.04965039 0.0002307796)
(-0.5174309 0.0690755 0.0001701725)
(-0.5112424 0.08783528 6.646224e-05)
(-0.503752 0.1057775 4.34452e-05)
(-0.5089808 0.004498709 9.043275e-05)
(-0.5062165 0.02734539 0.0005513828)
(-0.503359 0.04586376 0.0002241728)
(-0.4990151 0.06389366 0.0001656176)
(-0.4935024 0.08137437 6.511109e-05)
(-0.4867974 0.09817426 4.286369e-05)
(-0.4908278 0.00415286 8.76134e-05)
(-0.4883128 0.02531708 0.0005332468)
(-0.4857616 0.04249596 0.0002182532)
(-0.4818709 0.05926808 0.0001607821)
(-0.4769215 0.07558268 6.367664e-05)
(-0.4708797 0.0913263 4.150278e-05)
(-0.4739934 0.00384521 8.509197e-05)
(-0.4716912 0.0235019 0.0005164944)
(-0.4693943 0.03947613 0.0002124603)
(-0.4658823 0.05510826 0.0001562301)
(-0.461407 0.07035541 6.188133e-05)
(-0.4559265 0.0851188 4.064122e-05)
(-0.458344 0.003569353 8.270028e-05)
(-0.4562254 0.02186483 0.0005008476)
(-0.4541421 0.03674763 0.0002071766)
(-0.4509489 0.05133963 0.0001520523)
(-0.4468751 0.06560577 6.031174e-05)
(-0.4418752 0.07946026 3.904182e-05)
(-0.4437671 0.003320087 8.042524e-05)
(-0.4418089 0.0203781 0.0004862395)
(-0.4399062 0.03426577 0.0002018399)
(-0.4369837 0.04790467 0.0001481789)
(-0.433253 0.06126542 5.822645e-05)
(-0.4286659 0.07427301 3.67928e-05)
(-0.4301684 0.003093303 7.806775e-05)
(-0.4283509 0.01901869 0.0004723654)
(-0.4266026 0.03199358 0.0001965502)
(-0.423911 0.04475411 0.0001439594)
(-0.4204746 0.0572767 5.609154e-05)
(-0.4162444 0.06949377 3.45144e-05)
(-0.4174666 0.002885701 7.605524e-05)
(-0.4157739 0.01776795 0.0004590626)
(-0.4141565 0.0299012 0.0001905725)
(-0.4116641 0.04184881 0.0001393409)
(-0.4084828 0.05359223 5.342253e-05)
(-0.4045625 0.06506891 3.270635e-05)
(-0.4055909 0.002694808 7.406661e-05)
(-0.4040092 0.01660869 0.0004454252)
(-0.4025059 0.02796362 0.0001837589)
(-0.4001853 0.03915668 0.0001336568)
(-0.3972257 0.05017345 4.999633e-05)
(-0.3935764 0.06095466 3.057239e-05)
(-0.3944809 0.002518723 7.240725e-05)
(-0.3929987 0.01553093 0.0004324805)
(-0.3915955 0.02616329 0.0001757876)
(-0.3894244 0.03665157 0.0001254733)
(-0.3866596 0.04698953 4.272957e-05)
(-0.3832482 0.0571136 2.649382e-05)
(-1.266398 0.2682559 0.0001662836)
(-1.074352 0.3851524 -3.573381e-05)
(-0.9585239 0.4012245 -0.000170462)
(-0.8757097 0.410027 -0.0002202887)
(-0.8085421 0.4130963 -0.0002296471)
(-0.7526712 0.4157452 -0.0002552287)
(-1.314477 0.04577067 -1.470469e-05)
(-1.164643 0.19146 0.001087615)
(-1.040685 0.2600428 0.002587258)
(-0.9472234 0.2994304 0.002770329)
(-0.8737546 0.3247845 0.002964075)
(-0.8130856 0.3420374 0.0030606)
(-1.097064 0.04192296 2.466671e-05)
(-1.015117 0.1980332 -0.0004525731)
(-0.9576272 0.2729191 5.800477e-05)
(-0.8955731 0.3292417 -9.962053e-05)
(-0.8393474 0.3677531 -0.0001474793)
(-0.7878744 0.3929925 -0.0001866847)
(-0.9834798 0.02518873 -1.406689e-05)
(-0.9470023 0.121835 -0.001177457)
(-0.9036517 0.1859753 -0.0007471038)
(-0.8570416 0.2361183 -0.0003809783)
(-0.8106725 0.2755291 -6.436351e-05)
(-0.7670331 0.3042551 -2.769116e-05)
(-0.8975898 0.01967938 -2.595474e-05)
(-0.8738019 0.10547 -0.000829008)
(-0.8456922 0.1653885 -0.0005024245)
(-0.8119217 0.2141683 -0.0004836121)
(-0.7760707 0.2531099 -0.0002856337)
(-0.7398823 0.283612 -0.0002247528)
(-0.831958 0.0152038 -2.41412e-05)
(-0.8167938 0.08445026 -0.0009525787)
(-0.7965041 0.1351207 -0.0004137127)
(-0.7706527 0.1784657 -0.0003386503)
(-0.7421856 0.2151222 -0.0001689652)
(-0.7123505 0.2455051 -0.0001323724)
(-0.7781815 0.01256497 -2.016044e-05)
(-0.7668669 0.07164158 -0.0008465776)
(-0.7518426 0.1163683 -0.0003526351)
(-0.7317772 0.1559667 -0.0002858246)
(-0.7089606 0.190595 -0.0001420225)
(-0.6842669 0.2202967 -0.0001162328)
(-0.7324022 0.01066377 -1.801373e-05)
(-0.7235892 0.06165159 -0.0007864473)
(-0.7121807 0.1010935 -0.0003176564)
(-0.6963408 0.1368577 -0.0002518893)
(-0.6778163 0.168925 -0.0001150071)
(-0.6572048 0.1971641 -8.888148e-05)
(-0.6927182 0.009223958 -1.645081e-05)
(-0.6856106 0.05392803 -0.0007387563)
(-0.6766368 0.08903834 -0.0002928496)
(-0.6638537 0.121486 -0.0002272075)
(-0.6485909 0.1511722 -9.66906e-05)
(-0.6312455 0.1778671 -7.252041e-05)
(-0.6577554 0.008108348 -1.543198e-05)
(-0.6518499 0.0478283 -0.0007015435)
(-0.6446217 0.07932724 -0.0002766855)
(-0.6341227 0.1088427 -0.0002115113)
(-0.6213745 0.1362556 -8.581833e-05)
(-0.6066371 0.161315 -6.137652e-05)
(-0.6265824 0.007211961 -1.502665e-05)
(-0.6215756 0.04285087 -0.0006691122)
(-0.6156185 0.07130812 -0.0002647419)
(-0.6068475 0.0982619 -0.0002002318)
(-0.5960593 0.1235925 -7.939578e-05)
(-0.5834169 0.147057 -5.409292e-05)
(-0.5985244 0.006476789 -1.447223e-05)
(-0.5942052 0.03872033 -0.0006407448)
(-0.5892039 0.06459069 -0.0002543223)
(-0.5817661 0.08929938 -0.0001905655)
(-0.572524 0.1127347 -7.49707e-05)
(-0.5615762 0.134674 -4.917224e-05)
(-0.5730765 0.005861959 -1.400856e-05)
(-0.5692978 0.03522851 -0.0006150917)
(-0.5650312 0.05887493 -0.0002456291)
(-0.5586375 0.08160665 -0.0001823414)
(-0.5506319 0.1033257 -7.101654e-05)
(-0.5410645 0.1238346 -4.689551e-05)
(-0.5498509 0.005339389 -1.362598e-05)
(-0.5465059 0.03223374 -0.0005920776)
(-0.5428154 0.05394774 -0.0002376795)
(-0.5372529 0.07493037 -0.0001758618)
(-0.5302468 0.09509695 -6.85955e-05)
(-0.5218154 0.1142736 -4.442345e-05)
(-0.528545 0.004889394 -1.32081e-05)
(-0.5255533 0.0296316 -0.000570938)
(-0.522323 0.04965035 -0.0002309973)
(-0.5174308 0.06907544 -0.0001700288)
(-0.5112429 0.08783528 -6.5987e-05)
(-0.5037517 0.1057774 -4.317907e-05)
(-0.5089148 0.004497093 -1.281814e-05)
(-0.5062166 0.02734536 -0.0005515776)
(-0.503359 0.04586371 -0.0002244216)