/*--------------------------------*- C++ -*----------------------------------*\
  =========                 |
  \\      /  F ield         | OpenFOAM: The Open Source CFD Toolbox
   \\    /   O peration     | Website:  https://openfoam.org
    \\  /    A nd           | Version:  7
     \\/     M anipulation  |
\*---------------------------------------------------------------------------*/
FoamFile
{
    version     2.0;
    format      ascii;
    class       volScalarField;
    location    "0.04";
    object      epsilon;
}
// * * * * * * * * * * * * * * * * * * * * * * * * * * * * * * * * * * * * * //

dimensions      [0 2 -3 0 0 0 0];

internalField   nonuniform List<scalar> 
90967
(
0.0009461031
0.0009669961
0.0009740152
0.0009756488
0.0009760905
0.0009761471
0.0009672237
0.001008839
0.001022169
0.001025677
0.00102667
0.001026892
0.0009741291
0.001022038
0.001038973
0.001043692
0.001045122
0.001045491
0.0009757798
0.001025581
0.00104376
0.00104911
0.001050822
0.00105131
0.0009762146
0.001026621
0.001045273
0.001050929
0.00105282
0.0010534
0.0009763289
0.001026967
0.001045831
0.001051651
0.001053659
0.001054321
0.0009763049
0.001027046
0.001046019
0.001051944
0.001054044
0.001054786
0.0009762025
0.001026997
0.001046037
0.001052041
0.001054224
0.001055052
0.0009760294
0.001026854
0.001045945
0.001052023
0.001054293
0.001055218
0.000975782
0.001026623
0.001045756
0.001051908
0.001054273
0.001055313
0.0009754447
0.001026285
0.001045449
0.001051678
0.001054147
0.001055321
0.0009749963
0.001025801
0.001044974
0.001051273
0.001053856
0.001055188
0.0009743883
0.001025086
0.001044215
0.001050559
0.001053256
0.001054772
0.0009735316
0.001023949
0.001042907
0.00104923
0.001052026
0.001053748
0.0009721565
0.001021825
0.001040296
0.001046441
0.001049279
0.001051214
0.0009692208
0.001016642
0.001033786
0.00103942
0.001042209
0.001044352
0.0009599892
0.00100046
0.001013889
0.001018413
0.001020965
0.001023218
0.0009321591
0.0009524155
0.0009601264
0.0009631755
0.0009654497
0.000967767
0.001925707
0.002002836
0.00201825
0.002026696
0.002035524
0.002045656
0.002057822
0.009059148
0.009216901
0.009374864
0.00954062
0.009721871
0.009925487
0.01016296
0.001916397
0.001947548
0.001953935
0.001956538
0.001958399
0.00196035
0.001962427
0.002079115
0.002105153
0.002120806
0.002123977
0.002124266
0.002124129
0.002123726
0.01161274
0.01160238
0.01160201
0.011602
0.01160194
0.01160191
0.01160195
0.01161574
0.01160242
0.01160207
0.01160198
0.01160197
0.01160197
0.011602
0.01161469
0.01160242
0.01160206
0.01160199
0.01160199
0.01160203
0.01160209
0.01161494
0.01160244
0.01160212
0.01160205
0.01160206
0.01160211
0.0116022
0.01161494
0.01160249
0.01160216
0.01160213
0.01160216
0.01160225
0.01160236
0.01161524
0.01160256
0.01160224
0.01160226
0.01160234
0.01160248
0.01160263
0.01161573
0.01160272
0.01160236
0.01160246
0.01160259
0.01160284
0.01160308
0.01161561
0.011603
0.01160256
0.01160276
0.01160298
0.01160336
0.01160374
0.01161535
0.01160332
0.01160289
0.01160321
0.01160356
0.01160412
0.0116047
0.01161503
0.01160376
0.0116034
0.0116039
0.01160442
0.01160523
0.01160608
0.01161467
0.01160443
0.0116042
0.01160492
0.01160569
0.01160685
0.01160807
0.01161429
0.01160543
0.01160538
0.01160641
0.01160753
0.0116092
0.01161095
0.01161393
0.01160685
0.01160707
0.01160852
0.01161018
0.01161263
0.01161544
0.0116136
0.0116088
0.01160939
0.01161143
0.01161386
0.01161749
0.01162185
0.01161333
0.01161127
0.01161242
0.01161527
0.01161891
0.01162453
0.01163225
0.01161306
0.01161438
0.0116162
0.01162015
0.01162546
0.011634
0.01164647
0.01161238
0.01161753
0.01162036
0.01162555
0.01163341
0.01164648
0.01166781
0.01160988
0.01162193
0.01162394
0.01163067
0.01164105
0.01165971
0.01169315
0.01161718
0.01161327
0.01162406
0.01163446
0.01164639
0.0116685
0.01170913
0.01179429
0.002039854
0.01159802
0.01159825
0.01159846
0.01159891
0.01159982
0.01160153
0.002096174
0.000986071
0.00100128
0.001007344
0.001008605
0.001008905
0.0116145
0.01160263
0.0116019
0.01160194
0.01160157
0.0116018
0.01160188
0.01160486
0.01160373
0.01160369
0.01160364
0.01160363
0.01160364
0.01160368
0.01160456
0.01160369
0.01160368
0.01160366
0.01160366
0.0116037
0.01160377
0.01160455
0.01160374
0.01160372
0.01160371
0.01160373
0.01160378
0.01160388
0.01160456
0.01160378
0.0116038
0.0116038
0.01160385
0.01160393
0.01160404
0.01160456
0.01160383
0.01160389
0.01160394
0.01160403
0.01160416
0.01160432
0.01160456
0.01160392
0.01160403
0.01160414
0.0116043
0.01160453
0.01160477
0.01160458
0.01160406
0.01160425
0.01160444
0.0116047
0.01160505
0.01160544
0.01160464
0.01160432
0.0116046
0.01160489
0.0116053
0.01160582
0.01160641
0.01160477
0.01160474
0.01160513
0.01160558
0.01160617
0.01160693
0.01160781
0.011605
0.0116054
0.01160594
0.01160659
0.01160745
0.01160856
0.01160986
0.01160538
0.0116064
0.01160713
0.01160807
0.0116093
0.01161092
0.01161288
0.01160595
0.01160784
0.01160882
0.01161017
0.01161195
0.01161435
0.01161737
0.01160678
0.0116098
0.01161112
0.01161306
0.01161563
0.01161923
0.01162399
0.01160777
0.01161236
0.01161412
0.01161689
0.01162069
0.01162625
0.01163404
0.01160926
0.0116153
0.01161767
0.01162171
0.0116271
0.01163558
0.01164813
0.0116101
0.01161888
0.01162187
0.01162675
0.01163519
0.01164841
0.01167074
0.01161276
0.01162369
0.01162353
0.01163289
0.01164334
0.01166308
0.01169717
0.01160783
0.01161522
0.01161822
0.01162013
0.01163068
0.0116463
0.01167759
0.001891195
0.001814986
0.001830963
0.001834247
0.001835615
0.002067801
0.01159771
0.01159834
0.01159861
0.0115989
0.01159967
0.01160123
0.002111509
0.001001219
0.001028757
0.001038241
0.001040431
0.001040971
0.01161355
0.01160262
0.01160189
0.01160198
0.01160165
0.01160185
0.0116019
0.0116045
0.01160366
0.01160366
0.01160363
0.01160362
0.01160364
0.01160368
0.01160429
0.01160358
0.01160361
0.01160363
0.01160365
0.0116037
0.01160377
0.01160432
0.01160359
0.01160365
0.01160369
0.01160372
0.01160377
0.01160388
0.01160434
0.01160365
0.01160373
0.01160378
0.01160384
0.01160392
0.01160404
0.01160432
0.01160371
0.01160381
0.01160391
0.01160402
0.01160415
0.01160432
0.01160433
0.01160381
0.01160396
0.01160411
0.01160429
0.01160451
0.01160477
0.01160432
0.01160397
0.01160417
0.01160442
0.01160468
0.01160503
0.01160543
0.01160434
0.01160424
0.01160452
0.01160488
0.01160528
0.0116058
0.0116064
0.01160437
0.01160468
0.01160505
0.01160557
0.01160615
0.01160692
0.01160781
0.01160445
0.01160537
0.01160587
0.0116066
0.01160744
0.01160856
0.01160988
0.01160459
0.01160639
0.01160707
0.0116081
0.01160932
0.01161095
0.01161293
0.01160478
0.01160787
0.01160879
0.01161024
0.01161201
0.01161442
0.01161748
0.01160506
0.01160985
0.01161113
0.0116132
0.01161578
0.01161943
0.01162428
0.01160526
0.01161249
0.01161423
0.01161716
0.01162098
0.01162661
0.01163458
0.01160575
0.01161541
0.01161783
0.01162206
0.01162749
0.01163619
0.01164906
0.01160528
0.0116192
0.01162226
0.0116272
0.01163585
0.01164949
0.01167278
0.01160757
0.01162353
0.01162333
0.01163336
0.01164375
0.01166415
0.01169962
0.01160791
0.01161594
0.01161725
0.0116116
0.01162332
0.01163623
0.01167334
0.001814813
0.001646119
0.001665963
0.001669234
0.001670114
0.002082565
0.01159762
0.01159831
0.01159847
0.01159872
0.01159948
0.01160103
0.00211457
0.001006629
0.001037359
0.001048819
0.001051464
0.001052129
0.01161357
0.01160261
0.01160189
0.01160199
0.01160168
0.01160188
0.01160191
0.01160464
0.0116036
0.0116036
0.01160361
0.01160361
0.01160363
0.01160368
0.01160431
0.01160349
0.01160355
0.0116036
0.01160363
0.0116037
0.01160376
0.01160431
0.01160352
0.01160356
0.01160364
0.01160369
0.01160376
0.01160387
0.01160434
0.01160356
0.01160364
0.01160372
0.01160381
0.01160391
0.01160404
0.01160432
0.01160361
0.01160372
0.01160386
0.01160399
0.01160414
0.01160431
0.01160432
0.0116037
0.01160387
0.01160405
0.01160426
0.0116045
0.01160477
0.01160431
0.01160385
0.01160409
0.01160436
0.01160466
0.01160502
0.01160543
0.01160433
0.01160411
0.01160443
0.01160481
0.01160526
0.01160579
0.0116064
0.01160437
0.01160454
0.01160497
0.0116055
0.01160614
0.01160691
0.01160781
0.01160445
0.01160522
0.01160579
0.01160653
0.01160744
0.01160855
0.01160989
0.01160459
0.01160623
0.01160699
0.01160803
0.01160932
0.01161095
0.01161296
0.01160479
0.0116077
0.01160871
0.01161017
0.01161202
0.01161444
0.01161751
0.01160509
0.01160968
0.01161106
0.01161313
0.0116158
0.01161941
0.01162428
0.01160531
0.01161233
0.01161417
0.01161706
0.01162093
0.01162652
0.0116345
0.01160588
0.01161524
0.01161772
0.01162191
0.01162738
0.01163615
0.01164923
0.01160539
0.0116192
0.01162226
0.01162714
0.01163603
0.01164999
0.01167408
0.01160798
0.0116234
0.01162321
0.01163367
0.01164427
0.01166524
0.01170176
0.01160816
0.01161589
0.01161845
0.0116114
0.01162496
0.01163862
0.01167704
0.001829947
0.001665534
0.001684101
0.00168719
0.001688018
0.002085575
0.0115976
0.01159834
0.01159851
0.01159876
0.01159952
0.01160108
0.002114732
0.001006625
0.001037348
0.001048796
0.00105143
0.001052102
0.01161355
0.01160261
0.01160189
0.01160199
0.01160167
0.01160188
0.01160191
0.01160464
0.0116036
0.0116036
0.01160361
0.01160361
0.01160363
0.01160368
0.01160431
0.01160349
0.01160355
0.0116036
0.01160363
0.0116037
0.01160376
0.01160431
0.01160352
0.01160356
0.01160364
0.01160369
0.01160376
0.01160387
0.01160434
0.01160356
0.01160364
0.01160372
0.01160381
0.01160391
0.01160404
0.01160432
0.01160361
0.01160372
0.01160386
0.01160399
0.01160414
0.01160431
0.01160432
0.0116037
0.01160387
0.01160405
0.01160426
0.0116045
0.01160477
0.01160431
0.01160385
0.01160409
0.01160436
0.01160466
0.01160502
0.01160543
0.01160432
0.01160411
0.01160443
0.01160481
0.01160526
0.01160579
0.0116064
0.01160437
0.01160454
0.01160497
0.0116055
0.01160614
0.01160691
0.01160781
0.01160445
0.01160522
0.01160579
0.01160653
0.01160744
0.01160855
0.01160989
0.01160459
0.01160623
0.01160699
0.01160803
0.01160932
0.01161095
0.01161296
0.01160479
0.0116077
0.01160871
0.01161017
0.01161202
0.01161444
0.01161751
0.01160509
0.01160969
0.01161106
0.01161313
0.0116158
0.01161941
0.01162428
0.0116053
0.01161233
0.01161416
0.01161706
0.01162093
0.01162652
0.0116345
0.01160589
0.01161524
0.01161773
0.01162191
0.01162738
0.01163616
0.01164923
0.0116054
0.0116192
0.01162228
0.01162714
0.01163603
0.01164999
0.01167407
0.01160797
0.01162339
0.01162321
0.01163366
0.01164427
0.01166526
0.01170181
0.01160815
0.01161586
0.01161846
0.01161143
0.01162496
0.01163858
0.01167706
0.001829951
0.001665537
0.001684114
0.001687209
0.001688049
0.002085813
0.0115976
0.01159834
0.01159851
0.01159876
0.01159952
0.01160108
0.002113602
0.001001206
0.001028714
0.001038124
0.001040248
0.001040831
0.0116136
0.01160263
0.0116019
0.01160198
0.01160162
0.01160185
0.0116019
0.0116045
0.01160366
0.01160366
0.01160363
0.01160362
0.01160364
0.01160368
0.01160429
0.01160358
0.01160361
0.01160363
0.01160365
0.0116037
0.01160377
0.01160432
0.01160359
0.01160365
0.01160369
0.01160372
0.01160377
0.01160388
0.01160434
0.01160365
0.01160373
0.01160378
0.01160384
0.01160392
0.01160404
0.01160432
0.01160371
0.01160381
0.01160391
0.01160402
0.01160415
0.01160432
0.01160433
0.01160381
0.01160396
0.01160411
0.01160429
0.01160451
0.01160477
0.01160432
0.01160397
0.01160417
0.01160442
0.01160468
0.01160504
0.01160543
0.01160433
0.01160424
0.01160452
0.01160488
0.01160528
0.0116058
0.0116064
0.01160437
0.01160468
0.01160505
0.01160557
0.01160615
0.01160692
0.01160781
0.01160445
0.01160537
0.01160587
0.0116066
0.01160744
0.01160856
0.01160988
0.01160459
0.01160639
0.01160707
0.0116081
0.01160932
0.01161095
0.01161293
0.01160478
0.01160786
0.01160879
0.01161024
0.01161201
0.01161443
0.01161748
0.01160505
0.01160985
0.01161113
0.0116132
0.01161579
0.01161943
0.01162429
0.01160525
0.01161249
0.01161424
0.01161716
0.01162099
0.01162662
0.01163458
0.01160575
0.01161541
0.01161783
0.01162207
0.0116275
0.0116362
0.01164906
0.01160528
0.0116192
0.01162224
0.0116272
0.01163587
0.01164953
0.01167283
0.01160757
0.01162353
0.01162334
0.01163341
0.01164381
0.01166412
0.01169951
0.01160805
0.01161582
0.0116172
0.01161147
0.01162322
0.01163639
0.01167361
0.001814827
0.001646145
0.001666015
0.001669302
0.001670228
0.002084837
0.01159762
0.0115983
0.01159847
0.01159872
0.01159948
0.01160103
0.002104448
0.0009860538
0.00100118
0.001006903
0.001007724
0.001008326
0.01161433
0.01160262
0.0116019
0.01160193
0.01160139
0.0116018
0.0116019
0.01160486
0.01160373
0.01160369
0.01160364
0.01160363
0.01160364
0.01160368
0.01160456
0.01160369
0.01160368
0.01160366
0.01160365
0.0116037
0.01160377
0.01160454
0.01160374
0.01160372
0.01160371
0.01160373
0.01160378
0.01160388
0.01160456
0.01160378
0.0116038
0.0116038
0.01160385
0.01160393
0.01160404
0.01160456
0.01160383
0.01160389
0.01160394
0.01160403
0.01160416
0.01160432
0.01160456
0.01160391
0.01160403
0.01160414
0.0116043
0.01160453
0.01160477
0.01160458
0.01160407
0.01160425
0.01160444
0.0116047
0.01160505
0.01160544
0.01160463
0.01160432
0.01160459
0.01160489
0.0116053
0.01160582
0.01160641
0.01160477
0.01160473
0.01160514
0.01160557
0.01160617
0.01160693
0.01160781
0.011605
0.01160539
0.01160594
0.01160659
0.01160745
0.01160856
0.01160986
0.01160536
0.0116064
0.01160713
0.01160807
0.0116093
0.01161092
0.01161288
0.01160594
0.01160785
0.01160882
0.01161017
0.01161195
0.01161435
0.01161737
0.01160677
0.01160982
0.01161111
0.01161306
0.01161564
0.01161924
0.01162399
0.01160774
0.01161239
0.01161411
0.01161689
0.01162069
0.01162626
0.01163404
0.01160925
0.01161529
0.01161767
0.0116217
0.01162711
0.0116356
0.01164815
0.01161011
0.01161886
0.01162193
0.01162677
0.01163516
0.01164834
0.01167068
0.01161274
0.01162365
0.0116235
0.01163278
0.01164325
0.0116632
0.01169756
0.01160807
0.0116149
0.01161829
0.01162101
0.01163072
0.0116463
0.01167765
0.001891238
0.001815086
0.001831171
0.001834424
0.001835948
0.00207559
0.01159771
0.01159834
0.01159861
0.0115989
0.01159967
0.01160122
0.002090827
0.002138181
0.002207084
0.002216002
0.002207047
0.002210351
0.002216568
0.01161197
0.0116024
0.01160202
0.011602
0.01160193
0.0116019
0.01160197
0.01161275
0.01160242
0.01160206
0.01160198
0.01160197
0.01160197
0.01160201
0.01161361
0.01160243
0.01160206
0.01160199
0.01160199
0.01160203
0.01160208
0.01161289
0.01160244
0.01160211
0.01160204
0.01160206
0.01160211
0.0116022
0.01161287
0.01160248
0.01160216
0.01160213
0.01160216
0.01160225
0.01160236
0.01161278
0.01160255
0.01160223
0.01160226
0.01160233
0.01160248
0.01160263
0.0116127
0.01160271
0.01160236
0.01160246
0.01160259
0.01160284
0.01160308
0.01161257
0.01160299
0.01160256
0.01160275
0.01160298
0.01160336
0.01160374
0.0116124
0.0116033
0.01160289
0.01160321
0.01160356
0.01160412
0.0116047
0.01161265
0.01160375
0.01160341
0.01160391
0.01160442
0.01160523
0.01160608
0.01161171
0.01160442
0.01160418
0.01160492
0.01160569
0.01160685
0.01160807
0.01161133
0.01160545
0.01160536
0.01160641
0.01160753
0.01160921
0.01161096
0.01161053
0.01160687
0.01160705
0.01160853
0.01161018
0.01161265
0.01161546
0.01160978
0.01160879
0.01160941
0.01161144
0.01161387
0.01161752
0.01162189
0.01160923
0.01161124
0.01161246
0.01161529
0.01161894
0.01162456
0.01163225
0.01160835
0.01161442
0.01161617
0.01162017
0.01162548
0.01163408
0.01164654
0.01160623
0.01161763
0.01162031
0.01162559
0.01163344
0.0116465
0.01166768
0.01160629
0.01162191
0.01162386
0.01163061
0.01164098
0.01165958
0.01169348
0.0116179
0.01161339
0.01162163
0.01162503
0.0116312
0.01165599
0.01170055
0.01178503
0.002058175
0.01159802
0.01159824
0.01159846
0.01159891
0.01159982
0.01160152
0.004792882
0.004928521
0.004938852
0.004939673
0.004770632
0.00476668
0.004937639
0.01160208
0.0009463321
0.0009670637
0.0009740438
0.0009758042
0.0009767941
0.0009764034
0.0114795
0.0009676473
0.001008926
0.001022204
0.00102574
0.00102677
0.001026969
0.01160806
0.0009742387
0.001022085
0.001038995
0.001043728
0.001045173
0.001045532
0.01160588
0.000975791
0.001025594
0.001043767
0.00104912
0.001050834
0.00105132
0.01160599
0.000976216
0.001026626
0.001045277
0.001050933
0.001052822
0.001053403
0.01160618
0.0009763295
0.00102697
0.001045834
0.001051654
0.00105366
0.00105432
0.01160669
0.0009763094
0.001027057
0.001046027
0.001051949
0.001054046
0.001054784
0.01160774
0.0009762324
0.001027028
0.001046056
0.001052048
0.001054227
0.001055052
0.01160945
0.0009762921
0.001026939
0.001045988
0.001052034
0.001054296
0.001055219
0.01162436
0.0009765765
0.001026753
0.001045818
0.001051923
0.001054277
0.001055313
0.01161592
0.0009760427
0.001026444
0.001045508
0.001051695
0.001054151
0.001055323
0.01161982
0.000975638
0.001025955
0.001045019
0.001051287
0.001053857
0.001055187
0.0116153
0.0009748155
0.001025219
0.001044256
0.00105057
0.001053255
0.001054768
0.01161758
0.0009738541
0.001024087
0.001042957
0.00104924
0.001052024
0.001053742
0.01162779
0.0009728585
0.001022022
0.001040388
0.00104647
0.0010493
0.001051224
0.01162015
0.0009704296
0.001016897
0.001033951
0.001039577
0.0010424
0.001044476
0.01162586
0.0009608267
0.001000713
0.001014221
0.00101918
0.001022009
0.001023884
0.01160051
0.0009325655
0.0009525169
0.0009608229
0.0009665233
0.0009701174
0.0009704779
0.01161008
0.0112685
0.01103619
0.01078275
0.01052012
0.01032461
0.01002864
0.009540288
0.004651522
0.01159596
0.01159648
0.01159473
0.0115959
0.01158944
0.01159186
0.01159802
0.001946849
0.005001629
0.01164928
0.01160042
0.001955866
0.002014657
0.004792951
0.004942498
0.01149086
0.01158071
0.002026596
0.002034647
0.004928405
0.00495632
0.01150155
0.01156825
0.002035468
0.002036748
0.004938783
0.004960763
0.01148877
0.01156725
0.00203647
0.002037037
0.004941854
0.004961525
0.01149072
0.01157009
0.002036582
0.002037003
0.004942334
0.004961179
0.01148827
0.0115705
0.002036457
0.002036772
0.004941794
0.004960143
0.01148606
0.01157091
0.002036095
0.004940518
0.01148176
0.001957099
0.002013901
0.01160179
0.01006607
0.01160799
0.01006158
0.002026901
0.002033746
0.01160373
0.01005699
0.0116055
0.0100574
0.002035169
0.002035883
0.01160564
0.01005821
0.01160585
0.01005873
0.002035973
0.00203606
0.01160574
0.0100619
0.01160588
0.01006219
0.002035917
0.002035953
0.0116059
0.01006795
0.01160609
0.01006793
0.002035651
0.002035689
0.01160609
0.01007778
0.01160641
0.01007768
0.0020352
0.002035261
0.01160661
0.0100925
0.0116069
0.01009247
0.002034549
0.002034646
0.01160768
0.01011375
0.01160763
0.01011383
0.002033648
0.002033797
0.01160929
0.01014365
0.01160865
0.0101436
0.002032453
0.002032647
0.01161085
0.01018423
0.01161
0.01018383
0.002030905
0.002031144
0.01161269
0.01023762
0.01161159
0.01023713
0.002028946
0.002029218
0.0116149
0.0103078
0.0116135
0.01030706
0.002026502
0.002026794
0.01161745
0.01039701
0.01161583
0.0103965
0.002023503
0.002023779
0.01162027
0.01050765
0.01161815
0.01050692
0.002019851
0.002020045
0.01162329
0.01064387
0.01161983
0.01064211
0.002015424
0.002014914
0.01162608
0.01080512
0.01162041
0.01080159
0.002008571
0.0020017
0.0116296
0.01099479
0.01161804
0.01099186
0.001983223
0.001925741
0.01162607
0.0112034
0.01161106
0.01120644
0.001912552
0.003975467
0.01161418
0.01162648
0.01160989
0.008992519
0.004135651
0.005720861
0.01159446
0.009143854
0.004167488
0.004200694
0.01158688
0.01155665
0.009298797
0.004202192
0.004212827
0.0115871
0.01154184
0.009460873
0.004212691
0.004221639
0.01158683
0.01152861
0.009636482
0.004221275
0.004230334
0.01158618
0.01151412
0.009834291
0.004230114
0.004240003
0.01158556
0.01150082
0.01006736
0.004240026
0.004251928
0.01158537
0.01148103
0.004252247
0.01158582
0.001872135
0.00464831
0.01159475
0.004750251
0.01163297
0.01160301
0.004864905
0.01163953
0.01160328
0.005590572
0.01158731
0.005768969
0.01158813
0.004861979
0.01163079
0.01159512
0.004872878
0.01163041
0.01159465
0.005771424
0.01158747
0.00577878
0.01158747
0.004873243
0.01163028
0.01159364
0.004876
0.01163028
0.01159364
0.005779771
0.01158711
0.005781929
0.01158739
0.004875326
0.0116302
0.01159364
0.004875448
0.01163028
0.01159366
0.005782057
0.01158724
0.00578236
0.01158735
0.004875612
0.0116302
0.01159366
0.004875352
0.01163028
0.01159362
0.005782361
0.01158734
0.005782085
0.01158727
0.004874257
0.01163021
0.01159371
0.004871656
0.01163035
0.01159366
0.005781935
0.01158739
0.005779784
0.01158711
0.004871564
0.01163032
0.01159458
0.004863975
0.01163087
0.01159508
0.005778771
0.01158747
0.00577141
0.01158747
0.00486665
0.01163955
0.01160335
0.00474991
0.01163298
0.01160303
0.005768809
0.01158812
0.00558414
0.01158732
0.005001784
0.01164974
0.01160078
0.001946819
0.004942631
0.01149314
0.0115807
0.001955936
0.002014707
0.004956398
0.01150113
0.0115683
0.002026621
0.002034648
0.004960191
0.01148927
0.0115673
0.002035471
0.002036737
0.004889396
0.01149322
0.0115708
0.002036412
0.002036792
0.00459367
0.01149459
0.01156637
0.002035345
0.002035558
0.00495154
0.01147955
0.01157089
0.002036112
0.002036748
0.01148097
0.002036083
0.01006411
0.01161319
0.01004407
0.001958146
0.002022733
0.01007686
0.01161163
0.01003703
0.002043996
0.002042739
0.01005483
0.01160575
0.01005919
0.002036325
0.002035945
0.01006204
0.01160588
0.01006243
0.002035964
0.00203604
0.01006809
0.0116061
0.01006808
0.002035897
0.002035935
0.0100778
0.01160642
0.01007772
0.002035634
0.002035668
0.01009253
0.0116069
0.01009252
0.002035187
0.002035246
0.01011378
0.01160764
0.01011407
0.002034547
0.002034617
0.01014337
0.0116061
0.01013756
0.002033585
0.00203349
0.01016956
0.01160832
0.01016739
0.002030855
0.002032077
0.01022848
0.01161045
0.0102232
0.002037586
0.002041454
0.01038823
0.01161454
0.01038792
0.002032905
0.002035787
0.01050372
0.01161661
0.010503
0.002026731
0.002026997
0.01079295
0.01162905
0.01079202
0.002013236
0.002012778
0.01098631
0.01161471
0.01098282
0.002009931
0.002015956
0.01120358
0.01159926
0.01121868
0.002001489
0.00194197
0.01162747
0.01160759
0.001919917
0.003975392
0.005712623
0.01159456
0.008986337
0.004128928
0.011587
0.01155628
0.009047979
0.009547086
0.004119517
0.004191756
0.0115871
0.01154151
0.00936049
0.009618133
0.004200608
0.004212792
0.01158679
0.01152732
0.009521275
0.009659246
0.004212616
0.004211945
0.01158616
0.01151595
0.01018111
0.004167996
0.004178048
0.01158531
0.01150278
0.00422024
0.004239925
0.01158549
0.01147788
0.01003238
0.004240029
0.004248109
0.01158527
0.0101249
0.004226272
0.01159464
0.001872925
0.01155353
0.003974958
0.009228661
0.004147183
0.009213512
0.004168277
0.009252886
0.004192034
0.00923742
0.004202317
0.009253807
0.004195548
0.009237047
0.004203848
0.009259183
0.004195052
0.009242347
0.004203426
0.009268019
0.004194233
0.009251606
0.004202638
0.009282464
0.004192967
0.009266321
0.004201369
0.009304327
0.004191087
0.009287812
0.004199474
0.009335083
0.004188433
0.009318923
0.004196841
0.009377957
0.004184776
0.009362939
0.004193482
0.009435338
0.004179893
0.009421932
0.004188645
0.009511684
0.004173533
0.009499884
0.00418232
0.009610871
0.004165439
0.009600958
0.004174258
0.009737863
0.004155298
0.009731238
0.004164183
0.009897763
0.004142724
0.009894868
0.004151703
0.01009523
0.004127353
0.01009678
0.004136463
0.01033464
0.004109075
0.01033869
0.004118099
0.01062349
0.004086899
0.01062137
0.004095172
0.01094425
0.004057937
0.01093604
0.004050126
0.01125039
0.00398109
0.01123313
0.003887738
0.00198321
0.004001896
0.004026255
0.01126747
0.01126542
0.01161589
0.0116276
0.002009722
0.004042308
0.004057748
0.01103412
0.01103998
0.01161959
0.01163856
0.002018554
0.004076014
0.004091983
0.01078521
0.0108014
0.0116242
0.01165202
0.002026344
0.004112396
0.004129098
0.01052286
0.0105462
0.01162921
0.01167188
0.002035142
0.004153008
0.004172746
0.0102332
0.01026701
0.0116351
0.01170557
0.002045278
0.004201805
0.004226969
0.009912273
0.009965271
0.01164322
0.01177395
0.004263519
0.009551655
0.01165226
0.0128329
0.008794749
0.01160873
0.009031338
0.01632141
0.009076778
0.008878078
0.01162626
0.0116351
0.0162246
0.008896265
0.01650678
0.009234985
0.008929291
0.01163937
0.01164204
0.0164435
0.008943609
0.01669146
0.009393995
0.008981778
0.01164189
0.0116395
0.01664109
0.008991021
0.01688288
0.009562687
0.009034909
0.01163199
0.01162278
0.01684243
0.009040282
0.01709633
0.009748276
0.009092264
0.01160693
0.01158558
0.01706002
0.009093969
0.01735384
0.009960383
0.009157942
0.01156365
0.01152152
0.01731827
0.009156914
0.009239681
0.01150646
0.0176463
0.01157288
0.003850479
0.01157833
0.003958205
0.01143635
0.01144103
0.01163035
0.01160718
0.01161807
0.01163255
0.01160887
0.01785291
0.01161965
0.01782642
0.01161348
0.01143063
0.01143081
0.01161308
0.01161068
0.01160809
0.01161517
0.01161099
0.01785429
0.01161205
0.01785397
0.01161167
0.01142907
0.01142827
0.01161515
0.01161015
0.01160805
0.01161572
0.01160991
0.01785251
0.01161146
0.01785453
0.01161067
0.01142788
0.0114273
0.01161645
0.0116097
0.01160816
0.01161661
0.0116097
0.01785358
0.01161054
0.01785316
0.01161052
0.01142837
0.01142741
0.01161659
0.01160969
0.01160816
0.01161646
0.0116097
0.01785345
0.01161051
0.01785309
0.01161052
0.01142791
0.01142773
0.01161572
0.01160991
0.01160792
0.01161517
0.01161014
0.01785404
0.01161063
0.01785322
0.01161076
0.01142922
0.01142781
0.01161515
0.01161098
0.01160781
0.01161309
0.01161068
0.01785556
0.01161106
0.01785505
0.0116121
0.01143201
0.01142848
0.01163199
0.01160885
0.01161632
0.01163018
0.01160721
0.01785327
0.01161486
0.01785387
0.01161681
0.01152958
0.01146741
0.01028866
0.01161094
0.01028905
0.002043752
0.002043241
0.01063535
0.01164271
0.01063105
0.002028362
0.002021053
0.01126625
0.01161577
0.0116238
0.00192608
0.001980185
0.003997
0.003377505
0.01103919
0.0116208
0.0116352
0.00200084
0.00200803
0.003634532
0.003469062
0.01079685
0.01162516
0.01165498
0.002018048
0.002023393
0.003658253
0.00371917
0.01057115
0.0116294
0.01157102
0.002046739
0.002065575
0.003739167
0.004319695
0.0103193
0.01153812
0.01153033
0.002081433
0.00207978
0.004335729
0.004344859
0.009967974
0.01151843
0.01182281
0.002079857
0.002057178
0.004351089
0.003810293
0.01165716
0.002060358
0.004267598
0.01720455
0.0116136
0.01779716
0.01161744
0.009200666
0.004131319
0.009182078
0.004009537
0.01152981
0.01146723
0.00922611
0.00418969
0.009221906
0.004181698
0.009249945
0.004195624
0.009232647
0.00420346
0.009255098
0.00419553
0.009237449
0.004203918
0.009261373
0.004195031
0.009244072
0.004203438
0.009270892
0.00419422
0.009254201
0.004202672
0.009286111
0.004192946
0.009269842
0.00420146
0.009308872
0.004191041
0.009293266
0.004199614
0.009341111
0.004188345
0.009326614
0.004196885
0.009385587
0.004184634
0.009372564
0.004193132
0.009445686
0.004179643
0.009434604
0.004188106
0.009524961
0.004173089
0.009516805
0.004181522
0.009627416
0.004164715
0.009623215
0.004173102
0.009757423
0.004154072
0.009758964
0.004162184
0.00992132
0.004140968
0.00992944
0.004149023
0.0101242
0.004125093
0.01013813
0.00413298
0.01036989
0.004105556
0.01038971
0.004113552
0.01066453
0.004078807
0.01068794
0.004088988
0.01100096
0.004012045
0.0110196
0.004033229
0.01162516
0.00381046
0.01162236
0.00391158
0.01569612
0.008923002
0.008880445
0.01163653
0.0116477
0.01618767
0.00890103
0.01158337
0.003885526
0.01158509
0.003803762
0.01721355
0.01161474
0.01161853
0.01779286
0.01633673
0.009123078
0.008925376
0.01166212
0.01163025
0.01642256
0.008899372
0.01653058
0.009278665
0.008974453
0.01166954
0.01163875
0.01660963
0.008949669
0.01672595
0.009437589
0.00902391
0.01166531
0.01163635
0.01680037
0.009000862
0.01693054
0.009607464
0.009076417
0.0116492
0.01161998
0.01700471
0.009053737
0.01716174
0.009795105
0.00913588
0.01161943
0.011584
0.01724151
0.009112178
0.01744483
0.01000958
0.009208912
0.01158318
0.01153034
0.01753589
0.0091821
0.01143184
0.01142747
0.01785335
0.01161478
0.0116174
0.01785391
0.01142885
0.01142852
0.01785561
0.01161107
0.0116121
0.01785418
0.01142851
0.01142783
0.01785308
0.01161064
0.01161076
0.01785256
0.01142824
0.01142731
0.01785298
0.01161051
0.01161052
0.01785326
0.01142846
0.01142779
0.01785354
0.01161054
0.01161052
0.01785387
0.01142787
0.01142706
0.01785312
0.01161144
0.01161067
0.0178543
0.01143106
0.01143134
0.01785454
0.01161203
0.01161165
0.01785452
0.01143636
0.01144118
0.01785286
0.01161659
0.01161323
0.01783079
0.01155408
0.003973007
0.01140225
0.004138964
0.01151065
0.004011188
0.009201469
0.004130465
0.009186433
0.00400919
0.01156082
0.004150633
0.01137562
0.004168313
0.01157374
0.00420403
0.01151424
0.004181844
0.01156759
0.004198053
0.01137165
0.004199639
0.01158025
0.004214357
0.01151532
0.004205397
0.01157013
0.004203562
0.01136329
0.004202364
0.01157944
0.004215755
0.01151474
0.004207519
0.0115732
0.004204481
0.01136228
0.004202913
0.01158437
0.004213482
0.01153142
0.004207245
0.01143256
0.004199464
0.01130028
0.00423172
0.01160814
0.004242914
0.004964484
0.01153637
0.004331173
0.01156736
0.004198623
0.01136455
0.004200264
0.01157726
0.004215049
0.01151515
0.004206258
0.00420308
0.01135581
0.009239744
0.004146195
0.009215875
0.004168377
0.009183809
0.01115375
0.00425074
0.009126748
0.004200815
0.009086842
0.0110813
0.00427496
0.009063705
0.01109546
0.004285938
0.00915581
0.004214703
0.01117192
0.00919037
0.004265155
0.009255479
0.004195317
0.009250141
0.004203058
0.009257438
0.004195075
0.009236944
0.004203364
0.009258747
0.004194586
0.00924228
0.004202977
0.009261466
0.004194556
0.009244073
0.004202962
0.009268098
0.004193747
0.009251683
0.004202168
0.009270982
0.004193751
0.009254313
0.004202221
0.009282482
0.004192504
0.009266345
0.00420092
0.009286131
0.004192479
0.009269894
0.004201011
0.009304357
0.004190624
0.009287846
0.004199026
0.009308919
0.00419057
0.009293358
0.004199161
0.009335099
0.00418797
0.009318969
0.004196385
0.00934121
0.004187813
0.009327325
0.004196413
0.009381662
0.004184213
0.009363397
0.004192467
0.009386253
0.004178234
0.009393121
0.004191049
0.009263028
0.004208084
0.009346955
0.01125023
0.004310656
0.009417164
0.004189711
0.009471041
0.01121193
0.004238205
0.009422476
0.004211874
0.01120957
0.009440221
0.004239108
0.01061991
0.004110814
0.01059091
0.004107034
0.0106057
0.01154895
0.00415597
0.01152913
0.01061905
0.004144973
0.0116258
0.003811666
0.0116216
0.003909152
0.01282991
0.008806037
0.01160846
0.009030553
0.01569819
0.01163362
0.008927054
0.008888243
0.0116494
0.01651791
0.00890057
0.01158143