/*--------------------------------*- C++ -*----------------------------------*\
  =========                 |
  \\      /  F ield         | OpenFOAM: The Open Source CFD Toolbox
   \\    /   O peration     | Website:  https://openfoam.org
    \\  /    A nd           | Version:  7
     \\/     M anipulation  |
\*---------------------------------------------------------------------------*/
FoamFile
{
    version     2.0;
    format      ascii;
    class       volScalarField;
    location    "0.04";
    object      k;
}
// * * * * * * * * * * * * * * * * * * * * * * * * * * * * * * * * * * * * * //

dimensions      [0 2 -2 0 0 0 0];

internalField   nonuniform List<scalar> 
90967
(
0.003761637
0.0037615
0.003761855
0.00376185
0.003761912
0.003761865
0.003762118
0.003762271
0.003762843
0.003762903
0.003763002
0.003762995
0.00376213
0.003762451
0.003763146
0.003763244
0.003763426
0.00376348
0.003762106
0.003762471
0.003763239
0.003763406
0.003763669
0.003763813
0.003762007
0.003762425
0.003763265
0.003763513
0.003763879
0.003764137
0.003761853
0.003762323
0.003763235
0.003763583
0.00376407
0.003764469
0.003761614
0.003762145
0.003763143
0.00376361
0.003764243
0.003764812
0.003761267
0.003761869
0.003762966
0.003763577
0.003764383
0.003765154
0.003760782
0.003761468
0.00376268
0.003763463
0.003764476
0.003765489
0.003760129
0.003760909
0.003762256
0.003763244
0.003764505
0.003765807
0.003759271
0.00376016
0.003761665
0.003762897
0.003764454
0.003766104
0.003758179
0.003759187
0.00376088
0.003762403
0.003764313
0.003766382
0.00375681
0.003757958
0.003759872
0.003761739
0.003764066
0.00376664
0.003755143
0.003756464
0.003758643
0.003760918
0.003763739
0.003766914
0.00375314
0.003754674
0.003757157
0.003759889
0.003763264
0.003767137
0.003750891
0.003752701
0.003755558
0.003758825
0.003762823
0.00376749
0.003748367
0.003750462
0.003753652
0.003757362
0.003761858
0.003767209
0.003745952
0.003748644
0.00375215
0.003756256
0.003761251
0.003767341
0.003739732
0.003747236
0.003755787
0.003765462
0.003776827
0.003790102
0.003806303
0.003701833
0.003747146
0.003792165
0.003839195
0.003890202
0.00394702
0.004012689
0.003729105
0.003730468
0.003732592
0.003734886
0.0037371
0.003739701
0.003742698
0.003781109
0.00377848
0.003778988
0.003778896
0.00377863
0.003778341
0.003777935
0.003608868
0.003607441
0.003607367
0.003607361
0.003607351
0.003607353
0.003607358
0.003609499
0.003607438
0.003607355
0.003607339
0.003607338
0.00360734
0.003607348
0.003609268
0.003607434
0.003607352
0.003607339
0.003607341
0.00360735
0.003607363
0.003609322
0.003607437
0.003607362
0.003607351
0.003607355
0.003607365
0.003607384
0.003609326
0.003607447
0.00360737
0.003607367
0.003607375
0.003607393
0.003607416
0.003609396
0.003607462
0.003607386
0.003607393
0.003607408
0.003607438
0.00360747
0.00360951
0.003607498
0.003607412
0.003607432
0.003607459
0.003607508
0.003607557
0.003609491
0.003607562
0.003607455
0.003607494
0.003607536
0.003607611
0.003607688
0.003609447
0.003607635
0.003607525
0.003607589
0.003607655
0.003607765
0.003607881
0.003609396
0.003607734
0.003607638
0.003607735
0.003607834
0.003607993
0.003608166
0.00360934
0.003607887
0.003607813
0.003607953
0.0036081
0.003608331
0.00360859
0.003609288
0.003608113
0.003608073
0.003608274
0.003608491
0.003608826
0.00360922
0.003609247
0.003608434
0.003608447
0.003608734
0.003609058
0.003609555
0.003610166
0.003609228
0.003608874
0.003608962
0.003609367
0.00360985
0.003610594
0.003611563
0.003609231
0.003609432
0.003609634
0.003610206
0.003610944
0.003612099
0.003613703
0.003609248
0.003610132
0.003610474
0.003611276
0.003612366
0.003614141
0.00361675
0.003609193
0.003610853
0.003611405
0.003612469
0.003614102
0.003616841
0.003621329
0.003608759
0.00361186
0.00361224
0.003613633
0.003615804
0.00361974
0.003626794
0.003610438
0.003609557
0.003611835
0.003614018
0.003616526
0.003621245
0.003630016
0.003648428
0.003726933
0.003606701
0.003606743
0.003606785
0.003606873
0.003607058
0.003607412
0.003780292
0.003763225
0.003761812
0.003762484
0.00376227
0.003762281
0.003609222
0.003607407
0.003607351
0.003607356
0.003607338
0.003607336
0.003607343
0.003607518
0.003607324
0.003607316
0.003607308
0.003607305
0.003607307
0.003607316
0.003607459
0.003607316
0.003607315
0.003607312
0.003607311
0.00360732
0.003607331
0.003607456
0.003607325
0.003607321
0.003607322
0.003607324
0.003607334
0.003607353
0.003607459
0.003607333
0.003607338
0.003607338
0.003607347
0.003607362
0.003607385
0.00360746
0.003607344
0.003607354
0.003607364
0.003607382
0.003607408
0.003607439
0.003607464
0.003607363
0.003607385
0.003607404
0.003607435
0.003607478
0.003607528
0.003607473
0.003607397
0.003607431
0.003607465
0.003607515
0.003607582
0.003607659
0.003607492
0.003607455
0.003607506
0.003607561
0.003607636
0.003607736
0.003607853
0.003607527
0.003607551
0.003607623
0.003607706
0.003607817
0.003607965
0.003608139
0.003607588
0.003607701
0.0036078
0.003607923
0.003608086
0.003608303
0.003608563
0.003607685
0.003607928
0.003608061
0.003608241
0.003608479
0.003608799
0.003609192
0.003607827
0.003608253
0.003608434
0.003608697
0.003609046
0.003609525
0.003610134
0.003608031
0.003608696
0.003608943
0.003609325
0.003609837
0.003610564
0.003611534
0.003608276
0.003609273
0.003609608
0.003610163
0.003610931
0.003612067
0.003613671
0.003608635
0.003609937
0.0036104
0.003611223
0.003612324
0.003614075
0.003616672
0.003608862
0.003610748
0.003611345
0.003612343
0.003614096
0.003616846
0.003621508
0.003609496
0.003611831
0.003611754
0.003613738
0.00361593
0.003620113
0.003627323
0.00360838
0.00360996
0.003610615
0.003610939
0.003613125
0.003616377
0.003622949
0.003731889
0.003733704
0.003735338
0.00373725
0.003739653
0.003726562
0.003606675
0.003606754
0.003606819
0.003606865
0.003607018
0.003607336
0.003781814
0.003763535
0.003762381
0.003763203
0.003763003
0.003763025
0.003609017
0.003607416
0.003607343
0.003607353
0.003607335
0.003607335
0.003607337
0.00360745
0.003607312
0.003607312
0.003607307
0.003607305
0.003607307
0.003607316
0.003607413
0.003607299
0.003607302
0.003607306
0.00360731
0.00360732
0.003607331
0.003607418
0.003607301
0.00360731
0.003607317
0.003607322
0.003607333
0.003607352
0.003607422
0.003607312
0.003607325
0.003607334
0.003607345
0.003607361
0.003607385
0.00360742
0.003607326
0.003607342
0.00360736
0.003607379
0.003607406
0.003607438
0.003607424
0.003607348
0.003607372
0.0036074
0.003607431
0.003607475
0.003607526
0.003607427
0.003607385
0.003607418
0.003607462
0.003607511
0.003607579
0.003607658
0.003607436
0.003607447
0.003607493
0.003607558
0.003607632
0.003607733
0.003607852
0.003607452
0.003607547
0.00360761
0.003607704
0.003607813
0.003607963
0.003608139
0.003607479
0.003607703
0.003607788
0.003607924
0.003608084
0.003608303
0.003608566
0.003607522
0.003607935
0.003608052
0.003608247
0.003608482
0.003608804
0.003609203
0.003607581
0.003608268
0.003608431
0.003608711
0.003609058
0.00360954
0.003610159
0.003607664
0.003608716
0.003608949
0.003609355
0.00360987
0.003610606
0.003611599
0.003607735
0.00360931
0.003609636
0.003610221
0.003610994
0.003612146
0.003613789
0.003607878
0.00360997
0.003610437
0.003611302
0.003612413
0.00361421
0.003616877
0.003607818
0.003610825
0.003611433
0.003612445
0.003614247
0.00361709
0.003621956
0.003608371
0.003611799
0.003611717
0.00361386
0.003616049
0.003620389
0.003627906
0.0036084
0.003610117
0.003610398
0.003609058
0.003611474
0.003614107
0.003621924
0.003732985
0.00373514
0.003736612
0.003738306
0.003740467
0.003726407
0.003606661
0.003606766
0.003606839
0.003606871
0.00360702
0.003607338
0.003782137
0.003763597
0.003762467
0.003763385
0.003763158
0.003763202
0.003609019
0.003607407
0.00360734
0.003607352
0.003607335
0.003607333
0.003607336
0.003607479
0.003607301
0.003607301
0.003607303
0.003607303
0.003607306
0.003607315
0.003607415
0.003607283
0.003607292
0.003607302
0.003607307
0.003607319
0.003607331
0.003607414
0.003607288
0.003607295
0.003607309
0.003607318
0.003607331
0.003607352
0.003607421
0.003607295
0.003607311
0.003607325
0.003607341
0.003607359
0.003607384
0.003607419
0.003607307
0.003607327
0.003607351
0.003607375
0.003607403
0.003607438
0.003607422
0.003607326
0.003607357
0.00360739
0.003607428
0.003607473
0.003607526
0.003607425
0.003607361
0.003607403
0.003607452
0.003607509
0.003607577
0.003607658
0.003607433
0.003607421
0.003607478
0.003607547
0.003607631
0.003607732
0.003607852
0.00360745
0.003607519
0.003607595
0.003607693
0.003607813
0.003607962
0.00360814
0.003607478
0.003607672
0.003607774
0.003607913
0.003608086
0.003608303
0.003608568
0.003607523
0.003607903
0.003608039
0.003608236
0.003608485
0.003608806
0.003609208
0.003607584
0.003608234
0.003608418
0.0036087
0.003609063
0.003609544
0.003610165
0.003607671
0.003608681
0.003608936
0.003609342
0.003609874
0.003610604
0.0036116
0.003607746
0.003609276
0.003609624
0.003610203
0.003610985
0.003612129
0.003613776
0.003607906
0.003609933
0.003610416
0.003611272
0.003612391
0.003614208
0.003616915
0.003607843
0.003610824
0.003611434
0.003612434
0.003614289
0.003617203
0.003622239
0.003608458
0.003611771
0.003611691
0.003613932
0.003616165
0.003620632
0.003628371
0.003608454
0.003610105
0.003610653
0.003608997
0.003611805
0.003614586
0.003622681
0.003732906
0.003734987
0.003736495
0.003738206
0.003740403
0.003726385
0.003606657
0.003606768
0.00360684
0.003606872
0.003607022
0.003607341
0.003782174
0.003763597
0.003762467
0.003763385
0.003763157
0.003763202
0.003609015
0.003607407
0.00360734
0.003607352
0.003607335
0.003607333
0.003607336
0.003607479
0.003607301
0.003607301
0.003607303
0.003607303
0.003607306
0.003607315
0.003607415
0.003607283
0.003607292
0.003607302
0.003607307
0.003607319
0.003607331
0.003607414
0.003607288
0.003607295
0.003607309
0.003607318
0.003607331
0.003607352
0.003607421
0.003607295
0.003607311
0.003607325
0.003607341
0.003607359
0.003607384
0.003607419
0.003607307
0.003607327
0.003607351
0.003607375
0.003607403
0.003607438
0.003607422
0.003607326
0.003607357
0.00360739
0.003607428
0.003607473
0.003607526
0.003607425
0.003607362
0.003607403
0.003607452
0.003607509
0.003607577
0.003607658
0.003607433
0.003607421
0.003607478
0.003607547
0.003607631
0.003607732
0.003607853
0.00360745
0.003607519
0.003607595
0.003607693
0.003607813
0.003607962
0.00360814
0.003607479
0.003607672
0.003607774
0.003607913
0.003608086
0.003608303
0.003608568
0.003607522
0.003607903
0.003608039
0.003608236
0.003608485
0.003608806
0.003609208
0.003607584
0.003608234
0.003608418
0.0036087
0.003609063
0.003609544
0.003610165
0.003607671
0.003608681
0.003608936
0.003609343
0.003609874
0.003610604
0.0036116
0.003607745
0.003609277
0.003609623
0.003610203
0.003610985
0.003612129
0.003613776
0.003607907
0.003609933
0.003610416
0.003611272
0.003612393
0.003614209
0.003616917
0.003607844
0.003610824
0.003611437
0.003612436
0.00361429
0.003617202
0.003622237
0.003608457
0.00361177
0.003611691
0.00361393
0.003616164
0.003620635
0.003628381
0.003608452
0.003610099
0.003610655
0.003609002
0.003611806
0.003614578
0.003622684
0.003732911
0.003734986
0.003736496
0.003738207
0.003740404
0.003726388
0.003606658
0.003606768
0.00360684
0.003606872
0.003607022
0.003607341
0.003782123
0.003763535
0.003762381
0.0037632
0.003763
0.003763023
0.003609027
0.003607416
0.003607343
0.003607353
0.003607336
0.003607335
0.003607337
0.00360745
0.003607312
0.003607312
0.003607307
0.003607305
0.003607308
0.003607316
0.003607413
0.003607299
0.003607302
0.003607307
0.00360731
0.00360732
0.003607331
0.003607418
0.003607301
0.00360731
0.003607317
0.003607322
0.003607333
0.003607352
0.003607422
0.003607312
0.003607325
0.003607334
0.003607345
0.003607361
0.003607385
0.00360742
0.003607326
0.003607342
0.00360736
0.003607379
0.003607406
0.003607438
0.003607424
0.003607348
0.003607372
0.0036074
0.003607431
0.003607475
0.003607526
0.003607427
0.003607385
0.003607418
0.003607462
0.003607511
0.003607579
0.003607658
0.003607435
0.003607447
0.003607493
0.003607558
0.003607632
0.003607733
0.003607852
0.003607451
0.003607547
0.00360761
0.003607704
0.003607814
0.003607963
0.003608139
0.00360748
0.003607703
0.003607788
0.003607924
0.003608084
0.003608303
0.003608566
0.003607522
0.003607934
0.003608052
0.003608248
0.003608482
0.003608805
0.003609203
0.003607583
0.003608267
0.003608431
0.003608712
0.003609058
0.003609541
0.00361016
0.003607664
0.003608715
0.00360895
0.003609355
0.00360987
0.003610607
0.003611599
0.003607735
0.003609309
0.003609638
0.003610222
0.003610996
0.003612149
0.00361379
0.003607879
0.003609969
0.003610437
0.003611304
0.003612415
0.003614213
0.003616878
0.003607819
0.003610824
0.003611428
0.003612446
0.003614251
0.0036171
0.003621966
0.003608372
0.0036118
0.00361172
0.003613872
0.003616063
0.003620384
0.003627881
0.003608428
0.003610092
0.003610386
0.003609029
0.003611454
0.003614141
0.003621984
0.003732987
0.003735137
0.003736611
0.003738305
0.003740464
0.003726394
0.003606661
0.003606766
0.003606839
0.003606871
0.00360702
0.003607338
0.00378175
0.003763226
0.003761811
0.003762474
0.003762253
0.003762272
0.003609186
0.003607408
0.003607351
0.003607355
0.00360734
0.003607336
0.003607343
0.003607517
0.003607324
0.003607315
0.003607308
0.003607305
0.003607307
0.003607316
0.003607459
0.003607316
0.003607315
0.003607312
0.003607311
0.00360732
0.003607331
0.003607455
0.003607325
0.003607321
0.003607322
0.003607324
0.003607334
0.003607353
0.003607459
0.003607333
0.003607338
0.003607338
0.003607347
0.003607362
0.003607385
0.00360746
0.003607344
0.003607354
0.003607364
0.003607382
0.003607408
0.003607439
0.003607464
0.003607363
0.003607385
0.003607404
0.003607435
0.003607478
0.003607528
0.003607473
0.003607397
0.003607431
0.003607465
0.003607515
0.003607582
0.003607659
0.003607491
0.003607457
0.003607505
0.00360756
0.003607636
0.003607736
0.003607853
0.003607528
0.003607549
0.003607624
0.003607705
0.003607818
0.003607965
0.003608139
0.003607589
0.003607699
0.003607801
0.003607922
0.003608086
0.003608303
0.003608563
0.003607683
0.003607929
0.003608062
0.003608241
0.00360848
0.003608799
0.003609192
0.003607825
0.003608256
0.003608435
0.003608697
0.003609046
0.003609525
0.003610134
0.003608029
0.0036087
0.003608942
0.003609326
0.003609838
0.003610565
0.003611535
0.00360827
0.00360928
0.003609606
0.003610163
0.003610931
0.003612068
0.003613671
0.003608634
0.003609936
0.003610401
0.003611221
0.003612328
0.00361408
0.003616676
0.003608865
0.003610743
0.003611358
0.003612349
0.003614089
0.003616833
0.003621495
0.003609491
0.003611824
0.003611748
0.003613713
0.003615912
0.003620139
0.003627408
0.003608433
0.003609889
0.003610632
0.003611129
0.003613132
0.003616377
0.003622959
0.003731889
0.003733698
0.003735345
0.003737252
0.003739651
0.00372649
0.003606675
0.003606754
0.003606819
0.003606865
0.003607017
0.003607336
0.003782935
0.003780588
0.003780876
0.003781406
0.003780194
0.003779905
0.003779487
0.003608687
0.003607445
0.003607368
0.003607361
0.003607352
0.003607352
0.003607358
0.00360881
0.003607438
0.003607355
0.003607339
0.003607338
0.00360734
0.003607348
0.003608985
0.003607435
0.003607352
0.00360734
0.003607341
0.00360735
0.003607363
0.003608824
0.003607438
0.003607362
0.003607351
0.003607355
0.003607365
0.003607384
0.003608823
0.003607447
0.00360737
0.003607367
0.003607375
0.003607393
0.003607416
0.003608808
0.003607462
0.003607386
0.003607393
0.003607408
0.003607438
0.00360747
0.003608795
0.003607498
0.003607412
0.003607432
0.003607459
0.003607508
0.003607557
0.003608776
0.003607561
0.003607455
0.003607493
0.003607536
0.003607611
0.003607688
0.003608754
0.003607629
0.003607527
0.003607589
0.003607655
0.003607765
0.003607881
0.003608834
0.00360773
0.003607639
0.003607737
0.003607834
0.003607994
0.003608166
0.003608643
0.003607884
0.003607809
0.003607954
0.0036081
0.003608332
0.00360859
0.003608594
0.003608116
0.00360807
0.003608276
0.003608492
0.003608828
0.00360922
0.003608466
0.003608438
0.003608443
0.003608736
0.003609058
0.003609557
0.003610167
0.003608353
0.003608872
0.003608965
0.003609369
0.003609853
0.0036106
0.003611566
0.003608301
0.003609425
0.003609642
0.003610211
0.00361095
0.003612108
0.003613704
0.003608194
0.003610139
0.003610467
0.003611281
0.00361237
0.003614159
0.003616767
0.003607832
0.003610873
0.003611394
0.003612479
0.00361411
0.003616848
0.003621304
0.00360796
0.003611855
0.003612224
0.003613622
0.003615792
0.003619715
0.003626868
0.003610583
0.003609531
0.003611242
0.003611869
0.00361305
0.003618276
0.003627658
0.003645232
0.003726841
0.003606701
0.003606742
0.003606784
0.003606874
0.003607057
0.003607409
0.003831035
0.003837817
0.003839201
0.003839809
0.003837954
0.003837649
0.003838663
0.003611983
0.003761605
0.003761532
0.003761862
0.003761851
0.003761925
0.003761869
0.003610982
0.003762122
0.003762287
0.003762838
0.003762903
0.003763
0.003762997
0.003612701
0.003762122
0.003762467
0.003763146
0.003763247
0.003763425
0.003763481
0.003612272
0.003762104
0.003762473
0.003763238
0.003763407
0.003763668
0.003763814
0.003612229
0.003762006
0.003762427
0.003763265
0.003763514
0.003763879
0.003764137
0.00361217
0.003761853
0.003762323
0.003763235
0.003763583
0.00376407
0.003764469
0.003612143
0.003761613
0.003762145
0.003763143
0.00376361
0.003764243
0.003764812
0.00361216
0.003761268
0.003761869
0.003762967
0.003763576
0.003764383
0.003765154
0.003612227
0.003760789
0.00376147
0.003762682
0.003763463
0.003764476
0.003765489
0.003614746
0.003760151
0.003760894
0.003762258
0.003763241
0.003764505
0.003765807
0.003612751
0.003759284
0.003760166
0.003761668
0.003762898
0.003764455
0.003766105
0.003613149
0.003758174
0.003759196
0.003760879
0.003762404
0.003764313
0.003766383
0.003611501
0.003756814
0.003757963
0.003759873
0.003761739
0.003764067
0.003766642
0.003611428
0.003755149
0.003756467
0.003758644
0.003760917
0.003763741
0.003766917
0.003613203
0.003753149
0.003754671
0.003757157
0.003759887
0.003763267
0.003767144
0.00361111
0.003750919
0.003752683
0.003755556
0.003758824
0.003762843
0.003767509
0.003612103
0.003748374
0.003750455
0.003753651
0.003757373
0.003761883
0.003767245
0.003608961
0.003745966
0.00374864
0.00375213
0.003756359
0.00376152
0.003767512
0.003608706
0.003613369
0.003616793
0.003621731
0.003626482
0.003637632
0.003654269
0.003656192
0.003697153
0.003606779
0.003606873
0.003607028
0.003606916
0.003607527
0.003607659
0.003607909
0.003780334
0.003840633
0.003616055
0.003609725
0.003776131
0.003780152
0.003831057
0.003847248
0.003610145
0.003609008
0.003778724
0.003780452
0.003837758
0.003849436
0.003610122
0.003609183
0.003779639
0.003780419
0.003839144
0.003850328
0.003610273
0.003609286
0.003779763
0.003780432
0.003839723
0.003850526
0.003610213
0.003609372
0.003779752
0.003780316
0.003839805
0.003850268
0.003610282
0.003609397
0.003779589
0.003780082
0.00383945
0.003849712
0.003610293
0.003609413
0.003779281
0.003838784
0.003610335
0.003777811
0.003779158
0.003611971
0.003629611
0.003612866
0.003630162
0.003779117
0.003779239
0.003611946
0.003629938
0.00361229
0.003629622
0.003779247
0.003779258
0.003612287
0.003629589
0.003612306
0.00362959
0.003779117
0.003779124
0.003612257
0.003629552
0.003612269
0.00362957
0.003778882
0.003778897
0.003612223
0.003629487
0.003612248
0.003629499
0.00377849
0.003778523
0.003612165
0.003629399
0.003612211
0.003629393
0.003777887
0.00377796
0.00361214
0.003629304
0.003612157
0.003629237
0.003777035
0.003777162
0.003612161
0.003629197
0.003612091
0.003629
0.003775863
0.003776058
0.003612222
0.003629072
0.003612013
0.003628629
0.003774313
0.003774569
0.003612184
0.003628684
0.003611922
0.003628119
0.003772297
0.003772616
0.003612121
0.003628036
0.003611791
0.003627456
0.003769747
0.00377012
0.003612067
0.003627218
0.003611667
0.003626651
0.003766571
0.003766982
0.003612038
0.003626194
0.00361159
0.003625669
0.003762683
0.003763104
0.003612069
0.003624952
0.003611511
0.00362432
0.003757987
0.003758409
0.003612188
0.003623438
0.003611344
0.003622494
0.003752529
0.003752958
0.003612372
0.003621601
0.003611064
0.003620233
0.003746342
0.003746717
0.003612901
0.003618386
0.003610336
0.003617256
0.003740021
0.003740024
0.003612084
0.003614666
0.003608849
0.003614032
0.003736276
0.003717707
0.00360961
0.003614778
0.003608761
0.003683342
0.003705008
0.003684255
0.003606998
0.003726205
0.003704558
0.003709161
0.003606956
0.003607827
0.003770446
0.003708917
0.003713904
0.003607001
0.003608236
0.003816668
0.003713575
0.00371872
0.003607149
0.003608555
0.003866381
0.003718445
0.003723924
0.003607317
0.003609094
0.003921988
0.003723796
0.003729835
0.00360751
0.003609762
0.003986982
0.003729877
0.003737182
0.003607758
0.003610847
0.003737463
0.003608175
0.003729352
0.003697173
0.003606749
0.003817885
0.003612235
0.003609106
0.003824582
0.0036138
0.003609664
0.003685539
0.003607088
0.003683618
0.003607164
0.003822154
0.003611817
0.003609164
0.003824321
0.003611731
0.003609243
0.003683171
0.003607059
0.003683109
0.003607111
0.003824177
0.003611726
0.003609058
0.003824605
0.003611712
0.003609096
0.003683084
0.003607056
0.003683104
0.003607119
0.003824587
0.00361171
0.003609093
0.003824618
0.003611713
0.003609097
0.003683088
0.003607088
0.003683133
0.00360711
0.003824646
0.00361171
0.003609102
0.003824563
0.003611714
0.003609088
0.003683133
0.003607109
0.003683097
0.003607092
0.003824535
0.003611712
0.003609101
0.003824068
0.003611728
0.003609063
0.003683111
0.003607119
0.003683089
0.003607057
0.003824224
0.003611728
0.003609223
0.003822218
0.003611822
0.003609167
0.003683111
0.003607111
0.003683174
0.003607058
0.003824668
0.003613819
0.003609679
0.003817926
0.003612232
0.003609095
0.003683617
0.00360716
0.003685628
0.003607088
0.00384062
0.003616148
0.003609812
0.003780329
0.003847313
0.003610124
0.003609007
0.003776102
0.003780197
0.003849486
0.003610128
0.003609182
0.003778752
0.003780462
0.003850438
0.003610268
0.00360928
0.003779652
0.003780433
0.003848954
0.003610171
0.003609347
0.003779772
0.003780395
0.003840845
0.003610501
0.003609553
0.003780071
0.003780628
0.00384937
0.003610392
0.003609409
0.00377958
0.003780148
0.003610336
0.003779294
0.003629684
0.00361436
0.003630454
0.00377789
0.003779771
0.003629919
0.003613495
0.003629765
0.00378072
0.003779907
0.003629672
0.00361229
0.003629572
0.003779384
0.003779271
0.003629546
0.003612269
0.003629567
0.003779121
0.003779118
0.003629485
0.003612249
0.003629498
0.003778877
0.003778891
0.003629397
0.003612212
0.003629393
0.003778488
0.003778521
0.003629302
0.003612157
0.003629234
0.003777886
0.003777958
0.00362919
0.003612088
0.003628993
0.003777036
0.003777159
0.003629076
0.003611246
0.003628832
0.003775878
0.003776109
0.003629508
0.003611395
0.003628322
0.003774408
0.003774671
0.003628253
0.00361146
0.003627578
0.00377248
0.003772924
0.003626273
0.003611276
0.003625908
0.003766657
0.003767231
0.003624876
0.003611159
0.003624355
0.003762682
0.003763151
0.003621649
0.003612983
0.003621251
0.003752551
0.00375304
0.003617966
0.003609687
0.0036173
0.003746327
0.003746891
0.003614677
0.003608401
0.003614568
0.003740313
0.003740474
0.003614974
0.003608259
0.003736376
0.003717776
0.003684292
0.003607015
0.003683325
0.00370506
0.003606968
0.003607803
0.003702426
0.003727547
0.003705175
0.003709292
0.003607005
0.003608221
0.003747535
0.003775312
0.003708962
0.003713919
0.003607142
0.003608584
0.003793776
0.003820919
0.003713585
0.003718625
0.00360731
0.003609242
0.003846054
0.003718274
0.003724467
0.003607513
0.003609721
0.003723605
0.003729832
0.003607755
0.003610942
0.003976046
0.003729809
0.003735794
0.003608288
0.004010792
0.003735729
0.003606747
0.003729366
0.00361443
0.003821883
0.003646935
0.003815903
0.003647201
0.003815663
0.003648099
0.003817811
0.003646981
0.003817154
0.003648595
0.003818041
0.003647037
0.003817266
0.00364853
0.003817729
0.003646919
0.003816964
0.00364832
0.003817224
0.003646725
0.003816462
0.003647968
0.003816425
0.003646365
0.003815662
0.003647448
0.003815237
0.003645848
0.003814469
0.003646703
0.00381356
0.003645164
0.003812806
0.003645703
0.003811245
0.003644263
0.003810684
0.00364434
0.003808146
0.003643163
0.003807621
0.003642658
0.003804103
0.003641805
0.003803608
0.00364062
0.00379895
0.003640211
0.003798485
0.003638141
0.003792479
0.003638394
0.003792069
0.003635229
0.003784432
0.00363633
0.003784109
0.003631866
0.003774575
0.003634022
0.003774357
0.0036281
0.003762811
0.003631065
0.003762594
0.003623479
0.003748556
0.003625455
0.00374829
0.003618867
0.003733339
0.003619417
0.003733073
0.003616228
0.003719444
0.003615166
0.003719519
0.003739748
0.003725122
0.003734496
0.003613317
0.003614897
0.003609996
0.003612451
0.003746702
0.003744104
0.003753669
0.003616761
0.003620005
0.003610702
0.00361481
0.003755117
0.003765631
0.003775938
0.003621282
0.003627289
0.003611927
0.003618049
0.003764887
0.003789326
0.003800141
0.003626522
0.003634764
0.003613791
0.003623307
0.00377635
0.003815814
0.003828601
0.003633225
0.003644927
0.003616818
0.00363273
0.003789803
0.00384757
0.00386391
0.003642779
0.00366119
0.003622048
0.0036519
0.003887646
0.003657966
0.003630678
0.00359939
0.003661127
0.003608441
0.00364618
0.003593085
0.003707284
0.003656329
0.003611563
0.003613578
0.003581041
0.003661953
0.003621365
0.003752276
0.003671562
0.003615119
0.003616112
0.003611727
0.003675565
0.003649348
0.003797665
0.003686502
0.003618654
0.003618874
0.003641827
0.003689038
0.00367849
0.003845511
0.003701703
0.003622691
0.003621854
0.00367253
0.003703134
0.003710878
0.003897765
0.003718105
0.003628082
0.003625266
0.003705633
0.003718485
0.003749779
0.003956998
0.003736849
0.003636565
0.003630037
0.00374475
0.003736429
0.003760086
0.00365258
0.003794134
0.003607297
0.003705995
0.003607057
0.003706738
0.003616829
0.003616691
0.003613287
0.003608163
0.003610619
0.00361376
0.003608519
0.003529711
0.003610627
0.00353018
0.003609294
0.003616264
0.003616433
0.003609567
0.003608918
0.003608436
0.003610013
0.003608991
0.003529535
0.003608998
0.003529491
0.003608922
0.003616256
0.00361627
0.00361002
0.003608811
0.003608428
0.00361014
0.003608761
0.003529534
0.003608895
0.003529692
0.003608725
0.003616327
0.003616339
0.0036103
0.003608716
0.003608452
0.003610332
0.003608715
0.003529587
0.003608697
0.003529517
0.003608694
0.003616307
0.003616372
0.003610331
0.003608715
0.003608453
0.003610299
0.003608715
0.003529576
0.003608691
0.003529515
0.003608694
0.003616365
0.003616341
0.003610142
0.00360876
0.003608401
0.003610021
0.00360881
0.003529729
0.003608719
0.003529636
0.003608747
0.003616379
0.003616367
0.003610011
0.00360899
0.003608376
0.003609565
0.00360892
0.003529654
0.0036088
0.003529631
0.003609026
0.003616539
0.003616266
0.003613641
0.003608516
0.003610243
0.003613247
0.003608171
0.003529605
0.003609627
0.003529594
0.003610044
0.003615966
0.003617492
0.003627446
0.003611118
0.003626842
0.003770247
0.003770557
0.003623648
0.003616375
0.003623087
0.003758127
0.003758478
0.003614814
0.003609971
0.003611622
0.003739683
0.003739679
0.003725201
0.003733337
0.003620015
0.003610961
0.003614076
0.003746983
0.00374665
0.003741625
0.003748404
0.003628422
0.003612154
0.003618711
0.00375571
0.003755585
0.003760066
0.003769973
0.003628406
0.003613772
0.003615703
0.00376683
0.003767647
0.003778159
0.003798113
0.003640558
0.003617173
0.003616912
0.003780314
0.00377992
0.003813767
0.003826309
0.003660931
0.003626155
0.003663201
0.003793041
0.00379019
0.003845964
0.00384466
0.003631987
0.003806535
0.003888732
0.003537988
0.003609266
0.003530544
0.003610159
0.003645297
0.003818791
0.003649493
0.003814095
0.003616002
0.003617492
0.003647516
0.003818206
0.003646603
0.003817243
0.003648575
0.003818245
0.003647011
0.003817434
0.003648793
0.003818059
0.0036471
0.003817283
0.003648734
0.003817724
0.003647066
0.003816974
0.003648593
0.003817216
0.00364699
0.003816492
0.003648348
0.003816417
0.003646823
0.003815733
0.00364797
0.00381522
0.003646544
0.003814575
0.003647442
0.003813522
0.003646181
0.003812859
0.003646691
0.003811178
0.003645692
0.003810493
0.003645656
0.003808017
0.003645038
0.003807316
0.003644282
0.003803856
0.003644192
0.003803145
0.003642518
0.003798529
0.00364318
0.003797799
0.003640214
0.003791734
0.003641902
0.003790846
0.003637387
0.003783353
0.003640109
0.003782439
0.003633952
0.003773178
0.003637275
0.003772164
0.003629989
0.003760628
0.003633995
0.003759713
0.003624548
0.003745516
0.003628859
0.003744654
0.00361817
0.003729265
0.003621339
0.003728554
0.003614898
0.003710643
0.003612931
0.003714052
0.003567335
0.00367625
0.003655678
0.00361389
0.003616551
0.003579313
0.003648154
0.003606955
0.003705359
0.003606929
0.003705424
0.003538042
0.003609517
0.003610376
0.003530562
0.003595536
0.003720337
0.003670414
0.003619397
0.003612489
0.003608552
0.003662975
0.003625025
0.003764703
0.003684378
0.00362253
0.003615607
0.003637033
0.003677326
0.00365472
0.003809965
0.003698479
0.003625617
0.003618698
0.003665976
0.003691905
0.003685913
0.003857995
0.003713483
0.00362969
0.003622116
0.003697047
0.003707047
0.003721019
0.00391063
0.003730426
0.003636131
0.003626401
0.003732846
0.003723763
0.003763784
0.003970278
0.003751183
0.003649171
0.003634256
0.003777144
0.003743693
0.00361658
0.003616334
0.003529621
0.003609612
0.003610171
0.003529588
0.003616423
0.003616318
0.003529651
0.003608802
0.003609027
0.003529511
0.003616339
0.003616317
0.003529588
0.003608721
0.003608746
0.003529539
0.00361634
0.003616395
0.003529497
0.003608691
0.003608694
0.003529539
0.003616323
0.003616361
0.003529578
0.003608697
0.003608693
0.003529602
0.003616337
0.003616366
0.00352961
0.003608891
0.003608725
0.003529652
0.003616225
0.003616415
0.003529572
0.003608994
0.003608918
0.003529551
0.003616805
0.003616658
0.003529709
0.00360996
0.003609245
0.003530118
0.003614499
0.003821802
0.003615328
0.00382404
0.003614041
0.003816057
0.003645211
0.003818716
0.003650103
0.003814082
0.003613886
0.003818503
0.003615586
0.003816345
0.003614771
0.003827876
0.003615788
0.003818156
0.003614105
0.003822016
0.003616541
0.003816149
0.003616307
0.003830659
0.003616684
0.003819514
0.003614324
0.003823487
0.003617386
0.003817
0.003616217
0.00383139
0.003616265
0.003820397
0.003613949
0.003824009