/*--------------------------------*- C++ -*----------------------------------*\
  =========                 |
  \\      /  F ield         | OpenFOAM: The Open Source CFD Toolbox
   \\    /   O peration     | Website:  https://openfoam.org
    \\  /    A nd           | Version:  7
     \\/     M anipulation  |
\*---------------------------------------------------------------------------*/
FoamFile
{
    version     2.0;
    format      ascii;
    class       volScalarField;
    location    "0.04";
    object      nut;
}
// * * * * * * * * * * * * * * * * * * * * * * * * * * * * * * * * * * * * * //

dimensions      [0 2 -1 0 0 0 0];

internalField   nonuniform List<scalar> 
109978
(
0.0006560208
0.0006381114
0.0006365727
0.000636405
0.000636418
0.0006366045
0.0006381394
0.0006061383
0.0006030832
0.0006027128
0.000602728
0.000602986
0.0006366085
0.000603093
0.0005996223
0.000599149
0.0005991579
0.0005994679
0.000636439
0.000602709
0.0005991296
0.0005986113
0.0005986133
0.0005989424
0.000636412
0.0006026349
0.0005990211
0.0005984824
0.0005984789
0.0005988132
0.0006364113
0.000602619
0.0005989941
0.0005984474
0.0005984394
0.000598775
0.0006364176
0.0006026213
0.0005989898
0.0005984388
0.0005984295
0.0005987657
0.0006364272
0.0006026286
0.0005989956
0.0005984435
0.0005984328
0.000598769
0.0006364387
0.0006026394
0.0005990054
0.0005984526
0.0005984414
0.0005987776
0.000636452
0.0006026523
0.000599018
0.0005984647
0.0005984533
0.0005987895
0.0006364669
0.000602667
0.0005990324
0.000598479
0.0005984671
0.0005988037
0.0006364833
0.0006026833
0.0005990486
0.0005984951
0.0005984832
0.0005988197
0.0006365012
0.0006027013
0.0005990665
0.000598513
0.0005985009
0.0005988373
0.0006365209
0.0006027209
0.0005990861
0.0005985325
0.0005985204
0.0005988566
0.0006365421
0.0006027423
0.0005991074
0.0005985538
0.0005985416
0.0005988777
0.0006365652
0.0006027655
0.0005991306
0.0005985771
0.0005985647
0.0005989008
0.0006365901
0.0006027908
0.0005991561
0.0005986027
0.0005985908
0.0005989264
0.0006366171
0.0006028186
0.0005991846
0.0005986316
0.0005986198
0.0005989554
0.0006366469
0.0006028508
0.0005992185
0.0005986667
0.0005986553
0.0005989908
0.0006366819
0.0006028929
0.0005992659
0.0005987171
0.0005987068
0.0005990423
0.0006367345
0.0006029706
0.0005993596
0.0005988187
0.000598811
0.000599145
0.0006368557
0.0006031646
0.0005995964
0.0005990739
0.0005990664
0.0005993879
0.0001009548
0.0006035466
0.0006000451
0.00059955
0.0005995308
0.0005998014
0.0005974108
0.0005967758
0.0005968242
0.0005968384
0.0005968372
0.0005968592
0.0001009211
0.0001009246
0.0001009246
0.0001009246
0.0001009246
0.0001009246
0.0001009214
0.0001009245
0.0001009246
0.0001009246
0.0001009246
0.0001009246
0.0001009213
0.0001009245
0.0001009246
0.0001009246
0.0001009246
0.0001009246
0.0001009213
0.0001009245
0.0001009245
0.0001009245
0.0001009245
0.0001009245
0.0001009213
0.0001009245
0.0001009245
0.0001009245
0.0001009245
0.0001009245
0.0001009212
0.0001009245
0.0001009245
0.0001009245
0.0001009245
0.0001009245
0.0001009212
0.0001009245
0.0001009245
0.0001009245
0.0001009245
0.0001009245
0.0001009211
0.0001009244
0.0001009244
0.0001009244
0.0001009244
0.0001009244
0.0001009211
0.0001009244
0.0001009244
0.0001009244
0.0001009244
0.0001009244
0.000100921
0.0001009244
0.0001009244
0.0001009244
0.0001009244
0.0001009243
0.0001009209
0.0001009243
0.0001009243
0.0001009243
0.0001009243
0.0001009243
0.0001009209
0.0001009243
0.0001009243
0.0001009243
0.0001009243
0.0001009243
0.0001009208
0.0001009243
0.0001009243
0.0001009242
0.0001009242
0.0001009242
0.0001009207
0.0001009242
0.0001009242
0.0001009242
0.0001009242
0.0001009242
0.0001009206
0.0001009242
0.0001009242
0.0001009242
0.0001009241
0.0001009241
0.0001009205
0.0001009241
0.0001009241
0.0001009241
0.0001009241
0.000100924
0.0001009204
0.0001009241
0.0001009241
0.000100924
0.000100924
0.000100924
0.0001009202
0.000100924
0.000100924
0.000100924
0.000100924
0.0001009239
0.0001009201
0.000100924
0.000100924
0.0001009239
0.0001009239
0.0001009239
0.00010092
0.0001009239
0.0001009239
0.0001009239
0.0001009238
0.0001009238
0.0001009198
0.0001009239
0.0001009238
0.0001009238
0.0001009237
0.0001009237
0.0001009197
0.0001009238
0.0001009238
0.0001009237
0.0001009237
0.0001009236
0.0001009196
0.0001009237
0.0001009237
0.0001009236
0.0001009236
0.0001009235
0.0005984706
0.0005971082
0.0005972114
0.0005972613
0.0005972602
0.0005972425
0.0001009212
0.0001009246
0.0001009246
0.0001009246
0.0001009246
0.0001009246
0.0001009217
0.0001009246
0.0001009246
0.0001009246
0.0001009246
0.0001009246
0.0001009216
0.0001009245
0.0001009246
0.0001009246
0.0001009246
0.0001009246
0.0001009216
0.0001009245
0.0001009245
0.0001009246
0.0001009246
0.0001009246
0.0001009216
0.0001009245
0.0001009245
0.0001009245
0.0001009245
0.0001009245
0.0001009216
0.0001009245
0.0001009245
0.0001009245
0.0001009245
0.0001009245
0.0001009215
0.0001009245
0.0001009245
0.0001009245
0.0001009245
0.0001009245
0.0001009215
0.0001009244
0.0001009244
0.0001009245
0.0001009245
0.0001009245
0.0001009214
0.0001009244
0.0001009244
0.0001009244
0.0001009244
0.0001009244
0.0001009213
0.0001009244
0.0001009244
0.0001009244
0.0001009244
0.0001009244
0.0001009213
0.0001009244
0.0001009244
0.0001009243
0.0001009243
0.0001009243
0.0001009212
0.0001009243
0.0001009243
0.0001009243
0.0001009243
0.0001009243
0.0001009211
0.0001009243
0.0001009243
0.0001009243
0.0001009243
0.0001009242
0.000100921
0.0001009242
0.0001009242
0.0001009242
0.0001009242
0.0001009242
0.0001009209
0.0001009242
0.0001009242
0.0001009242
0.0001009241
0.0001009241
0.0001009208
0.0001009242
0.0001009241
0.0001009241
0.0001009241
0.0001009241
0.0001009207
0.0001009241
0.0001009241
0.0001009241
0.000100924
0.000100924
0.0001009206
0.0001009241
0.000100924
0.000100924
0.000100924
0.0001009239
0.0001009204
0.000100924
0.000100924
0.0001009239
0.0001009239
0.0001009239
0.0001009203
0.0001009239
0.0001009239
0.0001009239
0.0001009238
0.0001009238
0.0001009201
0.0001009239
0.0001009238
0.0001009238
0.0001009238
0.0001009237
0.00010092
0.0001009238
0.0001009238
0.0001009237
0.0001009237
0.0001009237
0.0001009198
0.0001009238
0.0001009237
0.0001009237
0.0001009236
0.0001009236
0.000598607
0.0005972952
0.0005974193
0.0005974848
0.0005974825
0.0005974465
0.0001009212
0.0001009246
0.0001009246
0.0001009246
0.0001009246
0.0001009246
0.0001009217
0.0001009246
0.0001009246
0.0001009246
0.0001009246
0.0001009246
0.0001009216
0.0001009246
0.0001009246
0.0001009246
0.0001009246
0.0001009246
0.0001009216
0.0001009246
0.0001009246
0.0001009246
0.0001009246
0.0001009246
0.0001009216
0.0001009245
0.0001009245
0.0001009245
0.0001009245
0.0001009245
0.0001009216
0.0001009245
0.0001009245
0.0001009245
0.0001009245
0.0001009245
0.0001009215
0.0001009245
0.0001009245
0.0001009245
0.0001009245
0.0001009245
0.0001009215
0.0001009245
0.0001009245
0.0001009245
0.0001009245
0.0001009245
0.0001009214
0.0001009244
0.0001009244
0.0001009244
0.0001009244
0.0001009244
0.0001009213
0.0001009244
0.0001009244
0.0001009244
0.0001009244
0.0001009244
0.0001009213
0.0001009244
0.0001009244
0.0001009243
0.0001009243
0.0001009243
0.0001009212
0.0001009243
0.0001009243
0.0001009243
0.0001009243
0.0001009243
0.0001009211
0.0001009243
0.0001009243
0.0001009243
0.0001009242
0.0001009242
0.000100921
0.0001009243
0.0001009242
0.0001009242
0.0001009242
0.0001009242
0.0001009209
0.0001009242
0.0001009242
0.0001009242
0.0001009241
0.0001009241
0.0001009208
0.0001009242
0.0001009241
0.0001009241
0.0001009241
0.0001009241
0.0001009207
0.0001009241
0.0001009241
0.0001009241
0.000100924
0.000100924
0.0001009206
0.0001009241
0.000100924
0.000100924
0.000100924
0.0001009239
0.0001009204
0.000100924
0.000100924
0.0001009239
0.0001009239
0.0001009239
0.0001009203
0.000100924
0.0001009239
0.0001009239
0.0001009238
0.0001009238
0.0001009201
0.0001009239
0.0001009239
0.0001009238
0.0001009238
0.0001009237
0.00010092
0.0001009238
0.0001009238
0.0001009237
0.0001009237
0.0001009237
0.0001009198
0.0001009238
0.0001009237
0.0001009237
0.0001009236
0.0001009236
0.0005986365
0.0005973462
0.0005974833
0.0005975521
0.0005975505
0.0005975093
0.0001009212
0.0001009246
0.0001009246
0.0001009246
0.0001009246
0.0001009246
0.0001009217
0.0001009246
0.0001009246
0.0001009246
0.0001009246
0.0001009246
0.0001009217
0.0001009246
0.0001009246
0.0001009246
0.0001009246
0.0001009246
0.0001009216
0.0001009246
0.0001009246
0.0001009246
0.0001009246
0.0001009246
0.0001009216
0.0001009245
0.0001009245
0.0001009245
0.0001009245
0.0001009245
0.0001009216
0.0001009245
0.0001009245
0.0001009245
0.0001009245
0.0001009245
0.0001009215
0.0001009245
0.0001009245
0.0001009245
0.0001009245
0.0001009245
0.0001009215
0.0001009245
0.0001009245
0.0001009245
0.0001009245
0.0001009245
0.0001009214
0.0001009245
0.0001009244
0.0001009244
0.0001009244
0.0001009244
0.0001009213
0.0001009244
0.0001009244
0.0001009244
0.0001009244
0.0001009244
0.0001009213
0.0001009244
0.0001009244
0.0001009244
0.0001009243
0.0001009243
0.0001009212
0.0001009244
0.0001009243
0.0001009243
0.0001009243
0.0001009243
0.0001009211
0.0001009243
0.0001009243
0.0001009243
0.0001009243
0.0001009242
0.000100921
0.0001009243
0.0001009243
0.0001009242
0.0001009242
0.0001009242
0.0001009209
0.0001009242
0.0001009242
0.0001009242
0.0001009242
0.0001009241
0.0001009208
0.0001009242
0.0001009242
0.0001009241
0.0001009241
0.0001009241
0.0001009207
0.0001009241
0.0001009241
0.0001009241
0.000100924
0.000100924
0.0001009206
0.0001009241
0.0001009241
0.000100924
0.000100924
0.0001009239
0.0001009204
0.000100924
0.000100924
0.000100924
0.0001009239
0.0001009239
0.0001009203
0.000100924
0.0001009239
0.0001009239
0.0001009238
0.0001009238
0.0001009201
0.0001009239
0.0001009239
0.0001009238
0.0001009238
0.0001009237
0.00010092
0.0001009239
0.0001009238
0.0001009237
0.0001009237
0.0001009237
0.0001009198
0.0001009238
0.0001009237
0.0001009237
0.0001009236
0.0001009236
0.0005986303
0.0005973496
0.0005974839
0.0005975537
0.000597553
0.0005975112
0.0001009212
0.0001009246
0.0001009246
0.0001009246
0.0001009246
0.0001009246
0.0001009217
0.0001009246
0.0001009246
0.0001009246
0.0001009246
0.0001009246
0.0001009217
0.0001009246
0.0001009246
0.0001009246
0.0001009246
0.0001009246
0.0001009216
0.0001009246
0.0001009246
0.0001009246
0.0001009246
0.0001009246
0.0001009216
0.0001009245
0.0001009245
0.0001009245
0.0001009245
0.0001009245
0.0001009216
0.0001009245
0.0001009245
0.0001009245
0.0001009245
0.0001009245
0.0001009215
0.0001009245
0.0001009245
0.0001009245
0.0001009245
0.0001009245
0.0001009215
0.0001009245
0.0001009245
0.0001009245
0.0001009245
0.0001009245
0.0001009214
0.0001009245
0.0001009244
0.0001009244
0.0001009244
0.0001009244
0.0001009213
0.0001009244
0.0001009244
0.0001009244
0.0001009244
0.0001009244
0.0001009213
0.0001009244
0.0001009244
0.0001009244
0.0001009243
0.0001009243
0.0001009212
0.0001009244
0.0001009243
0.0001009243
0.0001009243
0.0001009243
0.0001009211
0.0001009243
0.0001009243
0.0001009243
0.0001009243
0.0001009242
0.000100921
0.0001009243
0.0001009243
0.0001009242
0.0001009242
0.0001009242
0.0001009209
0.0001009242
0.0001009242
0.0001009242
0.0001009242
0.0001009241
0.0001009208
0.0001009242
0.0001009242
0.0001009241
0.0001009241
0.0001009241
0.0001009207
0.0001009241
0.0001009241
0.0001009241
0.000100924
0.000100924
0.0001009206
0.0001009241
0.0001009241
0.000100924
0.000100924
0.0001009239
0.0001009204
0.000100924
0.000100924
0.000100924
0.0001009239
0.0001009239
0.0001009203
0.000100924
0.0001009239
0.0001009239
0.0001009238
0.0001009238
0.0001009201
0.0001009239
0.0001009239
0.0001009238
0.0001009238
0.0001009237
0.00010092
0.0001009239
0.0001009238
0.0001009237
0.0001009237
0.0001009237
0.0001009198
0.0001009238
0.0001009237
0.0001009237
0.0001009236
0.0001009236
0.0005986278
0.0005973258
0.0005974523
0.0005975199
0.0005975173
0.0005974781
0.0001009212
0.0001009246
0.0001009246
0.0001009246
0.0001009246
0.0001009246
0.0001009217
0.0001009246
0.0001009246
0.0001009246
0.0001009246
0.0001009246
0.0001009216
0.0001009246
0.0001009246
0.0001009246
0.0001009246
0.0001009246
0.0001009216
0.0001009246
0.0001009246
0.0001009246
0.0001009246
0.0001009246
0.0001009216
0.0001009245
0.0001009245
0.0001009245
0.0001009245
0.0001009245
0.0001009216
0.0001009245
0.0001009245
0.0001009245
0.0001009245
0.0001009245
0.0001009215
0.0001009245
0.0001009245
0.0001009245
0.0001009245
0.0001009245
0.0001009215
0.0001009245
0.0001009245
0.0001009245
0.0001009245
0.0001009245
0.0001009214
0.0001009245
0.0001009244
0.0001009244
0.0001009244
0.0001009244
0.0001009213
0.0001009244
0.0001009244
0.0001009244
0.0001009244
0.0001009244
0.0001009213
0.0001009244
0.0001009244
0.0001009244
0.0001009243
0.0001009243
0.0001009212
0.0001009244
0.0001009243
0.0001009243
0.0001009243
0.0001009243
0.0001009211
0.0001009243
0.0001009243
0.0001009243
0.0001009243
0.0001009242
0.000100921
0.0001009243
0.0001009243
0.0001009242
0.0001009242
0.0001009242
0.0001009209
0.0001009242
0.0001009242
0.0001009242
0.0001009242
0.0001009241
0.0001009208
0.0001009242
0.0001009242
0.0001009241
0.0001009241
0.0001009241
0.0001009207
0.0001009241
0.0001009241
0.0001009241
0.000100924
0.000100924
0.0001009206
0.0001009241
0.0001009241
0.000100924
0.000100924
0.0001009239
0.0001009204
0.000100924
0.000100924
0.000100924
0.0001009239
0.0001009239
0.0001009203
0.000100924
0.0001009239
0.0001009239
0.0001009239
0.0001009238
0.0001009201
0.0001009239
0.0001009239
0.0001009238
0.0001009238
0.0001009237
0.00010092
0.0001009239
0.0001009238
0.0001009238
0.0001009237
0.0001009237
0.0001009198
0.0001009238
0.0001009237
0.0001009237
0.0001009236
0.0001009236
0.0005985426
0.0005971722
0.0005972745
0.0005973321
0.0005973293
0.0005973001
0.0001009212
0.0001009246
0.0001009246
0.0001009246
0.0001009246
0.0001009246
0.0001009217
0.0001009246
0.0001009246
0.0001009246
0.0001009246
0.0001009246
0.0001009216
0.0001009246
0.0001009246
0.0001009246
0.0001009246
0.0001009246
0.0001009216
0.0001009246
0.0001009246
0.0001009246
0.0001009246
0.0001009246
0.0001009216
0.0001009245
0.0001009246
0.0001009246
0.0001009245
0.0001009245
0.0001009216
0.0001009245
0.0001009245
0.0001009245
0.0001009245
0.0001009245
0.0001009215
0.0001009245
0.0001009245
0.0001009245
0.0001009245
0.0001009245
0.0001009215
0.0001009245
0.0001009245
0.0001009245
0.0001009245
0.0001009245
0.0001009214
0.0001009245
0.0001009245
0.0001009244
0.0001009244
0.0001009244
0.0001009213
0.0001009244
0.0001009244
0.0001009244
0.0001009244
0.0001009244
0.0001009213
0.0001009244
0.0001009244
0.0001009244
0.0001009243
0.0001009243
0.0001009212
0.0001009244
0.0001009243
0.0001009243
0.0001009243
0.0001009243
0.0001009211
0.0001009243
0.0001009243
0.0001009243
0.0001009243
0.0001009242
0.000100921
0.0001009243
0.0001009243
0.0001009242
0.0001009242
0.0001009242
0.0001009209
0.0001009242
0.0001009242
0.0001009242
0.0001009242
0.0001009241
0.0001009208
0.0001009242
0.0001009242
0.0001009241
0.0001009241
0.0001009241
0.0001009207
0.0001009241
0.0001009241
0.0001009241
0.000100924
0.000100924
0.0001009206
0.0001009241
0.0001009241
0.000100924
0.000100924
0.0001009239
0.0001009204
0.000100924
0.000100924
0.000100924
0.0001009239
0.0001009239
0.0001009203
0.000100924
0.0001009239
0.0001009239
0.0001009239
0.0001009238
0.0001009201
0.0001009239
0.0001009239
0.0001009238
0.0001009238
0.0001009237
0.00010092
0.0001009239
0.0001009238
0.0001009238
0.0001009237
0.0001009237
0.0001009198
0.0001009238
0.0001009237
0.0001009237
0.0001009236
0.0001009236
0.000598844
0.0005979744
0.0005980806
0.0005981129
0.000598112
0.0005981136
0.0001009212
0.0001009246
0.0001009246
0.0001009246
0.0001009246
0.0001009246
0.0001009216
0.0001009246
0.0001009246
0.0001009246
0.0001009246
0.0001009246
0.0001009215
0.0001009246
0.0001009246
0.0001009246
0.0001009246
0.0001009246
0.0001009215
0.0001009246
0.0001009246
0.0001009246
0.0001009246
0.0001009246
0.0001009215
0.0001009246
0.0001009246
0.0001009245
0.0001009245
0.0001009245
0.0001009214
0.0001009245
0.0001009245
0.0001009245
0.0001009245
0.0001009245
0.0001009214
0.0001009245
0.0001009245
0.0001009245
0.0001009245
0.0001009245
0.0001009214
0.0001009245
0.0001009245
0.0001009245
0.0001009244
0.0001009244
0.0001009213
0.0001009245
0.0001009245
0.0001009244
0.0001009244
0.0001009244
0.0001009212
0.0001009244
0.0001009244
0.0001009244
0.0001009244
0.0001009244
0.0001009212
0.0001009244
0.0001009244
0.0001009243
0.0001009243
0.0001009243
0.0001009211
0.0001009244
0.0001009244
0.0001009243
0.0001009243
0.0001009243
0.000100921
0.0001009243
0.0001009243
0.0001009243
0.0001009242
0.0001009242
0.0001009209
0.0001009243
0.0001009243
0.0001009242
0.0001009242
0.0001009242
0.0001009208
0.0001009243
0.0001009242
0.0001009242
0.0001009241
0.0001009241
0.0001009207
0.0001009242
0.0001009242
0.0001009241
0.0001009241
0.000100924
0.0001009206
0.0001009242
0.0001009241
0.0001009241
0.000100924
0.000100924
0.0001009205
0.0001009241
0.0001009241
0.000100924
0.000100924
0.0001009239
0.0001009203
0.0001009241
0.000100924
0.0001009239
0.0001009239
0.0001009239
0.0001009202
0.000100924
0.000100924
0.0001009239
0.0001009238
0.0001009238
0.00010092
0.000100924
0.0001009239
0.0001009238
0.0001009238
0.0001009237
0.0001009199
0.0001009239
0.0001009238
0.0001009237
0.0001009237
0.0001009236
0.0001009196
0.0001009238
0.0001009238
0.0001009237
0.0001009236
0.0001009236
0.0002112216
0.0002086898
0.0002086587
0.0002086551
0.0002086479
0.000208644
0.00010091
0.0001009578
0.0001009578
0.0001009579
0.0001009579
0.0001009579
0.0001009576
0.0001009109
0.0001009566
0.0001009562
0.0001009564
0.0001009564
0.0001009564
0.0001009561
0.0001009108
0.0001009563
0.0001009561
0.0001009563
0.0001009564
0.0001009564
0.0001009561
0.0001009108
0.0001009563
0.0001009561
0.0001009563
0.0001009564
0.0001009564
0.0001009561
0.0001009107
0.0001009563
0.0001009561
0.0001009563
0.0001009564
0.0001009564
0.000100956
0.0001009106
0.0001009562
0.000100956
0.0001009563
0.0001009563
0.0001009563
0.000100956
0.0001009104
0.0001009562
0.000100956
0.0001009563
0.0001009563
0.0001009563
0.0001009559
0.0001009103
0.0001009562
0.000100956
0.0001009562
0.0001009562
0.0001009562
0.0001009559
0.0001009102
0.0001009561
0.0001009559
0.0001009562
0.0001009562
0.0001009561
0.0001009558
0.00010091
0.0001009561
0.0001009559
0.0001009561
0.0001009561
0.0001009561
0.0001009557
0.0001009098
0.000100956
0.0001009559
0.0001009561
0.0001009561
0.000100956
0.0001009556
0.0001009096
0.0001009559
0.0001009558
0.000100956
0.000100956
0.000100956
0.0001009556
0.0001009093
0.0001009559
0.0001009558
0.000100956
0.000100956
0.0001009559
0.0001009555
0.0001009091
0.0001009558
0.0001009557
0.0001009559
0.0001009559
0.0001009558
0.0001009554
0.0001009088
0.0001009557
0.0001009557
0.0001009559
0.0001009559
0.0001009557
0.0001009553
0.0001009085
0.0001009557
0.0001009556
0.0001009558
0.0001009558
0.0001009557
0.0001009552
0.0001009082
0.0001009556
0.0001009556
0.0001009558
0.0001009557
0.0001009556
0.0001009551
0.0001009078
0.0001009555
0.0001009555
0.0001009557
0.0001009556
0.0001009555
0.000100955
0.0001009075
0.0001009554
0.0001009555
0.0001009556
0.0001009556
0.0001009554
0.0001009549
0.0001009071
0.0001009553
0.0001009554
0.0001009556
0.0001009555
0.0001009553
0.0001009548
0.0001009067
0.0001009552
0.0001009554
0.0001009555
0.0001009554
0.0001009552
0.0001009546
0.0001009062
0.0001009551
0.0001009553
0.0001009554
0.0001009553
0.0001009551
0.0001009545
0.0001009056
0.0006373951
0.0001009552
0.0001009553
0.0001009552
0.0001009549
0.0001009543
0.0003030881
0.0001872917
0.0001009101
0.0001009227
0.0003049523
0.0002934633
0.0001009135
0.0001009253
0.0001009109
0.0001009254
0.0002931861
0.0002929454
0.0001009155
0.0001009251
0.0001009108
0.000100925
0.0002929424
0.0002929202
0.0001009155
0.0001009251
0.0001009107
0.000100925
0.0002929268
0.0002929204
0.0001009154
0.000100925
0.0001009107
0.000100925
0.000292931
0.0002929262
0.0001009154
0.0001009251
0.0001009106
0.000100925
0.0002929388
0.0002929343
0.0001009153
0.0001009251
0.0001009105
0.000100925
0.000292949
0.0002929441
0.0001009152
0.0001009251
0.0001009105
0.000100925
0.0002929606
0.0002929555
0.0001009151
0.0001009251
0.0001009104
0.000100925
0.0002929739
0.0002929684
0.000100915
0.0001009251
0.0001009102
0.000100925
0.0002929886
0.0002929829
0.0001009148
0.0001009251
0.0001009101
0.000100925
0.000293005
0.0002929989
0.0001009147
0.0001009251
0.00010091
0.000100925
0.0002930229
0.0002930166
0.0001009146
0.0001009251
0.0001009098
0.000100925
0.0002930425
0.0002930359
0.0001009144
0.0001009251
0.0001009097
0.000100925
0.0002930638
0.000293057
0.0001009142
0.0001009251
0.0001009095
0.000100925
0.0002930868
0.0002930798
0.000100914
0.0001009251
0.0001009094
0.000100925
0.0002931117
0.0002931044
0.0001009138
0.0001009251
0.0001009092
0.000100925
0.0002931384
0.0002931308
0.0001009135
0.0001009251
0.000100909
0.0001009251
0.0002931672
0.0002931594
0.0001009133
0.0001009252
0.0001009088
0.0001009251
0.000293198
0.0002931901
0.000100913
0.0001009252
0.0001009085
0.0001009251
0.0002932312
0.0002932236
0.0001009127
0.0001009252
0.0001009082
0.0001009251
0.0002932677
0.000293264
0.0001009124
0.0001009252
0.0001009079
0.0001009251
0.0002933137
0.0002933385
0.0001009121
0.0001009252
0.0001009075
0.0001009252
0.0002934143
0.0001012876
0.0001009056
0.0001009253
0.0001009134
0.0001009325
0.0002116929
0.0001009141
0.0001009313
0.0002093138
0.0001009111
0.0001009316
0.0002093156
0.0001009159
0.0001009318
0.0002092777
0.0001009111
0.0001009318
0.0002092903
0.0001009159
0.0001009318
0.0002092897
0.0001009111
0.0001009318
0.0002092988
0.0001009159
0.0001009318
0.0002092853
0.0001009111
0.0001009317
0.0002092864
0.0001009159
0.0001009318
0.000209287
0.0001009111
0.0001009317
0.0002092915
0.0001009159
0.0001009318
0.0002093044
0.0001009111
0.0001009318
0.0002092882
0.0001009159
0.0001009318
0.0002093003
0.0001009111
0.0001009318
0.000209296
0.0001009159
0.0001009316
0.0002116964
0.0001009105
0.0001009313
0.0001872952
0.000100915
0.0001009228
0.0003030892
0.0001009307
0.0001009109
0.0001009254
0.0003049539
0.0002934642
0.0001009305
0.0001009108
0.000100925
0.0002931863
0.0002929454
0.0001009305
0.0001009108
0.000100925
0.000292944
0.0002929219
0.0001009305
0.0001009106
0.000100925
0.0002929398
0.0002929332
0.0001009306
0.0001009105
0.000100925
0.0002929482
0.0002929432
0.0001009306
0.0001009104
0.000100925
0.0002929601
0.0002929546
0.0001009307
0.0001009103
0.000100925
0.0002929733
0.0002929675
0.0001009307
0.0001009102
0.000100925
0.0002929881
0.000292982
0.0001009308
0.0001009101
0.000100925
0.0002930042
0.0002929978
0.0001009309
0.0001009099
0.000100925
0.0002930223
0.0002930157
0.000100931
0.0001009098
0.000100925
0.0002930419
0.000293035
0.0001009311
0.0001009096
0.000100925
0.0002930632
0.0002930565
0.0001009312
0.0001009094
0.000100925
0.0002930864
0.0002930789
0.0001009313
0.0001009093
0.000100925
0.0002931111
0.0002931035
0.0001009314
0.0001009091
0.0001009251
0.0002931379
0.0002931299
0.0001009316
0.0001009089
0.0001009251
0.0002931664
0.0002931575
0.0001009317
0.0001009086
0.0001009251
0.0002931964
0.000293188
0.000100932
0.000100908
0.0001009251
0.0002932681
0.0002932625
0.0001009322
0.0001009076
0.0001009252
0.0002933143
0.0002933383
0.0001009253
0.0001009132
0.0001009252
0.0002934148
0.0001012891
0.0001010031
0.0001447296
0.0003050238
0.0002936347
0.00021122
0.0002087228
0.0001009231
0.0001009228
0.0002933241
0.000293105
0.0002086881
0.0002086648
0.0001009228
0.0001009229
0.0002930726
0.0002930701
0.0002086576
0.0002086581
0.0001009228
0.0001009229
0.0002930496
0.0002930609
0.0002086541
0.0002086513
0.0001009228
0.0001009229
0.0002930438
0.0002930712
0.0002086466
0.0002086447
0.0001009228
0.000100923
0.0002930676
0.0002086425
0.0001009228
0.0001009366
0.0001423165
0.0001009358
0.0001420971
0.0001009363
0.0001420256
0.0001009368
0.0001420197
0.0001009364
0.0001420242
0.000100937
0.0001420236
0.0001009364
0.0001420291
0.000100937
0.000142029
0.0001009366
0.0001420367
0.0001009371
0.0001420366
0.0001009368
0.0001420458
0.0001009373
0.0001420458
0.000100937
0.0001420567
0.0001009375
0.0001420567
0.0001009373
0.0001420693
0.0001009378
0.0001420692
0.0001009375
0.0001420835
0.000100938
0.0001420835
0.0001009379
0.0001420995
0.0001009384
0.0001420995
0.0001009382
0.0001421173
0.0001009387
0.0001421172
0.0001009386
0.0001421369
0.0001009391
0.0001421367
0.000100939
0.0001421583
0.0001009395
0.0001421581
0.0001009395
0.0001421816
0.00010094
0.0001421814
0.00010094
0.0001422069
0.0001009405
0.0001422066
0.0001009406
0.0001422342
0.0001009411
0.0001422338
0.0001009412
0.0001422636
0.0001009417
0.0001422631
0.0001009419
0.0001422952
0.0001009424
0.0001422946
0.0001009426
0.000142329
0.0001009431
0.0001423283
0.0001009434
0.0001423652
0.000100944
0.0001423644
0.0001009443
0.0001424039
0.0001009448
0.000142403
0.0001009453
0.0001424454
0.0001009458
0.0001424447
0.0001009464
0.0001424925
0.0001009469
0.0001425001
0.00010104
0.0001010347
0.0001010444
0.0001010451
0.0001010318
0.0001010501
0.0001010468
0.0001010434
0.0001010397
0.0001010494
0.0001010424
0.0001010451
0.0001010436
0.0001010422
0.0001010481
0.0001010383
0.0001010186
0.0001010289
0.0002087234
0.0001009231
0.0001009228
0.0003050244
0.000293631
0.0002086649
0.0001009229
0.0001009229
0.0002933212
0.0002931023
0.0002086588
0.000100923
0.0001009229
0.0002930712
0.0002930698
0.0002086513
0.000100923
0.0001009229
0.0002930476
0.0002930577
0.0002086449
0.000100923
0.000100923
0.000293041
0.0002930696
0.000100923
0.0002930652
0.0001009304
0.0001009108
0.000100925
0.0002929271
0.0002929217
0.0001009305
0.0001009107
0.000100925
0.0002929328
0.0002929269
0.0001009319
0.0001009083
0.0001009252
0.0002932293
0.0002932241
0.0001009996
0.0001426102
0.0001010272
0.0001475141
0.0001009302
0.0001424795
0.0001009325
0.0001474681
0.0001010215
0.0001010326
0.0001009362
0.000142025
0.0001009371
0.000142073
0.0001009364
0.0001420213
0.0001009369
0.0001420213
0.0001009365
0.0001420259
0.0001009369
0.0001420252
0.0001009365
0.0001420323
0.0001009371
0.0001420311
0.0001009367
0.0001420406
0.0001009373
0.0001420394
0.0001009369
0.0001420505
0.0001009375
0.0001420492
0.0001009371
0.0001420621
0.0001009378
0.0001420607
0.0001009374
0.0001420754
0.000100938
0.0001420739
0.0001009377
0.0001420903
0.0001009384
0.0001420889
0.000100938
0.0001421071
0.0001009387
0.0001421055
0.0001009383
0.0001421255
0.0001009391
0.0001421239
0.0001009387
0.0001421458
0.0001009395
0.0001421442
0.0001009391
0.000142168
0.00010094
0.0001421663
0.0001009396
0.000142192
0.0001009406
0.0001421904
0.0001009401
0.000142218
0.0001009411
0.0001422164
0.0001009406
0.0001422461
0.0001009418
0.0001422445
0.0001009413
0.0001422762
0.0001009425
0.0001422747
0.0001009419
0.0001423085
0.0001009432
0.0001423072
0.0001009427
0.0001423432
0.000100944
0.0001423419
0.0001009435
0.0001423802
0.000100945
0.000142379
0.0001009443
0.0001424199
0.0001009459
0.0001424188
0.0001009453
0.0001424643
0.000100947
0.0001424619
0.0001009464
0.0001018343
0.000142525
0.0001009615
0.0001010459
0.0001010452
0.0001010439
0.0001010334
0.0001010482
0.0001010461
0.0001010393
0.0001010447
0.0001010444
0.0001010426
0.000101043
0.000101039
0.000101039
0.0001010535
0.0001010381
0.000101041
0.000101003
0.0001447363
0.0001009998
0.0001426108
0.0001010272
0.0001475204
0.0001009302
0.0001424785
0.0001009324
0.000147467
0.0001009365
0.0001423145
0.0001009359
0.0001420963
0.0001009362
0.0001420244
0.0001009371
0.0001420723
0.0001009363
0.0001420248
0.0001009369
0.0001420194
0.0001009364
0.0001420198
0.0001009368
0.0001420218
0.0001009364
0.0001420229
0.000100937
0.0001420229
0.0001009368
0.0001420457
0.0001009373
0.0001420454
0.0001009369
0.00014205
0.0001009374
0.0001420487
0.000100937
0.0001420562
0.0001009376
0.0001420562
0.0001009371
0.0001420617
0.0001009377
0.0001420602
0.0001009373
0.0001420689
0.0001009378
0.0001420688
0.0001009374
0.000142075
0.0001009379
0.0001420735
0.0001009375
0.0001420831
0.0001009381
0.0001420831
0.0001009376
0.00014209
0.0001009383
0.0001420884
0.0001009378
0.0001420991
0.0001009384
0.0001420991
0.000100938
0.0001421067
0.0001009386
0.0001421051
0.0001009386
0.0001421365
0.0001009391
0.0001421364
0.0001009387
0.0001421454
0.0001009394
0.0001421438
0.000100939
0.0001421579
0.0001009396
0.0001421577
0.0001009391
0.0001421675
0.0001009399
0.0001421659
0.00010094
0.0001422067
0.0001009405
0.0001422062
0.0001009401
0.0001422176
0.000100941
0.000142216
0.0001009406
0.0001422456
0.0001009416
0.0001422441
0.0001009412
0.0001422631
0.0001009417
0.0001422627
0.0001009413
0.0001422758
0.0001009423
0.0001422743
0.0001009419
0.0001422947
0.0001009424
0.0001423078
0.0001009453
0.0001424585
0.0001009458
0.0001424438
0.0001009453
0.0001424652
0.0001009468
0.0001424609
0.0001009464
0.0001424926
0.000100947
0.0001425021
0.0001009464
0.0001458745
0.0001425248
0.0001009615
0.0001830102
0.000168465
0.0001739185
0.0001734266
0.0001738992
0.0001732417
0.0001737304
0.0001737381
0.000173712
0.0001735185
0.0001739413
0.0001731774
0.0001734841
0.0001741696
0.0001735283
0.0001737136
0.0001748398
0.0001748456
0.0001733883
0.0001730065
0.0001733614
0.0001736962
0.0001738502
0.0001732328
0.0001741499
0.0001748613
0.0001745169
0.0001741832
0.0001731179
0.0001732329
0.0001733017
0.0001744959
0.0001726876
0.0001729911
0.0001732819
0.0001734652
0.0001739655
0.0001731394
0.0001825729
0.0001684568
0.00015897
0.0001578726
0.000158814
0.0001579602
0.0001009973
0.0001481165
0.0001010006
0.0001481318
0.0001009974
0.0001481093
0.0001481105
0.0001009996
0.0001009973
0.0001481218
0.0001009997
0.0001481182
0.0001009974
0.0001481236
0.0001481202
0.0001010001
0.0001009365
0.0001420178
0.0001009368
0.0001420236
0.0001009981
0.0001481457
0.0001010007
0.0001481429
0.0001009983
0.0001481535
0.0001010008
0.0001481499
0.0001009984
0.0001481571
0.0001481537
0.0001010014
0.0001009987
0.0001481656
0.0001010013
0.0001481619
0.0001009989
0.0001481697
0.0001481664
0.0001010019
0.0001009998
0.0001481949
0.0001010025
0.0001481912
0.000101
0.0001482002
0.0001481969
0.0001010032