/*--------------------------------*- C++ -*----------------------------------*\
  =========                 |
  \\      /  F ield         | OpenFOAM: The Open Source CFD Toolbox
   \\    /   O peration     | Website:  https://openfoam.org
    \\  /    A nd           | Version:  7
     \\/     M anipulation  |
\*---------------------------------------------------------------------------*/
FoamFile
{
    version     2.0;
    format      ascii;
    class       volScalarField;
    location    "0.06";
    object      k;
}
// * * * * * * * * * * * * * * * * * * * * * * * * * * * * * * * * * * * * * //

dimensions      [0 2 -2 0 0 0 0];

internalField   nonuniform List<scalar> 
73374
(
0.003836613
0.003755283
0.003756686
0.003756644
0.00375614
0.00375613
0.003756161
0.003756123
0.003756116
0.003756124
0.003756175
0.003837107
0.003757432
0.003758103
0.003758547
0.003758487
0.00375846
0.003758882
0.003759033
0.003759062
0.003759217
0.003759449
0.003834163
0.003757163
0.003758094
0.003758373
0.003758308
0.003758307
0.003758692
0.003758687
0.003758793
0.003759033
0.003759353
0.003831151
0.003756352
0.003757088
0.003757322
0.003757377
0.003757435
0.003757695
0.003757834
0.003758035
0.003758317
0.003758682
0.003827464
0.003755863
0.003756543
0.00375678
0.003756884
0.003756942
0.003757157
0.003757308
0.003757536
0.003757848
0.003758255
0.003823344
0.003755207
0.003755874
0.00375605
0.003756145
0.003756243
0.003756399
0.003756574
0.003756808
0.003757128
0.00375756
0.003819272
0.003754603
0.003755244
0.003755407
0.003755499
0.00375559
0.003755727
0.003755878
0.003756102
0.003756413
0.00375685
0.003815218
0.003753984
0.003754588
0.003754731
0.003754809
0.003754884
0.003754976
0.003755095
0.003755267
0.003755528
0.003755934
0.003811225
0.003753379
0.00375395
0.003754075
0.003754138
0.00375419
0.003754239
0.003754306
0.003754399
0.003754588
0.003754913
0.003807288
0.003752782
0.003753317
0.003753425
0.003753471
0.003753494
0.003753489
0.003753462
0.00375343
0.003753419
0.003753571
0.003803402
0.003752199
0.003752702
0.0037528
0.003752836
0.00375284
0.003752783
0.003752698
0.003752463
0.003752361
0.003752202
0.003799573
0.003751626
0.003752104
0.003752202
0.00375224
0.003752232
0.003752131
0.003751869
0.003751464
0.0037506
0.003749827
0.003795779
0.00375106
0.003751521
0.003751635
0.003751694
0.003751722
0.003751586
0.003751378
0.003750453
0.0037505
0.003748456
0.00379199
0.003750493
0.00375095
0.003751099
0.003751218
0.003751322
0.003751327
0.003751169
0.003750546
0.00374923
0.003744195
0.003788134
0.00374991
0.003750374
0.003750571
0.003750781
0.003751003
0.003751241
0.003751283
0.003751259
0.003756348
0.003760065
0.003784109
0.003749294
0.003749769
0.003750023
0.003750331
0.003750708
0.003751164
0.00375159
0.003751996
0.003760286
0.003789727
0.003779831
0.003748627
0.003749111
0.003749416
0.003749818
0.003750339
0.003751011
0.003751785
0.00375251
0.003764113
0.003799606
0.003775187
0.003747897
0.003748382
0.003748726
0.003749208
0.003749848
0.003750739
0.003751786
0.00375325
0.003767292
0.003813609
0.003770107
0.003747094
0.003747567
0.003747926
0.003748456
0.003749132
0.003750172
0.00375117
0.003753134
0.003767931
0.003831893
0.00376457
0.00376193
0.00376333
0.003573273
0.00356264
0.003599654
0.003574246
0.003571117
0.003567547
0.003566065
0.003566224
0.003566955
0.003567901
0.003764446
0.003541213
0.003543003
0.003542485
0.003543194
0.003542928
0.003542888
0.003542798
0.003542775
0.00354271
0.003542629
0.003753465
0.003540673
0.00354058
0.003540523
0.003540561
0.003540535
0.00354053
0.00354052
0.003540529
0.003540518
0.003540508
0.003757341
0.003540497
0.003540187
0.003540253
0.003540325
0.003540332
0.003540347
0.003540375
0.0035404
0.003540397
0.003540395
0.00375684
0.003540196
0.003539917
0.003539916
0.003539946
0.003539963
0.003540016
0.003540037
0.003540065
0.003540088
0.003540115
0.003756037
0.00354024
0.003539866
0.003539864
0.003539892
0.003539911
0.003539945
0.003539976
0.003540012
0.003540048
0.003540088
0.00375546
0.003540192
0.00353981
0.003539813
0.003539843
0.003539867
0.003539904
0.003539939
0.00353998
0.003540027
0.003540082
0.003754807
0.003540173
0.003539775
0.003539775
0.003539805
0.003539831
0.003539867
0.003539907
0.003539955
0.003540013
0.003540086
0.003754185
0.003540138
0.003539743
0.003539744
0.003539773
0.0035398
0.003539838
0.003539881
0.003539937
0.00354001
0.003540102
0.003753565
0.003540106
0.003539711
0.003539711
0.003539738
0.003539765
0.003539802
0.003539848
0.003539913
0.003540001
0.003540128
0.003752954
0.00354007
0.00353968
0.003539678
0.003539703
0.003539726
0.003539761
0.003539809
0.003539881
0.003540003
0.003540164
0.003752354
0.003540036
0.003539649
0.003539645
0.003539667
0.003539685
0.003539714
0.003539755
0.003539833
0.003539954
0.003540265
0.003751761
0.003540005
0.00353962
0.003539611
0.003539628
0.003539639
0.003539661
0.0035397
0.003539781
0.003540071
0.003540486
0.003751174
0.00353998
0.003539593
0.003539582
0.003539595
0.003539599
0.003539609
0.003539632
0.003539821
0.003540009
0.003541717
0.003750583
0.003539965
0.00353957
0.003539556
0.003539567
0.003539557
0.003539566
0.003539587
0.003539552
0.003540596
0.003540964
0.003749977
0.003539965
0.003539556
0.003539544
0.003539553
0.003539552
0.003539548
0.003539559
0.003539672
0.003540354
0.003547689
0.003749338
0.003539979
0.003539551
0.003539543
0.003539565
0.003539577
0.003539609
0.003539662
0.003539859
0.003540848
0.00354193
0.003748651
0.003540009
0.003539555
0.003539556
0.003539593
0.003539631
0.003539702
0.00353981
0.003540184
0.003540709
0.003542183
0.003747903
0.00354005
0.003539565
0.003539578
0.003539639
0.003539713
0.003539865
0.003540103
0.00354104
0.003543318
0.003555132
0.003747086
0.003540095
0.003539577
0.003539605
0.003539684
0.003539806
0.003540001
0.003540445
0.003541235
0.003545299
0.003566441
0.003550879
0.003570116
0.003552713
0.00355322
0.003552483
0.003551813
0.003551697
0.003551698
0.003550842
0.003551923
0.003550708
0.003765476
0.003542031
0.003542861
0.00354106
0.00354027
0.003540664
0.003540436
0.003540515
0.003540452
0.003540116
0.003540154
0.003754198
0.003540584
0.003540211
0.003540093
0.003540144
0.003539847
0.00353991
0.003539861
0.003539891
0.003539988
0.003539993
0.003757764
0.00354084
0.003539783
0.003539786
0.003539787
0.003539816
0.003539821
0.003539857
0.003539875
0.003539898
0.003539934
0.003757199
0.003540199
0.00353971
0.003539715
0.003539754
0.003539768
0.003539811
0.00353983
0.003539862
0.00353991
0.003539948
0.003756502
0.003540191
0.003539688
0.00353971
0.003539739
0.003539764
0.003539799
0.003539828
0.003539864
0.003539906
0.003539953
0.003755899
0.003540117
0.003539696
0.003539719
0.003539742
0.003539773
0.003539808
0.003539842
0.003539883
0.003539937
0.003539993
0.003755244
0.003540086
0.003539665
0.003539688
0.003539714
0.003539745
0.00353978
0.003539821
0.00353987
0.003539931
0.003540004
0.003754603
0.003540048
0.003539641
0.003539666
0.003539692
0.003539724
0.003539761
0.003539806
0.003539864
0.003539938
0.00354003
0.003753963
0.003540013
0.003539613
0.003539637
0.003539663
0.003539694
0.003539731
0.003539778
0.003539845
0.003539935
0.003540066
0.003753328
0.003539978
0.003539584
0.003539607
0.003539631
0.00353966
0.003539695
0.003539746
0.00353982
0.003539938
0.003540101
0.003752708
0.003539944
0.003539555
0.003539574
0.003539595
0.003539618
0.003539648
0.003539693
0.003539779
0.003539906
0.003540205
0.003752093
0.003539912
0.003539526
0.003539543
0.003539558
0.003539574
0.003539596
0.003539643
0.003539732
0.003539996
0.003540363
0.003751481
0.003539887
0.0035395
0.003539513
0.003539521
0.003539529
0.003539536
0.003539568
0.003539694
0.003539877
0.0035415
0.003750867
0.003539871
0.003539478
0.003539489
0.003539494
0.003539492
0.003539484
0.003539507
0.003539506
0.003540444
0.003540743
0.003750233
0.003539868
0.003539464
0.003539477
0.003539483
0.003539489
0.003539485
0.003539491
0.003539609
0.003540313
0.003545989
0.003749568
0.00353988
0.003539458
0.003539478
0.003539495
0.003539514
0.003539537
0.003539598
0.003539777
0.003540885
0.003541822
0.003748851
0.003539906
0.00353946
0.003539491
0.003539523
0.003539568
0.003539634
0.003539727
0.003540137
0.003540523
0.003541505
0.003748072
0.003539941
0.003539467
0.003539512
0.003539567
0.003539651
0.003539784
0.003540039
0.003540919
0.003543422
0.003559814
0.003747221
0.003539981
0.003539476
0.003539537
0.00353961
0.003539745
0.003539913
0.003540397
0.003541137
0.003545467
0.003565064
0.003550088
0.003580743
0.00355303
0.003553851
0.003552297
0.003555432
0.003551501
0.003552528
0.003551915
0.003551297
0.003551754
0.003765863
0.003542875
0.003541956
0.00354196
0.003541218
0.003542209
0.003540886
0.003540716
0.003540794
0.00354041
0.003540501
0.003754176
0.00354054
0.003540998
0.003540048
0.003539766
0.003539975
0.003539821
0.003539939
0.003539919
0.003539888
0.003539954
0.003757931
0.003540902
0.00353978
0.003539762
0.003539811
0.003539826
0.003539841
0.003539855
0.003539877
0.0035399
0.003539928
0.003757389
0.003540187
0.00353973
0.003539746
0.00353979
0.003539793
0.003539844
0.003539844
0.003539873
0.003539894
0.00353994
0.003756681
0.003540191
0.003539678
0.003539698
0.003539716
0.003539746
0.003539773
0.003539806
0.003539851
0.003539902
0.003539948
0.003756027
0.003540111
0.003539699
0.003539724
0.003539757
0.003539781
0.003539817
0.003539852
0.003539891
0.003539938
0.003539995
0.003755356
0.003540077
0.003539664
0.003539689
0.00353972
0.003539748
0.003539787
0.003539824
0.003539874
0.003539933
0.003540006
0.0037547
0.00354004
0.003539641
0.003539667
0.003539697
0.003539727
0.003539765
0.003539809
0.003539865
0.00353994
0.003540032
0.003754053
0.003540007
0.003539612
0.003539637
0.003539664
0.003539694
0.003539732
0.003539778
0.003539845
0.003539934
0.003540062
0.003753411
0.00353997
0.003539584
0.003539607
0.003539632
0.00353966
0.003539695
0.003539745
0.003539818
0.00353994
0.003540098
0.00375278
0.003539936
0.003539555
0.003539574
0.003539595
0.003539618
0.003539649
0.003539692
0.003539776
0.003539899
0.003540198
0.003752151
0.003539904
0.003539526
0.003539542
0.003539558
0.003539574
0.003539596
0.003539641
0.003539723
0.003539981
0.003540359
0.00375153
0.00353988
0.0035395
0.003539513
0.003539523
0.003539531
0.003539541
0.003539564
0.003539705
0.003539892
0.00354147
0.003750909
0.003539864
0.003539478
0.003539489
0.003539495
0.003539492
0.003539488
0.003539508
0.003539511
0.003540643
0.003540771
0.003750266
0.003539862
0.003539463
0.003539477
0.003539484
0.003539488
0.003539485
0.003539492
0.003539604
0.003540366
0.003546176
0.003749592
0.003539873
0.003539457
0.003539477
0.003539496
0.003539513
0.003539537
0.003539595
0.003539782
0.003540852
0.00354187
0.003748866
0.003539898
0.003539459
0.00353949
0.003539524
0.003539566
0.003539634
0.003539721
0.003540131
0.003540522
0.003541432
0.003748075
0.003539933
0.003539466
0.003539511
0.003539567
0.003539648
0.003539785
0.003540029
0.003540916
0.003543458
0.003559462
0.003747212
0.003539972
0.003539475
0.003539536
0.003539611
0.003539743
0.003539915
0.00354039
0.00354114
0.003545542
0.003565134
0.003549989
0.003585552
0.003552269
0.00355488
0.003554686
0.003551284
0.003552054
0.003551889
0.003551422
0.003551876
0.003551134
0.003766622
0.003542802
0.003540916
0.003542027
0.003541811
0.003540091
0.003540309
0.003540322
0.003540088
0.003540188
0.003540152
0.003754194
0.003540591
0.003540829
0.003539988
0.00353997
0.003540004
0.003539932
0.0035399
0.003539965
0.003539983
0.003539957
0.003757952
0.003540931
0.003539753
0.003539732
0.003539771
0.003539789
0.003539802
0.003539811
0.003539845
0.003539862
0.003539902
0.003757349
0.003540202
0.003539701
0.003539776
0.003539726
0.003539814
0.003539777
0.003539859
0.00353989
0.003539901
0.003539916
0.003756655
0.003540199
0.003539681
0.003539688
0.003539717
0.003539744
0.003539774
0.003539806
0.003539844
0.003539878
0.003539942
0.003756037
0.003540111
0.00353969
0.003539728
0.003539737
0.00353978
0.003539797
0.00353985
0.003539895
0.003539938
0.003539988
0.003755354
0.003540079
0.003539659
0.003539689
0.003539707
0.003539745
0.003539772
0.003539822
0.003539877
0.003539933
0.003540001
0.003754718
0.003540045
0.003539636
0.003539666
0.003539689
0.003539725
0.003539759
0.003539808
0.003539866
0.003539939
0.00354003
0.003754074
0.003540006
0.00353961
0.003539635
0.003539661
0.003539693
0.003539729
0.003539778
0.003539845
0.003539933
0.003540061
0.003753413
0.003539972
0.003539582
0.003539606
0.00353963
0.003539659
0.003539694
0.003539744
0.003539816
0.003539937
0.003540097
0.003752801
0.003539942
0.003539553
0.003539573
0.003539594
0.003539617
0.003539647
0.003539689
0.003539772
0.003539895
0.003540193
0.003752172
0.003539903
0.003539526
0.003539541
0.003539558
0.003539573
0.003539592
0.003539634
0.003539714
0.003539975
0.00354035
0.00375154
0.003539884
0.003539499
0.003539512
0.003539522
0.003539529
0.003539536
0.003539561
0.003539688
0.003539872
0.003541432
0.003750923
0.003539863
0.003539477
0.003539488
0.003539494
0.00353949
0.003539485
0.0035395
0.003539495
0.003540603
0.003540681
0.003750273
0.003539862
0.003539462
0.003539477
0.003539483
0.003539487
0.003539483
0.003539488
0.003539603
0.003540352
0.003546152
0.003749599
0.003539873
0.003539456
0.003539477
0.003539495
0.003539512
0.003539536
0.003539594
0.003539782
0.00354083
0.003541862
0.003748869
0.003539899
0.003539458
0.003539489
0.003539523
0.003539565
0.003539633
0.003539716
0.003540126
0.003540495
0.003541429
0.003748076
0.003539933
0.003539465
0.00353951
0.003539566
0.003539648
0.003539783
0.003540025
0.003540904
0.003543426
0.0035603
0.003747209
0.003539972
0.003539473
0.003539535
0.00353961
0.003539743
0.003539913
0.003540384
0.00354113
0.003545364
0.003565302
0.003549974
0.00359142
0.003552115
0.003555381
0.003551475
0.003551502
0.00355143
0.003552851
0.0035523
0.003551416
0.003550993
0.003766797
0.003543215
0.003540616
0.003542104
0.003540466
0.003540081
0.00354031
0.003540697
0.003540187
0.003540293
0.003540132
0.003754339
0.003540528
0.003540647
0.003539962
0.003540667
0.003539861
0.003540251
0.003539917
0.003539895
0.003539936
0.003540134
0.003757996
0.003540893
0.003539748
0.003539778
0.003539807
0.003539771
0.003539838
0.003539818
0.003539826
0.003539864
0.003539912
0.003757376
0.003540209
0.003539766
0.003539694
0.0035399
0.003539756
0.00353993
0.00353981
0.003539849
0.003539871
0.003539976
0.003756681
0.0035402
0.003539669
0.003539691
0.003539736
0.003539754
0.003539798
0.003539806
0.003539837
0.003539887
0.003539948
0.003756013
0.003540114
0.003539702
0.003539704
0.003539759
0.003539773
0.003539824
0.003539834
0.003539877
0.003539927
0.003539993
0.003755342
0.003540078
0.003539665
0.003539681
0.00353972
0.003539741
0.003539785
0.003539813
0.003539863
0.003539922
0.003540003
0.003754695
0.003540043
0.003539639
0.003539662
0.003539695
0.003539722
0.003539763
0.003539804
0.003539861
0.003539935
0.00354003
0.003754074
0.003540012
0.00353961
0.003539636
0.003539662
0.003539692
0.00353973
0.003539776
0.003539842
0.00353993
0.003540062
0.003753438
0.003539971
0.003539583
0.003539605
0.003539631
0.003539658
0.003539694
0.003539743
0.003539815
0.003539936
0.003540096
0.003752801
0.003539938
0.003539555
0.003539573
0.003539595
0.003539617
0.003539647
0.003539689
0.003539772
0.003539895
0.003540195
0.003752152
0.003539905
0.003539526
0.003539541
0.003539558
0.003539572
0.003539593
0.003539634
0.003539714
0.003539977
0.003540351
0.003751529
0.003539887
0.003539499
0.003539513
0.003539522
0.003539529
0.003539537
0.003539561
0.003539688
0.003539871
0.003541436
0.00375092
0.003539865
0.003539476
0.003539488
0.003539494
0.00353949
0.003539485
0.0035395
0.003539492
0.003540599
0.003540669
0.003750273
0.003539863
0.003539462
0.003539477
0.003539483
0.003539487
0.003539483
0.003539488
0.003539597
0.003540346
0.003546125
0.003749599
0.003539873
0.003539456
0.003539477
0.003539496
0.003539513
0.003539538
0.003539594
0.003539796
0.003540849
0.003541866
0.003748868
0.003539898
0.003539458
0.00353949
0.003539524
0.003539566
0.003539635
0.003539724
0.003540124
0.003540608
0.003541473
0.003748076
0.003539933
0.003539465
0.00353951
0.003539566
0.003539647
0.003539782
0.003540013
0.003540902
0.003543064
0.003560051
0.00374721
0.003539972
0.003539474
0.003539535
0.00353961
0.003539743
0.003539915
0.003540384
0.003541145
0.003545208
0.003565506
0.003746269
0.00354989
0.003588315
0.003552751
0.003552781
0.003554346
0.003551242
0.003552063
0.003551353
0.003551002
0.003551941
0.003551404
0.003766436
0.003543327
0.003540729
0.003541752
0.003541764
0.003540072
0.003540357
0.003540388
0.003540098
0.003540779
0.003540651
0.00375425
0.003540515
0.00354074
0.003539952
0.003540031
0.003540029
0.003539945
0.003539895
0.003539891
0.003539949
0.003539908
0.003757925
0.003540909
0.003539762
0.003539741
0.003539779
0.003539805
0.003539824
0.003539837
0.003539858
0.003539896
0.003539929
0.003757205
0.003540222
0.003539701
0.003539783
0.003539743
0.003539829
0.003539785
0.003539868
0.003539871
0.003539935
0.003539922
0.003756673
0.003540286
0.003539682
0.003539693
0.003539727
0.003539746
0.003539776
0.003539805
0.003539853
0.003539898
0.003539948
0.003755985
0.003540167
0.0035397
0.003539728
0.003539747
0.003539787
0.003539808
0.003539851
0.003539892
0.003539944
0.003539996
0.003755218
0.003540083
0.003539665
0.003539691
0.003539711
0.003539753
0.003539779
0.003539824
0.003539874
0.003539935
0.003540004
0.003754658
0.003540022
0.003539637
0.003539668
0.003539691
0.003539727
0.003539761
0.003539808
0.003539866
0.003539941
0.003540033
0.00375404
0.003539952
0.003539613
0.003539638
0.003539663
0.003539694
0.003539731
0.003539779
0.003539845
0.003539935
0.003540062
0.003753255
0.003539971
0.003539584
0.003539607
0.003539631
0.003539659
0.003539695
0.003539745
0.003539817
0.003539939
0.003540096
0.003752762
0.003540015
0.003539555
0.003539574
0.003539595
0.003539618
0.003539648
0.003539691
0.003539774
0.003539897
0.003540197
0.003752078
0.003539938
0.003539532
0.003539542
0.003539559
0.003539574
0.003539595
0.003539639
0.00353972
0.003539979
0.003540358
0.003751411
0.003539916
0.003539501
0.003539514
0.003539523
0.00353953
0.00353954
0.003539562
0.003539703
0.003539887
0.003541465
0.003750889
0.00353986
0.003539478
0.003539489
0.003539495
0.003539491
0.003539487
0.003539505
0.003539506
0.003540626
0.00354072
0.003750237
0.003539863
0.003539464
0.003539478
0.003539483
0.003539488
0.003539484
0.003539491
0.0035396
0.003540361
0.003546123
0.003749588
0.00353987
0.003539457
0.003539478
0.003539496
0.003539513
0.003539537
0.003539599
0.00353978
0.003540968
0.00354183
0.003748863
0.003539898
0.003539459
0.00353949
0.003539524
0.003539566
0.003539638
0.003539728
0.003540115
0.003540771
0.00354217
0.003748074
0.003539931
0.003539466
0.003539511
0.003539567
0.003539647
0.003539786
0.003540012
0.003540947
0.003542702
0.003552404
0.003747207
0.003539974
0.003539475
0.003539536
0.003539611
0.003539745
0.003539917
0.003540402
0.003541155
0.003545434
0.003565154
0.003746278
0.003540006
0.003539478
0.003539545
0.003550086
0.003582874
0.003552519
0.003557613
0.003554079
0.003553695
0.003552078
0.003551082
0.003553061
0.003552266
0.003550996
0.003766022
0.003542996
0.003541614
0.003542358
0.003541218
0.003540988
0.003540556
0.003540433
0.003540585
0.003540534
0.003540368
0.003753647
0.003540276
0.003540763
0.003539893
0.003539783
0.003539975
0.00353986
0.00353994
0.003539893
0.003539967
0.003540052
0.003757559
0.003540779
0.003539762
0.003539754
0.003539778
0.003539802
0.003539823
0.003539849
0.003539875
0.003539904
0.003539948
0.003756727
0.0035402
0.003539724
0.003539774
0.003539735
0.00353976
0.003539801
0.003539832
0.003539854
0.003539898
0.003539978
0.0037562
0.003540318
0.003539711
0.003539691
0.003539729
0.003539755
0.003539787
0.003539823
0.003539855
0.003539898
0.003539955
0.00375577
0.00354029
0.003539716
0.003539727
0.00353975
0.00353977
0.003539809
0.003539844
0.003539881
0.003539933
0.003539992
0.003755067
0.003540101
0.003539667
0.00353969
0.003539712
0.00353974
0.003539777
0.003539817
0.003539865
0.003539926
0.003540001
0.00375448
0.00353991
0.003539627
0.003539672
0.00353969
0.003539721
0.003539759
0.003539805
0.003539861
0.003539936
0.00354003
0.00375378
0.003539882
0.003539595
0.003539644
0.00353966
0.003539693
0.003539729
0.003539777
0.003539844
0.003539934
0.003540062
0.003753093
0.003539951
0.003539587
0.003539608
0.003539631
0.003539659
0.003539694
0.003539745
0.003539819
0.003539935
0.003540098
0.00375245
0.003540053
0.003539574
0.00353957
0.003539597
0.003539617
0.003539648
0.003539692
0.003539777
0.003539902
0.0035402
0.003752068
0.00354007
0.003539542
0.003539539
0.00353956
0.003539573
0.003539595
0.003539641
0.003539728
0.003539991
0.003540357
0.003751398
0.003539941
0.003539504
0.003539513
0.003539522
0.003539528
0.003539534
0.003539564
0.003539688
0.003539871
0.003541493
0.003750845
0.003539883
0.003539476
0.003539489
0.003539494
0.003539491
0.003539483
0.003539503
0.003539502
0.003540424
0.003540767
0.003750229
0.003539872
0.003539463
0.003539478
0.003539483
0.003539488
0.003539484
0.003539489
0.003539606
0.003540317
0.003545986
0.003749568
0.003539876
0.003539458
0.003539478
0.003539495
0.003539514
0.003539537
0.003539605
0.003539759
0.003541016
0.003541826
0.003748848
0.003539898
0.00353946
0.003539491
0.003539524
0.003539565
0.003539639
0.003539722
0.003540126
0.003540848
0.003542297
0.003748077
0.003539938
0.003539467
0.003539512
0.003539566
0.003539649
0.003539785
0.003540016
0.003540979
0.003542722
0.003552628
0.003747231
0.003539981
0.003539477
0.003539537
0.00353961
0.003539747
0.003539916
0.003540417
0.003541142
0.003545235
0.003564401
0.003746293
0.003540007
0.00353948
0.003539546
0.003539634
0.003539773
0.003549616
0.003578695
0.003553191
0.003554473
0.003553072
0.003551257
0.003550795
0.003551269
0.00355466
0.003563569
0.003578643
0.00376545
0.003542223
0.003543906
0.003543803
0.003543487
0.003543647
0.003543512
0.003543317
0.003542942
0.003543601
0.003543749
0.003775327
0.003540161
0.003540588
0.003540727
0.003540758
0.003540461
0.003540644
0.003540658
0.0035409
0.003540418
0.003540488
0.003776198
0.003540085
0.003540112
0.003540162
0.003540178
0.00354016
0.003540188
0.003540205
0.003540251
0.003540278
0.003540395
0.003775573
0.003539869
0.003539837
0.003539906
0.00353997
0.003539939
0.003539967
0.003540045
0.003540071
0.003540118
0.003540118
0.003773455
0.003539812
0.003539798
0.003539821
0.003539853
0.003539871
0.003539908
0.003539943
0.003539968
0.003540026
0.00354008
0.003752254
0.003540243
0.003539873
0.003539796
0.003539845
0.003539855
0.003539889
0.00353993
0.003539971
0.00354002
0.003540073
0.003754518
0.003540181
0.003539777
0.003539758
0.003539795
0.003539819
0.003539852
0.003539895
0.003539942
0.003540003
0.003540073
0.003755835
0.003540093
0.003539679
0.003539743
0.003539759
0.003539792
0.003539827
0.003539874
0.00353993
0.003540006
0.003540099
0.003760853
0.003539709
0.003539718
0.003539705
0.003539734
0.003539759
0.003539795
0.003539843
0.003539908
0.003539998
0.003540125
0.003763938
0.003539714
0.003539681
0.003539678
0.0035397
0.003539723
0.003539758
0.003539807
0.003539878
0.00354
0.00354016
0.003763318
0.003539638
0.003539635
0.003539639
0.003539661
0.003539682
0.003539711
0.003539752
0.00353983
0.003539951
0.003540263
0.00374897
0.003539958
0.003539693
0.003539603
0.003539634
0.003539638
0.00353966
0.003539698
0.003539777
0.003540066
0.003540482
0.003751144
0.003540076
0.003539589
0.003539576
0.003539594
0.003539597
0.003539607
0.003539629
0.003539816
0.003540003
0.003541705
0.003750774
0.003539958
0.003539568
0.003539555
0.003539567
0.003539556
0.003539564
0.003539582
0.00353955
0.003540579
0.003540766
0.003749966
0.003539968
0.003539552
0.003539543
0.003539553
0.00353955
0.003539546
0.003539555
0.003539677
0.00354034
0.003546903
0.003749369
0.003539978
0.003539553
0.003539544
0.003539563
0.003539576
0.003539601
0.003539663
0.003539984
0.003540716
0.003541842
0.003748676
0.003539987
0.003539557
0.003539555
0.003539592
0.003539632
0.003539701
0.003539833
0.003540146
0.003540911
0.00354339
0.003747911
0.003540035
0.003539566
0.003539578
0.003539639
0.003539713
0.003539879
0.003540102
0.003540998
0.003543025
0.00354798
0.003747075
0.003540109
0.003539584
0.003539603
0.003539683
0.003539807
0.003540003
0.003540437
0.003541282
0.003545381
0.003564331
0.0037462
0.003540126
0.003539588
0.003539614
0.003539707
0.00353983
0.003540076
0.0035404
0.003549096
0.003570711
0.003567221
0.003572504
0.003575162
0.003578363
0.003578603
0.00356961
0.003574118
0.003586244
0.00358596
0.003832854
0.003752924
0.003754698
0.003756152
0.003756114
0.003755796
0.003755985
0.003755612
0.003755436
0.003754609
0.003756162
0.003837673
0.003757785
0.003757859
0.003758153
0.003758266
0.003758194
0.003758419
0.003758551
0.003758674
0.003759225
0.003759748
0.003832517
0.003757025
0.003758233
0.003758732
0.003758839
0.003758834
0.003758912
0.003759065
0.003759129
0.00375941
0.003759698
0.003833821
0.003756242
0.003756783
0.003757142
0.00375728
0.003757341
0.003757507
0.003757659
0.003757842
0.003758242
0.0037586
0.003762246
0.003755915
0.00375651
0.003756724
0.003756888
0.003756963
0.003757105
0.003757253
0.003757465
0.003757884
0.003758214
0.003771526
0.00375511
0.003755814
0.003755967
0.00375608
0.003756175
0.003756315
0.003756487
0.003756716
0.003757083
0.003757493
0.003771221
0.003754477
0.003755157
0.003755356
0.003755463
0.003755537
0.003755669
0.003755829
0.00375605
0.003756388
0.003756808
0.00376909
0.00375388
0.003754555
0.003754697
0.003754778
0.003754847
0.003754934
0.003755053
0.003755223
0.003755493
0.003755894
0.003771337
0.00375324
0.003753937
0.003754052
0.003754122
0.003754164
0.003754213
0.003754279
0.00375437
0.003754562
0.003754884
0.003805015
0.003752695
0.003753264
0.00375341
0.00375345
0.003753473
0.003753467
0.003753439
0.003753406
0.003753393
0.003753555
0.003754155
0.003752207
0.003752701
0.003752796
0.00375283
0.003752827
0.003752769
0.00375268
0.003752447
0.003752343
0.003752188
0.003761689
0.003751614
0.003752101
0.003752188
0.003752233
0.003752218
0.003752119
0.003751853
0.003751447
0.003750573
0.003749808
0.003761376
0.003751001
0.003751478
0.003751619
0.003751685
0.00375171
0.003751579
0.003751357
0.00375044
0.00375047
0.003748428
0.003759425
0.003750385
0.003750954
0.003751086
0.003751214
0.003751311
0.003751321
0.003751143
0.003750536
0.003566639
0.00356142
0.003758904
0.003749881
0.00375035
0.003750564
0.003750774
0.003750995
0.003751247
0.003751264
0.003751314
0.003543854
0.003548206
0.003757028
0.003749301
0.003749754
0.003750021
0.003750327
0.003750701
0.003751178
0.003751573
0.003752139
0.003544381
0.003543943
0.003755431
0.003748625
0.003749103
0.003749413
0.003749808
0.003750348
0.003750964
0.00375188
0.003752616
0.003751971
0.003544561
0.003752792
0.003747885
0.003748374
0.003748724
0.003749202
0.003749855
0.003750721
0.003751844
0.003753309
0.003580191
0.003553242
0.003750962
0.003747123
0.003747551
0.003747929
0.003748452
0.003749133
0.003750184
0.003751168
0.00375326
0.00355628
0.003572052
0.003748517
0.003746267
0.003746663
0.003747013
0.00374754
0.003748197
0.003749184
0.003750097
0.003751775
0.003558066
0.003561021
0.003833564
0.003766095
0.003621481
0.003815572
0.003554332
0.003761702
0.003763213
0.003595825
0.003607964
0.00354944
0.003562437
0.003764629
0.003764547
0.003617764
0.003599156
0.003554961
0.00356367
0.003765401
0.003765964
0.00363527
0.003594546
0.003566283
0.003559364
0.003766346
0.003765606
0.003610314
0.00359767
0.003557223
0.003556914
0.003766052
0.003764857
0.003613429
0.003604319
0.003554403
0.003554208
0.003766653
0.00376522
0.003618512
0.00361066
0.00355239
0.003552044
0.00376741
0.003765289
0.003624762
0.003615907
0.003551578
0.003550617
0.003767695
0.003765321
0.003622749
0.003617544
0.003551685
0.003549952
0.003767893
0.003765445
0.003622989
0.003618876
0.003551776
0.003549896
0.003768183
0.003765628
0.003622453
0.003620225
0.003552016
0.003550147
0.003777654
0.003830669
0.003776252
0.003765764
0.003544782
0.003777227
0.003542649
0.003774707
0.003824746
0.003774365
0.003774123
0.003544055
0.003775102
0.003544447
0.003774991
0.003822362
0.003773612
0.003775692
0.003544237
0.003775211
0.00354419
0.003774285
0.003819073
0.003772584
0.003775763
0.003544352
0.003774099
0.003543371
0.003772789
0.003815325
0.003771004
0.003774192
0.003544333
0.003772496
0.003543401
0.003771174
0.003811521
0.003769436
0.003772502
0.003544104
0.003770828
0.003543205
0.003769524
0.003807734
0.003767844
0.003770779
0.003544002
0.00376918
0.003543118
0.003767889
0.003803997
0.003766282
0.003769073
0.003543868
0.003767551
0.003543004
0.003766282
0.003800322
0.003764748
0.003767397
0.003543754
0.003765951
0.0035429
0.003764704
0.003796706
0.003763241
0.003765752
0.003543637
0.003764385
0.003542794
0.003763158
0.003793152
0.003761762
0.003764139
0.003543523
0.003762851
0.003542692
0.003761644
0.003789645
0.003760309
0.003762558
0.003543417
0.003761342
0.003542592
0.003760153
0.003786155
0.003758872
0.003761
0.003543313
0.003759848
0.003542499
0.003758671
0.003782622
0.003757431
0.003759451
0.003543217
0.003758349
0.003542409
0.003757168
0.003778952
0.003755946
0.003757879
0.003543135
0.00375681
0.003542328
0.003731562
0.003785016
0.003547979
0.003681199
0.003547682
0.003755606
0.003775058
0.003754382
0.003756245
0.003543062
0.003755188
0.003542252
0.003793099
0.003542725
0.003542893
0.003753942
0.00377085
0.003752699
0.003754507
0.00354299
0.003753437
0.003542147
0.00380516
0.003543007
0.003545154
0.003752136
0.003766248
0.003750857
0.003752622
0.00354292
0.003751523
0.003542032
0.003822827
0.003550713
0.003563857
0.003750156
0.003761227
0.003748835
0.003750567
0.003542846
0.003749429
0.003541922
0.003823039
0.003859878
0.003567181
0.00360168
0.003746127
0.003747996
0.003748335
0.003542759
0.003607545
0.003819663
0.003556203
0.003594154
0.003821037
0.003565416
0.003690954
0.003545138
0.003546904
0.003688356
0.003545111
0.003600433
0.003770362
0.003564479
0.003601508
0.003775884
0.003603513
0.003824071
0.003563578
0.003594429
0.00382531
0.003565555
0.003685717
0.003545
0.003546049