/*--------------------------------*- C++ -*----------------------------------*\
  =========                 |
  \\      /  F ield         | OpenFOAM: The Open Source CFD Toolbox
   \\    /   O peration     | Website:  https://openfoam.org
    \\  /    A nd           | Version:  7
     \\/     M anipulation  |
\*---------------------------------------------------------------------------*/
FoamFile
{
    version     2.0;
    format      ascii;
    class       volScalarField;
    location    "0.06";
    object      p;
}
// * * * * * * * * * * * * * * * * * * * * * * * * * * * * * * * * * * * * * //

dimensions      [0 2 -2 0 0 0 0];

internalField   nonuniform List<scalar> 
105056
(
0.3629833
0.3621609
0.3606282
0.3589259
0.3570777
0.3634546
0.362644
0.3613398
0.3592695
0.3568311
0.364461
0.3633844
0.362076
0.3599487
0.3575246
0.3655063
0.3647356
0.3635081
0.3613751
0.3589772
0.3665755
0.3663209
0.3650769
0.3629073
0.3605053
0.3676218
0.3681635
0.3668139
0.3646664
0.3622276
0.3688736
0.3701776
0.36876
0.366642
0.3641726
0.3703144
0.3722717
0.3708257
0.3687341
0.3662479
0.3720131
0.3745187
0.3730943
0.3710156
0.3685214
0.37389
0.3768955
0.3755128
0.3734361
0.3709403
0.3759685
0.3794128
0.3780955
0.3760182
0.3735261
0.3783122
0.382065
0.3808396
0.3787543
0.3762646
0.3808146
0.3848645
0.3837339
0.3816495
0.3791603
0.3835217
0.3878159
0.3867766
0.3846879
0.3822025
0.386331
0.3909464
0.3899751
0.3879025
0.3853909
0.3893083
0.3942479
0.3933099
0.391252
0.3887262
0.3923871
0.3977146
0.3967805
0.3947367
0.3921927
0.3956424
0.4013143
0.4003965
0.3983628
0.3958141
0.3990336
0.4049755
0.4041424
0.4021156
0.3995719
0.4026628
0.4087203
0.4080067
0.4059869
0.4034466
0.4064018
0.4128218
0.4120007
0.409975
0.4074348
0.4103168
0.4172194
0.4161194
0.4140826
0.4115392
0.3957695
0.4215845
0.4203415
0.418278
0.4157377
0.3622543
0.3609729
0.3595971
0.3580456
0.3560943
0.3638366
0.3629014
0.3621735
0.3615118
0.3604586
0.3591924
0.3647878
0.3633203
0.3625732
0.3622741
0.3608791
0.3594625
0.3657066
0.3634411
0.362304
0.3619924
0.36049
0.3591995
0.3666195
0.3637907
0.3629873
0.3628754
0.3613384
0.3600117
0.3677285
0.3641447
0.3635587
0.3633175
0.3618293
0.3605024
0.3690387
0.3646373
0.3645614
0.3640815
0.3627788
0.3613999
0.370679
0.3654158
0.365727
0.3650172
0.3638834
0.3624518
0.3724313
0.3662853
0.3669878
0.3660942
0.3650938
0.3636363
0.3743162
0.3674499
0.368421
0.3674378
0.3665361
0.3650727
0.3763387
0.3688436
0.3699522
0.368947
0.3680874
0.3666418
0.3785313
0.3704039
0.3716559
0.3706345
0.3698351
0.3684109
0.3808953
0.3721587
0.3735245
0.3724957
0.3717473
0.370339
0.3834223
0.3740582
0.3755596
0.3745292
0.3738356
0.3724417
0.3860585
0.3762134
0.3777877
0.3767343
0.3761028
0.3747093
0.3888209
0.3785096
0.3801933
0.3790933
0.3785271
0.3771355
0.3917628
0.3809676
0.3827958
0.3816298
0.3811277
0.3797299
0.3948959
0.383395
0.3855605
0.3843025
0.3838771
0.3824742
0.3981753
0.385938
0.3884719
0.3871254
0.3867721
0.3853639
0.4016808
0.3883416
0.3914715
0.3900741
0.3897934
0.3883849
0.4053199
0.391148
0.3945962
0.3931858
0.3929556
0.3915563
0.409191
0.3941704
0.3977712
0.3964229
0.3962305
0.3948534
0.4131823
0.3973577
0.400991
0.3997975
0.3996335
0.3982863
0.3916731
0.4009504
0.4043448
0.4032833
0.4031308
0.4018209
0.3620037
0.3602543
0.3586548
0.3567114
0.3543842
0.3641055
0.362892
0.3616046
0.3607509
0.3593595
0.3579415
0.3654061
0.3638291
0.362565
0.3623842
0.3607559
0.3593972
0.3665237
0.3641648
0.3620987
0.3618534
0.3601214
0.3588538
0.3677635
0.3648103
0.3629712
0.3631118
0.3612481
0.360033
0.3692298
0.3654072
0.3634886
0.3635193
0.36163
0.3604172
0.3708728
0.3659833
0.364615
0.3644458
0.3627208
0.3614385
0.3726458
0.3668657
0.3658575
0.3653984
0.3638116
0.3624561
0.3745782
0.3680138
0.3672014
0.3665758
0.3650797
0.3636795
0.3768562
0.3694402
0.3687067
0.3679993
0.3665515
0.3651321
0.3792618
0.371044
0.3702919
0.3695808
0.3681326
0.3667187
0.3817671
0.3728152
0.3720744
0.3713641
0.3699222
0.368518
0.3843733
0.3747546
0.3740047
0.3733012
0.3718626
0.370467
0.3871162
0.3768535
0.3760973
0.3754109
0.3739832
0.3725945
0.3900398
0.3791368
0.3783741
0.3776702
0.3762721
0.3748803
0.3931898
0.3814974
0.3808278
0.3800783
0.3787332
0.3773288
0.3961909
0.384085
0.3834768
0.3826364
0.3813559
0.3799323
0.3992123
0.3867446
0.3862996
0.3853487
0.3841365
0.3826909
0.4025595
0.3896407
0.389285
0.3882049
0.3870638
0.3856003
0.4060459
0.3927236
0.392411
0.3912182
0.3901276
0.3886545
0.4098009
0.3957908
0.3956978
0.3943568
0.3933209
0.3918487
0.4140115
0.3989221
0.3990977
0.3976399
0.3966328
0.3951629
0.4182613
0.4021757
0.4025956
0.4010731
0.4000853
0.3986261
0.4225115
0.4056107
0.4062102
0.4046216
0.4036255
0.4021664
0.3621496
0.3597638
0.3582937
0.3564983
0.3542601
0.3639866
0.3629811
0.3614097
0.3604273
0.3592184
0.357872
0.3658059
0.3641644
0.3627123
0.3628286
0.3609713
0.3597692
0.3669843
0.364828
0.3615832
0.361661
0.3599102
0.3587913
0.3681972
0.3652077
0.3626281
0.3632853
0.3612007
0.3601277
0.3697172
0.36574
0.3630574
0.3636006
0.3615064
0.3604152
0.371383
0.3662151
0.3642137
0.3644451
0.362604
0.3614197
0.3738572
0.3668098
0.3654521
0.365346
0.3637038
0.3624374
0.3761903
0.3676921
0.3667628
0.3664264
0.364935
0.3636191
0.3786193
0.3688781
0.3682246
0.36781
0.3664028
0.3650744
0.3813284
0.3704934
0.3697661
0.3693477
0.367955
0.3666385
0.3840193
0.372153
0.371502
0.3710913
0.3697243
0.3684293
0.3868272
0.3739865
0.3734068
0.3729859
0.3716447
0.3703635
0.3897355
0.3759719
0.3754671
0.3750599
0.3737441
0.3724792
0.3927856
0.3781988
0.3777195
0.3772942
0.3760185
0.3747551
0.3960503
0.380535
0.3801221
0.3796937
0.3784573
0.3771943
0.3990487
0.383206
0.3827178
0.382257
0.381065
0.3797938
0.4021503
0.3858593
0.3854823
0.3849683
0.3838272
0.3825461
0.4060374
0.3886098
0.3883908
0.3878086
0.386742
0.3854473
0.4097347
0.3918083
0.3914444
0.3908035
0.3897983
0.3884869
0.413786
0.3947521
0.3946815
0.3938991
0.3929934
0.3916697
0.4169887
0.3981711
0.3980755
0.3971302
0.3963038
0.3949721
0.4219045
0.4011933
0.4015917
0.4004623
0.3997385
0.3984086
0.4273706
0.4044909
0.4052378
0.4039075
0.4032646
0.4019494
0.3622619
0.3598843
0.3576723
0.3561551
0.3537682
0.3639664
0.3630479
0.361307
0.3602753
0.3591685
0.3576537
0.3661032
0.3642412
0.3628404
0.3630065
0.3608648
0.3598101
0.3677216
0.3649798
0.3613537
0.3615705
0.3597606
0.3586876
0.3689327
0.3652136
0.3625552
0.363393
0.3611514
0.3601693
0.3704333
0.3658536
0.3629769
0.363682
0.3614268
0.3604001
0.3717361
0.3663468
0.3641704
0.3645544
0.3625678
0.3614538
0.3742133
0.3670389
0.3654322
0.3654578
0.363668
0.3624624
0.3765919
0.3678556
0.3667612
0.3665434
0.3649115
0.3636534
0.3789901
0.369324
0.3682655
0.3679518
0.3663946
0.3651179
0.3816454
0.3707033
0.3698523
0.369472
0.3679521
0.3666836
0.3843863
0.3723727
0.3716297
0.371229
0.3697335
0.3684849
0.3871842
0.3741827
0.3735625
0.3731326
0.3716605
0.3704241
0.3900731
0.3761104
0.3756599
0.3752209
0.3737701
0.3725483
0.3930978
0.3783863
0.3779225
0.3774684
0.3760473
0.3748286
0.3963398
0.3806954
0.3803432
0.3798788
0.3784925
0.3772732
0.3992481
0.3832509
0.3829201
0.3824443
0.381097
0.3798735
0.4022921
0.3864961
0.385643
0.38522
0.3838608
0.3826307
0.4054868
0.3892574
0.3885219
0.3880733
0.3867675
0.3855328
0.4095592
0.3923391
0.3915609
0.3910764
0.3898119
0.3885678
0.4132678
0.3952568
0.3947521
0.3941922
0.3930033
0.3917565
0.416723
0.3986446
0.3980755
0.3974373
0.3962935
0.3950294
0.4208225
0.4018906
0.4015713
0.4008305
0.3997742
0.3985079
0.4257087
0.4053171
0.4051735
0.4042701
0.4032564
0.4019487
0.3622679
0.3596586
0.3575
0.3554807
0.3538364
0.3640442
0.3630382
0.3613255
0.3602817
0.3591136
0.3576842
0.3660444
0.3643204
0.3628379
0.3630023
0.360872
0.359811
0.3677798
0.3650018
0.3613397
0.3615529
0.3597547
0.3586872
0.369018
0.3652247
0.3625571
0.363384
0.3611516
0.360166
0.3706352
0.3659112
0.362982
0.3636735
0.3614232
0.3603955
0.3719337
0.3663629
0.3642003
0.3645384
0.3625698
0.361448
0.3744986
0.3669409
0.3654521
0.3654313
0.363667
0.3624546
0.3770072
0.3678375
0.3667789
0.3665244
0.3649111
0.3636468
0.3793984
0.369217
0.3682748
0.367934
0.3663924
0.3651112
0.3818748
0.3707166
0.3698548
0.3694725
0.3679507
0.3666795
0.3843827
0.3723238
0.3716285
0.3712311
0.3697314
0.3684806
0.3868386
0.3742526
0.3735517
0.3731501
0.3716589
0.3704226
0.3895269
0.3762054
0.3756672
0.3752245
0.3737684
0.372545
0.3923108
0.378366
0.3779203
0.3774696
0.3760453
0.374827
0.3956468
0.3807533
0.3803349
0.3798734
0.3784891
0.3772705
0.3988545
0.3833138
0.3829063
0.382439
0.3810939
0.3798736
0.4019885
0.3860659
0.3856364
0.3851554
0.3838533
0.3826273
0.4054876
0.3889567
0.3885173
0.3880193
0.3867635
0.385534
0.4093823
0.3919629
0.3915505
0.3910189
0.3898116
0.3885753
0.413027
0.3951342
0.3947368
0.3941599
0.3930033
0.3917629
0.4168811
0.39845
0.3980602
0.3974203
0.3963122
0.3950683
0.4210484
0.40179
0.4015289
0.4008124
0.3997549
0.3985017
0.4255295
0.4050345
0.4051637
0.4043009
0.4033106
0.4020607
0.3621707
0.3596783
0.3577834
0.3561419
0.3541546
0.3641391
0.3629653
0.3613873
0.3604226
0.3592386
0.3579345
0.365951
0.3641858
0.3627241
0.3628314
0.360959
0.359771
0.3673152
0.3648527
0.3615741
0.3616691
0.3599009
0.3587863
0.3688125
0.3652239
0.3626279
0.3632791
0.361198
0.3601239
0.3700661
0.3657756
0.363079
0.3635972
0.3615065
0.3604081
0.3717834
0.3660554
0.3642436
0.364416
0.3626024
0.3614109
0.3743971
0.3666885
0.3654721
0.3653171
0.3637011
0.3624283
0.3768319
0.3675454
0.3667798
0.3663895
0.3649304
0.3636091
0.3792299
0.3687976
0.3682534
0.3677723
0.3663985
0.3650647
0.381659
0.3703185
0.3698045
0.3693012
0.3679506
0.3666284
0.3840462
0.3718093
0.3715565
0.3710335
0.3697187
0.3684194
0.3864596
0.3738094
0.3734252
0.3729535
0.3716387
0.3703562
0.3892417
0.3759877
0.3754803
0.3750493
0.3737404
0.3724741
0.3922184
0.3781939
0.3777118
0.3772919
0.3760129
0.3747499
0.3953832
0.3805949
0.3801183
0.3796943
0.3784491
0.3771865
0.3989307
0.3831386
0.3826787
0.3822574
0.3810503
0.3797827
0.4024596
0.3859628
0.3853989
0.3849781
0.3838032
0.3825259
0.406126
0.3888017
0.3882651
0.3878309
0.3867133
0.3854239
0.4099009
0.3919702
0.3912997
0.3908012
0.3897454
0.3884319
0.4137449
0.3950943
0.3945389
0.393917
0.3929592
0.3916323
0.4176043
0.3980792
0.3978755
0.3970724
0.3961957
0.3948302
0.4218736
0.4013149
0.401409
0.400488
0.3997463
0.3983832
0.4256336
0.4045566
0.4049565
0.4037694
0.4030552
0.4015771
0.3620277
0.3602243
0.3584999
0.3565652
0.3543029
0.3642063
0.3629004
0.3615927
0.3607165
0.3593265
0.357941
0.3655035
0.3638247
0.3625695
0.3623837
0.3607568
0.3594015
0.3666871
0.3641399
0.3620949
0.3618329
0.3601056
0.3588363
0.3679986
0.3647676
0.3629776
0.363093
0.3612405
0.3600227
0.3695856
0.3653067
0.3634928
0.3634904
0.3616194
0.3604013
0.3716447
0.3658108
0.3646173
0.3643999
0.3627108
0.3614217
0.3739355
0.3666941
0.3658445
0.3653468
0.3637975
0.3624359
0.3762268
0.3678314
0.3671793
0.3665226
0.3650638
0.36366
0.3785424
0.3692494
0.3686847
0.3679475
0.3665349
0.3651127
0.3809716
0.3708785
0.3702792
0.3695358
0.3681178
0.3667006
0.3835657
0.3726991
0.3720718
0.3713264
0.3699093
0.368501
0.3863046
0.3747348
0.3739979
0.3732823
0.3718524
0.3704531
0.3892009
0.376873
0.3760984
0.3753975
0.3739738
0.3725815
0.3921727
0.3791322
0.3783649
0.377661
0.3762624
0.3748681
0.395276
0.3815241
0.3808225
0.3800687
0.3787211
0.3773148
0.39864
0.3840391
0.3834488
0.3826211
0.3813385
0.3799162
0.4021681
0.386747
0.386253
0.3853237
0.3841097
0.3826677
0.4059032
0.3895923
0.3892183
0.3881759
0.3870291
0.385571
0.4098855
0.3926394
0.3923267
0.3911749
0.3900811
0.3886112
0.4140267
0.395875
0.3956
0.3943248
0.3932604
0.3917811
0.4183101
0.3991364
0.3990308
0.3976039
0.3965646
0.3950808
0.4226638
0.4022858
0.402518
0.4010095
0.399975
0.3984765
0.4269167
0.4056951
0.4061613
0.4045772
0.4035421
0.4020281
0.3620501
0.3607062
0.3591583
0.3572861
0.3551574
0.3640617
0.3629021
0.3621674
0.3615031
0.360451
0.3592016
0.3650632
0.3633286
0.3625778
0.3622748
0.3608772
0.3594594
0.366075
0.3634356
0.3623013
0.361981
0.3604778
0.3591841
0.3672467
0.3637856
0.3629869
0.3628647
0.3613299
0.3599995
0.3684519
0.3641823
0.3635597
0.3633061
0.3618204
0.3604879
0.3696893
0.3646785
0.3645512
0.3640669
0.3627676
0.3613859
0.3713601
0.3653931
0.365704
0.3649946
0.3638695
0.3624382
0.3733351
0.3662267
0.3669589
0.3660649
0.3650774
0.3636217
0.3754212
0.3673748
0.3683924
0.3674075
0.3665205
0.3650588
0.3775942
0.3687542
0.3699283
0.3689167
0.3680729
0.3666297
0.3798846
0.3703346
0.371638
0.3706107
0.3698235
0.3684009
0.3823783
0.3720951
0.3735103
0.3724774
0.3717379
0.3703317
0.3850177
0.3740517
0.375553
0.3745225
0.3738294
0.3724357
0.3875023
0.3762075
0.3777815
0.3767296
0.3760957
0.3747035
0.3903352
0.3785498
0.380191
0.3790931
0.3785182
0.3771258
0.393334
0.3809901
0.3827843
0.3816265
0.381114
0.3797172
0.3964899
0.3835422
0.3855392
0.3843021
0.3838544
0.3824484
0.4000064
0.3861315
0.3884365
0.3871274
0.386749
0.38534
0.4041294
0.3885234
0.3914134
0.3900494
0.3897391
0.3883176
0.4082365
0.3912294
0.3945302
0.3931803
0.3929399
0.3915351
0.4120307
0.3942112
0.3976433
0.3963426
0.3961143
0.3946733
0.4157986
0.3974642
0.4009169
0.3998497
0.3997441
0.3983614
0.3916374
0.4010244
0.4041154
0.4030693
0.4028216
0.401056
0.3621815
0.3610238
0.3590133
0.3572284
0.3549385
0.3639195
0.3629107
0.3619961
0.3605303
0.3588391
0.3569479
0.3647966
0.3635424
0.3625987
0.3612165
0.3591559
0.3567146
0.3661612
0.3645179
0.3634188
0.3620262
0.3599017
0.357428
0.3672652
0.365628
0.3647589
0.3634756
0.3613364
0.3588628
0.3687189
0.3667752
0.3663431
0.3650916
0.362952
0.3604692
0.370326
0.3679894
0.3681921
0.3669381
0.3648266
0.3623346
0.3718572
0.3694134
0.3702132
0.3689485
0.3668733
0.3643743
0.3733653
0.3711161
0.3723811
0.3711159
0.3690772
0.3665736
0.3751308
0.3729249
0.3747117
0.3734634
0.3714548
0.3689499
0.3769543
0.3748918
0.377189
0.3759653
0.3739801
0.3714792
0.3790765
0.3770496
0.379831
0.3786351
0.3766638
0.3741704
0.3812515
0.3794038
0.382624
0.3814589
0.3794987
0.3770157
0.3836042
0.3819237
0.3855695
0.3844391
0.3824916
0.380016
0.3860404
0.3846044
0.3886652
0.387568
0.3856272
0.3831623
0.3885591
0.3874347
0.3919205
0.3908443
0.3889254
0.3864537
0.3911032
0.3903717
0.3953266
0.394253
0.3923529
0.3898825
0.3939612
0.3934146
0.3988848
0.3978043
0.3959184
0.3934401
0.3970712
0.3965594
0.4025705
0.4014909
0.3996275
0.3971511
0.4005027
0.3998265
0.4063509
0.4052948
0.4034531
0.4009786
0.4038357
0.4032764
0.4102526
0.4092244
0.4074001
0.404922
0.4073932
0.4069099
0.4143898
0.4132829
0.4114523
0.4089664
0.4110638
0.4107849
0.4187138
0.4174781
0.4156389
0.4131776
0.4147533
0.3912253
0.4230593
0.4216945
0.4197765
0.41729
0.3630944
0.3632022
0.36301
0.3631205
0.3620568
0.3631065
0.362181
0.363762
0.362039
0.3629732
0.3611553
0.3629574
0.3609918
0.3637839
0.3610149
0.362644
0.3596837
0.3625744
0.3590303
0.3628268
0.3595799
0.3624521
0.3579615
0.3617117
0.3572385
0.3619583
0.3579016
0.3617464
0.355924
0.3549528
0.355935
0.3630522
0.3631344
0.3630614
0.3629502
0.3632251
0.363094
0.3629519
0.3632543
0.3630593
0.362998
0.363289
0.3631201
0.3630138
0.3632006
0.3630002
0.3630019
0.3631483
0.3631274
0.3630015
0.3632231
0.3628229
0.3630482
0.3631639
0.3631086
0.3630635
0.3632017
0.3629116
0.3630574
0.3632222
0.3630743
0.3630429
0.3632904
0.3630772
0.3630524
0.3632144
0.3631765
0.3630537
0.3632264
0.3630862
0.3630136
0.3631873
0.3631181
0.3630349
0.3632169
0.3631005
0.3630614
0.3631706
0.3631095
0.3632222
0.3630151
0.3631408
0.3631086
0.3637853
0.3610155
0.3626592
0.3611583
0.3629611
0.3628149
0.3595728
0.3624406
0.3596743
0.3625664
0.3619325
0.3578936
0.3617336
0.357953
0.3616968
0.3559235
0.3559099
0.3640544
0.3621473
0.363006
0.3640599
0.3627677
0.3647981
0.3616534
0.3629577
0.3646647
0.362441
0.3656757
0.3618086
0.3625217
0.3656111
0.3621476
0.3666904
0.3617623
0.3625873
0.3666381
0.362215
0.3678773
0.3618341
0.3627736
0.3678759
0.3624948
0.3692265
0.3621135
0.3631607
0.3692652
0.3629531
0.3707677
0.3625797
0.3637457
0.3707781
0.3635566
0.3725003
0.3632388
0.3647989
0.3723904
0.3643307
0.3743338
0.3642277
0.3659041
0.3741862
0.3652727
0.3763129
0.3652929
0.3671019
0.3761466
0.3663637
0.3785295
0.3666119
0.3685022
0.3783256
0.3676659
0.3890966
0.3738044
0.3757459
0.3886188
0.3746844
0.3920613
0.3760679
0.3779665
0.3915643
0.3768855
0.3951975
0.3786039
0.3803858
0.3946389
0.3792923
0.3985027
0.381238
0.3829675
0.3978561
0.381873
0.4020472
0.3840567
0.3857633
0.4012101
0.3846345
0.4177312
0.3967859
0.3986968
0.415973
0.3988272
0.3631291
0.3631432
0.3630715
0.3623918
0.3624509
0.3632117
0.364052
0.3627642
0.3639025
0.3640423
0.3621325
0.363002
0.3646602
0.3624424
0.364809
0.3647955
0.3616543
0.3629566
0.3656116
0.3621544
0.366172
0.3656771
0.3618231
0.362534
0.3666488
0.3622279
0.3672608
0.3666983
0.3617986
0.3626114
0.3678947
0.3625193
0.3687323
0.3678977
0.3619215
0.3628135
0.3693024
0.3630009
0.3703581
0.3692759
0.3622335
0.363224
0.3708308
0.3636263
0.3719333
0.3708432
0.3626943
0.3638285
0.3724676
0.3644092
0.3734602
0.3725876
0.3633267
0.364885
0.3742668
0.3653444
0.375256
0.3744238
0.3642996
0.3659827
0.376219
0.3664235
0.3770422
0.3763835
0.3653658
0.3671625
0.3783788
0.367708
0.379101
0.3785761
0.3666575
0.3685384
0.380726
0.3691578
0.3812614
0.3809692
0.368127
0.3700712
0.3831872
0.3707952
0.3836404
0.3835286
0.3697797
0.3717848
0.3858159
0.3726345
0.3860437
0.386222
0.3716324
0.3736606
0.3885994
0.3746719
0.3885257
0.389074
0.3737607
0.3757246
0.3915485
0.3768868
0.3910838
0.3920444
0.376092
0.3779682
0.3946328
0.379305
0.3940046
0.3951993
0.3786698
0.3804021
0.3978631
0.3819084
0.3971873
0.3985429
0.3813751
0.3830268
0.4012285
0.3846878
0.400646
0.4021131
0.384212
0.3858399
0.4047502
0.3876295
0.4040206
0.4058244
0.3871809
0.3888147
0.4084252
0.3907256
0.4075849
0.4097266
0.3903283
0.3919948
0.412199
0.3939651
0.4111712
0.4137734
0.39355
0.3953261
0.4159895
0.3988
0.4148082
0.4177679
0.3968132
0.3986978
0.3631447
0.3630995
0.3631526
0.3631208
0.3630955
0.3631364
0.3631526
0.3631799
0.3631761
0.3631872
0.3631997
0.363236
0.3631713
0.3632106
0.3631436
0.3631331
0.363143
0.3631311
0.3637777
0.3620474
0.3629814
0.3620666
0.3631093
0.3809446
0.3681277
0.3700665
0.3806858
0.3691435
0.3835234
0.3697973
0.3717943
0.3831735
0.3707971
0.3862338
0.3716362
0.3736739
0.3858189
0.3726448
0.4057464
0.38703
0.3887257
0.4047206
0.3875704
0.4096601
0.3902333
0.3919478
0.4083909
0.390687
0.4137181
0.3934735
0.3952655
0.4121653
0.3939407
0.3627791
0.3632492
0.3631584
0.3627069
0.3634634
0.362938
0.3630376
0.3635379
0.3631242
0.3631318
0.362305
0.3630126
0.362923
0.3621365
0.3631138
0.3631535
0.3631591
0.3631266
0.3631545
0.3631494
0.3631648
0.3631701
0.3632362
0.3632261
0.3632667
0.3631946
0.3631955
0.3631379
0.3631389
0.3630992
0.3631354
0.3631517
0.3627937
0.3632589
0.3631689
0.3627166
0.3634682
0.3629468
0.3630471
0.363544
0.3625276
0.3615641
0.3617343
0.3628692
0.3613979
0.3624942
0.362127
0.3611167
0.3614826
0.360338
0.3604853
0.3620795
0.359946
0.3615608
0.361022
0.3597
0.3600824
0.3587663
0.3588403
0.3609152
0.3582159
0.3603488
0.3596732
0.3579556
0.3585278
0.3569444
0.3570084
0.3594732
0.3563534
0.3560722
0.3630307
0.3637823
0.3637221
0.3628771
0.363745
0.3629068
0.3630291
0.3639138
0.3632262
0.3642958
0.3641349
0.3628386
0.3642666
0.3629615
0.3633562
0.3645423
0.3637267
0.3650206
0.3648563
0.3630411
0.3650984
0.3632273
0.3638168
0.365369
0.3644209
0.3658755
0.3658134
0.3634373
0.3660275
0.3636354
0.3643761
0.366343
0.365186
0.3668487
0.3668784
0.3640095
0.3671104
0.3641811
0.3650337
0.3674262
0.3660593
0.3679589
0.3680879
0.3647121
0.3682952
0.3648172
0.365773
0.3686172
0.3670064
0.3691309
0.3693397
0.3654916
0.3695308
0.3655899
0.3666773
0.3698422
0.3680304
0.3703818
0.3705527
0.3664047
0.3707928
0.366618
0.3677887
0.371177
0.3723346
0.3678818
0.3690729
0.3727629
0.3708039
0.3734557
0.3736066
0.3690201
0.3741241
0.3693364
0.3705361
0.3745328
0.37245
0.3752717
0.3754652
0.3706131
0.3760604
0.3709426
0.3721196
0.3764471
0.3804514
0.3839972
0.3845189
0.3786429
0.3828367
0.3865409
0.3871952
0.3810747
0.3882544
0.3815801
0.3823981
0.3883173
0.3854021
0.3892802
0.3900675
0.3837179
0.3912424
0.3842609
0.3849341
0.3911911
0.3881523
0.392205
0.3931062
0.3865652
0.3944278
0.3871408
0.3876634
0.3942403
0.3911106
0.3953533
0.3964042
0.3896263
0.3978222
0.3902203
0.3905536
0.3975089
0.4123285
0.4039188
0.4116409
0.4030523
0.3631219
0.3631326
0.3631159
0.3631706
0.3634041
0.3629268
0.3631744
0.3631363
0.3630116
0.3633674
0.3628923
0.3634872
0.362969
0.3635185
0.3631173
0.363335
0.3633076
0.3629464
0.3632255
0.3629461
0.3631871
0.3630324
0.36294
0.363401
0.3632168
0.3630267
0.363171
0.363143
0.3634871
0.3628752
0.3635157
0.3630107
0.3634362
0.3631048
0.3630294
0.3632947
0.362906
0.3632474
0.3631052
0.363129
0.3627876
0.3636495
0.3634381
0.362676
0.3634522
0.3625933
0.3628017
0.3635644
0.3612305
0.3637249
0.3630354
0.3606593
0.3625449
0.3595374
0.3623851
0.3605269
0.3628708
0.3640059
0.3629021
0.3636676
0.3638062
0.3621221
0.3641532
0.3625754
0.3628657
0.3648215
0.3629104
0.3642179
0.3649934
0.3618188
0.3659229
0.3625973
0.3658701
0.3619885
0.3669512
0.3629427
0.363586
0.3683201
0.3638526
0.3668013
0.3668712
0.3623187
0.3634209
0.3680649
0.3641937
0.3696971
0.3644671
0.367943
0.3679704
0.3628383
0.3692677
0.364055
0.3649894
0.3712319
0.3652331
0.369222
0.3691598
0.363517
0.364844
0.3705712
0.3693055
0.3718054
0.3719253
0.367609
0.3720935
0.3655524
0.3736858
0.3671041
0.368448
0.3762287
0.368762
0.37364
0.373865
0.3669099
0.3755105
0.3685718
0.3700254
0.3782106
0.3703771
0.3754707
0.3757782
0.3684462
0.3702118
0.3774759
0.3780945
0.3875728
0.3843286
0.3786392
0.385463
0.3791123
0.3800339
0.3856425
0.3805245
0.3902441
0.3811293
0.3868991
0.3968539
0.3875911
0.389871
0.3985391
0.4038842
0.4092523
0.4107334
0.4030354
0.4110061
0.4012835
0.4125098
0.4036813
0.3629781
0.3634466
0.363302
0.3629704
0.3632753
0.362829
0.3629782
0.3632924
0.3631411
0.3631223
0.3631371
0.3631896
0.3629493
0.363342
0.3630691
0.3632868
0.3634378
0.3629075
0.3634789
0.3629628
0.3635104
0.3629983
0.3631136
0.3632304
0.3629063
0.3633481
0.3630062
0.3632098
0.362401
0.3624702
0.363217
0.363081
0.3630182
0.3629323
0.3621442
0.3623171
0.3772203
0.3774621
0.3723425
0.374215
0.3727369
0.3785009
0.3781475
0.3738693
0.3793361
0.3742706
0.3761381
0.3796266
0.3746995
0.3807266
0.3804038
0.3757964
0.3815953
0.3763613
0.378223
0.381981
0.3768241
0.3778451
0.3831052
0.3828464
0.3986817
0.3998552
0.392847
0.3942355
0.3934174
0.4009081
0.401376
0.39355
0.4021184
0.3961707
0.3973968
0.4034206
0.3967458
0.4044172
0.4049568
0.3966444
0.4056621
0.3995776
0.4006335
0.4070603
0.4001364
0.3997976
0.4079934
0.4086182
0.3630977
0.3631436
0.3633274
0.3630252
0.3631442
0.3630677
0.3632642
0.3630314
0.3628688
0.3634721
0.3630289
0.3635049
0.3630992
0.3634976
0.3632905
0.3630779
0.3632992
0.3628932
0.3631567
0.3630915
0.3629716
0.3634519
0.3629682
0.3633081
0.3632677
0.3628359
0.3632918
0.3629883
0.3633618
0.3627215
0.3628351
0.3634261
0.3629091
0.3635406
0.3634212
0.3628445
0.3604238
0.3631781
0.3594649
0.3624846
0.3636208
0.3624142
0.3639855
0.3626684
0.3626609
0.3641638
0.362585
0.3637855
0.3641915
0.3621083
0.3647447
0.3626208
0.3648343
0.362045
0.3658693
0.3627153
0.3628334
0.3659029
0.3626042
0.3650778
0.3656781
0.3622212
0.3670515
0.3630177
0.3632534
0.367038
0.3629236
0.3659426
0.3666515
0.3626
0.3683063
0.3634855
0.3638056
0.3682393
0.366945
0.3634095
0.3677382
0.3631348
0.3696794
0.3640691
0.3644768
0.3695729
0.3640538
0.3680486
0.3689481
0.3638366
0.3711222
0.3648049
0.3652818
0.371053
0.3692504
0.3648784
0.3675391
0.3741999
0.3670858
0.372122
0.3733757
0.3670414
0.3761484
0.3682664
0.3690215
0.3760404
0.3685592
0.3738563
0.3752186
0.3685279
0.378136
0.3698511
0.3706775
0.3780182
0.3757376
0.3702101
0.3867264
0.3786585
0.3901415
0.3803665
0.3957329
0.3871589
0.3992821
0.3889893
0.3905641
0.3993807
0.3964739
0.3903942
0.4045617
0.413517
0.410409
0.4047479
0.4186196
0.421822
0.4141887
0.4141445
0.4186027
0.4218118
0.4151436
0.4145413
0.4067868
0.4174421
0.4077898
0.4135689
0.3637736
0.3637089
0.3630183
0.3628679
0.3632194
0.3642893
0.3641214
0.3628343
0.3637314
0.3650221
0.3648577
0.3630453
0.3644286
0.3658812
0.3658194
0.3634466
0.3652014
0.3668621
0.3668983
0.3640277
0.3661024
0.3679921
0.3681275
0.3647584
0.3670722
0.3691938
0.3694116
0.3655561
0.3681134
0.3704558
0.3706302
0.3664879
0.3693823
0.3718876
0.3720144
0.3676844
0.3708691
0.3735228
0.3736741
0.3690855
0.3725075
0.3753267
0.3755134
0.3706543
0.3742491
0.3772547
0.3774848
0.3723763
0.3761524
0.3793524
0.3796415
0.3742767
0.3782177
0.3815904
0.3819674
0.3763596
0.3804428
0.3839851
0.3844964
0.3786211
0.3828326
0.3865269
0.387171
0.3810713
0.3854189
0.3892784
0.3900601
0.3837298
0.3882046
0.3922314
0.3931344
0.3866035
0.3911882
0.3954069
0.3964588
0.3896866
0.3943081
0.3987435
0.3999257
0.3929181
0.397477
0.4021835
0.4034974
0.396238
0.4006615
0.4057012
0.4071055
0.3996061
0.4038914
0.4092612
0.4107552
0.4030343
0.3634444
0.3625835
0.3627921
0.3635544
0.3599531
0.3631409
0.3623324
0.3590989
0.3616367
0.3577233
0.3614156
0.3589985
0.3583429
0.3622286
0.361235
0.3573528
0.3643558
0.361861
0.3649613
0.3625126
0.3628599
0.3658836
0.3630552
0.3649176
0.3631224
0.3670571
0.3633824
0.3657829
0.390466
0.3815592
0.3837412
0.3922242
0.3860697
0.3961627
0.3867668
0.3926479
0.3891888
0.3994188
0.3899256
0.3958271
0.3637316
0.3628999
0.3630198
0.3639038
0.3642605
0.3629623
0.3633568
0.3645387
0.3651004
0.3632311
0.3638206
0.3653736
0.366039
0.3636483
0.3643891
0.3663532
0.3671378
0.3642131
0.365061
0.3674504
0.3683507
0.3648797
0.3658305
0.3686674
0.3696032
0.3656631
0.3667515
0.3699124
0.3708747
0.3666976
0.3678733
0.3712583
0.372409
0.3679517
0.3691417
0.3728374
0.3741796
0.3693915
0.3705999
0.3745936
0.376103
0.3709817
0.3721636
0.376489
0.3781667
0.3727508
0.3738966
0.3785215
0.3804053
0.3747011
0.3757881
0.3807338
0.3828301
0.3768091
0.3778406
0.3830943
0.385442
0.3790947
0.3800317
0.3856198
0.3882448
0.3815821
0.3824046
0.3883105
0.3912556
0.3842854
0.38497
0.3911995
0.3944767
0.3871905
0.3877327
0.3942822
0.3978936
0.3902831
0.3906421
0.397566
0.4014452
0.393488
0.3936365
0.4009707
0.4050315
0.3967902
0.3966987
0.4044747
0.408638
0.4001554
0.3998279
0.408011
0.4030498
0.4036476
0.4123257
0.4116315
0.3621755
0.3632581
0.3625307
0.3632924
0.3701662
0.3795664
0.3778173
0.3720221
0.3826126
0.3737422
0.3741633
0.3795923
0.3758353
0.3850191
0.376316
0.3818841
0.3741406
0.3761354
0.3823513
0.3841437
0.3908458
0.401894
0.4002747
0.3931745
0.406371
0.3967483
0.3959154
0.4026447
0.394223
0.4053541
0.4037829
0.3965838
0.3629016
0.3635325
0.3634168
0.3628359
0.3621943
0.3592016
0.3599599
0.3625779
0.3589119
0.3622889
0.357624
0.361483
0.3610909
0.3573578
0.3583701
0.3616096
0.3626598
0.3649688
0.3625075
0.3643965
0.3895369
0.3812723
0.3930058
0.3830242
0.3843615
0.3929934
0.3902121
0.3840841
0.3637163
0.3621506
0.3625018
0.3634427
0.3701873
0.3802624
0.377216
0.3716115
0.3801426
0.3720508
0.3725073
0.3777589
0.3793756
0.3720366
0.3825405
0.3735422
0.3744871
0.3823936
0.3740549
0.379926
0.3816718
0.3740595
0.3849386
0.3756387
0.3766576
0.3848026
0.3762597
0.3822438
0.3903894
0.4026744
0.3990793
0.3922441
0.4028138
0.3938161
0.3939248
0.3998502
0.3937309
0.4061701
0.4025212
0.3955988
0.4063247
0.3973559
0.3973855
0.4032975
0.4145188
0.4129307
0.3632733
0.3621642
0.3625192
0.3632434
0.3625232
0.361562
0.3617323
0.362866
0.3614926
0.3603424
0.3604967
0.3620868
0.3600952
0.3587781
0.3588572
0.3609261
0.3585405
0.3569574
0.3570306
0.3594894
0.3639996
0.3636574
0.3628641
0.3628935
0.3628435
0.3648194
0.3642061
0.3629288
0.3628605
0.3658852
0.3649167
0.3630582
0.3631278
0.3670648
0.3657905
0.3633876
0.3635901
0.3683387
0.3668154
0.3638694
0.3642276
0.3697394
0.3679789
0.3645077
0.3650476
0.3712985
0.36928
0.3653032
0.3659895
0.3728576
0.3706146
0.3662333
0.3671528
0.3744903
0.3720658
0.3674195
0.3685084
0.3762966
0.3737058
0.3688254
0.3700751
0.3782618
0.3755154
0.3704272
0.3718213
0.38037
0.3774868
0.3722053
0.3737468
0.382624
0.3796068
0.3741741
0.3758243
0.3850136
0.3818774
0.3763111
0.3780796
0.3875513
0.3843018
0.3786261
0.3805169
0.390232
0.3868904
0.3811201
0.3831954
0.3931175
0.3896886
0.3838483
0.3860983
0.3961914
0.3926724
0.386796
0.3892506
0.3994808
0.395889
0.3899893
0.3925714
0.4029211
0.3992664
0.3933531
0.3959801
0.4064436
0.402728
0.396819
0.3994837
0.4100373
0.4062679
0.4003757
0.4030486
0.4136778
0.409854
0.4039993
0.362778
0.363641
0.3634307
0.3626686
0.3621884
0.3638783
0.363394
0.3618552
0.3614021
0.3624951
0.3621367
0.3611161
0.3599582
0.3615722
0.3610314
0.3597073
0.3582314
0.3603669
0.3596949
0.3579677
0.3563764
0.3560924
0.3630264
0.3610746
0.361684
0.3629865
0.360353
0.3557023
0.3601972
0.3571718
0.3875735
0.3788783
0.3810093
0.3893524
0.3831918
0.3931171
0.3838476
0.3896878
0.3624884
0.3637084
0.3634342
0.3621463
0.3637973
0.3621119
0.3625662
0.3641443
0.3643532
0.3618599
0.3625126
0.3649591
0.365
0.3618246
0.3626019
0.3659326
0.3658822
0.3620015
0.3629523
0.3669612
0.3669034
0.3623523
0.3634537
0.3680914
0.368028
0.3628994
0.3641154
0.3693225
0.3692336
0.3635926
0.3649189
0.3706445
0.3706005
0.3644983
0.365944
0.372098
0.372165
0.3656221
0.3671723
0.3737564
0.3739242
0.3669656
0.3686319
0.3755657
0.3758152
0.3684821
0.3702457
0.3775175
0.3778459
0.3701842
0.3720419
0.3795793
0.3800219
0.3720669
0.3739989
0.3817931
0.3823446
0.3741339
0.3761363
0.3841338
0.3848562
0.3763942
0.3784619
0.3866549
0.3875736
0.3788782
0.3810101
0.3893477
0.3904893
0.3815854
0.3837717
0.3922361
0.3936304
0.3845274
0.3867757
0.3953195
0.3969337
0.3876652
0.3899509
0.3985963
0.4003568
0.390923
0.3932518
0.4019654
0.4038362
0.3942828
0.3966385
0.4054179
0.4073749
0.3977033
0.4000989
0.4088688
0.4110032
0.401268
0.403662
0.4124994
0.3638877
0.3634014
0.3618614
0.362194
0.3803361
0.3721733
0.3774487
0.3717877
0.3800079
0.3720583
0.3817826
0.3739892
0.3633535
0.3627126
0.3628275
0.3634168
0.3633761
0.3618897
0.3622562
0.3634772
0.3616176
0.3636702
0.3610577
0.3631499
0.3598179
0.3553686
0.3565879
0.3604597
0.3657469
0.3668769
0.3717107
0.3743044
0.3618974
0.3634823
0.3633813
0.3622635
0.4067502