/*--------------------------------*- C++ -*----------------------------------*\
  =========                 |
  \\      /  F ield         | OpenFOAM: The Open Source CFD Toolbox
   \\    /   O peration     | Website:  https://openfoam.org
    \\  /    A nd           | Version:  7
     \\/     M anipulation  |
\*---------------------------------------------------------------------------*/
FoamFile
{
    version     2.0;
    format      ascii;
    class       surfaceScalarField;
    location    "0.06";
    object      phi;
}
// * * * * * * * * * * * * * * * * * * * * * * * * * * * * * * * * * * * * * //

dimensions      [0 3 -1 0 0 0 0];

internalField   nonuniform List<scalar> 
220679
(
-0.001655887
-0.000135431
0.001742592
4.872574e-05
0.003013881
0.03570802
0.0008077433
-0.00875409
-0.009180939
-0.01004584
-0.0101706
-0.001120162
0.001040126
-0.0007943504
-0.0005037873
0.003417854
0.03651311
0.002626781
-0.009449963
-0.009361683
-0.01033899
-0.01039324
0.003889787
0.03655258
0.003257692
-0.009594132
-0.009366484
-0.01067919
-0.0106424
0.004374693
0.03617399
0.003940758
-0.009643164
-0.009411425
-0.01077403
-0.01077104
0.004993751
0.03603103
0.003988337
-0.009701569
-0.009334251
-0.01080003
-0.01080258
0.005818537
0.0361914
0.003343565
-0.009705621
-0.009268389
-0.01070423
-0.01068152
0.00652073
0.03619393
0.003655884
-0.009824741
-0.009280614
-0.01075203
-0.01069462
0.007159877
0.03607978
0.003862381
-0.009860278
-0.009256417
-0.01078158
-0.01068303
0.00780433
0.0360536
0.003836606
-0.009863885
-0.009212073
-0.01078295
-0.01067575
0.03605389
0.003802842
-0.009856502
-0.009162531
-0.01075484
-0.01067687
0.00839834
-0.001797616
8.922341e-06
0.001788408
2.858708e-07
0.001150454
0.03375868
0.0007457096
-0.001423819
0.001310856
-7.733029e-05
0.0002434633
0.002119734
0.034102
0.00144183
0.003017101
0.03434544
0.001309769
0.003782547
0.03398236
0.00142619
0.00470081
0.03381702
0.001295752
0.005400098
0.03426741
0.0012247
0.006199652
0.03426385
0.001130529
0.006937431
0.0341297
0.001212307
0.007591131
0.03421034
0.00118956
0.03440654
0.001107256
0.008131228
-0.001754707
-4.989827e-06
0.001763442
-3.745558e-06
0.001769574
0.03289243
-6.675799e-05
-0.001471424
0.001110773
-0.0002700078
-0.0002059034
0.002497581
0.03286906
0.0005049405
0.003275094
0.03286619
0.0007017447
0.0039542
0.03250145
0.0008018003
0.004680176
0.03229271
0.0007983344
0.00540647
0.03266217
0.0008789445
0.00619786
0.03259551
0.0008769454
0.006924162
0.03256496
0.0008384291
0.007608905
0.03275036
0.0007752383
0.03305139
0.0007188981
0.008245158
-0.001722967
-9.320848e-07
0.001724835
-9.363603e-07
0.001498638
0.03205331
3.584291e-05
-0.001465431
0.001109032
-0.0002216194
-0.0001173427
0.002310178
0.03187038
0.0001871376
0.003196032
0.03187534
0.0001049897
0.003937961
0.0316846
7.492113e-05
0.004703253
0.03151356
1.385609e-05
0.005538063
0.03173875
8.861828e-05
0.006367112
0.03170734
5.912447e-05
0.007115894
0.03177669
3.949395e-05
0.007860424
0.03197099
3.483858e-05
0.03228158
3.646371e-05
0.008593772
-0.001688123
5.142153e-06
0.001686693
-3.712103e-06
0.00170035
0.03125096
5.232481e-05
-0.001477523
0.001046892
-0.0003114745
-0.0002082179
0.002402162
0.03100103
0.000167535
0.003223884
0.03092493
0.0001286935
0.003988668
0.03078067
0.0001391436
0.004753591
0.03063287
0.0001157686
0.005590305
0.03075381
0.0001482208
0.006422624
0.03075592
0.0001190954
0.007248977
0.03084658
0.0001037552
0.008089948
0.03103701
9.300707e-05
0.03134828
8.632713e-05
0.008936919
-0.001643899
6.115593e-06
0.001639638
-1.854752e-06
0.001662454
0.03041041
6.906468e-05
-0.001443231
0.001030866
-0.0002988359
-0.000179765
0.002377843
0.03020673
7.891633e-05
0.003191788
0.03008655
2.442758e-05
0.004003462
0.02994074
2.825896e-05
0.004801022
0.02984035
-5.038164e-06
0.005663684
0.0298774
1.375028e-05
0.006541003
0.0298772
1.403342e-06
0.007441617
0.02995093
-4.96166e-06
0.008387181
0.03010517
-1.371813e-05
0.03037583
-8.48803e-06
0.00936812
-0.001601345
7.751554e-06
0.001594946
-1.35299e-06
0.001661401
0.02958082
7.790083e-05
-0.001419066
0.00100287
-0.0003064461
-0.0001870719
0.002392568
0.02939152
8.403979e-05
0.003194167
0.02925377
3.118449e-05
0.003998697
0.02910103
3.518135e-05
0.004821079
0.02899562
2.234918e-05
0.005698777
0.02897585
2.385782e-05
0.006619307
0.02893549
2.118351e-05
0.007601641
0.02895221
1.63864e-05
0.008661628
0.02903195
1.323101e-05
0.02922411
1.394442e-05
0.009799407
-0.001558246
8.647874e-06
0.001549785
-1.861219e-07
0.001631363
0.02876148
7.574682e-05
-0.001389288
0.0009811828
-0.0003033681
-0.000176295
0.002362953
0.02858591
7.401743e-05
0.003158945
0.02844199
1.578455e-05
0.003964891
0.02827864
1.644751e-05
0.004798954
0.02815947
2.085919e-06
0.005694929
0.02807195
7.917737e-06
0.006652156
0.02797814
1.162581e-07
0.007707826
0.02789501
1.530326e-06
0.008883557
0.02786385
-7.632546e-06
0.02791851
-3.864868e-06
0.01019302
-0.001516154
9.662521e-06
0.00150574
7.512461e-07
0.001607019
0.02795776
7.527731e-05
-0.001361465
0.0009577253
-0.0003028908
-0.0001719516
0.002329582
0.02779058
7.276576e-05
0.003111331
0.02764128
1.896259e-05
0.003901472
0.02746771
2.078676e-05
0.004726978
0.02732662
7.340716e-06
0.005609773
0.02717956
9.600422e-06
0.006575527
0.02700678
5.609976e-06
0.007676758
0.02679134
2.438395e-06
0.008952384
0.02658849
-2.684328e-07
0.02641389
-3.934556e-06
0.01046093
-0.00147464
1.064013e-05
0.001462251
1.748832e-06
0.001576832
0.0271709
7.253539e-05
-0.0013327
0.0009357225
-0.0003006419
-0.0001648897
0.002285644
0.02701276
6.901252e-05
0.003047541
0.02686477
1.461282e-05
0.003814405
0.02668564
1.520434e-05
0.004613792
0.02652781
-5.769992e-07
0.005467369
0.0263261
-1.163652e-07
0.006417166
0.02608258
-2.559959e-05
0.007542228
0.02568474
-1.846556e-05
0.008887964
0.0253149
-7.214008e-05
0.02477127
-5.237017e-05
0.01058296
-0.001433754
1.158456e-05
0.001419425
2.74436e-06
0.001547887
0.02640159
6.953682e-05
-0.001304465
0.0009137343
-0.0002986765
-0.0001587073
0.002236931
0.02625682
6.689478e-05
0.00296458
0.02612237
1.474989e-05
0.00368161
0.0259521
1.651311e-05
0.004402993
0.02580036
6.063469e-06
0.005162469
0.0255647
1.916642e-06
0.005992988
0.02524615
5.909459e-06
0.007010264
0.02469891
-3.144423e-05
0.00840545
0.02394024
-2.053213e-05
0.02283889
-6.029389e-05
0.01039813
-0.001393516
1.251591e-05
0.001377255
3.745885e-06
0.001526406
0.02564411
6.847382e-05
-0.001277121
0.0008910685
-0.0002973043
-0.0001540385
0.00219766
0.0255197
6.586097e-05
0.002894826
0.02541446
1.074382e-05
0.003561539
0.02527172
1.365984e-05
0.004217582
0.0251607
-1.638505e-05
0.004892334
0.02490931
-1.93553e-05
0.005720213
0.02457374
-0.000155462
0.006720184
0.02389236
-0.00019342
0.007684229
0.02352184
-0.0005456403
0.02144016
-0.0004729988
0.00955595
-0.00135372
1.354743e-05
0.001335483
4.690063e-06
0.001519606
0.02489265
6.666439e-05
-0.001251535
0.0008666842
-0.0002977573
-0.0001522048
0.002176186
0.02479878
6.434025e-05
0.002834178
0.02474338
1.30929e-05
0.003423905
0.02466485
1.71425e-05
0.003916274
0.02465933
9.008882e-06
0.004321838
0.02451244
-8.698766e-06
0.004517092
0.02445777
-7.929023e-05
0.005154265
0.02381181
-0.0005566166
0.005712563
0.00550148
-0.0006396938
0.005307497
0.006441297
0.006352959
0.004585206
-0.001354559
0.004586328
0.005757284
0.005498845
0.008079621
-0.001314095
1.468711e-05
0.001293766
5.641437e-06
0.00154234
0.02413067
6.699242e-05
-0.001228947
0.0008386641
-0.0003018489
-0.0001552145
0.002199596
0.02407682
6.470837e-05
0.002848298
0.02408802
6.65763e-06
0.003381177
0.02411019
2.178983e-05
0.003819335
0.02425499
-3.382015e-05
0.003926656
0.02436855
3.657218e-05
0.00414338
0.02463108
-0.0003900316
0.0001638354
0.02443153
-0.0004336321
0.001623644
0.0009506939
0.001219118
0.0004534741
0.0053563
-0.0001444593
0.0005278849
0.004890006
-0.0002760573
-0.0005566281
-0.001273872
1.604222e-05
0.001251225
6.604945e-06
0.00160711
0.02333694
6.819376e-05
-0.001210227
0.0008048212
-0.000311274
-0.0001649017
0.002291764
0.02332795
6.421405e-05
0.002961982
0.02341059
7.210559e-06
0.003504164
0.02355343
1.456901e-05
0.003919783
0.02385599
-1.662187e-05
0.004008564
0.02428491
-5.146102e-06
0.003997021
0.02482146
-0.0001788377
-0.0003310184
0.02565798
-0.000407279
0.001717798
0.0006123674
0.001178696
-0.006634038
0.0001109717
0.006445342
-0.0002532942
-0.001392028
0.0002287974
-0.0001980742
0.001431501
-7.019555e-05
-0.00123202
1.759801e-05
0.001206874
7.54802e-06
0.001717039
0.02248734
7.19335e-05
-0.001195242
0.0007641107
-0.0003270006
-0.0001812376
0.002460471
0.02251791
6.661482e-05
0.003197457
0.02266867
4.928236e-06
0.003824012
0.02290926
1.762108e-05
0.004329886
0.02337906
-2.893934e-05
0.004565026
0.02401593
3.384704e-05
0.004584146
0.02500574
-0.000203403
-8.831891e-05
0.02620056
-7.765339e-06
0.001909676
0.0008562786
0.0013717
-0.007524681
0.0003885354
0.006847409
0.0002004177
-0.002042006
0.0001418157
5.670913e-05
0.001826132
1.734858e-05
-0.001187584
1.941474e-05
0.001159581
8.588782e-06
0.001871361
0.02155888
7.739003e-05
-0.001183101
0.0007155176
-0.0003488419
-0.0002038684
0.002698787
0.02162053
6.99529e-05
0.003544426
0.02181765
5.382987e-06
0.004302875
0.0221363
1.450783e-05
0.004992898
0.02271726
-2.822412e-05
0.005456607
0.02354195
1.026296e-05
0.005797235
0.02487477
-0.0002096615
0.0002181257
0.02654266
-0.0002664295
0.0023515
0.001270304
0.001881631
-0.007945373
0.000760376
0.007283163
0.0001199594
-0.002200756
0.0001035929
9.505964e-05
0.00199412
7.982778e-06
-0.00113941
2.147243e-05
0.001108387
9.550047e-06
0.002052131
0.02053662
8.537405e-05
-0.001171352
0.0006601843
-0.0003742572
-0.0002298143
0.002982556
0.02061359
7.651769e-05
0.003966524
0.0208258
7.882861e-06
0.004907806
0.02117341
2.160438e-05
0.005885432
0.02176927
-2.963719e-05
0.006732267
0.02265772
3.739931e-05
0.007895572
0.02396831
-0.0002568435
0.0007941837
0.02593386
-0.0003181089
0.00313668
0.002040712
0.002850904
-0.008376883
0.001414148
0.00757091
0.000186009
-0.0024288
-3.317088e-05
0.0002269559
0.002228701
6.313081e-06
-0.001086678
2.373992e-05
0.001052405
1.053269e-05
0.002248481
9.564477e-05
-0.001157719
0.0005991313
-0.0004021022
-0.000258574
0.01941175
0.003290701
8.420777e-05
0.01948716
0.004429451
1.256718e-05
0.01967448
0.005577338
2.329247e-05
0.02000223
0.006893402
-2.863948e-05
0.02048184
0.008218335
3.033465e-05
0.02130245
0.01024293
-0.0002207705
0.02216449
0.001735122
-0.0006116786
0.004140894
0.003311579
0.004011054
0.02358982
-0.008429559
0.003084458
0.007254737
-0.0001745146
-0.002644552
-0.000541511
0.0008228511
0.002407129
-4.391792e-05
-0.001029121
2.605791e-05
0.0009915192
1.154339e-05
-0.007358141
0.003731626
0.0002645165
-0.002308348
0.005670346
-0.001892435
0.006550199
0.000180753
-0.005004055
-0.001428642
-0.002032283
-0.001973987
0.005600449
-0.0002934094
-0.0003204652
-0.0001820624
0.009652602
-0.0003032708
-0.0004422442
0.000353023
0.0004355388
0.0002161086
-0.0004276352
0.0002411747
-0.0004740336
-8.770929e-05
0.0001107157
0.009757241
-0.000331795
-0.0005202089
0.0004752827
0.0004524254
-0.0003945036
-0.000213224
0.0003305769
0.009784675
-0.0007460071
-0.0004112908
0.0006423979
0.0005898555
-0.0003916538
-0.000364691
0.0003869603
0.009802425
-0.0004757546
-0.0004091134
0.000552394
0.0005055085
-0.0004090433
-0.000494013
0.0004962103
0.009802677
-0.0002549808
-0.0004226596
0.0004805155
0.00040711
-0.0004194246
-0.0005875347
0.0005921333
0.009831102
-0.000158056
-0.0004322598
0.0004480521
0.0003317588
-0.0004242008
-0.0006465555
0.0006694992
0.009799385
-7.395557e-05
-0.0004369208
0.0004280523
0.0002904848
-0.0004307799
-0.0007188988
0.0007658406
0.009754773
1.282011e-05
-0.0004433386
0.0004042831
0.0002611041
-0.0004412138
-0.0008477866
0.0008590594
0.009734747
0.0001280712
-0.0004521668
0.0003803321
0.000244771
-0.0004474223
-0.000908558
0.0009093974
0.009695626
0.0002111788
-0.0004557882
0.0003649017
0.0002364775
0.0001146917
-0.002070017
0.0005914149
0.008606918
-0.0001878264
-0.002516932
-0.002058394
-0.002479856
0.002282079
0.03906071
0.0005935435
-0.01004291
-0.01027863
-0.01028984
-0.009710641
-0.0006130574
0.0001975198
-0.0006133624
0.0002223299
0.003011564
0.04095402
0.003817918
-0.01063451
-0.01056094
-0.01087726
-0.01080194
0.003584503
0.04019052
0.005339826
-0.01075449
-0.01074539
-0.01018004
-0.01116567
0.0044166
0.04039284
0.006024282
-0.01086853
-0.01079477
-0.01143275
-0.01021241
0.005390099
0.04045178
0.005609434
-0.01089219
-0.01079614
-0.01112251
-0.01023554
0.005965314
0.04046692
0.005828712
-0.01097544
-0.01086807
-0.01111728
-0.01056648
0.006678166
0.04059237
0.005629472
-0.01093495
-0.01078374
-0.01099775
-0.01056237
0.007752658
0.04087417
0.005093376
-0.01087356
-0.01070229
-0.01087988
-0.01072393
0.008548936
0.04095912
0.005129732
-0.01081892
-0.01064729
-0.01089186
-0.01069046
0.04107233
0.004836241
-0.01074186
-0.01058114
-0.01084748
-0.01057532
0.009188999
0.0009058779
0.03438619
0.0002180652
-0.0008261944
-0.0004230345
0.001345356
-9.518674e-05
-0.00791917
-0.009789305
-0.008226897
-0.009575703
0.001019773
0.03962096
7.156243e-05
0.00225699
0.04036333
0.0007953042
0.003205648
0.03992141
0.0006302153
0.004295025
0.04002167
0.0007079866
0.005306332
0.04003986
0.0006963658
0.006269075
0.0400222
0.0007066761
0.007101383
0.04012645
0.0007641373
0.008081672
0.04042526
0.0006809338
0.008926537
0.04056131
0.000742514
0.04077743
0.0006469067
0.009681788
0.001225369
0.03280698
0.0001658593
-0.001276398
-3.824032e-05
0.00130828
0.0001943437
0.002000834
0.03855567
0.0002230696
0.00304945
0.03866426
0.001155395
0.00379686
0.03830635
0.001569395
0.004550351
0.03821522
0.001854755
0.005449595
0.03821255
0.001726398
0.006226839
0.03819898
0.001924925
0.007070104
0.03833843
0.001821705
0.008015109
0.03857114
0.001747539
0.008869847
0.03877512
0.001706684
0.0390699
0.001624257
0.009672021
0.0006896384
0.03209498
9.000464e-05
-0.001314768
-7.917986e-05
0.001269643
5.66567e-05
0.00162408
0.03766319
-6.113888e-06
0.002643844
0.03764467
0.0001869693
0.003600899
0.03728269
0.0001715987
0.004530938
0.03706953
0.0002905696
0.005483488
0.0370353
0.0002385558
0.006402188
0.03700961
0.000359288
0.007328041
0.03712359
0.0003481137
0.008265312
0.0372895
0.0003838651
0.009165103
0.03751191
0.0003982547
0.03784639
0.0003907637
0.01003432
0.0008502687
0.0311877
0.000136131
-0.001298249
-0.0001009652
0.001240205
7.989538e-05
0.001888786
0.03656474
0.000112253
0.002859912
0.03653026
0.0003108143
0.003757663
0.03621569
0.0002979361
0.004647509
0.03600216
0.0003166684
0.005557927
0.03593949
0.0003011666
0.006474234
0.0359118
0.0003297143
0.007429856
0.03596791
0.0003191446
0.008418171
0.03609522
0.0003097213
0.009404841
0.03629573
0.0003225219
0.03663636
0.0003035261
0.01039766
0.0007999556
0.03038295
7.697639e-05
-0.001268746
-9.777528e-05
0.00122081
7.352339e-05
0.001806069
0.03556962
5.807323e-05
0.002757317
0.03549938
0.0001585485
0.003689752
0.03516823
0.0001394592
0.004627684
0.03494424
0.0001482504
0.00557988
0.03483592
0.0001463332
0.006566613
0.03478943
0.0001493953
0.007587651
0.0347966
0.0001516793
0.008653169
0.03487949
0.0001452526
0.009756831
0.0350438
0.0001345534
0.0353599
0.0001293239
0.01089548
0.0008361585
0.02954413
6.836959e-05
-0.001240663
-0.0001001533
0.001194942
8.016557e-05
0.001832
0.03457657
7.510726e-05
0.002775479
0.03449886
0.0001410752
0.003695919
0.03416375
0.0001152261
0.004635209
0.03392259
0.0001175356
0.00560273
0.03378637
0.000104373
0.006617883
0.03369964
9.848621e-05
0.007686743
0.03365809
9.082908e-05
0.008827834
0.03367195
8.28275e-05
0.01005545
0.033756
7.341e-05
0.03398527
6.809177e-05
0.01137594
0.0008203411
0.02873305
4.922555e-05
-0.001212799
-9.916332e-05
0.001170487
8.299225e-05
0.001798674
0.03361378
6.020356e-05
0.002736257
0.03352863
0.0001066668
0.003658038
0.03318227
7.548157e-05
0.004600394
0.03292683
6.985489e-05
0.005574693
0.03275755
5.660719e-05
0.006610116
0.03262187
5.026935e-05
0.007722244
0.03250683
3.925366e-05
0.0089462
0.03241842
3.110505e-05
0.01031651
0.03236088
1.717039e-05
0.03244929
1.10095e-05
0.01183762
0.0008159927
0.02793051
4.24155e-05
-0.001186243
-9.998316e-05
0.001144736
8.561916e-05
0.00177989
0.03267027
5.489164e-05
0.002705097
0.03258604
9.015274e-05
0.003607683
0.03224036
5.828422e-05
0.004531295
0.03197376
5.024457e-05
0.005490866
0.0317719
3.342096e-05
0.006518189
0.0315797
2.445168e-05
0.007641422
0.03137855
1.065274e-05
0.008922204
0.03114739
-7.31166e-06
0.01040222
0.03090178
-2.11811e-05
0.03074444
-3.888748e-05
0.01214202
0.0008015557
0.02714381
3.856322e-05
-0.001159924
-0.0001005613
0.0011194
8.766554e-05
0.001747029
0.03174936
4.796719e-05
0.002652882
0.03166958
7.961475e-05
0.003532647
0.0313292
4.600966e-05
0.004429204
0.0310581
3.430309e-05
0.005354899
0.03083514
1.049175e-05
0.006348658
0.03059095
-5.131259e-06
0.007447414
0.03029469
-4.048863e-05
0.008736451
0.02990492
-6.503782e-05
0.01034127
0.02934155
-0.0001167293
0.02885603
-0.0001291382
0.01230645
0.0007900571
0.02637051
3.285869e-05
-0.001133734
-0.0001006757
0.001094501
9.029673e-05
0.001718063
0.03084993
4.096162e-05
0.002600136
0.03078193
7.246984e-05
0.003443706
0.0304622
3.817612e-05
0.004287957
0.03020591
2.445659e-05
0.005138597
0.02999079
-2.282662e-07
0.00603624
0.02972514
-2.991307e-05
0.007015665
0.02938525
-6.407679e-05
0.008190937
0.02884486
-0.0001466554
0.009710325
0.02798111
-0.000179482
0.02675495
-0.0002317394
0.01198285
0.0007807141
0.0256046
3.463682e-05
-0.001108456
-0.0001014088
0.001068994
9.142991e-05
0.00169436
0.02996485
3.99123e-05
0.002553638
0.02991789
7.062768e-05
0.003358014
0.02963756
3.100427e-05
0.004142451
0.02941935
1.577971e-05
0.00489517
0.02924901
-2.732764e-05
0.00566556
0.02900308
-6.769045e-05
0.006451971
0.02863267
-0.0001892955
0.007452179
0.02794019
-0.0002889572
0.008975309
0.02645729
-0.0005449472
0.02454236
-0.000557522
0.01127242
0.0007815485
0.02484069
2.717595e-05
-0.001082624
-0.0001003786
0.001044063
9.412141e-05
0.001690993
0.02908604
3.602938e-05
0.002534372
0.02907347
6.538331e-05
0.003303244
0.02885359
2.818793e-05
0.00401604
0.02871333
1.037211e-05
0.004654002
0.02864479
-2.472992e-05
0.005236272
0.02850541
-9.329833e-05
0.005720197
0.0282448
-0.0001753496
0.006119789
0.0274165
-0.0004325208
0.006587038
0.02588979
-0.0005394463
0.00562101
-0.001021223
0.005293351
0.00549157
0.005168388
0.009221746
0.0007944881
0.02406224
2.808164e-05
-0.001057382
-9.966085e-05
0.001017718
9.520785e-05
0.001715279
0.02819532
3.691761e-05
0.002559912
0.02822827
6.527406e-05
0.003303824
0.02809373
2.261413e-05
0.003962907
0.02806507
1.096616e-05
0.004428118
0.02819697
-5.121777e-05
0.004749103
0.02828793
-6.693922e-05
0.004372898
0.02854658
-0.0003156092
0.003729763
0.02793229
-0.0003062873
0.0004968832
0.00701685
-0.001069466
0.0006652092
0.0004553773
0.000667018
-1.131317e-05
-0.0001182201
0.0004708216
0.0004483062
0.006873353
0.006944725
0.006780008
0.0001902408
0.0004992618
0.00558681
-0.0001584195
0.0008284654
0.0232513
2.475548e-05
-0.001031523
-9.796514e-05
0.0009899808
9.722294e-05
0.001788334
0.02726824
3.540874e-05
0.002663976
0.02735425
6.258769e-05
0.003436011
0.02730797
2.093591e-05
0.004084115
0.02742631
5.220168e-06
0.004559809
0.0277448
-4.014609e-05
0.0046799
0.02824005
-7.735549e-05
0.004351215
0.02888805
-0.0001916137
0.0002672169
0.02942207
-0.000294326
0.001087235
0.0002772579
0.001116776
0.0003313662
-5.370599e-05
0.007187453
-0.0001810467
4.114102e-05
-0.001599947
6.813295e-05
-0.0001149851
0.001634925
-2.926647e-05
0.000883287
0.02238527
2.584818e-05
-0.001005182
-9.630797e-05
0.0009592495
9.91368e-05
0.001910625
0.02627598
3.685627e-05
0.002858809
0.02640893
6.375291e-05
0.003704888
0.02644798
1.883998e-05
0.004457211
0.02668418
7.434334e-06
0.005021347
0.02719625
-4.452497e-05
0.005396291
0.02793917
-4.021195e-05
0.005200627
0.02905963
-0.0001793224
0.004481119
0.0301702
-3.638448e-05
0.0002215606
0.03227128
-3.339862e-06
0.00118821
0.0002787931
0.00123924
-0.0004175973
-0.0003817981
9.220227e-05
0.0002489481
-0.007633448
-0.007592991
-0.007565612
-0.007464329
-0.0001007424
-0.008381246
0.008129237
7.436174e-05
4.699481e-05
0.000185143
1.339369e-05
0.0002544188
0.000959164
0.02144534
2.668225e-05
-0.0009772162
-9.41631e-05
0.0009250684
0.0001003931
0.002082449
0.02519145
3.863093e-05
0.003134751
0.02536052
6.60579e-05
0.004107674
0.0254604
2.003501e-05
0.005010069
0.02579128
5.004818e-06
0.005781177
0.0264395
-4.257732e-05
0.00638123
0.02740899
-5.961213e-05
0.006451246
0.02897319
-0.0001932398
0.005633062
0.03092961
-0.0002076562
0.0005935411
0.03534382
-4.884555e-05
-0.0002809826
-0.0001066323
5.442306e-05
0.0002870924
0.0007684844
0.0005922759
0.0007011641
-0.0001253208
-0.007975078
0.0002772753
0.008338765
7.78995e-05
0.001047945
0.02041832
2.969072e-05
-0.0009467976
-9.24584e-05
0.0008868095
0.0001018355
0.002284623
0.02399618
4.396677e-05
0.003466255
0.02418076
7.465157e-05
0.00460035
0.02430599
2.819949e-05
0.005725632
0.02467078
1.682551e-05
0.006820602
0.02534746
-3.256655e-05
0.007905468
0.02639275
-3.122525e-05
0.00879
0.0280307
-0.0001988869
0.009185835
0.03042809
-0.0002124246
0.001020526
0.008907228
-0.0003263721
0.002971441
0.0009617477
0.003030821
-0.0003539856
-3.2933e-07
3.043904e-05
0.0005384342
0.009552951
0.008792639
0.009404116
0.0002033886
0.01114096
-0.000227133
-0.00950724
-0.0002057386
3.12997e-05
-7.428475e-05
-0.0003407237
0.001144294
3.355508e-05
-0.0009131264
-9.101642e-05
0.0008444121
0.0001023075
0.01929789
0.002504129
5.19056e-05
0.02268009
0.003824228
8.730904e-05
0.02285755
0.005139713
4.228669e-05
0.02296079
0.006504034
3.010805e-05
0.02329965
0.007991352
-1.544262e-05
0.02384694
0.009647285
-1.830246e-05
0.02478545
0.01172455
-0.0001564863
0.02588916
0.003165152
-0.0002609615
0.003892899
0.00310275
0.003860018
0.0277811
0.0002081448
0.00367825
0.008291659
-0.0001056741
8.612965e-05
-0.003000021
-0.00106119
0.001111614
0.002909811
-4.63424e-05
-0.00760061
-0.0002048101
0.006566137
0.0001057623
-0.005409295
0.006542817
-0.0005265511
8.081501e-05
-0.0004121411
0.01008442
-9.904677e-05
0.0003698295
-0.0004686817
0.0003644489
-0.0009021301
0.03710109
-0.002170242
-0.0005078853
-0.001099251
0.001343278
0.001213997
-0.0005480224
0.00125439
-0.001309354
0.001199517
0.000699672
0.03925842
-0.005774998
-0.0009257784
-0.0008957997
0.001576935
0.001711669
0.002077562
0.03990181
-0.006208372
-0.0009842319
-0.001033052
0.002066496
0.001809985
0.00297456
0.04034634
-0.005498329
-0.001216039
-0.001211244
0.001950389
0.001702377
0.003364768
0.0400579
-0.00486755
-0.001264735
-0.001163873
0.001991786
0.001825929
0.003966677
0.03903967
-0.003717538
-0.00135743
-0.001225884
0.001888673
0.001739785
0.004847499
0.03766015
-0.002621647
-0.001408129
-0.001191488
0.001804958
0.001844301
0.005206814
0.03846315
-0.002438359
-0.001497078
-0.001296231
0.001620746
0.001757392
0.03826248
-0.00157655
-0.001612188
-0.001390946
0.001465147
0.001595514
0.005432422
-0.0020847
3.372603e-05
0.0006603058
0.008600623
-5.641891e-05
-0.00254409
-0.002084214
-0.002525232
0.005742157
0.03931782
0.0007614259
-0.01046972
-0.01085466
-0.01045125
-0.0109561
-0.001061151
-0.0002327147
-0.0009710166
-0.0002312541
0.005381737
0.0389102
0.002369227
0.004942914
0.0389674
0.006069672
0.005432464
0.03893538
0.006501162
0.006001542
0.03886437
0.006522326
0.007037673
0.03881184
0.006038645
0.007596411
0.03886512
0.00524528
0.007696459
0.03863241
0.004021067
0.008415426
0.03923952
0.003634393
0.03933627
0.003109845
0.009068032
0.001306631
0.03458812
0.0001163628
-0.008257239
-0.009649274
-0.008334088
-0.009552444
0.001025327
0.03978527
-0.0001145764
0.002155485
0.03843178
0.0001435617
0.003071087
0.03842382
0.0002581923
0.004260085
0.03823746
0.0002169042
0.005360315
0.03808728
0.0003732243
0.006363873
0.03815906
0.0003558942
0.007303597
0.03817921
0.0005103278
0.008059385
0.03813462
0.0004229415
0.008843077
0.03862173
0.0005766154
0.03887583
0.000401977
0.00954845
0.00196331
0.03255613
0.000234534
0.003044988
0.03852658
0.0004000727
0.003699617
0.03801782
0.0009147255
0.004228961
0.03807335
0.001390523
0.004888508
0.03796733
0.001465343
0.005621213
0.03770726
0.00137371
0.006400256
0.03789257
0.001412369
0.007255781
0.0378242
0.001321191
0.008044753
0.03787744
0.001215742
0.008855661
0.03826666
0.001250837
0.03857392
0.001166908
0.009614913
0.000798136
0.03183434
1.365746e-05
0.00177178
0.03750548
4.134371e-05
0.002698797
0.03713323
0.0001445474
0.003682646
0.03702223
0.000238874
0.004682104
0.03687939
0.000379053
0.005589845
0.03673099
0.0003070862
0.006544531
0.03686161
0.0004355607
0.007459639
0.03683177
0.0004254262
0.0083101
0.03697554
0.000435302
0.009159404
0.03734214
0.000473477
0.03767891
0.0004525489
0.009992629
0.0009333753
0.03097046
6.663338e-05
0.002022955
0.03639882
0.0001293377
0.002890977
0.03634483
0.0002311954
0.003771762
0.03621608
0.0002232922
0.004690249
0.03596537
0.0003121941
0.005594954
0.03585896
0.0002684914
0.006552527
0.03588979
0.0003439581
0.007498505
0.03590243
0.000302513
0.008463297
0.03602977
0.0002907035
0.009440372
0.03635805
0.0003295375
0.03668313
0.0003155043
0.01042418
0.0008163349
0.03019376
3.734351e-05
0.001874664
0.03535187
4.669281e-05
0.002829568
0.03542549
0.0001229754
0.00377625
0.03531545
9.341153e-05
0.004704101
0.03505791
0.0001278663
0.005640023
0.03495411
0.0001152614
0.006639003
0.03491671
0.0001234982
0.007653642
0.03492653
0.0001129331
0.00869787
0.03501529
0.0001155056
0.009813824
0.0352408
0.0001358475
0.03553789
0.0001310254
0.01095736
0.000846298
0.02938177
3.405935e-05
0.001849489
0.03436318
6.060465e-05
0.002805043
0.03450359
0.0001074225
0.003750557
0.03439841
8.674702e-05
0.004690243
0.03414327
9.247907e-05
0.005660777
0.0340111
7.685336e-05
0.006680914
0.03392185
7.321246e-05
0.007752653
0.03388202
6.360316e-05
0.008901321
0.03389554
5.390843e-05
0.01014999
0.03400124
6.42898e-05
0.03421917
5.894704e-05
0.01147786
0.0008272466
0.02858915
1.459953e-05
0.001800646
0.03340435
4.563862e-05
0.002752177
0.03358601
7.271277e-05
0.003700859
0.03346107
6.413771e-05
0.004644481
0.03321433
5.51802e-05
0.005628243
0.03304706
3.687874e-05
0.006667669
0.0328998
3.289104e-05
0.007790229
0.03277988
1.883651e-05
0.009029002
0.03267547
1.240132e-05
0.01041414
0.03262871
4.565383e-06
0.03270349
-2.651401e-06
0.01194348
0.0008181174
0.02779843
1.502389e-05
0.00176323
0.03247194
4.218343e-05
0.002706727
0.03266459
6.807479e-05
0.003634732
0.0325297
6.165329e-05
0.004569385
0.03228111
4.880293e-05
0.005539513
0.03208249
2.785943e-05
0.00657365
0.03187347
1.664377e-05
0.007704454
0.03166088
-1.155318e-06
0.008997389
0.03139683
-2.161027e-05
0.01048932
0.03115493
-3.93329e-05
0.03096041
-5.754815e-05
0.01225106
0.000801944
0.02702094
1.410821e-05
0.001725014
0.03155989
3.695151e-05
0.002650199
0.03175729
6.173716e-05
0.003553142
0.03162143
5.133602e-05
0.004460612
0.03137282
3.512904e-05
0.005395901
0.03114953
8.17058e-06
0.006395279
0.03088042
-1.146284e-05
0.007505776
0.03056164
-5.174261e-05
0.008816011
0.03010336
-8.179724e-05
0.01042505
0.02956863
-0.000139462
0.02901579
-0.0001621967
0.01240273
0.0007909677
0.02625761
5.225136e-06
0.001694468
0.03067059
2.675549e-05
0.002594887
0.03087463
5.470401e-05
0.0034582
0.03075235
4.393868e-05
0.004309768
0.03051795
2.775433e-05
0.005163203
0.03029899
-3.125495e-06
0.006057896
0.02999133
-3.551542e-05
0.007033238
0.02961357
-9.135445e-05
0.008238454
0.02892173
-0.0001702449
0.009791738
0.02808052
-0.0002446646
0.02681325
-0.0002931779
0.01205572
0.0007778472
0.025495
1.939288e-05
0.001667223
0.02979132
2.981152e-05
0.002544165
0.03000909
5.923127e-05
0.003366641
0.02992247
3.841478e-05
0.004154678
0.02972455
2.114387e-05
0.004902781
0.02955111
-2.755324e-05
0.005653186
0.02924239
-6.916074e-05
0.006426144
0.02884473
-0.000193415
0.007464209
0.02791235
-0.0003176431
0.008972151
0.02654398
-0.0005163447
0.02455428
-0.0005617642
0.01123537
0.0007796747
0.02473611
6.392679e-06
0.001663455
0.0289197
2.386897e-05
0.002522538
0.02916386
5.152774e-05
0.003306033
0.02913314
3.402175e-05
0.004010305
0.02901549
1.51584e-05
0.004623974
0.0289454
-3.268836e-05
0.005104902
0.02876122
-9.30484e-05
0.005487969
0.02851845
-0.0002321317
0.005841279
0.02757281
-0.0004462927
0.006374972
0.02607751
-0.0006066667
0.00563636
-0.0007668568
0.005270359
0.005499715
0.005185839
0.009082608
0.0007910615
0.02396019
1.293857e-05
0.001685594
0.0280343
2.778539e-05
0.002546262
0.02831495
5.351857e-05
0.003307406
0.02836475
2.985683e-05
0.003959341
0.02836043
1.408571e-05
0.004416775
0.02848686
-5.01147e-05
0.004640633
0.028557
-8.65779e-05
0.004311829
0.02880619
-0.0002745523
0.003795105
0.02816874
-0.0003854932
0.0004430657
0.007025603
-0.0004943259
0.0006234684
0.0004469486
0.000632201
0.006652299
0.006889583
0.006584301
0.0001473883
0.0004919817
0.005528082
-8.802643e-05
0.0008255218
0.02315265
6.778449e-06
0.001757479
0.02711325
2.45012e-05
0.002650167
0.02743646
4.838376e-05
0.003440786
0.02756828
2.678319e-05
0.004088255
0.02770922
8.96208e-06
0.004558301
0.02801953
-4.28644e-05
0.004639174
0.02847892
-8.015287e-05
0.004357599
0.02907835
-0.0001821979
0.00030084
0.02951406
-0.0002580446
0.001192488
0.0002943915
0.001188277
0.0001629237
1.507451e-05
0.007200434
-5.198872e-05
2.787401e-05
-0.00155479
5.709101e-05
-0.0001160236
0.001601609
-1.576054e-05
0.0008802391
0.0222909
7.358099e-06
0.001877414
0.02612731
2.561795e-05
0.002844149
0.02648518
4.83044e-05
0.003712025
0.02669475
2.449187e-05
0.004469692
0.02694966
9.32903e-06
0.005038598
0.02745189
-4.578347e-05
0.005391871
0.02813562
-5.018324e-05
0.005287894
0.02915516
-0.000152153
0.004984053
0.02986131
-7.979317e-05
0.0003543518
0.03154387
2.124389e-05
0.001310356
0.0004245583
0.001338195
-0.007654349
-0.007409995
-0.007566823
-0.007380693
-0.008354757
-3.037979e-05
0.008053357
1.280365e-05
7.9947e-05
1.219514e-05
0.0002793174
0.0003018683
0.0009559201
0.02135639
5.270325e-06
0.002046325
0.02504999
2.554316e-05
0.003118038
0.02543091
4.860973e-05
0.004114778
0.02569233
2.572203e-05
0.005019953
0.02604131
8.186592e-06
0.00579216
0.02668097
-4.38717e-05
0.006331483
0.02759916
-6.247846e-05
0.006379473
0.02908593
-0.0001720011
0.00554245