/*--------------------------------*- C++ -*----------------------------------*\
  =========                 |
  \\      /  F ield         | OpenFOAM: The Open Source CFD Toolbox
   \\    /   O peration     | Website:  https://openfoam.org
    \\  /    A nd           | Version:  7
     \\/     M anipulation  |
\*---------------------------------------------------------------------------*/
FoamFile
{
    version     2.0;
    format      ascii;
    class       volVectorField;
    location    "0.08";
    object      U;
}
// * * * * * * * * * * * * * * * * * * * * * * * * * * * * * * * * * * * * * //

dimensions      [0 1 -1 0 0 0 0];

internalField   nonuniform List<vector> 
77308
(
(-0.001191337 -0.04985784 -0.001784363)
(-0.001259209 -0.05502772 -0.00237868)
(-0.0008783938 -0.05769177 -0.002469141)
(-0.001033165 -0.06197646 -0.002779445)
(-0.001308892 -0.06562232 -0.0029311)
(-0.00158029 -0.07072163 -0.003229647)
(-0.002765415 -0.04944436 -0.001285098)
(-0.003015194 -0.05432205 -0.0008541815)
(-0.004001982 -0.05782184 -0.001225344)
(-0.005013222 -0.06199029 -0.001377336)
(-0.00617719 -0.06472707 -0.001482523)
(-0.007552571 -0.07107776 -0.00185161)
(-0.0005766843 -0.04509356 -0.0006426705)
(-0.002960988 -0.04664299 -0.001434183)
(-0.004903386 -0.04956559 -0.00165851)
(-0.007460513 -0.05312112 -0.001725962)
(-0.009271988 -0.05598196 -0.00195416)
(-0.01168455 -0.06099797 -0.001928743)
(-0.003562782 -0.04475916 -6.422612e-05)
(-0.005279067 -0.04680781 0.0001579896)
(-0.007647669 -0.0493275 -5.23064e-05)
(-0.01019765 -0.05215125 -7.099087e-05)
(-0.01300214 -0.05562776 -8.76507e-05)
(-0.01572146 -0.05980437 -0.0001744291)
(-0.004153424 -0.04140283 -0.000163715)
(-0.006754879 -0.04302662 -0.0003068861)
(-0.009824258 -0.04493827 -0.0003290345)
(-0.01303231 -0.04753441 -0.0004386958)
(-0.01640419 -0.0505361 -0.0005049607)
(-0.02001007 -0.05445999 -0.00055447)
(-0.005221755 -0.03871031 4.149214e-05)
(-0.008382347 -0.04019523 -5.531458e-05)
(-0.01203734 -0.04201464 4.258223e-05)
(-0.01578071 -0.04426673 -2.307775e-05)
(-0.01981929 -0.04718925 -1.152377e-05)
(-0.02409235 -0.05068737 -4.101281e-05)
(-0.005970903 -0.03483635 -8.261521e-07)
(-0.009659672 -0.03611921 -0.0001449949)
(-0.01388392 -0.03764748 -1.196451e-05)
(-0.01819355 -0.0396686 -8.386657e-05)
(-0.02282554 -0.04223239 -8.460597e-05)
(-0.02774205 -0.04538919 -0.0001036015)
(-0.006781049 -0.03073456 -1.719309e-05)
(-0.01084237 -0.03189681 -0.0001173311)
(-0.01558426 -0.03324198 3.716076e-05)
(-0.02036699 -0.03500681 -2.857818e-05)
(-0.02554527 -0.03727469 -1.787703e-05)
(-0.03101685 -0.04003597 -3.611796e-05)
(-0.007346059 -0.02609078 9.688957e-06)
(-0.01185628 -0.02705853 -0.0001284268)
(-0.01699973 -0.02818108 4.948588e-05)
(-0.02223122 -0.02966234 -1.728253e-05)
(-0.02786967 -0.03159434 -3.841844e-06)
(-0.03384507 -0.0339273 -1.622708e-05)
(-0.007771561 -0.02116493 -2.885672e-05)
(-0.01270438 -0.02194051 -0.0001652696)
(-0.01819502 -0.02279033 -3.054606e-06)
(-0.02377253 -0.02400892 -7.35131e-05)
(-0.02982291 -0.02552002 -8.054988e-05)
(-0.03619682 -0.02741918 -0.0001077558)
(-0.008326038 -0.01591003 5.244661e-05)
(-0.01330219 -0.01643023 3.412039e-05)
(-0.01907719 -0.0171886 0.0002181951)
(-0.02498505 -0.01805002 0.0001798196)
(-0.03129414 -0.01923372 0.0002186625)
(-0.03802237 -0.02065354 0.0002439348)
(-0.008623876 -0.01061163 2.619761e-05)
(-0.01373324 -0.01107215 0.0001471869)
(-0.01967984 -0.01128551 0.0001883262)
(-0.02562848 -0.01193931 0.0001283764)
(-0.03213634 -0.01267891 9.498724e-05)
(-0.03898672 -0.01364513 7.523179e-05)
(-0.005979918 -0.005754066 0.0003723276)
(-0.01279168 -0.005392731 0.0007053)
(-0.01971748 -0.00460008 0.0004679598)
(-0.02511562 -0.003605951 0.0007833718)
(-0.03225568 -0.003001164 0.000785345)
(-0.0394688 -0.002446146 0.0009188889)
(-0.007029978 -0.0003401944 0.000150036)
(-0.01475877 0.0001786223 -0.0001251394)
(-0.02212715 0.0009515916 -0.0004302148)
(-0.03018522 0.001829 -0.0004400761)
(-0.03830107 0.002644491 -0.0006518519)
(-0.04682795 0.00331384 -0.0009207493)
(0.0250889 1.03385 -0.005678523)
(0.09335292 1.036085 0.04130468)
(0.1253036 1.023249 0.06098862)
(0.166531 1.023135 0.05090281)
(0.2128143 1.024045 0.04094057)
(0.2606393 1.028504 0.03522042)
(0.149615 0.9442594 0.02575683)
(0.1847743 0.9885807 0.03549042)
(0.2260205 0.9826998 0.03245806)
(0.2743477 0.9765586 0.02854673)
(0.3242247 0.9752338 0.02894792)
(0.3769161 0.9753935 0.02935522)
(0.05171134 0.8096813 0.00569819)
(0.134827 0.820452 0.009905847)
(0.2069273 0.83201 0.0110549)
(0.2675293 0.8290741 0.009075276)
(0.3280028 0.8243095 0.006353324)
(0.3834613 0.8298856 0.006380027)
(0.1095243 0.7896519 0.007050086)
(0.1551465 0.804415 0.004097145)
(0.2189496 0.8125952 0.003343029)
(0.2781842 0.8268382 0.004295167)
(0.3378542 0.8326869 0.004317473)
(0.393706 0.839964 0.003709698)
(0.08841405 0.6986022 -0.003399358)
(0.1514493 0.7100614 -0.003546453)
(0.2158489 0.7177233 -0.002550418)
(0.2798553 0.719977 -0.001585396)
(0.3451837 0.7219724 -0.0004814564)
(0.403966 0.7317187 -0.0006021884)
(0.1055401 0.6515459 -0.004130007)
(0.1636566 0.6632684 -0.002123155)
(0.2329508 0.6712467 -0.001767263)
(0.2981245 0.6809598 -0.0007037633)
(0.3610618 0.6907028 -0.0003979256)
(0.4201083 0.7036318 -0.0003839679)
(0.1017155 0.5778841 -0.003041099)
(0.1666869 0.5860674 -0.0004809846)
(0.237622 0.5930503 -0.002426123)
(0.3048489 0.601092 -0.00117444)
(0.3707255 0.6124614 -0.001137288)
(0.4335042 0.6266638 -0.000976517)
(0.1100734 0.5132803 -0.001628735)
(0.1745772 0.5218851 0.0008380772)
(0.2484288 0.5309181 -0.001608725)
(0.318044 0.541607 -0.00049322)
(0.386784 0.5564425 -0.0005487728)
(0.4530828 0.5741115 -0.0003761883)
(0.1116809 0.438609 -0.001199528)
(0.180317 0.4467128 0.001175654)
(0.2571001 0.4555206 -0.001465061)
(0.3304088 0.4667459 -0.000331132)
(0.4032615 0.4831014 -0.000420682)
(0.4744569 0.5032732 -0.000183822)
(0.1169414 0.364242 -0.0009986434)
(0.1880093 0.3720072 0.001395625)
(0.2681716 0.3811642 -0.001277503)
(0.3456829 0.3933037 -0.0002783459)
(0.423319 0.4108994 -0.0003626677)
(0.501458 0.4334873 -0.0002668753)
(-0.00138578 -0.0499643 -0.0008829283)
(-0.00162135 -0.04945341 -0.001508559)
(-0.001353667 -0.05177852 -0.002326197)
(-0.001679219 -0.0547083 -0.002746285)
(-0.001969266 -0.05818666 -0.002867197)
(-0.002367516 -0.06243246 -0.002995618)
(-0.001258451 -0.05339753 -0.001599638)
(-0.00117208 -0.04905807 0.0002049046)
(-0.001119718 -0.04839857 0.001421434)
(-0.002858459 -0.04991774 0.001404331)
(-0.003796612 -0.052536 0.001602818)
(-0.005135513 -0.05585187 0.001482185)
(-0.006343793 -0.05999424 0.002084395)
(-0.0006470545 -0.05151439 -0.002371267)
(-0.001934189 -0.04561033 0.0001229203)
(-0.003973961 -0.04818437 -0.001091724)
(-0.005470117 -0.05013021 -0.001055067)
(-0.007406734 -0.05308829 -0.001819663)
(-0.009220688 -0.0565464 -0.001623065)
(-0.01128465 -0.06083307 -0.002145314)
(-0.0006385738 -0.05159548 -0.001600074)
(-0.003317646 -0.04475472 0.000178662)
(-0.005252532 -0.0457867 3.271832e-05)
(-0.007811555 -0.04781213 -8.675282e-05)
(-0.01021657 -0.05029263 -0.000439402)
(-0.01292335 -0.05356974 -0.0003609204)
(-0.01574851 -0.05753806 -0.0006013246)
(-0.0004339969 -0.04818864 -0.002952338)
(-0.004204677 -0.04171648 -5.520117e-05)
(-0.007098232 -0.04334798 -0.000408831)
(-0.009980531 -0.04506801 -0.0002908115)
(-0.01319169 -0.04760494 -0.000459957)
(-0.01650191 -0.05069107 -0.0004690496)
(-0.02010257 -0.05450115 -0.0005338597)
(-0.0009232299 -0.04678338 -0.001337284)
(-0.00487852 -0.03893771 1.152576e-06)
(-0.008620703 -0.04005505 -0.0001062208)
(-0.01205911 -0.04175724 -6.605165e-05)
(-0.01584618 -0.04397007 -0.0001557642)
(-0.01985029 -0.04684122 -0.0001347522)
(-0.02413383 -0.05031681 -0.0001876825)
(-0.001128459 -0.04215008 -0.001358852)
(-0.005640405 -0.03523314 -5.308857e-05)
(-0.009950122 -0.03618422 -0.0001952593)
(-0.01389348 -0.03767965 -9.043798e-05)
(-0.01828442 -0.0396977 -0.0001448777)
(-0.02287031 -0.04226733 -0.0001205198)
(-0.02780263 -0.04541123 -0.0001409933)
(-0.001189907 -0.0377467 -0.001292981)
(-0.006451319 -0.0310148 -1.239051e-05)
(-0.01111391 -0.03186664 -0.0001236958)
(-0.0155835 -0.03317992 -3.729953e-05)
(-0.02044991 -0.03493698 -6.996278e-05)
(-0.02559027 -0.03718694 -4.147134e-05)
(-0.03108404 -0.03994107 -5.479174e-05)
(-0.001234782 -0.03140679 -0.001955544)
(-0.006984401 -0.02636227 -3.367718e-05)
(-0.01216277 -0.02709222 -0.0001405232)
(-0.01699828 -0.02820273 -1.820653e-05)
(-0.0223291 -0.0296818 -4.60407e-05)
(-0.02791897 -0.03159727 -2.928823e-06)
(-0.03391924 -0.0339403 -6.566691e-06)
(-0.001610872 -0.02590175 -0.001817599)
(-0.007478753 -0.02139603 -4.777371e-05)
(-0.01303233 -0.02185179 -6.945951e-05)
(-0.01824318 -0.02267591 -4.795376e-06)
(-0.02391879 -0.0238457 -6.230917e-06)
(-0.02991757 -0.0253282 2.675171e-05)
(-0.03631649 -0.02719539 2.878623e-05)
(-0.001630073 -0.01971028 -0.0013698)
(-0.00798723 -0.01641823 2.138865e-05)
(-0.01361511 -0.01654182 -0.0001503989)
(-0.01913266 -0.0172427 7.945522e-05)
(-0.02509302 -0.01813088 3.643465e-05)
(-0.03135848 -0.01933133 0.0001243911)
(-0.03810959 -0.02077365 0.000129548)
(-0.001789796 -0.01305031 -0.001174421)
(-0.00881012 -0.01049063 -0.0001640272)
(-0.01417928 -0.0102759 0.000132006)
(-0.02006562 -0.01047981 8.027986e-05)
(-0.02614779 -0.01097869 0.0001214944)
(-0.03270533 -0.01153328 0.0001301397)
(-0.03963673 -0.01232819 0.0001459494)
(-0.000823986 -0.007095025 9.854244e-05)
(-0.006629652 -0.00516915 0.0003428934)
(-0.01353831 -0.005033056 0.0005117302)
(-0.01949097 -0.004628926 0.0002455563)
(-0.02492149 -0.004874167 0.0002568613)
(-0.03196339 -0.004664636 0.0001820756)
(-0.03870906 -0.004911913 0.0004457485)
(-0.00710277 -0.0005005488 -0.0001306643)
(-0.01181797 -0.0001728502 -0.0004282508)
(-0.01763087 -0.0003747288 -0.002537121)
(-0.02425493 -0.0003025193 -0.003443469)
(-0.03045786 -0.0003440823 -0.004517305)
(-0.03710731 -0.0002764303 -0.005552553)
(0.0004577924 1.060103 0.01436721)
(0.008939082 1.031464 -0.01401379)
(0.07458108 1.049439 -0.106682)
(0.1462352 1.016448 -0.05907481)
(0.1834174 1.002965 -0.04483299)
(0.2214324 0.9972499 -0.03647116)
(0.2649819 0.999321 -0.02760623)
(0.03273954 0.9389731 0.06471003)
(0.13887 0.9586597 0.009536468)
(0.1785743 0.9952422 0.07761977)
(0.2285766 1.000567 0.07746765)
(0.2773317 0.9911557 0.06630982)
(0.3300769 0.9917361 0.07432614)
(0.3817528 0.9893369 0.05208367)
(-0.00152492 0.8496007 0.01430143)
(0.04460712 0.8118357 -0.02474222)
(0.1235687 0.8269307 -0.002668785)
(0.2003414 0.8321921 0.00100482)
(0.2670841 0.8275644 -0.005527023)
(0.3321656 0.8283393 -0.005825036)
(0.3903174 0.835941 -0.004592107)
(0.0117917 0.8623671 0.01075992)
(0.1100901 0.8052509 0.004000996)
(0.1559342 0.823957 0.01500799)
(0.2178141 0.828148 0.0113837)
(0.2767185 0.8311139 0.0068387)
(0.3357295 0.8372544 0.006569282)
(0.3925107 0.8470052 0.006807006)
(0.016145 0.7976696 0.009432067)
(0.08953028 0.719003 -0.001007625)
(0.1537708 0.7271775 0.003499815)
(0.219864 0.7189419 5.975577e-05)
(0.2839115 0.7168856 0.001558256)
(0.3447812 0.7219321 -0.0006773425)
(0.4029537 0.7334587 0.00284829)
(0.01576487 0.7334676 0.01503843)
(0.09628808 0.6637044 -0.00410585)
(0.1696821 0.6725071 0.005759886)
(0.2347909 0.6765283 0.00087613)
(0.2990091 0.6849086 0.003795609)
(0.3599116 0.6952691 -3.566025e-05)
(0.4188357 0.7085193 0.003059279)
(0.01652829 0.6590311 0.01163101)
(0.09374772 0.5858678 -0.003072298)
(0.1717637 0.5886155 0.002192871)
(0.2374987 0.5932621 -0.001126093)
(0.3055824 0.6012958 0.001248865)
(0.3704075 0.6126025 -0.001020086)
(0.4333208 0.6271106 0.0004045841)
(0.01664065 0.5838848 0.0124004)
(0.1033364 0.5196174 -0.001861013)
(0.1793401 0.5237948 0.002438752)
(0.2476003 0.532161 -0.000612978)
(0.3182939 0.5429451 0.0009614826)
(0.3860634 0.5576912 -0.0003026133)
(0.4525537 0.5754458 0.0002680381)
(0.01760224 0.5053539 0.01429189)
(0.1057215 0.4427673 -0.001676099)
(0.184858 0.4468401 0.001668515)
(0.2561805 0.4552117 -0.0005553931)
(0.330764 0.4663458 0.0004302187)
(0.4027245 0.4826868 -0.0003535973)
(0.4741862 0.5027904 -4.837912e-05)
(0.04851796 0.3469377 0.0004470809)
(0.1111524 0.3684007 -0.001700896)
(0.1922581 0.3723526 0.001318099)
(0.2671934 0.3814916 -0.0005953115)
(0.3459469 0.3934875 2.020623e-05)
(0.4226918 0.4110779 -0.0004216494)
(0.5012662 0.4336514 -0.000790868)
(-0.001162929 -0.0492127 -2.990844e-05)
(-0.0006457449 -0.04867318 0.0003249113)
(-0.0007817373 -0.0519423 0.0004909006)
(-0.001281199 -0.05415001 0.0004822104)
(-0.001627747 -0.05812743 0.0005442343)
(-0.002076897 -0.06232971 0.0005875548)
(-0.001555377 -0.05325293 0.001565323)
(-0.003197807 -0.04952248 -0.0001953349)
(-0.00236102 -0.04976449 -0.0006000368)
(-0.003643917 -0.05218053 -0.0007544448)
(-0.004348914 -0.05445482 -0.001038931)
(-0.005680701 -0.05828679 -0.00111886)
(-0.00693222 -0.06254626 -0.001198853)
(-0.0002883802 -0.04864737 -0.001436525)
(-0.000942217 -0.0456923 0.0005215673)
(-0.004048893 -0.04730191 -0.0006081309)
(-0.005165518 -0.049517 -0.0003094831)
(-0.007405735 -0.05166417 -0.0005460069)
(-0.009056976 -0.05519668 -0.0005618449)
(-0.01122035 -0.05918679 -0.0006442282)
(-0.001891587 -0.04240707 0.0008608422)
(-0.003760393 -0.04549881 5.155715e-05)
(-0.005539851 -0.04586345 -0.0001071202)
(-0.007999389 -0.04842873 -0.0003144115)
(-0.01042723 -0.05077968 -0.000402392)
(-0.01301705 -0.05418124 -0.0004936164)
(-0.01587139 -0.05819748 -0.0005747822)
(-0.0009277526 -0.0416412 -0.0003451668)
(-0.0038019 -0.04205665 -0.0001134191)
(-0.006940831 -0.0431821 -0.000318005)
(-0.009819998 -0.04492621 -0.0002017867)
(-0.01317653 -0.04725338 -0.0003127903)
(-0.01645733 -0.05032235 -0.0003129765)
(-0.02010358 -0.05405516 -0.0003723747)
(-0.001644932 -0.03789382 -1.721424e-05)
(-0.004874413 -0.03918356 -0.0002686897)
(-0.008403888 -0.04000961 -0.0001145833)
(-0.01204928 -0.04185777 -0.0001546492)
(-0.01584152 -0.04399117 -0.0001700015)
(-0.01986448 -0.04688791 -0.0001870232)
(-0.02416609 -0.05034771 -0.0002196872)
(-0.001736984 -0.03437971 -0.0001877549)
(-0.005490637 -0.03525949 -0.0003392148)
(-0.00963802 -0.03613771 -0.0001888282)
(-0.01379768 -0.03760706 -0.0001491146)
(-0.01822737 -0.03956248 -0.0001483354)
(-0.02285595 -0.04211161 -0.0001373167)
(-0.02781815 -0.04522593 -0.0001554976)
(-0.002091965 -0.03020918 -5.951782e-05)
(-0.006257151 -0.03106599 -0.0003349611)
(-0.0108059 -0.03181927 -0.000130301)
(-0.01550246 -0.03311998 -0.0001058125)
(-0.02039238 -0.03483283 -7.491032e-05)
(-0.02559152 -0.03706433 -6.240938e-05)
(-0.0311128 -0.03980237 -6.81257e-05)
(-0.002232579 -0.02581501 -0.0001660848)
(-0.006800202 -0.02638714 -0.0003960658)
(-0.01178714 -0.0269274 -0.000156946)
(-0.01689315 -0.0280013 -9.455849e-05)
(-0.0222692 -0.02939276 -6.311003e-05)
(-0.02792895 -0.03127034 -3.420675e-05)
(-0.03396698 -0.0335704 -3.592821e-05)
(-0.002414293 -0.02083561 -0.0002433718)
(-0.007160057 -0.02125733 -0.000404144)
(-0.01258437 -0.02175547 -9.49688e-06)
(-0.01814956 -0.02240729 -1.097218e-05)
(-0.02383893 -0.02354398 7.709762e-05)
(-0.02993081 -0.02496839 9.734679e-05)
(-0.03635513 -0.026817 0.0001138956)
(-0.002462634 -0.0154994 -0.0002815576)
(-0.007727404 -0.01597296 -0.0002874314)
(-0.0132533 -0.0158063 -0.0001593614)
(-0.01901879 -0.0164286 1.92453e-05)
(-0.02509778 -0.01715802 2.786696e-05)
(-0.03141386 -0.01823498 8.769837e-05)
(-0.03821901 -0.01957259 7.22445e-05)
(-0.002627657 -0.0101937 -0.0001540127)
(-0.007822954 -0.009991309 -0.0001920819)
(-0.01355822 -0.01012044 0.0005602765)
(-0.02004099 -0.009700596 0.0004183088)
(-0.02600615 -0.01025176 0.0005888965)
(-0.03264408 -0.01073755 0.00061833)
(-0.03960716 -0.01153375 0.000682819)
(-0.0005985661 -0.006240749 0.0004219476)
(-0.006352854 -0.004458784 -6.262875e-05)
(-0.01503522 -0.002958749 -0.0004735404)
(-0.01944299 -0.003035231 0.0003379972)
(-0.02604453 -0.003566764 5.664001e-05)
(-0.03237178 -0.003614228 0.000210471)
(-0.03948587 -0.003911925 0.0001525122)
(-0.007796329 -0.0001063668 0.0007575057)
(-0.04440012 1.072727 -0.01173252)
(-0.06886444 1.061303 -0.01307799)
(0.0001955932 0.7386242 -0.08197338)
(0.1276567 0.8184423 -0.1412251)
(0.1814051 0.842001 -0.07541416)
(0.1973741 0.7976449 -0.05883081)
(0.2704389 0.8744289 -0.0822155)
(0.04542325 0.9445727 0.04467638)
(0.1549303 0.9984174 0.01418362)
(0.2269814 0.9583613 0.067829)
(0.209409 0.9639358 0.0714936)
(0.2687431 0.999221 0.06760788)
(0.3027125 0.9940718 0.06496328)
(0.3499651 0.99411 0.06150875)
(0.01648207 0.7877106 -0.03548381)
(0.08231605 0.8234622 -0.02564226)
(0.1512316 0.7924387 0.00290749)
(0.2004648 0.7928564 0.01494396)
(0.2711407 0.8200208 0.01463136)
(0.3284337 0.8127459 0.01126219)
(0.3900799 0.8175758 0.01138202)
(0.02919585 0.7772729 0.01223557)
(0.09335657 0.8199079 0.002614771)
(0.1593403 0.8099902 0.01268726)
(0.2141163 0.8127768 0.01436542)
(0.2755684 0.832342 0.0155722)
(0.3364355 0.8390671 0.01466959)
(0.3911908 0.8453574 0.01468985)
(0.01873605 0.6832944 -0.004982445)
(0.08480722 0.7207915 0.0001902035)
(0.1549918 0.7031341 0.001351781)
(0.2135149 0.7176641 0.002483727)
(0.2811251 0.7133657 0.0005925646)
(0.3399736 0.7272564 0.002400749)
(0.4030919 0.7279718 0.002197092)
(0.02655323 0.6456951 0.002641902)
(0.09280028 0.6668467 0.004613439)
(0.1604332 0.6632537 0.002213424)
(0.2285496 0.6757934 0.003918874)
(0.29535 0.6847182 -0.0006163954)
(0.3575611 0.6973219 0.001096655)
(0.4197694 0.70667 0.001861336)
(0.02737185 0.5699372 -0.00018885)
(0.0935004 0.5859912 0.002852421)
(0.1664066 0.5827331 0.0007088401)
(0.2323554 0.5943391 0.001240021)
(0.3035492 0.5992974 0.0001182018)
(0.3690157 0.6135025 -0.0001339441)
(0.4332558 0.6258119 0.0004207671)
(0.03171121 0.5077097 0.001430149)
(0.09948228 0.5198232 0.003315967)
(0.1741597 0.5222493 0.00120942)
(0.2448937 0.5321637 0.0006748608)
(0.3168753 0.5415612 0.00010184)
(0.384974 0.5578963 -0.0002527611)
(0.4523391 0.574611 -1.099928e-05)
(0.03310671 0.4332451 0.0008561573)
(0.1019586 0.4427512 0.003391977)
(0.1798122 0.4454174 0.001368467)
(0.254164 0.4549065 0.0004955536)
(0.3293268 0.4651643 0.0001603264)
(0.4019032 0.4823469 -0.0002429699)
(0.4738926 0.5015883 -7.458793e-05)
(0.03614782 0.3628074 0.0008190043)
(0.1074391 0.367909 0.00371068)
(0.1873548 0.3713451 0.001087551)
(0.2652353 0.3803117 0.0003534415)
(0.3446899 0.3918216 -0.0001743931)
(0.4217629 0.4096891 -0.0003580761)
(0.5012485 0.4319512 -0.0008583686)
(-0.001186669 -0.04974335 1.997245e-05)
(-0.001713036 -0.0483593 -0.0004905364)
(-0.001180919 -0.05101257 -0.0005911196)
(-0.001570527 -0.05424538 -0.0006353607)
(-0.001755232 -0.0576747 -0.0007507667)
(-0.002180509 -0.06208355 -0.000774509)
(-0.001576161 -0.05395804 0.0005088108)
(-0.002750234 -0.04946641 7.915672e-05)
(-0.001941693 -0.04931265 0.000241894)
(-0.003338129 -0.0506458 0.0004170703)
(-0.004027006 -0.05342356 0.0004571824)
(-0.005414322 -0.05674448 0.0003827308)
(-0.006498728 -0.06100006 0.0004906212)
(-0.001343229 -0.04933123 -0.0008619263)
(-0.001170842 -0.04558891 0.0002986185)
(-0.004819323 -0.0478675 -0.0004932972)
(-0.005411293 -0.04944588 -0.000548974)
(-0.007660297 -0.05245942 -0.0008202643)
(-0.009225055 -0.05577105 -0.0008898339)
(-0.01135975 -0.0600135 -0.001039754)
(-0.002073833 -0.04338892 0.0004446795)
(-0.003779815 -0.04552746 9.50304e-05)
(-0.005648126 -0.04556166 6.0125e-05)
(-0.008081764 -0.04788385 -0.0001348444)
(-0.01036189 -0.05015248 -0.0001237857)
(-0.01305385 -0.05347546 -0.0002105512)
(-0.01583519 -0.05740149 -0.0002441579)
(-0.0009397738 -0.04220766 5.343235e-05)
(-0.003996274 -0.04200616 1.469641e-05)
(-0.007139226 -0.04334157 -0.0001922368)
(-0.009977969 -0.04493607 -0.0002185814)
(-0.01329305 -0.04740717 -0.0003229354)
(-0.01654889 -0.05043375 -0.0003577061)
(-0.02017946 -0.05420443 -0.0004170159)
(-0.00165514 -0.03837988 0.0001454009)
(-0.004954493 -0.03909294 1.446108e-05)
(-0.008458508 -0.03989768 -2.252983e-05)
(-0.01211111 -0.04168297 -8.581063e-05)
(-0.01588053 -0.04379101 -0.0001145225)
(-0.0199097 -0.04665419 -0.0001371929)
(-0.02420067 -0.05009161 -0.0001657531)
(-0.001688279 -0.03492409 1.53846e-05)
(-0.005550987 -0.03523012 -3.339815e-05)
(-0.009701985 -0.03616343 -9.238195e-05)
(-0.01385935 -0.03758982 -0.0001023757)
(-0.01829478 -0.03955716 -0.0001354397)
(-0.02291589 -0.04209208 -0.0001403073)
(-0.02788222 -0.04520566 -0.0001634208)
(-0.001978636 -0.03060542 -5.413723e-05)
(-0.006200634 -0.03099933 -3.303906e-05)
(-0.01083752 -0.03177595 -5.281594e-05)
(-0.01554825 -0.03304367 -6.521977e-05)
(-0.02045696 -0.03473942 -7.821027e-05)
(-0.02566072 -0.03694829 -7.97148e-05)
(-0.03119149 -0.03967306 -9.366471e-05)
(-0.002110464 -0.02601722 -3.518881e-05)
(-0.00678508 -0.02635567 -3.094998e-05)
(-0.01183912 -0.0268773 -6.488824e-05)
(-0.01694911 -0.02794415 -5.110567e-05)
(-0.02236063 -0.029309 -6.477805e-05)
(-0.0280222 -0.03116734 -5.187608e-05)
(-0.0340759 -0.03345806 -6.151248e-05)
(-0.002358071 -0.02099859 2.420017e-05)
(-0.007233478 -0.02118287 -5.925507e-05)
(-0.01264194 -0.02167002 -1.331763e-05)
(-0.01825904 -0.02225416 -4.684546e-05)
(-0.02397482 -0.02333991 -3.125813e-05)
(-0.03007178 -0.02472943 -2.840628e-05)
(-0.03650924 -0.02655576 -3.460038e-05)
(-0.002309641 -0.01575185 3.328243e-05)
(-0.007790897 -0.01604044 -5.913288e-06)
(-0.01335441 -0.01563703 -8.691515e-05)
(-0.01914211 -0.01617409 -5.650049e-05)
(-0.02524621 -0.01682575 -8.617361e-05)
(-0.03155109 -0.01787645 -5.736114e-05)
(-0.0383737 -0.01918008 -8.113878e-05)
(-0.002525154 -0.01033466 -2.00261e-05)
(-0.00791465 -0.009801252 -0.0001357735)
(-0.01353559 -0.009939893 7.643381e-05)
(-0.02021919 -0.009415434 -4.414668e-05)
(-0.02610348 -0.009917941 -6.363238e-05)
(-0.03272596 -0.0103716 -7.517621e-05)
(-0.03965861 -0.01115797 -9.929125e-05)
(-0.0003347952 -0.006308405 0.0004140385)
(-0.006110546 -0.004399453 6.291778e-05)
(-0.01529802 -0.002405438 -5.167315e-05)
(-0.01988017 -0.00255459 -7.99229e-05)
(-0.02654153 -0.003213208 -7.699531e-05)
(-0.03295966 -0.00324059 -0.0001531711)
(-0.04016954 -0.00351804 -0.0002095566)
(-0.007642791 -0.0001192314 0.0003267481)
(-0.03514758 1.094504 -0.003328978)
(-0.07422 1.057824 -0.001124788)
(-0.0114242 0.753017 -0.01911663)
(0.1220949 0.7298885 -0.09111072)
(0.1860878 0.8464541 -0.00420751)
(0.2095745 0.896252 -0.03103468)
(0.2399137 0.9014324 -0.01281579)
(0.04961454 0.9812046 0.02526871)
(0.159339 1.00528 0.009451641)
(0.2404918 0.9840144 0.02581219)
(0.1878858 0.9288136 0.09964175)
(0.243693 1.001725 -0.002257884)
(0.2912603 1.003792 0.03386818)
(0.3676713 0.9873414 -0.0006145854)
(0.02921553 0.8010427 -0.008502012)
(0.08514989 0.8317355 -0.01579485)
(0.1623361 0.8065949 -0.00972459)
(0.1995954 0.7770695 -0.003959929)
(0.2668596 0.8328417 -0.004374438)
(0.3353174 0.8250698 -0.003120454)
(0.3971304 0.8249763 -0.003861183)
(0.02845182 0.7946672 0.0004406943)
(0.09331953 0.8219522 0.0003714203)
(0.1671532 0.8320738 0.005355869)
(0.213221 0.810861 0.0003877201)
(0.2743042 0.8446344 0.009561503)
(0.3354973 0.8461899 0.004031238)
(0.3946313 0.8522031 0.006356419)
(0.02320801 0.700141 -0.005639785)
(0.08348304 0.714526 -0.003278123)
(0.1571114 0.7225024 0.001478412)
(0.2195328 0.7003465 -0.008968361)
(0.2759146 0.7353124 0.002594489)
(0.3460988 0.7265703 -0.004450388)
(0.4020828 0.7356813 0.004361523)
(0.02669366 0.6563427 -0.001715755)
(0.08970994 0.6655094 -0.005371237)
(0.1677134 0.6742091 0.003530865)
(0.2301312 0.6729564 -0.004314947)
(0.2934188 0.6902716 0.002544399)
(0.3618428 0.6970905 -0.002448387)
(0.4177472 0.7102577 0.001697261)
(0.02952214 0.585315 -0.0007149822)
(0.09326583 0.5852976 -0.003216247)
(0.1688796 0.5892413 -6.003619e-05)
(0.2359995 0.5915636 -0.003001835)
(0.3036124 0.6044615 0.001729811)
(0.3701684 0.6141499 -0.001540918)
(0.4326207 0.6284261 0.0009337169)
(0.03297342 0.5160455 -0.001224661)
(0.1014352 0.5199153 -0.002340229)
(0.1754907 0.5250734 2.010058e-07)
(0.2460464 0.532226 -0.001822795)
(0.3170103 0.5439384 0.0001802152)
(0.3855491 0.5587491 -0.001216418)
(0.4522487 0.576208 -0.0001357628)
(0.03295311 0.4402102 -0.002512927)
(0.1017069 0.444429 -0.001364328)
(0.1807396 0.4469031 -0.0001704154)
(0.2547027 0.4551402 -0.0009274136)
(0.3298391 0.4664029 6.546448e-05)
(0.4023551 0.4830041 -0.0005545971)
(0.4740659 0.5024581 -2.064498e-06)
(0.03517681 0.3677618 -0.001414386)
(0.1086706 0.3688011 -0.001306842)
(0.1882664 0.3720341 -0.0004538421)
(0.2658661 0.38093 -0.0006164002)
(0.3453187 0.3927158 -0.0002893083)
(0.4221528 0.4104813 -0.0005555166)
(0.501799 0.4329524 -0.0006916731)
(-0.001147261 -0.04998549 -1.998733e-05)
(-0.001326267 -0.04837299 1.642073e-05)
(-0.001015012 -0.05141871 9.841925e-06)
(-0.001550746 -0.05411492 1.454143e-05)
(-0.001659685 -0.05761231 2.821984e-05)
(-0.002161202 -0.06194089 5.642717e-06)
(-0.001877502 -0.05428633 -0.0006088067)
(-0.003045182 -0.0495839 -0.0001736984)
(-0.002039424 -0.04965264 -0.0002591936)
(-0.003614974 -0.05115003 -0.0002877473)
(-0.004230988 -0.05368112 -0.0004914854)
(-0.00555042 -0.05709864 -0.0005050181)
(-0.006672466 -0.0613485 -0.0005791113)
(-0.001990567 -0.05036389 -0.000263142)
(-0.0007362815 -0.04581731 0.00010616)
(-0.004900386 -0.04759047 -0.0002444759)
(-0.005276432 -0.04924226 -0.0001149658)
(-0.007707399 -0.05203177 -0.0002327347)
(-0.009175024 -0.05532934 -0.000225864)
(-0.01135712 -0.05950138 -0.0002705397)
(-0.002172245 -0.04382358 0.0001846804)
(-0.004099029 -0.04582003 -2.532809e-05)
(-0.005779488 -0.04557753 -0.000147643)
(-0.008202646 -0.04808268 -0.0002190073)
(-0.01047861 -0.05026639 -0.0002914326)
(-0.0131115 -0.05363087 -0.0003348242)
(-0.01590393 -0.05755197 -0.000384556)
(-0.0009783687 -0.04264375 -0.0001018141)
(-0.003967366 -0.04209569 -8.231044e-05)
(-0.007127951 -0.04328316 -0.0001739488)
(-0.00993592 -0.04487553 -0.0001490567)
(-0.01330774 -0.04726222 -0.0001971702)
(-0.01654277 -0.05027799 -0.0002085997)
(-0.02019416 -0.05401467 -0.0002392392)
(-0.001712771 -0.03842984 -3.945849e-05)
(-0.005004255 -0.03918669 -0.0001216706)
(-0.008439283 -0.03988641 -0.0001186294)
(-0.01212162 -0.04171937 -0.0001438362)
(-0.01590287 -0.04379473 -0.0001661322)
(-0.01993353 -0.04667196 -0.0001839953)
(-0.02423343 -0.05010128 -0.0002061431)
(-0.00167459 -0.03498394 -0.0001279521)
(-0.005508058 -0.03525121 -0.000142414)
(-0.009633249 -0.03613857 -0.0001219578)
(-0.01382677 -0.0375504 -0.0001159867)
(-0.018291 -0.03949023 -0.000121137)
(-0.02292889 -0.04201868 -0.0001202186)
(-0.02791023 -0.04511759 -0.0001282953)
(-0.001997764 -0.03059911 -0.0001020322)
(-0.006172568 -0.03100174 -0.0001330875)
(-0.01076487 -0.03173974 -8.986414e-05)
(-0.01552675 -0.03299727 -9.043961e-05)
(-0.02045808 -0.03467525 -8.019353e-05)
(-0.02569046 -0.03687566 -7.130861e-05)
(-0.0312333 -0.03958835 -6.978112e-05)
(-0.002109096 -0.02603477 -0.0001113247)
(-0.006735298 -0.02634297 -0.0001329163)
(-0.01174752 -0.02679581 -8.359983e-05)
(-0.01691744 -0.02783484 -6.873719e-05)
(-0.02236503 -0.02915346 -5.013402e-05)
(-0.02806372 -0.03098324 -2.718067e-05)
(-0.03413095 -0.03324784 -2.059432e-05)
(-0.002330601 -0.02097927 -9.556865e-05)
(-0.007140011 -0.02111592 -0.0001191447)
(-0.01251747 -0.02158314 -3.133654e-05)
(-0.01822003 -0.02208991 -3.477225e-05)
(-0.02396509 -0.02313023 -2.269535e-06)
(-0.03010362 -0.02446691 1.615987e-05)
(-0.0365543 -0.02627054 2.736456e-05)
(-0.002268245 -0.01570169 -8.152482e-05)
(-0.007732825 -0.01596379 -8.273949e-05)
(-0.01325028 -0.01542563 -5.953298e-05)
(-0.0190846 -0.01591529 -1.84206e-05)
(-0.02523775 -0.01649593 -1.06799e-05)
(-0.03156022 -0.01749772 2.129111e-05)
(-0.03840992 -0.01875999 2.332309e-05)
(-0.002505213 -0.01020152 -4.797445e-05)
(-0.00778766 -0.00965678 -4.572144e-05)
(-0.0133537 -0.009844355 8.743513e-05)
(-0.02017605 -0.009187827 7.997791e-05)
(-0.02604111 -0.009691482 0.0001336998)
(-0.03269555 -0.01006475 0.0001631031)
(-0.03963441 -0.01084176 0.0001820697)
(-0.0003396449 -0.006259687 0.0003267747)
(-0.006029877 -0.004418135 1.025537e-05)
(-0.01521828 -0.002415951 -4.037512e-05)
(-0.01974697 -0.002452892 8.363551e-05)
(-0.02654039 -0.003220684 7.916445e-05)
(-0.0328859 -0.003152396 0.0001468293)
(-0.0401402 -0.003456891 0.0001566746)
(-0.007674819 -8.18743e-05 6.190851e-05)
(-0.03029227 1.104479 -0.004041847)
(-0.1013068 1.075113 -0.02829524)
(-0.08325221 0.7935821 -0.02688611)
(0.05771022 0.5156194 -0.004223794)
(0.248327 0.8893832 -0.02470399)
(0.1952915 0.826502 -0.01862223)
(0.2954954 0.926249 -0.02239451)
(0.05374269 0.9563956 0.002770093)
(0.1643702 1.021265 0.02139699)
(0.3248975 0.982051 0.02062471)
(0.240168 0.9997277 0.004151397)
(0.2028764 0.9645094 -0.01205553)
(0.293645 1.023183 -0.0006816236)
(0.3036269 0.9916923 0.006509132)
(0.03039621 0.8120905 -0.0005546772)
(0.08727797 0.8278855 -0.004374138)
(0.1677968 0.7875268 -0.0007544001)
(0.2193007 0.8207232 -0.001763446)
(0.2592925 0.7930439 -0.002267535)
(0.3235677 0.8274786 0.0009028157)
(0.3802228 0.8115979 -0.0008272197)
(0.03216991 0.7854655 0.000238278)
(0.09744532 0.8285501 0.00156271)
(0.1590524 0.7994434 0.0002573204)
(0.2199723 0.8525361 -0.002838454)
(0.2724518 0.811793 0.003959128)
(0.3330729 0.8548095 0.003930502)
(0.3858013 0.8329355 0.005827421)
(0.01883802 0.6959779 0.001940794)
(0.08679805 0.7348461 0.0009646476)
(0.1516369 0.6874105 0.006535205)
(0.2146211 0.7393044 0.0003271305)
(0.285984 0.7051339 0.006343943)
(0.3313748 0.7482529 0.001897172)
(0.4053754 0.7272708 0.007379114)
(0.02484769 0.64796 0.0005568026)
(0.09558132 0.6722563 -0.004537485)
(0.1516008 0.6578386 0.002134877)
(0.2275057 0.6860231 -0.004121887)
(0.2858282 0.6805209 0.004296406)
(0.3534068 0.704978 -0.001775521)
(0.416974 0.7063601 0.004278751)
(0.02612452 0.5755068 0.001847958)
(0.09132078 0.59118 0.000226361)
(0.1649327 0.5792578 0.00265118)
(0.2250997 0.6028173 -0.0004640452)
(0.3024122 0.5991198 0.003813971)
(0.364661 0.6185949 -0.0008395991)
(0.4327224 0.6270763 0.002237213)
(0.03028545 0.5157092 0.000932737)
(0.09896375 0.5218949 0.0007407562)
(0.1716718 0.522707 0.002470533)
(0.2432531 0.5354004 -0.0008975066)
(0.3171374 0.5408485 0.00166616)
(0.3841167 0.5600273 -0.0006766732)
(0.4525397 0.5747541 0.0005705677)
(0.03187842 0.4397006 0.001368415)