/*--------------------------------*- C++ -*----------------------------------*\
  =========                 |
  \\      /  F ield         | OpenFOAM: The Open Source CFD Toolbox
   \\    /   O peration     | Website:  https://openfoam.org
    \\  /    A nd           | Version:  7
     \\/     M anipulation  |
\*---------------------------------------------------------------------------*/
FoamFile
{
    version     2.0;
    format      ascii;
    class       volScalarField;
    location    "0.09";
    object      p;
}
// * * * * * * * * * * * * * * * * * * * * * * * * * * * * * * * * * * * * * //

dimensions      [0 2 -2 0 0 0 0];

internalField   nonuniform List<scalar> 
78470
(
2.696869
2.701752
2.670101
2.660403
2.650116
2.645234
2.634304
2.624279
2.609889
2.694485
2.719384
2.62005
2.684833
2.627858
2.650017
2.626087
2.624869
2.607236
2.711144
2.724963
2.631401
2.702293
2.645107
2.664316
2.64297
2.642931
2.629639
2.68058
2.732211
2.612078
2.709329
2.633835
2.666454
2.643128
2.652229
2.642232
2.674388
2.754018
2.596494
2.727711
2.639668
2.670185
2.648895
2.66083
2.658428
2.655212
2.756637
2.590032
2.732727
2.635754
2.680563
2.657379
2.675909
2.680089
2.651696
2.787719
2.57263
2.741556
2.642046
2.683791
2.656068
2.672264
2.679188
2.63136
2.769692
2.578994
2.739366
2.630178
2.679048
2.656046
2.671201
2.677615
2.62511
2.79999
2.572064
2.749496
2.634691
2.677822
2.640999
2.65089
2.64058
2.632456
2.808176
2.573269
2.752763
2.625256
2.659602
2.630153
2.614195
2.599893
2.621661
2.801208
2.570035
2.762282
2.633569
2.663464
2.603638
2.575239
2.485178
2.618388
2.76979
2.573794
2.763747
2.631467
2.646287
2.606705
2.419428
2.379092
2.61761
2.797095
2.571694
2.778413
2.662983
2.697974
2.546594
2.365585
2.041118
2.606
2.755187
2.578719
2.783446
2.683132
2.717269
2.648852
2.525097
1.912513
2.583167
2.748361
2.564608
2.847068
2.827768
2.929622
2.876305
2.143995
2.538384
2.68034
2.514093
2.84273
2.821839
2.956431
2.9884
3.068307
2.500317
2.633884
2.516139
2.746044
2.737338
2.901275
2.972018
3.060638
2.392628
2.540846
2.428947
2.653461
2.642951
2.790114
2.875979
2.952181
2.29417
2.426179
2.322058
2.522379
2.490675
2.635843
2.723099
2.798705
2.157165
2.285737
2.173205
2.34486
2.294203
2.411418
2.508458
2.590789
2.020835
2.134567
2.000482
2.147507
2.056291
2.117719
2.192885
2.281534
1.863422
1.966831
1.803203
1.89887
1.734438
1.698922
1.691282
1.634536
0.8620416
-1.078678
-2.698263
2.655926
2.665833
2.655043
2.664005
2.634406
2.638583
2.622583
2.61547
2.597072
2.879829
2.603519
2.660331
2.621037
2.671344
2.631446
2.648827
2.628719
2.626833
2.60903
2.837344
2.595036
2.674802
2.615538
2.682689
2.635142
2.656402
2.63517
2.636814
2.622295
2.795844
2.529782
2.694355
2.58735
2.697801
2.625668
2.661906
2.639911
2.652449
2.641456
2.777089
2.539222
2.681307
2.578457
2.696294
2.625605
2.665977
2.644313
2.660253
2.656431
2.771097
2.534154
2.700514
2.571616
2.709548
2.623796
2.673124
2.651377
2.67466
2.679366
2.782011
2.50927
2.657753
2.548133
2.701008
2.619613
2.667571
2.647989
2.669574
2.676492
2.773355
2.524796
2.691598
2.556183
2.712651
2.621102
2.666109
2.648709
2.666354
2.675741
2.785294
2.503665
2.639364
2.54212
2.711071
2.614442
2.652239
2.63212
2.645241
2.638279
2.782524
2.513915
2.640951
2.544191
2.72849
2.610913
2.641174
2.623908
2.607721
2.599394
2.78911
2.49268
2.661388
2.540457
2.734573
2.611684
2.640424
2.59632
2.568131
2.481856
2.779902
2.502677
2.698113
2.553948
2.735688
2.623293
2.64303
2.606804
2.39632
2.384248
2.776994
2.475873
2.708707
2.552141
2.75337
2.645331
2.686237
2.521482
2.339227
2.025236
2.752476
2.463035
2.715744
2.558269
2.769639
2.668526
2.688313
2.670217
2.548358
1.849801
2.699173
2.478177
2.693967
2.572582
2.816076
2.776198
2.940979
2.873635
2.001452
2.639571
2.432428
2.694912
2.547145
2.801428
2.775405
2.981766
3.003137
3.06567
2.585323
2.385562
2.620439
2.510469
2.752497
2.725415
2.915614
2.977338
3.02867
2.498171
2.30223
2.537956
2.430823
2.650643
2.639475
2.799046
2.873178
2.914667
2.388388
2.210376
2.418509
2.322229
2.528468
2.490736
2.651324
2.719425
2.750977
2.272224
2.073907
2.280692
2.170077
2.347396
2.293524
2.423043
2.511861
2.551108
2.133427
1.951498
2.124693
1.996815
2.146587
2.044267
2.114028
2.191968
2.162023
1.991203
1.78875
1.960849
1.794784
1.897161
1.729673
1.664413
1.640779
1.42446
1.838449
0.8020101
-0.8427622
-2.44678
2.673027
2.698499
2.657367
2.697263
2.650288
2.66005
2.636388
2.629544
2.610363
2.786448
2.618835
2.696173
2.622618
2.698888
2.64059
2.662032
2.629858
2.627677
2.610617
2.872999
2.678011
2.797919
2.623313
2.737642
2.637929
2.661161
2.635883
2.635956
2.62371
2.824271
2.605442
2.802515
2.598966
2.743536
2.62715
2.669913
2.642094
2.654454
2.641196
2.880128
2.596452
2.850712
2.57787
2.766168
2.630028
2.669166
2.643826
2.660376
2.655445
2.829715
2.596363
2.850792
2.566373
2.774641
2.631806
2.676379
2.652155
2.67618
2.67719
2.852731
2.57596
2.885556
2.552539
2.779321
2.637998
2.685947
2.649698
2.668729
2.675312
2.853058
2.569271
2.875747
2.551267
2.780633
2.630739
2.682676
2.651262
2.671405
2.677102
2.846288
2.563765
2.905818
2.555395
2.786016
2.634092
2.688242
2.63502
2.649066
2.639346
2.842333
2.546748
2.899005
2.555883
2.789922
2.631447
2.67435
2.627398
2.618404
2.600794
2.825432
2.544951
2.899365
2.551012
2.800827
2.619204
2.673625
2.601305
2.584553
2.477182
2.798328
2.555661
2.868779
2.547527
2.807264
2.63242
2.651391
2.61997
2.382872
2.373558
2.789186
2.485171
2.872679
2.530082
2.823962
2.664902
2.710084
2.50263
2.345519
2.033368
2.776456
2.521398
2.84258
2.535986
2.840723
2.679214
2.690224
2.681761
2.542609
1.835286
2.758001
2.518127
2.819765
2.51515
2.884692
2.818621
2.968488
2.883066
2.017075
2.740092
2.408707
2.768075
2.458116
2.860256
2.831762
2.998048
3.055733
3.079894
2.683899
2.457559
2.7068
2.4852
2.787854
2.729439
2.939626
2.965961
3.00586
2.686118
2.231056
2.595988
2.385213
2.679231
2.644996
2.814011
2.863062
2.441048
2.200494
2.470105
2.294136
2.557429
2.488582
2.660706
2.705087
2.380314
2.05801
2.333581
2.139157
2.371942
2.295633
2.422253
2.469592
2.831234
2.171276
1.949956
2.186604
1.964883
2.179024
2.034471
2.133442
2.183184
2.1562
2.073127
1.770573
2.041094
1.759455
1.921185
1.712933
1.639545
1.626484
1.353648
0.7946987
-0.8718028
-2.513889
2.664651
2.694156
2.646202
2.690379
2.636958
2.647129
2.626106
2.620262
2.601387
2.743435
2.577298
2.697429
2.608995
2.689427
2.630262
2.657054
2.627604
2.625861
2.609081
2.838782
2.569192
2.790962
2.604956
2.723271
2.628552
2.660726
2.631463
2.6328
2.620833
2.973861
2.387225
2.787482
2.54927
2.72715
2.613466
2.6637
2.63841
2.654008
2.641749
2.906267
2.45114
2.858882
2.546856
2.753786
2.614983
2.664678
2.639572
2.65984
2.65568
2.853876
2.461647
2.840089
2.533441
2.757252
2.620584
2.687392
2.652072
2.680183
2.6827
3.148606
2.296506
2.881607
2.504793
2.754402
2.604462
2.682499
2.646558
2.675965
2.679812
2.80839
2.419662
2.857006
2.506396
2.766719
2.616827
2.683147
2.650019
2.670827
2.67775
3.160633
2.276058
2.887115
2.480219
2.769647
2.608052
2.668543
2.631607
2.650713
2.640506
2.805699
2.414846
2.875232
2.498429
2.784323
2.613346
2.657912
2.625979
2.617406
2.601184
3.118234
2.286635
2.909067
2.482459
2.778842
2.598506
2.658583
2.598576
2.584645
2.476519
2.877103
2.375007
2.868953
2.499638
2.792217
2.616576
2.653683
2.621533
2.375194
2.374142
3.113309
2.26655
2.90584
2.476264
2.816088
2.655367
2.710644
2.487912
2.338557
2.027396
3.087157
2.21844
2.833713
2.468539
2.828117
2.663594
2.68085
2.666424
2.541358
1.831767
2.745808
2.380343
2.821139
2.464895
2.893342
2.820518
2.975072
2.874552
2.004595
2.782015
2.290633
2.786777
2.44204
2.865741
2.820513
3.006908
3.056265
3.084651
2.630822
2.341769
2.668476
2.465294
2.777109
2.726087
2.948794
2.959047
2.997956
2.586786
2.265272
2.591108
2.391486
2.676822
2.648842
2.823527
2.852712
2.410611
2.209456
2.45197
2.295884
2.550683
2.491363
2.666046
2.704596
2.365016
2.037339
2.330373
2.141376
2.367325
2.292412
2.442558
2.444919
2.971162
2.145151
1.941864
2.177734
1.970559
2.171094
2.030446
2.128607
2.15091
2.115912
2.125109
1.69837
2.036457
1.755231
1.910584
1.707427
1.625632
1.59976
1.314954
0.7676235
-0.8814707
-2.576703
2.667676
2.717791
2.646335
2.709534
2.63916
2.651331
2.628727
2.622652
2.603763
2.752153
2.554422
2.69761
2.607096
2.703357
2.635065
2.66563
2.627092
2.625653
2.609364
2.880891
2.619308
2.820402
2.606567
2.748524
2.630727
2.665296
2.632175
2.633247
2.621496
2.838062
2.485244
2.838931
2.569463
2.755506
2.621242
2.672273
2.638213
2.654163
2.640036
3.145019
2.411702
2.900788
2.533067
2.768606
2.626689
2.677677
2.641109
2.660517
2.655484
2.922359
2.489409
2.918853
2.522846
2.768709
2.626073
2.688993
2.652437
2.677828
2.677134
2.978592
2.487885
2.976737
2.511258
2.762258
2.619235
2.686855
2.645892
2.667346
2.675108
3.145723
2.271375
2.982851
2.505393
2.760264
2.603579
2.671377
2.644717
2.669849
2.676861
2.948307
2.40029
3.010018
2.512211
2.778224
2.606725
2.674415
2.628011
2.648073
2.639111
3.119372
2.229792
2.998312
2.526269
2.794965
2.614105
2.66412
2.623529
2.618683
2.600503
2.950296
2.467388
2.977079
2.506376
2.800077
2.607024
2.660458
2.596919
2.58634
2.473321
2.883643
2.421433
2.957867
2.503595
2.79715
2.619655
2.658193
2.625454
2.372981
2.369776
3.111235
2.316558
2.948872
2.503532
2.833193
2.648452
2.707932
2.487082
2.339498
2.028229
2.894363
2.380181
2.901315
2.485371
2.846201
2.667013
2.691453
2.67256
2.544243
1.829337
2.885827
2.401159
2.887498
2.475259
2.912958
2.806229
2.978012
2.878295
2.001622
3.027458
2.224126
2.789034
2.397164
2.894077
2.838553
3.013552
3.060523
3.088815
2.673799
2.440598
2.732954
2.463858
2.806058
2.715518
2.953942
2.95873
2.997656
2.840847
2.150552
2.597764
2.352059
2.688288
2.645112
2.82683
2.855256
2.410957
2.187036
2.486133
2.277876
2.56838
2.482422
2.669909
2.703792
2.46512
1.98952
2.345942
2.119567
2.380783
2.286756
2.446326
2.447108
2.64832
2.153519
1.932681
2.199613
1.957791
2.188995
2.023308
2.131984
2.151363
2.118893
2.167616
1.690908
2.055431
1.745368
1.91971
1.69806
1.622001
1.591974
1.301967
0.7614152
-0.8875427
-2.648819
2.675504
2.708889
2.645104
2.702099
2.637905
2.649537
2.626936
2.621069
2.603229
2.753896
2.538563
2.684335
2.593383
2.699277
2.627403
2.663859
2.627848
2.626169
2.609866
2.863079
2.625728
2.814536
2.602489
2.73944
2.627729
2.66411
2.630613
2.62974
2.621207
3.04524
2.353641
2.830887
2.534653
2.74261
2.609057
2.6667
2.637964
2.655825
2.643114
2.954013
2.472281
2.895786
2.528271
2.765961
2.622388
2.676556
2.640591
2.660858
2.657514
2.94097
2.411569
2.933862
2.519893
2.751404
2.607123
2.67745
2.644504
2.680394
2.683851
3.298879
2.142547
2.973668
2.523909
2.773118
2.614012
2.688882
2.649948
2.683016
2.685819
2.933569
2.546605
2.982015
2.519211
2.781882
2.622529
2.688317
2.649033
2.674729
2.680756
3.286436
2.147961
3.002037
2.523223
2.77787
2.607058
2.681401
2.63678
2.659595
2.645824
2.980313
2.339312
2.999019
2.525709
2.798509
2.62449
2.676376
2.629068
2.624303
2.606373
2.999207
2.36421
2.985883
2.513775
2.798891
2.612214
2.679302
2.601938
2.590254
2.482228
3.301879
2.030532
2.944899
2.490607
2.804876
2.63074
2.664107
2.625697
2.388999
2.381834
2.814212
2.491955
2.922785
2.489923
2.828005
2.662118
2.716363
2.491073
2.348907
2.031833
3.322278
1.961764
2.90386
2.523452
2.843701
2.682332
2.696352
2.673831
2.550907
1.834968
2.828747
2.325698
2.864807
2.427404
2.915063
2.841592
2.987529
2.88016
2.004288
2.828515
2.350775
2.800993
2.411007
2.896776
2.821589
3.018537
3.064565
3.086732
2.82837
2.203373
2.720756
2.414653
2.798529
2.727271
2.956103
2.957586
2.999189
2.491459
2.274442
2.589435
2.369996
2.687406
2.638999
2.828996
2.854218
2.503595
2.130108
2.481298
2.269664
2.564377
2.488507
2.671164
2.705442
2.213413
2.052919
2.323885
2.126122
2.375155
2.285167
2.446976
2.447376
2.608497
2.149585
1.931632
2.18684
1.959686
2.187326
2.024974
2.130261
2.144113
2.113313
1.975543
1.762684
2.032517
1.753567
1.917071
1.698608
1.624146
1.586749
1.298414
0.7559241
-0.8879873
-2.65747
2.683325
2.711345
2.649182
2.697208
2.645298
2.65802
2.630069
2.623647
2.604419
2.766131
2.544468
2.699712
2.606637
2.704339
2.634252
2.657756
2.629183
2.625471
2.611384
2.879222
2.590728
2.798672
2.603459
2.726121
2.631514
2.672723
2.634534
2.639923
2.624096
2.8537
2.482907
2.83453
2.565857
2.757957
2.627242
2.665304
2.637849
2.647224
2.640475
3.147938
2.35898
2.881882
2.541115
2.748546
2.621168
2.684795
2.656703
2.668875
2.660508
2.900548
2.505115
2.909632
2.529718
2.780796
2.6253
2.681492
2.647439
2.675331
2.676222
2.895706
2.426331
2.893709
2.5125
2.774398
2.625845
2.689962
2.651973
2.675776
2.678926
3.022677
2.341973
2.93414
2.498291
2.772903
2.613564
2.660065
2.642293
2.668924
2.676823
2.820341
2.435163
2.895587
2.513664
2.778138
2.621181
2.678194
2.633327
2.654891
2.642776
2.877027
2.435608
2.925044
2.514005
2.791075
2.606654
2.648426
2.62382
2.619248
2.603275
2.876863
2.441548
2.910693
2.514421
2.789378
2.599959
2.654969
2.601003
2.589879
2.480068
2.857463
2.516539
2.914333
2.526148
2.808918
2.624562
2.659285
2.628406
2.375964
2.377749
3.096176
2.269534
2.894036
2.485282
2.824644
2.647005
2.708239
2.491778
2.342966
2.03166
2.85224
2.322747
2.867769
2.481831
2.839294
2.668425
2.695256
2.67441
2.550456
1.842137
2.824323
2.366009
2.854368
2.464605
2.900691
2.786988
2.974034
2.879746
2.005267
3.113848
2.101938
2.796679
2.390003
2.871303
2.846194
3.0128
3.060428
3.075769
2.718059
2.491263
2.722418
2.486019
2.805565
2.705697
2.952666
2.960327
3.008677
2.831229
2.13747
2.58367
2.353573
2.686952
2.642023
2.826453
2.854317
2.430226
2.183734
2.486466
2.287408
2.561748
2.484858
2.667585
2.70328
2.415327
2.000375
2.318573
2.124785
2.370225
2.286496
2.444244
2.440954
2.626549
2.145658
1.930479
2.186167
1.963217
2.176082
2.027363
2.127181
2.150785
2.122939
2.113553
1.69555
2.032147
1.751126
1.912526
1.705037
1.632876
1.594537
1.307376
0.7613067
-0.8822091
-2.592158
2.687417
2.706822
2.654981
2.693329
2.650522
2.656083
2.630814
2.625271
2.607554
2.76177
2.565828
2.703314
2.607308
2.703379
2.635094
2.662572
2.630903
2.628211
2.614677
2.897259
2.655586
2.798499
2.614124
2.735105
2.632317
2.665417
2.633151
2.63289
2.623953
3.01683
2.373679
2.818579
2.555973
2.751826
2.618044
2.664336
2.638639
2.655482
2.645579
2.861598
2.489974
2.855775
2.550782
2.771057
2.617097
2.654836
2.639916
2.661263
2.659436
3.051096
2.311874
2.88843
2.54673
2.786321
2.628435
2.681362
2.651108
2.681174
2.68474
2.903616
2.46816
2.888864
2.53937
2.787124
2.630926
2.682153
2.647516
2.683463
2.687578
2.856007
2.516671
2.909196
2.543042
2.785916
2.652872
2.700487
2.656793
2.679366
2.684836
2.899598
2.517853
2.899072
2.550106
2.787483
2.627202
2.687442
2.639519
2.662496
2.649953
2.874507
2.495114
2.906721
2.55296
2.794362
2.646191
2.692679
2.637125
2.630077
2.612305
2.86263
2.510597
2.895693
2.544797
2.778642
2.621246
2.695415
2.609465
2.596398
2.49092
3.186023
2.171739
2.888813
2.531503
2.823826
2.635225
2.65605
2.625725
2.397209
2.390449
2.798647
2.464713
2.869888
2.510442
2.833491
2.655883
2.720663
2.510129
2.3604
2.046249
3.133199
2.161439
2.847442
2.527809
2.857193
2.673629
2.69538
2.677481
2.557306
1.855317
2.769263
2.390568
2.813812
2.452006
2.904227
2.858038
2.982592
2.882663
2.013631
2.8476
2.377134
2.793071
2.461341
2.869926
2.797388
3.005959
3.063781
3.077511
2.851334
2.164006
2.728138
2.403103
2.786026
2.747859
2.946784
2.966738
3.014277
2.499138
2.278664
2.574401
2.379639
2.674214
2.628644
2.814692
2.861744
2.469163
2.180598
2.484912
2.271997
2.560251
2.491205
2.66324
2.702837
2.325415
2.084046
2.327761
2.131526
2.363353
2.289409
2.411996
2.476833
2.678824
2.190442
1.938631
2.194175
1.963296
2.181253
2.036489
2.121727
2.153027
2.146166
2.08936
1.783602
2.033693
1.760122
1.920693
1.713071
1.653028
1.609519
1.333752
0.7632658
-0.8627877
-2.580164
2.687059
2.705325
2.660308
2.678159
2.648108
2.646779
2.635596
2.619565
2.602331
2.764012
2.624194
2.679793
2.627791
2.698696
2.639168
2.653798
2.639865
2.623555
2.619192
2.865158
2.577025
2.718062
2.61168
2.707626
2.636984
2.669003
2.637834
2.64139
2.626455
2.870464
2.575798
2.805646
2.598006
2.745664
2.6315
2.67241
2.642189
2.647758
2.644801
2.834792
2.510061
2.801632
2.577405
2.74432
2.621362
2.674734
2.65245
2.669145
2.662663
2.849791
2.537675
2.823749
2.569622
2.764395
2.626557
2.675051
2.650426
2.675181
2.679504
3.484662
2.485538
2.768967
2.555074
2.751314
2.624357
2.67483
2.651872
2.675952
2.682434
3.459691
2.544628
2.756625
2.5568
2.755119
2.621521
2.65798
2.647146
2.669665
2.680376
3.37857
2.527979
2.739017
2.554488
2.749202
2.621679
2.667061
2.637725
2.655415
2.647765
3.22469
2.574248
2.749469
2.561309
2.756993
2.616458
2.645991
2.628746
2.617239
2.609717
2.899666
2.460064
2.756098
2.537122
2.760699
2.608626
2.647965
2.602913
2.58004
2.495723
2.892146
2.51533
2.833394
2.55526
2.782658
2.632188
2.657511
2.617495
2.412444
2.401457
2.945271
2.368586
2.814839
2.515549
2.797165
2.647634
2.699796
2.52435
2.355346
2.037672
2.846024
2.420086
2.807768
2.522254
2.818108
2.681016
2.709166
2.692331
2.559197
1.870021
2.979111
2.445553
2.784242
2.542067
2.870642
2.779422
2.958989
2.888296
2.028182
2.900464
2.267763
2.746621
2.422828
2.861149
2.829531
3.004621
3.004523
3.085226
2.658935
2.342037
2.70373
2.470258
2.780005
2.708709
2.925717
2.98886
3.031583
2.595465
2.240744
2.581618
2.372663
2.669918
2.643364
2.809807
2.892621
2.924662
2.510158
2.202505
2.49294
2.290959
2.550678
2.484577
2.65837
2.73356
2.752135
2.916667
2.031211
2.273268
2.128186
2.350815
2.284666
2.423106
2.513122
2.550302
2.376463
1.9625
2.14406
1.983975
2.153895
2.044353
2.107716
2.186851
2.149543
2.039009
1.781186
1.957076
1.785772
1.899767
1.727511
1.675715
1.633349
1.347429
1.850055
0.8002926
-0.8735155
-2.4062
2.692237
2.688186
2.617714
2.68821
2.662821
2.64654
2.628652
2.623364
2.604722
2.754872
2.659932
2.721661
2.612827
2.712143
2.631076
2.659968
2.637477
2.627826
2.621068
2.794381
2.664612
2.732378
2.620846
2.711518
2.639464
2.668475
2.639266
2.639164
2.626035
2.841487
2.601971
2.778543
2.597142
2.744908
2.632385
2.669595
2.645192
2.652833
2.648142
2.919549
2.589313
2.774855
2.583553
2.753618
2.623764
2.668997
2.648525
2.66559
2.66266
2.992342
2.592063
2.824112
2.573143
2.764892
2.633144
2.677632
2.65607
2.677858
2.683493
3.034512
2.59277
2.773446
2.571531
2.757764
2.625363
2.676771
2.655198
2.680045
2.687732
3.258228
2.640545
2.829885
2.562677
2.756774
2.635672
2.685654
2.657449
2.677348
2.684433
3.195011
2.596893
2.803099
2.56738
2.751671
2.625322
2.676329
2.645471
2.662601
2.652071
3.002092
2.612415
2.837195
2.565367
2.766754
2.638012
2.667653
2.638178
2.626863
2.612676
2.830027
2.579482
2.767883
2.557254
2.756416
2.620229
2.673779
2.613827
2.591957
2.500188
2.92358
2.501405
2.842683
2.556717
2.792214
2.643027
2.664721
2.619234
2.437721
2.396524
2.847882
2.516965
2.80766
2.540604
2.797392
2.654652
2.708662
2.554693
2.388556
2.059378
2.781984
2.44167
2.798368
2.555907
2.814504
2.683905
2.732204
2.680779
2.529125
1.867751
3.041525
2.489752
2.766447
2.521798
2.849129
2.820841
2.936617
2.860867
2.023144
2.774576
2.399984
2.747979
2.482199
2.833263
2.807578
2.968401
3.00621
3.082964
2.705255
2.348443
2.683617
2.467645
2.76756
2.725703
2.908034
2.991476
3.059212
2.59094
2.302059
2.561283
2.391431
2.658403
2.631131
2.791236
2.894724
2.949733
2.470805
2.222672
2.457555
2.290643
2.538278
2.483322
2.638716
2.739332
2.791158
2.387196
2.124273
2.272234
2.14843
2.343086
2.286481
2.409312
2.520788
2.568748
2.509614
2.005793
2.137967
1.991265
2.151324
2.057435
2.112598
2.20294
2.235253
2.022624
1.863232
1.953597
1.798336
1.897651
1.733688
1.696372
1.648378
1.515089
1.841588
0.7796168
-0.9201426
-2.573575
2.691326
2.768667
2.720024
2.75853
2.778222
2.712531
2.610929
2.742142
2.653959
2.723132
2.640639
2.74129
2.70419
2.645037
2.695755
2.646892
2.761014
2.689756
2.687583
2.685052
2.623643
2.716069
2.628467
2.682144
2.66651
2.68195
2.685778
2.626831
2.706352
2.625201
2.713568
2.680567
2.687418
2.672579
2.606129
2.693455
2.610543
2.691308
2.669726
2.68805
2.666758
2.607606
2.68798
2.612873
2.689959
2.678016
2.674565
2.654509
2.59434
2.675187
2.599656
2.674905
2.661508
2.66396
2.643521
2.586806
2.665969
2.591278
2.666725
2.653053
2.651211
2.571086
2.575387
2.636611
2.656921
2.680107
2.77123
2.644105
2.804059
2.695352
2.679997
2.68174
2.858915
2.695323
2.792605
2.674851
2.684229
2.683772
2.885344
2.719155
2.800027
2.682072
2.687779
2.697458
2.902909
2.726862
2.809064
2.697206
2.688905
2.707949
2.909888
2.73379
2.802058
2.700363
2.702641
2.720647
2.921629
2.750483
2.806573
2.711997
2.708624
2.724956
2.908339
2.735697
2.793921
2.700889
2.720682
2.726056
2.913885
2.747121
2.798193
2.696122
2.715883
2.713244
2.915698
2.73957
2.791758
2.681983
2.715112
2.707047
2.91713
2.740124
2.79975
2.699633
2.725154
2.703156
2.918848
2.755448
2.798717
2.702855
2.732595
2.692198
2.92432
2.791693
2.797899
2.705866
2.69077
2.667025
2.893895
2.757648
2.782109
2.685886
1.494736
1.174635
0.8136882
2.511184
1.431054
0.94594
0.5759424
2.637975
2.632553
2.842995
2.694885
2.757436
2.643971
3.056355
2.007005
3.049739
2.591488
2.590017
2.758997
2.629799
2.783142
2.57534
3.077136
3.074247
3.081536
2.533881
2.50824
2.631836
2.543796
2.763619
2.521839
2.980457
3.054802
2.990292
2.426738
2.424363
2.528514
2.445896
2.597783
2.436365
2.829722
2.943769
2.842275
2.313398
2.320322
2.407407
2.343606
2.426357
2.331487
2.629759
2.791113
2.640539
2.186964
2.20827
2.281919
2.221192
2.273517
2.209105
2.334432
2.566912
2.346872
2.048205
2.064167
2.143325
2.080058
2.121476
2.068216
1.755849
2.234181
1.702309
1.901184
1.926675
1.996887
1.933756
1.971191
1.924898
-2.129445
-4.034161
1.466533
-2.56471
-2.857978
-3.12486
-2.385852
1.750872
1.847806
1.781207
2.695017
2.794218
2.755809
2.722588
2.930502
2.759034
1.495508
0.9138363
0.5878334
2.543702
1.47301
0.904332
0.5749683
3.03169
2.015339
3.016975
-2.628529
-2.542734
1.37259
-2.765603
-2.520622
2.723486
2.814866
2.789844
2.737033
2.950478
2.797464
1.474785
0.9132661
0.5722535
2.545272
1.47181
0.9113546
0.5700394
3.026276
2.004673
3.040249
-2.75928
-2.557305
1.32658
-2.828431
-2.602861
2.724763
2.823363
2.788554
2.738592
2.937842
2.791069
1.467925
0.9138528
0.5710753
2.542461
1.469615
0.912406
0.5697892
3.037691
2.000303
3.041294
-2.82957
-2.485427
1.304956
-2.858378
-2.601377
2.738696
2.889539
2.824764
2.738674
2.889713
2.785344
1.469731
0.9139331
0.5702545
2.545805
1.471457
0.9166384
0.5716072
3.042524
2.002967
3.047069
-2.85924
-2.514356
1.296552
-2.869698
-2.566136
2.737699
2.968924
2.815329
2.744645
2.900387
2.814108
1.473836
0.9201226
0.5732634
2.55079
1.474237
0.9232216
0.5764681
3.046366
2.006072
3.044562
-2.870148
-2.524274
1.300931
-2.861418
-2.512199
2.757734
3.013626
2.842512
2.730918
2.828415
2.773366
1.476764
0.9212061
0.5782263
2.549786
1.477007
0.9242721
0.5829267
3.044626
2.012389
3.041547
-2.861074
-2.586738
1.324644
-2.829487
-2.465758
2.758723
2.980703
2.832288
2.730092
2.825973
2.798613
3.045907
2.028449
3.034974
-2.832257
-2.568856
1.318777
-2.664464
-2.527303
2.735173
2.960735
2.781705
2.685626
2.773854
2.721088
3.026663
2.01644
3.044024
-2.678197
-2.534063
1.445943
-2.513705
-2.627049
2.729313
2.74764
2.773836
2.753739
2.705853
2.63533
2.754916
2.618898
2.735736
2.663108
2.67083
2.71684
2.6419
2.708442
2.710418
2.652133
2.721453
2.672897
2.629799
2.730878
2.684664
2.657291
2.706894
2.648575
2.725655
2.665857
2.6255
2.694668
2.620979
2.71412
2.673456
2.63458
2.674099
2.666792
2.61755
2.692619
2.640238
2.629518
2.658541
2.606401
2.667965
2.584887
2.575718
2.634364
2.94522
2.71061
2.670588
2.695629
2.665305
2.911209
2.716414
2.689577
2.692803
2.711489
2.906879
2.721015
2.707545
2.745686
2.693588
2.667202
2.930814
2.710378
2.96672
2.695884
2.757229
2.692783
2.675061
2.929577
2.750296
2.988142
2.682811
2.788655
2.724718
2.66095
2.805092
2.696539
2.808151
2.660857
2.859786
2.698314
2.728467
2.795133
2.707353
2.691891
2.7278
2.686959
2.76448
2.670712
2.718637
2.737503
2.737346
3.136473
2.746228
2.717935
2.721752
2.70997
3.001911
2.647235
2.831298
2.728718
2.784027
2.645043
2.759531
2.941752
2.68974
2.952744
2.738522
2.77376
2.675964
2.691185
2.838053
2.66783
2.776076
2.732045
2.828487
2.755934
2.691246
2.768009
2.687231
2.681301
2.706148
1.454999
0.9578283
0.602958
2.535261
1.530015
1.210388
0.8191513
1.570657
1.916327
1.38387
2.662596
2.7759
2.629076
2.677027
2.662461
3.058174
2.138547
3.066117
2.612045
2.744009
2.570437
2.668333
2.668288
3.089812
3.084514
3.082611
2.560115
2.672149
2.504709
2.666301
2.557046
2.555455
2.5734
2.998863
3.06366
2.993931
2.480239
2.577857
2.406092
2.522626
2.441681
2.461171
2.465369
2.841553
2.944605
2.829487
2.376906
2.45908
2.351744
2.416036
2.335074
2.364498
2.385265
2.638484
2.800471
2.627364
2.222712
2.29915
2.171984
2.286495
2.145012
2.204476
2.166055
2.345692
2.593019
2.328808
2.093999
2.065352
2.05455
2.134494
2.042164
2.05117
1.740251
2.250496
1.737782
1.902301
1.952901
1.889578
1.901118
1.916044
-2.49305
-3.077694
1.607022
-2.408902
-4.137913
-2.593567
-3.061966
1.762327
1.747614
2.729832
2.710501
2.770178
2.708121
2.749111
2.745579
2.797287
2.682313
2.806643
2.756055
2.79894
2.676934
2.823482
2.752019
2.804491
2.680214
2.826875
2.741854
2.794537
2.680154
2.817153
2.732931
2.800028
2.686045
2.81021
2.738649
2.824033
2.717885
2.782762
2.70696
2.826024
2.730255
2.771918
2.704814
2.782896
2.703402
2.792049
2.736793
2.791556
2.6946
2.794245
2.750506
2.805953
2.710719
2.787407
2.748061
2.8011
2.692931
2.813011
2.75895
2.764203
2.674778
2.797393
2.719961
2.592541
2.658207
2.18606
2.670451
2.550915
2.543278
2.317673
1.311292
1.845392
1.543133
2.716774
2.632765
2.751507
2.651919
2.719049
2.987746
3.03248
2.850814
2.762149
2.964506
3.023742
2.864983
2.064931
2.762605
2.678614
2.626944
2.669545
2.611919
3.078636
3.025218
3.07471
3.00232
3.084673
3.021392
3.090877
3.095212
3.071987
3.097713
2.597571
2.576271
2.593269
2.572979
3.046233
2.944773
2.984202
2.985748
3.031944
2.954783
3.000808
3.033458
3.058199
3.039231
2.524183
2.480416
2.505197
2.500671
2.937116
2.807745
2.850106
2.893996
2.922332
2.814428
2.863254
2.908037
2.944439
2.920486
2.395831
2.377686
2.408729
2.386825
2.780391
2.616547
2.661039
2.740159
2.762957
2.614015
2.67874
2.739007
2.787271
2.762298
2.268653
2.248289
2.288242
2.260543
2.558334
2.338399
2.372877
2.522506
2.535392
2.326437
2.408773
2.498991
2.56861
2.529489
2.127999
2.111131
2.147953
2.123916
2.233351
1.922101
1.853268
2.202081
2.172715
1.874429
1.944237
2.117461
2.250173
2.141466
1.975663
1.959262
1.996389
1.972393
1.579222
1.209107
0.005089143
1.64528
1.456891
1.052475
-0.002676036
0.9990644
1.521875
0.8830469
1.826532
1.807642
1.845854
1.821837
-4.089159
-0.864288
-2.92286
-2.046982
2.738075
2.705
2.568424
2.542522
2.266406
2.683113
2.553187
2.513245
2.266737
2.758999
2.974799
3.020379
2.878615
2.74108
2.976714
3.022153
2.775009
2.018712
2.770814
1.372315
1.072559
-0.04521938
1.632291
1.355735
1.050419
-0.1386166
-2.37151
-2.382486
-2.836876
-0.8607679
-2.875356
2.745054
2.717742
2.555
2.508842
2.25023
2.669686
2.560226
2.498731
2.242749
2.744043
2.980813
3.009932
2.873127
2.750573
2.958066
3.024625
2.764792
2.015111
2.765277
1.564622
2.142737
1.546675
1.287022
1.045329
-0.13927
1.601365
1.286763
1.012762
-0.174149
-2.395686
-2.462856
-2.885017
-0.8779217
-2.928263
2.737772
2.719463
2.557601
2.500991
2.235347
2.669533
2.557862
2.503724
2.232304
2.75477
2.955278
3.026035
2.876343
2.757513
2.955643
3.030204
2.759549
2.002937
2.758244
1.256385
1.014106
-0.180101
1.593791
1.260134
1.006242
-0.1947245
-2.384335
-2.457062
-2.938669
-0.8861312
-2.942294
2.756418
2.732056
2.561809
2.509401
2.233762
2.670235
2.564637
2.508558
2.234625
2.759102
2.955212
3.033268
2.875926
2.762171
2.950629
3.034965
2.759565
2.002419
2.760058
1.52459
2.093568
1.520106
1.251579
1.003891
-0.1971153
1.585544
1.241784
0.9982964
-0.2021172
-2.417284
-2.425851
-2.965958
-0.8892564
-2.957719
2.760241
2.739697
2.765309
2.9533
3.035847
2.883741
2.765162
2.957554
3.035928
2.763558
2.004938
2.763614
1.249128
0.998402
-0.2021967
1.591187
1.247041
1.004128
-0.1957689
-2.427531
-2.418311
-2.97484
-0.8875831
-2.968698
2.749114
2.758716
2.761893
2.955159
3.032807
2.8797
2.760147
2.955686
3.029
2.761733
2.007912
2.762555
1.528916
2.10754
1.538226
1.269772
1.005822
-0.1926283
1.600436
1.276737
1.018909
-0.1672243
-2.444497
-2.366348
-2.943134
-0.8856135
-2.933209
2.736092
2.763982
1.484224
0.9231556
0.5844729
2.554923
1.490176
0.9264525
0.590115
2.759376
2.961025
3.032033
2.891622
2.753769
2.982347
3.018497
2.767925
2.019239
2.770333
1.331551
1.013846
-0.1568703
1.634364
1.412783
1.07557
-0.08474492
-2.422868
-2.383703
-2.917843
-0.90501
-2.854711
2.714789
2.740418
1.488903
0.9190318
0.5946761
2.565096
1.51424
0.9310042
0.6045745
2.751403
2.985006
3.032495
2.884699
2.772235
2.984052
3.032082
2.77699
2.031063
2.778342
1.444129
1.079984
-0.08548624
1.647308
1.452905
1.100995
-0.01140348
-2.346703
-2.387947
-2.830007
-0.8699991
-2.83502
2.682308
2.719212
2.628993
2.59596
2.654903
2.588664
2.684524
2.774463
2.971722
3.032604
2.894302
2.768796
2.994756
3.061748
2.780844
2.060959
2.792189
2.926191
2.815776
2.866725
2.885865
2.917676
2.812313
2.846183
2.762852
2.614713
2.682097
2.722533
2.77812
2.618734
2.667975
2.533514
2.33046
2.413386
2.505562
2.552955
2.344422
2.378185
2.178118
1.884299
1.939693
2.197354
2.249601
1.938691
1.876936
1.475944
1.061687
-0.001377421
1.706306
1.616133
1.229234
0.1794478
-3.020052
-0.9164709
-4.225477
-2.692069
2.735094
2.740402
2.760684
2.723329
2.692661
2.734242
2.777322
2.758978
2.784845
2.683958
2.810094
2.772809
2.803585
2.676966
2.813615
2.758433
2.7974
2.672873
2.811172
2.766678
2.803303
2.671883
2.797006
2.768035
2.805887
2.673033
2.786228
2.753539
2.812692
2.68469
2.740447
2.700563
2.837741
2.712571
2.753157
2.751919
2.806974
2.705167
2.794287
2.750883
2.794416
2.687005
2.772954
2.747891
2.803707
2.690697
2.761501
2.781712
2.813783
2.689038
2.792187
2.759085
2.789531
2.675865
2.769232
2.715071
2.745125
2.645846
1.154278
2.198921
-0.8789339
1.083062
2.088286
-1.450007
1.34987
0.1100442
0.9758701
-0.8421489
0.6286151
0.8327275
-0.2429769
0.8871555
2.703938
2.62311
2.718095
2.642031
2.926966
3.038615
2.934359
2.040988
2.77353