/*--------------------------------*- C++ -*----------------------------------*\
  =========                 |
  \\      /  F ield         | OpenFOAM: The Open Source CFD Toolbox
   \\    /   O peration     | Website:  https://openfoam.org
    \\  /    A nd           | Version:  7
     \\/     M anipulation  |
\*---------------------------------------------------------------------------*/
FoamFile
{
    version     2.0;
    format      ascii;
    class       volScalarField;
    location    "0.05";
    object      k;
}
// * * * * * * * * * * * * * * * * * * * * * * * * * * * * * * * * * * * * * //

dimensions      [0 2 -2 0 0 0 0];

internalField   nonuniform List<scalar> 
53911
(
0.003732781
0.00373244
0.003731953
0.003732007
0.003731881
0.003731508
0.003730909
0.003730159
0.003729072
0.003727971
0.003726651
0.003725031
0.003723761
0.003723246
0.00373221
0.003741152
0.003740541
0.003740572
0.003740295
0.003740133
0.003739859
0.003739561
0.003739196
0.003738785
0.00373834
0.003737952
0.003737716
0.003723844
0.003732222
0.003741127
0.003740284
0.003740364
0.003740084
0.003739957
0.003739715
0.003739454
0.003739136
0.003738778
0.003738427
0.003738177
0.003738187
0.003725024
0.00373243
0.003741216
0.00374039
0.003740462
0.003740198
0.003740083
0.003739885
0.003739691
0.003739459
0.003739211
0.003738998
0.003738901
0.003739029
0.003727252
0.003732677
0.003741328
0.003740439
0.003740615
0.003740344
0.003740327
0.003740181
0.003740074
0.003739945
0.003739825
0.003739759
0.003739828
0.003740006
0.003729944
0.003732923
0.003741497
0.003740673
0.003740839
0.00374064
0.003740639
0.003740583
0.003740574
0.003740577
0.003740614
0.00374076
0.003741026
0.003741377
0.003733135
0.00373322
0.003741671
0.003740834
0.003741075
0.0037409
0.00374099
0.003741013
0.00374112
0.003741267
0.003741498
0.003741871
0.003742466
0.003742918
0.003737137
0.003733661
0.003741867
0.003741059
0.003741318
0.003741204
0.003741339
0.003741449
0.003741665
0.003741974
0.00374241
0.003743152
0.003744273
0.003745508
0.003744038
0.003734054
0.003742042
0.003741231
0.003741551
0.003741449
0.003741675
0.003741863
0.0037422
0.003742668
0.003743364
0.003744453
0.003746397
0.003747042
0.003758614
0.003734358
0.003742196
0.003741405
0.003741755
0.003741689
0.003741954
0.003742196
0.003742592
0.003743147
0.003743893
0.003745123
0.003746804
0.003747441
0.003758517
0.003772575
0.003763007
0.003759746
0.003756854
0.003754569
0.003752036
0.003734616
0.003742325
0.003741543
0.003741923
0.003741865
0.00374217
0.003742437
0.003742866
0.00374343
0.003744188
0.003745255
0.00374664
0.003748714
0.003751182
0.0037519
0.003751134
0.003750504
0.003749863
0.003749261
0.00374858
0.003734802
0.003742422
0.003741646
0.003742046
0.003741997
0.003742313
0.003742586
0.003743009
0.003743538
0.003744222
0.003745105
0.00374619
0.003747581
0.003749175
0.003750344
0.003750534
0.003750321
0.003749987
0.003749571
0.003749085
0.003734861
0.003742487
0.003741718
0.003742122
0.003742075
0.003742392
0.003742657
0.00374306
0.003743545
0.00374415
0.003744894
0.003745778
0.00374677
0.003747897
0.003748685
0.003748962
0.003749014
0.003748889
0.003748652
0.003748319
0.003734933
0.003742514
0.003741749
0.003742151
0.003742102
0.003742411
0.003742659
0.003743032
0.003743464
0.00374399
0.003744606
0.003745313
0.003746069
0.003746865
0.003747514
0.003747864
0.003748033
0.003748047
0.003747953
0.00374775
0.003735026
0.003742504
0.003741743
0.003742133
0.003742084
0.003742378
0.003742607
0.003742948
0.003743333
0.00374379
0.003744311
0.003744889
0.003745499
0.003746111
0.003746625
0.003746972
0.00374719
0.003747286
0.003747284
0.003747177
0.003735151
0.003742457
0.003741701
0.003742079
0.003742026
0.003742302
0.003742512
0.003742821
0.003743161
0.00374356
0.003744002
0.003744484
0.003744984
0.003745482
0.003745926
0.003746275
0.003746538
0.003746711
0.003746804
0.003746803
0.00373491
0.003742383
0.003741633
0.003741981
0.003741933
0.00374219
0.003742381
0.003742661
0.003742964
0.003743313
0.003743695
0.003744107
0.003744532
0.003744955
0.003745349
0.003745691
0.003745983
0.003746217
0.003746398
0.003746502
0.003734677
0.003742298
0.003741529
0.003741869
0.003741812
0.003742049
0.003742223
0.003742477
0.003742747
0.003743056
0.003743391
0.003743749
0.003744119
0.003744493
0.003744856
0.003745198
0.003745523
0.003745826
0.003746117
0.003746365
0.003734449
0.003742164
0.003741384
0.003741719
0.003741662
0.003741883
0.003742042
0.003742274
0.003742518
0.003742794
0.003743092
0.003743408
0.003743736
0.003744071
0.003744409
0.003744747
0.003745099
0.00374546
0.003745866
0.003746262
0.003734058
0.003742007
0.003741243
0.003741553
0.00374149
0.003741695
0.003741843
0.003742056
0.003742279
0.003742529
0.003742796
0.003743079
0.003743372
0.003743675
0.003743989
0.003744321
0.003744697
0.003745128
0.003745684
0.003746321
0.003733721
0.003741836
0.00374107
0.00374136
0.003741299
0.003741488
0.003741629
0.003741827
0.003742033
0.003742262
0.003742505
0.003742759
0.003743021
0.003743289
0.00374357
0.003743874
0.003744245
0.003744693
0.003745359
0.003746284
0.003572615
0.003572675
0.00357278
0.003572796
0.003572758
0.003572765
0.003572748
0.003572726
0.003572703
0.003572686
0.003572659
0.003572624
0.00357248
0.003573101
0.003572506
0.003572537
0.003572542
0.00357256
0.003572537
0.003572535
0.003572536
0.003572539
0.003572544
0.003572551
0.003572561
0.003572581
0.003572984
0.003737538
0.00357257
0.003572554
0.003572545
0.003572542
0.003572546
0.00357255
0.003572557
0.003572566
0.003572579
0.003572595
0.003572614
0.003572642
0.003573176
0.003738077
0.003572587
0.003572547
0.003572555
0.003572564
0.00357257
0.003572579
0.003572593
0.00357261
0.003572634
0.003572666
0.003572706
0.003572792
0.003573423
0.003739049
0.0035726
0.003572562
0.003572569
0.003572575
0.00357259
0.003572605
0.003572626
0.003572653
0.003572691
0.003572747
0.003572822
0.003572968
0.003573811
0.003740215
0.003572619
0.003572571
0.003572583
0.003572592
0.003572611
0.003572632
0.003572662
0.003572701
0.003572759
0.003572851
0.003572973
0.003573244
0.003574441
0.003741827
0.003572636
0.003572583
0.003572596
0.003572607
0.00357263
0.003572656
0.003572694
0.003572746
0.003572825
0.003572956
0.003573177
0.003573664
0.003575926
0.003742776
0.003572649
0.003572595
0.003572606
0.003572619
0.003572645
0.003572677
0.003572721
0.003572787
0.003572894
0.003573089
0.003573475
0.003574437
0.003576402
0.003579871
0.003572661
0.003572603
0.003572614
0.003572628
0.003572656
0.003572691
0.00357274
0.003572815
0.003572941
0.00357317
0.003573685
0.003574913
0.003580014
0.003614318
0.00357267
0.003572609
0.003572619
0.003572633
0.003572661
0.003572695
0.003572743
0.003572816
0.003572929
0.003573139
0.003573535
0.003574504
0.003577001
0.003593392
0.003611621
0.003575906
0.003574567
0.003574367
0.003574077
0.003573998
0.003572679
0.003572612
0.003572621
0.003572634
0.00357266
0.003572693
0.003572737
0.003572801
0.003572895
0.003573052
0.003573307
0.003573872
0.003574936
0.003575875
0.00357581
0.003575057
0.003574716
0.003574163
0.003573891
0.003573544
0.003572686
0.003572613
0.00357262
0.003572631
0.003572656
0.003572685
0.003572723
0.003572776
0.003572849
0.003572954
0.003573106
0.003573353
0.003573773
0.003574343
0.003574694
0.003574382
0.003574026
0.003573821
0.003573701
0.003573623
0.00357269
0.003572612
0.003572617
0.003572626
0.003572648
0.003572673
0.003572704
0.003572747
0.003572802
0.003572876
0.003572976
0.003573119
0.0035733
0.003573517
0.003573602
0.003573598
0.003573541
0.003573455
0.00357341
0.003573343
0.003572691
0.00357261
0.003572613
0.00357262
0.003572638
0.00357266
0.003572688
0.003572724
0.00357277
0.00357283
0.003572906
0.003573012
0.003573141
0.00357329
0.003573374
0.00357337
0.003573325
0.003573283
0.003573245
0.003573203
0.00357269
0.00357261
0.003572613
0.003572619
0.003572637
0.003572659
0.003572684
0.003572718
0.003572759
0.003572812
0.003572876
0.003572951
0.003573032
0.003573112
0.003573167
0.003573182
0.003573179
0.00357316
0.003573139
0.003573113
0.003572687
0.003572612
0.003572615
0.003572622
0.00357264
0.003572662
0.003572686
0.003572718
0.003572755
0.0035728
0.003572852
0.003572911
0.003572974
0.003573035
0.003573079
0.003573099
0.003573101
0.003573091
0.003573075
0.003573054
0.003572683
0.003572611
0.003572615
0.003572623
0.003572642
0.003572663
0.003572686
0.003572715
0.003572748
0.003572787
0.003572831
0.003572878
0.003572927
0.003572973
0.00357301
0.003573032
0.003573042
0.003573041
0.003573031
0.003573015
0.003572678
0.003572608
0.003572614
0.003572622
0.003572641
0.003572661
0.003572684
0.003572711
0.003572741
0.003572774
0.003572812
0.003572851
0.003572892
0.003572932
0.003572966
0.003572992
0.003573009
0.003573017
0.003573016
0.003573012
0.003572672
0.003572604
0.00357261
0.003572619
0.003572638
0.003572658
0.003572679
0.003572704
0.003572731
0.003572761
0.003572794
0.003572828
0.003572863
0.003572898
0.00357293
0.00357296
0.003572984
0.003573005
0.00357302
0.003573038
0.003572664
0.003572597
0.003572605
0.003572615
0.003572633
0.003572653
0.003572673
0.003572696
0.003572721
0.003572748
0.003572776
0.003572806
0.003572836
0.003572868
0.003572901
0.003572936
0.003572971
0.003573014
0.003573063
0.003573171
0.003572654
0.003572591
0.003572599
0.003572609
0.003572627
0.003572646
0.003572665
0.003572687
0.003572709
0.003572733
0.003572758
0.003572784
0.003572811
0.00357284
0.003572872
0.00357291
0.003572957
0.003573025
0.003573142
0.0035734
0.003572581
0.003575504
0.003742337
0.003741971
0.003741539
0.003741349
0.003741062
0.003740773
0.003740427
0.003740077
0.003739909
0.003739696
0.003572706
0.003573097
0.003572527
0.003572527
0.003572548
0.00357254
0.003572533
0.003572527
0.003572526
0.003572525
0.003572526
0.003572529
0.003572531
0.003572553
0.003572907
0.003737196
0.003572574
0.003572491
0.003572502
0.003572501
0.003572503
0.003572505
0.003572511
0.003572518
0.003572529
0.003572542
0.003572559
0.003572577
0.003573056
0.003737603
0.003572521
0.00357248
0.003572505
0.003572514
0.003572525
0.003572532
0.003572545
0.00357256
0.003572581
0.003572611
0.003572649
0.003572704
0.003573311
0.003738611
0.00357254
0.003572494
0.003572514
0.003572526
0.003572543
0.003572558
0.003572578
0.003572604
0.00357264
0.003572692
0.003572765
0.003572864
0.003573683
0.003739848
0.003572552
0.003572505
0.003572527
0.003572542
0.003572563
0.003572585
0.003572613
0.003572652
0.003572708
0.003572794
0.003572913
0.003573136
0.003574308
0.003741575
0.003572562
0.003572515
0.003572537
0.003572556
0.003572581
0.003572608
0.003572645
0.003572696
0.003572775
0.003572898
0.003573118
0.003573513
0.003575823
0.003742804
0.003572572
0.003572525
0.003572548
0.003572568
0.003572595
0.003572628
0.003572672
0.003572737
0.003572843
0.003573027
0.003573404
0.003574254
0.003576099
0.003579181
0.003572582
0.003572532
0.003572554
0.003572576
0.003572604
0.003572641
0.00357269
0.003572765
0.003572889
0.003573107
0.003573608
0.003574698
0.0035798
0.003616443
0.003581345
0.003585356
0.00358055
0.003572591
0.003572538
0.003572559
0.00357258
0.003572609
0.003572645
0.003572694
0.003572766
0.003572877
0.003573078
0.003573453
0.003574362
0.003576751
0.003592844
0.003611435
0.003575687
0.00357462
0.00357394
0.003573666
0.003573468
0.003572598
0.00357254
0.00357256
0.003572581
0.003572608
0.003572643
0.003572688
0.003572752
0.003572846
0.003572998
0.003573231
0.003573771
0.003574781
0.003575765
0.003575794
0.003575097
0.003574613
0.003573901
0.003573633
0.003573605
0.003572601
0.003572538
0.00357256
0.003572578
0.003572604
0.003572635
0.003572673
0.003572726
0.003572799
0.003572902
0.003573047
0.00357328
0.003573695
0.003574225
0.003574547
0.003574135
0.003573825
0.003573559
0.003573393
0.003573329
0.003572601
0.003572537
0.003572557
0.003572573
0.003572596
0.003572623
0.003572655
0.003572698
0.003572754
0.003572828
0.003572928
0.00357307
0.003573263
0.003573481
0.003573558
0.003573559
0.003573476
0.003573394
0.003573347
0.003573301
0.0035726
0.003572535
0.003572552
0.003572567
0.003572586
0.00357261
0.003572639
0.003572676
0.003572722
0.003572782
0.003572859
0.003572963
0.003573093
0.003573239
0.003573318
0.003573305
0.00357326
0.003573208
0.003573167
0.003573134
0.003572601
0.003572535
0.003572553
0.003572566
0.003572585
0.003572608
0.003572635
0.00357267
0.003572712
0.003572765
0.003572829
0.003572905
0.003572987
0.003573068
0.003573122
0.003573138
0.003573133
0.003573113
0.003573093
0.00357307
0.0035726
0.003572536
0.003572555
0.003572569
0.003572589
0.003572612
0.003572638
0.00357267
0.003572708
0.003572753
0.003572806
0.003572865
0.003572928
0.003572988
0.003573031
0.00357305
0.003573051
0.00357304
0.003573024
0.003573005
0.003572599
0.003572536
0.003572555
0.003572569
0.00357259
0.003572613
0.003572638
0.003572668
0.003572702
0.003572741
0.003572785
0.003572833
0.003572881
0.003572928
0.003572964
0.003572987
0.003572996
0.003572994
0.003572985
0.003572971
0.003572595
0.003572535
0.003572553
0.003572569
0.003572589
0.003572612
0.003572636
0.003572664
0.003572695
0.003572729
0.003572766
0.003572806
0.003572847
0.003572887
0.003572921
0.003572946
0.003572962
0.00357297
0.00357297
0.003572966
0.003572588
0.003572532
0.003572549
0.003572566
0.003572587
0.003572609
0.003572632
0.003572658
0.003572686
0.003572716
0.003572749
0.003572783
0.003572818
0.003572853
0.003572886
0.003572915
0.003572939
0.003572959
0.003572975
0.003572991
0.003572579
0.003572526
0.003572545
0.003572562
0.003572583
0.003572604
0.003572626
0.00357265
0.003572676
0.003572703
0.003572731
0.003572761
0.003572792
0.003572824
0.003572857
0.003572891
0.003572926
0.003572968
0.003573014
0.003573109
0.003572569
0.00357252
0.003572539
0.003572556
0.003572577
0.003572597
0.003572619
0.003572641
0.003572664
0.003572688
0.003572713
0.00357274
0.003572767
0.003572796
0.003572828
0.003572865
0.003572912
0.003572976
0.003573087
0.003573311
0.003572581
0.003575767
0.003741704
0.003741162
0.003740609
0.003740341
0.003740018
0.003739677
0.003739301
0.003738928
0.003738913
0.003738881
0.003572733
0.003573119
0.003572544
0.003572524
0.003572552
0.00357254
0.003572531
0.003572523
0.00357252
0.003572518
0.003572517
0.003572519
0.003572522
0.003572545
0.003572888
0.00373708
0.003572535
0.00357249
0.003572499
0.003572498
0.003572499
0.0035725
0.003572505
0.003572511
0.00357252
0.00357253
0.003572545
0.003572565
0.003573038
0.00373745
0.003572507
0.003572474
0.0035725
0.003572508
0.003572521
0.003572528
0.003572539
0.003572553
0.003572572
0.0035726
0.003572638
0.003572696
0.003573302
0.003738428
0.003572525
0.003572486
0.003572505
0.003572519
0.003572536
0.003572552
0.003572572
0.003572597
0.003572631
0.003572682
0.003572755
0.003572857
0.003573674
0.003739694
0.003572533
0.003572496
0.003572517
0.003572534
0.003572556
0.003572579
0.003572607
0.003572645
0.0035727
0.003572787
0.003572905
0.003573133
0.003574312
0.003741457
0.003572546
0.003572506
0.003572527
0.003572546
0.003572572
0.003572601
0.003572639
0.00357269
0.003572769
0.003572892
0.003573113
0.003573509
0.003575826
0.003742727
0.003572555
0.003572515
0.003572537
0.003572557
0.003572587
0.003572621
0.003572666
0.003572731
0.003572838
0.003573023
0.003573399
0.003574227
0.003576051
0.003578708
0.003572564
0.003572522
0.003572544
0.003572565
0.003572596
0.003572633
0.003572684
0.003572758
0.003572883
0.0035731
0.003573595
0.003574683
0.003579712
0.003611653
0.003579808
0.003581571
0.003577954
0.003572572
0.003572526
0.003572549
0.003572569
0.0035726
0.003572637
0.003572687
0.003572759
0.003572872
0.003573075
0.003573449
0.00357437
0.003576709
0.003591418
0.003616483
0.003575419
0.003574553
0.003574251
0.00357375
0.003573553
0.003572579
0.003572529
0.003572551
0.00357257
0.003572599
0.003572635
0.003572681
0.003572746
0.003572841
0.003572995
0.003573238
0.00357378
0.003574793
0.003575749
0.003575617
0.003574982
0.003574541
0.003573782
0.003573487
0.003573567
0.003572583
0.00357253
0.00357255
0.003572567
0.003572595
0.003572627
0.003572667
0.003572721
0.003572794
0.003572897
0.003573045
0.003573272
0.00357368
0.003574229
0.003574554
0.003574118
0.00357377
0.003573488
0.003573341
0.003573296
0.003572586
0.00357253
0.003572548
0.003572562
0.003572587
0.003572615
0.003572649
0.003572693
0.003572749
0.003572824
0.003572926
0.003573069
0.003573254
0.003573465
0.003573538
0.00357355
0.003573475
0.003573358
0.003573316
0.003573278
0.003572586
0.003572528
0.003572544
0.003572556
0.003572578
0.003572603
0.003572633
0.003572671
0.003572718
0.003572779
0.003572857
0.003572962
0.003573092
0.003573238
0.003573311
0.003573302
0.00357325
0.003573193
0.003573156
0.003573126
0.003572586
0.003572528
0.003572543
0.003572555
0.003572577
0.003572601
0.00357263
0.003572665
0.003572708
0.003572762
0.003572827
0.003572903
0.003572985
0.003573065
0.003573119
0.003573136
0.003573132
0.003573108
0.003573089
0.003573068
0.003572585
0.003572529
0.003572544
0.003572558
0.00357258
0.003572604
0.003572633
0.003572666
0.003572705
0.00357275
0.003572804
0.003572864
0.003572927
0.003572987
0.00357303
0.00357305
0.00357305
0.003573038
0.003573023
0.003573004
0.003572581
0.003572527
0.003572544
0.003572559
0.003572582
0.003572606
0.003572633
0.003572664
0.003572699
0.003572739
0.003572783
0.003572831
0.00357288
0.003572927
0.003572963
0.003572986
0.003572996
0.003572994
0.003572985
0.003572972
0.003572576
0.003572524
0.003572542
0.003572558
0.003572581
0.003572605
0.003572631
0.00357266
0.003572692
0.003572727
0.003572765
0.003572805
0.003572847
0.003572886
0.00357292
0.003572946
0.003572962
0.00357297
0.00357297
0.003572967
0.003572569
0.00357252
0.003572539
0.003572555
0.003572579
0.003572603
0.003572628
0.003572655
0.003572683
0.003572714
0.003572748
0.003572782
0.003572818
0.003572853
0.003572886
0.003572915
0.003572939
0.003572959
0.003572976
0.003572993
0.003572561
0.003572514
0.003572534
0.003572551
0.003572575
0.003572598
0.003572622
0.003572647
0.003572673
0.003572701
0.00357273
0.003572761
0.003572792
0.003572824
0.003572857
0.003572891
0.003572926
0.003572967
0.003573013
0.003573107
0.003572551
0.003572508
0.003572528
0.003572545
0.003572569
0.003572592
0.003572615
0.003572638
0.003572662
0.003572687
0.003572712
0.003572739
0.003572766
0.003572795
0.003572827
0.003572865
0.003572913
0.003572978
0.003573086
0.003573309
0.003572585
0.00357578
0.003741431
0.003740777
0.00374013
0.00373984
0.003739481
0.00373913
0.003738733
0.003738386
0.003738436
0.003738593
0.003572731
0.003573122
0.003572537
0.003572532
0.003572558
0.003572537
0.003572533
0.003572523
0.003572519
0.003572516
0.003572515
0.003572516
0.003572515
0.00357254
0.003572882
0.003737043
0.00357254
0.003572496
0.003572503
0.003572499
0.003572498
0.003572499
0.003572503
0.003572507
0.003572515
0.003572525
0.003572539
0.003572559
0.003573032
0.0037374
0.003572511
0.003572481
0.003572501
0.003572508
0.003572518
0.003572524
0.003572535
0.003572547
0.003572565
0.003572592
0.00357263
0.00357269
0.003573302
0.003738385
0.003572533
0.003572492
0.003572506
0.003572516
0.003572532
0.003572547
0.003572566
0.00357259
0.003572623
0.003572673
0.003572747
0.003572851
0.003573674
0.003739656
0.003572543
0.003572502
0.003572516
0.00357253
0.00357255
0.003572573
0.003572601
0.003572638
0.003572692
0.003572778
0.003572898
0.003573129
0.003574329
0.003741446
0.003572557
0.003572512
0.003572526
0.003572542
0.003572566
0.003572595
0.003572632
0.003572683
0.003572762
0.003572885
0.003573106
0.003573511
0.003575877
0.003742743
0.003572566
0.003572521
0.003572536
0.003572552
0.00357258
0.003572613
0.003572659
0.003572724
0.003572831
0.003573015
0.003573395
0.003574249
0.003576189
0.003578744
0.003572576
0.003572528
0.003572542
0.00357256
0.003572589
0.003572626
0.003572677
0.003572751
0.003572876
0.003573093
0.003573592
0.003574681
0.003579625
0.003613033
0.003579707
0.003580052
0.003577809
0.003572584
0.003572533
0.003572546
0.003572564
0.003572592
0.003572629
0.00357268
0.003572752
0.003572866
0.003573067
0.003573438
0.003574333
0.003576684
0.003591307
0.003612977
0.003575473
0.003574498
0.003573822
0.003573748
0.003573435
0.00357259
0.003572535
0.003572548
0.003572564
0.003572591
0.003572627
0.003572674
0.003572739
0.003572835
0.003572989
0.003573226
0.003573767
0.003574751
0.003575742
0.003575599
0.003574979
0.003574556
0.003573802
0.003573554
0.003573621
0.003572595
0.003572536
0.003572547
0.003572562
0.003572587
0.003572619
0.00357266
0.003572714
0.003572789
0.003572892
0.003573038
0.003573268
0.003573676
0.003574207
0.003574553
0.003574129
0.003573796
0.003573503
0.003573358
0.003573309
0.003572597
0.003572536
0.003572545
0.003572557
0.003572579
0.003572607
0.003572643
0.003572687
0.003572744
0.00357282
0.003572922
0.003573067
0.003573251
0.003573463
0.003573538
0.003573556
0.003573485
0.00357337
0.003573329
0.003573298
0.003572598
0.003572534
0.003572541
0.003572551
0.00357257
0.003572595
0.003572627
0.003572665
0.003572714
0.003572775
0.003572854
0.00357296
0.00357309
0.003573236
0.003573313
0.003573304
0.003573254
0.003573197
0.003573159
0.003573132
0.003572597
0.003572534
0.00357254
0.00357255
0.003572569
0.003572594
0.003572624
0.00357266
0.003572704
0.003572759
0.003572825
0.003572901
0.003572984
0.003573064
0.003573118
0.003573137
0.003573134
0.00357311
0.003573091
0.003573073
0.003572596
0.003572534
0.003572541
0.003572552
0.003572573
0.003572597
0.003572627
0.003572661
0.003572701
0.003572747
0.003572802
0.003572862
0.003572926
0.003572987
0.00357303
0.00357305
0.003573051
0.003573039
0.003573024
0.003573007
0.003572593
0.003572533
0.003572541
0.003572553
0.003572574
0.003572599
0.003572627
0.003572659
0.003572695
0.003572736
0.003572781
0.00357283
0.003572879
0.003572926
0.003572963
0.003572986
0.003572996
0.003572995
0.003572987
0.003572974
0.003572587
0.00357253
0.003572539
0.003572552
0.003572574
0.003572599
0.003572626
0.003572656
0.003572689
0.003572725
0.003572763
0.003572804
0.003572846
0.003572886
0.00357292
0.003572946
0.003572963
0.003572971
0.003572971
0.003572969
0.00357258
0.003572525
0.003572535
0.003572549
0.003572572
0.003572596
0.003572623
0.003572651
0.003572681
0.003572712
0.003572746
0.003572781
0.003572817
0.003572852
0.003572885
0.003572915
0.00357294
0.00357296
0.003572977
0.003572995
0.003572571
0.003572519
0.00357253
0.003572545
0.003572568
0.003572592
0.003572618
0.003572644
0.003572671
0.003572699
0.003572729
0.00357276
0.003572791
0.003572823
0.003572856
0.003572891
0.003572926
0.003572968
0.003573015
0.00357311
0.003572561
0.003572512
0.003572524
0.003572539
0.003572562
0.003572586
0.00357261
0.003572635
0.00357266
0.003572685
0.003572711
0.003572738
0.003572766
0.003572795
0.003572827
0.003572865
0.003572913
0.003572976
0.003573087
0.00357331
0.003572589
0.003575799
0.003741346
0.003740648
0.003739955
0.003739665
0.003739302
0.003738937
0.003738544
0.003738194
0.003738291
0.003738496
0.003572727
0.003573122
0.003572538
0.003572536
0.003572561
0.003572537
0.003572535
0.003572524
0.003572519
0.003572517
0.003572515
0.003572516
0.003572516
0.00357254
0.003572881
0.003737027
0.003572545
0.0035725
0.003572506
0.003572499
0.003572497
0.003572497
0.003572501
0.003572505
0.003572513
0.003572522
0.003572536
0.003572557
0.003573032
0.00373739
0.003572514
0.003572485
0.003572504
0.003572509
0.003572517
0.003572523
0.003572532
0.003572544
0.003572562
0.003572588
0.003572626
0.003572687
0.003573301
0.003738368
0.003572541
0.003572497
0.003572507
0.003572517
0.00357253
0.003572544
0.003572562
0.003572585
0.003572618
0.003572667
0.003572742
0.00357285
0.003573677
0.003739644
0.003572547
0.003572506
0.003572517
0.003572529
0.003572547
0.003572569
0.003572596
0.003572633
0.003572686
0.003572773
0.003572894
0.003573129
0.003574336
0.003741443
0.003572563
0.003572517
0.003572527
0.003572541
0.003572562
0.00357259
0.003572627
0.003572677
0.003572756
0.00357288
0.003573103
0.003573513
0.0035759
0.003742726
0.003572572
0.003572526
0.003572536
0.003572552
0.003572575
0.003572608
0.003572653
0.003572718
0.003572826
0.003573012
0.003573394
0.003574261
0.003576318
0.00357975
0.003572582
0.003572533
0.003572543
0.003572559
0.003572584
0.00357262
0.00357267
0.003572745
0.00357287
0.003573088
0.003573585
0.003574678
0.003579457
0.003620299
0.003579668
0.003580781
0.00357779
0.00357259
0.003572538
0.003572547
0.003572562
0.003572588
0.003572623
0.003572673
0.003572746
0.00357286
0.00357306
0.003573426
0.00357431
0.003576626
0.003591024
0.003613113
0.003575427
0.00357455
0.003573922
0.003573537
0.003573512
0.003572597
0.003572541
0.003572548
0.003572563
0.003572587
0.003572621
0.003572668
0.003572733
0.00357283
0.003572983
0.003573224
0.003573757
0.00357473
0.003575736
0.003575575
0.003575005
0.003574564
0.003573813
0.003573454
0.00357358
0.003572602
0.003572542
0.003572548
0.00357256
0.003572582
0.003572613
0.003572654
0.003572709
0.003572784
0.003572887
0.003573034
0.003573261
0.003573669
0.003574202
0.003574554
0.003574125
0.003573774
0.003573496
0.003573336
0.003573296
0.003572604
0.003572542
0.003572545
0.003572556
0.003572575
0.003572601
0.003572637
0.003572682
0.00357274
0.003572817
0.003572919
0.003573063
0.003573246
0.003573456
0.003573531
0.003573552
0.003573484
0.003573346
0.003573312
0.00357329
0.003572605
0.00357254
0.003572541
0.003572549
0.003572566
0.003572589
0.003572621
0.00357266
0.00357271
0.003572772
0.003572852
0.003572958
0.003573087
0.003573234
0.003573305
0.0035733
0.003573247
0.003573189
0.003573154
0.003573126
0.003572605
0.00357254
0.003572541
0.003572549
0.003572565
0.003572588
0.003572618
0.003572655
0.003572701
0.003572756
0.003572823
0.0035729
0.003572982
0.003573062
0.003573116
0.003573134
0.003573132
0.003573105
0.003573088
0.003573071
0.003572604
0.00357254
0.003572542
0.003572551
0.003572568
0.003572592
0.003572621
0.003572656
0.003572697
0.003572745
0.0035728
0.003572861
0.003572925
0.003572986
0.003573028
0.003573049
0.00357305
0.003573037
0.003573023
0.003573006
0.0035726
0.003572538
0.003572542
0.003572552
0.00357257
0.003572594
0.003572622
0.003572655
0.003572692
0.003572734
0.003572779
0.003572829
0.003572878
0.003572925
0.003572962
0.003572986
0.003572996
0.003572994
0.003572986
0.003572975
0.003572594
0.003572535
0.003572539
0.003572551
0.00357257
0.003572593
0.003572621
0.003572652
0.003572686
0.003572722
0.003572762
0.003572803
0.003572845
0.003572885
0.003572919
0.003572946
0.003572962
0.00357297
0.003572971
0.003572969
0.003572587
0.00357253
0.003572535
0.003572548
0.003572568
0.003572591
0.003572618
0.003572647
0.003572678
0.00357271
0.003572745
0.00357278
0.003572816
0.003572852
0.003572885
0.003572915
0.00357294
0.00357296
0.003572977
0.003572999
0.003572578
0.003572524
0.00357253
0.003572544
0.003572564
0.003572588
0.003572614
0.003572641
0.003572669
0.003572698
0.003572728
0.003572759
0.00357279
0.003572823
0.003572856
0.00357289
0.003572926
0.003572967
0.003573013
0.003573104
0.003572568
0.003572517
0.003572524
0.003572538
0.003572558
0.003572582
0.003572607
0.003572632
0.003572658
0.003572684
0.00357271
0.003572737
0.003572765
0.003572795
0.003572827
0.003572865
0.003572913
0.003572977
0.003573086
0.00357331
0.003572588
0.003575741
0.003741308
0.00374062
0.003739899
0.003739606
0.00373924
0.003738876
0.00373848
0.003738142
0.003738238
0.003738474
0.003572728
0.003573123
0.003572538
0.003572538
0.003572562
0.003572537
0.003572536
0.003572524
0.00357252
0.003572517
0.003572515
0.003572515
0.003572516
0.00357254
0.00357288
0.003737026
0.003572548
0.003572503
0.003572508
0.003572499
0.003572497
0.003572497
0.0035725
0.003572504
0.003572512
0.003572521
0.003572535
0.003572556
0.003573032
0.003737392
0.003572515
0.00357249
0.003572506
0.00357251
0.003572518
0.003572522
0.003572531
0.003572543
0.00357256
0.003572586
0.003572624
0.003572686
0.003573302
0.003738363
0.003572543
0.003572501
0.003572509
0.003572518
0.00357253
0.003572543
0.00357256
0.003572583
0.003572615
0.003572664
0.00357274
0.003572848
0.003573676
0.003739643
0.003572549
0.00357251
0.003572519
0.00357253
0.003572547
0.003572566
0.003572593
0.003572629
0.003572682
0.003572769
0.003572891
0.003573127
0.00357434
0.003741445
0.003572565
0.003572521
0.003572529
0.003572541
0.003572561
0.003572587
0.003572623
0.003572673
0.003572752
0.003572876
0.0035731
0.003573512
0.003575905
0.003742723
0.003572574
0.00357253
0.003572537
0.003572551
0.003572573
0.003572604
0.003572648
0.003572714
0.003572821
0.003573007
0.00357339
0.003574259
0.003576321
0.003579988
0.003572584
0.003572537
0.003572544
0.003572558
0.003572582
0.003572616
0.003572665
0.00357274
0.003572866
0.003573083
0.003573582
0.003574671
0.00357941
0.003619948
0.003579678
0.003579766
0.003577718
0.003572593
0.003572542
0.003572548
0.003572562
0.003572585
0.003572619
0.003572669
0.003572741
0.003572855
0.003573056
0.003573421
0.003574298
0.003576603
0.003590878
0.003613064
0.003575467
0.003574479
0.003573797
0.003573726
0.003573402
0.0035726
0.003572545
0.00357255
0.003572562
0.003572584
0.003572617
0.003572663
0.003572729
0.003572826
0.003572979
0.003573218
0.003573751
0.003574715
0.003575723
0.003575559
0.003574967
0.00357456
0.003573783
0.003573563
0.003573598
0.003572604
0.003572546
0.003572549
0.00357256
0.00357258
0.003572609
0.003572649
0.003572704
0.00357278
0.003572883
0.00357303
0.003573257
0.003573665
0.003574196
0.003574553
0.003574125
0.003573783
0.003573491
0.00357335
0.003573296
0.003572607
0.003572546
0.003572547
0.003572555
0.003572572
0.003572597
0.003572632
0.003572678
0.003572737
0.003572813
0.003572916
0.00357306
0.003573243
0.003573453
0.00357353
0.003573548
0.003573484
0.003573359
0.003573325
0.003573294
0.003572608
0.003572544
0.003572543
0.003572549
0.003572563
0.003572586
0.003572617
0.003572657
0.003572707
0.003572769
0.00357285
0.003572956
0.003573085
0.003573232
0.003573306
0.0035733
0.003573249
0.003573192
0.003573157
0.00357313
0.003572607
0.003572543
0.003572542
0.003572548
0.003572562
0.003572584
0.003572614
0.003572652
0.003572698
0.003572754
0.003572821
0.003572898
0.003572981
0.003573061
0.003573116
0.003573134
0.003573132
0.003573108
0.003573091
0.003573073
0.003572606
0.003572543
0.003572543
0.003572551
0.003572566
0.003572588
0.003572617
0.003572653
0.003572695