/*--------------------------------*- C++ -*----------------------------------*\
  =========                 |
  \\      /  F ield         | OpenFOAM: The Open Source CFD Toolbox
   \\    /   O peration     | Website:  https://openfoam.org
    \\  /    A nd           | Version:  7
     \\/     M anipulation  |
\*---------------------------------------------------------------------------*/
FoamFile
{
    version     2.0;
    format      ascii;
    class       volScalarField;
    location    "0.05";
    object      p;
}
// * * * * * * * * * * * * * * * * * * * * * * * * * * * * * * * * * * * * * //

dimensions      [0 2 -2 0 0 0 0];

internalField   nonuniform List<scalar> 
53911
(
0.01489928
0.01623309
0.002497086
-0.006477
-0.0169768
-0.02884835
-0.04063931
-0.04970346
-0.05277464
-0.06551786
-0.07801205
-0.08974568
-0.09634998
-0.09799559
0.008181927
-0.002062969
-0.03301379
-0.02418845
-0.04673912
-0.04782344
-0.0613
-0.06632555
-0.07647313
-0.08427371
-0.09308232
-0.1009737
-0.1069004
-0.1033878
0.01045543
-0.001324988
-0.03254353
-0.02190471
-0.05129322
-0.05230435
-0.06687716
-0.07274402
-0.0853545
-0.0944826
-0.1071364
-0.1180744
-0.1271693
-0.1185502
0.009914044
0.003240443
-0.0436395
-0.02722753
-0.05472658
-0.05533226
-0.06725925
-0.07321871
-0.08635778
-0.09755479
-0.112447
-0.1283764
-0.141723
-0.1376813
0.01131588
0.002756227
-0.0355883
-0.01739016
-0.05069391
-0.05108194
-0.07220992
-0.0775431
-0.09341843
-0.1081392
-0.1265558
-0.1513189
-0.1696953
-0.1728906
0.01380609
0.01086361
-0.04802551
-0.02465674
-0.05783497
-0.05884843
-0.07212907
-0.08002655
-0.09888102
-0.1154713
-0.1452452
-0.1745861
-0.2206815
-0.2231616
0.013603
0.005642758
-0.03839413
-0.01490468
-0.05404272
-0.05203014
-0.07074489
-0.07850549
-0.09838172
-0.1194672
-0.1492167
-0.1964357
-0.242772
-0.3062122
0.01347519
0.01568467
-0.0467097
-0.01897361
-0.05381763
-0.05383891
-0.06998634
-0.07880292
-0.1040334
-0.1246396
-0.1774106
-0.2283766
-0.375122
-0.4691192
0.01503887
0.01350052
-0.04158349
-0.01721208
-0.04719545
-0.04289228
-0.06229717
-0.06890117
-0.08955959
-0.1075712
-0.1413539
-0.187177
-0.2541565
-0.8759998
0.01434136
0.01661427
-0.04013484
-0.01490421
-0.04466377
-0.04008247
-0.05844543
-0.06380066
-0.08885233
-0.09918364
-0.1532824
-0.1742624
-0.2851784
-0.3910021
-0.5055706
-0.3062985
-0.1247806
-0.02067336
0.02387764
0.06778258
0.0159389
0.01967335
-0.0365435
-0.01140151
-0.03726343
-0.02986998
-0.04662692
-0.04893768
-0.0627464
-0.0716868
-0.08698361
-0.1121318
-0.1426756
-0.2561993
-0.1753644
-0.1184863
-0.05108451
0.01189263
0.04951278
0.09085883
0.01890662
0.02201253
-0.0329709
-0.006918589
-0.03311116
-0.02405391
-0.04021292
-0.04175911
-0.0554975
-0.06462673
-0.08090728
-0.1027104
-0.1198673
-0.1522992
-0.1193877
-0.07164295
-0.02301815
0.02472915
0.05740181
0.100018
0.02035125
0.02138136
-0.02850432
-0.001588021
-0.02651919
-0.01549521
-0.02922581
-0.02740794
-0.03497557
-0.03774089
-0.04095932
-0.04978049
-0.04496132
-0.06237811
-0.01379471
0.007699021
0.04613319
0.08465997
0.1170547
0.1535153
0.02128487
0.02562177
-0.02533804
0.002950177
-0.02110795
-0.008903023
-0.02151634
-0.01876018
-0.02529997
-0.02721912
-0.02980324
-0.03594654
-0.03016191
-0.04424165
-0.02021568
-0.007602034
0.01758006
0.04163201
0.06533331
0.09478455
0.0185641
0.0286339
-0.022104
0.007691819
-0.01526445
-0.001747824
-0.0125474
-0.00768852
-0.01110466
-0.008924139
-0.006891127
-0.003941845
0.005015919
0.01545117
0.03343742
0.04968152
0.07217584
0.09541598
0.1182951
0.1446698
0.0155099
0.03001987
-0.01886543
0.0124509
-0.01025901
0.00433282
-0.005318993
0.0003797228
-0.001987091
0.0006323209
0.002498576
0.005134427
0.01090376
0.01525901
0.0276665
0.0389453
0.05505744
0.07201171
0.09023827
0.1115336
0.01774379
0.03710916
-0.0159359
0.01682404
-0.004772019
0.010277
0.00193646
0.008650766
0.007873398
0.01222066
0.0159126
0.02154307
0.02951611
0.03863903
0.05034503
0.06240523
0.0764773
0.0917464
0.106175
0.125151
0.01810881
0.037311
-0.01292151
0.01993682
-0.0007049295
0.01527611
0.007921026
0.01518426
0.01517658
0.01993032
0.02377612
0.02924112
0.03599617
0.04352097
0.05299293
0.0632208
0.07468713
0.08727763
0.09993198
0.113884
0.01904179
0.03673912
-0.01047604
0.02552984
0.005203156
0.02023743
0.0135974
0.0210125
0.02171331
0.0269231
0.03125931
0.03725253
0.04407268
0.05184224
0.06032042
0.06971656
0.07786064
0.08885994
0.09336713
0.1093625
0.01977255
0.0403151
-0.009435839
0.02720562
0.008376188
0.02381055
0.0181537
0.0256861
0.02691822
0.03226303
0.03673452
0.04270704
0.04924259
0.05676925
0.06478132
0.07380949
0.08215943
0.0914412
0.0973672
0.1064957
0.01902704
0.03905627
-0.008975583
0.03007116
0.01240654
0.0272246
0.02232532
0.02960205
0.03119372
0.03648432
0.04095744
0.04675773
0.05284483
0.05982939
0.06636628
0.07443545
0.07793582
0.08702583
0.07805257
0.1003223
-0.009130835
-0.01030848
-0.03559257
-0.02858707
-0.0493088
-0.05450267
-0.06706872
-0.07412807
-0.08378262
-0.09156912
-0.09889485
-0.1041175
-0.1083693
-0.1013023
0.003366139
-0.01294704
-0.02317846
-0.03103606
-0.04278059
-0.04781417
-0.05830694
-0.06408844
-0.07316593
-0.08010854
-0.08752108
-0.09576842
-0.1026419
-0.108994
0.007086762
-0.006872924
-0.02414311
-0.02384115
-0.04914567
-0.05297244
-0.06708662
-0.07382127
-0.08600233
-0.09587206
-0.1069591
-0.1185903
-0.1261385
-0.1351713
0.006168257
-0.01181619
-0.0248572
-0.02994274
-0.04755529
-0.05213088
-0.06562996
-0.07266427
-0.08535764
-0.09697876
-0.1107326
-0.1265277
-0.1401247
-0.1522012
0.007180691
-0.006115508
-0.02486873
-0.02404044
-0.04641329
-0.05141927
-0.06884461
-0.07684858
-0.09238126
-0.1082793
-0.1247171
-0.1512682
-0.1658149
-0.1955303
0.006711303
-0.009096828
-0.02508235
-0.02787255
-0.0485755
-0.053461
-0.06992552
-0.0792262
-0.09800956
-0.1154548
-0.14342
-0.1737888
-0.2118076
-0.2599054
0.008667921
-0.006215607
-0.0243296
-0.02348757
-0.04492277
-0.04915215
-0.06849945
-0.07770215
-0.09676848
-0.119115
-0.1451027
-0.1966815
-0.2344851
-0.3698108
0.007925507
-0.006848876
-0.02343294
-0.0238826
-0.04536353
-0.04891258
-0.06764396
-0.07802863
-0.1034202
-0.124828
-0.1786211
-0.2281909
-0.3723033
-0.4311618
0.01051363
-0.00476357
-0.02122782
-0.02018811
-0.04197013
-0.04238042
-0.06035065
-0.0685193
-0.08746861
-0.1068768
-0.1348614
-0.1852161
-0.2403942
-0.6303098
0.01126324
-0.003183727
-0.01924538
-0.01763404
-0.03861977
-0.03862278
-0.0566247
-0.06345923
-0.08812176
-0.09947027
-0.1534149
-0.171692
-0.2904647
-0.396204
-0.5419063
-0.2259965
-0.1648916
-0.05247301
-0.0007807058
0.05269923
0.01239424
-0.002814974
-0.01715377
-0.01387039
-0.03276488
-0.0304153
-0.0453729
-0.04881862
-0.06199356
-0.07063694
-0.0856505
-0.1072182
-0.1287626
-0.2455741
-0.1732702
-0.07362331
0.005610824
0.08213884
0.130855
0.168509
0.01390829
-0.001560253
-0.01458797
-0.01027199
-0.02815446
-0.02477497
-0.03898813
-0.04192992
-0.05522783
-0.06465049
-0.080248
-0.1038006
-0.1163551
-0.1604607
-0.1426409
-0.08529285
-0.05233477
-0.01404957
0.02159303
0.05512371
0.01561505
0.001881872
-0.0112939
-0.005636165
-0.02196365
-0.01660498
-0.02810711
-0.02753133
-0.03438771
-0.03703121
-0.03888632
-0.04577531
-0.03933554
-0.0572466
0.001236555
0.02233562
0.06440249
0.1059896
0.1417753
0.1764973
0.01610714
0.002490039
-0.008336085
-0.001522986
-0.01668052
-0.0101717
-0.0204477
-0.01898026
-0.02486953
-0.02702198
-0.02889867
-0.03430415
-0.02836045
-0.04655225
-0.02536518
-0.01350887
0.01023323
0.03116595
0.05560041
0.08260732
0.01683622
0.006247103
-0.005139461
0.002988089
-0.01102106
-0.003134608
-0.01149988
-0.00781617
-0.01052849
-0.008365553
-0.005765941
-0.00198156
0.007776645
0.02107628
0.03662924
0.05297324
0.07667399
0.1004419
0.1249051
0.1507809
0.01653331
0.008629081
-0.002787164
0.007162833
-0.006077827
0.00287512
-0.004347089
0.0001601084
-0.001660791
0.0007927909
0.002725474
0.005056941
0.01081
0.01426587
0.02609551
0.03714266
0.05321045
0.06943819
0.08752921
0.107857
0.0168221
0.009933138
0.000319471
0.01081342
-0.001097725
0.008599829
0.002676109
0.00826223
0.008011437
0.0122566
0.01613341
0.02180219
0.0298989
0.0390275
0.05076766
0.06290224
0.07735267
0.09277135
0.1076864
0.1265735
0.0169443
0.01405023
0.002942094
0.01467562
0.003157312
0.013609
0.008580844
0.01473326
0.01521401
0.0198024
0.02370919
0.02908691
0.03579317
0.0431585
0.05262298
0.06276205
0.07430233
0.08671584
0.09915131
0.112763
0.0176727
0.01615341
0.004236519
0.01733596
0.007257745
0.01809004
0.01392532
0.02047652
0.02166368
0.02675766
0.03118023
0.03715049
0.04398896
0.051739
0.06032766
0.06982388
0.07824071
0.08962882
0.09446334
0.1098914
0.01791678
0.0173259
0.007555061
0.02026139
0.01069536
0.02181171
0.0183631
0.02515012
0.02680423
0.0320558
0.03659943
0.04253847
0.04907625
0.05655993
0.06464047
0.07361921
0.08212814
0.09142718
0.09719253
0.1057608
0.01751954
0.01771554
0.008944638
0.02233686
0.01382339
0.0250099
0.02219301
0.02902218
0.03099133
0.03626633
0.04081577
0.04659766
0.05271854
0.059682
0.06640059
0.07460853
0.07869391
0.08916346
0.08084965
0.09843384
-0.01638491
0.003921003
-0.03436783
-0.02815463
-0.04330522
-0.04480541
-0.05935007
-0.06171958
-0.07234893
-0.07613597
-0.08547278
-0.08880784
-0.1023876
-0.09920881
0.005361461
0.000125873
-0.02073822
-0.02595155
-0.04529943
-0.04981332
-0.06177482
-0.06763883
-0.07715705
-0.08464058
-0.09219953
-0.1007971
-0.1059323
-0.1126261
-0.01435366
0.0105765
-0.03735354
-0.0255128
-0.0467358
-0.04827926
-0.06542342
-0.06930419
-0.08141214
-0.08938064
-0.1019717
-0.1121965
-0.1233207
-0.1333556
-0.01482812
0.00469515
-0.03668031
-0.03020387
-0.05134273
-0.05540213
-0.06664377
-0.0737955
-0.08599228
-0.09718662
-0.1112722
-0.1266497
-0.1402131
-0.15487
-0.01654502
0.006699212
-0.03025968
-0.01892845
-0.0498418
-0.05222437
-0.06890387
-0.0758215
-0.09093512
-0.1061501
-0.1237363
-0.1497559
-0.1653151
-0.1985997
-0.01335502
0.01063928
-0.04012921
-0.0289224
-0.05343164
-0.05708806
-0.07013883
-0.07956013
-0.09776887
-0.1143776
-0.1434004
-0.1729661
-0.2123255
-0.2662701
-0.01609383
0.008455056
-0.03171404
-0.0183012
-0.05062198
-0.05246712
-0.06818883
-0.07793457
-0.09665098
-0.1190325
-0.147257
-0.1997696
-0.2407555
-0.3895548
-0.01347493
0.01510331
-0.03779941
-0.02342357
-0.0490675
-0.05243559
-0.06769962
-0.07812598
-0.1029747
-0.1235056
-0.1787951
-0.2312096
-0.3791629
-0.4198774
-0.01431485
0.01582027
-0.03362276
-0.01985733
-0.04393435
-0.04406716
-0.06013001
-0.06883998
-0.0886226
-0.1076861
-0.1410368
-0.1913632
-0.2555972
-0.4261764
0.0652446
0.07267865
0.1454854
-0.01344081
0.01894851
-0.0323203
-0.01798853
-0.04046297
-0.04053353
-0.05637799
-0.06269181
-0.08821424
-0.09582058
-0.1575832
-0.1743377
-0.290067
-0.3757821
-0.54607
-0.2441774
-0.160414
-0.07612353
-0.002377274
0.04572959
-0.01296033
0.02088766
-0.02890075
-0.01386047
-0.03389469
-0.03088317
-0.04493826
-0.04851969
-0.06094383
-0.06916608
-0.08211146
-0.1086497
-0.1276525
-0.2436069
-0.1730763
-0.07251858
-0.0009615596
0.06953119
0.1124427
0.1624547
-0.01366251
0.02265394
-0.02553338
-0.009461029
-0.02964885
-0.02512282
-0.03864878
-0.04179611
-0.05485989
-0.06402559
-0.07932774
-0.1036483
-0.1169592
-0.1577329
-0.1364203
-0.08632221
-0.04676
-0.0150523
0.02075306
0.05258147
-0.01404893
0.02472102
-0.02204331
-0.004251166
-0.02338479
-0.01674534
-0.02780575
-0.02754108
-0.03400167
-0.03676034
-0.03823712
-0.04651419
-0.03945153
-0.05719866
-0.006875209
0.01933639
0.05925593
0.1060322
0.1395805
0.1786925
-0.01317943
0.02815346
-0.01890264
0.0003880418
-0.01807839
-0.01023522
-0.02018267
-0.01907104
-0.02461896
-0.02700838
-0.02898173
-0.03445866
-0.02834416
-0.04679865
-0.02923318
-0.01476397
0.009095913
0.02889554
0.05242592
0.07951848
-0.0118372
0.03182403
-0.01569657
0.00525281
-0.01237197
-0.003114298
-0.01123232
-0.007907316
-0.01026864
-0.008324274
-0.005713733
-0.002067468
0.007797295
0.0212179
0.03583487
0.0534537
0.07650168
0.1025661
0.1265252
0.1542962
-0.0101518
0.03608728
-0.01275131
0.009555652
-0.007302766
0.002917098
-0.004062637
5.355685e-05
-0.001435634
0.000763107
0.002736746
0.004938076
0.01069723
0.01418362
0.02533912
0.03653252
0.05236738
0.06876718
0.08647684
0.1072899
-0.008009182
0.04107526
-0.00996788
0.0136921
-0.00227378
0.008711017
0.002987722
0.008178034
0.008263109
0.01228749
0.01625212
0.02190482
0.0300219
0.03919704
0.05084123
0.06323062
0.07763375
0.09363196
0.1085806
0.1283113
-0.006704491
0.04219187
-0.007235889
0.01721973
0.002113108
0.01368681
0.008936496
0.01463845
0.01544192
0.01979678
0.02375906
0.02905429
0.035732
0.04303451
0.0523936
0.06252062
0.07403198
0.08663213
0.09927033
0.1134572
-0.005865538
0.04356293
-0.004574131
0.02094589
0.006718365
0.01828353
0.01438297
0.02040485
0.02191058
0.02677047
0.03126536
0.03717777
0.04401208
0.05173173
0.0602905
0.0697657
0.07815392
0.08947406
0.09440694
0.1110088
-0.004981485
0.04464926
-0.002903454
0.02344097
0.0106472
0.02205764
0.01899182
0.02511062
0.02706753
0.03206179
0.03665865
0.04252255
0.04904233
0.05646935
0.06452857
0.07346286
0.08213216
0.09144149
0.09800439
0.107087
-0.004228816
0.04319326
-0.001978709
0.02590314
0.01441098
0.02534042
0.02302951
0.02901474
0.03128946
0.03627494
0.04087544
0.04659052
0.05269136
0.05959609
0.06629253
0.07429717
0.07858335
0.08735618
0.08258455
0.102863
-0.01655887
-0.004274057
-0.02696048
-0.02027197
-0.04889433
-0.05116391
-0.06391757
-0.06781528
-0.07921861
-0.08273442
-0.09512879
-0.0978919
-0.1035505
-0.09912154
0.008219113
-0.005224273
-0.01911825
-0.02768882
-0.04325115
-0.04884826
-0.06025203
-0.06604118
-0.07486458
-0.08222898
-0.08820171
-0.09762157
-0.102153
-0.1085808
-0.00577878
-0.002686759
-0.02149286
-0.02032769
-0.04719076
-0.05024256
-0.06502994
-0.07033528
-0.0826125
-0.09116522
-0.10311
-0.1146996
-0.1230819
-0.1362577
-0.002663619
-0.01250089
-0.02354942
-0.0323175
-0.04646725
-0.05231872
-0.06440462
-0.07233701
-0.08384499
-0.09559337
-0.1080893
-0.1247035
-0.1368903
-0.1518471
-0.003501397
-0.00683527
-0.02151713
-0.02478711
-0.04356925
-0.04956206
-0.06483865
-0.07463286
-0.08884598
-0.1053364
-0.1211671
-0.1493064
-0.1633665
-0.1983113
-0.003822063
-0.01297573
-0.02531803
-0.03057251
-0.04584733
-0.05246993
-0.06709039
-0.07789502
-0.09550621
-0.1131943
-0.140577
-0.1723234
-0.2097631
-0.2662637
-0.003333061
-0.009089194
-0.02063195
-0.02573541
-0.04176172
-0.04864008
-0.06402727
-0.07619103
-0.09384728
-0.1177124
-0.1443366
-0.2001658
-0.2435364
-0.396262
-0.003254886
-0.01163461
-0.02274394
-0.02716376
-0.04197575
-0.04851444
-0.06451436
-0.07662252
-0.1010071
-0.1230791
-0.1786254
-0.2334576
-0.3924598
-0.4759927
-0.00330857
-0.009090015
-0.01873123
-0.02300501
-0.03761142
-0.04258939
-0.05697822
-0.06751559
-0.08559078
-0.1067426
-0.1385315
-0.1978247
-0.2808085
-0.8673681
0.0849818
0.09017066
0.1684453
-0.002853453
-0.009215566
-0.01813831
-0.021274
-0.03458106
-0.03913113
-0.05384818
-0.06239155
-0.08663874
-0.09640226
-0.1567609
-0.1755442
-0.2951422
-0.4358112
-0.5385859
-0.2566456
-0.1699769
-0.08481794
-0.02065147
0.04045895
-0.002440652
-0.007950073
-0.01510978
-0.01730893
-0.02908439
-0.03138969
-0.04283091
-0.04813336
-0.05990516
-0.06845126
-0.0818203
-0.1070454
-0.1257195
-0.2442381
-0.1768345
-0.04773152
0.03254858
0.1186773
0.1612985
0.2095562
-0.002147361
-0.006665367
-0.01276749
-0.01399772
-0.02475457
-0.02612827
-0.036864
-0.04186119
-0.05417652
-0.06428354
-0.07969209
-0.1069582
-0.1203983
-0.1705293
-0.1540177
-0.102745
-0.06897634
-0.04431775
-0.01073531
0.02059203
-0.00159572
-0.005163377
-0.009953552
-0.009775624
-0.0190234
-0.01835368
-0.02623727
-0.02765028
-0.03305343
-0.03611641
-0.03706847
-0.04436259
-0.03523126
-0.05324847
0.01109221
0.03330976
0.0754842
0.121737
0.1590852
0.1944735
-0.0005545888
-0.003565317
-0.007424394
-0.005957526
-0.01402429
-0.01222535
-0.0188966
-0.01949618
-0.02405368
-0.02692376
-0.02753384
-0.03417616
-0.02688139
-0.05068529
-0.0319484
-0.02170552
0.001034573
0.01758784
0.04033017
0.06638321
0.000462097
-0.001455133
-0.004655525
-0.001959599
-0.00868694
-0.005435921
-0.01015265
-0.00841618
-0.009733699
-0.007887983
-0.004644698
-2.3985e-05
0.01037114
0.02479535
0.03998589
0.05598168
0.08017161
0.1048708
0.1299023
0.1569677
0.001594659
-2.164358e-05
-0.002032141
0.001743866
-0.003883636
0.0003636433
-0.003219154
-0.0006799239
-0.001254576
0.0006330513
0.002886872
0.004794738
0.01064984
0.01344796
0.02425813
0.03440685
0.04996015
0.06525272
0.08240369
0.102684
0.002456915
0.0002904642
0.0004351323
0.005136773
0.0007180621
0.005917366
0.00359203
0.007331443
0.008330391
0.01217397
0.01646161
0.02230873
0.03050959
0.03967618
0.05136903
0.0633864
0.07800751
0.09366155
0.108686
0.1286671
0.00326206
0.002714552
0.003250182
0.008579848
0.004889501
0.01080248
0.009339597
0.01368461
0.01533654
0.01947119
0.02364202
0.02889563
0.03558397
0.04272871
0.05199658
0.06181022
0.07315091
0.08529484
0.09701432
0.1112996
0.004563352
0.004917076
0.005519072
0.01145838
0.00870032
0.01516723
0.01448683
0.01936836
0.02169866
0.02640639
0.03112238
0.03706315
0.04397826
0.05171147
0.06036592
0.06987094
0.07844102
0.08995936
0.0942877
0.1114778
0.005092872
0.00626914
0.007480556
0.01389035
0.01198269
0.01886479
0.01881616
0.02401662
0.02675158
0.03162902
0.03643016
0.04230786
0.04888892
0.05630115
0.06440257
0.07323649
0.08175447
0.09079597
0.09592432
0.1041055
0.00438161
0.007082865
0.009080341
0.0158974
0.01490424
0.0220365
0.02249394
0.02786021
0.03086707
0.03581068
0.040625
0.04637936
0.05259893
0.0595876
0.06652894
0.07491546
0.07959041
0.09063726
0.08485202
0.1018174
-0.02013825
0.005003974
-0.03157225
-0.01820271
-0.04682829
-0.04834654
-0.06091275
-0.06378278
-0.07380619
-0.07719923
-0.08675948
-0.08851676
-0.1033407
-0.09483813
0.008989178
0.00258217
-0.01659893
-0.02655404
-0.04205524
-0.04881746
-0.06026052
-0.06625766
-0.07511649
-0.08218338
-0.08894295
-0.09715232
-0.1024118
-0.1080053
-0.009938037
0.01003423
-0.03261789
-0.02205263
-0.04536823
-0.04864885
-0.06294421
-0.06738017
-0.07924441
-0.08683377
-0.09903055
-0.1093246
-0.1205247
-0.1332939
-0.01237332
-0.01065978
-0.02945187
-0.03234193
-0.04716536
-0.052951
-0.06400078
-0.07197455
-0.08294095
-0.09417961
-0.1066049
-0.1220631
-0.1340597
-0.1486581
-0.009874501
0.004064997
-0.02523497
-0.02214882
-0.04642531
-0.05012631
-0.06391591
-0.07324923
-0.08677921
-0.1025545
-0.1184035
-0.144899
-0.1586341
-0.1929569
-0.01286533
-0.001645484
-0.02986096
-0.03217808
-0.04683984
-0.05320642
-0.06620009
-0.07703827
-0.09386146
-0.1106273
-0.1374333
-0.1667162
-0.2010421
-0.2563814
-0.007951054
0.001510677
-0.02413338
-0.0234354
-0.04451033
-0.04903558
-0.06290326
-0.07512547
-0.09181861
-0.1148762
-0.1404256
-0.1924752
-0.2312198
-0.3782187
-0.009574968
0.002709925
-0.02827745
-0.02876148
-0.0426411
-0.0490111
-0.06333016
-0.07552458
-0.09896078
-0.1197713
-0.1737435
-0.2247157
-0.3718638
-0.4372255
-0.007527456
0.003509463
-0.02366444
-0.02260591
-0.03856057
-0.04283758
-0.05572263
-0.0664691
-0.08360454
-0.1033247
-0.1337487
-0.1873649
-0.253467
-0.611389
0.2692301
0.1454574
0.290582
-0.007036764
0.005776293
-0.02388863
-0.02203421
-0.03488554
-0.03941062
-0.05272086
-0.06158061
-0.08549661
-0.09393789
-0.1569854
-0.1742289
-0.3006331
-0.4067173
-0.5620591
-0.2924119
-0.2272592
-0.2077466
-0.00994114
-0.04909103
-0.006406084
0.005403944
-0.02020033
-0.01666405
-0.02910682
-0.03153255
-0.04171928
-0.04748381
-0.05843968
-0.0664526
-0.0783793
-0.1039159
-0.121893
-0.2487667
-0.1895398
-0.06256069
0.02107902
0.1073063
0.1650267
0.2131987
-0.006148422
0.006067772
-0.01749029
-0.01318747
-0.02470284
-0.02627107
-0.0359465
-0.04160575
-0.05362499
-0.0639899
-0.08035546
-0.1074799
-0.1238952
-0.1755665
-0.1622475
-0.1141519
-0.08129551
-0.0649095
-0.01063198
0.005148679
-0.005993373
0.005981429
-0.01386547
-0.008154335
-0.01878908
-0.01846568
-0.0253946
-0.02749868
-0.03244698
-0.0358544
-0.03674468
-0.04608969
-0.03659919
-0.05732627
0.004773411
0.02972442
0.07262661
0.1232648
0.1656353
0.2004384
-0.005663995
0.006212351
-0.01101905
-0.004192212
-0.01375797
-0.01233275
-0.01814228
-0.01949661
-0.02365791
-0.02697268
-0.02732859
-0.03538302
-0.02731364
-0.05353117
-0.03600149
-0.02528099
-0.002747081
0.01332462
0.03768773
0.06315019
-0.005280021
0.006635283
-0.008042235
-0.0002098089
-0.008447748
-0.005558817
-0.009457271
-0.008439199
-0.00936162
-0.007850628
-0.004566311
-0.0004510524
0.01005067
0.02451475
0.03946356
0.056674
0.08088572
0.1078654
0.1337498
0.1618651
-0.004442969
0.00689152
-0.005340443
0.003437792
-0.003660156
0.0002290718
-0.002571216
-0.0007540073
-0.0009613258
0.0005764423
0.002869769
0.004420375
0.0103164
0.01290657
0.02347915
0.03360162
0.04915219
0.06493087
0.08240362
0.1033804
-0.003783027
0.00728331
-0.002881716
0.006925242
0.0009197743
0.005794053
0.004207281
0.007250972
0.008627272
0.01219231
0.0165492
0.02232267
0.03053321
0.03982706
0.05146106
0.06374049
0.07850488
0.09483303
0.1102042
0.1310017
-0.002676165
0.01054085
-0.0003008898
0.01039376
0.005120547
0.01068919
0.009940971
0.0135886
0.01559409
0.01944724
0.02365986
0.0287823
0.03544156
0.04250626
0.0517323
0.0615407
0.07301225
0.08538747
0.09762736
0.1125706
-0.001388724
0.01254019
0.002049366
0.0135171
0.009037018
0.01510815
0.01509075
0.01927498
0.02195106
0.02640158
0.03116352
0.03702085
0.04391606
0.05160976
0.06026996
0.06972176
0.07847004
0.08983787
0.09479043
0.1130775
-0.0004582016
0.01482338
0.004148894
0.01618864
0.01253148
0.01889882
0.0194703
0.02394387
0.02699066
0.03161338
0.0364466
0.04221912
0.04876635
0.05608781
0.06419274
0.07286846
0.08175427
0.0904003
0.0967404
0.1048455
0.0001351849
0.01762373
0.005770329
0.01858911
0.01581902
0.0221485
0.02321842
0.0278235
0.03110437
0.0357969
0.04063941
0.04629743
0.05247652
0.05937113
0.06632173
0.07436199
0.07984603
0.08847516
0.08887477
0.1085897
-0.02095139
0.003792946
-0.03328087
-0.01827971
-0.04568595
-0.04670366
-0.0628072
-0.06518648
-0.07514683
-0.07727192
-0.09397744
-0.09289917
-0.1027374
-0.09268806
0.009676405
-0.002597652
-0.0157044
-0.02685302
-0.04136637
-0.04868271
-0.05990625
-0.06577911
-0.07404568
-0.08106384
-0.08625087
-0.09556154
-0.09910645
-0.1050273
-0.008418144
0.002759705
-0.02373611
-0.01640452
-0.04517607
-0.04796133
-0.06287876
-0.06736416
-0.07918113
-0.0866613
-0.09913434
-0.1090377
-0.1186126
-0.1322266
-0.004532937
-0.01133226
-0.02307568
-0.03251335
-0.04523167
-0.05207108
-0.0628761
-0.07093799
-0.08123596
-0.09243667
-0.1035341
-0.1192742
-0.1295567
-0.1444912
-0.004517083
-0.003387957
-0.01976215
-0.02230139
-0.0432544
-0.04821798
-0.0619474
-0.07178581
-0.08460933
-0.1003144
-0.1146046
-0.1407943
-0.1525571
-0.1867029
-0.005588463
-0.01102548
-0.02449746
-0.02973327
-0.04385268
-0.05135643
-0.06428145
-0.07534275
-0.09122915
-0.1076505
-0.1319797
-0.1605624
-0.1897991
-0.2472726
-0.003694106
-0.007338843
-0.01981139
-0.02451276
-0.03944005
-0.04704265
-0.06041651
-0.07302034
-0.08844525
-0.1105505
-0.1327575
-0.1806498
-0.2138934
-0.3548673
-0.004513397
-0.009674663
-0.02191629
-0.0265552
-0.03950082
-0.04718717
-0.06118395
-0.07355303
-0.09575541
-0.1156302
-0.1658646
-0.2124349
-0.3501441
-0.3836168
-0.003369769
-0.007809771
-0.01827763
-0.02260391
-0.03472108
-0.04141953
-0.05349052
-0.06424614
-0.07921692
-0.09637525
-0.1169827
-0.1512275
-0.176337
-0.21939
0.05503693
0.07012301
0.1439731
-0.003381353
-0.007613151
-0.01775007
-0.02127068
-0.03232832
-0.03841417
-0.05110749
-0.06042598
-0.08318225
-0.09226341
-0.1508134
-0.1675117
-0.2867646
-0.3502933
-0.6225838
-0.2997727
-0.1911383
-0.1373893
-0.05394288
-0.006077357
-0.002719183
-0.00619961
-0.01486355
-0.01735359
-0.02697736
-0.03111742
-0.04047914
-0.0465902
-0.05691739
-0.06451462
-0.07579622
-0.09676716
-0.1125852
-0.2504378
-0.2036161
-0.05727004
0.02967939
0.1097619
0.1671823
0.1973787
-0.002467496
-0.005002619
-0.01273891
-0.01431721
-0.02293023
-0.02627264
-0.03510623
-0.04128055
-0.05308527
-0.06368921
-0.0816832
-0.1068518
-0.1299565
-0.1852423
-0.179102
-0.1226141
-0.08587048
-0.06848932
-0.02916723
-0.005774371
-0.002031793
-0.003594523
-0.009916938
-0.01030147
-0.01740653
-0.01882564
-0.02479301
-0.027362
-0.03185673
-0.03524969
-0.03590491
-0.04568853
-0.03437083
-0.0610395
0.01002252
0.03211254
0.07680802
0.1214857
0.1659707
0.1969833
-0.001603243
-0.002138904
-0.007360544
-0.006687811
-0.01262338
-0.01297191
-0.01778812
-0.01964365
-0.02340798
-0.02690274
-0.02679283
-0.03668672
-0.02587167
-0.05664392
-0.03620768
-0.02949559
-0.005501418
0.007729625
0.03055239
0.05471951
-0.001005189
-0.000807601
-0.004741328
-0.002971318
-0.007561325
-0.006430836
-0.009292406
-0.008745266
-0.009253443
-0.007789549
-0.004229116
8.090759e-05
0.01047513
0.02428048
0.04002523
0.05552174
0.08009378
0.1045612
0.130793
0.1586946
-0.0001587915
0.0004164929
-0.002258083
0.0004949446
-0.002974746
-0.0008249341
-0.002578422
-0.001228681
-0.001062927
0.0003716464
0.002810598
0.004120665
0.01014978
0.01195798
0.02304161
0.03177654
0.04735243
0.06180958
0.07855864
0.09875754
0.00032649
0.001516546
4.275476e-05
0.003785464
0.001387533
0.004580392
0.004054823
0.006676686
0.008424429
0.01195173
0.01648144
0.02236272
0.03051317
0.03986603
0.05122273
0.06292029
0.07763973
0.09339233
0.108582
0.1297703
0.0007589765
0.002956818
0.002318956
0.006938959
0.005371513
0.009354057
0.009662902
0.01292709
0.01528797
0.0190932
0.02342579
0.0285392
0.03519232
0.04209953
0.05123772
0.06062484
0.07184212
0.08359469
0.09499453
0.1094492
0.001147224
0.004230541
0.004345935
0.009794151
0.009002712
0.01365403
0.01469254
0.01855865
0.02158674
0.02601533
0.03090672
0.03678705
0.04372677
0.05140442
0.06007113
0.06943991
0.07813826
0.08958732
0.09391472
0.1136862
0.001469031
0.005351416
0.006201209
0.01235783
0.01220162
0.01737278
0.01894973
0.02318433
0.02657436
0.03118463
0.03614031
0.04193533
0.04851302
0.05579536
0.06386348
0.0723462
0.08092482
0.08876565
0.09426056
0.09898023
0.001744483
0.006456704
0.007907956
0.01459325
0.01503827
0.02055217
0.02255326
0.02702494
0.0306497
0.0353563
0.04033163
0.04602973
0.05228576
0.05922703
0.06627556
0.07454335
0.07959563
0.0896891
0.08930245
0.1038135
-0.02535398
0.005887589
-0.02783585
-0.009239584
-0.04918915
-0.0495437
-0.06010235
-0.06331606
-0.07247255
-0.07547907
-0.08665206
-0.08597417
-0.1026234
-0.09176105
0.01159174
0.001813541
-0.01398587
-0.02696074
-0.04053778
-0.04841353
-0.05898152
-0.06486554
-0.07305854
-0.07985084
-0.08571941
-0.09312429
-0.09810628
-0.1005403
-0.006141464
0.008602986
-0.02892664
-0.01756913
-0.04458109
-0.04734476
-0.06158787
-0.06577698
-0.07716304
-0.08432032
-0.09652144
-0.1061254
-0.1164752
-0.1309057
-0.006482481
-0.01207027
-0.02495814
-0.03298455
-0.04473487
-0.05196298
-0.06189408
-0.06999748
-0.07987789
-0.09077555
-0.1015824
-0.1165924
-0.1266005
-0.1414471
-0.004286094
-8.684204e-06
-0.02273787
-0.02354825
-0.04294281
-0.04758298
-0.06064024
-0.07042674
-0.08279797
-0.09801894
-0.111981
-0.1370729
-0.1482906
-0.1820701
-0.007190097
-0.009162269
-0.02505518
-0.03024567
-0.04319434
-0.05106822
-0.06298325
-0.07411109
-0.08941016
-0.105201
-0.1288054
-0.1557132
-0.1827309
-0.240906
-0.003492095
-0.004363241
-0.0215223
-0.02487157
-0.03873879
-0.04652352
-0.05887614
-0.07160124
-0.08625552
-0.1075569
-0.1283851
-0.1731665
-0.2036959
-0.3408462
-0.004773967
-0.006769255
-0.02270053
-0.02697366
-0.03852296
-0.04675097
-0.05968603
-0.07218574
-0.09365125
-0.1126385
-0.1610281
-0.2037024
-0.3305124
-0.3643812
-0.003474805
-0.005100695
-0.01939898
-0.02288812
-0.03368885
-0.04097049
-0.05197199
-0.06290969
-0.07708387
-0.09323454
-0.1124055
-0.1427144
-0.1651019
-0.2077008
0.3282911
0.171189
0.3486644
-0.003505448
-0.004888264
-0.01859825
-0.02172731
-0.03135875
-0.03811933
-0.0498203
-0.05949651
-0.0819533
-0.09100766
-0.149922
-0.167535
-0.2894266
-0.3530279
-0.658914
-0.335134
-0.2654325
-0.2488501
-0.01162757
-0.07936361
-0.003076478
-0.003931868
-0.01574218
-0.01780697
-0.02600627
-0.03091983
-0.03931577
-0.04584027
-0.05574871
-0.06329522
-0.07422085
-0.09582093
-0.1127536
-0.2578114
-0.2166468
-0.06685199
0.02398769
0.1156585
0.1842501
0.2303523
-0.003266139
-0.00314412
-0.01330934
-0.01474514
-0.02199221
-0.02616005
-0.03413231
-0.04085471
-0.05255302
-0.06360822
-0.08239282
-0.1081228
-0.1358115
-0.1912079
-0.1895899
-0.1337252
-0.1018848
-0.08597061
-0.02019596
-0.01157076
-0.003616929
-0.002299103
-0.009892541
-0.01055054
-0.01646029
-0.01879094
-0.02392192
-0.02701448
-0.0312741
-0.03489772
-0.03561579
-0.04600475
-0.03376254
-0.06429295
0.006706107
0.03039402
0.07603706
0.1244339
0.1736374
0.2039832
-0.002474546
-0.0003647827
-0.007219912
-0.006828866
-0.01169237
-0.01299826
-0.01701734
-0.01942845
-0.02302339
-0.02680744
-0.02669212
-0.03745238
-0.02628025
-0.05911937
-0.03899321
-0.03220654
-0.008433006
0.006300642
0.0327404
0.05681132
-0.002073253
0.0009383919
-0.004565072
-0.003062881
-0.006650176
-0.006496409
-0.008593602
-0.008587304
-0.00891282
-0.00769771
-0.004182036
-4.443208e-05
0.01010901
0.02374239
0.03969371
0.05621597
0.08132978
0.1077767
0.1355138
0.1633829
-0.001416211
0.002316436
-0.002040074
0.0004652026
-0.002072629
-0.0009141357
-0.001930741
-0.001117799
-0.0007848071
0.0003921815
0.002794568
0.003856684
0.009752817
0.01134958
0.02245422
0.03146638
0.04727861
0.06257127
0.08030927
0.1010395
-0.0008370885
0.00381477
0.0003883283
0.003870206
0.002304593
0.004475548
0.004659353
0.0067566
0.00868644
0.01199786
0.01651182
0.02231708
0.03038594
0.0398856
0.05122422
0.06325031
0.07833451
0.09479413
0.1107309
0.1323113
5.854157e-05
0.005852566
0.002817607
0.007110927
0.006312547
0.00923964
0.01023422
0.01298633
0.0155206
0.0191204
0.02343682
0.02841982
0.03501048
0.04186059
0.05100844
0.06047777
0.07193327
0.08398751
0.09604111
0.1108706
0.000879396
0.007790035
0.005139382
0.01009765
0.009997038
0.01354085
0.01523401
0.01860191
0.02180156
0.02604345
0.03091701
0.03671507
0.04359862
0.05124172
0.05993485
0.0693066
0.07828983
0.08981802
0.09469447
0.1145894
0.001306329
0.009551165
0.007359248
0.01275319
0.01329151
0.01727465
0.01947745
0.02322025
0.0267689
0.03120179
0.03612974
0.04182213