/*--------------------------------*- C++ -*----------------------------------*\
  =========                 |
  \\      /  F ield         | OpenFOAM: The Open Source CFD Toolbox
   \\    /   O peration     | Website:  https://openfoam.org
    \\  /    A nd           | Version:  7
     \\/     M anipulation  |
\*---------------------------------------------------------------------------*/
FoamFile
{
    version     2.0;
    format      ascii;
    class       volScalarField;
    location    "0.09";
    object      epsilon;
}
// * * * * * * * * * * * * * * * * * * * * * * * * * * * * * * * * * * * * * //

dimensions      [0 2 -3 0 0 0 0];

internalField   nonuniform List<scalar> 
82743
(
0.00096369
0.0009892044
0.0009922828
0.0009910092
0.0009880663
0.0009855411
0.0009834237
0.0009820947
0.0009811539
0.0009825564
0.001030518
0.00104016
0.00104031
0.001037056
0.001033964
0.001031642
0.001030677
0.001030281
0.0009885299
0.001042842
0.001055523
0.00105553
0.001050345
0.001046158
0.001043449
0.001043379
0.001044789
0.0009887712
0.001042532
0.001052086
0.001047412
0.001033091
0.001030485
0.001026694
0.001030286
0.001037423
0.0009877849
0.001037689
0.001026998
0.00101731
0.0009954793
0.0009746269
0.0009635442
0.0009740638
0.001003603
0.0009862385
0.001032361
0.001018963
0.002294079
0.002721724
0.002063924
0.001996014
0.002038171
0.0021711
0.0009843905
0.001025315
0.0009907941
0.002170677
0.01348347
0.002097328
0.0009818862
0.001019235
0.0009804044
0.002123293
0.01317661
0.0009547294
0.0009796295
0.001015484
0.0009761925
0.002103689
0.01240734
0.000954064
0.0009774262
0.001012233
0.0009728233
0.002086929
0.01182654
0.0009572344
0.0009754253
0.001009561
0.0009698684
0.002071476
0.01130006
0.0009492105
0.0009739445
0.001007916
0.0009679108
0.002055825
0.01076302
0.002104012
0.0009734056
0.001009305
0.0009712517
0.002042015
0.01013041
0.002119505
0.000973804
0.001013786
0.0009962853
0.002120682
0.008135738
0.009917823
0.01060379
0.01074523
0.002233162
0.0009747541
0.001019887
0.001008516
0.001000939
0.000979145
0.0009771141
0.0009811988
0.0009960755
0.001021265
0.0009757463
0.001025786
0.001036985
0.001035004
0.001031549
0.001030854
0.001033458
0.001039204
0.001044463
0.0009761964
0.001029476
0.001045604
0.001048474
0.001049004
0.0010495
0.001050908
0.001052826
0.00105415
0.0009762602
0.00103046
0.001047958
0.001052351
0.001053857
0.001054526
0.001055223
0.001055884
0.001056124
0.01086123
0.01073793
0.01073205
0.01069614
0.01069044
0.01067648
0.01066787
0.01065898
0.01065355
0.01434991
0.01072043
0.01068195
0.01068049
0.01067203
0.01066706
0.01065108
0.01063766
0.01062833
0.01062359
0.01350406
0.01064161
0.01066215
0.01066929
0.01067431
0.01067841
0.01066082
0.0106416
0.01062924
0.01062304
0.01328352
0.01060236
0.01062753
0.01065543
0.01067994
0.01070106
0.01068033
0.01064988
0.01062783
0.01062027
0.01312624
0.01057833
0.01061183
0.01064086
0.0106946
0.01077842
0.01072338
0.01065727
0.01061363
0.01059647
0.01301775
0.01058176
0.01060714
0.01064439
0.01088745
0.01122836
0.01094308
0.01074975
0.01063207
0.01056682
0.01296542
0.01059006
0.01062153
0.01068907
0.01096382
0.01567572
0.01220157
0.01078818
0.01109411
0.01064918
0.01287858
0.01061092
0.01064242
0.01071289
0.01109432
0.01284384
0.0106265
0.01267639
0.01062389
0.0106541
0.01071495
0.01080046
0.01058057
0.01242351
0.01062747
0.01066307
0.01069491
0.01074461
0.01056498
0.01214989
0.01062623
0.01066079
0.01068507
0.01072714
0.01055541
0.01190108
0.01061841
0.0106592
0.01067849
0.01071596
0.01056122
0.01168175
0.01060551
0.01065694
0.01067989
0.01073135
0.01052078
0.01150546
0.01059452
0.01064655
0.0106814
0.01073875
0.01083015
0.01136982
0.01057122
0.01063008
0.01065911
0.01074191
0.01267002
0.001987429
0.002005204
0.003816718
0.01096068
0.01127525
0.01055341
0.01061143
0.01062859
0.01064361
0.01065067
0.01066614
0.0107117
0.01073162
0.01067927
0.01121854
0.01054984
0.01059762
0.01062068
0.01062267
0.01062409
0.01063132
0.01064373
0.01065382
0.01064197
0.01118437
0.01054353
0.01059192
0.01060933
0.01061851
0.0106195
0.01062153
0.0106267
0.01063132
0.01062883
0.01116176
0.01054079
0.01058838
0.01060616
0.0106177
0.01061815
0.01061921
0.01062151
0.01062426
0.01062428
0.01089495
0.01068913
0.01067473
0.01066198
0.01065535
0.01064453
0.01063625
0.01063067
0.0106271
0.01440516
0.01071936
0.01067888
0.0106865
0.01067452
0.0106712
0.01065537
0.01064174
0.01063199
0.01062666
0.01111315
0.01067358
0.01066257
0.01066744
0.01067444
0.01067723
0.01066162
0.010643
0.01063144
0.01062563
0.01111196
0.01065892
0.0106541
0.01066027
0.01068701
0.01070765
0.0106853
0.01065475
0.01063297
0.01062507
0.01105876
0.01065705
0.01064566
0.01066141
0.01073062
0.01081522
0.0107526
0.01068512
0.01064591
0.0106247
0.01109096
0.01065855
0.01064453
0.01067958
0.01096228
0.01130031
0.01098399
0.01080191
0.01069621
0.01062978
0.01107579
0.01067009
0.01065645
0.01069495
0.01096148
0.01616275
0.01232031
0.01078256
0.01112205
0.0106521
0.01109591
0.01067714
0.01067121
0.01070435
0.01107699
0.01352778
0.01062555
0.01101479
0.01068098
0.01066437
0.01071458
0.009908095
0.01051156
0.01097329
0.01067373
0.01068204
0.01068412
0.0009710489
0.001631029
0.01045961
0.01092678
0.01066532
0.01066829
0.01066956
0.0009742403
0.00148488
0.01059924
0.01088079
0.01065895
0.0106595
0.01066223
0.0009555021
0.001633556
0.01063668
0.01084616
0.01065316
0.01066741
0.01067507
0.01075499
0.0105437
0.01082424
0.01064612
0.01064903
0.01068088
0.01074209
0.01086176
0.01080685
0.01063826
0.01064157
0.01065675
0.01074805
0.01246082
0.002006385
0.002023556
0.003819874
0.01127549
0.01079682
0.01063418
0.0106321
0.01063015
0.01064442
0.01065356
0.01066709
0.01070576
0.01073164
0.01068306
0.01078664
0.01063105
0.01062633
0.01062521
0.01062541
0.01062781
0.01063437
0.01064771
0.01065349
0.01064694
0.01078404
0.01062949
0.01062476
0.0106226
0.01062213
0.01062325
0.01062493
0.01063002
0.01063473
0.01063309
0.01078262
0.01062888
0.01062343
0.0106221
0.01062154
0.01062163
0.01062244
0.01062479
0.01062722
0.01062749
0.0108794
0.01069116
0.01067421
0.01065623
0.01065293
0.01064182
0.01063482
0.01062922
0.01062608
0.01428408
0.01071945
0.0106816
0.0106856
0.01067576
0.01067193
0.0106551
0.01064134
0.01063143
0.0106262
0.01112805
0.01067247
0.01066396
0.01066739
0.0106758
0.01067892
0.01066242
0.01064346
0.01063179
0.0106257
0.01112833
0.01065863
0.01065387
0.01065968
0.01068734
0.01070823
0.01068563
0.01065478
0.01063292
0.01062512
0.01105231
0.01065851
0.01064562
0.01066052
0.01072941
0.01081715
0.01075525
0.01068632
0.01064648
0.01062498
0.01110844
0.01065987
0.01064355
0.01067661
0.01096199
0.01128013
0.01098284
0.01080983
0.01069655
0.01062996
0.01110993
0.01066783
0.01065549
0.01069419
0.01096866
0.0156178
0.01239855
0.01080778
0.01113245
0.01065322
0.01110232
0.010678
0.01067056
0.01070527
0.01108674
0.01345654
0.01062143
0.01102832
0.01068127
0.01066376
0.01072045
0.009888941
0.01047267
0.01098458
0.01067492
0.01068327
0.01068463
0.0009902849
0.001472068
0.01035764
0.01094151
0.01066766
0.01067305
0.01067855
0.001002312
0.001234754
0.01060389
0.01089505
0.01066149
0.01066261
0.0106685
0.0009756675
0.001471937
0.01064547
0.01086324
0.01065584
0.01066884
0.01067442
0.01076482
0.01055679
0.01083283
0.0106485
0.01064343
0.0106793
0.01073724
0.01084872
0.01081137
0.01064037
0.01064248
0.01065771
0.01075212
0.01241387
0.002008476
0.00202543
0.003792537
0.01126993
0.01080075
0.01063485
0.01063123
0.0106302
0.01064523
0.01065491
0.01066733
0.01070617
0.01072746
0.01068462
0.01079463
0.01063232
0.01062557
0.01062512
0.01062528
0.01062777
0.01063423
0.01064714
0.0106538
0.01064723
0.01079177
0.01063094
0.01062374
0.0106226
0.0106221
0.01062321
0.0106248
0.0106299
0.01063469
0.01063338
0.01078985
0.01063044
0.01062294
0.01062208
0.01062156
0.01062163
0.01062244
0.01062481
0.01062726
0.0106276
0.01089398
0.01068387
0.0106693
0.01065549
0.01065331
0.01064229
0.01063532
0.01062953
0.01062631
0.01448678
0.01072398
0.01067124
0.01068547
0.01067448
0.0106709
0.01065485
0.01064133
0.01063149
0.01062625
0.01116518
0.01067266
0.01066202
0.01066622
0.01067397
0.01067735
0.01066161
0.01064291
0.0106314
0.01062547
0.01112644
0.01065842
0.0106532
0.01065993
0.01068739
0.01070743
0.01068493
0.01065433
0.01063284
0.01062511
0.01108353
0.01065687
0.01064535
0.0106606
0.0107297
0.0108144
0.0107534
0.01068519
0.01064636
0.01062485
0.01112225
0.01066019
0.01064358
0.01067809
0.01096439
0.01128064
0.01098315
0.01080789
0.01069707
0.01063001
0.01109285
0.01067107
0.01065656
0.01069293
0.01096535
0.01560656
0.01240959
0.01080696
0.01114132
0.01065326
0.01112828
0.01067789
0.01067107
0.01070469
0.01109202
0.01354556
0.01062112
0.01103605
0.0106818
0.01066157
0.01072058
0.009893609
0.01046945
0.01099763
0.01067215
0.01068392
0.01068208
0.0009965983
0.001455606
0.01033584
0.01095283
0.01066546
0.01066667
0.01066916
0.001010033
0.001219403
0.01059559
0.01090295
0.01065934
0.01065562
0.01065955
0.0009818691
0.001455796
0.01064298
0.01086284
0.0106549
0.01066826
0.01067306
0.01075694
0.01056202
0.01083004
0.01064743
0.01064589
0.01068197
0.01073844
0.01084755
0.01081671
0.01063862
0.01064254
0.01065799
0.01074963
0.01246254
0.002008824
0.002025679
0.00379474
0.01126319
0.01080504
0.01063437
0.01063207
0.0106297
0.01064453
0.01065433
0.01066703
0.01070649
0.01072699
0.0106856
0.01079712
0.01063195
0.01062616
0.01062485
0.01062493
0.01062785
0.01063423
0.01064722
0.01065387
0.01064679
0.01079277
0.01062949
0.0106243
0.01062232
0.01062203
0.01062334
0.01062481
0.01062989
0.0106346
0.01063339
0.01079227
0.01062923
0.0106231
0.01062186
0.01062143
0.01062161
0.01062239
0.0106248
0.01062719
0.01062754
0.01088971
0.01068485
0.0106714
0.01065637
0.01065355
0.01064211
0.01063509
0.0106294
0.01062623
0.01467453
0.01071715
0.01067482
0.01068548
0.01067452
0.01067118
0.01065487
0.01064137
0.01063147
0.01062622
0.0111677
0.01067256
0.01066299
0.01066708
0.01067471
0.01067806
0.01066195
0.01064311
0.01063153
0.0106255
0.01114046
0.01065891
0.01065381
0.0106604
0.0106874
0.01070703
0.01068542
0.01065454
0.01063273
0.01062504
0.01106388
0.01065798
0.01064539
0.01066038
0.01072744
0.01081427
0.01075394
0.01068592
0.01064647
0.01062492
0.01112112
0.01065965
0.0106433
0.01067805
0.01095748
0.01129656
0.01098177
0.01080673
0.01069709
0.01063006
0.01110363
0.01066807
0.01065566
0.01069268
0.01096053
0.01614971
0.01229354
0.01079686
0.01114648
0.01065337
0.01111964
0.01067642
0.01067038
0.01070483
0.01109446
0.01344101
0.01062126
0.01103557
0.01068088
0.01066152
0.0107211
0.009891682
0.01046965
0.01099612
0.01067227
0.0106841
0.0106823
0.0009965368
0.001455442
0.010336
0.01095156
0.01066579
0.01066827
0.01067116
0.001009914
0.001219272
0.01059285
0.01089898
0.01065994
0.01065675
0.01066114
0.0009818699
0.001455813
0.01064105
0.01085822
0.01065469
0.01066837
0.01067308
0.01075755
0.0105626
0.01082964
0.0106474
0.0106455
0.01068179
0.01073753
0.01084839
0.01081669
0.01063848
0.01064247
0.01065779
0.01074979
0.01265683
0.002008928
0.002025847
0.003795237
0.01126186
0.01080451
0.01063452
0.01063202
0.01062967
0.01064454
0.01065438
0.01066705
0.01070662
0.010727
0.01068576
0.01079543
0.01063166
0.01062617
0.01062482
0.01062493
0.01062787
0.01063422
0.01064722
0.01065396
0.01064686
0.01079371
0.01062965
0.01062429
0.01062234
0.01062205
0.01062336
0.01062483
0.01062989
0.01063463
0.01063345
0.0107936
0.0106293
0.01062316
0.01062191
0.01062145
0.01062163
0.0106224
0.0106248
0.0106272
0.01062756
0.01089453
0.01068436
0.01066923
0.01065565
0.01065352
0.01064223
0.01063534
0.01062953
0.01062631
0.01466587
0.01072318
0.01067098
0.01068555
0.01067467
0.01067106
0.01065477
0.01064126
0.01063146
0.01062625
0.01115631
0.0106731
0.01066241
0.01066634
0.01067421
0.01067771
0.01066196
0.01064302
0.01063155
0.01062555
0.01112771
0.01065864
0.01065307
0.01065988
0.01068753
0.01070745
0.01068548
0.01065459
0.01063304
0.01062517
0.0110848
0.01065724
0.01064513
0.01066079
0.0107285
0.01081419
0.01075429
0.01068552
0.01064636
0.01062496
0.01112362
0.01066033
0.01064348
0.01067832
0.01095985
0.01128982
0.01098197
0.01080937
0.01069612
0.01063008
0.01109351
0.01067094
0.01065592
0.01069247
0.01096473
0.01591612
0.01240192
0.0108115
0.01113565
0.01065308
0.01113098
0.01067728
0.01067072
0.01070449
0.01109698
0.01338235
0.01062118
0.01104021
0.01068165
0.01066183
0.01072017
0.009891864
0.01047307
0.01100382
0.01067187
0.01068337
0.01068365
0.0009902196
0.001471535
0.01035812
0.01096854
0.01066637
0.01066892
0.01067147
0.001002453
0.001234171
0.01060373
0.01092349
0.01066097
0.01065882
0.01066339
0.0009758784
0.001471259
0.01064534
0.0108762
0.01065734
0.01066828
0.01067456
0.01076192
0.01056021
0.01083844
0.01064966
0.01064347
0.01067968
0.01073578
0.01084822
0.0108127
0.010641
0.01064232
0.01065778
0.01075222
0.01261002
0.002008783
0.002025799
0.003795639
0.01126299
0.01079796
0.01063507
0.01063109
0.01063015
0.01064526
0.01065496
0.01066736
0.01070654
0.01072682
0.01068557
0.01079266
0.0106324
0.0106255
0.01062514
0.01062526
0.01062775
0.01063419
0.01064716
0.01065394
0.01064692
0.01079015
0.01063108
0.0106238
0.01062267
0.01062211
0.01062321
0.01062479
0.01062988
0.0106347
0.01063354
0.01078993
0.01063067
0.010623
0.01062215
0.01062155
0.01062162
0.01062242
0.01062483
0.01062725
0.01062761
0.01089455
0.01069321
0.01067708
0.01065621
0.01065355
0.01064143
0.01063524
0.01062901
0.01062626
0.01457587
0.01072455
0.01068056
0.01068805
0.01067529
0.01067154
0.0106547
0.01064139
0.01063119
0.01062621
0.01115839
0.01067126
0.01066436
0.01066851
0.01067545
0.01067877
0.01066147
0.01064329
0.01063135
0.01062566
0.01111959
0.01065742
0.01065329
0.01066052
0.01068702
0.0107074
0.01068543
0.01065485
0.01063265
0.01062485
0.01104173
0.010657
0.01064572
0.01066071
0.01072914
0.01081564
0.0107536
0.010686
0.01064604
0.01062447
0.01110048
0.01065903
0.01064378
0.01067679
0.01095716
0.01129343
0.01097982
0.01080286
0.01069609
0.01062938
0.01109708
0.01066868
0.01065658
0.01069452
0.01096566
0.01617478
0.01237373
0.01081481
0.01112803
0.01065243
0.01110536
0.0106771
0.01067032
0.01070464
0.01109573
0.01340964
0.01062539
0.01102913
0.01068
0.01066441
0.01071577
0.009900175
0.01051084
0.01098918
0.01067383
0.01068178
0.01068556
0.0009718218
0.001628956
0.01045902
0.01094641
0.01067025
0.01067122
0.01067359
0.0009756625
0.001482736
0.01060415
0.01086968
0.01066332
0.01066125
0.01066428
0.0009569466
0.001631318
0.01063836
0.01084428
0.01065439
0.01066783
0.01067509
0.01075113
0.01054369
0.01081902
0.01064562
0.01064775
0.01068083
0.01074037
0.01085224
0.0108063
0.01063758
0.01064126
0.01065708
0.01074765
0.0125808
0.002008076
0.002025265
0.003796256
0.01125904
0.01079659
0.01063445
0.01063189
0.01063009
0.0106443
0.01065374
0.01066674
0.01070609
0.01072751
0.01068627
0.01078699
0.01063075
0.01062632
0.01062526
0.01062532
0.01062776
0.01063428
0.01064733
0.01065409
0.01064719
0.01078481
0.01063044
0.01062492
0.0106227
0.01062216
0.01062326
0.0106249
0.01062991
0.01063468
0.01063355
0.01077967
0.010629
0.0106235
0.01062223
0.01062159
0.01062163
0.01062244
0.0106248
0.01062723
0.01062761
0.01089237
0.01069592
0.01067447
0.01065903
0.01065398
0.01064285
0.01063524
0.01062966
0.01062654
0.01439466
0.0107109
0.01067832
0.01068514
0.0106725
0.01066865
0.01065102
0.01063769
0.01062822
0.01062293
0.01113117
0.0105607
0.01065178
0.01066265
0.01067166
0.01067425
0.01065806
0.01063939
0.0106279
0.01062212
0.01111079
0.01052815
0.01063321
0.01064394
0.01067598
0.01069633
0.01067504
0.01064432
0.01062473
0.01061815
0.01106416
0.01052172
0.01061963
0.0106326
0.01068752
0.01077483
0.01071973
0.01065644
0.01061288
0.01059679
0.01109569
0.01052102
0.01061347
0.01063838
0.01088073
0.01122164
0.01092846
0.01074455
0.01063086
0.01056401
0.01108786
0.010528
0.01063131
0.01068542
0.01096982
0.01616363
0.01235151
0.01082199
0.01113458
0.01065226
0.01110281
0.01054287
0.01065643
0.010707
0.01111892
0.01337785
0.01063218
0.01104129
0.0105516
0.01065789
0.01070822
0.01077694
0.01058885
0.01100489
0.01054574
0.01066587
0.0106863
0.0106605
0.01057046
0.01099882
0.01054665
0.01066818
0.01067747
0.01068846
0.01057658
0.01097849
0.01055832
0.01066416
0.01067241
0.01071551
0.01057835
0.01150631
0.01059543
0.01066023
0.01068067
0.01075262
0.01051526
0.01148148
0.01058564
0.01064584
0.01068175
0.01073429
0.01087451
0.01138883
0.01057212
0.01063275
0.01065863
0.01074726
0.01264421
0.002001808
0.002019514
0.00379282
0.01128475
0.01130086
0.01055158
0.01061264
0.01062845
0.01064377
0.01065075
0.01066632
0.01070283
0.01072447
0.01068242
0.01125118
0.01055224
0.01059922
0.01062061
0.01062253
0.01062404
0.01063115
0.01064439
0.01065065
0.01064411
0.01121466
0.01054209
0.01059265
0.01060856
0.01061845
0.01061948
0.0106215
0.01062653
0.01063176
0.01063064
0.01119267
0.01053852
0.01058913
0.01060516
0.01061748
0.01061797
0.01061919
0.01062153
0.010624
0.01062444
0.009508613
0.00945093
0.009676665
0.009813366
0.009928853
0.0100259
0.01009616
0.01015055
0.01018184
0.01465089
0.0009684155
0.0009950954
0.0009977667
0.0009956859
0.0009921688
0.000988974
0.0009878458
0.0009855083
0.0009840511
0.01409365
0.0009860534
0.001032455
0.001041509
0.001041313
0.001037779
0.001034546
0.00103217
0.001031173
0.001030754
0.01376795
0.0009925199
0.00104442
0.00105639
0.001055874
0.00105066
0.001046202
0.001043646
0.0010435
0.001045101
0.01347678
0.0009947075
0.001044036
0.00105261
0.001047306
0.00103245
0.001029104
0.001025795
0.00102998
0.001037374
0.01331779
0.0009925907
0.001039029
0.00102742
0.001016977
0.0009913901
0.0009676201
0.0009602161
0.0009737453
0.001003423
0.01337016
0.0009892603
0.001033263
0.001019521
0.008587581
0.01620633
0.01196751
0.01086432
0.01099422
0.01055106
0.01324374
0.000987183
0.00102608
0.0009918774
0.009397261
0.01343825
0.01060024
0.01281785
0.0009858129
0.001020175
0.000980691
0.009815906
0.01060332
0.01271051
0.0009833951
0.001016733
0.0009774129
0.009961662
0.01061787
0.01240267
0.0009830307
0.001014023
0.0009758201
0.01003115
0.01063207
0.01202373
0.0009819316
0.001011496
0.0009717337
0.01005793
0.01064843
0.01179411
0.000978236
0.00100969
0.0009710962
0.009950819
0.01070885
0.01224534
0.0009759642
0.001010567
0.0009745391
0.009844849
0.01107789
0.01227227
0.0009761064
0.001014691
0.000997346
0.009225046
0.01251381
0.001927229
0.001958533
0.00382099
0.01105814
0.0120703
0.0009758221
0.001020393
0.001008943
0.001001443
0.0009783396
0.0009757301
0.0009804171
0.0009950987
0.001019096
0.01200266
0.0009770966
0.001026381
0.001037467
0.001035466
0.001031751
0.001030991
0.001033553
0.001039247
0.001044561
0.01185683
0.0009776523
0.001030139
0.001046143
0.001049061
0.001049569
0.001050033
0.001051394
0.0010532
0.001054533
0.01184643
0.000978077
0.001031187
0.001048586
0.001053049
0.001054556
0.00105518
0.001055795
0.001056365
0.001056521
0.002130261
0.0111755
0.02285695
0.0116337
0.002030399
0.002110847
0.01026536
0.01001785
0.006603675
0.006186674
0.002120273
0.002126072
0.01013417
0.01010144
0.006333779
0.006335193
0.002113524
0.002110918
0.01026223
0.0102177
0.00664738
0.006655133
0.002103834
0.002103301
0.01031088
0.01028746
0.006880339
0.006876652
0.002091939
0.002089848
0.01040712
0.01037091
0.00717222
0.007173302
0.002082629
0.002082261
0.01044243
0.01042287
0.007397181
0.007396632
0.002074808
0.002074143
0.01047867
0.01046264
0.00759576
0.007596651
0.002069265
0.002069034
0.01049219
0.01048872
0.007725979
0.007731061
0.002064583
0.01050867
0.007837658
0.002136328
0.002189322
0.02069559
0.01128705
0.01851804
0.01116587
0.002185251
0.002194775
0.01798778
0.01105835
0.01727301
0.01101269
0.002179722
0.002184927
0.01684439
0.01096023
0.01661113
0.01095088
0.002171564
0.002179341
0.01630904
0.01092788
0.01621442
0.01092583
0.002166105
0.002175245
0.0159694
0.01091452
0.01602594
0.0109184
0.002162159
0.002171833
0.0158806
0.0109187
0.01593906
0.0109302
0.002208149
0.01284735
0.01630405
0.01245123
0.01121274
0.001962103
0.01088738
0.0107572
0.00211133
0.00469295
0.01098164
0.01062886
0.01078881
0.002152916
0.002158313
0.01589822
0.01091731
0.01556699
0.01093327
0.01347139
0.01350898
0.002139976
0.002144061
0.01547492
0.0108653
0.01501668
0.01086711
0.0126401
0.002125139
0.002127269
0.01490903
0.01081723
0.01437929
0.01082265
0.01204089
0.002109815
0.00211083
0.01421976
0.01076407
0.01375762
0.01076336
0.01151136
0.002095391
0.002095918
0.01356097
0.01071616
0.01318994
0.01070898
0.01098423
0.002082561
0.002083303
0.013055
0.01067633
0.0127205
0.0106605
0.0103761
0.002071101
0.002073479
0.01265497
0.0106414
0.01236465
0.01062024
0.00809919
0.004973439
0.005302776
0.01065451
0.01041796
0.002062523
0.002066396
0.01234327
0.01061065
0.01212016
0.01058722
0.002057166
0.002062441
0.01213189
0.01059309
0.01196764
0.01056853
0.002053757
0.002059461
0.01199605
0.01058066
0.01187267
0.01055657
0.002051479
0.002057503
0.011907
0.01057576
0.01180957
0.01055045
0.002049732
0.002055745
0.01184627
0.01057319
0.01054656
0.0112309
0.02412839
0.0116015
0.01114775
0.02745391
0.01161571
0.0124889
0.01064
0.0158784
0.01244251
0.01106566
0.0107702
0.01071692
0.01113261
0.01078734
0.01074022
0.01338611
0.01380155
0.007891808
0.01039434
0.01045286
0.01045977
0.01052132
0.004445281
0.01075983
0.01074326
0.0125937
0.004473426
0.01077106
0.01074863
0.01121919
0.02338017
0.01161704
0.01119153
0.02743212
0.01165574
0.01263408
0.01118134
0.01600305
0.01259657
0.01110977
0.01077439
0.01071964
0.01113
0.01077508
0.01071688
0.01339127
0.007851082
0.007876293
0.01061446
0.01148727
0.01055849
0.01125264
0.004473833
0.01077135
0.0107432
0.01258643
0.004476335
0.01077362
0.01074403
0.01520942
0.0112053
0.01090779
0.003789853
0.01502617
0.01119567
0.01090088
0.01119113
0.02574407
0.01159878
0.01121504
0.02684758
0.01166663
0.01238614
0.0111016
0.0156956
0.01240123
0.01111029
0.0107763
0.01071096
0.01114104
0.01077571
0.01070733
0.01337565
0.007873059
0.007872009
0.004476528
0.01077484
0.01074429
0.01261828
0.004476616
0.0107741
0.01074421
0.01504631
0.01118224
0.0109147
0.003794033
0.0150196
0.01118548
0.01091871
0.01119648
0.02398581
0.01163118
0.0112049
0.02425232
0.01164114
0.01238368
0.01113338
0.01570954
0.01242784
0.01109798
0.01077681
0.01071161
0.01114879
0.01077767
0.01071089
0.01337181
0.007841625
0.00786398
0.004476172
0.01077369
0.01074331
0.01265549
0.004476287
0.01077287
0.01074325
0.01502671
0.01118317
0.01092142
0.003795052
0.01499932
0.01118819
0.01092172
0.01121408
0.02461001
0.01167088
0.01120738
0.02482451
0.01165059
0.01265462
0.01111462
0.01612368
0.01256616
0.01117278
0.01077713
0.01071179
0.01114216
0.01077686
0.01070913
0.0134651
0.007874778
0.007833631
0.00447636
0.01077304
0.01074326
0.01244324
0.004476353
0.01077398
0.01074338
0.01501233
0.01118718
0.01092243
0.003795391
0.01501569
0.01118586
0.01092252
0.01120409
0.02442074
0.01163786
0.01118301
0.02446639
0.01157349
0.01239812
0.0110908
0.01598018
0.01251769
0.01122496
0.01077412
0.01070789
0.01112903
0.01077445
0.0107098
0.01356365
0.007873351
0.007875994
0.00447702
0.01077424
0.0107441
0.01241439
0.004476758
0.01077483
0.01074421
0.01503502
0.0111865
0.01092256
0.003795428
0.01504683
0.01118545
0.01092241
0.01120762
0.02630086
0.01168197
0.01119119
0.02477416
0.01158667
0.01250449
0.01112328
0.01605163
0.01246464
0.01120738
0.01077338
0.01072008
0.01112182
0.01077295
0.01072022
0.01358601
0.007870734
0.007845498
0.004476604
0.01077321
0.0107438
0.01247966
0.004474394
0.01077078
0.01074242
0.01498607
0.01119722
0.01091852
0.003795626
0.01507122
0.01118251
0.01092429
0.01118637
0.02630387
0.0116182
0.01117725
0.02506513
0.01165449
0.01251755
0.01114903
0.01565015
0.01237245
0.01069984
0.01078462
0.01073901
0.01109977
0.01076935
0.01071704
0.01290228
0.00789602
0.007888789
0.004473766
0.01077102
0.01074691
0.01260303
0.004439953
0.01076413
0.01074084
0.01509145
0.0111876
0.01092145
0.003795776
0.01512729
0.01119088
0.01093163
0.01114836
0.02534924
0.01151966
0.005147495
0.00220184
0.01010198
0.007600689
0.007610373
0.002114014
0.002115206
0.01015404
0.007769223
0.00780097
0.002105002
0.002099946
0.01103359
0.01412884
0.01098286
0.002238406
0.002242748
0.01094674
0.01359783
0.01099005
0.002228971
0.00224591
0.01098634
0.01343233
0.01097662
0.002209467
0.002214728
0.01256939
0.01115433
0.002688866
0.002156615
0.01305381
0.01112625
0.002003673
0.001967211
0.01075266
0.001953022
0.00194736
0.01062244
0.01078744
0.002031788
0.002109625
0.004657818
0.01096821
0.0130995
0.01098446
0.002196711
0.002203032
0.0138064
0.01387598
0.01337616
0.01257996
0.01229908
0.02147604
0.02315785
0.01186263
0.01062508
0.0123229
0.01063184
0.002102695
0.002088527
0.007924612
0.008263912
0.01082327
0.01156637
0.004893613
0.005504315
0.01062271
0.01202655
0.01057978
0.002087923
0.002091054
0.004392803
0.009830221
0.00975432
0.008279174
0.009369287
0.002051156
0.002045449
0.01498811
0.009091214
0.008335499
0.01122011
0.005352779
0.002113504
0.00219047
0.01058754
0.01197507
0.01056714
0.002063143
0.00206498
0.01059871
0.01184756
0.01059215
0.002065451
0.004424826
0.002089411
0.01057402
0.0117987
0.01054639
0.004427004
0.002084797
0.002070108
0.01058133
0.01172416
0.01056062
0.002057641
0.002079725
0.02463186
0.005560997
0.004784675
0.004526285
0.004826649
0.004557518
0.005035801
0.004560385
0.005064445
0.004580833
0.00538464
0.004517512
0.005357198
0.004521608
0.005635251
0.004472696
0.005594809
0.004481725
0.005941948
0.004430619
0.005895437
0.004435024
0.006189379
0.004391337
0.006133158
0.004400775
0.006407905
0.004361789
0.006351324
0.004370568
0.006570286
0.004337011
0.006508837
0.004348236
0.006703693
0.004319671
0.006646559
0.004329884
0.01823252
0.005559587
0.01906144
0.005422732
0.01647842
0.005303055
0.01687294
0.00518507
0.01567065
0.005150265
0.01596881
0.005065755
0.01521266
0.005056793
0.01545434
0.004995438
0.01498073
0.005005488
0.01518206
0.004957981
0.0148094
0.004977207
0.01501435
0.004933613
0.002382476
0.002248731
0.00504438
0.008603699
0.01291291
0.008881315
0.01536873
0.00203312
0.01196544
0.01115182
0.01454151
0.004948649
0.01480535
0.004893606
0.004812594
0.002140494
0.00466998
0.009409851
0.007735479
0.009761979
0.004508335
0.01415415
0.01481016
0.03968577
0.00468346
0.002085016
0.01067208
0.01057641
0.01407478
0.00488271
0.01436259
0.004823493
0.004624708
0.002117184
0.004541663
0.0098215
0.004559957
0.01005151
0.004555167
0.01305706
0.03546995
0.03535841
0.002049722
0.002108896
0.01036968
0.01053926
0.01355694
0.004797487
0.01382594
0.00474225
0.004504927
0.002100518
0.004447327
0.009987958
0.004509697
0.01014778
0.00447225
0.01235593
0.03158022
0.03167097
0.002118013
0.002128392
0.01049498
0.01054957
0.01302601
0.004703329
0.01327342
0.004657372
0.004413384
0.002083669
0.004366921
0.01002326
0.004427987
0.01017286
0.004389404
0.01178406
0.02874237
0.02879974
0.002128894
0.00213257
0.01052933
0.01055858
0.0125448
0.004610507
0.01276367
0.004576772
0.004333431
0.002066207
0.004287573
0.01000988
0.004345323
0.01016109
0.004296956
0.01124321
0.02631774
0.02624705
0.002124718
0.002079767
0.01057274
0.01056727
0.01214274
0.004526228
0.012325
0.004507531
0.004253933
0.002047657
0.004196935
0.00994802
0.004247184
0.01010612
0.004032098
0.01065828
0.02393995
0.02366254
0.002090629
0.004955572
0.01076391
0.01105631
0.01183088
0.004456197
0.0119726
0.004452327
0.004161372
0.002045299
0.003634173
0.009794453
0.004042654
0.009893407
0.003002893
0.009858082
0.02124273
0.02030558
0.004493707
0.01213199
0.004688746
0.01141156
0.01160331
0.004402575
0.01171723
0.004410458
0.009477216
0.002053362
0.002054193
0.003286686
0.004398458
0.009832741
0.009763143
0.00428026
0.002075463
0.002090957
0.001940979
0.001986791
0.00992619
0.009820333
0.004398678
0.002093972
0.002100251
0.001971141
0.004210736
0.009804299
0.009658585
0.00516655
0.002119185
0.002202598
0.003860677
0.01230122
0.008788619
0.008695154
0.01144575
0.004362287
0.01154206
0.004381345
0.01135318
0.004336995
0.01143484
0.004362979
0.01129183
0.004320545
0.01136573
0.004350745
0.01125186
0.004309483
0.01131974
0.004342369
0.02297682
0.02292361
0.01326111
0.01105962
0.01420384
0.01097693
0.01329241
0.01107556
0.01473625
0.01084609
0.01081832
0.01092348
0.007096816
0.01086903
0.001912569
0.01112151
0.007446513
0.01087861
0.001965997
0.01333418
0.01029498
0.008331754
0.01024862
0.008087955
0.004141618
0.01072676
0.01167141
0.01073272
0.004385234
0.01073108
0.01158609
0.01108413
0.01063171
0.01071107
0.01074627
0.01096963
0.0106341
0.01071157
0.01073156
0.003818157
0.01090922
0.01249154
0.01072475
0.003785794
0.01087654
0.004192112
0.01088126
0.01114221
0.002020339
0.004213538
0.01088536
0.01114127
0.01303576
0.01102601
0.01089503
0.00382645
0.01331575
0.01103688
0.01095262
0.02262579
0.02324569
0.01328005
0.01103154
0.01510339
0.0109668
0.0132795
0.01105209
0.01455859
0.01089956
0.01080567
0.01091217
0.007533746
0.01069881
0.001982372
0.01109513
0.00748729
0.01071187
0.001991489
0.01355671
0.01028365
0.008233706
0.01028385
0.008225407
0.004384528
0.01071636
0.01152603
0.01074032
0.004399126
0.01072337
0.01154187
0.01098628
0.01063002
0.01070884
0.01074736
0.01096945
0.01063027
0.01070823
0.01074383
0.00378612
0.01087155
0.01261168
0.01072354
0.003787865
0.01087299
0.004212079
0.01089866
0.01108108
0.002025486
0.004211718
0.01090302
0.01108334
0.01478845
0.02610392
0.01396655
0.003794277
0.0151141
0.0253629
0.01371975
0.02366077
0.02316428
0.01325087
0.01104443
0.01475464
0.01096977
0.01324635
0.01105816
0.01463698
0.01090596
0.01080683
0.01091076
0.007505692
0.01068237
0.001994288
0.01109676
0.007451434
0.01070502
0.001996525
0.01336385
0.01028018
0.008209576
0.01028227
0.008212728
0.004395051
0.01071473
0.01147254
0.01073574
0.004396749
0.01072182
0.01147871
0.01055242
0.01117314
0.01056404
0.01116857
0.01098435
0.01062985
0.01071384
0.01075152
0.01098894
0.0106299
0.01071401
0.01072746
0.003788832
0.01086765
0.01259335
0.0107225
0.003788852
0.01086599
0.004211432
0.01090116
0.01108478
0.0020258
0.004212064
0.01090161
0.0110875
0.01470489
0.02496215
0.01379619
0.003793578
0.0147048
0.02440015
0.01381822
0.02327023
0.02363958
0.01325752
0.01104182
0.01468564
0.01096693
0.01325766
0.01105301
0.01476313