/*--------------------------------*- C++ -*----------------------------------*\
  =========                 |
  \\      /  F ield         | OpenFOAM: The Open Source CFD Toolbox
   \\    /   O peration     | Website:  https://openfoam.org
    \\  /    A nd           | Version:  7
     \\/     M anipulation  |
\*---------------------------------------------------------------------------*/
FoamFile
{
    version     2.0;
    format      ascii;
    class       volScalarField;
    location    "0.09";
    object      nut;
}
// * * * * * * * * * * * * * * * * * * * * * * * * * * * * * * * * * * * * * //

dimensions      [0 2 -1 0 0 0 0];

internalField   nonuniform List<scalar> 
105056
(
0.0006551174
0.0006384674
0.0006369024
0.0006367729
0.0006368386
0.0006372584
0.0006066319
0.0006035209
0.0006032469
0.000603297
0.000635631
0.0006035938
0.0006000793
0.0005997085
0.0005997482
0.000635427
0.0006032045
0.000599583
0.0005991743
0.0005992142
0.0006353778
0.0006031316
0.0005994745
0.0005990343
0.0005990805
0.0006353825
0.0006031187
0.0005994435
0.0005989868
0.0005990359
0.000635384
0.0006031164
0.0005994348
0.0005989664
0.0005990176
0.0006353859
0.0006031145
0.0005994309
0.0005989661
0.0005990124
0.0006353869
0.000603109
0.0005994293
0.0005989692
0.0005990106
0.0006353915
0.0006031083
0.0005994285
0.0005989731
0.0005990105
0.0006353903
0.0006031089
0.0005994294
0.000598974
0.0005990108
0.0006353881
0.0006031099
0.0005994302
0.0005989751
0.0005990109
0.0006353891
0.0006031113
0.0005994319
0.0005989734
0.0005990104
0.0006353922
0.0006031128
0.0005994332
0.0005989725
0.0005990102
0.0006353871
0.000603112
0.0005994335
0.0005989703
0.0005990102
0.0006353941
0.0006031168
0.0005994352
0.0005989678
0.0005990103
0.0006353926
0.0006031429
0.0005994432
0.0005989595
0.0005990108
0.0006353879
0.0006031445
0.0005994508
0.0005989509
0.0005990129
0.0006353923
0.0006031507
0.0005994577
0.0005989559
0.0005990194
0.0006353734
0.0006031879
0.0005994801
0.0005989718
0.0005990389
0.0006353936
0.0006032329
0.0005995421
0.0005990388
0.0005991066
0.0006354843
0.0006033711
0.0005997377
0.0005992558
0.0005993195
0.0001012596
0.0006036937
0.0006001404
0.0005996913
0.0005997426
0.0005965647
0.0005971636
0.000597186
0.0005972257
0.0005972462
0.0001007066
0.0001005699
0.0001005412
0.0001005414
0.0001005408
0.0001005405
0.0001006655
0.0001005495
0.000100543
0.0001005405
0.0001005404
0.0001005401
0.0001006318
0.0001005473
0.0001005431
0.0001005402
0.0001005404
0.0001005401
0.0001006386
0.0001005491
0.000100543
0.0001005403
0.0001005404
0.0001005401
0.0001006381
0.0001005496
0.0001005432
0.0001005404
0.0001005404
0.0001005401
0.0001006378
0.0001005492
0.0001005437
0.0001005404
0.0001005404
0.0001005401
0.0001006379
0.0001005487
0.0001005439
0.0001005404
0.0001005404
0.0001005401
0.0001006385
0.0001005481
0.0001005439
0.0001005403
0.0001005404
0.0001005401
0.0001006383
0.0001005479
0.000100544
0.0001005403
0.0001005404
0.0001005401
0.0001006358
0.0001005481
0.000100544
0.0001005403
0.0001005404
0.0001005401
0.0001006362
0.0001005481
0.000100544
0.0001005403
0.0001005404
0.0001005401
0.0001006356
0.0001005485
0.000100544
0.0001005403
0.0001005404
0.0001005401
0.0001006336
0.0001005488
0.000100544
0.0001005404
0.0001005404
0.0001005401
0.000100625
0.0001005498
0.000100544
0.0001005404
0.0001005404
0.0001005401
0.0001006218
0.0001005496
0.000100544
0.0001005405
0.0001005404
0.0001005401
0.0001006264
0.0001005498
0.000100544
0.0001005405
0.0001005404
0.0001005401
0.0001006197
0.0001005513
0.0001005439
0.0001005405
0.0001005404
0.0001005401
0.0001006192
0.0001005511
0.0001005439
0.0001005405
0.0001005404
0.0001005401
0.0001006202
0.0001005509
0.0001005439
0.0001005405
0.0001005404
0.0001005401
0.0001006191
0.0001005525
0.0001005437
0.0001005405
0.0001005404
0.0001005401
0.0001006319
0.0001005522
0.0001005437
0.0001005405
0.0001005404
0.0001005401
0.0001006354
0.0001005515
0.0001005436
0.0001005404
0.0001005404
0.0001005401
0.0001006402
0.0001005493
0.0001005437
0.0001005403
0.0001005404
0.0001005401
0.0005976079
0.0005976052
0.000597657
0.0005977547
0.0005977441
0.0001006606
0.0001005494
0.0001005425
0.0001005406
0.0001005404
0.0001005401
0.0001006477
0.0001005472
0.0001005388
0.0001005409
0.00010054
0.0001005399
0.0001006776
0.0001005434
0.0001005427
0.0001005406
0.00010054
0.0001005399
0.0001006793
0.0001005416
0.0001005431
0.0001005402
0.0001005399
0.0001005399
0.0001006677
0.0001005409
0.0001005453
0.0001005399
0.0001005402
0.0001005399
0.0001006613
0.0001005412
0.000100545
0.0001005399
0.0001005404
0.0001005399
0.0001006538
0.0001005419
0.0001005448
0.0001005398
0.0001005404
0.0001005399
0.0001006524
0.0001005426
0.0001005446
0.0001005398
0.0001005405
0.0001005399
0.0001006516
0.0001005432
0.0001005445
0.0001005398
0.0001005405
0.0001005399
0.0001006504
0.0001005437
0.0001005445
0.0001005398
0.0001005405
0.0001005399
0.0001006507
0.000100544
0.0001005445
0.0001005398
0.0001005406
0.0001005399
0.0001006513
0.0001005442
0.0001005446
0.0001005398
0.0001005406
0.0001005399
0.000100652
0.0001005444
0.0001005447
0.0001005398
0.0001005406
0.0001005399
0.0001006514
0.0001005447
0.0001005449
0.0001005398
0.0001005407
0.0001005399
0.0001006539
0.0001005448
0.000100545
0.0001005398
0.0001005407
0.0001005399
0.0001006546
0.0001005451
0.0001005451
0.0001005398
0.0001005407
0.0001005399
0.000100655
0.0001005448
0.0001005452
0.0001005398
0.0001005407
0.0001005399
0.0001006547
0.0001005448
0.0001005452
0.0001005398
0.0001005407
0.0001005399
0.0001006548
0.0001005448
0.0001005452
0.0001005398
0.0001005407
0.0001005399
0.000100654
0.0001005448
0.0001005453
0.0001005398
0.0001005406
0.0001005399
0.0001006538
0.0001005444
0.0001005451
0.0001005398
0.0001005406
0.0001005399
0.0001006536
0.0001005444
0.0001005451
0.0001005398
0.0001005406
0.0001005399
0.0001006692
0.0001005455
0.0001005447
0.0001005398
0.0001005406
0.0001005399
0.0005976111
0.0005978791
0.0005978935
0.0005980113
0.0005979681
0.0001006235
0.0001005457
0.0001005431
0.0001005402
0.0001005404
0.0001005401
0.00010066
0.0001005419
0.0001005424
0.0001005406
0.00010054
0.0001005399
0.0001006437
0.0001005469
0.0001005387
0.0001005411
0.0001005399
0.0001005399
0.0001006406
0.0001005473
0.0001005407
0.0001005401
0.0001005401
0.0001005399
0.0001006343
0.0001005496
0.0001005392
0.0001005413
0.0001005401
0.0001005399
0.0001006422
0.0001005485
0.000100539
0.0001005414
0.00010054
0.00010054
0.0001006431
0.0001005473
0.0001005389
0.0001005415
0.00010054
0.00010054
0.0001006433
0.0001005463
0.0001005389
0.0001005415
0.00010054
0.00010054
0.000100643
0.0001005457
0.0001005389
0.0001005416
0.00010054
0.00010054
0.0001006428
0.0001005453
0.0001005389
0.0001005417
0.00010054
0.00010054
0.0001006426
0.0001005451
0.0001005389
0.0001005417
0.00010054
0.00010054
0.0001006421
0.000100545
0.000100539
0.0001005418
0.00010054
0.00010054
0.0001006408
0.0001005451
0.000100539
0.0001005419
0.00010054
0.00010054
0.0001006395
0.0001005452
0.000100539
0.0001005419
0.00010054
0.00010054
0.0001006386
0.0001005452
0.000100539
0.000100542
0.00010054
0.0001005401
0.0001006376
0.0001005453
0.000100539
0.0001005421
0.00010054
0.0001005401
0.0001006373
0.0001005452
0.0001005389
0.0001005421
0.00010054
0.0001005401
0.0001006386
0.0001005452
0.0001005389
0.0001005421
0.0001005401
0.0001005401
0.0001006405
0.000100545
0.0001005389
0.0001005421
0.00010054
0.0001005401
0.0001006423
0.000100545
0.0001005389
0.000100542
0.00010054
0.00010054
0.0001006429
0.0001005447
0.0001005389
0.0001005419
0.00010054
0.00010054
0.0001006438
0.0001005447
0.0001005389
0.0001005419
0.00010054
0.00010054
0.0001006412
0.0001005444
0.000100539
0.0001005418
0.00010054
0.00010054
0.0005976215
0.0005979186
0.0005979519
0.0005980832
0.0005980379
0.0001006558
0.0001005446
0.0001005431
0.0001005402
0.0001005404
0.0001005401
0.0001006672
0.0001005405
0.0001005426
0.0001005401
0.0001005399
0.0001005399
0.0001006986
0.0001005467
0.0001005405
0.0001005399
0.0001005401
0.0001005399
0.0001006322
0.000100544
0.0001005388
0.0001005418
0.00010054
0.00010054
0.0001007056
0.0001005429
0.0001005395
0.0001005406
0.0001005399
0.0001005399
0.000100657
0.0001005399
0.0001005399
0.00010054
0.0001005399
0.0001005399
0.0001006541
0.00010054
0.0001005398
0.0001005401
0.0001005399
0.0001005399
0.0001006536
0.0001005401
0.0001005398
0.0001005401
0.0001005399
0.0001005399
0.0001006534
0.0001005402
0.0001005398
0.0001005401
0.0001005399
0.0001005399
0.0001006556
0.0001005402
0.0001005397
0.0001005402
0.0001005399
0.0001005399
0.0001006595
0.0001005402
0.0001005397
0.0001005402
0.0001005399
0.0001005399
0.0001006647
0.0001005401
0.0001005397
0.0001005402
0.0001005399
0.0001005399
0.0001006703
0.0001005399
0.0001005398
0.00010054
0.0001005399
0.0001005399
0.0001006752
0.0001005398
0.0001005398
0.00010054
0.0001005399
0.0001005399
0.0001006795
0.0001005397
0.0001005398
0.00010054
0.0001005399
0.0001005399
0.0001006815
0.0001005397
0.0001005398
0.00010054
0.0001005399
0.0001005399
0.0001006799
0.0001005396
0.0001005398
0.0001005399
0.0001005399
0.0001005399
0.0001006768
0.0001005396
0.0001005398
0.0001005399
0.0001005399
0.0001005399
0.0001006741
0.0001005397
0.0001005398
0.0001005399
0.0001005399
0.0001005399
0.0001006717
0.0001005397
0.0001005398
0.0001005399
0.0001005399
0.0001005399
0.0001006679
0.0001005397
0.0001005398
0.0001005398
0.0001005399
0.0001005399
0.0001006598
0.0001005395
0.0001005398
0.0001005399
0.0001005399
0.0001005399
0.0001007648
0.0001005381
0.0001005401
0.0001005399
0.0001005399
0.0001005399
0.0005976273
0.0005978969
0.0005979468
0.0005980342
0.0005980401
0.0001006601
0.000100544
0.000100543
0.0001005403
0.0001005404
0.0001005401
0.0001006651
0.0001005403
0.0001005426
0.0001005401
0.0001005399
0.0001005399
0.0001006276
0.0001005467
0.0001005405
0.0001005399
0.0001005401
0.0001005399
0.0001006503
0.0001005436
0.0001005388
0.0001005417
0.00010054
0.00010054
0.0001006284
0.0001005416
0.0001005395
0.0001005404
0.0001005399
0.0001005399
0.0001006243
0.0001005392
0.0001005399
0.00010054
0.0001005399
0.0001005399
0.0001006229
0.0001005396
0.0001005398
0.00010054
0.0001005399
0.0001005399
0.0001006212
0.0001005398
0.0001005397
0.0001005401
0.0001005399
0.0001005399
0.0001006211
0.0001005399
0.0001005397
0.0001005401
0.0001005399
0.0001005399
0.0001006229
0.0001005397
0.0001005397
0.0001005401
0.0001005399
0.0001005399
0.0001006245
0.0001005394
0.0001005397
0.0001005401
0.0001005399
0.0001005399
0.0001006255
0.0001005392
0.0001005397
0.0001005401
0.0001005399
0.0001005399
0.0001006266
0.0001005391
0.0001005397
0.0001005399
0.0001005399
0.0001005399
0.0001006274
0.0001005391
0.0001005397
0.0001005398
0.0001005399
0.0001005399
0.0001006282
0.0001005391
0.0001005397
0.0001005398
0.0001005399
0.0001005399
0.0001006289
0.000100539
0.0001005397
0.0001005398
0.0001005399
0.0001005399
0.0001006297
0.0001005389
0.0001005397
0.0001005398
0.0001005399
0.0001005399
0.0001006294
0.0001005389
0.0001005397
0.0001005398
0.0001005399
0.0001005399
0.0001006281
0.000100539
0.0001005397
0.0001005398
0.0001005399
0.0001005399
0.0001006266
0.000100539
0.0001005397
0.0001005398
0.0001005399
0.0001005399
0.0001006246
0.0001005391
0.0001005397
0.0001005398
0.0001005399
0.0001005399
0.0001006222
0.0001005391
0.0001005397
0.0001005401
0.0001005399
0.0001005399
0.0001006527
0.0001005373
0.0001005399
0.0001005398
0.0001005399
0.0001005399
0.0005977378
0.0005978578
0.0005979144
0.0005979994
0.0005980021
0.0001006228
0.0001005459
0.0001005431
0.0001005401
0.0001005404
0.0001005401
0.0001006549
0.0001005415
0.0001005425
0.0001005406
0.00010054
0.0001005399
0.0001006971
0.0001005466
0.0001005387
0.0001005411
0.0001005399
0.0001005399
0.0001007732
0.0001005471
0.0001005406
0.0001005401
0.0001005401
0.0001005399
0.0001006753
0.0001005496
0.000100539
0.0001005413
0.0001005401
0.0001005399
0.0001006294
0.0001005484
0.0001005388
0.0001005414
0.00010054
0.00010054
0.0001006237
0.000100547
0.0001005387
0.0001005414
0.00010054
0.00010054
0.0001006226
0.0001005459
0.0001005387
0.0001005415
0.00010054
0.00010054
0.000100622
0.0001005453
0.0001005388
0.0001005416
0.00010054
0.00010054
0.0001006212
0.000100545
0.0001005388
0.0001005417
0.00010054
0.00010054
0.0001006207
0.0001005447
0.0001005388
0.0001005417
0.00010054
0.00010054
0.0001006205
0.0001005447
0.0001005389
0.0001005418
0.00010054
0.00010054
0.0001006207
0.0001005447
0.0001005389
0.0001005418
0.00010054
0.00010054
0.0001006203
0.0001005448
0.0001005389
0.0001005419
0.00010054
0.00010054
0.0001006204
0.0001005448
0.0001005389
0.000100542
0.00010054
0.00010054
0.0001006207
0.0001005449
0.0001005389
0.000100542
0.00010054
0.00010054
0.0001006205
0.0001005448
0.0001005388
0.000100542
0.00010054
0.00010054
0.0001006194
0.0001005448
0.0001005388
0.0001005421
0.00010054
0.00010054
0.0001006184
0.0001005447
0.0001005388
0.000100542
0.00010054
0.00010054
0.0001006179
0.0001005446
0.0001005389
0.000100542
0.00010054
0.00010054
0.0001006178
0.0001005443
0.0001005388
0.0001005419
0.00010054
0.00010054
0.0001006147
0.0001005443
0.0001005389
0.0001005418
0.00010054
0.00010054
0.0001006125
0.0001005445
0.0001005389
0.0001005417
0.00010054
0.00010054
0.0005977252
0.0005977556
0.0005977256
0.0005978251
0.0005978162
0.0001006564
0.0001005489
0.0001005426
0.0001005406
0.0001005404
0.0001005401
0.0001007154
0.0001005473
0.0001005388
0.0001005409
0.00010054
0.0001005399
0.0001007525
0.0001005428
0.0001005428
0.0001005405
0.00010054
0.0001005399
0.0001006693
0.000100541
0.0001005433
0.0001005402
0.0001005399
0.0001005399
0.0001006447
0.0001005402
0.0001005453
0.0001005399
0.0001005402
0.0001005399
0.0001006346
0.0001005405
0.000100545
0.0001005398
0.0001005404
0.0001005399
0.0001006324
0.0001005413
0.0001005448
0.0001005398
0.0001005404
0.0001005399
0.0001006315
0.0001005421
0.0001005445
0.0001005398
0.0001005405
0.0001005399
0.000100631
0.0001005427
0.0001005445
0.0001005398
0.0001005405
0.0001005399
0.0001006303
0.0001005431
0.0001005444
0.0001005398
0.0001005405
0.0001005399
0.0001006303
0.0001005434
0.0001005444
0.0001005398
0.0001005406
0.0001005399
0.0001006305
0.0001005438
0.0001005445
0.0001005398
0.0001005406
0.0001005399
0.0001006316
0.0001005437
0.0001005446
0.0001005398
0.0001005406
0.0001005399
0.0001006317
0.0001005442
0.0001005447
0.0001005398
0.0001005406
0.0001005399
0.0001006329
0.0001005441
0.0001005448
0.0001005398
0.0001005407
0.0001005399
0.0001006327
0.0001005445
0.0001005449
0.0001005398
0.0001005407
0.0001005399
0.0001006341
0.0001005442
0.000100545
0.0001005398
0.0001005407
0.0001005399
0.0001006348
0.0001005443
0.0001005451
0.0001005398
0.0001005407
0.0001005399
0.0001006344
0.0001005441
0.0001005451
0.0001005398
0.0001005407
0.0001005399
0.000100634
0.0001005433
0.000100545
0.0001005398
0.0001005406
0.0001005399
0.0001006324
0.0001005444
0.000100545
0.0001005398
0.0001005406
0.0001005399
0.000100632
0.0001005441
0.0001005449
0.0001005398
0.0001005406
0.0001005399
0.0001006297
0.0001005444
0.0001005445
0.0001005397
0.0001005405
0.0001005399
0.0005980754
0.000598547
0.0005984967
0.000598612
0.0005985808
0.0001009216
0.0001005695
0.0001005411
0.0001005414
0.0001005408
0.0001005405
0.000100789
0.0001005493
0.000100543
0.0001005405
0.0001005404
0.0001005401
0.000100654
0.000100547
0.0001005431
0.0001005402
0.0001005404
0.0001005401
0.0001006278
0.0001005488
0.0001005429
0.0001005403
0.0001005404
0.0001005401
0.0001006295
0.0001005492
0.0001005432
0.0001005404
0.0001005404
0.0001005401
0.0001006292
0.0001005488
0.0001005437
0.0001005404
0.0001005404
0.0001005401
0.0001006293
0.0001005482
0.0001005438
0.0001005403
0.0001005404
0.0001005401
0.000100628
0.0001005477
0.0001005438
0.0001005403
0.0001005404
0.0001005401
0.0001006276
0.0001005477
0.0001005438
0.0001005403
0.0001005404
0.0001005401
0.0001006276
0.0001005475
0.0001005439
0.0001005403
0.0001005404
0.0001005401
0.0001006317
0.0001005483
0.0001005439
0.0001005403
0.0001005404
0.0001005401
0.0001006314
0.0001005484
0.0001005439
0.0001005403
0.0001005404
0.0001005401
0.0001006394
0.0001005486
0.0001005439
0.0001005404
0.0001005404
0.0001005401
0.000100631
0.0001005483
0.0001005439
0.0001005404
0.0001005404
0.0001005401
0.0001006428
0.0001005496
0.0001005439
0.0001005405
0.0001005404
0.0001005401
0.0001006341
0.0001005492
0.0001005439
0.0001005405
0.0001005404
0.0001005401
0.0001006328
0.0001005504
0.0001005439
0.0001005405
0.0001005404
0.0001005401
0.0001006254
0.0001005501
0.0001005438
0.0001005405
0.0001005404
0.0001005401
0.0001006437
0.0001005515
0.0001005437
0.0001005405
0.0001005404
0.0001005401
0.0001006425
0.0001005527
0.0001005434
0.0001005405
0.0001005404
0.0001005401
0.0001006238
0.0001005502
0.0001005437
0.0001005404
0.0001005404
0.0001005401
0.0001006242
0.0001005504
0.0001005437
0.0001005403
0.0001005404
0.0001005401
0.0001006242
0.0001005487
0.0001005436
0.0001005403
0.0001005404
0.0001005401
0.0002122917
0.0002101341
0.0002100247
0.0002100807
0.0002100577
0.000101497
0.0001014101
0.0001011582
0.0001009056
0.0001009792
0.0001009392
0.0001009553
0.0001013437
0.0001010497
0.0001007456
0.0001008753
0.0001008388
0.0001009163
0.0001012125
0.0001010822
0.0001007519
0.0001008841
0.0001008366
0.0001009082
0.0001011786
0.0001010973
0.0001007434
0.0001008758
0.0001008298
0.0001009087
0.0001012064
0.0001011167
0.0001007514
0.0001008792
0.0001008268
0.0001009089
0.0001012204
0.0001011368
0.0001007549
0.000100877
0.0001008243
0.0001009087
0.000101223
0.0001011364
0.0001007613
0.0001008772
0.0001008237
0.0001009083
0.0001012308
0.0001011358
0.0001007614
0.000100878
0.0001008245
0.000100908
0.0001012263
0.0001011349
0.0001007599
0.0001008791
0.0001008277
0.0001009082
0.0001012377
0.0001011304
0.0001007595
0.0001008796
0.000100829
0.0001009099
0.0001012362
0.0001011246
0.0001007602
0.0001008807
0.0001008299
0.0001009101
0.0001012336
0.0001011225
0.0001007608
0.0001008817
0.0001008299
0.0001009115
0.000101224
0.0001011232
0.0001007605
0.0001008821
0.0001008294
0.00010091
0.0001012393
0.000101125
0.0001007622
0.0001008829
0.0001008283
0.0001009115
0.0001012315
0.0001011205
0.0001007635
0.0001008825
0.0001008273
0.000100911
0.0001012265
0.0001011169
0.0001007635
0.0001008828
0.0001008265
0.0001009109
0.0001012361
0.0001011112
0.000100762
0.0001008828
0.0001008268
0.0001009103
0.0001012247
0.0001011053
0.0001007606
0.0001008853
0.0001008254
0.0001009128
0.0001011721
0.0001010908
0.0001007765
0.0001008802
0.0001008186
0.0001021533
0.0001011327
0.0001010827
0.0001007701
0.0001008831
0.0001008176
0.00010115
0.0001012701
0.0001010927
0.0001007571
0.0001008858
0.0001008261
0.000102296
0.000101267
0.0001010925
0.000100759
0.0001008827
0.0001008201
0.0001024231
0.0001012497
0.000101108
0.0001007673
0.0001008809
0.0001008079
0.0003038792
0.0001881001
0.000100757
0.0001006235
0.0003055418
0.0002942179
0.0001014935
0.0001006903
0.0001028117
0.0001007688
0.0002937665
0.0002935103
0.0001009488
0.0001008194
0.0001027205
0.0001008876
0.0002935505
0.0002934457
0.0001009147
0.0001008939
0.0001025695
0.0001008985
0.0002934759
0.0002934395
0.0001009067
0.000100916
0.000102536
0.0001009106
0.0002934751
0.0002934392
0.0001009071
0.000100925
0.0001025246
0.0001009179
0.0002934711
0.0002934379
0.0001009073
0.0001009275
0.0001025105
0.0001009218
0.0002934648
0.0002934394
0.0001009073
0.0001009302
0.0001024708
0.0001009219
0.0002934616
0.0002934422
0.0001009072
0.0001009255
0.000102437
0.0001009151
0.0002934633
0.0002934454
0.0001009073
0.0001009233
0.0001024174
0.0001009184
0.0002934812
0.0002934437
0.0001009086
0.0001009254
0.0001024347
0.000100917
0.000293461
0.0002934444
0.0001009077
0.0001009222
0.0001024202
0.0001009153
0.0002934629
0.0002934426
0.000100908
0.0001009218
0.00010239
0.0001009125
0.0002934576
0.000293444
0.0001009081
0.0001009219
0.0001023851
0.0001009138
0.0002934694
0.0002934507
0.0001009105
0.0001009216
0.0001024151
0.0001009195
0.0002934477
0.0002934423
0.0001009106
0.0001009227
0.0001024289
0.0001009135
0.0002934668
0.0002934407
0.0001009103
0.0001009187
0.0001023838
0.0001009133
0.0002934502
0.0002934571
0.000100911
0.0001009191
0.000102315
0.0001009065
0.0002934416
0.0002934516
0.0001009108
0.0001009139
0.0001023537
0.0001009087
0.0002934517
0.0002934394
0.00010091
0.0001009072
0.0001023696
0.0001009071
0.0002934482
0.0002934673
0.0001009234
0.0001009128
0.0001010767
0.0001008819
0.0002934165
0.00029345
0.0001020765
0.0001009121
0.0001011041
0.0001008963
0.0002934289
0.0002935091
0.0001022356
0.0001009094
0.0001010428
0.0001009179
0.0002935049
0.0001016556
0.0001018812
0.0001009215
0.0001009203
0.0001009099
0.0002120541
0.0001014417
0.0001006554
0.0002098084
0.0001029024
0.0001007589
0.0002097277
0.0001010558
0.000100734
0.000209732
0.0001028217
0.000100738
0.0002095475
0.0001009513
0.0001007412
0.0002096548
0.0001011577
0.000100723
0.0002095013
0.0001023936
0.0001007418
0.0002096016
0.0001010862
0.0001007452
0.0002095253
0.0001025923
0.0001007561
0.0002095861
0.0001009156
0.0001007466
0.0002096322
0.0001024981
0.0001007424
0.0002095793
0.0001009186
0.0001007316
0.00020973
0.0001028116
0.0001007361
0.0002097142
0.0001010316
0.0001007217
0.0002097809
0.0001028887
0.0001007569
0.0002120538
0.0001014553
0.0001006564
0.0001881167
0.0001007575
0.0001006234
0.0003038784
0.0002099043
0.0001005224
0.0001005531
0.0003058937
0.0002945392
0.0002098693
0.0001005529
0.0001005452
0.0002944665
0.0002940279
0.0002099406
0.0001005461
0.0001005466
0.0002941369
0.0002940146
0.0002099249
0.0001005467
0.0001005452
0.0002941492
0.000294012
0.000100546
0.0002941396
0.0001006905
0.0001028109
0.0001007692
0.000305546
0.0002942167
0.0001008186
0.0001027186
0.0001008874
0.0002937676
0.0002935106
0.0001008925
0.0001025709
0.0001008978
0.0002935431
0.0002934469
0.0001009163
0.0001025406
0.0001009103
0.0002934809
0.0002934397
0.0001009241
0.0001025373
0.0001009179
0.0002934751
0.0002934399
0.0001009268
0.000102519
0.0001009201
0.0002934749
0.0002934381
0.0001009295
0.0001024733
0.0001009186
0.0002934646
0.000293439
0.0001009292
0.0001024387
0.0001009144
0.0002934651
0.0002934455
0.0001009302
0.0001024043
0.0001009162
0.0002934469
0.0002934485
0.0001009229
0.0001024495
0.0001009143
0.0002934425
0.0002934437
0.0001009147
0.0001023982
0.0001009161
0.0002934631
0.0002934434
0.0001009253
0.0001023782
0.0001009081
0.0002934547
0.0002934405
0.0001009143
0.0001023552
0.0001009042
0.0002934552
0.0002934328
0.0001008799
0.0001009287
0.0001009063
0.0002934403
0.0002934731
0.0001008883
0.0001009747
0.0001008817
0.0002934862
0.000293519
0.0001009014
0.0001009209
0.000100911
0.0002935166
0.0001011856
0.0001018362
0.000145502
0.0003058948
0.0002945391
0.0002122785
0.0002099048
0.0001005224
0.0001005532
0.0002944668
0.000294028
0.0002101346
0.0002098754
0.000100553
0.0001005451
0.000294136
0.0002940138
0.000210027
0.0002099413
0.0001005461
0.0001005466
0.0002941489
0.0002940108
0.0002100837
0.0002099268
0.0001005467
0.0001005452
0.0002941393
0.0002100603
0.0001005461
0.000100485
0.0001426431
0.0001003517
0.0001425982
0.0001005129
0.000142233
0.0001005011
0.0001425114
0.0001005501
0.0001422389
0.0001005093
0.0001424656
0.0001005789
0.0001422003
0.0001005174
0.0001424526
0.0001006019
0.0001421977
0.000100511
0.0001424439
0.0001006075
0.0001421898
0.000100511
0.0001424395
0.0001006083
0.0001421749
0.0001005116
0.0001424392
0.0001006026
0.0001421638
0.0001005232
0.0001424443
0.0001006073
0.0001421529
0.0001005239
0.0001424355
0.0001006083
0.0001425079
0.000100509
0.0001424355
0.0001006057
0.0001421397
0.0001005306
0.0001424364
0.0001006005
0.0001422682
0.000100536
0.0001424301
0.0001005975
0.000142132
0.0001005435
0.0001424235
0.0001006075
0.0001424799
0.0001005186
0.0001424208
0.0001006006
0.0001423506
0.0001005258
0.0001424268
0.000100611
0.000142487
0.0001005255
0.0001424203
0.0001005958
0.0001422789
0.0001005289
0.0001424159
0.0001006116
0.0001424683
0.0001004912
0.0001424191
0.0001006122
0.0001423896
0.000100512
0.0001423963
0.0001006073
0.0001424484
0.0001005026
0.0001424067
0.0001005902
0.0001422743
0.0001005506
0.0001423789
0.0001006256
0.00014237
0.0001005375
0.0001423919
0.0001005712
0.0001422463
0.0001005795
0.0001424121
0.0001018877
0.000101403
0.000101525
0.0001020037
0.0001023601
0.0001023399
0.0001024389
0.0001021334
0.0001024393
0.0001020705
0.0001025155
0.000102135
0.0001024997
0.000101985
0.0001019118
0.0001016956
0.0001013665
0.000102046
0.0001009355
0.0001024113
0.000100917
0.0002934625
0.0002934392
0.0001009212
0.0001023802
0.0001009084
0.0002934623
0.0002934404
0.0001009213
0.0001024221
0.0001009199
0.0002934606
0.0002934506
0.0001009262
0.0001024
0.0001009187
0.0002934518
0.000293488
0.0001008989
0.0001023524
0.0001008945
0.0002934362
0.0002934683
0.0001009041
0.0001017886
0.0001008757
0.0002934136
0.0002934371
0.000100933
0.0001022901
0.0001009212
0.0002934274
0.0002934325
0.0001010538
0.000143726
0.0001008028
0.0001481815
0.0001003053
0.0001427918
0.0001006808
0.0001478398
0.0001012944
0.0001020861
0.0001004783
0.0001425365
0.0001004227
0.0001423879
0.0001004932
0.0001424822
0.0001005319
0.0001421869
0.0001005159
0.0001424604
0.0001005539
0.00014223
0.0001005158
0.00014245
0.0001005782
0.000142205
0.0001005124
0.0001424454
0.0001005972
0.000142197
0.0001005097
0.0001424422
0.0001006003
0.0001421801
0.0001005127
0.0001424497
0.0001006002
0.0001421668
0.0001005191
0.000142442
0.0001005972
0.0001421573
0.0001005184
0.0001424719
0.0001006122
0.0001421472
0.0001005221
0.0001424394
0.0001006018
0.0001421446
0.0001005273
0.0001424359
0.0001006006
0.0001421381
0.0001005384
0.0001424301
0.0001005944
0.0001421305
0.0001005452
0.0001424452
0.0001006196
0.000142131
0.0001005489
0.0001424348
0.0001006094
0.0001421327
0.0001005406
0.0001424474
0.0001006205
0.0001421119
0.0001005379
0.0001424114
0.0001006131
0.0001423361
0.0001005459
0.0001424386
0.0001006253
0.000142114
0.0001005431
0.0001424217
0.000100625
0.0001421901
0.0001005436
0.0001424156
0.0001006214
0.0001420986
0.0001005455
0.0001423377
0.0001005932
0.0001423416
0.0001006085
0.0001423337
0.0001005684
0.0001421114
0.0001005756
0.000142345
0.0001005626
0.0001422509
0.0001006068
0.0001015848
0.0001421706
0.0001005061
0.0001018648
0.0001017082
0.000102276
0.0001019653
0.0001024588
0.0001024007
0.0001020844
0.0001023502
0.0001022946
0.0001025186
0.0001019962
0.000102395
0.000101669
0.0001020473
0.0001018642
0.0001012565
0.000101813
0.000145583
0.0001010379
0.000143721
0.0001008007
0.000148233
0.0001003241
0.0001427943
0.0001006883
0.0001478091
0.0001007113
0.0001437495
0.0001007897
0.0001433414
0.0001007655
0.0001433454
0.0001006937
0.0001434383
0.0001007218
0.0001435723
0.0001007961
0.0001433786
0.0001007937
0.0001433717
0.0001007029
0.0001435099
0.0001007188
0.0001435591
0.0001008069
0.0001433676
0.0001007865
0.0001433842
0.0001006969
0.0001435017
0.0001007227
0.0001435808
0.0001008066
0.0001433822
0.0001007935
0.0001433815
0.0001006996
0.0001435142
0.00010072
0.0001435712
0.0001008074
0.0001433766
0.0001007896
0.0001435111
0.0001004851
0.0001426482
0.0001003548
0.0001425986
0.0001004816
0.000142536
0.0001004218
0.0001423899
0.0001005089
0.0001422369
0.0001005011
0.0001425118
0.0001004924
0.0001424875
0.0001005355
0.0001421925
0.0001005481
0.000142241
0.0001005098
0.0001424674
0.0001005162
0.0001424618
0.0001005525
0.0001422306
0.0001005795
0.0001422053
0.0001005184
0.0001424527
0.0001005155
0.0001424499
0.0001005821
0.0001422067
0.0001006002
0.0001422004
0.0001005084
0.0001424471
0.0001005124
0.0001424465
0.0001005974
0.0001421978
0.0001006052
0.000142195
0.0001005112
0.0001424428
0.0001005094
0.000142439
0.0001006007
0.0001421815
0.000100609
0.0001421797
0.0001005078
0.0001424401
0.0001005116
0.0001424393
0.0001006017
0.0001421681
0.0001006088
0.0001421697
0.0001005166
0.0001424393
0.0001005148
0.0001424302
0.0001006079
0.0001421574
0.0001005943
0.0001421702
0.0001005211
0.0001424462
0.0001005347
0.0001424352
0.0001006154
0.0001421693
0.0001006053
0.0001423741
0.0001005191
0.0001424364
0.0001005338
0.0001424286
0.0001006075
0.0001421299
0.0001005819
0.0001421443
0.0001005359
0.0001422251
0.0001005465
0.0001424462
0.000100611
0.0001423469
0.0001006103
0.0001423891
0.000100521
0.0001424199
0.0001005465
0.0001424324
0.0001006358
0.0001421191
0.0001006124
0.0001424959
0.0001005039
0.0001424053
0.0001005485
0.0001423893
0.0001006004
0.0001421212
0.0001006228
0.0001420804
0.000100551
0.0001423533
0.0001005638
0.000142347
0.0001005421
0.0001420892
0.0001005235
0.0001420843
0.0001006208
0.0001423308
0.0001005026
0.0001421903
0.000100625
0.0001421101
0.000100596
0.0001462343
0.0001424079
0.0001005457
0.0001026536
0.0001017964
0.0001022647
0.0001009009
0.0001011481
0.0001005431
0.0001009183
0.0001012337
0.000182813
0.0001693393
0.0001053774
0.0001479058
0.0001051718
0.0001485179
0.0001057151
0.0001478635
0.0001057182
0.0001485073
0.0001056922
0.0001478323
0.0001056996
0.0001484855
0.0001057749
0.0001478168
0.0001057367
0.0001484421
0.0001058241
0.0001478064
0.0001057615
0.000148418
0.0001058688
0.0001478
0.000105777
0.0001483691
0.0001058865
0.0001477967
0.0001057847
0.0001483511
0.0001059121
0.0001477924
0.0001058017
0.0001482766
0.0001059066
0.0001477957
0.0001057853
0.0001483111
0.0001058016
0.0001481474
0.0001057339
0.0001482161
0.0001059067
0.0001477975
0.0001057881
0.0001483379
0.000105918
0.0001478556
0.000105786
0.0001482628
0.0001059221
0.0001478013
0.0001057908
0.0001483155
0.0001058462
0.0001482246
0.0001057466
0.0001482482
0.0001058957
0.0001479944
0.0001057467
0.0001482812
0.0001057678
0.0001482402
0.0001057474
0.0001482005
0.0001059118
0.0001479676
0.0001057293
0.0001482884
0.0001057738
0.0001483211
0.0001057916
0.0001481762
0.0001059006
0.000148166
0.0001057208
0.0001482879
0.0001057696
0.0001483306
0.0001057862
0.0001481588
0.0001059348
0.0001480803
0.0001056985
0.0001483128
0.0001058046
0.0001482791
0.0001057365
0.0001482397
0.0001059227
0.0001480111
0.000105753
0.0001482996
0.0001741058
0.0001739319
0.0001747802
0.0001736875
0.0001745624
0.0001747376
0.0001744904
0.0001746719
0.0001748441
0.0001735676
0.0001745653
0.0001749263
0.0001743157
0.0001740264
0.0001751958
0.0001757967
0.0001742746
0.0001740306