/*--------------------------------*- C++ -*----------------------------------*\
  =========                 |
  \\      /  F ield         | OpenFOAM: The Open Source CFD Toolbox
   \\    /   O peration     | Website:  https://openfoam.org
    \\  /    A nd           | Version:  7
     \\/     M anipulation  |
\*---------------------------------------------------------------------------*/
FoamFile
{
    version     2.0;
    format      ascii;
    class       volScalarField;
    location    "0.09";
    object      p;
}
// * * * * * * * * * * * * * * * * * * * * * * * * * * * * * * * * * * * * * //

dimensions      [0 2 -2 0 0 0 0];

internalField   nonuniform List<scalar> 
82743
(
0.5333492
0.5060152
0.4641989
0.5221169
0.4003206
0.4399087
0.3667559
0.3424703
0.284766
0.6169473
0.6116508
0.5171818
0.6861572
0.4938872
0.6770948
0.5843854
0.5470299
0.4612345
0.6548876
0.7062207
0.5273464
0.824326
0.5778082
0.9036176
0.7558622
0.745611
0.5740849
0.691722
0.7755851
0.4767031
0.9121282
-0.0706529
0.9956365
0.9559707
0.8869353
0.7246369
0.8564669
0.8132482
0.3145561
0.8196382
-0.02477063
1.160433
1.208007
1.252167
0.7018539
0.841244
0.5812838
-0.07145816
-0.9164765
-2.266387
0.1479413
1.006038
1.19628
0.86019
1.255652
1.12999
0.8453424
0.03932406
-1.980726
0.7525849
1.5639
1.528911
1.401557
1.069196
0.7550637
0.6489429
1.94876
1.96155
1.911337
1.773257
1.616177
0.5257593
2.231511
2.309792
2.294243
2.309087
2.165578
0.4338474
2.460616
2.589747
2.623566
2.721107
2.590217
0.2820279
2.610549
2.767633
2.82601
2.997082
2.937557
-0.1619364
2.680474
2.864237
2.94908
3.12575
3.211668
-0.9884396
2.672389
2.812575
2.839963
3.073499
3.335757
2.625365
2.003767
0.32772
0.3479391
2.610548
2.72633
2.656623
2.752718
2.606996
2.233022
1.984856
1.075765
1.263399
2.536572
2.620976
2.513934
2.532023
2.377087
2.141226
1.932484
1.478777
1.484506
2.467554
2.554179
2.419422
2.454035
2.311057
2.140588
2.011728
1.697003
1.686503
2.405384
2.486542
2.32908
2.358753
2.213751
2.111053
1.991707
1.816613
1.776338
0.3823258
0.2789299
0.2004592
0.1870838
0.1759243
0.1721573
0.1637127
0.1510127
0.1408535
0.7030239
0.5479466
0.4323969
0.4218246
0.4464395
0.3367214
0.4071623
0.3293094
0.323609
0.260419
0.7687155
0.539145
0.5891621
0.5028654
0.6566881
0.439343
0.6458792
0.5551443
0.5216988
0.4453241
0.7810339
0.5790614
0.6918364
0.5414752
0.8373308
0.4908387
0.9278427
0.7478657
0.7575977
0.569323
0.8480191
0.6099371
0.7614701
0.5013218
0.9588095
-0.1015727
1.024664
0.9019816
0.871571
0.7252324
0.9366354
0.7187998
0.8033327
0.3820722
0.7172851
-0.2848386
1.320906
1.346883
1.325705
0.7096272
1.063753
0.7215297
0.613986
-0.1123933
-0.8284706
-2.06538
0.1745388
0.9988497
1.155626
0.9018988
1.333986
1.131223
1.103718
0.7118095
-0.1120453
-3.541054
0.7995035
1.649185
1.454791
1.512711
1.323786
0.9602916
0.6387514
1.977626
1.839021
1.95882
1.871401
1.736501
0.5642296
2.263419
2.132437
2.308129
2.274606
2.261765
0.4076814
2.497153
2.381662
2.58756
2.614919
2.6368
0.334627
2.663756
2.538611
2.779252
2.807204
2.917558
-0.3025722
2.75502
2.625896
2.869701
2.987042
3.143881
-0.3156317
2.768705
2.596849
2.812649
2.871504
3.042731
3.267962
2.420667
1.680896
-1.449456
1.046824
2.724463
2.549958
2.713387
2.684146
2.768295
2.636457
2.197814
1.94187
1.027601
1.27573
2.664961
2.466047
2.610486
2.524522
2.536449
2.3841
2.135864
1.919833
1.453944
1.548495
2.600012
2.406109
2.539367
2.423506
2.452057
2.318014
2.137769
2.002407
1.697914
1.686917
2.542849
2.344821
2.466816
2.332731
2.357548
2.218837
2.113686
1.993287
1.81935
1.786989
0.5498276
0.6955443
0.3355228
0.450365
0.2461829
0.3108296
0.2508667
0.2265415
0.2087904
0.6770162
0.5571759
0.5471963
0.3447147
0.5374106
0.3050151
0.4360759
0.3428163
0.3303169
0.2791276
1.044016
0.5928178
0.7651669
0.5731251
0.7686005
0.4905309
0.69561
0.588408
0.5573417
0.47477
0.771371
0.6016092
0.7895956
0.5018377
0.8704445
0.5186641
0.9364363
0.739483
0.7486506
0.5681067
1.065746
0.5975782
0.8638004
0.4848824
1.00862
-0.02596621
1.024472
0.9186752
0.8912372
0.7440569
1.045571
0.8324378
0.9072221
0.3320569
0.762728
0.02128352
1.320155
1.26838
1.282733
0.7343559
1.14738
0.7776936
0.6525575
-0.133037
-0.7555254
-1.550081
0.2986478
1.028221
1.189853
0.9408996
1.439577
1.223457
1.161948
0.6654226
-0.1184508
-3.643898
0.7884412
1.749371
1.506213
1.530697
1.374574
0.872284
0.6742938
2.076998
1.889722
1.978769
1.878173
1.800647
0.5100617
0.5724408
2.353719
2.151875
2.327147
2.30682
2.411817
0.2902552
0.4680949
2.582467
2.381075
2.595024
2.605794
2.585357
0.05932518
0.4216645
2.737933
2.523378
2.800761
2.799661
2.980795
-0.6256176
2.818718
2.578622
2.923491
2.994099
3.187687
-0.2920528
2.883518
2.514554
2.871181
2.842269
3.05508
3.22249
2.405715
1.595172
-1.587145
0.34496
2.774274
2.542346
2.761199
2.653936
2.773541
2.607928
2.176009
1.846588
1.069018
1.199552
2.762082
2.435808
2.67555
2.486614
2.554841
2.370872
2.141573
1.894682
1.509123
1.496003
2.667378
2.392074
2.611934
2.388991
2.476082
2.30332
2.137322
1.978172
1.700768
1.674362
2.6237
2.326692
2.54657
2.303771
2.370409
2.205114
2.111959
1.978628
1.823359
1.771214
0.5562494
0.5458725
0.2084297
0.2484622
0.1434084
0.153851
0.113977
0.1018623
0.08095386
0.5628731
0.5676959
0.2257267
0.3026708
0.3908744
0.2942537
0.3959071
0.3152184
0.318825
0.2558618
1.017167
0.5826218
0.7427556
0.5218574
0.7079667
0.428393
0.645984
0.5420406
0.5162237
0.4372881
0.7304405
0.6054658
0.7415834
0.5148947
0.8584475
0.4863171
0.9668219
0.7543003
0.7656952
0.5747579
0.8673388
0.6424334
0.8362935
0.5240355
1.03078
-0.1450627
1.050446
0.9044869
0.8937292
0.7476604
0.9399537
0.7484012
0.8654386
0.3710284
0.7987853
-0.298509
1.465998
1.382372
1.312877
0.77112
1.032044
0.7311935
0.6394402
-0.1299822
-0.8063099
-2.186888
0.4020726
1.09139
1.240664
0.9808048
1.354883
1.158922
1.106703
0.6412315
-0.09760159
-3.426635
0.7686282
1.663814
1.472683
1.48271
1.369423
0.8100126
0.6977374
1.994831
1.846902
1.923718
1.867427
1.762555
0.5194409
0.584792
2.2792
2.12141
2.292611
2.310386
2.42451
0.222439
0.5006598
2.505263
2.359663
2.552963
2.60499
2.569116
0.01796647
0.4817089
2.662595
2.514309
2.778042
2.801454
3.041593
-0.856846
2.740405
2.612991
2.871257
2.961902
3.213815
-0.3092631
2.742347
2.602882
2.82195
2.848082
3.060974
3.202786
2.392528
1.567094
-1.483078
0.302559
2.687186
2.551202
2.729204
2.663291
2.767809
2.611387
2.171852
1.830697
1.087289
1.196562
2.636664
2.481865
2.632961
2.505469
2.552702
2.375815
2.144083
1.891663
1.510469
1.502785
2.561478
2.419878
2.567377
2.405083
2.467475
2.309142
2.138926
1.972087
1.708915
1.670566
2.514316
2.360999
2.498176
2.321387
2.374064
2.213282
2.1206
1.981523
1.831146
1.775859
0.6441731
0.7963517
0.3270943
0.4748077
0.2122385
0.2342943
0.1714932
0.1530254
0.1283642
0.6654581
0.7062194
0.6075151
0.3422984
0.5319374
0.2873329
0.3949167
0.3007846
0.3018909
0.239456
1.143969
0.6746181
0.8376127
0.5626926
0.7953439
0.4580538
0.6825676
0.5618711
0.5376333
0.4550542
0.7454005
0.606746
0.8265275
0.4964077
0.8895738
0.4845323
0.9669883
0.7466493
0.757763
0.5669416
1.099758
0.6022165
0.8955843
0.4844971
1.045909
-0.1255051
1.061548
0.9128493
0.9059862
0.7594788
1.043565
0.8427754
0.9266503
0.3110663
0.7951273
-0.2600666
1.464645
1.377999
1.303468
0.7748021
1.121245
0.7778731
0.6565217
-0.1556062
-0.8092872
-2.043188
0.4199155
1.116193
1.256509
1.004593
1.410292
1.22129
1.145493
0.6168452
-0.1149709
-3.552832
0.7682557
1.707422
1.505168
1.501802
1.366641
0.7979203
0.7066534
2.028792
1.890495
1.944107
1.861933
1.75191
0.5215656
0.58607
2.304464
2.140868
2.309468
2.306141
2.423086
0.1904305
0.5189559
2.526094
2.370912
2.568654
2.594016
2.554683
0.01177427
0.5160994
2.687435
2.50732
2.794726
2.793794
3.068338
-1.020174
2.756422
2.578422
2.916793
2.981219
3.233523
-0.4576841
2.819796
2.513183
2.870676
2.848821
3.069055
3.219663
2.385718
1.553467
-1.484637
0.2626815
2.728007
2.528935
2.751889
2.646127
2.775544
2.599344
2.166294
1.808559
1.082934
1.171408
2.72239
2.454047
2.671574
2.487807
2.560251
2.36653
2.142556
1.880247
1.511654
1.48919
2.65975
2.359427
2.609947
2.382643
2.478374
2.297779
2.136134
1.961098
1.704944
1.662339
2.55329
2.325648
2.543623
2.299951
2.375432
2.201903
2.114625
1.972087
1.827002
1.767658
0.6651202
0.5778038
0.2255417
0.2818608
0.1578633
0.1649538
0.1196789
0.1071898
0.08349215
0.852369
0.55044
0.1612834
0.2750612
0.3740521
0.2903778
0.3918936
0.3094453
0.3184191
0.2518636
1.052679
0.6080992
0.7863977
0.5301987
0.7262768
0.4407693
0.6454488
0.5363885
0.5142502
0.4324059
0.7426431
0.6165444
0.7797819
0.5133888
0.86366
0.5413842
0.966944
0.7570276
0.7675539
0.5756239
0.8756262
0.6633324
0.8611479
0.4949555
0.9968344
-0.02462623
1.045136
0.892017
0.8960228
0.7507001
0.9531933
0.7641618
0.8848622
0.3707923
0.7508965
-0.004400316
1.363243
1.346568
1.287447
0.7716956
1.033208
0.7428362
0.6421409
-0.1515374
-0.7656169
-1.685775
0.3395502
1.099629
1.255538
1.008832
1.358396
1.173037
1.114209
0.6122878
-0.1237052
-3.592352
0.7533391
1.664929
1.475673
1.479239
1.361917
0.7888405
0.7121797
1.997282
1.858889
1.921013
1.860765
1.74482
0.5316583
0.5962295
2.28612
2.124016
2.296063
2.306779
2.423298
0.1235668
0.5545077
2.512321
2.356166
2.557791
2.597171
2.56096
-0.006507545
0.5293248
2.686996
2.498898
2.788778
2.796127
3.075441
-1.05174
2.760925
2.586089
2.912591
2.977727
3.237991
-0.4780068
2.857472
2.488904
2.865841
2.847491
3.068456
3.258755
2.381014
1.545161
-1.512262
0.2447927
2.735475
2.539924
2.750059
2.647983
2.775014
2.597356
2.165538
1.803469
1.081841
1.167928
2.75056
2.421156
2.667573
2.485553
2.559488
2.365808
2.143455
1.878752
1.513312
1.488898
2.610947
2.395308
2.604823
2.389486
2.479744
2.298227
2.137772
1.959179
1.707275
1.660869
2.551476
2.347742
2.529964
2.30577
2.378458
2.204127
2.118223
1.97282
1.830223
1.768362
0.6810793
0.7604036
0.3050135
0.4401366
0.2012275
0.2184841
0.1591126
0.1412827
0.1178614
0.8216501
0.5731875
0.5213941
0.3231412
0.5058864
0.2894328
0.391242
0.2988857
0.3017723
0.2377277
1.170139
0.6478917
0.8214164
0.5560983
0.7765269
0.4580229
0.6737565
0.5557202
0.531908
0.4485441
0.7542609
0.5961258
0.8246564
0.500801
0.8758777
0.5041829
0.9650523
0.7475684
0.7578418
0.5657146
1.099238
0.595433
0.8831079
0.4740635
0.9962193
-0.1004056
1.055651
0.9136962
0.9033764
0.7575183
1.040785
0.8458403
0.9127039
0.311424
0.7397361
-0.2117851
1.467113
1.379264
1.295808
0.7780475
1.110228
0.7677093
0.6441645
-0.1805649
-0.7914865
-1.693652
0.5602861
1.16053
1.262408
1.008298
1.402819
1.210122
1.134488
0.6056033
-0.1406708
-3.678057
0.7640697
1.704526
1.501661
1.496998
1.351043
0.7937739
0.6996742
2.021913
1.882943
1.93742
1.859885
1.757553
0.5189556
0.5833409
2.300179
2.132007
2.29985
2.300151
2.419554
0.2111365
0.4934418
2.510037
2.362069
2.56246
2.596769
2.566399
0.0005911091
0.492563
2.659255
2.489818
2.785135
2.790553
3.050218
-0.9784031
2.736514
2.598365
2.87923
2.964041
3.221765
-0.3880391
2.736601
2.596771
2.827799
2.844069
3.060027
3.260825
2.378204
1.541091
-1.520994
0.2555135
2.688917
2.545786
2.730824
2.656321
2.764271
2.599197
2.160605
1.80056
1.07768
1.165998
2.638671
2.482852
2.635516
2.498155
2.551345
2.367746
2.142243
1.879326
1.514312
1.488044
2.576438
2.402292
2.574926
2.398929
2.466841
2.299582
2.131987
1.957685
1.704838
1.658683
2.53782
2.343382
2.512036
2.312179
2.371862
2.204381
2.115745
1.972985
1.830004
1.767173
0.6452218
0.5242417
0.2110606
0.2439409
0.1407495
0.1475923
0.1055364
0.0988305
0.07337743
0.632549
0.5993348
0.3152883
0.3319019
0.4150255
0.3144965
0.4106436
0.3190787
0.3401036
0.2642184
1.053412
0.6346584
0.7481455
0.5240239
0.6996276
0.4405622
0.64349
0.5331116
0.5138646
0.4221315
0.7507659
0.6258964
0.7436549
0.5287634
0.8620075
0.5699489
0.9710594
0.7581387
0.7660056
0.5772511
0.8672214
0.6403563
0.828705
0.4949531
0.9690918
0.008032548
1.050464
0.9090091
0.8913061
0.7369228
0.9483036
0.7453433
0.858073
0.3882007
0.7309714
0.06565078
1.437104
1.34484
1.288021
0.760357
1.038238
0.7355376
0.6356084
-0.159319
-0.7883542
-1.681719
0.4237504
1.123964
1.247312
0.9785457
1.361401
1.167061
1.114629
0.6400938
-0.1506503
-3.701102
0.7624174
1.673821
1.475579
1.497124
1.346842
0.8209393
0.6698223
2.003745
1.84739
1.941868
1.866647
1.780991
0.5018138
0.5661858
2.313465
2.131088
2.298262
2.288691
2.387429
0.2918671
0.4434874
2.518941
2.367019
2.56627
2.595487
2.563496
0.07409658
0.4204454
2.704717
2.49117
2.781826
2.779701
3.027569
-0.695539
2.81301
2.578818
2.913489
2.983661
3.205627
-0.1478066
2.902338
2.491332
2.85865
2.833509
3.054077
3.264259
2.379908
1.540431
-1.534132
0.3072929
2.795532
2.579476
2.759532
2.651927
2.768346
2.59255
2.164502
1.806749
1.077319
1.176261
2.830701
2.39723
2.654806
2.473631
2.549291
2.36076
2.141585
1.881366
1.517071
1.487079
2.661226
2.406842
2.604845
2.392634
2.475059
2.294099
2.133353
1.959438
1.704231
1.659967
2.702036
2.286921
2.529513
2.291614
2.363312
2.197273
2.112533
1.971247
1.828555
1.76571
0.606218
0.6576052
0.2971029
0.3809909
0.2131066
0.2421858
0.1875574
0.1789552
0.1530551
0.6146353
0.5557771
0.4695117
0.343549
0.4925217
0.2975118
0.4019165
0.3092062
0.3089947
0.2495519
1.085586
0.5854125
0.734453
0.5427312
0.7391503
0.46659
0.6701035
0.5552256
0.5348545
0.4468208
0.7615387
0.6114402
0.7712091
0.507808
0.8567874
0.5015733
0.9270726
0.7342335
0.7507072
0.5593802
1.048
0.5750186
0.8435953
0.475372
0.9625746
-0.06794765
1.004764
0.904068
0.8753266
0.7309756
1.032619
0.822724
0.8885055
0.312986
0.7140722
-0.1956736
1.321042
1.264603
1.299878
0.7063862
1.127942
0.7496121
0.6259698
-0.1713175
-0.8009637
-2.021773
0.2540256
1.060825
1.20779
0.9421733
1.419594
1.197177
1.150209
0.6726444
-0.1254793
-3.696309
0.7775187
1.737499
1.488228
1.526326
1.298276
0.9268278
0.6371433
2.044824
1.869388
1.959243
1.872125
1.699602
0.5648207
2.337905
2.122707
2.311734
2.2533
2.256851
0.4011752
2.480516
2.339949
2.596375
2.605149
2.675915
0.3451795
2.322416
2.43181
2.805375
2.782479
3.024935
-0.5607197
2.708505
2.603469
2.8832
2.985774
3.202281
-0.03057203
2.763718
2.558073
2.813772
2.857213
3.054501
3.265231
2.391204
1.559742
-1.528619
0.3345789
2.731909
2.54224
2.710585
2.671777
2.757915
2.607453
2.165176
1.819534
1.067627
1.156212
2.673912
2.444338
2.611724
2.510963
2.534339
2.369785
2.145702
1.892414
1.525829
1.484391
2.606837
2.404392
2.54245
2.416127
2.449355
2.300073
2.127328
1.963862
1.702582
1.657962
2.55207
2.333912
2.476725
2.323188
2.359531
2.20688
2.11341
1.978531
1.832611
1.767005
0.3579508
0.1548703
0.1308857
0.1314129
0.1045032
0.1055554
0.09533513
0.08848839
0.07587837
0.6284648
0.6249195
0.5060362
0.4530327
0.5160429
0.3678994
0.4386037
0.3450685
0.355399
0.2792035
0.877554
0.5719141
0.6051515
0.5015468
0.6790013
0.4657316
0.6524543
0.5411124
0.521187
0.4267944
0.9824855
0.6220039
0.7157358
0.5198546
0.8270833
0.5711186
0.8985721
0.7449859
0.7459311
0.5724297
0.9750896
0.6153048
0.7729034
0.4397637
0.8876293
0.06786892
0.9577485
0.936279
0.8820544
0.7171474
1.102275
0.7504924
0.8038934
0.3332818
0.7761254
0.122554
1.114109
1.135131
1.205536
0.7128133
1.209005
0.7538047
0.580502
-0.1110399
-0.8367134
-1.62479
-0.06675016
0.943867
1.124563
0.8844281
1.495102
1.192635
1.119022
0.818669
-0.1794633
-3.328623
0.7433085
1.795206
1.493412
1.524625
1.338224
0.9931737
0.6514949
2.113986
1.878949
1.954569
1.903226
1.760907
0.562899
2.414187
2.154045
2.306738
2.25448
2.285716
0.4279157
2.617941
2.413
2.593246
2.599819
2.683257
0.2073348
2.651434
2.532545
2.771654
2.779204
3.037997
-0.2662081
2.68348
2.668296
2.856374
2.956591
3.189779
-1.574034
2.742217
2.64096
2.803825
2.823243
3.041318
3.225571
2.439738
1.637739
-1.237529
0.2382608
2.788089
2.608966
2.717645
2.648286
2.738207
2.585183
2.187056
1.866611
1.09566
1.135816
2.741536
2.513636
2.614427
2.502199
2.527307
2.362351
2.152921
1.911907
1.5482
1.462338
2.672516
2.468813
2.552177
2.413528
2.450594
2.293932
2.12817
1.972432
1.696033
1.656255
2.615974
2.39325
2.486785
2.318197
2.35761
2.202707
2.111695
1.978936
1.830706
1.763412
0.3785679
0.0249253
0.2958305
0.1801885
0.2820461
0.5384222
0.1075863
0.1000875
0.1382233
0.1674959
0.4729839
0.4796182
0.09855383
0.0814297
0.250974
0.1587094
0.4045921
0.5553614
0.07517106
0.06511936
0.1487387
0.1384208
0.3819023
0.446629
0.06542989
0.06173209
0.1721836
0.1729613
0.3218368
0.4389162
0.06072287
0.05007015
0.1443438
0.1539355
0.3170837
0.3644825
0.05592206
0.05144252
0.1755069
0.1631566
0.2855033
0.3213225
0.05486188
0.04736737
0.157687
0.1339604
0.2538988
0.2646299
0.04865954
0.04452006
0.139289
0.1110457
0.2184172
0.04502236
0.1092211
0.4101777
0.4802451
0.4667124
0.3425216
0.5705981
0.471831
0.5507364
0.5581129
0.6514537
0.5247644
0.6702984
0.6036076
0.6407496
0.6275124
0.7954285
0.6325338
0.7192041
0.6728177
0.7410945
0.7082933
0.8517388
0.7236579
0.8036498
0.7514513
0.8412531
0.8247305
0.9373378
0.8343888
0.9234836
0.8579194
1.00331
0.9386562
1.02366
0.97484
1.106657
0.9842166
-4.203888
-2.805566
-1.707442
-2.802034
-4.703797
1.191734
0.9214659
1.186539
0.993997
0.7923317
1.166083
0.9948043
0.7676992
1.198428
1.239736
1.256792
1.20505
1.424888
1.294941
0.6050513
-3.287352
1.582594
1.615295
1.583049
1.56684
1.761677
1.649476
1.534117
1.897633
1.942695
1.907963
1.872492
2.078647
1.96845
2.103079
2.192528
2.223207
2.211096
2.177865
2.340582
2.245957
2.537904
2.432625
2.443032
2.471721
2.423782
2.537132
2.467237
2.890003
2.622501
2.591444
2.672412
2.612097
2.672657
2.610078
3.157323
2.712744
2.648371
2.788662
2.697714
2.728946
2.668961
3.581893
-2.191792
-1.958611
-4.327203
-2.035604
2.720565
2.635574
2.82313
2.709165
2.72174
2.661134
2.675853
2.591567
2.798469
2.670655
2.669995
2.618994
2.614829
2.527015
2.740918
2.616572
2.606054
2.555949
2.556608
2.465663
2.674993
2.556358
2.540679
2.488306
2.500745
2.40993
2.613785
2.500551
2.431635
0.03106572
0.8310401
0.3077529
0.06592665
0.4883314
0.2260088
-3.501398
-4.932518
-1.987727
-3.440515
-5.257741
1.026793
0.7663974
1.225145
1.040294
0.7521879
-3.59191
3.637927
3.494559
-5.663712
-1.373203
-6.186923
-1.460635
2.704086
2.835796
2.681293
3.275989
2.694717
2.863373
2.696406
0.07211411
1.067579
0.2211458
0.07048688
0.8343209
0.2504922
-2.503594
-5.03208
-1.791061
-2.902116
-5.049852
1.017471
0.7468163
1.229581
1.03255
0.7629897
-3.470689
3.491711
3.471233
-6.78932
-1.483322
-6.635841
-1.508148
2.690157
2.845894
2.687531
3.272554
2.681846
2.842414
2.680785
0.3777549
0.4817359
0.7594132
-1.476611
0.3760598
0.4152396
0.7402189
0.06717995
0.7838641
0.2322379
0.06965961
0.7636967
0.2367451
-3.492679
-4.845767
-2.111572
-3.547214
-5.072877
1.044159
0.7662202
1.259234
1.043492
0.7732913
-3.499252
3.530212
3.466901
2.680326
2.842713
2.683352
3.26786
2.676433
2.841072
2.682275
0.2912434
0.388438
0.7959436
-1.477948
0.3166542
0.3760912
0.7995244
0.0656386
1.036479
0.2097691
0.067827
0.9325728
0.2551921
-3.452402
-4.924254
-1.813673
-3.162996
-5.182948
1.050278
0.7813403
1.268573
1.045177
0.782424
-3.570823
3.488862
3.446481
2.675189
2.840109
2.68171
3.269697
2.672489
2.836539
2.679688
0.2924447
0.368385
0.8005527
-1.502108
0.2824313
0.3625705
0.7893998
0.0726573
1.086032
0.2423734
0.06859947
0.7094139
0.2716205
-2.57164
-5.117334
-1.523675
-2.555971
-5.255437
1.043144
0.778239
1.257094
1.049679
0.7791352
-3.696162
3.478338
3.48176
2.671493
2.835826
2.678477
3.217206
2.670047
2.837101
2.677676
0.2792752
0.359825
0.7874673
-1.516604
0.2753958
0.3588796
0.7904524
0.06099294
1.052421
0.2429049
0.05880353
0.6331957
0.2055295
-3.01145
-5.350847
-2.077783
-3.025289
-5.208027
1.057333
0.7839318
1.252416
1.057287
0.7803737
-3.731653
3.473069
3.52834
2.668915
2.835611
2.675251
3.194344
2.669268
2.835277
2.673902
0.2471099
0.3565949
0.7845274
-1.531984
0.2610335
0.354926
0.7824908
0.06079208
0.7284387
0.2412508
0.08060044
1.03084
0.1541382
-2.738784
-5.379299
-0.9770831
-2.424829
-5.322037
1.053091
0.7768683
1.219436
1.034919
0.7633419
-3.832021
3.461063
3.472199
2.669452
2.832796
2.669919
3.216119
2.675604
2.834962
2.674775
0.2525726
0.350864
0.7655143
-1.542318
0.1397181
0.3742319
0.7774503
0.06878338
0.5019696
0.2311152
0.08563116
1.018448
0.2566287
-3.12186
-5.327692
-2.150758
-3.344048
-4.940322
1.049621
0.7652437
1.174985
1.023859
0.7742906
-3.549195
3.484059
3.446762
2.677284
2.847815
2.681331
3.289312
2.690555
2.822344
2.66517
0.1391367
0.3942292
0.7501661
-1.367893
0.1186262
0.4711294
0.7268236
0.05637264
0.5268944
0.303149
0.08208234
0.281913
0.09803078
0.1696723
0.1612849
0.2287262
0.2346661
0.0848527
0.1542177
0.1273242
0.213054
0.2077122
0.6593122
0.8193315
0.719773
0.6792105
0.642893
0.6379883
0.7463641
0.6846541
0.6848271
0.6775555
0.9452735
1.047128
0.9719568
0.9739097
0.927673
-2.582473
-4.747302
-1.71613
-2.760109
-3.124583
0.537373
0.3096467
0.7324292
1.172893
1.042341
1.206946
0.9816657
0.7609001
1.160168
0.9882089
0.7493625
1.170967
1.387284
1.29338
1.215553
1.251681
-2.34337
0.5433782
0.7309858
1.517114
1.612612
2.012483
2.763052
2.855337
2.659896
2.701394
2.661336
2.712542
2.648712
3.536787
3.552079
-5.106047
-2.09904
-2.434906
-2.227039
2.66733
2.715457
2.660382
2.689755
2.63851
2.707861
2.852089
2.694421
3.35802
2.699787
2.78715
2.661195
-0.02484467
0.4598525
0.5924041
0.0795481
-1.00569
0.7664434
0.6348328
2.660727
2.671771
2.619891
2.668549
2.590702
2.60846
2.595638
2.526611
2.618084
2.552234
2.511316
2.556719
2.543164
2.487587
2.582289
2.565521
2.459764
2.494683
2.478084
2.40137
2.499579
2.398838
0.2220691
0.2403593
-0.07223802
0.1311545
0.07845172
0.02965769
-0.002769423
0.2460569
0.1235179
0.1329636
0.0184528
0.1996056
0.07026062
0.1802022
0.01346685
0.2203161
0.07244052
0.1670185
0.01094685
0.1684988
0.06162659
0.1577331
0.007552876
0.1869363
0.05987991
0.149766
0.006958389
0.1648369
0.05971629
0.1365852
0.0004366964
0.1627716
0.05761055
0.116333
-0.003986819
0.1504522
0.05193893
0.1039919
0.4742023
0.5818045
0.4822055
0.4008523
0.6124709
0.7128467
0.6273792
0.5317015
0.6928826
0.7717177
0.7075629
0.6062492
0.7667495
0.8316173
0.7737986
0.6811094
0.8745999
0.9337792
0.8769188
0.7955127
1.013284
1.05169
1.007565
0.9393223
-1.393095
-0.4645584
-2.451116
-0.8697674
-1.303659
-0.79139
-3.252488
0.6763651
-0.1395697
0.5178574
1.275187
1.283153
1.239722
1.211572
-1.239492
0.6674024
0.5044102
-0.1616301
-1.612621
0.5885731
0.4366769
-0.3030421
-2.719985
-0.3596454
0.7930393
0.6492645
0.7555962
0.5938293
1.60758
1.573157
1.559401
1.546424
0.8253983
1.37982
1.47489
1.02083
0.7786481
1.419561
1.469143
1.152162
0.7528451
1.137727
0.65777
0.5536918
0.6416904
0.5352099
1.940767
1.912089
1.892419
1.891087
1.663284
1.905232
2.056837
1.755614
1.646968
1.951309
2.055164
1.853562
1.620819
1.846252
0.5715325
0.4153832
0.560517
0.3727306
2.233099
2.206602
2.192685
2.187188
2.208053
2.363072
2.497239
2.299692
2.196027
2.391835
2.50357
2.348498
2.170947
2.338679
0.4241793
0.1418994
0.3826586
0.2104516
2.470413
2.448191
2.439183
2.420612
2.622725
2.70133
2.852176
2.707559
2.608119
2.746847
2.860261
2.73227
2.589953
2.726093
0.104657
-0.1514916
0.1192931
-0.1783684
2.640505
2.633868
2.623767
2.586418
2.961562
2.931244
3.120545
3.026845
2.972814
2.998946
3.139633
3.042153
2.938568
3.041686
-0.4951565
-1.282975
-0.453648
-1.061941
2.729592
2.743876
2.730117
2.664638
3.212831
3.11364
3.346752
3.18977
3.23334
3.205153
3.53023
3.289786
3.214737
3.295723
-4.89405
-2.269262
-2.981921
-5.381774
2.742675
2.778178
2.770673
2.67362
2.719845
2.816497
2.685346
3.217438
2.726069
2.884184
2.714995
2.194913
2.379165
2.204539
2.466949
2.3024
2.411974
2.196927
0.9211702
1.83925
1.466231
1.748511
0.2594672
1.812834
1.380205
-0.8239302
0.9722392
0.3399523
-1.181513
-0.1515785
0.6951634
0.2274097
2.69757
2.747839
2.741097
2.632313
2.63553
2.691048
2.686717
2.572798
2.570183
2.625092
2.622286
2.508743
2.511281
2.56167
2.561097
2.449982
0.2570318
0.2565568
-1.278467
-0.7834351
-3.629099
-0.8092248
-1.220919
-0.8507612
-3.814066
1.215364
1.044671
1.270272
-1.727395
0.5523259
0.2148004
-0.1037699
-1.88379
0.539599
0.1950577
-3.692958
0.6412874
0.6816816
0.5766302
0.5887303
3.199867
3.131054
3.350312
3.196329
3.209379
3.180517
3.329498
3.170543
2.93416
2.907326
3.064566
3.170317
2.977932
2.927154
3.017294
2.998807
3.055752
3.23902
3.013372
2.99535
3.06345
0.1843208
1.771577
1.382523
1.625524
0.09705409
1.759004
1.372797
0.2161669
0.6085372
0.06751187
-1.500922
0.08632041
0.549237
0.1282589
0.2274409
0.2417453
-1.17702
-0.8785158
-3.712318
-0.7698321
-1.23893
-0.8668809
-3.657026
1.237839
1.040086
1.288522
-1.838412
0.5093237
0.1767479
-0.08948036
-1.833287
0.5092894
0.1755549
-3.490102
0.5762761
0.6268472
0.5866137
0.6165974
3.199909
3.168135
3.330533
3.206398
3.218653
3.182928
3.333858
3.167443
2.98771
2.913519
3.061462
3.165743
2.989069
2.908259
3.014213
2.99646
3.060809
3.272249
3.013789
2.993995
3.059124
-0.2015479
1.732311
1.435547
1.577373
-0.2884514
1.711273
1.423358
-1.028376
-3.810628
0.393791
-1.484491
-1.161298
-3.807344
0.3777439
0.2562364
0.2247671
-1.322843
-0.8512284
-3.574347
-0.8153025
-1.294509
-0.8630138
-3.629731
1.305512
1.107635
1.31831
-1.782914
0.4816251
0.1639154
-0.101378
-1.836184
0.478094
0.1534429
-3.417864
0.5891457
0.6186665
0.603061
0.6265433
3.217291
3.182067
3.332488
3.217793
3.2236
3.184512
3.335957
-7.170385
-1.680034
-6.644277
-1.569343
3.163359
2.993022
2.907866
3.061108
3.163627
2.993646
2.908968
3.0111
2.992196
3.055521
3.269959
3.012168
2.991823
3.054921
-0.3068583
1.703196
1.439627
1.560008
-0.3158312
1.695789
1.437295
-1.012856
-3.82216
0.3119888
-1.48282
-1.007153
-3.841132
0.3088454
0.2400452
0.2298726
-1.287445
-0.8800229
-3.717429
-0.7837181
-1.218863
-0.8978298
-3.803513
1.317455
1.108742
1.317486
-1.834846
0.4659958
0.1345319
-0.1214383
-1.932369
0.4606405
0.1253185
-3.560884
0.5884777
0.6166606
0.59236
0.624974
3.23835
3.198826
3.341427
3.235313
3.236533
3.194757
3.340406
-6.638341
-1.570283
-6.669054
-1.613498
3.166009
3.00443
2.908861
3.068232
3.164105
3.006432
2.907777
3.004988
2.988153
3.052246
3.262314
3.004072
2.986671
3.052246
-0.3223973
1.690118
1.436401
1.548778
-0.3321972
1.684399
1.428911
-1.033007
-3.848409
0.3000259
-1.496336
-1.021228
-3.871249
0.2933776
0.2628631
0.243002
-1.209892
-0.9227781
-3.768735
-0.7669281
-1.17756
-0.9586954
-3.845027
1.296715
1.122284
1.314681
-1.893441
0.4500772
0.1159377
-0.13946
-1.959061
0.4413079
0.1068003
-3.587428
0.5915348
0.6198485
0.6010553
0.6610544
3.237503
3.199101
3.341247
3.223862
3.231142
3.191352
3.339069
-6.606326
-1.6006
-6.522825
-1.582281
3.162662
3.007032
2.907206
3.065692
3.163463
3.001708
2.906352
3.001379
2.982522
3.051815
3.205094
2.999976
2.98241
3.04985
-0.337304
1.681508
1.426519
1.543595
-0.3422435
1.681875
1.426176
-1.043261
-3.883027
0.2879992
-1.508956
-1.04068
-3.884615
0.2855813
0.2632587
0.2377952
-1.221626
-0.9705231
-3.883526
-0.8198503
-1.292345
-0.969069
-3.843324
1.333117
1.124639
1.330461
-1.985219
0.4436117
0.1018658
-0.1532058
-1.956475
0.4370481
0.1035214
-3.701352
0.6031503
0.6252053
0.6007207
0.6291473
3.222792
3.188323
3.335188
3.20747
3.210036
3.178772
3.328396
-6.999428
-1.742925
-6.843345
-1.657869
3.160468
2.993495
2.904999
3.056597
3.157352
2.990111
2.902267
3.001233
2.983158
3.047584
3.199137
3.002247
2.984108
3.047
-0.3437445
1.679231
1.423545
1.540771
-0.3506471
1.67922
1.420527
-1.055454
-3.898983
0.2829113
-1.518199
-1.053112
-3.907393
0.276433
0.2058006
0.2098506
-1.200636
-0.981335
-3.879371
-0.7339841
-1.101516
-0.986414
-3.985807
1.311969
1.110231
1.288071
-1.975821
0.4577693
0.1110411
-0.1654119
-1.949979
0.4664298
0.1192906
-3.773099
0.5894391
0.6154121
0.5969011
0.6304657
3.216956
3.179136
3.329384
3.194143
3.204089
3.168137
3.326164
-7.122555
-1.748057
-7.829913
-1.954169
3.158494
2.98331
2.900406
3.048574
3.159646
2.982241
2.905084
3.002262
2.983843
3.046864
3.198967
3.002329
2.983328
3.047538
-0.3509106
1.678405
1.412831
1.551165
-0.3509997
1.69262
1.42953
-1.070879
-3.904978
0.2729408
-1.54906
-1.055459
-3.945775
0.2580353
0.2362542
0.2629447
-1.222338
-0.9095056
-3.85253
-0.8235156
-1.296862
-0.8212903
-3.632685
1.277055
1.048552
1.221117
-1.92892
0.5107538
0.1564966
-0.1227003
-1.74277
0.5316105
0.1844597
-3.751221
0.5851276
0.5964913
0.6314694
0.6513626
3.220554
3.174669
3.325079
3.148687
3.207327
3.121023
3.319578
-7.547225
-1.999129
-7.017238
-2.040165
3.161452
2.971344
2.915013
3.0288
3.163129
2.927401
2.898071
3.007077
2.981051
3.051062
3.216773
3.001574
2.986349
3.055054
-0.334549
1.7024
1.428978
1.603548
-0.217921
1.715228
1.440066
-1.037891
-3.942328
0.285874
-1.489199
-1.062587
-3.87122
0.2778663
0.2334186
0.2593269
0.1204433
0.1101683
0.1265924
0.2067824
0.09413346
0.2430308
0.3497467
0.1356865
0.2653502
0.2481723
0.09774517
0.4028057
0.3919414
0.129835
0.2366538
0.2291887
0.3394699
0.3880864
0.1148266
0.237628
0.2300442
0.09664906
0.3597331
0.3709291
0.1037275
0.1887096
0.2187894
0.2623554
0.3012658
0.1065113
0.2164008
0.1899694
0.2779697
0.2773746
0.1168864
0.1811571
0.3502934
0.6781668
0.4730948
0.3194147
0.5192288
0.756598
0.8151964
0.7680471
0.7775166
0.75448
0.722812
0.8570385
0.912499
0.8668378
0.9559246
0.8902539
0.8064353
-1.253094
-0.8400916
-3.338615
-0.8435936
-1.21729
-0.5445999
-2.667012
-1.659641
0.5694634
0.4044439
0.006350104
-1.387447
0.6268358
0.3949432
-3.021823
0.7088964
0.6129942
0.735735
0.6484347
1.485035
1.721613
1.639465
1.540527
1.579771
0.7579561
1.427624
1.454765
1.018378
0.783436
1.389065
1.445789
0.6626074
0.5593871
0.6308832
0.5569025
1.817414
2.049264
1.956405
1.830643
1.873944
1.634168
1.98698
2.022868
1.749543
1.641468
1.928198
2.058991
0.5647337
0.4039206
0.5208899
0.4247319
2.097618
2.361809
2.244926
2.274559
2.3026
2.213693
2.345918
2.397955
2.445664
2.195639
2.185166
2.276052
2.480114
0.3884871
0.166047
0.3676175
0.1906915
2.34467
2.589469
2.4914
2.459752
2.383927
2.535614
2.41515
2.609388
2.722702
2.842566
2.738916
2.59905
2.703781
2.834565
0.101692
-0.1979148
0.1064382
-0.2617538
2.599714
2.629969
2.598498
2.678831
2.632801
2.575348
2.925071
-0.5970377
-1.311451
-0.4548825
-1.491181
3.21188
3.156181
3.329861
3.150355
3.217384
3.083997
3.3222
3.176155
2.8925
2.908703
3.044697
3.176568
2.940029
2.902124
3.010998
2.993121
3.07528
3.312045
3.020738
2.996115
3.067192
2.270975
2.378729
2.189959
2.60234
2.083504
2.343952