/*--------------------------------*- C++ -*----------------------------------*\
  =========                 |
  \\      /  F ield         | OpenFOAM: The Open Source CFD Toolbox
   \\    /   O peration     | Website:  https://openfoam.org
    \\  /    A nd           | Version:  7
     \\/     M anipulation  |
\*---------------------------------------------------------------------------*/
FoamFile
{
    version     2.0;
    format      ascii;
    class       surfaceScalarField;
    location    "0.09";
    object      phi;
}
// * * * * * * * * * * * * * * * * * * * * * * * * * * * * * * * * * * * * * //

dimensions      [0 3 -1 0 0 0 0];

internalField   nonuniform List<scalar> 
249116
(
0.02609377
-0.08582177
-0.001966595
0.02153994
0.02283316
0.02667798
0.02666201
-0.006353439
-0.01075849
-0.009309878
-0.009596693
0.02056439
-0.08370652
-0.004809715
0.02109687
0.02210892
0.02546943
0.0253704
0.01764152
-0.07682246
-0.005477326
0.0191702
0.01972571
0.02330616
0.02302057
0.01519992
-0.07146487
-0.005333631
0.01783661
0.01859546
0.02142288
0.02138516
0.0123894
-0.06314445
-0.004710423
0.01595359
0.01633003
0.01926648
0.01911529
0.0096193
-0.05780509
-0.004559801
0.0147175
0.01523198
0.01762373
0.01756179
0.00715085
-0.05315356
-0.004211537
0.01359577
0.01392371
0.01619271
0.01612135
0.005292895
-0.05069366
-0.004092171
0.01290618
0.01323381
0.01527855
0.01522524
-0.04850707
-0.003907343
0.01229759
0.01450402
0.003953282
0.0125023
0.01445011
0.03065739
-0.08108467
0.001765078
-0.006164429
-0.01096963
-0.009959908
-0.0100656
0.02632573
-0.07869059
-0.0006842689
0.02395256
-0.07302952
-0.001419764
0.02202721
-0.06804887
-0.001490645
0.0181909
-0.05815372
-0.001154417
0.01407852
-0.05251564
-0.001177081
0.01041721
-0.04839481
-0.001097435
0.007640654
-0.04682732
-0.001089787
-0.04546199
-0.001063327
0.005658898
0.03314065
-0.07861962
0.002627632
-0.00648695
-0.0111233
-0.01021205
-0.01041103
0.0302775
-0.0766338
0.0008063462
0.02945262
-0.07212185
-8.278427e-05
0.02914651
-0.06770535
-3.740627e-05
0.02436595
-0.05370516
0.000331997
0.01818709
-0.04632213
-1.464735e-05
0.01261633
-0.0428854
6.134558e-05
0.008901521
-0.0431049
-7.617778e-06
-0.04300203
1.469175e-05
0.006426874
0.03494144
-0.07744051
0.003111391
-0.006804364
-0.01131932
-0.01046707
-0.01064119
0.03301385
-0.07584636
0.001140158
0.03455627
-0.07403363
0.0003693665
0.03889278
-0.07299735
0.0009555003
0.03292647
-0.04904417
0.001305323
0.0225483
-0.03676523
0.0008212522
0.01339391
-0.03476088
0.001029874
0.008529158
-0.03925635
0.00101619
-0.04177867
0.0008582298
0.006447564
0.03615261
-0.07692787
0.002859695
-0.006890754
-0.01133848
-0.01054011
-0.01075561
0.03573525
-0.07661945
0.001190456
0.04003099
-0.07905864
0.000729274
0.05331423
-0.02113834
0.003031078
-0.01944453
-0.02390443
-0.02482437
0.04919275
-0.01462268
0.002123746
-0.006196181
-0.01522873
-0.01099885
0.02697384
-0.004956083
0.0009301267
-0.00176297
-0.005346283
-0.003411105
0.0104159
-0.004555254
0.001464889
-0.004899235
-0.004663119
-0.005550241
0.004796885
-0.007916481
0.002038314
-0.008803116
-0.009021444
-0.009934606
-0.00988042
0.002230149
-0.01126492
0.004308989
-0.01051835
-0.01185723
0.0368354
-0.07658806
0.002828534
-0.007054402
-0.01145222
-0.01068088
-0.01081625
0.03740881
-0.07820371
0.001010853
0.01161432
-0.08438574
-0.0002351076
0.006876847
0.01229038
0.01218948
0.01235041
-0.02200275
0.0001283344
0.02133347
0.0003001338
-0.01940801
-0.002583194
-0.00586944
-0.00723378
-0.001161831
-0.01580781
0.009003413
-0.0002427725
0.0005211585
0.0006098231
0.0004959843
0.0004641264
0.002971858
7.665381e-05
-0.006824624
-0.0003442892
-0.0002701504
-0.0001688089
4.101316e-06
0.0004556517
-0.0009687415
0.0005537278
-0.002818523
-0.001112319
-0.001331942
-0.00269434
-0.0003067271
-0.01013243
0.0002440441
0.0003146873
0.03231392
-0.07337255
0.002477342
-0.00660975
-0.01088226
-0.01015149
-0.01036328
0.02866083
-0.07538933
0.0008387184
0.009045508
-0.08164183
-0.0009769296
0.002335306
0.008865399
0.006647628
0.02578637
-0.02281724
-0.0003254221
0.001654882
0.002260775
0.00209758
0.0003885668
0.001913155
-0.0004137265
-0.001436836
-6.259229e-05
0.0003708063
0.01060014
-0.01092155
3.149058e-06
0.0001577858
-0.0003036166
2.619789e-05
6.708287e-05
0.02952228
-0.06810956
0.002507725
-0.006539864
-0.01062798
-0.009924702
-0.01020044
0.02315784
-0.06952947
0.0005045789
0.00641678
-0.0735381
-0.001074554
0.0008049508
0.005026369
0.003880575
0.02376225
-0.01979889
-0.00025419
0.0006723181
0.001347826
0.0008055282
-0.0001180648
0.001181508
-0.0001730634
-0.001010449
2.004693e-06
-0.05114955
-0.000531241
0.0007385639
-0.002026884
0.0006056069
-0.0004853128
0.0107274
0.01467777
0.002339406
0.01157586
0.01352838
0.02770787
-0.06175575
0.002425008
-0.00649139
-0.01028512
-0.00970854
-0.01000163
0.02042093
-0.06251442
0.000271885
0.005121733
-0.06507827
-0.0004875217
0.0005126926
0.003731129
0.003083075
0.02055166
-0.01711562
-0.0001787927
0.0004592618
0.001050241
0.000546947
-0.0001919648
0.0009953677
-0.0001409449
-0.0008574539
3.031097e-06
-0.05247214
-0.0003010749
0.001270112
-0.002083092
-0.0002883028
-0.0006485216
0.003373468
0.02689014
-0.0548925
0.002435742
-0.006589564
-0.01004132
-0.009615874
-0.009942366
0.0190892
-0.05507637
0.0003628777
0.004511076
-0.05661344
-0.0005035672
0.0005353157
0.003311086
0.002770459
0.01785613
-0.01482072
-0.0001391764
0.0003888028
0.0009154083
0.0004845896
-0.0001739578
0.0008585077
-0.0001215403
-0.0007398325
2.865024e-06
-0.05530915
-8.03627e-05
0.001336418
-0.002210258
-0.0001754432
-0.0007322994
0.00469895
0.02695277
-0.04818445
0.00250408
-0.006752506
-0.009849085
-0.009599635
-0.009963673
0.01933388
-0.04770672
0.0002492353
0.004328765
-0.04817691
-0.0003224278
0.0008183362
0.003302089
0.002770597
0.01550193
-0.01264578
-0.0001559334
0.0003771658
0.0008647186
0.0004883047
-0.0001016367
0.0007320236
-0.0001013462
-0.0006286275
-2.049885e-06
-0.01303121
-0.0009917513
0.00169574
-0.0009348087
-0.0002462246
-0.0005127135
-0.0172604
0.006092333
-0.01399277
-0.01612736
0.02799313
-0.04216837
0.002575764
-0.007012714
-0.009793298
-0.009698023
-0.01008094
0.02096013
-0.04072482
5.110757e-05
0.004405297
-0.03943787
-0.0003596357
0.001397447
0.003632604
0.003145372
0.01308288
-0.0103769
-0.0002392831
0.0004683089
0.0008448906
0.000601012
2.439239e-05
0.0006036499
-8.776054e-05
-0.0005119557
-3.933702e-06
0.001415871
-0.0153284
1.226543e-05
0.0008690411
0.02968928
-0.03714733
0.002555547
-0.007343848
-0.009818587
-0.009876002
-0.01022744
0.02388806
-0.03499291
6.930948e-05
0.005065416
-0.03139453
-0.001313676
0.003005217
0.004762762
0.004325
0.0103711
-0.007689507
-0.0004265571
0.0007280411
0.000925538
0.0008361215
0.000320686
0.0004528711
-7.760084e-05
-0.0003699968
-5.273437e-06
0.0006176997
-0.01976022
-0.0002855098
-0.0008655645
0.0003017752
-1.859673e-06
0.01758797
0.0024057
0.03103976
-0.03332395
0.002954532
-0.00762171
-0.009837909
-0.009988139
-0.01036991
0.02709096
-0.03132488
0.0002807641
0.006336028
-0.02786333
-0.001711794
0.005327549
0.006712682
0.006895303
0.006914783
-0.005256984
-0.0006454486
0.001286617
0.00141001
0.001471063
0.001155989
7.67964e-05
-0.0002448092
0.0003008164
-4.543437e-05
-8.736912e-05
-0.0004610576
0.0004668425
1.168287e-05
-1.746762e-05
-0.000606506
0.0006449299
-1.098562e-05
-2.743848e-05
-0.00114439
0.001372981
-3.622118e-05
-0.0001923775
-0.00266142
0.01776076
-0.01374023
-0.0004635703
-0.004037402
-0.003126942
-0.00331518
0.009583973
0.03308685
-0.03076959
0.003043044
-0.00794766
-0.009962017
-0.01022607
-0.01054851
0.03030703
-0.02914889
0.0006038346
0.02984024
-0.02645979
-0.0009367591
0.03193468
-0.02362829
-0.001912503
0.004890249
0.005929675
0.006493108
0.006133327
0.03805521
-0.02066541
-0.001473224
0.002682349
0.004876419
0.004051742
0.004407586
0.04462258
-0.021292
-0.0009410387
0.001867081
0.005227522
0.004039193
0.004531868
0.0476371
-0.02534758
-0.001428417
0.003063869
0.007544748
0.005789879
0.007362987
0.04106189
-0.03699491
-0.002238183
0.0077103
0.01290622
0.01273637
0.01245541
-0.03987963
-0.001081973
0.01019119
0.01271846
0.03380584
0.0122858
0.01302219
0.0344638
-0.02911118
0.003088472
-0.00815142
-0.0100199
-0.01036033
-0.01067903
0.03240219
-0.02797488
0.0008876148
0.03218956
-0.02623793
-9.232744e-06
0.03346752
-0.02436304
-0.0005432158
0.03635144
-0.02302387
-0.0005254553
0.03967294
-0.02409652
-0.0005169877
0.0411103
-0.02638539
-0.0003995499
0.03746037
-0.03274238
-0.0006026068
-0.03454656
-0.000553731
0.03268103
0.03526521
-0.02802578
0.003214495
-0.008284936
-0.01007523
-0.01044559
-0.01075936
0.03352884
-0.02728017
0.001041663
0.03302993
-0.02612173
0.0003827137
0.03375376
-0.02506198
-2.488929e-05
0.03529875
-0.02449833
-7.053445e-05
0.0366258
-0.02537425
-4.931157e-05
0.03708575
-0.02689817
5.283534e-05
0.03478838
-0.03041366
-3.134848e-05
-0.03176864
7.263583e-05
0.03193782
0.03576733
0.003269804
-0.008370182
-0.01011218
-0.01050345
-0.01081238
-0.02726472
0.03414625
0.001143701
-0.0268028
0.03354735
0.0004918416
-0.02601468
0.0337706
2.256986e-06
-0.02528748
0.03436709
-2.23162e-05
-0.0250725
0.03476375
-3.864976e-05
-0.02573226
0.03457299
2.287193e-06
-0.02670969
0.03293976
-5.282487e-05
-0.02872761
-2.623965e-05
0.03084737
-0.02965001
0.0007769048
-0.00051837
0.004168547
-0.02644268
-0.0008887292
0.001574594
0.0001848589
0.0002054258
-0.001757621
-7.064749e-05
-0.001776238
0.001252145
-0.003307057
0.003005634
-0.02486826
-0.001290877
0.001464172
7.82519e-05
7.813007e-05
0.001187807
-0.002782654
0.002279646
-0.02248323
-0.001499706
0.001309789
0.0001351072
8.894416e-05
0.001077087
-0.001899819
0.001712383
-0.0204718
-0.001464125
0.001173925
9.002702e-05
6.381359e-05
0.0009669549
-0.001558083
0.001351892
-0.01836296
-0.001266126
0.001021837
6.566154e-05
1.38067e-05
0.000880939
-0.001149808
0.001018199
-0.01669057
-0.001188732
0.0009248706
3.803204e-05
-4.483764e-07
0.0008088605
-0.0008733891
0.000742774
-0.01532207
-0.001097372
0.0008376968
1.567828e-05
-1.740406e-05
0.0007593866
-0.0006086477
0.0005234117
-0.01438508
-0.001038553
0.0007845647
3.983599e-06
-1.678774e-05
0.0007209425
-0.0004427772
-0.0136711
-0.001000751
0.0007410289
-5.375093e-06
-2.070379e-05
0.0003788007
-7.67363e-05
0.0004346514
0.009984602
-0.006359837
-0.0007245413
0.0003802215
-0.0003852161
0.0003705677
0.002371884
0.0003264973
0.002609123
0.02966411
-0.09447347
8.406848e-05
0.02526531
0.02574466
0.02469735
0.02491562
-0.009468727
-0.009262022
-0.009629427
-0.009504072
0.02457336
-0.09602989
-0.002671075
0.02512636
0.02484264
0.0247348
0.02427821
0.0202656
-0.08836528
-0.002446047
0.02280601
0.02245362
0.02250273
0.0218794
0.01760933
-0.08237974
-0.003053648
0.02103587
0.0207237
0.02074636
0.0202501
0.01418557
-0.07289075
-0.002541944
0.01880341
0.01855436
0.01862531
0.01816296
0.01103458
-0.06677786
-0.00255307
0.01713843
0.01703179
0.01704244
0.01670947
0.008239234
-0.06147508
-0.002354956
0.01570095
0.01566631
0.01564672
0.01539986
0.006127675
-0.05851155
-0.002270186
0.01479051
0.01477413
0.01470576
0.01453072
-0.05593868
-0.002228849
0.01406132
0.01394458
0.004527355
0.01403699
0.01381761
-0.0003632229
0.005835859
0.009412889
-0.005640462
0.0002289047
0.0002215216
-0.0005064933
0.0001929957
0.03490822
-0.09018231
0.00180127
-0.009741301
-0.009977963
-0.009838676
-0.009677639
0.03140333
-0.09151945
-0.001689816
0.02820007
-0.08520426
-0.001377526
0.02611044
-0.07977435
-0.002006405
0.02149119
-0.06788675
-0.001539166
0.01664371
-0.06154807
-0.0015594
0.01226565
-0.05676853
-0.001425931
0.008930889
-0.05482073
-0.001445841
-0.05327449
-0.0014283
0.006631672
-0.0004070199
0.005575103
0.009725953
-0.005466942
0.0003628055
0.0001425737
-0.0005195431
0.0001695502
0.03789451
-0.0877552
0.002795798
-0.01018374
-0.01026557
-0.01008133
-0.00995915
0.03622727
-0.08918145
0.0001355851
0.03489803
-0.08438606
0.0004282587
0.03454681
-0.07945066
-9.876184e-06
0.02855179
-0.06175648
0.0001967317
0.02129292
-0.05425696
-4.68824e-05
0.01470958
-0.05015993
3.607757e-05
0.01052654
-0.05057188
-7.344348e-05
-0.05024898
-0.0001614376
0.007677169
-0.0004165052
0.00540283
0.009752937
-0.005243272
0.0003357877
0.0001418355
-0.0005228501
0.0001553123
0.04043481
-0.08666996
0.003215022
-0.01051507
-0.01053527
-0.01039485
-0.01017849
0.04047977
-0.08881761
0.0007313706
0.0421349
-0.08676271
0.001090881
0.04621914
-0.08386741
0.001288004
0.03804845
-0.05366584
0.001385359
0.02627692
-0.04256455
0.0009003628
0.01601736
-0.03967059
0.0008000847
0.009978348
-0.04436172
0.0008450428
-0.04723323
0.000579936
0.007240889
-0.0004167484
0.005233281
0.00982584
-0.005175274
0.0003767475
0.0001460845
-0.0005247636
0.000140646
0.04190056
-0.08656627
0.003031266
-0.01063259
-0.01064794
-0.01054553
-0.01034975
0.04344403
-0.09025638
0.001085755
0.04823099
-0.09238946
0.001569063
0.0605108
-0.02416867
0.002848436
-0.02465961
-0.02332885
-0.02380746
0.05621189
-0.01469962
0.001765701
-0.0101831
-0.01418783
-0.00993835
0.03297805
-0.005723199
0.0008163736
-0.003491018
-0.00610607
-0.003896672
0.01274488
-0.004340066
0.0006754303
-0.005087435
-0.004129593
-0.005090871
0.006120698
-0.008783322
0.001280726
-0.00994382
-0.008629755
-0.009623061
-0.01121439
0.00162874
-0.0109072
0.004887215
-0.01172221
-0.01155454
-0.0004069544
0.005227382
0.00986833
-0.005244207
0.0003838369
0.0001788042
-0.000528156
0.000126746
0.04197307
-0.08630941
0.003021107
-0.01072963
-0.01064836
-0.01065796
-0.01038656
0.04421794
-0.09209616
0.0006057515
0.01255554
-0.09872501
0.0005986432
0.01249199
0.01221319
0.01245902
-0.0005249462
0.01422726
-0.02574023
0.000424773
-0.001148547
0.02418073
0.0006563324
-0.01850222
-0.002536101
-0.007857951
-0.001838742
-0.007653121
-0.01728121
0.0001491526
0.01060095
0.0006777502
0.0001301603
0.000383049
0.003194342
-0.0003277645
-0.006576611
-0.0002047699
-0.0003216284
-0.0002880973
-0.000198586
-0.0002134262
-0.0005892176
1.092553e-05
0.0003648728
-0.003058685
-0.001223063
-0.003129304
-0.0009454307
-0.0006568811
-0.0002305781
-0.01123224
0.0002657307
0.0006395837
-0.000396794
0.005311871
0.009719855
-0.005192124
0.0003638095
0.0002008115
-0.0005265154
0.0001248796
0.03673612
-0.08264877
0.00275298
-0.01023648
-0.01024231
-0.01017994
-0.01001365
0.0345474
-0.08933435
0.000265634
0.009216086
-0.0968744
9.466582e-05
0.006596794
0.009315059
0.006497246
-3.840382e-05
0.02721761
-0.02741864
0.0002474075
0.001975874
0.002663084
0.0019126
0.002656555
-2.551593e-05
0.002207504
-0.0007326248
-0.001464931
1.556624e-05
-0.05705016
-0.0001464808
0.001712407
0.002291194
0.002085008
0.002840277
0.01229606
0.0121411
-0.0003024059
-0.0004787947
0.0007346905
0.01241194
0.01196478
-0.0002028869
-0.0002967234
-0.0004000774
0.005158489
0.009660139
-0.004963254
0.0003462643
0.0002066128
-0.0005250795
0.0001227118
0.03346966
-0.07676015
0.002922749
-0.009998493
-0.0100096
-0.009938142
-0.009827064
0.02730415
-0.0826456
-1.866366e-05
0.00490081
-0.08691699
-0.0002604693
0.003632015
0.004633836
0.003365997
-0.0002644277
0.02609847
0.002750063
-0.02383059
0.0001472892
-0.06064582
-0.001278296
0.0008554096
-0.0004359379
0.001451617
-0.0003785047
0.002850128
-0.0004020367
0.004852464
0.009576122
-0.004579864
0.0003327408
0.0002177145
-0.0005180039
0.0001266738
0.03142297
-0.06981342
0.002915886
-0.009743697
-0.009822915
-0.009671557
-0.009622409
0.02372336
-0.07434664
-0.0003274645
0.003438205
-0.0767348
0.0005657204
0.00286027
0.003328245
0.0028612
-0.0001637283
0.02216621
0.001671519
-0.02038295
0.0001471493
-0.06302472
-0.0005843075
-0.0001425598
-0.0005829729
-2.937233e-05
-0.0009532343
0.004370263
-0.0004086623
0.004434917
0.009546975
-0.004131582
0.0003212719
0.0002218287
-0.0005113426
0.0001324048
0.0304063
-0.06225449
0.002998488
-0.009657129
-0.009753853
-0.009564101
-0.009552898
0.02198823
-0.06545666
-0.0001090247
0.002875614
-0.06643169
0.0001628585
0.002540745
0.002937962
0.002664374
-0.000177212
0.01917835
0.001240322
-0.01745062
8.477405e-05
-0.06631021
2.93901e-05
-6.929989e-05
-0.0004562948
3.166097e-05
-0.001004872
0.004674546
-0.0004236141
0.003951804
0.009542961
-0.003633945
0.0003113184
0.0002163555
-0.0005037494
0.0001446833
0.03024967
-0.05463651
0.003044786
-0.00962956
-0.009734897
-0.009518084
-0.009525811
0.02171052
-0.05658092
-8.734533e-05
0.002830218
-0.05638583
0.0005149912
0.002453487
0.002908009
0.00263552
-0.0001086255
0.01636041
0.001177359
-0.01485094
0.0002520162
-0.07240895
7.867012e-05
6.514581e-05
-0.0005403763
1.639635e-05
-0.0007260917
0.006213247
-0.000434969
0.003436292
0.009561854
-0.003133605
0.0003046784
0.000210882
-0.0004978023
0.0001584782
0.03093823
-0.04744845
0.003075416
-0.009693251
-0.009788546
-0.009558965
-0.009585183
0.02268637
-0.0480675
-0.0002104514
0.00280957
-0.04614997
0.0006032051
0.002860153
0.003123712
0.002694238
1.085476e-05
0.01378708
0.001113528
-0.01194071
-0.0001611836
-0.08056966
0.0007313638
0.0004175092
0.0002996288
-0.0007100136
-0.001414959
-0.0003756347
-0.001450887
0.010424
0.0001983614
4.135375e-05
-0.0004426875
0.002931497
0.009594605
-0.002668005
0.0003131988
0.000198795
-0.0004914571
0.0001698567
0.03247293
-0.0413426
0.003126368
-0.009825041
-0.009923571
-0.009683442
-0.009717551
0.02550345
-0.04101388
-1.482496e-05
0.003898953
-0.03635991
-3.102351e-05
0.003563125
0.003711137
0.003257529
8.931275e-05
-0.008650627
-7.677585e-05
0.0104912
0.000430306
0.0005850745
0.0004506548
0.0005798094
-0.06690415
-0.0009169557
-0.0052524
-0.01375939
-0.004257949
-0.01344154
0.0006359864
0.0001524532
0.02214243
0.0004070624
0.0006248159
-0.0004503397
0.00247883
0.009673492
-0.002279137
0.0003057981
0.0001883901
-0.0004879413
0.0001767085
0.03542751
-0.03698645
0.003315562
-0.01008981
-0.01016807
-0.009937326
-0.009949493
0.03134753
-0.03651238
-0.0001407539
0.006366647
-0.03189437
-0.0003695862
0.006643007
0.006134247
0.006395884
0.007058087
-0.006144573
-0.0001895938
0.0003900522
0.001358441
0.001279519
0.001379826
0.00123489
5.492703e-05
0.0001037878
-0.0003855123
0.0003307962
-9.281924e-05
-1.11795e-05
-0.002206601
-0.000297197
0.0114927
-0.001749091
0.0001482099
-0.002624476
-0.002184412
-0.002579129
-0.0001562504
-0.003406909
0.0001136286
-0.01348841
0.003934485
0.003935998
0.004504918
0.004562547
-0.0001379268
-0.006523329
0.009880778
0.0001100967
-0.003329615
-0.05176018
0.0002492824
-0.01690076
-0.0152107
-0.0165656
-0.01441575
-0.0004163347
-8.130124e-05
2.648548e-05
0.0459299
0.0012658
-8.011582e-05
0.0008864541
0.0001686801
-0.0004540938
0.002138658
0.009710612
-0.002007667
0.0003256567
0.000185703
-0.0004836839
0.0001906158
0.03785215
-0.03411199
0.003071513
-0.01022577
-0.01030441
-0.01010967
-0.01011523
0.0358833
-0.03399015
5.044659e-05
0.03418313
-0.03099236
-0.0001386066
0.03676538
-0.02726397
-0.001126177
0.006205785
0.005987938
0.005925459
0.005776219
0.04391764
-0.02345328
-0.0006762527
0.003714148
0.004158578
0.003644238
0.003987077
0.0521217
-0.02428941
-0.0004823804
0.003698355
0.004223161
0.003601958
0.004103228
0.05482471
-0.0298542
-0.0003925037
0.005600915
0.007477803
0.005522254
0.007514302
0.04732972
-0.04337451
-0.001397395
0.01301642
0.01219781
0.01279336
0.01202113
-0.04531646
-0.0001155779
0.03991961
-0.0004574038
0.001928985
0.009768929
-0.001852734
0.0003246639
0.0001810796
-0.000482952
0.0001952281
0.03941511
-0.03235504
0.003328122
-0.01040832
-0.01047472
-0.01026903
-0.01025965
0.03851763
-0.03258695
0.0003819016
0.03781678
-0.03079309
0.0004923529
0.03916829
-0.02871731
-0.0004413935
0.04255097
-0.02693788
-0.0004235304
0.04659433
-0.02822266
-0.000627094
0.04792241
-0.03110754
-0.0004742885
0.04329744
-0.03836141
-0.000990734
-0.04068572
-0.000224083
0.03833705
-0.0004593682
0.001811043
0.009786867
-0.001758719
0.0003296699
0.0001779708
-0.0004824526
0.0002007853
0.0403353
-0.03116568
0.003402855
-0.01048093
-0.01054956
-0.01034416
-0.01033837
0.03977738
-0.0316446
0.0006572218
0.03895427
-0.03054788
0.0009606128
0.03964883
-0.02941287
-2.388082e-05
0.04131502
-0.0286675
-7.113037e-06
0.04284506
-0.02963755
-0.0001644605
0.04332389
-0.03144562
-8.792e-05
0.04064998
-0.03552178
-0.0001970672
-0.03708783
-4.11934e-05
0.03716593
-0.0004598318
0.001736112
0.009800755
-0.001702572
0.0003304027
0.0001772368
-0.0004816859
0.000205379
0.04089885
0.003457968
-0.01053931
-0.01061139
-0.01040148
-0.01040068
-0.03029984
0.04059522
0.000711152
-0.03090842
0.03983716
0.001028667
-0.03032664
0.03985347
0.0001807627
-0.02960769
0.04026966
0.0002125502
-0.02931855
0.04062406
2.575471e-05
-0.03005635
0.04032402
2.456595e-05
-0.03116786
0.03835605
-0.0001111492
-0.03349549
3.930247e-06
0.03587266
-0.03463461
0.0001270341
0.0005950356
0.003167541
-0.02558309
-0.0003363454
-0.00177821
0.0001164005
-0.00177465
0.01105466
-0.09395445
-0.00140267
0.002388183
0.004847867
0.0003838636
0.0003381353
-0.0006844951
-0.005020865
0.001061847
-0.005104727
0.009059703
-0.08716321
-0.00208911
0.004020449
0.004608571
5.415482e-05
-1.399556e-06
0.007363475
-0.08003829
-0.002045244
0.00397038
0.004350128
0.0001732587
0.0001595875
0.005779006
-0.07255434
-0.001897929
0.003512947
0.003769861
3.29873e-05
-4.842427e-05
0.004311354
-0.06669361
-0.001694182
0.003302312
0.003488796
1.63099e-05
-2.211716e-05
0.003207872
-0.06125177
-0.001520834
0.003050882
0.003169101
-2.394462e-05
-6.942865e-05
0.002315678
-0.05802729
-0.001484764
0.002899723
0.002977987
-4.470078e-05
-7.314013e-05
-0.05478288
-0.001366983
0.002769795
-3.915158e-05
0.001694317
0.002813385
-7.406046e-05
0.0001979102
0.0008714479
0.01078957
-0.007218271
-0.0006462937
0.002377791
0.000309698
0.002711727
0.02696532
-0.08921708
0.0002475539
0.02388641
0.0246089
0.02380629
0.02437724
-0.009371302
-0.008861294
-0.00887311
-0.007484855
0.02336934
-0.09213982
-0.0008897174
0.01996641
-0.08520609
-0.001000245
0.01782988
-0.07988843
-0.001066978
0.01460757
-0.07082289
-0.001051082
0.01138738
-0.06503186
-0.0009946309
0.008542547
-0.05984731
-0.0009145907
0.006293616
-0.05711744
-0.0009310983
-0.05450796
-0.0008763521
0.004666191
0.03464795
-0.04877665
-0.001915042
-9.854411e-05
0.00153631
-0.002244315
0.001295162
0.007520194
0.01863029
0.006588711
0.01839137
0.03189169
-0.08570173
0.001042189
0.02879638
-0.08955497
-0.001179354
0.02712199
-0.08422197
-0.0006872499
0.0252077
-0.07878941
-0.001191133
0.02101435
-0.06731577
-0.0008529373
0.01637042
-0.06103342
-0.0009139184
0.01217591
-0.05625254
-0.0008261811
0.00892203
-0.05445109
-0.0008583179
-0.05281322
-0.0008603966
0.006659392
0.03591656
-0.04597993
-0.0005470255
-0.0008881989
0.0008580961
-0.002647456
0.001063484
0.03545399
-0.08413677
0.001693417
0.03439313
-0.08814712
-0.0002114131
0.03427777
-0.08389572
0.0002173664
0.03417916
-0.078718
1.731833e-05
0.02849585
-0.06166021
0.0002244838
0.02132341
-0.05390695
-9.096549e-07
0.01475751
-0.04967371
2.314206e-05
0.0105158
-0.05022981
-5.302666e-05
-0.04998992
-0.0001322622
0.007663324
0.03703053
-0.04465872
-0.00064642
-0.000728653
0.001247933
-0.002457584
0.00116332
0.03767369
-0.08345377
0.001888856
0.03796291
-0.08804454
0.0003395712
0.04073172
-0.08649043
0.0009167801
0.04507319
-0.08287274
0.001101268
0.03754524
-0.05403245
0.001285534
0.02610569
-0.0423115
0.0007444625
0.01602263
-0.03940007
0.0006095122
0.009907318
-0.04397424
0.0007047797
-0.04729046
0.0006049677
0.007182825
0.0388628
-0.04456907
-0.0006727021
-0.0008734815
0.001035891
-0.00255734
0.001085628
0.03933712
-0.08287924
0.001982415
0.0408789
-0.08918597
0.0006854051
0.04677092
-0.09184318
0.001029789
0.05880948
-0.02346951
0.00161233
-0.02363564
-0.02306644
-0.02350363
0.05487115
-0.01532054
0.001661905
-0.01009528
-0.01474614
-0.009828373
0.03257683
-0.005844794
0.0005790973
-0.00400853
-0.005903053
-0.004023512
0.01302428
-0.004485396
0.000246779
-0.005244047
-0.004383933
-0.005305488
0.006254473
-0.008709585
0.0007787406
-0.009787432
-0.008568631
-0.009636795
-0.01104517
0.001017553
-0.01088678
0.004915209
-0.01186087
-0.01154718
0.03887785
-0.04451407
-0.0006741631
-0.0008769058
0.00105554
-0.002587153
0.001119371
0.03996791
-0.08287718
0.001929001
0.04273274
-0.09150126
0.0001562125
0.01221497
-0.098124
0.0003455685
0.01257715
0.01203337
0.01244115
-0.0004733748
0.01390122
-0.02500674
0.0003243487
-0.0001903986
0.02356416
0.0001975037
-0.01814925
-0.001707947
-0.00674741
-0.004833978
-0.007453283
-0.01738071
-0.0001011585
0.01085754
0.0006330885
0.0001464389
0.0001310223
0.003350396
-9.725344e-05
-0.006912337
-0.0002849093
-0.0001888635
-0.0002923317
-0.000191119
-9.251829e-05
-0.000576649
5.2963e-05
0.0003899606
-0.003037412
-0.001215158
-0.003055787
-0.001174986
-0.0006678523
-0.0002495957
-0.01103805
0.0001263572
0.0007839708
0.03739711
-0.04296192
-0.0008495966
-0.0008625239
0.001143776
-0.002543666
0.001131729
0.03534235
-0.07983763
0.001768186
0.03386558
-0.08968188
-7.697262e-05
0.009577037
-0.09619216
-3.287072e-05
0.006619175
0.009422142
0.006442925
-0.0004077806
0.02619091
-0.02599802
0.0002589466
0.002055752
0.002720117
0.002056655
0.002700453
-1.095553e-05
0.002192161
-0.0007437874
-0.001439444
2.025727e-06
-0.05649814
-0.0003343443
0.002156543
0.002687425
0.002128957
0.002565877
0.01218094
0.01207993
-0.001039751
0.01208222
0.01184387
0.03647393
-0.04043645
-0.0007804047
-0.0009286727
0.001123854
-0.002543274
0.001097929
0.03195
-0.07425735
0.001866396
0.02570333
-0.08321297
-0.0002408918
0.004529167
-0.08557873
-0.000112876
0.003014673
0.004365669
0.003032796
0.02467969
-0.0001649728
0.00275002
-0.0228751
0.0001395227
-0.05808434
-0.001006955
0.0009340663
-0.001455682
0.0005999642
-0.001894644
0.003131153
0.03548186
-0.03693926
-0.0008240709
-0.000958529
0.001162878
-0.002470706
0.001080267
0.02993969
-0.06769149
0.001892198
0.02150283
-0.07470002
-0.0004035565
0.01180371
-0.07579933
0.0004854517
-0.06640129
0.0003668847
-4.286545e-05
0.001169144
-0.000104331
-0.002148092
0.02170734
0.01753012
0.02145073
0.01827606
0.006145954
-0.04027609
0.001594547
0.00385878
-0.0007581322
0.01411571
0.01531922
-0.05764496
-0.0002905839
0.005412842
0.0351779
-0.0330987
-0.000776664
-0.001036245
0.001136451
-0.002414886
0.001041875
0.02861668
-0.06006948
0.001937701
0.0200003
-0.06587706
-0.0003156057
0.009794702
-0.065538
0.0001071225
-0.05669046
0.0003029402
-0.0001070334
0.001936363
-0.0002982869
-0.001750113
0.0004023359
-0.0409483
-4.91656e-05
0.001465956
-0.001146909
-0.06226774
0.0002303088
0.0048242
0.03508731
-0.02921579
-0.0007217127
-0.001102993
0.001134028
-0.002334589
0.001024109
0.02840928
-0.05229444
0.001947773
0.01970299
-0.05700324
-0.0002548793
0.009968997
-0.05558442
0.0002954025
-0.01307043
0.0004838135
-0.0005335782
0.001626168
-0.0005215614
-0.0009521916
-0.01038087
-0.01265275
-0.01072006
-0.004554731
-0.001642293
0.001204999
-0.003987494
-0.01548707
-0.01648171
-0.07275122
0.0005636175
0.005443803
0.03520602
-0.02549818
-0.0006961942
-0.001169796
0.001129671
-0.002251665
0.001033479
0.0293444
-0.04523812
0.001880719
0.02045881
-0.04793875
-0.0003893429
0.002812353
-0.04563529
0.0003890872
0.002507351
0.00298842
0.002415672
9.134951e-05
0.0009877356
-0.01122795
-0.0001092161
-0.08161905
0.000970187
-0.0002004912
-0.001694883
0.0005558162
-0.00129961
0.01126818
0.03553278
-0.02229797
-0.0005944737
-0.001227382
0.001147732
-0.002153637
0.001063927
0.03138923
-0.03966878
0.001700571
0.02430237
-0.04067116
-0.0001955473
0.003755136
-0.03544592
0.0001483812
0.003266007
0.003706577
0.003205868
4.284836e-05
-0.008136793
-5.073628e-05
0.009910959
0.0004310789
0.0005677695
0.0004210439
0.0005689665
-0.01680219
-8.228368e-05
-0.004642341
-0.01692672
-0.004129232
-0.0173737
-0.0165228
0.0269148
-0.01678803
-0.01618351
0.0358838
-0.01966647
-0.0005191384
-0.001247815
0.001198854
-0.002055424
0.001077405
0.0334851
-0.03575713
0.001802599
0.02912377
-0.03616934
-0.0002812461
0.006078698
-0.03103408
-0.0002083853
0.006287251
0.006004111
0.006180668
8.77048e-05
0.006698289
-0.005849998
-4.629264e-05
0.001359272
0.001232345
0.001375974
0.001221404
2.321401e-06
0.0001233368
-0.0002964926
0.0003352777
-0.0001601156
-4.327587e-06
-0.002171685
-5.436575e-05
0.01120974
-0.001766378
4.654222e-05
-0.002551839
-0.002165055
-0.00254696
-5.79471e-05
-0.003540458
6.70072e-05
-0.01330236
0.003880012
0.003887229
0.004527333
0.004539185
-0.0002075014
-0.006546188
-0.004061574
0.0001102448
0.00154707
0.003811405
0.00155413
0.003792414
-0.003943175
-0.0145817
0.0001537026
-0.003152921
-0.003876606
-0.003096021
0.01194382
0.0375385
-0.01823388
-0.000683137
-0.001356557
0.001097894
-0.00208261
0.001022526
0.03579327
-0.03276359
0.0018232
0.03344455
-0.03358305
-0.0001871206
0.03308339
-0.03065211
-0.000159408
0.0361563
-0.02705383
-0.0006597653
0.005948319
0.005898243
0.005840988
0.005826962
0.04354096
-0.0228792
-0.0003984497
0.003653026
0.003995243
0.003620665
0.003947798
0.05171489
-0.02400839
-0.0003470483
0.003653369
0.004206837
0.003638171
0.004200743
0.0543627
-0.03007241
-0.0002064126
0.005591336
0.008026401
0.005578691
0.008042092
0.04672011
-0.04187034
-0.0008684499
0.01187324
0.01282806
0.01166893
0.01261375
-0.0456489
-0.0001846282
0.01324323
0.01299518
0.03978237
0.01339529
0.01302199
0.03773078
-0.01720396
-0.0005535393
-0.001361493
0.001116993
-0.0020363
0.001042857
0.03744458
-0.03101542
0.001866147
0.03648877
-0.03235516
0.0001098275
0.03693133
-0.03077571
0.0001733929
0.03841942
-0.02856546
-0.0004178576
0.04218613
-0.02670925
-0.0003601889
0.0461861
-0.02812775
-0.0005077053
0.04736664
-0.03131222
-0.0004150187
0.04352534
-0.03825803
-0.0007617469
-0.04067416
-0.0002091231
0.03853563
0.03818571
-0.01645008
-0.0007256973
-0.001386067
0.001118996
-0.002021861
0.001044261
0.03837959
-0.02983563
0.00202919
0.03783633
-0.03155876
0.0004040649
0.03805673
-0.0306628
0.0006273096
0.03911591
-0.0295109
-0.0001376193
0.04122982
-0.02871345
-0.000116816
0.04284461
-0.02966062
-0.0002463696
0.04327191
-0.03163596
-0.0001914875
0.04060353
-0.03553025
-0.0002564684
-0.03732537
-7.434318e-05
0.03728789
0.03840392
-0.0006299426
-0.001396918
0.001120094
-0.002009481
0.001056935
-0.01602548
0.03891067
0.002032094
-0.02891651
0.03856927
0.0004757064
-0.03098192
0.03875809
0.0007463003
-0.03056926
0.03915957