/*--------------------------------*- C++ -*----------------------------------*\
  =========                 |
  \\      /  F ield         | OpenFOAM: The Open Source CFD Toolbox
   \\    /   O peration     | Website:  https://openfoam.org
    \\  /    A nd           | Version:  7
     \\/     M anipulation  |
\*---------------------------------------------------------------------------*/
FoamFile
{
    version     2.0;
    format      ascii;
    class       volScalarField;
    location    "0.03";
    object      nut;
}
// * * * * * * * * * * * * * * * * * * * * * * * * * * * * * * * * * * * * * //

dimensions      [0 2 -1 0 0 0 0];

internalField   nonuniform List<scalar> 
105056
(
0.0006567434
0.0006390546
0.00063751
0.0006373643
0.0006374251
0.0006388315
0.0006071023
0.0006040364
0.0006037066
0.0006037785
0.0006372691
0.0006040565
0.0006005807
0.0006001532
0.0006002267
0.0006370879
0.0006036692
0.0006000869
0.0005996194
0.0005996888
0.0006370502
0.0006035915
0.0005999751
0.0005994863
0.0005995558
0.0006370414
0.0006035707
0.000599942
0.0005994433
0.0005995119
0.0006370385
0.000603565
0.0005999303
0.0005994266
0.000599494
0.0006370377
0.0006035627
0.0005999256
0.0005994217
0.0005994883
0.0006370377
0.000603562
0.0005999236
0.0005994198
0.0005994857
0.0006370383
0.0006035618
0.0005999228
0.0005994192
0.0005994848
0.000637038
0.000603562
0.0005999228
0.0005994189
0.0005994845
0.0006370372
0.0006035622
0.0005999229
0.0005994188
0.0005994844
0.0006370371
0.0006035628
0.0005999233
0.0005994186
0.0005994843
0.0006370367
0.000603563
0.0005999235
0.0005994185
0.0005994843
0.0006370365
0.0006035628
0.0005999238
0.0005994184
0.0005994845
0.0006370355
0.0006035637
0.0005999243
0.0005994185
0.0005994848
0.0006370352
0.0006035656
0.0005999257
0.0005994191
0.0005994858
0.0006370347
0.0006035659
0.0005999275
0.0005994209
0.0005994883
0.0006370369
0.0006035687
0.0005999327
0.000599427
0.000599495
0.0006370397
0.0006035828
0.0005999497
0.0005994458
0.0005995148
0.0006370594
0.000603629
0.0006000106
0.0005995131
0.0005995827
0.0006371485
0.0006037844
0.0006002113
0.0005997304
0.000599796
0.0001012616
0.0006041254
0.0006006208
0.0006001664
0.0006002197
0.0005981452
0.0005977226
0.0005977616
0.0005977863
0.0005978007
0.0001010525
0.0001010204
0.0001010083
0.000101008
0.0001010078
0.0001010078
0.0001010404
0.000101012
0.0001010092
0.0001010077
0.0001010078
0.0001010077
0.0001010227
0.0001010109
0.0001010091
0.0001010077
0.0001010077
0.0001010077
0.0001010232
0.0001010119
0.0001010088
0.0001010077
0.0001010077
0.0001010077
0.0001010224
0.0001010118
0.0001010089
0.0001010078
0.0001010078
0.0001010077
0.0001010219
0.0001010117
0.000101009
0.0001010078
0.0001010078
0.0001010077
0.0001010216
0.0001010115
0.000101009
0.0001010078
0.0001010078
0.0001010077
0.0001010214
0.0001010114
0.000101009
0.0001010078
0.0001010078
0.0001010077
0.0001010213
0.0001010113
0.0001010091
0.0001010078
0.0001010078
0.0001010077
0.0001010209
0.0001010113
0.0001010091
0.0001010078
0.0001010078
0.0001010077
0.0001010208
0.0001010113
0.0001010091
0.0001010078
0.0001010078
0.0001010077
0.0001010206
0.0001010113
0.0001010091
0.0001010078
0.0001010078
0.0001010077
0.0001010203
0.0001010114
0.0001010091
0.0001010078
0.0001010078
0.0001010077
0.0001010198
0.0001010114
0.0001010091
0.0001010078
0.0001010078
0.0001010077
0.0001010197
0.0001010115
0.0001010091
0.0001010078
0.0001010078
0.0001010077
0.0001010196
0.0001010116
0.0001010092
0.0001010078
0.0001010078
0.0001010077
0.0001010193
0.0001010117
0.0001010091
0.0001010078
0.0001010078
0.0001010077
0.0001010192
0.0001010117
0.0001010091
0.0001010078
0.0001010078
0.0001010077
0.0001010191
0.0001010117
0.0001010091
0.0001010078
0.0001010078
0.0001010077
0.0001010185
0.0001010117
0.0001010091
0.0001010078
0.0001010078
0.0001010077
0.0001010215
0.0001010117
0.0001010091
0.0001010078
0.0001010078
0.0001010077
0.0001010229
0.0001010116
0.0001010091
0.0001010078
0.0001010078
0.0001010077
0.0001010205
0.0001010114
0.0001010091
0.0001010077
0.0001010078
0.0001010077
0.0005991694
0.0005980696
0.0005981584
0.0005982193
0.0005982216
0.0001010373
0.0001010123
0.000101009
0.0001010077
0.0001010078
0.0001010077
0.0001010284
0.0001010125
0.0001010076
0.000101008
0.0001010076
0.0001010076
0.0001010355
0.0001010096
0.0001010085
0.0001010077
0.0001010077
0.0001010076
0.0001010296
0.0001010088
0.0001010091
0.0001010077
0.0001010077
0.0001010076
0.00010103
0.0001010088
0.0001010095
0.0001010077
0.0001010077
0.0001010076
0.0001010308
0.000101009
0.0001010094
0.0001010077
0.0001010077
0.0001010076
0.0001010297
0.0001010092
0.0001010094
0.0001010077
0.0001010078
0.0001010076
0.0001010295
0.0001010093
0.0001010093
0.0001010077
0.0001010078
0.0001010076
0.0001010294
0.0001010094
0.0001010093
0.0001010077
0.0001010078
0.0001010076
0.0001010291
0.0001010095
0.0001010093
0.0001010077
0.0001010078
0.0001010076
0.0001010292
0.0001010095
0.0001010093
0.0001010077
0.0001010078
0.0001010076
0.0001010294
0.0001010095
0.0001010093
0.0001010077
0.0001010078
0.0001010076
0.0001010296
0.0001010095
0.0001010094
0.0001010077
0.0001010078
0.0001010076
0.0001010296
0.0001010095
0.0001010094
0.0001010077
0.0001010078
0.0001010076
0.0001010301
0.0001010095
0.0001010094
0.0001010077
0.0001010078
0.0001010076
0.0001010307
0.0001010095
0.0001010095
0.0001010077
0.0001010078
0.0001010076
0.0001010303
0.0001010095
0.0001010095
0.0001010077
0.0001010078
0.0001010076
0.0001010302
0.0001010095
0.0001010095
0.0001010077
0.0001010078
0.0001010076
0.0001010304
0.0001010095
0.0001010095
0.0001010077
0.0001010078
0.0001010076
0.0001010295
0.0001010095
0.0001010094
0.0001010077
0.0001010078
0.0001010076
0.0001010288
0.0001010095
0.0001010094
0.0001010077
0.0001010078
0.0001010076
0.0001010294
0.0001010095
0.0001010094
0.0001010077
0.0001010078
0.0001010076
0.0001010305
0.0001010096
0.0001010093
0.0001010077
0.0001010078
0.0001010076
0.0005992697
0.0005982674
0.0005983708
0.0005984449
0.0005984383
0.0001010209
0.0001010105
0.0001010092
0.0001010077
0.0001010077
0.0001010077
0.0001010352
0.0001010094
0.0001010084
0.0001010078
0.0001010076
0.0001010076
0.0001010229
0.0001010126
0.0001010076
0.0001010079
0.0001010076
0.0001010076
0.0001010236
0.0001010108
0.0001010081
0.0001010078
0.0001010077
0.0001010076
0.0001010196
0.0001010119
0.0001010076
0.000101008
0.0001010077
0.0001010076
0.0001010226
0.0001010122
0.0001010076
0.0001010081
0.0001010076
0.0001010076
0.0001010225
0.000101012
0.0001010076
0.0001010081
0.0001010076
0.0001010077
0.0001010224
0.0001010117
0.0001010076
0.0001010081
0.0001010076
0.0001010077
0.0001010222
0.0001010115
0.0001010076
0.0001010081
0.0001010076
0.0001010077
0.000101022
0.0001010114
0.0001010076
0.0001010081
0.0001010076
0.0001010077
0.0001010218
0.0001010113
0.0001010076
0.0001010082
0.0001010076
0.0001010077
0.0001010218
0.0001010113
0.0001010076
0.0001010082
0.0001010076
0.0001010077
0.0001010214
0.0001010114
0.0001010076
0.0001010082
0.0001010076
0.0001010077
0.0001010208
0.0001010114
0.0001010076
0.0001010082
0.0001010076
0.0001010077
0.0001010203
0.0001010115
0.0001010076
0.0001010082
0.0001010076
0.0001010077
0.0001010198
0.0001010115
0.0001010076
0.0001010082
0.0001010076
0.0001010077
0.0001010198
0.0001010116
0.0001010076
0.0001010082
0.0001010076
0.0001010077
0.0001010203
0.0001010116
0.0001010076
0.0001010082
0.0001010076
0.0001010077
0.0001010211
0.0001010115
0.0001010076
0.0001010082
0.0001010076
0.0001010077
0.0001010219
0.0001010115
0.0001010076
0.0001010082
0.0001010076
0.0001010077
0.0001010225
0.0001010114
0.0001010076
0.0001010082
0.0001010076
0.0001010077
0.0001010231
0.0001010113
0.0001010076
0.0001010082
0.0001010076
0.0001010077
0.0001010231
0.0001010112
0.0001010076
0.0001010082
0.0001010076
0.0001010077
0.0005992969
0.0005983172
0.0005984348
0.0005985141
0.0005985066
0.0001010281
0.0001010109
0.000101009
0.0001010077
0.0001010077
0.0001010077
0.0001010295
0.0001010087
0.0001010088
0.0001010077
0.0001010076
0.0001010076
0.000101035
0.0001010105
0.000101008
0.0001010077
0.0001010077
0.0001010076
0.0001010186
0.0001010107
0.0001010076
0.0001010081
0.0001010076
0.0001010076
0.000101039
0.0001010092
0.0001010077
0.0001010078
0.0001010076
0.0001010076
0.0001010243
0.000101008
0.0001010078
0.0001010077
0.0001010076
0.0001010076
0.0001010236
0.0001010081
0.0001010078
0.0001010077
0.0001010076
0.0001010076
0.0001010235
0.0001010081
0.0001010078
0.0001010076
0.0001010076
0.0001010076
0.0001010233
0.0001010082
0.0001010078
0.0001010076
0.0001010076
0.0001010076
0.0001010232
0.0001010082
0.0001010078
0.0001010076
0.0001010076
0.0001010076
0.0001010231
0.0001010082
0.0001010078
0.0001010076
0.0001010076
0.0001010076
0.0001010231
0.0001010081
0.0001010078
0.0001010076
0.0001010076
0.0001010076
0.0001010233
0.0001010081
0.0001010078
0.0001010076
0.0001010076
0.0001010076
0.0001010233
0.000101008
0.0001010078
0.0001010076
0.0001010076
0.0001010076
0.0001010233
0.000101008
0.0001010078
0.0001010076
0.0001010076
0.0001010076
0.0001010234
0.000101008
0.0001010078
0.0001010076
0.0001010076
0.0001010076
0.0001010234
0.000101008
0.0001010078
0.0001010076
0.0001010076
0.0001010076
0.0001010232
0.0001010079
0.0001010078
0.0001010076
0.0001010076
0.0001010076
0.0001010227
0.0001010079
0.0001010078
0.0001010076
0.0001010076
0.0001010076
0.0001010223
0.0001010079
0.0001010078
0.0001010076
0.0001010076
0.0001010076
0.0001010221
0.000101008
0.0001010078
0.0001010076
0.0001010076
0.0001010076
0.0001010219
0.0001010079
0.0001010078
0.0001010076
0.0001010076
0.0001010076
0.0001010318
0.0001010078
0.0001010078
0.0001010076
0.0001010076
0.0001010076
0.0005992949
0.0005983216
0.0005984361
0.0005985096
0.000598507
0.0001010322
0.0001010109
0.000101009
0.0001010077
0.0001010077
0.0001010077
0.0001010298
0.0001010086
0.0001010087
0.0001010077
0.0001010076
0.0001010076
0.000101019
0.0001010105
0.000101008
0.0001010077
0.0001010077
0.0001010076
0.0001010341
0.0001010107
0.0001010076
0.0001010081
0.0001010076
0.0001010076
0.000101017
0.0001010091
0.0001010077
0.0001010078
0.0001010076
0.0001010076
0.0001010154
0.000101008
0.0001010078
0.0001010077
0.0001010076
0.0001010076
0.0001010154
0.0001010081
0.0001010078
0.0001010077
0.0001010076
0.0001010076
0.0001010154
0.0001010081
0.0001010078
0.0001010076
0.0001010076
0.0001010076
0.0001010153
0.0001010082
0.0001010078
0.0001010076
0.0001010076
0.0001010076
0.0001010153
0.0001010082
0.0001010078
0.0001010076
0.0001010076
0.0001010076
0.0001010153
0.0001010082
0.0001010078
0.0001010076
0.0001010076
0.0001010076
0.0001010154
0.0001010081
0.0001010078
0.0001010076
0.0001010076
0.0001010076
0.0001010155
0.000101008
0.0001010078
0.0001010076
0.0001010076
0.0001010076
0.0001010156
0.000101008
0.0001010078
0.0001010076
0.0001010076
0.0001010076
0.0001010159
0.0001010079
0.0001010078
0.0001010076
0.0001010076
0.0001010076
0.0001010161
0.0001010079
0.0001010078
0.0001010076
0.0001010076
0.0001010076
0.0001010161
0.0001010079
0.0001010078
0.0001010076
0.0001010076
0.0001010076
0.0001010159
0.0001010079
0.0001010078
0.0001010076
0.0001010076
0.0001010076
0.0001010158
0.0001010079
0.0001010078
0.0001010076
0.0001010076
0.0001010076
0.0001010157
0.0001010079
0.0001010078
0.0001010076
0.0001010076
0.0001010076
0.0001010156
0.0001010079
0.0001010078
0.0001010076
0.0001010076
0.0001010076
0.0001010155
0.0001010079
0.0001010078
0.0001010076
0.0001010076
0.0001010076
0.0001010214
0.0001010077
0.0001010078
0.0001010076
0.0001010076
0.0001010076
0.000599319
0.0005982956
0.0005984033
0.0005984751
0.0005984714
0.0001010195
0.0001010105
0.0001010092
0.0001010077
0.0001010077
0.0001010077
0.0001010287
0.0001010093
0.0001010084
0.0001010078
0.0001010076
0.0001010076
0.0001010358
0.0001010126
0.0001010076
0.0001010079
0.0001010076
0.0001010076
0.0001010472
0.0001010108
0.000101008
0.0001010078
0.0001010077
0.0001010076
0.0001010397
0.000101012
0.0001010076
0.000101008
0.0001010077
0.0001010076
0.0001010175
0.0001010122
0.0001010076
0.0001010081
0.0001010076
0.0001010076
0.0001010167
0.0001010119
0.0001010076
0.0001010081
0.0001010076
0.0001010077
0.0001010167
0.0001010117
0.0001010076
0.0001010081
0.0001010076
0.0001010077
0.0001010167
0.0001010115
0.0001010076
0.0001010081
0.0001010076
0.0001010077
0.0001010167
0.0001010114
0.0001010076
0.0001010082
0.0001010076
0.0001010077
0.0001010167
0.0001010113
0.0001010076
0.0001010082
0.0001010076
0.0001010077
0.0001010168
0.0001010113
0.0001010076
0.0001010082
0.0001010076
0.0001010077
0.0001010168
0.0001010113
0.0001010076
0.0001010082
0.0001010076
0.0001010077
0.0001010168
0.0001010114
0.0001010076
0.0001010082
0.0001010076
0.0001010077
0.0001010168
0.0001010114
0.0001010076
0.0001010082
0.0001010076
0.0001010077
0.0001010168
0.0001010115
0.0001010076
0.0001010082
0.0001010076
0.0001010077
0.0001010168
0.0001010115
0.0001010076
0.0001010082
0.0001010076
0.0001010077
0.0001010167
0.0001010115
0.0001010076
0.0001010082
0.0001010076
0.0001010077
0.0001010166
0.0001010115
0.0001010076
0.0001010082
0.0001010076
0.0001010077
0.0001010165
0.0001010114
0.0001010076
0.0001010082
0.0001010076
0.0001010077
0.0001010164
0.0001010114
0.0001010076
0.0001010082
0.0001010076
0.0001010077
0.0001010163
0.0001010112
0.0001010076
0.0001010082
0.0001010076
0.0001010077
0.0001010163
0.0001010112
0.0001010076
0.0001010082
0.0001010076
0.0001010077
0.000599255
0.0005981476
0.0005982201
0.0005982872
0.0005982848
0.0001010282
0.0001010123
0.0001010091
0.0001010077
0.0001010078
0.0001010077
0.0001010536
0.0001010125
0.0001010077
0.000101008
0.0001010076
0.0001010076
0.0001010606
0.0001010096
0.0001010085
0.0001010077
0.0001010077
0.0001010076
0.0001010238
0.0001010088
0.0001010091
0.0001010077
0.0001010077
0.0001010076
0.0001010287
0.0001010088
0.0001010095
0.0001010077
0.0001010077
0.0001010076
0.0001010197
0.0001010089
0.0001010094
0.0001010077
0.0001010077
0.0001010076
0.0001010185
0.0001010091
0.0001010094
0.0001010077
0.0001010078
0.0001010076
0.0001010183
0.0001010093
0.0001010093
0.0001010077
0.0001010078
0.0001010076
0.0001010182
0.0001010094
0.0001010093
0.0001010077
0.0001010078
0.0001010076
0.0001010182
0.0001010095
0.0001010093
0.0001010077
0.0001010078
0.0001010076
0.0001010185
0.0001010095
0.0001010093
0.0001010077
0.0001010078
0.0001010076
0.0001010184
0.0001010095
0.0001010093
0.0001010077
0.0001010078
0.0001010076
0.0001010185
0.0001010095
0.0001010093
0.0001010077
0.0001010078
0.0001010076
0.0001010182
0.0001010095
0.0001010094
0.0001010077
0.0001010078
0.0001010076
0.0001010183
0.0001010095
0.0001010094
0.0001010077
0.0001010078
0.0001010076
0.0001010184
0.0001010095
0.0001010094
0.0001010077
0.0001010078
0.0001010076
0.000101019
0.0001010095
0.0001010094
0.0001010077
0.0001010078
0.0001010076
0.0001010192
0.0001010095
0.0001010095
0.0001010077
0.0001010078
0.0001010076
0.0001010191
0.0001010095
0.0001010094
0.0001010077
0.0001010078
0.0001010076
0.0001010193
0.0001010094
0.0001010094
0.0001010077
0.0001010078
0.0001010076
0.000101019
0.0001010095
0.0001010094
0.0001010077
0.0001010078
0.0001010076
0.0001010188
0.0001010096
0.0001010093
0.0001010077
0.0001010078
0.0001010076
0.0001010192
0.0001010096
0.0001010092
0.0001010077
0.0001010078
0.0001010076
0.0005995787
0.0005989498
0.0005990211
0.0005990729
0.0005990757
0.000101124
0.0001010204
0.0001010083
0.000101008
0.0001010078
0.0001010078
0.0001010811
0.000101012
0.0001010092
0.0001010077
0.0001010077
0.0001010077
0.0001010237
0.0001010109
0.0001010091
0.0001010077
0.0001010077
0.0001010077
0.0001010178
0.0001010119
0.0001010088
0.0001010077
0.0001010077
0.0001010077
0.0001010179
0.0001010118
0.0001010088
0.0001010078
0.0001010078
0.0001010077
0.0001010179
0.0001010116
0.000101009
0.0001010078
0.0001010078
0.0001010077
0.0001010178
0.0001010115
0.000101009
0.0001010078
0.0001010078
0.0001010077
0.0001010178
0.0001010114
0.000101009
0.0001010078
0.0001010078
0.0001010077
0.0001010178
0.0001010113
0.0001010091
0.0001010078
0.0001010078
0.0001010077
0.0001010178
0.0001010113
0.0001010091
0.0001010078
0.0001010078
0.0001010077
0.0001010188
0.0001010113
0.0001010091
0.0001010078
0.0001010078
0.0001010077
0.0001010186
0.0001010113
0.0001010091
0.0001010077
0.0001010078
0.0001010077
0.0001010201
0.0001010114
0.0001010091
0.0001010078
0.0001010078
0.0001010077
0.0001010183
0.0001010114
0.0001010091
0.0001010078
0.0001010078
0.0001010077
0.0001010198
0.0001010115
0.0001010091
0.0001010078
0.0001010078
0.0001010077
0.0001010184
0.0001010115
0.0001010091
0.0001010078
0.0001010078
0.0001010077
0.0001010182
0.0001010116
0.0001010091
0.0001010078
0.0001010078
0.0001010077
0.0001010171
0.0001010117
0.0001010091
0.0001010078
0.0001010078
0.0001010077
0.0001010211
0.0001010117
0.0001010091
0.0001010078
0.0001010078
0.0001010077
0.0001010219
0.0001010117
0.0001010091
0.0001010078
0.0001010078
0.0001010077
0.0001010171
0.0001010116
0.0001010091
0.0001010077
0.0001010078
0.0001010077
0.0001010171
0.0001010116
0.0001010091
0.0001010077
0.0001010078
0.0001010077
0.0001010173
0.0001010114
0.0001010091
0.0001010077
0.0001010078
0.0001010077
0.000212225
0.0002097865
0.0002097245
0.0002097342
0.0002097303
0.0001012611
0.0001013151
0.0001012439
0.0001011816
0.0001011954
0.0001011878
0.0001010589
0.0001012883
0.0001012089
0.0001011337
0.0001011559
0.000101147
0.0001010406
0.0001012571
0.0001012196
0.0001011344
0.0001011552
0.0001011439
0.0001010394
0.0001012507
0.0001012226
0.0001011318
0.0001011544
0.0001011419
0.0001010395
0.000101252
0.0001012242
0.0001011343
0.0001011561
0.0001011422
0.0001010396
0.0001012517
0.0001012239
0.0001011354
0.0001011562
0.0001011427
0.0001010396
0.000101252
0.0001012232
0.0001011369
0.0001011563
0.0001011435
0.0001010396
0.0001012548
0.0001012225
0.0001011373
0.0001011563
0.0001011441
0.0001010396
0.0001012566
0.0001012219
0.0001011373
0.0001011564
0.0001011444
0.0001010395
0.0001012593
0.0001012213
0.0001011373
0.0001011566
0.0001011444
0.0001010395
0.0001012596
0.0001012209
0.0001011375
0.0001011567
0.0001011443
0.0001010395
0.0001012592
0.0001012205
0.0001011375
0.0001011569
0.0001011443
0.0001010396
0.0001012589
0.0001012205
0.0001011376
0.0001011571
0.0001011443
0.0001010396
0.0001012586
0.0001012199
0.0001011378
0.0001011572
0.0001011444
0.0001010396
0.0001012589
0.0001012196
0.000101138
0.0001011572
0.0001011445
0.0001010396
0.0001012578
0.0001012193
0.0001011381
0.0001011573
0.0001011446
0.0001010397
0.0001012584
0.0001012191
0.0001011381
0.0001011574
0.0001011447
0.0001010397
0.000101254
0.0001012181
0.0001011376
0.0001011576
0.0001011447
0.0001010397
0.0001012544
0.0001012163
0.0001011387
0.0001011577
0.0001011448
0.0001014624
0.0001012505
0.000101216
0.0001011389
0.0001011578
0.000101145
0.0001010811
0.0001012569
0.0001012171
0.0001011372
0.0001011579
0.0001011452
0.0001013972
0.0001012581
0.000101216
0.0001011376
0.0001011573
0.0001011438
0.0001014296
0.0001012616
0.0001012171
0.0001011377
0.0001011571
0.0001011442
0.0003040667
0.0001882551
0.0001010755
0.0001010592
0.0003058891
0.0002944273
0.00010126
0.0001010859
0.000101893
0.000101146
0.0002940923
0.0002938572
0.0001010559
0.0001011593
0.0001016076
0.000101182
0.0002938595
0.0002938266
0.0001010404
0.0001011849
0.0001015478
0.0001011891
0.0002938305
0.0002938224
0.0001010392
0.000101192
0.0001015033
0.0001011929
0.0002938237
0.0002938221
0.0001010393
0.0001011947
0.0001014679
0.0001011953
0.0002938204
0.0002938229
0.0001010394
0.0001011962
0.0001014533
0.0001011967
0.0002938196
0.0002938237
0.0001010394
0.0001011972
0.0001014369
0.0001011971
0.00029382
0.0002938245
0.0001010394
0.0001011969
0.0001014316
0.0001011959
0.0002938213
0.0002938251
0.0001010394
0.0001011964
0.0001014216
0.0001011954
0.0002938241
0.0002938251
0.0001010394
0.0001011953
0.0001014241
0.0001011955
0.0002938235
0.0002938254
0.0001010394
0.0001011952
0.0001014245
0.000101195
0.0002938227
0.0002938254
0.0001010395
0.0001011945
0.0001014174
0.0001011943
0.0002938229
0.0002938254
0.0001010394
0.0001011946
0.0001014183
0.0001011925
0.0002938232
0.0002938256
0.0001010395
0.0001011941
0.0001014151
0.0001011916
0.0002938232
0.0002938252
0.0001010395
0.000101193
0.0001014177
0.0001011916
0.000293821
0.000293825
0.0001010395
0.0001011922
0.0001014132
0.0001011885
0.0002938224
0.0002938248
0.0001010395
0.000101193
0.0001014108
0.0001011861
0.0002938225
0.0002938238
0.0001010396
0.0001011934
0.0001014095
0.0001011863
0.0002938233
0.0002938247
0.0001010395
0.0001011891
0.0001014104
0.0001011868
0.0002938207
0.0002938238
0.000101041
0.0001011861
0.0001010653
0.0001011777
0.0002938155
0.0002938287
0.0001014039
0.0001011979
0.0001010757
0.0001011849
0.0002938255
0.0002938631
0.0001014982
0.0001011966
0.0001010452
0.00010119
0.000293892
0.0001014426
0.0001011679
0.0001011884
0.0001010461
0.0001011903
0.0002125115
0.0001012449
0.0001010734
0.0002101394
0.0001019722
0.000101135
0.0002101239
0.0001011133
0.0001011208
0.0002100956
0.0001016122
0.000101103
0.0002100664
0.0001010556
0.0001011027
0.0002100731
0.0001010988
0.0001010934
0.0002100617
0.0001015411
0.0001010949
0.000210059
0.0001010909
0.0001010949
0.0002100559
0.0001015659
0.000101104
0.0002100657
0.0001010448
0.0001010961
0.0002100759
0.0001014536
0.0001010966
0.0002100794
0.000101041
0.0001010985
0.0002100984
0.0001016483
0.000101103
0.0002101078
0.0001010977
0.0001011125
0.0002101215
0.0001019709
0.0001011334
0.0002125074
0.0001012504
0.0001010735
0.0001882542
0.0001010744
0.0001010592
0.0003040669
0.0002097614
0.0001010066
0.0001010128
0.0003060044
0.0002946264
0.0002096959
0.0001010121
0.0001010095
0.000294375
0.0002940869
0.0002097093
0.0001010102
0.0001010103
0.0002941022
0.0002940679
0.0002097068
0.0001010104
0.00010101
0.0002940928
0.0002940669
0.0001010102
0.0002940968
0.0001010861
0.0001018901
0.0001011461
0.0003058909
0.0002944277
0.0001011593
0.0001016073
0.000101182
0.0002940919
0.0002938582
0.0001011848
0.0001015474
0.0001011887
0.000293858
0.0002938276
0.0001011918
0.000101505
0.0001011928
0.0002938308
0.0002938232
0.0001011946
0.000101472
0.0001011953
0.0002938249
0.0002938223
0.000101196
0.0001014594
0.0001011965
0.0002938206
0.0002938218
0.0001011971
0.000101439
0.0001011967
0.0002938184
0.0002938228
0.0001011968
0.0001014385
0.0001011964
0.0002938188
0.0002938235
0.0001011958
0.0001014215
0.0001011921
0.0002938208
0.0002938245
0.0001011943
0.000101423
0.0001011939
0.000293821
0.0002938242
0.0001011934
0.0001014168
0.0001011912
0.0002938212
0.0002938241
0.0001011927
0.0001014146
0.0001011895
0.000293822
0.000293824
0.0001011913
0.0001014284
0.0001011902
0.0002938193
0.0002938233
0.0001011778
0.0001010446
0.0001011889
0.0002938255
0.0002938283
0.0001011787
0.0001010712
0.000101182
0.0002938361
0.0002938656
0.0001011926
0.000101042
0.0001011889
0.0002938962
0.0001011392
0.0001017027
0.0001456131
0.0003060036
0.0002946259
0.0002122227
0.0002097619
0.0001010067
0.0001010128
0.0002943752
0.0002940872
0.0002097871
0.0002096972
0.0001010121
0.0001010095
0.0002941013
0.0002940665
0.0002097255
0.0002097097
0.0001010101
0.0001010103
0.0002940918
0.0002940652
0.0002097353
0.0002097072
0.0001010104
0.00010101
0.0002940961
0.0002097313
0.0001010102
0.0001011424
0.0001429902
0.0001010622
0.0001428034
0.0001011115
0.0001426662
0.0001011117
0.0001427151
0.0001011049
0.0001426552
0.0001011118
0.0001427214
0.0001011096
0.0001426425
0.0001011157
0.0001427168
0.000101116
0.0001426434
0.0001011143
0.000142712
0.0001011162
0.0001426421
0.0001011135
0.0001427074
0.0001011161
0.0001426361
0.0001011134
0.000142706
0.000101115
0.0001426318
0.0001011161
0.0001427049
0.0001011165
0.0001426275
0.0001011166
0.0001427028
0.0001011171
0.0001426958
0.0001011158
0.0001427002
0.0001011174
0.0001426199
0.0001011185
0.0001427009
0.0001011167
0.0001426528
0.0001011208
0.000142698
0.0001011165
0.0001426175
0.0001011233
0.0001426937
0.0001011178
0.0001426896
0.0001011204
0.0001426912
0.0001011182
0.0001426717
0.0001011216
0.0001426917
0.000101119
0.0001426859
0.0001011228
0.0001426839
0.0001011187
0.0001426535
0.000101123
0.0001426857
0.0001011216
0.000142678
0.0001011141
0.0001426829
0.0001011213
0.0001426699
0.0001011187
0.0001426835
0.0001011232
0.0001426769
0.0001011158
0.0001426811
0.0001011276
0.0001426478
0.0001011161
0.000142695
0.0001011362
0.0001426615
0.0001011129
0.0001426947
0.0001011211
0.0001426499
0.0001011207
0.0001427078
0.000101733
0.000101491
0.0001016962
0.0001018327
0.0001020109
0.0001019852
0.0001020324
0.0001018882
0.0001020194
0.0001018873
0.0001020116
0.0001019615
0.0001020343
0.0001018636
0.000101743
0.0001017253
0.0001014883
0.0001017922
0.0001011975
0.0001014277
0.0001011953
0.0002938184
0.0002938228
0.0001011952
0.0001014171
0.000101193
0.00029382
0.0002938233
0.0001011949
0.0001014188
0.0001011937
0.0002938225
0.0002938242
0.0001011939
0.000101419
0.0001011898
0.0002938197
0.0002938251
0.0001011842
0.0001014182
0.0001011869
0.0002938206
0.0002938249
0.0001011861
0.0001012239
0.0001011749
0.0002938136
0.0002938218
0.0001012059
0.0001014684
0.0001012059
0.0002938126
0.0002938142
0.0001012078
0.000143571
0.0001011368
0.0001483369
0.0001010477
0.000143087
0.0001012024
0.0001480043
0.0001014686
0.000101784
0.0001011201
0.0001427205
0.0001010881
0.0001427755
0.000101106
0.0001427196
0.0001011018
0.0001426206
0.000101114
0.0001427181
0.000101106
0.0001426522
0.0001011145
0.0001427148
0.0001011113
0.000142644
0.0001011134
0.0001427101
0.000101115
0.0001426436
0.0001011125
0.0001427079
0.0001011153
0.0001426374
0.0001011133
0.000142707
0.0001011153
0.000142632
0.0001011149
0.0001427046
0.0001011156
0.0001426285
0.0001011148
0.000142699
0.0001011177
0.0001426246
0.000101116
0.0001427018
0.0001011173
0.0001426218
0.0001011179
0.0001426954
0.0001011172
0.0001426185
0.0001011217
0.0001426963
0.0001011168
0.0001426165
0.0001011255
0.0001426912
0.0001011198
0.0001426172
0.0001011267
0.00014269
0.0001011187
0.000142618
0.0001011239
0.0001426874
0.0001011199
0.0001426124
0.0001011257
0.0001426851
0.0001011202
0.0001426652
0.0001011287
0.0001426824
0.0001011238
0.0001426157
0.0001011257
0.0001426823
0.0001011228
0.0001426318
0.0001011255
0.0001426769
0.0001011243
0.0001426062
0.0001011214
0.0001426695
0.0001011289
0.0001426628
0.0001011317
0.0001426628
0.000101124
0.0001426186
0.0001011239
0.0001426639
0.0001011155
0.0001426505
0.0001011308
0.0001012546
0.000142652
0.0001011192
0.0001017316
0.000101676
0.0001019492
0.0001018983
0.0001020454
0.000102004
0.0001018749
0.0001020216
0.0001020064
0.0001020322
0.0001019009
0.0001019487
0.0001017596
0.0001018992
0.0001017057
0.000101453
0.0001016936
0.0001456133
0.0001012046
0.0001435664
0.0001011374
0.0001483373
0.0001010489
0.0001430892
0.0001012043
0.0001479994
0.0001010819
0.0001434574
0.0001011208
0.0001431729
0.0001011241
0.0001431668
0.0001010812
0.0001431947
0.0001010858
0.000143225
0.000101139
0.00014314
0.0001011334
0.0001431605
0.0001010807
0.0001431867
0.000101086
0.000143216
0.000101142
0.0001431363
0.0001011335
0.0001431642
0.0001010804
0.0001431837
0.0001010865
0.0001432211
0.0001011428
0.0001431385
0.0001011337
0.0001431628
0.0001010804
0.0001431856
0.0001010865
0.0001432197
0.0001011423
0.0001431383
0.0001011336
0.0001431874
0.0001011429
0.0001429914
0.0001010632
0.0001428039
0.0001011214
0.0001427195
0.0001010879
0.0001427763
0.0001011102
0.0001426671
0.000101113
0.0001427145
0.0001011064
0.0001427201
0.0001011031
0.0001426235
0.0001011053
0.0001426551
0.0001011112
0.0001427214
0.0001011144
0.0001427186
0.0001011058
0.0001426522
0.0001011094
0.0001426445
0.0001011164
0.0001427163
0.0001011146
0.0001427142
0.0001011121
0.0001426442
0.0001011157
0.0001426437
0.0001011135
0.000142713
0.0001011138
0.0001427098
0.0001011154
0.0001426431
0.0001011154
0.0001426438
0.0001011141
0.000142708
0.0001011121
0.0001427066
0.0001011157
0.0001426375
0.0001011166
0.0001426373
0.0001011121
0.0001427067
0.0001011124
0.000142705
0.0001011162
0.0001426314
0.0001011163
0.0001426329
0.0001011144
0.0001427048
0.0001011129
0.0001427033
0.0001011196
0.0001426257
0.0001011155
0.0001426404
0.0001011208
0.0001426927
0.0001011218
0.000142693
0.0001011201
0.0001426293
0.0001011177
0.0001426775
0.0001011183
0.0001426983
0.0001011208
0.0001426964
0.0001011193
0.0001426163
0.0001011213
0.0001426296
0.0001011242
0.0001426478
0.0001011211
0.0001426845
0.0001011195
0.0001426534
0.0001011192
0.0001426787
0.0001011209
0.0001426886
0.0001011264
0.0001426851
0.0001011231
0.0001426127
0.00010112
0.0001426855
0.0001011166
0.000142687
0.0001011251
0.0001426815
0.0001011207
0.0001426124
0.0001011312
0.000142609
0.0001011241
0.0001426738
0.0001011197
0.000142659
0.0001011238
0.0001426088
0.00010112
0.0001426033
0.0001011368
0.0001426679
0.0001011134
0.0001426514
0.0001011268
0.0001426134
0.0001011224
0.0001466352
0.0001426707
0.0001011234
0.0001014536
0.0001014627
0.0001014147
0.0001011904
0.0001012377
0.0001011153
0.0001011955
0.0001011608
0.000183001
0.000169156
0.0001029865
0.0001480166
0.0001026798
0.0001484131
0.0001033495
0.0001480028
0.0001031472
0.0001483934
0.0001033538
0.00014798
0.0001031636
0.0001483657
0.000103366
0.0001479694
0.0001031991
0.0001483147
0.0001033793
0.0001479624
0.0001032225
0.0001482857
0.0001033694
0.0001479585
0.0001032393
0.0001482314
0.0001033688
0.0001479564
0.0001032494
0.0001482112
0.0001033428
0.0001479544
0.000103268
0.0001481272
0.0001033549
0.0001479561
0.0001032599
0.0001481671
0.0001032916
0.0001481831
0.0001033257
0.0001480719
0.0001033679
0.0001479574
0.0001032601
0.0001481964
0.0001033366
0.0001479998
0.0001032855
0.0001481127
0.000103363
0.0001479606
0.0001032662
0.0001481727
0.0001032933
0.0001482491
0.0001033449
0.0001481
0.0001033236
0.0001480931
0.0001032847
0.0001481361
0.0001032856
0.0001482489
0.0001033604
0.0001480605
0.0001033308
0.0001480754
0.0001032646
0.0001481434
0.0001032734
0.0001483027
0.0001034076
0.0001480372
0.0001033136
0.0001482104
0.0001032945
0.0001481406
0.0001032712
0.0001483008
0.0001034055
0.0001480269
0.0001033296
0.0001481525
0.0001032721
0.0001481671
0.0001032725
0.000148285
0.0001033573
0.0001480951
0.0001033293
0.0001481045
0.0001032699
0.0001481567
0.0001741244
0.0001737809
0.0001745641