/*--------------------------------*- C++ -*----------------------------------*\
  =========                 |
  \\      /  F ield         | OpenFOAM: The Open Source CFD Toolbox
   \\    /   O peration     | Website:  https://openfoam.org
    \\  /    A nd           | Version:  7
     \\/     M anipulation  |
\*---------------------------------------------------------------------------*/
FoamFile
{
    version     2.0;
    format      ascii;
    class       surfaceScalarField;
    location    "0.03";
    object      phi;
}
// * * * * * * * * * * * * * * * * * * * * * * * * * * * * * * * * * * * * * //

dimensions      [0 3 -1 0 0 0 0];

internalField   nonuniform List<scalar> 
249116
(
0.02085647
-0.08865842
-0.003519306
0.02270871
0.02383592
0.02764261
0.02742283
-0.004400327
-0.01038676
-0.006778502
-0.00872324
0.0154438
-0.08407833
-0.005384758
0.02158087
0.02229905
0.02558248
0.02541335
0.01327161
-0.07597803
-0.006277624
0.01922342
0.01971533
0.02281789
0.02267119
0.01140124
-0.06988106
-0.005739718
0.01764124
0.01819468
0.02085611
0.02079911
0.009486444
-0.06225685
-0.005232258
0.01585167
0.0162255
0.01869159
0.01863514
0.007406393
-0.05658329
-0.00482219
0.01452293
0.01488423
0.01705704
0.01702132
0.005467241
-0.05207696
-0.004444359
0.01342202
0.0136674
0.01570023
0.01567081
0.004032874
-0.04953773
-0.004225085
0.01270717
0.01289575
0.01482429
0.01476997
-0.04748445
-0.004020708
0.01213462
0.01410797
0.002986084
0.01225238
0.01405698
0.02645799
-0.0829378
0.001692786
-0.00437413
-0.01112054
-0.008465653
-0.009911088
0.02194605
-0.07854071
-0.001025683
0.01984949
-0.07218136
-0.001700125
0.0179102
-0.06635802
-0.001583758
0.01515431
-0.05808458
-0.001416392
0.01167696
-0.05182053
-0.001285407
0.008435463
-0.04764248
-0.001192978
0.006092612
-0.04601745
-0.001177433
-0.04474298
-0.001138354
0.004489497
0.03034639
-0.07956916
0.002282479
-0.005029058
-0.01146604
-0.0090177
-0.01048471
0.02708497
-0.07602451
0.0007452161
0.02588753
-0.07085311
-0.0001308267
0.02474731
-0.06517556
-4.225934e-05
0.02113504
-0.05440885
-6.345734e-05
0.01572418
-0.04638288
-2.67955e-05
0.01069299
-0.04256866
-4.263081e-05
0.007471722
-0.04271835
-7.782651e-05
-0.04250697
-8.015413e-05
0.005315869
0.03263614
-0.0777933
0.003206
-0.005527531
-0.0117495
-0.009471601
-0.01086938
0.03068353
-0.07505511
0.0009832044
0.03160441
-0.07222939
0.0004553887
0.03302282
-0.06764816
0.001054182
0.02895208
-0.05157978
0.001241655
0.02007843
-0.03862
0.001110763
0.01204655
-0.0354679
0.0009311339
0.007576054
-0.03926069
0.001012835
-0.04145719
0.0007951103
0.005731166
0.03500904
-0.07702437
0.002846828
-0.005845936
-0.01190241
-0.009781112
-0.01109534
0.03448486
-0.07571932
0.001188385
0.03858021
-0.07740665
0.001081893
0.04718565
-0.02052109
0.003011013
-0.01635203
-0.02245089
-0.01994061
0.04188776
-0.01579486
0.002591856
-0.005561196
-0.01822354
-0.009294148
0.02343806
-0.006765978
0.002054626
-0.003663591
-0.006343755
-0.005451614
0.01004712
-0.006035947
0.002270451
-0.005648448
-0.006276325
-0.006386695
0.004778038
-0.008200344
0.002420813
-0.008874883
-0.009278854
-0.01005833
-0.00973116
0.002315968
-0.01121777
0.00401946
-0.01033895
-0.0117267
0.03509703
-0.07639073
0.002907545
-0.005907322
-0.01185506
-0.009808811
-0.01106702
0.03548091
-0.07712281
0.001019611
0.01157126
-0.08263688
-0.0001572594
0.006224243
0.01165612
0.01141678
0.01237074
-0.02157298
0.0002524021
0.01990141
0.0006631214
-0.01928844
-0.002594236
-0.005858216
-0.007764766
-0.0008537575
-0.01596807
0.01039558
0.0003462844
-0.0008589107
-0.0004095008
-0.0002725517
1.15964e-06
0.003296277
0.0003203902
-0.00774743
-0.000612077
-0.0006215251
-0.0005551877
-0.0001163947
-0.0003555346
-0.0006273959
0.0007021245
-0.002543582
-0.001176129
-0.001682354
-0.002517474
1.520273e-05
-0.01012933
0.0005118655
-0.000128899
0.03152217
-0.07343412
0.002508268
-0.005590181
-0.01140652
-0.009329628
-0.01066071
0.02825217
-0.07460663
0.0007538167
0.01035637
-0.08097027
-0.00152358
0.001897107
0.009930537
0.005925128
0.0262639
-0.02297082
-0.0004811399
0.001795026
0.002723073
0.002546918
0.0004794157
0.00206081
-0.0004561831
-0.001535394
-6.923867e-05
0.0005723461
0.0106235
-0.01056402
-0.0003230356
0.0004144381
-0.0003101028
2.129106e-05
-0.0004344283
0.02839402
-0.06840553
0.002376886
-0.00542676
-0.01101242
-0.008987783
-0.01037254
0.0225154
-0.06920324
0.0004752355
0.007021759
-0.07323292
-0.001458377
0.0003919807
0.005625546
0.00319714
0.02417148
-0.02012311
-0.0003394714
0.0006943697
0.001629906
0.001113634
-0.0001250486
0.001268872
-0.0001861942
-0.001078331
-4.346413e-06
-0.05146083
-0.0001623201
0.001166369
-0.00250037
0.001521042
-0.0008302218
0.01059326
0.01445723
0.002345922
0.01147626
0.01339365
0.02658843
-0.06240088
0.002324112
-0.005378667
-0.01064564
-0.008731441
-0.01016145
0.01977587
-0.06247338
8.268096e-05
0.005658052
-0.06482194
-0.0006662068
-8.8014e-05
0.004154472
0.002306582
0.02120741
-0.01763079
-0.0003647757
0.0004808223
0.001317339
0.0008304912
-0.0001824495
0.001064385
-0.0001515844
-0.0009027166
-1.008373e-05
-0.05247994
-0.0002619782
0.00163785
-0.002709301
8.170837e-05
-0.001284593
0.003555422
0.02572155
-0.05582985
0.002286045
-0.005484265
-0.01037279
-0.008642698
-0.01007888
0.01840374
-0.05535096
0.0001953845
0.005104205
-0.05657799
-0.0007135031
-5.211544e-06
0.003758417
0.002015891
0.01860127
-0.01529696
-0.000391736
0.0004217521
0.001164452
0.0007474822
-0.0001420539
0.0009210308
-0.0001318669
-0.0007760861
-1.307766e-05
-0.05659977
0.0007051475
0.001785334
-0.002816674
0.0001790199
-0.001364041
0.005631041
0.02569257
-0.04930684
0.002367579
-0.005679082
-0.01016927
-0.008664655
-0.01007016
0.01848179
-0.04824585
0.0001056628
0.004846327
-0.04851323
-0.0006070776
0.0003561225
0.003736864
0.002084788
0.01603723
-0.01301613
-0.000406104
0.0004289487
0.00108528
0.0007419337
-2.482512e-05
0.0007960066
-0.0001173561
-0.0006630019
-1.564842e-05
-0.01311205
0.0001056527
0.001519068
-0.002342106
-0.0004069234
-0.002049582
-0.01800073
0.007793956
-0.01382946
-0.01627759
0.02664434
-0.04350042
0.002596346
-0.005977272
-0.0100812
-0.008822584
-0.01016605
0.02002821
-0.04150609
-0.0001236295
0.004862728
-0.0402858
-0.0005103758
0.001013902
0.003978166
0.002456361
0.01345387
-0.01066442
-0.0004163927
0.0005326214
0.001040597
0.0007940122
0.0001224363
0.0006697934
-0.000105764
-0.0005453035
-1.872573e-05
0.0002358398
-0.01462876
-6.322321e-05
0.001344089
0.0282984
-0.0385701
0.002524796
-0.00635259
-0.01005247
-0.009054458
-0.01029401
0.02290845
-0.03598511
-0.0001310364
0.005337693
-0.0324762
-0.001271546
0.002552647
0.004828802
0.003651256
0.01072514
-0.008081961
-0.0004168834
0.0007461507
0.001059295
0.0009365982
0.000369357
0.0005204785
-9.710938e-05
-0.0004023407
-2.102837e-05
0.000250628
-0.01706353
0.00015045
-0.001148957
-0.0004630448
-0.0007955571
0.01590619
0.003163804
0.02996892
-0.03467729
0.002763017
-0.006769892
-0.0100796
-0.00932693
-0.01044833
0.02634159
-0.03238368
2.589405e-05
0.00665394
-0.02897863
-0.001815183
0.004966978
0.006640355
0.006397925
0.007570356
-0.00560562
-0.0007058886
0.001384272
0.001477059
0.00141858
0.001115184
0.0001781214
-0.0002348478
0.0002342918
-5.286371e-05
-0.0001247014
-0.0004850423
0.0004772759
2.00013e-05
-1.223447e-05
-0.0006374088
0.0006829462
-1.185157e-05
-3.368538e-05
-0.001246033
0.001501432
-4.904388e-05
-0.000206359
-0.002169669
0.01711203
-0.01309301
-0.0003219551
-0.003074088
-0.003067534
-0.003286841
0.007901057
0.03207203
-0.03222628
0.003195709
-0.007172998
-0.01021653
-0.009661381
-0.01066786
0.02949663
-0.03012542
0.0003171372
0.02893292
-0.02733427
-0.001080656
0.03060002
-0.02457663
-0.001970033
0.00514624
0.006544601
0.006600992
0.006587737
0.03667659
-0.02147742
-0.001431598
0.002748948
0.00533549
0.00389817
0.004849833
0.04350809
-0.02189762
-0.001190026
0.001792773
0.005831231
0.003679
0.004953137
0.04605339
-0.02653733
-0.001805526
0.003039406
0.008802561
0.005300674
0.008654897
0.039368
-0.0365567
-0.002220161
0.008122902
0.01312871
0.01231013
0.01190051
-0.03942426
-0.0008843811
0.009498885
0.0124096
0.03265797
0.01217663
0.01293356
0.03345892
-0.03037895
0.003106562
-0.007470498
-0.01026582
-0.009880811
-0.01079569
0.03143104
-0.02879414
0.0006965821
0.03120808
-0.02699824
-0.0001130693
0.03231813
-0.02504331
-0.0006433722
0.03509582
-0.02368376
-0.0005713471
0.03832696
-0.0245427
-0.0005860645
0.03946876
-0.02711613
-0.000563002
0.03607236
-0.03253308
-0.0006272096
-0.03433071
-0.000516582
0.03149539
0.03441308
-0.02917366
0.003290298
-0.007664221
-0.01031758
-0.01003197
-0.01089491
0.03276717
-0.027959
0.0008107741
0.03219374
-0.02673986
0.0003150531
0.03279352
-0.02562836
-1.473371e-05
0.0341867
-0.025046
-3.093272e-05
0.03543926
-0.02574589
-4.937725e-05
0.03566393
-0.02732732
-1.347095e-05
0.03343769
-0.03030777
9.214553e-07
-0.03166535
6.128082e-05
0.03071104
0.03492239
0.003363852
-0.007801621
-0.01033483
-0.01013577
-0.01094867
-0.02823902
0.03331388
0.0009142394
-0.02726473
0.03268195
0.0004096669
-0.0265176
0.03288527
-5.566584e-05
-0.02577601
0.03337442
2.519284e-06
-0.02553766
0.03372167
-3.324877e-05
-0.02605988
0.03343064
-1.553003e-05
-0.02702077
0.03187554
-3.565784e-05
-0.02871701
-3.520041e-06
0.02982757
-0.02961385
0.0007601503
0.0002280617
0.001720929
-0.02782639
-0.0006227476
0.00141392
4.864491e-05
3.320677e-05
-0.000975513
0.0007875845
-0.001005667
0.001304537
-0.001381714
0.001220354
-0.02425561
-0.001533829
0.001392731
-5.846339e-05
-7.048853e-05
0.001196521
-0.001167257
0.0009516019
-0.02178283
-0.001867613
0.001251271
-8.191134e-05
-9.627171e-05
0.001101136
-0.0008219528
0.0007177052
-0.01964974
-0.001787947
0.00114451
-8.612789e-05
-9.552652e-05
0.001011628
-0.0007004698
0.0005849366
-0.01778629
-0.001665593
0.001039648
-9.214944e-05
-0.0001033355
0.0009376114
-0.0005499162
0.0004474671
-0.01613102
-0.001565545
0.0009625375
-9.154779e-05
-9.946734e-05
0.0008814135
-0.0004275988
0.0003287318
-0.01489613
-0.001478711
0.0008997739
-8.872336e-05
-9.54367e-05
0.000840488
-0.0003064609
0.0002340388
-0.0139736
-0.001406064
0.0008554929
-8.468957e-05
-8.925554e-05
0.0008103283
-0.0002235043
-0.0133044
-0.001349379
0.0008223138
-7.889096e-05
-8.218829e-05
0.0001705231
0.0001194442
0.002879852
0.00827857
-0.01683863
-0.0006107385
0.0006480361
-0.0006930076
0.0004230014
0.005976148
0.00271931
0.006029224
0.02242094
-0.09916767
-0.0006233223
0.02714264
0.02720311
0.02665936
0.02656604
-0.007860205
-0.008622211
-0.00825213
-0.00898586
0.01864485
-0.09622034
-0.002730542
0.02463357
0.02425199
0.02453852
0.02391812
0.01506192
-0.08716705
-0.002635875
0.02203832
0.02177556
0.02186251
0.02143184
0.01308334
-0.08025997
-0.002904441
0.02008208
0.01988202
0.01986443
0.01957473
0.01076776
-0.07183128
-0.002613505
0.01808215
0.017911
0.01789603
0.01763891
0.008381001
-0.06501358
-0.002399151
0.01637746
0.0163134
0.01622519
0.01606125
0.006148015
-0.05992729
-0.002222937
0.0150987
0.01506408
0.01494299
0.01483309
0.004536483
-0.0568681
-0.002108238
0.01420329
0.01418853
0.01400882
0.01396214
-0.05455903
-0.00205301
0.01357541
0.01335223
0.003331142
0.01354124
0.0133278
5.114727e-05
0.01568884
0.008517855
-0.01505512
-0.0001126844
0.0006482377
-0.000711687
0.0003554047
0.0301922
-0.09337812
0.003345559
-0.009004103
-0.00978832
-0.009144727
-0.009697379
0.02667796
-0.09160795
-0.002123843
0.02325453
-0.08429444
-0.001149311
0.0210397
-0.07769445
-0.001934457
0.01764719
-0.06823776
-0.001617403
0.0136137
-0.06071284
-0.001552662
0.009851448
-0.05588722
-0.001470793
0.007077022
-0.05381333
-0.001457773
-0.05234836
-0.001451012
0.005179014
7.065829e-06
0.01497141
0.008772178
-0.01444258
1.028337e-05
0.0006478902
-0.0007082127
0.0003244494
0.03434114
-0.08966252
0.004079314
-0.009641772
-0.01034346
-0.009706419
-0.01016192
0.03242532
-0.08868151
-0.0002654102
0.0302029
-0.08289954
0.000696679
0.0290129
-0.07644691
-9.980929e-05
0.02483775
-0.06421831
9.224087e-05
0.01845179
-0.05441176
5.808647e-05
0.01248217
-0.05003828
7.80614e-05
0.008760474
-0.05012405
-4.541448e-05
-0.04981836
-0.0001337922
0.006284114
-1.791327e-06
0.01435311
0.00893793
-0.01384039
-0.0001693469
0.0006644278
-0.0006862822
0.0003484188
0.03778901
-0.08749136
0.004598154
-0.01010074
-0.0106954
-0.01007268
-0.0104835
0.0376787
-0.08768172
9.371271e-05
0.03783225
-0.08412155
0.001523836
0.03885606
-0.07759249
0.001175925
0.03407443
-0.05946946
0.001274444
0.02363721
-0.04398868
0.001124898
0.0142692
-0.04063929
0.0009001602
0.008850508
-0.04465411
0.0009616018
-0.04726151
0.0006691772
0.006419594
-1.439044e-05
0.01380959
0.00907376
-0.01345726
-0.0001444247
0.0006671156
-0.0006797527
0.0003511769
0.03987306
-0.08690027
0.004748888
-0.01038755
-0.01091904
-0.01032469
-0.01073493
0.04158184
-0.08884384
0.0006417315
0.04610823
-0.08930709
0.001741039
0.05295074
-0.02271252
0.002379935
-0.01997652
-0.02185524
-0.01925966
0.04741038
-0.01799334
0.001547375
-0.008795325
-0.01755476
-0.008541187
0.02735377
-0.006103073
0.001083062
-0.005351643
-0.006097795
-0.005408011
0.01170129
-0.006054129
0.001161203
-0.006128146
-0.005800441
-0.005894843
0.005940572
-0.00918477
0.001374266
-0.01003296
-0.008918633
-0.009710477
-0.01116109
0.001609586
-0.01090742
0.004457755
-0.01162403
-0.01137978
-2.1331e-05
0.01353258
0.009110379
-0.01322464
-0.0001402711
0.0006730988
-0.0006766009
0.0003525694
0.04014029
-0.08624421
0.004684417
-0.01046447
-0.01092321
-0.01040491
-0.01078064
0.04254929
-0.09029056
5.732783e-05
0.01231981
-0.09600097
0.0008095882
0.01199084
0.01199328
0.0119724
-0.0003517857
0.0140455
-0.02438463
0.0002982158
-0.0005114233
0.02347824
0.0004747751
-0.01832944
-0.002968061
-0.008562146
-0.002913696
-0.00866157
-0.01614072
-0.0002945526
0.01019724
-0.000270483
0.0004054295
7.3445e-05
0.003475109
-0.0001008684
-0.006836246
-0.0007145001
-0.0005775579
-0.0005536698
-0.0008198454
-0.0002322503
-0.000518582
8.408021e-05
-8.898738e-05
-0.002803745
-0.001411599
-0.002851063
-0.001362618
-0.0001925684
-0.0003769403
-0.01082483
0.0003473222
-0.0001140631
-2.565331e-05
0.0132846
0.008920341
-0.0127941
-0.0001744975
0.0006902161
-0.0006620059
0.0003668917
0.03582588
-0.08301292
0.004521516
-0.01002173
-0.01056016
-0.01003948
-0.01044903
0.03475236
-0.08811448
-0.000348739
0.0103365
-0.09587448
0.0001813131
0.006070721
0.01038828
0.006125486
-4.638882e-05
0.02681435
-0.02693822
0.000168401
0.002160131
0.003054485
0.002148892
0.002974848
8.390878e-06
0.00222799
-0.0008532487
-0.001378991
-4.140623e-06
-0.0571307
0.0004575201
0.002246217
0.002784235
0.00258
0.003379873
0.01177487
0.01158143
-9.023442e-06
-0.001296716
0.0005576612
0.01214047
0.01167669
0.0002088352
-0.0009513646
-4.088501e-05
0.01268783
0.008803253
-0.01208682
-0.0001904527
0.0006968644
-0.0006448951
0.000380914
0.03225273
-0.07753895
0.004478235
-0.0096889
-0.01025078
-0.009707698
-0.01018067
0.02726782
-0.08210047
-0.0005538677
0.005465503
-0.08667441
-0.0001575596
0.00324273
0.005262681
0.002796011
-0.000209425
0.02600719
0.003360327
-0.02402849
0.0003359003
-0.06090853
-0.001015256
0.001533126
-0.0009931511
0.001944823
-0.0007232105
0.002869182
-6.039245e-05
0.01185603
0.008690887
-0.01115036
-0.0002233796
0.0007065274
-0.000618482
0.0004049894
0.03007749
-0.07090871
0.004499281
-0.00942632
-0.01004091
-0.009443249
-0.009972415
0.02352944
-0.07422852
-0.001241229
0.003653986
-0.07671568
0.001048666
0.002356691
0.003470593
0.002374571
3.079989e-05
0.02229167
0.001942965
-0.02025287
-0.0003585902
-0.06319611
-0.0007843521
9.036245e-05
-0.001227339
0.0003509328
-0.001148001
0.004744003
-8.694619e-05
0.01083843
0.008652599
-0.01010057
-0.0002443098
0.0007081103
-0.0005910664
0.0004295739
0.0290804
-0.0637314
0.004470306
-0.0093173
-0.009943072
-0.009300726
-0.009880884
0.02172299
-0.06575293
-0.0009227997
0.003204194
-0.06676203
0.0005073786
0.002081874
0.003094003
0.002168387
8.650011e-05
0.01936403
0.001534914
-0.01749927
-0.0002819774
-0.06655427
0.0003818484
0.0002431425
-0.001175592
0.0003009871
-0.001446513
0.005759427
-0.000118165
0.009739631
0.008650709
-0.009008896
-0.000257893
0.0007053039
-0.0005620952
0.0004572233
0.02898376
-0.05645312
0.004450581
-0.009296426
-0.009923713
-0.009261967
-0.009862934
0.02141965
-0.05725171
-0.0008314484
0.003199891
-0.05711785
0.0004393643
0.002103122
0.003155718
0.002270301
0.0001427874
0.0165513
0.001537812
-0.0148629
-0.0001691045
-0.07199605
0.0007888832
0.0002230975
-0.001425745
9.678149e-07
-0.001570621
0.007530829
-0.0001529391
0.008639075
0.008690824
-0.007955854
-0.0002556329
0.000695588
-0.0005391191
0.0004838716
0.02975654
-0.04949841
0.00449445
-0.009376809
-0.009976551
-0.009324302
-0.009931687
0.02233534
-0.04899887
-0.0009552786
0.003207221
-0.04722011
0.000684259
0.002384033
0.003317666
0.002334045
0.0002413532
0.01410245
0.001398365
-0.01223186
-0.0003030875
-0.07644654
0.0004935442
0.0007993698
-0.0002105127
-0.001280566
-0.003906637
-0.0008502064
-0.004355508
0.01313168
0.0007449421
-0.0001156338
-0.0001883314
0.007605698
0.008773481
-0.007009321
-0.000238744
0.0006796268
-0.0005201657
0.0005035652
0.03133816
-0.04350434
0.004531477
-0.009576413
-0.01013679
-0.009513908
-0.0101118
0.02500076
-0.04208601
-0.0007065017
0.004267645
-0.03754864
5.476422e-05
0.003045555
0.003941022
0.002748761
0.0001221253
-0.008966362
-0.0001260891
0.01080652
0.0004740233
0.0007192419
0.0005022616
0.000735926
-0.06654775
-0.0006712582
-0.006307178
-0.01033506
-0.006912584
-0.009952611
0.0002603731
-0.0006298026
0.02404247
0.0006249355
-1.802476e-05
-0.0002224765
0.006710644
0.008895982
-0.006246845
-0.0001890146
0.0006510424
-0.0005031255
0.0005095987
0.0342704
-0.03911648
0.004619994
-0.009885924
-0.01040826
-0.009843818
-0.01037723
0.03066268
-0.03767379
-0.0007786146
0.006456337
-0.03309026
-0.0001862923
0.006060193
0.006209353
0.005849525
0.007548585
-0.006313918
-0.0002357816
0.000357816
0.001291471
0.001278686
0.001304162
0.001225316
0.000119998
6.787641e-05
-0.0003198807
0.0002660848
-0.0001329798
-1.099176e-06
-0.002132919
-0.0002887129
0.01100608
-0.00147175
0.000159511
-0.002598025
-0.002112207
-0.002561973
-4.79321e-05
-0.003377208
2.2718e-05
-0.01326023
0.003828902
0.003826373
0.004503495
0.00450388
-0.0001822366
-0.006959862
0.01058883
9.487869e-05
-0.003541611
-0.0524899
0.0002657414
-0.01379906
-0.01418623
-0.01379146
-0.01368347
-0.001000341
2.638532e-05
-0.0005434231
0.04013664
0.001742515
-0.0004597037
0.001564401
-0.0003298226
-0.0002484169
0.006051646
0.008976617
-0.005682648
-0.0001468786
0.0006294823
-0.0004929577
0.0005189607
0.03690782
-0.03608203
0.004588078
-0.01009404
-0.01057614
-0.01009607
-0.01056838
0.03518517
-0.03511036
-0.0005236329
0.03304543
-0.03211079
7.960927e-05
0.03537424
-0.02826897
-0.001201904
0.006299648
0.00652942
0.006037641
0.006305333
0.04248018
-0.0243722
-0.0007133731
0.003695437
0.004717442
0.003625582
0.004509564
0.05068863
-0.02501905
-0.0006753089
0.003480086
0.00479267
0.003441814
0.004581319
0.05278934
-0.03115353
-0.0009434881
0.005279228
0.008887145
0.005188507
0.0088359
0.0455615
-0.04252277
-0.001058493
0.01253784
0.01197501
0.01234315
0.01173295
-0.04528613
-0.0006285302
0.03810187
-0.0002665385
0.005561209
0.009057653
-0.005282245
-0.0001161961
0.000615992
-0.0004872887
0.0005232165
0.03847244
-0.03413427
0.004778729
-0.01028714
-0.0107718
-0.01029697
-0.01073646
0.03777619
-0.03352637
-0.0001911635
0.03659922
-0.0317127
0.000665823
0.03781189
-0.02956766
-0.000557361
0.04112133
-0.02779468
-0.0004582969
0.04495219
-0.02879249
-0.0006434845
0.04587555
-0.03201125
-0.0006286367
0.041686
-0.03816201
-0.0007984171
-0.04064773
-0.0003155985
0.03684662
-0.0002780853
0.005234855
0.009101933
-0.005008808
-9.869201e-05
0.0006084986
-0.0004825428
0.0005286423
0.03955962
-0.03274643
0.004857444
-0.01040186
-0.01086706
-0.0104121
-0.01083358
0.03914496
-0.03251014
0.000209208
0.03792437
-0.0312981
0.001121041
0.03849217
-0.03008137
-6.880977e-05
0.03997555
-0.02929902
-9.967495e-06
0.04142136
-0.03008255
-0.000205119
0.04159845
-0.03197657
-0.0002252438
0.03902294
-0.03540771
-0.0001778653
-0.03706853
-0.0001343989
0.03563942
-0.0002851785
0.004997141
0.00912856
-0.004805615
-9.214794e-05
0.0006064894
-0.0004780808
0.0005346324
0.04017252
0.004925916
-0.01047221
-0.01093552
-0.01048457
-0.01089861
-0.0316901
0.04000405
0.00025683
-0.03168427
0.03881877
0.001213229
-0.03091637
0.03871597
0.0001383504
-0.03017259
0.0390391
0.0002098386
-0.02982947
0.03934479
-1.066334e-05
-0.03041083
0.03893285
-4.365409e-05
-0.03153651
0.03707449
-8.547425e-05
-0.03349953
-3.80896e-05
0.03462998
-0.03458945
0.001022568
0.0002963938
0.000512999
-0.02713413
-0.0002128256
-0.001055862
0.001029744
-0.001049334
0.006060989
-0.09486849
-0.001276239
0.002610418
0.004869542
-0.0004836859
-0.0005036873
0.001302346
-0.003629541
0.003306573
-0.003588487
0.005213048
-0.08573298
-0.0020823
0.004478408
0.004888603
-0.0005188886
-0.0004672331
0.004288097
-0.07865217
-0.002278197
0.004329961
0.00455361
-0.0003863477
-0.0003734319
0.003470628
-0.07063194
-0.002042299
0.003939691
0.004105728
-0.0003942048
-0.0004224869
0.002675271
-0.06473462
-0.001934361
0.003666798
0.003794908
-0.0003918652
-0.0004002087
0.001991008
-0.05959535
-0.001776418
0.003422532
0.003515411
-0.0003847773
-0.0003938892
0.001462342
-0.05624518
-0.00170515
0.003253795
0.003325879
-0.0003724625
-0.0003699645
-0.05346676
-0.001612072
0.003112201
-0.0003625114
0.001086124
0.003169156
-0.0003627808
0.002530119
0.0003808585
0.008269242
-0.01618608
-0.0002140322
0.006043147
0.002546743
0.006023571
0.0206839
-0.09391973
1.390345e-05
0.02559286
0.02609824
0.02557563
0.02582488
-0.007560998
-0.007556685
-0.007674965
-0.00770037
0.01786114
-0.09351294
-0.001263337
0.01490039
-0.08420684
-0.001201271
0.01302063
-0.07835394
-0.001322919
0.01086293
-0.06989921
-0.001188537
0.008463285
-0.06360234
-0.001131773
0.006265089
-0.05858391
-0.001036178
0.004621808
-0.05571189
-0.000998239
-0.05334867
-0.0009638166
0.003414533
0.02992266
-0.07176603
-0.001960128
0.0004717209
0.002439019
-0.003634397
0.001329004
0.0143553
0.02525577
0.0139384
0.0252241
0.02763592
-0.09043558
0.002148136
0.0237663
-0.09024898
-0.001518192
0.02223809
-0.08309419
-0.0007337697
0.02029084
-0.07706111
-0.001280045
0.01745543
-0.06764074
-0.001040466
0.01352265
-0.06020818
-0.001014041
0.009856039
-0.05543024
-0.0009578486
0.007116914
-0.05347736
-0.0009531742
-0.05194972
-0.0009767926
0.005243745
0.03333861
-0.06665846
-0.0008140789
0.0002003388
0.001512579
-0.003858601
0.001065762
0.03241102
-0.08808357
0.002654899
0.03047786
-0.08799166
-0.0005895727
0.02990398
-0.08223778
0.0004141322
0.02865657
-0.07577483
-0.0001386903
0.0247608
-0.06371169
5.896062e-05
0.0184466
-0.05387853
4.264059e-05
0.01253733
-0.04950006
5.715639e-05
0.008835773
-0.04978924
-3.197216e-05
-0.04942781
-0.0001418386
0.006321919
0.03593944
-0.06444711
-0.00134932
0.0004439528
0.001932119
-0.003627395
0.001380199
0.03598616
-0.08640889
0.002876754
0.0354461
-0.08709787
-0.0002600239
0.03710778
-0.08354608
0.001170428
0.03806696
-0.07649008
0.0009319989
0.03363989
-0.05889047
0.000880296
0.02346888
-0.04336851
0.0007858982
0.01423073
-0.03998444
0.0006226997
0.008807946
-0.04412806
0.0007232053
-0.04695
0.0006170152
0.006382299
0.03712583
-0.0629741
-0.001242734
0.0002571816
0.001769969
-0.003684816
0.001272012
0.03809272
-0.08572159
0.003094699
0.03931629
-0.08791605
0.0002363241
0.04481632
-0.08846554
0.00116047
0.05174707
-0.02210881
0.001370396
-0.01942248
-0.02172882
-0.01915118
0.04620778
-0.01783312
0.001089033
-0.008702983
-0.01768999
-0.008666719
0.02674403
-0.006158329
0.0007245729
-0.005652274
-0.006131935
-0.005603761
0.01157122
-0.006085872
0.0006866019
-0.006159707
-0.00599706
-0.006094391
0.005648972
-0.009083387
0.0008865337
-0.009879119
-0.009001112
-0.009754453
-0.01102999
0.001109222
-0.01088451
0.004112714
-0.01164864
-0.01135024
0.03744835
-0.06184423
-0.001297781
0.0002205638
0.00180522
-0.003659195
0.001322511
0.03861444
-0.08522987
0.003026599
0.04082387
-0.0897896
-0.0002785479
0.01192272
-0.09501118
0.00065014
0.01195246
0.01174456
0.01190922
-0.0003751031
0.01367477
-0.0237265
0.0002407298
-0.0003783051
0.02345476
0.0002436725
-0.01796543
-0.002942801
-0.008664985
-0.00294367
-0.008636353
-0.01593616
-0.0002328012
0.009692597
0.000163618
0.0001543856
2.931099e-05
0.003523842
-1.333947e-05
-0.006794291
-0.0005684109
-0.0008474289
-0.0005672794
-0.0008482883
-0.0001414156
-0.000457565
8.79039e-05
-0.0001207861
-0.002775572
-0.001458466
-0.002789922
-0.001427561
-0.0002811561
-0.0002903307
-0.01066868
0.0001648149
4.536956e-05
0.03591277
-0.05931488
-0.001531722
0.0002629436
0.001932012
-0.003529349
0.001392979
0.03450536
-0.08223164
0.002930709
0.03346189
-0.08853219
-0.0005626731
0.01047926
-0.09488498
0.0001607486
0.006271273
0.01042807
0.006177663
-0.0003185009
0.02582333
-0.02571514
0.0002155377
0.002225031
0.003018559
0.002230362
0.00300008
-1.444729e-05
0.002268133
-0.0008167033
-0.001443573
6.591556e-06
-0.05669246
-0.0001030012
0.002625181
0.003399261
0.002613508
0.003312782
0.01158507
0.01148758
-0.001006814
0.01173937
0.01149703
0.03482037
-0.05569775
-0.001565702
0.0001964724
0.001961182
-0.003437304
0.001376691
0.03100134
-0.07686883
0.002934447
0.02564213
-0.08300679
-0.000720056
0.005570384
-0.08525516
-0.0001103569
0.002621059
0.00531246
0.002461199
0.02460964
-0.0005284878
0.003593614
-0.02243039
0.0003260141
-0.0584586
-0.0009376316
0.001874381
-0.001970469
0.001480146
-0.002510964
0.002815434
0.03376003
-0.05108691
-0.001639735
0.0001251402
0.002006347
-0.003284229
0.001390498
0.02883428
-0.07041246
0.002968663
0.02053086
-0.07476305
-0.001181552
0.01151388
-0.0760334
0.0008438796
-0.06592559
-8.437457e-05
0.0006229896
0.001541312
-0.0002594984
-0.002391149
0.02136659
0.01734468
0.02114272
0.01815621
0.007238282
-0.04108516
0.001880225
0.004087892
-0.0009554625
0.01378227
0.01505198
-0.05731809
-0.0005144953
0.005827925
0.03341284
-0.04609241
-0.00161092
-1.060704e-05
0.001977374
-0.003156543
0.001362343
0.02765163
-0.06312319
0.002942251
0.01912257
-0.06618514
-0.0009716608
0.009369078
-0.06617207
0.0003995384
-0.05667546
8.168144e-05
0.0002803833
0.002258509
-0.0004935812
-0.002008048
0.001761971
-0.04304279
-2.966787e-05
0.001717609
-0.001492298
-0.06120379
0.0002930019
0.005736516
0.03331531
-0.04103995
-0.001550586
-0.0001552968
0.001962427
-0.003014228
0.001358988
0.02740143
-0.05565648
0.002897741
0.01885799
-0.05761036
-0.0008627995
0.00909186
-0.05617816
0.0002115886
-0.01343041
0.0003610542
-3.261614e-05
0.002049449
-0.0009578793
-0.001184438
-0.01038976
-0.01321491
-0.01078409
-0.004136034
-0.001933684
0.00130752
-0.00463086
-0.01614693
-0.01750286
-0.07131683
0.0008478979
0.005917967
0.03349345
-0.03622386
-0.00149994
-0.0003082016
0.001951585
-0.002864684
0.001380828
0.02826857
-0.04875171
0.002814563
0.01948852
-0.04883217
-0.0009534253
0.002942099
-0.04651604
0.0004813387
0.001999157
0.003136176
0.001951889
0.0001731228
0.0009336621
-0.01142846
-0.0001666339
-0.07759344
0.0005583344
-0.0002630347
-0.004277688
0.000600364
-0.003902986
0.01405513
0.03405883
-0.03211337
-0.001399557
-0.0004542985
0.001963051
-0.002725257
0.001415901
0.02995597
-0.04281811
0.002700735
0.02283449
-0.0417179
-0.0006992867
0.003902327
-0.03674261
0.0001339236
0.002655482
0.003811509
0.00261259
5.714733e-05
-0.008510974
-6.510683e-05
0.01019358
0.0004328022
0.0006818861
0.0004314787
0.0006815179
-0.01671542
-0.0007151141
-0.006633303
-0.01271775
-0.006622254
-0.01365593
-0.01601698
0.02637346
-0.01612505
-0.01543631
0.03510249
-0.02900794
-0.00135876
-0.0006107822
0.001947315
-0.00264277
0.001426276
0.03259495
-0.03842859
0.002738019
0.02824113
-0.03735912
-0.0007835834
0.00620296
-0.03225166
-9.044364e-05
0.005708732
0.006114058
0.00562858
0.0001301183
0.007182537
-0.005998698
-8.07999e-05
0.001274227
0.001206391
0.001292064
0.001197123
2.324578e-06
0.0002154308
-0.0002648566
0.0002314223
-0.0001824654
-1.855032e-06
-0.002107116
-4.429791e-05
0.01076996
-0.001527904
4.119876e-05
-0.002515655
-0.002102548
-0.002513634
1.281732e-05
-0.003501859
1.658677e-05
-0.01320045
0.00384317
0.003840353
0.004497398
0.004491983
-0.0001162448
-0.007037361
-0.004118839
6.383907e-05
0.001579979
0.004037491
0.001577076
0.00401406
-0.003139733
-0.01402934
0.0001759172
-0.003044461
-0.003211027
-0.002992501
0.009791468
0.03615225
-0.02680092
-0.001375117
-0.0007395344
0.001915859
-0.00260495
0.001413686
0.03502996
-0.03551282
0.002794595
0.03263615
-0.03482741
-0.0006615354
0.0321396
-0.03163619
-3.929369e-05
0.03479261
-0.02793578
-0.0007394127
0.006023823
0.00647559
0.005925035
0.006395832
0.04191359
-0.02381537
-0.0004563135
0.00366887
0.004581127
0.003655362
0.004531989
0.04992887
-0.02476287
-0.0004154795
0.003537884
0.004720172
0.003537082
0.004692623
0.05181376
-0.03112428
-0.0005376812
0.005343441
0.009141956
0.005292855
0.009055342
0.04423047
-0.04182852
-0.0005931878
0.01175661
0.01283943
0.01163864
0.01271184
-0.04500588
-0.0005060831
0.01262943
0.01218808
0.03807631
0.01338739
0.01283269
0.0368413
-0.02522922
-0.001363708
-0.000825838
0.001896666
-0.002568321
0.001417437
0.03668098
-0.03350961
0.002935828
0.03546683
-0.03342196
-0.0003824562
0.03582821
-0.03161598
0.0002842258
0.03715832
-0.02931496
-0.0005082882
0.04085191
-0.02757378
-0.00039347
0.0446809
-0.02871388
-0.0005214583
0.04548065
-0.03203888
-0.0005137948
0.0417296
-0.03822672
-0.0006491721
-0.04028859
-0.0002944107
0.03699112
0.0373112
-0.02408534
-0.001390087
-0.0008812759
0.001887526
-0.002531874
0.001429859
0.03780325
-0.03214411
0.002999894
0.03705727
-0.03244831
-1.847165e-05
0.03719617
-0.03134979
0.0007159579
0.03804269
-0.03007685
-0.0001534252
0.03992617
-0.0293531
-0.000114125
0.04145019
-0.0301698
-0.0002732113
0.04160281
-0.03213552
-0.0002812159
0.03897184
-0.03554691
-0.0002267111
-0.03715394
-0.0001299421
0.03583273
0.03759127
-0.001416906
-0.0009176995
0.001888908
-0.002497106
0.001446961
-0.02321154
0.03839279
0.003068401
-0.03108813
0.03777319
7.119287e-05
-0.03164306
0.03787847
0.0008380503
-0.03107989
0.03819492