/*--------------------------------*- C++ -*----------------------------------*\
  =========                 |
  \\      /  F ield         | OpenFOAM: The Open Source CFD Toolbox
   \\    /   O peration     | Website:  https://openfoam.org
    \\  /    A nd           | Version:  7
     \\/     M anipulation  |
\*---------------------------------------------------------------------------*/
FoamFile
{
    version     2.0;
    format      ascii;
    class       volVectorField;
    location    "0.03";
    object      U;
}
// * * * * * * * * * * * * * * * * * * * * * * * * * * * * * * * * * * * * * //

dimensions      [0 1 -1 0 0 0 0];

internalField   nonuniform List<vector> 
82743
(
(0.6708173 -2.480284 -0.06102345)
(0.440788 -2.370743 -0.05994734)
(0.400425 -2.131102 -0.08855335)
(0.3291868 -1.963393 -0.07243919)
(0.2899505 -1.759782 -0.06600062)
(0.2283914 -1.606496 -0.06236887)
(0.1733662 -1.478464 -0.05742311)
(0.1250714 -1.398867 -0.05542778)
(0.09341613 -1.336085 -0.05182364)
(0.8351681 -2.295526 0.01287345)
(0.6161537 -2.217944 0.007612765)
(0.5959181 -2.030762 -0.02246226)
(0.5200449 -1.874294 -0.009578438)
(0.4748962 -1.660657 -0.008603827)
(0.372596 -1.502808 -0.007468034)
(0.2756303 -1.383493 -0.006592896)
(0.1950133 -1.324892 -0.006864126)
(0.1439389 -1.274286 -0.006125791)
(0.9340863 -2.204763 -0.003977682)
(0.7455672 -2.142684 0.02007216)
(0.7553665 -1.998619 -0.01158588)
(0.7097499 -1.841326 0.001179396)
(0.6696397 -1.597311 -0.001307577)
(0.5136467 -1.405547 -0.0004806374)
(0.3589227 -1.292011 -0.001066728)
(0.2397864 -1.257658 -0.0003582689)
(0.1739188 -1.240088 0.0009633414)
(0.9754671 -2.127282 0.02222064)
(0.8343164 -2.098765 0.02034788)
(0.8841482 -1.967939 -0.006879209)
(0.9307 -1.810253 0.0122245)
(0.9230348 -1.439189 0.01726452)
(0.6809164 -1.189415 0.0135666)
(0.4244828 -1.094827 0.01258918)
(0.2407757 -1.145982 0.01524188)
(0.1725834 -1.152266 0.0143863)
(1.029347 -2.102765 -0.003814916)
(0.9084205 -2.092115 0.01319214)
(0.99459 -2.069601 0.007631126)
(1.233207 -1.909016 0.02126707)
(1.36843 -1.351017 0.01394799)
(0.8388703 -0.9243921 0.01869565)
(0.387486 -0.8599977 0.0269908)
(0.1521436 -1.010296 0.02558711)
(0.09573849 -1.150795 0.03530863)
(1.026902 -2.085825 0.0002850926)
(0.9074312 -2.142986 0.02408929)
(1.022739 -2.250602 -0.01223431)
(1.204425 -2.316394 -0.01276676)
(2.286577 -1.385482 -0.006293135)
(1.207947 -0.3883794 0.02409148)
(0.5485053 -0.4935357 0.04617477)
(-0.07355205 -0.8423489 0.05756801)
(0.05899737 -1.072902 0.06361623)
(0.9751998 -2.051156 -0.01366668)
(0.757422 -2.127052 0.02273224)
(0.7592576 -2.287669 -0.03955032)
(0.8778302 -2.596857 -0.06971566)
(0.2998806 -3.700419 -0.01824514)
(-0.042763 -1.146388 -0.03356322)
(0.9242568 -1.924762 -0.01376696)
(0.6386959 -1.98961 0.01877107)
(0.5670796 -2.091121 -0.03172531)
(0.4687416 -2.246197 -0.04531869)
(0.04704353 -2.747065 -0.03283144)
(0.07057609 -1.343815 -0.0008239586)
(0.884783 -1.773399 -0.01425154)
(0.5824916 -1.817648 0.01625876)
(0.4768214 -1.857477 -0.02042983)
(0.3473366 -1.958757 -0.03971577)
(0.02863058 -2.299723 -0.04140096)
(0.08917275 -1.340882 0.0005038202)
(0.8684818 -1.599166 -0.01298168)
(0.5524745 -1.61943 0.01553091)
(0.4368647 -1.636296 -0.01665875)
(0.3197384 -1.713497 -0.04005772)
(0.02516772 -1.982275 -0.04391119)
(0.1072691 -1.408039 0.01204054)
(0.8611971 -1.417984 -0.005582552)
(0.559901 -1.425422 0.01135682)
(0.4365972 -1.414487 -0.01326449)
(0.3213318 -1.477066 -0.0395794)
(0.02754579 -1.702593 -0.04534258)
(0.1567918 -1.551862 -0.01285202)
(0.8683982 -1.249073 0.008708098)
(0.6090126 -1.229125 0.004219394)
(0.4746317 -1.201247 -0.0116096)
(0.3480657 -1.233586 -0.04196807)
(0.0344528 -1.417334 -0.04675564)
(0.1470424 -1.508832 0.04063547)
(0.896573 -1.105559 0.004033262)
(0.6783716 -1.058651 -0.0003187641)
(0.5661958 -0.9731539 -0.02375424)
(0.4271256 -0.9776882 -0.04532943)
(0.05038216 -1.079724 -0.04539492)
(0.2952079 -1.808688 0.01966132)
(0.9387163 -0.9821379 0.00230557)
(0.7202453 -0.9299298 0.01027528)
(0.712312 -0.8121584 -0.0364942)
(0.6158944 -0.7155079 -0.06524326)
(0.3151887 -0.2631668 0.007809977)
(1.142438 -0.02534219 0.01054301)
(1.523259 -0.07242318 -0.02243352)
(2.600772 -0.2851148 -0.03445574)
(1.005671 -1.74664 -0.05094391)
(0.9661461 -0.9050817 0.0250159)
(0.8133019 -0.8621111 0.01249203)
(0.8130112 -0.7633552 -0.02835255)
(0.7808526 -0.6773585 -0.02897988)
(0.9136688 -0.5540369 -0.0181485)
(1.090312 -0.5470677 -0.01276751)
(1.294779 -0.717233 -0.0244331)
(1.240603 -1.075181 -0.0426736)
(0.9929415 -1.195587 -0.01812357)
(1.001721 -0.8473289 0.008782264)
(0.8557727 -0.8154868 0.01770538)
(0.8902207 -0.7597461 -0.01085792)
(0.8679623 -0.6825365 -0.009698941)
(0.9407436 -0.6300162 -0.006808051)
(1.029757 -0.6582553 -0.005352765)
(1.124236 -0.7434407 -0.003767623)
(1.094662 -0.9462578 -0.004237983)
(0.9603341 -1.004819 -0.006392527)
(1.014658 -0.8082535 0.01599158)
(0.8975946 -0.7922403 0.01670795)
(0.9278116 -0.755503 -0.006469808)
(0.8999318 -0.7248826 -0.0004943781)
(0.9492991 -0.7011674 0.0006218047)
(0.9829559 -0.7220472 0.002452908)
(1.021768 -0.779101 0.004127672)
(0.9927593 -0.8866041 0.004113601)
(0.9076949 -0.9339098 0.004288204)
(1.025093 -0.7809318 0.01660123)
(0.91654 -0.7708982 0.01807661)
(0.9393669 -0.7518592 -0.004083781)
(0.9186162 -0.7271551 -0.005697071)
(0.9429941 -0.7197175 -0.002908717)
(0.9520011 -0.7382036 -0.0007925942)
(0.9619615 -0.7715834 0.0004227835)
(0.9344397 -0.8338557 0.0003100599)
(0.8784467 -0.8648864 0.0007775307)
(0.2959132 -2.809229 -0.03760925)
(0.1790541 -2.456395 -0.04623008)
(0.1280723 -2.228653 -0.03663455)
(0.09114598 -2.000743 -0.03309776)
(0.07983051 -1.82551 -0.03037253)
(0.06245344 -1.658622 -0.02918544)
(0.04834551 -1.536037 -0.02792029)
(0.03429354 -1.437551 -0.02695096)
(0.02474528 -1.365113 -0.02691602)
(0.7531023 -2.098039 -0.1957041)
(0.5772365 -2.505773 0.0001490753)
(0.5230587 -2.376814 0.01541168)
(0.3956167 -2.13473 0.01582431)
(0.3426763 -1.965678 0.01205233)
(0.2949931 -1.774575 0.01107117)
(0.2313302 -1.609002 0.01002245)
(0.1748728 -1.487265 0.009362687)
(0.1250632 -1.399128 0.009052794)
(0.09407133 -1.342003 0.008816493)
(0.7528652 -1.784153 -0.1536934)
(0.7700282 -2.325384 0.04092602)
(0.6952696 -2.239773 -0.01568727)
(0.5892845 -2.048064 0.01036053)
(0.5331375 -1.889962 -0.002054956)
(0.474835 -1.677324 -0.0009665972)
(0.3726925 -1.516536 -0.002254109)
(0.2761316 -1.394312 -0.002867916)
(0.1949695 -1.337501 -0.003343936)
(0.1423337 -1.283014 -0.002871918)
(0.7756758 -1.69904 -0.1613679)
(0.8479208 -2.216777 0.03375432)
(0.8129258 -2.152227 -0.001098625)
(0.743559 -2.003802 0.01443033)
(0.7180728 -1.850631 0.002211626)
(0.672698 -1.610325 0.001054729)
(0.5177389 -1.410388 -0.0002759341)
(0.3588004 -1.30238 -0.0002680423)
(0.2375784 -1.258583 -0.0015181)
(0.1769296 -1.247564 0.0003711016)
(0.7848265 -1.634052 -0.1748719)
(0.9095579 -2.144348 0.0397451)
(0.9132906 -2.099522 -0.01266764)
(0.8926089 -1.98213 0.008376338)
(0.9401081 -1.828849 -0.0004228991)
(0.9280728 -1.470193 -0.004541348)
(0.6881438 -1.205354 -0.0038455)
(0.4239305 -1.110721 -0.008555881)
(0.2450025 -1.169263 -0.005304794)
(0.1726988 -1.166015 -0.003926827)
(0.7908199 -1.583068 -0.1770592)
(0.9432714 -2.1104 0.03790413)
(0.9749262 -2.100508 -0.007276313)
(1.00769 -2.059431 -0.0008117325)
(1.238643 -1.88837 -0.001585888)
(1.360129 -1.332296 -0.03785326)
(0.8737482 -0.891257 -0.02682781)
(0.4006481 -0.8393929 -0.02149014)
(0.1400983 -0.9781232 -0.02033387)
(0.1124014 -1.129094 -0.009585185)
(0.7907024 -1.553307 -0.1763971)
(0.9455804 -2.111593 0.04080209)
(0.9764498 -2.150556 -0.01045123)
(1.015601 -2.266492 0.01231888)
(1.253641 -2.329559 0.0008729091)
(2.360146 -1.603898 0.02387967)
(1.224931 -0.4205177 0.05699395)
(0.4941243 -0.440629 -0.008453541)
(-0.1383407 -0.8106828 -0.00186051)
(0.03268211 -1.052496 0.02853112)
(0.7796284 -1.510664 -0.1741448)
(0.8809448 -2.059396 0.04374059)
(0.8223072 -2.130707 -0.002309817)
(0.7570619 -2.320564 0.02371602)
(0.8773357 -2.654571 0.01470755)
(0.5533829 -3.330368 -0.009017388)
(0.07112583 -1.259779 0.03051166)
(0.775445 -1.433195 -0.1752764)
(0.8312237 -1.937003 0.04576475)
(0.7073881 -1.994712 -0.002411268)
(0.5503545 -2.102192 0.01676548)
(0.4295958 -2.341137 0.0244975)
(0.08449544 -1.324012 -0.0008072476)
(0.7710691 -1.329428 -0.1792719)
(0.7911351 -1.783334 0.0486702)
(0.6530432 -1.823099 -0.01679922)
(0.445609 -1.867315 0.037112)
(0.2863858 -1.936498 0.006005228)
(0.0886643 -1.380821 -0.01261219)
(0.7725818 -1.212848 -0.1853768)
(0.777533 -1.613784 0.04762606)
(0.6246515 -1.622234 -0.009675428)
(0.4048019 -1.641548 0.02673913)
(0.2527218 -1.706475 -0.005340852)
(0.0891484 -1.44375 0.002678468)
(0.7750991 -1.088237 -0.1906726)
(0.7759529 -1.439791 0.04525146)
(0.6266153 -1.429111 -0.00870337)
(0.4012361 -1.413588 0.02874809)
(0.2637671 -1.459876 -0.01134303)
(0.1180519 -1.54006 -0.02050944)
(0.779112 -0.965304 -0.1942506)
(0.7902009 -1.26964 0.04284697)
(0.6526249 -1.235592 -0.01288036)
(0.4310376 -1.204497 0.03541571)
(0.2620096 -1.248227 -0.03147136)
(0.2269517 -1.64845 -0.01882694)
(0.7830878 -0.8505205 -0.1944675)
(0.8231946 -1.113737 0.04286762)
(0.6961963 -1.059574 -0.007861474)
(0.5292749 -0.974236 0.02558767)
(0.4003027 -0.9142504 -0.01097614)
(0.5170542 -1.849132 -0.03873506)
(0.7872377 -0.7527771 -0.1898975)
(0.8684469 -0.9919699 0.048918)
(0.7901954 -0.9355959 -0.01075548)
(0.6949666 -0.8160511 0.03323526)
(0.6253327 -0.6863249 -0.002635254)
(0.4110364 -0.3117194 0.01330042)
(1.17323 -0.09598672 0.02114269)
(1.618783 -0.2169382 0.01602545)
(3.447834 -0.5721551 0.02258703)
(1.069058 -1.457351 -0.01439139)
(0.7916225 -0.6818245 -0.1866736)
(0.9053117 -0.906925 0.04201164)
(0.8772199 -0.8647216 -0.01197162)
(0.8157927 -0.7770752 0.03400464)
(0.7887308 -0.6715138 0.01710108)
(0.9117316 -0.5441914 0.01588952)
(1.103227 -0.5290811 0.01421498)
(1.313578 -0.716673 0.0165954)
(1.266189 -1.087127 0.01703158)
(1.019716 -1.157857 0.01578939)
(0.7953526 -0.6301835 -0.1839588)
(0.935198 -0.8499231 0.04499466)
(0.9229052 -0.8190087 -0.01432225)
(0.8953192 -0.7706616 0.02042007)
(0.8784041 -0.7019424 0.004108075)
(0.9416773 -0.642123 0.005524329)
(1.032762 -0.6693041 0.002055086)
(1.129243 -0.7608487 0.003542488)
(1.091486 -0.9599394 -0.002042643)
(0.9550347 -1.043829 -0.003084841)
(0.7974466 -0.5959435 -0.1826824)
(0.9545034 -0.812399 0.04306378)
(0.9558282 -0.7914011 -0.01659669)
(0.9308037 -0.7601527 0.02135822)
(0.9132366 -0.7291301 0.005017194)
(0.9518099 -0.7031755 0.006480818)
(0.9863349 -0.7224778 0.00359291)
(1.025133 -0.7811313 0.003578172)
(0.9969634 -0.8882567 0.003244955)
(0.9117201 -0.9377931 0.00244567)
(0.7985008 -0.5704034 -0.1825394)
(0.9659259 -0.7835095 0.04364134)
(0.9742155 -0.7714048 -0.01679733)
(0.9563353 -0.7533297 0.0192423)
(0.9348472 -0.7331751 0.002729232)
(0.9484942 -0.7236531 0.005620473)
(0.9553004 -0.7415309 0.002248761)
(0.9636621 -0.7754806 0.001850946)
(0.9358365 -0.837935 0.0003947784)
(0.8781289 -0.8717223 0.0003584004)
(0.2560582 -2.792368 -0.003109093)
(0.2119961 -2.391818 -0.02287205)
(0.1754991 -2.187728 -0.02822608)
(0.1306963 -1.982304 -0.03452802)
(0.1111761 -1.782166 -0.02847765)
(0.08629214 -1.636983 -0.02798028)
(0.0650927 -1.50475 -0.02556477)
(0.0474967 -1.418133 -0.02517433)
(0.03497092 -1.343255 -0.02360331)
(0.7822522 -2.043304 -0.0920913)
(0.5624002 -2.439384 0.02295753)
(0.4807176 -2.341599 -0.0206821)
(0.4030428 -2.07983 -0.004339393)
(0.3381005 -1.928087 -0.01117753)
(0.2997321 -1.729166 -0.008836799)
(0.2348176 -1.581931 -0.008851507)
(0.178073 -1.458774 -0.008291045)
(0.1287943 -1.379417 -0.008177181)
(0.09591831 -1.316404 -0.008146441)
(0.7062021 -2.176305 -0.1246927)
(0.8367857 -2.234752 0.1089597)
(0.5634449 -2.227032 -0.03423579)
(0.5888111 -2.02062 0.007559339)
(0.5014713 -1.881767 -0.01078284)
(0.4736993 -1.668624 -0.005157477)
(0.3690635 -1.509631 -0.007088021)
(0.2767389 -1.389561 -0.007458384)
(0.1948716 -1.331636 -0.00747438)
(0.1443366 -1.279554 -0.007471718)
(0.771408 -1.89795 -0.06622512)
(0.9032864 -2.199587 0.1136013)
(0.7086509 -2.142942 -0.02250513)
(0.756857 -1.988171 0.02394653)
(0.6996817 -1.83599 -0.0001454949)
(0.6718704 -1.594932 0.004028694)
(0.5143986 -1.397364 0.001809588)
(0.3570373 -1.290238 0.00250082)
(0.2380985 -1.252909 0.000986719)
(0.1760571 -1.235029 0.001486701)
(0.7909892 -1.865881 -0.09290316)
(0.9769021 -2.117135 0.111183)
(0.799011 -2.102542 -0.02517823)
(0.8934388 -1.970181 0.02747066)
(0.9169638 -1.810001 0.006849893)
(0.9238325 -1.458146 0.005321129)
(0.6855711 -1.190664 0.003368716)
(0.4241074 -1.095625 -9.371904e-05)
(0.2422788 -1.159678 0.002268748)
(0.1706989 -1.15809 0.002859574)
(0.8337345 -1.791811 -0.08976033)
(1.003816 -2.105009 0.1200589)
(0.8606234 -2.093196 -0.009104205)
(0.9991204 -2.062112 0.02392112)
(1.214973 -1.884623 0.01388562)
(1.361095 -1.346446 0.01132498)
(0.8708775 -0.9035132 0.008196165)
(0.406349 -0.8489242 0.008065684)
(0.1384959 -0.9852768 0.005989036)
(0.1016959 -1.134422 0.01005422)
(0.8432866 -1.777476 -0.0926505)
(1.005484 -2.086973 0.1182091)
(0.8716506 -2.148328 -0.02412762)
(1.015316 -2.284437 0.02611581)
(1.225394 -2.333764 0.0175424)
(2.355374 -1.640796 0.02322934)
(1.237667 -0.4819361 0.02419494)
(0.5114482 -0.4395451 0.006108667)
(-0.1321915 -0.8166997 0.009487482)
(0.04630123 -1.069549 0.01547519)
(0.8187719 -1.720552 -0.1018594)
(0.9544845 -2.05239 0.1190367)
(0.7055733 -2.137479 -0.02685498)
(0.7728645 -2.333386 0.01646194)
(0.8545551 -2.631691 0.02690866)
(0.488817 -3.429323 0.01251326)
(0.05579843 -1.279101 0.004369901)
(0.8056466 -1.629443 -0.1018773)
(0.913916 -1.920912 0.1199576)
(0.5830957 -2.011314 -0.02545946)
(0.5828783 -2.10255 0.006894624)
(0.4047905 -2.279152 0.04333144)
(0.05423279 -1.328504 -0.02475533)
(0.7973126 -1.50867 -0.1054308)
(0.8689372 -1.771473 0.1218711)
(0.5397313 -1.831986 -0.04012549)
(0.4086748 -1.86327 0.03444797)
(0.1457754 -2.002876 -0.02596731)
(0.03397821 -1.432529 0.00819509)
(0.08498247 -1.353436 -0.01213084)
(0.7913936 -1.368656 -0.1029892)
(0.8606148 -1.602208 0.1220998)
(0.5013602 -1.614721 -0.03170271)
(0.4187253 -1.65882 0.01879489)
(0.08096824 -1.598188 0.004090511)
(0.009948677 -1.436807 -9.84248e-05)
(0.1007066 -1.415329 0.009147757)
(0.7869658 -1.22705 -0.1014748)
(0.8620937 -1.422287 0.1229311)
(0.4988466 -1.436534 -0.02797906)
(0.4377135 -1.411228 0.01357611)
(0.08556505 -1.50147 0.02938844)
(-0.01585904 -1.573767 -0.007342439)
(0.1334082 -1.552349 0.02742068)
(0.7832174 -1.086345 -0.1003502)
(0.8728546 -1.253391 0.1247867)
(0.542271 -1.233729 -0.02724787)
(0.4373385 -1.202804 0.02207635)
(0.2534935 -1.172309 -0.01547901)
(0.2804411 -1.713405 -0.001585546)
(0.770902 -0.9569377 -0.09705408)
(0.9075063 -1.102846 0.1226734)
(0.6008812 -1.055878 -0.01750296)
(0.5595908 -0.977296 0.01637072)
(0.3803685 -0.8897453 -0.005166233)
(0.4727954 -1.867841 -0.04056243)
(0.7784319 -0.8593362 -0.09459127)
(0.9496029 -0.9800612 0.118465)
(0.6786133 -0.9373287 -0.02088103)
(0.7092849 -0.8107017 0.0175152)
(0.6266862 -0.6881627 0.00231654)
(0.4105757 -0.3406142 0.002623996)
(1.162609 -0.09617164 0.002884)
(1.647583 -0.217962 0.001781282)
(3.476913 -0.8040166 0.02047119)
(1.048233 -1.637283 0.0182797)
(0.8008611 -0.7874661 -0.09566139)
(0.9831853 -0.8977874 0.1158944)
(0.7532608 -0.8625353 -0.02117728)
(0.8186876 -0.7659586 0.01969691)
(0.7681532 -0.6846555 -0.004731577)
(0.9209487 -0.5394737 -0.000474492)
(1.098064 -0.5322968 -0.001880762)
(1.315774 -0.7205323 -0.002334583)
(1.256174 -1.051937 0.002543901)
(1.004023 -1.184073 -0.008486197)
(0.8128688 -0.735273 -0.09695915)
(1.007024 -0.8410807 0.1158577)
(0.8046908 -0.81789 -0.02103642)
(0.8944445 -0.7646999 0.02135146)
(0.8497198 -0.688209 0.0007438875)
(0.9368422 -0.6310244 0.005014707)
(1.027996 -0.6609631 0.0006953383)
(1.124627 -0.7516493 0.001062206)
(1.092416 -0.9585947 -0.004694543)
(0.963939 -1.018252 0.00142273)
(0.818682 -0.6982525 -0.09823181)
(1.022667 -0.8018203 0.1152749)
(0.8433253 -0.7936934 -0.01051293)
(0.9281514 -0.7579479 0.0222028)
(0.8824908 -0.7258876 0.000353368)
(0.9468969 -0.6992487 0.006420327)
(0.9792754 -0.7194726 0.001726598)
(1.023221 -0.7796643 0.0009132537)
(0.9929882 -0.8837282 0.000821722)
(0.9088749 -0.9358096 -0.001845914)
(0.8215574 -0.6706046 -0.09906629)
(1.033377 -0.7736653 0.114986)
(0.8618596 -0.7716418 -0.01313766)
(0.9413775 -0.7530707 0.01861414)
(0.9016604 -0.7290475 0.0006838035)
(0.9400948 -0.7210268 0.007149061)
(0.9479503 -0.7378909 0.002951632)
(0.9607001 -0.7724017 0.002137376)
(0.9338844 -0.8359947 0.0005772101)
(0.8785287 -0.8669548 0.0005546419)
(0.2573529 -2.796263 0.006391285)
(0.2085602 -2.430417 0.02362582)
(0.1691284 -2.155999 0.02232299)
(0.1264092 -1.979415 0.0212487)
(0.1067226 -1.773123 0.01917708)
(0.08133103 -1.620652 0.01642042)
(0.06181422 -1.491068 0.01504759)
(0.04469712 -1.401787 0.01348821)
(0.03324754 -1.331082 0.01282694)
(0.7715074 -2.081228 -0.079203)
(0.5951417 -2.412448 0.00148542)
(0.4903587 -2.37338 0.00341988)
(0.4036788 -2.090728 0.008887391)
(0.3403908 -1.951732 0.009626546)
(0.296963 -1.747469 0.01027332)
(0.2318907 -1.597615 0.008722786)
(0.1759011 -1.472732 0.008551989)
(0.1273466 -1.391379 0.007997494)
(0.09484666 -1.32729 0.008020971)
(0.6928905 -2.184835 -0.04070778)
(0.9003717 -2.224355 0.005204434)
(0.5827475 -2.226088 -0.01227486)
(0.6111599 -2.030692 0.007677766)
(0.5053368 -1.890137 0.001084717)
(0.4752513 -1.676393 0.002751584)
(0.3678736 -1.516403 0.0007411052)
(0.2763315 -1.395936 0.0005970211)
(0.194181 -1.336914 0.0002767306)
(0.1436032 -1.283767 0.0005143983)
(0.7547635 -1.906462 -0.02792168)
(0.9124043 -2.207932 0.004883481)
(0.7358388 -2.147879 -0.01398839)
(0.7608301 -1.993954 0.005410948)
(0.7050888 -1.838405 0.0006262738)
(0.6754216 -1.60369 0.001329755)
(0.5162223 -1.404043 3.713681e-05)
(0.3577729 -1.298214 0.0003497116)
(0.2378082 -1.255939 -1.382493e-05)
(0.1767426 -1.240765 0.001197814)
(0.8272885 -1.875993 -0.03868457)
(1.001336 -2.120095 0.009457056)
(0.8265186 -2.106442 -0.01778341)
(0.9032458 -1.97484 0.00454215)
(0.9367177 -1.822807 0.001608483)
(0.9275743 -1.467152 -0.0005229144)
(0.6879234 -1.194476 -0.0002591485)
(0.4227594 -1.102673 -0.002879272)
(0.2436617 -1.166225 -0.001109847)
(0.1713921 -1.162465 -6.522809e-05)
(0.8234117 -1.794362 -0.03281463)
(1.017651 -2.103203 0.005982981)
(0.8875378 -2.094873 -0.01493242)
(1.015362 -2.061078 0.001842448)
(1.215219 -1.876277 0.0004587578)
(1.352989 -1.337114 -0.004704271)
(0.8741479 -0.8958914 -0.00509382)
(0.4043678 -0.8521377 -0.006467817)
(0.1272071 -0.9800588 -0.002489295)
(0.1059165 -1.132838 -0.001012965)
(0.8346735 -1.775404 -0.03280028)
(1.028116 -2.099707 0.006555741)
(0.8932363 -2.145872 -0.0139456)
(1.026549 -2.27635 0.005047273)
(1.240596 -2.312429 0.003347225)
(2.353867 -1.617441 0.004672973)
(1.232144 -0.4759473 0.00550094)
(0.5113764 -0.4222638 0.0008930318)
(-0.1288786 -0.8143016 0.004276331)
(0.05030752 -1.069851 0.001628309)
(0.8128557 -1.719732 -0.03448164)
(0.9716902 -2.048433 0.003527622)
(0.7209922 -2.130121 -0.01234985)
(0.7825171 -2.332576 0.005107504)
(0.8536497 -2.617634 0.009477777)
(0.5247843 -3.408721 -0.00612895)
(0.0477835 -1.287446 0.001193489)
(0.7975667 -1.626759 -0.03393207)
(0.9313997 -1.917424 0.006645264)
(0.6038008 -2.012761 -0.01381717)
(0.5959057 -2.097439 0.001515507)
(0.3758828 -2.28947 0.008383258)
(0.03730313 -1.336224 -0.008707428)
(0.7925063 -1.507391 -0.03401622)
(0.8849894 -1.76996 0.007966465)
(0.5698684 -1.832389 -0.01903443)
(0.4076198 -1.852348 0.01641174)
(0.1744155 -2.0337 -0.000483512)
(0.06270469 -1.440113 0.0128474)
(0.06432633 -1.344316 -0.007308739)
(0.785532 -1.366574 -0.03393027)
(0.8776278 -1.604853 0.0073878)
(0.5292583 -1.612707 -0.01593252)
(0.4216494 -1.6675 0.01014001)
(0.09749884 -1.588236 0.005041532)
(0.003012027 -1.470768 -0.00420243)
(0.1075547 -1.399356 0.002517804)
(0.784425 -1.227015 -0.03216778)
(0.8786161 -1.427629 0.005654699)
(0.5245081 -1.439795 -0.01380472)
(0.4500431 -1.404008 0.007072044)
(0.06710531 -1.517965 0.01288065)
(-0.06637687 -1.583742 -0.008426113)
(0.1609762 -1.547606 0.002992243)
(0.7890641 -1.086762 -0.03118758)
(0.8864174 -1.261272 0.001992086)
(0.5605198 -1.241497 -0.01904401)
(0.4328356 -1.196201 0.01266008)
(0.2871417 -1.17091 -0.003463882)
(0.2931197 -1.741052 0.004946108)
(0.7989622 -0.9607589 -0.03076946)
(0.9194832 -1.103775 0.001178726)
(0.5914929 -1.055765 -0.01596345)
(0.5636211 -0.9793421 0.007612445)
(0.3765388 -0.882051 -0.001379124)
(0.4706075 -1.861677 -0.02545609)
(0.8150153 -0.8596492 -0.0345401)
(0.9572209 -0.9753707 0.005201416)
(0.6924213 -0.9322684 -0.01750075)
(0.713124 -0.8111659 0.008152528)
(0.625505 -0.6849959 0.003079142)
(0.41419 -0.3309035 0.004803589)
(1.160867 -0.09450636 0.00204569)
(1.655461 -0.2172738 0.003554079)
(3.483631 -0.8357009 -0.02057717)
(1.0302 -1.606879 0.00474578)
(0.8288682 -0.7868443 -0.03581764)
(0.9869337 -0.8926468 0.00615992)
(0.7778566 -0.8584835 -0.01784748)
(0.8242416 -0.7713791 0.008340156)
(0.768777 -0.6894793 0.004702535)
(0.9231871 -0.5398351 0.004794039)
(1.100084 -0.5314116 0.00491892)
(1.316591 -0.7210585 0.006521081)
(1.261218 -1.050084 0.006214796)
(1.009801 -1.192763 0.009253816)
(0.8362236 -0.7355656 -0.03450346)
(1.012087 -0.8349598 0.00690014)
(0.8319345 -0.8160647 -0.01700637)
(0.9043082 -0.7658651 0.005767298)
(0.8519889 -0.6950412 0.0001679829)
(0.9398443 -0.6356973 0.0028561)
(1.029001 -0.6649155 0.001298766)
(1.124696 -0.7561332 0.002046455)
(1.091794 -0.9611986 0.0002149496)
(0.9613837 -1.026285 0.0002756402)
(0.8321578 -0.6994009 -0.03453333)
(1.02992 -0.7952194 0.006745237)
(0.8636792 -0.7899289 -0.01796554)
(0.9415372 -0.7562458 0.006891604)
(0.8857221 -0.7302682 0.00119579)
(0.9515201 -0.7012872 0.003562875)
(0.9809636 -0.7202809 0.002314792)
(1.024716 -0.7806822 0.002510148)
(0.9937327 -0.8835762 0.002326338)
(0.9097542 -0.9392803 0.002430608)
(0.8319651 -0.6708487 -0.03512023)
(1.041395 -0.768087 0.008122719)
(0.8829891 -0.768469 -0.01688019)
(0.96537 -0.7489047 0.006622501)
(0.9052451 -0.7329046 -0.0005739093)
(0.94322 -0.7242851 0.002786632)
(0.9494167 -0.73965 0.001664079)
(0.9615494 -0.7743286 0.001486027)
(0.9342617 -0.8380767 0.0007606981)
(0.8779989 -0.8694616 0.0009045541)
(0.2558112 -2.772996 -1.945345e-05)
(0.2072971 -2.408705 -0.001622575)
(0.1715996 -2.177111 -0.001194065)
(0.1279817 -2.00176 -0.001528917)
(0.1082558 -1.794531 -0.001279276)
(0.08209552 -1.643075 -0.001630098)
(0.06255822 -1.512192 -0.00154662)
(0.04538083 -1.423094 -0.001535711)
(0.03393517 -1.351133 -0.001393175)
(0.7707687 -2.112665 -0.06280229)
(0.5807446 -2.396168 0.002686748)
(0.484231 -2.367617 -0.004919563)
(0.4017913 -2.091294 0.001258973)
(0.3345786 -1.942103 -0.0004571719)
(0.2951278 -1.739874 -0.000371226)
(0.2300511 -1.592396 -0.00140191)
(0.1749685 -1.468264 -0.001210684)
(0.1265961 -1.388 -0.001456703)
(0.09448657 -1.324184 -0.001227003)
(0.7135535 -2.172853 -0.02335434)
(0.8703562 -2.219843 0.01397186)
(0.5576263 -2.222265 -0.006308563)
(0.5922717 -2.022884 0.003394431)
(0.4932104 -1.890839 0.001117834)
(0.4715401 -1.676229 -3.267177e-05)
(0.3648076 -1.517375 -0.002119)
(0.2748682 -1.396574 -0.002094023)
(0.1935355 -1.338243 -0.002676171)
(0.1435553 -1.284896 -0.002382991)
(0.7842152 -1.893596 -0.008859562)
(0.9254679 -2.197741 0.02191283)
(0.7129084 -2.147066 -0.009070061)
(0.7662155 -1.990921 0.009001883)
(0.6971159 -1.838153 -0.0004642694)
(0.6728416 -1.599377 0.0007242425)
(0.5136275 -1.399867 -0.0005367986)
(0.3567914 -1.293935 -0.0001917905)
(0.2382435 -1.254831 -0.0008472588)
(0.1764938 -1.236912 -0.0004281989)
(0.8105336 -1.858107 -0.01176335)
(1.009284 -2.117606 0.01369174)
(0.8002583 -2.107084 -0.01038223)
(0.9013382 -1.973552 0.009406718)
(0.9200735 -1.81478 0.003224799)
(0.9239979 -1.465288 0.00146245)
(0.6840285 -1.196184 0.0009167151)
(0.4222605 -1.101446 0.000662933)
(0.2428266 -1.166406 -0.0003852542)
(0.1698229 -1.159788 0.0002404195)
(0.8725238 -1.778675 -0.01008941)
(1.03154 -2.104771 0.02243024)
(0.8643167 -2.09485 -0.005816918)
(1.007156 -2.062783 0.01032042)
(1.206958 -1.876496 0.006956047)
(1.353883 -1.341079 0.004512715)
(0.8710968 -0.8975188 0.003585329)
(0.4041872 -0.8491273 0.00121456)
(0.1238187 -0.9784407 0.0007629696)
(0.09746067 -1.130409 0.0007301987)
(0.8768946 -1.773408 -0.01041468)
(1.038173 -2.075681 0.01842269)
(0.8746028 -2.147985 -0.007944443)
(1.024836 -2.278736 0.009556586)
(1.229678 -2.315551 0.006477788)
(2.353157 -1.627052 0.005988895)
(1.232225 -0.4804679 0.004349851)
(0.5080196 -0.4255853 0.0007415025)
(-0.1289778 -0.8178385 0.001251567)
(0.0511196 -1.074038 0.0001011474)
(0.8516506 -1.716714 -0.01281296)
(0.9852135 -2.048372 0.02247801)
(0.7007926 -2.127826 -0.007861034)
(0.7899285 -2.334392 0.008197055)
(0.8453652 -2.614534 0.005335359)
(0.5259405 -3.410365 -0.007935156)
(0.04501082 -1.29047 -0.0002385892)
(0.8389545 -1.623899 -0.01255562)
(0.9460346 -1.91281 0.02446835)
(0.5826148 -2.015137 -0.009335866)
(0.6016896 -2.095161 0.006973806)
(0.3625044 -2.286912 0.002855188)
(0.03779553 -1.338207 -0.001632248)
(0.8339233 -1.504933 -0.0130354)
(0.8982546 -1.768837 0.02396032)
(0.5494389 -1.829507 -0.01105858)
(0.4061394 -1.847676 0.00936714)
(0.1678958 -2.031906 -0.002329495)
(0.055813 -1.429096 0.001107917)
(0.06735044 -1.346045 -0.0001336118)
(0.8266262 -1.363086 -0.01333969)
(0.8903267 -1.604049 0.02415585)
(0.5084589 -1.608529 -0.01041914)
(0.4256034 -1.671101 0.007803274)
(0.09399943 -1.582426 0.0004547524)
(0.009120405 -1.458974 0.000679541)
(0.1094478 -1.397014 0.001138353)
(0.8242472 -1.222485 -0.009942716)
(0.8926677 -1.426742 0.02570158)
(0.502973 -1.438357 -0.005929626)
(0.4555578 -1.402973 0.007547751)
(0.05998448 -1.519143 0.003010534)
(-0.04748023 -1.584217 0.00678216)
(0.1703577 -1.54651 -0.0005051465)
(0.8270576 -1.08738 -0.01084278)
(0.8998551 -1.256613 0.02515635)
(0.5419422 -1.233075 -0.003877498)
(0.4339121 -1.198 0.0068517)
(0.2960631 -1.166741 0.0006346061)
(0.2978586 -1.744723 0.001763502)
(0.8177764 -0.9595351 -0.01180455)
(0.936702 -1.098649 0.03066393)
(0.5909095 -1.052951 -0.003326594)
(0.569936 -0.9813189 0.004396466)
(0.3737365 -0.8843663 -0.0003203523)
(0.4695586 -1.85855 -0.006255241)
(0.8019446 -0.8545569 -0.009711444)
(0.9833921 -0.9762023 0.02786476)
(0.6818161 -0.9375471 -0.003585468)
(0.7158195 -0.8083866 0.005360417)
(0.6197636 -0.6789102 0.00180056)
(0.4074515 -0.3283906 0.004697539)
(1.159189 -0.09432498 0.0005109029)
(1.656051 -0.2177244 0.001072462)
(3.488739 -0.838495 -0.02485551)
(1.035027 -1.611822 0.001271055)
(0.8182052 -0.785705 -0.01083237)
(1.014191 -0.8949867 0.02579091)
(0.7569295 -0.8599041 -0.002591619)
(0.8241006 -0.7693571 0.007221209)
(0.7685619 -0.6909411 0.0009433166)
(0.9230927 -0.537953 8.283468e-05)
(1.099032 -0.5314992 -0.0003224351)
(1.316931 -0.7224317 -0.0005344877)
(1.26155 -1.051786 0.0003967259)
(1.007614 -1.187143 0.0005928481)
(0.8402334 -0.732342 -0.01294889)
(1.037292 -0.8387676 0.02426273)
(0.8065399 -0.8185299 -0.007207615)
(0.90318 -0.7659972 0.006791006)
(0.8436989 -0.6904123 0.002580653)
(0.9375944 -0.6322692 0.002279996)
(1.026958 -0.6629807 0.0007928019)
(1.123692 -0.7546769 0.0004966221)
(1.090551 -0.9609831 -0.0001704858)
(0.9622953 -1.025845 -0.0005542084)
(0.8364514 -0.6974982 -0.01088322)
(1.051588 -0.7976737 0.02354875)
(0.8414314 -0.7940104 -0.002182795)
(0.930652 -0.7590571 0.005627967)
(0.8765516 -0.7271019 0.004416437)
(0.947756 -0.6993053 0.002958834)
(0.9783502 -0.7188877 0.001247581)
(1.023725 -0.7798125 0.00051023)
(0.9928695 -0.8827403 0.0002822731)
(0.9094296 -0.9378699 -3.637138e-05)
(0.8353907 -0.6701004 -0.01043192)
(1.063667 -0.7686755 0.02249803)
(0.8603663 -0.7700244 -0.009095786)
(0.9460983 -0.7532083 0.004305336)
(0.8961022 -0.7308281 0.005876509)
(0.9381056 -0.7233962 0.003393449)
(0.9461937 -0.7383332 0.001892137)
(0.9599922 -0.7733965 0.0009543784)
(0.9332972 -0.8374421 0.0003557523)
(0.8778376 -0.8687092 0.0001217773)
(0.2566123 -2.778273 0.0007200417)
(0.208769 -2.423612 0.0006843772)
(0.1707946 -2.170867 0.001196265)
(0.1266368 -1.997615 0.0009262812)
(0.1066761 -1.788354 0.0009547842)
(0.08100899 -1.636184 0.0009729363)
(0.0616654 -1.505822 0.0007330157)
(0.04474175 -1.416233 0.000913402)
(0.03332621 -1.344917 0.0007058835)
(0.7628233 -2.133686 -0.04841378)
(0.5840224 -2.396989 0.0005262218)
(0.4839612 -2.379018 0.001702308)
(0.399778 -2.084863 0.003881415)
(0.3365055 -1.946229 0.002543694)
(0.2951892 -1.743216 0.003014166)
(0.2303679 -1.595816 0.002623845)
(0.1754085 -1.471135 0.002280179)
(0.1268989 -1.390653 0.002508334)
(0.0947769 -1.326575 0.002323768)
(0.7070969 -2.170508 -0.003897899)
(0.8877696 -2.218203 -0.002466523)
(0.5581548 -2.220557 -0.0007702719)
(0.5914344 -2.021235 0.0007962117)
(0.4939616 -1.888327 -0.001183926)
(0.47086 -1.674405 0.0008263446)
(0.3648909 -1.514807 -0.0001468194)
(0.2750983 -1.394307 0.0002826534)
(0.1934783 -1.335606 0.0002439801)
(0.1434077 -1.282266 0.0003459524)
(0.7876872 -1.887932 -0.005647288)
(0.9242865 -2.205489 -0.005531982)
(0.7201824 -2.148168 -0.003848544)
(0.7667282 -1.990226 -0.001387504)
(0.7024097 -1.82904 0.000289641)
(0.6750101 -1.600935 -0.0004351825)
(0.5148617 -1.400941 -0.000686314)
(0.3573719 -1.294647 -0.0005341668)
(0.2374594 -1.253518 -1.39037e-05)
(0.1769741 -1.237534 -0.0003996692)
(0.8635719 -1.868421 -0.008356357)
(1.016558 -2.118714 -0.006670158)
(0.8068078 -2.108313 -0.003963208)
(0.9012825 -1.971595 -0.0009037297)
(0.930912 -1.819148 -0.0005786601)
(0.9258593 -1.463082 -0.001251964)
(0.6859825 -1.193986 -0.0009863358)
(0.4228798 -1.10102 -0.001783243)
(0.2430386 -1.16607 -0.000891884)
(0.1702964 -1.159261 -0.001469117)
(0.8623 -1.783418 -0.008821336)
(1.02714 -2.102309 -0.00910466)
(0.8535767 -2.092879 -0.002888214)
(1.005615 -2.06412 -0.0007992975)
(1.20391 -1.871063 -0.003221576)
(1.35342 -1.337825 -0.00238467)
(0.8712226 -0.8973181 -0.003643929)
(0.404641 -0.8483791 -0.00208507)
(0.1222158 -0.978226 -0.0006379748)
(0.09756084 -1.130235 -0.0008040198)
(0.8729226 -1.772309 -0.00856868)
(1.039059 -2.088966 -0.00670696)