/*--------------------------------*- C++ -*----------------------------------*\
  =========                 |
  \\      /  F ield         | OpenFOAM: The Open Source CFD Toolbox
   \\    /   O peration     | Website:  https://openfoam.org
    \\  /    A nd           | Version:  7
     \\/     M anipulation  |
\*---------------------------------------------------------------------------*/
FoamFile
{
    version     2.0;
    format      ascii;
    class       volScalarField;
    location    "0.08";
    object      epsilon;
}
// * * * * * * * * * * * * * * * * * * * * * * * * * * * * * * * * * * * * * //

dimensions      [0 2 -3 0 0 0 0];

internalField   nonuniform List<scalar> 
109929
(
0.001956254
0.002003343
0.002003109
0.001999826
0.001996642
0.001993435
0.00200902
0.002112728
0.002120241
0.002118557
0.002115829
0.002112538
0.002007805
0.002118424
0.002128375
0.002127637
0.002125371
0.00212221
0.002003527
0.002115494
0.002126622
0.002126662
0.00212493
0.002122082
0.001999563
0.002111784
0.002123407
0.002123939
0.002122563
0.00211998
0.001996233
0.00210851
0.002120458
0.002121368
0.002120265
0.002117938
0.001993353
0.002105554
0.002117682
0.002118804
0.002117935
0.002115807
0.001990852
0.00210295
0.002115198
0.002116478
0.002115819
0.002113817
0.001988641
0.002100615
0.002112939
0.002114334
0.002113789
0.002111921
0.00198667
0.002098515
0.002110893
0.002112367
0.002111913
0.002110163
0.001984896
0.002096629
0.002109026
0.002110559
0.002110178
0.002108526
0.001983289
0.00209491
0.002107316
0.002108899
0.002108572
0.002106974
0.001981824
0.002093334
0.002105745
0.002107366
0.002107082
0.002105529
0.001980488
0.002091881
0.002104305
0.002105947
0.002105694
0.002104179
0.001979296
0.00209054
0.002102967
0.002104629
0.002104399
0.002102917
0.001978199
0.002089299
0.002101721
0.002103401
0.002103192
0.002101737
0.001977181
0.002088145
0.002100558
0.002102255
0.002102064
0.002100631
0.001976233
0.002087068
0.002099477
0.002101189
0.002101006
0.002099588
0.001975348
0.002086055
0.002098455
0.002100181
0.002099999
0.002098592
0.001974512
0.002085082
0.002097459
0.002099189
0.002099005
0.00209761
0.001973682
0.002084055
0.002096369
0.002098084
0.002097894
0.002096531
0.001972697
0.002082692
0.002094846
0.002096503
0.002096323
0.002095034
0.01079569
0.002080748
0.00209265
0.002094209
0.002094069
0.002092934
0.01138304
0.01118156
0.011162
0.01113194
0.01110474
0.01108075
0.01086223
0.01082621
0.01082327
0.01081493
0.01081147
0.0108094
0.0108447
0.01081753
0.01081249
0.01080952
0.01080775
0.01080648
0.01082788
0.0108115
0.01081016
0.01080852
0.01080736
0.0108063
0.01082328
0.01080817
0.01080698
0.01080597
0.01080523
0.01080455
0.01081939
0.01080548
0.0108052
0.01080473
0.01080433
0.01080387
0.01081711
0.01080388
0.01080368
0.0108034
0.01080315
0.01080285
0.01081513
0.01080256
0.01080254
0.01080243
0.01080231
0.01080212
0.0108136
0.01080159
0.01080161
0.01080157
0.01080152
0.01080141
0.01081228
0.01080079
0.01080085
0.01080086
0.01080086
0.0108008
0.01081116
0.01080013
0.0108002
0.01080024
0.01080027
0.01080024
0.01081017
0.01079957
0.01079965
0.0107997
0.01079975
0.01079975
0.01080929
0.01079908
0.01079916
0.01079922
0.01079928
0.0107993
0.0108085
0.01079866
0.01079873
0.0107988
0.01079886
0.0107989
0.01080779
0.01079828
0.01079835
0.01079842
0.01079848
0.01079853
0.01080714
0.01079793
0.010798
0.01079807
0.01079814
0.01079819
0.01080654
0.01079763
0.01079769
0.01079776
0.01079783
0.01079787
0.01080598
0.01079735
0.01079741
0.01079747
0.01079754
0.01079759
0.01080547
0.01079709
0.01079714
0.01079721
0.01079727
0.01079732
0.01080499
0.01079685
0.0107969
0.01079697
0.01079703
0.01079708
0.01080455
0.01079664
0.01079668
0.01079674
0.0107968
0.01079685
0.01080414
0.01079643
0.01079648
0.01079653
0.01079659
0.01079664
0.01080375
0.01079625
0.01079629
0.01079634
0.01079639
0.01079644
0.01080324
0.01079607
0.01079611
0.01079616
0.01079621
0.01079625
0.01144909
0.01112899
0.01112463
0.01110238
0.01108314
0.01106489
0.0108498
0.01082291
0.01082345
0.0108146
0.01081116
0.010809
0.0108418
0.0108172
0.01081226
0.01080939
0.01080744
0.01080615
0.01082247
0.01081099
0.01081024
0.01080874
0.01080744
0.01080633
0.01081855
0.01080797
0.01080688
0.01080591
0.01080511
0.01080445
0.0108156
0.01080529
0.01080517
0.0108047
0.01080427
0.01080377
0.01081375
0.01080374
0.01080364
0.01080336
0.01080305
0.01080275
0.01081228
0.01080244
0.01080251
0.01080239
0.01080223
0.01080203
0.01081105
0.01080149
0.01080158
0.01080152
0.01080143
0.01080131
0.01080999
0.01080069
0.01080082
0.01080081
0.01080077
0.0108007
0.01080906
0.01080004
0.01080017
0.01080018
0.01080018
0.01080015
0.01080823
0.01079949
0.01079961
0.01079964
0.01079966
0.01079965
0.01080748
0.010799
0.01079912
0.01079916
0.01079919
0.01079921
0.0108068
0.01079858
0.01079869
0.01079874
0.01079878
0.0107988
0.01080618
0.0107982
0.01079831
0.01079836
0.0107984
0.01079843
0.01080561
0.01079787
0.01079797
0.01079801
0.01079806
0.01079809
0.01080508
0.01079756
0.01079765
0.0107977
0.01079774
0.01079778
0.01080459
0.01079728
0.01079737
0.01079741
0.01079746
0.0107975
0.01080413
0.01079703
0.01079711
0.01079715
0.01079719
0.01079723
0.01080371
0.01079679
0.01079687
0.01079691
0.01079695
0.01079699
0.01080331
0.01079658
0.01079664
0.01079668
0.01079672
0.01079676
0.01080294
0.01079637
0.01079644
0.01079647
0.01079651
0.01079655
0.01080259
0.01079619
0.01079625
0.01079628
0.01079632
0.01079635
0.01080227
0.01079601
0.01079607
0.0107961
0.01079613
0.01079617
0.01145044
0.01111913
0.01112202
0.0110997
0.01107596
0.01105637
0.01084758
0.01082146
0.01082425
0.01081467
0.01081116
0.010809
0.01084314
0.01081707
0.01081216
0.01080921
0.01080722
0.01080592
0.01082247
0.01081077
0.01080994
0.01080852
0.01080735
0.01080621
0.01081933
0.01080783
0.01080677
0.01080584
0.01080505
0.01080439
0.01081584
0.01080513
0.01080505
0.01080469
0.01080423
0.01080375
0.01081401
0.01080368
0.01080359
0.01080334
0.01080303
0.01080272
0.01081242
0.01080238
0.01080246
0.01080237
0.01080222
0.01080202
0.01081116
0.01080143
0.01080154
0.01080151
0.01080143
0.0108013
0.01081007
0.01080064
0.01080078
0.0108008
0.01080077
0.0108007
0.01080912
0.01079999
0.01080013
0.01080018
0.01080018
0.01080015
0.01080828
0.01079943
0.01079958
0.01079964
0.01079966
0.01079965
0.01080752
0.01079895
0.01079909
0.01079916
0.0107992
0.01079921
0.01080683
0.01079853
0.01079866
0.01079874
0.01079878
0.0107988
0.0108062
0.01079815
0.01079828
0.01079836
0.0107984
0.01079843
0.01080562
0.01079782
0.01079794
0.01079801
0.01079806
0.0107981
0.01080509
0.01079751
0.01079762
0.0107977
0.01079775
0.01079779
0.0108046
0.01079723
0.01079734
0.01079741
0.01079746
0.0107975
0.01080414
0.01079698
0.01079708
0.01079715
0.0107972
0.01079724
0.01080371
0.01079675
0.01079684
0.0107969
0.01079695
0.01079699
0.01080331
0.01079653
0.01079662
0.01079668
0.01079673
0.01079676
0.01080294
0.01079633
0.01079641
0.01079647
0.01079652
0.01079655
0.01080259
0.01079615
0.01079622
0.01079628
0.01079632
0.01079635
0.01080227
0.01079598
0.01079605
0.0107961
0.01079614
0.01079617
0.0114258
0.01111058
0.0111154
0.01109806
0.01108027
0.01106231
0.0108468
0.01082102
0.01082413
0.0108145
0.01081103
0.01080874
0.01084253
0.01081698
0.01081186
0.01080907
0.01080722
0.01080585
0.01082246
0.01081064
0.01080959
0.01080805
0.01080695
0.01080595
0.01081939
0.01080764
0.01080664
0.01080576
0.01080501
0.01080435
0.01081575
0.01080499
0.01080499
0.01080463
0.01080421
0.01080376
0.01081394
0.01080361
0.01080354
0.01080331
0.01080302
0.01080272
0.01081237
0.0108023
0.01080241
0.01080234
0.01080221
0.01080202
0.01081112
0.01080137
0.01080149
0.01080149
0.01080142
0.0108013
0.01081003
0.01080058
0.01080073
0.01080077
0.01080076
0.0108007
0.01080909
0.01079994
0.01080009
0.01080015
0.01080017
0.01080015
0.01080825
0.01079938
0.01079953
0.01079962
0.01079965
0.01079965
0.01080749
0.01079891
0.01079905
0.01079914
0.01079919
0.01079921
0.0108068
0.01079849
0.01079863
0.01079872
0.01079877
0.0107988
0.01080617
0.01079811
0.01079824
0.01079834
0.0107984
0.01079843
0.0108056
0.01079778
0.0107979
0.01079799
0.01079805
0.0107981
0.01080506
0.01079747
0.01079759
0.01079768
0.01079774
0.01079779
0.01080457
0.0107972
0.01079731
0.01079739
0.01079746
0.0107975
0.01080411
0.01079694
0.01079705
0.01079713
0.01079719
0.01079724
0.01080369
0.01079671
0.01079681
0.01079689
0.01079695
0.01079699
0.01080329
0.0107965
0.01079659
0.01079666
0.01079672
0.01079676
0.01080292
0.0107963
0.01079639
0.01079646
0.01079651
0.01079655
0.01080257
0.01079612
0.0107962
0.01079626
0.01079631
0.01079635
0.01080225
0.01079595
0.01079602
0.01079608
0.01079613
0.01079617
0.01143443
0.01110359
0.01111372
0.01109517
0.01107554
0.01105669
0.01084667
0.01082101
0.01082412
0.01081451
0.01081103
0.01080874
0.0108422
0.01081696
0.01081186
0.01080908
0.01080724
0.01080588
0.01082245
0.01081064
0.01080959
0.01080805
0.01080696
0.01080596
0.01081955
0.01080764
0.01080664
0.01080576
0.01080501
0.01080436
0.01081575
0.01080499
0.01080499
0.01080463
0.01080421
0.01080376
0.01081396
0.01080361
0.01080354
0.01080331
0.01080302
0.01080272
0.01081238
0.0108023
0.01080241
0.01080234
0.01080221
0.01080202
0.01081113
0.01080137
0.01080149
0.01080149
0.01080142
0.0108013
0.01081004
0.01080058
0.01080073
0.01080077
0.01080076
0.0108007
0.01080909
0.01079994
0.01080009
0.01080015
0.01080017
0.01080015
0.01080825
0.01079938
0.01079953
0.01079962
0.01079965
0.01079965
0.01080749
0.01079891
0.01079905
0.01079914
0.01079919
0.01079921
0.0108068
0.01079849
0.01079863
0.01079872
0.01079877
0.0107988
0.01080618
0.01079811
0.01079824
0.01079834
0.0107984
0.01079843
0.0108056
0.01079778
0.0107979
0.01079799
0.01079805
0.0107981
0.01080507
0.01079747
0.01079759
0.01079768
0.01079774
0.01079779
0.01080457
0.0107972
0.01079731
0.01079739
0.01079746
0.0107975
0.01080412
0.01079694
0.01079705
0.01079713
0.01079719
0.01079724
0.01080369
0.01079671
0.01079681
0.01079689
0.01079695
0.01079699
0.01080329
0.0107965
0.01079659
0.01079666
0.01079672
0.01079676
0.01080292
0.0107963
0.01079639
0.01079646
0.01079651
0.01079655
0.01080258
0.01079612
0.0107962
0.01079626
0.01079631
0.01079635
0.01080225
0.01079595
0.01079602
0.01079608
0.01079613
0.01079617
0.011446
0.01110369
0.01111257
0.01109722
0.01107856
0.01106023
0.01084731
0.01082144
0.01082421
0.01081463
0.01081112
0.01080896
0.01084167
0.01081706
0.01081218
0.01080924
0.01080727
0.01080597
0.01082252
0.01081075
0.01080994
0.01080852
0.01080735
0.01080622
0.01081956
0.01080782
0.01080676
0.01080584
0.01080506
0.0108044
0.01081582
0.01080512
0.01080504
0.01080468
0.01080422
0.01080375
0.01081401
0.01080367
0.01080358
0.01080333
0.01080303
0.01080273
0.01081242
0.01080236
0.01080245
0.01080236
0.01080221
0.01080202
0.01081116
0.01080142
0.01080153
0.0108015
0.01080142
0.0108013
0.01081007
0.01080063
0.01080076
0.01080079
0.01080076
0.0108007
0.01080912
0.01079998
0.01080012
0.01080017
0.01080017
0.01080014
0.01080828
0.01079942
0.01079956
0.01079963
0.01079965
0.01079965
0.01080752
0.01079894
0.01079908
0.01079915
0.01079919
0.0107992
0.01080683
0.01079852
0.01079865
0.01079873
0.01079877
0.0107988
0.0108062
0.01079814
0.01079827
0.01079835
0.0107984
0.01079843
0.01080562
0.01079781
0.01079793
0.010798
0.01079806
0.01079809
0.01080509
0.0107975
0.01079761
0.01079769
0.01079774
0.01079778
0.0108046
0.01079723
0.01079733
0.0107974
0.01079746
0.0107975
0.01080414
0.01079697
0.01079707
0.01079714
0.01079719
0.01079723
0.01080371
0.01079674
0.01079683
0.0107969
0.01079695
0.01079699
0.01080331
0.01079652
0.01079661
0.01079667
0.01079672
0.01079676
0.01080294
0.01079632
0.01079641
0.01079646
0.01079651
0.01079655
0.01080259
0.01079614
0.01079621
0.01079627
0.01079631
0.01079635
0.01080227
0.01079597
0.01079604
0.01079609
0.01079613
0.01079617
0.01142551
0.01110857
0.01111397
0.01110031
0.01108199
0.01106308
0.01084881
0.01082287
0.01082338
0.01081454
0.01081111
0.01080895
0.01084028
0.01081719
0.01081229
0.01080946
0.01080753
0.01080624
0.01082267
0.01081095
0.01081022
0.01080873
0.01080744
0.01080633
0.01081967
0.01080794
0.01080686
0.01080591
0.01080513
0.01080447
0.01081584
0.01080526
0.01080514
0.01080468
0.01080426
0.01080377
0.010814
0.01080371
0.01080361
0.01080335
0.01080305
0.01080275
0.01081242
0.01080241
0.01080248
0.01080237
0.01080222
0.01080203
0.01081116
0.01080146
0.01080155
0.01080151
0.01080142
0.01080131
0.01081007
0.01080067
0.01080079
0.01080079
0.01080076
0.0108007
0.01080912
0.01080002
0.01080014
0.01080017
0.01080017
0.01080015
0.01080828
0.01079946
0.01079958
0.01079963
0.01079965
0.01079965
0.01080752
0.01079898
0.0107991
0.01079915
0.01079919
0.0107992
0.01080684
0.01079856
0.01079867
0.01079873
0.01079877
0.0107988
0.01080621
0.01079818
0.01079829
0.01079834
0.01079839
0.01079843
0.01080563
0.01079785
0.01079794
0.010798
0.01079805
0.01079809
0.01080509
0.01079754
0.01079763
0.01079769
0.01079774
0.01079778
0.0108046
0.01079726
0.01079735
0.0107974
0.01079745
0.0107975
0.01080414
0.01079701
0.01079709
0.01079714
0.01079719
0.01079723
0.01080371
0.01079677
0.01079685
0.01079689
0.01079694
0.01079699
0.01080332
0.01079656
0.01079663
0.01079667
0.01079672
0.01079676
0.01080294
0.01079636
0.01079642
0.01079646
0.01079651
0.01079655
0.0108026
0.01079617
0.01079623
0.01079627
0.01079631
0.01079635
0.01080227
0.010796
0.01079605
0.01079609
0.01079613
0.01079617
0.01133459
0.01112557
0.0111281
0.0111083
0.01108638
0.011066
0.01085247
0.01082611
0.01082318
0.01081486
0.0108114
0.01080933
0.01083916
0.0108175
0.01081249
0.01080951
0.01080774
0.01080648
0.01082397
0.01081141
0.0108101
0.01080849
0.01080734
0.01080628
0.01082059
0.01080811
0.01080695
0.01080597
0.01080523
0.01080455
0.01081679
0.0108054
0.01080516
0.01080471
0.01080431
0.01080386
0.01081484
0.01080381
0.01080364
0.01080339
0.01080314
0.01080285
0.01081316
0.01080249
0.0108025
0.01080241
0.0108023
0.01080212
0.01081182
0.01080153
0.01080158
0.01080156
0.01080151
0.01080141
0.01081067
0.01080073
0.01080081
0.01080084
0.01080085
0.0108008
0.01080968
0.01080007
0.01080017
0.01080022
0.01080026
0.01080024
0.01080879
0.01079951
0.01079961
0.01079968
0.01079974
0.01079975
0.010808
0.01079903
0.01079913
0.01079921
0.01079927
0.0107993
0.01080729
0.01079861
0.0107987
0.01079879
0.01079886
0.01079889
0.01080663
0.01079823
0.01079832
0.0107984
0.01079848
0.01079852
0.01080603
0.01079789
0.01079798
0.01079806
0.01079813
0.01079818
0.01080548
0.01079758
0.01079766
0.01079775
0.01079782
0.01079787
0.01080497
0.0107973
0.01079738
0.01079746
0.01079753
0.01079759
0.01080449
0.01079705
0.01079712
0.0107972
0.01079727
0.01079732
0.01080405
0.01079681
0.01079688
0.01079696
0.01079702
0.01079707
0.01080364
0.0107966
0.01079666
0.01079673
0.0107968
0.01079685
0.01080326
0.0107964
0.01079645
0.01079652
0.01079658
0.01079663
0.0108029
0.01079621
0.01079626
0.01079633
0.01079639
0.01079643
0.01080324
0.01079604
0.01079609
0.01079615
0.0107962
0.01079625
0.01634032
0.01464679
0.01393675
0.01346951
0.01313384
0.01287593
0.01095113
0.01084599
0.01081819
0.01080813
0.01080669
0.01080545
0.01080387
0.01090807
0.01083889
0.01082542
0.01081954
0.01081607
0.01081353
0.01081167
0.01087859
0.01082146
0.01081775
0.01081485
0.01081314
0.01081202
0.01081125
0.01086988
0.01081677
0.01081351
0.01081184
0.01081062
0.01080979
0.01080902
0.01086294
0.01081168
0.01081019
0.01080929
0.01080875
0.01080833
0.01080804
0.01085817
0.01080914
0.01080785
0.01080728
0.01080703
0.01080683
0.0108067
0.01085418
0.01080685
0.01080598
0.01080564
0.01080556
0.01080554
0.01080553
0.01085089
0.0108052
0.01080449
0.01080429
0.01080429
0.01080437
0.01080445
0.01084802
0.01080381
0.01080325
0.01080312
0.01080319
0.01080333
0.01080348
0.0108455
0.01080266
0.01080219
0.01080212
0.01080222
0.01080239
0.0108026
0.01084325
0.01080166
0.01080129
0.01080123
0.01080136
0.01080155
0.01080178
0.01084122
0.0108008
0.01080049
0.01080045
0.01080059
0.01080079
0.01080103
0.01083936
0.01080003
0.01079977
0.01079975
0.0107999
0.0108001
0.01080035
0.01083764
0.01079934
0.01079911
0.01079912
0.01079926
0.01079947
0.01079972
0.01083606
0.01079873
0.01079852
0.01079855
0.01079868
0.01079889
0.01079914
0.01083459
0.01079816
0.01079797
0.01079803
0.01079815
0.01079835
0.01079861
0.01083322
0.01079765
0.01079747
0.01079753
0.01079765
0.01079785
0.01079811
0.01083193
0.01079718
0.01079701
0.01079707
0.0107972
0.01079739
0.01079764
0.01083074
0.01079674
0.01079658
0.01079664
0.01079678
0.01079696
0.0107972
0.01082961
0.01079633
0.01079619
0.01079625
0.0107964
0.01079656
0.0107968
0.01082856
0.01079596
0.01079582
0.01079588
0.01079603
0.01079618
0.01079641
0.01082757
0.01079561
0.01079548
0.01079554
0.01079569
0.01079584
0.01079606
0.01082664
0.001970332
0.01079516
0.01079522
0.01079537
0.01079552
0.01079574
0.004391992
0.01719294
0.01100828
0.01095812
0.004301328
0.004468139
0.01094772
0.01087177
0.01091325
0.01086442
0.004448128
0.004444842
0.01090328
0.01084861
0.01088237
0.0108353
0.004424743
0.004421224
0.01087431
0.01082798
0.0108707
0.01082565
0.004401995
0.004400359
0.01086589
0.01082186
0.01086342
0.01081956
0.004383916
0.004383417
0.01085917
0.01081691
0.01085829
0.01081611
0.004368552
0.004368842
0.01085458
0.01081424
0.01085421
0.01081351
0.004355531
0.004356294
0.01085073
0.01081201
0.01085083
0.01081159
0.004344152
0.004345228
0.01084757
0.01081039
0.01084793
0.01081006
0.004334108
0.00433539
0.01084482
0.01080904
0.01084537
0.0108088
0.004325122
0.004326552
0.01084242
0.01080793
0.01084308
0.01080773
0.004317015
0.004318545
0.01084026
0.01080697
0.01084102
0.0108068
0.004309643
0.00431124
0.01083831
0.01080613
0.01083914
0.01080598
0.004302897
0.00430454
0.01083654
0.01080539
0.01083742
0.01080525
0.004296696
0.004298356
0.0108349
0.01080472
0.01083584
0.0108046
0.004290974
0.004292627
0.01083339
0.01080412
0.01083437
0.01080401
0.004285665
0.004287302
0.01083199
0.01080358
0.010833
0.01080346
0.00428073
0.004282344
0.01083068
0.01080308
0.01083172
0.01080297
0.00427613
0.004277719
0.01082946
0.01080262
0.01083053
0.01080251
0.004271835
0.004273397
0.01082832
0.01080219
0.01082941
0.01080209
0.004267819
0.004269344
0.01082726
0.0108018
0.01082836
0.0108017
0.004264044
0.004265477
0.01082625
0.01080144
0.01082738
0.01080134
0.0042604
0.004261383
0.01082531
0.0108011
0.01082645
0.010801
0.00425632
0.01068378
0.01082659
0.01080078
0.01082339
0.01079791
0.0186648
0.01097689
0.01094272
0.01828454
0.01095964
0.01094619
0.01890068
0.01096192
0.01096209
0.01813003
0.0109629
0.01096317
0.01899489
0.0109641
0.01096717
0.01803317
0.01096569
0.01096588
0.0190118
0.01096441
0.01096558
0.01877554
0.01096964
0.01097087
0.01800638
0.01096379
0.0109663
0.01901815
0.01096787
0.01096637
0.01804933
0.01096229
0.01096692
0.01900333
0.0109678
0.01096702
0.01812411
0.01095963
0.01096328
0.01889162
0.01096649
0.01096199
0.01828223
0.01095553
0.0109463
0.01866506
0.01097927
0.01094273
0.01721148
0.01100432
0.01095793
0.004391983
0.01085361
0.004416103
0.01084297
0.01088232
0.01083522
0.004447339
0.004444847
0.01079828
0.01082642
0.01080099
0.004260493
0.004261396
0.01080077
0.01082338
0.01080068
0.004256333
0.01068336
0.01273088
0.01015269
0.00434921
0.004509637
0.01634121
0.01472689
0.01092816
0.01089458
0.004497002
0.004488605
0.01464682
0.01390519
0.01088537
0.01087514
0.004469323
0.004467163
0.01393681
0.01340534
0.01087269
0.01086345
0.004447958
0.004449774
0.01346953
0.01305604
0.01086403
0.01085523
0.004430869
0.004435214
0.01313392
0.01279047
0.01085813
0.01084994
0.004416108
0.012876
0.01085362
0.01078464
0.009798692
0.01084057
0.009755991
0.01077346
0.009648945
0.01078092
0.009614689
0.01077596
0.009520626
0.01077578
0.009499679
0.01078274
0.009417387
0.0107821
0.009403788
0.01078751
0.00933454
0.01078628
0.009325631
0.01079138
0.009263451
0.01079021
0.009257837
0.01079445
0.009201487
0.0107931
0.009198776
0.01079663
0.009147958
0.01079536
0.009147318
0.01079831
0.009100868
0.01079711
0.00910171
0.01079964
0.009059337
0.01079851
0.009060826
0.0108007
0.009022303
0.01079962
0.009023856
0.01080151
0.008988747
0.01080049
0.008990191
0.01080211
0.008957987
0.01080116
0.008959339
0.01080255
0.008929686
0.01080165
0.008930899
0.01080287
0.008903545
0.01080202
0.008904583
0.01080309
0.008879287
0.01080228
0.008880159
0.01080323
0.008856706
0.01080246
0.008857423
0.01080331
0.008835635
0.01080257
0.008836206
0.01080334
0.008815942
0.01080262
0.00881637
0.01080332
0.008797511
0.01080263
0.008797822
0.01080327
0.00878029
0.0108026
0.008780507
0.01080319
0.00876414
0.01080254
0.008764257
0.01080308
0.008748819
0.01080245
0.008748267
0.01286673
0.01278938
0.0128125
0.01274546
0.01283172
0.0127838
0.01284141
0.01280816
0.01278921
0.01284292
0.01278789
0.01283321
0.01279171
0.01283896
0.0127876
0.01283088
0.01265547
0.0127489
0.01473771
0.01092813
0.0108944
0.004349194
0.00450971
0.01391194
0.01088534
0.01087494
0.004497051
0.004488651
0.01340982
0.01087266
0.01086324
0.004469347
0.004467167
0.01305915
0.010864
0.01085501
0.004447986
0.004449819
0.01279249
0.0108577
0.0108446
0.004430911
0.004436048
0.01086445
0.01091321
0.01086425
0.004300753
0.004468082
0.01082165
0.01087066
0.01082559
0.004424376
0.004421216
0.01081596
0.01086338
0.01081952
0.00440176
0.004400341
0.01081135
0.01085825
0.01081607
0.004383696
0.004383384
0.01080899
0.01085418
0.01081348
0.004368383
0.004368846
0.01080703
0.0108508
0.01081157
0.00435545
0.004356311
0.01080565
0.01084789
0.01081004
0.004344107
0.004345233
0.01080452
0.01084534
0.01080878
0.004334072
0.00433538
0.01080359
0.01084305
0.01080771
0.004325108
0.004326537
0.01080281
0.01084099
0.01080679
0.004317006
0.004318555
0.01080213
0.01083911
0.01080597
0.004309683
0.004311261
0.01080154
0.01083739
0.01080524
0.004302952
0.00430456
0.01080101
0.0108358
0.01080459
0.004296763
0.004298364
0.01080054
0.01083434
0.010804
0.004291032
0.004292639
0.01080011
0.01083297
0.01080346
0.004285748
0.004287323
0.01079972
0.01083169
0.01080296
0.004280815
0.004282353
0.01079937
0.0108305
0.01080251
0.004276224
0.004277741
0.01079904
0.01082938
0.01080209
0.004271931
0.004273418
0.01079874
0.01082833
0.01080169
0.004267933
0.00426934
0.01079846
0.01082735
0.01080133
0.004264137
0.004265492
0.01208588
0.01010892
0.01200287
0.009876522
0.01110527
0.009890859
0.01100873
0.009573468
0.01264828
0.01276032
0.01076963
0.00970977
0.01076547
0.009734632
0.01076936
0.009571842
0.01076786
0.009592316
0.01077545
0.009463176
0.01077559
0.009477137
0.01078236
0.009374123
0.01078183
0.009383715
0.01078735
0.009300071
0.01078671
0.009307032
0.01079126
0.009235512
0.01079043
0.009240064
0.01079419
0.009179685
0.01079338
0.009182454
0.0107964
0.009130623
0.0107956
0.009132145
0.01079808
0.009087011
0.01079729
0.009087703
0.0107994
0.009047941
0.01079861
0.009047933
0.01080042
0.009012402
0.01079964
0.009011712
0.0108012
0.008979942
0.01080044
0.008978745
0.01080178
0.008950021
0.01080108
0.008948569
0.01080221
0.008922342
0.01080155
0.008920682
0.01080252
0.008896716
0.0108019
0.008894992
0.01080273
0.008872849
0.01080214
0.008871175
0.01080287
0.008850608
0.0108023
0.008848982
0.01080294
0.008829827
0.01080241
0.008828282
0.01080297
0.008810387
0.01080246
0.008808914
0.01080295
0.008792214
0.01080247
0.008790837
0.0108029
0.008775245
0.01080245
0.008773972
0.01080282
0.008759181
0.0108024
0.008758141
0.01080269
0.01052967
0.008742218
0.01079766
0.01278732
0.01282949
0.01279048
0.01283753
0.01281024
0.01284133
0.0128045
0.01284008
0.01283835
0.0128022
0.0128471
0.01279598
0.01282308
0.01276347
0.01285424
0.01278467
0.01273424
0.01015284
0.01208673
0.01010903
0.01200284
0.009876059
0.01110568
0.009890498
0.01100854
0.009573929
0.01120201
0.009437751
0.01121923
0.01077346
0.009648986
0.01078153
0.009614747
0.01080319
0.008764228
0.01080255
0.008764374
0.01080282
0.008759227
0.01080242
0.008758274
0.01080307
0.008748894
0.01080236
0.008748253
0.01080269
0.008741084
0.008742363
0.01079764
0.01082568
0.01068605
0.01082571
0.01080049
0.01080049
0.0106856
0.01053357
0.01079761
0.008730552
0.01079759
0.02328679
0.009739637
0.01006327
0.01183211
0.01178475
0.009988156
0.01154967
0.009849952
0.01157435
0.009809419
0.011412
0.009699586
0.01144018
0.009683616
0.01132009
0.009591576
0.0113432
0.009587203
0.01125368
0.009507119
0.01127313
0.009510529
0.01120192
0.009437906
0.01121922
0.00944711
0.01037477
0.0095838
0.0103789
0.009552699
0.01046239
0.009336552
0.01044629
0.009334736
0.01053463
0.009177069
0.0105144
0.0091775
0.01059056
0.009058837
0.01057115
0.009060755
0.0106299
0.008968925
0.01061222
0.008969329
0.01066016
0.008895967
0.0106446
0.008894141
0.01068335
0.008834718
0.01066904
0.008829774
0.0107023
0.008781414
0.01068939
0.008776039
0.0107178
0.008734581
0.01070618
0.008729224
0.01073057
0.008692883
0.01071999
0.008687906
0.01074118
0.008655389
0.01073148
0.008650856
0.01075006
0.008621437
0.01074108
0.008617376
0.01075753
0.00859052
0.01074917
0.008586908
0.0107638
0.008562231
0.01075603
0.008559049
0.01076906
0.008536213
0.01076188
0.008533467
0.01077351
0.008512208
0.0107669
0.008509805
0.01077732
0.008490027
0.01077121
0.008487838
0.01078058
0.00846944
0.01077491
0.008467401
0.01078338
0.008450261
0.01077811
0.008448385
0.01078577
0.008432377
0.01078086
0.008430637
0.01078784
0.008415675
0.01078325
0.008414055
0.01078961
0.008400044
0.01078531
0.008398538
0.01079112
0.008385386
0.01078709
0.008383966
0.02308991
0.02302537
0.02319139
0.02369114
0.02336738
0.02329339
0.02339171
0.02330962
0.02344729
0.02330525
0.02331228
0.02322882
0.02312111
0.02317731
0.0229811
0.02300854
0.02271975
0.02248448
0.01881999
0.008755138
0.01871399
0.008758866
0.0102732
0.009686042
0.01021722
0.009696354
0.02260159
0.02257067
0.01040992
0.009420557
0.01039457
0.009403967
0.01049941
0.009238596
0.01048876
0.009222378
0.01056443
0.009108941
0.01055501
0.009095367
0.01061085
0.009008217
0.01060251
0.008997312
0.01064577
0.008927456
0.01063816
0.008918903
0.01067265
0.008859665
0.01066557
0.008853636
0.01069387
0.008802337
0.01068728
0.008797819
0.01071088
0.008752487
0.01070483
0.008748445
0.01072473
0.008708463
0.01071924
0.008704867
0.01073614
0.008669115
0.01073109
0.008665985
0.01074567
0.008633709
0.010741
0.008630919
0.01075369
0.008601614
0.01074933
0.008599128
0.01076045
0.008572308
0.01075638
0.008570117
0.01076617
0.008545444
0.01076237
0.008543537
0.01077102
0.008520826
0.01076749
0.008518974
0.01077516
0.008497998
0.01077187
0.008496256
0.01077871
0.008476819
0.01077563
0.008475174
0.01078175
0.008457123
0.01077886
0.008455552
0.01078437
0.008438771
0.01078165
0.008437281
0.01078662
0.008421653
0.01078404
0.008420208
0.01078856
0.00840565
0.01078611
0.008404254
0.01079022
0.008390658
0.0107879
0.0083893
0.01077955
0.00837465
0.01079151
0.008374734
0.02316917
0.02314074
0.02314235
0.02308709
0.02327886
0.0231801
0.02331384
0.02321702
0.02322349
0.02343468
0.02365223
0.02350046
0.02350191
0.02323182
0.02306359
0.02297322
0.02328783
0.009717867
0.01882011
0.008755576
0.01871477
0.008759356
0.01027319
0.009685377
0.01021748
0.00969617
0.01283052
0.008579894
0.01314803
0.008581925
0.01046239
0.00933656
0.01044636
0.009334731
0.01076936
0.009570917
0.01076789
0.00959228
0.01079022
0.008390694
0.010788
0.00838932
0.0107911
0.008385394
0.008384009
0.01078691
0.008375761
0.01079274
0.01079151
0.008374663
0.02163277
0.008825942
0.02145108
0.008847328
0.01372366
0.009911645
0.01136014
0.009826016
0.0224818
0.02286295
0.01170843
0.009914808
0.01170408
0.009955658
0.01152634
0.009760546
0.01154966
0.009776839
0.01140456
0.009650927
0.01143476
0.009652432
0.01131877
0.0095653
0.01135066
0.009556493
0.01125487
0.009495432
0.01128702
0.009479303
0.01035121
0.009527566
0.01033846
0.009524898
0.01045714
0.009313644
0.01045109
0.009295323
0.01053497
0.009164301
0.01052578
0.009148095
0.01059017
0.009051425
0.01058083
0.00903843
0.01063035
0.008962613
0.01062128
0.008951878
0.01066096
0.008889171
0.01065249
0.008880996
0.01068481
0.008827385
0.01067687
0.008821037
0.01070365
0.0087741
0.01069643
0.008769173
0.01071882
0.008727472
0.01071236
0.008723575
0.01073126
0.00868618
0.01072548
0.00868276
0.0107416
0.008649237
0.01073641
0.008646134
0.01075026
0.008615804
0.01074551
0.008613002
0.01075754
0.008585312
0.01075315
0.00858281
0.01076368
0.008557415
0.01075962
0.00855514
0.01076888
0.008531771
0.01076514
0.008529671
0.01077331
0.008508128
0.01076985
0.008506168
0.01077711
0.00848626
0.01077389
0.008484367
0.01078035
0.00846593
0.01077736
0.00846412
0.01078314
0.008447007
0.01078035
0.008445245
0.01078553
0.008429355
0.01078292
0.00842766
0.01078759
0.008412854
0.01078514
0.008411214
0.01078937
0.008397425
0.01078706
0.00839582
0.01079088
0.008382839
0.0107887
0.00838135
0.02289558
0.02288524
0.02310714
0.02313686
0.02314915
0.02319514
0.02346136
0.02334897
0.0233046
0.02336048
0.02352161
0.02362006
0.02324599
0.02326702
0.02330451
0.02321002
0.02317673
0.02299281
0.01006334
0.01183222
0.009986848
0.01178477
0.009898649
0.009954038
0.01170914
0.01170717
0.009849305
0.009808288
0.01154962
0.01157405
0.009747605
0.009775473
0.01152708
0.01155389
0.009698819
0.009682688
0.01141197
0.01143989
0.009640133
0.009651413
0.01140531
0.01143959
0.00959079
0.009586251
0.01132006
0.01134295
0.009556078
0.009555492
0.01131949
0.01135581
0.00950631
0.009509675
0.01125273
0.01127281
0.009495498
0.01128721
0.009478427
0.01124927
0.009801223
0.01083849
0.009756472
0.01078203
0.009709826
0.01076739
0.009735419
0.01076954
0.009520676
0.01077497
0.009500223
0.01077501
0.009462188
0.009477403
0.01077545
0.01077562
0.00941714
0.009403125
0.01078273
0.01078146
0.009373149
0.009383041
0.01078236
0.01078186
0.009334092
0.009325844
0.0107875
0.01078578
0.009300128
0.009307532
0.01078735
0.01078674
0.009263822
0.009257981
0.01079136
0.0107898
0.0092006
0.009198046
0.01079444
0.01079309
0.009178762
0.009181711
0.01079419
0.01079342
0.009147263
0.009146581
0.01079662
0.01079506
0.009130599
0.00913144
0.0107964
0.01079562
0.009101021
0.009101848
0.01079831
0.01079685
0.009087303
0.009087897
0.01079808
0.01079732
0.009059439
0.009060065
0.01079964
0.01079828
0.009048424
0.009047449
0.0107994
0.01079863
0.009022768