/*--------------------------------*- C++ -*----------------------------------*\
  =========                 |
  \\      /  F ield         | OpenFOAM: The Open Source CFD Toolbox
   \\    /   O peration     | Website:  https://openfoam.org
    \\  /    A nd           | Version:  7
     \\/     M anipulation  |
\*---------------------------------------------------------------------------*/
FoamFile
{
    version     2.0;
    format      ascii;
    class       volScalarField;
    location    "0.08";
    object      k;
}
// * * * * * * * * * * * * * * * * * * * * * * * * * * * * * * * * * * * * * //

dimensions      [0 2 -2 0 0 0 0];

internalField   nonuniform List<scalar> 
109929
(
0.003790577
0.003780621
0.003774115
0.003769224
0.003765197
0.003761843
0.003788129
0.003785471
0.003781639
0.003778019
0.003774787
0.003771908
0.003780331
0.003779408
0.003776674
0.003773767
0.003771084
0.003768611
0.003774125
0.003774176
0.003772411
0.003770255
0.00376819
0.003766179
0.003768882
0.003769304
0.003768016
0.003766371
0.003764713
0.003763046
0.003764555
0.003765209
0.003764292
0.003763074
0.003761727
0.003760374
0.003760828
0.00376157
0.003760864
0.003759887
0.003758819
0.003757707
0.003757596
0.003758375
0.003757829
0.003757041
0.003756221
0.003755261
0.003754739
0.003755517
0.003755075
0.003754426
0.003753742
0.003752944
0.003752193
0.003752947
0.003752585
0.003752032
0.003751459
0.003750802
0.003749901
0.00375064
0.003750313
0.003749834
0.003749347
0.003748808
0.003747825
0.003748536
0.003748234
0.003747816
0.003747394
0.003746921
0.003745931
0.003746607
0.003746322
0.003745954
0.003745583
0.003745163
0.003744203
0.003744829
0.00374457
0.003744229
0.003743896
0.003743521
0.003742662
0.003743187
0.003742942
0.003742627
0.003742323
0.003741987
0.003741245
0.003741669
0.003741427
0.003741136
0.003740857
0.003740553
0.00373993
0.003740258
0.003740014
0.003739745
0.003739492
0.003739212
0.003738707
0.003738944
0.003738705
0.003738459
0.003738216
0.003737954
0.003737567
0.003737718
0.003737484
0.003737262
0.003737022
0.003736771
0.003736504
0.003736574
0.003736343
0.003736141
0.003735901
0.00373566
0.003735511
0.003735504
0.003735274
0.00373509
0.00373485
0.003734622
0.003734583
0.003734507
0.003734278
0.003734104
0.003733875
0.00373365
0.003475353
0.003733579
0.003733351
0.003733184
0.00373297
0.003732742
0.003592594
0.003553974
0.003549969
0.003543374
0.003537336
0.003531972
0.003486973
0.003480045
0.003479477
0.00347761
0.003476878
0.003476446
0.00348348
0.003478344
0.003477278
0.003476631
0.003476263
0.003476008
0.003479885
0.003477109
0.003476826
0.003476475
0.003476234
0.003476013
0.003479
0.003476441
0.003476181
0.003475962
0.003475803
0.003475662
0.003478218
0.00347589
0.003475829
0.003475725
0.003475639
0.003475543
0.003477802
0.003475578
0.003475532
0.003475469
0.003475412
0.00347535
0.00347744
0.00347532
0.003475313
0.003475284
0.003475257
0.003475216
0.003477165
0.003475135
0.003475137
0.003475124
0.003475109
0.003475085
0.00347693
0.003474984
0.003474994
0.003474991
0.003474988
0.003474974
0.003476732
0.003474862
0.003474874
0.003474877
0.00347488
0.003474873
0.003476558
0.003474758
0.003474772
0.003474779
0.003474785
0.003474784
0.003476405
0.00347467
0.003474684
0.003474693
0.003474702
0.003474704
0.003476268
0.003474593
0.003474607
0.003474617
0.003474627
0.003474631
0.003476143
0.003474525
0.003474538
0.003474549
0.00347456
0.003474566
0.00347603
0.003474464
0.003474477
0.003474488
0.003474499
0.003474506
0.003475926
0.003474409
0.003474421
0.003474432
0.003474443
0.003474451
0.003475831
0.00347436
0.003474371
0.003474382
0.003474393
0.003474401
0.003475743
0.003474314
0.003474325
0.003474336
0.003474346
0.003474354
0.00347566
0.003474273
0.003474283
0.003474293
0.003474304
0.003474311
0.003475584
0.003474235
0.003474244
0.003474254
0.003474264
0.003474272
0.003475513
0.0034742
0.003474208
0.003474217
0.003474227
0.003474235
0.003475447
0.003474167
0.003474175
0.003474184
0.003474193
0.0034742
0.003475355
0.003474137
0.003474144
0.003474152
0.003474161
0.003474168
0.003607098
0.003542501
0.003541729
0.003536808
0.003532502
0.003528389
0.003484193
0.00347929
0.00347952
0.003477521
0.0034768
0.003476352
0.003482954
0.003478289
0.003477228
0.003476598
0.003476189
0.003475926
0.003478756
0.003477
0.003476845
0.003476526
0.003476253
0.003476024
0.003478039
0.003476398
0.003476161
0.00347595
0.003475778
0.003475641
0.003477483
0.003475847
0.003475822
0.003475719
0.003475627
0.003475524
0.00347716
0.003475547
0.003475523
0.00347546
0.003475392
0.003475329
0.003476901
0.003475292
0.003475306
0.003475276
0.00347524
0.003475198
0.003476689
0.003475111
0.00347513
0.003475114
0.003475091
0.003475065
0.003476507
0.003474963
0.003474986
0.003474981
0.00347497
0.003474955
0.003476347
0.003474843
0.003474866
0.003474866
0.003474862
0.003474854
0.003476205
0.003474741
0.003474764
0.003474768
0.003474768
0.003474765
0.003476077
0.003474654
0.003474676
0.003474681
0.003474685
0.003474685
0.00347596
0.003474577
0.003474598
0.003474605
0.00347461
0.003474613
0.003475854
0.00347451
0.00347453
0.003474537
0.003474543
0.003474548
0.003475756
0.00347445
0.003474468
0.003474476
0.003474483
0.003474488
0.003475666
0.003474396
0.003474413
0.00347442
0.003474428
0.003474434
0.003475582
0.003474347
0.003474363
0.00347437
0.003474377
0.003474384
0.003475505
0.003474302
0.003474317
0.003474324
0.003474331
0.003474337
0.003475432
0.003474261
0.003474275
0.003474281
0.003474288
0.003474295
0.003475365
0.003474223
0.003474236
0.003474242
0.003474249
0.003474255
0.003475302
0.003474188
0.0034742
0.003474206
0.003474212
0.003474219
0.003475243
0.003474156
0.003474167
0.003474172
0.003474178
0.003474185
0.003475187
0.003474126
0.003474136
0.003474141
0.003474147
0.003474153
0.003607301
0.003540187
0.003541118
0.003536208
0.003530879
0.003526459
0.003483652
0.003478967
0.003479718
0.003477539
0.003476803
0.003476354
0.0034832
0.003478267
0.003477217
0.003476564
0.003476145
0.00347588
0.003478756
0.003476961
0.003476784
0.003476479
0.003476236
0.003475998
0.003478208
0.003476374
0.00347614
0.003475934
0.003475765
0.003475628
0.003477534
0.003475818
0.003475798
0.003475718
0.003475619
0.003475521
0.003477212
0.003475539
0.003475516
0.003475455
0.003475388
0.003475323
0.00347693
0.003475282
0.003475297
0.003475273
0.003475238
0.003475196
0.003476711
0.003475104
0.003475123
0.003475111
0.00347509
0.003475063
0.003476522
0.003474954
0.00347498
0.003474979
0.00347497
0.003474954
0.003476358
0.003474834
0.00347486
0.003474865
0.003474862
0.003474854
0.003476213
0.003474732
0.003474759
0.003474767
0.003474769
0.003474765
0.003476082
0.003474645
0.00347467
0.003474681
0.003474685
0.003474685
0.003475965
0.003474569
0.003474593
0.003474605
0.003474611
0.003474613
0.003475857
0.003474502
0.003474525
0.003474537
0.003474544
0.003474548
0.003475758
0.003474442
0.003474463
0.003474475
0.003474483
0.003474488
0.003475667
0.003474388
0.003474408
0.00347442
0.003474428
0.003474434
0.003475583
0.003474339
0.003474358
0.00347437
0.003474378
0.003474384
0.003475505
0.003474295
0.003474312
0.003474323
0.003474331
0.003474338
0.003475432
0.003474254
0.00347427
0.003474281
0.003474289
0.003474295
0.003475364
0.003474216
0.003474232
0.003474242
0.003474249
0.003474256
0.003475301
0.003474182
0.003474196
0.003474205
0.003474213
0.003474219
0.003475242
0.003474149
0.003474163
0.003474172
0.003474179
0.003474185
0.003475187
0.00347412
0.003474132
0.003474141
0.003474147
0.003474153
0.003602186
0.003538205
0.003539602
0.003535811
0.003531834
0.003527787
0.003483473
0.003478864
0.003479693
0.003477509
0.00347678
0.003476305
0.003483076
0.003478249
0.003477152
0.00347654
0.003476153
0.003475874
0.003478755
0.003476938
0.003476709
0.003476376
0.003476147
0.003475941
0.003478226
0.003476334
0.003476113
0.003475917
0.003475757
0.00347562
0.003477516
0.00347579
0.003475788
0.003475706
0.003475616
0.003475522
0.003477201
0.003475525
0.003475507
0.003475449
0.003475386
0.003475322
0.003476921
0.003475269
0.003475288
0.003475268
0.003475236
0.003475197
0.003476704
0.003475093
0.003475115
0.003475107
0.003475089
0.003475063
0.003476515
0.003474944
0.003474972
0.003474975
0.003474969
0.003474954
0.003476352
0.003474825
0.003474853
0.003474861
0.003474861
0.003474854
0.003476207
0.003474724
0.003474752
0.003474763
0.003474767
0.003474765
0.003476077
0.003474637
0.003474664
0.003474677
0.003474684
0.003474685
0.003475959
0.003474561
0.003474587
0.003474601
0.00347461
0.003474613
0.003475852
0.003474494
0.003474519
0.003474533
0.003474543
0.003474548
0.003475753
0.003474435
0.003474458
0.003474472
0.003474482
0.003474489
0.003475663
0.003474381
0.003474403
0.003474417
0.003474427
0.003474434
0.003475579
0.003474333
0.003474353
0.003474366
0.003474377
0.003474384
0.003475501
0.003474288
0.003474307
0.00347432
0.00347433
0.003474338
0.003475428
0.003474248
0.003474265
0.003474278
0.003474288
0.003474295
0.00347536
0.003474211
0.003474227
0.003474239
0.003474248
0.003474256
0.003475297
0.003474176
0.003474191
0.003474203
0.003474212
0.003474219
0.003475238
0.003474144
0.003474159
0.003474169
0.003474178
0.003474185
0.003475183
0.003474115
0.003474128
0.003474138
0.003474146
0.003474153
0.003604062
0.003536681
0.003539272
0.003535187
0.003530788
0.003526537
0.003483443
0.00347886
0.003479692
0.003477509
0.003476781
0.003476304
0.003482987
0.003478245
0.003477151
0.003476542
0.003476157
0.003475878
0.003478751
0.003476938
0.003476709
0.003476377
0.003476149
0.003475943
0.003478263
0.003476334
0.003476113
0.003475917
0.003475757
0.003475622
0.003477518
0.00347579
0.003475788
0.003475706
0.003475616
0.003475522
0.003477204
0.003475525
0.003475507
0.003475449
0.003475386
0.003475322
0.003476923
0.003475269
0.003475288
0.003475268
0.003475236
0.003475197
0.003476705
0.003475093
0.003475115
0.003475107
0.003475089
0.003475063
0.003476517
0.003474944
0.003474972
0.003474975
0.003474969
0.003474954
0.003476353
0.003474825
0.003474853
0.003474861
0.003474861
0.003474854
0.003476208
0.003474724
0.003474752
0.003474763
0.003474767
0.003474765
0.003476078
0.003474637
0.003474664
0.003474677
0.003474684
0.003474685
0.00347596
0.003474561
0.003474587
0.003474601
0.00347461
0.003474613
0.003475853
0.003474494
0.003474519
0.003474533
0.003474543
0.003474548
0.003475754
0.003474435
0.003474458
0.003474472
0.003474482
0.003474488
0.003475663
0.003474381
0.003474403
0.003474417
0.003474427
0.003474434
0.003475579
0.003474333
0.003474353
0.003474366
0.003474377
0.003474384
0.003475501
0.003474288
0.003474307
0.00347432
0.00347433
0.003474338
0.003475428
0.003474248
0.003474265
0.003474278
0.003474288
0.003474295
0.003475361
0.00347421
0.003474227
0.003474239
0.003474248
0.003474256
0.003475298
0.003474176
0.003474191
0.003474203
0.003474212
0.003474219
0.003475239
0.003474144
0.003474158
0.003474169
0.003474178
0.003474185
0.003475184
0.003474115
0.003474128
0.003474138
0.003474146
0.003474153
0.003606427
0.003536704
0.003538993
0.003535651
0.00353148
0.003527351
0.00348359
0.003478964
0.00347971
0.003477532
0.003476795
0.003476347
0.003482868
0.003478266
0.00347722
0.00347657
0.003476154
0.003475889
0.003478766
0.003476958
0.003476783
0.003476479
0.003476236
0.003475999
0.003478258
0.003476372
0.003476138
0.003475934
0.003475766
0.00347563
0.003477529
0.003475816
0.003475796
0.003475716
0.003475618
0.003475521
0.003477212
0.003475537
0.003475513
0.003475453
0.003475387
0.003475324
0.00347693
0.00347528
0.003475295
0.003475271
0.003475237
0.003475196
0.003476711
0.003475101
0.00347512
0.003475109
0.003475089
0.003475063
0.003476522
0.003474952
0.003474977
0.003474977
0.003474969
0.003474954
0.003476358
0.003474832
0.003474858
0.003474863
0.003474861
0.003474853
0.003476213
0.00347473
0.003474756
0.003474765
0.003474768
0.003474765
0.003476082
0.003474643
0.003474668
0.003474679
0.003474684
0.003474685
0.003475964
0.003474567
0.003474591
0.003474603
0.00347461
0.003474613
0.003475857
0.0034745
0.003474523
0.003474535
0.003474543
0.003474548
0.003475758
0.00347444
0.003474462
0.003474474
0.003474482
0.003474488
0.003475667
0.003474386
0.003474406
0.003474419
0.003474427
0.003474434
0.003475583
0.003474338
0.003474356
0.003474368
0.003474377
0.003474384
0.003475505
0.003474293
0.003474311
0.003474322
0.003474331
0.003474338
0.003475432
0.003474252
0.003474269
0.00347428
0.003474288
0.003474295
0.003475364
0.003474215
0.00347423
0.00347424
0.003474249
0.003474255
0.003475301
0.00347418
0.003474194
0.003474204
0.003474212
0.003474219
0.003475242
0.003474148
0.003474161
0.003474171
0.003474178
0.003474184
0.003475187
0.003474118
0.003474131
0.003474139
0.003474146
0.003474153
0.003602054
0.003537823
0.003539306
0.003536334
0.003532243
0.00352798
0.003483944
0.003479284
0.003479508
0.00347751
0.00347679
0.003476341
0.003482554
0.003478288
0.003477234
0.00347661
0.003476203
0.003475941
0.003478798
0.003476994
0.003476841
0.003476524
0.003476253
0.003476024
0.003478285
0.003476394
0.003476157
0.00347595
0.00347578
0.003475644
0.003477532
0.003475842
0.003475816
0.003475716
0.003475626
0.003475524
0.003477211
0.003475543
0.003475519
0.003475457
0.003475392
0.003475329
0.00347693
0.003475287
0.003475301
0.003475273
0.003475238
0.003475197
0.003476711
0.003475107
0.003475125
0.003475111
0.00347509
0.003475065
0.003476522
0.003474958
0.003474982
0.003474978
0.003474969
0.003474954
0.003476358
0.003474838
0.003474862
0.003474864
0.003474861
0.003474854
0.003476213
0.003474737
0.00347476
0.003474765
0.003474767
0.003474765
0.003476083
0.00347465
0.003474672
0.003474679
0.003474684
0.003474685
0.003475966
0.003474574
0.003474595
0.003474603
0.003474609
0.003474613
0.003475858
0.003474507
0.003474526
0.003474535
0.003474542
0.003474548
0.003475759
0.003474447
0.003474465
0.003474474
0.003474482
0.003474488
0.003475668
0.003474393
0.003474409
0.003474418
0.003474427
0.003474433
0.003475584
0.003474344
0.003474359
0.003474368
0.003474376
0.003474383
0.003475506
0.003474299
0.003474313
0.003474322
0.00347433
0.003474337
0.003475433
0.003474258
0.003474271
0.003474279
0.003474287
0.003474295
0.003475365
0.003474221
0.003474233
0.00347424
0.003474248
0.003474255
0.003475301
0.003474186
0.003474197
0.003474204
0.003474212
0.003474219
0.003475242
0.003474154
0.003474164
0.00347417
0.003474178
0.003474184
0.003475187
0.003474124
0.003474133
0.003474139
0.003474146
0.003474153
0.003582739
0.003541775
0.003542656
0.00353829
0.003533361
0.003528752
0.003484783
0.003480028
0.003479462
0.003477598
0.003476866
0.003476434
0.003482252
0.00347834
0.003477277
0.00347663
0.003476263
0.003476007
0.003479057
0.003477093
0.003476817
0.00347647
0.00347623
0.00347601
0.003478457
0.003476429
0.003476176
0.003475961
0.003475802
0.003475662
0.003477716
0.003475877
0.003475822
0.003475721
0.003475637
0.003475542
0.003477369
0.003475566
0.003475526
0.003475467
0.003475411
0.003475349
0.003477069
0.003475308
0.003475307
0.003475282
0.003475255
0.003475216
0.003476834
0.003475125
0.003475131
0.003475121
0.003475108
0.003475084
0.003476633
0.003474974
0.003474988
0.003474989
0.003474986
0.003474973
0.00347646
0.003474852
0.003474869
0.003474875
0.003474879
0.003474873
0.003476307
0.003474749
0.003474767
0.003474777
0.003474784
0.003474784
0.00347617
0.003474661
0.003474679
0.003474691
0.003474701
0.003474703
0.003476047
0.003474584
0.003474601
0.003474615
0.003474626
0.003474631
0.003475935
0.003474516
0.003474533
0.003474547
0.003474559
0.003474565
0.003475832
0.003474456
0.003474472
0.003474486
0.003474498
0.003474505
0.003475737
0.003474401
0.003474417
0.00347443
0.003474443
0.003474451
0.003475649
0.003474352
0.003474366
0.00347438
0.003474392
0.0034744
0.003475568
0.003474307
0.00347432
0.003474334
0.003474346
0.003474354
0.003475492
0.003474266
0.003474278
0.003474291
0.003474303
0.003474311
0.003475422
0.003474228
0.00347424
0.003474252
0.003474263
0.003474271
0.003475356
0.003474193
0.003474204
0.003474216
0.003474226
0.003474234
0.003475295
0.003474161
0.003474171
0.003474182
0.003474192
0.003474199
0.003475356
0.003474131
0.00347414
0.003474151
0.00347416
0.003474167
0.004584839
0.004252838
0.00411558
0.004023926
0.003957718
0.003906207
0.003504119
0.003486117
0.003483834
0.003482193
0.003481397
0.003480971
0.003480716
0.003495373
0.003484418
0.00348226
0.003481194
0.003480561
0.003480144
0.003479839
0.00348915
0.003480368
0.003480139
0.003479536
0.003479159
0.003478887
0.003478685
0.003487469
0.003479466
0.003479327
0.003479019
0.003478786
0.003478605
0.003478454
0.003486111
0.003478398
0.003478535
0.003478384
0.003478263
0.003478154
0.003478063
0.003485202
0.003477902
0.003478045
0.003477971
0.003477913
0.003477853
0.003477798
0.003484447
0.003477448
0.003477633
0.003477604
0.003477587
0.003477565
0.00347754
0.003483834
0.003477129
0.003477316
0.003477311
0.003477317
0.003477318
0.003477314
0.003483304
0.003476863
0.003477048
0.003477059
0.003477079
0.003477095
0.003477108
0.003482843
0.003476645
0.003476823
0.003476842
0.003476871
0.003476897
0.003476921
0.003482433
0.003476459
0.00347663
0.003476652
0.003476686
0.003476718
0.00347675
0.003482064
0.003476298
0.00347646
0.003476485
0.003476522
0.003476557
0.003476594
0.003481728
0.003476157
0.003476308
0.003476336
0.003476373
0.003476411
0.00347645
0.003481419
0.003476031
0.003476172
0.003476202
0.003476239
0.003476277
0.003476319
0.003481134
0.003475918
0.003476049
0.003476081
0.003476117
0.003476155
0.003476198
0.003480871
0.003475816
0.003475937
0.003475973
0.003476004
0.003476043
0.003476086
0.003480625
0.003475723
0.003475834
0.003475867
0.003475901
0.003475939
0.003475982
0.003480397
0.003475637
0.003475739
0.003475772
0.003475807
0.003475843
0.003475886
0.003480183
0.003475559
0.003475652
0.003475684
0.00347572
0.003475753
0.003475796
0.003479983
0.003475486
0.003475572
0.003475602
0.003475639
0.003475671
0.003475712
0.003479796
0.003475418
0.003475497
0.003475527
0.003475563
0.003475594
0.003475634
0.003479619
0.003475356
0.003475428
0.003475457
0.003475493
0.003475522
0.003475561
0.003479416
0.003733487
0.003475364
0.003475392
0.003475427
0.003475455
0.003475493
0.003890595
0.004723298
0.003515674
0.003502501
0.003852328
0.003851708
0.003503489
0.003489232
0.003495851
0.003488019
0.003837464
0.003833265
0.003494478
0.003484908
0.003489615
0.003481931
0.00382145
0.003819157
0.003488343
0.003480429
0.003487301
0.003479889
0.003807848
0.003806817
0.003486684
0.0034792
0.003485883
0.00347866
0.00379714
0.00379681
0.003485336
0.003478172
0.003484924
0.003477967
0.003788038
0.003788193
0.003484469
0.003477647
0.00348419
0.00347746
0.003780324
0.003780767
0.003483749
0.003477206
0.003483588
0.00347709
0.003773575
0.00377421
0.003483167
0.003476895
0.003483074
0.003476798
0.003767615
0.003768377
0.003482666
0.003476637
0.003482625
0.003476561
0.003762278
0.003763132
0.00348223
0.003476426
0.003482224
0.003476361
0.003757461
0.003758376
0.003481843
0.003476245
0.003481863
0.003476189
0.003753077
0.003754035
0.003481494
0.003476089
0.003481536
0.003476038
0.003749064
0.00375005
0.003481177
0.003475951
0.003481237
0.003475904
0.003745372
0.003746371
0.003480887
0.003475827
0.003480961
0.003475785
0.003741965
0.003742961
0.003480618
0.003475717
0.003480707
0.003475676
0.003738803
0.00373979
0.00348037
0.003475616
0.00348047
0.003475578
0.003735861
0.003736836
0.003480139
0.003475524
0.00348025
0.003475488
0.003733119
0.00373408
0.003479924
0.00347544
0.003480044
0.003475405
0.003730558
0.003731505
0.003479724
0.003475362
0.003479851
0.003475328
0.003728164
0.003729095
0.003479536
0.00347529
0.00347967
0.003475258
0.003725923
0.003726836
0.00347936
0.003475223
0.0034795
0.003475192
0.003723822
0.003724715
0.003479195
0.003475161
0.00347934
0.003475131
0.003721907
0.003479222
0.003479404
0.003475103
0.003478858
0.003474613
0.0049704
0.00350799
0.003497747
0.004911561
0.003504221
0.003498102
0.005041604
0.003504568
0.00350162
0.004857153
0.003504555
0.003501888
0.005060738
0.003504967
0.00350276
0.004831451
0.003505182
0.003502502
0.005071369
0.003505066
0.003502439
0.005000295
0.003506053
0.003503359
0.004828256
0.003504929
0.003502594
0.005072371
0.00350567
0.003502604
0.00483803
0.003504565
0.003502721
0.005064475
0.003505631
0.003502724
0.004855974
0.003503993
0.003501906
0.005037657
0.003505441
0.003501601
0.004912486
0.003503453
0.003498135
0.004969331
0.003508441
0.00349775
0.004727673
0.003514941
0.003502509
0.003890595
0.003483246
0.003816556
0.003483981
0.003489595
0.003481914
0.003836997
0.003833248
0.003474691
0.003479334
0.003475131
0.003723885
0.00372472
0.003475103
0.003478816
0.003475076
0.003721917
0.003479184
0.003916369
0.004167433
0.003881739
0.003876114
0.004585789
0.004273134
0.003496732
0.003490403
0.00386623
0.003858979
0.004252913
0.004111926
0.003488509
0.003486834
0.003847761
0.003846125
0.004115634
0.004013379
0.003486322
0.00348466
0.00383504
0.003835885
0.00402395
0.003943732
0.003484875
0.003483148
0.003824988
0.003827486
0.003957744
0.003890359
0.003483942
0.003482269
0.003816573
0.00390623
0.00348324
0.003501417
0.004022676
0.003513431
0.00400619
0.003490901
0.003975479
0.003494468
0.003965459
0.003486502
0.00393947
0.003488009
0.003933301
0.003484494
0.003910377
0.003485508
0.003906312
0.003483087
0.003886957
0.003483783
0.003884244
0.003482122
0.00386677
0.003482677
0.00386501
0.003481415
0.003849113
0.003481816
0.003848204
0.00348081
0.00383382
0.003481138
0.003833534
0.003480309
0.00382032
0.00348058
0.003820509
0.003479893
0.003808408
0.003480119
0.003808813
0.00347954
0.003797786
0.003479729
0.003798222
0.00347923
0.003788156
0.00347939
0.003788564
0.00347895
0.003779318
0.003479091
0.003779701
0.003478698
0.003771178
0.003478822
0.003771523
0.003478469
0.003763651
0.003478578
0.003763947
0.003478262
0.003756661
0.003478358
0.003756908
0.003478071
0.003750147
0.003478156
0.00375035
0.003477897
0.003744065
0.003477972
0.003744225
0.003477735
0.003738375
0.003477801
0.003738494
0.003477585
0.003733047
0.003477644
0.003733132
0.003477446
0.003728066
0.003477499
0.003728124
0.003477317
0.003723396
0.003477364
0.003723433
0.003477195
0.003719017
0.003477237
0.003719011
0.003943705
0.003928401
0.003929643
0.003918674
0.00393398
0.003925736
0.003937101
0.003931078
0.003927169
0.003937165
0.003927379
0.003934526
0.003927575
0.003935553
0.003928319
0.003933838
0.00389125
0.003923185
0.004275727
0.00349673
0.003490408
0.003881734
0.003876123
0.004113528
0.003488506
0.003486835
0.003866233
0.003858982
0.00401453
0.003486319
0.003484661
0.00384776
0.003846124
0.003944599
0.003484873
0.003483153
0.003835038
0.003835882
0.003890996
0.003483856
0.003481336
0.003824987
0.00382797
0.003488025
0.003495837
0.003487995
0.003851988
0.003851685
0.00347938
0.003487298
0.003479878
0.003821226
0.00381914
0.003478221
0.00348588
0.003478652
0.003807682
0.003806807
0.003477249
0.003484918
0.003477961
0.003797015
0.003796796
0.003476775
0.003484182
0.003477455
0.003787943
0.003788182
0.003476377
0.003483581
0.003477086
0.003780259
0.00378076
0.003476105
0.003483067
0.003476795
0.003773532
0.003774203
0.003475883
0.003482618
0.003476558
0.003767585
0.003768367
0.003475704
0.003482217
0.003476359
0.003762263
0.003763121
0.003475552
0.003481856
0.003476187
0.003757454
0.003758369
0.003475423
0.003481529
0.003476036
0.003753086
0.003754031
0.003475309
0.00348123
0.003475903
0.003749081
0.003750047
0.003475209
0.003480955
0.003475783
0.003745397
0.003746367
0.003475119
0.0034807
0.003475675
0.003741992
0.003742954
0.003475038
0.003480464
0.003475577
0.003738836
0.003739787
0.003474965
0.003480243
0.003475486
0.003735899
0.003736829
0.003474898
0.003480037
0.003475404
0.00373316
0.003734077
0.003474836
0.003479844
0.003475327
0.003730603
0.003731501
0.003474779
0.003479663
0.003475257
0.003728213
0.003729096
0.003474727
0.003479493
0.00347519
0.003725978
0.003726836
0.00376993
0.004112365
0.003757302
0.004144075
0.003526668
0.004050931
0.003517157
0.004056183
0.003890014
0.003925963
0.003495942
0.003992199
0.003496141
0.004000052
0.003488985
0.003953634
0.003489084
0.003959574
0.003485747
0.003923127
0.003486213
0.003927229
0.00348403
0.003898015
0.003484232
0.003900884
0.003482828
0.003877047
0.003482962
0.003879182
0.003481958
0.003858702
0.003482014
0.003860141
0.003481275
0.003842798
0.003481307
0.003843716
0.003480711
0.003828798
0.003480719
0.003829347
0.003480238
0.003816333
0.003480226
0.003816634
0.00347984
0.003805155
0.003479806
0.003805239
0.003479494
0.003794973
0.003479444
0.003794843
0.003479188
0.003785663
0.003479128
0.003785367
0.003478914
0.003777068
0.003478851
0.003776681
0.003478666
0.003769104
0.0034786
0.003768642
0.003478441
0.003761724
0.003478373
0.003761233
0.003478236
0.003754841
0.003478164
0.003754361
0.003478048
0.003748421
0.003477974
0.003747951
0.003477874
0.003742417
0.0034778
0.003741969
0.003477714
0.003736796
0.003477639
0.003736367
0.003477566
0.003731538
0.003477491
0.003731137
0.003477429
0.003726629
0.003477354
0.003726256
0.0034773
0.003722019
0.003477227
0.003721685
0.003477173
0.003487449
0.003717392
0.003476342
0.003928391
0.003934569
0.003927793
0.003934921
0.003931281
0.003936249
0.003930227
0.003936491
0.003935739
0.00392962
0.003937877
0.00392946
0.003932087
0.003922042
0.003941218
0.003926975
0.003917558
0.004167342
0.003770286
0.004112342
0.003757467
0.004143971
0.003526731
0.0040509
0.003517121
0.004056239
0.003566267
0.003916209
0.003570442
0.003490858
0.003975442
0.003494465
0.003965471
0.003477311
0.003723409
0.003477359
0.003723446
0.0034773
0.003722043
0.003477232
0.003721699
0.003477195
0.003719034
0.003477221
0.003719035
0.003477178
0.00371771
0.003717421
0.003476344
0.003479236
0.003478974
0.003479242
0.003475052
0.003475053
0.003478907
0.003487183
0.00347635
0.003714952
0.003476346
0.005865439
0.003945201
0.004097076
0.003709904
0.003706369
0.004071695
0.003649505
0.004031963
0.003651532
0.004020291
0.003616684
0.003989859
0.003620955
0.003985079
0.003594668
0.003959555
0.003598923
0.003958039
0.003578741
0.003935798
0.003582854
0.003936482
0.003566255
0.00391629
0.003570445
0.003918674
0.003532837
0.004071613
0.003547792
0.004062332
0.003513262
0.004000089
0.003519791
0.00399935
0.003505205
0.003953269
0.003508487
0.003953305
0.003501163
0.003918374
0.003502761
0.003918917
0.00349806
0.003891747
0.003498795
0.003891871
0.003495824
0.003870076
0.003496063
0.003869539
0.0034941
0.003851862
0.003493778
0.003850331
0.003492663
0.003835972
0.003492159
0.003834308
0.003491436
0.003821988
0.003490877
0.003820324
0.003490373
0.003809516
0.003489797
0.003807963
0.003489441
0.003798283
0.003488867
0.003796861
0.003488615
0.003788096
0.003488044
0.003786815
0.003487874
0.003778808
0.003487306
0.003777664
0.003487198
0.003770302
0.003486645
0.003769289
0.00348657
0.00376247
0.003486048
0.003761592
0.003485994
0.003755238
0.003485509
0.003754467
0.003485471
0.00374855
0.003485017
0.003747845
0.003484992
0.003742339
0.003484567
0.003741679
0.003484553
0.003736549
0.003484154
0.003735939
0.003484148
0.003731146
0.003483773
0.003730577
0.003483777
0.003726098
0.003483422
0.003725566
0.003483433
0.003721371
0.003483098
0.003720874
0.003483115
0.003716941
0.003482797
0.003716473
0.00582873
0.005817347
0.005844373
0.00593396
0.005876785
0.005863466
0.005879664
0.005866222
0.005889392
0.005863701
0.00586543
0.005850477
0.005830114
0.005839405
0.005807173
0.005810973
0.005758451
0.005716429
0.005095521
0.003825665
0.005106185
0.003827727
0.0035432
0.00410092
0.003539273
0.004104488
0.005737904
0.005731834
0.003516771
0.004024566
0.003520054
0.004019647
0.003507753
0.00397144
0.003510753
0.003966543
0.003502769
0.003933312
0.00350503
0.003929141
0.003499263
0.003903547
0.003500991
0.003900148
0.00349674
0.003879591
0.003498064
0.003876897
0.003494766
0.003859393
0.003495798
0.003857492
0.003493164
0.003842295
0.003493972
0.003840869
0.003491816
0.003827411
0.003492464
0.003826129
0.003490656
0.003814241
0.0034912
0.003813095
0.003489643
0.00380245
0.003490103
0.003801447
0.003488759
0.003791826
0.003489143
0.003790926
0.003487977
0.003782183
0.003488295
0.003781375
0.003487276
0.003773369
0.003487541
0.003772651
0.003486639
0.003765281
0.003486863
0.003764653
0.003486057
0.003757865
0.003486252
0.003757252
0.003485526
0.003750982
0.003485698
0.003750403
0.003485045
0.003744591
0.003485192
0.003744044
0.003484604
0.003738643
0.00348473
0.00373812
0.003484199
0.003733098
0.003484307
0.003732601
0.003483827
0.003727923
0.003483916
0.003727441
0.003483483
0.003723082
0.003483557
0.003722616
0.003483165
0.003718548
0.003483225
0.003718093
0.003481324
0.003713948
0.003482809
0.003713842
0.005840652
0.005833106
0.005834524
0.005824411
0.005859768
0.005841904
0.005865492
0.005847829
0.005850397
0.005888535
0.00592624
0.005898653
0.005900537
0.005851984
0.005824501
0.005808136
0.005871199
0.003937196
0.005095728
0.003825647
0.005106308
0.003827708
0.003543164
0.004100856
0.003539278
0.004104484
0.003915828
0.003774807
0.003974613
0.003775385
0.003513264
0.00400009
0.003519797
0.003999351
0.003488984
0.003953596
0.00348909
0.003959574
0.003483167
0.003718575
0.003483248
0.003718113
0.003483114
0.003716957
0.003716496
0.003482769
0.003714319
0.003483044
0.003482817
0.003713875
0.005622821
0.003851973
0.005541538
0.003859225
0.004116737
0.00417191
0.003582769
0.004155962
0.00571639
0.005785289
0.003681713
0.004049667
0.003686173
0.004062462
0.003640905
0.00400648
0.003649872
0.004011507
0.003613053
0.003975791
0.003622869
0.00397666
0.00359331
0.00395176
0.003602799
0.003949731
0.00357855
0.003932123
0.00358755
0.003928011
0.003524464
0.00405533
0.003524632
0.004054569
0.003510863
0.003993312
0.003512976
0.003987884
0.003504548
0.00394956
0.003506066
0.003944632
0.003500647
0.003916291
0.003501652
0.003912271
0.003497809
0.003890004
0.003498517
0.003886643
0.003495655
0.003868184
0.003496157
0.003865598
0.00349394
0.00384976
0.003494279
0.003847761
0.003492477
0.003833845
0.003492748
0.003832293
0.003491217
0.003819899
0.003491463
0.003818668
0.003490129
0.003807537
0.003490362
0.003806451
0.003489185
0.003796463
0.003489403
0.003795472
0.003488351
0.003786428
0.003488545