/*--------------------------------*- C++ -*----------------------------------*\
  =========                 |
  \\      /  F ield         | OpenFOAM: The Open Source CFD Toolbox
   \\    /   O peration     | Website:  https://openfoam.org
    \\  /    A nd           | Version:  7
     \\/     M anipulation  |
\*---------------------------------------------------------------------------*/
FoamFile
{
    version     2.0;
    format      ascii;
    class       volScalarField;
    location    "0.08";
    object      p;
}
// * * * * * * * * * * * * * * * * * * * * * * * * * * * * * * * * * * * * * //

dimensions      [0 2 -2 0 0 0 0];

internalField   nonuniform List<scalar> 
109929
(
0.1752893
0.2220117
0.2498246
0.2697862
0.2852127
0.2976292
0.1274233
0.1579813
0.1881943
0.2097299
0.2261711
0.2394344
0.1136226
0.1676854
0.2148261
0.243556
0.2666413
0.2842652
0.09050685
0.1356446
0.1723696
0.1988663
0.2204988
0.2374979
0.08083476
0.1339034
0.1774632
0.206269
0.2301992
0.2490454
0.06898125
0.1152519
0.1547571
0.1821696
0.2054737
0.2244162
0.06253964
0.1101671
0.1505175
0.1781344
0.2012481
0.2209508
0.05554782
0.1003824
0.1392862
0.1657075
0.1882743
0.207755
0.05119754
0.09420559
0.1330234
0.1587652
0.180841
0.2001978
0.04745745
0.08841427
0.125633
0.15054
0.1720793
0.191181
0.04466568
0.08411707
0.1197029
0.1438138
0.1648023
0.1837098
0.0423786
0.08036398
0.1141479
0.1374773
0.1579036
0.176517
0.04048768
0.07718409
0.1092474
0.1318944
0.1517442
0.1699932
0.0388881
0.07431047
0.1046737
0.1269742
0.1461985
0.1639659
0.03735468
0.07157751
0.1005532
0.1227878
0.1413028
0.1585131
0.03574146
0.06891257
0.09752567
0.1193485
0.1370426
0.1535743
0.03433584
0.0663367
0.09767973
0.1164051
0.1332415
0.1490662
0.03326314
0.06425652
0.09505503
0.1133442
0.1296294
0.1448791
0.03232427
0.06237193
0.09250196
0.1103921
0.1261791
0.1409503
0.03140633
0.06059544
0.09006516
0.1076398
0.1229053
0.1372689
0.03051023
0.05895559
0.0877602
0.1050542
0.1198152
0.1338365
0.02966927
0.05745631
0.08558937
0.1026284
0.116938
0.1306624
0.01497978
0.0560987
0.08357058
0.1003702
0.114338
0.1277882
0.4346916
0.3885933
0.390618
0.3968856
0.4045657
0.414497
0.08336376
0.2088026
0.2261726
0.2627799
0.2852159
0.3062026
0.0465834
0.1223625
0.1340265
0.1526466
0.1627804
0.1747531
0.02619129
0.141909
0.1780157
0.2312647
0.253887
0.2803111
0.02340863
0.08883325
0.1152516
0.1469824
0.1644133
0.1839017
0.01865935
0.09830243
0.1350821
0.1839025
0.2108752
0.2392948
0.01665305
0.07246184
0.1013542
0.138596
0.1619481
0.1861594
0.01438682
0.07397821
0.1053041
0.1460298
0.1726424
0.1999566
0.0130589
0.06215031
0.08959187
0.124959
0.1502598
0.1760057
0.01182034
0.05975042
0.08672348
0.1214046
0.1469464
0.1730811
0.01111184
0.05418107
0.07892344
0.1112241
0.1357117
0.1610177
0.01062558
0.0512133
0.07463137
0.1056193
0.1294404
0.1542654
0.01024792
0.04792066
0.06980283
0.09928787
0.1222128
0.1463094
0.009961075
0.04536408
0.06598142
0.09424947
0.1163503
0.1397675
0.009723781
0.04311226
0.06247277
0.089755
0.1107706
0.1335887
0.009472884
0.04136476
0.05937527
0.08589331
0.1055978
0.1280351
0.00922823
0.03958037
0.05653696
0.08252381
0.1007102
0.1228984
0.008992204
0.03769652
0.05387579
0.07873426
0.09626186
0.118086
0.00874945
0.03611816
0.05159463
0.07582937
0.09238781
0.113762
0.008511515
0.03470346
0.04951023
0.07305616
0.08900523
0.1098192
0.0082855
0.03343814
0.04763692
0.07054748
0.08599538
0.1062044
0.008062031
0.03226743
0.04591806
0.06820433
0.08322858
0.1028424
0.007849362
0.03121111
0.04438037
0.066039
0.08083943
0.09967477
0.01312434
0.03023328
0.04295254
0.06392963
0.07851875
0.09658688
0.4868815
0.3964683
0.3848085
0.377142
0.3752815
0.3852237
0.1436762
0.2151644
0.2142754
0.2680553
0.2832586
0.3138274
0.07251431
0.1348879
0.1449787
0.1623741
0.1724959
0.181402
0.03366901
0.1414595
0.1771235
0.2313643
0.2587026
0.284639
0.02945384
0.08888593
0.1192382
0.1477236
0.1682641
0.1867968
0.02039673
0.09437967
0.1368072
0.1815836
0.2119658
0.2376892
0.0181113
0.06730338
0.1020065
0.1344116
0.1601174
0.1827179
0.01530249
0.06929704
0.1067184
0.1441188
0.1728761
0.1976617
0.01385986
0.05686222
0.08954745
0.1221094
0.1485255
0.1722157
0.01263199
0.0552342
0.08726553
0.1200858
0.1466457
0.1703965
0.01171294
0.0495824
0.07900454
0.1094456
0.1347652
0.1577778
0.01094196
0.04698219
0.07506229
0.1043594
0.1290184
0.1515627
0.01028604
0.04379256
0.07020046
0.09797382
0.121719
0.1435966
0.009715132
0.04140056
0.06651672
0.09307341
0.1160646
0.1373558
0.009221268
0.03917021
0.06302363
0.08838772
0.1106719
0.1313263
0.008788051
0.03728903
0.05996976
0.08424096
0.1059784
0.1259965
0.008390342
0.03556893
0.05718031
0.080485
0.1017874
0.1211427
0.008014195
0.03396241
0.05462911
0.07709939
0.0980332
0.1167534
0.007663673
0.03251247
0.05237751
0.07399503
0.09456665
0.1126927
0.007340161
0.03119997
0.05034783
0.07118958
0.09132927
0.1089041
0.007042294
0.03001358
0.0485039
0.06864801
0.08830848
0.1053868
0.006767333
0.02892621
0.04681204
0.06631083
0.08549972
0.1021302
0.006512293
0.02792863
0.0452592
0.06415315
0.08286213
0.0991366
0.006279878
0.02699754
0.04382009
0.06212784
0.08034804
0.09642129
0.5092066
0.403231
0.3826585
0.3592311
0.346977
0.3538998
0.1492194
0.240693
0.2455698
0.2819152
0.3006997
0.324548
0.07027285
0.1207135
0.1349916
0.1488047
0.1580667
0.1691776
0.03100699
0.1507796
0.1891343
0.2486554
0.2748432
0.3019256
0.0235347
0.08229859
0.1098256
0.1348482
0.1528521
0.1712057
0.01774192
0.1004247
0.1424141
0.1923737
0.2213659
0.2496439
0.01479705
0.06634641
0.09813288
0.1303529
0.1539019
0.1773916
0.01320572
0.07270998
0.1088924
0.1485494
0.1762711
0.203003
0.01159689
0.05778028
0.08871543
0.1215221
0.1467513
0.1717081
0.01067355
0.05707968
0.08815366
0.1216124
0.147409
0.172765
0.00970439
0.05068591
0.07908498
0.1097609
0.1342443
0.1587174
0.009004837
0.04810969
0.07536068
0.1050325
0.1289704
0.1529922
0.008363562
0.04469563
0.0703147
0.09839238
0.1213919
0.1446911
0.007832323
0.04224238
0.06663078
0.09351823
0.1157619
0.1384167
0.007365086
0.0399162
0.06309041
0.08880171
0.1102497
0.1322277
0.006958218
0.03792942
0.0600308
0.08470871
0.1054161
0.1267591
0.006594895
0.03613301
0.05725672
0.08098992
0.1009821
0.1217111
0.006265813
0.03450943
0.05473786
0.07756996
0.0969398
0.1170965
0.005970163
0.03306633
0.05248404
0.07453486
0.09325155
0.1128653
0.005703344
0.03175893
0.05043808
0.07175812
0.08987796
0.1089674
0.005462062
0.03057383
0.04858183
0.06922683
0.08679278
0.105373
0.005243008
0.02948627
0.04688036
0.06688991
0.08394866
0.1020402
0.00504455
0.02849189
0.04532395
0.06474257
0.08134375
0.09895425
0.004863834
0.02756788
0.04388177
0.06272991
0.07891217
0.09606929
0.5148155
0.3854833
0.3765063
0.3677025
0.3675199
0.3790617
0.1526664
0.2276824
0.2418638
0.3009514
0.3125892
0.3429845
0.08945193
0.1235377
0.1316028
0.1374992
0.1538716
0.1572469
0.03188624
0.14773
0.1850702
0.2431917
0.2772519
0.3001784
0.02276446
0.08095789
0.1088133
0.1321148
0.1514431
0.1677422
0.01739518
0.09864855
0.1428172
0.1903306
0.222257
0.2489579
0.01430808
0.06449273
0.09782794
0.1281418
0.1527661
0.1751663
0.01289513
0.07139598
0.1097652
0.1476545
0.1768336
0.2024727
0.01125639
0.05626358
0.08883212
0.1200083
0.1461416
0.1702221
0.01037595
0.05593226
0.08873862
0.1208063
0.1475609
0.1720545
0.009392464
0.04947431
0.07939136
0.1087238
0.1340346
0.1576883
0.008698856
0.04704559
0.07581459
0.1042407
0.1289973
0.1522382
0.008053838
0.04365333
0.07070219
0.09758968
0.1213744
0.1439191
0.007522671
0.04126311
0.06704182
0.09280086
0.1158023
0.1377459
0.00705248
0.03897216
0.06348919
0.08811246
0.1103043
0.1315997
0.006642606
0.03701805
0.06042751
0.08405213
0.1055087
0.1261881
0.0062787
0.0352509
0.05764507
0.08035067
0.1011126
0.1211881
0.00595346
0.03366221
0.05513569
0.07699567
0.09712718
0.1166277
0.005662327
0.03223249
0.05287261
0.07395348
0.09348399
0.1124376
0.005400475
0.03093812
0.05081816
0.07118204
0.0901419
0.1085841
0.005164365
0.02976522
0.04894697
0.06865775
0.08705932
0.1050291
0.004950466
0.02869262
0.04722933
0.06634298
0.08422095
0.1017605
0.004757592
0.02771618
0.04564525
0.06422792
0.08156536
0.09874218
0.004579287
0.02680927
0.04418102
0.0622604
0.07913235
0.09597255
0.5250783
0.3024791
0.3172591
0.3295044
0.3430268
0.3560569
0.1524248
0.2405893
0.2469286
0.3028456
0.3131677
0.3432313
0.09259535
0.1214549
0.1314283
0.1374371
0.1539327
0.1572922
0.03210425
0.1486066
0.1855597
0.2432887
0.2773152
0.3001785
0.022752
0.08094638
0.1088849
0.1321631
0.1514792
0.1677606
0.01717818
0.09871242
0.1428567
0.1903523
0.2222713
0.2489666
0.01413248
0.06450779
0.09784252
0.1281534
0.1527745
0.1751717
0.01275801
0.07140265
0.1097715
0.1476599
0.176838
0.2024769
0.01113457
0.0562663
0.08883522
0.120011
0.1461441
0.1702238
0.01026229
0.05593339
0.08874021
0.1208077
0.147562
0.1720559
0.009282286
0.04947504
0.07939245
0.1087245
0.1340351
0.1576879
0.008593526
0.04704585
0.07581523
0.104241
0.1289972
0.1522383
0.007951455
0.04365354
0.07070279
0.09758974
0.1213744
0.1439179
0.007423433
0.04126318
0.06704219
0.09280086
0.1158016
0.1377452
0.006956561
0.03897247
0.06348977
0.08811243
0.1103038
0.1315975
0.006549748
0.03701846
0.06042811
0.08405214
0.1055075
0.1261858
0.006187996
0.03525191
0.05764623
0.08035075
0.1011114
0.1211837
0.005864864
0.03366363
0.05513725
0.07699533
0.09712577
0.1166206
0.005575711
0.03223478
0.05287505
0.07395202
0.09348317
0.112426
0.00531572
0.03094039
0.05082118
0.07117543
0.09014042
0.108558
0.005080819
0.02976651
0.0489504
0.0686417
0.0870617
0.1049848
0.004866184
0.02869026
0.04723395
0.06630614
0.08422044
0.1016697
0.004671035
0.02770253
0.04564709
0.06414526
0.08157909
0.09857941
0.004490898
0.02678484
0.04419155
0.0621388
0.07914183
0.09570107
0.5212725
0.2749815
0.2946382
0.3152512
0.333564
0.3480503
0.1544511
0.2412259
0.2461444
0.2819676
0.3004988
0.3245033
0.09268904
0.120294
0.1350901
0.149233
0.1581802
0.1693371
0.03259836
0.1507623
0.189261
0.2487312
0.2748798
0.3019546
0.02322917
0.08228407
0.1098703
0.1349151
0.1528932
0.1712337
0.01738449
0.1004236
0.1424411
0.1923955
0.2213852
0.2496557
0.01443475
0.06635186
0.0981459
0.1303655
0.1539133
0.1773984
0.01296895
0.07271278
0.1089
0.1485561
0.1762775
0.2030071
0.01131997
0.05778239
0.08871882
0.1215255
0.1467544
0.1717096
0.01041893
0.05708083
0.08815523
0.1216142
0.1474102
0.1727652
0.009435775
0.05068622
0.0790853
0.1097614
0.1342441
0.1587154
0.008736244
0.04810956
0.07536044
0.1050328
0.1289704
0.1529922
0.008088335
0.04469492
0.07031399
0.09839252
0.1213923
0.1446925
0.007553173
0.04224161
0.06662999
0.09351851
0.1157625
0.1384187
0.007081356
0.03991511
0.06308924
0.08880199
0.1102505
0.1322309
0.006670653
0.03792869
0.0600297
0.0847095
0.1054172
0.1267633
0.006305835
0.03613184
0.05725495
0.08099138
0.1009824
0.1217165
0.005978577
0.03450854
0.05473554
0.07757375
0.09694045
0.1171092
0.005686064
0.03306568
0.05247956
0.07454338
0.09324873
0.1128887
0.00542269
0.03175927
0.05042965
0.07177598
0.08987288
0.1090146
0.00518459
0.03057983
0.04856525
0.06926798
0.08676072
0.1054516
0.004967001
0.02949764
0.04685296
0.0669638
0.08391403
0.1021901
0.004767791
0.02853211
0.04526619
0.06491168
0.08119702
0.09921319
0.004581142
0.02762459
0.04381325
0.06299104
0.07880433
0.09656431
0.499808
0.2555262
0.2841403
0.323202
0.3425554
0.3563266
0.1503316
0.2153614
0.2147536
0.2685626
0.2835131
0.3139696
0.09395491
0.1349135
0.1450693
0.1625012
0.1725759
0.1814383
0.03243665
0.1415631
0.1772049
0.231466
0.2587691
0.2846804
0.02385996
0.08890592
0.1192865
0.1477707
0.1683057
0.186824
0.01693132
0.09439856
0.1368324
0.1816125
0.2119916
0.2377083
0.01441659
0.06731139
0.1020219
0.1344276
0.160133
0.1827297
0.01269738
0.0693022
0.106728
0.1441286
0.172886
0.1976706
0.01117854
0.05686506
0.08955378
0.1221147
0.1485313
0.1722202
0.01020554
0.05523555
0.08726924
0.1200888
0.1466486
0.1703969
0.009253266
0.04958273
0.07900629
0.1094466
0.1347646
0.1577632
0.008544734
0.04698138
0.07506302
0.1043598
0.1290188
0.1515611
0.007897732
0.0437908
0.0702008
0.09797374
0.1217194
0.1435961
0.007359145
0.04139833
0.06651655
0.09307331
0.116065
0.1373557
0.006890164
0.03916834
0.06302396
0.08838803
0.110672
0.1313263
0.006486211
0.03728803
0.05997031
0.08424206
0.1059778
0.1259957
0.006130232
0.0355686
0.05718152
0.08048675
0.1017849
0.1211333
0.005808409
0.03396312
0.05462992
0.07710108
0.09803068
0.1167438
0.005520086
0.03251414
0.0523778
0.07399541
0.09456542
0.1126868
0.005260881
0.03120131
0.0503459
0.07118359
0.09132598
0.1088882
0.00502784
0.03001264
0.04849585
0.0686276
0.0882955
0.105342
0.004816252
0.02891978
0.0467991
0.06626846
0.08546175
0.1019944
0.004621403
0.02790409
0.04521597
0.0640489
0.08277277
0.09885349
0.004441596
0.02696148
0.04377933
0.06201421
0.08021694
0.09594626
0.4394958
0.2512443
0.2764103
0.3003683
0.3186542
0.3334038
0.1135809
0.208926
0.22631
0.2629255
0.2853357
0.306293
0.06444122
0.1224178
0.1341154
0.1527438
0.1628524
0.174803
0.02712983
0.1419367
0.1780737
0.2313192
0.2539262
0.280338
0.02101391
0.08885911
0.1152962
0.1470267
0.1644497
0.1839251
0.01521195
0.09831366
0.1351072
0.1839272
0.2108988
0.2393103
0.01279601
0.07247047
0.1013698
0.1386115
0.1619619
0.1861674
0.01112137
0.07398471
0.1053131
0.1460398
0.1726514
0.1999619
0.009563646
0.06215433
0.08959542
0.1249649
0.150265
0.1760097
0.008614217
0.05975159
0.0867244
0.1214083
0.1469501
0.1730866
0.007781342
0.05418157
0.07892158
0.1112264
0.1357159
0.1610358
0.007210848
0.05121239
0.07462841
0.1056204
0.129442
0.1542707
0.006721269
0.04791969
0.06979895
0.09928808
0.1222139
0.1463135
0.006341936
0.04536276
0.06597723
0.09424919
0.1163513
0.1397716
0.006029682
0.04311026
0.06246817
0.08975397
0.110773
0.1335936
0.005760246
0.04136338
0.05937121
0.08589284
0.1056025
0.1280438
0.00551649
0.03957678
0.05653219
0.0825256
0.1007173
0.1229195
0.00528434
0.03769497
0.05386974
0.07873905
0.0962673
0.1181147
0.005070901
0.03611715
0.05158606
0.07584165
0.09238168
0.1137977
0.00487782
0.03470452
0.04949509
0.07308074
0.0889908
0.1098867
0.004705836
0.03344982
0.04761032
0.07061223
0.08593404
0.1063344
0.004547181
0.03228711
0.04587398
0.06832203
0.08316941
0.1031583
0.004405669
0.03128355
0.04427501
0.06632926
0.08049237
0.1002266
0.01312086
0.03033577
0.04282335
0.0644968
0.07826778
0.09789881
0.2338807
0.2627196
0.2876071
0.3060715
0.3192009
0.3309633
0.01956522
0.1631914
0.2130585
0.2483528
0.2725804
0.2904627
0.3044232
0.01087838
0.1229787
0.1649037
0.1962955
0.2215177
0.2374574
0.2502098
0.00793583
0.109762
0.162371
0.2054783
0.2379739
0.2635811
0.2825177
0.005328316
0.08870946
0.1388036
0.1779572
0.205612
0.2278572
0.2454742
0.005179933
0.07993575
0.1311654
0.1740108
0.2043473
0.228838
0.2482814
0.004358013
0.06975284
0.1160525
0.1564117
0.1859399
0.2091914
0.2285287
0.003745066
0.06301831
0.1086753
0.1506313
0.1795587
0.202575
0.2226693
0.003171027
0.05545745
0.09876382
0.1405918
0.1685151
0.1906675
0.2106097
0.002925254
0.05129196
0.09221254
0.1340205
0.1614025
0.1830319
0.2029153
0.002680834
0.04752089
0.08642011
0.1267635
0.1534671
0.1745018
0.1941459
0.002521633
0.0448454
0.08221814
0.1209183
0.1467798
0.1673128
0.186755
0.002400346
0.04258283
0.07852735
0.1154033
0.1404839
0.1605058
0.1796202
0.002283169
0.04067143
0.07543265
0.1105538
0.1349296
0.1544132
0.1731409
0.002171626
0.03894379
0.07265819
0.1060257
0.1300918
0.1489282
0.1671335
0.002106277
0.03732508
0.0700435
0.1017588
0.1260255
0.1441122
0.1616824
0.002079665
0.03580449
0.06755529
0.09822062
0.122655
0.1399425
0.1567371
0.002037115
0.03444599
0.06517925
0.09612965
0.1197857
0.1362112
0.1522172
0.001983824
0.03328628
0.06330211
0.09343114
0.1164748
0.1325743
0.1480153
0.001928977
0.03222565
0.06157668
0.09082303
0.1132229
0.1290499
0.1440644
0.001876247
0.03124109
0.05995095
0.0883874
0.1102204
0.1256857
0.1403455
0.00182349
0.03031601
0.05844107
0.08608679
0.1074243
0.1224853
0.1368567
0.001773534
0.02946468
0.05702905
0.08387817
0.104694
0.1193407
0.1335505
0.0017297
0.03780712
0.05570674
0.08173028
0.1018144
0.1159551
0.130407
0.1353876
0.1600666
0.0200018
0.1331865
0.1172429
0.1339055
0.01958276
0.1010699
0.01415156
0.08995372
0.1334217
0.150257
0.01087051
0.07053044
0.008395748
0.06544673
0.114152
0.105674
0.007934221
0.05862491
0.006364062
0.04957569
0.09504024
0.09222614
0.005325746
0.04658958
0.005018418
0.04025784
0.07957189
0.07811742
0.005176952
0.04134631
0.004667954
0.03476868
0.06760023
0.06897604
0.004356996
0.03533495
0.003916762
0.02961361
0.05756175
0.06164566
0.003744594
0.03271496
0.003618401
0.02650992
0.05012479
0.05554145
0.003170888
0.02950633
0.003348453
0.02363753
0.04420237
0.05029875
0.002925088
0.02745487
0.003181269
0.02169462
0.03957618
0.04578197
0.002681979
0.0254256
0.003037166
0.02000359
0.03572742
0.04184794
0.002521897
0.0238244
0.002909072
0.01874526
0.03246881
0.03855693
0.002401781
0.0224317
0.002748707
0.01767519
0.02971447
0.03586955
0.002284979
0.02117605
0.002539172
0.01661721
0.02740052
0.03357753
0.002172634
0.01998889
0.002372849
0.01566603
0.02533205
0.03144491
0.0021073
0.01891317
0.002319804
0.01489231
0.02329626
0.02946666
0.002079667
0.01805044
0.002245954
0.01419387
0.02144863
0.02772769
0.002037191
0.01724369
0.002166718
0.01353556
0.01994987
0.02617408
0.001983991
0.01636764
0.002090373
0.01293567
0.01862793
0.02465491
0.001929524
0.01556308
0.002018548
0.01243649
0.0173314
0.02310936
0.00187615
0.0148765
0.001951566
0.01204132
0.0160249
0.02193594
0.001823136
0.01425179
0.00187881
0.01144205
0.01489231
0.02082666
0.001774363
0.01375764
0.001813115
0.01093761
0.01382921
0.009098826
0.001732269
0.01331466
0.001749785
0.0105144
0.2848773
0.01988167
0.1481656
0.6413023
0.01772961
0.1712827
0.2547405
0.02434896
0.1747399
0.6708456
0.02343289
0.1895987
0.2634824
0.02919607
0.1952854
0.6518831
0.02642859
0.2025428
0.2657013
0.02996787
0.1996737
0.3189395
0.02458274
0.2400398
0.5788223
0.02680735
0.2034039
0.2678503
0.03001639
0.204194
0.6666332
0.02649134
0.2000476
0.262717
0.0288917
0.1956693
0.6713616
0.02344961
0.1899542
0.2545354
0.02468646
0.1745646
0.640974
0.01763113
0.1710873
0.2843211
0.01988413
0.1479404
0.1596851
0.01992032
0.1332691
0.1354417
0.3115614
0.3073787
0.07061264
0.00839699
0.0654888
0.1334524
0.1502484
0.01374587
0.001811688
0.01092628
0.01486966
0.02080439
0.01327449
0.001747329
0.01048309
0.01382153
0.009091739
-0.0208124
0.06347138
0.1477228
0.1987897
0.2340708
0.1994474
0.1588408
0.1825743
0.2055883
0.2313968
0.2625855
0.237676
0.2097695
0.2188324
0.2450637
0.2564733
0.2874359
0.2608316
0.2493141
0.242808
0.2725433
0.2745855
0.3059273
0.2767009
0.2781431
0.2602512
0.2919102
0.2895763
0.319098
0.2908829
0.2968898
0.2756945
0.3072982
0.3308798
0.3114741
0.0536769
0.1024164
0.05453681
0.1534805
0.03556784
0.1255714
0.04848567
0.1522843
0.03443288
0.1153854
0.03998231
0.1284323
0.02683348
0.09916891
0.03360374
0.1163433
0.02396167
0.08770356
0.02943978
0.1038638
0.01865676
0.07723619
0.02465601
0.09371483
0.01311195
0.06598767
0.02031361
0.08161228
0.01008675
0.06206084
0.0167064
0.07365485
0.008696523
0.06804298
0.01360047
0.06851521
0.007673063
0.07077347
0.01125423
0.06401525
0.006874528
0.06819789
0.01015179
0.05982112
0.00636627
0.06303554
0.009559814
0.0563723
0.006071156
0.05820685
0.009017172
0.05357662
0.005766551
0.05440734
0.008484212
0.05162739
0.005479794
0.05108981
0.00808355
0.0493307
0.005137007
0.04791091
0.00774182
0.04671555
0.004796071
0.04537349
0.007397702
0.04440473
0.004493509
0.04326349
0.007091846
0.04226243
0.004280766
0.04122659
0.006879824
0.04029227
0.004111411
0.03946173
0.006690977
0.03806011
0.003956564
0.03832202
0.006538179
0.03600458
0.003840645
0.03624324
0.006576517
0.03411045
0.003748784
0.0335105
0.006711099
0.03265977
0.01461225
0.01737908
0.0008078841
-0.005935533
0.007473988
0.00778556
0.005321031
0.01546702
0.01361635
-0.0007619842
0.009167178
0.009386251
0.001464178
0.00324382
-0.01548196
0.000990165
0.02532136
0.01915982
0.1995411
0.158915
0.182695
0.147786
0.1988928
0.2378416
0.2099508
0.2190226
0.2057202
0.2315555
0.2609887
0.2495242
0.242993
0.2452228
0.2566166
0.2768092
0.2783101
0.2604109
0.2726797
0.2747035
0.2909757
0.2970146
0.2758017
0.2920237
0.2896616
0.1010426
0.01415922
0.08997637
0.1172787
0.1339286
0.05864775
0.006367099
0.04959115
0.1142005
0.1056745
0.04659904
0.005018375
0.04026938
0.09504912
0.09220867
0.04135622
0.004667686
0.0347683
0.07957275
0.07812594
0.03534358
0.003917739
0.02961443
0.06760558
0.06898382
0.03272999
0.003615601
0.02652101
0.05757687
0.06168909
0.02951986
0.00334803
0.02364377
0.05015355
0.05553674
0.02745831
0.003181162
0.02169291
0.04419683
0.05028599
0.02542733
0.003036115
0.02000147
0.0395596
0.04576428
0.02382242
0.002907866
0.0187406
0.03570148
0.04184427
0.02243084
0.002746375
0.01767016
0.03247575
0.03853881
0.0211754
0.00253708
0.01661135
0.02971189
0.03584814
0.01998549
0.002371587
0.01566186
0.02739592
0.0335612
0.01891142
0.002318386
0.01489329
0.02532548
0.03143319
0.01806988
0.002244284
0.01419447
0.0232914
0.02945281
0.01724114
0.002165765
0.01353344
0.02145392
0.02772078
0.01637141
0.002089476
0.01293955
0.01995744
0.02615822
0.01556397
0.002018248
0.01244011
0.01863134
0.0246396
0.01488463
0.001951913
0.01204838
0.01733414
0.02308191
0.01425679
0.001878709
0.01143994
0.01601606
0.02190866
0.1086497
0.1247765
0.09303351
0.07986138
0.04761224
0.08842033
0.03584909
0.06590873
0.02571629
0.02054052
0.05345005
0.1578997
0.04187645
0.1432094
0.04186014
0.1379349
0.03410889
0.1262619
0.03591788
0.1226377
0.03205043
0.1094157
0.02955147
0.1086168
0.02498827
0.09697058
0.0256351
0.09759895
0.02163004
0.08706783
0.02149223
0.08325565
0.01751261
0.07742414
0.01764654
0.07603094
0.01257561
0.06773935
0.01520457
0.07486058
0.009619691
0.06006321
0.01362775
0.07293681
0.008015677
0.05576969
0.01232747
0.06770863
0.007159675
0.05182539
0.01138767
0.06101886
0.006664334
0.04838906
0.0105965
0.0545904
0.006446789
0.04572129
0.009835772
0.04971563
0.006129099
0.04420312
0.009026433
0.04606656
0.005839779
0.04416519
0.008469191
0.04260045
0.005657425
0.04358827
0.008037496
0.04001049
0.00540762
0.04195769
0.007601797
0.03790973
0.005128758
0.04073842
0.007251458
0.03621374
0.004860325
0.03937536
0.006995903
0.03493118
0.004600036
0.03819525
0.006895436
0.03383959
0.004411782
0.03628502
0.006771024
0.03266178
0.004308994
0.03447315
0.006603959
0.03032359
0.004343916
0.03270433
0.00651562
0.003691314
0.03092392
0.004357558
-0.0138983
0.001431087
-0.004273662
0.003594707
0.01610221
0.007514304
-0.007928633
-0.003997309
0.006106771
0.01431743
0.006148424
0.00304012
-0.000679242
-0.006158979
0.01132124
0.01631319
-0.02328925
0.06376212
0.1082372
0.12486
0.09287422
0.08016251
0.04758079
0.08848174
0.03563503
0.06645026
0.294909
0.2991719
0.3038193
0.03558339
0.1255939
0.04849538
0.1523011
0.003838899
0.03624269
0.006570316
0.03413976
0.006602867
0.03044911
0.004323905
0.03276601
0.003744374
0.03359218
0.006709374
0.03270667
0.006500755
0.02826242
0.03106116
0.004337384
0.001687904
0.01295516
0.001692113
0.01293181
0.01288085
0.01294158
0.003559336
0.006515823
0.03098971
0.006511552
0.1090302
0.1530337
0.1466612
0.1562366
0.1671323
0.1722777
0.2159801
0.2120747
0.2138118
0.2211738
0.2475822
0.2465711
0.2501022
0.2513412
0.2672908
0.2689033
0.2729955
0.2714745
0.2821133
0.2852828
0.2897482
0.2866016
0.294838
0.2990806
0.3037196
0.2994104
0.03074665
0.04892248
0.03858826
0.05104637
0.01112948
0.02233791
0.01891431
0.02665475
0.006219095
0.01548971
0.01256742
0.01862053
0.005242812
0.01393411
0.01035937
0.01573005
0.004580927
0.01318458
0.009114213
0.0142909
0.00445798
0.01362824
0.007998184
0.01481389
0.005052878
0.01418172
0.006925192
0.01607263
0.004747865
0.014549
0.005967706
0.01526559
0.004307645
0.01501797
0.00508504
0.01483879
0.004100004
0.01527842
0.004639531
0.01447689
0.003954374
0.01489586
0.00431453
0.01411868
0.003864232
0.01437395
0.004089896
0.01378236
0.003847104
0.01403652
0.003971365
0.01348007
0.003866068
0.01378692
0.00389904
0.0131728
0.003833414
0.01349306
0.003796435
0.01267735
0.003716271
0.01315107
0.003664193
0.01223224
0.003574143
0.012803
0.003522712
0.01192191
0.003447186
0.01246593
0.003400383
0.01169198
0.003323577
0.01211831
0.003276223
0.01140297
0.003186006
0.01175831
0.003144985
0.01109823
0.003039517
0.01138976
0.003005562
0.01080515
0.00288452
0.01097666
0.002861963
0.01045656
0.002715364
0.01049254
0.002691914
0.01008974
0.1680764
0.173955
0.1574338
0.1261506
0.1560842
0.1613875
0.1570896
0.1641383
0.1400843
0.1578103
0.1611554
0.1672062
0.1582826
0.1644569
0.1613596
0.1571605
0.1582552
0.1685134
0.1200408
0.1341739
0.1356303
0.1192225
0.03273212
0.05331358
0.03402312
0.03799127
0.1733205
0.1742192
0.01165533
0.02629555
0.01375264
0.01757595
0.006273434
0.01679573
0.005805287
0.01064802
0.006234107
0.01409841
0.005097681
0.009394526
0.005808476
0.01267525
0.004989564
0.008366151
0.005332932
0.01241517
0.005219692
0.008045099
0.004932891
0.01395059
0.005923104
0.007883209
0.004284009
0.01446804
0.005813688
0.008129042
0.003957456
0.01419518
0.005376242
0.008481802
0.003792896
0.0140046
0.005062846
0.008851937
0.003608253
0.01340443
0.004737904
0.009109153
0.003515619
0.01285714
0.004436164
0.009541418
0.00347796
0.01263271
0.00422015
0.009882108
0.003478224
0.01259657
0.004083329
0.01016617
0.003482126
0.01248045
0.003905331
0.01014896
0.003494105
0.01210101
0.003750656
0.01029095
0.00344917
0.01187478
0.003588079
0.01026119
0.00337497
0.01171119
0.003450969
0.0101764
0.003285743
0.01151876
0.003315811
0.01007716
0.003186511
0.01130794
0.003180237
0.00992369
0.003074332
0.01105987
0.003044391
0.009749001
0.002957153
0.01074892
0.002904612
0.009535157
0.002825568
0.01036291
0.002751757
0.009278429
0.002599214
0.009954706
0.002670762
0.008966065
0.1592259
0.1622464
0.1594836
0.1638555
0.1544642
0.1668755
0.1460089
0.1567094
0.1599601
0.1486967
0.1408433
0.1493982
0.123504
0.1438295
0.1645323
0.1714158
0.1087629
0.150093
0.1202859
0.1343418
0.1358179
0.1194894
0.03278216
0.05336663
0.03402167
0.03805394
0.3108174
0.312679
0.3104764
0.3091216
0.01112665
0.02233445
0.01891403
0.02665301
0.04186521
0.1379116
0.03411854
0.1262702
0.002822232
0.01036846
0.002748275
0.009279996
0.002712617
0.01050147
0.01009057
0.002688112
0.009926671
0.002583925
0.002650718
0.00892944
-0.03619687
0.07635765
0.06784667
-0.03152831
0.09116845
0.06435669
0.06009599
0.08280045
0.1576658
0.1365332
0.1866362
0.1987683
0.1919222
0.1870779
0.235355
0.2336108
0.2275453
0.2311518
0.2641362
0.25778
0.251889
0.2603915
0.2830996
0.2750107
0.2687128
0.2803189
0.2975961
0.2890594
0.2822725
0.2951647
0.02463534
0.04487567
0.01998056
0.0320583
0.01145308
0.02348622
0.009675695
0.01538367
0.009545028
0.01615456
0.005716487
0.01272887
0.008297062
0.01364984
0.00449916
0.01126599
0.00716873
0.01222603
0.003881665
0.0101462
0.006221028
0.0123855
0.003729137
0.009495463
0.005611471
0.01368879
0.004589699
0.01032137
0.00516917
0.01410148
0.004648447
0.01046174
0.004809383
0.01455744
0.004545072
0.01058227
0.004602505
0.01424658
0.004350555
0.01078349
0.004472964
0.01382927
0.004261032
0.0107962
0.004374893
0.01348886
0.004206032
0.0107722
0.00427342
0.013323
0.004056849
0.01082599
0.004179013
0.01316636
0.003864091
0.0109474
0.004082369
0.01292116
0.003690127
0.01101181
0.003956627
0.01263849
0.003541362
0.01090323
0.003804282
0.01236175
0.003396529
0.01082254
0.003659434
0.01208833
0.003265752
0.01068777
0.00351415
0.01178654
0.003121303
0.01052066
0.003354005
0.01143163
0.002967806
0.0102667
0.003190379
0.01107196
0.002809581
0.01001437
0.003027921
0.01068921
0.002659233
0.009737436
0.002856695
0.01030295
0.002504479
0.009425321
0.1742836
0.1586412
0.1601329
0.1563945
0.1667443
0.1675002
0.1587121
0.1648196
0.1639341
0.165667
0.1524909
0.1529231
0.1505008
0.1483641
0.1314151
0.1430072
0.1786613
0.1638334
0.1467502
0.1562118
0.1723742
0.1670461
0.1988119
0.1872538
0.1867093
0.1919184
0.2122111
0.2212516
0.2160407
0.213994
0.2336931
0.2312973
0.235561
0.227595
0.2467151
0.2514334
0.2476599
0.250277
0.2577972
0.2605077
0.2642973
0.2519
0.2689321
0.2715315
0.2673237
0.2731329
0.2750414
0.2804254
0.2832052
0.2687302
0.2853489
0.2866645
0.2821531
0.2898575
0.2891465
0.2823448
0.2952788
0.2977225
0.1024853
0.05448755
0.1534879
0.05367617
0.1579196
0.04188891
0.1432652
0.05346497
0.1153863
0.03998182
0.1284413
0.0344267
0.1226266
0.1094263
0.03593257
0.03204341
0.09919075
0.116294
0.02685439
0.03360003
0.1085664
0.09694739
0.02955134
0.02495639
0.08771739
0.1038366
0.0239267
0.02942337
0.09761698
0.08705725
0.02561616
0.02161679
0.07724015
0.09375171
0.01867118
0.02465312
0.06590279
0.08143373
0.01308209
0.02026093
0.07610483
0.06751124
0.01753783
0.01241413
0.06219994
0.07359466
0.01006809
0.01664374
0.07484038
0.06001453
0.01516375
0.009592407
0.06807352
0.06848245
0.008684222
0.01358602
0.07291735
0.05574641
0.01361576
0.007974461
0.07079081
0.06394126
0.007661869
0.01122645
0.06744004
0.05177995
0.01226672
0.007129888
0.06808325
0.05982484
0.006861463
0.01014055
0.06097206
0.04842637
0.01138516
0.006636602
0.06299392
0.05640645
0.006328022
0.009502436
0.05440926
0.04583663
0.01052334
0.00640489
0.05809392
0.05354576
0.00602939
0.00894976
0.04966329
0.04406852
0.009771125
0.006072578
0.05433954
0.05152751
0.005740306
0.008425633
0.04593914
0.04396519
0.008995916
0.005834407
0.05103434
0.04940105
0.005471821
0.008069847
0.04787378
0.04673387
0.005122695
0.007711645
0.03990998
0.04200805
0.007991706
0.005375782
0.04529876
0.04449213
0.004785716
0.007372905
0.04322143
0.04230988
0.004500214
0.00707637
0.03604489
0.03950093
0.007222869
0.004848899
0.04112569
0.04042203
0.004290048
0.00685568
0.0348406
0.0385181
0.006949316
0.004579011
0.0393917
0.03811799
0.004115232
0.006682083
0.03360835
0.03643808
0.00687507
0.004395109
0.03804876
0.03595303
0.003962795
0.006537933
0.03261349
0.004305988
0.03442174
0.006779061
0.1077041
0.08419596
0.08389451
0.1063574
0.04005257
0.06055298
0.05580763
0.04656027
0.1788946
0.1539439
0.01340801
0.03256391
0.02722547
0.02952616
0.00545704
0.01680836
0.01443493
0.0181969
0.003614034
0.01330077
0.01058085
0.01401323