/*--------------------------------*- C++ -*----------------------------------*\
  =========                 |
  \\      /  F ield         | OpenFOAM: The Open Source CFD Toolbox
   \\    /   O peration     | Website:  https://openfoam.org
    \\  /    A nd           | Version:  7
     \\/     M anipulation  |
\*---------------------------------------------------------------------------*/
FoamFile
{
    version     2.0;
    format      ascii;
    class       surfaceScalarField;
    location    "0.08";
    object      phi;
}
// * * * * * * * * * * * * * * * * * * * * * * * * * * * * * * * * * * * * * //

dimensions      [0 3 -1 0 0 0 0];

internalField   nonuniform List<scalar> 
260377
(
-0.00148226
0.001475457
1.511304e-06
-0.000138946
-0.0002507928
-0.000180415
-0.0002399212
0.0001377992
0.0002531121
0.0001813466
0.0002431085
-0.002176847
0.00144655
4.08685e-05
-8.990382e-05
-0.0002878999
-0.0001568368
-0.0002581906
-0.002881769
0.001379578
5.963838e-05
-3.480023e-05
-0.0003091884
-0.0001233808
-0.000266925
-0.003545288
0.001312333
5.586489e-05
5.953907e-06
-0.0003358005
-9.644023e-05
-0.0002783915
-0.004166917
0.001210622
5.652233e-05
5.076137e-05
-0.0003517897
-6.52112e-05
-0.0002792759
-0.004721547
0.001083629
4.927678e-05
9.45891e-05
-0.0003626291
-3.516131e-05
-0.0002750748
-0.005187299
0.0009062692
3.990386e-05
0.0001402517
-0.0003637517
2.821257e-06
-0.0002597426
0.0006926083
3.013254e-05
0.0001858425
-0.0003544845
4.006109e-05
-0.0002388527
-0.005542606
-0.001509452
0.002195797
-4.140685e-05
9.535796e-05
0.0002980145
0.0001645152
0.0002726312
-0.002188678
0.002125714
6.167992e-08
-0.002899617
0.002047267
4.325048e-05
-0.003578019
0.001945903
4.483159e-05
-0.004219801
0.001804799
4.760523e-05
-0.004802964
0.001623074
4.371812e-05
-0.005305285
0.001370646
3.794431e-05
0.001058847
2.917915e-05
-0.005700703
-0.00153434
0.00297594
-6.401905e-05
5.024951e-05
0.0003321105
0.0001422171
0.0002936384
-0.002243457
0.00288079
-4.595844e-05
-0.002978262
0.002781425
6.468733e-07
-0.003692132
0.002655492
4.281986e-06
-0.004380992
0.002483266
1.039236e-05
-0.005021708
0.002253809
9.980677e-06
-0.005589248
0.001929663
8.522219e-06
0.001516535
6.060172e-06
-0.006052997
-0.001581009
0.003775399
-6.324514e-05
1.309724e-05
0.0003764843
0.0001301268
0.0003250867
-0.002313419
0.003664798
-5.159841e-05
-0.003082881
0.003555545
-4.657617e-06
-0.003842458
0.003415944
-8.75276e-07
-0.004595609
0.003229695
6.722126e-06
-0.005318964
0.00296973
7.433428e-06
-0.005987528
0.002592263
5.963815e-06
0.00207974
5.045446e-06
-0.006555778
-0.001630773
0.004609151
-6.756377e-05
-2.452954e-05
0.0004206641
0.0001170782
0.0003513722
-0.002394604
0.004490051
-6.1421e-05
-0.003207086
0.004380801
-1.277427e-05
-0.004026547
0.004244546
-9.1417e-06
-0.004864536
0.004069197
-1.513219e-06
-0.005703139
0.00380741
9.23721e-07
-0.006522212
0.003414168
-2.83217e-06
0.002807853
1.370805e-06
-0.007251696
-0.001677837
0.005470699
-6.724121e-05
-6.157884e-05
0.0004649202
0.0001048502
0.0003753391
-0.002468612
0.005344078
-6.32524e-05
-0.003323129
0.005249617
-1.429897e-05
-0.004205022
0.005136959
-1.052066e-05
-0.005141924
0.005009955
-3.855753e-06
-0.006129995
0.004793204
2.2775e-06
-0.007181789
0.004473107
-7.144977e-06
0.003784399
7.085566e-07
-0.008159045
-0.001718331
0.00635319
-7.375185e-05
-9.118995e-05
0.0005094327
9.170625e-05
0.0003996423
-0.002531292
0.006223223
-6.618395e-05
-0.003420343
0.006156101
-1.743235e-05
-0.004358377
0.006087567
-1.257433e-05
-0.00539462
0.006055455
-9.256152e-06
-0.006543058
0.005936274
5.367653e-06
-0.007930554
0.005877453
-1.684961e-05
0.005184569
-1.246208e-06
-0.009329477
-0.001730246
0.007240543
-7.34843e-05
-0.0001264963
0.0005514233
7.429446e-05
0.0004171567
-0.002547928
0.007107597
-6.66912e-05
-0.003442919
0.007069761
-1.866939e-05
-0.004406563
0.007063956
-1.274525e-05
-0.005516841
0.007176446
-1.071294e-05
-0.006907421
0.007308411
1.844318e-05
-0.008748782
0.00769991
1.890392e-05
0.002140143
-0.0001168916
0.00118186
0.002195189
0.001927505
-0.01089202
-0.001735383
0.008128517
-7.110388e-05
-0.0001642285
0.000591349
5.886801e-05
0.0004325254
-0.002544694
0.007984706
-6.779837e-05
-0.003417517
0.007961678
-1.909479e-05
-0.004339508
0.007997698
-1.175085e-05
-0.005392433
0.008238825
-9.453736e-06
-0.006790886
0.008636073
7.079133e-05
-0.002533624
0.009772304
0.0002089926
-0.001610564
-0.002673155
-0.002254931
-0.002888285
0.002493814
9.904993e-07
-0.001708678
0.009000901
-6.617006e-05
-0.0002037247
0.0006263614
3.942387e-05
0.0004404037
-0.002481492
0.008825229
-6.770873e-05
-0.003263769
0.008765809
-2.185382e-05
-0.004002982
0.008750807
-1.38963e-05
-0.004678227
0.008940479
-2.64077e-05
-0.005391513
0.009253195
9.616351e-05
-0.002089606
0.01042303
0.0001774623
-0.0006588647
-0.00218054
-0.001290694
0.003450235
5.31897e-05
-0.003532445
-0.0004220931
-0.0007233735
-0.0007085593
-0.0002065587
0.0005143344
-0.0001281131
-0.0003356839
-5.053746e-05
-0.001715121
0.009873199
-6.353487e-05
-0.0002388045
0.000663821
2.752106e-05
0.0004538195
-0.002470413
0.009647899
-6.737782e-05
-0.003190651
0.009503538
-1.748971e-05
-0.003797474
0.009366893
-9.262248e-06
-0.004170626
0.009310206
3.424575e-06
-0.004263377
0.009241225
0.0001047213
-0.001382827
0.009467294
0.000310957
-0.0003565065
-0.00112374
-0.0007555215
-0.003452361
0.002714291
2.924545e-05
-0.0001680542
-0.0002848397
-0.0001689647
-5.214345e-05
-0.001764673
0.01077183
-6.41245e-05
-0.0002690611
0.0007061212
2.171381e-05
0.0004713901
-0.002539249
0.01049091
-6.843095e-05
-0.003270759
0.01025481
-1.976583e-05
-0.00388161
0.009984957
-7.213721e-06
-0.004239246
0.009682957
-1.511493e-05
-0.004299021
0.009198815
0.000102185
-0.00124952
0.008622923
0.0002314516
-0.0004902719
-0.001131991
-0.0008143181
-0.002721485
0.002099112
7.701168e-05
-0.0001884464
-0.0002773713
-0.000165767
-7.257433e-05
-0.001871318
0.01172662
-6.697236e-05
-0.0002935701
0.0007560293
2.398702e-05
0.0004970559
-0.002705054
0.01139733
-7.26834e-05
-0.003521319
0.0110886
-1.751969e-05
-0.004263925
0.01073461
-7.041633e-06
-0.004881022
0.01028498
1.507873e-05
-0.005519643
0.009673001
0.000164435
-0.001685997
0.008671504
0.0004829381
-0.001215318
-0.001660405
-0.001489443
-0.002048615
0.001610679
0.0001064854
-0.0004192741
-0.0003473155
-0.0003013444
-0.0002866117
-0.002017902
0.01275912
-7.188363e-05
-0.0003149623
0.0008122858
3.192934e-05
0.0005280326
-0.00293674
0.01239293
-7.676314e-05
-0.003862849
0.01203848
-2.37694e-05
-0.004782828
0.01165273
1.857842e-06
-0.005606229
0.0111379
-2.951948e-05
-0.006834413
0.01061537
0.0002858174
-0.002087695
0.009719705
0.0003566116
-0.001752489
-0.002212168
-0.002186873
-0.001856485
-0.00207509
0.001662341
0.0001815384
-0.002178951
0.01387641
-7.703044e-05
-0.0003362995
0.00087242
4.216024e-05
0.0005604157
-0.003177065
0.01347609
-8.504601e-05
-0.00420823
0.01309189
-2.224947e-05
-0.00521671
0.01268011
-1.890551e-05
-0.006234429
0.01215934
-3.725088e-06
-0.007352834
0.01162
0.0001137737
-0.00889125
0.01085809
0.0004000356
0.01052048
0.0004041262
-0.00189169
-0.002294221
-0.002404669
-0.002457607
-0.01076767
-0.002361669
0.01508852
-8.200513e-05
-0.0003573751
0.0009370217
5.586391e-05
0.0005960561
-0.003452544
0.01465651
-8.954951e-05
-0.004592938
0.01425268
-2.03897e-05
-0.005735236
0.01383161
-9.199965e-06
-0.006919249
0.01334085
2.505046e-06
-0.008263424
0.01286197
0.0001022002
-0.009808493
0.01224691
0.0001562465
0.0116531
0.0004164773
-0.01135759
-0.002543077
0.01639488
-8.742762e-05
-0.0003802918
0.001004095
6.986916e-05
0.0006304686
-0.003713498
0.01592429
-9.735817e-05
-0.004931852
0.01549323
-2.219932e-05
-0.006127484
0.01504809
-2.084589e-05
-0.007347698
0.01456825
-7.181768e-06
-0.008603365
0.01412338
-5.742474e-06
-0.009978507
0.01361247
9.578958e-06
0.0131873
-1.925682e-06
-0.01151079
-0.002742371
0.01780393
-9.276146e-05
-0.0004034733
0.001075201
8.745667e-05
0.0006669051
-0.004000262
0.01728526
-0.0001030769
-0.005300101
0.01681441
-2.134582e-05
-0.006562505
0.01632835
-1.785509e-05
-0.007821537
0.01583017
-2.897665e-06
-0.009070674
0.01536687
5.647164e-06
-0.01037299
0.01490948
5.314805e-06
0.01455336
6.604762e-06
-0.01174565
-0.002959942
0.01932488
-9.917602e-05
-0.0004269081
0.001151021
0.0001088942
0.0007051551
-0.00430726
0.01874309
-0.0001105121
-0.005680478
0.01821076
-2.313052e-05
-0.00698547
0.01765499
-2.164679e-05
-0.008248521
0.01709963
-6.400148e-06
-0.009464006
0.01658901
-6.65164e-06
-0.0106771
0.01612613
-3.558669e-06
0.01579408
-1.567335e-05
-0.01190216
-0.00320795
0.02097624
-0.0001065457
-0.0004498108
0.001232787
0.0001349204
0.000745238
-0.004659803
0.02031368
-0.000118732
-0.006117687
0.01969362
-2.497522e-05
-0.007470924
0.01903203
-2.380451e-05
-0.008736764
0.01837122
-5.756236e-06
-0.009904155
0.01776001
-3.614452e-06
-0.01101869
0.01724007
6.001485e-07
0.01688576
-1.664496e-06
-0.0121087
-0.003517089
0.02278724
-0.0001163036
-0.0004693467
0.001325073
0.0001719947
0.0007946806
-0.005096953
0.02202081
-0.0001272678
-0.00665595
0.02127958
-2.695506e-05
-0.008056135
0.02045591
-2.369449e-05
-0.009302563
0.01962507
-7.415539e-06
-0.01038396
0.01884708
-5.672761e-06
-0.01136209
0.01822027
-2.068082e-06
0.01782016
-4.507926e-06
-0.01229199
-0.003873292
0.02479556
-0.0001307389
-0.0004880366
0.001426191
0.0002133341
0.0008442236
-0.005614618
0.02390553
-0.000143393
-0.007308692
0.0230105
-3.6851e-05
-0.008784286
0.02197214
-4.063512e-05
-0.01002217
0.02087817
-1.522073e-05
-0.01098821
0.01982869
-1.557058e-05
-0.01177386
0.01901203
-6.112821e-06
0.01854681
-9.333574e-06
-0.01249118
-0.004370544
-0.0001482083
-0.0004974209
0.00154835
0.0002790318
0.0009210923
0.02706326
-0.006337104
-0.0001509941
0.02602309
-0.008224864
-3.811206e-05
0.02493638
-0.009787348
-1.900089e-05
0.02355363
-0.01097081
-1.38463e-05
0.02207547
-0.01173666
-4.17555e-06
0.02059872
-0.01224698
-3.902821e-06
0.01952625
-8.14456e-06
0.01897302
-0.01266505
5.861148e-06
3.629872e-05
-0.0002572345
7.576973e-05
-2.468695e-06
-5.949498e-06
6.562156e-06
5.644531e-06
4.91557e-05
3.783952e-05
4.852123e-05
2.31189e-05
0.0003470653
-0.0004366273
7.067816e-05
-2.051964e-05
-7.997103e-06
1.359002e-05
1.06916e-05
3.177703e-05
0.0005450829
-0.0006274454
6.909599e-05
-2.796793e-05
-1.860885e-05
1.770808e-05
1.035819e-05
4.151043e-05
0.0007281528
-0.0008020897
6.038258e-05
-4.374065e-05
-2.450781e-05
2.594603e-05
1.434641e-05
4.955912e-05
0.0008998429
-0.0009637404
4.375841e-05
-4.817389e-05
-2.96403e-05
3.087325e-05
1.752091e-05
5.812592e-05
0.001055889
-0.001110394
3.138527e-05
-6.096111e-05
-3.299326e-05
3.699361e-05
2.195486e-05
6.510658e-05
0.001193924
-0.001236502
2.282502e-05
-7.458014e-05
-3.444921e-05
4.065575e-05
2.302076e-05
7.05868e-05
0.001310339
-0.001336839
5.933448e-06
-8.117501e-05
-3.709888e-05
4.357407e-05
2.46795e-05
-5.948169e-06
-3.64396e-05
-7.606058e-05
0.0002556636
4.245023e-06
-6.514032e-06
5.873681e-06
-5.977695e-06
-4.866408e-05
-3.779388e-05
-4.838426e-05
-0.001665442
0.001660517
2.179536e-06
-0.0001803568
-0.0002246657
-0.0001914034
-0.000222448
0.0001826711
0.0002239279
0.0001914533
0.000225079
-0.002481606
0.00163058
3.885515e-05
-0.0001732681
-0.0002322536
-0.0001855663
-0.0002213147
-0.003261145
0.00155813
5.51406e-05
-0.0001647126
-0.0002327031
-0.0001676023
-0.000209076
-0.004003558
0.001484132
5.959989e-05
-0.000150181
-0.0002339067
-0.0001587231
-0.0002026422
-0.004705316
0.00137531
5.900608e-05
-0.0001210331
-0.0002284726
-0.0001423793
-0.0001841518
-0.005331835
0.001229776
5.709294e-05
-9.67308e-05
-0.0002212298
-0.0001252797
-0.0001678324
-0.00585198
0.001026626
5.244603e-05
-7.624369e-05
-0.0002025313
-9.832743e-05
-0.0001419218
0.0007826661
4.237627e-05
-4.213511e-05
-0.0001764329
-7.087263e-05
-0.0001120957
-0.006245353
-2.297657e-05
-0.0003435337
-7.400833e-05
0.0004337617
2.669273e-05
-1.320441e-05
6.437597e-06
-1.316904e-05
-0.001703531
0.002510809
-3.744849e-05
0.0001806644
0.000245729
0.0001912763
0.0002316104
-0.002549333
0.002474809
1.635098e-06
-0.00336917
0.002386368
3.484995e-05
-0.004160628
0.002272185
4.823695e-05
-0.004905652
0.002111643
5.629638e-05
-0.005584585
0.001899184
5.324317e-05
-0.006170894
0.001604932
4.594766e-05
0.001239143
3.48471e-05
-0.006633039
-3.201871e-05
-0.0005462517
-7.52881e-05
0.0006356475
3.418404e-05
-1.575305e-05
1.579123e-05
-1.63112e-05
-0.001737191
0.0033804
-5.571415e-05
0.0001809256
0.0002602466
0.0001844937
0.0002336299
-0.00261752
0.003347147
-3.796758e-05
-0.003469071
0.003240843
-2.277646e-06
-0.004301862
0.003092105
1.715271e-05
-0.005100354
0.002891155
2.937174e-05
-0.005847281
0.002623867
3.222399e-05
-0.006508586
0.002244262
3.049751e-05
0.001762531
2.404039e-05
-0.007049955
-4.159892e-05
-0.0007481006
-7.373575e-05
0.0008349695
4.764662e-05
-1.984832e-05
2.245274e-05
-2.178529e-05
-0.00179631
0.004278875
-6.543941e-05
0.0001820043
0.0002802869
0.000190749
0.0002469886
-0.00270718
0.004262219
-5.579993e-05
-0.003591003
0.00414266
-2.265166e-05
-0.004476058
0.003977991
-1.705717e-06
-0.005349308
0.003758419
1.270812e-05
-0.006193884
0.003457304
1.857245e-05
-0.006974194
0.003012204
1.833172e-05
0.002418688
1.509521e-05
-0.007640401
-5.071758e-05
-0.0009507683
-7.212189e-05
0.00103821
5.742551e-05
-2.315467e-05
2.787128e-05
-2.674401e-05
-0.001856646
0.005211907
-7.504031e-05
0.0001811015
0.0002999273
0.0001922502
0.0002578122
-0.002803578
0.005219151
-7.142039e-05
-0.003734086
0.005098859
-3.846552e-05
-0.004687578
0.00493911
-1.676902e-05
-0.005658751
0.00472892
-8.408961e-07
-0.006636158
0.004427601
8.033567e-06
-0.007591472
0.003956686
7.9992e-06
0.003270111
1.014395e-05
-0.008451668
-5.947433e-05
-0.001161193
-6.650926e-05
0.001246457
6.502823e-05
-2.566294e-05
3.364779e-05
-3.229311e-05
-0.00191138
0.006179687
-7.626622e-05
0.0001760395
0.0003180609
0.0001936559
0.0002648696
-0.002890204
0.006211971
-7.724891e-05
-0.003868377
0.006108253
-4.552118e-05
-0.004892659
0.00597679
-2.391837e-05
-0.005979999
0.005820385
-7.980034e-06
-0.007133021
0.005579043
3.856923e-06
-0.008349991
0.005167411
-8.988914e-07
0.004423299
2.930044e-06
-0.009505401
-6.84567e-05
-0.001375444
-5.810498e-05
0.001459509
6.786835e-05
-2.782684e-05
3.955721e-05
-3.710164e-05
-0.001959367
0.007181659
-7.9741e-05
0.0001650231
0.0003325385
0.0001969298
0.0002688926
-0.002962567
0.007232673
-8.368539e-05
-0.003983689
0.007162964
-5.102173e-05
-0.005072293
0.007081631
-2.881042e-05
-0.006282529
0.007034499
-1.313437e-05
-0.007647161
0.006943988
5.054517e-06
-0.009261821
0.006774533
-9.312144e-06
0.006045007
2.420848e-07
-0.01088502
-7.809257e-05
-0.001593583
-5.5029e-05
0.001678472
7.779191e-05
-3.099517e-05
4.436892e-05
-4.293306e-05
-0.001975459
0.008191332
-8.322311e-05
0.0001603864
0.0003448722
0.0001973596
0.0002729081
-0.002984196
0.008259751
-8.503267e-05
-0.004013011
0.008226791
-5.368202e-05
-0.005131506
0.008217377
-2.999569e-05
-0.006418598
0.008322022
-1.114538e-05
-0.008015202
0.008540218
1.881687e-05
-0.01007457
0.008835614
1.719063e-05
0.002252842
-8.337927e-05
0.002030804
0.002175916
0.002009538
-0.01253217
-8.704474e-05
-0.001816093
-5.546739e-05
0.001898744
9.331063e-05
-3.255208e-05
4.868565e-05
-4.958306e-05
-0.001981988
0.009196344
-8.846215e-05
0.0001614763
0.0003600323
0.0001962582
0.0002765669
-0.002985125
0.009280232
-8.514135e-05
-0.003992144
0.009268763
-5.404723e-05
-0.005070794
0.009310336
-2.606042e-05
-0.006332194
0.009572168
1.800721e-06
-0.007841984
0.01005298
6.78221e-05
-0.002766178
0.01104751
0.0001688684
-0.002317798
-0.002650942
-0.002278834
-1.857276e-05
-0.003281313
0.002771821
1.472901e-05
-9.509371e-05
-0.0020391
-5.538537e-05
0.002118163
0.000105369
-3.212528e-05
5.304023e-05
-5.486819e-05
-0.001953007
0.01018089
-9.233236e-05
0.0001597392
0.0003697983
0.0001903348
0.0002747533
-0.00291806
0.01025998
-8.240698e-05
-0.003826988
0.0102115
-5.566624e-05
-0.004703383
0.0101992
-2.636058e-05
-0.005587573
0.01043347
-3.523107e-06
-0.006339329
0.01082795
7.294229e-05
-0.002272062
0.01211132
3.435916e-05
-0.001345674
-0.002293856
-0.001348446
-1.138236e-05
0.003839659
4.387159e-05
-0.003371044
-0.0005535502
-0.0008410068
-0.0005520494
-0.0008265596
-6.559129e-06
0.0006864575
-0.0002387203
-0.0004577576
1.657912e-05
-0.0001020027
-0.002260575
-5.502587e-05
0.002335535
0.0001164838
-3.014557e-05
5.767432e-05
-6.194425e-05
-0.001958388
0.01116607
-9.532382e-05
0.0001599593
0.0003801474
0.0001892959
0.0002755889
-0.002904401
0.01121842
-7.980046e-05
-0.003732948
0.01107275
-5.019002e-05
-0.004448694
0.01092118
-1.550207e-05
-0.004907331
0.01086227
3.32685e-05
-0.00491805
0.01084094
0.0001024556
-0.001136922
0.01103613
0.0001734838
-0.0007501435
-0.001089316
-0.0007290069
2.981595e-05
-0.003556728
-0.0007425254
0.003125443
7.072977e-06
-0.0001087275
-0.002480743
-5.500946e-05
0.002555356
0.0001221521
-2.772711e-05
6.217898e-05
-6.74801e-05
-0.002016086
0.01218296
-9.869211e-05
0.000162067
0.0003944943
0.0001934197
0.000283789
-0.002985339
0.01219878
-7.953604e-05
-0.003829318
0.01194734
-5.037206e-05
-0.004546118
0.01164081
-1.004409e-05
-0.005005094
0.01126955
3.657564e-05
-0.004971905
0.01079031
0.0001196178
-0.001064125
0.009696162
0.0001850547
-0.0007550625
-0.001061346
-0.0007050076
-1.705141e-05
-0.0005551805
0.002276207
2.566797e-05
-0.002793769
-0.0001158177
-0.002707354
-5.925248e-05
0.002785159
0.0001284445
-2.559209e-05
6.67493e-05
-7.233623e-05
-0.002137287
0.01326243
-0.0001047687
0.0001727724
0.0004171574
0.0002050507
0.0003006336
-0.003178187
0.01325064
-8.364418e-05
-0.004111564
0.01291347
-5.02724e-05
-0.004972418
0.01250208
-7.454394e-06
-0.005695646
0.01194433
6.352666e-05
-0.00614473
0.01123538
0.0001684554
-0.001620946
0.009640685
0.0003606288
-0.001440213
-0.001534115
-0.00137167
-1.481348e-05
-0.001883064
0.00161921
2.973972e-05
-0.0002852032
-0.0004066851
-0.0004017267
-0.0002784035
-0.0001228652
-0.002946881
-6.675221e-05
0.003030127
0.0001338664
-2.278828e-05
7.206422e-05
-7.677082e-05
-0.002306859
0.01442919
-0.0001112176
0.0001900515
0.0004449507
0.0002222135
0.000322216
-0.003450731
0.01440538
-8.763355e-05
-0.004528823
0.01402162
-5.382856e-05
-0.005585462
0.01355858
1.997527e-06
-0.006708841
0.01297963
5.855915e-05
-0.007659685
0.01222884
0.0002431953
-0.00893773
0.01090222
0.0003731169
0.009367196
0.0006433366
-0.001815003
-0.001917029
-0.001783165
-0.001971091
-0.0001530296
-0.0003441141
4.6767e-06
-0.0002401832
-0.002527614
-0.002845325
-0.002473582
-0.002882804
-0.0001300555
-0.003203922
-7.548086e-05
0.003293665
0.0001385742
-1.926961e-05
7.771578e-05
-8.122674e-05
-0.002490846
0.01569139
-0.0001194343
0.0002098912
0.0004740065
0.000241969
0.0003451877
-0.003737875
0.01566447
-9.71031e-05
-0.004926299
0.01524904
-6.124599e-05
-0.006133421
0.01476276
-1.596477e-05
-0.007388773
0.01419044
4.081736e-05
-0.008712807
0.01354031
0.0001263453
-0.01027949
0.01261516
0.0002537908
0.01173045
0.0002824632
-0.01252108
-0.000137478
-0.003480663
-8.561027e-05
0.003577601
0.0001432874
-1.48405e-05
8.260322e-05
-8.489994e-05
-0.00269607
0.01705898
-0.0001258111
0.0002332318
0.0005038904
0.0002647054
0.0003704566
-0.004052371
0.01703462
-0.0001034047
-0.005354453
0.01659606
-6.532736e-05
-0.006682446
0.01609767
-1.611325e-05
-0.008064876
0.01554224
3.313708e-05
-0.009527131
0.01498943
0.0001153314
-0.01129296
0.01434829
0.0001889448
0.01381094
0.0003698209
-0.0133268
-0.0001450815
-0.003778288
-9.596241e-05
0.003882816
0.0001477622
-9.353148e-06
8.71686e-05
-8.906181e-05
-0.002902587
0.01853322
-0.0001333779
0.000257129
0.0005331611
0.000288132
0.0003958785
-0.004358919
0.01850724
-0.0001136448
-0.005747117
0.01803748
-7.541979e-05
-0.007147017
0.01751102
-3.42986e-05
-0.00856999
0.01695509
2.94274e-06
-0.01004706
0.01642648
3.427683e-05
-0.01164312
0.01588344
7.048822e-05
0.01544736
8.482846e-05
-0.01336629
-0.0001528769
-0.004098092
-0.0001076926
0.004210169
0.0001517749
-2.571375e-06
9.247046e-05
-9.318195e-05
-0.00312779
0.02012312
-0.0001392172
0.0002837248
0.0005629354
0.0003142062
0.0004234712
-0.00468994
0.02008793
-0.0001216115
-0.006165417
0.01957262
-8.100927e-05
-0.007631597
0.01899803
-3.867926e-05
-0.009087474
0.01841262
-4.550558e-06
-0.01054946
0.01787047
2.363844e-05
-0.01206143
0.01735462
4.609991e-05
0.01698144
5.11841e-05
-0.0136401
-0.0001607422
-0.004440987
-0.000121127
0.004561282
0.000154919
5.119586e-06
9.869384e-05
-9.71583e-05
-0.003375506
0.02183976
-0.0001462601
0.0003136286
0.0005951495
0.0003430934
0.0004540853
-0.005048501
0.0217822
-0.0001317901
-0.006606418
0.02119725
-8.9848e-05
-0.008122498
0.02054112
-4.866142e-05
-0.009582254
0.01988434
-1.836762e-05
-0.01100006
0.0192819
-2.694673e-07
-0.0124116
0.01874913
1.346852e-05
0.01837056
1.011675e-05
-0.01382651
-0.0001687948
-0.004809635
-0.0001364167
0.004939353
0.0001579041
1.288514e-05
0.000105964
-0.0001012594
-0.003658292
0.02370299
-0.00015298
0.0003471202
0.0006298525
0.0003759528
0.0004885689
-0.005459273
0.02360736
-0.0001429087
-0.007111378
0.02292284
-9.84533e-05
-0.008680546
0.02214268
-5.619836e-05
-0.01014027
0.02136296
-2.465372e-05
-0.01149853
0.02064272
-6.170854e-06
-0.01279545
0.02004044
6.213053e-06
0.01963142
4.536909e-06
-0.01406251
-0.0001771336
-0.005205955
-0.0001560941
0.005347128
0.000160465
2.170802e-05
0.0001147411
-0.0001048591
-0.004010059
0.02574705
-0.0001627155
0.0003893951
0.0006730198
0.0004171001
0.0005328976
-0.00596813
0.0255956
-0.0001574314
-0.00773494
0.02477387
-0.0001111764
-0.009361489
0.02381199
-6.645536e-05
-0.01079939
0.02283018
-3.67304e-05
-0.01205957
0.02191559
-1.836939e-05
-0.01319854
0.02118538
-8.037971e-06
0.02071755
-1.01113e-05
-0.01427907
-0.0001860459
-0.00563568
-0.0001784788
0.005789889
0.0001616522
3.118394e-05
0.0001249821
-0.0001075025
-0.004420067
0.02800969
-0.0001738479
0.0004365156
0.0007194792
0.0004636275
0.0005809184
-0.006575163
0.02778573
-0.0001784271
-0.008495006
0.02678834
-0.000131474
-0.01020278
0.02556861
-8.946901e-05
-0.01163231
0.0242985
-5.401442e-05
-0.01275902
0.02306364
-3.691092e-05
-0.01368107
0.02212505
-2.374162e-05
0.02157317
-2.64378e-05
-0.01451958
0.0002633418
-0.0004118939
-0.00627487
-8.040797e-05
0.0001088459
-0.0001939442
-3.168348e-05
0.006620612
-0.004978787
-0.0001918901
0.0007873128
0.0005035811
0.0005275304
0.0006492962
0.03056444
-0.007405524
-0.000201622
0.03026309
-0.009549555
-0.0001569093
0.02905117
-0.01138471
-0.0001018504
0.02748661
-0.01275656
-8.207566e-05
0.02573859
-0.01365774
-5.731756e-05
0.02401796
-0.01425935
-4.901397e-05
0.02277177
-4.907359e-05
0.02209027
-0.01473552
3.745483e-05
-8.49761e-06
-0.0002413009
7.228791e-05
6.299769e-06
4.784837e-05
3.769371e-05
4.821399e-05
-0.002111482
0.0007015215
-5.159154e-06
3.470849e-05
-8.984534e-05
2.959936e-05
-7.067618e-06
0.0003081332
0.0004121573
0.0003141677
0.0004132668
-0.002723305
0.0006420503
3.007774e-05
7.976383e-05
-0.0001242422
1.412286e-05
-2.994941e-05
-0.003360311
0.0006514793
8.348146e-06
0.0001240839
-0.0001431909
2.510157e-05
-2.881591e-05
-0.003928683
0.0005922757
9.380784e-06
0.0001507144
-0.0001705775
1.985772e-05
-3.327895e-05
-0.004447363
0.0005285769
7.408117e-06
0.000180168
-0.0001864332
2.265332e-05
-3.369317e-05
-0.004879911
0.0004353545
3.24621e-06
0.0002065191
-0.0002051593
2.838947e-05
-3.580202e-05
0.0003277346
1.921957e-06
0.000227813
-0.0002198002
2.977079e-05
-3.650826e-05
-0.005210843
-3.809001e-05
7.606358e-06
-7.25134e-05
0.0002429271
-5.570792e-06
-4.807936e-05
-3.836469e-05
-4.791522e-05
-0.001582848
0.00157416
2.292042e-06
-0.0001773155
-0.0002088787
-0.0001758275
-0.0002174708
0.0001781011
0.0002109675
0.0001788494
0.0002201499
-0.002427194
0.001553926
3.079738e-05
-0.00323542
0.001473306
3.211088e-05
-0.003984075
0.001422955
3.677876e-05
-0.004681681
0.00131369
3.51979e-05
-0.005306525
0.001175774
3.473945e-05
-0.005832801
0.0009826221
3.145417e-05
0.000748486
2.552798e-05
-0.006236704
-0.0007431202
0.002174664
6.888404e-06
-3.715671e-05
-3.590222e-05
9.182496e-05
2.187957e-06
-0.000310336
-0.0004165201
-0.0003193611
-0.0004131691
-0.001628319
0.002448922
-2.701129e-05
-0.002490441
0.002415257
2.425452e-06
-0.003346241
0.002347198
1.675877e-05
-0.004147187
0.002241415
3.072267e-05
-0.004897323
0.002082747
3.737554e-05
-0.005579648
0.001874312
3.702928e-05
-0.006165021
0.001582409
3.153302e-05
0.00122118
2.378974e-05
-0.006626658
-0.0007263532
0.002867171
-1.743169e-05
-8.399387e-05
-2.172009e-05
0.0001291033
2.78891e-05
-0.001648132
0.003343685
-2.86981e-05
-0.002575829
0.003320914
-1.592783e-05
-0.003461152
0.003231475
-1.231701e-06
-0.00431492
0.003091673
2.066344e-05
-0.00512747
0.002892485
3.218385e-05
-0.005883579
0.002626663
3.598165e-05
-0.006551712
0.002247671
3.33688e-05
0.00176644
2.638033e-05
-0.007099312
-0.000796082
0.003647272
1.677324e-06
-0.0001292018
-3.375985e-05
0.0001518351
2.543025e-05
-0.001725793
0.004244361
-3.640511e-05
-0.002670373
0.004243321
-3.362667e-05
-0.003591609
0.004154701
-2.464099e-05
-0.004499261
0.003998707
-1.088105e-06
-0.005389016
0.003780639
1.430872e-05
-0.006244719
0.003478681
2.225797e-05
-0.007033254
0.003032566
2.197085e-05
0.002437509
1.839832e-05
-0.007707626
-0.0008126766
0.00443993
-8.370506e-06
-0.0001616174
-3.415789e-05
0.0001871168
3.704759e-05
-0.001781973
0.005181319
-4.270156e-05
-0.002767422
0.00520405
-4.670088e-05
-0.003737032
0.005126368
-4.052321e-05
-0.004713858
0.004976164
-1.740019e-05
-0.00570179
0.004767662
6.862547e-08
-0.006690401
0.004463954
1.137043e-05
-0.007653881
0.003991991
1.205469e-05
0.003307125
1.341965e-05
-0.008526772
-0.000841369
0.005260492
-4.235329e-06
-0.0001958313
-3.744958e-05
0.0002186535
3.966964e-05
-0.001838833
0.006146488
-4.397113e-05
-0.00285667
0.006197478
-5.283902e-05
-0.003873224
0.006146618
-4.921638e-05
-0.004920306
0.006026097
-2.676986e-05
-0.006022634
0.005870842
-8.831701e-06
-0.007183167
0.005623534
4.810755e-06
-0.008404434
0.005211367
9.918968e-07
0.004478481
3.862785e-06
-0.009576722
-0.0008598132
0.006092395
-7.962876e-06
-0.0002281649
-3.761867e-05
0.0002567638
4.48925e-05
-0.001883225
0.007135851
-4.569201e-05
-0.002929694
0.007218927
-5.866522e-05
-0.003987686
0.007208855
-5.526681e-05
-0.005097968
0.007140358
-3.278937e-05
-0.006318496
0.007092317
-1.408109e-05
-0.007680097
0.00698623
3.958305e-06
-0.009272323
0.006802117
-7.835897e-06
0.006102495
-3.632978e-06
-0.01089246
-0.0008650412
0.006933467
-7.416265e-06
-0.0002624205
-4.100218e-05
0.0002872384
4.756979e-05
-0.001897464
0.0081325
-4.744845e-05
-0.002951146
0.008247484
-5.990793e-05
-0.004017897
0.008279486
-5.756147e-05
-0.005157664
0.008283665
-3.353508e-05
-0.006449578
0.00838181
-8.724999e-06
-0.008015854
0.008551804
1.951823e-05
-0.009949496
0.008730835
2.211405e-05
0.002224048
-2.776795e-05
0.002042523
0.002171533
0.002026556
-0.01236727
-0.000864519
0.00778369
-6.934474e-06
-0.0003003433
-4.591327e-05
0.0003164812
5.100573e-05
-0.001900774
0.009131409
-5.1116e-05
-0.002948137
0.009269136
-5.943026e-05
-0.003994739
0.009329328
-5.728696e-05
-0.005093105
0.009384707
-2.873712e-05
-0.00635371
0.009636548
7.668104e-06
-0.007826577
0.01002971
6.278254e-05
-0.002684643
0.01085758
9.889024e-05
-0.002303403
-0.002622992
-0.002272305
-1.598799e-05
-0.003186893
0.002734104
8.182052e-06
-0.0008537171
0.008632779
-6.24373e-07
-0.0003383336
-5.20462e-05
0.0003441331
5.149982e-05
-0.001875982
0.01011477
-5.343058e-05
-0.002880978
0.01024859
-5.686683e-05
-0.003833345
0.01028275
-5.671914e-05
-0.004740136
0.01029087
-2.573199e-05
-0.00564404
0.0105261
1.083027e-05
-0.006435865
0.01084355
5.092308e-05
-0.002368221
0.01197665
5.223862e-05
-0.001410953
-0.002387478
-0.001406169
-1.121855e-05
0.003755425
1.598361e-05
-0.003261366
-0.0006318573
-0.0008042692
-0.0005909614
-0.000839958
-4.083562e-06
0.0007182932
-0.0002479943
-0.0004818784
1.566282e-05
-0.0008581733
0.009489069
4.327561e-06
-0.0003738178
-5.722536e-05
0.0003749478
5.365137e-05
-0.001880538
0.01109695
-5.513803e-05
-0.002861959
0.01120458
-5.43685e-05
-0.003729795
0.01115173
-5.133978e-05
-0.004462732
0.01102367
-1.536443e-05
-0.004907543
0.01096335
4.082644e-05
-0.004902428
0.01086379
7.710776e-05
-0.001135539
0.01090935
0.0001145402
-0.0007726055
-0.001109281
-0.0007587594
-0.003439631
9.065218e-06
-0.0007509648
0.003046187
-1.966719e-07
-0.0008829223
0.01037052
8.053789e-06
-0.0004062557
-6.09662e-05
0.00040539
5.524442e-05
-0.001935502
0.01210712
-5.628504e-05
-0.002938716
0.01218172
-5.346173e-05
-0.003819866
0.01203215
-4.963649e-05
-0.004548451
0.01175108
-8.875202e-06
-0.004975007
0.0113714
5.50844e-05
-0.004913721
0.01082284
9.927298e-05
-0.001061324
0.00960632
0.0001566829
-0.0007338309
-0.001068061
-0.0007191015
-6.773353e-06
-0.000544389
0.002196542
4.733613e-06
-0.002711439
-0.000933008
0.01130332
7.58692e-06
-0.0004381464
-6.41845e-05
0.0004371222
5.783871e-05
-0.002049749
0.01317936
-6.026803e-05
-0.003125842
0.0132309
-5.672863e-05
-0.004096972
0.01300444
-5.143255e-05
-0.004965454
0.01262236
-1.024391e-05
-0.005658019
0.01205549
7.20005e-05
-0.006111287
0.01132992
0.0001146426
-0.001587936
0.009721666
0.0002450081
-0.001490855
-0.001562671
-0.00146955
-2.686549e-05
-0.001809084
0.001571593
3.020236e-06
-0.0003909041
-0.0002669132
-0.0004005768
-0.0002682056
-0.001002707
0.01230565
9.150443e-06
-0.0004717928
-6.753196e-05
0.000470825
5.972566e-05
-0.002210871
0.0143389
-6.259292e-05
-0.003392015
0.01438221
-5.779507e-05
-0.004508068
0.01411711
-5.04465e-05
-0.005567985
0.01368455
-2.772941e-07
-0.006646506
0.01308994
0.0001026255
-0.00759994
0.01233739
0.000189165
-0.008933793
0.01100659
0.0004220482
0.009218904
1.737937e-05
-0.001787457
-0.001823313
-0.001743877
-0.001808298
-0.002350273
-0.002785309
-0.002364213
-0.002864002
-0.001081147
0.01338735
8.760851e-06
-0.0005072972
-7.015272e-05
0.0005066774
6.145367e-05
-0.002387402
0.01559433
-6.860226e-05
-0.003674895
0.01563815
-6.555475e-05
-0.004905408
0.01535032
-6.394869e-05
-0.006112139
0.0148943
-1.899028e-05
-0.007327461
0.01430027
4.58094e-05
-0.008616106
0.01361364
0.0001387411
-0.01018139
0.01257848
0.0002471778
0.01160476
0.000223651
-0.01250843
-0.001170072
0.01455782
1.042298e-05
-0.0005453139