/*--------------------------------*- C++ -*----------------------------------*\
  =========                 |
  \\      /  F ield         | OpenFOAM: The Open Source CFD Toolbox
   \\    /   O peration     | Website:  https://openfoam.org
    \\  /    A nd           | Version:  7
     \\/     M anipulation  |
\*---------------------------------------------------------------------------*/
FoamFile
{
    version     2.0;
    format      ascii;
    class       volVectorField;
    location    "0.08";
    object      U;
}
// * * * * * * * * * * * * * * * * * * * * * * * * * * * * * * * * * * * * * //

dimensions      [0 1 -1 0 0 0 0];

internalField   nonuniform List<vector> 
86107
(
(-0.03041584 0.03025355 4.94254e-05)
(-0.04908464 0.03022716 0.0001203988)
(-0.06921259 0.02852772 0.000203937)
(-0.08772874 0.02727108 -1.941084e-05)
(-0.1054947 0.02507571 8.760023e-05)
(-0.1216572 0.02239439 -2.482608e-05)
(-0.1356958 0.01855452 -0.0001335667)
(-0.1470574 0.01410358 -0.0001479069)
(-0.03165412 0.0488953 -6.827274e-05)
(-0.05049511 0.0484813 1.951559e-05)
(-0.07130035 0.04692616 0.0006137644)
(-0.09072164 0.04467883 0.0003897537)
(-0.1094621 0.04132776 0.0003756904)
(-0.1267233 0.03703067 0.0003293934)
(-0.1420572 0.03110353 0.0002924849)
(-0.1548491 0.02382255 0.000226058)
(-0.03186943 0.07042809 -0.000151465)
(-0.05205428 0.06982965 -0.0005659761)
(-0.07357382 0.06772962 7.586833e-05)
(-0.09408899 0.06477374 -0.000164823)
(-0.1141636 0.06035717 -0.0001544792)
(-0.1330861 0.05446132 -0.0001879276)
(-0.1502458 0.04618177 -0.0002000113)
(-0.1651478 0.0358836 -0.0001767312)
(-0.0329237 0.09165209 0.0001145608)
(-0.05377638 0.09113647 -0.0003947178)
(-0.07632644 0.08884379 0.000270297)
(-0.09808979 0.08542873 5.09802e-06)
(-0.1198064 0.08036838 3.000997e-05)
(-0.1409674 0.07330758 -1.107218e-05)
(-0.160755 0.06316528 -5.358678e-05)
(-0.178856 0.05004256 -3.687068e-05)
(-0.03384131 0.1141339 0.0001660539)
(-0.05564711 0.1139569 -0.0004581651)
(-0.079264 0.1117619 0.0002482576)
(-0.1025549 0.1083374 -3.673861e-05)
(-0.126303 0.10324 -3.459225e-05)
(-0.1503586 0.09559637 -6.122479e-05)
(-0.1737475 0.08428175 -0.0001853289)
(-0.1968461 0.06814876 -6.131297e-05)
(-0.03487009 0.1371507 0.0002226953)
(-0.05723698 0.137367 -0.0004272925)
(-0.08191851 0.1354851 0.0002886155)
(-0.1065969 0.1324959 6.181569e-07)
(-0.1325745 0.128097 -3.128357e-05)
(-0.1599785 0.120901 2.734852e-05)
(-0.1885727 0.1095961 -0.0002214117)
(-0.2190944 0.09121799 6.281443e-05)
(-0.03569653 0.1611388 8.563707e-05)
(-0.05861137 0.1618597 -0.0004297028)
(-0.08411097 0.1609174 0.0002557103)
(-0.1099216 0.1590901 -1.409368e-05)
(-0.1379116 0.1568811 -0.0001587036)
(-0.1688558 0.1516124 7.339456e-05)
(-0.203996 0.1441568 -0.0003771862)
(-0.2475839 0.1222489 0.0004258054)
(-0.03593124 0.1852421 0.0001469596)
(-0.05900285 0.186526 -0.0004229284)
(-0.08468096 0.1865431 0.0002425973)
(-0.1105429 0.1862242 -1.414956e-05)
(-0.1399185 0.1871849 -0.0002724895)
(-0.172816 0.1869893 0.0001478179)
(-0.217837 0.1880668 0.0002168633)
(-0.2776138 0.165968 -0.001002062)
(-0.0361057 0.2095626 0.0003134695)
(-0.05909219 0.2114052 -0.0004500904)
(-0.08442539 0.2124886 0.0002231057)
(-0.1092572 0.214336 -5.960902e-05)
(-0.1371502 0.2200984 -0.0005157221)
(-0.1674485 0.2294595 0.0006634636)
(-0.2095493 0.2497659 0.001455314)
(-0.2920071 0.245689 -0.002257571)
(-0.03556491 0.2335984 0.0005186947)
(-0.05812791 0.2355427 -0.0004877433)
(-0.08184446 0.2367279 0.0001500214)
(-0.1030553 0.2387766 -0.0001311286)
(-0.1240282 0.2464677 -0.001099764)
(-0.1393997 0.2585974 0.00117554)
(-0.1562556 0.295091 0.0008688088)
(-0.2025834 0.3883238 0.005237201)
(-0.8624383 0.08157795 0.003090345)
(-0.03583044 0.257153 0.0006734594)
(-0.05818495 0.2584676 -0.0004999724)
(-0.08123457 0.2577912 0.0002274214)
(-0.09941268 0.2568387 -0.0001148608)
(-0.1162518 0.2589574 -0.0006049543)
(-0.1182029 0.2618322 0.001090048)
(-0.1163738 0.2767714 0.00407399)
(-0.1150494 0.3110163 0.005351817)
(-0.03682668 0.28114 0.0007513322)
(-0.05989028 0.2815684 -0.000515471)
(-0.08345392 0.2783486 0.0001690314)
(-0.1017611 0.2735893 -0.0001262146)
(-0.1188959 0.2673441 -0.00122072)
(-0.1197243 0.2573051 0.0008247741)
(-0.1186404 0.2407466 0.001759136)
(-0.1022011 0.2502966 0.01050978)
(-0.03896287 0.306164 0.0008320102)
(-0.06359427 0.3056789 -0.0005608566)
(-0.08914183 0.3001933 0.0002357352)
(-0.1103126 0.2919364 -0.0001945063)
(-0.1322696 0.2801461 -0.0006943494)
(-0.1429799 0.2598971 0.001880971)
(-0.1625412 0.2324646 0.005159044)
(-0.1639971 0.1882355 0.01245054)
(-0.04188973 0.3332252 0.0008904194)
(-0.06871447 0.3323765 -0.0005810979)
(-0.09709272 0.3255798 0.0001149597)
(-0.1217971 0.3164867 -1.460455e-05)
(-0.1504246 0.3023258 -0.001945508)
(-0.1663071 0.284989 0.004954116)
(-0.2147859 0.2516876 0.003082328)
(-0.2078426 0.1950084 0.01951967)
(-0.04509286 0.3624612 0.0009682825)
(-0.07435577 0.3614367 -0.0006704825)
(-0.104993 0.3538854 0.0002288222)
(-0.133588 0.3442718 -0.000501159)
(-0.1633519 0.329426 -0.001127149)
(-0.1901345 0.3141643 0.001452608)
(-0.2238888 0.2867014 0.00850993)
(-0.2672871 0.2855645 0.004740064)
(-0.04884679 0.3942027 0.001070458)
(-0.08065928 0.3931522 -0.000647451)
(-0.1142302 0.3853229 0.0004055991)
(-0.14623 0.3754621 -0.0001059123)
(-0.180447 0.3617621 -0.0004875312)
(-0.2125084 0.3460092 0.001509454)
(-0.2562454 0.3260735 0.00216658)
(-0.2950865 0.3012724 0.005270456)
(-0.05260631 0.4285476 0.001166366)
(-0.08689027 0.4275295 -0.0006944366)
(-0.122681 0.4194698 0.0004890607)
(-0.15712 0.4097142 -0.0002203189)
(-0.1918626 0.3970546 -0.0004089068)
(-0.226298 0.385131 -0.0008536365)
(-0.2631277 0.3690773 -0.001225331)
(-0.3035069 0.3562819 -0.001485695)
(-0.05678168 0.4654719 0.001271006)
(-0.09368605 0.4642292 -0.0006869983)
(-0.1320478 0.4555447 0.0006343974)
(-0.1686927 0.4449471 -3.134787e-05)
(-0.2051329 0.432243 -8.277096e-05)
(-0.2402702 0.4193704 -0.000215472)
(-0.2765743 0.4059656 -0.0005759395)
(-0.3136352 0.3943424 -0.0005581573)
(-0.06136236 0.5054002 0.001373389)
(-0.1010739 0.5037689 -0.0007048594)
(-0.1419465 0.4941353 0.0007181793)
(-0.1804244 0.4824596 -1.044752e-05)
(-0.217458 0.4690039 -1.06525e-05)
(-0.2524552 0.4559578 -0.0002552676)
(-0.2869099 0.4432411 -0.0003835838)
(-0.3212366 0.4341319 -0.0007139459)
(-0.06649826 0.5483581 0.001470359)
(-0.1095415 0.5458068 -0.000726394)
(-0.1533434 0.5343348 0.0008069544)
(-0.1938373 0.5202669 3.246111e-05)
(-0.2316729 0.5045408 0.0001116951)
(-0.2660775 0.4892418 -4.969069e-05)
(-0.2984136 0.4756436 -8.161855e-05)
(-0.3293115 0.4658515 -0.0001425535)
(-0.07296044 0.5955436 0.001578877)
(-0.1200346 0.5918346 -0.0006972301)
(-0.1674587 0.5780522 0.0009479056)
(-0.2102244 0.5608708 0.0001792065)
(-0.2485201 0.5416415 0.0002230106)
(-0.2814029 0.522875 5.086565e-05)
(-0.3103287 0.5068952 2.364844e-05)
(-0.3369528 0.4963697 -3.640907e-05)
(-0.0800735 0.6468316 0.001610505)
(-0.132351 0.641012 -0.0007992441)
(-0.184283 0.6233345 0.0009329699)
(-0.2302896 0.6004574 -5.697787e-05)
(-0.2697509 0.5751578 0.0001919529)
(-0.3009077 0.5504279 -1.557826e-05)
(-0.3249627 0.5308279 0.0001105164)
(-0.3455551 0.5185356 2.201799e-05)
(-0.09040934 0.7052521 0.001747987)
(-0.1492415 0.6975344 -0.0005212578)
(-0.2079595 0.6760627 0.001330616)
(-0.2583223 0.6472568 0.0008722691)
(-0.2984161 0.6133436 0.000646348)
(-0.3256598 0.5791804 0.0006629334)
(-0.3422562 0.5523655 0.0005668798)
(-0.3545466 0.5381722 0.000404397)
(-0.02486371 0.004187249 -0.00167675)
(-0.04431886 0.004022042 -0.002673755)
(-0.06698155 0.003729599 -0.002544947)
(-0.08781124 0.0034403 -0.003232099)
(-0.1073814 0.003256006 -0.002965679)
(-0.1250802 0.002921072 -0.00408766)
(-0.1403147 0.002271285 -0.005632851)
(-0.1529072 0.001610255 -0.005946723)
(-0.004050747 0.02493083 0.001903803)
(-0.03061565 0.03037949 4.461988e-05)
(-0.05070219 0.02923366 -8.067664e-05)
(-0.07013693 0.02747893 5.464136e-05)
(-0.08868903 0.02601359 -5.136427e-05)
(-0.1064619 0.02396167 1.054042e-05)
(-0.1229594 0.02126263 3.968623e-05)
(-0.1369941 0.01739065 0.0001017999)
(-0.1483436 0.01307622 0.0001276157)
(-0.00426462 0.04398397 0.003787193)
(-0.03072756 0.05070359 0.0001515245)
(-0.05136516 0.04936416 4.937108e-05)
(-0.07122721 0.04755066 0.0003728486)
(-0.09079769 0.04543205 0.0002765547)
(-0.1094858 0.04220622 0.0003746219)
(-0.1267396 0.03784134 0.0003221114)
(-0.1421192 0.03188196 0.0002810148)
(-0.1549528 0.02445193 0.0002207564)
(-0.004241975 0.06756879 0.003555542)
(-0.03073963 0.07157445 4.562689e-05)
(-0.05290529 0.06966821 -0.0003474146)
(-0.07349827 0.06771439 1.167893e-05)
(-0.09431917 0.06468472 -8.968718e-05)
(-0.1141695 0.06027117 1.809638e-05)
(-0.1331371 0.0543613 2.713831e-06)
(-0.1502766 0.04603988 1.299212e-05)
(-0.1651687 0.03570759 1.415868e-05)
(-0.004128306 0.09085469 0.003761776)
(-0.03154264 0.09306921 0.0002243361)
(-0.05494478 0.09130787 -0.0002397229)
(-0.07622988 0.08907132 0.0001051333)
(-0.09832346 0.08558748 -1.092223e-05)
(-0.1198088 0.08051852 8.378296e-05)
(-0.141049 0.07345287 6.08299e-05)
(-0.1608406 0.06319813 2.787278e-05)
(-0.1789433 0.05003788 4.316679e-05)
(-0.004296731 0.1142158 0.004301482)
(-0.03242188 0.1155399 0.0001492247)
(-0.05694048 0.1139563 -0.0004001266)
(-0.07913815 0.1117865 -2.11391e-05)
(-0.1028117 0.1083393 -0.00013691)
(-0.1262866 0.1031867 -4.762461e-05)
(-0.1504855 0.09561399 -4.172167e-05)
(-0.1737434 0.08404296 -0.0001367216)
(-0.1969695 0.06799649 1.740711e-05)
(-0.004513621 0.1386042 0.004544429)
(-0.03339074 0.1386318 0.0002534762)
(-0.05858845 0.1374284 -0.0003807128)
(-0.08178056 0.1355086 -8.863822e-06)
(-0.1068826 0.1325295 -0.0001256158)
(-0.1324999 0.1279879 -6.797251e-05)
(-0.160177 0.1208878 2.911404e-06)
(-0.1884843 0.1090052 -0.0002583127)
(-0.2189283 0.09121317 4.564075e-05)
(-0.004773492 0.1635633 0.003915304)
(-0.03436061 0.1628349 0.00018938)
(-0.05990274 0.1618913 -0.0004413637)
(-0.08399848 0.1608778 -5.649255e-05)
(-0.1103044 0.1590666 -0.0001542932)
(-0.137795 0.1566536 -0.0001664433)
(-0.1695656 0.1517468 6.111844e-05)
(-0.20352 0.142923 -0.0005998321)
(-0.2482611 0.1226341 0.0003638914)
(-0.004842508 0.1888788 0.004745048)
(-0.03459582 0.1874603 0.0001511142)
(-0.06037336 0.1865348 -0.000442243)
(-0.08459266 0.1865243 -8.969538e-05)
(-0.1110061 0.1861615 -0.0001717286)
(-0.1397981 0.1867992 -0.000231832)
(-0.1734159 0.1869912 0.000173424)
(-0.2169779 0.185908 -0.000561858)
(-0.2773086 0.1669281 0.0006301396)
(-0.00478574 0.2144443 0.006337322)
(-0.03458768 0.2121358 8.905684e-05)
(-0.06064008 0.2113799 -0.0004616643)
(-0.08437321 0.2124077 -0.0001175423)
(-0.1100425 0.2141875 -0.0001773923)
(-0.1373395 0.2190528 -0.0003394319)
(-0.1705912 0.2290424 0.0003607533)
(-0.208116 0.2464359 -0.0009933486)
(-0.2973613 0.2408593 0.0003786072)
(-0.004622786 0.2399039 0.007373958)
(-0.03386545 0.2364151 3.275945e-05)
(-0.05991035 0.2355657 -0.0004579305)
(-0.08185762 0.2368128 -0.0002581084)
(-0.1044034 0.2388538 -0.0003867977)
(-0.1245958 0.2467682 -0.001116778)
(-0.1458065 0.2591094 -0.0009160014)
(-0.1536571 0.2976022 -0.007893744)
(-0.234714 0.3813869 0.002051023)
(-0.8858902 0.1835779 0.01324332)
(-0.00454596 0.2653952 0.008439551)
(-0.03395901 0.2601729 1.11911e-05)
(-0.06002355 0.2585407 -0.0004335035)
(-0.08119133 0.2578962 -0.0001748661)
(-0.1003906 0.2569897 -0.0002912245)
(-0.1166394 0.2592613 -0.0004500839)
(-0.1204432 0.2623665 -0.0006444886)
(-0.1145419 0.2810735 -0.002342835)
(-0.09631829 0.3131163 0.0005565531)
(-0.004583799 0.2908284 0.00874015)
(-0.03487633 0.2844485 -4.788093e-07)
(-0.06187375 0.2816805 -0.0004083101)
(-0.08334634 0.2785276 -0.0002390691)
(-0.1031046 0.2737409 -0.0002753398)
(-0.1191163 0.2673225 -0.0009490248)
(-0.1241846 0.2577666 -0.0009180638)
(-0.1177086 0.24245 -0.004193469)
(-0.09705217 0.2446827 0.003845548)
(-0.004809155 0.3171764 0.009319408)
(-0.03691396 0.3097961 -1.133198e-06)
(-0.06565091 0.3058122 -0.0004306678)
(-0.08903321 0.3003183 -0.0001663915)
(-0.1112404 0.2922269 -0.0002589183)
(-0.1323067 0.2793123 -0.0003838587)
(-0.1452563 0.2615892 -0.0005329532)
(-0.1556734 0.2204118 -0.002456375)
(-0.1601798 0.159523 -0.003113092)
(-0.00514537 0.3451273 0.009749113)
(-0.03970682 0.3371546 1.338769e-05)
(-0.07103883 0.3324524 -0.0004050142)
(-0.09688153 0.3256977 -0.0002649051)
(-0.1239044 0.3162854 6.04941e-06)
(-0.1496414 0.3019111 -0.001411721)
(-0.1781289 0.2825104 0.001634538)
(-0.1960395 0.2445359 -0.007776577)
(-0.2476999 0.2089287 0.01348351)
(-0.00555095 0.3751862 0.01010063)
(-0.04282732 0.3667412 3.540918e-05)
(-0.07677168 0.3615491 -0.0004842312)
(-0.1051295 0.3542633 -0.0001883687)
(-0.1350636 0.3443502 -0.0003685815)
(-0.1656005 0.3309508 -0.0005999842)
(-0.1954702 0.3130857 -0.001674375)
(-0.2309601 0.2863085 -0.005687957)
(-0.2702079 0.2575288 -0.009101445)
(-0.005998311 0.4075964 0.01045925)
(-0.0463639 0.398808 0.0001022819)
(-0.08314163 0.3932934 -0.0004628468)
(-0.1140243 0.3856713 -0.0001132188)
(-0.1471754 0.3758044 -8.964194e-05)
(-0.1804479 0.3627805 -0.0002201864)
(-0.2143874 0.3486118 0.0004320982)
(-0.2519091 0.3303 -0.001303772)
(-0.2990423 0.3163755 0.005269488)
(-0.006469673 0.4424121 0.01073982)
(-0.0499697 0.4334821 0.0001650476)
(-0.08950162 0.4276473 -0.0005229226)
(-0.122544 0.4197903 -0.0001280306)
(-0.1578902 0.4098712 -0.0003202527)
(-0.1926184 0.3976899 -0.0002342824)
(-0.2273706 0.3850848 -0.0006008185)
(-0.2651945 0.3713835 -0.0006694894)
(-0.3036888 0.3591334 -0.001791294)
(-0.00698531 0.4797992 0.01098977)
(-0.05395208 0.4707776 0.0002719455)
(-0.0963883 0.464374 -0.0005168661)
(-0.1317206 0.4558764 -6.870959e-05)
(-0.1691894 0.4452738 -0.0002091628)
(-0.2051232 0.4328076 -4.055948e-05)
(-0.2405837 0.4202816 3.051796e-05)
(-0.2770642 0.4073831 -2.758512e-05)
(-0.31367 0.3979312 -0.0002107144)
(-0.007557397 0.5198554 0.01120369)
(-0.0583689 0.511081 0.0003802369)
(-0.1039208 0.5038881 -0.0005405108)
(-0.1415734 0.494422 -7.127361e-05)
(-0.1808901 0.4826634 -0.0002779161)
(-0.2174827 0.4693558 -0.000110301)
(-0.2526738 0.4562776 -0.0002029707)
(-0.2873232 0.4439007 -0.0001419115)
(-0.3213084 0.4348853 -0.0004071005)
(-0.008217323 0.5629251 0.01142175)
(-0.06337627 0.5544799 0.0005299687)
(-0.1125239 0.5459707 -0.0005416459)
(-0.1528773 0.5346795 -4.933544e-05)
(-0.194197 0.5206176 -0.000287274)
(-0.2314804 0.5049624 -6.837517e-05)
(-0.2660688 0.4897148 -0.000101556)
(-0.2984081 0.476207 -1.370175e-05)
(-0.3293266 0.4666514 -5.145715e-05)
(-0.009005451 0.6093147 0.01162618)
(-0.06965497 0.6020403 0.0007016004)
(-0.1231527 0.5919235 -0.0005188886)
(-0.1668535 0.5783182 -1.914306e-05)
(-0.2105403 0.5610228 -0.0002481297)
(-0.2483082 0.5420235 -9.797352e-05)
(-0.2813968 0.5232576 -0.0001348422)
(-0.310383 0.5074691 -6.567371e-05)
(-0.3370168 0.4969447 -8.890773e-05)
(-0.009951308 0.6595237 0.01168721)
(-0.07678482 0.6538967 0.0008684203)
(-0.1356343 0.6413225 -0.0005860366)
(-0.1837 0.6238245 -0.000117247)
(-0.2304457 0.6013472 -0.0005345368)
(-0.2692833 0.57588 -0.0001912681)
(-0.3006963 0.5512443 -0.0002963715)
(-0.3247778 0.5315574 -0.0001088646)
(-0.3457015 0.5192248 -0.0001470012)
(-0.01434442 0.7410794 -0.008454747)
(-0.08663199 0.7124306 0.001125703)
(-0.1525536 0.6973582 -0.0004101473)
(-0.2067188 0.6760576 -1.781138e-05)
(-0.2584071 0.6465227 4.90271e-05)
(-0.2983226 0.6138813 -0.0001281194)
(-0.3256281 0.5794154 3.652307e-06)
(-0.3424936 0.5535767 -3.286583e-05)
(-0.3548266 0.5390389 -5.84767e-05)
(-0.0246741 0.003317423 0.001001199)
(-0.05216038 0.008808414 -0.0005801535)
(-0.06709663 0.007933882 0.001362027)
(-0.0871215 0.008416472 0.000149488)
(-0.1035641 0.007447549 0.000385992)
(-0.1194609 0.006624709 0.0003406013)
(-0.1330373 0.005371442 0.0002354982)
(-0.1440426 0.004010523 0.0001778554)
(-0.003329844 0.02514495 -0.0009547075)
(-0.02947855 0.02926691 6.506655e-05)
(-0.04938373 0.02885306 0.001101132)
(-0.06984401 0.02586908 0.001125775)
(-0.08865566 0.02530166 0.001116102)
(-0.1065582 0.02306654 0.001007194)
(-0.1229223 0.02054789 0.0009876405)
(-0.1371728 0.01701026 0.0009588647)
(-0.1487715 0.01284739 0.0008091777)
(-0.00930896 0.05314976 0.0008601362)
(-0.03048203 0.04918553 -0.001013255)
(-0.04995688 0.04794197 9.265378e-05)
(-0.07095098 0.04654902 0.0001611491)
(-0.09070779 0.04435488 0.0002468738)
(-0.1094181 0.04105762 0.00033083)
(-0.1268557 0.036742 0.0002655818)
(-0.1422389 0.03080058 0.0001981938)
(-0.1550921 0.02355719 0.0001418561)
(-0.008919357 0.06971298 -0.0009094934)
(-0.02924726 0.07113036 -0.001023918)
(-0.0517012 0.06938181 -8.32849e-05)
(-0.07304787 0.06720859 -1.405992e-05)
(-0.09395628 0.06425682 0.0001318802)
(-0.1140132 0.05982991 0.0001929281)
(-0.1330605 0.05398577 0.0001910199)
(-0.1502611 0.04575531 0.0001881491)
(-0.1652182 0.03550406 0.0001723926)
(-0.01021781 0.09263678 -1.169147e-05)
(-0.03092924 0.09267933 -0.001152485)
(-0.05352086 0.09106897 -0.0002054378)
(-0.07579667 0.08873499 -0.000153311)
(-0.09793139 0.08527102 -1.866942e-06)
(-0.1196396 0.08019324 4.427871e-05)
(-0.1409607 0.07315428 5.439408e-05)
(-0.1607979 0.0629289 3.150967e-05)
(-0.1789444 0.04985237 6.156274e-05)
(-0.01022008 0.1143719 -0.0004424176)
(-0.03161431 0.1153445 -0.001277634)
(-0.05537647 0.1137935 -0.000326649)
(-0.07865139 0.1116156 -0.0002444966)
(-0.1023661 0.1081727 -7.864663e-05)
(-0.1260718 0.1030306 -3.040455e-05)
(-0.1503489 0.09546718 3.721718e-06)
(-0.1736579 0.08397305 -3.584023e-05)
(-0.1969199 0.06794928 0.0001028006)
(-0.01059808 0.1376615 -0.0001955274)
(-0.0326401 0.13865 -0.001251482)
(-0.05703696 0.1373186 -0.0003457041)
(-0.0812966 0.1354351 -0.0002645472)
(-0.1064247 0.1324401 -0.0001040035)
(-0.132277 0.1279246 -6.882962e-05)
(-0.1600209 0.1208385 -2.238557e-05)
(-0.1883694 0.1089975 -0.0001636241)
(-0.2189708 0.09134608 8.630651e-05)
(-0.01079063 0.1610853 -0.0003066459)
(-0.03338373 0.1627663 -0.001239227)
(-0.05839187 0.161793 -0.0004286431)
(-0.08345664 0.1608137 -0.0002988689)
(-0.1098117 0.1589824 -0.0001403923)
(-0.1375035 0.1565996 -0.0001136198)
(-0.169339 0.1516496 -1.585949e-05)
(-0.2032634 0.142966 -0.0002126432)
(-0.2481851 0.1227584 0.0004911691)
(-0.01081382 0.1848654 -0.0003585196)
(-0.03363129 0.187131 -0.001313796)
(-0.05878725 0.1865163 -0.0004315362)
(-0.08407684 0.1864604 -0.0003338257)
(-0.1105164 0.1861233 -0.0001778499)
(-0.1395577 0.1868467 -0.0001223256)
(-0.1732098 0.1869548 -3.562288e-05)
(-0.2164212 0.1856848 5.009764e-06)
(-0.2771757 0.1672378 0.000702551)
(-0.01073804 0.2089094 -0.000446931)
(-0.03369427 0.2116868 -0.001488609)
(-0.05884139 0.2114328 -0.0004108539)
(-0.08385265 0.2123233 -0.0003721761)
(-0.1094385 0.2140796 -0.0001979556)
(-0.13701 0.2190319 -0.0001144569)
(-0.1700885 0.2285959 -5.197755e-05)
(-0.2081143 0.2451784 0.0001983059)
(-0.2953093 0.2428584 0.0007075694)
(-0.01053424 0.2330967 -0.0002156584)
(-0.03336801 0.2360468 -0.00166126)
(-0.05794005 0.2356686 -0.0003602295)
(-0.08149992 0.2367834 -0.0004790382)
(-0.1038744 0.2388351 -0.0003796301)
(-0.1249515 0.2470106 -0.0005560246)
(-0.1462402 0.2593891 -0.00117512)
(-0.1567561 0.2971723 -0.001938043)
(-0.2542557 0.3771626 -0.0003519198)
(-0.9366648 0.1848543 0.009717357)
(-0.01052519 0.2571656 -3.778675e-05)
(-0.03364124 0.2599139 -0.001774398)
(-0.05786799 0.2586325 -0.0003044712)
(-0.08077967 0.257935 -0.0004307303)
(-0.09956922 0.2571424 -0.0002916989)
(-0.1165441 0.2597533 -8.367741e-05)
(-0.1191312 0.2629419 -0.0004847216)
(-0.1161583 0.2814314 0.0007831235)
(-0.09737422 0.3105732 0.0005985104)
(-0.01081149 0.281698 8.215031e-05)
(-0.0346458 0.2841852 -0.001855773)
(-0.05956637 0.2817245 -0.0002703509)
(-0.08291122 0.2785525 -0.0004496184)
(-0.102112 0.2738636 -0.0003045638)
(-0.118989 0.2676006 -8.826736e-05)
(-0.1223562 0.258034 -0.0005727632)
(-0.1201509 0.2429274 0.00178429)
(-0.1006882 0.2418928 0.001172716)
(-0.01140798 0.3072548 3.703724e-05)
(-0.03663784 0.3094791 -0.001990234)
(-0.06314225 0.3058333 -0.0002939353)
(-0.08850868 0.300361 -0.0004778598)
(-0.1100862 0.2924598 -0.0004151712)
(-0.1318592 0.2797234 -4.165201e-05)
(-0.143447 0.2626013 -0.001052542)
(-0.1587013 0.2219862 0.001794335)
(-0.1604988 0.1568533 -0.0007613542)
(-0.01227352 0.3346781 2.941099e-05)
(-0.03934646 0.3368129 -0.002093864)
(-0.06830728 0.3324493 -0.0002420479)
(-0.09621501 0.3257081 -0.0004020285)
(-0.1224499 0.3165322 -0.0001889261)
(-0.1486179 0.3022806 0.0005321172)
(-0.1750036 0.2842274 -0.0002883074)
(-0.1970899 0.2505596 0.004525453)
(-0.2511738 0.2080378 -0.005751805)
(-0.013245 0.3641944 2.687411e-06)
(-0.04239724 0.3663762 -0.002258835)
(-0.0738477 0.3614948 -0.0003108092)
(-0.1043644 0.3541561 -0.0005771115)
(-0.1335045 0.3443595 -0.000410116)
(-0.1640053 0.330676 -0.0003993977)
(-0.1920838 0.3130457 -0.0004779551)
(-0.228088 0.2853392 0.001542569)
(-0.2682184 0.257391 0.0006236747)
(-0.01435793 0.3961407 4.640715e-05)
(-0.04584136 0.3984552 -0.002330569)
(-0.08009028 0.393213 -0.0002399746)
(-0.1132995 0.3855004 -0.0004747218)
(-0.1458922 0.3756509 -0.0001303152)
(-0.1795266 0.3621807 9.590327e-05)
(-0.2126389 0.3475142 0.0002423941)
(-0.2514456 0.3272222 0.001235472)
(-0.2986262 0.3118114 0.0009032584)
(-0.01550313 0.4306737 7.102998e-05)
(-0.04939808 0.4331655 -0.002453468)
(-0.08632709 0.4275703 -0.0002833568)
(-0.1218428 0.4196401 -0.0005807374)
(-0.1567546 0.409738 -0.0003031021)
(-0.191893 0.3972722 -0.0003171167)
(-0.2264268 0.3844695 -0.0004454888)
(-0.26413 0.3698635 -0.0006444742)
(-0.3036783 0.3580863 -0.0003413126)
(-0.0167608 0.4679016 0.0001544792)
(-0.05330735 0.470479 -0.002498516)
(-0.09309394 0.4643042 -0.0002356789)
(-0.1310254 0.4557424 -0.0005173519)
(-0.1681614 0.4451573 -0.0001565303)
(-0.2046307 0.4325025 -9.45482e-05)
(-0.2400345 0.4198014 -8.238023e-05)
(-0.2766924 0.4064571 2.792107e-05)
(-0.3133243 0.3965638 -3.790247e-05)
(-0.01816608 0.5082098 0.0002741077)
(-0.05766569 0.5108133 -0.002563359)
(-0.1004993 0.5038329 -0.0002265693)
(-0.1408838 0.4943143 -0.0005515157)
(-0.1798998 0.4825784 -0.0002021002)
(-0.2170668 0.4691777 -0.0002016346)
(-0.2522886 0.4560345 -0.0002515256)
(-0.2870191 0.4434519 -0.0002836461)
(-0.3211489 0.4344683 -0.0003605045)
(-0.01975074 0.5518176 0.0004601148)
(-0.06267257 0.5542071 -0.002596888)
(-0.1089804 0.5459082 -0.0002013675)
(-0.1521796 0.5345652 -0.0005271293)
(-0.1932095 0.5205355 -0.0001540012)
(-0.2311139 0.5048067 -0.0001121314)
(-0.2657715 0.4895139 -0.0001066348)
(-0.2982414 0.4759027 -5.149827e-05)
(-0.329221 0.4662719 -8.251363e-05)
(-0.0217439 0.5997215 0.0006323505)
(-0.06888713 0.601805 -0.002647559)
(-0.1194758 0.5918552 -0.0001736273)
(-0.1661512 0.5782072 -0.0005426613)
(-0.2095642 0.5609493 -0.0001429382)
(-0.2479899 0.5419077 -0.0001570395)
(-0.2811494 0.5231146 -0.0001413877)
(-0.310252 0.5072382 -0.0001200601)
(-0.3369501 0.4966981 -0.0001352716)
(-0.02399542 0.6522318 0.001052336)
(-0.07617759 0.653561 -0.002651511)
(-0.1318605 0.6411447 -0.0001904635)
(-0.1829826 0.6235534 -0.0005792121)
(-0.229451 0.6011059 -0.0002192947)
(-0.2689886 0.5755297 -0.0001467988)
(-0.3005197 0.5509122 -0.000146197)
(-0.3247218 0.531198 -8.304574e-05)
(-0.3456603 0.5188973 -0.0001002434)
(-0.02712024 0.7116542 0.001161763)
(-0.08591332 0.7122672 -0.002720397)
(-0.1486985 0.6971551 -0.0001189864)
(-0.2060721 0.6757976 -0.0006395044)
(-0.2575173 0.6464531 -0.0001116299)
(-0.2981464 0.6136386 -0.0003149708)
(-0.3254552 0.5791988 -0.0001736621)
(-0.3423977 0.5530529 -0.0001822807)
(-0.354791 0.5385759 -0.0001073066)
(-0.0249986 0.002963541 -6.534658e-05)
(-0.05294833 0.007839157 -0.0005090621)
(-0.06784923 0.007596429 -0.0002805085)
(-0.0878768 0.008300723 -0.0001457007)
(-0.1046715 0.00733469 -0.0002595061)
(-0.1208013 0.006585685 -0.0002898446)
(-0.1343361 0.005364392 -0.0003609331)
(-0.1453608 0.004036939 -0.0002963859)
(-0.003115292 0.02458436 8.761697e-05)
(-0.02941119 0.02931531 5.557082e-05)
(-0.04956428 0.02949778 0.0002428094)
(-0.07008876 0.02613836 2.033098e-05)
(-0.08871478 0.02555276 3.512432e-05)
(-0.106465 0.02318422 -1.029284e-05)
(-0.122746 0.02076221 -1.702237e-07)
(-0.1368686 0.01723768 -3.85008e-05)
(-0.1483614 0.01307529 -1.083787e-05)
(-0.008271959 0.05305338 0.0003518172)
(-0.03118417 0.04951343 -9.688473e-05)
(-0.05005423 0.04808181 7.171827e-05)
(-0.07112952 0.04667518 -1.614508e-05)
(-0.09076693 0.04444778 2.000559e-05)
(-0.1094084 0.04112681 3.062458e-06)
(-0.1268005 0.03682463 2.051403e-05)
(-0.1421086 0.03087691 -1.8841e-05)
(-0.154906 0.02362912 -3.764632e-06)
(-0.008763194 0.07049699 0.0006039444)
(-0.0297495 0.07151231 0.0001474772)
(-0.05184936 0.06957157 0.0001538255)
(-0.07323376 0.06738532 5.002447e-05)
(-0.09406467 0.06436991 5.263491e-05)
(-0.1140434 0.05990505 4.582364e-05)
(-0.1330427 0.05405761 4.65209e-05)
(-0.1501698 0.04579007 1.860038e-05)
(-0.1650753 0.03556627 3.574161e-05)
(-0.01013346 0.09361204 0.0007093137)
(-0.03120662 0.09280801 0.0002064724)
(-0.05367518 0.09114829 0.0001355535)
(-0.07593158 0.08885087 4.587846e-05)
(-0.09804452 0.08533838 3.516082e-05)
(-0.1196678 0.08022749 2.932788e-05)
(-0.1409712 0.07318985 3.273609e-05)
(-0.1607305 0.06290384 -1.122727e-05)
(-0.178826 0.04993552 3.434486e-05)
(-0.01004642 0.1155883 0.0005267951)
(-0.03184956 0.1153561 0.0001939277)
(-0.05553007 0.1138536 7.089237e-05)
(-0.07877121 0.111684 1.062438e-05)
(-0.1024915 0.1082086 -1.292325e-05)
(-0.1261015 0.1030164 -1.674221e-05)
(-0.1503977 0.0954679 -5.009508e-06)
(-0.1735599 0.08382872 -8.15982e-05)
(-0.1968385 0.06804199 6.714717e-05)
(-0.01038682 0.1390552 0.0005670119)
(-0.03282587 0.1385622 0.0002296726)
(-0.05720186 0.1373472 7.379453e-05)
(-0.08140631 0.1354563 5.646882e-06)
(-0.1065671 0.1324382 -2.333756e-05)
(-0.1322984 0.1278417 -4.2014e-05)
(-0.1601506 0.1207753 -1.898622e-05)
(-0.1882492 0.1087369 -0.000211151)
(-0.2188539 0.09171756 8.590786e-05)
(-0.01054862 0.162839 0.0004723476)
(-0.03352655 0.1626214 0.0002037562)
(-0.05855405 0.1618112 3.464965e-05)
(-0.08357311 0.160794 -2.468465e-05)
(-0.1100018 0.1589452 -5.557664e-05)
(-0.1375498 0.1565046 -9.882749e-05)
(-0.1695768 0.1515226 -5.200505e-05)
(-0.2029918 0.1422786 -0.0002811667)
(-0.2480202 0.1230949 0.000516278)
(-0.01061628 0.1870798 0.0005612987)
(-0.03384808 0.1870062 0.0002154813)
(-0.0589845 0.1865482 3.933308e-05)
(-0.08422163 0.1864213 -4.103984e-05)
(-0.1107145 0.186038 -7.359277e-05)
(-0.13961 0.1866539 -9.249747e-05)
(-0.1729928 0.1865847 -0.0001056956)
(-0.2159598 0.1846695 -1.283413e-05)
(-0.2751975 0.1680863 0.0007743939)
(-0.01063897 0.2113903 0.0006613227)
(-0.03407451 0.2115427 0.0002039726)
(-0.05911224 0.2114398 3.631025e-05)
(-0.08407808 0.2122209 -6.887291e-05)
(-0.1097719 0.2139107 -0.0001123665)
(-0.1372274 0.2184607 -0.0001776275)
(-0.1705123 0.2276503 -0.0002084534)
(-0.2071653 0.2432214 -0.000500886)
(-0.2941129 0.2433056 0.000436031)
(-0.01049447 0.2357014 0.0008169635)
(-0.03385042 0.2358799 0.0002369839)
(-0.05832271 0.2356686 4.042904e-05)
(-0.08181773 0.236735 -0.0001411984)
(-0.1045267 0.238734 -0.0002566102)
(-0.1255003 0.2467965 -0.0006355356)
(-0.1478464 0.2587636 -0.001157996)
(-0.1588391 0.2945762 -0.001695331)
(-0.2595215 0.3750011 0.0004177412)
(-0.9658291 0.1792145 0.005045213)
(-0.01051211 0.2599597 0.000880174)
(-0.03417353 0.2597368 0.0002517704)
(-0.0582718 0.2586641 4.956792e-05)
(-0.08111053 0.2579564 -0.0001132159)
(-0.1000673 0.2571123 -0.0002465396)
(-0.1169045 0.2598411 -0.0003430692)
(-0.1194673 0.2629925 -0.0006697964)
(-0.1162545 0.2805369 -0.0006131243)
(-0.09607832 0.3093945 0.0002004924)
(-0.01079631 0.2847789 0.0009672338)
(-0.03519797 0.2839996 0.0002929278)
(-0.06001155 0.281762 7.621017e-05)
(-0.08327439 0.2785525 -0.0001143026)
(-0.1027082 0.2736807 -0.0002660123)
(-0.1195083 0.2674449 -0.0003744897)
(-0.1228811 0.2569781 -0.0006476633)
(-0.1197439 0.2433657 -0.0004554058)
(-0.1018431 0.2394126 -0.0005939816)
(-0.0114109 0.3106763 0.001015167)
(-0.03727861 0.3093323 0.0002830402)
(-0.06363026 0.3059488 4.131139e-05)
(-0.08901847 0.3004771 -0.0001658637)
(-0.1107112 0.2924529 -0.0004924262)
(-0.1330458 0.2800127 -0.0005342507)
(-0.1436274 0.2617151 -0.001734093)
(-0.1623745 0.2251939 -0.0006833415)
(-0.1622443 0.1606739 -0.00291654)
(-0.01228048 0.3383776 0.001153595)
(-0.04002299 0.3366549 0.0003597046)
(-0.06877946 0.3325644 0.0001293957)
(-0.09666882 0.3257228 -4.388035e-05)
(-0.1227841 0.3164444 -0.0002465659)
(-0.1497766 0.3015812 3.371113e-05)
(-0.173075 0.2837285 -0.0007913997)
(-0.2039097 0.2489492 0.001930492)
(-0.2366217 0.2167568 -0.00790232)
(-0.01327557 0.3682382 0.001220709)
(-0.04318131 0.3662573 0.0003442141)
(-0.07448258 0.3616933 8.118803e-05)
(-0.1050604 0.3543246 -0.0002089555)
(-0.1347174 0.3445495 -0.0005288458)
(-0.1658281 0.3306224 -0.0009426204)
(-0.1960822 0.3142234 -0.001917067)
(-0.2330424 0.2905739 -0.003818261)
(-0.2766932 0.264862 -0.005594294)
(-0.01439631 0.4005013 0.001326067)
(-0.04664751 0.3983467 0.0004106921)
(-0.08063106 0.3934699 0.0001969746)
(-0.1137269 0.3858034 -2.481941e-05)
(-0.1464323 0.3760498 -0.0001335223)
(-0.1800662 0.3629783 -0.0001464701)
(-0.2134433 0.3490585 -0.0003496339)
(-0.2517087 0.3310928 -0.000429722)
(-0.2927076 0.3155121 -6.326669e-05)
(-0.01555066 0.4353349 0.001459956)
(-0.05027491 0.4330249 0.0004647182)
(-0.08693761 0.4278082 0.0001956278)
(-0.1223677 0.4198855 -7.90738e-05)
(-0.1574562 0.4099722 -0.000265671)
(-0.1926731 0.3976191 -0.000434682)
(-0.2276085 0.3848955 -0.0007927495)
(-0.2651549 0.370401 -0.001227721)
(-0.304658 0.3589791 -0.001520557)
(-0.01680627 0.4729642 0.001616552)
(-0.05421183 0.4703559 0.0005781059)
(-0.09366783 0.4646006 0.0002901193)
(-0.1314273 0.4560546 5.389214e-05)
(-0.1685817 0.4455029 -5.228164e-05)
(-0.2049363 0.433037 -5.921688e-05)
(-0.2403948 0.420588 -0.0001694116)
(-0.2769991 0.4078369 -0.0001901686)
(-0.313759 0.3982 -0.0003000308)
(-0.01824038 0.5136149 0.001741536)
(-0.05865046 0.510659 0.000645652)
(-0.1011251 0.504114 0.0003259097)
(-0.1413211 0.4945818 6.469416e-05)
(-0.1803468 0.4828109 -6.457938e-05)
(-0.2174059 0.4694562 -0.0001140172)
(-0.2526738 0.4563316 -0.0002567805)
(-0.2873511 0.4438412 -0.000362705)
(-0.3215168 0.4348652 -0.0005149836)