/*--------------------------------*- C++ -*----------------------------------*\
  =========                 |
  \\      /  F ield         | OpenFOAM: The Open Source CFD Toolbox
   \\    /   O peration     | Website:  https://openfoam.org
    \\  /    A nd           | Version:  7
     \\/     M anipulation  |
\*---------------------------------------------------------------------------*/
FoamFile
{
    version     2.0;
    format      ascii;
    class       volScalarField;
    location    "0.09";
    object      nut;
}
// * * * * * * * * * * * * * * * * * * * * * * * * * * * * * * * * * * * * * //

dimensions      [0 2 -1 0 0 0 0];

internalField   nonuniform List<scalar> 
109978
(
0.0006613882
0.0006423299
0.0006401285
0.0006394679
0.0006390786
0.0006389325
0.0006432415
0.000610785
0.0006073506
0.0006066342
0.0006063458
0.0006063363
0.000640899
0.0006071346
0.0006033957
0.0006026476
0.0006024062
0.0006024882
0.0006400986
0.0006062444
0.0006024909
0.0006017694
0.0006015797
0.0006017244
0.0006395296
0.0006056939
0.0006019547
0.0006012622
0.0006011057
0.0006012884
0.0006390808
0.0006052774
0.0006015654
0.0006009061
0.0006007752
0.000600989
0.0006386972
0.0006049194
0.0006012231
0.0006005827
0.0006004769
0.0006007142
0.0006383664
0.0006046085
0.0006009281
0.0006003053
0.0006002218
0.0006004736
0.000638074
0.0006043315
0.0006006619
0.0006000518
0.0005999808
0.0006002481
0.0006378137
0.000604083
0.0006004224
0.0005998214
0.0005997609
0.0006000415
0.0006375794
0.0006038598
0.0006002038
0.0005996101
0.0005995574
0.0005998496
0.0006373671
0.0006036564
0.000600004
0.0005994163
0.00059937
0.0005996683
0.0006371735
0.0006034699
0.0005998204
0.0005992375
0.0005991961
0.0005994995
0.0006369967
0.000603298
0.0005996519
0.000599072
0.0005990342
0.0005993419
0.0006368393
0.0006031393
0.0005994956
0.0005989183
0.0005988834
0.0005991947
0.0006366953
0.0006029927
0.0005993501
0.0005987755
0.000598743
0.0005990574
0.0006365618
0.0006028568
0.0005992146
0.000598643
0.0005986135
0.0005989296
0.000636438
0.0006027307
0.0005990907
0.0005985221
0.0005984937
0.0005988114
0.0006363234
0.0006026155
0.0005989784
0.0005984138
0.0005983863
0.000598705
0.0006362197
0.0006025161
0.0005988853
0.0005983261
0.0005983
0.0005986196
0.0006361387
0.0006024574
0.0005988431
0.0005982942
0.0005982708
0.0005985902
0.0006361306
0.0006025194
0.0005989485
0.0005984195
0.0005983975
0.000598705
0.000100625
0.0006027732
0.0005992695
0.0005987692
0.000598737
0.0005989938
0.0001022062
0.000101988
0.0001019088
0.0001017631
0.0001016276
0.0001015072
0.0001006814
0.0001006086
0.000100601
0.0001005673
0.0001005566
0.0001005504
0.000100643
0.000100589
0.0001005731
0.0001005622
0.0001005569
0.0001005535
0.0001005816
0.0001005728
0.0001005684
0.0001005627
0.0001005591
0.0001005558
0.0001005726
0.0001005642
0.0001005597
0.000100556
0.0001005534
0.0001005513
0.0001005621
0.0001005565
0.0001005555
0.0001005536
0.0001005522
0.0001005508
0.0001005591
0.000100553
0.0001005521
0.0001005508
0.0001005498
0.0001005488
0.0001005563
0.0001005499
0.0001005497
0.000100549
0.0001005484
0.0001005478
0.0001005546
0.0001005481
0.0001005479
0.0001005475
0.0001005471
0.0001005466
0.0001005531
0.0001005466
0.0001005466
0.0001005463
0.0001005461
0.0001005458
0.0001005519
0.0001005455
0.0001005456
0.0001005454
0.0001005453
0.0001005451
0.000100551
0.0001005447
0.0001005448
0.0001005447
0.0001005446
0.0001005445
0.0001005502
0.000100544
0.0001005441
0.000100544
0.000100544
0.0001005439
0.0001005495
0.0001005434
0.0001005436
0.0001005435
0.0001005435
0.0001005435
0.0001005489
0.000100543
0.0001005431
0.0001005431
0.0001005431
0.0001005431
0.0001005483
0.0001005426
0.0001005427
0.0001005427
0.0001005427
0.0001005427
0.0001005478
0.0001005423
0.0001005424
0.0001005424
0.0001005424
0.0001005424
0.0001005474
0.000100542
0.0001005421
0.0001005421
0.0001005421
0.0001005421
0.000100547
0.0001005417
0.0001005418
0.0001005418
0.0001005419
0.0001005419
0.0001005466
0.0001005415
0.0001005416
0.0001005416
0.0001005417
0.0001005417
0.0001005463
0.0001005413
0.0001005414
0.0001005414
0.0001005415
0.0001005415
0.000100546
0.0001005411
0.0001005412
0.0001005412
0.0001005413
0.0001005413
0.0001005457
0.000100541
0.000100541
0.0001005411
0.0001005411
0.0001005411
0.0001005451
0.0001005408
0.0001005409
0.0001005409
0.000100541
0.000100541
0.0001024204
0.0001017583
0.0001017376
0.0001016239
0.0001015251
0.0001014291
0.000100631
0.0001005945
0.0001006022
0.000100565
0.000100555
0.0001005484
0.0001006393
0.000100589
0.0001005724
0.0001005614
0.0001005553
0.0001005516
0.0001005669
0.0001005711
0.0001005688
0.0001005636
0.0001005595
0.0001005561
0.0001005602
0.0001005635
0.0001005594
0.0001005558
0.000100553
0.000100551
0.0001005548
0.0001005557
0.0001005553
0.0001005535
0.000100552
0.0001005505
0.0001005529
0.0001005524
0.0001005519
0.0001005507
0.0001005495
0.0001005485
0.0001005515
0.0001005493
0.0001005496
0.0001005489
0.0001005482
0.0001005475
0.0001005505
0.0001005476
0.0001005478
0.0001005474
0.0001005469
0.0001005464
0.0001005497
0.0001005462
0.0001005465
0.0001005462
0.0001005459
0.0001005456
0.000100549
0.0001005452
0.0001005455
0.0001005453
0.0001005451
0.0001005449
0.0001005484
0.0001005444
0.0001005446
0.0001005445
0.0001005444
0.0001005443
0.0001005479
0.0001005437
0.000100544
0.0001005439
0.0001005438
0.0001005437
0.0001005474
0.0001005432
0.0001005434
0.0001005434
0.0001005433
0.0001005433
0.000100547
0.0001005428
0.000100543
0.0001005429
0.0001005429
0.0001005429
0.0001005466
0.0001005424
0.0001005426
0.0001005426
0.0001005425
0.0001005425
0.0001005462
0.0001005421
0.0001005422
0.0001005422
0.0001005422
0.0001005422
0.0001005459
0.0001005418
0.000100542
0.000100542
0.000100542
0.000100542
0.0001005456
0.0001005416
0.0001005417
0.0001005417
0.0001005417
0.0001005417
0.0001005454
0.0001005414
0.0001005415
0.0001005415
0.0001005415
0.0001005415
0.0001005451
0.0001005412
0.0001005413
0.0001005413
0.0001005413
0.0001005413
0.0001005449
0.000100541
0.0001005411
0.0001005411
0.0001005411
0.0001005411
0.0001005446
0.0001005409
0.0001005409
0.0001005409
0.000100541
0.000100541
0.0001005444
0.0001005407
0.0001005408
0.0001005408
0.0001005408
0.0001005408
0.0001024049
0.0001017144
0.0001017285
0.0001016121
0.0001014893
0.000101386
0.0001006174
0.0001005886
0.0001006066
0.0001005655
0.0001005552
0.0001005487
0.000100642
0.0001005887
0.0001005727
0.0001005611
0.0001005547
0.0001005511
0.0001005662
0.0001005709
0.0001005679
0.000100563
0.0001005593
0.0001005557
0.0001005638
0.0001005633
0.0001005592
0.0001005556
0.0001005528
0.0001005508
0.0001005557
0.0001005553
0.000100555
0.0001005535
0.0001005519
0.0001005505
0.0001005539
0.0001005524
0.0001005519
0.0001005506
0.0001005494
0.0001005484
0.0001005519
0.0001005493
0.0001005495
0.0001005488
0.0001005482
0.0001005475
0.0001005508
0.0001005476
0.0001005478
0.0001005473
0.0001005469
0.0001005464
0.0001005498
0.0001005462
0.0001005465
0.0001005462
0.0001005459
0.0001005456
0.0001005491
0.0001005452
0.0001005454
0.0001005453
0.0001005451
0.0001005448
0.0001005484
0.0001005444
0.0001005446
0.0001005445
0.0001005444
0.0001005442
0.0001005479
0.0001005437
0.000100544
0.0001005439
0.0001005438
0.0001005437
0.0001005474
0.0001005432
0.0001005434
0.0001005434
0.0001005433
0.0001005433
0.0001005469
0.0001005428
0.000100543
0.0001005429
0.0001005429
0.0001005429
0.0001005465
0.0001005424
0.0001005426
0.0001005426
0.0001005426
0.0001005425
0.0001005462
0.0001005421
0.0001005422
0.0001005422
0.0001005422
0.0001005422
0.0001005459
0.0001005418
0.0001005419
0.000100542
0.000100542
0.000100542
0.0001005456
0.0001005416
0.0001005417
0.0001005417
0.0001005417
0.0001005417
0.0001005453
0.0001005413
0.0001005415
0.0001005415
0.0001005415
0.0001005415
0.000100545
0.0001005412
0.0001005413
0.0001005413
0.0001005413
0.0001005413
0.0001005448
0.000100541
0.0001005411
0.0001005411
0.0001005411
0.0001005411
0.0001005446
0.0001005408
0.0001005409
0.0001005409
0.000100541
0.000100541
0.0001005444
0.0001005407
0.0001005408
0.0001005408
0.0001005408
0.0001005408
0.0001023297
0.0001016672
0.0001016911
0.0001016026
0.0001015108
0.0001014161
0.0001006132
0.0001005864
0.0001006071
0.0001005652
0.0001005552
0.0001005481
0.0001006374
0.0001005885
0.0001005716
0.0001005611
0.0001005553
0.0001005514
0.0001005663
0.0001005707
0.0001005667
0.0001005611
0.0001005578
0.0001005548
0.0001005644
0.0001005627
0.0001005588
0.0001005553
0.0001005527
0.0001005507
0.0001005555
0.000100555
0.000100555
0.0001005534
0.0001005519
0.0001005505
0.0001005538
0.0001005523
0.0001005519
0.0001005506
0.0001005494
0.0001005484
0.0001005519
0.0001005492
0.0001005495
0.0001005488
0.0001005482
0.0001005475
0.0001005508
0.0001005475
0.0001005478
0.0001005473
0.0001005469
0.0001005464
0.0001005498
0.0001005461
0.0001005464
0.0001005462
0.0001005459
0.0001005456
0.0001005491
0.0001005451
0.0001005454
0.0001005453
0.0001005451
0.0001005449
0.0001005484
0.0001005443
0.0001005446
0.0001005445
0.0001005444
0.0001005442
0.0001005479
0.0001005437
0.0001005439
0.0001005439
0.0001005438
0.0001005437
0.0001005474
0.0001005432
0.0001005434
0.0001005434
0.0001005433
0.0001005433
0.0001005469
0.0001005427
0.0001005429
0.0001005429
0.0001005429
0.0001005429
0.0001005465
0.0001005424
0.0001005426
0.0001005426
0.0001005425
0.0001005425
0.0001005462
0.0001005421
0.0001005422
0.0001005422
0.0001005422
0.0001005422
0.0001005458
0.0001005418
0.0001005419
0.0001005419
0.000100542
0.000100542
0.0001005456
0.0001005415
0.0001005417
0.0001005417
0.0001005417
0.0001005417
0.0001005453
0.0001005413
0.0001005414
0.0001005415
0.0001005415
0.0001005415
0.000100545
0.0001005411
0.0001005412
0.0001005413
0.0001005413
0.0001005413
0.0001005448
0.000100541
0.0001005411
0.0001005411
0.0001005411
0.0001005411
0.0001005446
0.0001005408
0.0001005409
0.0001005409
0.000100541
0.000100541
0.0001005444
0.0001005407
0.0001005408
0.0001005408
0.0001005408
0.0001005408
0.0001023682
0.0001016269
0.0001016828
0.0001015885
0.0001014869
0.0001013875
0.0001006127
0.0001005861
0.000100607
0.0001005652
0.0001005553
0.0001005481
0.0001006348
0.0001005884
0.0001005716
0.0001005611
0.0001005554
0.0001005515
0.0001005662
0.0001005707
0.0001005667
0.0001005611
0.0001005578
0.0001005548
0.0001005651
0.0001005627
0.0001005588
0.0001005553
0.0001005527
0.0001005507
0.0001005555
0.000100555
0.000100555
0.0001005534
0.0001005519
0.0001005505
0.0001005539
0.0001005523
0.0001005519
0.0001005506
0.0001005494
0.0001005484
0.0001005519
0.0001005492
0.0001005495
0.0001005488
0.0001005482
0.0001005475
0.0001005508
0.0001005475
0.0001005478
0.0001005473
0.0001005469
0.0001005464
0.0001005498
0.0001005461
0.0001005464
0.0001005462
0.0001005459
0.0001005456
0.0001005491
0.0001005451
0.0001005454
0.0001005453
0.0001005451
0.0001005449
0.0001005484
0.0001005443
0.0001005446
0.0001005445
0.0001005444
0.0001005442
0.0001005479
0.0001005437
0.0001005439
0.0001005439
0.0001005438
0.0001005437
0.0001005474
0.0001005432
0.0001005434
0.0001005434
0.0001005433
0.0001005433
0.0001005469
0.0001005427
0.0001005429
0.0001005429
0.0001005429
0.0001005429
0.0001005465
0.0001005424
0.0001005426
0.0001005426
0.0001005425
0.0001005425
0.0001005462
0.0001005421
0.0001005422
0.0001005422
0.0001005422
0.0001005422
0.0001005459
0.0001005418
0.0001005419
0.0001005419
0.000100542
0.000100542
0.0001005456
0.0001005415
0.0001005417
0.0001005417
0.0001005417
0.0001005417
0.0001005453
0.0001005413
0.0001005414
0.0001005415
0.0001005415
0.0001005415
0.000100545
0.0001005411
0.0001005412
0.0001005413
0.0001005413
0.0001005413
0.0001005448
0.000100541
0.0001005411
0.0001005411
0.0001005411
0.0001005411
0.0001005446
0.0001005408
0.0001005409
0.0001005409
0.000100541
0.000100541
0.0001005444
0.0001005407
0.0001005408
0.0001005408
0.0001005408
0.0001005408
0.0001024009
0.0001016277
0.0001016769
0.0001015996
0.0001015027
0.0001014061
0.000100616
0.0001005885
0.0001006066
0.0001005655
0.0001005551
0.0001005486
0.0001006325
0.0001005887
0.0001005727
0.0001005611
0.0001005547
0.0001005511
0.0001005663
0.0001005709
0.000100568
0.000100563
0.0001005593
0.0001005558
0.0001005648
0.0001005633
0.0001005592
0.0001005556
0.0001005528
0.0001005508
0.0001005556
0.0001005553
0.000100555
0.0001005535
0.0001005519
0.0001005505
0.0001005539
0.0001005524
0.0001005519
0.0001005506
0.0001005494
0.0001005484
0.0001005519
0.0001005493
0.0001005495
0.0001005488
0.0001005482
0.0001005475
0.0001005508
0.0001005476
0.0001005478
0.0001005473
0.0001005469
0.0001005464
0.0001005499
0.0001005462
0.0001005465
0.0001005462
0.0001005459
0.0001005456
0.0001005491
0.0001005452
0.0001005454
0.0001005453
0.0001005451
0.0001005448
0.0001005484
0.0001005444
0.0001005446
0.0001005445
0.0001005444
0.0001005442
0.0001005479
0.0001005437
0.000100544
0.0001005439
0.0001005438
0.0001005437
0.0001005474
0.0001005432
0.0001005434
0.0001005434
0.0001005433
0.0001005433
0.000100547
0.0001005428
0.000100543
0.0001005429
0.0001005429
0.0001005429
0.0001005466
0.0001005424
0.0001005426
0.0001005426
0.0001005425
0.0001005425
0.0001005462
0.0001005421
0.0001005422
0.0001005422
0.0001005422
0.0001005422
0.0001005459
0.0001005418
0.0001005419
0.0001005419
0.000100542
0.000100542
0.0001005456
0.0001005416
0.0001005417
0.0001005417
0.0001005417
0.0001005417
0.0001005453
0.0001005413
0.0001005415
0.0001005415
0.0001005415
0.0001005415
0.000100545
0.0001005412
0.0001005413
0.0001005413
0.0001005413
0.0001005413
0.0001005448
0.000100541
0.0001005411
0.0001005411
0.0001005411
0.0001005411
0.0001005446
0.0001005408
0.0001005409
0.0001005409
0.000100541
0.000100541
0.0001005444
0.0001005407
0.0001005408
0.0001005408
0.0001005408
0.0001005408
0.0001023508
0.0001016506
0.0001016805
0.0001016143
0.0001015197
0.0001014203
0.0001006238
0.0001005946
0.000100602
0.0001005649
0.0001005549
0.0001005483
0.0001006265
0.0001005889
0.0001005724
0.0001005615
0.0001005553
0.0001005517
0.0001005671
0.0001005711
0.0001005688
0.0001005636
0.0001005595
0.0001005561
0.0001005655
0.0001005635
0.0001005594
0.0001005558
0.000100553
0.000100551
0.0001005557
0.0001005557
0.0001005553
0.0001005535
0.000100552
0.0001005505
0.0001005539
0.0001005523
0.0001005519
0.0001005507
0.0001005495
0.0001005485
0.000100552
0.0001005493
0.0001005496
0.0001005489
0.0001005482
0.0001005475
0.0001005508
0.0001005476
0.0001005478
0.0001005474
0.0001005469
0.0001005464
0.0001005499
0.0001005462
0.0001005465
0.0001005462
0.0001005459
0.0001005456
0.0001005491
0.0001005452
0.0001005455
0.0001005453
0.0001005451
0.0001005449
0.0001005485
0.0001005444
0.0001005446
0.0001005445
0.0001005444
0.0001005443
0.0001005479
0.0001005437
0.000100544
0.0001005439
0.0001005438
0.0001005437
0.0001005474
0.0001005432
0.0001005434
0.0001005434
0.0001005433
0.0001005433
0.000100547
0.0001005428
0.000100543
0.0001005429
0.0001005429
0.0001005429
0.0001005466
0.0001005424
0.0001005426
0.0001005426
0.0001005425
0.0001005425
0.0001005462
0.0001005421
0.0001005422
0.0001005422
0.0001005422
0.0001005422
0.0001005459
0.0001005418
0.0001005419
0.000100542
0.000100542
0.000100542
0.0001005456
0.0001005416
0.0001005417
0.0001005417
0.0001005417
0.0001005417
0.0001005453
0.0001005414
0.0001005415
0.0001005415
0.0001005415
0.0001005415
0.0001005451
0.0001005412
0.0001005413
0.0001005413
0.0001005413
0.0001005413
0.0001005448
0.000100541
0.0001005411
0.0001005411
0.0001005411
0.0001005411
0.0001005446
0.0001005408
0.0001005409
0.0001005409
0.000100541
0.000100541
0.0001005444
0.0001005407
0.0001005408
0.0001005408
0.0001005408
0.0001005408
0.0001020925
0.0001017363
0.0001017541
0.0001016555
0.0001015426
0.0001014356
0.0001006418
0.0001006085
0.000100601
0.0001005672
0.0001005566
0.0001005503
0.0001006205
0.000100589
0.0001005731
0.0001005622
0.000100557
0.0001005535
0.0001005703
0.0001005727
0.0001005684
0.0001005626
0.0001005591
0.0001005558
0.0001005668
0.000100564
0.0001005597
0.000100556
0.0001005534
0.0001005513
0.0001005578
0.0001005564
0.0001005554
0.0001005536
0.0001005522
0.0001005508
0.0001005556
0.0001005529
0.000100552
0.0001005508
0.0001005498
0.0001005488
0.0001005534
0.0001005499
0.0001005497
0.000100549
0.0001005484
0.0001005478
0.000100552
0.000100548
0.0001005479
0.0001005475
0.0001005471
0.0001005467
0.0001005509
0.0001005465
0.0001005466
0.0001005463
0.0001005461
0.0001005458
0.00010055
0.0001005455
0.0001005456
0.0001005454
0.0001005453
0.0001005451
0.0001005492
0.0001005446
0.0001005448
0.0001005447
0.0001005446
0.0001005445
0.0001005486
0.000100544
0.0001005441
0.000100544
0.000100544
0.0001005439
0.000100548
0.0001005434
0.0001005435
0.0001005435
0.0001005435
0.0001005435
0.0001005475
0.000100543
0.0001005431
0.0001005431
0.0001005431
0.0001005431
0.0001005471
0.0001005426
0.0001005427
0.0001005427
0.0001005427
0.0001005427
0.0001005467
0.0001005422
0.0001005424
0.0001005424
0.0001005424
0.0001005424
0.0001005463
0.0001005419
0.0001005421
0.0001005421
0.0001005421
0.0001005421
0.000100546
0.0001005417
0.0001005418
0.0001005418
0.0001005419
0.0001005419
0.0001005457
0.0001005415
0.0001005416
0.0001005416
0.0001005417
0.0001005417
0.0001005454
0.0001005413
0.0001005414
0.0001005414
0.0001005414
0.0001005415
0.0001005451
0.0001005411
0.0001005412
0.0001005412
0.0001005413
0.0001005413
0.0001005449
0.0001005409
0.000100541
0.0001005411
0.0001005411
0.0001005411
0.0001005451
0.0001005408
0.0001005409
0.0001005409
0.0001005409
0.000100541
0.0001152981
0.0001108927
0.0001091873
0.0001080524
0.0001072342
0.0001065743
0.0001008893
0.0001007945
0.0001009731
0.0001009731
0.0001009338
0.000100917
0.0001009163
0.0001007616
0.0001007608
0.0001007677
0.0001007645
0.0001007599
0.0001007589
0.0001007577
0.000100658
0.0001006808
0.0001007064
0.0001006981
0.0001006918
0.000100686
0.0001006808
0.0001006381
0.0001006715
0.0001006992
0.0001006986
0.0001006981
0.0001006952
0.0001006938
0.000100622
0.0001006553
0.0001006814
0.0001006815
0.0001006795
0.0001006769
0.000100674
0.0001006121
0.0001006499
0.0001006743
0.000100676
0.000100675
0.0001006731
0.000100671
0.0001006052
0.0001006443
0.0001006668
0.0001006689
0.0001006688
0.0001006676
0.0001006662
0.0001005997
0.0001006409
0.0001006617
0.000100664
0.0001006646
0.0001006638
0.0001006627
0.0001005952
0.0001006381
0.0001006573
0.0001006597
0.0001006605
0.0001006601
0.0001006593
0.0001005915
0.000100636
0.0001006536
0.000100656
0.000100657
0.0001006569
0.0001006563
0.0001005883
0.0001006343
0.0001006504
0.0001006528
0.0001006538
0.0001006541
0.0001006536
0.0001005855
0.000100633
0.0001006477
0.00010065
0.0001006511
0.0001006514
0.0001006512
0.0001005829
0.0001006318
0.0001006453
0.0001006476
0.0001006487
0.000100649
0.000100649
0.0001005809
0.0001006308
0.0001006432
0.0001006454
0.0001006465
0.0001006469
0.0001006469
0.0001005789
0.0001006299
0.0001006414
0.0001006435
0.0001006445
0.0001006449
0.0001006451
0.0001005771
0.0001006291
0.0001006398
0.0001006418
0.0001006427
0.0001006432
0.0001006433
0.0001005754
0.0001006285
0.0001006383
0.00010064
0.0001006411
0.0001006416
0.0001006417
0.0001005738
0.0001006278
0.0001006369
0.0001006386
0.0001006397
0.0001006401
0.0001006403
0.0001005726
0.0001006273
0.0001006357
0.0001006373
0.0001006383
0.0001006387
0.0001006389
0.0001005713
0.0001006268
0.0001006346
0.0001006361
0.000100637
0.0001006375
0.0001006377
0.00010057
0.0001006263
0.0001006336
0.0001006351
0.0001006359
0.0001006363
0.0001006366
0.000100569
0.0001006259
0.0001006326
0.000100634
0.0001006349
0.0001006352
0.0001006354
0.0001005651
0.0006365088
0.0001006317
0.0001006331
0.0001006339
0.0001006341
0.0001006344
0.0003108333
0.0001158441
0.0001010133
0.0001005832
0.0003124429
0.0003003877
0.0001153482
0.0001111373
0.0001005533
0.0001005009
0.0002996834
0.0002990545
0.0001108965
0.0001091105
0.000100486
0.0001004824
0.0002985976
0.0002984356
0.0001091892
0.0001078985
0.000100481
0.0001004724
0.0002979973
0.0002979647
0.0001080534
0.0001070321
0.0001004825
0.0001004665
0.0002975371
0.000297599
0.0001072347
0.000106366
0.0001004885
0.0001004696
0.0002971832
0.0001065749
0.0001004943
0.000310976
0.00029926
0.0001008825
0.0001007238
0.0001007386
0.0001007262
0.0002983548
0.0002978714
0.0001007524
0.0001006929
0.0001006508
0.0001006384
0.0002973676
0.0002972192
0.0001006498
0.0001006168
0.0001006202
0.0001006058
0.0002967171
0.0002966498
0.0001006282
0.0001006008
0.0001006032
0.0001005895
0.0002962205
0.0002961927
0.0001006101
0.0001005855
0.0001005939
0.0001005805
0.000295797
0.0002957968
0.0001006016
0.0001005793
0.0001005886
0.0001005747
0.0002954393
0.0002954549
0.000100595
0.0001005738
0.0001005846
0.0001005706
0.0002951255
0.0002951522
0.0001005903
0.0001005704
0.0001005814
0.0001005677
0.0002948483
0.0002948825
0.0001005864
0.0001005677
0.0001005788
0.0001005654
0.0002946
0.0002946396
0.0001005832
0.0001005656
0.0001005766
0.0001005636
0.0002943756
0.0002944191
0.0001005806
0.0001005639
0.0001005747
0.000100562
0.0002941713
0.0002942174
0.0001005782
0.0001005624
0.0001005729
0.0001005608
0.0002939841
0.0002940322
0.0001005762
0.0001005612
0.0001005713
0.0001005597
0.0002938118
0.0002938609
0.0001005744
0.0001005601
0.0001005699
0.0001005587
0.0002936528
0.000293702
0.0001005727
0.0001005592
0.0001005687
0.0001005579
0.0002935051
0.0002935543
0.0001005712
0.0001005583
0.0001005675
0.0001005571
0.0002933676
0.0002934165
0.0001005699
0.0001005576
0.0001005665
0.0001005564
0.0002932394
0.0002932879
0.0001005686
0.0001005569
0.0001005655
0.0001005558
0.0002931196
0.0002931679
0.0001005675
0.0001005562
0.0001005646
0.0001005552
0.0002930079
0.0002930561
0.0001005664
0.0001005557
0.0001005637
0.0001005547
0.0002929043
0.000292956
0.0001005655
0.0001005551
0.000100563
0.0001005542
0.0002928143
0.0002928939
0.0001005645
0.0001005547
0.0001005622
0.0001005538
0.0002927846
0.0001022177
0.0001005649
0.0001005543
0.0001005632
0.0001005524
0.0001191571
0.0001008596
0.0001004334
0.0001173502
0.0001007954
0.0001004163
0.0001214232
0.000100795
0.0001004772
0.0001156985
0.0001007851
0.0001004818
0.0001217407
0.0001007994
0.0001004966
0.000115128
0.0001007982
0.0001004939
0.0001221172
0.0001008022
0.0001004924
0.0001197074
0.0001008163
0.0001004969
0.000115198
0.0001007997
0.0001004947
0.0001221387
0.0001008065
0.0001004957
0.0001153183
0.0001007933
0.0001004965
0.0001218821
0.0001008041
0.0001004958
0.0001156812
0.0001007823
0.0001004819
0.0001212813
0.0001008036
0.0001004769
0.000117411
0.0001007885
0.0001004173
0.0001190984
0.0001008641
0.0001004334
0.0001159425
0.0001010066
0.0001005861
0.0003108347
0.0001111892
0.0001005533
0.0001005031
0.0003124435
0.0003003887
0.0001091394
0.0001004862
0.0001004847
0.0002996831
0.0002990521
0.0001079214
0.0001004812
0.0001004747
0.0002985959
0.0002984385
0.0001070512
0.0001004826
0.0001004688
0.0002979982
0.0002979616
0.0001063821
0.0001004886
0.0001004719
0.0002975357
0.0002975986
0.0001005991
0.0001006034
0.0001005895
0.0002967034
0.0002966492
0.0001005776
0.0001005885
0.0001005746
0.0002957894
0.0002957951
0.000100572
0.0001005845
0.0001005706
0.0002954351
0.0002954539
0.0001005687
0.0001005813
0.0001005676
0.0002951225
0.0002951507
0.000100566
0.0001005787
0.0001005654
0.0002948458
0.0002948804
0.000100564
0.0001005765
0.0001005635
0.0002945978
0.0002946382
0.0001005598
0.0001005712
0.0001005597
0.000293984
0.0002940309
0.0001005587
0.0001005698
0.0001005587
0.000293812
0.0002938597
0.0001005578
0.0001005685
0.0001005579
0.0002936532
0.0002937009
0.000100557
0.0001005674
0.0001005571
0.0002935058
0.000293553
0.0001005557
0.0001005654
0.0001005558
0.0002932405
0.0002932867
0.000100555
0.0001005645
0.0001005552
0.0002931208
0.0002931664
0.000100554
0.0001005628
0.0001005542
0.0002929072
0.0002929552
0.0001005535
0.0001005621
0.0001005538
0.0002928179
0.0002928938
0.0001005543
0.0001005602
0.0001005535
0.0002927853
0.0001022201
0.0001102172
0.0001547374
0.0001061055
0.0001507517
0.0001059157
0.000149953
0.0001046988
0.0001490532
0.0001045746
0.0001487609
0.0001038777
0.0001481513
0.000103876
0.0001480061
0.0001033171
0.0001475009
0.0001033764
0.0001474279
0.0001029127
0.0001469915
0.0001030036
0.0001469658
0.0001025907
0.0001465738
0.0001027074
0.0001465874
0.0001027663
0.0001490856
0.0001028965
0.0001484598
0.0001021252
0.0001478169
0.000102291
0.0001475519
0.0001017592
0.0001470696
0.0001018689
0.0001468967
0.0001015169
0.0001464486
0.0001015951
0.0001463262
0.0001013468
0.0001459451
0.0001014094
0.0001458568
0.0001012218
0.0001455037
0.0001012739
0.0001454388
0.0001011269
0.0001451133
0.0001011708
0.0001450707
0.0001010513
0.0001447739
0.0001010893
0.0001447488
0.0001009902
0.0001444685
0.0001010235
0.0001444625
0.0001009401
0.0001441999
0.0001009696
0.0001442047
0.0001008985
0.0001439629
0.0001009248
0.0001439707
0.0001008635
0.0001437493
0.0001008871
0.000143757
0.0001008338
0.000143553
0.000100855
0.0001435605
0.0001008082
0.000143372
0.0001008275
0.0001433789
0.0001007861
0.0001432045
0.0001008037
0.0001432103
0.0001007669
0.0001430487
0.000100783
0.0001430535
0.00010075
0.0001429035
0.0001007649
0.0001429073
0.0001007352
0.0001427677
0.000100749
0.0001427705
0.000100722
0.0001426406
0.0001007349
0.0001426424
0.0001007104
0.0001425214
0.0001007225
0.0001425224
0.0001007001
0.0001424102
0.0001007114
0.0001424104
0.0001006908
0.000142306
0.0001007014
0.0001423063
0.0001006826
0.0001422114
0.0001006926
0.0001422192
0.0001105371
0.0001102733
0.0001101634
0.0001101538
0.0001102635
0.0001102157
0.000110402
0.0001102972
0.0001102398
0.0001103961
0.000110281
0.0001103022
0.0001102646
0.0001102843
0.0001103964
0.0001102606
0.000109165
0.0001102927
0.0001004923
0.0002971815
0.0001007214
0.0001007381
0.0001007266
0.0003109614
0.0002992602
0.0001006913
0.0001006499
0.0001006381
0.0002983405
0.00029787
0.0001006148
0.0001006205
0.0001006057
0.0002973558
0.000297217
0.0001005836
0.0001005939
0.0001005805
0.0002962151
0.0002961899
0.0001005623
0.0001005745
0.000100562
0.0002943743
0.000294417
0.0001005609
0.0001005728
0.0001005607
0.00029417
0.0002942165
0.0001005563
0.0001005663
0.0001005564
0.0002933682
0.000293415
0.0001005545
0.0001005636
0.0001005547
0.0002930087
0.0002930566
0.0001071721
0.0001513094
0.0001072473
0.0001572577
0.0001005475
0.0001498061
0.0001010656
0.0001552295
0.0001091672
0.0001103565
0.0001052877
0.0001493735
0.0001055903
0.0001497709
0.0001043967
0.0001484449
0.0001047232
0.0001486186
0.0001037468
0.0001477878
0.0001040694
0.0001478712
0.0001032771
0.0001472738
0.0001035677
0.0001472955
0.0001029238
0.0001468542
0.0001031756
0.0001468303
0.0001025464
0.0001481216
0.0001026111
0.0001483245
0.0001020319
0.0001473375
0.0001020553
0.0001474874
0.0001017061
0.0001466974
0.0001017384
0.0001468081
0.0001014851
0.0001461627
0.0001015055
0.0001462467
0.0001013276
0.0001457092
0.0001013448
0.0001457797
0.0001012094
0.000145308
0.0001012233
0.000145362
0.0001011184
0.0001449582
0.0001011303
0.0001449989
0.0001010459
0.0001446499
0.0001010559
0.0001446809
0.0001009871
0.0001443752
0.0001009956
0.0001443994
0.0001009387
0.0001441292
0.0001009458
0.0001441465
0.0001008981
0.0001439053
0.0001009042
0.0001439148
0.0001008638
0.0001437007
0.0001008689
0.0001437031
0.0001008346
0.000143511
0.0001008388
0.0001435085
0.0001008095
0.0001433342
0.0001008128
0.0001433275
0.0001007877
0.0001431701
0.0001007904
0.0001431607
0.0001007687
0.0001430163
0.0001007709
0.000143006
0.000100752
0.0001428726
0.0001007538
0.0001428614
0.0001007374
0.0001427379
0.0001007387
0.0001427266
0.0001007244
0.0001426116
0.0001007254
0.0001426001
0.0001007129
0.0001424932
0.0001007135
0.0001424822
0.0001007026
0.0001423829
0.000100703
0.0001423726
0.0001006934
0.0001422817
0.0001006936
0.0001422709
0.000100685
0.0001046808
0.0001421929
0.0001006839
0.000110403
0.0001103229
0.0001102949
0.0001102618
0.0001102942
0.0001103364
0.0001102656
0.000110295
0.0001103365
0.000110265
0.0001103628
0.0001103414
0.0001102194
0.000110185
0.0001105136
0.0001102298
0.0001102724
0.0001547428
0.0001053049
0.0001492935
0.0001055796
0.0001497642
0.0001046982
0.0001490543
0.000104559
0.0001487604
0.0001015145
0.000146461
0.000101591
0.0001463393
0.00010122
0.0001455164
0.0001012712
0.0001454383
0.0001012094
0.0001453073
0.0001012234
0.0001453615
0.0001011251
0.0001451146
0.0001011689
0.0001450703
0.0001009388
0.0001441287
0.0001009458
0.0001441453
0.0001008328
0.0001435512
0.0001008539
0.0001435601
0.0001008346
0.0001435104
0.0001008388
0.0001435079
0.0001008074
0.0001433717
0.0001008265
0.0001433784
0.0001008095
0.0001433337
0.0001008129
0.000143327
0.0001007853
0.0001432043
0.0001008028
0.00014321
0.0001007877
0.0001431696
0.0001007905
0.0001431602
0.0001007661
0.0001430484
0.0001007822
0.0001430532
0.0001007687
0.0001430159
0.0001007709
0.0001430055
0.0001007345
0.0001427673
0.0001007483
0.0001427701
0.0001007374
0.0001427375
0.0001007388
0.0001427261
0.0001007215
0.0001426401
0.0001007343
0.000142642
0.0001007244
0.0001426113
0.0001007254
0.0001425996
0.0001006996
0.0001424235
0.0001007109
0.00014241
0.0001007026
0.0001423825
0.0001007031
0.0001423721
0.0001006904
0.0001423055
0.0001007009
0.0001423055
0.0001006934
0.0001422829
0.0001006937
0.0001422699
0.0001006826
0.0001422114
0.0001006925
0.0001422212
0.0001006854
0.0001320844
0.0001421938
0.0001006852
0.0001333702
0.0001436639
0.0001169321
0.000150191
0.0001142249
0.0001501361
0.000112012
0.0001498678
0.0001113655
0.0001498498
0.0001099994
0.0001496954
0.0001100219
0.0001496889
0.0001086642
0.0001495796
0.0001090098
0.0001495768
0.000107741
0.0001494915
0.00010825
0.0001494989
0.0001072334
0.0001494225
0.0001076981
0.0001494401
0.0001316996
0.0001313605
0.0001315294
0.0001333428
0.0001322091
0.0001318989
0.0001322475
0.0001319386
0.0001325461
0.0001318668
0.0001318771
0.0001316748
0.0001314392
0.0001314909
0.0001311994
0.0001313709
0.0001307276
0.0001298369
0.0001227956
0.0001503625
0.0001243079
0.0001504525
0.0001302012
0.0001300673
0.0001145603
0.0001499905
0.0001176724
0.0001499407
0.000111455
0.0001498045
0.0001144624
0.0001497396
0.0001097149
0.0001496813
0.0001124824
0.0001496074
0.0001085735
0.0001495886
0.0001110603
0.0001495082
0.000107924
0.0001495142
0.0001099561
0.0001494353