/*--------------------------------*- C++ -*----------------------------------*\
  =========                 |
  \\      /  F ield         | OpenFOAM: The Open Source CFD Toolbox
   \\    /   O peration     | Website:  https://openfoam.org
    \\  /    A nd           | Version:  7
     \\/     M anipulation  |
\*---------------------------------------------------------------------------*/
FoamFile
{
    version     2.0;
    format      ascii;
    class       volScalarField;
    location    "0.09";
    object      nut;
}
// * * * * * * * * * * * * * * * * * * * * * * * * * * * * * * * * * * * * * //

dimensions      [0 2 -1 0 0 0 0];

internalField   nonuniform List<scalar> 
76598
(
0.0002694999
0.0002715799
0.0002715417
0.0002713725
0.0002711819
0.0002709961
0.0002708559
0.0002707649
0.001335385
0.001301752
0.001292051
0.001290648
0.001290808
0.001290828
0.001290489
0.001290047
0.001310134
0.001256569
0.001244263
0.001245548
0.001246949
0.001247448
0.00124687
0.001243735
0.001302734
0.001246526
0.001237389
0.001259879
0.001259399
0.001261096
0.001267908
0.001247841
0.001302103
0.001248558
0.00126055
0.001271354
0.000572794
0.0005775121
0.001306864
0.001305414
0.001302584
0.001250045
0.001259852
0.0005733907
0.0006135276
0.0002833493
0.0006334945
0.0006165341
0.00130256
0.001249583
0.001258167
0.0005765524
0.0002877178
0.001301782
0.001246749
0.001255303
0.001261657
0.001294376
0.001315612
0.001319323
0.001319143
0.001300741
0.001241141
0.001226281
0.001227174
0.001233263
0.001238711
0.001240783
0.001241482
0.001300008
0.001237324
0.001217475
0.001213385
0.001213745
0.001214902
0.001215789
0.001216389
0.001299708
0.001236153
0.001214936
0.001209151
0.001207853
0.00120783
0.001208197
0.001208642
0.001299623
0.001235774
0.001214085
0.001207718
0.001205858
0.001205426
0.001205575
0.001205915
0.001299632
0.001235636
0.001213754
0.001207153
0.001205065
0.001204463
0.001204518
0.001204807
0.001299659
0.001235604
0.001213633
0.001206932
0.00120474
0.001204062
0.001204066
0.001204328
0.001299714
0.00123562
0.001213605
0.001206855
0.001204613
0.001203896
0.001203875
0.001204121
0.001299771
0.001235657
0.001213621
0.001206844
0.001204576
0.001203837
0.001203803
0.001204037
0.001299833
0.001235709
0.001213658
0.001206868
0.001204582
0.00120383
0.001203784
0.001204013
0.001299901
0.001235771
0.00121371
0.001206908
0.001204613
0.001203851
0.001203796
0.00120402
0.001299974
0.00123584
0.001213772
0.001206962
0.001204659
0.001203889
0.001203827
0.001204044
0.001300055
0.001235918
0.001213845
0.001207028
0.001204715
0.001203938
0.001203869
0.00120408
0.001300146
0.001236008
0.001213929
0.001207104
0.001204786
0.001204002
0.001203926
0.001204131
0.001300249
0.001236112
0.001214031
0.001207203
0.001204879
0.001204089
0.001204008
0.001204205
0.001300372
0.001236242
0.001214166
0.001207339
0.001205017
0.001204223
0.001204137
0.001204325
0.001300523
0.001236418
0.001214362
0.00120755
0.001205241
0.001204449
0.001204357
0.001204535
0.0006081478
0.001290816
0.001272122
0.001265673
0.001264534
0.001264718
0.001265262
0.00126591
0.0001005269
0.0001005744
0.0001006148
0.0001006148
0.0001006157
0.0001006161
0.0001006163
0.0001006163
0.0001006164
0.0001005261
0.0001005731
0.0001005725
0.0001005732
0.0001005749
0.0001005756
0.0001005763
0.0001005753
0.0001005753
0.000100525
0.000100573
0.0001005725
0.0001005859
0.000100622
0.0001006193
0.0001005994
0.0001005883
0.0001005795
0.0001005234
0.0001005734
0.0001005738
0.0001006423
0.0001006811
0.0001005451
0.0001005482
0.00010061
0.0001005937
0.0001005216
0.0001005737
0.0001005748
0.0001006767
0.0001005556
0.0001007589
0.000101331
0.0001007299
0.0001006773
0.0001005195
0.0001005722
0.0001005739
0.0001006689
0.0001005483
0.0001006699
0.0003345718
0.0003412481
0.0001005172
0.0001005698
0.0001005693
0.0001005998
0.0001005735
0.0001005782
0.0001005719
0.0001005665
0.0001005653
0.0001005152
0.0001005679
0.0001005659
0.0001005653
0.0001005658
0.0001005639
0.0001005636
0.0001005642
0.000100561
0.0001005135
0.0001005666
0.0001005644
0.0001005635
0.0001005626
0.000100562
0.0001005645
0.0001005619
0.0001005641
0.0001005121
0.0001005656
0.0001005635
0.0001005628
0.0001005621
0.0001005616
0.0001005618
0.0001005643
0.0001005614
0.000100511
0.0001005649
0.0001005629
0.0001005624
0.000100562
0.0001005616
0.0001005621
0.0001005634
0.0001005631
0.0001005101
0.0001005643
0.0001005625
0.0001005622
0.0001005619
0.0001005616
0.0001005615
0.0001005632
0.0001005624
0.0001005094
0.0001005639
0.0001005622
0.000100562
0.0001005618
0.0001005616
0.0001005615
0.0001005629
0.0001005629
0.0001005087
0.0001005635
0.0001005619
0.0001005618
0.0001005616
0.0001005615
0.0001005615
0.0001005629
0.0001005627
0.0001005081
0.0001005631
0.0001005616
0.0001005615
0.0001005614
0.0001005614
0.0001005613
0.0001005627
0.0001005626
0.0001005075
0.0001005628
0.0001005613
0.0001005613
0.0001005612
0.0001005612
0.0001005611
0.0001005625
0.0001005625
0.0001005069
0.0001005624
0.000100561
0.0001005609
0.0001005609
0.0001005609
0.0001005609
0.0001005623
0.0001005623
0.0001005062
0.0001005621
0.0001005606
0.0001005606
0.0001005606
0.0001005606
0.0001005606
0.000100562
0.000100562
0.0001005056
0.0001005617
0.0001005602
0.0001005602
0.0001005602
0.0001005602
0.0001005602
0.0001005617
0.0001005618
0.0001005049
0.0001005613
0.0001005598
0.0001005598
0.0001005598
0.0001005598
0.0001005598
0.0001005614
0.0001005614
0.0001005042
0.0001005609
0.0001005594
0.0001005594
0.0001005594
0.0001005594
0.0001005594
0.0001005611
0.0001005611
0.0001005034
0.0001005605
0.000100559
0.0001005589
0.0001005589
0.0001005589
0.000100559
0.0001005607
0.0001005608
0.0001005088
0.0001005601
0.0001005586
0.0001005585
0.0001005585
0.0001005584
0.0001005585
0.0001005605
0.0001005606
0.000602901
0.001268667
0.001234903
0.001224692
0.001222655
0.001222767
0.001223506
0.001224524
0.0001005268
0.0001005338
0.0001005745
0.000100574
0.000100575
0.0001005754
0.0001005756
0.0001005756
0.0001005757
0.0001005323
0.0001005333
0.000100534
0.0001005348
0.0001005363
0.0001005372
0.0001005371
0.0001005371
0.0001005372
0.0001005321
0.0001005335
0.000100534
0.0001005357
0.0001005384
0.0001005391
0.0001005393
0.0001005378
0.0001005377
0.0001005317
0.0001005339
0.0001005348
0.0001005385
0.0001005457
0.0001005448
0.0001005486
0.0001005402
0.0001007168
0.0001005311
0.0001005341
0.000100535
0.0001005444
0.0001005544
0.0001007606
0.0001013436
0.0001007468
0.0009953314
0.0001005298
0.0001005326
0.000100534
0.0001005404
0.0001005486
0.0001006661
0.0003360478
0.001009208
0.000100528
0.0001005301
0.0001005304
0.0001005307
0.0001005344
0.0001005375
0.0001005307
0.0001005258
0.0001005597
0.0001005265
0.0001005282
0.0001005276
0.0001005269
0.0001005265
0.0001005254
0.0001005249
0.0001005223
0.0001005231
0.0001005253
0.0001005268
0.0001005261
0.0001005251
0.0001005243
0.0001005233
0.0001005225
0.0001005226
0.0001005227
0.0001005243
0.0001005258
0.0001005251
0.0001005244
0.0001005236
0.0001005228
0.0001005226
0.0001005225
0.0001005228
0.0001005236
0.0001005251
0.0001005245
0.0001005239
0.0001005233
0.0001005228
0.0001005226
0.0001005226
0.0001005228
0.000100523
0.0001005246
0.0001005241
0.0001005237
0.0001005232
0.0001005228
0.0001005226
0.0001005226
0.0001005228
0.0001005225
0.0001005242
0.0001005238
0.0001005235
0.0001005231
0.0001005228
0.0001005226
0.0001005226
0.0001005227
0.0001005221
0.0001005238
0.0001005235
0.0001005232
0.0001005229
0.0001005227
0.0001005226
0.0001005225
0.0001005226
0.0001005217
0.0001005235
0.0001005232
0.000100523
0.0001005227
0.0001005225
0.0001005224
0.0001005224
0.0001005225
0.0001005213
0.0001005232
0.0001005229
0.0001005227
0.0001005225
0.0001005223
0.0001005222
0.0001005222
0.0001005223
0.0001005209
0.0001005228
0.0001005225
0.0001005224
0.0001005222
0.000100522
0.000100522
0.0001005219
0.000100522
0.0001005204
0.0001005225
0.0001005222
0.000100522
0.0001005219
0.0001005217
0.0001005217
0.0001005217
0.0001005217
0.00010052
0.0001005221
0.0001005218
0.0001005217
0.0001005215
0.0001005214
0.0001005213
0.0001005213
0.0001005214
0.0001005195
0.0001005217
0.0001005214
0.0001005213
0.0001005211
0.000100521
0.0001005209
0.0001005209
0.000100521
0.000100519
0.0001005213
0.0001005209
0.0001005208
0.0001005206
0.0001005205
0.0001005205
0.0001005205
0.0001005207
0.0001005185
0.0001005209
0.0001005205
0.0001005203
0.0001005202
0.00010052
0.00010052
0.0001005201
0.0001005203
0.0001005179
0.0001005205
0.00010052
0.0001005199
0.0001005197
0.0001005196
0.0001005196
0.0001005197
0.0001005199
0.0006019279
0.001260482
0.001222866
0.001210456
0.001207979
0.00120811
0.001209057
0.001210416
0.0001005269
0.0001005338
0.0001005744
0.0001005739
0.0001005748
0.0001005752
0.0001005753
0.0001005753
0.0001005754
0.0001005324
0.0001005333
0.0001005341
0.0001005349
0.0001005364
0.0001005373
0.0001005371
0.0001005371
0.0001005372
0.0001005318
0.0001005336
0.0001005341
0.0001005358
0.0001005384
0.0001005392
0.0001005393
0.0001005377
0.0001005377
0.0001005316
0.0001005341
0.0001005349
0.0001005385
0.0001005458
0.0001005445
0.0001005486
0.0001005403
0.0001007194
0.0001005303
0.0001005343
0.0001005351
0.0001005444
0.0001005552
0.0001007607
0.0001013584
0.0001007699
0.0009472028
0.0001005289
0.0001005327
0.000100534
0.0001005404
0.0001005482
0.0001006614
0.0003273127
0.000956126
0.0001005276
0.0001005304
0.0001005305
0.0001005307
0.0001005343
0.0001005378
0.0001005301
0.0001005263
0.0001005584
0.0001005263
0.0001005285
0.0001005277
0.0001005269
0.0001005265
0.0001005253
0.000100525
0.0001005219
0.0001005228
0.0001005253
0.0001005272
0.0001005263
0.0001005252
0.0001005242
0.0001005232
0.0001005223
0.0001005226
0.0001005226
0.0001005245
0.0001005262
0.0001005253
0.0001005244
0.0001005236
0.0001005228
0.0001005225
0.0001005224
0.0001005227
0.0001005239
0.0001005255
0.0001005247
0.000100524
0.0001005233
0.0001005228
0.0001005225
0.0001005226
0.0001005228
0.0001005233
0.000100525
0.0001005243
0.0001005237
0.0001005232
0.0001005228
0.0001005226
0.0001005226
0.0001005228
0.0001005229
0.0001005246
0.000100524
0.0001005235
0.0001005231
0.0001005228
0.0001005226
0.0001005226
0.0001005227
0.0001005225
0.0001005242
0.0001005237
0.0001005233
0.0001005229
0.0001005227
0.0001005226
0.0001005225
0.0001005226
0.0001005221
0.0001005239
0.0001005234
0.000100523
0.0001005227
0.0001005225
0.0001005224
0.0001005224
0.0001005225
0.0001005217
0.0001005235
0.000100523
0.0001005227
0.0001005225
0.0001005223
0.0001005222
0.0001005222
0.0001005223
0.0001005213
0.0001005232
0.0001005227
0.0001005224
0.0001005222
0.0001005221
0.000100522
0.000100522
0.000100522
0.0001005208
0.0001005228
0.0001005224
0.0001005221
0.0001005219
0.0001005217
0.0001005217
0.0001005217
0.0001005217
0.0001005204
0.0001005225
0.000100522
0.0001005217
0.0001005215
0.0001005214
0.0001005213
0.0001005213
0.0001005214
0.0001005199
0.0001005221
0.0001005216
0.0001005213
0.0001005211
0.000100521
0.0001005209
0.0001005209
0.0001005211
0.0001005193
0.0001005217
0.0001005211
0.0001005208
0.0001005206
0.0001005205
0.0001005205
0.0001005205
0.0001005207
0.0001005187
0.0001005213
0.0001005207
0.0001005204
0.0001005202
0.0001005201
0.00010052
0.0001005201
0.0001005203
0.000100518
0.000100521
0.0001005203
0.0001005199
0.0001005197
0.0001005196
0.0001005196
0.0001005197
0.0001005199
0.000601753
0.001258864
0.001220396
0.001207571
0.001204978
0.001205155
0.001206229
0.001207763
0.0001005268
0.0001005338
0.0001005743
0.0001005739
0.0001005748
0.0001005752
0.0001005753
0.0001005753
0.0001005753
0.0001005324
0.0001005333
0.0001005341
0.0001005349
0.0001005364
0.0001005372
0.0001005371
0.0001005371
0.0001005372
0.0001005319
0.0001005337
0.0001005341
0.0001005357
0.0001005383
0.0001005392
0.0001005393
0.0001005377
0.0001005377
0.0001005317
0.0001005341
0.0001005349
0.0001005385
0.0001005458
0.0001005446
0.0001005486
0.0001005403
0.00010072
0.0001005304
0.0001005343
0.0001005352
0.0001005443
0.000100555
0.0001007604
0.0001013595
0.0001007726
0.0009278043
0.000100529
0.0001005328
0.0001005341
0.0001005404
0.0001005483
0.00010066
0.0003245359
0.0009348078
0.0001005276
0.0001005304
0.0001005306
0.0001005307
0.0001005343
0.000100538
0.0001005301
0.000100527
0.0001005581
0.0001005264
0.0001005285
0.0001005278
0.000100527
0.0001005265
0.0001005252
0.0001005251
0.0001005219
0.0001005226
0.0001005253
0.0001005272
0.0001005264
0.0001005253
0.0001005243
0.0001005233
0.0001005223
0.0001005225
0.0001005225
0.0001005245
0.0001005262
0.0001005254
0.0001005245
0.0001005236
0.0001005228
0.0001005226
0.0001005224
0.0001005227
0.0001005238
0.0001005255
0.0001005249
0.0001005241
0.0001005234
0.0001005228
0.0001005225
0.0001005225
0.0001005228
0.0001005233
0.000100525
0.0001005245
0.0001005238
0.0001005233
0.0001005228
0.0001005226
0.0001005226
0.0001005228
0.0001005228
0.0001005246
0.0001005241
0.0001005236
0.0001005232
0.0001005228
0.0001005226
0.0001005226
0.0001005227
0.0001005224
0.0001005242
0.0001005238
0.0001005234
0.000100523
0.0001005227
0.0001005226
0.0001005225
0.0001005226
0.000100522
0.0001005239
0.0001005235
0.0001005231
0.0001005228
0.0001005226
0.0001005224
0.0001005224
0.0001005225
0.0001005216
0.0001005236
0.0001005232
0.0001005229
0.0001005226
0.0001005224
0.0001005222
0.0001005222
0.0001005223
0.0001005212
0.0001005233
0.0001005229
0.0001005226
0.0001005223
0.0001005221
0.000100522
0.000100522
0.000100522
0.0001005208
0.0001005229
0.0001005225
0.0001005222
0.0001005219
0.0001005218
0.0001005217
0.0001005217
0.0001005217
0.0001005203
0.0001005226
0.0001005222
0.0001005218
0.0001005216
0.0001005214
0.0001005213
0.0001005213
0.0001005214
0.0001005198
0.0001005222
0.0001005218
0.0001005214
0.0001005212
0.000100521
0.0001005209
0.0001005209
0.0001005211
0.0001005193
0.0001005219
0.0001005214
0.000100521
0.0001005207
0.0001005206
0.0001005205
0.0001005205
0.0001005207
0.0001005187
0.0001005215
0.0001005209
0.0001005205
0.0001005203
0.0001005201
0.0001005201
0.0001005201
0.0001005203
0.000100518
0.0001005211
0.0001005205
0.0001005201
0.0001005198
0.0001005196
0.0001005196
0.0001005197
0.0001005199
0.0006018456
0.001259971
0.001222221
0.001209761
0.001207299
0.001207488
0.001208475
0.001209761
0.0001005268
0.0001005338
0.0001005744
0.0001005739
0.0001005748
0.0001005752
0.0001005754
0.0001005754
0.0001005754
0.0001005324
0.0001005333
0.0001005341
0.0001005349
0.0001005364
0.0001005372
0.0001005371
0.0001005371
0.0001005372
0.0001005318
0.0001005337
0.0001005341
0.0001005358
0.0001005384
0.0001005392
0.0001005393
0.0001005377
0.0001005377
0.0001005317
0.0001005341
0.0001005349
0.0001005385
0.0001005458
0.0001005445
0.0001005486
0.0001005403
0.0001007197
0.0001005304
0.0001005343
0.0001005352
0.0001005443
0.0001005553
0.0001007607
0.0001013587
0.0001007532
0.0009278107
0.000100529
0.0001005328
0.0001005341
0.0001005404
0.0001005483
0.000100661
0.0003241975
0.0009346945
0.0001005276
0.0001005304
0.0001005306
0.0001005307
0.0001005343
0.000100538
0.0001005301
0.0001005271
0.000100558
0.0001005263
0.0001005285
0.0001005278
0.000100527
0.0001005265
0.0001005252
0.0001005251
0.0001005218
0.0001005226
0.0001005253
0.0001005272
0.0001005264
0.0001005252
0.0001005243
0.0001005233
0.0001005223
0.0001005225
0.0001005225
0.0001005245
0.0001005262
0.0001005254
0.0001005245
0.0001005236
0.0001005228
0.0001005226
0.0001005224
0.0001005227
0.0001005238
0.0001005255
0.0001005249
0.0001005241
0.0001005234
0.0001005228
0.0001005225
0.0001005225
0.0001005228
0.0001005232
0.000100525
0.0001005244
0.0001005238
0.0001005233
0.0001005228
0.0001005226
0.0001005226
0.0001005228
0.0001005228
0.0001005246
0.0001005241
0.0001005236
0.0001005232
0.0001005228
0.0001005226
0.0001005226
0.0001005227
0.0001005225
0.0001005243
0.0001005238
0.0001005234
0.000100523
0.0001005227
0.0001005226
0.0001005225
0.0001005226
0.0001005221
0.0001005239
0.0001005235
0.0001005232
0.0001005228
0.0001005226
0.0001005224
0.0001005224
0.0001005225
0.0001005216
0.0001005236
0.0001005232
0.0001005229
0.0001005226
0.0001005224
0.0001005222
0.0001005222
0.0001005223
0.0001005212
0.0001005233
0.0001005229
0.0001005226
0.0001005223
0.0001005221
0.000100522
0.000100522
0.000100522
0.0001005208
0.0001005229
0.0001005225
0.0001005222
0.000100522
0.0001005218
0.0001005217
0.0001005217
0.0001005217
0.0001005203
0.0001005226
0.0001005222
0.0001005218
0.0001005216
0.0001005214
0.0001005213
0.0001005213
0.0001005214
0.0001005198
0.0001005222
0.0001005218
0.0001005214
0.0001005212
0.000100521
0.0001005209
0.0001005209
0.0001005211
0.0001005193
0.0001005219
0.0001005214
0.000100521
0.0001005207
0.0001005206
0.0001005205
0.0001005205
0.0001005207
0.0001005187
0.0001005215
0.0001005209
0.0001005205
0.0001005203
0.0001005201
0.0001005201
0.0001005201
0.0001005203
0.000100518
0.0001005211
0.0001005205
0.0001005201
0.0001005198
0.0001005196
0.0001005196
0.0001005197
0.0001005199
0.0006020914
0.001267023
0.001232838
0.001222478
0.00122045
0.001220648
0.001221353
0.001221075
0.0001005269
0.0001005339
0.0001005745
0.0001005742
0.0001005751
0.0001005755
0.0001005757
0.0001005757
0.0001005756
0.0001005324
0.0001005333
0.0001005341
0.0001005349
0.0001005364
0.0001005373
0.0001005371
0.0001005371
0.0001005372
0.0001005319
0.0001005337
0.0001005341
0.0001005358
0.0001005384
0.0001005392
0.0001005393
0.0001005377
0.0001005377
0.0001005317
0.0001005342
0.0001005349
0.0001005385
0.0001005457
0.0001005445
0.0001005486
0.0001005402
0.0001007195
0.0001005303
0.0001005343
0.0001005351
0.0001005443
0.0001005555
0.0001007605
0.0001013637
0.0001007464
0.0009473054
0.0001005287
0.0001005327
0.000100534
0.0001005403
0.0001005478
0.0001006615
0.0003252958
0.0009557583
0.0001005276
0.0001005304
0.0001005306
0.0001005307
0.0001005343
0.0001005378
0.0001005301
0.0001005264
0.0001005582
0.0001005265
0.0001005285
0.0001005278
0.0001005269
0.0001005265
0.0001005253
0.000100525
0.0001005219
0.0001005228
0.0001005254
0.0001005273
0.0001005264
0.0001005253
0.0001005243
0.0001005233
0.0001005223
0.0001005226
0.0001005226
0.0001005246
0.0001005263
0.0001005254
0.0001005245
0.0001005236
0.0001005228
0.0001005225
0.0001005224
0.0001005227
0.0001005239
0.0001005256
0.0001005249
0.0001005241
0.0001005234
0.0001005228
0.0001005225
0.0001005226
0.0001005228
0.0001005234
0.0001005251
0.0001005245
0.0001005239
0.0001005233
0.0001005228
0.0001005226
0.0001005226
0.0001005228
0.000100523
0.0001005246
0.0001005242
0.0001005236
0.0001005232
0.0001005228
0.0001005226
0.0001005226
0.0001005227
0.0001005225
0.0001005242
0.0001005238
0.0001005234
0.000100523
0.0001005227
0.0001005226
0.0001005225
0.0001005226
0.0001005222
0.000100524
0.0001005235
0.0001005232
0.0001005228
0.0001005226
0.0001005224
0.0001005224
0.0001005225
0.0001005218
0.0001005236
0.0001005232
0.0001005229
0.0001005226
0.0001005224
0.0001005222
0.0001005222
0.0001005223
0.0001005213
0.0001005233
0.0001005229
0.0001005226
0.0001005223
0.0001005221
0.000100522
0.0001005219
0.000100522
0.0001005209
0.0001005229
0.0001005225
0.0001005222
0.000100522
0.0001005218
0.0001005217
0.0001005216
0.0001005217
0.0001005204
0.0001005226
0.0001005222
0.0001005218
0.0001005216
0.0001005214
0.0001005213
0.0001005213
0.0001005214
0.00010052
0.0001005222
0.0001005218
0.0001005214
0.0001005212
0.000100521
0.0001005209
0.0001005209
0.000100521
0.0001005194
0.0001005218
0.0001005214
0.000100521
0.0001005208
0.0001005206
0.0001005205
0.0001005205
0.0001005207
0.0001005188
0.0001005215
0.0001005209
0.0001005205
0.0001005203
0.0001005201
0.00010052
0.0001005201
0.0001005203
0.0001005181
0.0001005211
0.0001005205
0.0001005201
0.0001005198
0.0001005196
0.0001005196
0.0001005197
0.0001005199
0.0006046828
0.001286718
0.001266872
0.001259949
0.001258784
0.001259215
0.001259841
0.001258615
0.0001005269
0.0001005339
0.0001005751
0.0001005752
0.0001005762
0.0001005766
0.0001005768
0.0001005768
0.0001005768
0.0001005325
0.0001005333
0.0001005341
0.0001005349
0.0001005363
0.0001005373
0.0001005371
0.0001005371
0.0001005372
0.0001005323
0.0001005336
0.0001005341
0.0001005357
0.0001005384
0.0001005391
0.0001005393
0.0001005377
0.0001005377
0.000100532
0.0001005341
0.0001005349
0.0001005385
0.0001005455
0.0001005443
0.0001005485
0.0001005401
0.0001007171
0.0001005315
0.0001005343
0.0001005351
0.0001005443
0.0001005553
0.0001007612
0.0001013515
0.000100736
0.0009959005
0.0001005296
0.0001005327
0.0001005341
0.0001005403
0.0001005475
0.0001006638
0.000330857
0.00100779
0.0001005278
0.0001005302
0.0001005304
0.0001005307
0.0001005344
0.0001005376
0.0001005307
0.0001005258
0.0001005595
0.0001005267
0.0001005287
0.0001005279
0.000100527
0.0001005265
0.0001005254
0.0001005249
0.0001005222
0.0001005232
0.0001005264
0.0001005271
0.0001005265
0.0001005253
0.0001005243
0.0001005233
0.0001005225
0.0001005227
0.0001005227
0.0001005249
0.0001005261
0.0001005255
0.0001005245
0.0001005236
0.0001005229
0.0001005226
0.0001005225
0.0001005228
0.0001005242
0.0001005254
0.0001005249
0.0001005241
0.0001005234
0.0001005228
0.0001005226
0.0001005226
0.0001005228
0.0001005231
0.0001005249
0.0001005244
0.0001005239
0.0001005233
0.0001005229
0.0001005226
0.0001005226
0.0001005228
0.0001005227
0.0001005246
0.0001005242
0.0001005237
0.0001005232
0.0001005228
0.0001005226
0.0001005226
0.0001005227
0.0001005228
0.0001005244
0.0001005239
0.0001005235
0.0001005231
0.0001005227
0.0001005226
0.0001005225
0.0001005226
0.0001005228
0.0001005239
0.0001005236
0.0001005232
0.0001005229
0.0001005226
0.0001005224
0.0001005224
0.0001005225
0.0001005218
0.0001005235
0.0001005232
0.0001005229
0.0001005226
0.0001005224
0.0001005222
0.0001005222
0.0001005223
0.0001005214
0.0001005231
0.0001005229
0.0001005226
0.0001005223
0.0001005221
0.000100522
0.0001005219
0.000100522
0.0001005211
0.0001005228
0.0001005226
0.0001005223
0.000100522
0.0001005218
0.0001005217
0.0001005216
0.0001005217
0.0001005207
0.0001005225
0.0001005222
0.0001005219
0.0001005216
0.0001005214
0.0001005213
0.0001005213
0.0001005214
0.0001005202
0.0001005221
0.0001005218
0.0001005215
0.0001005212
0.000100521
0.0001005209
0.0001005209
0.000100521
0.0001005198
0.0001005217
0.0001005214
0.0001005211
0.0001005208
0.0001005206
0.0001005205
0.0001005205
0.0001005207
0.0001005192
0.0001005213
0.0001005209
0.0001005206
0.0001005203
0.0001005201
0.0001005201
0.0001005201
0.0001005203
0.0001005186
0.000100521
0.0001005204
0.0001005202
0.0001005199
0.0001005196
0.0001005196
0.0001005197
0.0001005199
0.000609057
0.0005956101
0.0005766169
0.000572971
0.0005713545
0.0005729317
0.000574554
0.0005735294
0.0001005272
0.0001005744
0.000100574
0.0001005745
0.0001005755
0.000100576
0.0001005763
0.0001005764
0.0001005766
0.0001005272
0.0001005733
0.0001005725
0.0001005734
0.0001005749
0.0001005757
0.0001005787
0.0001005762
0.0001005755
0.0001005268
0.0001005732
0.0001005727
0.0001005853
0.0001006213
0.00010062
0.0001006024
0.0001005891
0.0001005807
0.0001005256
0.0001005735
0.0001005739
0.0001006428
0.0001006818
0.0001005447
0.0001005482
0.0001005401
0.0001005924
0.0001005246
0.0001005741
0.0001005748
0.0001006765
0.000100556
0.0001007616
0.0001013476
0.0001007435
0.000100754
0.0001005222
0.0001005733
0.0001005738
0.0001006687
0.0001005463
0.0001006652
0.0003422984
0.0003556145
0.000100518
0.0001005709
0.0001005698
0.0001006037
0.0001005734
0.0001005781
0.000100572
0.0001005664
0.0001005655
0.000100533
0.0001005677
0.0001005663
0.0001005653
0.0001005654
0.0001005639
0.0001005636
0.0001005622
0.0001005613
0.0001005171
0.000100567
0.0001005646
0.0001005637
0.0001005628
0.0001005621
0.0001005658
0.0001005654
0.0001005633
0.0001005152
0.0001005658
0.0001005639
0.000100563
0.0001005622
0.0001005616
0.0001005616
0.0001005637
0.0001005614
0.0001005143
0.0001005656
0.0001005633
0.0001005626
0.0001005621
0.0001005616
0.0001005621
0.0001005634
0.0001005629
0.0001005136
0.0001005646
0.000100563
0.0001005624
0.000100562
0.0001005616
0.0001005615
0.000100563
0.0001005622
0.0001005321
0.0001005636
0.0001005628
0.0001005621
0.0001005619
0.0001005616
0.0001005615
0.000100563
0.0001005629
0.000100532
0.0001005638
0.0001005623
0.000100562
0.0001005617
0.0001005616
0.0001005615
0.000100563
0.0001005626
0.0001005118
0.0001005637
0.0001005621
0.0001005617
0.0001005616
0.0001005614
0.0001005614
0.0001005627
0.0001005626
0.0001005105
0.0001005631
0.0001005618
0.0001005614
0.0001005613
0.0001005612
0.0001005612
0.0001005625
0.0001005624
0.0001005102
0.0001005629
0.0001005615
0.0001005611
0.000100561
0.0001005609
0.0001005609
0.0001005622
0.0001005622
0.0001005095
0.0001005626
0.0001005611
0.0001005608
0.0001005607
0.0001005606
0.0001005606
0.0001005622
0.0001005619
0.0001005088
0.0001005622
0.0001005607
0.0001005604
0.0001005604
0.0001005603
0.0001005603
0.0001005616
0.0001005613
0.0001005079
0.0001005618
0.0001005604
0.00010056
0.0001005599
0.0001005598
0.00010056
0.0001005619
0.0001005612
0.0001005067
0.0001005614
0.00010056
0.0001005596
0.0001005595
0.0001005594
0.0001005594
0.000100561
0.0001005598
0.0001005056
0.0001005611
0.0001005596
0.0001005591
0.000100559
0.0001005597
0.000100561
0.0001005644
0.0001005596
0.0001005054
0.0001005607
0.0001005592
0.0001005587
0.0001005589
0.0001005587
0.0001005585
0.0001005606
0.0001005588
0.0002685133
0.00026414
0.0002643336
0.0005990742
0.0006012155
0.0002683771
0.0002677591
0.0002639712
0.0001005136
0.001339474
0.001310077
0.001299983
0.001297479
0.001297806
0.001298973
0.001299911
0.001298758
0.0001005126
0.001310645
0.001258386
0.001246299
0.001247537
0.001250402
0.00125208
0.001252129
0.001252332
0.000100511
0.001301298
0.001246589
0.001237892
0.001260702
0.001262066
0.001276916
0.001264547
0.001273795
0.0001005103
0.001298598
0.001247761
0.001260523
0.001271682
0.000100867
0.0001007446
0.0001007188
0.001309048
0.0001006714
0.001298455
0.001248974
0.001259634
0.0001009927
0.0001010391
0.0001013558
0.000100787
0.0001008362
0.0001005067
0.001299346
0.001248689
0.001257891
0.0001009225
0.000100716
0.0001005061
0.001298638
0.001245719
0.001254988
0.001261545
0.001293799
0.001312361
0.001316784
0.001316786
0.0001008146
0.001295279
0.001239795
0.001225899
0.001226996
0.00123301
0.001238215
0.001240116
0.001240816
0.0001008472
0.001295696
0.00123611
0.00121711
0.001213235
0.001213664
0.001214803
0.00121567
0.001216257
0.0001005112
0.001295741
0.0012352
0.001214605
0.001209012
0.001207801
0.001207814
0.0012082
0.001208652
0.0001005235
0.001296319
0.001234823
0.001213733
0.001207566
0.001205799
0.001205411
0.001205588
0.001205939
0.000100514
0.00129488
0.001234198
0.001213285
0.001206964
0.001204986
0.001204435
0.001204515
0.001204816
0.0001009743
0.001291122
0.001233548
0.001213028
0.001206699
0.001204647
0.001204024
0.001204055
0.001204327
0.0001009806
0.001291012
0.001233548
0.001212991
0.001206624
0.00120452
0.001203856
0.001203862
0.001204116
0.0001010075
0.001294801
0.001234214
0.001213151
0.00120666
0.001204498
0.001203805
0.001203791
0.001204035
0.0001005298
0.00129752
0.00123495
0.00121337
0.001206745
0.001204532
0.001203813
0.001203782
0.001204015
0.000101092
0.001298251
0.001235265
0.001213514
0.001206829
0.001204589
0.001203851
0.001203806
0.001204029
0.0001005371
0.00129782
0.001235335
0.001213617
0.001206921
0.001204664
0.001203913
0.001203858
0.00120407
0.0001011571
0.001297778
0.001235392
0.001213721
0.001207031
0.001204774
0.001204009
0.001203939
0.001204134
0.0001005451
0.00129743
0.001235546
0.001213874
0.001207205
0.001204944
0.00120417
0.001204073
0.001204235
0.0001005614
0.001297583
0.001235709
0.001214137
0.001207531
0.001205301
0.001204496
0.001204331
0.001204417
0.0001005697
0.001297998
0.001236019
0.001214717
0.001208336
0.001206194
0.001205309
0.001204925
0.001204785
0.0001005764
0.001298404
0.001237066
0.001216587
0.001211003
0.001209213
0.001208056
0.00120688
0.001205849
0.0002513498
0.0006430723
0.000264149
0.0001005158
0.0001006208
0.0002716121
0.0006291763
0.0006074429
0.000607084
0.0005918765
0.0001010705
0.0001008341
0.0002715602
0.0006014355
0.0005984399
0.0006003459
0.0005863021
0.0001014114
0.0001011105
0.0002714052
0.0005976922
0.0005972343
0.0005829089
0.0005810363
0.0001013915
0.0001012607
0.0002712184
0.0005971131
0.0005969361
0.000580633
0.0005803478
0.0001015132
0.0001013004
0.0002710287
0.0005969061
0.0005967722
0.0005802592
0.0005801739
0.0001014489
0.0001012775
0.0002708826
0.0005967433
0.0005966403
0.0005801468
0.0005801152
0.0001012947
0.0001011613
0.0002707828
0.0005966181
0.0005965468
0.0005801163
0.0005801106
0.0001011518
0.0001010656
0.000270718
0.0005965438
0.0005965282
0.0005801252
0.0005801248
0.0001010309
0.0001009825
0.0006475154
0.0006310291
0.0001005183
0.0001040399
0.0001005163
0.0001040639
0.0006274017
0.0006253926
0.0001005202
0.0001043169
0.0001005132
0.0001043232
0.0006251351
0.0006249545
0.0001005191
0.0001047804
0.000100512
0.0001047979
0.0006250819
0.0006250991
0.0001005181
0.0001054268
0.0001005109
0.0001054462
0.0006253132
0.000625333
0.0001005175
0.0001062949
0.0001005096
0.0001063144
0.0002850003
0.000289323
0.0001010401
0.0001008145
0.0001011952
0.0006246194
0.0001013649
0.000101055
0.0006190472
0.0001009313
0.0001008551
0.0006159171
0.0001008332
0.000100789
0.0006255768
0.0006255804
0.0001005181
0.000107313
0.0001005079
0.0001073373
0.0006042053
0.0006238497
0.0001007355
0.0001069788
0.0001056337
0.0006405875
0.0006463245
0.0001044944
0.0001019882
0.0006460206
0.0006456987
0.0001024314
0.0001013626
0.0006455324
0.0006454134
0.0001021412
0.0001013235
0.0006257935
0.0006257892
0.00010052
0.0001082394
0.0001005076
0.0001082739
0.0006259546
0.0006259543
0.0001005228
0.0001089978
0.0001005091
0.0001090369
0.0006260966
0.0006261052
0.0001005262
0.0001096404
0.0001005115
0.0001096617
0.0006262114
0.0006262232
0.0001005296
0.0001101451
0.000100514
0.0001101659
0.0006263174
0.0006263273
0.0001005329
0.0001105764
0.0001005167
0.0001105921
0.000626408
0.0006264179
0.0001005361
0.0001109393
0.0001005194
0.0001109583
0.0006264907
0.0006265006
0.0001005392
0.0001112647
0.000100522
0.0001112841
0.0006265674
0.0006265775
0.0001005423
0.0001115689
0.0001005247
0.0001115904
0.0006266424
0.0006266523
0.0001005455
0.0001118645
0.0001005276
0.0001118871
0.0006267179
0.0006267279
0.000100549
0.0001121636
0.0001005309