/*--------------------------------*- C++ -*----------------------------------*\
  =========                 |
  \\      /  F ield         | OpenFOAM: The Open Source CFD Toolbox
   \\    /   O peration     | Website:  https://openfoam.org
    \\  /    A nd           | Version:  7
     \\/     M anipulation  |
\*---------------------------------------------------------------------------*/
FoamFile
{
    version     2.0;
    format      ascii;
    class       volScalarField;
    location    "0.09";
    object      p;
}
// * * * * * * * * * * * * * * * * * * * * * * * * * * * * * * * * * * * * * //

dimensions      [0 2 -2 0 0 0 0];

internalField   nonuniform List<scalar> 
76598
(
0.00378975
0.001100949
-0.001711562
-0.006758469
-0.01581447
-0.02285585
-0.02844458
-0.03196717
-0.0009400111
-0.00594389
-0.01060861
-0.01531927
-0.02498175
-0.02916525
-0.03243015
-0.03501532
-0.005186323
-0.003258452
-0.009645649
-0.01435771
-0.02226494
-0.02971328
-0.03417306
-0.03644079
-0.003120559
0.0005193903
-0.009227302
-0.01405387
-0.03539582
-0.0392993
-0.03997966
-0.04047716
-0.002368772
0.002581884
-0.003223701
-0.01827474
-0.02707528
-0.04585864
-0.04615886
-0.04502115
-0.001339454
0.007100266
-0.007073978
-0.03347487
-0.04165206
-0.08455721
-0.05897617
-0.0488956
0.002189781
0.01175517
0.01537235
-0.007571624
-0.04803273
-0.001964423
0.00781175
-0.01652516
-0.0006984819
-0.07741458
-0.03316427
-0.04130139
-0.02945592
-0.003452056
0.003585984
-0.01240108
-0.006642812
-0.04603007
-0.01993083
-0.03144025
-0.01855789
-4.750604e-05
0.002411595
-0.006290342
-0.005196018
-0.04191152
-0.01639055
-0.026869
-0.01817239
-0.003824384
-0.002576298
-0.01037504
-0.01127098
-0.02091155
-0.01551965
-0.02314974
-0.01640992
0.000929786
-0.0008518323
-0.005756128
-0.007486329
-0.0189708
-0.01269649
-0.01824421
-0.01494879
-0.001402723
-0.005377196
-0.007437482
-0.01052447
-0.01426118
-0.01398245
-0.01783306
-0.01569497
0.001154462
-0.00325301
-0.004421558
-0.008201196
-0.01083957
-0.01177954
-0.01329349
-0.01409591
0.0006144932
-0.004968173
-0.003647476
-0.01022875
-0.0112768
-0.01367696
-0.01489309
-0.01569543
0.001702615
-0.004006024
-0.002632847
-0.008151457
-0.008295666
-0.01259827
-0.01314463
-0.01559582
0.002109639
-0.003900484
-0.001033088
-0.00880112
-0.008602024
-0.01310675
-0.01422701
-0.01663841
0.002969945
-0.00296747
-0.0003623637
-0.006713122
-0.006343397
-0.01322833
-0.0141187
-0.01746861
0.003765349
-0.002108923
0.001183558
-0.006264449
-0.006106478
-0.01293387
-0.01438645
-0.01862942
0.00482269
-0.0007788446
0.002452749
-0.00487051
-0.005152706
-0.01214603
-0.01419414
-0.01977004
0.006021295
0.0009655255
0.004159286
-0.003258055
-0.003691364
-0.0111377
-0.01403891
-0.02108213
0.007432346
0.00317127
0.006115707
-0.001046602
-0.00154453
-0.009918138
-0.01378708
-0.02246598
0.009408474
0.006192757
0.009086645
0.00203247
0.001374631
-0.008174329
-0.01306851
-0.02389083
0.01193884
0.009830304
0.0131125
0.006036297
0.005195084
-0.00566773
-0.01174613
-0.02521007
0.004324463
-0.004324629
-0.01121536
-0.01367202
-0.02205629
-0.02664757
-0.03094725
-0.03386016
0.002823593
0.0004317536
-0.006477209
-0.009764287
-0.01499855
-0.0243228
-0.02822207
-0.03233175
-0.0347562
0.003922362
-0.001571864
-0.002824717
-0.009683614
-0.01418375
-0.02272457
-0.0316861
-0.03383632
-0.03680377
0.005694156
-2.011812e-05
-0.001215105
-0.007508134
-0.01401842
-0.03427486
-0.03789674
-0.04027218
-0.03981972
0.008293857
0.00226035
0.001916008
-0.00237125
-0.01614676
-0.02774646
-0.05406188
-0.04690999
-0.04521053
0.01067075
0.003311055
0.0057505
0.0009195612
-0.02184992
-0.03773425
-0.09028067
-0.05869098
-0.04831072
0.01303602
0.007205974
0.009259522
0.0170233
-0.0034362
-0.04593344
-0.03031092
0.0009195476
0.01403346
0.001641488
0.006337598
-0.009325277
0.002298564
-0.08634544
-0.04542362
-0.04852616
-0.03106211
0.01539443
0.003966687
0.002826333
-0.006889991
-0.004074091
-0.04185173
-0.0183939
-0.03005955
-0.02286914
0.01561559
0.001660104
0.0006435073
-0.004616428
-0.00561321
-0.03794629
-0.018367
-0.02929374
-0.02073092
0.01716082
0.003867315
-0.003401071
-0.007708524
-0.01025117
-0.02061882
-0.01538556
-0.02249299
-0.01812731
0.01755462
0.002164777
-0.002685081
-0.004962015
-0.008162031
-0.01719977
-0.01350574
-0.01876998
-0.01583671
0.01884028
0.005902634
-0.006910256
-0.007284018
-0.01073729
-0.01419141
-0.01424161
-0.01797096
-0.0164933
0.01893067
0.004482256
-0.005366219
-0.003891667
-0.008703501
-0.01057896
-0.01198024
-0.01327465
-0.01439228
0.01998802
0.006513904
-0.007221977
-0.003295218
-0.01061832
-0.01129715
-0.01381266
-0.01499138
-0.01580267
0.02056883
0.006716046
-0.006585461
-0.00201103
-0.009255326
-0.009065473
-0.01247149
-0.01325301
-0.01555432
0.0213635
0.007285601
-0.006419096
-0.0001825483
-0.009595188
-0.00952994
-0.01318511
-0.01427938
-0.01668659
0.02225283
0.007153124
-0.005255452
0.000930467
-0.008298689
-0.007754509
-0.0126988
-0.0139789
-0.01740244
0.02350779
0.007703022
-0.004130988
0.002671402
-0.007534407
-0.007390127
-0.01263149
-0.01429162
-0.01862481
0.0249551
0.008269694
-0.002641401
0.003861816
-0.005918845
-0.00566643
-0.01211408
-0.01422878
-0.01981106
0.02655737
0.009172229
-0.0006718643
0.005724149
-0.004129929
-0.003995453
-0.01126662
-0.01411123
-0.02113804
0.02824157
0.01030496
0.001556824
0.007583399
-0.001754171
-0.001665324
-0.01012752
-0.01387383
-0.02253457
0.02999175
0.01189894
0.004467858
0.01038913
0.001421085
0.001543123
-0.008371857
-0.0130604
-0.02391996
-0.001265791
0.01396918
0.007693425
0.01424489
0.005168945
0.005319146
-0.005960531
-0.01173876
-0.02523324
0.007001768
-0.006304358
-0.01140868
-0.01459356
-0.02220282
-0.02681998
-0.03099314
-0.03381027
0.002490137
0.001484249
-0.007413676
-0.01026218
-0.01529211
-0.02459699
-0.02880314
-0.03231866
-0.03496884
0.003304396
-0.005260267
-0.002482027
-0.0106689
-0.01441051
-0.02271128
-0.03145564
-0.03379272
-0.03670271
0.004361813
-0.003550682
0.0004177046
-0.007971731
-0.0129035
-0.03517131
-0.0390491
-0.03968213
-0.04028459
0.007688082
-0.002910693
0.003697641
-0.003394616
-0.01476106
-0.0274431
-0.05368931
-0.04588691
-0.04469305
0.008915337
-0.001724355
0.008847236
-0.003392913
-0.01572036
-0.03453846
-0.09048529
-0.05712697
-0.0468
0.01328731
0.002653963
0.01423534
0.01822652
0.004350602
-0.05510572
-0.03405052
-0.003593352
0.01332612
-0.004429395
0.009903982
-0.01625026
0.002614323
-0.08625946
-0.05438036
-0.04254662
-0.03888914
0.01475795
-0.005163665
0.005756082
-0.01382041
-0.002592834
-0.04344866
-0.01449632
-0.02862042
-0.009405174
0.01416734
-0.004783972
0.00366913
-0.00710137
-0.004565847
-0.03870137
-0.01465356
-0.02797975
-0.01902106
0.01706079
-0.005217137
-0.000490875
-0.01096669
-0.01097935
-0.02179819
-0.01390979
-0.02285988
-0.01294249
0.01656174
-0.001777975
0.0004681892
-0.006264192
-0.007108374
-0.0184356
-0.01231864
-0.01774161
-0.01439926
0.01706587
-0.005782779
-0.005531382
-0.00826402
-0.01015387
-0.01450081
-0.01349415
-0.01816664
-0.01441892
0.01850435
-0.004024151
-0.003319965
-0.005508172
-0.008127929
-0.01081535
-0.01163843
-0.01325592
-0.01404015
0.02030979
-0.004546896
-0.0049734
-0.005307477
-0.009498969
-0.01083903
-0.01334049
-0.0148067
-0.01540139
0.02114996
-0.003047796
-0.003931435
-0.003803482
-0.007811739
-0.008425798
-0.01234342
-0.01320952
-0.01538281
0.02163448
-0.003881662
-0.004081793
-0.00306248
-0.00785162
-0.008047409
-0.0129502
-0.01419017
-0.01659101
0.02303474
-0.002596113
-0.002956964
-0.001843652
-0.006169179
-0.006520929
-0.01317607
-0.0141615
-0.01745069
0.02441918
-0.001847362
-0.002012438
-0.0005946537
-0.005180234
-0.005762835
-0.01321162
-0.01452322
-0.01869845
0.02567831
-0.0006610293
-0.0003803573
0.0008172549
-0.004331488
-0.004991619
-0.01227986
-0.0142991
-0.01982094
0.02701237
0.001031506
0.001955402
0.002708501
-0.002693462
-0.0035177
-0.01140256
-0.01409415
-0.02111802
0.02851895
0.003298126
0.004916923
0.005121139
-0.0007607371
-0.0016858
-0.009900976
-0.01388295
-0.02247062
0.02980317
0.005933581
0.009001163
0.008179312
0.002624662
0.00119937
-0.008075655
-0.01314689
-0.02382999
0.03102859
0.008965883
0.01360516
0.01231115
0.006686654
0.004972324
-0.005536313
-0.01182697
-0.02510513
0.008841764
-0.004845409
-0.01205598
-0.01448066
-0.0221552
-0.02653491
-0.03065235
-0.03367291
0.002807525
0.001978344
-0.006589252
-0.008454874
-0.01529265
-0.02368261
-0.02811122
-0.03185772
-0.03464913
9.036217e-05
-0.004164783
-0.002502092
-0.009847115
-0.01387654
-0.02225013
-0.03146517
-0.03324338
-0.03665019
0.0008458179
0.0003339574
-0.001100055
-0.006437915
-0.01258982
-0.0339448
-0.03745952
-0.03906017
-0.03962877
0.002362218
-9.299054e-05
0.002903717
-0.002513789
-0.01434403
-0.02648533
-0.05270623
-0.04505398
-0.044677
0.002529441
0.002551196
0.006386165
0.0002787357
-0.0157154
-0.03243652
-0.087701
-0.05388401
-0.04642053
0.004027692
0.004975562
0.01098189
0.01573169
0.01053699
-0.05639353
-0.0363706
-0.02166934
0.002917712
-9.253471e-05
0.006688031
-0.01134651
0.004141576
-0.08720474
-0.05782727
-0.04285381
-0.03285838
0.00266031
-0.001662337
0.003638632
-0.008748274
-0.00136043
-0.04324117
-0.01405883
-0.02877726
-0.01208433
0.0005791681
0.0006150727
0.0008393855
-0.005892429
-0.004606209
-0.03685008
-0.01422772
-0.02860551
-0.02195865
-0.0006890952
-0.001019052
-0.003213413
-0.009495598
-0.009920127
-0.02164008
-0.013405
-0.02234398
-0.01383849
-0.001638166
0.002030161
-0.002745978
-0.005056549
-0.007443391
-0.01703053
-0.01241123
-0.01832837
-0.01572937
-0.002497952
0.002598134
-0.006570975
-0.007550391
-0.01060507
-0.01453859
-0.01374527
-0.01825182
-0.01543375
-0.003265596
0.004299951
-0.006330607
-0.004187273
-0.008697663
-0.01051544
-0.01177182
-0.01341226
-0.01437187
-0.003070423
0.005277724
-0.007481404
-0.003523499
-0.01045584
-0.01145763
-0.01345701
-0.01508152
-0.01551661
-0.002848474
0.004393984
-0.006566715
-0.002049339
-0.009099654
-0.009080319
-0.01234291
-0.01343015
-0.01539819
-0.002252505
0.005222348
-0.006350025
-0.0003892335
-0.009460524
-0.009825931
-0.01301115
-0.01429011
-0.01663043
-0.002257406
0.004993028
-0.005215428
0.0007686447
-0.008283137
-0.008405865
-0.01259336
-0.01404617
-0.01737454
-0.001777858
0.005933614
-0.004256266
0.002349949
-0.00750425
-0.008044996
-0.01258059
-0.014392
-0.01862467
-0.001361225
0.00662764
-0.002975681
0.003467399
-0.006045663
-0.006513947
-0.01200543
-0.01440498
-0.01982894
-0.0006753068
0.008051077
-0.001144314
0.004943063
-0.004019939
-0.004287322
-0.01129445
-0.01420581
-0.02111012
0.0002159081
0.009430288
0.0008784581
0.007035669
-0.001982678
-0.002408697
-0.01016455
-0.0140635
-0.02254362
0.001176558
0.01164989
0.004019072
0.009823514
0.001700132
0.001282709
-0.008151919
-0.01294529
-0.02375912
0.002033675
0.01333846
0.007065532
0.01343147
0.005013191
0.00473287
-0.005881098
-0.01174503
-0.02510948
0.008276723
-0.001421804
-0.01312041
-0.01449171
-0.02380295
-0.02697485
-0.03111625
-0.0338929
0.003044427
0.003244391
-0.01071527
-0.01158397
-0.01591597
-0.02467988
-0.02858731
-0.0321216
-0.03487555
0.0007378117
-0.002948842
-0.0006033006
-0.01169162
-0.01460493
-0.02288002
-0.03182126
-0.03351625
-0.0367439
0.00167721
-0.0001337694
0.0001970054
-0.006711716
-0.01245084
-0.03425323
-0.03789237
-0.03880045
-0.0397793
0.004257002
-0.0009516938
0.003963724
-0.002653847
-0.01371164
-0.02581808
-0.05263277
-0.0446451
-0.04449109
0.004669559
0.0011344
0.008052274
0.0002985679
-0.01452856
-0.03040423
-0.08804331
-0.05265103
-0.04604333
0.00845664
0.005709541
0.01331067
0.01892441
0.01380327
-0.05793514
-0.03713301
-0.01817156
0.005954524
-0.002990088
0.008058977
-0.01659215
0.003508833
-0.08607466
-0.06067904
-0.04075215
-0.03680339
0.006244388
-0.003557973
0.005430876
-0.01256849
-0.0006279648
-0.04529103
-0.01260829
-0.02754715
-0.008273328
0.001604002
-0.0001387948
0.00143132
-0.006983066
-0.004622381
-0.03660089
-0.0126433
-0.0275417
-0.01985422
0.001111939
-0.003062276
-0.001678581
-0.01066436
-0.01053136
-0.0222622
-0.01295512
-0.02294359
-0.01155837
-0.0004574225
-0.0005214812
-0.002456289
-0.005530158
-0.007276158
-0.01745589
-0.01181174
-0.01749909
-0.01447162
-0.001268412
-0.001497822
-0.005389477
-0.007312348
-0.0103819
-0.0146268
-0.01368865
-0.01866921
-0.01389573
-0.001751798
-0.0007802329
-0.004979334
-0.004640491
-0.008559857
-0.0106772
-0.0115574
-0.01320927
-0.01421359
-0.002086731
-0.0004055225
-0.006071758
-0.004126124
-0.0100895
-0.01142994
-0.01331089
-0.01514348
-0.0153041
-0.002143644
0.0005840106
-0.005426917
-0.002535572
-0.008790913
-0.008802965
-0.0123417
-0.01346633
-0.01539411
-0.002005097
0.001249936
-0.005276692
-0.001463201
-0.008843896
-0.009273075
-0.01305491
-0.01430991
-0.01662467
-0.001995214
0.00155496
-0.004386141
-0.0005958348
-0.007040881
-0.006986957
-0.0131574
-0.01426728
-0.01748747
-0.001501819
0.002409126
-0.003473057
0.000691535
-0.006161006
-0.006374167
-0.01324488
-0.01458779
-0.01873439
-0.001010613
0.002861425
-0.002207367
0.002257108
-0.00539317
-0.006142432
-0.01210806
-0.01444509
-0.01989817
-0.0001932773
0.00410015
-0.0003940856
0.003496986
-0.003226897
-0.00389961
-0.01141546
-0.01426715
-0.02113773
0.0009103815
0.005238264
0.001717157
0.005826778
-0.001498602
-0.002256088
-0.01003471
-0.01411887
-0.02253132
0.002097134
0.007022546
0.005075176
0.008598731
0.002092004
0.0009811955
-0.008001398
-0.01323204
-0.0237101
0.003489963
0.008525234
0.008446162
0.01240932
0.005766498
0.004648895
-0.005525291
-0.01195559
-0.02495179
0.009518534
-0.002986984
-0.01316843
-0.01505184
-0.02215215
-0.02656507
-0.03050737
-0.03360267
0.00291616
0.002285003
-0.007337666
-0.008423985
-0.01579174
-0.02365482
-0.02832819
-0.03175286
-0.03473352
0.0005607648
-0.003722804
-0.001545331
-0.01019994
-0.01380291
-0.02212353
-0.03135567
-0.03301642
-0.03652243
0.00159837
-0.0001119342
-0.0002419233
-0.00638663
-0.0122836
-0.03407158
-0.03787658
-0.03882422
-0.03986388
0.003264991
-0.0008939333
0.003654466
-0.002245319
-0.01355811
-0.02545641
-0.05252026
-0.04435348
-0.04435666
0.004248063
0.001735984
0.007449112
0.000428868
-0.0140862
-0.02901494
-0.08919046
-0.05326279
-0.04592519
0.005404891
0.004222196
0.01199899
0.01857875
0.01576994
-0.0580327
-0.03650998
-0.008257682
0.004426626
-0.002499416
0.007212524
-0.01633156
0.003461219
-0.08635194
-0.06141625
-0.04243797
-0.04218888
0.002867552
-0.00282989
0.003754225
-0.01199526
-0.001063037
-0.04461575
-0.01354302
-0.02883985
-0.01001026
0.001594033
-0.0012492
0.0006855453
-0.007851672
-0.004987765
-0.03655534
-0.01355704
-0.02820114
-0.02266859
0.000266035
-0.002794286
-0.002606382
-0.01070971
-0.01065677
-0.02235154
-0.01350846
-0.02328479
-0.01216763
-0.001354405
0.00103809
-0.003011759
-0.00535043
-0.007521098
-0.01710447
-0.01200636
-0.0175729
-0.01499775
-0.001923902
0.0001959488
-0.006044816
-0.007920408
-0.0106068
-0.01494649
-0.01380188
-0.01876278
-0.01401036
-0.003865328
0.004298753
-0.00644711
-0.004002527
-0.00883775
-0.01020873
-0.01175596
-0.01314186
-0.0142532
-0.003889768
0.005129127
-0.007311764
-0.003539412
-0.01011883
-0.01080324
-0.01345011
-0.01492307
-0.01520082
-0.002486784
0.001276459
-0.005760096
-0.002348931
-0.008070506
-0.00813382
-0.01267549
-0.01344913
-0.01546415
-0.002456728
0.00353612
-0.005509314
-0.00154459
-0.008400425
-0.007921658
-0.01309136
-0.01428297
-0.01662228
-0.002155905
0.001637
-0.004465752
-0.000551774
-0.00671632
-0.006535696
-0.01354618
-0.01440615
-0.01758452
-0.001616663
0.003307781
-0.003540135
0.000890055
-0.006352431
-0.006681945
-0.01320454
-0.01454926
-0.01874318
-0.001117523
0.002567087
-0.002471987
0.00204351
-0.005579839
-0.00654619
-0.0123823
-0.01461151
-0.0200439
-0.0003054831
0.004198466
-0.0004512577
0.003315342
-0.003232445
-0.004119405
-0.01181629
-0.01418983
-0.02121142
0.0008238012
0.004533312
0.001337556
0.00529361
-0.00212905
-0.00331726
-0.01052535
-0.01434396
-0.02280928
0.002131254
0.00670828
0.005369018
0.008078014
0.002414861
0.001044222
-0.008135806
-0.01258984
-0.02381654
0.003376334
0.006938522
0.007747429
0.01113548
0.004645781
0.003459126
-0.006217333
-0.01200086
-0.02539088
0.008491732
-0.00620533
-0.01075718
-0.01447954
-0.02210101
-0.02695303
-0.03096822
-0.03388308
0.002733124
0.001758879
-0.007360707
-0.009731578
-0.01530303
-0.0243254
-0.02851575
-0.03224526
-0.03488881
0.0002018653
-0.004229407
-0.003305946
-0.009586324
-0.01444244
-0.02218517
-0.03172769
-0.03335997
-0.03669354
0.0007688029
0.0007063047
-0.001565419
-0.006700163
-0.01297499
-0.033777
-0.03749964
-0.03914107
-0.03950323
0.002602061
0.0005333739
0.002651531
-0.001904995
-0.01418701
-0.02560765
-0.05273808
-0.04493643
-0.04455768
0.002398773
0.003517971
0.00627886
0.001515754
-0.01490405
-0.03169776
-0.08730808
-0.05414146
-0.04612062
0.004410643
0.004815798
0.01133062
0.01779198
0.01326669
-0.06048585
-0.03339752
-0.02710744
0.003403332
-0.0001741464
0.006270123
-0.01468467
0.003450204
-0.08600557
-0.05698336
-0.04114826
-0.03160181
0.006287674
-0.003403042
0.004458282
-0.01304205
-0.002993069
-0.04301057
-0.01483034
-0.02770207
-0.01256278
0.0003925284
0.002297962
0.0002871678
-0.004458668
-0.005166517
-0.03603565
-0.01497188
-0.02739986
-0.02052585
-0.0008264828
-0.001239226
-0.003675183
-0.009948341
-0.01079803
-0.02175678
-0.01395083
-0.02263246
-0.01381852
-0.001483327
0.001641649
-0.003862959
-0.005348043
-0.008340355
-0.01644829
-0.01266526
-0.01793575
-0.01559781
-0.001820243
0.00165786
-0.006615792
-0.006705824
-0.01112078
-0.01429455
-0.01419925
-0.01828763
-0.01552306
-0.002158751
0.0002952497
-0.005522589
-0.004308041
-0.009066598
-0.01072881
-0.01205939
-0.01359547
-0.01450554
-0.002566154
0.0009055837
-0.006315828
-0.003650053
-0.01076481
-0.01180735
-0.01386565
-0.01535277
-0.01575081
-0.002220625
0.003036461
-0.005448465
-0.001079341
-0.00989592
-0.00962353
-0.01274017
-0.01374662
-0.0156493
-0.002059527
0.004206226
-0.00631607
-0.0006466502
-0.009725312
-0.01004022
-0.01335976
-0.01454418
-0.01685275
-0.002135522
0.004092785
-0.004984264
0.00102065
-0.008567606
-0.008426565
-0.01301836
-0.01436563
-0.01765871
-0.001561056
0.006189647
-0.004509835
0.001764089
-0.007491135
-0.007819367
-0.01286856
-0.01457568
-0.01883929
-0.001136841
0.006079674
-0.003001153
0.003235515
-0.006021961
-0.006729001
-0.0124009
-0.01469585
-0.02013909
-0.0005617478
0.00769959
-0.001060889
0.004458344
-0.003374503
-0.003953865
-0.01185349
-0.01436018
-0.02129653
0.0002410031
0.00864839
0.0004082676
0.007007294
-0.002133003
-0.002809101
-0.01038601
-0.01434701
-0.02275735
0.001310095
0.01121426
0.004477646
0.009720156
0.002313298
0.001021722
-0.007913594
-0.01315435
-0.02363888
0.001908311
0.01208687
0.00648481
0.01310544
0.005237139
0.00432192
-0.00552027
-0.01207107
-0.02493271
0.004743586
-0.004142597
-0.01124115
-0.01383108
-0.02092253
-0.02608425
-0.03020649
-0.03354067
0.00255552
0.0002998443
-0.006190897
-0.009429498
-0.01488282
-0.02417133
-0.02880665
-0.03227949
-0.03503986
0.003250479
-0.004966136
-0.002832077
-0.009620263
-0.01390965
-0.02177415
-0.0310243
-0.03305681
-0.0364086
0.004024529
-0.002783253
0.0001306722
-0.007529814
-0.01277556
-0.03496716
-0.03920996
-0.04000734
-0.04037692
0.006049908
-0.001775459
0.003193919
-0.002526086
-0.01461118
-0.02566533
-0.05342631
-0.0458282
-0.04447026
0.007991074
0.0002323539
0.007421099
-0.002370017
-0.01552432
-0.03352111
-0.09095333
-0.05634252
-0.04660875
0.009033566
0.003200789
0.01175355
0.01814842
0.01017063
-0.05987633
-0.03356792
-0.00618127
0.01158606
-0.004559376
0.006802613
-0.01523957
0.002396283
-0.08650333
-0.05340394
-0.0424007
-0.03949957
0.004659325
-0.001213888
0.002840506
-0.01296796
-0.003854753
-0.04205284
-0.01582948
-0.02885351
-0.01084768
0.01323357
-0.004050769
0.0005574242
-0.007810734
-0.006061841
-0.03726109
-0.015844
-0.02729371
-0.01974301
0.01153693
-0.005509446
-0.003602097
-0.01078804
-0.01142559
-0.02210704
-0.01516809
-0.02375026
-0.01339556
0.007623508
-0.002210143
-0.00287191
-0.005965812
-0.008568489
-0.01692127
-0.012705
-0.01693577
-0.01457999
0.01269907
-0.004014287
-0.006084653
-0.007642487
-0.01137876
-0.01522421
-0.01433339
-0.0184361
-0.01475852
-0.00392494
0.004225093
-0.00724509
-0.003029759
-0.009539085
-0.009603442
-0.0123558
-0.01315131
-0.01427881
-0.004606946
0.005564151
-0.008282973
-0.002421497
-0.0108739
-0.009965367
-0.0138171
-0.01473717
-0.01555041
0.01827702
-0.001065592
-0.003426783
-0.002299709
-0.007968346
-0.007536053
-0.01295823
-0.01352238
-0.01566572
0.01340146
-0.00151258
-0.003309167
-0.001924264
-0.008233804
-0.007395645
-0.01310398
-0.01428377
-0.01676981
0.01552235
-0.003107163
-0.003310792
-0.00150391
-0.006314534
-0.005943738
-0.01391113
-0.01466008
-0.01783671
0.01960094
0.0001261356
-0.0004772717
-0.0002540568
-0.006027144
-0.006310823
-0.01316432
-0.01454902
-0.01890087
0.01749778
-0.002905535
-0.001570573
0.0003210955
-0.004671894
-0.005230403
-0.01341387
-0.01507618
-0.02047411
0.02181095
-0.0009300289
0.001920231
0.002164663
-0.002969547
-0.003893489
-0.01188234
-0.01409175
-0.02147691
0.02320169
9.506798e-06
0.002387286
0.003296763
-0.00250168
-0.004122371
-0.01114462
-0.01475418
-0.02330221
0.02544756
0.004555387
0.01074963
0.006942106
0.002790127
0.001044263
-0.008052228
-0.01196315
-0.02426925
0.02450072
-9.821772e-05
0.008765886
0.008761969
0.002176633
0.00129242
-0.007126722
-0.0128446
-0.026045
0.006219053
0.0004241042
-0.005731451
-0.007467912
-0.01868235
-0.0251874
-0.02993774
-0.03352757
0.001774742
0.0007855947
-0.006180667
-0.00985878
-0.01550692
-0.02522141
-0.02947152
-0.03316861
-0.03547492
0.0006145446
-0.001105771
-0.00429387
-0.007925762
-0.01478715
-0.0215386
-0.03156665
-0.03329883
-0.03650503
0.001029714
0.0009684452
-0.001853613
-0.007531689
-0.01463281
-0.03396196
-0.03809888
-0.04039037
-0.03985656
0.002393054
0.003038262
0.0006449056
-0.001277741
-0.01614032
-0.02524955
-0.05410094
-0.04618413
-0.04476649
0.007442854
0.00694921
0.004644537
0.002765093
-0.01620652
-0.0367328
-0.09009612
-0.05699493
-0.0474636
0.007578141
0.008377933
0.009030568
0.01784323
0.004329156
-0.05341438
-0.0320223
-0.03046652
0.009485911
0.005879865
0.005037325
-0.01149303
0.002059768
-0.08515578
-0.04122145
-0.04324476
-0.02800673
0.01968582
-0.00508456
0.002431928
-0.01162271
-0.006785054
-0.04132937
-0.01954435
-0.02991317
-0.02331337
0.006012822
0.002076906
-0.000981175
-0.004795841
-0.007097056
-0.03447778
-0.01865794
-0.02718031
-0.02019753
0.004027983
0.001963422
-0.005727195
-0.009164232
-0.01186649
-0.02127955
-0.0164937
-0.02271298
-0.01841132
0.00634299
0.003234837
-0.005537227
-0.005682099
-0.00949495
-0.01600711
-0.01393125
-0.01783525
-0.0159279
0.01093575
0.002114795
-0.006448839
-0.004999459
-0.0120829
-0.01409838
-0.01524073
-0.01808489
-0.01675724
0.02477404
-0.004310421
-0.005138476
-0.004145783
-0.009597701
-0.01018344
-0.01240565
-0.01327263
-0.01455994
0.02075957
-0.0008233159
-0.002909446
-0.003286516
-0.0106715
-0.01038519
-0.0143423
-0.01533685
-0.01616488
0.01122904
0.004495233
-0.005220313
0.0003547213
-0.0105715
-0.009137813
-0.01307432
-0.01357756
-0.01597218
0.00537714
0.007164117
-0.006329124
-0.0004706015
-0.01012974
-0.009111365
-0.01376454
-0.01472849
-0.01709566
0.007070806
0.005482474
-0.00494654
0.001860874
-0.008909144
-0.00695572
-0.01348191
-0.0146273
-0.01793456
0.003315536
0.008196576
-0.004670417
0.00156941
-0.007252888
-0.006755192
-0.01369983
-0.0148856
-0.01916004
0.007210139
0.006735388
-0.003279667
0.003761836
-0.00622722
-0.006541104
-0.01309489
-0.0150525
-0.02050007
0.002363743
0.007684229
-0.000956915
0.004622347
-0.002583743
-0.002913501
-0.0126443
-0.01459256
-0.02168528
0.002341634
0.008432547
9.974497e-05
0.007010158
-0.00281219
-0.003708831
-0.01090577
-0.0146562
-0.02318385
0.00283508
0.01199073
0.004559973
0.009877704
0.003237267
0.001255813
-0.008038973
-0.01277276
-0.02378855
0.005267111
0.01099058
0.00617576
0.01203654
0.004142726
0.003152056
-0.005786523
-0.01252334
-0.02531867
-0.0001138475
-0.0033088
-0.006989429
-0.007101684
-0.01792134
-0.02357507
-0.02744135
-0.03230882
0.0002380522
-0.002573413
-0.005011215
-0.009837143
-0.0149766
-0.02500687
-0.03010609
-0.03274325
-0.03561174
0.0009884009
-0.004809214
-0.004579986
-0.008778884
-0.01462314
-0.02139751
-0.02952882
-0.03337011
-0.03613149
0.001977374
-0.002295473
-2.794034e-06
-0.00904583
-0.01427515
-0.03481708
-0.04001624
-0.04106231
-0.04072515
0.003596165
-0.001367421
0.001760561
-0.002346305
-0.01774696
-0.02414864
-0.04448006
-0.04457568
-0.044169
0.008231007
0.003285408
0.004544201
-0.005896574
-0.01573283
-0.03658167
-0.08465316
-0.05705781
-0.04775092
0.001622652
0.004045966
0.00874243
0.01481472
-0.01214864
-0.06227579
0.005534441
0.0009580192
0.003631864
-0.01603855
-0.00128382
-0.08102063
-0.03126321
-0.04096108
-0.02932736
0.0181736
-0.002970006
0.0009714052
-0.01279338
-0.008169841
-0.04278139
-0.02048372
-0.03103419
-0.01967606
0.02174111
-0.001419053
-0.001133641
-0.006427762
-0.007226185
-0.03910409
-0.01650401
-0.02549063
-0.01879083
0.003327365
-0.001637435
-0.005707631
-0.009917044
-0.01254386
-0.02198753
-0.01701607
-0.02385539
-0.01676466
0.002870784
0.002912934
-0.005019449
-0.00516836
-0.009731444
-0.0171105
-0.01286807
-0.01614932
-0.01501736
0.007538434
0.003776277
-0.01012304
-0.005486324
-0.01302436
-0.01544514
-0.01529384
-0.01829212
-0.01609108
0.02900917
0.009131653
-0.007506165
-0.001468862
-0.01000218
-0.008796766
-0.01243668
-0.01296245
-0.01429633
0.03549061
0.006522914
-0.01176981
-0.00140304
-0.0124616
-0.01011466
-0.01456404
-0.01524824
-0.01605965
0.02763065
0.00279156
-0.00561367
-1.343985e-05
-0.01058171
-0.007530833
-0.01304875
-0.01325822
-0.01603143
0.006286955
0.003587167
-0.006149905
-0.0009488947
-0.009973047
-0.008329494
-0.01370109
-0.01458417
-0.01704782
0.01735947
0.0007746546
-0.003137088
0.0008506808
-0.006982386
-0.005143664
-0.01423459
-0.01488508
-0.01807729
0.00610971
0.0002189494
-0.002038591
0.0003273287
-0.007199978
-0.007715645
-0.01315388
-0.01458012
-0.01914031
0.02423484
0.001991463
-0.00119728
0.001809576
-0.004331399
-0.004292364
-0.01408333
-0.01546423
-0.02072066
0.004105707
0.001509444
0.00145993
0.002669511
-0.002843209
-0.003570914
-0.01203244
-0.01417189
-0.02171032
0.003550335
0.00198821
0.002127494
0.003616413
-0.00258081
-0.004061322
-0.01123151
-0.01489156
-0.02341619
0.008597109
0.005902812
0.00888597
0.006391037
0.003478372
0.001000417
-0.00731273
-0.01186008
-0.02419889
0.003039625
0.004350265
0.008476543
0.006713315
0.00187715
-0.0002537422
-0.006438723
-0.0136644
-0.02605261
-0.007996836
-0.001445205
-0.007749083
0.000200121
-0.001717749
-0.0090259
-0.0016179
-0.005615586
0.003779928
-0.007201366
-0.002388244
-0.006449305
-0.012415
-0.0008748802
-0.006988856
-0.001629077
-0.01270034
-0.004824598
-0.008797711
-0.01550436
-0.00552374
-0.01328576
-0.00784576
-0.01480398
-0.008096207
-0.01326164
-0.01991799
-0.01148417
-0.01779871
-0.009206116
-0.02089089
-0.01361704
-0.01722827
-0.02645442
-0.0186011
-0.02476823
-0.01921821
-0.02545505
-0.01925959
-0.02250145
-0.0301489
-0.02597651
-0.02897573
-0.0251029
-0.02939846
-0.02474471
-0.02772535
-0.03321689
-0.03020688
-0.03249887
-0.03014404
-0.03222859
-0.02958613
-0.03192336
-0.03534005
-0.03343673
-0.03498566
-0.03263793
-0.03463625
-0.0329264
-0.0345124
-0.001892096
-0.0007220577
0.0002305669
-0.001357309
0.0006487808
-0.001236596
0.001864418
0.001162912
0.001194596
0.001185982
0.001068509
0.001451329
0.004512436
0.001908913
0.001412285
0.002476475
0.001488757
0.00221552
0.007384099
0.00323174
0.001733158
0.004226198
0.001964714
0.003700353
0.009737574
0.003873643
0.002200937
0.005602657
0.00236371
0.0042231
-0.08249368
-0.0719314
-0.03851724
-0.08398151
-0.08286784
-0.07000526
-0.08573008
-0.07094152
-0.05321989
-0.05918398
-0.05327367
-0.04635908
-0.04854436
-0.0461393
0.01092371
0.004143497
0.00272026
0.005771007
0.002531453
0.004087869
-0.006666679
-0.2075482
-0.06330863
-0.01059288
-0.2037383
-0.04050838
-0.04183916
-0.04032651
-0.0598842
-0.0232036
-0.06105013
-0.02845006
-0.05893471
0.001467925
-0.056267
-0.02270979
-0.05573997
0.008115391
0.00303971
0.002728543
0.003368514
0.002569523
0.002585715
0.006083538
0.002363331
0.002735897
0.001340378
0.002804723
0.001703251
0.004989771
0.002279051
0.002922556
-0.001050389
0.002994429
0.0006399096
0.00386741
0.002243739
0.002966761
-0.002059694
0.003121877
0.0005111999
0.003838769
0.002514531
0.00315245
-0.003726869
0.003306358
-0.0005033981
0.003524465
0.002694571
0.00321483
-0.003692599
0.00341638
-0.0002903751
0.003858057
0.003131276
0.003253356
-0.004096963
0.003598991
-0.0007978587
0.004044323
0.0035879
0.00338006
-0.003906837
0.003778192
-0.0004101252
0.004425411
0.004081621
0.003505867
-0.003784394
0.00397722
-0.0001946787
0.004748354
0.004429753
0.003633169
-0.00381865
0.0041727
-0.0001207232
0.005121144
0.00472273
0.003783872
-0.004008647
0.004391256
-0.0002252674
0.005641684
0.00505923
0.003983669
-0.004071196
0.00464107
-0.0002336515
0.006328666
0.00542603
0.004222602
-0.004022594
0.004921397
-0.0001977123
0.00718546
0.005800665
0.004501438
-0.003901479
0.005217452
-0.0001945419
0.008266182
0.006383925
0.00481538
-0.003708889
0.005557662
-0.0001708895
0.009692905
0.007191492
0.005176956
-0.003335984
0.005959828
1.727483e-05
0.01159816
0.008323831
0.005613984
-0.002778349
0.006420087
0.0002592698
-0.008153324
0.0001369489
-0.001528299
-0.0124162
0.0004857389
-0.002335825
-0.08709962
-0.0691864
-0.03482144
-0.08177912
-0.07919655
0.001891722
-0.2046184
-0.05299678
0.004456486
-0.2040497
-0.008760448
0.0002810518
-0.000535551
-0.01434051
0.0003933277
-0.002198396
-0.08352633
-0.07793153
-0.03351749
-0.08090949
-0.08696846
0.005857293
-0.2003813
-0.0601491
0.00364943
-0.2035651
-0.01052176
0.0002915436
-0.0003467957
-0.01456105
0.0004570896
-0.001900079
-0.07958803
-0.08418164
-0.0322532
-0.08010231
-0.08952039
0.00454131
-0.203362
-0.06065713
0.004510328
-0.2039672
-0.01112102
0.0002794749
-0.0005150203
-0.01407698
0.0004613637
-0.0008892509
-0.08002648
-0.08603031
-0.02917878
-0.08027612
-0.08654314
0.004837584
-0.2060352
-0.05868261
0.005228274
-0.2063704
-0.01286773
0.0003205806