/*--------------------------------*- C++ -*----------------------------------*\
  =========                 |
  \\      /  F ield         | OpenFOAM: The Open Source CFD Toolbox
   \\    /   O peration     | Website:  https://openfoam.org
    \\  /    A nd           | Version:  7
     \\/     M anipulation  |
\*---------------------------------------------------------------------------*/
FoamFile
{
    version     2.0;
    format      ascii;
    class       volScalarField;
    location    "0.04";
    object      epsilon;
}
// * * * * * * * * * * * * * * * * * * * * * * * * * * * * * * * * * * * * * //

dimensions      [0 2 -3 0 0 0 0];

internalField   nonuniform List<scalar> 
82743
(
0.0009529269
0.0009739866
0.0009791138
0.000979365
0.0009783021
0.0009772643
0.0009763859
0.0009758226
0.0009754748
0.0009729136
0.001014964
0.001026231
0.001027826
0.001026739
0.001025471
0.001024534
0.001024264
0.001024397
0.0009791703
0.001026949
0.001040791
0.001042104
0.001039936
0.001037847
0.001036754
0.001037291
0.00103894
0.0009796605
0.00102665
0.001037061
0.001034479
0.001027198
0.001023403
0.001021748
0.001025335
0.001031991
0.0009787669
0.001021793
0.001011523
0.001002152
0.0009760742
0.0009696855
0.0009625091
0.00097428
0.001003461
0.0009773064
0.001016388
0.001002031
0.002211076
0.002202167
0.002037727
0.001994351
0.00201487
0.002147692
0.0009757167
0.001010364
0.000976132
0.002098576
0.0107199
0.002073646
0.0009741345
0.001005975
0.0009681971
0.002063771
0.01091705
0.0009490106
0.0009728986
0.001003929
0.0009659073
0.002055069
0.01059799
0.0009487312
0.000971857
0.001002459
0.0009644268
0.002047688
0.01036317
0.0009505834
0.0009709863
0.001001406
0.0009631921
0.00204067
0.01015288
0.0009485046
0.0009704869
0.00100114
0.0009627635
0.002033563
0.009937597
0.002064279
0.0009706558
0.001003496
0.0009674937
0.00202777
0.009678114
0.002053322
0.0009715599
0.001008585
0.0009927663
0.00211041
0.008096519
0.009428652
0.0100573
0.009721736
0.002124989
0.0009728007
0.001014585
0.001004449
0.0009977449
0.0009756695
0.0009724414
0.0009745062
0.0009874752
0.001012493
0.0009739142
0.001020391
0.001031988
0.001030672
0.001027
0.001025566
0.001026999
0.001031731
0.001037354
0.0009744758
0.001023948
0.001040274
0.001043478
0.001043755
0.001043896
0.001044658
0.001046072
0.001047612
0.0009746016
0.001024908
0.001042514
0.001047166
0.001048505
0.001049005
0.001049405
0.001049861
0.001050268
0.01174019
0.01167176
0.01165837
0.01164595
0.01164154
0.01163553
0.01163062
0.01162628
0.01162346
0.01262493
0.01166122
0.01163676
0.01163474
0.01162919
0.01162606
0.01161883
0.01161255
0.01160847
0.01160645
0.01237262
0.01162009
0.01162816
0.01162949
0.01162992
0.01163008
0.01162254
0.0116142
0.01160879
0.01160621
0.01228817
0.01159558
0.01161055
0.01162317
0.01163162
0.01163955
0.0116313
0.01161808
0.01160842
0.01160533
0.0122479
0.01157782
0.0116023
0.01161357
0.01163189
0.01165726
0.0116412
0.01161806
0.01159941
0.01159355
0.01222012
0.01157784
0.01159707
0.0116104
0.01166218
0.01182028
0.01171731
0.01164327
0.01159841
0.01157545
0.0122091
0.01157896
0.01160253
0.0116351
0.01177661
0.01379332
0.0121132
0.01160552
0.01184964
0.01161605
0.01219347
0.01158775
0.01161421
0.01164632
0.01182698
0.0104845
0.01161228
0.012152
0.01159863
0.01162015
0.01165013
0.01168043
0.01157782
0.01209818
0.01160257
0.01162548
0.01164174
0.0116733
0.01157072
0.01203037
0.01160378
0.01162476
0.01163597
0.01166053
0.01156006
0.01197104
0.01160113
0.01162411
0.0116323
0.01165355
0.01156224
0.01191469
0.01159471
0.01162279
0.01163317
0.01165826
0.01150048
0.01186903
0.01158998
0.01161846
0.01163471
0.01166266
0.01171163
0.01183212
0.01157845
0.01161223
0.01162484
0.01166774
0.01299379
0.001977885
0.001979681
0.003617341
0.01171926
0.01180182
0.01156761
0.01160432
0.01160973
0.01161759
0.01162038
0.01162807
0.01164829
0.01166097
0.01163418
0.01178465
0.01156608
0.01159643
0.011606
0.01160648
0.01160723
0.01161056
0.01161627
0.01162026
0.01161548
0.01177349
0.01156264
0.01159348
0.01160031
0.01160453
0.01160481
0.01160578
0.01160818
0.01161024
0.01160942
0.01176657
0.01156106
0.01159174
0.01159883
0.01160406
0.01160411
0.01160467
0.01160572
0.0116069
0.01160703
0.01176419
0.01164508
0.01162941
0.01162492
0.01162068
0.01161588
0.01161221
0.01160969
0.01160823
0.01282784
0.01165095
0.01163349
0.011638
0.01163005
0.01162773
0.0116205
0.01161442
0.01161017
0.01160798
0.0117654
0.01162211
0.01162749
0.01162928
0.01162959
0.01163021
0.01162334
0.01161519
0.01161006
0.01160758
0.01171644
0.01161721
0.01162347
0.01162493
0.01163439
0.0116412
0.01163341
0.01162003
0.01161048
0.01160735
0.01167717
0.01161693
0.01161788
0.01162398
0.01164957
0.01167609
0.0116576
0.01163221
0.01161535
0.01160694
0.01168154
0.0116154
0.01161527
0.01163206
0.01170421
0.0118596
0.01174538
0.01167465
0.01163458
0.01160942
0.01168306
0.01161755
0.01161847
0.01163888
0.01177383
0.01376818
0.01220939
0.01157765
0.01185625
0.01161663
0.01168835
0.01162149
0.01162692
0.01164202
0.01182797
0.01060178
0.01161282
0.01167695
0.01162473
0.01162308
0.01164798
0.01143948
0.01154381
0.01167188
0.01162348
0.01163509
0.01163447
0.0009613653
0.001611575
0.01151226
0.01166665
0.01161899
0.01162745
0.01162771
0.0009676431
0.001468067
0.01158401
0.01166133
0.01161756
0.01162227
0.01162372
0.000955403
0.001613583
0.01161563
0.0116569
0.0116166
0.0116283
0.01163044
0.0116768
0.01151352
0.0116522
0.01161492
0.01161731
0.01163331
0.01166167
0.01170354
0.01164692
0.01161133
0.0116168
0.01162347
0.01167813
0.01297917
0.001996811
0.001998075
0.003581205
0.01187
0.01164363
0.01160895
0.01161183
0.01161029
0.01161784
0.01162167
0.01162859
0.01164654
0.01165999
0.01163245
0.01164123
0.01160787
0.01160883
0.01160778
0.01160786
0.01160908
0.01161201
0.01161815
0.01162034
0.01161765
0.01164012
0.01160752
0.01160788
0.01160652
0.01160626
0.01160671
0.01160752
0.01160979
0.01161193
0.01161114
0.01163965
0.01160729
0.01160682
0.01160623
0.01160595
0.01160595
0.01160633
0.01160738
0.01160846
0.01160864
0.01176255
0.01164599
0.01162639
0.01161913
0.01161749
0.01161357
0.01161083
0.01160875
0.01160757
0.01274668
0.01165376
0.01162989
0.01163859
0.01162956
0.0116276
0.01162006
0.01161398
0.0116098
0.01160767
0.01176724
0.01161867
0.01162832
0.01162897
0.01163002
0.01163043
0.01162351
0.01161521
0.01161009
0.01160756
0.0117131
0.01161701
0.01162326
0.01162467
0.01163473
0.01164105
0.01163357
0.01162006
0.01161046
0.01160733
0.01166798
0.01161733
0.01161777
0.01162398
0.01164878
0.01167646
0.01165872
0.01163242
0.01161555
0.01160711
0.01168326
0.01161618
0.01161472
0.01163103
0.01170239
0.01186054
0.01174538
0.01167752
0.0116343
0.01160933
0.01168803
0.01161749
0.01161809
0.01163839
0.01177349
0.01375989
0.01220106
0.01158592
0.01185673
0.01161706
0.01168907
0.01162157
0.01162669
0.01164176
0.01183498
0.01059239
0.01161203
0.01167808
0.01162549
0.01162111
0.01165128
0.01143395
0.01152362
0.01167209
0.01162425
0.01163576
0.01163481
0.0009806348
0.001456403
0.01145425
0.01166752
0.0116201
0.01162972
0.01163065
0.0009957079
0.001223193
0.01157952
0.01166096
0.01161879
0.01162229
0.01162489
0.000974443
0.001457755
0.01162073
0.01165687
0.01161784
0.01162983
0.01163021
0.0116838
0.01151796
0.01165217
0.01161572
0.01161491
0.01163353
0.01165978
0.0117004
0.01164729
0.01161217
0.01161708
0.01162373
0.01168085
0.01294321
0.001998788
0.001999695
0.003552552
0.01187087
0.01164381
0.01160966
0.01161141
0.01161023
0.01161824
0.01162228
0.01162883
0.01164661
0.01165769
0.01163346
0.01164209
0.01160872
0.0116084
0.01160775
0.01160777
0.01160911
0.01161196
0.01161807
0.01162053
0.01161771
0.01164093
0.01160838
0.01160726
0.01160654
0.01160623
0.01160669
0.01160747
0.01160975
0.01161195
0.01161128
0.01164062
0.01160827
0.0116067
0.01160623
0.01160596
0.01160594
0.01160632
0.0116074
0.01160848
0.01160868
0.01176528
0.01164421
0.01162548
0.01161928
0.01161779
0.01161378
0.01161102
0.01160888
0.01160767
0.01274319
0.0116541
0.01162577
0.01163818
0.01162953
0.01162744
0.01162011
0.0116141
0.01160989
0.01160773
0.01178298
0.01161911
0.01162643
0.01162882
0.01162918
0.01163004
0.01162326
0.01161505
0.01160996
0.01160747
0.01171502
0.0116167
0.01162315
0.011625
0.01163462
0.01164095
0.01163337
0.01161993
0.01161042
0.01160733
0.01167062
0.01161601
0.01161782
0.01162384
0.01164876
0.0116755
0.01165811
0.01163216
0.01161551
0.01160709
0.0116851
0.01161516
0.01161479
0.01163155
0.01170336
0.01186021
0.01174563
0.01167674
0.01163447
0.01160972
0.01168405
0.01161709
0.01161838
0.01163796
0.01177226
0.01375904
0.0122027
0.011583
0.01185637
0.01161694
0.01169305
0.0116208
0.01162691
0.01164114
0.01183623
0.01059693
0.011612
0.01168051
0.01162407
0.011621
0.01165121
0.01143783
0.01152221
0.01167489
0.01162307
0.0116364
0.01163373
0.0009868666
0.001440611
0.01144312
0.01167065
0.01161803
0.01162553
0.01162625
0.00100342
0.001208266
0.01157634
0.01166361
0.01161675
0.01161921
0.01162142
0.0009805939
0.001442105
0.01161996
0.01165792
0.01161682
0.0116278
0.0116292
0.0116817
0.01151892
0.0116523
0.0116152
0.01161567
0.01163367
0.01165944
0.01170071
0.01164681
0.01161112
0.01161736
0.01162358
0.01167994
0.01290569
0.001999167
0.001999998
0.003552568
0.01186653
0.01164343
0.0116087
0.01161184
0.01161006
0.01161803
0.01162196
0.01162876
0.01164661
0.01165748
0.01163421
0.01164224
0.01160775
0.01160875
0.01160764
0.01160762
0.01160914
0.01161194
0.0116181
0.01162055
0.01161748
0.01164109
0.0116073
0.01160754
0.0116064
0.01160621
0.01160674
0.01160747
0.01160973
0.01161191
0.01161127
0.01164072
0.0116071
0.01160667
0.01160613
0.0116059
0.01160594
0.01160631
0.01160739
0.01160845
0.01160865
0.01176732
0.01164424
0.01162609
0.01161925
0.01161775
0.01161371
0.01161095
0.01160884
0.01160763
0.01276777
0.01165365
0.01162527
0.01163843
0.01162927
0.01162744
0.01162007
0.01161407
0.01160986
0.0116077
0.01178419
0.01161842
0.01162632
0.01162888
0.01162943
0.01163012
0.01162331
0.01161508
0.01160999
0.01160748
0.01171444
0.0116167
0.01162333
0.01162528
0.01163481
0.01164074
0.01163342
0.01161995
0.01161038
0.01160729
0.01166785
0.01161648
0.0116177
0.01162378
0.01164839
0.01167589
0.0116581
0.01163226
0.01161551
0.01160711
0.01168651
0.01161516
0.01161467
0.0116319
0.01170301
0.01185914
0.01174527
0.01167678
0.01163451
0.01160976
0.01168687
0.01161653
0.01161807
0.01163778
0.01177256
0.01375407
0.01220182
0.01158349
0.01185664
0.01161691
0.01169123
0.01162029
0.01162669
0.01164128
0.01183725
0.01059153
0.01161204
0.01167911
0.01162405
0.0116209
0.01165154
0.01143744
0.01152225
0.01167353
0.01162314
0.01163634
0.01163396
0.0009868149
0.001440489
0.01144328
0.01166972
0.01161833
0.01162592
0.0116267
0.00100337
0.001208126
0.01157629
0.01166194
0.01161738
0.01161948
0.01162191
0.0009805888
0.001442047
0.01161968
0.0116562
0.01161679
0.01162786
0.01162916
0.01168051
0.01151893
0.01165205
0.01161523
0.01161555
0.01163368
0.0116589
0.0117011
0.01164673
0.01161109
0.0116173
0.01162349
0.01168046
0.01288845
0.001999257
0.002000096
0.003552612
0.01186621
0.01164342
0.01160876
0.01161181
0.01161005
0.01161804
0.01162198
0.01162878
0.01164664
0.01165745
0.01163428
0.01164209
0.01160778
0.01160874
0.01160764
0.01160762
0.01160914
0.01161194
0.01161811
0.0116206
0.01161752
0.0116415
0.01160736
0.01160754
0.01160642
0.01160622
0.01160674
0.01160748
0.01160974
0.01161192
0.01161129
0.01164102
0.01160712
0.01160668
0.01160616
0.01160591
0.01160594
0.01160631
0.01160739
0.01160845
0.01160866
0.01176651
0.01164468
0.01162553
0.01161928
0.01161781
0.01161378
0.01161102
0.01160888
0.01160767
0.01275741
0.01165512
0.01162594
0.01163817
0.01162954
0.01162744
0.01162001
0.01161404
0.01160986
0.01160772
0.01178124
0.01161922
0.01162665
0.01162885
0.01162927
0.01163017
0.01162333
0.01161507
0.01161
0.01160749
0.01171516
0.01161679
0.01162312
0.01162493
0.01163481
0.01164102
0.01163351
0.01162
0.0116105
0.01160735
0.01167073
0.01161618
0.01161761
0.0116239
0.0116486
0.01167562
0.01165845
0.01163213
0.01161555
0.01160711
0.01168527
0.01161534
0.01161475
0.01163172
0.01170301
0.0118601
0.01174527
0.01167754
0.0116342
0.01160936
0.01168358
0.01161729
0.01161815
0.01163778
0.01177272
0.01375664
0.01220196
0.0115847
0.01185707
0.01161705
0.0116932
0.01162054
0.01162676
0.01164116
0.01183719
0.01059152
0.01161191
0.01168115
0.01162424
0.01162103
0.01165067
0.0114376
0.01152373
0.01167564
0.01162311
0.01163604
0.01163431
0.0009805561
0.001455903
0.01145434
0.01167343
0.0116183
0.01162649
0.01162702
0.0009958392
0.001222668
0.01157928
0.0116665
0.01161722
0.01162035
0.01162263
0.000974635
0.001457285
0.01162084
0.01165923
0.01161819
0.01162939
0.0116303
0.01168314
0.01151819
0.01165385
0.01161613
0.0116148
0.01163354
0.01165891
0.01170136
0.0116482
0.0116124
0.01161707
0.01162373
0.01168076
0.01289667
0.001999139
0.00200001
0.003552781
0.01186648
0.01164339
0.0116098
0.01161135
0.0116102
0.01161825
0.01162227
0.01162886
0.01164664
0.01165741
0.01163423
0.01164185
0.01160881
0.01160838
0.01160776
0.01160776
0.01160909
0.01161194
0.01161811
0.01162059
0.01161753
0.01164047
0.01160861
0.01160726
0.01160656
0.01160623
0.01160669
0.01160746
0.01160974
0.01161195
0.01161133
0.01164047
0.01160847
0.01160668
0.01160626
0.01160596
0.01160594
0.01160632
0.0116074
0.01160847
0.01160867
0.01176616
0.01164673
0.01162733
0.01161909
0.01161762
0.01161357
0.0116109
0.01160877
0.01160764
0.01280849
0.01165485
0.01162823
0.01163942
0.01162941
0.01162748
0.01162009
0.01161404
0.01160978
0.01160768
0.01178318
0.01161842
0.01162863
0.01162942
0.01163014
0.01163044
0.01162302
0.01161521
0.01160994
0.01160757
0.01171196
0.0116166
0.0116229
0.01162511
0.01163452
0.01164094
0.01163346
0.01162
0.01161036
0.01160725
0.01166667
0.01161668
0.01161782
0.0116239
0.01164915
0.01167654
0.0116577
0.01163235
0.01161535
0.01160689
0.01168298
0.01161567
0.01161475
0.01163143
0.01170281
0.01185693
0.01174426
0.01167493
0.01163454
0.01160926
0.01168458
0.01161758
0.0116184
0.01163836
0.01177371
0.0137526
0.01220355
0.01158724
0.01185793
0.01161676
0.01168954
0.01162115
0.01162649
0.01164193
0.01183325
0.01059469
0.01161292
0.01167911
0.01162468
0.01162235
0.01164825
0.01144089
0.01154351
0.01167355
0.01162362
0.01163486
0.01163506
0.0009621163
0.001609623
0.01151131
0.01167527
0.01162078
0.01162839
0.01162886
0.0009690719
0.001466081
0.01158523
0.0116578
0.01162072
0.01162268
0.01162443
0.0009568748
0.001611853
0.01161627
0.01165677
0.01161786
0.01162841
0.01163055
0.0116788
0.01151477
0.01165099
0.01161496
0.01161644
0.01163325
0.01166016
0.01170364
0.01164629
0.01161097
0.01161666
0.01162346
0.01167745
0.01291421
0.001998448
0.001999372
0.003553443
0.01186905
0.01164452
0.01160916
0.01161176
0.01161027
0.01161779
0.0116217
0.01162855
0.01164651
0.01165778
0.01163451
0.01164072
0.01160806
0.01160879
0.01160779
0.01160781
0.01160905
0.01161198
0.01161814
0.0116207
0.01161766
0.01164013
0.01160773
0.01160792
0.01160656
0.01160626
0.01160671
0.01160751
0.01160975
0.01161194
0.01161134
0.01163886
0.01160751
0.01160685
0.01160629
0.01160596
0.01160595
0.01160633
0.01160739
0.01160847
0.01160868
0.01177491
0.01164719
0.01162889
0.01162378
0.01162007
0.01161533
0.01161152
0.01160926
0.01160796
0.01276842
0.01165384
0.01163419
0.01163734
0.01162845
0.01162603
0.0116181
0.01161234
0.01160826
0.0116061
0.01177506
0.01155607
0.01162382
0.01162727
0.01162854
0.01162871
0.01162157
0.01161342
0.0116083
0.01160584
0.01171511
0.01154105
0.01161781
0.01161649
0.01163121
0.01163759
0.01162893
0.01161592
0.01160774
0.01160499
0.01167537
0.01153578
0.01161
0.0116083
0.01162961
0.01165689
0.01164017
0.01161774
0.01159911
0.01159378
0.01168196
0.01153203
0.01160367
0.01160819
0.01165938
0.01181372
0.01170983
0.01164138
0.01159766
0.01157452
0.01168717
0.01153199
0.01161014
0.01163197
0.01177568
0.01376076
0.01219513
0.01159819
0.0118624
0.01161722
0.01169127
0.01154
0.01162253
0.01164306
0.01183638
0.01059476
0.01161412
0.01168398
0.01154682
0.01162064
0.01164521
0.01167813
0.01158305
0.01168194
0.01154576
0.01162577
0.01163445
0.01156395
0.01157399
0.01168304
0.01154559
0.01162959
0.01163169
0.01160282
0.01157413
0.01168137
0.01155228
0.01162859
0.01162833
0.01163702
0.01157096
0.01185134
0.01158838
0.01162472
0.01163325
0.01167031
0.01150351
0.0118233
0.01158445
0.01161803
0.01163478
0.01165828
0.01171253
0.01182339
0.01157839
0.01161268
0.0116245
0.0116706
0.01295339
0.001992255
0.00199367
0.003554433
0.01187766
0.01180947
0.01156597
0.01160472
0.01160962
0.01161763
0.01162019
0.01162805
0.01164495
0.01165611
0.01163242
0.0117913
0.01156716
0.011597
0.01160596
0.01160643
0.01160719
0.01161046
0.01161662
0.01161882
0.01161595
0.01178222
0.01156187
0.0115936
0.01159995
0.01160451
0.0116048
0.01160577
0.01160804
0.01161041
0.01160979
0.0117764
0.01155993
0.01159205
0.01159824
0.011604
0.01160398
0.01160466
0.01160573
0.01160681
0.01160704
0.01130188
0.01129039
0.01136746
0.01140099
0.01143622
0.01146184
0.01148058
0.01149271
0.01150109
0.01274418
0.0009570183
0.0009793136
0.0009840154
0.0009837585
0.0009819008
0.0009803622
0.0009803594
0.0009789359
0.0009779762
0.01263539
0.0009764174
0.001016981
0.001027652
0.001029001
0.001027635
0.00102624
0.00102526
0.001024975
0.001025036
0.01243857
0.0009829864
0.001028495
0.001041535
0.001042485
0.00104016
0.001037868
0.001036871
0.001037436
0.001039169
0.01229278
0.0009846748
0.001028091
0.001037514
0.001034435
0.001026426
0.001022042
0.001020859
0.001025102
0.001031934
0.01234355
0.00098317
0.001023066
0.001011886
0.001001982
0.0009725718
0.0009625695
0.000959098
0.0009738254
0.001003227
0.01236226
0.0009802019
0.001017378
0.001002491
0.01044194
0.01372727
0.01194418
0.01166649
0.01178587
0.01155556
0.01234463
0.0009785254
0.001011226
0.0009771348
0.01077613
0.01063676
0.01160857
0.01219376
0.0009778555
0.001006917
0.0009685253
0.01108021
0.0116054
0.01225669
0.0009766753
0.001005217
0.0009670971
0.01118329
0.01160784
0.01210588
0.0009771341
0.001004221
0.000967351
0.01127011
0.0116105
0.01210476
0.0009771321
0.001003298
0.0009650392
0.01126476
0.01161731
0.01196156
0.0009746487
0.001002895
0.0009659258
0.01121084
0.01163034
0.01266274
0.0009732478
0.00100477
0.0009706955
0.01118274
0.01179672
0.01305932
0.0009738401
0.001009391
0.0009937845
0.01088149
0.01307224
0.00192352
0.001932448
0.003569656
0.01184748
0.01291985
0.000973864
0.001015078
0.001004877
0.0009982225
0.0009748718
0.0009710517
0.0009736937
0.0009866197
0.001010321
0.01280024
0.0009752427
0.001020968
0.001032441
0.001031111
0.001027196
0.001025677
0.001027106
0.001031759
0.001037283
0.01262292
0.0009759383
0.001024589
0.001040821
0.001044058
0.001044315
0.001044425
0.001045144
0.001046477
0.001047942
0.01260412
0.0009764269
0.001025623
0.001043134
0.001047838
0.001049184
0.001049645
0.001049969
0.001050327
0.001050632
0.001995802
0.01195371
0.02516578
0.01178199
0.001989464
0.002049336
0.01173613
0.01158201
0.009031791
0.008914627
0.002057662
0.002064206
0.01161238
0.01158715
0.009060156
0.009053312
0.00205861
0.002058572
0.01163068
0.01159712
0.00929158
0.009284905
0.002054146
0.00205418
0.01161913
0.01160541
0.009457402
0.009451158
0.002048762
0.002048368
0.01162942
0.01161184
0.009649836
0.009643485
0.002044413
0.002044337
0.01162645
0.01161518
0.009797039
0.00979278
0.00204083
0.002040617
0.01162495
0.011617
0.009919992
0.009917191
0.002038184
0.002037969
0.01162235
0.01161815
0.01000201
0.0100029
0.002035943
0.01162129
0.01006847
0.001999293
0.002058543
0.02251293
0.01164691
0.0202762
0.01163524
0.002064295
0.002073827
0.01959025
0.011619
0.01893421
0.011561
0.002068605
0.002072248
0.01856619
0.01158784
0.01816957
0.01153883
0.002066554
0.002070443
0.01795646
0.01157922
0.01771216
0.01153211
0.002064797
0.002069225
0.01760912
0.01157011
0.01748043
0.01153052
0.002063345
0.002067912
0.01743748
0.01157002
0.01731137
0.01153189
0.002043426
0.01031886
0.01382301
0.01224885
0.009270489
0.001964125
0.01168864
0.01159331
0.002104502
0.004547763
0.01177876
0.01156805
0.01168437
0.0020609
0.00206445
0.01726408
0.01157437
0.01683194
0.01153471
0.01110797
0.01065939
0.002057165
0.00206004
0.0167763
0.01157563
0.01619868
0.01153297
0.01075956
0.002052512
0.00205485
0.01615573
0.01157327
0.01547587
0.01153262
0.01050885
0.002047388
0.002049515
0.01545137
0.01156797
0.01477237
0.01152972
0.01028702
0.002042458
0.002044694
0.01478297
0.01156202
0.01413487
0.01152469
0.01006134
0.002038212
0.002040877
0.01417367
0.01155693
0.01360398
0.01151925
0.009790284
0.002034825
0.002037938
0.01366812
0.01154952
0.01319768
0.01151295
0.008213124
0.004614009
0.004722482
0.01159933
0.01151302
0.002032404
0.002035937
0.01326679
0.01154187
0.01292018
0.01150543
0.002031056
0.002034874
0.01299227
0.01153873
0.01274464
0.01150183
0.002030275
0.002034021
0.01282148
0.01153379
0.01263154
0.0114996
0.002029697
0.002033376
0.01271386
0.01153243
0.01255411
0.01149833
0.002029156
0.002032641
0.01264178
0.01153177
0.01149771
0.01185028
0.02504793
0.01181841
0.01184854
0.0281025
0.01184244
0.0123059
0.009116406
0.01377351
0.01236004
0.009199528
0.01165248
0.01168271
0.01186184
0.01165522
0.01169744
0.01059528
0.01377895
0.007851986
0.01135921
0.01133742
0.01139985
0.01127267
0.004379917
0.01167016
0.01166688
0.01291934
0.00440738
0.01167663
0.01166931
0.01186616
0.02637467
0.01185781
0.0118503
0.02719938
0.01185536
0.01236886
0.009193536
0.01375988
0.01237638
0.009202243
0.01165417
0.01168324
0.01185876
0.01165398
0.01168023
0.01059626
0.00784862
0.007844966
0.01140073
0.01139303
0.01138763
0.01129283
0.004408436
0.01167658
0.01166672
0.01291454
0.004410369
0.01167748
0.01166658
0.01293256
0.01188636
0.01177892
0.003551995
0.01300103
0.01187703
0.01176803
0.0118602
0.02665995
0.01185251
0.01186095
0.02714669
0.01186048
0.0123702
0.009198548
0.01376035
0.01236927
0.009200674
0.01165395
0.0116765
0.01185738
0.01165334
0.01167516
0.01059281
0.007841667
0.007840681
0.004410535
0.01167773
0.011667
0.01289903
0.004410767
0.01167758
0.01166698
0.01288979
0.01187791
0.01177911
0.003552556
0.01288882
0.01188018
0.01177845
0.01185814
0.02664501
0.01185933
0.01185842
0.02679441
0.01186163
0.01236992
0.009201569
0.01375543
0.01237097
0.009200625
0.01165345
0.01167542
0.01185704
0.01165329
0.01167423
0.01059172
0.007839302
0.007837613
0.004410639
0.01167759
0.01166663
0.01288755
0.004410718
0.01167748
0.01166661
0.01287857
0.01187972
0.01178022
0.003552588
0.01287723
0.01188146
0.01178011
0.01185982
0.02691514
0.01186385
0.01185971
0.02687106
0.01186193
0.01236975
0.009201155
0.013754
0.01236919
0.00919982
0.01165327
0.01167425
0.0118564
0.01165347
0.01167485
0.01059397
0.007838055
0.007837317
0.004410749
0.0116775
0.01166662
0.01290038
0.004410718
0.01167763
0.01166661
0.01287873
0.01188079
0.01178086
0.003552601
0.01287879
0.0118806
0.01178072
0.01185715
0.02710712
0.0118603
0.01185736
0.02660424
0.01185294
0.01236885
0.009201851
0.01375652
0.01236968
0.009197667
0.01165334
0.01167447
0.01185655
0.01165383
0.0116761
0.01059806
0.007840463
0.007841653
0.00441089
0.01167757
0.01166697
0.01294453
0.004410641
0.01167769
0.01166701
0.01288407
0.011881
0.01178087
0.00355281
0.01288454
0.01188023
0.01178162
0.0118574
0.02714942
0.011862
0.01185382
0.02698475
0.01184422
0.01237297
0.009202762
0.0137556
0.01236649
0.009190796
0.01165346
0.01168052
0.01185625
0.01165372
0.0116834
0.01059806
0.007844598
0.007843821
0.004410544
0.01167727
0.01166672
0.0129575
0.004408729
0.01167635
0.01166652
0.0128927
0.01188426
0.01178014
0.003553802
0.01289837
0.01188071
0.01178206
0.01185867
0.02696462
0.0118545
0.0118535
0.02693278
0.01184233
0.01235489
0.009201252
0.01376003
0.01229097
0.009128727
0.01165466
0.01169639
0.0118511
0.01165271
0.01167935
0.01053297
0.007851306
0.007854435
0.004407762
0.01167646
0.011669
0.01293488
0.004375037
0.01167307
0.01166558
0.01294596
0.0118822
0.01178115
0.003557826
0.0129886
0.01187994
0.01178593
0.01185466
0.02690905
0.01179977
0.004771834
0.002052075
0.01147656
0.009916147
0.009921333
0.002076431
0.002077966
0.01149071
0.01002213
0.01003918
0.002070868
0.002066089
0.01165823
0.01260868
0.01156216
0.002104709
0.002105632
0.01161647
0.01243131
0.01156906
0.002101792
0.002117272
0.01162249
0.01241178
0.01156256
0.00209647
0.002096975
0.01227009
0.009285305
0.002182888
0.00200361
0.01081343
0.01170809
0.001975073
0.001960375
0.01159987
0.001951905
0.001951266
0.01156749
0.01168617
0.002011763
0.002102069
0.004504624
0.01162568
0.0122718
0.01156615
0.002090862
0.002098292
0.01207078
0.01140779
0.01104171
0.01076908
0.0106205
0.01886018
0.01912094
0.01095098
0.01156498
0.01303775
0.01152613
0.002065904
0.002052293
0.007866867
0.008308298
0.01156839
0.01168843
0.004557451
0.004697124
0.0115582
0.0127835
0.01150908
0.002061314
0.002061898
0.004333128
0.01119978
0.01111696
0.008211878
0.008995101
0.002041914
0.002031044
0.01311024
0.01071551
0.01029867
0.009546825
0.004726268
0.002080025
0.002148549
0.01153278
0.01273902
0.01150211
0.002037251
0.002037125
0.01154395
0.01257586
0.01152798
0.002041809
0.004398725
0.002067444
0.01153312
0.01252461
0.01149695
0.004396206
0.002063723
0.002045633
0.01153584
0.01241128
0.01150842
0.002036859
0.002058608
0.01618968
0.00463567
0.007573904
0.004303642
0.007599879
0.004324549
0.007877103
0.004320235
0.00787647
0.004333746
0.008194388
0.004296427
0.008184785
0.004303816
0.008435735
0.004271548
0.008406197
0.004281523
0.008683201
0.004250443
0.00866564
0.004258646
0.008885689
0.004231057
0.008859834
0.004240665
0.009053317
0.004216436
0.009027871
0.004225612
0.009176965
0.004205102
0.009148698
0.004214381
0.009272936
0.004196531
0.009248007
0.004205412
0.01373533
0.004807493
0.0140408
0.004762329
0.01335539
0.004725828
0.01345915
0.004678292
0.01317459
0.004656377
0.01321788
0.004625761
0.01303607
0.004609763
0.0130627
0.004590982
0.01295649
0.004583634
0.01297308
0.0045714
0.01289769
0.004569211
0.01290971
0.004558635
0.002190974
0.002170192
0.004538841
0.01044866
0.01245673
0.01059584
0.017265
0.002024631
0.01192178
0.01174178
0.01281097
0.004554379
0.01281943
0.004538907
0.004367512
0.002071237
0.004322808
0.01077406
0.008796281
0.01119124
0.004196116
0.01135038
0.01122359
0.02610857
0.004540975
0.002053277
0.01164016
0.01160549
0.01268628
0.004522518
0.01268919
0.004506244
0.004299384
0.002059669
0.004267832
0.0110774
0.004254881
0.01133934
0.004285895
0.01088449
0.02477779
0.02466462
0.002020945
0.002075276
0.01140499
0.01156336
0.01254328
0.004480637
0.0125371
0.004466191
0.004249571
0.002052136
0.004227453
0.01120519
0.004261571
0.01139669
0.004250805
0.0105848
0.02329221
0.02327204
0.002084155
0.002091506
0.01149358
0.0115406
0.01240158
0.004433808
0.01238507
0.004424801
0.004212137
0.002044405
0.004192773
0.01123439
0.004229299
0.01141082
0.004214612
0.01034961
0.02222899
0.02220689
0.002091797
0.002092289
0.01150305
0.01153939
0.01226391
0.004387415
0.0122436
0.00438348
0.004179281
0.002036669
0.004158046
0.0112343
0.004194214
0.01140323
0.004169927
0.01012768
0.02129415
0.02123754
0.002084099
0.002038131
0.01156667
0.01152252
0.01214147
0.004343591
0.01212006
0.004344032
0.004146348
0.002028285
0.004116969
0.01121469
0.004147491
0.01137391
0.003966136
0.009886128
0.02036603
0.02022899
0.002065675
0.004659995
0.01162824
0.01173917
0.01203594
0.004304748
0.0120178
0.00431113
0.004104487
0.002036237
0.003631196
0.01115199
0.003998039
0.01125657
0.003028402
0.009533446
0.01928057
0.01886336
0.004363715
0.01130606
0.004552402
0.01056549
0.0119539
0.004273445
0.01193929
0.004286332
0.009108697
0.002044487
0.002039645
0.003310194
0.004340718
0.01120217
0.01112215
0.004155574
0.002054605
0.002065541
0.001938135
0.001965389
0.01126606
0.01114255
0.004063975
0.002060122
0.002059876
0.001944038
0.004042612
0.01119047
0.01096948
0.004748046
0.002086679
0.002160685
0.003632013
0.01300417
0.01056855
0.01050053
0.01190016
0.00425092
0.01188841
0.004269951
0.01186552
0.004236611
0.01185538
0.00425967
0.01184365
0.004227417
0.01183508
0.00425294
0.0118285
0.004221109
0.01182107
0.004248286
0.01580199
0.01569942
0.01261364
0.01178278
0.0164846
0.01177777
0.0125827
0.01178738
0.01694597
0.01164852
0.01159818
0.01167266
0.00846839
0.01171488
0.001863585
0.01183489
0.008787664
0.01170585
0.001914301
0.01056982
0.01152359
0.01030532
0.01151192
0.01016146
0.004101312
0.01164184
0.01216667
0.0116578
0.004334287
0.01164368
0.01209112
0.01186364
0.01160911
0.01164353
0.01167008
0.01178597
0.01161075
0.01164484
0.01163001
0.003823955
0.01175661
0.01293559
0.01162647
0.003792173
0.01171865
0.004040981
0.01172351
0.01185738
0.001994438
0.004051951
0.01172275
0.01185524
0.01325147
0.01183038
0.01177635
0.003608265
0.01324194
0.01181942
0.0118063
0.01568059
0.01581291
0.01258494
0.0117699
0.01684684
0.01177424
0.01257413
0.01177652
0.01692647
0.01166501
0.01158657
0.01167117
0.008781199
0.01167124
0.001932902
0.0118336
0.008835926
0.01166959
0.00194039
0.01059628
0.01151899
0.01023912
0.01151919
0.01023815
0.004336826
0.01163362
0.01199974
0.01166006
0.004348879
0.01163654
0.01202991
0.01179647
0.01160863
0.01164265
0.0116773
0.01178707
0.01160893
0.01164206
0.01163294
0.003794489
0.01171421
0.01293236
0.01162142
0.003795593
0.01171488
0.004054286
0.01173216
0.0118086
0.001999582
0.004053716
0.01173166
0.01180999
0.0139129
0.02462114
0.01375595
0.003559202
0.01413281
0.02281027
0.01356707
0.01583714
0.01583242
0.01257951
0.01177491
0.0169106
0.01177396
0.01257374
0.01178052
0.01692911
0.01166738
0.01158382
0.01166856
0.008819731
0.01165867
0.001943237
0.01183756
0.008838133
0.01166767
0.001944813
0.01059471
0.01151827
0.01022849
0.01151886
0.01023281
0.004348629
0.01163298
0.01197507
0.01165887
0.004350738
0.01163557
0.01197954
0.01139135
0.01122917
0.01139086
0.01122554
0.01179517
0.0116085
0.01164639
0.0116804
0.01179721
0.01160856
0.01164629
0.01162546
0.003796605
0.0117117
0.01290099
0.0116239
0.003796761
0.01171113
0.004053423
0.01173019
0.01181018
0.002000032
0.004053766
0.01173013
0.0118122
0.01392394
0.02156762
0.01360515
0.003552691
0.01393828
0.02126359
0.01361756
0.01582139
0.0158338
0.0125766
0.01177305
0.01692104
0.01177292
0.01257326
0.01177814
0.01692898
0.01166625
0.01158356
0.0116661