/*--------------------------------*- C++ -*----------------------------------*\
  =========                 |
  \\      /  F ield         | OpenFOAM: The Open Source CFD Toolbox
   \\    /   O peration     | Website:  https://openfoam.org
    \\  /    A nd           | Version:  7
     \\/     M anipulation  |
\*---------------------------------------------------------------------------*/
FoamFile
{
    version     2.0;
    format      ascii;
    class       volScalarField;
    location    "0.04";
    object      nut;
}
// * * * * * * * * * * * * * * * * * * * * * * * * * * * * * * * * * * * * * //

dimensions      [0 2 -1 0 0 0 0];

internalField   nonuniform List<scalar> 
82743
(
0.001349866
0.001321024
0.00131103
0.00130844
0.001307329
0.001306694
0.001306237
0.001305946
0.001305628
0.001320326
0.001267004
0.001250869
0.001246862
0.001245576
0.001244914
0.001244386
0.001243837
0.001243029
0.001311331
0.001252266
0.001234033
0.001230555
0.001230098
0.001229716
0.001229086
0.00122774
0.001225496
0.001309994
0.001252502
0.001238683
0.001240156
0.001243816
0.001245559
0.001245013
0.001240669
0.001232868
0.001311061
0.001258685
0.001270985
0.001280359
0.001313711
0.001311897
0.001317794
0.001301872
0.001265459
0.001312801
0.001265704
0.001285057
0.0005981185
0.0006573035
0.0006310927
0.0006366876
0.0006324243
0.0005957838
0.001314331
0.00127219
0.001317516
0.0006295462
0.0001578727
0.0006177117
0.001314984
0.001275635
0.001325222
0.0006348076
0.0001471637
0.001342174
0.001314965
0.001276014
0.001325408
0.0006337717
0.0001454476
0.001342199
0.001314552
0.001275521
0.001324733
0.0006328571
0.0001441594
0.001340816
0.001313913
0.001274685
0.001323871
0.0006320012
0.0001429845
0.001342203
0.001312989
0.001273112
0.001322191
0.000631203
0.0001417622
0.0006254326
0.001311577
0.001268738
0.001313824
0.0006302046
0.0001402948
0.000632958
0.001309597
0.001261496
0.001280031
0.0006043103
0.000156089
0.0001443966
0.0001392934
0.0001531489
0.0006156121
0.001307488
0.001254176
0.001265597
0.001273088
0.00130207
0.001308197
0.001308524
0.001293502
0.001261284
0.001305838
0.001247048
0.001232712
0.001233492
0.001238156
0.001240922
0.00124069
0.00123622
0.001229013
0.001304916
0.001242891
0.001223265
0.001219105
0.001219006
0.001219322
0.001219205
0.001218122
0.001216058
0.001304638
0.00124173
0.001220752
0.001215037
0.001213623
0.001213263
0.001213134
0.001212838
0.001212153
0.0001012215
0.0001010147
0.0001009762
0.0001009473
0.0001009445
0.0001009347
0.0001009263
0.0001009182
0.0001009135
0.0001034079
0.0001010718
0.0001010015
0.0001010024
0.0001009896
0.0001009859
0.0001009669
0.0001009499
0.0001009389
0.0001009342
0.0001032755
0.0001012114
0.0001009857
0.0001009862
0.0001009931
0.0001010016
0.0001009821
0.000100958
0.0001009419
0.0001009348
0.0001030204
0.0001012612
0.0001010465
0.0001009732
0.0001010075
0.0001010418
0.0001010226
0.000100981
0.0001009497
0.0001009389
0.0001028951
0.0001013412
0.0001010675
0.000101032
0.0001011767
0.0001012738
0.0001012488
0.0001011551
0.0001011061
0.0001010519
0.0001028078
0.0001012976
0.0001010835
0.0001011168
0.000101442
0.0001018781
0.0001017625
0.0001015312
0.0001013407
0.0001012594
0.0001027747
0.0001013058
0.0001010649
0.0001009997
0.0001013212
0.0001134665
0.0001036279
0.0001039911
0.000101775
0.0001009209
0.0001027237
0.000101272
0.0001010475
0.0001010392
0.0001014905
0.0001483457
0.0001009765
0.0001025885
0.0001012932
0.0001010262
0.0001010606
0.0001011222
0.0001012145
0.0001024167
0.0001013016
0.0001009973
0.0001010392
0.0001011078
0.000101288
0.0001022001
0.0001013075
0.0001010122
0.0001010269
0.0001010798
0.000101421
0.0001020137
0.0001013181
0.0001010065
0.0001010212
0.0001010697
0.0001014698
0.0001018349
0.0001013351
0.0001009989
0.0001010308
0.0001011001
0.0001023135
0.0001016808
0.000101321
0.0001009889
0.000101041
0.0001010868
0.000101424
0.0001015506
0.0001013239
0.0001009759
0.0001010065
0.0001011089
0.0001059996
0.0006462228
0.000651887
0.0003849124
0.0001010703
0.0001014408
0.0001013547
0.000100989
0.0001009559
0.0001009836
0.0001009968
0.0001010211
0.0001010813
0.0001011111
0.0001010233
0.0001013787
0.0001013498
0.0001010331
0.0001009455
0.0001009445
0.0001009482
0.000100958
0.0001009739
0.0001009822
0.0001009654
0.0001013384
0.0001013678
0.0001010504
0.0001009834
0.0001009392
0.0001009388
0.0001009409
0.0001009472
0.0001009517
0.000100955
0.0001013134
0.0001013762
0.0001010619
0.0001009937
0.0001009396
0.000100938
0.0001009373
0.0001009398
0.0001009424
0.0001009426
0.0001013402
0.0001010031
0.0001009566
0.0001009462
0.0001009384
0.0001009276
0.0001009203
0.0001009152
0.0001009129
0.0001040419
0.0001009936
0.0001009653
0.0001009965
0.0001009734
0.000100971
0.0001009515
0.0001009352
0.0001009237
0.0001009183
0.0001013227
0.0001009019
0.0001009495
0.0001009636
0.0001009685
0.0001009777
0.0001009616
0.0001009389
0.0001009242
0.000100918
0.0001012009
0.0001008916
0.0001009374
0.0001009479
0.0001009805
0.0001010117
0.0001009968
0.0001009572
0.0001009272
0.0001009191
0.0001010538
0.0001009048
0.0001009164
0.0001009408
0.0001010043
0.0001010862
0.0001010758
0.0001010009
0.0001009429
0.000100919
0.0001010717
0.0001008985
0.0001009079
0.000100961
0.0001010528
0.0001014871
0.0001014437
0.0001012037
0.0001009942
0.0001009289
0.0001010787
0.0001009067
0.0001009179
0.000100977
0.0001012863
0.000113531
0.0001035669
0.0001042243
0.0001017751
0.0001009211
0.0001010977
0.0001009256
0.0001009494
0.0001009992
0.000101492
0.0001491434
0.0001009646
0.0001010584
0.0001009437
0.0001009437
0.0001010288
0.0001034265
0.0001015225
0.0001010445
0.0001009436
0.0001009929
0.0001010127
0.001332283
0.0007958911
0.0001018521
0.0001010314
0.0001009328
0.0001009698
0.0001009975
0.001318866
0.0008726944
0.000101201
0.0001010168
0.0001009338
0.0001009607
0.0001009903
0.00133159
0.0007967283
0.000101031
0.0001010047
0.0001009364
0.0001009864
0.0001010001
0.0001011789
0.0001021202
0.0001009911
0.0001009357
0.0001009516
0.0001010149
0.0001010828
0.0001014586
0.0001009751
0.0001009261
0.0001009521
0.0001009792
0.0001011479
0.0001058563
0.0006400989
0.0006462971
0.0003909589
0.0001014895
0.0001009652
0.0001009199
0.0001009365
0.0001009346
0.0001009621
0.0001009786
0.0001009986
0.0001010505
0.0001010811
0.0001009943
0.0001009579
0.0001009176
0.0001009275
0.000100926
0.0001009272
0.0001009327
0.0001009404
0.0001009573
0.0001009597
0.0001009502
0.0001009548
0.0001009175
0.0001009251
0.0001009215
0.0001009214
0.0001009233
0.0001009249
0.0001009305
0.0001009352
0.000100932
0.000100954
0.0001009175
0.0001009219
0.0001009205
0.0001009202
0.0001009203
0.0001009209
0.0001009234
0.0001009257
0.0001009261
0.0001013292
0.0001010053
0.0001009491
0.0001009267
0.0001009289
0.0001009209
0.0001009169
0.0001009133
0.0001009119
0.000103828
0.0001010021
0.0001009532
0.0001009997
0.0001009736
0.0001009718
0.0001009514
0.0001009348
0.0001009234
0.0001009183
0.0001013237
0.0001008898
0.0001009552
0.0001009624
0.000100971
0.000100979
0.0001009625
0.0001009394
0.0001009248
0.0001009184
0.0001011833
0.0001008907
0.0001009364
0.0001009472
0.0001009818
0.000101011
0.0001009972
0.0001009571
0.0001009273
0.0001009191
0.0001010152
0.0001009073
0.0001009158
0.0001009406
0.0001010017
0.0001010873
0.0001010807
0.000101001
0.0001009435
0.0001009197
0.0001010733
0.0001009006
0.0001009055
0.0001009571
0.0001010477
0.0001014948
0.000101444
0.0001012142
0.0001009932
0.0001009283
0.0001010914
0.000100905
0.0001009169
0.0001009751
0.0001012867
0.0001134418
0.0001035396
0.0001041605
0.0001017652
0.0001009234
0.0001010953
0.0001009252
0.0001009487
0.0001009987
0.000101507
0.0001490534
0.0001009712
0.0001010575
0.0001009462
0.0001009366
0.0001010395
0.0001034817
0.0001017073
0.0001010403
0.0001009463
0.0001009959
0.0001010139
0.001306632
0.0008794221
0.0001024065
0.0001010293
0.0001009369
0.000100977
0.0001010071
0.001281753
0.001045345
0.0001012549
0.0001010103
0.0001009386
0.0001009603
0.0001009945
0.00130649
0.0008800877
0.0001010482
0.0001009996
0.0001009404
0.0001009917
0.0001009991
0.0001012
0.0001020614
0.0001009861
0.0001009377
0.0001009445
0.0001010154
0.0001010769
0.0001014703
0.0001009715
0.0001009279
0.0001009534
0.0001009799
0.0001011584
0.0001057333
0.0006394508
0.0006458733
0.00039318
0.0001015177
0.0001009609
0.0001009213
0.0001009351
0.0001009342
0.0001009636
0.0001009809
0.0001009996
0.0001010512
0.0001010744
0.0001009997
0.000100956
0.0001009196
0.0001009257
0.0001009257
0.0001009269
0.0001009328
0.0001009404
0.0001009571
0.0001009605
0.0001009502
0.0001009527
0.0001009196
0.0001009225
0.0001009214
0.0001009212
0.0001009232
0.0001009247
0.0001009303
0.0001009352
0.0001009324
0.0001009523
0.0001009201
0.000100921
0.0001009204
0.0001009201
0.0001009202
0.0001009208
0.0001009234
0.0001009257
0.0001009262
0.0001013384
0.0001009985
0.0001009456
0.0001009273
0.00010093
0.0001009215
0.0001009174
0.0001009136
0.0001009121
0.0001038233
0.0001010036
0.0001009404
0.0001009989
0.0001009743
0.0001009716
0.000100952
0.0001009356
0.0001009241
0.0001009187
0.0001013747
0.0001008897
0.0001009484
0.0001009631
0.0001009684
0.0001009782
0.0001009622
0.0001009393
0.0001009248
0.0001009185
0.0001011898
0.0001008891
0.0001009372
0.0001009483
0.0001009818
0.0001010112
0.0001009968
0.0001009569
0.0001009273
0.0001009193
0.0001010242
0.0001009025
0.0001009161
0.0001009406
0.000101002
0.0001010836
0.0001010782
0.0001010004
0.0001009437
0.0001009198
0.0001010791
0.0001008962
0.0001009059
0.0001009592
0.0001010514
0.0001014924
0.0001014452
0.0001012116
0.0001009937
0.0001009299
0.0001010768
0.000100904
0.000100918
0.0001009739
0.0001012825
0.0001134491
0.0001035554
0.0001041626
0.0001017495
0.000100923
0.0001011092
0.0001009216
0.0001009496
0.0001009969
0.0001015101
0.0001490896
0.0001009718
0.000101066
0.0001009404
0.0001009369
0.0001010393
0.0001034918
0.0001017203
0.00010105
0.0001009412
0.0001009985
0.0001010097
0.00129849
0.0008887729
0.0001025183
0.0001010406
0.0001009284
0.0001009628
0.0001009919
0.001271968
0.001058
0.0001012786
0.0001010198
0.00010093
0.0001009511
0.0001009824
0.001298383
0.0008894637
0.0001010454
0.0001010029
0.0001009365
0.0001009851
0.0001009962
0.0001011944
0.0001020531
0.0001009859
0.0001009361
0.000100947
0.0001010161
0.0001010758
0.0001014723
0.000100969
0.0001009244
0.0001009547
0.0001009795
0.0001011557
0.0001056137
0.0006393085
0.0006457814
0.0003932587
0.000101508
0.0001009588
0.000100918
0.0001009369
0.0001009338
0.0001009632
0.00010098
0.0001009995
0.0001010513
0.0001010738
0.0001010024
0.0001009558
0.0001009159
0.0001009273
0.0001009256
0.0001009268
0.0001009331
0.0001009405
0.0001009574
0.0001009608
0.0001009494
0.0001009526
0.0001009154
0.0001009238
0.0001009213
0.0001009214
0.0001009235
0.0001009249
0.0001009304
0.0001009351
0.0001009324
0.0001009521
0.0001009154
0.0001009213
0.0001009204
0.0001009201
0.0001009203
0.0001009209
0.0001009234
0.0001009257
0.0001009261
0.0001013466
0.000100997
0.000100948
0.0001009271
0.0001009298
0.0001009212
0.0001009171
0.0001009135
0.000100912
0.0001038774
0.0001010018
0.0001009391
0.0001009998
0.0001009734
0.0001009716
0.0001009519
0.0001009355
0.0001009239
0.0001009187
0.0001013786
0.0001008867
0.0001009482
0.0001009634
0.0001009696
0.0001009784
0.0001009624
0.0001009395
0.000100925
0.0001009186
0.0001011873
0.0001008891
0.0001009384
0.0001009491
0.0001009826
0.0001010103
0.000100997
0.000100957
0.0001009272
0.0001009192
0.0001010142
0.0001009042
0.0001009157
0.0001009403
0.0001010009
0.0001010856
0.0001010781
0.0001010007
0.0001009436
0.0001009198
0.0001010843
0.000100896
0.0001009056
0.0001009602
0.0001010499
0.0001014887
0.0001014438
0.0001012116
0.0001009938
0.0001009298
0.0001010869
0.000100901
0.0001009171
0.0001009732
0.0001012836
0.0001134194
0.0001035548
0.000104159
0.0001017475
0.000100923
0.0001011024
0.00010092
0.0001009491
0.0001009974
0.0001015142
0.0001490503
0.000100972
0.0001010607
0.0001009407
0.0001009367
0.0001010404
0.0001034967
0.0001017198
0.0001010449
0.0001009417
0.0001009986
0.0001010104
0.001298588
0.000888842
0.0001025158
0.0001010371
0.0001009296
0.0001009644
0.0001009934
0.001271985
0.001058098
0.0001012811
0.0001010133
0.0001009327
0.000100952
0.0001009841
0.001298381
0.0008895413
0.0001010443
0.0001009966
0.0001009364
0.0001009855
0.0001009959
0.0001011914
0.0001020506
0.000100985
0.0001009359
0.0001009467
0.0001010161
0.0001010739
0.0001014741
0.0001009687
0.0001009239
0.0001009546
0.0001009792
0.0001011573
0.0001055561
0.0006392784
0.0006457608
0.000393266
0.0001015076
0.0001009587
0.0001009178
0.0001009368
0.0001009338
0.0001009632
0.0001009801
0.0001009996
0.0001010514
0.0001010737
0.0001010027
0.0001009553
0.0001009156
0.0001009272
0.0001009255
0.0001009267
0.0001009331
0.0001009405
0.0001009574
0.0001009609
0.0001009495
0.0001009542
0.0001009151
0.0001009238
0.0001009212
0.0001009214
0.0001009235
0.0001009249
0.0001009304
0.0001009352
0.0001009325
0.0001009532
0.000100915
0.0001009214
0.0001009202
0.00010092
0.0001009203
0.0001009209
0.0001009234
0.0001009257
0.0001009261
0.0001013429
0.0001010003
0.0001009452
0.0001009272
0.0001009299
0.0001009214
0.0001009174
0.0001009136
0.0001009121
0.0001038562
0.0001010068
0.0001009406
0.000100999
0.0001009741
0.0001009714
0.0001009514
0.0001009352
0.0001009238
0.0001009185
0.0001013688
0.00010089
0.0001009491
0.0001009628
0.0001009685
0.0001009783
0.0001009622
0.0001009392
0.0001009247
0.0001009184
0.0001011906
0.0001008887
0.0001009369
0.000100948
0.0001009823
0.0001010112
0.0001009969
0.0001009568
0.0001009274
0.0001009193
0.0001010248
0.0001009024
0.0001009154
0.0001009403
0.0001010012
0.0001010838
0.0001010794
0.0001009997
0.0001009432
0.0001009194
0.0001010799
0.0001008964
0.0001009058
0.0001009593
0.0001010499
0.0001014933
0.0001014433
0.0001012139
0.0001009924
0.0001009279
0.0001010754
0.0001009042
0.0001009172
0.0001009732
0.0001012839
0.0001134249
0.0001035479
0.0001041522
0.0001017606
0.0001009235
0.0001011101
0.00010092
0.0001009495
0.0001009969
0.0001015145
0.0001490438
0.0001009708
0.0001010686
0.0001009403
0.0001009371
0.0001010375
0.0001034898
0.0001017061
0.0001010532
0.0001009405
0.0001009972
0.0001010115
0.001306749
0.0008797236
0.0001024063
0.0001010515
0.0001009279
0.0001009662
0.0001009946
0.001281607
0.001045776
0.0001012575
0.0001010305
0.0001009301
0.0001009549
0.0001009865
0.00130627
0.0008803454
0.0001010479
0.0001010079
0.0001009398
0.0001009903
0.0001009993
0.0001011991
0.0001020553
0.0001009924
0.0001009375
0.0001009444
0.0001010153
0.0001010741
0.0001014746
0.0001009751
0.0001009272
0.0001009536
0.0001009798
0.0001011582
0.0001055609
0.0006393094
0.0006457933
0.0003932652
0.0001015059
0.0001009598
0.0001009205
0.0001009351
0.0001009341
0.0001009637
0.0001009809
0.0001009998
0.0001010513
0.0001010735
0.0001010024
0.0001009554
0.0001009187
0.0001009257
0.0001009256
0.000100927
0.0001009328
0.0001009404
0.0001009573
0.0001009608
0.0001009495
0.0001009513
0.0001009192
0.0001009225
0.0001009212
0.0001009212
0.0001009232
0.0001009247
0.0001009304
0.0001009352
0.0001009326
0.0001009521
0.0001009195
0.0001009209
0.0001009201
0.0001009201
0.0001009202
0.0001009209
0.0001009235
0.0001009257
0.0001009261
0.0001013424
0.0001010054
0.0001009519
0.0001009264
0.0001009289
0.000100921
0.000100917
0.0001009135
0.000100912
0.0001040059
0.0001010054
0.0001009485
0.0001010027
0.0001009734
0.0001009715
0.0001009517
0.0001009351
0.0001009236
0.0001009184
0.0001013738
0.0001008866
0.0001009566
0.0001009644
0.0001009718
0.0001009793
0.0001009612
0.0001009397
0.0001009246
0.0001009187
0.000101179
0.0001008904
0.0001009356
0.0001009484
0.0001009814
0.0001010106
0.000100997
0.000100957
0.0001009269
0.0001009189
0.0001010116
0.000100906
0.0001009161
0.0001009401
0.0001010026
0.0001010887
0.000101076
0.0001010009
0.0001009424
0.0001009186
0.0001010731
0.0001008997
0.0001009056
0.000100958
0.0001010486
0.000101479
0.0001014389
0.0001012043
0.0001009936
0.0001009275
0.0001010798
0.000100907
0.0001009178
0.0001009754
0.0001012858
0.0001134437
0.0001035807
0.000104173
0.0001017755
0.0001009219
0.0001010979
0.0001009242
0.0001009484
0.0001009989
0.0001015056
0.0001490618
0.0001009648
0.0001010623
0.0001009433
0.0001009413
0.0001010295
0.0001034671
0.000101526
0.000101047
0.0001009442
0.0001009931
0.0001010147
0.001331279
0.0007968605
0.0001018599
0.0001010592
0.0001009381
0.0001009732
0.0001010014
0.001316897
0.0008738374
0.0001011853
0.0001010022
0.0001009468
0.0001009621
0.0001009926
0.001329525
0.000797514
0.0001010316
0.0001010016
0.0001009388
0.0001009868
0.0001010003
0.0001011859
0.0001020907
0.0001009876
0.000100934
0.0001009491
0.0001010144
0.0001010784
0.0001014808
0.0001009738
0.0001009227
0.0001009521
0.0001009792
0.0001011458
0.0001055996
0.0006395667
0.0006460121
0.0003932491
0.0001015038
0.0001009692
0.0001009183
0.0001009365
0.0001009345
0.0001009622
0.0001009788
0.0001009986
0.0001010508
0.0001010747
0.0001010033
0.0001009569
0.000100916
0.0001009275
0.0001009257
0.0001009273
0.0001009327
0.0001009405
0.0001009575
0.0001009613
0.00010095
0.0001009556
0.0001009158
0.0001009251
0.0001009212
0.0001009215
0.0001009233
0.0001009249
0.0001009305
0.0001009353
0.0001009327
0.0001009517
0.0001009161
0.0001009218
0.0001009202
0.0001009201
0.0001009202
0.0001009209
0.0001009235
0.0001009258
0.0001009262
0.000101365
0.0001010232
0.0001009676
0.0001009551
0.0001009473
0.0001009361
0.0001009296
0.0001009227
0.0001009196
0.0001038899
0.000101085
0.0001009953
0.0001010143
0.0001009896
0.0001009884
0.0001009665
0.000100951
0.0001009399
0.0001009348
0.0001013376
0.0001015428
0.0001009792
0.0001009838
0.0001009901
0.0001009984
0.0001009805
0.0001009568
0.0001009411
0.0001009343
0.0001011827
0.0001016263
0.000100995
0.000101024
0.0001010224
0.000101052
0.0001010439
0.0001010009
0.0001009577
0.0001009438
0.0001010329
0.0001016863
0.00010099
0.0001010863
0.0001011864
0.0001012555
0.0001012474
0.0001011513
0.0001011093
0.0001010486
0.0001010592
0.000101703
0.0001010158
0.0001011771
0.0001014644
0.0001018955
0.0001017973
0.0001015479
0.0001013512
0.0001012696
0.0001010806
0.000101719
0.0001009859
0.0001010359
0.0001012793
0.0001134617
0.0001035436
0.0001040379
0.0001017975
0.0001009233
0.0001010998
0.0001017034
0.0001009887
0.0001010267
0.0001014903
0.0001490595
0.0001009525
0.0001010747
0.000101694
0.0001009827
0.0001010429
0.000101111
0.0001011682
0.0001010749
0.0001016812
0.000101004
0.0001010144
0.0001020158
0.0001012565
0.0001010865
0.0001016272
0.0001010218
0.0001010124
0.0001016164
0.0001012943
0.0001010886
0.0001015857
0.0001010228
0.0001010076
0.0001013179
0.0001014005
0.0001016217
0.0001014983
0.0001010102
0.0001010308
0.000101138
0.0001022362
0.0001015015
0.0001014268
0.0001009908
0.0001010412
0.0001010686
0.000101502
0.0001015094
0.0001013347
0.0001009745
0.0001010054
0.0001011137
0.0001057146
0.0006415494
0.0006477254
0.0003930672
0.0001015071
0.0001014589
0.0001013706
0.0001009847
0.0001009554
0.0001009841
0.0001009965
0.0001010213
0.0001010711
0.0001010956
0.0001010178
0.0001013919
0.00010134
0.0001010277
0.0001009454
0.0001009446
0.0001009483
0.000100958
0.0001009754
0.0001009778
0.0001009671
0.0001013599
0.0001013759
0.000101049
0.0001009867
0.0001009393
0.0001009388
0.000100941
0.0001009469
0.0001009523
0.0001009496
0.0001013379
0.0001013882
0.0001010582
0.0001009993
0.0001009399
0.0001009391
0.0001009374
0.0001009399
0.0001009422
0.0001009426
0.0001053573
0.0001045427
0.000103712
0.0001032357
0.000102829
0.0001025122
0.0001022982
0.0001021308
0.0001020338
0.0001038509
0.001344501
0.001314745
0.001305381
0.001303098
0.001303398
0.001303026
0.001301572
0.001302236
0.001302865
0.0001041565
0.001315296
0.00126446
0.00124898
0.001245225
0.001244236
0.001243775
0.001243269
0.001242793
0.001242094
0.0001034795
0.001306067
0.001250588
0.001233279
0.001230075
0.001229952
0.001229734
0.001229043
0.001227546
0.00122533
0.0001031637
0.001303614
0.001250849
0.001238194
0.001240158
0.001244763
0.001247207
0.001246055
0.001240944
0.001232939
0.0001032911
0.001305141
0.001257256
0.001270583
0.001280505
0.001318046
0.001321636
0.001322579
0.001302511
0.0012658
0.0001032586
0.001308862
0.001264543
0.001284584
0.0001154261
0.0001137424
0.0001042971
0.0001040482
0.0001025609
0.000101569
0.0001031859
0.001310287
0.00127111
0.001316335
0.0001121448
0.0001489778
0.0001010379
0.0001027367
0.00130988
0.001274505
0.001324721
0.0001069594
0.0001010078
0.0001029205
0.001309696
0.001274417
0.001323812
0.0001058015
0.0001009781
0.0001024361
0.001307384
0.001273301
0.001320853
0.0001048446
0.0001009831
0.0001025531
0.00130572
0.001272302
0.001321362
0.0001048239
0.0001009937
0.0001019486
0.001307159
0.001270983
0.001317907
0.000105462
0.0001010313
0.0001042273
0.001307919
0.001267105
0.001309569
0.0001059533
0.0001017568
0.0001053811
0.001306458
0.001260619
0.001278733
0.0001091262
0.0001061295
0.0006633971
0.0006678151
0.0003906211
0.0001028102
0.0001048589
0.001306031
0.00125357
0.001265064
0.001272508
0.001303108
0.001310047
0.001309622
0.001294664
0.00126394
0.0001045123
0.001304084
0.001246413
0.001232197
0.001232989
0.001237935
0.001240802
0.001240549
0.001236164
0.00122922
0.00010395
0.001302923
0.001242117
0.001222615
0.001218428
0.001218353
0.001218707
0.001218645
0.001217648
0.001215717
0.0001039344
0.001302185
0.00124091
0.001220028
0.001214275
0.001212847
0.001212531
0.001212487
0.001212309
0.001211752
0.0006671724
0.0001018688
0.0001338068
0.0001009866
0.0006602878
0.0006425132
0.0001031195
0.0001022853
0.0001334724
0.0001351256
0.0006378341
0.0006356831
0.0001021817
0.0001019795
0.0001325933
0.0001323095
0.0006343892
0.0006340677
0.0001018689
0.0001016674
0.0001290235
0.0001287621
0.0006334707
0.0006334445
0.0001015937
0.0001014884
0.0001263822
0.0001262299
0.0006327665
0.000632705
0.0001014393
0.0001013292
0.0001236384
0.0001234869
0.0006322267
0.0006322207
0.0001013018
0.0001012219
0.0001215071
0.0001214104
0.0006317966
0.0006317928
0.0001012106
0.0001011477
0.0001198016
0.0001197342
0.0006315289
0.0006315653
0.0001011494
0.0001011023
0.0001186812
0.0001186104
0.0006313742
0.0001011107
0.0001178068
0.0006620475
0.0006438974
0.000128004
0.0001016124
0.0001249558
0.0001021445
0.000638877
0.000637052
0.0001220561
0.0001018725
0.000121861
0.0001021308
0.000635834
0.0006359519
0.0001197848
0.0001018533
0.000119896
0.0001021165
0.0006352264
0.0006356651
0.0001183548
0.000101862
0.0001186882
0.000102112
0.0006350258
0.0006355641
0.0001174996
0.0001018488
0.0001180822
0.0001021079
0.0006349173
0.0006354763
0.0001170984
0.0001018436
0.0001176412
0.0001020931
0.000641191
0.0001689255
0.0001144518
0.0001077881
0.0001950411
0.0006441637
0.0001038456
0.0001046503
0.0006055682
0.0002894034
0.0001025425
0.0001017149
0.0001010652
0.0006346753
0.0006351001
0.0001167006
0.0001018078
0.0001163437
0.0001021009
0.000148081
0.0001496562
0.0006342513
0.0006345847
0.0001154875
0.0001018248
0.000114599
0.0001021266
0.0001462483
0.0006336925
0.0006339321
0.0001139028
0.0001018279
0.0001125626
0.0001021748
0.0001449076
0.0006330494
0.0006332543
0.0001120367
0.0001018428
0.0001105316
0.0001022041
0.000143701
0.0006324141
0.0006326269
0.0001102157
0.0001018764
0.0001086549
0.000102226
0.0001424567
0.0006318508
0.0006321145
0.0001084898
0.0001019113
0.0001070658
0.0001022323
0.0001409552
0.0006313717
0.0006316805
0.0001070333
0.0001019374
0.0001058282
0.0001022391
0.000152728
0.0002952196
0.0002997424
0.0001040578
0.0001149522
0.0006309865
0.0006313352
0.0001058699
0.0001019625
0.0001049746
0.0001022536
0.0006307195
0.0006311182
0.0001050726
0.0001019796
0.0001044315
0.0001022568
0.000630543
0.0006309617
0.0001045702
0.0001019815
0.0001040812
0.0001022605
0.000630445
0.0006308948
0.0001042484
0.0001019865
0.0001038406
0.0001022636
0.0006304281
0.0006309035
0.0001040291
0.0001019879
0.0001022642
0.0001013605
0.0001315138
0.0001010212
0.000101404
0.0001408873
0.0001010615
0.0001066952
0.0001937215
0.0001135464
0.0001064691
0.0001942535
0.0001010546
0.0001011611
0.0001017988
0.0001010655
0.0001012186
0.0001490698
9.216071e-05
0.0001617739
0.0001056106
0.0001180343
0.0001056553
0.000116771
0.0002938232
0.0001011266
0.00010113
0.0001055842
0.0002920001
0.0001011478
0.0001011342
0.0001014609
0.0001352977
0.000101154
0.0001013888
0.000138952
0.0001011632
0.0001065393
0.0001942464
0.0001134921
0.000106552
0.0001942382
0.0001010608
0.0001011647
0.0001017785
0.0001010601
0.0001011529
0.0001490707
0.0001618295
0.0001618627
0.0001049969
0.0001213574
0.0001048951
0.0001210022
0.0002919435
0.0001011507
0.0001011312
0.0001055983
0.0002918145
0.0001011547
0.0001011305
0.0001002392
0.0001016726
0.0001014544
0.000393041
0.0001009473
0.0001016512
0.0001014221
0.0001014448
0.0001361232
0.0001011786
0.0001014254
0.0001377586
0.0001011973
0.0001064916
0.0001942239
0.0001134489
0.0001064921
0.0001942302
0.0001010611
0.000101141
0.0001017589
0.0001010587
0.0001011355
0.0001490503
0.000161854
0.0001618413
0.0002918235
0.0001011564
0.0001011318
0.000105569
0.0002917863
0.0001011559
0.0001011318
0.0001006167
0.0001016468
0.0001014588
0.0003932351
0.0001006488
0.0001016535
0.0001014585
0.0001014351
0.0001359983
0.0001012017
0.0001014137
0.0001364825
0.0001012056
0.000106505
0.0001942493
0.0001134304
0.0001065077
0.0001942308
0.0001010595
0.0001011373
0.0001017474
0.0001010589
0.0001011326
0.0001490499
0.0001618266
0.000161816
0.0002917898
0.000101156
0.0001011305
0.0001055481
0.0002917811
0.0001011556
0.0001011304
0.0001006288
0.0001016509
0.0001014627
0.0003932649
0.0001006221
0.0001016561
0.0001014641
0.0001014417
0.0001367091
0.0001012124
0.000101418
0.000136642
0.0001012056
0.0001064988
0.0001942359
0.0001134183
0.000106495
0.0001942302
0.0001010588
0.0001011328
0.000101749
0.0001010593
0.0001011351
0.0001490648
0.0001618202
0.0001618066
0.0002917807
0.0001011557
0.0001011305
0.0001055969
0.0002917897
0.0001011562
0.0001011304
0.0001006365
0.000101654
0.0001014652
0.0003932748
0.0001006419
0.0001016533
0.0001014645
0.0001014315
0.000137381
0.0001011999
0.0001014101
0.0001359042
0.000101179
0.0001064907
0.0001942335
0.0001134285
0.0001064908
0.000194225
0.0001010584
0.0001011332
0.0001017672
0.0001010602
0.0001011392
0.0001490985
0.0001618375
0.0001618622
0.0002917887
0.0001011559
0.0001011318
0.0001057386
0.0002918233
0.0001011564
0.0001011318
0.0001006565
0.0001016546
0.0001014642
0.0003932692
0.0001006551
0.0001016527
0.0001014662
0.0001014349
0.0001382096
0.0001011968
0.0001013999
0.0001372837
0.0001011427
0.0001065288
0.0001942409
0.0001134567
0.0001065165
0.0001942091
0.0001010576
0.0001011544
0.0001017766
0.0001010579
0.0001011658
0.000149115
0.0001618638
0.0001618789
0.0002918118
0.000101154
0.000101131
0.0001057887
0.0002919446
0.0001011501
0.0001011305
0.0001006429
0.0001016645
0.000101467
0.0003932096
0.0001006986
0.0001016529
0.0001014675
0.0001014463
0.0001380687
0.00010117
0.0001014063
0.0001380139
0.0001011128
0.0001064354
0.0001942489
0.000113277
0.0001066626
0.000193588
0.0001010616
0.0001012151
0.0001017867
0.0001010541
0.000101148
0.0001484411
0.0001618987
0.0001619164
0.0002919953
0.0001011478
0.0001011332
0.0001056361
0.000294146
0.0001011376
0.0001011265
0.0001008109
0.0001016357
0.000101434
0.0003921463
0.0001012968
0.000101656
0.0001014671
0.0001015007
0.0001376991
0.0001015481
0.0002997236
0.0006494944
0.0001022446
0.0001197859
0.00011974
0.0006216806
0.0006212658
0.0001021068
0.0001183986
0.0001181674
0.0006221971
0.0006236838
0.0001014822
0.0001039032
0.0001023209
0.0006274694
0.0006282062
0.0001015287
0.0001033406
0.0001020861
0.000626803
0.0006234193
0.0001014985
0.0001033557
0.0001022242
0.0006261624
0.0006276202
0.0001071415
0.0001945963
0.0006592687
0.0006541819
0.0001618654
0.0001037412
0.0006508974
0.0006492233
0.0001044651
0.000650423
0.0006479509
0.0001017468
0.0001010755
0.000633076
0.0006064274
0.000292289
0.0001013738
0.0001029031
0.0001021692
0.000626771
0.0006257023
0.0001405976
0.0001445043
0.0001458893
0.0001461386
0.0001452942
7.841938e-05
7.889259e-05
0.0001311434
0.0001021121
0.0001053297
0.0001022126
0.0006225836
0.0006274345
0.0001617394
0.0001512001
0.0001038465
0.0001189623
0.0002983711
0.0003011568
0.0001018145
0.0001045194
0.0001022148
0.0006223815
0.0006235781
0.0002966726
0.000105863
0.0001066801
0.0001553354
0.0001485847
0.0006224477
0.0006285808
0.0001017741
0.0001140746
0.0001175317
0.0001638276
0.0002967048
0.0006235937
0.0006064476
0.0001020152
0.0001044106
0.0001022645
0.0006287858
0.0006304335
0.0001018839
0.0001038768
0.0001019642
0.0006270812
0.0002931532
0.0006208846
0.0001019076
0.0001037494
0.0001022911
0.0002931271
0.0006204531
0.0006272996
0.0001019547
0.0001033834
0.0001021075
0.0006281073
0.0006229999
0.0001172217
0.0003530593
0.0001627543
0.0003203708
0.0001648233
0.0003186984
0.0001558894
0.0003164686
0.0001573595
0.0003156959
0.0001489188
0.0003154884
0.0001500138
0.0003146929
0.0001440429
0.0003147756
0.0001448103
0.0003140717
0.0001393225
0.0003141753
0.0001399957
0.0003134061
0.0001356804
0.0003136067
0.000136181
0.0003128969
0.0001328078
0.0003131841
0.0001331877
0.0003124617
0.0001307659
0.000312855
0.0001310613
0.0003121449
0.00012923
0.0003126407
0.0001294497
0.0003119282
0.0001110662
0.000335776
0.0001110903
0.0003320663
0.0001093097
0.0003285468
0.0001093291
0.0003259842
0.0001083866
0.0003261878
0.0001081808
0.0003242682
0.0001077149
0.0003248407
0.0001074306
0.0003232236
0.0001073321
0.0003240857
0.0001069941
0.0003226441
0.0001070635
0.0003236728
0.0001066996
0.0003222712
0.0006156568
0.0006098633
0.0003202889
0.0001153162
0.0001054044
0.0001136579
0.0001263912
0.0006294029
0.0001044596
0.0001033707
0.0001066436
0.0003232559
0.0001063365
0.0003217034
0.0003261631
0.0006345925
0.0003207092
0.0001120848
0.0001581867
0.0001072364
0.0003301889
0.0001497777
0.0001649025
8.925122e-05
0.0002892206
0.0006272577
0.0001010495
0.0001012702
0.0001060316
0.0003223247
0.000105763
0.0003207471
0.0003199026
0.0006344248
0.0003188822
0.0001069881
0.0003238935
0.0001042937
0.0003196335
0.000146981
8.393795e-05
8.38036e-05
0.0006349599
0.0006205552
0.0001033889
0.0001017434
0.000105332
0.0003210896
0.0001050783