/*--------------------------------*- C++ -*----------------------------------*\
  =========                 |
  \\      /  F ield         | OpenFOAM: The Open Source CFD Toolbox
   \\    /   O peration     | Website:  https://openfoam.org
    \\  /    A nd           | Version:  7
     \\/     M anipulation  |
\*---------------------------------------------------------------------------*/
FoamFile
{
    version     2.0;
    format      ascii;
    class       volVectorField;
    location    "0.04";
    object      U;
}
// * * * * * * * * * * * * * * * * * * * * * * * * * * * * * * * * * * * * * //

dimensions      [0 1 -1 0 0 0 0];

internalField   nonuniform List<vector> 
105056
(
(0.4727058 0.02714261 0.00755811)
(0.4951257 0.01801666 -0.005286135)
(0.4898488 0.02025293 -0.004786906)
(0.4930507 0.0193983 -0.004404807)
(0.4935177 0.0207192 -0.004513744)
(0.4593697 0.003464266 0.006424972)
(0.5092965 0.001358528 -0.01028534)
(0.4992146 0.0002214707 -0.008607985)
(0.506368 0.00278785 -0.008541193)
(0.5039106 0.004223224 -0.009061827)
(0.4448676 -0.006013037 0.004889527)
(0.5105873 -0.0008047185 -0.01017439)
(0.5014021 -0.001018319 -0.007991263)
(0.5091484 0.0013636 -0.008901225)
(0.5039194 0.0006726872 -0.009034591)
(0.4405665 -0.005559983 0.003923645)
(0.510124 -0.00130576 -0.009559644)
(0.501775 -0.001719599 -0.009491285)
(0.5104311 -0.0001175086 -0.009115355)
(0.5044678 -0.0002660011 -0.00965186)
(0.4388799 -0.002600617 0.003566054)
(0.5108836 -0.0008530837 -0.009695549)
(0.5022755 -0.001572544 -0.008936341)
(0.5086869 -0.0003637768 -0.008300175)
(0.5042943 -0.0002815614 -0.009535192)
(0.4416714 -0.0006160333 0.003110064)
(0.5117056 -0.0005824269 -0.009851631)
(0.5027323 -0.001506301 -0.008816405)
(0.5072244 -0.0007674533 -0.007715369)
(0.5042409 -0.00048224 -0.00934996)
(0.4424237 0.000422422 0.00308691)
(0.5125184 -0.0004521261 -0.009984221)
(0.5030487 -0.001306613 -0.008539864)
(0.5062378 -0.0008123154 -0.007450824)
(0.5041997 -0.0007577427 -0.008873397)
(0.4423387 0.0005992925 0.003278198)
(0.5128025 -0.0003927908 -0.009975235)
(0.5031734 -0.001019102 -0.008212577)
(0.5064242 -0.0007880843 -0.007481214)
(0.5042957 -0.0007937378 -0.008364326)
(0.442982 0.0006459729 0.003332775)
(0.5126816 -0.0003598894 -0.009849682)
(0.5031828 -0.0007896119 -0.007865712)
(0.507039 -0.0007392761 -0.007625283)
(0.5044136 -0.0007044961 -0.00804104)
(0.4435981 0.0006065526 0.003454457)
(0.5126274 -0.0003491654 -0.009685539)
(0.5031142 -0.0006380676 -0.007565064)
(0.5076468 -0.0006771251 -0.00774929)
(0.5045522 -0.000616135 -0.008005046)
(0.4437052 0.0005196757 0.003500176)
(0.5127439 -0.0003261749 -0.009597605)
(0.5032438 -0.0005436959 -0.007525196)
(0.5077859 -0.0006148341 -0.007706389)
(0.5046754 -0.0005773355 -0.008112248)
(0.4431511 0.0003392137 0.003743976)
(0.512886 -0.0002857578 -0.009538012)
(0.5033248 -0.0004650305 -0.007493537)
(0.5078768 -0.0005349786 -0.007655481)
(0.5046923 -0.0005128607 -0.008062525)
(0.4433925 0.0001148003 0.003731119)
(0.5131383 -0.0002396288 -0.009549648)
(0.5034937 -0.0003852963 -0.007544338)
(0.5075506 -0.0004727545 -0.007485763)
(0.5046056 -0.000432422 -0.007816828)
(0.443319 0.0002825594 0.003743105)
(0.5134216 -0.0002324863 -0.009544484)
(0.5035925 -0.0003457626 -0.00745661)
(0.5072975 -0.0004124692 -0.007363004)
(0.5045623 -0.0003735295 -0.007681519)
(0.4432637 0.0004356099 0.003872311)
(0.5132715 -0.0002446257 -0.009401761)
(0.5036066 -0.0003223176 -0.007339636)
(0.5069373 -0.0003581632 -0.007223654)
(0.5045241 -0.0003271996 -0.007542273)
(0.4428201 -0.0003786597 0.003996032)
(0.5139014 -0.0001734335 -0.009647806)
(0.5037643 -0.0002517795 -0.007498057)
(0.5065149 -0.0003127828 -0.007093183)
(0.5044869 -0.000288283 -0.007441233)
(0.4423284 -0.0005770496 0.003865004)
(0.5156244 -0.000114583 -0.01031686)
(0.5043774 -0.0001879618 -0.008021716)
(0.505986 -0.0002830823 -0.006932207)
(0.5044571 -0.0002540401 -0.007340189)
(0.4416849 8.588669e-05 0.003775596)
(0.5150995 -0.0001559748 -0.01006946)
(0.5046165 -0.0002879147 -0.008067231)
(0.505514 -0.0002518264 -0.006775061)
(0.5044312 -0.0002238177 -0.007186729)
(0.4424351 -0.0003482627 0.004267791)
(0.5148996 -0.000105754 -0.00997992)
(0.5047863 -4.669254e-05 -0.008178487)
(0.5053056 -0.0002218947 -0.006677673)
(0.5044157 -0.0001958062 -0.007073616)
(0.4399346 -0.003059447 0.005275145)
(0.5174422 -8.291026e-06 -0.01115997)
(0.5052869 0.0005652425 -0.007839365)
(0.5048083 -0.0001904433 -0.006505023)
(0.5043906 -0.0001702798 -0.006855272)
(0.4403003 0.001422417 0.004030495)
(0.5186841 -0.0005369814 -0.01155315)
(0.5057375 -0.0007041915 -0.007941585)
(0.5047385 -0.0001624723 -0.006441433)
(0.5043855 -0.0001430261 -0.006679455)
(0.4413392 0.0006431082 0.004116828)
(0.515841 -0.0001964371 -0.01025499)
(0.5053878 -0.0001975435 -0.00803298)
(0.5047348 -0.0001206894 -0.006444153)
(0.5043524 -0.0001159061 -0.00647948)
(0.4606289 0.0002667692 0.0163907)
(0.5126407 -7.173038e-05 -0.008817792)
(0.5046079 0.0001576471 -0.007875508)
(0.5046748 -8.549485e-05 -0.006412587)
(0.5043177 -8.284592e-05 -0.006490423)
(0.4705734 0.01281531 0.02478397)
(0.4954169 -0.00605348 0.01801516)
(0.4901858 -0.004945773 0.02289116)
(0.4929059 -0.003604653 0.01921063)
(0.4936831 -0.003768791 0.02033265)
(0.4304453 -0.03162122 -0.0271444)
(0.4424877 -0.03017453 -0.02975227)
(0.5116209 0.03544357 0.03359892)
(0.4735857 -0.007743424 -0.0067942)
(0.4989252 0.00576287 0.005823668)
(0.4923246 -0.0007714303 -0.0003137315)
(0.474154 -0.002608085 -0.1241366)
(0.4105632 -0.02702992 -0.05398092)
(0.5246889 0.01430259 0.03407098)
(0.4685205 -0.004844529 -0.01528126)
(0.4990781 5.90682e-05 0.0009029305)
(0.4915141 -0.001044147 -0.00268669)
(0.4966609 0.01166575 -0.1228052)
(0.4013595 -0.01418637 -0.0704844)
(0.5205772 0.007488593 0.03550083)
(0.4671119 -0.001951122 -0.01227323)
(0.4986233 -0.0006893915 0.003684763)
(0.4907693 -0.001458769 -0.001010387)
(0.5001985 0.008634715 -0.1377422)
(0.3941141 -0.006885517 -0.07810921)
(0.5223274 0.002240898 0.03683097)
(0.4705469 -0.00166101 -0.01096296)
(0.5013652 -0.001187212 0.005355352)
(0.4912554 -0.001739348 -0.002084883)
(0.5030832 0.005517958 -0.1397494)
(0.3902279 -0.001935158 -0.07914139)
(0.5214111 0.000176868 0.03614621)
(0.4720465 -0.0009510746 -0.009481877)
(0.5034147 -0.0007451822 0.008190345)
(0.4911942 -0.001062507 -0.001518843)
(0.5045658 0.005502251 -0.1410813)
(0.3878188 4.692343e-05 -0.07731276)
(0.5192152 -0.000454262 0.03343137)
(0.4729518 -0.0008134828 -0.009316159)
(0.5034917 -0.0008150142 0.00869675)
(0.4913358 -0.0009387406 -0.001581431)
(0.5055322 0.006628686 -0.1435255)
(0.3867467 0.0009314773 -0.07614246)
(0.5171831 -0.0006203974 0.03093876)
(0.4724368 -0.0005824132 -0.009601316)
(0.5031705 -0.0004569499 0.008776023)
(0.4912269 -0.0006849788 -0.001517938)
(0.5059601 0.006705309 -0.1453817)
(0.3859141 0.0011532 -0.07506241)
(0.5153397 -0.0005426282 0.02858963)
(0.4719187 -0.0004150194 -0.009842126)
(0.502799 -0.0004072379 0.008703517)
(0.4911311 -0.0005968799 -0.001505129)
(0.506316 0.005623557 -0.1458864)
(0.385181 0.001064145 -0.07458994)
(0.5138237 -0.0004439822 0.02680035)
(0.4714388 -0.0003097825 -0.01004963)
(0.5025133 -0.0003622594 0.008626141)
(0.4910424 -0.0005118097 -0.001453773)
(0.5068224 0.006117118 -0.1438208)
(0.3847434 0.0008752834 -0.07408311)
(0.5127803 -0.0003522941 0.02558051)
(0.471123 -0.0002393476 -0.01018132)
(0.5023476 -0.0003330106 0.008603766)
(0.4909814 -0.0004518012 -0.001399978)
(0.5069745 0.006907825 -0.1452869)
(0.3842732 0.0006926968 -0.07390852)
(0.5119087 -0.0002530308 0.02462272)
(0.470958 -0.0001888321 -0.01023958)
(0.502235 -0.0003040339 0.008638398)
(0.4909291 -0.0003901742 -0.001366643)
(0.5073076 0.006757652 -0.1451361)
(0.3838545 0.0004726054 -0.07394292)
(0.5113944 -0.0001628278 0.02414568)
(0.4709767 -0.0001531839 -0.01021746)
(0.5021755 -0.0002791425 0.008726349)
(0.4908948 -0.0003192362 -0.001351636)
(0.5077042 0.005324596 -0.1435292)
(0.3832318 0.000113034 -0.07434638)
(0.5109769 -0.0001319042 0.0238151)
(0.4710132 -0.0001330605 -0.01020307)
(0.5021492 -0.000244468 0.008830325)
(0.4908702 -0.0002474536 -0.001316219)
(0.5079888 0.005777273 -0.1361953)
(0.3831184 -0.0001096646 -0.07432752)
(0.510857 -0.0001348481 0.02374587)
(0.4710761 -0.0001199438 -0.01019345)
(0.5021389 -0.0002031126 0.008948995)
(0.4908558 -0.000187127 -0.001288416)
(0.5080783 0.006028305 -0.1348386)
(0.3827796 3.08348e-05 -0.07480937)
(0.5106241 -0.0001230148 0.02344406)
(0.4710177 -0.0001103335 -0.0102257)
(0.502119 -0.0001585518 0.009023158)
(0.4908426 -0.0001367441 -0.001286365)
(0.5085388 0.005188356 -0.1363588)
(0.3824966 -3.883435e-05 -0.07507961)
(0.510593 -0.0001529506 0.0235205)
(0.4708112 -0.0001040398 -0.01027824)
(0.5021403 -0.0001576279 0.009096767)
(0.4908332 -0.0001001735 -0.001296341)
(0.5083878 0.004718791 -0.129041)
(0.3830468 -0.0002021731 -0.07495039)
(0.5107466 -0.0001787471 0.02380348)
(0.4712051 -9.035819e-05 -0.01020762)
(0.5022574 -0.0001260709 0.009151222)
(0.4908664 -5.069421e-05 -0.001299748)
(0.5083346 0.004997853 -0.1277981)
(0.3833152 -8.396196e-05 -0.07494992)
(0.5107833 -0.0002037746 0.023767)
(0.4712621 -8.146151e-05 -0.01021669)
(0.5023062 -6.856198e-05 0.009200888)
(0.4908714 -3.551728e-06 -0.001284818)
(0.5089311 0.004137956 -0.1322748)
(0.3834881 0.0006580013 -0.07457191)
(0.5108904 -0.0003066349 0.02387252)
(0.4712435 -6.884104e-05 -0.01024921)
(0.5023331 -1.021234e-05 0.009201901)
(0.4908827 4.07481e-05 -0.001287112)
(0.5094308 0.0008913293 -0.1242344)
(0.3851337 0.0005768511 -0.07378928)
(0.5113039 -0.0002521615 0.02489192)
(0.4711795 -6.574779e-05 -0.01023123)
(0.502374 7.222287e-06 0.009213688)
(0.490865 4.839747e-05 -0.001239991)
(0.502187 0.007756302 -0.1296915)
(0.3851116 0.0004102238 -0.07218514)
(0.5109051 -0.0001204603 0.02430693)
(0.471061 -5.649826e-05 -0.01030123)
(0.5024142 0.0001145946 0.009158476)
(0.4908756 8.387322e-05 -0.001294191)
(0.5005898 0.004180601 -0.1352483)
(0.3855138 0.0009414104 -0.07130114)
(0.5109403 -9.967772e-05 0.02465862)
(0.4705626 -2.549825e-05 -0.0103542)
(0.5023589 0.0001471696 0.009292127)
(0.4907776 0.0001003622 -0.001201913)
(0.5065079 -0.003292002 -0.146747)
(0.38498 -0.0001838396 -0.07152056)
(0.5105158 -0.0003002512 0.02381958)
(0.4701598 -2.371585e-05 -0.0105067)
(0.50217 -4.075356e-05 0.009241116)
(0.4907661 8.747541e-06 -0.001222311)
(0.4577147 0.01150591 0.006385998)
(0.5098488 -0.01184188 0.001595541)
(0.5013085 -0.008720559 0.0007542309)
(0.504635 -0.007430958 0.001712671)
(0.5039825 -0.008899313 0.003779491)
(0.4749376 -0.1210588 -0.006229163)
(0.4104849 -0.05187807 -0.02548538)
(0.5202895 0.03361832 0.01208921)
(0.4678228 -0.01451993 -0.004585016)
(0.4979746 0.0007043217 0.0003589431)
(0.4914088 -0.002595726 -0.0002488239)
(0.1798591 -0.006601738 -0.004790224)
(0.4198004 -0.02898001 -0.02612682)
(0.5543548 0.009226591 0.008112958)
(0.487713 -0.007861065 -0.007059356)
(0.5105071 -0.0010267 -0.001224975)
(0.4950246 -0.001990643 -0.001565025)
(0.4095708 0.01148186 -0.03045196)
(0.3918914 -0.02559787 -0.04064802)
(0.5453236 0.009622571 -0.001263842)
(0.4768261 -0.001514466 -0.01165773)
(0.5015748 0.0004651813 -0.003483344)
(0.4915501 -0.0002093173 -0.002170924)
(0.431903 0.00775624 -0.04335954)
(0.3710698 -0.009636493 -0.05009135)
(0.5415745 0.002541533 -0.005960536)
(0.4737281 -0.002116344 -0.01449006)
(0.5070085 9.627381e-05 -0.001559037)
(0.4931325 -0.001211908 -0.002450872)
(0.4345822 0.003642849 -0.04581243)
(0.3665132 -0.00116474 -0.0498889)
(0.5337362 0.0003533338 -0.01119865)
(0.4636484 -0.000315755 -0.01659822)
(0.5030996 0.0003469308 -0.003514658)
(0.4905504 -9.701509e-06 -0.002566613)
(0.433088 0.002753491 -0.05218585)
(0.3668577 0.001696274 -0.0464393)
(0.5316269 -0.0002720718 -0.01338886)
(0.4627155 -0.0007308155 -0.01828264)
(0.5013569 -0.0006706367 -0.005001669)
(0.4901453 -0.0005432578 -0.003517792)
(0.4314876 0.002625605 -0.06195482)
(0.3678267 0.002048787 -0.04178652)
(0.5315471 -0.0005787394 -0.01348641)
(0.4624984 -0.0005881759 -0.01932878)
(0.5009913 -0.0006488837 -0.005386396)
(0.490076 -0.0005135263 -0.00401852)
(0.4308827 0.002290721 -0.06551715)
(0.3688704 0.001984746 -0.03804329)
(0.531243 -0.0005705507 -0.01353733)
(0.462029 -0.0004437217 -0.02034181)
(0.5004995 -0.0006087024 -0.005820545)
(0.4901288 -0.0005414901 -0.004470531)
(0.4303162 0.001522319 -0.06776628)
(0.3691058 0.001675294 -0.03540216)
(0.5311034 -0.0004874235 -0.01358606)
(0.4616159 -0.0004444444 -0.02119201)
(0.5001534 -0.0005114847 -0.006082312)
(0.4901958 -0.0004530975 -0.004863178)
(0.4297298 0.001234883 -0.07061319)
(0.3687513 0.001270085 -0.03328816)
(0.5309382 -0.0004389061 -0.01372636)
(0.4609004 -0.0003902381 -0.02195284)
(0.4997685 -0.0004116843 -0.006329151)
(0.4902131 -0.0003574433 -0.005228317)
(0.4298985 0.001905627 -0.06987305)
(0.3680842 0.000800338 -0.03185607)
(0.5302953 -0.0003611879 -0.01406632)
(0.4597585 -0.0002454166 -0.02266746)
(0.4993402 -0.0003359974 -0.006523236)
(0.4901522 -0.0002872519 -0.005530911)
(0.4305429 0.001853187 -0.06835598)
(0.3666885 0.0003624653 -0.03103545)
(0.5295014 -0.0002750275 -0.01442815)
(0.4584637 -7.147289e-06 -0.0234192)
(0.4991327 -0.0002802242 -0.00668851)
(0.490043 -0.0002221905 -0.005786516)
(0.4313244 0.001388595 -0.06646034)
(0.3649683 0.0001183179 -0.03090219)
(0.5284832 -0.0002312239 -0.0148132)
(0.4572907 0.0001519994 -0.02415951)
(0.4990715 -0.0002371807 -0.006797939)
(0.4899171 -0.0001576995 -0.006012134)
(0.4317638 0.0001624943 -0.06801471)
(0.3636421 -0.000104344 -0.03049671)
(0.5277327 -0.0002253172 -0.01502784)
(0.4565586 0.0001648068 -0.02467126)
(0.498932 -0.0002150637 -0.006889278)
(0.4897965 -0.0001399073 -0.006132072)
(0.4328276 0.001408029 -0.06487798)
(0.3625073 -0.0002098028 -0.03046302)
(0.5270849 -0.0001983876 -0.01538115)
(0.4559664 0.0001890441 -0.02515703)
(0.4990022 -0.0001869106 -0.006975223)
(0.4897236 -0.0001311937 -0.006225169)
(0.4344465 0.000863385 -0.05908158)
(0.3612873 -0.0001557169 -0.03073461)
(0.5266155 -0.0001869815 -0.01562465)
(0.45567 0.0002287245 -0.02539657)
(0.499015 -0.0001573806 -0.007065824)
(0.4896549 -9.391796e-05 -0.006256083)
(0.4338678 0.0002963381 -0.06297016)
(0.3604966 -2.5274e-05 -0.03128662)
(0.5259459 -0.0002019897 -0.01575973)
(0.4554482 0.0001245168 -0.02549935)
(0.4990017 -0.0001346209 -0.007108676)
(0.4895991 -3.493273e-05 -0.006248997)
(0.4331682 -0.000567597 -0.06457904)
(0.3608111 0.0004753271 -0.0310291)
(0.5260405 -0.0001783093 -0.01569457)
(0.4556239 -4.71024e-05 -0.02532531)
(0.498958 -0.0001196641 -0.00709898)
(0.4895682 -5.314329e-06 -0.006181024)
(0.4328868 -0.002348466 -0.06379097)
(0.3612823 0.0008461068 -0.03062234)
(0.5265776 -0.0001923213 -0.01552529)
(0.4559422 -8.707007e-05 -0.02499948)
(0.4991142 -9.913918e-05 -0.007081652)
(0.4895672 4.860856e-05 -0.006098608)
(0.4301226 -0.002739941 -0.07275678)
(0.3620171 0.0006633182 -0.03044037)
(0.5272565 -0.000164485 -0.01502172)
(0.456509 -6.706426e-05 -0.02452611)
(0.4988943 -8.74628e-05 -0.007036973)
(0.4895634 1.025801e-05 -0.005997164)
(0.4281737 0.0001384335 -0.08034143)
(0.3631428 0.0006028929 -0.03002415)
(0.5280835 -6.984199e-05 -0.01495924)
(0.4570167 -3.067526e-05 -0.0241428)
(0.4994379 -5.118707e-05 -0.007007938)
(0.4896152 5.797793e-05 -0.005936369)
(0.4284723 -0.004236801 -0.07723971)
(0.3644928 0.001220937 -0.02934143)
(0.5284894 2.080897e-05 -0.01459819)
(0.4578836 -9.410178e-05 -0.0236619)
(0.498834 -4.407211e-05 -0.006975057)
(0.4895591 9.997996e-05 -0.005800969)
(0.429714 -0.003860109 -0.06412216)
(0.3661894 -6.00129e-05 -0.02686424)
(0.5292415 -0.000172975 -0.01465975)
(0.4586833 -0.0002353274 -0.02343073)
(0.4988956 -2.50374e-05 -0.006955733)
(0.4896166 -6.884954e-05 -0.0057089)
(0.4444241 0.005665981 -0.002560596)
(0.5196855 -0.01391472 0.001859881)
(0.5051091 -0.01079457 -0.002427516)
(0.5096791 -0.009662504 0.0009599288)
(0.5051373 -0.009220215 0.000561739)
(0.4983671 -0.114483 0.006146436)
(0.3997416 -0.06915481 -0.01290289)
(0.5164207 0.03444755 0.006549622)
(0.4651873 -0.01256447 -0.002057077)
(0.4962514 0.001251605 -0.000234398)
(0.4905519 -0.001559873 -0.0007586274)
(0.3635665 -0.03127929 0.005437168)
(0.3954838 -0.04228733 -0.02412681)
(0.5464167 -0.001223636 0.008711543)
(0.479063 -0.01251228 -0.001404101)
(0.5046421 -0.004025473 0.001003742)
(0.4922848 -0.002932449 -0.0001974269)
(0.1333481 -0.004130387 -0.003529323)
(0.4258754 -0.02290743 -0.01940155)
(0.5614091 -0.0006591534 -0.001561165)
(0.4858558 -0.007189207 -0.005953523)
(0.5087927 0.0005573878 0.001092741)
(0.4936628 -0.00188896 -0.0005930441)
(0.2472731 0.003366854 -0.02121668)
(0.4021131 -0.0124701 -0.01892404)
(0.5516362 -0.003634569 -0.01269797)
(0.4702293 -0.004256592 -0.01115348)
(0.5050555 -0.002452941 -0.004080094)
(0.4930672 -0.001887834 -0.002375431)
(0.2655926 0.0009906935 -0.0302683)
(0.415202 -0.0005757075 -0.009578886)
(0.5601017 -0.00303983 -0.01401158)
(0.4808177 -0.003547548 -0.01259443)
(0.506505 -0.002126597 -0.004802087)
(0.494709 -0.002055945 -0.002711673)
(0.3667136 0.003240948 -0.05582693)
(0.426981 0.000762787 -0.004179317)
(0.5642651 -0.003168131 -0.01518615)
(0.4856364 -0.002049958 -0.01116986)
(0.5124557 -0.002387138 -0.006062091)
(0.4968404 -0.001879822 -0.002685353)
(0.387576 0.009045742 -0.06241793)
(0.427763 0.00126465 -0.003471315)
(0.5639184 -0.002124699 -0.01703016)
(0.4849066 -0.0014474 -0.01173807)
(0.5135545 -0.002057823 -0.007168561)
(0.496861 -0.001532194 -0.00290083)
(0.3937881 0.009330059 -0.06245031)
(0.4286651 0.001138322 -0.0030065)
(0.566773 -0.001586879 -0.01829294)
(0.4856975 -0.00119137 -0.01158879)
(0.5151632 -0.001987524 -0.00786711)
(0.4973758 -0.001287239 -0.00298576)
(0.3977155 0.006878599 -0.06150783)
(0.4287547 0.0009212546 -0.002560838)
(0.5681191 -0.001235927 -0.01944966)
(0.4857392 -0.0009784242 -0.01157147)
(0.5163096 -0.001721469 -0.00839691)
(0.4974073 -0.001008786 -0.002936867)
(0.4006581 0.005049991 -0.0607436)
(0.4287304 0.0007522042 -0.002213615)
(0.5698447 -0.001130606 -0.02044923)
(0.4858595 -0.0008959184 -0.01159285)
(0.5174095 -0.001512827 -0.00881006)
(0.4974943 -0.0008042584 -0.002774357)
(0.4030466 0.002317289 -0.05935382)
(0.4290937 0.0004588298 -0.001918765)
(0.5717525 -0.001290391 -0.02138476)
(0.4860776 -0.0008513364 -0.01174887)
(0.5183482 -0.001326236 -0.009108913)
(0.4975994 -0.0006680755 -0.002655788)
(0.4003964 -0.001004499 -0.05827278)
(0.4300503 0.0001234182 -0.001833232)
(0.5738348 -0.001569489 -0.02248866)
(0.487323 -0.0007665765 -0.01158712)
(0.5194111 -0.001221505 -0.00924794)
(0.4977095 -0.0005725144 -0.002586954)
(0.3920394 -0.002383989 -0.05748489)
(0.4318924 -9.707928e-05 -0.001457304)
(0.5762284 -0.00169711 -0.02372654)
(0.489219 -0.0006018785 -0.01117632)
(0.520423 -0.0009998458 -0.009307712)
(0.4981302 -0.0004057911 -0.002397455)
(0.3856696 -0.001941436 -0.05915658)
(0.4320535 -0.0001487444 -0.001792507)
(0.5778051 -0.001645707 -0.02463388)
(0.4900436 -0.0005109155 -0.01104661)
(0.52107 -0.000736217 -0.009054053)
(0.4982415 -0.0003188247 -0.002314553)
(0.3808224 -0.001356683 -0.06032538)
(0.4331642 -0.0001544601 -0.001705141)
(0.5798053 -0.001463231 -0.02568919)
(0.4907283 -0.0004082503 -0.01103034)
(0.5215794 -0.0005157616 -0.009001633)
(0.4984542 -0.0002482739 -0.00222663)
(0.3747618 -0.001122981 -0.06051506)
(0.4337788 -0.0001926471 -0.001669827)
(0.5805501 -0.00122432 -0.02646319)
(0.4910829 -0.0003150959 -0.01101967)
(0.5218314 -0.0003146662 -0.008828439)
(0.4984437 -0.0001867066 -0.002277782)
(0.3700363 0.0009221629 -0.06242943)
(0.4354209 -3.879252e-05 -0.001415568)
(0.5816916 -0.0008743862 -0.02703892)
(0.4917353 -0.0002141465 -0.01085409)
(0.5220624 -1.960243e-05 -0.008640829)
(0.4984205 -8.764061e-05 -0.002310385)
(0.3744265 0.002909836 -0.06485608)
(0.4350391 0.0002391934 -0.001594222)
(0.5813669 -0.0003113808 -0.02694042)
(0.4913973 -7.809712e-05 -0.01100458)
(0.5219605 0.0003030048 -0.008356356)
(0.4982044 3.718063e-05 -0.002362526)
(0.3821682 0.003188922 -0.0664844)
(0.433948 0.0004704702 -0.001916713)
(0.5807545 6.990325e-05 -0.02675722)
(0.4908923 3.847758e-05 -0.01112869)
(0.5217022 0.0003944447 -0.008226011)
(0.498138 9.29545e-05 -0.002350664)
(0.3880303 0.002100811 -0.0695723)
(0.4324675 0.0004935188 -0.002595585)
(0.5795032 0.0002428525 -0.02619122)
(0.4907718 0.0001033596 -0.01097519)
(0.521336 0.0003965705 -0.007782533)
(0.4979585 0.0001078509 -0.002324023)
(0.3925349 0.003221289 -0.06934087)
(0.4337379 0.000317554 -0.001546235)
(0.5788042 0.0001607193 -0.0261462)
(0.4917448 0.0001160932 -0.0105408)
(0.5210307 0.0004212682 -0.007861666)
(0.498195 9.411568e-05 -0.002337638)
(0.3962874 4.170161e-05 -0.07068774)
(0.4317231 0.001644536 -0.003769458)
(0.5773904 3.46639e-05 -0.02477135)
(0.49126 0.00017639 -0.01037955)
(0.5205527 0.000344639 -0.007087667)
(0.4977365 0.0001985457 -0.002335856)
(0.4011202 -0.003580844 -0.06802174)
(0.435059 -0.0001010031 -0.001682692)
(0.5768131 -9.773507e-05 -0.02405491)
(0.4929175 7.121273e-06 -0.009822475)
(0.5202119 0.0001114507 -0.0065309)
(0.4980492 5.028091e-05 -0.002244806)
(0.4412519 0.004758924 -0.005623837)
(0.5186058 -0.01267738 0.0007329992)
(0.5043488 -0.009050704 -0.0004939508)
(0.5100049 -0.009074298 5.039949e-05)
(0.505403 -0.009188142 8.469617e-05)
(0.4936514 -0.1393385 0.002090704)
(0.3931686 -0.07653136 -0.003403079)
(0.5186903 0.03790185 0.001807103)
(0.4660775 -0.01229495 -0.0008743246)
(0.4982096 0.002883337 -0.0003654471)
(0.490566 -0.002449101 -0.0007839687)
(0.4324614 -0.04033595 0.0005510707)
(0.3782438 -0.05240693 -0.0075599)
(0.5417064 -0.004971731 0.001396966)
(0.4790436 -0.0144135 -0.0005966195)
(0.507983 -0.001663087 -0.001167272)
(0.4946275 -0.002580707 -0.000330406)
(0.3149501 -0.006630067 -0.03498759)
(0.4058921 -0.01910202 -0.007838214)
(0.5518454 -0.009246603 -0.001769017)
(0.4668261 -0.01259386 -0.001150489)
(0.5010193 -0.004217535 -0.0008534959)
(0.4907808 -0.002739623 0.0004281169)
(0.2301461 -0.004509719 -0.0491691)
(0.4559375 -0.003702838 0.002604138)
(0.5795158 -0.01036714 -0.009585112)
(0.4969337 -0.005448813 -0.002680774)
(0.5168304 -0.005098212 -0.003389402)
(0.4986382 -0.002395955 -0.0007467582)
(0.4788867 0.03290307 -0.1120198)
(0.4484927 -9.485387e-05 0.004680763)
(0.5632665 -0.001167407 -0.005668829)
(0.4902042 -0.00122825 -0.001740088)
(0.5113766 -0.001449232 -0.002355628)
(0.496118 -0.0005496248 -0.0009519518)
(0.4695505 0.01955945 -0.09917736)
(0.4408961 0.0004195468 0.003947022)
(0.554273 -0.001824822 -0.003641469)
(0.4922696 -0.00125131 -0.001127257)
(0.5083447 -0.001416691 -0.001369689)
(0.4962192 -0.0007877012 9.782566e-05)
(0.4695416 0.01501525 -0.09633586)
(0.4437061 0.0003231882 0.004359501)
(0.5538244 -0.001778858 -0.003768389)
(0.4920274 -0.001106124 -0.000786823)
(0.5085386 -0.001131918 -0.001446563)
(0.4966632 -0.0008449746 0.000431367)
(0.4704165 0.01176853 -0.09542385)
(0.4479192 0.0001687422 0.004638643)
(0.5551367 -0.001391017 -0.003753481)
(0.4928871 -0.0009602389 -0.0008647673)
(0.5077244 -0.0009721176 -0.001344759)
(0.4967809 -0.0006809048 0.0009150384)
(0.4717383 0.008736067 -0.09355218)
(0.4501365 -8.342715e-06 0.004927696)
(0.5554592 -0.001174725 -0.003828187)
(0.4932291 -0.0008381748 -0.0009336039)
(0.5072844 -0.000807572 -0.001297272)
(0.4970443 -0.0007189163 0.001146261)
(0.4733956 0.007166711 -0.09085184)
(0.4524572 -0.0001287609 0.005153327)
(0.5560917 -0.001182807 -0.003923788)
(0.4936155 -0.0007348866 -0.0009273476)
(0.5067263 -0.0006647294 -0.001229351)
(0.4972738 -0.0006221571 0.001398084)
(0.4749709 0.005588027 -0.08779911)
(0.4546226 -0.000222843 0.005337306)
(0.5564006 -0.001258385 -0.004011321)
(0.4944535 -0.0005664995 -0.0007626663)
(0.5061892 -0.0005109435 -0.001172108)
(0.4974318 -0.0005298826 0.001626109)
(0.4765374 0.004133648 -0.08519716)
(0.455885 -0.0002936383 0.005466481)
(0.5563155 -0.001312635 -0.00399483)
(0.4940886 -0.0004799755 -0.0005789228)
(0.5056806 -0.0003652379 -0.001024667)
(0.4973716 -0.0005189413 0.001845691)
(0.4782762 0.00291355 -0.08292013)
(0.4560264 -0.0004012508 0.005460801)
(0.5561719 -0.001316941 -0.003995259)
(0.4928898 -0.0003882174 -0.0003874554)
(0.5059197 -0.0002300534 -0.0008235107)
(0.4972102 -0.0002955137 0.001974032)
(0.4801385 0.002429983 -0.08004011)
(0.4571336 -0.0003269367 0.005598538)
(0.5561068 -0.001417042 -0.004028155)
(0.4909687 -0.0002992356 3.840587e-05)
(0.505583 -0.0001925162 -0.0006928138)
(0.4968147 -9.443568e-05 0.002277196)
(0.4821828 0.001342175 -0.0768362)
(0.4592918 -0.0003008412 0.00575302)
(0.5566889 -0.001301124 -0.004166566)
(0.4905762 -0.0002670686 0.000500131)
(0.5059375 -0.0001708815 -0.0005176185)
(0.4966641 -9.29737e-06 0.002465621)
(0.4833073 0.0009223409 -0.07584006)
(0.4606874 -0.0002669565 0.005854352)
(0.5571057 -0.0009625064 -0.004214755)
(0.4899349 -5.183879e-05 0.001020376)
(0.5059624 -0.0001156256 -0.0004154288)
(0.4964628 0.0001662584 0.002653081)
(0.4834418 0.0003586307 -0.07811521)
(0.461065 -0.00023338 0.005847494)
(0.5565028 -0.0004974373 -0.004102192)
(0.4892649 0.000319513 0.001480108)
(0.5057579 -5.59999e-05 -0.0003854174)
(0.4962517 0.0003026871 0.002770594)
(0.483215 0.001630213 -0.07991621)
(0.4604855 -0.0001641992 0.005793374)
(0.5551108 -9.804128e-05 -0.004031545)
(0.4882791 0.0005251515 0.001722078)
(0.5049816 -6.358394e-05 -0.0005148667)
(0.495999 0.0002687915 0.002841804)
(0.4835253 0.001728872 -0.07970771)
(0.4597941 -0.0001232361 0.005623392)
(0.554977 0.0002209207 -0.004100288)
(0.4883215 0.000607937 0.001731955)
(0.5051987 -6.458906e-06 -0.0004434069)
(0.4958352 0.0003535205 0.002792924)
(0.4836513 0.001693851 -0.07937913)
(0.45921 -0.0001082859 0.005572896)
(0.5537539 0.0005659 -0.003998594)
(0.4872531 0.0004577868 0.001719135)
(0.5036858 -5.780509e-05 -0.0007848646)
(0.495548 2.27237e-05 0.002853603)
(0.484035 0.0009340748 -0.07966116)
(0.4557101 -0.0002412719 0.00492099)
(0.5550128 0.0004804578 -0.003883663)
(0.4876309 0.0009692747 0.001552353)
(0.506427 0.0001534181 -0.0001477128)
(0.4956574 0.0001575225 0.002600616)
(0.484139 2.393518e-05 -0.08034524)
(0.455269 4.223049e-05 0.005239548)
(0.5512727 0.0008535521 -0.003681369)
(0.4856494 0.001461554 0.002017243)
(0.5050385 0.0002618212 -0.0003121024)
(0.4949594 0.0005325803 0.002743149)
(0.2215086 0.04017203 -0.05709812)
(0.4442028 -0.0004473787 0.003535534)
(0.5452176 -3.898465e-05 -0.00239254)
(0.483977 -7.938989e-05 0.002607034)
(0.5044894 -2.034774e-05 -0.0002719641)
(0.4946021 -0.0001194979 0.00306894)
(0.4442209 0.002665616 -0.002712581)
(0.5162517 -0.01146373 -7.812553e-05)
(0.5027101 -0.008801103 0.001411455)
(0.5043542 -0.006481054 7.204138e-05)
(0.5049194 -0.006830377 0.0001599166)
(0.4917404 -0.1371483 0.0006666117)
(0.3933524 -0.07604437 0.004019253)
(0.5184987 0.03824684 -0.001776382)
(0.4662142 -0.01236725 0.0008706844)
(0.4983658 0.002987673 0.0003651859)
(0.490565 -0.002432766 0.0008082085)
(0.4356374 -0.0447679 -0.0001758922)
(0.3783663 -0.05270776 0.007565109)
(0.5417645 -0.004821028 -0.001437344)
(0.4791898 -0.01442538 0.0005760891)
(0.5080034 -0.001621335 0.001154387)
(0.4946252 -0.002575317 0.0003269297)
(0.223616 -0.02184625 0.000182779)
(0.4058948 -0.01883764 0.007848099)
(0.5517171 -0.009169884 0.001771172)
(0.4667664 -0.01248697 0.001185133)
(0.5009712 -0.00423308 0.00086582)
(0.4907815 -0.002683944 -0.0004153266)
(0.23057 -0.01005248 -0.004259845)
(0.4558282 -0.003541472 -0.002438961)
(0.5791866 -0.01032992 0.009539399)
(0.4967405 -0.005488062 0.002693609)
(0.516741 -0.005019121 0.003351454)
(0.4984092 -0.002447878 0.00082519)
(0.1105684 -0.0004453628 0.0002695678)
(0.4482578 -0.0003518517 -0.004347213)
(0.562442 -0.001168508 0.005529483)
(0.4901058 -0.001241049 0.0017369)
(0.5106241 -0.00147561 0.002221823)
(0.4959387 -0.0004019356 0.001092412)
(0.1078628 -6.62575e-05 0.0003875696)
(0.4400678 0.0004523056 -0.003623128)
(0.5535712 -0.001786325 0.003622735)
(0.4920337 -0.001264578 0.001119651)
(0.5076948 -0.00141377 0.001339862)
(0.4958885 -0.0007627952 -5.849927e-05)
(0.1075819 -5.725443e-05 0.0005273727)
(0.4434721 0.0003776455 -0.004084827)
(0.5536896 -0.001773206 0.003774343)
(0.4920957 -0.001108064 0.0007187446)
(0.5081867 -0.001140791 0.001408604)
(0.4965264 -0.0008734182 -0.0003749054)
(0.1069144 -2.45665e-05 0.0004379153)
(0.4478559 0.0001907117 -0.004407496)
(0.5551815 -0.001400786 0.003813502)
(0.493112 -0.0009313821 0.0008188767)
(0.5074612 -0.0009642202 0.001305476)
(0.4967743 -0.0007353213 -0.0008562799)
(0.1061284 -1.303232e-05 0.0003440686)
(0.450196 1.368723e-05 -0.004756543)
(0.5553905 -0.00118165 0.00388261)
(0.493437 -0.0008069072 0.0008994858)
(0.5070956 -0.0007892485 0.001255663)
(0.497057 -0.0007388454 -0.001108128)
(0.1052736 -9.541682e-06 0.000224158)
(0.4520818 -8.036726e-05 -0.004933458)
(0.5557172 -0.00117771 0.003986367)
(0.4938331 -0.0006962192 0.0008901311)
(0.5064373 -0.0006224233 0.001203133)
(0.497247 -0.0006194033 -0.001343835)
(0.1047305 -6.498867e-06 0.0001554658)
(0.4535797 -0.0001728437 -0.005020979)
(0.5559336 -0.001242165 0.004069428)
(0.4941855 -0.0005464846 0.0007459209)
(0.5058191 -0.0004521145 0.001149236)
(0.497302 -0.0005139758 -0.001562756)
(0.1045441 -4.953451e-06 0.0001391551)
(0.4543582 -0.0002403632 -0.005030471)
(0.5557521 -0.001292227 0.004114673)
(0.4930463 -0.0004493929 0.0006619855)
(0.5052324 -0.0003349821 0.001027134)
(0.4971178 -0.00048138 -0.001741044)
(0.1046113 -3.798345e-06 0.0001723211)
(0.4547987 -0.0003597548 -0.004893847)
(0.5553781 -0.001200259 0.004094759)
(0.4915141 -0.0003083334 0.000511057)
(0.5059085 -0.0001858504 0.0008540941)
(0.4968918 -0.0001899825 -0.001838741)
(0.1045167 -5.967387e-06 0.0001575568)
(0.454182 -0.0003666833 -0.004818217)
(0.5542974 -0.001137262 0.004184766)
(0.489392 -0.000175414 0.0001778844)
(0.5048446 -0.000192311 0.0008124112)
(0.4964132 6.722269e-05 -0.002042992)
(0.1043314 -2.062318e-06 0.0001168857)
(0.454826 -0.0003466552 -0.004755874)
(0.5540254 -0.0009689269 0.004377459)
(0.4880517 -0.0001270592 -0.0001180288)
(0.504734 -0.0001833641 0.0007665387)
(0.4961578 9.816484e-05 -0.002147812)
(0.1042727 -1.253612e-06 9.724768e-05)
(0.4549188 -0.0003127371 -0.00480235)