/*--------------------------------*- C++ -*----------------------------------*\
  =========                 |
  \\      /  F ield         | OpenFOAM: The Open Source CFD Toolbox
   \\    /   O peration     | Website:  https://openfoam.org
    \\  /    A nd           | Version:  7
     \\/     M anipulation  |
\*---------------------------------------------------------------------------*/
FoamFile
{
    version     2.0;
    format      ascii;
    class       volScalarField;
    location    "0.06";
    object      epsilon;
}
// * * * * * * * * * * * * * * * * * * * * * * * * * * * * * * * * * * * * * //

dimensions      [0 2 -3 0 0 0 0];

internalField   nonuniform List<scalar> 
89125
(
0.002082038
0.002188695
0.002207667
0.002210433
0.002210687
0.002210878
0.00221074
0.002210703
0.0009561574
0.0009881109
0.001003668
0.001007958
0.001009122
0.00100946
0.001009546
0.001009577
0.001009546
0.004748096
0.000974916
0.001014903
0.001029218
0.001033553
0.001034851
0.001035333
0.001035562
0.001035569
0.001035536
0.004746112
0.0009817204
0.001024882
0.001040744
0.001045406
0.001046949
0.001047458
0.001047725
0.001047721
0.001047693
0.004748791
0.0009831718
0.001027257
0.001043661
0.001048566
0.001050183
0.00105081
0.001051029
0.001051105
0.001051024
0.004749682
0.0009834496
0.001027628
0.00104413
0.001049063
0.001050707
0.001051356
0.001051569
0.00105166
0.001051583
0.004750221
0.0009829749
0.001026577
0.001042692
0.001047403
0.001048933
0.001049557
0.001049689
0.001049843
0.001049738
0.004750235
0.0009807524
0.001022446
0.00103746
0.001041622
0.00104296
0.00104354
0.001043631
0.001043817
0.001043722
0.004749228
0.0009725347
0.001007788
0.001019443
0.001022515
0.001023448
0.00102392
0.00102378
0.001024059
0.001024023
0.004743383
0.0009423159
0.0009588141
0.0009652337
0.0009664927
0.0009669275
0.0009679691
0.0009671266
0.0009686398
0.0009679498
0.004758229
0.001982835
0.002051495
0.002068392
0.002059649
0.002059549
0.002060941
0.002097387
0.00209793
0.002066911
0.009124001
0.009136072
0.004316247
0.009280218
0.009122072
0.009188304
0.01017495
0.004553756
0.009299462
0.001924035
0.001956747
0.001965104
0.001951949
0.00195124
0.001950862
0.001950924
0.001951381
0.001960517
0.0009404931
0.0009641478
0.0009715764
0.0009732161
0.0009737846
0.000974048
0.0009741697
0.0009742999
0.0009745875
0.0009558884
0.000996336
0.001008805
0.00101204
0.001013014
0.00101339
0.001013547
0.001013612
0.00101363
0.0009626199
0.001008959
0.00102489
0.001029304
0.001030671
0.001031185
0.001031384
0.001031442
0.001031407
0.0009644494
0.001012785
0.001030003
0.001035047
0.001036674
0.001037292
0.001037529
0.001037594
0.001037547
0.0009649651
0.001013962
0.001031667
0.001036992
0.001038759
0.001039442
0.001039704
0.001039775
0.001039723
0.0009650802
0.001014321
0.001032215
0.001037659
0.001039491
0.001040204
0.001040479
0.001040555
0.001040503
0.0009650725
0.001014432
0.001032409
0.00103791
0.001039777
0.001040508
0.001040793
0.001040872
0.001040818
0.01121018
0.01119337
0.01119275
0.01119276
0.01119277
0.01119273
0.01119279
0.01119274
0.01119275
0.002089901
0.01118931
0.01119071
0.01119065
0.01119064
0.01119063
0.0111906
0.01119064
0.0111906
0.01119061
0.0009807557
0.0111878
0.01119089
0.01119073
0.01119069
0.0111907
0.01119069
0.01119067
0.01119067
0.01119067
0.000995176
0.01118726
0.01119056
0.01119061
0.01119057
0.01119057
0.01119057
0.01119055
0.01119056
0.01119055
0.001000695
0.01118575
0.01119051
0.01119051
0.01119046
0.01119045
0.01119041
0.01119045
0.01119041
0.01119042
0.001001595
0.01118696
0.01118871
0.01118811
0.01118754
0.01118765
0.01118689
0.01118798
0.01118682
0.01118723
0.001001464
0.0111878
0.01118984
0.01118939
0.0111889
0.01118894
0.01118835
0.01118943
0.01118853
0.01118853
0.0009998495
0.01118405
0.01117734
0.0111739
0.01116965
0.01116924
0.01116724
0.01117149
0.01116881
0.01116862
0.0009939281
0.01117333
0.01116842
0.01116842
0.01116326
0.01116953
0.0111653
0.01118079
0.01116819
0.01116869
0.0009735201
0.01116274
0.01111642
0.01109968
0.01109356
0.01109103
0.0110858
0.01110872
0.01108548
0.01108563
0.00212672
0.01123679
0.01124505
0.01123792
0.01123529
0.01123545
0.0112378
0.01125794
0.01129263
0.01126309
0.005533571
0.01118148
0.01117833
0.01117836
0.0111784
0.01117841
0.01117841
0.01117841
0.01117841
0.01117842
0.002045983
0.01118104
0.01118113
0.01118115
0.01118115
0.01118115
0.01118115
0.01118115
0.01118115
0.01118115
0.002066209
0.01118099
0.0111811
0.01118111
0.01118111
0.01118111
0.01118111
0.01118111
0.01118111
0.01118111
0.002070042
0.01118098
0.01118107
0.01118109
0.01118108
0.01118108
0.01118108
0.01118108
0.01118108
0.01118108
0.002070836
0.01118097
0.01118106
0.01118107
0.01118106
0.01118106
0.01118106
0.01118106
0.01118106
0.01118106
0.00207107
0.01118097
0.01118105
0.01118106
0.01118105
0.01118105
0.01118104
0.01118104
0.01118104
0.01118104
0.002071086
0.01118097
0.01118105
0.01118105
0.01118104
0.01118104
0.01118104
0.01118103
0.01118103
0.01118103
0.002070885
0.01118097
0.01118105
0.01118105
0.01118104
0.01118104
0.01118103
0.01118103
0.01118103
0.01118103
0.01120771
0.01119446
0.01119424
0.01119435
0.01119431
0.01119432
0.01119431
0.0111943
0.01119429
0.002105802
0.01119239
0.0111932
0.01119295
0.01119299
0.01119296
0.01119296
0.01119297
0.01119296
0.01119295
0.0009985212
0.01119053
0.01119308
0.01119298
0.01119296
0.01119294
0.01119294
0.01119295
0.01119293
0.01119294
0.001025417
0.0111907
0.01119295
0.01119291
0.01119287
0.01119286
0.01119287
0.01119286
0.01119287
0.01119287
0.001034607
0.01119013
0.01119288
0.01119286
0.01119281
0.01119281
0.01119283
0.0111928
0.01119285
0.01119283
0.001036402
0.01119032
0.01119288
0.01119286
0.01119279
0.0111928
0.01119283
0.01119281
0.01119285
0.01119283
0.001036109
0.01119007
0.01119296
0.01119282
0.01119274
0.01119275
0.0111929
0.01119279
0.01119303
0.01119296
0.001033375
0.01118081
0.01119331
0.01119335
0.01119336
0.01119304
0.01119299
0.01119305
0.01119303
0.011193
0.001023088
0.01117464
0.0111952
0.01119307
0.01119395
0.01119383
0.01119526
0.01119344
0.01119652
0.01119362
0.0009882663
0.01113486
0.01120828
0.01120129
0.01119693
0.01119699
0.01119598
0.0111984
0.01119604
0.01120265
0.002200423
0.01126736
0.01126588
0.01127014
0.0112577
0.01125322
0.01125279
0.01125862
0.01125618
0.01126034
0.005528201
0.01117828
0.0007252133
0.0007924925
0.0008159011
0.0008226045
0.0008246348
0.0008253657
0.0008256194
0.00082562
0.0009683782
0.01118104
0.01118087
0.01118105
0.01118105
0.01118104
0.01118103
0.01118103
0.01118103
0.01118103
0.0009856941
0.01118098
0.01118342
0.01118342
0.01118342
0.01118342
0.01118342
0.01118342
0.01118342
0.01118342
0.0009936382
0.01118096
0.01118342
0.01118342
0.01118342
0.01118342
0.01118342
0.01118342
0.01118342
0.01118342
0.0009960073
0.01118095
0.01118342
0.01118342
0.01118342
0.01118342
0.01118342
0.01118342
0.01118342
0.01118342
0.0009967983
0.01118094
0.01118342
0.01118342
0.01118342
0.01118342
0.01118342
0.01118342
0.01118342
0.01118342
0.000997084
0.01118094
0.01118343
0.01118342
0.01118342
0.01118342
0.01118342
0.01118342
0.01118342
0.01118342
0.0009971924
0.01118093
0.01118343
0.01118343
0.01118343
0.01118343
0.01118343
0.01118343
0.01118343
0.01118343
0.01120766
0.01119444
0.01119423
0.01119421
0.01119424
0.01119424
0.01119424
0.01119423
0.01119422
0.002110129
0.01119221
0.01119305
0.01119289
0.0111929
0.0111929
0.01119291
0.01119291
0.0111929
0.0111929
0.001005172
0.01119065
0.01119303
0.01119297
0.0111929
0.0111929
0.01119289
0.01119289
0.01119289
0.01119288
0.001035798
0.01119071
0.01119295
0.01119294
0.01119286
0.01119285
0.01119285
0.01119283
0.01119284
0.01119283
0.001047112
0.01119031
0.01119287
0.01119288
0.01119282
0.0111928
0.01119279
0.01119276
0.01119277
0.01119275
0.001049432
0.01119001
0.01119286
0.01119284
0.01119279
0.01119277
0.01119275
0.01119272
0.01119274
0.01119272
0.001049054
0.01118995
0.01119282
0.01119287
0.01119281
0.01119274
0.01119271
0.01119262
0.01119265
0.01119257
0.001045698
0.01117678
0.01119334
0.01119304
0.01119285
0.01119289
0.01119299
0.01119313
0.01119351
0.01119337
0.001033
0.01117729
0.0111932
0.01119439
0.01119374
0.01119325
0.01119303
0.01119283
0.01119283
0.01119269
0.0009941063
0.01111917
0.01120228
0.01120315
0.01120571
0.01121099
0.01120636
0.01120388
0.01120438
0.01120199
0.002210933
0.011241
0.01126885
0.01125881
0.01128977
0.01128632
0.01128174
0.01127541
0.01128502
0.01128047
0.00549227
0.01117833
0.0007924018
0.0008809186
0.0009198685
0.0009316504
0.0009352221
0.0009364958
0.0009368841
0.0009367844
0.0009816013
0.01118108
0.01118105
0.01118122
0.01118124
0.01118123
0.01118122
0.01118121
0.01118121
0.01118121
0.001011018
0.01118105
0.01118342
0.01118342
0.01118342
0.01118342
0.01118342
0.01118342
0.01118342
0.01118342
0.001022875
0.01118103
0.01118342
0.01118342
0.01118342
0.01118342
0.01118342
0.01118342
0.01118342
0.01118342
0.001026535
0.01118102
0.01118342
0.01118342
0.01118342
0.01118342
0.01118342
0.01118342
0.01118342
0.01118342
0.001027764
0.01118101
0.01118342
0.01118342
0.01118342
0.01118342
0.01118342
0.01118342
0.01118342
0.01118342
0.001028227
0.011181
0.01118343
0.01118342
0.01118342
0.01118342
0.01118342
0.01118342
0.01118342
0.01118342
0.001028419
0.011181
0.01118343
0.01118343
0.01118342
0.01118342
0.01118342
0.01118342
0.01118342
0.01118342
0.01120756
0.0111944
0.01119415
0.01119421
0.01119419
0.01119423
0.0111942
0.01119421
0.01119419
0.002110411
0.01119226
0.01119302
0.01119279
0.01119285
0.01119282
0.01119286
0.01119283
0.01119284
0.01119283
0.001006633
0.01119063
0.01119301
0.01119289
0.01119283
0.0111928
0.0111928
0.01119278
0.01119281
0.0111928
0.001038179
0.01119068
0.01119293
0.0111929
0.0111928
0.01119277
0.01119278
0.01119275
0.01119279
0.01119277
0.001050046
0.01118972
0.01119282
0.01119284
0.01119272
0.0111927
0.01119274
0.01119269
0.01119278
0.01119275
0.001052442
0.01118984
0.01119279
0.01119279
0.01119269
0.01119266
0.01119267
0.01119263
0.01119272
0.01119269
0.00105192
0.01118933
0.0111927
0.01119278
0.01119256
0.01119252
0.01119264
0.01119254
0.01119283
0.01119276
0.001048275
0.01117465
0.01119323
0.01119274
0.01119289
0.01119291
0.0111926
0.01119274
0.01119269
0.0111928
0.001034911
0.01117389
0.01119352
0.01119331
0.01119278
0.01119317
0.01119385
0.01119376
0.01119452
0.01119416
0.0009953589
0.01111616
0.01119689
0.01120108
0.01120261
0.01120391
0.01120345
0.01120502
0.01120698
0.01120198
0.002213083
0.01125364
0.01125952
0.01127316
0.01126762
0.01128192
0.0112632
0.01128109
0.01129049
0.01126106
0.005385757
0.01117838
0.0008140471
0.0009168774
0.0009638988
0.0009785641
0.0009830337
0.0009846261
0.0009851025
0.0009849612
0.0009859079
0.01118109
0.01118107
0.01118125
0.01118128
0.01118126
0.01118125
0.01118124
0.01118124
0.01118124
0.001018711
0.01118107
0.01118342
0.01118342
0.01118342
0.01118342
0.01118342
0.01118342
0.01118342
0.01118342
0.00103277
0.01118105
0.01118342
0.01118342
0.01118342
0.01118342
0.01118342
0.01118342
0.01118342
0.01118342
0.001037076
0.01118103
0.01118342
0.01118342
0.01118342
0.01118342
0.01118342
0.01118342
0.01118342
0.01118342
0.00103852
0.01118102
0.01118342
0.01118342
0.01118342
0.01118342
0.01118342
0.01118342
0.01118342
0.01118342
0.00103907
0.01118102
0.01118343
0.01118342
0.01118342
0.01118342
0.01118342
0.01118342
0.01118342
0.01118342
0.0010393
0.01118102
0.01118343
0.01118343
0.01118342
0.01118342
0.01118342
0.01118342
0.01118342
0.01118342
0.01120759
0.01119447
0.01119418
0.01119418
0.0111942
0.0111942
0.0111942
0.0111942
0.01119419
0.002110725
0.01119222
0.011193
0.01119281
0.01119282
0.01119282
0.01119283
0.01119283
0.01119283
0.01119282
0.001006334
0.01119061
0.01119301
0.01119289
0.01119283
0.01119281
0.01119281
0.0111928
0.01119283
0.01119282
0.001037654
0.01119071
0.01119292
0.0111929
0.0111928
0.01119278
0.01119279
0.01119276
0.0111928
0.01119278
0.001049306
0.01119032
0.01119281
0.01119285
0.01119272
0.01119272
0.01119275
0.0111927
0.0111928
0.01119277
0.00105148
0.01119
0.01119279
0.01119281
0.01119269
0.01119267
0.01119267
0.01119265
0.01119273
0.0111927
0.001050566
0.01118982
0.0111927
0.01119279
0.01119256
0.01119254
0.01119264
0.01119256
0.01119283
0.01119278
0.00104672
0.01117394
0.01119321
0.0111928
0.01119293
0.01119293
0.01119264
0.01119281
0.01119273
0.01119284
0.001033583
0.01117525
0.01119367
0.01119317
0.01119282
0.01119318
0.01119371
0.01119371
0.01119447
0.0111941
0.0009945839
0.01111508
0.01119688
0.01120114
0.01120345
0.01120399
0.01120337
0.01120631
0.0112069
0.01120237
0.002213652
0.01123237
0.01125705
0.01126913
0.01127227
0.01128001
0.01126405
0.0112845
0.01128958
0.01126079
0.004908558
0.01117836
0.0008140418
0.0009168943
0.0009638973
0.0009785582
0.0009830293
0.0009846221
0.0009850968
0.0009849526
0.0009850727
0.01118109
0.01118107
0.01118125
0.01118128
0.01118126
0.01118125
0.01118124
0.01118124
0.01118124
0.001018584
0.01118107
0.01118342
0.01118342
0.01118342
0.01118342
0.01118342
0.01118342
0.01118342
0.01118342
0.001032736
0.01118105
0.01118342
0.01118342
0.01118342
0.01118342
0.01118342
0.01118342
0.01118342
0.01118342
0.001037064
0.01118103
0.01118342
0.01118342
0.01118342
0.01118342
0.01118342
0.01118342
0.01118342
0.01118342
0.001038512
0.01118102
0.01118342
0.01118342
0.01118342
0.01118342
0.01118342
0.01118342
0.01118342
0.01118342
0.001039055
0.01118102
0.01118343
0.01118342
0.01118342
0.01118342
0.01118342
0.01118342
0.01118342
0.01118342
0.001039267
0.01118102
0.01118343
0.01118343
0.01118342
0.01118342
0.01118342
0.01118342
0.01118342
0.01118342
0.0112076
0.01119433
0.0111941
0.01119417
0.01119415
0.01119417
0.01119415
0.01119418
0.01119419
0.002110022
0.01119224
0.01119304
0.01119287
0.01119288
0.01119288
0.01119287
0.01119287
0.01119287
0.01119286
0.001003581
0.01119064
0.01119306
0.01119295
0.01119295
0.01119292
0.01119292
0.01119291
0.01119292
0.01119291
0.001032425
0.01119072
0.01119297
0.01119294
0.01119288
0.01119286
0.01119286
0.01119285
0.01119285
0.01119284
0.001042864
0.01118972
0.01119286
0.01119288
0.01119283
0.01119283
0.0111928
0.01119278
0.01119278
0.01119277
0.001043888
0.01118774
0.01119286
0.01119286
0.0111928
0.01119279
0.01119276
0.01119273
0.01119275
0.01119274
0.001041889
0.01118506
0.01119281
0.01119286
0.01119283
0.01119278
0.01119268
0.01119269
0.01119265
0.0111926
0.00103699
0.01117661
0.01119344
0.01119312
0.01119297
0.011193
0.01119309
0.01119322
0.01119359
0.01119352
0.001024758
0.01117493
0.01119317
0.01119419
0.01119365
0.01119341
0.01119303
0.01119283
0.0111929
0.01119272
0.0009892003
0.01112114
0.01120288
0.01120352
0.0112055
0.01121215
0.01120809
0.01120428
0.01120452
0.01120255
0.002210539
0.01123081
0.01126872
0.01125867
0.01128821
0.01128585
0.01127649
0.01127446
0.01128471
0.01127877
0.005013615
0.01117832
0.0007924004
0.000880937
0.0009198672
0.0009316448
0.0009352135
0.000936483
0.0009368592
0.0009367476
0.0009814596
0.01118108
0.01118105
0.01118122
0.01118124
0.01118123
0.01118122
0.01118121
0.01118121
0.01118121
0.001010847
0.01118105
0.01118342
0.01118342
0.01118342
0.01118342
0.01118342
0.01118342
0.01118342
0.01118342
0.001022806
0.01118103
0.01118342
0.01118342
0.01118342
0.01118342
0.01118342
0.01118342
0.01118342
0.01118342
0.001026499
0.01118102
0.01118342
0.01118342
0.01118342
0.01118342
0.01118342
0.01118342
0.01118342
0.01118342
0.001027741
0.01118101
0.01118342
0.01118342
0.01118342
0.01118342
0.01118342
0.01118342
0.01118342
0.01118342
0.001028161
0.011181
0.01118343
0.01118342
0.01118342
0.01118342
0.01118342
0.01118342
0.01118342
0.01118342
0.001028258
0.011181
0.01118343
0.01118343
0.01118342
0.01118342
0.01118342
0.01118342
0.01118342
0.01118342
0.01120807
0.01119471
0.01119437
0.01119439
0.01119439
0.01119437
0.0111944
0.01119444
0.01119473
0.002101981
0.0111924
0.01119319
0.01119307
0.0111931
0.01119308
0.01119308
0.01119309
0.01119308
0.01119307
0.0009979072
0.0111906
0.01119309
0.01119301
0.01119301
0.011193
0.01119301
0.01119301
0.01119303
0.01119303
0.001008679
0.01119076
0.01119295
0.01119294
0.01119288
0.01119289
0.01119289
0.01119289
0.0111929
0.01119289
0.001028388
0.01118929
0.01119286
0.01119289
0.01119281
0.01119282
0.01119282
0.01119283
0.01119287
0.01119285
0.001016367
0.01118033
0.01119292
0.0111929
0.01119281
0.01119283
0.01119283
0.01119284
0.01119286
0.01119286
0.001020027
0.01118042
0.01119302
0.01119283
0.01119273
0.01119278
0.01119277
0.01119285
0.01119301
0.01119295
0.001006184
0.01118006
0.01119347
0.01119349
0.0111935
0.01119317
0.01119308
0.01119314
0.01119317
0.01119312
0.0009973508
0.011186
0.01119378
0.01119329
0.0111932
0.01119407
0.01119354
0.0111935
0.0111964
0.01119344
0.0009741992
0.01115027
0.01120945
0.01120156
0.01119844
0.01119677
0.01119708
0.01119846
0.01119661
0.01120352
0.002188735
0.01122712
0.0112657
0.01126958
0.01125727
0.01125193
0.01125772
0.01125684
0.01125481
0.01125942
0.002100191
0.01117828
0.0007251937
0.0007924449
0.0008158724
0.000822592
0.0008246225
0.0008253424
0.000825559
0.0008255014
0.000967856
0.01118104
0.01118087
0.01118105
0.01118105
0.01118104
0.01118103
0.01118103
0.01118103
0.01118103
0.0009855925
0.01118098
0.01118342
0.01118342
0.01118342
0.01118342
0.01118342
0.01118342
0.01118342
0.01118342
0.0009935157
0.01118096
0.01118342
0.01118342
0.01118342
0.01118342
0.01118342
0.01118342
0.01118342
0.01118342
0.0009959714
0.01118095
0.01118342
0.01118342
0.01118342
0.01118342
0.01118342
0.01118342
0.01118342
0.01118342
0.0009967846
0.01118094
0.01118342
0.01118342
0.01118342
0.01118342
0.01118342
0.01118342
0.01118342
0.01118342
0.0009969844
0.01118094
0.01118342
0.01118342
0.01118342
0.01118342
0.01118342
0.01118342
0.01118342
0.01118342
0.0009965851
0.01118093
0.01118343
0.01118343
0.01118343
0.01118343
0.01118343
0.01118343
0.01118343
0.01118343
0.01120573
0.01120646
0.01120646
0.01120683
0.01120643
0.01120673
0.01120637
0.01120666
0.01121146
0.002087758
0.01119108
0.01119108
0.0111911
0.01119109
0.01119111
0.01119111
0.01119119
0.01119115
0.01119113
0.002145205
0.01118914
0.01119077
0.01119073
0.01119076
0.01119074
0.01119075
0.01119075
0.01119078
0.01119075
0.000995485
0.01118753
0.01119064
0.01119062
0.01119061
0.01119061
0.0111906
0.01119059
0.0111906
0.01119058
0.0009992932
0.01118694
0.01119044
0.01119054
0.01119048
0.01119048
0.01119048
0.01119048
0.01119046
0.01119047
0.0009986603
0.01118307
0.01118637
0.01118873
0.01118764
0.01118761
0.01118792
0.01118779
0.01118773
0.01118778
0.002244069
0.01119051
0.01118841
0.01118962
0.01118877
0.01118833
0.0111889
0.01118887
0.01118845
0.01118898
0.002223092
0.01118589
0.01117686
0.0111734
0.01117054
0.01116873
0.01116969
0.01117009
0.01116877
0.01116945
0.002210082
0.01118049
0.01117175
0.0111649
0.01116843
0.01116812
0.01117562
0.01117535
0.01116924
0.01117409
0.002178149
0.01117725
0.01111924
0.01109897
0.01109379
0.01108954
0.01110125
0.01110193
0.01107955
0.01109949
0.00216072
0.0112347
0.01125643
0.01127555
0.01130019
0.01132265
0.01123505
0.01123715
0.0113054
0.01121928
0.004929822
0.01118149
0.01117832
0.01117836
0.0111784
0.01117841
0.01117841
0.01117841
0.01117841
0.01117841
0.002073394
0.01118104
0.01118113
0.01118115
0.01118115
0.01118115
0.01118115
0.01118115
0.01118115
0.01118115
0.002146214
0.01118099
0.0111811
0.01118111
0.01118111
0.01118111
0.01118111
0.01118111
0.01118111
0.01118111
0.002156927
0.01118098
0.01118107
0.01118109
0.01118108
0.01118108
0.01118108
0.01118108
0.01118108
0.01118108
0.002159576
0.01118097
0.01118106
0.01118107
0.01118106
0.01118106
0.01118106
0.01118105
0.01118105
0.01118105
0.002162024
0.01118097
0.01118105
0.01118106
0.01118105
0.01118104
0.01118104
0.01118104
0.01118104
0.01118104
0.002163434
0.01118097
0.01118105
0.01118105
0.01118104
0.01118104
0.01118104
0.01118103
0.01118103
0.01118103
0.002156546
0.01118097
0.01118105
0.01118105
0.01118104
0.01118103
0.01118103
0.01118103
0.01118103
0.01118103
0.01119842
0.01120235
0.01121851
0.0112158
0.01106011
0.01120732
0.01106239
0.01120789
0.01121825
0.004786487
0.0009463373
0.0009673384
0.0009743227
0.0009766473
0.0009774015
0.0009773847
0.0009771844
0.0009770368
0.0009782407
0.004889831
0.0009693049
0.001008868
0.001021441
0.001024985
0.001026
0.001026246
0.001026275
0.001026281
0.001026386
0.002128689
0.0009793437
0.001022643
0.001038196
0.001042598
0.001043969
0.001044449
0.001044595
0.001044646
0.001044618
0.00219492
0.0009812846
0.001026083
0.001042607
0.0010475
0.00104909
0.001049677
0.001049897
0.00104995
0.001049887
0.002228393
0.0009809613
0.001026583
0.001043454
0.001048503
0.001050191
0.001050809
0.001051053
0.001051122
0.001051048
0.002191354
0.0009782057
0.001025232
0.001042076
0.001047051
0.001048675
0.001049249
0.001049499
0.001049566
0.001049497
0.004758852
0.0009746092
0.001020751
0.001036816
0.001041343
0.001042825
0.001043286
0.00104352
0.001043604
0.001043502
0.004904885
0.0009658772
0.001006218
0.00101878
0.001022274
0.001023355
0.001023608
0.001023701
0.001023828
0.001023684
0.004414064
0.0009384472
0.0009580079
0.0009647425
0.0009663048
0.0009672033
0.0009669515
0.0009672073
0.0009675386
0.0009670553
0.00489543
0.01114242
0.01108758
0.01109958
0.01108563
0.01110135
0.01111085
0.01112385
0.01109995
0.01111083
0.01184432
0.01182943
0.01178891
0.01183141
0.01189851
0.0118225
0.01184094
0.01184036
0.01179662
0.005017444
0.01117384
0.01117393
0.0111739
0.0111739
0.01117389
0.01117389
0.01117389
0.01117389
0.0111739
0.004568538
0.0009405971
0.0009639027
0.0009713166
0.0009731467
0.0009737725
0.0009740394
0.0009741495
0.0009741904
0.0009742061
0.00462062
0.000955858
0.000996299
0.001008758
0.001012019
0.001013005
0.001013386
0.001013536
0.001013579
0.001013554
0.004621542
0.0009627309
0.001008994
0.001024892
0.0010293
0.001030665
0.001031179
0.001031378
0.001031431
0.00103139
0.004552983
0.0009649167
0.001012882
0.001030021
0.001035044
0.001036664
0.001037281
0.001037518
0.001037583
0.001037537
0.002096669
0.0009654951
0.001014084
0.001031687
0.001036985
0.001038741
0.00103942
0.001039682
0.001039756
0.00103971
0.004580637
0.0009654922
0.001014429
0.001032223
0.001037633
0.001039453
0.001040162
0.001040439
0.00104052
0.001040475
0.004553167
0.0009654705
0.001014525
0.001032401
0.001037846
0.001039694
0.001040421
0.001040712
0.001040804
0.001040767
0.001968547
0.01124913
0.004953594
0.01119237
0.009259397
0.004084712
0.01167248
0.001873931
0.009259222
0.004131598
0.004070639
0.01194089
0.01199319
0.001932075
0.001965502
0.004359496
0.004092549
0.004270005
0.01188636
0.01179807
0.001995783
0.002014638
0.00916079
0.004194011
0.004070908
0.01180005
0.01182627
0.00201583
0.002007623
0.00922719
0.004065658
0.004063055
0.0118159
0.0118214
0.002004071
0.002003561
0.009254174
0.004063052
0.004063547
0.01181775
0.01181648
0.002003548
0.00200373
0.009619213
0.004062926
0.004063126
0.01180513
0.01183871
0.002004035
0.002004156
0.004410995
0.004062733
0.004063739
0.01186211
0.01198991
0.002004072
0.00200411
0.009141856
0.004063469
0.004071494
0.0117898
0.01181972
0.002004602
0.002006809
0.004315796
0.004092535
0.004270826
0.01180832
0.01180436
0.002015071
0.002023837
0.001876479
0.001948767
0.005622152
0.01117345
0.004587177
0.0111787
0.001924217
0.001967805
0.00460028
0.01117403
0.004620118
0.0111742
0.001977988
0.001983962
0.004620872
0.01117434
0.004623166
0.01117435
0.001985013
0.001985754
0.004623146
0.01117438
0.004623653
0.01117438
0.001985862
0.00198597
0.0046236
0.01117438
0.004623774
0.01117438
0.00198597
0.001985985
0.004623727
0.01117438
0.004623773
0.01117438
0.001985933
0.001985869
0.00462373
0.01117438
0.004623522
0.01117438
0.001985748
0.001985658
0.004623284
0.01117438
0.004622382
0.01117438
0.01123823
0.004731935
0.01118887
0.01123634
0.004855909
0.01118674
0.01195467
0.001918102
0.01200629
0.001949918
0.01123251
0.004859471
0.01118698
0.01123515
0.004861796
0.0111869
0.01186786
0.001970661
0.01182995
0.001980416
0.01123235
0.004862248
0.01118659
0.0112351
0.004861424
0.01118675
0.01182823
0.001987406
0.01182647
0.0062459
0.001994869
0.01123233
0.004862063
0.01118688
0.01123516
0.004860986
0.01118684
0.0118224
0.00199077
0.01181127
0.00623623
0.00199411
0.01123232
0.004862389
0.01118676
0.01123511
0.004861376
0.01118692
0.01182585
0.006232113
0.001993664
0.01181715
0.004659666
0.001985885
0.01123232
0.0048621
0.01118664
0.01123514
0.004859792
0.01118702
0.01182244
0.001985787
0.01183079
0.006317644
0.001993424
0.01123234
0.004859647
0.01118662
0.01123598
0.00485146
0.01118769
0.01181515
0.005767556
0.001999133
0.01184155
0.00576605
0.001989234
0.01124014
0.004853688
0.01119456
0.0112392
0.004741909
0.01119589
0.01199469
0.006311818
0.00195924
0.01198348
0.006241421
0.001924456
0.01124354
0.004997298
0.01118723
0.001946262
0.01120138
0.009559178
0.00955693
0.00196203
0.002016308
0.01120875
0.009548522
0.009545537
0.00203192
0.002030485
0.01120644
0.009554794
0.009558602
0.002030651
0.002041031
0.01105888
0.009546038
0.00959456
0.004390289
0.002069013
0.002087815
0.01121464
0.009597978
0.009547791
0.004456199
0.002084706
0.002063142
0.01120135
0.009558835
0.009553645
0.004474876
0.002052333
0.00207563
0.01121398
0.009586702
0.0095473
0.004479338
0.002092302
0.002074539
0.01120818
0.009563567
0.009562247
0.002046515
0.00204113
0.01108148
0.009518484
0.009583052
0.002061003
0.002071397
0.01108601
0.004929883
0.01117465
0.001953753
0.002017313
0.01110966
0.002183554
0.01108916
0.00205322
0.004805834
0.002096453
0.0110725
0.002181485
0.011093
0.004764544
0.002115601
0.004767566
0.002124189
0.01108007
0.002217501
0.01112717
0.004749203
0.002122249
0.005172361
0.002111393
0.01110639
0.002175618
0.01110804
0.002098431
0.002095415
0.01112613
0.002121144
0.01113849
0.005140767
0.002101947
0.00481132
0.002102631
0.0110919
0.004936099
0.01115497
0.005160982
0.002078304
0.002045938
0.01110206
0.004589924
0.01115313
0.002032974
0.002023519
0.01101184
0.004832637
0.01115402
0.002010287
0.001953724
0.01116272
0.01134816
0.001962772
0.004200834
0.01165389
0.006269838
0.001875258
0.01022033
0.004025332
0.01180115
0.00193527
0.001971724
0.0105306
0.0102272
0.004130571
0.004155986
0.01181314
0.001989803
0.001999341
0.009598194
0.009613675
0.004085318
0.004122321
0.01183039
0.002002245
0.002004281
0.009732687
0.009240849
0.004035836
0.004067274
0.01194923
0.002003648
0.002003851
0.009123917
0.009119373
0.004065592
0.004065635
0.01180717
0.0020039
0.002003987
0.009305638
0.009187819
0.00406502
0.004063992
0.01177096
0.002004203
0.002004494
0.009343526
0.004404384
0.004064076
0.004064596
0.01182671
0.002004255
0.002004255
0.004401505
0.009226935
0.004064399
0.004063754
0.01185882
0.002004568
0.002004992
0.009295098
0.009291164
0.004063421
0.004066089
0.01177557
0.002007075
0.002006247
0.009159957
0.009700447
0.004076641
0.004118059
0.01117347
0.004516334
0.01117876
0.001874692
0.001955133
0.01117403
0.004618504
0.0111742
0.001925723
0.001966875
0.01117434
0.004622868
0.01117435
0.001976856
0.001982836
0.01117438
0.004591115
0.01117438
0.001984103
0.001987609
0.0111744
0.004571913
0.0111744
0.001994408
0.001997227
0.01116952
0.002098381
0.01116952
0.002003606
0.002003414
0.0111744
0.004587592
0.01117438
0.001994697
0.001989821
0.0111744
0.004550948
0.01117437
0.001994047
0.001988281
0.01113844
0.003971395
0.004904864
0.002013112
0.002148128
0.01120471
0.01107514
0.009536084
0.009591716
0.002158355
0.002190798
0.002274242
0.01104882
0.0110535
0.00958355
0.009566122
0.002202827
0.0023077
0.002320774
0.01105307
0.01105222
0.009568852
0.009564515
0.002210261
0.002325732
0.002327803
0.01105179
0.01105127
0.009559167
0.009558023
0.002210711
0.002328563
0.002328923
0.01105147
0.01105145
0.009557555
0.009556883
0.00221074
0.002329018
0.002329071
0.01105152
0.01105149
0.009557302
0.009557259
0.002210752
0.002329255
0.002329264
0.01105155
0.01105162
0.009558745
0.00955847
0.002210779
0.002329199
0.002329209
0.01105176
0.01105181
0.009559216
0.009559312
0.002210697
0.002329208
0.002329201
0.01105182
0.01105196
0.009559663
0.009560143
0.001998333
0.004780057
0.002085573
0.004675771
0.01108366
0.002158124
0.01111311
0.002108874
0.004766863
0.002124045
0.002113828
0.01107953
0.002169628
0.01107444
0.002126502
0.00476957
0.002129372
0.002180347
0.01111396
0.002189716
0.01110048
0.002128884
0.004770171
0.002130226
0.002189888
0.01110185
0.002191884
0.01111386
0.002129387
0.004770985
0.002130446
0.002190886
0.01110731
0.00219222
0.01111474
0.002129444
0.004771402
0.002130253
0.002191074
0.01110236
0.002192147
0.01111669
0.002128982
0.004770256
0.002128698
0.002190735
0.01109614
0.002190887
0.01112802
0.002125727
0.004766617
0.002116838
0.002187967
0.01110602
0.002180753
0.01111592
0.002099265
0.004748936
0.002026992
0.002165905
0.01089903
0.002107035
0.01114412
0.002008918
0.004064016
0.002149867
0.01113025
0.01135724
0.002035796
0.004112655
0.004110164
0.01104738
0.01105289
0.01154738
0.01170576
0.002066608
0.004119744
0.004396056
0.01107403
0.01109106
0.01143124
0.01146081
0.002063811
0.0043849
0.004143769
0.01110912
0.01108795
0.01138357
0.01155304
0.00205994
0.004097542
0.00411859
0.01108764
0.01109026
0.01148003
0.01163959
0.002060028
0.004100085
0.004099576
0.01109483
0.01109277
0.01150267
0.01156271
0.002068892
0.004131022
0.00416122
0.01109621
0.01109025
0.01152694
0.01160619
0.002070005
0.004479448
0.004151237
0.01112913
0.01108838
0.01147935
0.01162896
0.002070842
0.004111182
0.004385478
0.01109623
0.01113172
0.01143786
0.01146219
0.009283746
0.01165044
0.009267359
0.01171115
0.01166955
0.009617206
0.0116572
0.01180814
0.009242329
0.01171038
0.01164127
0.009241214
0.01172777
0.01163714
0.009263851
0.01172848
0.01161702
0.00963169
0.01170879
0.01184747
0.01116243
0.00382591
0.01116225
0.003919534
0.001940422
0.001999916
0.002074317
0.01117383
0.01117389
0.01117427
0.01117429
0.001967588
0.002094857
0.002105825
0.01117395
0.01117397
0.01117445
0.01117439
0.001955559
0.002107523
0.002106684
0.01117395
0.01117391
0.0111744
0.01117436
0.00195134
0.002105889
0.002105663
0.01117389
0.01117388
0.01117434
0.01117433
0.001951176
0.002105632
0.002105639
0.01117388
0.01117388
0.01117432
0.01117432
0.00195075
0.00210561
0.002105621
0.01117388
0.01117388
0.01117431
0.01117431
0.001951109
0.002105674
0.002105773
0.01117388
0.01117388