/*--------------------------------*- C++ -*----------------------------------*\
  =========                 |
  \\      /  F ield         | OpenFOAM: The Open Source CFD Toolbox
   \\    /   O peration     | Website:  https://openfoam.org
    \\  /    A nd           | Version:  7
     \\/     M anipulation  |
\*---------------------------------------------------------------------------*/
FoamFile
{
    version     2.0;
    format      ascii;
    class       volScalarField;
    location    "0.06";
    object      epsilon;
}
// * * * * * * * * * * * * * * * * * * * * * * * * * * * * * * * * * * * * * //

dimensions      [0 2 -3 0 0 0 0];

internalField   nonuniform List<scalar> 
109978
(
0.001915995
0.001973473
0.001977475
0.0019775
0.001976917
0.001975785
0.001969666
0.002078118
0.002087588
0.002088312
0.002087606
0.002086079
0.001974281
0.002088736
0.002099704
0.002100783
0.002100081
0.002098356
0.001974976
0.002090126
0.002101513
0.002102743
0.002102062
0.002100265
0.00197525
0.002090483
0.00210198
0.002103275
0.002102613
0.002100796
0.001975464
0.002090652
0.002102187
0.002103501
0.002102853
0.002101032
0.001975639
0.00209078
0.00210234
0.002103658
0.002103016
0.002101193
0.001975875
0.002090915
0.00210248
0.002103794
0.002103155
0.002101331
0.00197613
0.002091076
0.002102633
0.002103937
0.002103297
0.002101472
0.001976368
0.002091255
0.002102791
0.002104092
0.002103452
0.002101626
0.001976587
0.002091447
0.002102962
0.002104258
0.002103615
0.002101785
0.001976807
0.002091648
0.002103143
0.002104439
0.002103796
0.002101964
0.001977035
0.002091869
0.002103346
0.00210464
0.002103994
0.002102159
0.001977267
0.002092093
0.002103568
0.002104859
0.002104209
0.002102371
0.001977504
0.002092332
0.002103807
0.002105094
0.00210444
0.002102597
0.001977749
0.002092585
0.002104062
0.002105345
0.002104686
0.002102838
0.001978006
0.002092857
0.002104332
0.00210561
0.002104943
0.002103092
0.001978278
0.002093142
0.002104615
0.002105887
0.002105213
0.002103356
0.001978564
0.00209344
0.002104904
0.002106167
0.002105483
0.00210362
0.00197885
0.002093727
0.002105172
0.002106417
0.002105721
0.002103851
0.001979108
0.002093916
0.002105303
0.002106513
0.002105799
0.002103926
0.001979176
0.002093731
0.00210496
0.002106097
0.002105371
0.002103534
0.01117885
0.002092938
0.002103904
0.002104933
0.002104238
0.002102569
0.002103069
0.002109836
0.002108781
0.002108141
0.002107501
0.002106782
0.01127082
0.01119487
0.01118747
0.01118704
0.01118676
0.01118674
0.01126315
0.01119029
0.01118744
0.01118696
0.01118676
0.01118676
0.01125959
0.01118987
0.01118741
0.01118694
0.01118682
0.01118681
0.01125915
0.01119025
0.01118745
0.01118699
0.01118689
0.01118688
0.01125957
0.01119075
0.01118749
0.01118708
0.01118697
0.01118696
0.01126114
0.01119085
0.01118752
0.01118717
0.01118706
0.01118705
0.01126012
0.01119041
0.01118753
0.01118725
0.01118715
0.01118713
0.01125873
0.01119003
0.01118757
0.01118733
0.01118724
0.01118722
0.01125959
0.01118975
0.01118764
0.01118741
0.01118733
0.0111873
0.01126081
0.01118969
0.01118772
0.01118748
0.01118741
0.01118739
0.01126181
0.01118969
0.01118781
0.01118757
0.0111875
0.01118747
0.01126276
0.01118974
0.01118789
0.01118765
0.01118759
0.01118756
0.01126385
0.01118978
0.01118798
0.01118774
0.01118767
0.01118764
0.01126474
0.01118985
0.01118808
0.01118783
0.01118776
0.01118773
0.01126572
0.01118994
0.01118818
0.01118792
0.01118785
0.01118782
0.01126704
0.01119003
0.01118827
0.01118801
0.01118794
0.0111879
0.01126829
0.01119014
0.01118837
0.0111881
0.01118803
0.01118799
0.01126958
0.01119025
0.01118847
0.0111882
0.01118812
0.01118808
0.01127092
0.01119036
0.01118857
0.01118829
0.01118821
0.01118817
0.01127224
0.01119048
0.01118868
0.01118839
0.01118831
0.01118827
0.01127346
0.01119062
0.01118879
0.01118849
0.0111884
0.01118836
0.01127476
0.01119079
0.0111889
0.01118859
0.0111885
0.01118846
0.01126864
0.01119097
0.01118901
0.01118869
0.0111886
0.01118855
0.002099419
0.002109854
0.002108232
0.002107419
0.002106773
0.002106184
0.01126928
0.01119149
0.01118735
0.01118677
0.01118664
0.01118663
0.01127795
0.01119034
0.01118739
0.01118714
0.01118671
0.0111867
0.01126058
0.01119027
0.01118723
0.011187
0.01118677
0.01118675
0.01126636
0.01119054
0.0111872
0.01118724
0.01118685
0.01118687
0.01126239
0.0111902
0.01118726
0.01118727
0.01118693
0.01118693
0.01126121
0.01118989
0.01118734
0.01118735
0.01118702
0.01118702
0.01126043
0.01118957
0.01118741
0.01118737
0.0111871
0.01118709
0.01125994
0.01118936
0.01118748
0.01118736
0.01118718
0.01118717
0.01126003
0.01118936
0.01118754
0.01118742
0.01118725
0.01118724
0.01126152
0.01118939
0.01118761
0.01118748
0.01118733
0.01118732
0.01126218
0.01118939
0.01118769
0.01118754
0.01118741
0.0111874
0.01126217
0.01118944
0.01118778
0.01118763
0.0111875
0.01118748
0.01126285
0.01118951
0.01118788
0.01118774
0.01118758
0.01118757
0.01126352
0.01118961
0.01118797
0.01118786
0.01118767
0.01118766
0.01126434
0.01118972
0.01118807
0.01118796
0.01118776
0.01118775
0.01126517
0.01118981
0.01118817
0.01118806
0.01118785
0.01118784
0.01126598
0.01118991
0.01118827
0.01118815
0.01118794
0.01118793
0.01126685
0.01119
0.01118837
0.01118823
0.01118803
0.01118802
0.01126782
0.0111901
0.01118847
0.01118832
0.01118812
0.01118811
0.01126872
0.0111902
0.01118858
0.01118841
0.01118822
0.0111882
0.01126969
0.01119031
0.01118868
0.01118852
0.01118831
0.0111883
0.01127086
0.01119041
0.01118879
0.01118862
0.01118841
0.0111884
0.01127233
0.01119052
0.0111889
0.01118872
0.01118851
0.0111885
0.002098168
0.00210942
0.002107656
0.002106681
0.002106018
0.002105467
0.01125713
0.01119074
0.01118725
0.01118659
0.01118659
0.01118659
0.01126829
0.01119197
0.01118706
0.01118739
0.01118671
0.01118671
0.01126293
0.01119034
0.01118708
0.01118695
0.01118678
0.01118675
0.01125822
0.01118943
0.01118708
0.01118701
0.01118686
0.01118683
0.01125766
0.01118922
0.01118713
0.01118701
0.01118692
0.0111869
0.01125787
0.01118912
0.0111872
0.01118707
0.011187
0.01118696
0.01125872
0.01118906
0.01118727
0.01118715
0.01118708
0.01118705
0.01125823
0.01118913
0.01118735
0.01118724
0.01118717
0.01118713
0.01125863
0.01118923
0.01118744
0.01118734
0.01118725
0.01118722
0.01125972
0.0111893
0.01118752
0.0111874
0.01118733
0.01118729
0.01126032
0.01118945
0.0111876
0.01118749
0.01118742
0.01118738
0.0112614
0.01118949
0.01118769
0.01118759
0.0111875
0.01118747
0.01126228
0.01118948
0.01118776
0.01118765
0.01118758
0.01118754
0.01126387
0.01118953
0.01118785
0.01118773
0.01118766
0.01118763
0.01126571
0.01118961
0.01118794
0.01118781
0.01118775
0.01118772
0.01126691
0.0111897
0.01118803
0.0111879
0.01118783
0.0111878
0.01126745
0.01118979
0.01118813
0.01118799
0.01118792
0.01118789
0.01126811
0.01118989
0.01118823
0.01118808
0.01118801
0.01118798
0.01126932
0.01118998
0.01118833
0.01118818
0.01118811
0.01118807
0.01127052
0.01119009
0.01118843
0.01118829
0.01118821
0.01118817
0.01127149
0.01119019
0.01118853
0.01118839
0.0111883
0.01118826
0.0112728
0.01119029
0.01118863
0.01118848
0.0111884
0.01118836
0.01127452
0.01119039
0.01118873
0.01118858
0.01118849
0.01118846
0.002098046
0.00210917
0.002107496
0.002106591
0.002105807
0.002105271
0.01125649
0.01119036
0.01118721
0.01118661
0.01118657
0.01118657
0.01129642
0.011192
0.01118708
0.01118732
0.0111867
0.01118672
0.01126336
0.01119008
0.01118714
0.01118704
0.01118682
0.01118676
0.01125754
0.01118908
0.0111871
0.01118707
0.01118686
0.01118686
0.01125695
0.01118891
0.01118713
0.01118704
0.01118693
0.01118691
0.01125733
0.01118893
0.01118719
0.01118713
0.01118699
0.01118699
0.01125779
0.01118898
0.01118726
0.01118721
0.01118707
0.01118708
0.01125839
0.01118901
0.01118734
0.01118729
0.01118716
0.01118715
0.01125848
0.01118914
0.01118744
0.01118738
0.01118725
0.01118723
0.01125918
0.01118912
0.01118751
0.01118745
0.01118733
0.01118731
0.01125954
0.01118921
0.01118759
0.01118751
0.0111874
0.01118738
0.01126045
0.01118939
0.01118769
0.01118763
0.01118749
0.01118748
0.01126352
0.01118964
0.0111878
0.01118779
0.01118758
0.01118757
0.01126531
0.01118975
0.01118789
0.01118791
0.01118767
0.01118766
0.01126683
0.01118983
0.01118798
0.01118797
0.01118775
0.01118775
0.01126795
0.01118991
0.01118806
0.01118806
0.01118784
0.01118783
0.01126879
0.01119001
0.01118815
0.01118814
0.01118792
0.01118792
0.01126973
0.01119007
0.01118824
0.01118822
0.01118801
0.01118801
0.01127059
0.01119013
0.01118833
0.01118829
0.0111881
0.0111881
0.01127123
0.0111902
0.01118842
0.01118837
0.0111882
0.01118818
0.01127227
0.01119027
0.01118851
0.01118845
0.01118829
0.01118828
0.01127365
0.01119034
0.01118861
0.01118854
0.01118838
0.01118837
0.01127539
0.01119042
0.0111887
0.01118864
0.01118848
0.01118847
0.002098058
0.002109153
0.002107399
0.002106423
0.002105723
0.002105174
0.01126063
0.0111903
0.01118721
0.01118661
0.01118657
0.01118657
0.01127813
0.01119205
0.01118708
0.01118732
0.0111867
0.01118672
0.01126751
0.01119008
0.01118714
0.01118704
0.01118682
0.01118676
0.01125699
0.01118908
0.0111871
0.01118707
0.01118686
0.01118686
0.01125689
0.01118891
0.01118713
0.01118704
0.01118693
0.01118691
0.01125714
0.01118893
0.0111872
0.01118713
0.01118699
0.01118699
0.01125751
0.01118898
0.01118727
0.01118722
0.01118707
0.01118708
0.01125792
0.01118901
0.01118735
0.01118729
0.01118716
0.01118715
0.01125816
0.01118914
0.01118745
0.01118738
0.01118725
0.01118723
0.01125895
0.01118912
0.01118752
0.01118746
0.01118733
0.01118731
0.01125966
0.01118921
0.01118759
0.01118752
0.0111874
0.01118739
0.01126137
0.01118939
0.0111877
0.01118764
0.01118749
0.01118748
0.0112639
0.01118964
0.0111878
0.0111878
0.01118758
0.01118757
0.01126718
0.01118975
0.0111879
0.01118791
0.01118767
0.01118766
0.01126873
0.01118983
0.01118798
0.01118797
0.01118775
0.01118775
0.01126972
0.01118991
0.01118807
0.01118806
0.01118784
0.01118783
0.01127044
0.01119001
0.01118816
0.01118814
0.01118793
0.01118792
0.01127114
0.01119007
0.01118825
0.01118822
0.01118802
0.01118801
0.01127176
0.01119013
0.01118834
0.01118829
0.01118811
0.0111881
0.01127259
0.0111902
0.01118843
0.01118837
0.0111882
0.01118818
0.01127389
0.01119027
0.01118852
0.01118845
0.01118829
0.01118828
0.01127454
0.01119034
0.01118861
0.01118854
0.01118838
0.01118837
0.01127575
0.01119042
0.01118871
0.01118864
0.01118848
0.01118847
0.002098611
0.002109253
0.002107441
0.002106527
0.002105836
0.002105289
0.01125603
0.01119068
0.01118726
0.01118659
0.01118659
0.01118659
0.0112859
0.01119195
0.01118706
0.01118738
0.0111867
0.01118671
0.01126195
0.01119034
0.01118708
0.01118695
0.01118677
0.01118675
0.01125762
0.01118943
0.01118708
0.01118701
0.01118686
0.01118683
0.01125756
0.01118922
0.01118714
0.01118701
0.01118692
0.0111869
0.01125739
0.01118911
0.01118722
0.01118707
0.011187
0.01118696
0.01125884
0.01118906
0.01118729
0.01118716
0.01118709
0.01118705
0.01125817
0.01118912
0.01118736
0.01118724
0.01118717
0.01118714
0.01125855
0.01118922
0.01118746
0.01118734
0.01118726
0.01118722
0.01125939
0.0111893
0.01118754
0.0111874
0.01118734
0.01118729
0.01126044
0.01118944
0.01118762
0.0111875
0.01118742
0.01118738
0.01126202
0.01118948
0.0111877
0.01118759
0.0111875
0.01118747
0.01126334
0.01118947
0.01118778
0.01118765
0.01118759
0.01118754
0.01126484
0.01118952
0.01118787
0.01118773
0.01118767
0.01118763
0.01126642
0.0111896
0.01118796
0.01118782
0.01118775
0.01118772
0.01126751
0.01118969
0.01118805
0.0111879
0.01118784
0.01118781
0.01126845
0.01118978
0.01118815
0.01118799
0.01118793
0.01118789
0.01126927
0.01118987
0.01118825
0.01118809
0.01118802
0.01118798
0.01127033
0.01118997
0.01118835
0.01118819
0.01118811
0.01118807
0.01127146
0.01119008
0.01118845
0.01118829
0.01118821
0.01118817
0.01127238
0.01119018
0.01118855
0.01118839
0.01118831
0.01118826
0.01127375
0.01119028
0.01118865
0.01118849
0.0111884
0.01118836
0.01127537
0.01119038
0.01118876
0.01118858
0.0111885
0.01118845
0.002099034
0.002109656
0.002107996
0.002107338
0.00210657
0.002105999
0.01126259
0.01119142
0.0111874
0.01118676
0.01118665
0.01118663
0.01127541
0.01119032
0.01118743
0.01118713
0.01118671
0.0111867
0.01127438
0.01119025
0.01118726
0.01118699
0.01118677
0.01118675
0.01126015
0.01119052
0.01118723
0.01118723
0.01118685
0.01118687
0.01125872
0.01119017
0.0111873
0.01118727
0.01118693
0.01118693
0.01125886
0.01118987
0.01118738
0.01118735
0.01118702
0.01118702
0.01125886
0.01118955
0.01118745
0.01118738
0.0111871
0.01118709
0.01125826
0.01118934
0.01118752
0.01118736
0.01118718
0.01118717
0.01125841
0.01118934
0.01118758
0.01118742
0.01118726
0.01118724
0.01125922
0.01118938
0.01118765
0.01118748
0.01118734
0.01118732
0.01126019
0.01118938
0.01118773
0.01118754
0.01118742
0.0111874
0.01126126
0.01118942
0.01118782
0.01118763
0.0111875
0.01118748
0.01126299
0.01118949
0.01118792
0.01118774
0.01118759
0.01118757
0.01126419
0.01118959
0.01118802
0.01118786
0.01118768
0.01118766
0.01126542
0.01118969
0.01118812
0.01118796
0.01118777
0.01118775
0.01126635
0.01118979
0.01118822
0.01118806
0.01118786
0.01118784
0.01126724
0.01118988
0.01118832
0.01118815
0.01118795
0.01118793
0.01126807
0.01118998
0.01118842
0.01118823
0.01118804
0.01118802
0.011269
0.01119007
0.01118852
0.01118832
0.01118813
0.01118811
0.01127005
0.01119017
0.01118863
0.01118841
0.01118822
0.01118821
0.01127122
0.01119028
0.01118874
0.01118852
0.01118832
0.0111883
0.01127257
0.01119038
0.01118885
0.01118862
0.01118841
0.0111884
0.01127419
0.01119049
0.01118896
0.01118872
0.01118851
0.0111885
0.002098224
0.00210682
0.002104912
0.002104442
0.002103617
0.002102957
0.01128384
0.0111948
0.01118746
0.01118703
0.01118676
0.01118674
0.01127011
0.01119021
0.01118744
0.01118694
0.01118676
0.01118675
0.01126855
0.01118978
0.01118741
0.01118691
0.01118682
0.01118681
0.01126575
0.01119018
0.01118745
0.01118698
0.01118689
0.01118688
0.01126353
0.01119068
0.01118749
0.01118706
0.01118697
0.01118696
0.01126252
0.01119079
0.01118752
0.01118715
0.01118706
0.01118704
0.01126177
0.01119037
0.01118753
0.01118724
0.01118715
0.01118713
0.01126053
0.01119
0.01118757
0.01118732
0.01118724
0.01118722
0.01125983
0.01118972
0.01118764
0.0111874
0.01118733
0.0111873
0.01126029
0.01118966
0.01118772
0.01118748
0.01118741
0.01118739
0.01126034
0.01118966
0.01118781
0.01118756
0.0111875
0.01118747
0.01126081
0.0111897
0.01118789
0.01118765
0.01118759
0.01118755
0.01126145
0.01118975
0.01118798
0.01118773
0.01118767
0.01118764
0.01126282
0.01118982
0.01118808
0.01118782
0.01118776
0.01118773
0.01126374
0.0111899
0.01118818
0.01118791
0.01118785
0.01118781
0.01126444
0.01118999
0.01118827
0.01118801
0.01118794
0.0111879
0.01126532
0.01119009
0.01118837
0.0111881
0.01118803
0.01118799
0.01126615
0.0111902
0.01118847
0.01118819
0.01118812
0.01118808
0.01126694
0.01119032
0.01118857
0.01118829
0.01118821
0.01118817
0.01126783
0.01119043
0.01118868
0.01118838
0.0111883
0.01118826
0.01126885
0.01119057
0.01118878
0.01118848
0.0111884
0.01118836
0.01127011
0.01119074
0.0111889
0.01118858
0.01118849
0.01118846
0.01126864
0.01119091
0.01118901
0.01118868
0.01118859
0.01118855
0.005959597
0.006064034
0.006053709
0.006049372
0.00604127
0.006034251
0.01145189
0.01114479
0.01115209
0.01116549
0.01116172
0.01116382
0.01116394
0.0116568
0.01114405
0.01115789
0.01117613
0.0111683
0.01117129
0.01117067
0.01152686
0.01114996
0.01115449
0.01117562
0.01116745
0.01117113
0.0111707
0.01147763
0.0111494
0.01115458
0.01117539
0.01116781
0.01117125
0.01117088
0.01144436
0.01114907
0.0111546
0.01117418
0.01116783
0.01117096
0.01117069
0.01142492
0.01114785
0.01115498
0.01117351
0.01116775
0.01117089
0.01117058
0.01142045
0.01114632
0.01115582
0.01117281
0.01116767
0.01117071
0.01117037
0.01142978
0.01114448
0.01115684
0.01117228
0.01116763
0.01117059
0.01117019
0.01143245
0.01114298
0.01115745
0.01117184
0.01116757
0.01117042
0.01117002
0.01143539
0.01114193
0.01115742
0.01117151
0.01116745
0.0111702
0.0111698
0.01144454
0.01114163
0.01115711
0.01117125
0.01116726
0.01116996
0.01116957
0.01145409
0.01114074
0.01115705
0.01117113
0.01116715
0.01116986
0.01116945
0.01146421
0.01114009
0.01115706
0.01117102
0.011167
0.01116971
0.01116929
0.01147554
0.01113981
0.01115683
0.0111709
0.01116684
0.01116956
0.01116913
0.01148768
0.0111394
0.01115658
0.01117076
0.01116668
0.01116939
0.01116897
0.01149963
0.01113887
0.01115627
0.01117062
0.01116651
0.01116924
0.01116882
0.01151215
0.01113833
0.01115595
0.01117049
0.01116635
0.0111691
0.01116867
0.01152612
0.0111378
0.0111556
0.01117039
0.01116619
0.01116896
0.01116854
0.01154171
0.01113733
0.01115523
0.0111703
0.01116604
0.01116885
0.01116841
0.01155833
0.01113701
0.01115485
0.01117023
0.01116589
0.01116874
0.0111683
0.01157612
0.01113694
0.01115447
0.01117021
0.01116577
0.01116868
0.01116822
0.011596
0.01113706
0.01115417
0.01117025
0.0111657
0.01116864
0.01116817
0.01161778
0.001976874
0.01115402
0.01117035
0.01116574
0.01116874
0.01116819
0.004155005
0.006742361
0.01144033
0.01122007
0.004122301
0.004282751
0.01145071
0.01123784
0.01174336
0.01125909
0.004288976
0.004286456
0.01165672
0.01125721
0.01139826
0.0112607
0.004292441
0.004286602
0.01152648
0.01125218
0.01140073
0.01125343
0.004292186
0.004286263
0.01147714
0.01124465
0.01140517
0.01124736
0.004292599
0.004286279
0.01144383
0.01123942
0.01141386
0.01124079
0.004293522
0.004286533
0.01142435
0.01123388
0.01142551
0.01123573
0.00429415
0.00428676
0.01141988
0.01123012
0.01144352
0.01123168
0.004295028
0.004287195
0.01142933
0.01122592
0.01146482
0.01122514
0.004296179
0.004287756
0.01143195
0.01122155
0.01147502
0.01122146
0.004297612
0.004288422
0.01143483
0.01121866
0.01148728
0.01121909
0.004299105
0.004289209
0.01144393
0.01121595
0.01150064
0.01121818
0.004300523
0.004290062
0.01145343
0.0112133
0.01151462
0.01121759
0.004301956
0.004291004
0.01146349
0.01121195
0.0115287
0.0112169
0.004303524
0.004292046
0.01147478
0.01121072
0.01154226
0.01121648
0.004305226
0.00429313
0.01148685
0.01120977
0.01155699
0.01121638
0.004306907
0.004294295
0.01149877
0.01120926
0.0115723
0.01121637
0.004308598
0.004295585
0.01151119
0.01120865
0.01158825
0.01121642
0.004310343
0.004297018
0.01152514
0.01120803
0.01160525
0.01121642
0.004312164
0.00429856
0.01154067
0.01120751
0.01162333
0.01121639
0.004314053
0.004300212
0.01155729
0.01120723
0.01164279
0.0112163
0.004316023
0.00430191
0.011575
0.01120696
0.01166303
0.0112161
0.004317997
0.004303257
0.01159486
0.01120676
0.01168488
0.01121595
0.004319296
0.01117513
0.01161661
0.0112067
0.01170748
0.0112158
0.00593395
0.01142893
0.01122445
0.00600404
0.0116617
0.01125045
0.006007628
0.01140761
0.0112362
0.006004257
0.01164647
0.01123743
0.005999312
0.01139546
0.01123486
0.006001385
0.0115585
0.01123162
0.005996546
0.01140065
0.01123002
0.006000099
0.01142495
0.01123414
0.005998194
0.01159517
0.01124167
0.006001126
0.01139536
0.0112319
0.006001658
0.01158091
0.01123181
0.00600129
0.01139576
0.01123416
0.006003602
0.01164662
0.01123622
0.00600763
0.01140601
0.0112356
0.006005386
0.01166025
0.01125057
0.005933774
0.01143109
0.01122404
0.006743056
0.01144
0.01121996
0.004155061
0.006054967
0.01119227
0.01119323
0.004127649
0.004291644
0.006050256
0.01119246
0.01119073
0.004299911
0.004295573
0.006046276
0.01119084
0.01119071
0.0042988
0.004293913
0.006039002
0.01119084
0.01119031
0.004296388
0.00429048
0.006032422
0.0111905
0.01119018
0.004292828
0.004287206
0.01119031
0.004289235
0.01123788
0.01174338
0.01125913
0.00412229
0.004282739
0.01125723
0.01139826
0.01126071
0.004288985
0.004286454
0.01125218
0.01140072
0.01125342
0.004292422
0.004286583
0.01124465
0.01140517
0.01124736
0.004292188
0.004286248
0.01123942
0.01141385
0.01124079
0.004292576
0.004286272
0.01123389
0.0114255
0.01123573
0.004293537
0.004286547
0.01122645
0.01146473
0.01122516
0.004295075
0.004287203
0.01122157
0.01147499
0.01122145
0.004296191
0.004287761
0.01121869
0.01148726
0.01121909
0.004297627
0.004288425
0.011216
0.01150059
0.01121817
0.004299118
0.004289212
0.01121332
0.01151461
0.01121758
0.004300535
0.004290068
0.01121199
0.01152867
0.0112169
0.004301969
0.00429101
0.01121074
0.01154225
0.01121648
0.004303537
0.004292054
0.01120981
0.01155699
0.01121638
0.004305241
0.004293136
0.01120929
0.01157232
0.01121637
0.004306922
0.004294304
0.0112087
0.01158828
0.01121642
0.004308615
0.004295592
0.01120807
0.0116053
0.01121643
0.00431036
0.004297025
0.01120756
0.01162339
0.01121639
0.004312185
0.004298569
0.01120726
0.01164291
0.0112163
0.004314054
0.004300188
0.01120702
0.01166315
0.01121611
0.004316023
0.00430192
0.01120682
0.01168509
0.01121595
0.004318
0.00430327
0.01120677
0.0117077
0.01121587
0.004319315
0.01117512
0.01122256
0.008701243
0.004127639
0.00429165
0.005959255
0.006054965
0.01119228
0.01119324
0.004299906
0.004295569
0.006064121
0.006050377
0.01119246
0.01119073
0.004298822
0.004293925
0.006053763
0.006046301
0.01119084
0.01119071
0.004296375
0.004290478
0.006049412
0.00603901
0.01119084
0.01119031
0.004292854
0.00428721
0.006041279
0.006032411
0.0111905
0.01119018
0.004289219
0.006034214
0.01119031
0.01128527
0.008790747
0.01124895
0.008781706
0.01125723
0.008820762
0.01126752
0.008819686
0.01125469
0.008830504
0.01124682
0.008824682
0.01125083
0.008848625
0.01124154
0.008831718
0.0112464
0.008863759
0.0112382
0.00883781
0.01123039
0.008875062
0.01123794
0.008841976
0.01122926
0.00888029
0.01123937
0.008842408
0.01122847
0.008882248
0.01123958
0.008838369
0.01122784
0.008885702
0.01123693
0.008834341
0.01122919
0.008891563
0.01123314
0.008832784
0.01123128
0.008896424
0.01123279
0.008833523
0.0112325
0.008900628
0.01123384
0.008835958
0.0112336
0.008905025
0.01123556
0.008839167
0.01123473
0.008909406
0.01123741
0.008843821
0.01123624
0.008913895
0.01123944
0.00884888
0.01123808
0.008918169
0.01124189
0.008854845
0.01124051
0.008922189
0.0112449
0.00886237
0.01124319
0.008926214
0.01124834
0.008870204
0.0112461
0.008930525
0.01125207
0.00887859
0.01124913
0.008935919
0.01125604
0.008887238
0.01125204
0.008942801
0.01126025
0.008896197
0.01125506
0.008951053
0.0112645
0.008905713
0.01125837
0.00896018
0.01126893
0.008914987
0.01123276
0.01121722
0.01131314
0.01130039
0.01134596
0.01132131
0.01135715
0.0113049
0.01134549
0.01132375
0.01135801
0.01133873
0.01134253
0.01133787
0.01127304
0.0112616
0.01119412
0.01125355
0.01123012
0.01144349
0.01123171
0.004294174
0.004286787
0.01124333
0.008871081
0.01121982
0.008507507
0.01124648
0.008752363
0.0112925
0.008445466
0.01118884
0.01124185
0.01130761
0.008811219
0.01125943
0.008772581
0.01125156
0.008822715
0.01125379
0.008832626
0.0112445
0.008827211
0.01125269
0.008843012
0.01123887
0.008834543
0.01125053
0.008856064
0.01123695
0.008840474
0.01123776
0.008873207
0.01123711
0.008842542
0.01122929
0.008881029
0.01123886
0.008838274
0.01122886
0.008883395
0.01123807
0.008834318
0.01122779
0.008885266
0.01123451
0.008832421
0.01123381
0.008889412
0.01123147
0.008831243
0.01123211
0.008895629
0.01123221
0.008832968
0.01123263
0.008900016
0.0112336
0.008835556
0.01123332
0.00890406
0.01123514
0.008839669
0.01123437
0.008907844
0.01123644
0.008844179
0.01123569
0.00891172
0.0112379
0.008849995
0.0112379
0.008915326
0.01123993
0.008856377
0.01124045
0.008918413
0.01124197
0.008863852
0.01124319
0.008921721
0.01124429
0.008872068
0.01124598
0.008925347
0.01124719
0.008880931
0.01124888
0.008929625
0.01125039
0.008889957
0.01125171
0.008934817
0.01125361
0.008899379
0.0112544
0.008941437
0.01125702
0.008909225
0.01125718
0.008949323
0.01126073
0.008915865
0.01181018
0.008956895
0.01125965
0.01127334
0.01126337
0.0113258
0.01133066
0.01135091
0.01135367
0.01133165
0.01132513
0.0113612
0.01134881
0.01134874
0.01134467
0.01130473
0.01130552
0.01123285
0.01121359
0.01121735
0.008708514
0.0112423
0.008871605
0.01121978
0.008511976
0.01124652
0.008753746
0.01129315
0.008445345
0.01119726
0.008893943
0.01118816
0.008880373
0.01118726
0.008894152
0.01119638
0.00889599
0.0111939
0.008917448
0.01118329
0.008887227
0.01118505
0.008883731
0.01119105
0.008900517
0.01119357
0.008902557
0.01118245
0.008873596
0.01118458
0.00887105
0.01119088
0.008886482
0.01119306
0.008889604
0.01118216
0.008860246
0.01118418
0.008856668
0.01119017
0.008872256
0.01119267
0.008873778
0.01118179
0.008845651
0.01119254
0.008859172
0.01118606
0.01128521
0.008790587
0.01124896
0.008781737
0.01130758
0.008811222
0.01125945
0.008772647
0.01125724
0.008820749
0.01126721
0.008819671
0.01125156
0.008822799
0.01125381
0.008832572
0.01125469
0.008830528
0.01124651
0.008824736
0.01124449
0.008827259
0.01125271
0.00884307
0.01125083
0.008848645
0.01124111
0.00883175
0.01123887
0.008834573
0.01125056
0.008856128
0.0112464
0.008863777
0.01123767
0.00883783
0.01123695
0.008840492
0.01123781
0.008873243
0.0112304
0.008875065
0.01123728
0.008841986
0.01123711
0.00884255
0.01122932
0.008881056
0.01122847
0.008881456
0.01123957
0.008838414
0.01123807
0.008834375
0.0112278
0.008885334
0.01122782
0.008885713
0.01123582
0.008834383
0.01123451
0.008832441
0.01123384
0.008889463
0.01122916
0.008891568
0.01123188
0.008832829
0.01123148
0.008831289
0.01123214
0.008895667
0.01123126
0.008896419
0.01123142
0.008833557
0.01123222
0.008832954
0.01123264
0.008900038
0.01123247
0.008900599
0.01123232
0.008835989
0.01123361
0.008835585
0.01123334
0.008904109
0.01123356
0.008905037
0.01123393
0.008839184
0.01123515
0.008839653
0.01123437
0.008907879
0.01123468
0.00890941
0.01123564
0.008843864
0.01123645
0.008844214
0.01123571
0.008911774
0.01123619
0.008913935
0.01123755
0.008848913
0.01123791
0.008850003
0.01123792
0.008915356
0.01124197
0.008856416
0.01124053
0.008918419
0.01124044
0.008922302
0.01124277
0.008862403
0.01124199
0.008863879
0.01124321
0.008921759
0.01124312
0.008926332
0.01124609
0.008870251
0.0112443
0.008872086
0.011246
0.008925446
0.01124603
0.00893076
0.01124972
0.008878608
0.0112472
0.008880939
0.0112489
0.008929671
0.01124904
0.008936101
0.01125357
0.008887273
0.01125039
0.008889984
0.01125174
0.008934862
0.01125195
0.008943096
0.01125768
0.00889625
0.01125363
0.008899449
0.01125442
0.008941519
0.01125495
0.00895142
0.01126181
0.008905843
0.01125704
0.008909258
0.01125721
0.008949475
0.01125826
0.008960637
0.01126613
0.008914993
0.01126075
0.01127426
0.008956962
0.01126018
0.006751402
0.007470331
0.008893497
0.01118821
0.0111923
0.008880227
0.01119423
0.008917132
0.01118835
0.00888723
0.01119388
0.008902333
0.01118739
0.00887358
0.01119337
0.008889525
0.01118701
0.008860232
0.01119296
0.008873814
0.01118652
0.008845624
0.01119254
0.008859073
0.01118605
0.008831272
0.01142447
0.008383401
0.01144676
0.008299782
0.01147523
0.008418784
0.01152082
0.008325242
0.01146095
0.00844692
0.01141766
0.008362315
0.01145662
0.008467412
0.01136688
0.008395795
0.01143231
0.008481932
0.01136688
0.008421367
0.01139416
0.008485426
0.01137284
0.008435249
0.01137169
0.008486114
0.01137597
0.008446139
0.01136229
0.008486948
0.01138181
0.008455556
0.01136366
0.008489084
0.01138945
0.008463474
0.01137035
0.008491133
0.01140273
0.008469588
0.01138125
0.008492436
0.0114169
0.008472606
0.01139406
0.008494014
0.011433
0.008475751
0.01140823
0.008495608
0.01145061
0.008478862
0.01142471
0.008497267
0.01146949
0.008481758
0.01144327
0.008498788
0.01149033
0.008484903
0.01146322
0.008499897
0.01151367
0.008487043
0.01148484
0.008501023
0.01153815
0.008488575
0.01150822
0.008502176
0.0115638
0.008490081
0.01153269
0.008503463
0.011591
0.008491529
0.0115583
0.008504872
0.01161991
0.008493015
0.01158387
0.008506412
0.01164987
0.008494612
0.01161117
0.008508077
0.01168205
0.008496333
0.01164045
0.008509892
0.01171711
0.008498117
0.007248824
0.007232471
0.007242863
0.007213351
0.007256873
0.007254615
0.007234325
0.007293278
0.00725095
0.007223573
0.007285045
0.007225055
0.007263224
0.007185766
0.007146063
0.007205402
0.00727726
0.007293612
0.007906637
0.00795961
0.007916617
0.007949822
0.01162952
0.008360014
0.01143507
0.008395376
0.007302226
0.007259472
0.01155455
0.008324106
0.01147799
0.008400432
0.01145509
0.008351895
0.01145627
0.008430981
0.01138819
0.0083883
0.0114511
0.008461882
0.01134913
0.008415634
0.01143455
0.008479522
0.01135277
0.008432141
0.01139918
0.008488109
0.0113655
0.008442883
0.01137576
0.008488185
0.01137203
0.008452591
0.01136936
0.008487624
0.01137792
0.008460328
0.01137364
0.008488616
0.01138677
0.008467892
0.01138023
0.008490826
0.0113985
0.008470815
0.01139116
0.008491607
0.01140908
0.008473986
0.01140334
0.008493021
0.01142092
0.008477238
0.01141729
0.008494564
0.01143449
0.008480114
0.01143329
0.008496116
0.01144948
0.008483274
0.01145189
0.008497978
0.01146442
0.008485744
0.0114716
0.008499162
0.01148107
0.008487223
0.01149176
0.008500218
0.0115
0.008488776
0.01151332
0.008501253
0.01152067
0.008490295
0.01153629
0.008502483
0.01154311
0.008491889
0.01156123
0.008503813
0.01156635
0.008493562
0.01158866
0.008505284
0.01159169
0.008495318
0.01162034
0.008506939
0.0116197
0.008497157
0.01165501
0.00850876
0.01165022
0.008498298
0.00851019
0.01169224
0.00719652
0.007218902
0.007218246
0.007151074
0.007156692
0.007242543
0.007261132
0.007250706
0.007256624
0.007157083
0.007247999
0.007270135
0.007284343
0.007205428
0.007222857
0.00722254
0.006792496
0.007519268
0.007918627
0.007969169
0.007961087
0.007926704
0.007883996
0.00793364
0.007890348
0.007928945
0.007886714
0.007937145
0.007930392
0.007895187
0.0111837
0.008843249
0.01118986
0.008857155
0.00787616
0.007926724
0.007919912
0.007884943
0.01142519
0.008383205
0.008299487
0.01144773
0.01155499
0.00832413
0.01147807
0.008400602
0.01123803
0.008918211
0.01123984
0.008854903
0.01156638
0.008493507
0.01158866
0.008505226
0.01158384
0.008506346
0.008494568
0.0116485
0.01161981
0.008497118
0.01165515
0.008508719
0.01164051
0.008509855
0.008498103
0.01171583
0.01165031
0.008498258
0.008510185
0.01169235
0.007322264
0.007826807
0.007684274
0.007657947
0.01126903
0.008345161
0.01156515
0.008431754
0.007083936
0.007163719
0.01118691
0.00889412
0.01119634
0.008895883
0.01118506
0.008883665
0.01119103
0.008900573
0.0111846
0.008871029
0.01119086
0.008886471
0.0111842
0.008856637
0.01119016
0.008872245
0.01118376
0.008842783
0.01118983
0.008857057
0.01148267
0.00830707
0.01145212
0.008402372
0.01149281