/*--------------------------------*- C++ -*----------------------------------*\
  =========                 |
  \\      /  F ield         | OpenFOAM: The Open Source CFD Toolbox
   \\    /   O peration     | Website:  https://openfoam.org
    \\  /    A nd           | Version:  7
     \\/     M anipulation  |
\*---------------------------------------------------------------------------*/
FoamFile
{
    version     2.0;
    format      ascii;
    class       volScalarField;
    location    "0.06";
    object      k;
}
// * * * * * * * * * * * * * * * * * * * * * * * * * * * * * * * * * * * * * //

dimensions      [0 2 -2 0 0 0 0];

internalField   nonuniform List<scalar> 
109978
(
0.003736953
0.003742116
0.003741142
0.003740513
0.003739828
0.003739132
0.003736992
0.003742909
0.003741662
0.003740997
0.003740215
0.003739463
0.003736817
0.003743061
0.003741749
0.003741067
0.003740269
0.003739512
0.003737028
0.003743112
0.003741828
0.003741136
0.003740334
0.003739574
0.003737251
0.003743209
0.003741907
0.003741205
0.003740403
0.003739642
0.003737495
0.003743318
0.003742011
0.003741298
0.003740494
0.003739733
0.003737711
0.003743446
0.003742141
0.003741415
0.003740611
0.003739852
0.003738013
0.0037436
0.003742294
0.003741556
0.003740751
0.00373999
0.003738343
0.003743794
0.003742472
0.00374172
0.003740911
0.00374015
0.00373865
0.003744013
0.003742663
0.003741905
0.003741096
0.003740333
0.003738935
0.00374425
0.003742871
0.003742105
0.00374129
0.003740524
0.003739221
0.003744498
0.003743092
0.003742327
0.003741511
0.003740743
0.003739518
0.003744771
0.00374334
0.003742573
0.003741754
0.003740982
0.003739819
0.003745047
0.003743613
0.003742841
0.003742017
0.003741242
0.003740128
0.003745342
0.003743907
0.00374313
0.003742301
0.00374152
0.003740447
0.003745656
0.003744221
0.003743439
0.003742604
0.003741818
0.003740782
0.003745993
0.003744555
0.003743769
0.003742927
0.003742135
0.003741138
0.003746351
0.003744911
0.003744119
0.003743269
0.00374247
0.003741515
0.003746733
0.003745289
0.003744491
0.003743632
0.003742826
0.003741905
0.003747136
0.003745689
0.003744884
0.003744016
0.003743201
0.003742322
0.003747561
0.003746113
0.0037453
0.003744422
0.003743597
0.003742759
0.003748014
0.003746562
0.00374574
0.003744849
0.003744013
0.003542846
0.003748509
0.003747036
0.003746204
0.0037453
0.003744452
0.003736253
0.003742009
0.003740954
0.003740252
0.003739492
0.003738738
0.003554206
0.003540827
0.003539263
0.003539203
0.003539149
0.003539148
0.003552436
0.0035398
0.003539273
0.00353918
0.003539142
0.003539146
0.003551677
0.003539698
0.003539271
0.003539171
0.003539152
0.003539155
0.003551553
0.003539781
0.003539273
0.00353918
0.003539164
0.003539165
0.003551652
0.00353989
0.003539275
0.003539194
0.003539178
0.003539178
0.003552027
0.003539912
0.003539275
0.003539209
0.003539192
0.003539192
0.003551778
0.003539812
0.003539275
0.003539223
0.003539207
0.003539207
0.003551474
0.003539726
0.00353928
0.003539237
0.003539222
0.003539222
0.003551679
0.003539659
0.003539291
0.003539249
0.003539237
0.003539236
0.003551949
0.003539639
0.003539305
0.003539261
0.003539252
0.00353925
0.003552168
0.003539635
0.003539318
0.003539275
0.003539266
0.003539264
0.003552374
0.00353964
0.003539332
0.003539289
0.00353928
0.003539278
0.003552609
0.003539645
0.003539347
0.003539304
0.003539295
0.003539293
0.003552795
0.003539655
0.003539364
0.003539319
0.003539309
0.003539307
0.003553004
0.003539669
0.00353938
0.003539334
0.003539324
0.003539322
0.003553288
0.003539684
0.003539396
0.003539349
0.003539339
0.003539336
0.003553556
0.003539702
0.003539412
0.003539365
0.003539354
0.003539351
0.00355383
0.003539721
0.003539429
0.003539381
0.00353937
0.003539367
0.003554113
0.003539741
0.003539446
0.003539396
0.003539385
0.003539382
0.003554392
0.003539761
0.003539464
0.003539413
0.003539401
0.003539398
0.003554646
0.003539787
0.003539483
0.003539429
0.003539417
0.003539414
0.003554915
0.003539818
0.003539502
0.003539446
0.003539433
0.00353943
0.003553476
0.003539851
0.003539522
0.003539464
0.00353945
0.003539447
0.003736305
0.003743345
0.003741838
0.003741087
0.003740319
0.003739556
0.00355387
0.003540069
0.003539258
0.003539148
0.003539125
0.003539126
0.003555572
0.003539784
0.003539257
0.003539219
0.003539133
0.003539136
0.003551727
0.003539784
0.003539221
0.003539185
0.003539141
0.003539142
0.003553066
0.003539842
0.003539209
0.003539232
0.003539154
0.003539163
0.003552159
0.003539763
0.003539219
0.003539236
0.003539169
0.003539173
0.003551888
0.003539694
0.003539232
0.003539249
0.003539183
0.003539188
0.003551697
0.003539625
0.003539245
0.00353925
0.003539196
0.0035392
0.003551572
0.003539577
0.003539256
0.003539244
0.003539209
0.003539212
0.003551581
0.003539572
0.003539266
0.003539252
0.003539222
0.003539224
0.003551908
0.003539574
0.003539277
0.003539261
0.003539235
0.003539237
0.003552042
0.003539569
0.003539291
0.003539271
0.003539248
0.00353925
0.003552029
0.003539575
0.003539307
0.003539286
0.003539262
0.003539264
0.003552167
0.003539587
0.003539323
0.003539305
0.003539276
0.003539279
0.003552304
0.003539603
0.003539339
0.003539327
0.003539291
0.003539294
0.003552473
0.00353962
0.003539355
0.003539344
0.003539307
0.003539309
0.003552648
0.003539635
0.003539372
0.00353936
0.003539321
0.003539324
0.003552818
0.003539651
0.003539388
0.003539376
0.003539336
0.003539339
0.003553001
0.003539666
0.003539405
0.003539389
0.003539351
0.003539354
0.003553207
0.003539681
0.003539422
0.003539403
0.003539367
0.00353937
0.003553398
0.003539699
0.00353944
0.003539419
0.003539382
0.003539386
0.003553603
0.003539716
0.003539458
0.003539437
0.003539398
0.003539402
0.003553853
0.003539733
0.003539476
0.003539454
0.003539414
0.003539419
0.003554171
0.003539751
0.003539494
0.00353947
0.00353943
0.003539436
0.00373534
0.003743607
0.003742018
0.003741142
0.003740347
0.003739553
0.003551035
0.003539888
0.003539246
0.003539113
0.003539115
0.003539119
0.003553387
0.003540157
0.003539179
0.003539274
0.003539131
0.003539137
0.003552303
0.003539808
0.003539187
0.003539176
0.003539144
0.003539142
0.003551214
0.003539603
0.003539184
0.003539183
0.003539156
0.003539157
0.003551085
0.003539557
0.003539194
0.00353918
0.003539167
0.003539167
0.003551124
0.003539535
0.003539208
0.003539191
0.00353918
0.003539177
0.003551302
0.00353952
0.003539219
0.003539204
0.003539194
0.003539192
0.003551185
0.003539531
0.003539231
0.003539219
0.003539208
0.003539206
0.003551265
0.003539548
0.003539247
0.003539236
0.003539223
0.00353922
0.003551503
0.003539559
0.00353926
0.003539245
0.003539236
0.003539232
0.00355162
0.003539585
0.003539273
0.003539262
0.00353925
0.003539246
0.003551845
0.003539589
0.003539288
0.003539277
0.003539263
0.003539261
0.003552029
0.003539582
0.003539301
0.003539287
0.003539277
0.003539274
0.003552376
0.003539589
0.003539315
0.0035393
0.003539291
0.003539288
0.003552783
0.003539602
0.00353933
0.003539314
0.003539305
0.003539303
0.003553042
0.003539616
0.003539346
0.003539329
0.003539319
0.003539317
0.003553151
0.003539631
0.003539362
0.003539343
0.003539334
0.003539332
0.003553289
0.003539646
0.003539378
0.003539359
0.003539349
0.003539346
0.003553548
0.003539662
0.003539395
0.003539375
0.003539365
0.003539362
0.003553806
0.00353968
0.003539412
0.003539393
0.003539382
0.003539379
0.003554014
0.003539697
0.003539428
0.00353941
0.003539398
0.003539395
0.003554295
0.003539713
0.003539445
0.003539426
0.003539414
0.003539411
0.003554671
0.00353973
0.003539462
0.003539442
0.00353943
0.003539428
0.003735323
0.003743516
0.003742098
0.00374133
0.003740389
0.003739592
0.003550917
0.003539807
0.003539239
0.003539115
0.003539111
0.003539115
0.00355975
0.003540168
0.003539184
0.00353926
0.003539131
0.003539139
0.0035524
0.003539749
0.003539199
0.003539194
0.003539153
0.003539145
0.00355107
0.003539529
0.00353919
0.003539195
0.003539156
0.003539162
0.003550932
0.003539495
0.003539195
0.003539187
0.003539168
0.003539168
0.003551006
0.003539496
0.003539205
0.003539202
0.003539177
0.003539182
0.003551102
0.003539504
0.003539217
0.003539217
0.003539191
0.003539197
0.003551224
0.003539508
0.00353923
0.003539229
0.003539205
0.003539209
0.00355123
0.003539532
0.003539247
0.003539244
0.003539221
0.003539223
0.003551381
0.003539522
0.003539259
0.003539256
0.003539234
0.003539235
0.003551447
0.003539533
0.003539271
0.003539265
0.003539246
0.003539247
0.003551638
0.003539567
0.003539288
0.003539287
0.003539261
0.003539263
0.003552321
0.003539616
0.003539305
0.003539317
0.003539276
0.00353928
0.003552705
0.003539636
0.003539321
0.003539337
0.003539291
0.003539295
0.003553038
0.003539649
0.003539336
0.003539346
0.003539304
0.003539309
0.00355328
0.003539662
0.00353935
0.003539362
0.003539319
0.003539323
0.003553457
0.003539677
0.003539365
0.003539375
0.003539333
0.003539338
0.003553657
0.003539686
0.00353938
0.003539386
0.003539348
0.003539352
0.003553838
0.003539695
0.003539395
0.003539398
0.003539363
0.003539367
0.003553973
0.003539705
0.00353941
0.003539411
0.003539379
0.003539382
0.003554195
0.003539715
0.003539425
0.003539423
0.003539394
0.003539398
0.003554493
0.003539725
0.00353944
0.003539437
0.003539409
0.003539414
0.003554875
0.003539737
0.003539457
0.003539454
0.003539425
0.003539431
0.003735309
0.003743502
0.003741992
0.003741129
0.003740301
0.003739482
0.00355178
0.003539794
0.00353924
0.003539115
0.003539111
0.003539115
0.003555557
0.003540177
0.003539184
0.003539261
0.003539131
0.003539139
0.003553368
0.003539747
0.003539199
0.003539194
0.003539153
0.003539145
0.003550962
0.003539529
0.00353919
0.003539195
0.003539156
0.003539162
0.003550921
0.003539494
0.003539196
0.003539187
0.003539168
0.003539169
0.003550965
0.003539496
0.003539206
0.003539202
0.003539177
0.003539182
0.003551037
0.003539504
0.003539218
0.003539217
0.003539191
0.003539197
0.003551115
0.003539508
0.003539231
0.003539229
0.003539206
0.003539209
0.003551155
0.003539532
0.003539248
0.003539245
0.003539221
0.003539223
0.003551329
0.003539522
0.00353926
0.003539257
0.003539235
0.003539235
0.003551476
0.003539533
0.003539272
0.003539266
0.003539247
0.003539248
0.00355185
0.003539567
0.003539289
0.003539287
0.003539262
0.003539264
0.003552417
0.003539616
0.003539306
0.003539317
0.003539276
0.00353928
0.003553151
0.003539636
0.003539322
0.003539337
0.003539291
0.003539295
0.003553493
0.003539649
0.003539337
0.003539346
0.003539305
0.003539309
0.003553704
0.003539662
0.003539351
0.003539362
0.003539319
0.003539323
0.003553852
0.003539677
0.003539366
0.003539375
0.003539333
0.003539338
0.003553996
0.003539686
0.003539381
0.003539386
0.003539348
0.003539352
0.003554123
0.003539695
0.003539396
0.003539398
0.003539364
0.003539367
0.003554296
0.003539705
0.003539411
0.00353941
0.003539379
0.003539382
0.003554575
0.003539715
0.003539427
0.003539423
0.003539394
0.003539398
0.003554711
0.003539725
0.003539442
0.003539437
0.003539409
0.003539414
0.003554971
0.003539737
0.003539458
0.003539454
0.003539425
0.003539431
0.003735987
0.003743524
0.003741909
0.003741111
0.003740282
0.003739476
0.003550774
0.003539878
0.003539248
0.003539113
0.003539115
0.003539119
0.003557464
0.003540154
0.003539179
0.003539273
0.003539131
0.003539137
0.003552063
0.003539807
0.003539186
0.003539174
0.003539144
0.003539142
0.003551082
0.003539602
0.003539185
0.003539183
0.003539157
0.003539156
0.00355107
0.003539556
0.003539195
0.00353918
0.003539168
0.003539168
0.00355103
0.003539533
0.00353921
0.003539191
0.00353918
0.003539177
0.003551342
0.003539518
0.003539222
0.003539205
0.003539195
0.003539193
0.003551175
0.00353953
0.003539234
0.003539219
0.003539209
0.003539206
0.003551245
0.003539547
0.00353925
0.003539236
0.003539223
0.00353922
0.003551428
0.003539558
0.003539262
0.003539246
0.003539236
0.003539232
0.003551652
0.003539584
0.003539276
0.003539262
0.00353925
0.003539246
0.003551992
0.003539588
0.00353929
0.003539278
0.003539264
0.003539261
0.003552275
0.003539581
0.003539304
0.003539288
0.003539278
0.003539274
0.003552603
0.003539587
0.003539318
0.0035393
0.003539292
0.003539288
0.003552952
0.0035396
0.003539334
0.003539315
0.003539306
0.003539303
0.003553187
0.003539614
0.00353935
0.003539329
0.00353932
0.003539318
0.003553387
0.003539629
0.003539366
0.003539343
0.003539335
0.003539332
0.00355356
0.003539644
0.003539382
0.003539359
0.00353935
0.003539347
0.003553785
0.003539659
0.003539399
0.003539376
0.003539366
0.003539362
0.003554027
0.003539677
0.003539416
0.003539394
0.003539383
0.003539379
0.003554224
0.003539694
0.003539433
0.003539411
0.003539399
0.003539395
0.003554518
0.00353971
0.003539449
0.003539427
0.003539414
0.003539411
0.003554871
0.003539727
0.003539467
0.003539442
0.00353943
0.003539428
0.003736147
0.003743358
0.003741809
0.003741286
0.003740356
0.003739568
0.00355239
0.003540055
0.003539267
0.003539147
0.003539126
0.003539126
0.003555089
0.003539779
0.003539264
0.003539217
0.003539133
0.003539136
0.003554896
0.003539779
0.003539226
0.003539183
0.003539141
0.003539142
0.003551644
0.003539836
0.003539213
0.003539231
0.003539154
0.003539163
0.00355132
0.003539758
0.003539225
0.003539236
0.003539169
0.003539173
0.003551347
0.003539689
0.003539238
0.003539249
0.003539183
0.003539188
0.00355134
0.00353962
0.003539252
0.00353925
0.003539197
0.0035392
0.00355119
0.003539573
0.003539263
0.003539244
0.00353921
0.003539212
0.003551212
0.003539569
0.003539273
0.003539252
0.003539223
0.003539224
0.003551387
0.003539571
0.003539285
0.003539261
0.003539236
0.003539237
0.003551589
0.003539566
0.003539299
0.003539271
0.003539249
0.00353925
0.003551813
0.003539571
0.003539314
0.003539286
0.003539263
0.003539264
0.003552193
0.003539582
0.00353933
0.003539305
0.003539277
0.003539279
0.003552455
0.003539599
0.003539347
0.003539327
0.003539293
0.003539294
0.003552722
0.003539615
0.003539364
0.003539344
0.003539308
0.003539309
0.003552919
0.003539631
0.00353938
0.003539361
0.003539323
0.003539324
0.003553108
0.003539646
0.003539397
0.003539376
0.003539337
0.003539339
0.003553282
0.003539661
0.003539413
0.003539389
0.003539353
0.003539354
0.003553477
0.003539676
0.003539431
0.003539403
0.003539368
0.00353937
0.003553703
0.003539693
0.003539449
0.003539419
0.003539383
0.003539386
0.003553954
0.00353971
0.003539468
0.003539436
0.003539399
0.003539402
0.003554246
0.003539726
0.003539486
0.003539453
0.003539415
0.003539419
0.003554598
0.003539744
0.003539504
0.00353947
0.003539432
0.003539436
0.003736476
0.003743449
0.003741568
0.00374116
0.003740166
0.003739397
0.003557044
0.003540814
0.003539263
0.003539202
0.003539149
0.003539148
0.003553823
0.003539784
0.003539272
0.003539175
0.003539142
0.003539145
0.00355351
0.003539682
0.00353927
0.003539168
0.003539152
0.003539154
0.003552895
0.003539767
0.003539273
0.003539177
0.003539164
0.003539164
0.003552398
0.003539877
0.003539275
0.003539192
0.003539177
0.003539177
0.003552178
0.003539901
0.003539275
0.003539207
0.003539192
0.003539191
0.003552008
0.003539803
0.003539274
0.003539221
0.003539206
0.003539206
0.003551718
0.003539719
0.003539279
0.003539235
0.003539222
0.003539221
0.003551548
0.003539653
0.003539291
0.003539247
0.003539237
0.003539236
0.003551644
0.003539633
0.003539304
0.00353926
0.003539251
0.003539249
0.003551645
0.003539628
0.003539318
0.003539274
0.003539266
0.003539264
0.003551741
0.003539634
0.003539332
0.003539288
0.00353928
0.003539278
0.00355187
0.003539638
0.003539347
0.003539303
0.003539295
0.003539292
0.003552163
0.003539648
0.003539363
0.003539318
0.003539309
0.003539307
0.003552358
0.003539661
0.00353938
0.003539333
0.003539324
0.003539321
0.003552505
0.003539676
0.003539396
0.003539348
0.003539339
0.003539336
0.003552692
0.003539694
0.003539412
0.003539364
0.003539354
0.003539351
0.003552868
0.003539712
0.003539429
0.003539379
0.003539369
0.003539366
0.003553033
0.003539732
0.003539446
0.003539395
0.003539385
0.003539382
0.003553223
0.003539752
0.003539464
0.003539412
0.0035394
0.003539398
0.00355344
0.003539778
0.003539482
0.003539428
0.003539416
0.003539413
0.003553714
0.003539808
0.003539501
0.003539445
0.003539432
0.00353943
0.003553475
0.003539841
0.003539521
0.003539462
0.003539448
0.003539446
0.003748588
0.003760019
0.003755159
0.003753341
0.003749882
0.003746943
0.003589203
0.003541767
0.003541244
0.003540776
0.003540865
0.003540748
0.003540708
0.003640407
0.003543097
0.003541153
0.003540612
0.003540754
0.003540623
0.003540596
0.003608683
0.003543488
0.003541286
0.003540666
0.003540807
0.003540659
0.003540628
0.003596025
0.003543433
0.003541333
0.003540709
0.003540845
0.003540697
0.003540666
0.003587412
0.003543287
0.003541379
0.003540753
0.003540894
0.003540747
0.003540712
0.003582189
0.003543163
0.003541411
0.003540808
0.003540931
0.003540788
0.003540754
0.003580975
0.003543002
0.003541429
0.003540864
0.003540969
0.003540832
0.003540796
0.003583599
0.003542856
0.003541448
0.003540919
0.003541006
0.003540873
0.003540835
0.003584219
0.003542798
0.003541477
0.003540974
0.003541045
0.003540915
0.003540876
0.003584906
0.003542823
0.00354152
0.003541026
0.003541088
0.003540959
0.00354092
0.003587099
0.003542818
0.003541575
0.003541076
0.003541134
0.003541006
0.003540966
0.003589345
0.003542802
0.003541629
0.003541124
0.003541181
0.003541052
0.003541012
0.003591721
0.003542799
0.003541681
0.003541173
0.00354123
0.003541099
0.003541059
0.003594397
0.003542841
0.003541738
0.003541222
0.003541279
0.003541147
0.003541107
0.00359727
0.003542894
0.003541794
0.003541272
0.00354133
0.003541196
0.003541155
0.003600052
0.003542923
0.003541851
0.003541323
0.00354138
0.003541245
0.003541203
0.003602967
0.00354296
0.003541909
0.003541373
0.003541431
0.003541294
0.003541251
0.00360625
0.003543011
0.003541967
0.003541424
0.003541483
0.003541344
0.003541299
0.00360995
0.003543061
0.003542027
0.003541475
0.003541535
0.003541393
0.003541348
0.003613887
0.003543106
0.003542088
0.003541525
0.003541588
0.003541442
0.003541396
0.003618103
0.003543163
0.003542151
0.003541576
0.003541641
0.003541492
0.003541445
0.003622829
0.003543228
0.003542214
0.003541626
0.003541693
0.003541541
0.003541492
0.003628013
0.003741759
0.003542275
0.003541676
0.003541743
0.003541587
0.00354154
0.003745961
0.003754975
0.003581827
0.003545892
0.003742184
0.003741954
0.003588969
0.003549604
0.003658686
0.003554587
0.00374316
0.003739503
0.003640391
0.003554071
0.00357512
0.003554845
0.003743007
0.003739329
0.003608618
0.003552988
0.00357578
0.003553253
0.003742694
0.003739087
0.003595942
0.003551315
0.003576909
0.003551911
0.003742919
0.0037391
0.003587322
0.003550135
0.003579147
0.003550421
0.003743468
0.003739262
0.003582089
0.003548959
0.003582171
0.003549334
0.003743839
0.003739398
0.003580876
0.003548182
0.003586776
0.003548508
0.00374436
0.003739661
0.003583532
0.003547209
0.003591879
0.003547039
0.003745044
0.003740002
0.003584148
0.003546225
0.003594301
0.003546219
0.003745901
0.003740407
0.003584827
0.003545573
0.003597233
0.003545674
0.003746799
0.003740883
0.003587013
0.003544954
0.003600415
0.003545449
0.003747649
0.0037414
0.003589256
0.003544352
0.003603746
0.003545292
0.003748505
0.003741969
0.003591624
0.003544041
0.003607101
0.003545119
0.003749442
0.003742598
0.003594298
0.003543751
0.003610322
0.003545005
0.00375046
0.003743252
0.003597157
0.003543517
0.003613829
0.003544963
0.003751465
0.003743955
0.003599941
0.003543382
0.003617469
0.003544946
0.003752476
0.003744732
0.00360284
0.003543226
0.003621256
0.003544941
0.003753519
0.003745597
0.003606127
0.003543065
0.003625288
0.003544925
0.003754607
0.003746528
0.003609818
0.003542926
0.003629575
0.003544899
0.003755739
0.003747531
0.003613762
0.003542841
0.003634187
0.003544859
0.003756929
0.003748602
0.003617968
0.003542757
0.003638918
0.003544794
0.003758184
0.003749742
0.003622698
0.00354268
0.003643839
0.003544735
0.003759491
0.003546447
0.003627883
0.003542632
0.003648793
0.003544669
0.00374133
0.003584554
0.003546939
0.003742468
0.003640561
0.003552273
0.00374388
0.003577332
0.003549428
0.00374202
0.003636741
0.003549784
0.003739931
0.003574593
0.003549203
0.003740811
0.003615023
0.003548466
0.003738771
0.003575849
0.00354805
0.003740224
0.003581546
0.003548999
0.00373936
0.003624025
0.003550455
0.003740666
0.003574584
0.003548468
0.003740952
0.00362043
0.003548506
0.003740963
0.003574655
0.003549055
0.003741825
0.003636892
0.003549508
0.003743708
0.003576926
0.003549299
0.00374286
0.003640293
0.003552303
0.003741234
0.003585041
0.003546844
0.003755167
0.003581757
0.003545862
0.003746002
0.003756398
0.00353987
0.003540342
0.003745525
0.003747233
0.003753613
0.003540207
0.003539835
0.00374969
0.003744941
0.003751962
0.003539865
0.003539838
0.003746786
0.003743685
0.00374884
0.003539871
0.003539763
0.003745162
0.003741594
0.003746068
0.003539809
0.003539743
0.003743051
0.003739796
0.003539775
0.003741148
0.003549606
0.003658695
0.003554596
0.003742186
0.003741954
0.003554074
0.003575131
0.003554847
0.003743164
0.003739502
0.003552984
0.003575786
0.003553251
0.003743006
0.003739328
0.003551312
0.003576916
0.003551911
0.003742693
0.003739087
0.003550133
0.003579152
0.003550421
0.003742917
0.003739099
0.003548954
0.003582174
0.003549334
0.003743465
0.003739262
0.003547294
0.003591862
0.003547045
0.003744373
0.003739658
0.003546228
0.003594297
0.00354622
0.003745044
0.003739998
0.003545577
0.003597232
0.003545676
0.003745903
0.003740401
0.003544961
0.003600406
0.003545449
0.003746799
0.003740878
0.00354435
0.003603746
0.003545295
0.003747649
0.003741396
0.003544042
0.003607095
0.003545121
0.003748506
0.003741965
0.003543746
0.003610322
0.003545007
0.003749443
0.003742595
0.003543516
0.003613831
0.003544964
0.003750462
0.003743249
0.003543379
0.003617475
0.003544948
0.003751467
0.003743953
0.003543224
0.003621263
0.003544942
0.003752479
0.003744729
0.003543061
0.003625302
0.003544926
0.003753521
0.003745593
0.003542924
0.003629589
0.003544901
0.003754612
0.003746523
0.003542836
0.003634218
0.00354486
0.003755743
0.003747529
0.003542758
0.003638948
0.003544795
0.003756936
0.003748602
0.00354268
0.003643888
0.003544736
0.003758192
0.003749746
0.003542633
0.003648844
0.003544683
0.003759504
0.003546445
0.003564382
0.003751662
0.003745511
0.003747232
0.003748449
0.003756402
0.003539872
0.003540343
0.00374969
0.00374494
0.003760052
0.00375367
0.003540208
0.003539834
0.00374679
0.003743687
0.003755182
0.003751967
0.003539866
0.003539838
0.003745165
0.003741598
0.003753356
0.003748843
0.003539872
0.003539763
0.003743054
0.003739799
0.003749879
0.003746071
0.00353981
0.003539743
0.00374115
0.003746927
0.003539776
0.003556939
0.003736741
0.003547923
0.003729903
0.00354973
0.003740071
0.003552156
0.003739402
0.003549194
0.003742777
0.003547798
0.003740885
0.003548467
0.003748098
0.003546734
0.003743026
0.003547619
0.003752531
0.003546027
0.003744839
0.003543655
0.003755809
0.003546112
0.00374606
0.003543552
0.003757303
0.003546526
0.003746226
0.003543416
0.003757871
0.00354656
0.00374508
0.00354325
0.003758841
0.003545822
0.00374395
0.003543416
0.003760512
0.003544586
0.00374353
0.003543678
0.00376189
0.003544097
0.003743764
0.003543749
0.003763088
0.003544028
0.003744488
0.003543785
0.003764345
0.003544133
0.003745432
0.003543786
0.003765601
0.003544267
0.003746795
0.00354387
0.00376689
0.003544507
0.003748276
0.003544138
0.003768123
0.003544981
0.003750014
0.00354465
0.003769288
0.003545678
0.003752202
0.003545275
0.003770459
0.003546507
0.003754478
0.003545973
0.003771715
0.003547417
0.003756912
0.003546718
0.003773283
0.0035484
0.003759421
0.003547458
0.003775274
0.003549446
0.003762021
0.00354824
0.003777661
0.003550507
0.003764792
0.003549092
0.003780352
0.003551623
0.003767694
0.003564674
0.003555856
0.003577186
0.003580319
0.003589043
0.00358676
0.003593337
0.003582919
0.003589945
0.003584905
0.003594033
0.00358733
0.003593005
0.003584887
0.003572405
0.003568684
0.003552149
0.003572523
0.003548176
0.003586772
0.003548514
0.003743842
0.003739399
0.003554432
0.003762597
0.003547813
0.003743411
0.003546963
0.003728047
0.003558824
0.003724962
0.003551785
0.003570876
0.003562678
0.00373716
0.003550731
0.003727108
0.003548966
0.003740274
0.003548966
0.003743372
0.003547364
0.003741648
0.003548859
0.003746424
0.003546197
0.003743847
0.00354862
0.003750258
0.003545751
0.003745601
0.00354532
0.003755256
0.003545973
0.00374624
0.003543528
0.003757508
0.003546506
0.003745037
0.003543468
0.003758216
0.00354631
0.003743928
0.00354328
0.003758725
0.00354531
0.003743415
0.003544642
0.003759891
0.003544198
0.003743097
0.003544033
0.003761657
0.00354404
0.003743618
0.003543939
0.003762905
0.003544078
0.003744386
0.003543877
0.003764059
0.003544164
0.003745593
0.003543872
0.00376514
0.003544183
0.003746918
0.003543922
0.003766252
0.00354426
0.003748618
0.003544262
0.003767291
0.00354462
0.003750476
0.003544803
0.003768186
0.00354509
0.003752648
0.003545454
0.003769152
0.00354566
0.003755032
0.003546151
0.003770212
0.003546388
0.003757602
0.003546893
0.00377146
0.00354721
0.003760221
0.003547636
0.00377297
0.003548049
0.003762958
0.003548355
0.003774889
0.003548937
0.003765855
0.003549095
0.003777183
0.00354991
0.003768863
0.003670316
0.003779702
0.003549763
0.00357278
0.00356721
0.003587585
0.003584354
0.003594343
0.00359294
0.00358548
0.003588013
0.003593534
0.003593112
0.003586013
0.003591293
0.003575969
0.003582543
0.003564989
0.00355701
0.003564285
0.003753929
0.003554232
0.003762665
0.003547807
0.003744677
0.003547104
0.003728609
0.003559069
0.003725092
0.003543064
0.003766572
0.003542754
0.003758566
0.003542582
0.003761112
0.003542703
0.003762638
0.003542695
0.003767911
0.003542395
0.003759043
0.003542581
0.003757874
0.003541945
0.00376293
0.003542587
0.003763411
0.003542368
0.003754997
0.003542455
0.003754185
0.003541861
0.003758776
0.003542484
0.003759648
0.003542293
0.003751108
0.003542362
0.003749993
0.003541747
0.00375463
0.003542371
0.003755039
0.003542192
0.003746848
0.003542313
0.003750797
0.003542853
0.00355693
0.003736748
0.003547935
0.003729928
0.003562672
0.003737149
0.003550737
0.003727145
0.003549732
0.003740052
0.003552092
0.003739391
0.003548964
0.00374027
0.003548972
0.003743365
0.003549193
0.00374276
0.003547739
0.003740884
0.003547361
0.00374165
0.003548869
0.003746427
0.003548467
0.003748093
0.003546653
0.003743025
0.003546198
0.003743846
0.003548632
0.003750266
0.003547621
0.003752528
0.003545929
0.003744836
0.003545751
0.003745598
0.00354533
0.003755258
0.003543657
0.003755803
0.003545988
0.003746056
0.003545973
0.003746234
0.003543533
0.003757508
0.003543418
0.003757876
0.003546557
0.003745085
0.00354631
0.003743936
0.003543283
0.003758736
0.003543246
0.003758837
0.003545614
0.003743954
0.003545312
0.003743413
0.003544652
0.003759897
0.00354341
0.003760507
0.00354435
0.003743536
0.003544202
0.003743102
0.00354404
0.003761661
0.003543674
0.003761881
0.003543841
0.003743766
0.003544043
0.003743606
0.003543943
0.003762903
0.003543743
0.003763073
0.003543744
0.00374449
0.003544079
0.003744386
0.003543881
0.003764065
0.003543778
0.00376434
0.003543827
0.003745429
0.003544166
0.00374558
0.003543873
0.003765141
0.003543778
0.003765595
0.003543935
0.003746799
0.003544184
0.00374692
0.003543926
0.003766259
0.003543861
0.003766897
0.003544157
0.003748279
0.003544262
0.003748612
0.003544265
0.003767292
0.003544994
0.00375048
0.003544816
0.003768178
0.003544638
0.003769315
0.00354529
0.003752204
0.003545094
0.003752648
0.003545458
0.003769155
0.003545262
0.003770486
0.003546099
0.003754483
0.003545663
0.003755029
0.003546155
0.003770231
0.00354596
0.003771776
0.003546993
0.003756908
0.003546392
0.003757597
0.003546898
0.003771464
0.003546703
0.00377333
0.003547955
0.003759424
0.003547213
0.00376022
0.003547644
0.003772975
0.003547443
0.003775353
0.003548985
0.003762028
0.003548054
0.003762966
0.003548359
0.003774902
0.003548219
0.003777757
0.003550025
0.00376481
0.003548942
0.003765877
0.003549102
0.003777204
0.003549073
0.003780481
0.003551123
0.003767723
0.003549916
0.00355923
0.003779729
0.003549826
0.003702842
0.003748235
0.003766504
0.003542759
0.003542252
0.003758541
0.003542748
0.003767835
0.003543226
0.003759051
0.003542639
0.003763373
0.00354318
0.003755009
0.003542534
0.00375964
0.00354309
0.003751116
0.003542419
0.003755062
0.003542968
0.003746854
0.003542313
0.003750795
0.003542854
0.003742731
0.003631621
0.003717385
0.003638215
0.003692211
0.003639577
0.003728009
0.00365082
0.003699924
0.00363251
0.0037363
0.0036243
0.003710977
0.003627639
0.003742341
0.003599892
0.003720949
0.003616679
0.00374662
0.003592281
0.003728553
0.003605312
0.003747645
0.003591473
0.003732681
0.003598759
0.00374784
0.003593021
0.003735916
0.003596158
0.00374808
0.003594796
0.003738698
0.003596952
0.003748704
0.003597804
0.003741035
0.003599711
0.003749305
0.003601257
0.003742838
0.003603366
0.003749685
0.00360519
0.003743727
0.003607045
0.003750144
0.003609667
0.003744653
0.003610827
0.003750606
0.00361452
0.003745569
0.003614867
0.003751085
0.003619681
0.00374642
0.003619338
0.003751522
0.003625501
0.003747344
0.00362435
0.003751838
0.003631946
0.00374797
0.003629852
0.003752158
0.003637802
0.003748416
0.00363528
0.003752486
0.003643653
0.003748853
0.00364059
0.003752854
0.003649743
0.003749272
0.003646038
0.003753257
0.003656109
0.003749699
0.003651404
0.003753698
0.003662618
0.003750158
0.003657082
0.003754174
0.003669542
0.003750653
0.003663099
0.0037547
0.003677043
0.003751174
0.003749989
0.003733216
0.003749693
0.003729598
0.003751973
0.003751366
0.00374426
0.00376149
0.003753035
0.003732095
0.003758165
0.003747288
0.00375128
0.003727053
0.00372922
0.003750375
0.003756996
0.003755059
0.003747628
0.00374683
0.003748002
0.003745413
0.003672753
0.003710163
0.003637314
0.003721408
0.003755058
0.003738994
0.003659204
0.003699627
0.003641763
0.00372255
0.00363524
0.003707906
0.003632758
0.003731577
0.003610619
0.003718756
0.003627258
0.003740695
0.003591882
0.003726887
0.003618049
0.003745887
0.003588245
0.003731797
0.003607174
0.003748422
0.003589929
0.003734989
0.003599907
0.003748431
0.003592077
0.003737859
0.003598202
0.003748253
0.003594359
0.003740142
0.003599684
0.003748538
0.003596915
0.003742374
0.003601974
0.003749181
0.003600225
0.003743234
0.003605613