/*--------------------------------*- C++ -*----------------------------------*\
  =========                 |
  \\      /  F ield         | OpenFOAM: The Open Source CFD Toolbox
   \\    /   O peration     | Website:  https://openfoam.org
    \\  /    A nd           | Version:  7
     \\/     M anipulation  |
\*---------------------------------------------------------------------------*/
FoamFile
{
    version     2.0;
    format      ascii;
    class       volScalarField;
    location    "0.06";
    object      p;
}
// * * * * * * * * * * * * * * * * * * * * * * * * * * * * * * * * * * * * * //

dimensions      [0 2 -2 0 0 0 0];

internalField   nonuniform List<scalar> 
89125
(
0.06218776
0.09550544
0.1043594
0.1104388
0.1128158
0.1033529
0.1110813
0.1207423
0.04765318
-0.01789347
0.02205707
0.006018171
0.03742346
0.02742153
0.0624344
0.03824209
0.0612821
0.04355662
-0.02051597
-0.007605224
-0.01024659
-0.03289534
-0.01384414
-0.039826
-0.03281372
-0.03864916
-0.01633433
0.05435197
0.0320555
-0.00966393
0.02559794
0.008240734
0.02481791
0.03143911
0.00266804
0.03219552
0.01595445
0.05521433
0.01365149
0.0100467
0.02414267
0.01500946
0.02420627
0.03770666
0.009796512
0.04200809
0.02142319
0.05454521
0.01866788
-0.005108197
0.001195027
-0.01155136
-0.01333975
-0.01262478
-0.02986815
-0.0168315
-0.03239902
0.05929881
0.009160901
0.02943497
0.04427239
0.04958117
0.0649417
0.08035346
0.07490494
0.08746767
0.07893067
0.06964727
0.04404271
0.01873061
0.00913277
-0.0144759
-0.027578
-0.06061283
-0.06946436
-0.1115208
-0.09031172
0.05899896
-0.05912823
-0.005144297
0.0218099
-0.003196491
0.06089191
0.05839912
0.1027456
0.1175785
0.1113757
0.09998032
0.1669289
0.1554691
0.1181135
0.0974544
0.0768436
0.0486657
0.07017162
0.002637592
-0.02318769
0.09467921
0.01910258
0.02848794
-0.001381143
-0.01845568
-0.02823679
-0.02191824
0.0272761
0.03270578
0.04425655
0.1228119
0.1813352
0.2728348
0.1302118
0.1963146
0.1300785
0.1476894
0.08811348
0.1339666
0.001948286
0.001948278
0.001948268
0.00194826
0.001948253
0.001948248
0.001948246
0.001948248
0.001948255
0.001948279
0.001948274
0.001948276
0.001948278
0.00194828
0.00194828
0.001948283
0.001948278
0.001948276
0.001948294
0.001948284
0.001948281
0.001948271
0.001948265
0.001948257
0.001948254
0.001948252
0.001948253
0.00194827
0.001948271
0.001948267
0.001948267
0.001948269
0.001948265
0.001948267
0.001948262
0.001948261
0.001948285
0.001948277
0.001948276
0.001948271
0.001948268
0.001948262
0.00194826
0.001948255
0.001948254
0.001948267
0.001948265
0.001948261
0.001948259
0.001948258
0.001948254
0.001948252
0.001948248
0.001948246
0.001948268
0.001948267
0.001948261
0.001948261
0.001948256
0.001948252
0.001948249
0.001948244
0.00194824
0.001948259
0.00194826
0.001948253
0.001948252
0.001948247
0.001948243
0.001948239
0.001948234
0.00194823
0.05387887
0.08991408
0.08997716
0.1103944
0.1287658
0.1346071
0.1336418
0.133198
0.1403671
0.06382602
0.06605996
-0.01625148
-0.009851175
-0.02383705
-0.02152581
0.01432934
-0.02406967
-0.006634989
-0.03095263
0.02806737
-0.02068395
0.02532779
0.02682757
0.04067129
0.01489767
0.05839652
0.04275967
0.05369528
0.02778581
-0.007843375
0.01486408
-0.009210381
0.00134919
-0.002515117
-0.008817634
-0.006489306
-0.01450338
-0.0123214
-0.0227349
0.01914559
0.009676929
0.02188115
0.02474355
0.02627908
0.02864668
0.03298317
0.02460377
0.02425982
0.01898212
-0.001443191
0.005271999
-0.01445102
-0.01159086
-0.03254862
-0.03031631
-0.04093629
-0.04187972
-0.05048138
-0.05441385
-0.000204958
-0.003631714
0.004129591
0.03137034
0.01423126
0.04585175
0.006836205
0.06840354
0.01315776
0.06853083
0.02599078
0.0004397682
-0.02228265
-0.0413985
-0.07043067
-0.07425037
-0.1122991
-0.09591512
-0.1327639
-0.09172382
-0.05969819
-0.0867356
-0.05952071
-0.001866615
-0.05600656
0.0296086
-0.04516012
0.07454865
-0.03552383
0.1007099
0.1541106
-0.128176
-0.03830849
-0.1525469
-0.1262538
-0.1218087
-0.1608992
-0.1682317
-0.1568321
-0.1159008
0.03122236
-0.08161211
-0.0786069
-0.1543251
-0.1846897
-0.207068
-0.1986842
-0.1222961
0.005307711
0.05925586
0.001948286
0.001948281
0.001948269
0.001948258
0.001948237
0.001948229
0.001948214
0.001948205
0.001948195
0.001948203
0.001948285
0.001948286
0.0019483
0.001948304
0.001948319
0.001948322
0.001948333
0.001948336
0.001948339
0.001948327
0.001948278
0.001948286
0.00194828
0.001948276
0.001948268
0.001948263
0.001948257
0.001948255
0.001948252
0.001948248
0.001948258
0.001948273
0.001948275
0.001948276
0.001948272
0.001948275
0.001948269
0.001948273
0.001948267
0.001948266
0.001948253
0.001948281
0.001948276
0.001948275
0.001948269
0.001948268
0.001948261
0.00194826
0.001948255
0.001948254
0.001948248
0.001948266
0.001948266
0.001948262
0.00194826
0.001948259
0.001948255
0.001948254
0.001948249
0.001948247
0.001948233
0.001948267
0.001948265
0.001948263
0.001948259
0.001948256
0.001948252
0.001948249
0.001948244
0.00194824
0.001948227
0.001948259
0.001948258
0.001948254
0.001948252
0.001948248
0.001948244
0.00194824
0.001948234
0.00194823
0.03860337
0.001184712
-0.01002271
-0.01643007
-0.01667355
-0.01739724
-0.01355817
-0.01854247
-0.0160241
0.05449552
0.06829574
0.001525714
0.05025678
0.03378164
0.04984263
0.04929122
0.05194859
0.05649211
0.05904338
-0.01405085
-0.01568751
-0.002679522
-0.01208267
-0.009950019
-0.008835646
0.01078211
-0.009348902
0.02686599
0.003940954
0.006067969
0.02921484
-0.006979364
0.01546043
0.004782008
0.004989918
0.02498487
-0.004490709
0.03411627
0.00510638
0.006389504
0.01287011
0.01848715
0.02429981
0.02472016
0.01705731
0.05371291
0.005751981
0.06360564
0.03630545
-0.002022761
0.002929114
-0.01016779
-0.01465376
-0.01645048
-0.02540239
-0.007494667
-0.05042575
-0.01638955
-0.06832616
0.05286546
0.01488697
0.1155719
0.1153263
0.1591115
0.1640905
0.1682133
0.1496411
0.1633467
0.1106875
0.03058336
-0.007043595
-0.03429565
-0.06347328
-0.09248356
-0.1305036
-0.1425451
-0.1864217
-0.1829188
-0.2377551
0.03379179
-0.04166438
0.2217118
0.1932171
0.2813589
0.2704037
0.334879
0.3407843
0.3714285
0.3247062
0.1681757
-0.03561984
0.04587331
-0.06900518
-0.06080745
-0.1146833
-0.1222255
-0.2808348
-0.1601916
-0.5120715
0.06596351
-0.03233007
0.4239346
0.3051346
0.3849363
0.3589986
0.4192898
0.6350478
0.3559757
0.9271206
0.001948285
0.001948289
0.001948296
0.001948296
0.0019483
0.001948299
0.001948302
0.001948303
0.001948304
0.0019483
0.001948277
0.001948275
0.001948272
0.001948274
0.001948271
0.001948273
0.00194827
0.001948269
0.001948266
0.001948263
0.001948294
0.001948292
0.001948289
0.001948288
0.001948283
0.001948284
0.001948278
0.001948279
0.001948276
0.001948275
0.001948269
0.001948268
0.001948268
0.001948267
0.001948266
0.001948268
0.001948264
0.001948265
0.001948261
0.001948259
0.001948279
0.001948281
0.001948278
0.001948276
0.001948272
0.001948271
0.001948265
0.001948265
0.001948259
0.001948258
0.001948263
0.001948263
0.001948263
0.001948261
0.00194826
0.001948259
0.001948255
0.001948253
0.001948249
0.001948246
0.001948255
0.001948262
0.001948263
0.001948261
0.001948259
0.001948256
0.001948252
0.001948249
0.001948244
0.00194824
0.001948249
0.001948255
0.001948255
0.001948252
0.001948251
0.001948248
0.001948244
0.00194824
0.001948234
0.00194823
0.04397271
0.02290177
0.01154394
0.01526273
0.01186338
0.01384619
0.01411122
0.0136599
0.009028436
0.05407879
0.08143904
-0.01243467
0.002600097
-0.01027705
-0.007548284
-0.005283941
-0.0139616
-0.002913157
-0.0146571
-0.005766751
-0.02752073
0.02941565
0.01319422
0.02850268
0.007976593
0.03209483
0.0008166835
0.02793588
0.002654831
-0.01725893
0.03243747
-0.008268836
0.01028398
-0.00853767
-0.01136621
-0.001242563
-0.01998683
-0.00639672
-0.02799469
0.03607953
0.0261447
0.03545781
0.02921187
0.03369653
0.03335716
0.05377253
0.03706067
0.05770875
0.03001398
6.109331e-05
-0.0004280882
-0.0220299
-0.03172856
-0.03843277
-0.04012971
-0.03189825
-0.05409156
-0.03568473
-0.08071177
0.05341143
0.03569037
0.1185462
0.1064316
0.1715005
0.1609297
0.1782356
0.1587087
0.1693859
0.1234997
0.01663048
-0.02908938
-0.05050988
-0.09476151
-0.1156752
-0.1538157
-0.1771648
-0.2152585
-0.2112014
-0.2510566
0.01656061
-0.01122756
0.1914822
0.1585733
0.2839319
0.2348847
0.3122154
0.27378
0.3291316
0.2711778
0.09113263
-0.1325168
-0.04947755
-0.2164565
-0.2020715
-0.2522113
-0.2923275
-0.3301249
-0.3026965
-0.4014313
0.05876045
-0.04181723
0.2776989
0.2054099
0.2492419
0.20802
0.1901877
0.2224343
0.1921535
0.1735268
0.001948285
0.001948286
0.001948278
0.001948277
0.001948271
0.001948266
0.001948261
0.001948259
0.001948257
0.001948253
0.001948278
0.001948276
0.001948275
0.001948283
0.001948277
0.001948285
0.001948278
0.001948284
0.001948279
0.001948279
0.00194829
0.001948288
0.001948284
0.001948281
0.001948275
0.001948274
0.001948267
0.001948268
0.001948262
0.001948262
0.001948272
0.001948269
0.001948268
0.001948272
0.001948267
0.001948271
0.001948265
0.001948268
0.001948262
0.001948263
0.001948284
0.001948281
0.001948278
0.001948276
0.001948271
0.00194827
0.001948264
0.001948263
0.001948258
0.001948256
0.001948266
0.001948263
0.001948262
0.001948262
0.00194826
0.001948259
0.001948255
0.001948254
0.001948249
0.001948247
0.001948272
0.001948266
0.001948265
0.001948262
0.001948259
0.001948256
0.001948252
0.001948249
0.001948244
0.00194824
0.001948262
0.001948257
0.001948256
0.001948253
0.001948251
0.001948248
0.001948244
0.00194824
0.001948235
0.00194823
0.04231103
0.008982764
0.001334653
-0.0004490228
-0.001319096
0.002412229
-0.0005577456
-0.000381819
-0.003303304
0.06275426
0.07683383
-0.004407543
0.05123106
0.001332263
0.0347457
0.0250178
0.02176903
0.02784346
0.01536802
-0.005886441
-0.01061483
0.01055257
0.0007040591
0.004606924
0.006031958
0.0209783
0.001967126
0.02707756
0.004308124
0.00096336
0.02749251
-0.01191341
0.01429676
-0.001997033
-0.001266369
0.01403355
-0.01521783
0.02070213
-0.0227227
0.02191343
0.01696234
0.02831698
0.02196442
0.04436334
0.0179666
0.06576981
0.008752188
0.0699075
0.01752309
-0.01572321
-0.009665967
-0.0202129
-0.03353438
-0.01143991
-0.03839389
-0.009287912
-0.07361424
-0.0352983
-0.1021264
0.06575378
0.02478273
0.1601406
0.1625949
0.2048526
0.2122397
0.1963461
0.162995
0.1539935
0.132849
0.0004706499
-0.03930098
-0.07206808
-0.1071302
-0.1505007
-0.1757637
-0.213394
-0.2559968
-0.2563972
-0.2552647
0.01806015
-0.01216412
0.2561409
0.2906267
0.3455866
0.38782
0.4832525
0.5138524
0.5867276
0.6242344
0.1831537
-0.07275593
-0.05535736
-0.2113084
-0.2712246
-0.2279417
-0.5066113
-0.482187
-0.3298982
-0.9646388
0.06949512
-0.0311191
0.3384444
0.3188042
0.6303704
0.384726
0.8529242
0.7404954
0.4549386
1.352062
0.001948282
0.001948287
0.001948286
0.001948287
0.001948282
0.001948287
0.001948277
0.001948282
0.001948275
0.001948275
0.001948279
0.001948274
0.001948275
0.001948278
0.001948275
0.001948279
0.001948274
0.001948276
0.001948271
0.001948271
0.001948296
0.001948288
0.001948287
0.001948285
0.001948279
0.00194828
0.001948273
0.001948275
0.001948269
0.001948269
0.001948262
0.001948268
0.001948266
0.00194827
0.001948268
0.00194827
0.001948266
0.001948266
0.001948262
0.001948261
0.001948284
0.001948281
0.001948279
0.001948277
0.001948272
0.001948271
0.001948266
0.001948265
0.00194826
0.001948258
0.001948262
0.001948262
0.001948262
0.001948262
0.00194826
0.00194826
0.001948256
0.001948255
0.001948249
0.001948247
0.001948269
0.001948265
0.001948265
0.001948262
0.001948259
0.001948257
0.001948252
0.001948249
0.001948245
0.00194824
0.001948257
0.001948256
0.001948256
0.001948253
0.001948252
0.001948248
0.001948244
0.001948241
0.001948234
0.00194823
0.04298118
0.01999564
0.007147551
0.01190034
0.001123169
0.01089359
0.0008268318
0.008810264
0.001523393
0.04621267
0.08143315
-0.008649776
0.01199963
-0.004067335
-0.00254733
0.001727499
-0.00647211
0.007876769
-0.007996723
-0.004665485
-0.01554385
0.01970575
0.0103152
0.01620702
0.006675764
0.0227835
-0.0005073549
0.02448958
-0.0001539776
-0.01998885
0.04198089
-0.01514713
0.01526481
-0.0087027
-0.01014094
0.001942802
-0.01784574
0.007092594
-0.02592101
0.03908131
0.03350841
0.03445633
0.02568052
0.04233285
0.02436795
0.0603152
0.02333291
0.06601125
0.02170235
-0.007465001
-0.002071451
-0.0224389
-0.03756208
-0.02002303
-0.03503662
-0.02551413
-0.06673586
-0.04139777
-0.09995604
0.07522193
0.04393384
0.1471749
0.148765
0.201857
0.2101895
0.1835857
0.1580561
0.1516055
0.1359251
0.02236618
-0.03199047
-0.0666509
-0.1117951
-0.152201
-0.179477
-0.2176141
-0.2521916
-0.246176
-0.2387837
0.05683831
0.02458273
0.2327613
0.2625735
0.3249373
0.3855244
0.4911182
0.5311422
0.6015659
0.6478541
0.1275551
-0.1045726
-0.04462019
-0.227549
-0.2748122
-0.2318779
-0.5076122
-0.4025084
-0.3513815
-0.9303898
0.04131218
-0.1551026
0.349975
0.3605727
0.6204722
0.3833358
0.8486766
0.5952266
0.4820332
1.263875
0.001948278
0.001948285
0.001948289
0.001948285
0.001948283
0.001948286
0.001948277
0.001948281
0.001948275
0.001948275
0.001948274
0.001948274
0.00194827
0.001948279
0.001948273
0.001948278
0.001948272
0.001948276
0.00194827
0.001948271
0.001948295
0.001948287
0.001948287
0.001948284
0.001948279
0.00194828
0.001948273
0.001948275
0.001948269
0.001948269
0.001948262
0.001948267
0.001948265
0.001948269
0.001948266
0.00194827
0.001948265
0.001948266
0.001948261
0.001948261
0.001948282
0.001948279
0.001948276
0.001948276
0.001948271
0.001948271
0.001948265
0.001948265
0.001948258
0.001948258
0.00194826
0.001948261
0.00194826
0.001948261
0.00194826
0.001948259
0.001948256
0.001948254
0.00194825
0.001948246
0.001948264
0.001948263
0.001948262
0.001948261
0.001948259
0.001948256
0.001948252
0.00194825
0.001948244
0.00194824
0.001948254
0.001948255
0.001948254
0.001948253
0.001948251
0.001948248
0.001948245
0.00194824
0.001948236
0.00194823
0.0430004
0.009737686
0.002667003
0.0004468728
-0.0008000738
0.0002513042
-0.001715179
0.0001378356
0.0009468055
0.05637333
0.06862786
-0.003603833
0.04273032
0.009966031
0.03198896
0.02242911
0.02619541
0.02304714
0.02465808
-0.003616518
-0.001992154
0.00868299
0.01097171
0.008794208
0.01479827
0.01156505
0.01079581
0.01377044
0.004775343
0.005757224
0.02461042
-0.0114207
0.02015295
-0.004480938
0.01499913
0.005625898
0.008950131
0.005989651
-0.004383379
0.02499791
0.02001714
0.02433698
0.02843236
0.02566098
0.03563275
0.04508576
0.0429011
0.04839195
0.03209983
-0.01742371
-0.006447538
-0.02794777
-0.03254658
-0.03782485
-0.0305468
-0.0209971
-0.02925257
-0.02872446
-0.06101556
0.0551756
0.03149737
0.1202389
0.1149555
0.1635182
0.1680174
0.1739805
0.165621
0.1703127
0.1330902
-0.002206196
-0.03875364
-0.05662089
-0.08978716
-0.1159764
-0.1422154
-0.1843688
-0.2101991
-0.2057325
-0.2384274
0.00981591
-0.02572544
0.1862367
0.2029378
0.2526987
0.277865
0.2695725
0.3158806
0.3384776
0.2938649
0.1788225
-0.1476827
-0.05553999
-0.2067696
-0.1903415
-0.2360919
-0.2827833
-0.305894
-0.2887563
-0.3702369
0.05378138
-0.1242155
0.2781714
0.1998976
0.2600278
0.2087797
0.2126839
0.244632
0.1923304
0.1799798
0.001948286
0.001948282
0.00194828
0.001948275
0.001948271
0.001948266
0.00194826
0.001948258
0.001948259
0.001948253
0.001948287
0.00194828
0.00194828
0.001948285
0.001948281
0.001948285
0.001948281
0.001948284
0.00194828
0.001948281
0.001948295
0.001948285
0.001948284
0.00194828
0.001948274
0.001948273
0.001948266
0.001948266
0.001948262
0.00194826
0.001948272
0.001948271
0.001948272
0.001948273
0.001948271
0.001948272
0.001948268
0.001948268
0.001948263
0.001948262
0.00194829
0.001948279
0.00194828
0.001948276
0.001948272
0.00194827
0.001948265
0.001948262
0.001948258
0.001948255
0.001948272
0.001948266
0.001948266
0.001948264
0.001948262
0.001948261
0.001948256
0.001948255
0.001948249
0.001948247
0.001948277
0.001948267
0.001948268
0.001948264
0.00194826
0.001948257
0.001948253
0.001948249
0.001948244
0.00194824
0.001948266
0.001948259
0.00194826
0.001948254
0.001948253
0.001948249
0.001948245
0.001948241
0.001948235
0.00194823
0.04598862
0.06825854
0.07342695
0.07515661
0.06341304
0.08156174
0.06261066
0.07436946
0.0786465
0.04207785
0.06629729
-0.009982303
0.0249609
-0.006217411
-0.009975301
0.002639387
-0.0111197
0.01206967
0.005780377
0.02552355
0.004239002
0.01813589
0.02380759
0.01095027
0.01189337
0.01400482
0.004836943
0.02430729
0.01047592
-0.02688388
0.03572741
-0.01097428
0.02239063
-0.006879752
-0.001789078
-0.001990821
-0.004776558
0.01518
-0.003910153
0.02065849
0.02759765
0.02955576
0.03475732
0.02489279
0.02574076
0.03342794
0.021725
0.04746421
0.0316187
-0.02472041
0.01190855
-0.01800758
-0.01830233
-0.02332971
-0.02413575
-0.03032173
-0.04343879
-0.03489797
-0.06128714
0.05730003
0.03813614
0.1090974
0.1091267
0.1508051
0.1639672
0.1639148
0.1546444
0.1593092
0.1210766
0.03500828
-0.00124749
-0.03496067
-0.06239735
-0.0982797
-0.1224756
-0.1653523
-0.1819807
-0.1659314
-0.2193751
0.03502207
0.01101329
0.1888073
0.1964556
0.2365538
0.2826416
0.2878651
0.3611489
0.3931269
0.3576381
0.1879831
-0.04393583
0.03922932
-0.09330876
-0.09545902
-0.09277651
-0.2805822
-0.2093907
-0.2112345
-0.5023403
0.08013054
0.001616707
0.4135332
0.3036824
0.3940128
0.3325989
0.6032886
0.4318349
0.4503149
0.8311677
0.001948285
0.001948285
0.001948303
0.001948297
0.001948305
0.0019483
0.0019483
0.001948298
0.001948301
0.0019483
0.00194827
0.001948275
0.001948268
0.001948276
0.00194827
0.001948272
0.001948269
0.001948269
0.001948265
0.001948264
0.001948278
0.001948285
0.001948284
0.001948286
0.001948281
0.001948282
0.001948277
0.001948278
0.001948275
0.001948273
0.001948262
0.001948268
0.001948265
0.001948268
0.001948266
0.001948268
0.001948264
0.001948265
0.001948259
0.001948258
0.001948265
0.001948275
0.001948273
0.001948274
0.001948271
0.00194827
0.001948265
0.001948264
0.001948259
0.001948256
0.001948259
0.001948262
0.001948261
0.001948261
0.00194826
0.001948259
0.001948255
0.001948254
0.001948248
0.001948246
0.001948252
0.001948261
0.001948262
0.001948259
0.001948259
0.001948255
0.001948252
0.001948249
0.001948244
0.00194824
0.001948246
0.001948255
0.001948253
0.001948253
0.001948252
0.001948248
0.001948245
0.001948241
0.001948235
0.00194823
0.01622781
0.004478781
0.009935749
0.01434023
0.0272718
0.0140788
0.02292668
0.02096464
0.04132446
0.03279794
0.02330567
-0.00471697
0.02795368
0.01046607
0.02324117
0.01813105
0.022069
0.01252681
0.01549716
0.03652768
0.03668273
0.007589186
0.0199477
0.008690247
0.01458515
0.007832635
0.005775522
0.002604898
-0.001058789
-0.001280839
0.01156889
0.0172584
0.01756762
0.01725837
0.02046098
0.01221249
0.01516132
0.002073316
0.004167362
0.03345699
0.01730359
0.02411235
0.02416622
0.02638309
0.02890936
0.02567107
0.02517976
0.00787594
0.01636245
-0.01675638
0.002537272
-0.01302254
-0.01256653
-0.02073781
-0.02785121
-0.03152392
-0.0349528
-0.03941593
-0.03971859
-0.007017704
0.001521244
0.03732657
0.03527458
0.05294597
0.04978146
0.05871225
0.0685939
0.05715554
0.07651746
0.03802096
-0.0005394708
-0.01083764
-0.04621779
-0.05283878
-0.08014874
-0.08993092
-0.09666206
-0.1081009
-0.08989266
0.01232432
-0.08152858
0.02053881
-0.0084066
0.04276613
0.01976058
0.08011205
0.06552388
0.04376308
0.114817
0.029675
-0.07444843
-0.01596056
-0.1543661
-0.1111176
-0.1458967
-0.1528149
-0.1500339
-0.1432126
-0.1386325
0.05384321
-0.07376025
-0.07427573
-0.1585612
-0.1854372
-0.200699
-0.0298071
-0.06884643
-0.1210654
-0.008084213
0.001948286
0.001948277
0.001948257
0.001948254
0.001948229
0.001948228
0.001948212
0.001948215
0.0019482
0.001948206
0.001948292
0.001948286
0.001948314
0.001948309
0.001948329
0.001948324
0.001948331
0.001948328
0.001948334
0.001948331
0.001948287
0.001948281
0.00194828
0.001948273
0.001948266
0.001948261
0.001948256
0.001948252
0.001948248
0.001948246
0.001948274
0.001948276
0.001948282
0.001948278
0.001948276
0.001948276
0.001948273
0.001948272
0.001948268
0.001948265
0.001948271
0.001948278
0.001948277
0.001948274
0.001948268
0.001948268
0.001948261
0.001948259
0.001948253
0.001948251
0.001948251
0.001948267
0.00194827
0.001948263
0.001948263
0.00194826
0.001948257
0.001948254
0.001948249
0.001948246
0.00194825
0.001948266
0.001948268
0.001948262
0.001948259
0.001948256
0.001948252
0.001948249
0.001948243
0.001948239
0.001948245
0.001948259
0.001948263
0.001948254
0.001948254
0.001948249
0.001948245
0.001948241
0.001948235
0.00194823
0.0041771
0.01210973
0.01541105
0.02567543
0.07260144
0.02308473
0.0643161
0.0233569
0.02838132
-0.002617816
0.03459179
0.002340163
0.02605771
0.009484501
0.01882666
0.01661556
0.02240559
0.02235347
0.0264659
0.03185119
0.002754949
0.007869742
0.0131024
0.007435168
0.01035625
0.007456578
0.004555847
0.003211033
-0.001227877
0.04590498
0.01756071
0.004341626
0.01700705
0.006375993
0.01540493
0.008776532
0.01734711
0.01233735
0.01492399
0.06301234
0.003426317
0.02571025
0.02576334
0.02479201
0.02921395
0.02990553
0.03074134
0.02912159
0.02814744
0.05170398
0.0145812
-0.002999439
-0.001878819
-0.008960859
-0.0139084
-0.01405029
-0.01825257
-0.02107841
-0.02431927
0.03471657
0.0001707815
0.04899064
0.05095486
0.06870831
0.07326038
0.08521037
0.08413573
0.08347343
0.07962699
-0.007218316
0.03954281
0.02802606
0.0004454178
-0.009485895
-0.03611848
-0.04717078
-0.09063221
-0.07889036
-0.09873838
0.009832438
-0.04000151
0.0416355
0.03029134
0.05798613
0.0894648
0.09565257
0.1576457
0.1202509
0.1400886
0.07325592
0.1810463
0.1413869
0.1539329
0.07010307
0.1041097
0.06482099
0.1101504
-0.009975036
0.002631943
0.09971685
0.04423281
0.09263326
0.111154
0.07569311
0.06191419
0.1022024
0.05439794
0.08031832
0.1206673
0.02872449
0.2874775
0.3013846
0.3161542
0.5659382
0.2521907
0.1556664
0.2910628
0.2719592
0.001948287
0.001948285
0.001948273
0.001948265
0.001948252
0.001948253
0.001948249
0.001948249
0.001948249
0.001948253
0.001948286
0.001948279
0.00194828
0.001948281
0.001948277
0.001948282
0.00194828
0.001948283
0.001948276
0.001948278
0.001948284
0.001948284
0.001948284
0.001948274
0.001948268
0.001948261
0.001948256
0.001948252
0.001948251
0.001948248
0.001948284
0.001948272
0.001948276
0.00194827
0.001948269
0.001948271
0.001948266
0.001948267
0.001948261
0.001948259
0.001948276
0.001948276
0.001948281
0.001948272
0.001948271
0.001948266
0.001948262
0.001948258
0.001948254
0.001948251
0.001948253
0.001948264
0.001948269
0.001948261
0.001948262
0.001948259
0.001948255
0.001948253
0.001948248
0.001948245
0.001948275
0.001948264
0.001948272
0.001948258
0.001948261
0.001948255
0.001948252
0.001948248
0.001948243
0.001948239
0.001948262
0.00194826
0.001948263
0.001948253
0.001948254
0.001948248
0.001948246
0.00194824
0.001948235
0.00194823
-0.02801673
0.01172453
0.008419627
-0.02668885
0.09967617
0.001948292
0.09626992
0.00194829
0.1166758
0.001948288
0.001948285
0.1815423
0.2370877
0.001948289
0.001948285
0.1549494
0.00194828
0.001948276
0.2607324
0.2498565
0.00194828
0.001948277
0.1329432
0.001948268
0.001948264
0.2728986
0.2582998
0.001948256
0.001948266
0.07523404
0.001948259
0.001948252
0.3124383
0.2659116
0.001948242
0.001948252
0.1218683
0.001948248
0.001948237
0.3288562
0.2797792
0.001948231
0.001948235
0.1013113
0.001948239
0.001948223
0.3167145
0.2960377
0.00194822
0.001948213
0.1330885
0.001948234
0.001948217
0.2644358
0.1976402
0.001948215
0.001948199
0.1345781
0.001948234
0.001948214
0.2820436
0.2966703
0.001948216
0.001948191
0.2835643
0.001948244
0.001948198
0.3120338
0.3158456
0.001948221
0.001948188
0.001948285
0.001948293
0.001948289
0.001948287
0.001948298
0.001948291
0.001948281
0.001948294
0.001948284
0.001948285
0.001948298
0.001948289
0.001948277
0.001948333
0.001948277
0.00194828
0.001948298
0.001948278
0.001948232
0.001948355
0.001948268
0.001948275
0.001948297
0.001948273
0.001948232
0.001948336
0.001948273
0.001948273
0.001948288
0.001948271
0.001948224
0.00194832
0.001948267
0.001948262
0.001948286
0.001948279
0.001948229
0.001948302
0.001948265
0.001948254
0.001948293
0.001948294
0.00194823
0.001948294
0.001948262
0.001948244
0.001948296
0.0019483
0.006254316
0.02933428
0.01130007
0.01216708
0.08570443
0.006967843
0.1552673
0.001948285
0.1929349
0.001948291
0.009939279
0.08301125
0.01837984
0.0124282
0.07367421
0.02007047
0.2129144
0.001948287
0.2277053
0.001948291
0.009865322
0.08529586
0.01881642
0.01173602
0.0742467
0.02064495
0.2201512
0.001948287
0.2673221
0.001948291
0.00194829
0.01105794
0.07403507
0.02351067
0.01025893
0.08159675
0.0235519
0.2583878
0.001948289
0.2649134
0.001948297
0.001948291
0.01198178
0.07218199
0.02497125
0.01104216
0.07672874
0.02312051
0.3148973
0.001948283
0.001948284
0.253822
0.001948296
0.001948291
0.01191748
0.08883262
0.02428859
0.01117287
0.07350254
0.01772734
0.2923463
0.00194829
0.2362291
0.001948288
0.001948287
0.009670456
0.08119044
0.01793959
0.009109309
0.04562766
0.01345857
0.2396777
0.001948291
0.00194829
0.2156586
0.001948286
0.001948285
0.005905736
0.04473764
0.01095747
0.002869747
-0.01382449
0.01281525
0.2018798
0.001948292
0.001948291
0.1489213
0.001948289
0.001948279
0.005430274
-0.01016593
-0.0228163
-0.01463514
0.01687414
-0.05115658
-0.02649892
-0.01814142
0.0121908
0.007585817
-0.03218241
-0.01967761
0.01294372
0.0266315
0.02333832
-0.01908672
-0.03110799
0.02545995
0.02704186
0.07269525
-0.02588512
-0.0172816
0.02752386
0.0245044
0.03318178
0.02521651
-0.01958954
-0.02678233
0.02736457
0.03019879
0.03129902
0.01417482
-0.03513158
-0.0132715
0.01753212
0.02320583
0.03232955
0.02443737
-0.0269569
-0.03327576
0.0161692
0.030842
0.03139377
0.02460215
-0.03735307
-0.03381951
0.01689047
0.01986597
0.08284719
-0.04774811
-0.01686574
0.01611813
0.01427841
0.01635302
0.01239129
-0.03249359
0.03959939
-0.03335753
0.06210046
-0.06703397
-0.02695798
0.06613388
-0.007045083
-0.06636034
0.02964305
-0.06027623
-0.02295958
0.04093415
0.07537473
0.01203089
-0.0446054
0.03911445
-0.05803377
0.002609766
0.05622182
0.08583898
0.01469497
-0.04068968
0.05154974
-0.02444886
-0.008710753
0.04794403
-0.05959961
0.04586867
-0.03516639
-0.02272421
0.04597828
0.05762821
0.001631901
-0.04685257
0.04014458
-0.01253456
-0.03382029
0.05842006
0.07786367
-0.05944098
0.02632455
0.1152832
-0.01625881
0.07879408
-0.02573663
0.008072046
0.1042978
0.1293831
0.05481654
0.1126884
0.09191366
0.07769846
0.01920498
0.05222112
0.1016558
0.00194829
0.001948287
0.08020298
0.00194829
0.2441706
0.001948286
0.001948278
0.08902707
0.1794878
0.001948285
0.001948278
0.2806357
0.001948275
0.001948268
0.1258599
0.1554149
0.001948277
0.001948272
0.2704478
0.001948256
0.001948263
0.1396066
0.1451544
0.001948261
0.001948259
0.3617471
0.001948235
0.001948254
0.175072
0.1402484
0.001948254
0.001948248
0.2950077
0.001948233
0.00194825
0.1145362
0.08368183
0.001948251
0.001948241
0.1533664
0.001948228
0.001948233
0.1355471
0.1472204
0.001948245
0.001948234
0.2444233
0.001948224
0.001948203
0.1511316
0.1534409
0.001948238
0.001948216
0.2734275
0.00194822
0.00194819
0.05180508
0.1112319
0.001948237
0.001948215
0.2094684
0.001948222
0.001948184
0.1739935
0.1670681
0.001948241
0.001948199
0.001948285
0.001948296
0.001948292
0.001948281
0.001948291
0.001948288
0.001948302
0.001948299
0.001948276
0.001948301
0.001948284
0.001948304
0.001948303
0.001948273
0.001948313
0.001948278
0.00194831
0.00194831
0.001948268
0.00194832
0.001948274
0.001948305
0.001948309
0.001948263
0.00194831
0.001948262
0.001948298
0.001948305
0.001948247
0.001948312
0.001948254
0.001948306
0.001948313
0.001948245
0.001948319
0.001948242
0.001948306
0.001948309
0.001948228
0.001948306
-0.01957625
-0.0003665618
0.04684887
-0.04013712
0.00747898
0.01403415
0.06134838
-0.07117727
-0.02409963
0.04879857
0.009215414
0.01533456
0.01441598
0.03115491
-0.01066792
-0.02382759
0.06086001
0.04478364
0.01911814
0.0267785
0.02965623
-0.01654986
-0.02107257
0.06151783
0.04873921
0.01461495
0.02909184
0.03138485
-0.01923105
-0.02728754
0.1028162
0.05840972
0.05003183
0.0278832
0.0287669
-0.0146459
-0.01577602
0.1093111
0.05734349
0.05206776
0.02790708
0.02844955
-0.01274467
-0.01659177
0.1184073
0.05976451
0.07244558
0.02836771
0.02815077
-0.0160298
-0.008681598
0.1020868
0.05848368
0.05434895
0.02641581
0.02620746
-0.01487365
-0.01520492
0.1209274
0.07475869
0.07744462
0.02824962
0.02695129
-0.007501981
-0.007257503
0.05088599
-0.00480278
-0.01547161
0.04117612
0.03170806
-0.04712792
-0.02408014
0.07215489
0.001955583
-0.0708061
0.04407443
0.01018055
-0.06038498
-0.0464181
0.05220029
0.005351745
-0.06409238
0.07918985
0.007211868
-0.05273008
-0.03859198
0.0594259
0.007387075
-0.05535859
0.07248205
-0.004124011
-0.05044694
-0.01801806
0.05094295
0.008152834
-0.05760211
0.07227829
0.01200016
-0.05304306
-0.009563138
0.05874567
0.01627784
-0.05100684
0.07786921
0.02561838
-0.04530089
0.005049527
0.06660672
0.01957771
-0.04217096
0.09206271
0.03830883
-0.04148973
0.02362795
0.04315553
0.02889501
-0.03853096
0.0699264
0.05068278
-0.03558848
0.005154582
0.08775601
0.1079323
0.1098867
0.09539638
0.04380929
0.1066215
0.1497267
0.05294871
0.08377022
0.04517544
0.07928866
0.09802605
0.02266536
-0.02066566
0.08306485
0.0009521251
0.06682496
0.1583126
0.2285944
0.04820801
0.04354377
0.09679285
0.07387733
0.1020538
0.2687942
0.2607188
0.02853185
0.01598557
0.03240909
0.08600677
0.06813999
0.3080029
0.2568528
0.0104051
0.09361979
0.004540299
0.03797566
0.07227393
0.3155937
0.259453
0.01635735
0.06890945
0.0825719
0.01558667
0.06366194
0.3347264
0.2848065
0.02579527
-0.01744659
0.0756637
0.01648824
0.07674018
0.3254556
0.310287
0.03169708
0.03084823
0.04895138
0.1165683
0.05989153
0.3189824
0.3004179
0.01902736
0.1074143
0.02317272
0.08593153
0.1266931
0.3194258
0.347539
0.06339532
0.08485112
0.1130796
0.1685532
0.1648684
0.1440792
0.2083475
0.1991484
0.07420986
0.2087962
0.2023423
0.1101852
0.2273552
0.1906944
0.1033822
0.2056801
0.1641291
0.1122627
0.193712
0.2026999
0.001948299
0.001948285
0.001948287
0.001948299
0.00194828
0.001948293
0.001948286
0.001948284
0.00194828
0.001948297
0.001948286
0.00194827
0.00194829
0.001948278
0.001948274
0.001948268
0.001948294
0.001948274
0.00194826
0.001948283
0.001948269
0.001948261
0.001948255
0.001948288
0.00194826
0.001948248
0.001948277
0.001948259
0.001948251
0.00194824
0.00194828
0.00194824
0.001948234
0.001948271
0.001948246