/*--------------------------------*- C++ -*----------------------------------*\
  =========                 |
  \\      /  F ield         | OpenFOAM: The Open Source CFD Toolbox
   \\    /   O peration     | Website:  https://openfoam.org
    \\  /    A nd           | Version:  7
     \\/     M anipulation  |
\*---------------------------------------------------------------------------*/
FoamFile
{
    version     2.0;
    format      ascii;
    class       surfaceScalarField;
    location    "0.06";
    object      phi;
}
// * * * * * * * * * * * * * * * * * * * * * * * * * * * * * * * * * * * * * //

dimensions      [0 3 -1 0 0 0 0];

internalField   nonuniform List<scalar> 
266918
(
0.0003835575
-0.0001409557
-0.008417652
-0.001602827
-0.0001747162
0.000361139
4.529083e-07
2.296865e-05
2.006625e-05
-0.007910586
-0.001511503
3.595434e-07
9.824442e-06
-0.007843493
-0.001500412
1.043906e-05
-1.68075e-06
-0.007841183
-0.001499094
1.069151e-06
-1.518835e-06
-0.007820317
-0.001492663
3.446867e-06
-4.273752e-06
-0.007875599
-0.001498713
-3.957698e-06
3.189235e-06
-0.007834318
-0.001489477
1.982009e-06
1.510954e-06
-0.007835829
-0.001487094
-0.0001455
-0.03593805
-0.00157158
0.008793126
0.00896788
0.01066311
0.01026961
0.0006644703
-0.001519982
0.0003344481
-0.0005175382
-0.0003258701
-0.03644072
-0.001086288
0.008520814
0.008337406
0.01045803
0.01039113
-0.0001736269
-0.03628214
-0.001028175
0.008273928
0.008271773
0.0103214
0.01029097
-8.825685e-05
-0.03612845
-0.0009597637
0.00822538
0.008243587
0.01025977
0.0102741
-6.033899e-05
-0.03597076
-0.001050706
0.008237963
0.008237322
0.01025683
0.01026143
-6.061272e-05
-0.03589158
-0.0009992494
0.00820538
0.008200968
0.01023986
0.01024489
5.008151e-05
-0.03592697
-0.001166588
0.008250269
0.008241309
0.01024709
0.01024419
2.805123e-05
-0.03583813
-0.001011212
0.008212077
0.008216111
0.01022309
0.01022009
-0.03580823
-0.001114865
0.008226978
0.008227444
0.01023126
0.01022008
4.539111e-05
0.001812077
-2.677224e-05
-0.001743327
-4.19779e-05
0.0004133751
-0.03562213
1.885702e-05
0.001191096
-0.001471131
-0.0001016514
-0.0003664655
0.0002829759
-0.03535021
-0.0009601109
0.0001801276
-0.03524664
-0.0009326606
2.288521e-05
-0.03518928
-0.0007819302
3.429114e-05
-0.03503235
-0.000949824
4.484028e-05
-0.03495927
-0.0009428578
6.667724e-05
-0.03512766
-0.0008211538
7.476e-05
-0.03496477
-0.0008814378
-0.0349668
-0.0008925056
0.0001258369
0.001855635
-4.34715e-05
-0.001769163
-4.300031e-05
-0.0001153283
-0.03561674
3.21986e-05
0.001408144
-0.001357831
9.507014e-05
-6.763555e-05
7.230462e-06
-0.03545644
-1.63274e-05
2.809614e-05
-0.03525637
-1.113278e-05
1.695885e-06
-0.03512463
-3.824802e-05
2.302371e-05
-0.03504683
-6.844081e-06
8.577067e-05
-0.03496661
-5.54024e-05
5.491062e-05
-0.03505117
-4.562561e-05
0.0001125472
-0.03496567
-5.673959e-05
-0.03496138
-1.905669e-05
0.000126179
0.001871238
-4.663381e-05
-0.001781351
-4.325265e-05
2.252383e-05
-0.03555691
-1.335587e-06
0.001385776
-0.001383047
-5.791784e-06
-7.795517e-05
5.121315e-06
-0.0353304
-0.0001086385
4.159513e-05
-0.03524158
-5.126574e-05
1.810424e-05
-0.03503587
-6.52755e-05
9.689757e-06
-0.03496543
-7.298211e-05
7.274135e-05
-0.0350067
-2.295938e-05
4.120618e-05
-0.03490248
-0.0001171528
0.0001121889
-0.0349962
-4.044683e-05
-0.03491427
-6.834359e-05
0.0001334288
0.001875313
-4.453499e-05
-0.001786921
-4.385718e-05
6.255728e-05
-0.03570072
8.565399e-05
0.00139438
-0.001381495
3.919267e-05
-5.647633e-05
5.48132e-05
-0.03543625
0.0001135999
8.129189e-05
-0.03542553
0.0001574774
6.249945e-05
-0.03520073
0.0001836611
7.222848e-05
-0.03515388
0.0001787158
0.0001192743
-0.03527818
0.0002244327
6.937818e-05
-0.03500197
0.0001493862
0.0001317254
-0.03529255
0.0002340038
-0.03516759
0.0002065559
0.0001784882
0.00188053
-4.634009e-05
-0.001790504
-4.368575e-05
-8.671726e-05
-0.03565273
3.376522e-05
0.001401333
-0.001374782
3.120528e-05
-5.278754e-05
-9.547464e-05
-0.03542341
-4.07899e-06
-2.733093e-05
-0.03551669
2.302121e-05
-3.197473e-05
-0.03523455
3.846265e-05
2.498397e-05
-0.03524022
2.938101e-05
0.0001082721
-0.03541668
5.52079e-05
5.842364e-05
-0.0349712
1.907292e-05
0.0001303571
-0.03542305
5.856595e-05
-0.03531341
9.621781e-05
0.0001799582
0.001880388
-5.185546e-05
-0.001785132
-4.339995e-05
0.0001958923
-0.03626699
0.0003123221
0.001406306
-0.001381844
9.587659e-05
-1.429749e-05
0.0002004787
-0.03625284
0.0008248429
0.0002326987
-0.03656063
0.001011721
0.0001857226
-0.03646431
0.001276743
0.0002340753
-0.03655769
0.001269128
0.0002796321
-0.03688449
0.001422261
9.90533e-05
-0.03592645
0.001135839
6.247228e-05
-0.03662866
0.001242195
-0.03677172
0.001287758
0.0002330309
0.001867975
-4.731788e-05
-0.001775062
-4.55944e-05
-0.0001873302
-0.03697232
0.0006100185
0.001364303
-0.001219836
2.882199e-05
0.0001093658
-0.000282272
-0.03737577
0.001217873
-0.0001640308
-0.03777714
0.001098271
-0.0003770391
-0.03788438
0.001633081
-0.0002507474
-0.0376702
0.0009862157
-0.0001228385
-0.0384671
0.001454707
-0.0001916751
-0.03618402
0.0003264028
-6.448828e-05
-0.03784485
0.001089001
-0.03796646
0.001028835
0.0001014131
0.001835773
-6.924864e-05
-0.001702007
-6.451765e-05
-2.51171e-06
-0.009228205
0.001788927
0.001980512
-0.0007282395
0.0008540882
-2.179825e-05
-0.009690781
-0.0108346
-0.01108971
0.0003022255
-0.009609029
0.00431911
-0.009801246
-0.01119878
-0.01139056
0.0001569879
-0.009773846
0.005298897
-0.01013457
-0.01158128
-0.01144109
9.837485e-05
-0.01011
0.005621038
-0.01027345
-0.01145898
-0.01160438
4.941758e-05
-0.01013924
0.005735297
-0.0102667
-0.01147035
-0.01148024
-5.271214e-05
-0.01028849
0.005969774
-0.01046425
-0.0117198
-0.0118622
0.0002058948
-0.009991021
0.005420936
-0.008536469
-0.01164543
-0.01169063
0.0003528328
-0.01016577
0.00617744
-0.0103137
-0.01185628
-0.01183348
-0.01040587
0.006149894
-0.009998793
-0.01158945
-0.01199206
0.0002226598
0.001676462
-5.42911e-05
-0.001602226
-1.994473e-05
0.0001931333
0.0001090864
0.0009160922
-0.00286449
-0.002374135
-0.002873688
-0.002334204
-4.608515e-05
3.194777e-06
0.0006990046
-0.002804931
-0.002314251
-0.002795436
-0.002350524
2.838424e-05
-1.194462e-05
0.0004512864
-0.002854335
-0.002216388
-0.002793881
-0.002376966
-1.747401e-05
-2.70578e-06
0.0005809929
-0.002851168
-0.002374769
-0.002961202
-0.002483667
-1.721947e-06
-3.05354e-05
0.0005190417
-0.002887595
-0.002409322
-0.002863381
-0.002465724
2.754102e-05
-0.0001134815
0.0005452201
-0.002986348
-0.002502667
-0.002866759
-0.002391989
0.0004218204
-0.0001775768
0.000445615
-0.002379347
-0.002820129
-0.002800496
-0.002680903
0.0003913776
0.0003561391
-0.0002613557
-0.002811402
-0.002635034
-0.002800318
-0.002405172
-0.0001185625
0.0001114162
0.0004943065
-0.00284723
-0.002421034
-0.003067297
-0.002557464
9.468474e-06
0.0005016621
-8.421071e-06
7.94399e-05
6.561268e-06
0.0004910284
2.198872e-06
8.099865e-05
7.654873e-05
0.001900066
0.0002716171
0.0001280947
0.0002348914
-9.006111e-06
0.0005100116
-6.023238e-06
8.66537e-05
1.514184e-05
0.0004855169
-3.796542e-07
8.162501e-05
-1.465288e-06
0.000513171
-1.264846e-05
8.287221e-05
-1.543735e-06
0.0004747772
3.726828e-05
-2.270839e-05
-0.0001923041
0.002319086
0.0001962897
0.0001239189
0.0002423592
-1.34547e-05
0.0005077883
1.022238e-06
8.514623e-05
-5.567292e-11
4.854803e-10
-6.626375e-10
4.391347e-10
-5.614104e-11
-8.024903e-11
-3.345746e-11
-3.639902e-11
2.939133e-11
8.991383e-10
-1.146268e-09
3.820081e-10
-2.834612e-11
-8.054471e-11
-2.031416e-11
-3.500842e-11
3.99488e-11
1.441201e-09
-1.655869e-09
3.270871e-10
6.483964e-12
-1.122008e-10
-4.288447e-11
-3.707108e-12
1.072796e-10
1.895216e-09
-2.177209e-09
3.218647e-10
-4.210008e-11
-1.261539e-10
1.129828e-11
9.862625e-12
1.511862e-10
2.471784e-09
-2.762392e-09
2.832464e-10
-4.277106e-11
-1.469141e-10
3.263702e-11
1.328931e-11
2.106793e-10
3.07506e-09
-3.379399e-09
2.609898e-10
-8.43945e-11
-1.59313e-10
5.473433e-11
2.172117e-11
2.535555e-10
3.730357e-09
-4.070972e-09
2.688952e-10
-1.001803e-10
-1.847595e-10
7.284501e-11
3.033325e-11
3.145265e-10
4.465128e-09
-4.81134e-09
2.609242e-10
-1.639031e-10
-2.098721e-10
9.621533e-11
4.839032e-11
4.169822e-10
5.273512e-09
-5.700531e-09
2.654295e-10
-2.137565e-10
-2.042119e-10
1.410396e-10
2.159669e-11
-3.654273e-09
4.676639e-09
1.524015e-10
3.031086e-10
7.631999e-10
3.516682e-10
5.570443e-10
-6.329323e-10
-8.555206e-10
-8.058935e-10
-8.553241e-10
-5.500205e-09
4.993327e-09
1.507076e-10
-5.959045e-10
-9.615161e-10
-8.422645e-10
-8.98306e-10
-7.441631e-09
5.058233e-09
9.990064e-11
-5.089634e-10
-9.93044e-10
-8.342461e-10
-8.80327e-10
-9.488534e-09
5.364109e-09
7.04737e-11
-4.45884e-10
-1.116243e-09
-8.82779e-10
-9.42651e-10
-1.169723e-08
5.715339e-09
1.15813e-10
-3.821532e-10
-1.246611e-09
-9.805095e-10
-1.013044e-09
-1.410252e-08
6.201946e-09
1.02976e-10
-3.567389e-10
-1.423218e-09
-9.792012e-10
-1.140347e-09
-1.673792e-08
6.82231e-09
7.72507e-11
-3.434323e-10
-1.616908e-09
-1.03869e-09
-1.265008e-09
-1.96402e-08
7.595704e-09
3.792083e-11
-3.687969e-10
-1.873076e-09
-1.086599e-09
-1.402741e-09
8.504809e-09
9.585736e-11
-4.036511e-10
-2.236848e-09
-1.153828e-09
-1.605002e-09
-2.28414e-08
-3.636369e-09
6.424963e-09
-1.962165e-11
7.613828e-11
7.710462e-10
3.896689e-10
6.709101e-10
-5.242205e-09
6.64647e-09
-4.721819e-11
-7.144492e-09
6.844542e-09
1.160598e-10
-9.144521e-09
7.209546e-09
1.54689e-10
-1.130645e-08
7.70136e-09
1.759964e-10
-1.360664e-08
8.30859e-09
1.936371e-10
-1.613968e-08
9.082878e-09
2.725559e-10
-1.889996e-08
1.001825e-08
3.378335e-10
1.114111e-08
3.994244e-10
-2.193559e-08
-3.446956e-09
8.235568e-09
-3.12759e-11
-2.847998e-10
9.588347e-10
2.895157e-10
7.041779e-10
-4.935469e-09
8.286441e-09
-1.513881e-10
-6.693917e-09
8.600469e-09
2.60765e-12
-8.509819e-09
9.025046e-09
4.81962e-13
-1.049316e-08
9.664443e-09
2.034346e-11
-1.264372e-08
1.043344e-08
2.578378e-11
-1.496657e-08
1.13868e-08
1.901237e-11
-1.751493e-08
1.253461e-08
3.20765e-11
1.390558e-08
3.965388e-11
-2.031895e-08
-3.136717e-09
9.967847e-09
-6.946356e-11
-3.737625e-10
9.281475e-10
2.242079e-10
6.954024e-10
-4.521041e-09
9.810961e-09
-1.401161e-10
-6.156356e-09
1.024839e-08
-1.253885e-11
-7.857452e-09
1.072324e-08
2.980327e-12
-9.682206e-09
1.146274e-08
2.653581e-11
-1.163175e-08
1.235039e-08
3.266559e-11
-1.37428e-08
1.344986e-08
4.807099e-11
-1.604279e-08
1.477458e-08
6.008623e-11
1.635339e-08
7.388827e-11
-1.856441e-08
-2.684598e-09
1.145634e-08
-1.268434e-10
-4.469358e-10
1.017546e-09
6.863591e-11
6.838033e-10
-4.034274e-09
1.126355e-08
-1.028545e-10
-5.537036e-09
1.17547e-08
-3.465866e-12
-7.063359e-09
1.226936e-08
-1.972673e-11
-8.70233e-09
1.310367e-08
-1.896617e-12
-1.044675e-08
1.409773e-08
-2.85914e-12
-1.233193e-08
1.533633e-08
-1.235145e-12
-1.437185e-08
1.681232e-08
2.236619e-12
1.856878e-08
4.006087e-12
-1.659117e-08
-2.393597e-09
1.263019e-08
-1.996413e-10
-3.048596e-10
1.072017e-09
-4.46694e-11
6.969954e-10
-3.620602e-09
1.255541e-08
-6.478136e-11
-4.889204e-09
1.306262e-08
-3.927583e-11
-6.247521e-09
1.364223e-08
-1.449131e-11
-7.673451e-09
1.453451e-08
-4.85128e-12
-9.19578e-09
1.56194e-08
7.146666e-13
-1.082511e-08
1.696022e-08
5.485504e-12
-1.257831e-08
1.855653e-08
9.042229e-12
2.044559e-08
1.251164e-11
-1.446757e-08
-2.043077e-09
-2.123506e-10
-3.455249e-10
1.108822e-09
-1.531026e-10
6.722548e-10
1.360327e-08
-3.111983e-09
-3.506394e-11
1.365944e-08
-4.165444e-09
-4.03709e-11
1.415654e-08
-5.322834e-09
-8.515669e-12
1.48082e-08
-6.532422e-09
-8.181288e-12
1.575235e-08
-7.822547e-09
-3.239164e-12
1.691282e-08
-9.193527e-09
-2.534911e-12
1.83338e-08
-1.065453e-08
-1.006497e-12
2.001859e-08
-2.860723e-13
-1.221027e-08
2.200167e-08
0.0003828195
0.0002633638
-0.001147997
-0.01011102
-0.0002259868
2.145999e-05
0.0005932934
2.063504e-05
-1.21138e-05
0.0003311337
-4.5787e-06
-0.0006015045
-0.04105132
-0.0009766494
0.001373971
0.002036886
-0.0002409396
-0.0004415382
0.001438458
-0.0001704773
0.002130035
-0.0001199217
-6.444928e-05
-0.04123062
-0.001358934
0.002172963
0.002243506
-0.0004376041
-0.0004322186
-2.892523e-05
-0.04125973
-0.001563008
0.002246423
0.00228832
-0.0004255706
-0.0004193438
2.096031e-05
-0.04106928
-0.00156125
0.002252581
0.00224991
-0.0004087537
-0.0004204793
2.20921e-05
-0.04087982
-0.001564554
0.002244308
0.002249413
-0.0004255957
-0.0004216283
1.865906e-05
-0.04097539
-0.001583338
0.002255989
0.002244755
-0.0003927856
-0.0003978302
1.622099e-05
-0.04084281
-0.001569576
0.002241446
0.002240318
-0.0004109919
-0.0004173379
-0.04088623
-0.001573579
0.002242335
0.002238354
-0.0004025761
-0.0004058953
2.155103e-05
0.001910027
0.0001858587
-0.0003373668
-0.008533503
2.735917e-05
0.002445094
0.001999408
0.002421933
0.0001177321
-0.0002264343
-1.010672e-05
0.00020891
-0.04100993
-0.0007894414
0.01013212
0.01047733
0.00997045
0.0101354
4.7556e-05
-0.0004060003
3.561156e-05
-0.0003735812
0.0002379088
-0.04138449
-0.0007821201
0.0001399744
-0.04128272
-0.0008781424
7.739007e-05
-0.04116746
-0.000989454
6.392147e-05
-0.04114751
-0.0009590111
9.707137e-05
-0.04096319
-0.0009490309
5.023262e-05
-0.04103587
-0.001059266
8.568822e-05
-0.04092916
-0.0009603144
-0.04098443
-0.0009996752
6.86925e-05
-0.0006012409
-0.03600597
-0.000103184
0.0008927303
0.0002723584
-0.001458517
-0.0002055254
0.008131295
0.01048669
0.008317524
0.01027385
6.556556e-05
-0.04166871
1.083277e-05
-0.0001076027
-0.04151215
-0.0006592775
1.727357e-05
-0.04149703
-0.0008432198
3.115911e-05
-0.04116255
-0.0008007285
1.738959e-05
-0.0411575
-0.0009260601
5.63889e-05
-0.04104088
-0.0009041717
6.355543e-05
-0.04095418
-0.0009100068
0.000105869
-0.04095078
-0.0009021338
-0.04093621
-0.0009346628
9.981184e-05
-0.0004902541
-0.03542365
0.0003090322
0.001285266
-5.529588e-05
-0.001426293
-0.0002047776
-0.0001725546
-0.04183933
-0.0001148837
-4.565131e-05
-0.04147793
-0.0001774559
-2.035226e-06
-0.04130396
-0.0002478243
5.353958e-05
-0.04097689
-0.0002794766
6.514612e-05
-0.04086671
-0.0003092408
8.224429e-05
-0.0407615
-0.0003518796
9.320899e-05
-0.04068765
-0.0003231254
0.0001207172
-0.04067708
-0.0003579453
-0.04065559
-0.0003203072
0.0001413475
0.0001226251
-0.03554962
-9.186388e-05
0.001413438
0.0001269382
-0.0013807
-6.4469e-05
2.904121e-05
-0.04169462
-5.245663e-05
2.450926e-05
-0.04150527
-7.676042e-05
5.788913e-05
-0.04130905
-7.954694e-05
5.430712e-05
-0.04096235
-7.623741e-05
6.935545e-05
-0.0408698
-8.494453e-05
0.0001067748
-0.04071193
-0.0001099447
0.0001149012
-0.04072371
-8.921382e-05
0.000138111
-0.04063816
-0.0001025757
-0.04064541
-0.0001093792
0.0001689647
-6.231276e-05
-0.035508
0.0001281744
0.001381713
4.049591e-05
-0.001406035
-0.0001236445
8.574821e-05
-0.04185776
0.0001007364
0.0001136393
-0.04159255
0.0001729891
0.0001335356
-0.04138502
0.0002135457
0.0001176537
-0.04095621
0.0001934079
0.0001224261
-0.04092991
0.0002340611
0.0001221394
-0.04071605
0.0002288354
0.0001506039
-0.04087782
0.000275029
0.0001678336
-0.04068362
0.0002622303
-0.04080031
0.0003281742
0.0002011233
-5.294132e-05
-0.03538887
-7.180209e-05
0.001404738
8.14549e-05
-0.001391628
-8.895414e-05
-4.504113e-05
-0.04181534
-1.655842e-05
-8.264666e-05
-0.04155088
-8.1434e-06
2.546744e-05
-0.04141825
-5.185173e-05
6.544874e-05
-0.04098567
2.794401e-05
8.741688e-05
-0.04101351
9.101335e-05
4.448778e-05
-0.04081025
0.0001923455
0.0001657174
-0.04108846
0.000108491
0.0001256381
-0.04082844
0.000243469
-0.04106233
0.0002445031
0.0002393692
0.0001057812
-0.03574835
0.0002629388
0.001383946
0.000101255
-0.001392296
-0.000102134
0.0004291979
-0.0423447
0.0005182722
0.0004705437
-0.04224017
0.0014728
0.0004516173
-0.04223231
0.001844703
0.0003804187
-0.04186959
0.002231862
0.0002518007
-0.04198999
0.002374227
0.000136905
-0.04179004
0.002516949
0.0001743031
-0.04231232
0.002322304
0.0001238905
-0.04198952
0.002453696
-0.04236894
0.002453068
0.0002651891
0.000262278
-0.03600817
-4.108256e-05
0.001389874
5.619662e-05
-0.001344718
-6.272286e-05
-5.710952e-05
-0.0416591
0.0002438111
-0.0002162577
-0.04175237
0.000889224
-0.0001007936
-0.04154054
0.0002910452
-0.0001210938
-0.0414741
0.001257892
-0.0001339193
-0.04113557
0.000144624
-0.0002080655
-0.04119218
0.0009309902
0.000119179
-0.04204742
-0.0002657473
5.897784e-05
-0.04185907
0.00101875
-0.04195671
0.000338393
0.0003371983
0.0009832646
-0.008533662
6.031399e-05
0.001882174
0.0007129175
-0.000776608
-0.0001830497
-0.01051525
-0.008976909
-0.01066136
0.0009250981
-0.01034156
0.001307171
-0.01042616
-0.01004492
-0.01030653
0.00123871
-0.01063403
0.004922171
-0.01088298
-0.01022532
-0.01092672
0.0007029744
-0.01112756
0.008173961
-0.01108033
-0.01038963
-0.01128234
0.0003466649
-0.01128346
0.008777758
-0.01121451
-0.01036052
-0.01141601
0.0002412711
-0.0113454
0.008926711
-0.01127025
-0.01027164
-0.0113343
1.623346e-06
-0.01144858
0.009512921
-0.01138257
-0.01031681
-0.01134771
7.855856e-05
-0.01155087
0.008424825
-0.01128751
-0.0108377
-0.01145216
8.693109e-05
-0.01160549
0.009548778
-0.01156065
-0.01159675
-0.01047589
-0.01154999
0.009223772
-0.01148093
-0.01114548
-0.01115054
0.0003832865
8.05704e-05
0.0002489553
0.0001719884
-0.002594263
-0.001878862
-0.002647561
-0.00191449
-0.0008025566
-0.0004628333
2.400956e-05
-0.009208949
0.0001087665
-0.0006289306
0.0004394092
-0.0002617476
-0.009771047
-0.000411708
-0.0003003688
6.560345e-05
-6.462317e-05
-0.01011518
-0.0007129939
-0.0004078048
-8.397785e-05
1.035908e-05
-0.01018391
-0.0006181197
-0.0003807352
-0.0001346908
-1.860614e-05
-0.0102244
-0.0005869694
-0.000418891
2.321808e-05
-0.000239727
-0.01024661
-0.0005665745
-0.0002981183
0.0001706298
-0.0002458749
-0.01030251
-0.0008749884
-9.194531e-05
-2.772558e-05
0.000287508
-0.01029515
-0.001478173
-0.0001381333
3.038929e-05
-7.252117e-05
-0.01019579
-0.001173932
1.135897e-11
-3.89995e-11
7.089869e-11
-7.500648e-12
-1.516162e-11
-2.057655e-11
-5.071532e-09
2.660136e-09
3.338037e-10
9.844635e-11
-7.762409e-12
1.744575e-10
7.702082e-11
5.426815e-10
6.112547e-10
5.400244e-10
6.74139e-10
-1.202097e-10
-1.166941e-10
-4.753588e-11
-3.480601e-10
-7.381337e-09
2.571861e-09
3.36848e-10
3.649129e-11
-1.056987e-10
1.427206e-10
-3.101967e-11
1.316099e-11
-1.862884e-10
-3.025339e-10
-1.655654e-10
-9.852294e-09
3.079808e-09
2.757025e-10
-1.40857e-11
-1.689598e-10
1.367229e-10
-9.904737e-11
-4.803314e-11
-3.366575e-10
-1.534889e-10
-2.008055e-10
-1.266052e-08
3.411995e-09
3.994393e-10
3.668369e-11
-2.168142e-10
1.606726e-10
-1.280055e-10
3.652155e-12
-3.769344e-10
-2.262912e-10
-2.559567e-10
-1.568028e-08
3.804826e-09
5.29971e-10
5.265163e-11
-2.626372e-10
1.515952e-10
-1.523225e-10
-2.30734e-11
-4.723416e-10
-3.234448e-10
-2.852473e-10
-1.904121e-08
4.182379e-09
5.955428e-10
8.170148e-11
-3.229011e-10
2.567034e-10
-1.818372e-10
-1.493426e-11
-5.574315e-10
-3.493274e-10
-3.287557e-10
-2.2759e-08
4.642809e-09
8.268731e-10
9.744859e-11
-3.927941e-10
3.121667e-10
-2.294583e-10
-1.736286e-11
-6.842583e-10
-3.751314e-10
-4.622982e-10
-2.682601e-08
5.031938e-09
7.564275e-10
1.239453e-10
-4.60456e-10
4.444324e-10
-2.517135e-10
6.180887e-11
-7.526429e-10
-3.90618e-10
-4.959133e-10
5.362617e-09
8.278371e-10
1.634003e-10
-5.692323e-10
5.87068e-10
-2.7096e-10
8.799724e-11
-7.980394e-10
-3.933803e-10
-5.964277e-10
-3.122666e-08
-4.87469e-11
-6.904866e-10
-1.158356e-10
8.717315e-10
6.250456e-11
-5.143004e-11
4.780499e-12
-3.247262e-11
-4.59932e-09
5.143602e-09
2.516558e-10
4.057347e-10
5.090425e-10
4.344612e-10
6.674655e-10
-7.242146e-09
5.271319e-09
9.417951e-11
-9.676761e-09
5.402964e-09
2.114582e-10
-1.218859e-08
5.783932e-09
2.104727e-10
-1.503742e-08
6.390942e-09
3.786297e-10
-1.814265e-08
6.94942e-09
4.412751e-10
-2.147406e-08
7.593692e-09
4.578767e-10
-2.501543e-08
8.234957e-09
3.763842e-10
9.088877e-09
3.730758e-10
-2.90188e-08
-7.397117e-11
-1.076477e-09
-1.080865e-10
1.297032e-09
8.467512e-11
-7.250986e-11
5.331984e-12
-5.594433e-11
-4.122763e-09
7.276562e-09
-5.415223e-12
4.010757e-10
5.38404e-10
4.443664e-10
5.918655e-10
-6.364443e-09
7.55666e-09
-9.079438e-11
-8.775323e-09
7.852923e-09
7.708797e-11
-1.127306e-08
8.261462e-09
1.749936e-10
-1.386219e-08
8.906465e-09
2.497087e-10
-1.664068e-08
9.606617e-09
3.150281e-10
-1.967654e-08
1.053422e-08
3.679847e-10
-2.304363e-08
1.154583e-08
3.941593e-10
1.283129e-08
4.41588e-10
-2.682809e-08
-1.228051e-10
-1.582554e-09
1.916571e-11
1.731182e-09
1.585813e-10
-1.274062e-10
1.357874e-11
-8.968874e-11
-3.822411e-09
9.274199e-09
3.528751e-11
3.087906e-10
5.444622e-10
3.132252e-10
5.918299e-10
-5.888017e-09
9.595787e-09
-1.248178e-10
-7.998431e-09
9.937633e-09
2.839389e-11
-1.022933e-08
1.044983e-08
4.311324e-11
-1.260176e-08
1.118663e-08
1.126886e-10
-1.516379e-08
1.207851e-08
1.160144e-10
-1.793546e-08
1.317492e-08
1.500773e-10
-2.098604e-08
1.446767e-08
1.609224e-10
1.604812e-08
1.919151e-10
-2.435503e-08
-1.452929e-10
-1.951671e-09
4.62313e-11
2.100066e-09
1.709187e-10
-1.301928e-10
2.135665e-11
-1.11363e-10
-3.497483e-09
1.107534e-08
-1.080239e-12
2.330794e-10
5.158732e-10
2.825811e-10
5.965286e-10
-5.345447e-09
1.145321e-08
-1.495027e-10
-7.279583e-09
1.189482e-08
-3.549631e-11
-9.301583e-09
1.246712e-08
7.769782e-12
-1.145176e-08
1.330626e-08
5.71741e-11
-1.375099e-08
1.432962e-08
8.08611e-11
-1.624426e-08
1.561264e-08
1.037016e-10
-1.897415e-08
1.713862e-08
1.19111e-10
1.897347e-08
1.383024e-10
-2.196383e-08
-1.707763e-10
-2.330773e-09
6.867775e-11
2.494358e-09
1.830751e-10
-1.295526e-10
-3.297948e-12
-1.116565e-10
-3.152751e-09
1.271421e-08
-4.132287e-11
1.449401e-10
5.036877e-10
2.277725e-10
5.520622e-10
-4.804544e-09
1.313718e-08
-1.349491e-10
-6.515577e-09
1.364699e-08
-4.454263e-11
-8.314013e-09
1.42799e-08
-3.399052e-11
-1.022868e-08
1.52163e-08
2.801432e-12
-1.228091e-08
1.636807e-08
1.098529e-11
-1.449167e-08
1.779825e-08
2.39836e-11
-1.68902e-08
1.950804e-08
3.140884e-11
2.154595e-08
4.05556e-11
-1.949915e-08
-1.886551e-10
-2.718909e-09
6.226609e-11
2.797472e-09
2.105957e-10
-1.006274e-10
-9.618949e-13
-6.112047e-11
-2.767444e-09
1.413186e-08
-1.195148e-10
8.212535e-11
4.964099e-10
1.482634e-10
5.429771e-10
-4.230641e-09
1.462952e-08
-9.385901e-11
-5.729702e-09
1.517502e-08
-6.815871e-11
-7.307507e-09
1.587803e-08
-3.475568e-11
-8.975009e-09
1.689118e-08
-1.215165e-11
-1.075457e-08
1.814595e-08
2.471123e-12
-1.266053e-08
1.969801e-08
1.175231e-11
-1.471211e-08
2.15499e-08
1.882686e-11
2.374618e-08
2.483909e-11
-1.692461e-08
-2.005293e-10
-2.984634e-09
4.903731e-11
3.057286e-09
2.073347e-10
-8.716275e-11
9.82848e-12
-5.10973e-11
-2.370924e-09
-1.440999e-10
3.392499e-11
4.689631e-10
8.81522e-11
5.085087e-10
1.53351e-08
-3.605494e-09
-7.037351e-11
1.589949e-08
-4.876261e-09
-6.526802e-11
1.647073e-08
-6.211793e-09
-3.181146e-11
1.723694e-08
-7.624094e-09
-1.83474e-11
1.831372e-08
-9.127117e-09
-6.881265e-12
1.96527e-08
-1.072535e-08
-2.367136e-12
2.129615e-08
-1.243076e-08
4.39396e-12
2.324998e-08
6.369604e-12
-1.42461e-08
2.555493e-08
0.0006090161
2.169177e-05
-0.0008778588
-0.01006021
-2.411603e-05
8.21197e-06
0.0006098539
8.325868e-06
-0.0006784329
-0.04041903
-0.000203205
0.002135281
-0.0001666125
0.002136524
-0.0001562556
2.447069e-05
-0.04041428
-0.0003135847
3.854136e-05
-0.04079705
-0.0003714088
2.492336e-05
-0.04056301
-0.0004314725
1.356982e-05
-0.04058752
-0.000444949
2.13313e-05
-0.04061493
-0.0004427324
1.662253e-05
-0.04050808
-0.0004423033
-0.04047935
-0.0004617044
2.082863e-05
0.002031937
6.458297e-05
-0.0004618501
-0.008501819
-2.982548e-05
0.002444465
0.002021829
0.002430681
-0.0005688708
-0.04015222
-0.0003896407
0.01001094
0.01027663
0.009995371
0.01013033
0.0001838245
-0.0002362858
0.0001745847
-0.0002141028
-0.0001399882
-0.041034
-0.0005960366
1.238577e-05
-0.04081824
-0.0006265596
2.641004e-05
-0.0409972
-0.0008033291
7.209285e-06
-0.04079002
-0.0007128061
2.921172e-05
-0.04079113
-0.0007674199
3.393423e-05
-0.04085195
-0.000826969
4.736287e-05
-0.04074003
-0.0007417852
-0.04072131
-0.0007776046
6.725621e-05
-0.001068305
-0.03623028
-0.000169924
0.008412546
0.01033117
0.008395955
0.01022566
-0.0002515724
-0.04095892
8.092365e-07
-0.0003317429
-0.04117392
-0.0004391809
-8.758171e-05
-0.04124765
-0.0006579667
-8.896176e-05
-0.04112287
-0.0006736779
-1.90799e-05
-0.04102059
-0.0007653732
2.343564e-05
-0.04100991
-0.0007279023
1.59991e-05
-0.04098479
-0.0007697288
6.67622e-05
-0.04097267
-0.0007202542
-0.04094575
-0.0007332524
8.97985e-05
-0.0007942589
-0.03524985
0.0001228591
-0.0003497075
-0.0414163
-0.0001020586
-0.0001682077
-0.04136354
-0.0001693326
-4.255319e-05
-0.04128916
-0.0003319647
-2.694551e-05
-0.04105403
-0.0003639244
-4.166567e-06
-0.04092828
-0.0004243215
5.780777e-05
-0.04099192
-0.0004318472
2.379648e-05
-0.04083819
-0.0004357149
0.0001157078
-0.04101682
-0.0004057136
-0.04087781
-0.0004105376
0.0001379991
1.105219e-05
-0.03532282
-2.994871e-05
-5.20163e-05
-0.04130927
-9.641187e-05
-2.14015e-05
-0.04138703
-8.388607e-05
4.995743e-05
-0.04131689
-0.0001231706
-2.834431e-05
-0.04088984
-0.0001621284
-4.230236e-05
-0.04084929
-0.0001499803
5.489109e-05
-0.0410423
-0.0001567591
3.21244e-05
-0.04077146
-0.0001331706
0.0001457414
-0.0411069
-0.000126108
-0.04088573
-0.0001011637
0.0001454454
9.571962e-06
-0.0352355
3.128626e-05
8.705112e-05
-0.0413198
3.379478e-05
9.636012e-05
-0.04136732
0.0001439706
8.409638e-05
-0.04120591
0.0001148291
6.279013e-05
-0.04082927
0.0001541487
7.135799e-05
-0.04081768
0.0001938889
0.0001381086
-0.04109889
0.0002186739
7.389609e-05
-0.04063763
0.0002054045
0.0001789973
-0.04118031
0.0002305429
-0.04081283
0.0002401031
0.000194165
-6.088863e-05
-0.03509482
-0.0001515871
-0.0001425449
-0.04109332
-0.0001613845
-6.936833e-05
-0.04149543
4.679272e-05
-6.18914e-05
-0.04128441
1.917086e-05
3.477011e-05
-0.04107859
0.0001806097
8.380178e-05
-0.04106674
0.0002910367
0.0001373562
-0.04131109
0.0003509954
0.0001045032
-0.04064024
0.0001439631
0.000199105
-0.04129252
0.0002610775
-0.04064544
0.0001045012
0.0001717204
0.0006463773
-0.035589
0.0001107476
0.001305186
-0.04157348
0.0003396259
0.001126271
-0.04105946
0.001215757
0.0007453266
-0.04072436
0.001665602
0.0005308198
-0.04062615
0.001993927
0.0004270871
-0.04066723
0.002078454
0.000348144
-0.0408799
0.002164701
0.0001690679
-0.03998186
0.001842994
0.0002730413
-0.04097924
0.002036441
-0.03982531
0.001661716
0.0002442647
0.0008522208
-0.0362901
-0.0001921971
0.0004318204
-0.04072414
-0.0001851185
0.0001022599
-0.04054435
0.0007036744
-0.000486757
-0.04018571
0.000341421
-0.0004421556
-0.04039988
0.0009870253
-0.000255976
-0.04092893
0.000220152
2.632967e-05
-0.04124875
0.001017539
6.086316e-05
-0.04021012
-7.201522e-05
0.0003078057
-0.04138982
0.001182388
-0.03972757
0.0003094015
0.0002390603
0.003302537
-0.009153989
0.0004808629
-0.01084735
-0.009175147
-0.0108367
0.004354821
-0.01039338
0.001305043
-0.01051075
-0.01023807
-0.01063209
0.003032277
-0.03751202
0.003212389
0.001474387
-0.03788413
0.007430265
0.00101169
-0.03994142
0.008781991
0.001217643
-0.04151343
0.009305248
0.00119825
-0.04244036
0.01072393
0.0007157595
-0.04085645
0.009553646
0.0009714004
-0.0429897
0.01089301
-0.0404869
0.01070574
0.0002487612
-5.347972e-05
5.852104e-05
3.187666e-05
-0.002651109
-0.001922629
-0.002646763
-0.001970405
-0.0001661687
0.000416747
-0.0007625697
-0.009680455
-0.0002009251
-0.003706656
-0.003286922
0.001759973
0.001993062
-0.0004631386
-0.001099699
0.002198396
-0.0003926591
0.001889345
-0.001053063
-0.002239749
-0.006240936
0.002226391
0.002650163
-0.0007888458
-0.000795505
-0.001560485
-0.00772863
0.002351922
0.002861248
-0.0007084208
-0.0006156336
-0.001276241
-0.008785887
0.002351624
0.002738844
-0.0007400793
-0.0005358912
-0.0008980032
-0.01000046
0.002373039
0.002834601
-0.0007340151
-0.0004582779
-0.0008674621
-0.009316689
0.002566623
0.003635013
-0.0006617621
-0.0002709441
-0.001127255
-0.01020486
0.003214192
0.002294162
-0.0004349068
-0.0007573879
-0.01034542
0.002985535
0.003056057
-0.0002048147
-8.713602e-05
-0.0001765853
7.353109e-12
-3.051267e-11
-1.386709e-11
6.92918e-11
-1.429207e-11
-1.795186e-11
-4.401932e-09
1.905173e-09
-1.150503e-11
5.520139e-10
6.127601e-10
5.710676e-10
5.824969e-10
1.083286e-10
1.305675e-10
9.326103e-11
1.917335e-10
-6.098798e-09
1.864788e-09
1.690115e-10
-8.06404e-09
2.272497e-09
-3.146412e-11
-1.012594e-08
2.468135e-09
-6.726104e-12
-1.250003e-08
2.795894e-09
1.082505e-10
-1.512674e-08
3.05152e-09
1.708038e-10
-1.790365e-08
3.358636e-09
2.452283e-10
-2.090019e-08
3.662626e-09
9.041648e-11
4.087229e-09
1.231571e-10
-2.428265e-08
-1.673117e-09
4.536075e-09
1.115603e-10
-6.861267e-10
-8.481878e-10
-7.306738e-10
-6.418993e-10
-1.035585e-10
-1.35932e-10
1.461226e-10
2.586704e-11
-4.555425e-09
4.889676e-09
1.495493e-10
-7.291784e-09
4.626634e-09
6.879514e-11
-9.83543e-09
4.917877e-09
1.098227e-10
-1.250052e-08
5.24417e-09
9.96406e-11
-1.52812e-08
5.76836e-09
1.86931e-10
-1.83058e-08
6.317444e-09
2.000626e-10
-2.165251e-08
6.918931e-09
2.44379e-10
-2.542569e-08
7.609564e-09
2.027372e-10
8.460313e-09
2.19668e-10
-2.964526e-08
-1.689537e-09
6.197233e-09
-1.637993e-10
-1.694914e-10
-1.032279e-11
2.664024e-10
1.056883e-10
-3.910945e-09
7.134643e-09
-2.889176e-11
-6.547267e-09
7.259164e-09
-8.690847e-11
-9.119856e-09
7.515121e-09
5.253942e-11
-1.17781e-08
7.95091e-09
1.265938e-10
-1.456021e-08
8.593464e-09
2.068218e-10
-1.753064e-08
9.33688e-09
2.661127e-10
-2.074595e-08
1.020869e-08
2.936512e-10
-2.428054e-08
1.123427e-08
3.041577e-10
1.249755e-08
3.500065e-10
-2.822608e-08
-1.664829e-09
7.836958e-09
-4.68146e-12
-2.891541e-10
-5.297047e-11
2.882146e-10
8.378523e-11
-3.704471e-09
9.191644e-09
1.799865e-11
-5.973916e-09
9.444922e-09
-4.104524e-11
-8.292143e-09
9.826672e-09
3.515575e-11
-1.069421e-08
1.031268e-08
8.349896e-11
-1.320155e-08
1.106283e-08
1.507546e-10
-1.588194e-08
1.196125e-08
1.721357e-10
-1.87955e-08
1.306778e-08
2.046373e-10
-2.200058e-08
1.438138e-08
2.189973e-10
1.597288e-08
2.522784e-10
-2.553617e-08
-1.566308e-09
9.321696e-09
-3.072439e-11
-3.120374e-10
-5.308165e-11
3.625153e-10
1.149755e-10
-3.363843e-09
1.102039e-08
-3.221944e-11
-5.355009e-09
1.139058e-08
-1.039213e-10
-7.417255e-09
1.188757e-08
-3.408179e-11
-9.573795e-09
1.246714e-08
9.939199e-12
-1.183742e-08
1.331469e-08
6.902564e-11
-1.424665e-08