/*--------------------------------*- C++ -*----------------------------------*\
  =========                 |
  \\      /  F ield         | OpenFOAM: The Open Source CFD Toolbox
   \\    /   O peration     | Website:  https://openfoam.org
    \\  /    A nd           | Version:  7
     \\/     M anipulation  |
\*---------------------------------------------------------------------------*/
FoamFile
{
    version     2.0;
    format      ascii;
    class       volScalarField;
    location    "0.09";
    object      k;
}
// * * * * * * * * * * * * * * * * * * * * * * * * * * * * * * * * * * * * * //

dimensions      [0 2 -2 0 0 0 0];

internalField   nonuniform List<scalar> 
109978
(
0.003726853
0.003737945
0.003736499
0.003735575
0.003734562
0.003733517
0.003727225
0.003739261
0.003737405
0.003736508
0.003735311
0.003734195
0.003726899
0.003739495
0.003737525
0.003736625
0.003735394
0.003734272
0.003727277
0.003739573
0.003737643
0.003736723
0.003735487
0.003734359
0.003727613
0.003739739
0.003737776
0.003736819
0.003735584
0.003734449
0.003727947
0.003739917
0.003737938
0.003736955
0.003735715
0.003734579
0.00372825
0.003740124
0.003738138
0.003737128
0.003735889
0.003734755
0.003728668
0.003740359
0.00373837
0.003737335
0.003736094
0.003734961
0.00372912
0.003740652
0.003738642
0.003737579
0.003736332
0.003735199
0.003729548
0.003740992
0.003738933
0.003737856
0.00373661
0.003735475
0.003729947
0.003741375
0.003739245
0.003738152
0.003736896
0.003735756
0.003730354
0.003741752
0.003739572
0.00373848
0.003737223
0.003736082
0.003730781
0.003742156
0.003739941
0.003738847
0.003737585
0.003736439
0.003731218
0.00374257
0.003740347
0.003739248
0.003737978
0.003736827
0.003731666
0.003743012
0.003740784
0.00373968
0.003738401
0.003737243
0.00373213
0.003743484
0.003741252
0.003740142
0.003738854
0.003737687
0.003732617
0.003743988
0.00374175
0.003740634
0.003739336
0.00373816
0.003733135
0.003744523
0.00374228
0.003741157
0.003739848
0.003738662
0.003733684
0.003745095
0.003742843
0.003741712
0.003740389
0.003739193
0.003734253
0.003745697
0.003743439
0.0037423
0.003740963
0.003739753
0.00373486
0.003746335
0.00374407
0.003742922
0.003741568
0.003740344
0.003735498
0.003747012
0.003744738
0.00374358
0.003742206
0.003740967
0.003447923
0.00374775
0.003745445
0.003744273
0.003742879
0.003741622
0.003725474
0.003737882
0.003736332
0.003735289
0.003734166
0.003733032
0.003469774
0.003444429
0.003442392
0.003442314
0.003442232
0.003442228
0.003468127
0.003443204
0.003442387
0.00344229
0.003442223
0.003442225
0.003467153
0.003443061
0.003442391
0.003442266
0.003442237
0.003442237
0.003466939
0.003443162
0.003442399
0.003442278
0.003442254
0.003442253
0.003467102
0.003443311
0.003442407
0.003442302
0.003442275
0.003442275
0.003467634
0.003443313
0.003442412
0.003442326
0.003442297
0.003442296
0.003467538
0.003443174
0.003442417
0.003442348
0.00344232
0.003442319
0.00346745
0.003443065
0.003442431
0.003442369
0.003442344
0.003442342
0.003467858
0.003442975
0.003442449
0.003442387
0.003442368
0.003442365
0.003468414
0.00344296
0.003442471
0.003442406
0.00344239
0.003442386
0.003468863
0.003442953
0.003442492
0.003442426
0.003442413
0.003442408
0.003469337
0.003442965
0.003442515
0.003442449
0.003442435
0.00344243
0.003469883
0.003442973
0.003442537
0.003442471
0.003442457
0.003442452
0.003470395
0.003442992
0.003442562
0.003442494
0.003442479
0.003442474
0.00347093
0.003443012
0.003442587
0.003442517
0.003442502
0.003442497
0.003471567
0.003443034
0.003442612
0.003442541
0.003442525
0.003442519
0.003472198
0.00344306
0.003442637
0.003442564
0.003442548
0.003442542
0.003472861
0.003443089
0.003442663
0.003442589
0.003442572
0.003442566
0.003473567
0.003443118
0.00344269
0.003442613
0.003442596
0.003442589
0.003474276
0.003443147
0.003442717
0.003442638
0.00344262
0.003442614
0.003474978
0.003443185
0.003442745
0.003442663
0.003442645
0.003442638
0.00347572
0.003443231
0.003442775
0.003442689
0.00344267
0.003442663
0.003474158
0.00344328
0.003442806
0.003442715
0.003442696
0.003442689
0.003725993
0.003740147
0.003737758
0.003736629
0.003735479
0.003734351
0.003469812
0.003443564
0.003442371
0.003442244
0.003442199
0.003442195
0.003472813
0.003443137
0.003442394
0.003442354
0.003442216
0.003442215
0.003468012
0.003443186
0.003442338
0.0034423
0.003442227
0.003442219
0.003469585
0.003443245
0.003442329
0.003442364
0.003442246
0.003442258
0.003468543
0.003443131
0.003442345
0.003442377
0.003442269
0.003442267
0.003468165
0.00344305
0.003442368
0.003442394
0.003442289
0.003442294
0.003467932
0.003442948
0.003442387
0.003442397
0.003442311
0.003442311
0.003467923
0.003442894
0.003442403
0.003442384
0.003442329
0.003442331
0.003468231
0.003442894
0.003442418
0.003442394
0.003442348
0.003442351
0.003468883
0.0034429
0.003442437
0.003442408
0.003442368
0.003442371
0.003469163
0.003442887
0.003442458
0.003442424
0.003442388
0.003442392
0.003469307
0.003442894
0.003442481
0.003442446
0.003442409
0.003442413
0.00346942
0.003442913
0.003442506
0.003442475
0.003442432
0.003442436
0.003469909
0.003442937
0.00344253
0.003442508
0.003442455
0.003442459
0.003470553
0.003442964
0.003442556
0.003442532
0.003442478
0.003442482
0.003471145
0.003442987
0.003442581
0.003442557
0.003442501
0.003442505
0.003471551
0.003443011
0.003442606
0.003442579
0.003442524
0.003442528
0.003472019
0.003443034
0.003442631
0.003442601
0.003442547
0.003442552
0.003472659
0.003443058
0.003442658
0.003442624
0.003442571
0.003442576
0.003473152
0.003443085
0.003442685
0.003442651
0.003442595
0.003442601
0.003473741
0.003443112
0.003442713
0.003442678
0.003442619
0.003442626
0.003474381
0.003443138
0.00344274
0.003442703
0.003442644
0.003442652
0.003475215
0.003443166
0.003442767
0.003442727
0.003442669
0.003442677
0.003724359
0.003740557
0.003737988
0.00373684
0.003735537
0.003734356
0.003466676
0.003443396
0.003442352
0.003442176
0.003442181
0.003442182
0.003470129
0.003443539
0.003442283
0.003442428
0.003442212
0.003442215
0.003469096
0.00344316
0.003442294
0.003442283
0.00344223
0.003442222
0.003467346
0.003442896
0.003442292
0.003442287
0.003442249
0.003442241
0.003467128
0.003442853
0.003442309
0.003442286
0.003442265
0.003442262
0.003467305
0.003442822
0.00344233
0.0034423
0.003442284
0.003442278
0.003467455
0.003442805
0.003442346
0.003442321
0.003442306
0.003442303
0.00346725
0.003442829
0.003442367
0.003442344
0.003442327
0.003442325
0.003467484
0.003442851
0.003442392
0.003442369
0.003442349
0.003442345
0.003467999
0.003442863
0.003442412
0.003442383
0.003442369
0.003442362
0.003468329
0.003442912
0.003442433
0.003442407
0.003442391
0.003442385
0.003468961
0.003442919
0.003442453
0.003442431
0.003442412
0.003442408
0.003469327
0.003442906
0.003442473
0.003442448
0.003442433
0.003442427
0.003470191
0.003442922
0.003442496
0.003442465
0.003442453
0.003442448
0.003471063
0.00344294
0.00344252
0.003442488
0.003442476
0.003442471
0.003471693
0.003442962
0.003442544
0.00344251
0.003442498
0.003442493
0.003472078
0.003442983
0.003442568
0.003442532
0.00344252
0.003442515
0.003472527
0.003443006
0.003442593
0.003442557
0.003442544
0.003442537
0.003473214
0.00344303
0.003442618
0.003442583
0.003442569
0.003442561
0.003473959
0.003443058
0.003442645
0.00344261
0.003442595
0.003442587
0.003474433
0.003443084
0.00344267
0.003442635
0.003442619
0.003442612
0.003475167
0.00344311
0.003442696
0.00344266
0.003442644
0.003442636
0.003476107
0.003443137
0.003442723
0.003442684
0.003442669
0.003442661
0.003724332
0.003740286
0.003738141
0.003737091
0.003735601
0.003734436
0.003466481
0.003443258
0.003442336
0.003442179
0.003442172
0.003442175
0.003479345
0.003443597
0.003442289
0.003442402
0.003442213
0.003442223
0.003469647
0.003443102
0.003442317
0.003442307
0.003442247
0.003442226
0.003467169
0.003442818
0.003442299
0.003442308
0.003442248
0.003442256
0.00346695
0.003442767
0.003442305
0.003442288
0.003442264
0.003442261
0.003467075
0.003442774
0.00344232
0.003442312
0.00344228
0.003442284
0.00346719
0.003442781
0.00344234
0.003442335
0.003442299
0.003442308
0.003467461
0.00344279
0.003442361
0.003442354
0.003442322
0.003442327
0.003467559
0.003442827
0.003442388
0.003442379
0.003442345
0.003442349
0.003467899
0.003442814
0.003442407
0.003442398
0.003442366
0.003442367
0.00346792
0.003442829
0.003442426
0.003442411
0.003442384
0.003442386
0.003468226
0.003442879
0.003442452
0.003442442
0.003442408
0.00344241
0.003469817
0.003442958
0.003442478
0.003442493
0.00344243
0.003442436
0.003470689
0.00344297
0.003442502
0.003442517
0.003442454
0.003442459
0.003471414
0.003442995
0.003442523
0.003442532
0.003442474
0.003442481
0.003472015
0.003443013
0.003442546
0.003442555
0.003442497
0.003442502
0.003472568
0.003443042
0.003442568
0.003442576
0.003442517
0.003442525
0.00347315
0.003443053
0.003442592
0.003442594
0.003442541
0.003442547
0.003473724
0.003443068
0.003442615
0.003442613
0.003442564
0.00344257
0.003473992
0.003443083
0.003442639
0.003442632
0.003442588
0.003442594
0.003474582
0.0034431
0.003442662
0.003442651
0.003442611
0.003442618
0.003475457
0.003443114
0.003442685
0.003442673
0.003442635
0.003442642
0.003476433
0.003443137
0.00344271
0.003442698
0.00344266
0.003442667
0.003724261
0.003740163
0.003737955
0.003736698
0.003735493
0.003734268
0.003467781
0.003443229
0.003442338
0.003442179
0.003442172
0.003442175
0.003475884
0.003443608
0.003442288
0.003442404
0.003442214
0.003442224
0.003470503
0.003443101
0.003442317
0.003442308
0.003442248
0.003442226
0.003466949
0.003442815
0.003442299
0.003442308
0.003442248
0.003442256
0.003466954
0.003442767
0.003442307
0.003442289
0.003442264
0.003442261
0.003467012
0.003442772
0.003442323
0.003442313
0.00344228
0.003442284
0.003467099
0.00344278
0.003442343
0.003442336
0.0034423
0.003442309
0.003467197
0.00344279
0.003442364
0.003442355
0.003442323
0.003442327
0.003467254
0.003442827
0.00344239
0.00344238
0.003442345
0.003442349
0.003467496
0.003442813
0.00344241
0.003442399
0.003442367
0.003442367
0.003468138
0.003442829
0.003442428
0.003442412
0.003442385
0.003442386
0.003469028
0.003442878
0.003442454
0.003442442
0.003442409
0.00344241
0.003470059
0.003442958
0.00344248
0.003442493
0.003442431
0.003442436
0.003471327
0.00344297
0.003442504
0.003442518
0.003442454
0.003442459
0.003472086
0.003442994
0.003442525
0.003442532
0.003442474
0.003442481
0.003472623
0.003443012
0.003442548
0.003442555
0.003442497
0.003442502
0.003473128
0.003443042
0.003442571
0.003442576
0.003442518
0.003442525
0.003473642
0.003443052
0.003442594
0.003442594
0.003442541
0.003442547
0.00347411
0.003443066
0.003442618
0.003442612
0.003442565
0.00344257
0.003474582
0.003443084
0.003442641
0.003442632
0.003442589
0.003442593
0.003475271
0.003443099
0.003442665
0.003442651
0.003442612
0.003442618
0.003475701
0.003443114
0.003442688
0.003442672
0.003442636
0.003442642
0.003476496
0.003443137
0.003442713
0.003442699
0.003442661
0.003442667
0.003725388
0.003740211
0.003737832
0.003736685
0.003735453
0.003734271
0.003466257
0.003443377
0.003442354
0.003442176
0.003442181
0.003442183
0.003475127
0.003443531
0.003442283
0.003442427
0.003442212
0.003442215
0.003469036
0.003443162
0.003442293
0.003442282
0.003442229
0.003442222
0.003467138
0.003442895
0.003442294
0.003442287
0.00344225
0.003442241
0.003467149
0.003442848
0.003442312
0.003442286
0.003442266
0.003442262
0.003467233
0.003442819
0.003442334
0.0034423
0.003442285
0.003442278
0.003467605
0.003442803
0.003442351
0.003442321
0.003442307
0.003442304
0.003467257
0.003442827
0.003442372
0.003442344
0.003442328
0.003442325
0.003467351
0.00344285
0.003442397
0.00344237
0.00344235
0.003442345
0.003467706
0.003442862
0.003442416
0.003442384
0.00344237
0.003442362
0.003468511
0.003442908
0.003442438
0.003442407
0.003442392
0.003442385
0.003469333
0.003442916
0.003442458
0.003442432
0.003442413
0.003442408
0.003469892
0.003442903
0.003442479
0.003442449
0.003442434
0.003442427
0.003470513
0.003442919
0.003442501
0.003442466
0.003442455
0.003442449
0.003471252
0.003442936
0.003442526
0.003442489
0.003442478
0.003442472
0.003471837
0.003442958
0.00344255
0.003442511
0.003442499
0.003442494
0.003472382
0.003442979
0.003442574
0.003442533
0.003442522
0.003442516
0.003472866
0.003443002
0.0034426
0.003442558
0.003442546
0.003442538
0.003473342
0.003443026
0.003442626
0.003442584
0.003442571
0.003442562
0.003474167
0.003443054
0.003442652
0.003442611
0.003442596
0.003442588
0.003474711
0.003443079
0.003442678
0.003442636
0.003442621
0.003442612
0.003475491
0.003443105
0.003442704
0.003442661
0.003442645
0.003442637
0.003476351
0.003443131
0.003442731
0.003442685
0.003442669
0.003442662
0.003725621
0.003739991
0.0037377
0.003737081
0.003735584
0.00373443
0.003468371
0.003443538
0.003442385
0.003442241
0.003442201
0.003442195
0.003471934
0.003443133
0.003442405
0.00344235
0.003442216
0.003442215
0.00347246
0.003443179
0.003442345
0.003442297
0.003442226
0.003442219
0.003467893
0.003443237
0.003442336
0.003442362
0.003442246
0.003442258
0.003467483
0.003443124
0.003442354
0.003442376
0.00344227
0.003442267
0.003467524
0.003443043
0.003442378
0.003442394
0.00344229
0.003442294
0.003467467
0.003442941
0.003442398
0.003442397
0.003442312
0.003442311
0.003467328
0.003442888
0.003442414
0.003442384
0.00344233
0.003442331
0.00346732
0.003442889
0.00344243
0.003442394
0.00344235
0.003442351
0.003467678
0.003442895
0.003442448
0.003442408
0.00344237
0.003442371
0.003468299
0.003442883
0.00344247
0.003442424
0.00344239
0.003442392
0.003468879
0.003442888
0.003442494
0.003442446
0.003442411
0.003442413
0.003469691
0.003442906
0.003442518
0.003442475
0.003442434
0.003442436
0.003470268
0.003442929
0.003442543
0.003442508
0.003442457
0.003442459
0.003470901
0.003442956
0.003442569
0.003442532
0.00344248
0.003442482
0.003471455
0.003442979
0.003442594
0.003442557
0.003442503
0.003442505
0.003471958
0.003443002
0.00344262
0.003442579
0.003442526
0.003442528
0.003472444
0.003443026
0.003442645
0.003442601
0.003442549
0.003442552
0.003472997
0.00344305
0.003442673
0.003442625
0.003442573
0.003442576
0.003473659
0.003443076
0.0034427
0.003442651
0.003442597
0.003442601
0.003474277
0.003443102
0.003442728
0.003442678
0.003442621
0.003442626
0.003475028
0.003443127
0.003442755
0.003442702
0.003442646
0.003442652
0.003475914
0.003443155
0.003442783
0.003442728
0.003442671
0.003442678
0.003726256
0.003740395
0.003737356
0.003736873
0.0037353
0.003734154
0.003474044
0.003444422
0.003442389
0.003442316
0.003442231
0.003442227
0.003470463
0.003443179
0.003442387
0.003442282
0.003442222
0.003442224
0.003470288
0.003443036
0.003442391
0.00344226
0.003442236
0.003442236
0.003469434
0.00344314
0.003442398
0.003442273
0.003442254
0.003442251
0.003468715
0.003443291
0.003442407
0.003442297
0.003442275
0.003442273
0.003468476
0.003443297
0.003442411
0.003442322
0.003442297
0.003442294
0.003468408
0.003443162
0.003442417
0.003442344
0.00344232
0.003442318
0.003468092
0.003443055
0.003442431
0.003442366
0.003442344
0.003442341
0.003467811
0.003442965
0.003442449
0.003442384
0.003442367
0.003442364
0.00346806
0.00344295
0.003442471
0.003442404
0.00344239
0.003442386
0.003468268
0.003442944
0.003442492
0.003442424
0.003442412
0.003442407
0.00346852
0.003442955
0.003442514
0.003442447
0.003442435
0.003442429
0.003469139
0.003442963
0.003442537
0.003442469
0.003442457
0.003442451
0.003469878
0.003442981
0.003442562
0.003442492
0.003442479
0.003442473
0.003470368
0.003443
0.003442587
0.003442515
0.003442502
0.003442496
0.003470764
0.003443022
0.003442612
0.003442539
0.003442525
0.003442519
0.003471277
0.003443048
0.003442637
0.003442562
0.003442548
0.003442542
0.003471769
0.003443076
0.003442663
0.003442587
0.003442572
0.003442565
0.003472211
0.003443104
0.003442689
0.003442611
0.003442595
0.003442589
0.00347275
0.003443133
0.003442717
0.003442636
0.00344262
0.003442613
0.003473368
0.00344317
0.003442745
0.00344266
0.003442644
0.003442637
0.003474103
0.003443215
0.003442774
0.003442687
0.003442668
0.003442663
0.003474157
0.003443265
0.003442804
0.003442713
0.003442692
0.003442686
0.003749139
0.00376349
0.003756495
0.003754186
0.003748982
0.003744717
0.003534279
0.003446752
0.003445795
0.003444876
0.003445106
0.003444884
0.00344483
0.00358814
0.003448495
0.003445599
0.003444509
0.0034449
0.003444604
0.003444605
0.003554461
0.003448924
0.003445847
0.003444597
0.003445003
0.003444674
0.003444655
0.003541588
0.003448869
0.00344593
0.003444681
0.003445049
0.003444725
0.003444707
0.003532557
0.003448682
0.003446006
0.003444768
0.003445119
0.003444814
0.003444777
0.003527328
0.003448529
0.003446055
0.003444862
0.003445173
0.003444872
0.003444837
0.003526912
0.003448345
0.003446071
0.003444958
0.003445228
0.003444939
0.003444904
0.003526413
0.003448194
0.003446078
0.003445049
0.003445282
0.003444998
0.003444964
0.003527076
0.003448148
0.00344611
0.003445141
0.003445339
0.003445062
0.003445027
0.003527682
0.003448216
0.003446177
0.003445225
0.003445405
0.003445131
0.003445094
0.003530036
0.003448232
0.003446277
0.003445306
0.003445476
0.003445206
0.003445166
0.00353274
0.003448227
0.003446362
0.003445381
0.003445547
0.003445275
0.003445236
0.003535711
0.003448246
0.003446442
0.003445455
0.003445621
0.003445347
0.003445308
0.003538857
0.003448313
0.003446528
0.00344553
0.003445697
0.003445421
0.003445382
0.003542222
0.003448397
0.003446614
0.003445607
0.003445774
0.003445497
0.003445456
0.003545759
0.003448452
0.003446702
0.003445685
0.003445852
0.003445572
0.003445529
0.00354951
0.003448514
0.003446791
0.003445763
0.00344593
0.003445647
0.003445603
0.003553593
0.003448594
0.003446881
0.003445842
0.003446008
0.003445723
0.003445677
0.003557979
0.00344867
0.003446974
0.003445921
0.003446087
0.003445798
0.003445751
0.003562688
0.003448742
0.003447069
0.003446001
0.003446168
0.003445873
0.003445824
0.003567726
0.003448827
0.003447166
0.00344608
0.003446247
0.003445947
0.003445898
0.003573307
0.003448916
0.003447262
0.003446157
0.003446326
0.00344602
0.003445969
0.0035794
0.003734362
0.003447351
0.003446232
0.003446399
0.003446086
0.003446039
0.00374292
0.003749839
0.003522326
0.003450837
0.00373846
0.003738231
0.003533985
0.003455157
0.003608786
0.003461036
0.00374024
0.003734688
0.00358811
0.003460234
0.003514949
0.003461297
0.003739991
0.003734623
0.003554388
0.003459013
0.00351576
0.003459659
0.003739903
0.003734512
0.003541502
0.003457009
0.003516815
0.003458034
0.003740395
0.003734747
0.003532463
0.003455429
0.003519274
0.003456156
0.003741207
0.003735222
0.003527227
0.003454067
0.003522557
0.003454878
0.003741656
0.003735388
0.003526818
0.003453213
0.003530238
0.003453969
0.0037423
0.003735732
0.003526366
0.003452058
0.00353652
0.003452137
0.003743173
0.003736197
0.003527028
0.003450988
0.003540344
0.003451063
0.003744392
0.003736855
0.003527627
0.00345033
0.003544289
0.003450437
0.003745725
0.003737641
0.003529975
0.003449663
0.00354881
0.003450215
0.003746943
0.003738479
0.003532681
0.003448964
0.003553369
0.003450075
0.003748138
0.003739383
0.003535648
0.003448604
0.00355745
0.003449897
0.003749447
0.003740371
0.003538797
0.003448261
0.003561316
0.003449792
0.003750873
0.003741393
0.003542156
0.003447999
0.003565577
0.003449775
0.003752275
0.003742481
0.003545692
0.003447859
0.00357007
0.003449783
0.00375368
0.003743681
0.003549433
0.003447702
0.003574657
0.003449791
0.003755134
0.003745012
0.003553518
0.00344755
0.003579452
0.003449783
0.003756655
0.003746441
0.003557896
0.003447423
0.003584602
0.003449756
0.003758244
0.003747974
0.003562606
0.003447354
0.003589696
0.003449719
0.003759925
0.003749603
0.003567639
0.003447288
0.003594703
0.003449663
0.003761706
0.003751328
0.003573224
0.003447233
0.003599921
0.003449621
0.003763558
0.003453864
0.003579319
0.003447209
0.003605321
0.003449553
0.00373204
0.003524775
0.00345191
0.003734437
0.003584478
0.003457988
0.003736924
0.003517319
0.003455811
0.003733559
0.003587286
0.0034566
0.00372991
0.003514365
0.003456021
0.003731665
0.003561876
0.003455164
0.003727233
0.003515539
0.003454601
0.003730733
0.003523001
0.003456075
0.003728179
0.003570333
0.003456916
0.003731374
0.00351426
0.003455235
0.003731203
0.003569135
0.003454998
0.003732176
0.003514472
0.003456013
0.003733178
0.003586018
0.003456374
0.003736508
0.003516869
0.003455768
0.003735018
0.003584162
0.003458051
0.003731838
0.003525366
0.003451788
0.003750205
0.00352225
0.003450786
0.003742997
0.003756567
0.003443323
0.003443958
0.003743461
0.003744633
0.003753268
0.003443786
0.003443269
0.00374916
0.003741853
0.003751201
0.003443293
0.003443239
0.003744671
0.003739861
0.003746279
0.003443289
0.003443129
0.003742389
0.003736876
0.003742645
0.0034432
0.003443098
0.00373921
0.003734189
0.003443149
0.003736374
0.003455153
0.003608779
0.003461052
0.003738473
0.003738229
0.003460234
0.003514973
0.003461302
0.003740248
0.003734684
0.003459005
0.003515776
0.003459658
0.003739988
0.003734622
0.003457002
0.003516831
0.003458034
0.003739899
0.00373451
0.003455424
0.003519281
0.003456156
0.003740392
0.003734745
0.003454058
0.00352256
0.003454878
0.003741204
0.003735222
0.003452186
0.003536483
0.003452148
0.00374232
0.00373573
0.003450994
0.003540342
0.003451066
0.003743175
0.003736191
0.003450337
0.003544285
0.003450443
0.003744396
0.003736847
0.003449673
0.003548788
0.003450218
0.003745728
0.003737633
0.00344896
0.003553357
0.003450081
0.003746945
0.003738474
0.0034486
0.003557435
0.003449902
0.003748141
0.003739378
0.00344825
0.003561309
0.003449797
0.00374945
0.003740368
0.003447993
0.00356558
0.003449778
0.003750878
0.003741389
0.00344785
0.003570079
0.003449787
0.003752281
0.003742479
0.003447695
0.003574673
0.003449793
0.003753688
0.003743677
0.003447541
0.00357948
0.003449784
0.003755141
0.003745008
0.003447418
0.00358464
0.003449757
0.003756666
0.003746436
0.003447347
0.003589738
0.00344972
0.003758255
0.003747972
0.003447287
0.003594743
0.003449663
0.003759942
0.003749604
0.003447231
0.003599976
0.00344962
0.003761724
0.003751335
0.00344721
0.003605377
0.003449574
0.003763583
0.003453857
0.003472962
0.003747106
0.00374342
0.003744628
0.003748911
0.003756581
0.003443326
0.003443958
0.00374916
0.00374186
0.00376353
0.00375347
0.003443789
0.003443269
0.003744689
0.003739871
0.003756574
0.003751216
0.003443293
0.003443239
0.0037424
0.003736884
0.003754206
0.003746283
0.003443291
0.003443129
0.003739218
0.003734195
0.003748968
0.00374265
0.003443202
0.003443098
0.003736379
0.003744684
0.003443151
0.003463955
0.003733477
0.003454298
0.00371991
0.003456417
0.003738369
0.003458604
0.003732751
0.003455897
0.003742759
0.003453998
0.003736469
0.003455025
0.003751071
0.003452586
0.003741166
0.003453893
0.003757715
0.003451548
0.003744517
0.003448766
0.003762044
0.00345173
0.00374641
0.003448687
0.003763633
0.003452044
0.003747578
0.003448656
0.003764521
0.003452233
0.003746759
0.00344854
0.00376535
0.003451294
0.003746027
0.003448966
0.003767178
0.003450016
0.003746122
0.003449483
0.003768584
0.003449731
0.003746796
0.003449698
0.003769901
0.00345
0.003748045
0.003449938
0.003771341
0.003450541
0.003749541
0.003450307
0.003772847
0.003451294
0.003751554
0.003450922
0.003774436
0.003452271
0.003753732
0.003451789
0.003776039
0.003453516
0.003756129
0.003452928
0.003777632
0.003454985
0.003759093
0.003454231
0.003779326
0.00345668
0.003762162
0.003455677
0.00378118
0.003458558
0.003765427
0.003457251
0.003783412
0.00346057
0.003768806
0.003458886
0.003786111
0.003462743
0.003772335
0.003460623
0.003789275
0.003465029
0.003776103
0.00346247
0.003792814
0.003467476
0.003780063
0.003474663
0.003464789
0.003485789
0.003491724
0.00350017
0.003500725
0.003506715
0.003497034
0.00350342
0.003496704
0.003509474
0.003498619
0.003506175
0.003495648
0.00348313
0.003478583
0.003461083
0.003484394
0.003453204
0.003530233
0.003453981
0.003741661
0.003735393
0.003460465
0.0037649
0.003453634
0.003738478
0.003452906
0.003719168
0.003465773
0.003721818
0.003460436
0.003482932
0.003471902
0.003730379
0.003458387
0.003723267
0.003455593
0.003734707
0.003455652
0.003742624
0.0034537
0.003738209
0.003455657
0.003748042
0.003452144
0.003742517
0.003455245
0.003754109
0.003451525
0.00374541
0.003451217
0.003761175
0.003451893
0.003747085
0.003448691
0.003763847
0.003452099
0.003746473
0.003448651
0.003765136
0.003451961
0.003745764
0.003448535
0.003765308
0.003450643
0.003745762
0.003450282
0.003766332
0.003449423
0.003745783
0.003449749
0.00376817
0.003449379
0.003746811
0.003449832
0.003769485
0.003449606
0.003748127
0.00345001
0.003770785
0.003449957
0.00374995
0.003450412
0.003772036
0.003450382
0.003751959
0.003451014
0.0037734
0.003450967
0.003754397
0.003451927
0.00377474
0.003451882
0.003756958
0.003453128
0.003775998
0.003452923
0.003759885
0.00345452
0.00377745
0.003454136
0.00376307
0.003455996
0.003779051
0.003455574
0.003766481
0.003457596
0.003780915
0.003457166
0.003769992
0.003459281
0.003783092
0.003458831
0.003773705
0.003461066
0.003785732
0.003460616
0.003777645
0.003462944
0.00378883
0.003462587
0.003781725
0.003616491
0.003792234
0.003464625
0.003483803
0.00347629
0.003501198
0.003494104
0.003509977
0.003505712
0.003498293
0.003501672
0.003506233
0.003508114
0.00349604
0.003506078
0.003484207
0.00349389
0.003475144
0.003467019
0.003473603
0.003751939
0.003460333
0.003765022
0.003453583
0.003741538
0.00345324
0.00372039
0.003466216
0.003721836
0.003448027
0.003772409
0.003447897
0.003760941
0.003447374
0.003762208
0.003447162
0.003766205
0.003447593
0.003772808
0.003447104
0.003761385
0.003447465
0.003758085
0.003446377
0.003766801
0.003447419
0.003766421
0.003447028
0.003755181
0.003447254
0.003752748
0.003446255
0.003760612
0.003447281
0.003761133
0.003446927
0.003749676
0.003447157
0.003746641
0.003446103
0.003754691
0.003447108
0.003754404
0.003446796
0.003743255
0.003447065
0.003748325
0.003447798
0.003463955
0.0037335
0.003454322
0.003719933
0.003471902
0.003730368
0.003458401
0.003723341
0.003456415
0.003738345
0.003458515
0.003732739
0.003455589
0.003734704
0.003455667
0.003742613
0.003455895
0.003742733
0.00345391
0.003736472
0.003453695
0.003738212
0.003455682
0.003748045
0.003455025
0.003751061
0.003452466
0.003741166
0.003452144
0.003742516
0.003455271
0.003754117
0.003453898
0.003757708
0.00345141
0.003744515
0.003451524
0.003745406
0.003451231
0.003761176
0.003448768
0.003762035
0.003451549
0.003746404
0.003451892
0.003747078
0.003448699
0.003763844
0.00344866
0.003764533
0.003452231
0.003746765
0.003451961
0.003745771
0.00344854
0.003765321
0.003448534
0.003765353
0.003450988
0.003746029
0.003450647
0.003745757
0.003450319
0.003766339
0.003448954
0.003767182
0.003449667
0.003746129
0.003449427
0.003745786
0.00344978
0.003768173
0.003449475
0.003768586
0.003449357
0.003746798
0.003449381
0.003746794
0.003449852
0.003769481
0.003449692
0.003769897
0.003449595
0.003748049
0.003449607
0.003748126
0.003450021
0.003770791
0.003449925
0.003771353
0.003450099
0.003749537
0.00344996
0.003749934
0.003450416
0.003772037
0.003450291
0.003772858
0.003450822
0.003751559
0.003450382
0.003751961
0.003451021
0.003773407
0.003450905
0.003774465
0.003451776
0.003753735
0.003450969
0.00375439
0.003451934
0.003774741
0.003452408
0.003756962
0.003453154
0.003775963
0.003452905
0.003777692
0.003454437
0.003759097
0.003452926
0.003759884
0.003454528
0.003777453
0.003454204
0.003779389
0.003456103
0.00376217
0.003454137
0.003763068
0.003456002
0.003779072
0.00345565
0.003781281
0.003457957
0.003765425
0.003455576
0.003766474
0.003457605
0.003780919
0.003457218
0.003783502
0.003459944
0.003768811
0.003457166
0.003769994
0.003459289
0.003783098
0.003458853
0.003786242
0.003462095
0.003772346
0.003458835
0.003773717
0.003461075
0.003785749
0.003460583
0.003789429
0.003464358
0.003776126
0.00346062
0.003777675
0.003462955
0.003788857
0.003462432
0.003793013
0.003466781
0.003780102
0.003462597
0.003472954
0.003792272
0.003464754
0.00370269
0.003752192
0.003772284
0.003447904
0.003446823
0.003760878
0.003447721
0.003772737
0.003448336
0.003761403
0.003447543
0.003766421
0.003448231
0.00375522
0.0034474
0.003761166
0.003448108
0.003749702
0.00344722
0.003754476
0.003447947
0.003743268
0.003447066
0.003748326
0.003447799
0.003737094
0.003587235
0.003722432
0.003592952
0.003693977
0.003594062
0.003732006
0.003601053
0.003701681
0.003587062
0.003739563
0.003578761
0.003712926
0.00358197
0.003745035
0.003554059
0.003722993
0.003571382
0.003749064
0.003546119
0.003730644
0.003559405
0.003749999
0.00354521
0.003734699
0.003553124
0.003750159
0.00354655
0.003737771
0.00355027
0.00375037
0.003548
0.003740414
0.00355101
0.003750903
0.003551024
0.003742632
0.003553872
0.003751413
0.003554583
0.003744334
0.003557607
0.003751742
0.00355844
0.003745162
0.003561266
0.003752117
0.003562864
0.003746029
0.003565008
0.003752482
0.003567625
0.003746884
0.003568964
0.003752835
0.003572705
0.003747673
0.003573334
0.003753134
0.003578399
0.003748519
0.003578118
0.003753317
0.003584301
0.003749071
0.003583166
0.003753495
0.003588903
0.003749439
0.003587397
0.003753673
0.003593497
0.003749784
0.003591513
0.003753884
0.003598272
0.003750096
0.003595744
0.00375412
0.003603267
0.003750395
0.003599964
0.003754383
0.003608413
0.003750698
0.003604461
0.003754666
0.003613899
0.003751011
0.00360924
0.003754981
0.003619844
0.003751333
0.003753179
0.003734563
0.003753653
0.003730769
0.003755305
0.003756021
0.00374833
0.003765316
0.003756914
0.003733081
0.003762177
0.003750897
0.003753846
0.003728766
0.003730535
0.003753901
0.00376052
0.003758487
0.003745947
0.003744887
0.00374735
0.003742337
0.003619874
0.003712213
0.003592375
0.00372583
0.003757875
0.003744533
0.003608901
0.003701318
0.003596125
0.003726793
0.003588136
0.003709789
0.003587596
0.003735467
0.003564139
0.003720786
0.003581662
0.0037437
0.003544746
0.003728992
0.003572261
0.003748539
0.003541084
0.003733891
0.003561127
0.003750987
0.003543528
0.003736936
0.003553873
0.003750853
0.003545878
0.003739604
0.003552172
0.003750585
0.003548187
0.003741756
0.00355373
0.00375079
0.003550807
0.003743874
0.00355617
0.003751274
0.003553937
0.003744669
0.003559971
0.003751495