/*--------------------------------*- C++ -*----------------------------------*\
  =========                 |
  \\      /  F ield         | OpenFOAM: The Open Source CFD Toolbox
   \\    /   O peration     | Website:  https://openfoam.org
    \\  /    A nd           | Version:  7
     \\/     M anipulation  |
\*---------------------------------------------------------------------------*/
FoamFile
{
    version     2.0;
    format      ascii;
    class       volVectorField;
    location    "0.09";
    object      U;
}
// * * * * * * * * * * * * * * * * * * * * * * * * * * * * * * * * * * * * * //

dimensions      [0 1 -1 0 0 0 0];

internalField   nonuniform List<vector> 
89125
(
(-0.02821947 -1.014639 -0.04405168)
(-0.01994203 -0.9861324 -0.04917949)
(-0.02335268 -0.986713 -0.04740876)
(-0.02729808 -0.987659 -0.04677203)
(-0.02552371 -0.9853762 -0.0467184)
(-0.02729166 -1.005209 -0.04014717)
(-0.02242526 -0.9936239 -0.04296305)
(-0.02613075 -0.9879684 -0.045793)
(-0.006461244 -1.001583 -0.0215365)
(-0.008265383 -1.027593 -0.0194805)
(-0.005002978 -1.028041 -0.02075083)
(-0.003338903 -1.024338 -0.01675878)
(-0.001391632 -1.024516 -0.02194494)
(-0.003796744 -1.019859 -0.01945958)
(0.001088616 -1.021185 -0.02442168)
(0.001126149 -1.018039 -0.01916624)
(0.0005031559 -1.018529 -0.02304466)
(-0.00400845 -1.052328 -0.005890767)
(0.01023224 -0.9796845 0.007717517)
(0.006819914 -0.984282 -0.01820816)
(0.008147636 -0.9838869 -0.01342872)
(0.001777925 -0.9851453 -0.006056204)
(0.0004285535 -0.979151 -0.01247379)
(0.001397031 -0.9800993 -0.008806586)
(0.001841367 -0.9831487 -0.006957702)
(0.001858711 -0.9807993 -0.007189359)
(0.003571216 -0.9772096 -0.009951619)
(-0.00465376 -1.065937 -0.003575457)
(-0.007903964 -0.9958589 0.00396195)
(0.0004137866 -1.00112 0.002711457)
(-2.317385e-05 -0.99993 0.003023023)
(0.001376808 -1.002957 0.003012534)
(-0.001710251 -1.002157 0.004448115)
(0.002414336 -0.9988602 0.003488881)
(0.001849609 -1.004412 0.003928037)
(0.001628543 -0.9999769 0.004526641)
(0.004257719 -1.00073 0.005877704)
(-0.004474479 -1.073411 -0.00376692)
(0.0004572418 -0.9853612 6.767884e-05)
(0.0002285657 -0.9942115 -0.003385484)
(0.000184738 -0.9927049 -0.0009539613)
(0.002291349 -0.989445 -0.002039802)
(-0.001674326 -0.9879832 -0.001835187)
(0.002006286 -0.9922821 0.0009714901)
(0.001472381 -0.9873263 -0.002712368)
(0.001605819 -0.9925193 0.001237065)
(0.004560456 -0.9856648 0.0004875381)
(-0.004497124 -1.076868 -0.003891596)
(0.0007141321 -0.9921058 0.0008913053)
(0.002626421 -0.9993243 0.001689338)
(0.00117744 -1.003653 0.001741248)
(0.003632687 -1.002171 0.003598158)
(0.0003007646 -1.003597 0.002937395)
(0.004786933 -1.006717 0.00533145)
(0.002588203 -1.002459 0.001945856)
(0.002543124 -1.007574 0.006335505)
(0.005452321 -1.005765 0.004245919)
(-0.004628133 -1.078996 -0.003649762)
(-0.001627469 -0.9945162 -0.0002517527)
(-0.003968353 -0.9980376 0.003278188)
(-0.002553977 -1.000085 0.0009786776)
(0.0004981105 -0.9948024 0.004148531)
(-0.003231053 -0.9939261 0.002568232)
(0.004858177 -1.001067 0.001187975)
(0.001953829 -0.9864147 0.001165112)
(0.001657566 -1.00242 0.0003136119)
(0.005551484 -0.9938429 0.001335212)
(-0.007594303 -1.074715 -0.004607381)
(0.003918763 -0.987829 0.005755062)
(0.006546187 -1.000763 0.01100891)
(0.004495339 -1.012276 0.01308269)
(0.009101842 -1.008672 0.01682391)
(0.00242791 -1.015716 0.01567405)
(0.01085815 -1.023414 0.02381017)
(0.006419752 -1.009176 0.009680896)
(-0.000223112 -1.025454 0.01512497)
(0.005356549 -1.026392 0.01209696)
(-0.005990063 -1.07121 -0.003827542)
(0.00429773 -1.029129 0.0116192)
(-0.01194437 -1.038035 0.02864357)
(-0.005173392 -1.044931 0.02920246)
(-0.006354155 -1.049782 0.03516525)
(-0.01270139 -1.043849 0.02980897)
(-0.00282995 -1.060475 0.0466603)
(-0.007590495 -1.012295 0.01746552)
(-0.0004231683 -1.036343 0.03198374)
(-0.0004252609 -1.047782 0.03159782)
(-0.001957071 -1.028735 -0.001088948)
(0.002412567 -1.006229 0.008489062)
(0.0143962 -1.030203 0.03248271)
(0.00623435 -1.048078 0.04683451)
(0.003182535 -1.055309 0.04611536)
(0.002948705 -1.047555 0.04818354)
(-0.001402968 -1.082172 0.04504487)
(-0.006978583 -1.00906 0.05238533)
(0.02506146 -1.072827 0.05227687)
(0.002649691 -1.072325 0.03964141)
(-0.007008915 -0.9779336 -0.01343218)
(0.03755041 -1.121704 0.02884281)
(0.01836754 -1.092865 0.03632874)
(0.01233798 -1.104696 0.02021224)
(0.01344945 -1.149208 0.02908395)
(0.01346942 -1.153111 0.02056082)
(0.01495451 -1.167042 0.02364362)
(-0.03900733 -1.164156 0.02123899)
(0.08635902 -1.157823 0.01580324)
(0.02935674 -1.200455 0.02521364)
(-0.001073485 -0.9742118 0.0016059)
(-9.485443e-05 -0.9728038 0.0004979038)
(-0.002148019 -0.9478938 9.497233e-05)
(0.004447219 -0.9907531 0.01636583)
(-0.0002213621 -0.9739231 0.002524736)
(0.00400988 -0.9904518 0.01383646)
(0.005939321 -0.9787878 0.004769732)
(0.01762924 -0.995532 -0.00753793)
(0.01092361 -0.9868354 0.01255344)
(-5.064251e-08 3.202229e-08 -1.462188e-09)
(-1.009304e-07 2.346947e-08 7.725957e-10)
(-1.628671e-07 1.162839e-08 8.326109e-10)
(-2.143848e-07 1.370181e-08 4.469391e-10)
(-2.764755e-07 6.760301e-09 2.104432e-09)
(-3.408998e-07 -5.681708e-10 -1.681673e-09)
(-4.125444e-07 -3.377551e-09 -1.208608e-10)
(-4.918717e-07 -1.290503e-08 -6.432114e-09)
(-5.845367e-07 -1.88687e-08 -7.091055e-09)
(-7.407841e-08 1.066788e-07 3.318372e-09)
(-1.253287e-07 1.169616e-07 2.817829e-09)
(-1.801574e-07 1.152649e-07 -2.038266e-09)
(-2.349691e-07 1.212371e-07 -5.427132e-09)
(-2.946936e-07 1.282802e-07 -7.512443e-09)
(-3.585281e-07 1.401577e-07 -1.063983e-08)
(-4.286732e-07 1.547855e-07 -1.10436e-08)
(-5.054797e-07 1.750289e-07 -1.076204e-08)
(-5.890788e-07 1.983527e-07 -7.36858e-09)
(-8.087321e-08 1.482921e-07 1.442159e-09)
(-1.179601e-07 1.592368e-07 -6.214881e-10)
(-1.736835e-07 1.65177e-07 2.157265e-09)
(-2.257938e-07 1.7618e-07 1.592653e-09)
(-2.862952e-07 1.878223e-07 1.074081e-09)
(-3.479927e-07 2.025408e-07 6.375113e-10)
(-4.16131e-07 2.214884e-07 2.100859e-09)
(-4.912712e-07 2.444423e-07 4.106139e-09)
(-5.718495e-07 2.717442e-07 5.594334e-09)
(-7.634713e-08 2.026884e-07 7.721377e-10)
(-1.13098e-07 2.13201e-07 -2.371633e-09)
(-1.648862e-07 2.205177e-07 -6.534275e-11)
(-2.140714e-07 2.320758e-07 -5.811302e-10)
(-2.684543e-07 2.490681e-07 -1.012156e-09)
(-3.268482e-07 2.690027e-07 -8.204783e-10)
(-3.901367e-07 2.94161e-07 -1.669632e-09)
(-4.586378e-07 3.243528e-07 -1.439173e-09)
(-5.33943e-07 3.605159e-07 -1.576948e-09)
(-7.084531e-08 2.493935e-07 -9.833513e-10)
(-1.032718e-07 2.538608e-07 -2.049515e-09)
(-1.519285e-07 2.675302e-07 4.179279e-10)
(-1.979365e-07 2.822091e-07 9.666944e-11)
(-2.493934e-07 3.025039e-07 1.435028e-10)
(-3.02534e-07 3.265185e-07 5.350576e-11)
(-3.607879e-07 3.558632e-07 2.985603e-10)
(-4.23371e-07 3.913317e-07 5.172121e-10)
(-4.920865e-07 4.335678e-07 8.135795e-10)
(-5.694805e-08 2.967039e-07 -2.753678e-09)
(-9.156883e-08 2.985567e-07 -6.116193e-10)
(-1.371005e-07 3.141152e-07 8.008971e-10)
(-1.788833e-07 3.298647e-07 -9.255902e-11)
(-2.251676e-07 3.536881e-07 -7.249043e-11)
(-2.729736e-07 3.809803e-07 -1.317388e-10)
(-3.250334e-07 4.151226e-07 -2.977934e-10)
(-3.809374e-07 4.555087e-07 -2.056319e-10)
(-4.415609e-07 5.037951e-07 -2.626485e-10)
(-4.727843e-08 3.321537e-07 -3.182067e-09)
(-8.522099e-08 3.361772e-07 -2.699766e-10)
(-1.200818e-07 3.540984e-07 -1.863134e-10)
(-1.59012e-07 3.712569e-07 -7.517679e-12)
(-1.986293e-07 3.971046e-07 -2.200741e-12)
(-2.409597e-07 4.27286e-07 -9.294586e-12)
(-2.86062e-07 4.645724e-07 1.020087e-10)
(-3.344909e-07 5.088399e-07 9.909887e-11)
(-3.865443e-07 5.613489e-07 2.131836e-10)
(-3.804295e-08 3.605758e-07 -3.15799e-09)
(-7.456114e-08 3.707981e-07 4.389014e-10)
(-1.021089e-07 3.880686e-07 -3.321486e-10)
(-1.358372e-07 4.079913e-07 1.682289e-10)
(-1.692315e-07 4.355395e-07 -1.03356e-10)
(-2.053636e-07 4.682772e-07 1.645612e-11)
(-2.433572e-07 5.084105e-07 -1.019629e-10)
(-2.840327e-07 5.557452e-07 -3.551745e-11)
(-3.27056e-07 6.116808e-07 -8.413282e-11)
(-0.01426137 -0.9979265 -0.008902825)
(-0.007198232 -0.9965425 -0.01229206)
(0.0004393218 -1.007525 -0.01793062)
(-0.003158002 -1.011851 -0.02113624)
(0.0005460469 -1.00296 -0.01794764)
(0.0008667145 -0.9983409 -0.01836812)
(0.0006108216 -0.9996796 -0.01861747)
(0.0003213674 -1.001917 -0.01869925)
(0.0006829062 -0.9977612 -0.01794532)
(-0.04286637 -0.9735977 -0.01525007)
(0.005069073 -1.002068 -0.001549626)
(0.008679999 -0.9864188 0.01122568)
(0.005376963 -0.979735 0.009324741)
(0.002625992 -0.9833837 0.01042696)
(0.001142818 -0.9825837 0.01052883)
(0.002190544 -0.9722732 0.008777447)
(0.001467664 -0.9820803 0.009037527)
(0.00196919 -0.9750411 0.01000567)
(0.001826992 -0.9810991 0.009829223)
(-0.01511309 -1.012831 -0.001584642)
(0.01569325 -0.9926383 0.009341219)
(-0.003311538 -1.000786 -0.004723994)
(0.001253971 -1.006915 -0.006580954)
(0.0007037287 -1.002946 -0.005020767)
(0.0001939579 -1.00595 -0.00739212)
(0.0008842486 -1.004301 -0.007610199)
(0.002344262 -1.002532 -0.007654515)
(0.001943008 -1.002234 -0.006848912)
(0.00344516 -1.001793 -0.008004415)
(-0.007617567 -0.9745931 0.009194417)
(-0.00372045 -1.010609 0.002350653)
(0.001622117 -0.9941767 0.001792303)
(5.569901e-05 -0.9997589 0.003789992)
(0.002078084 -0.9954631 0.002662921)
(0.001785259 -0.9967591 0.003309681)
(0.002485252 -0.9936238 0.002281969)
(0.002215386 -0.994446 0.001785098)
(0.0031979 -0.9925916 0.001081316)
(0.003000675 -0.9939538 0.001705248)
(0.004535982 -0.993037 -0.002931256)
(0.002974437 -0.9987875 0.001295057)
(0.0006512147 -0.998075 0.0003947699)
(0.001984566 -0.9999445 0.001440006)
(0.001715097 -0.9969708 0.001180006)
(0.001269764 -0.996772 0.001536066)
(0.002494895 -0.9937619 -0.0001600978)
(0.003181435 -0.9941945 0.0005043847)
(0.003354821 -0.9921349 -0.001755603)
(0.003881211 -0.9935312 -0.0008704252)
(-0.003343266 -0.9843225 0.007011237)
(0.001259901 -1.003904 0.004314505)
(0.002645065 -0.9989078 0.003459291)
(0.00332694 -1.004566 0.006296774)
(0.003060123 -1.000848 0.004912346)
(0.003367335 -1.004148 0.0056515)
(0.002595729 -0.9999741 0.004596298)
(0.00346964 -1.005413 0.005442853)
(0.004450594 -0.9987539 0.003998434)
(0.004647794 -1.003926 0.007511873)
(-0.002526267 -0.9906766 0.0007204184)
(-0.0001939094 -1.005208 0.002473891)
(-0.002870311 -0.9978991 -0.004920314)
(-0.001139524 -0.9979744 -0.001274924)
(0.001965124 -0.989899 -0.003775293)
(0.003505346 -0.9920981 -0.003131448)
(0.0001266416 -0.9867562 -0.00134466)
(0.002358448 -0.9928517 -0.001946351)
(0.003727496 -0.9860588 -0.001214249)
(0.003454337 -0.9926249 0.004302397)
(2.605293e-05 -0.9781604 0.01010053)
(0.006640083 -0.9991432 0.009272001)
(0.01121081 -0.9966115 0.02583353)
(0.009311079 -1.007684 0.02963133)
(0.01043434 -1.002908 0.03952595)
(0.007639474 -1.010747 0.03665991)
(0.003740163 -1.005835 0.03799127)
(0.004344759 -1.02056 0.03458268)
(0.00316112 -1.009609 0.03428785)
(0.003143794 -1.024529 0.04396704)
(0.005790051 -1.011881 0.0004094575)
(-0.003545116 -1.018034 -0.003014182)
(-0.005745133 -1.01919 0.00219431)
(-0.003502763 -1.011781 -0.008505658)
(-0.002320547 -1.009514 0.006712896)
(-0.002779498 -1.008212 -0.01757398)
(-0.006699947 -1.006932 -0.01354402)
(-0.001205569 -1.01738 -0.03504413)
(0.00141001 -1.017138 -0.01795264)
(-0.0003229486 -1.022196 -0.01353704)
(0.00584173 -0.980873 -0.01109656)
(0.01248762 -0.9698361 0.008276506)
(0.01809642 -0.9784906 0.06568341)
(0.02356915 -0.9809465 0.08107472)
(0.003226582 -0.9850273 0.08878645)
(0.008331182 -0.9708941 0.09586562)
(0.001696006 -0.9795864 0.1050133)
(-0.003198767 -1.015998 0.08494797)
(0.003552399 -1.011174 0.1040063)
(-0.001697966 -1.011339 0.1292087)
(0.03250806 -1.054856 0.03430948)
(0.03256001 -1.007194 0.02243153)
(-0.03370841 -1.031294 -0.01878149)
(-0.01152702 -1.086992 -0.07267816)
(-0.004079008 -1.112272 -0.06457346)
(0.004040902 -1.127938 -0.06017872)
(-0.005036779 -1.136815 -0.05344142)
(-0.01249881 -1.117834 -0.06761244)
(0.04021093 -1.134968 -0.06992315)
(-0.02818588 -1.129098 -0.07120314)
(-6.592772e-09 4.041648e-08 -2.910081e-09)
(-7.928014e-08 4.027269e-08 -5.989906e-09)
(-1.302746e-07 3.546417e-08 3.962752e-09)
(-1.79903e-07 6.110359e-08 4.44846e-09)
(-2.404556e-07 6.869995e-08 8.521419e-09)
(-3.038836e-07 7.528434e-08 7.55943e-09)
(-3.729962e-07 8.326301e-08 7.37938e-09)
(-4.500612e-07 9.799584e-08 1.289029e-08)
(-5.357319e-07 1.07724e-07 1.594121e-08)
(-6.270953e-07 1.080379e-07 1.59323e-08)
(-2.532109e-09 8.226213e-08 6.528796e-09)
(-7.432721e-08 1.055372e-07 6.071338e-09)
(-1.351362e-07 1.015304e-07 -5.784176e-10)
(-1.893607e-07 9.751787e-08 -1.933521e-09)
(-2.424039e-07 1.034911e-07 -2.448893e-09)
(-3.02141e-07 1.153583e-07 1.126491e-09)
(-3.694393e-07 1.266872e-07 2.117603e-09)
(-4.40786e-07 1.353361e-07 -1.864772e-10)
(-5.163259e-07 1.458473e-07 -4.028422e-09)
(-5.971702e-07 1.595425e-07 -5.418592e-09)
(-1.923156e-09 1.2539e-07 9.046409e-09)
(-7.385035e-08 1.519876e-07 3.569067e-09)
(-1.193578e-07 1.595544e-07 -2.456278e-09)
(-1.736526e-07 1.662718e-07 -5.211112e-10)
(-2.2887e-07 1.744756e-07 4.242115e-10)
(-2.88695e-07 1.903091e-07 6.363952e-10)
(-3.490955e-07 2.040682e-07 1.342377e-09)
(-4.175076e-07 2.26003e-07 2.603799e-09)
(-4.90069e-07 2.47044e-07 2.970813e-09)
(-5.733203e-07 2.738008e-07 3.534388e-09)
(1.34971e-08 1.863973e-07 2.07093e-08)
(-6.802493e-08 2.068932e-07 5.062463e-09)
(-1.15505e-07 2.105141e-07 -2.603942e-09)
(-1.649935e-07 2.185323e-07 -5.265221e-10)
(-2.155548e-07 2.301698e-07 -1.465556e-09)
(-2.709947e-07 2.468208e-07 -8.919809e-10)
(-3.288404e-07 2.669598e-07 -1.333458e-09)
(-3.92487e-07 2.90697e-07 -1.231981e-09)
(-4.608017e-07 3.190713e-07 -1.334152e-09)
(-5.367632e-07 3.538181e-07 -1.267052e-09)
(1.011057e-08 2.267445e-07 2.753738e-08)
(-6.40138e-08 2.49757e-07 5.322533e-09)
(-1.050231e-07 2.56363e-07 -1.606933e-09)
(-1.525556e-07 2.675385e-07 -1.030677e-10)
(-1.989699e-07 2.826394e-07 -3.060191e-10)
(-2.504044e-07 3.028556e-07 6.104696e-11)
(-3.035059e-07 3.264773e-07 1.110459e-10)
(-3.616123e-07 3.564684e-07 2.788766e-10)
(-4.245014e-07 3.913659e-07 4.687754e-10)
(-4.936126e-07 4.336047e-07 6.114413e-10)
(6.52253e-09 2.705275e-07 2.764255e-08)
(-5.64685e-08 2.943802e-07 3.285198e-09)
(-9.598671e-08 2.998011e-07 -9.715831e-10)
(-1.374544e-07 3.139648e-07 4.285884e-10)
(-1.801556e-07 3.301284e-07 -5.236933e-10)
(-2.25859e-07 3.533103e-07 -1.860421e-10)
(-2.739933e-07 3.806409e-07 -4.043732e-10)
(-3.26097e-07 4.145151e-07 -3.17362e-10)
(-3.820954e-07 4.546531e-07 -3.792088e-10)
(-4.429925e-07 5.025982e-07 -3.581941e-10)
(-1.225618e-10 3.103028e-07 3.80599e-08)
(-4.927889e-08 3.306182e-07 -9.520464e-10)
(-8.483921e-08 3.378321e-07 6.107991e-10)
(-1.211433e-07 3.53183e-07 -2.624874e-10)
(-1.591523e-07 3.717889e-07 2.353314e-14)
(-1.991682e-07 3.971482e-07 -4.332007e-11)
(-2.414605e-07 4.275042e-07 1.019186e-10)
(-2.866825e-07 4.648434e-07 7.049263e-11)
(-3.352226e-07 5.091098e-07 1.802868e-10)
(-3.874071e-07 5.616691e-07 1.43761e-10)
(-5.842012e-09 3.402612e-07 3.439278e-08)
(-4.220587e-08 3.634171e-07 -2.747064e-09)
(-7.273515e-08 3.716114e-07 9.811378e-10)
(-1.032408e-07 3.880107e-07 -3.590699e-10)
(-1.359085e-07 4.083274e-07 -5.572463e-12)
(-1.696984e-07 4.357188e-07 -1.17282e-10)
(-2.057645e-07 4.685279e-07 -1.247386e-10)
(-2.438768e-07 5.086526e-07 -8.64661e-11)
(-2.845684e-07 5.559936e-07 -1.340033e-10)
(-3.27753e-07 6.119214e-07 -1.2554e-10)
(-0.01185165 -1.002933 0.003473776)
(0.001401064 -0.9859401 0.009318852)
(0.004413618 -0.9843964 0.006772757)
(0.001796985 -0.9921934 0.003274506)
(0.001170043 -0.9863756 0.00248279)
(0.0005914632 -0.9871414 0.002315097)
(0.0006616719 -0.9872775 0.003185712)
(0.0006192273 -0.9849041 0.001996948)
(0.0005711031 -0.9843715 0.003091285)
(-0.04941174 -0.9873795 -0.02977604)
(-0.01556799 -1.003507 -0.004824199)
(0.0002338468 -1.002585 -0.01038655)
(0.0008341594 -0.9919057 -0.0107065)
(0.002502312 -0.9989636 -0.01391961)
(0.0004020208 -0.9916637 -0.01186727)
(0.0009869754 -0.9933845 -0.01034645)
(0.0008870433 -0.9943094 -0.01342845)
(0.0008054582 -0.9919033 -0.01094485)
(0.001519667 -0.9896543 -0.01103754)
(-0.01996459 -1.023265 -0.0009159317)
(0.01582239 -0.9770404 0.007246126)
(-0.008614133 -0.9893166 -0.001349511)
(0.002884074 -0.9894792 -0.002524685)
(-0.001861905 -0.9885344 -0.0005997774)
(0.0003737904 -0.9879919 -0.002053159)
(0.0007081162 -0.9867979 0.0004155741)
(0.001022406 -0.9887221 -0.001554976)
(-2.9499e-05 -0.986656 0.0003481121)
(0.002396768 -0.9862945 -0.0008511229)
(-0.01278175 -0.9855156 0.005532904)
(-0.004815186 -1.005748 -0.00109348)
(0.001095055 -0.9936545 -0.0001371328)
(-0.0001764519 -0.9984903 -0.00151301)
(0.002229152 -0.9979352 -0.0003664868)
(-0.002112857 -0.996205 -0.00123002)
(0.002723699 -0.9992491 -0.001701131)
(0.00013129 -0.9948281 0.0003400861)
(0.001468572 -0.9995205 -0.0005204046)
(0.003548022 -0.9962488 0.001278921)
(0.002370793 -0.9981077 -0.002203157)
(0.001827413 -0.9927701 -0.002070343)
(-0.0004973397 -0.9917982 -0.001174016)
(0.002077014 -0.9886672 -5.324152e-05)
(0.001892304 -0.9869348 0.0001042884)
(-0.003193276 -0.9855565 0.0007183252)
(0.001862643 -0.9918264 0.0007927481)
(-5.482607e-05 -0.9843619 0.001561137)
(0.002586719 -0.9947685 0.003193769)
(0.003627922 -0.9844476 0.002923947)
(-0.000319883 -0.9932337 8.79357e-05)
(0.001658094 -0.9997484 0.0007979511)
(0.003253609 -0.9971261 0.003172582)
(0.002136442 -1.001668 0.002744029)
(0.002437066 -0.99547 0.002545774)
(0.0005142236 -0.9989878 0.004792384)
(0.004955854 -1.008984 0.005324435)
(0.002174758 -0.9956388 0.005886043)
(0.00435159 -1.011918 0.006903952)
(0.004228712 -1.002547 0.009740848)
(-0.0001449915 -0.9921528 -0.00342335)
(-0.003836449 -0.9917408 -0.004931958)
(0.001068458 -0.9869467 0.002372742)
(-0.003090533 -0.977417 -0.004767964)
(0.001057057 -0.9766404 0.0003238081)
(0.0006283316 -0.9775751 0.004546274)
(0.004538033 -0.9857481 0.009848932)
(0.002119963 -0.9692072 0.002960437)
(0.003927788 -0.9886267 0.01248218)
(0.00433087 -0.9657704 0.005927244)
(0.007783754 -0.9896183 0.002202567)
(0.02540466 -0.9907683 0.00892896)
(0.03159887 -1.011011 0.0305317)
(0.01597464 -1.011662 0.03496815)
(0.01545444 -1.016849 0.04419655)
(0.007238892 -1.020696 0.04629738)
(0.01366438 -1.03039 0.05551517)
(0.003715026 -1.011583 0.04336549)
(0.009093696 -1.032404 0.05604244)
(0.005809292 -1.004751 0.04170971)
(0.02361168 -1.020327 -0.007215426)
(0.0001031145 -1.006654 -0.005926486)
(0.01875987 -0.9542555 0.02221402)
(-0.01338928 -0.9397199 0.001639582)
(-0.003213242 -0.9353258 0.03054405)
(-0.0153191 -0.9401634 -0.001446573)
(0.007224712 -0.9414754 0.03522611)
(-0.002986029 -0.9148776 0.002452789)
(0.01048245 -0.9438494 0.05161646)
(0.004510214 -0.8928672 0.005168037)
(0.02273208 -1.012618 0.01540224)
(0.07402793 -0.9648515 0.01287498)
(0.06096134 -1.016335 0.05856181)
(0.02979127 -1.01337 0.15677)
(0.01929382 -1.042867 0.1604595)
(0.01114089 -1.070945 0.1591388)
(0.03994852 -1.090853 0.1704922)
(0.006163244 -1.077516 0.1430042)
(0.03312774 -1.089992 0.1642452)
(0.003689305 -1.050912 0.1292428)
(0.04701527 -1.093789 0.009470164)
(0.005098138 -1.051529 -0.03505112)
(-0.1481921 -0.8886381 -0.1444112)
(-0.05634643 -0.898597 -0.2316569)
(-0.04503939 -0.9691323 -0.2648229)
(-0.02797731 -1.009184 -0.266244)
(-0.04104921 -1.031976 -0.2725776)
(-0.003198362 -0.9707354 -0.251833)
(-0.0595318 -1.046183 -0.2718938)
(0.001874567 -0.9073221 -0.2465149)
(-3.235414e-09 3.52067e-08 -6.276304e-09)
(-8.348346e-08 2.413827e-08 -2.115418e-09)
(-1.304069e-07 2.731844e-08 -9.169206e-10)
(-1.862443e-07 3.463532e-08 -9.149969e-09)
(-2.410763e-07 3.542988e-08 -8.734537e-09)
(-3.007514e-07 3.900089e-08 -4.95789e-09)
(-3.700968e-07 4.128331e-08 -4.238872e-09)
(-4.427167e-07 4.486071e-08 -2.419958e-09)
(-5.191173e-07 4.884571e-08 -1.02838e-08)
(-6.033597e-07 5.505094e-08 -9.358042e-09)
(-1.897739e-08 1.100027e-07 5.016415e-09)
(-7.032053e-08 1.044142e-07 3.070779e-09)
(-1.319809e-07 9.454473e-08 -2.72947e-10)
(-1.84376e-07 9.855874e-08 3.758837e-09)
(-2.423479e-07 9.957273e-08 3.263694e-09)
(-3.023361e-07 1.085247e-07 5.733904e-09)
(-3.660528e-07 1.179005e-07 6.341318e-09)
(-4.358459e-07 1.291526e-07 8.408576e-09)
(-5.135974e-07 1.418079e-07 7.696548e-09)
(-6.013101e-07 1.56883e-07 7.271621e-09)
(-2.310974e-08 1.486408e-07 -8.061356e-09)
(-6.469657e-08 1.491372e-07 -2.595764e-09)
(-1.188846e-07 1.534125e-07 -3.653555e-09)
(-1.736235e-07 1.57374e-07 -1.467341e-09)
(-2.287923e-07 1.662525e-07 -3.883009e-10)
(-2.895574e-07 1.785709e-07 6.518394e-10)
(-3.518539e-07 1.936141e-07 1.731566e-09)
(-4.207892e-07 2.104822e-07 1.070465e-09)
(-4.941912e-07 2.309229e-07 8.25557e-10)
(-5.765263e-07 2.5609e-07 8.435883e-10)
(-2.173015e-08 2.039637e-07 -2.61006e-10)
(-6.458098e-08 2.064337e-07 1.02067e-10)
(-1.137794e-07 2.093979e-07 -8.344857e-10)
(-1.645156e-07 2.172288e-07 6.323342e-10)
(-2.165808e-07 2.268903e-07 4.262389e-11)
(-2.722723e-07 2.432912e-07 1.095785e-09)
(-3.303696e-07 2.624451e-07 6.964582e-10)
(-3.939925e-07 2.866265e-07 1.303312e-09)
(-4.632868e-07 3.149292e-07 1.03534e-09)
(-5.397902e-07 3.496307e-07 1.268671e-09)
(-2.120486e-08 2.445791e-07 -2.280318e-09)
(-5.981081e-08 2.493371e-07 -9.817714e-10)
(-1.039233e-07 2.553672e-07 -1.984738e-09)
(-1.51083e-07 2.662923e-07 -3.693394e-10)
(-1.990884e-07 2.803656e-07 -2.636667e-10)
(-2.508767e-07 2.999186e-07 3.169285e-10)
(-3.04757e-07 3.235843e-07 5.103331e-10)
(-3.634053e-07 3.525996e-07 6.678086e-10)
(-4.265714e-07 3.874206e-07 6.594914e-10)
(-4.958627e-07 4.290926e-07 7.340547e-10)
(-1.815489e-08 2.88635e-07 3.087286e-10)
(-5.313344e-08 2.947936e-07 -8.647072e-10)
(-9.508049e-08 3.002969e-07 -8.191355e-10)
(-1.366264e-07 3.134211e-07 -3.602298e-11)
(-1.801657e-07 3.292909e-07 -1.742356e-10)
(-2.262728e-07 3.520623e-07 1.638934e-10)
(-2.747515e-07 3.791025e-07 1.00123e-10)
(-3.270612e-07 4.129018e-07 2.115263e-10)
(-3.834036e-07 4.529591e-07 2.076858e-10)
(-4.444493e-07 5.009161e-07 2.078253e-10)
(-1.613742e-08 3.229062e-07 2.204535e-10)
(-4.937998e-08 3.313334e-07 -9.018416e-10)
(-8.437331e-08 3.383832e-07 -5.927978e-10)
(-1.206211e-07 3.53159e-07 -3.186252e-10)
(-1.591524e-07 3.714326e-07 -1.202921e-10)
(-1.992978e-07 3.965914e-07 3.650939e-11)
(-2.41935e-07 4.268572e-07 1.25359e-10)
(-2.873629e-07 4.640215e-07 2.376998e-10)
(-3.360761e-07 5.082263e-07 2.389617e-10)
(-3.884299e-07 5.60647e-07 2.774867e-10)
(-1.309179e-08 3.54228e-07 3.406262e-10)
(-4.227635e-08 3.633834e-07 -1.059511e-09)
(-7.243061e-08 3.71916e-07 -2.971874e-10)
(-1.02888e-07 3.879068e-07 -4.208026e-10)
(-1.358158e-07 4.081748e-07 -1.41401e-10)
(-1.698142e-07 4.353733e-07 -1.925851e-10)
(-2.060192e-07 4.681725e-07 -5.880286e-11)
(-2.442479e-07 5.081809e-07 -1.303696e-10)
(-2.851391e-07 5.555319e-07 -1.227954e-11)
(-3.282662e-07 6.11465e-07 -1.099985e-10)
(-0.009825669 -1.000102 -0.0002734722)
(-0.005568498 -0.9848217 -0.001704858)
(0.002601125 -0.9910382 -0.00294795)
(0.0004506053 -0.9915913 -0.001626078)
(0.0005634308 -0.9924283 -0.001825005)
(0.0006601358 -0.9916368 -0.001417128)
(0.0005546214 -0.990976 -0.001602867)
(0.0006232298 -0.9904923 -0.0006844216)
(0.0009804782 -0.9891862 -0.002694919)
(-0.04626034 -0.9919757 -0.02657579)
(-0.00896263 -1.003163 0.001750475)
(0.0008703037 -0.9946122 0.002521797)
(0.000786178 -0.9917152 0.003897618)
(0.002010058 -0.9898467 0.002538652)
(-3.188958e-05 -0.9921915 0.005392889)
(0.001704447 -0.992067 0.004880838)
(0.001188885 -0.9909172 0.002928831)
(0.001031741 -0.9913945 0.006205485)
(0.001742275 -0.9893839 0.002852341)
(-0.02365418 -1.016743 -0.0006207996)
(0.01390229 -0.9828963 0.002299838)
(-0.008168336 -0.9949655 0.0003476688)
(0.003601166 -0.9966854 -0.002790308)
(-1.899667e-05 -0.9955715 3.311957e-05)
(0.001942887 -0.9957276 -0.002650238)
(0.001553206 -0.9955771 -0.0002800132)
(0.002332245 -0.9942103 -0.002026691)
(0.002100853 -0.99469 -0.0003769633)
(0.003633224 -0.9916281 -0.0006872586)
(-0.007537297 -0.9856528 0.001727755)
(-0.003960723 -1.003784 0.0005384993)
(0.001861847 -0.9923451 0.001475113)
(4.07317e-05 -1.002578 0.0008300343)
(0.003329701 -0.995991 0.001846867)
(0.001205256 -0.9956648 0.001465212)
(0.003544617 -0.9976611 0.002102375)
(0.00225324 -0.9921758 0.0005599063)
(0.003686467 -0.9963238 0.002097712)
(0.003549361 -0.990833 0.0004271098)
(0.001705882 -0.9987202 0.0008967286)
(0.004987459 -0.9952878 -0.001187828)
(0.001799794 -0.9942459 0.0008050854)
(0.002109555 -0.9947649 0.0003790129)
(0.001356681 -0.9921336 -0.0008138942)
(-0.0001711242 -0.9922362 0.00142798)
(0.002960515 -0.9915257 -0.0002869426)
(0.003302982 -0.9871655 0.0008787833)
(0.004877033 -0.987287 -0.001215053)
(0.00769572 -0.9811909 0.001103956)
(-0.001767539 -0.9983731 0.001030617)
(0.006961398 -1.0057 -3.988801e-06)
(0.004400739 -0.9978486 0.002345684)
(0.001750853 -1.005965 0.001311904)
(0.003510499 -1.001606 0.002558079)
(0.002099175 -1.002441 0.002749069)
(0.00538718 -1.00833 0.002896464)
(0.004149293 -0.9997229 0.001628327)
(0.007579312 -1.004285 0.001256757)
(0.00752236 -0.9923102 0.0003988308)
(0.001060838 -1.00057 -0.004525571)
(0.0006886134 -0.9988106 -0.005911973)
(-0.003229152 -0.9782967 -0.002550688)
(-0.001687987 -0.9846887 -0.001103413)
(0.000290857 -0.979822 7.644582e-05)
(0.002635764 -0.9778051 -0.0001531261)
(0.002744634 -0.9794534 0.0007537348)
(0.002567579 -0.96949 -0.003897377)
(0.004483095 -0.975117 -0.005211916)
(0.006133455 -0.9530625 -0.01005824)
(0.009401813 -1.005734 0.001252309)
(0.02835606 -1.008495 -0.0008192435)
(0.03714868 -1.004813 0.01442531)
(0.02387127 -1.019739 0.02051934)
(0.02034716 -1.025056 0.02596045)
(0.01312515 -1.014026 0.02107783)
(0.01049337 -1.017393 0.02076756)
(0.003870106 -1.015287 0.0132393)
(0.006553955 -1.020966 0.01543724)
(0.004985046 -0.9997218 0.003808046)
(0.02815139 -1.035789 -0.008351044)
(-0.009955044 -1.013849 -0.0134077)
(0.003165968 -0.936166 -0.001761478)
(-0.0007852272 -0.9210188 0.003657173)
(-0.008129437 -0.9072664 0.01233176)
(-0.003354469 -0.8986208 0.001453008)
(-0.001304915 -0.8932902 0.007242942)
(-0.003374096 -0.8912345 -0.007408108)
(0.003868277 -0.8916886 -0.000459117)
(0.008734467 -0.8825823 -0.002011552)
(0.05913644 -1.033313 0.002644975)
(0.07801629 -0.9866261 0.01842484)
(0.1626055 -1.002496 0.02945915)
(0.08096503 -1.008338 0.07890523)
(0.03907066 -1.014928 0.1288599)
(0.03015825 -1.030629 0.1369797)
(0.02907437 -1.025681 0.1891317)
(0.01319558 -1.036721 0.1666597)
(0.01932791 -1.022661 0.187694)
(0.01261651 -1.028935 0.2334001)
(0.04341975 -1.112119 0.01642785)
(-0.01888676 -1.099971 0.01301316)
(-0.2226069 -0.8933657 -0.04638183)
(-0.08892988 -0.6323291 -0.09947807)
(-0.03100383 -0.7214182 -0.1663614)
(-0.00297008 -0.7812079 -0.1978466)
(-0.006471317 -0.783385 -0.2843926)
(-0.002570802 -0.8148411 -0.257463)
(-0.002575822 -0.8041053 -0.2680411)
(0.004084514 -0.8068266 -0.3334506)
(-5.998707e-09 3.081305e-08 -7.064178e-09)
(-7.970945e-08 1.875185e-08 -1.630048e-09)
(-1.254569e-07 2.62226e-08 2.178187e-09)
(-1.855001e-07 2.95288e-08 1.567082e-09)
(-2.423669e-07 2.953813e-08 3.164117e-09)
(-3.061387e-07 3.171138e-08 3.455763e-09)
(-3.730657e-07 3.258741e-08 5.291378e-09)
(-4.44129e-07 3.698718e-08 5.745662e-09)
(-5.239967e-07 3.992219e-08 5.888047e-09)
(-6.148484e-07 4.481571e-08 5.63007e-09)
(-1.550408e-08 1.166014e-07 2.647485e-09)
(-7.465357e-08 1.047519e-07 2.935732e-09)
(-1.319283e-07 9.628619e-08 1.985888e-09)
(-1.87014e-07 9.166001e-08 -7.44817e-10)
(-2.421841e-07 9.025182e-08 -4.395454e-10)
(-3.035951e-07 9.855012e-08 8.173552e-10)
(-3.680136e-07 1.06163e-07 7.113933e-10)
(-4.396853e-07 1.162942e-07 3.207221e-10)
(-5.166402e-07 1.266733e-07 -1.288164e-09)
(-6.037225e-07 1.412763e-07 -1.440468e-09)
(-2.088301e-08 1.476331e-07 -5.167632e-10)
(-6.894145e-08 1.480624e-07 9.082811e-10)
(-1.197395e-07 1.494872e-07 -2.10269e-09)
(-1.736782e-07 1.541626e-07 -2.877831e-10)
(-2.304509e-07 1.603511e-07 -4.15484e-10)
(-2.907305e-07 1.720538e-07 3.538894e-10)
(-3.529991e-07 1.851063e-07 6.639518e-10)
(-4.214685e-07 2.029022e-07 1.188911e-09)
(-4.963306e-07 2.226799e-07 8.563181e-10)
(-5.798619e-07 2.475888e-07 1.3387e-09)
(-2.071984e-08 2.059965e-07 1.895679e-09)
(-6.560001e-08 2.06405e-07 1.729278e-09)
(-1.154766e-07 2.072203e-07 3.538382e-10)
(-1.658527e-07 2.142635e-07 7.837355e-11)
(-2.180359e-07 2.229126e-07 2.40868e-10)
(-2.73837e-07 2.384933e-07 4.461405e-10)
(-3.326792e-07 2.568227e-07 4.316966e-10)
(-3.968225e-07 2.802737e-07 3.241503e-10)
(-4.664445e-07 3.078838e-07 7.264746e-11)
(-5.43375e-07 3.417752e-07 2.149669e-11)
(-1.979061e-08 2.436512e-07 1.276542e-09)
(-5.907326e-08 2.481056e-07 7.819117e-10)
(-1.048579e-07 2.545577e-07 -7.722962e-10)
(-1.516323e-07 2.646458e-07 1.531847e-10)
(-2.001273e-07 2.786332e-07 -2.580027e-10)
(-2.520948e-07 2.974972e-07 2.812533e-10)
(-3.061608e-07 3.208018e-07 2.317677e-10)
(-3.650618e-07 3.497454e-07 4.881241e-10)
(-4.285809e-07 3.844162e-07 4.514997e-10)
(-4.982738e-07 4.259462e-07 6.045968e-10)
(-1.761638e-08 2.896405e-07 1.235026e-09)
(-5.482488e-08 2.930427e-07 9.722521e-10)
(-9.556215e-08 2.994012e-07 5.607183e-10)
(-1.375607e-07 3.123287e-07 2.157227e-10)
(-1.810547e-07 3.282944e-07 6.315844e-11)
(-2.271712e-07 3.50745e-07 1.048013e-10)
(-2.759926e-07 3.775502e-07 2.052443e-11)
(-3.284749e-07 4.111772e-07 1.921809e-11)
(-3.850016e-07 4.50941e-07 -8.053418e-11)
(-4.463634e-07 4.987693e-07 -8.663562e-11)
(-1.545576e-08 3.239116e-07 7.487606e-10)
(-4.773318e-08 3.291693e-07 -1.950191e-10)
(-8.408003e-08 3.377058e-07 -6.601878e-11)
(-1.210357e-07 3.520556e-07 -8.245162e-11)
(-1.594316e-07 3.709697e-07 -1.055565e-10)
(-1.998967e-07 3.957814e-07 4.964534e-11)
(-2.425474e-07 4.261763e-07 5.226397e-11)
(-2.881619e-07 4.632111e-07 9.479513e-11)
(-3.370575e-07 5.075149e-07 1.278036e-10)
(-3.895062e-07 5.599051e-07 8.598323e-11)
(-1.303637e-08 3.57744e-07 -2.765836e-10)
(-4.135241e-08 3.622783e-07 -4.924313e-10)
(-7.185749e-08 3.716944e-07 3.653142e-10)
(-1.032686e-07 3.874574e-07 -2.147014e-10)
(-1.360169e-07 4.079574e-07 4.396497e-11)
(-1.701757e-07 4.350875e-07 -5.928961e-11)
(-2.064741e-07 4.678333e-07 -4.819796e-11)
(-2.44802e-07 5.078795e-07 -4.138577e-11)