/*--------------------------------*- C++ -*----------------------------------*\
  =========                 |
  \\      /  F ield         | OpenFOAM: The Open Source CFD Toolbox
   \\    /   O peration     | Website:  https://openfoam.org
    \\  /    A nd           | Version:  7
     \\/     M anipulation  |
\*---------------------------------------------------------------------------*/
FoamFile
{
    version     2.0;
    format      ascii;
    class       volVectorField;
    location    "0.09";
    object      U;
}
// * * * * * * * * * * * * * * * * * * * * * * * * * * * * * * * * * * * * * //

dimensions      [0 1 -1 0 0 0 0];

internalField   nonuniform List<vector> 
109978
(
(0.4686425 0.04195074 0.0002712461)
(0.4733935 0.02473861 -0.003556177)
(0.4557012 0.02157122 -0.002621033)
(0.4462815 0.02294762 -0.002109031)
(0.4343345 0.02097476 -0.002110255)
(0.4224449 0.02155368 -0.001980792)
(0.4648651 0.02787688 0.00470018)
(0.4807489 0.02460854 -0.005523338)
(0.4608504 0.02371515 -0.005439924)
(0.4531243 0.02431512 -0.003733138)
(0.4396292 0.02465396 -0.003959371)
(0.4278465 0.02479024 -0.003743865)
(0.4578056 0.03591554 0.003084681)
(0.4827209 0.03838985 -0.005086206)
(0.4613842 0.03765723 -0.005574233)
(0.454083 0.03799274 -0.003641725)
(0.4400641 0.03808864 -0.003859433)
(0.428323 0.03804779 -0.003650528)
(0.4624181 0.05015697 0.003354352)
(0.4823642 0.05142583 -0.004854935)
(0.461166 0.05122735 -0.006302857)
(0.453835 0.05066244 -0.003892577)
(0.439779 0.05061968 -0.004274133)
(0.4279367 0.05044961 -0.003992794)
(0.4648723 0.06331199 0.003188635)
(0.482894 0.06428734 -0.004723234)
(0.4610196 0.06372254 -0.00633184)
(0.4531785 0.06322202 -0.004129458)
(0.4390709 0.06306833 -0.004990167)
(0.4270816 0.0627694 -0.004288592)
(0.4672912 0.07570493 0.003978861)
(0.4832199 0.07675445 -0.00442496)
(0.4610037 0.07594108 -0.006255793)
(0.4526955 0.0755697 -0.004241982)
(0.4384546 0.07528203 -0.005119825)
(0.426392 0.07491775 -0.004471178)
(0.4691821 0.08701858 0.003532901)
(0.4835736 0.08893629 -0.00402813)
(0.4611046 0.08815633 -0.006360491)
(0.4522554 0.08791928 -0.004384234)
(0.4379797 0.08758216 -0.005221446)
(0.4259153 0.08717714 -0.00465281)
(0.472475 0.09865791 0.002892836)
(0.4837586 0.1011216 -0.003860133)
(0.4611732 0.1004064 -0.006591788)
(0.4518587 0.1002304 -0.004530491)
(0.4374992 0.09988814 -0.005331427)
(0.4254078 0.0994558 -0.004827161)
(0.475986 0.110593 0.002616508)
(0.4842037 0.1134898 -0.003743854)
(0.461359 0.1128473 -0.006796918)
(0.4515327 0.1126181 -0.004689708)
(0.4370309 0.1122685 -0.005456539)
(0.4248975 0.1118302 -0.004997257)
(0.4787107 0.1233173 0.002419476)
(0.4850377 0.1261158 -0.003409345)
(0.4613987 0.1254389 -0.006965186)
(0.4512437 0.1251639 -0.004858887)
(0.4366585 0.1248001 -0.005593688)
(0.4244567 0.1243209 -0.00516182)
(0.4806187 0.1364215 0.002085108)
(0.4864308 0.139033 -0.002643745)
(0.4612838 0.1381811 -0.007048133)
(0.4507626 0.1377745 -0.005029409)
(0.4359572 0.1373815 -0.005740897)
(0.4236156 0.1368493 -0.00532345)
(0.4818889 0.1495127 0.002017171)
(0.4868656 0.1520827 -0.002452491)
(0.4608616 0.1509782 -0.007137375)
(0.4502529 0.1505439 -0.00519718)
(0.4353165 0.1500978 -0.005916854)
(0.4229164 0.1495103 -0.005498382)
(0.4828709 0.1626128 0.002028891)
(0.4869927 0.165214 -0.002584656)
(0.4605193 0.1639254 -0.007266653)
(0.4498363 0.1634361 -0.005381512)
(0.4347201 0.1629493 -0.006090297)
(0.4221973 0.1623148 -0.005666382)
(0.4836591 0.1759039 0.002033403)
(0.4869927 0.1783763 -0.002755449)
(0.4601958 0.1770474 -0.007434011)
(0.4493969 0.1765182 -0.00555207)
(0.4340762 0.1759757 -0.0062546)
(0.4214075 0.1752687 -0.005825831)
(0.484246 0.1893973 0.002014785)
(0.4868917 0.1917815 -0.002931859)
(0.4598209 0.1903764 -0.0076004)
(0.4489019 0.189794 -0.005711619)
(0.4333606 0.1891805 -0.00640677)
(0.4205232 0.188381 -0.005976868)
(0.4846839 0.2030717 0.001924406)
(0.4867211 0.2054108 -0.003105064)
(0.4593707 0.2039221 -0.007759688)
(0.448329 0.2032606 -0.005860565)
(0.4325498 0.2025597 -0.006550997)
(0.4195317 0.2016532 -0.006118829)
(0.4849986 0.2169133 0.001770784)
(0.4864992 0.2192578 -0.003286824)
(0.4588337 0.2176744 -0.007909862)
(0.4476689 0.2169237 -0.005999237)
(0.4316336 0.2161256 -0.006685025)
(0.4184216 0.2151018 -0.006252396)
(0.4852486 0.2309741 0.001611821)
(0.4862092 0.2333081 -0.003446547)
(0.4582047 0.2316436 -0.008049918)
(0.4469116 0.2307951 -0.006126985)
(0.4305969 0.2298886 -0.006810156)
(0.4171815 0.2287379 -0.006376724)
(0.4854552 0.2452311 0.001462368)
(0.485898 0.2475887 -0.003591327)
(0.457487 0.2458395 -0.008183459)
(0.4460559 0.2448921 -0.006242979)
(0.4294312 0.2438688 -0.006925187)
(0.4157988 0.2425799 -0.006490292)
(0.4854608 0.2596772 0.001334624)
(0.4855101 0.2620785 -0.003744332)
(0.456673 0.2602736 -0.008313844)
(0.4450956 0.2592322 -0.006348486)
(0.4281301 0.2580856 -0.007031924)
(0.4142633 0.2566447 -0.006594877)
(0.4854319 0.2744416 0.001184582)
(0.4850735 0.2768334 -0.003887549)
(0.455768 0.2749764 -0.008442364)
(0.4440272 0.2738396 -0.006444926)
(0.4266796 0.2725582 -0.007129534)
(0.4125565 0.270951 -0.006688582)
(0.4852915 0.2895615 0.001002991)
(0.4845923 0.2919239 -0.00406827)
(0.45477 0.2899855 -0.008556718)
(0.4428394 0.288737 -0.006530331)
(0.4250712 0.2873086 -0.007220745)
(0.4106671 0.28552 -0.006773966)
(0.4533467 0.3144233 -2.342061e-05)
(0.4841789 0.3074961 -0.004372884)
(0.4536948 0.3053436 -0.008652734)
(0.4415228 0.3039557 -0.006608991)
(0.4232921 0.3023654 -0.007308632)
(0.4085746 0.3003733 -0.006855845)
(0.4654893 0.01346417 0.01286131)
(0.4722954 -0.001130589 0.009508429)
(0.4557169 -0.0008040707 0.01378752)
(0.446187 0.0005260179 0.01234218)
(0.4341613 0.0003401437 0.01109877)
(0.4223877 0.0005082583 0.01183147)
(0.4584177 -0.04489307 -0.04386106)
(0.4360857 -0.000441626 -0.02119468)
(0.4836405 0.04803798 0.0271606)
(0.4400494 0.01169418 -0.006047171)
(0.4485623 0.02363893 0.005214109)
(0.4303437 0.01875739 0.0005799223)
(0.4950513 -0.003894415 -0.09396889)
(0.416767 0.01115468 -0.04193488)
(0.4906956 0.04126333 0.03110498)
(0.4362272 0.02748094 -0.01525079)
(0.4543047 0.0329436 0.00427914)
(0.4297015 0.03066403 -0.003345612)
(0.5055393 0.01125706 -0.09717508)
(0.4083488 0.03685091 -0.04468237)
(0.4799652 0.04646519 0.01931799)
(0.4304423 0.04338488 -0.01344616)
(0.4454023 0.04326286 0.001623427)
(0.4268438 0.04453692 -0.00105427)
(0.4984801 0.01795387 -0.08647866)
(0.4076089 0.05683527 -0.04038349)
(0.4784801 0.05404646 0.01662905)
(0.4294353 0.0546464 -0.01405147)
(0.4429209 0.05407821 -0.001199186)
(0.4259862 0.05403533 -0.002894106)
(0.4910704 0.02508531 -0.07558459)
(0.4123502 0.07187004 -0.03710349)
(0.4793652 0.06523415 0.01751344)
(0.4302938 0.06722785 -0.01326709)
(0.4435387 0.06634097 -9.826238e-05)
(0.4261701 0.06629016 -0.001853533)
(0.4840569 0.03236988 -0.06747764)
(0.4199707 0.08441337 -0.0336149)
(0.4815901 0.07629965 0.02110803)
(0.4321988 0.07947022 -0.01285142)
(0.4449169 0.07828052 0.0009192832)
(0.4264863 0.07806902 -0.002169155)
(0.4772789 0.03795059 -0.06114336)
(0.4261239 0.09601039 -0.02791272)
(0.4818977 0.08801584 0.02079192)
(0.4346384 0.09218787 -0.01160801)
(0.4460071 0.09048621 0.001807053)
(0.4270109 0.09040914 -0.00162574)
(0.4718189 0.04472075 -0.05254572)
(0.4326919 0.1072437 -0.02514433)
(0.4824347 0.1005002 0.02027349)
(0.4370673 0.1045463 -0.01029659)
(0.4477059 0.1027458 0.003074733)
(0.4274111 0.1026457 -0.001480296)
(0.4702974 0.0534349 -0.04358033)
(0.4352752 0.1190884 -0.02392057)
(0.481892 0.1138481 0.01818264)
(0.4384475 0.1168961 -0.009551968)
(0.4485513 0.1153264 0.003562864)
(0.4275975 0.1153843 -0.001251487)
(0.4684509 0.06137109 -0.04046112)
(0.4386435 0.131971 -0.02541603)
(0.4823071 0.1272901 0.01803058)
(0.439733 0.129101 -0.008434192)
(0.4488166 0.1280698 0.003988447)
(0.4273375 0.1279435 -0.001304827)
(0.4675261 0.06808052 -0.0374851)
(0.4397168 0.1440134 -0.02468097)
(0.4827708 0.1405068 0.01827501)
(0.4401859 0.1415533 -0.007890047)
(0.4487823 0.140846 0.004268936)
(0.4269335 0.1405043 -0.001379827)
(0.4671744 0.07646989 -0.03565417)
(0.4412452 0.1565136 -0.02402552)
(0.483633 0.1537835 0.01963526)
(0.4404321 0.1542421 -0.007546912)
(0.4488271 0.1538224 0.004535586)
(0.426399 0.1534108 -0.001539894)
(0.4664768 0.08797218 -0.03481842)
(0.4415799 0.1691853 -0.02432249)
(0.4836212 0.1670129 0.01992407)
(0.4399139 0.1672182 -0.007899139)
(0.4485723 0.1668377 0.00448535)
(0.4256979 0.1664688 -0.001687352)
(0.4656402 0.09734239 -0.03347926)
(0.4427384 0.1822247 -0.02664283)
(0.4838955 0.1802397 0.02057883)
(0.4395677 0.180276 -0.008071488)
(0.4479814 0.1798514 0.004066278)
(0.4249352 0.179552 -0.001805517)
(0.4650161 0.1055655 -0.03220926)
(0.4432213 0.1953943 -0.0280018)
(0.4838784 0.1936305 0.02042771)
(0.4390436 0.1936112 -0.008315658)
(0.447604 0.1931308 0.004108739)
(0.4241474 0.1927417 -0.001826633)
(0.4645614 0.1129243 -0.03116884)
(0.4437756 0.2087923 -0.0290106)
(0.4838506 0.2072499 0.02057087)
(0.4383679 0.2071226 -0.008518973)
(0.447008 0.206585 0.004081149)
(0.4232369 0.2060435 -0.001872362)
(0.464089 0.1210967 -0.03028102)
(0.4439446 0.222422 -0.02984451)
(0.4836877 0.2210472 0.02056933)
(0.4375554 0.2208502 -0.008747772)
(0.4464579 0.2202498 0.004211111)
(0.4222378 0.2195355 -0.001914764)
(0.4634736 0.1291735 -0.0294955)
(0.4443952 0.2362282 -0.03067877)
(0.4835877 0.2350949 0.0208985)
(0.4366509 0.2348372 -0.008973214)
(0.4458795 0.2341649 0.004413385)
(0.4211206 0.2332479 -0.001977581)
(0.4628424 0.1367888 -0.02876494)
(0.4442479 0.2501159 -0.03098261)
(0.4835002 0.2493402 0.02128673)
(0.4356268 0.2490556 -0.009200445)
(0.4451179 0.2483343 0.004602314)
(0.4198538 0.2471967 -0.002042993)
(0.4623797 0.1449475 -0.02804255)
(0.4439375 0.2641859 -0.03135011)
(0.4834272 0.2637961 0.02181412)
(0.4345974 0.2634819 -0.009370069)
(0.4442125 0.2627727 0.00480165)
(0.4184294 0.2614335 -0.002140966)
(0.462058 0.1538963 -0.02752526)
(0.4441752 0.2786513 -0.03245129)
(0.4832817 0.2784956 0.02231033)
(0.4334967 0.278144 -0.009503112)
(0.4431472 0.2774581 0.005042833)
(0.4168281 0.2759531 -0.002227692)
(0.4617342 0.1629865 -0.02719066)
(0.4445899 0.2935925 -0.03388062)
(0.4831636 0.2935286 0.0228742)
(0.4323469 0.2930828 -0.009607159)
(0.4420066 0.2923902 0.005365133)
(0.4150621 0.2907325 -0.002268093)
(0.4315859 0.1821457 -0.03546943)
(0.4448883 0.3089147 -0.03539438)
(0.4831002 0.3089399 0.02355972)
(0.4311168 0.3084054 -0.009729021)
(0.4408117 0.3076455 0.005778264)
(0.4131223 0.3058215 -0.002287062)
(0.4652694 0.006980946 0.002552821)
(0.4978188 -0.002610127 0.002330368)
(0.4675109 -0.004195919 0.001435123)
(0.4556134 -0.001593928 0.0003572705)
(0.443042 -0.002998357 0.001535549)
(0.4314961 -0.002669739 0.002219079)
(0.4889185 -0.1130512 -0.001693986)
(0.4130235 -0.01570311 -0.02440539)
(0.4876026 0.04955785 0.007530605)
(0.4351155 0.004978274 -0.003332342)
(0.4543383 0.0249023 0.003546434)
(0.429419 0.01548347 0.000637347)
(0.3825527 0.002856768 -0.04871901)
(0.4257862 0.0131645 -0.0136269)
(0.513228 0.03459779 0.001383985)
(0.4505247 0.02195311 -0.01166172)
(0.4609137 0.02905198 -0.003800599)
(0.433339 0.02832975 -0.002706648)
(0.3347712 0.00534038 -0.01214804)
(0.4342867 0.02937336 -0.01942812)
(0.5087161 0.05096959 -0.002100803)
(0.4405248 0.04310366 -0.0116883)
(0.4565076 0.04449304 -0.002097273)
(0.4285195 0.04273862 -0.001608671)
(0.4175058 0.01673094 0.002847212)
(0.4414895 0.05743292 -0.01733875)
(0.5082687 0.05773364 -0.002762971)
(0.4495283 0.05442669 -0.009372264)
(0.459803 0.05326625 -0.002085497)
(0.4333472 0.05384019 -0.002534666)
(0.4462137 0.02232314 0.001131616)
(0.4433143 0.07422427 -0.0177154)
(0.5080898 0.06822791 -0.001479455)
(0.4459949 0.06827488 -0.009180056)
(0.4568456 0.06685792 -0.0004320496)
(0.4293689 0.06788636 -0.002771861)
(0.4597889 0.03486522 -6.532626e-05)
(0.4448769 0.09028424 -0.01673216)
(0.5057139 0.07903519 0.000889322)
(0.4480847 0.08079442 -0.007907914)
(0.4561645 0.07815748 -0.000247288)
(0.4311809 0.07877266 -0.002262897)
(0.4636663 0.04427228 -0.003071168)
(0.4456084 0.1018298 -0.0165948)
(0.5017067 0.09014361 0.002810573)
(0.4470973 0.09361696 -0.007160258)
(0.4544769 0.09114896 -0.0002532852)
(0.4297181 0.09193563 -0.001822928)
(0.4699843 0.05288319 -0.004859216)
(0.446707 0.1103642 -0.01482726)
(0.4973913 0.1021517 0.003339597)
(0.4450142 0.1058935 -0.006685588)
(0.4527037 0.1032824 -0.0003968459)
(0.429601 0.1038351 -0.001054761)
(0.4752417 0.05776497 -0.004832512)
(0.4496072 0.121986 -0.01379661)
(0.4939277 0.1148537 0.002517157)
(0.4448428 0.1180352 -0.006468841)
(0.4512535 0.1156377 -0.0007836602)
(0.4294514 0.1161551 -0.0004690568)
(0.4735392 0.06170457 -0.004752625)
(0.4502455 0.1337034 -0.01443547)
(0.4920952 0.12837 0.00210682)
(0.4449669 0.1303937 -0.005717443)
(0.4515982 0.1283663 -0.0001526276)
(0.4300755 0.1282421 0.0004582223)
(0.4747334 0.06388733 -0.002091867)
(0.4459964 0.1461882 -0.01465522)
(0.4908541 0.1416593 0.001680703)
(0.4445923 0.142557 -0.005029007)
(0.4517754 0.1409105 0.0003256552)
(0.4292691 0.1406727 0.0003393917)
(0.4752915 0.07217721 0.001330915)
(0.4456955 0.1591567 -0.0154892)
(0.4898042 0.1549208 0.001836443)
(0.4448868 0.1548335 -0.004605654)
(0.4513087 0.1533492 0.0005468284)
(0.4287143 0.1532718 4.086931e-05)
(0.4730232 0.1020878 0.002578451)
(0.4452263 0.1708236 -0.01581926)
(0.4902194 0.1685729 0.002996021)
(0.445285 0.1675352 -0.004400155)
(0.4507474 0.1660923 0.0007596823)
(0.4282765 0.1660617 0.0001327417)
(0.4725169 0.1073293 0.005364221)
(0.4433178 0.1836872 -0.01559533)
(0.4906621 0.1814004 0.003311738)
(0.4457764 0.1803558 -0.004005492)
(0.450892 0.1793842 0.001147855)
(0.4277207 0.1791806 0.0002637156)
(0.4726158 0.1130567 0.006626342)
(0.4453043 0.1980344 -0.01638582)
(0.4917186 0.19485 0.004108338)
(0.445331 0.193499 -0.004070058)
(0.4501162 0.1928261 0.001032289)
(0.4269364 0.1924985 0.0005308113)
(0.4723871 0.1185329 0.007341239)
(0.4444161 0.2119997 -0.01688722)
(0.49186 0.2086217 0.004606943)
(0.4446076 0.2069822 -0.003970815)
(0.44954 0.206351 0.001109393)
(0.4260673 0.2058909 0.0007369723)
(0.4718437 0.1283971 0.008095543)
(0.4446108 0.2259814 -0.01734775)
(0.4922377 0.222623 0.005386294)
(0.4436612 0.2206602 -0.00419446)
(0.4489967 0.2200802 0.001024072)
(0.4251623 0.2194688 0.0008053928)
(0.4715516 0.1373094 0.008511267)
(0.4438718 0.2400894 -0.01749009)
(0.492435 0.2368721 0.006108023)
(0.4428232 0.2345691 -0.004310608)
(0.4483878 0.2340406 0.0009015672)
(0.4240644 0.2332473 0.0009632693)
(0.4717695 0.1427301 0.008782023)
(0.4439219 0.2544371 -0.01813053)
(0.4927311 0.2511977 0.006816236)
(0.4422314 0.24872 -0.004201811)
(0.4477496 0.248261 0.0008447162)
(0.4228353 0.2472282 0.00094359)
(0.4719941 0.1502025 0.009884911)
(0.4444436 0.2687998 -0.01941321)
(0.4931885 0.2658326 0.007312238)
(0.4417934 0.2631578 -0.003977611)
(0.4471726 0.2628165 0.0008912942)
(0.4214628 0.2614562 0.0008547312)
(0.4712366 0.1620809 0.0102224)
(0.4432231 0.2828908 -0.01994872)
(0.493586 0.280772 0.007956201)
(0.4408669 0.2779318 -0.00370145)
(0.4465119 0.2777402 0.001103414)
(0.4197882 0.2760913 0.0008165998)
(0.4705474 0.1715886 0.00987611)
(0.4414497 0.2973484 -0.02024201)
(0.4936207 0.2958208 0.008603662)
(0.4393586 0.2929734 -0.00351922)
(0.4453236 0.2928264 0.001306864)
(0.41788 0.2910134 0.0008273475)
(0.4697956 0.1804049 0.009389611)
(0.4395995 0.312239 -0.02067157)
(0.4935107 0.3111701 0.009272892)
(0.4375474 0.3083435 -0.00346625)
(0.4437922 0.3081683 0.001438766)
(0.415783 0.3062396 0.0008574359)
(0.4470934 0.005437072 0.0006292318)
(0.5017094 -0.007104285 0.0005413265)
(0.4688314 -0.007394691 -0.004843291)
(0.4614464 -0.003858375 0.000693791)
(0.4442052 -0.002817744 0.0003220927)
(0.4316331 -0.002558149 0.0006046285)
(0.5324122 -0.1081908 0.005139212)
(0.4047179 -0.02363528 -0.01506094)
(0.4765063 0.03797639 0.002942138)
(0.4272574 0.001197724 -0.001650363)
(0.4464801 0.02002833 0.0007678309)
(0.4265025 0.01553748 0.0025494)
(0.2253792 -0.004799188 -0.002782626)
(0.4502837 0.01480185 -0.01472939)
(0.5304802 0.02913529 0.004872876)
(0.454106 0.01866994 -0.005950582)
(0.4647828 0.02767053 0.003066902)
(0.4332537 0.02871537 -0.0003725524)
(0.4943596 -0.05246463 0.002467847)
(0.451747 0.03787598 -0.007842671)
(0.5118729 0.04646327 -0.0007301833)
(0.4463499 0.0467906 -0.004625972)
(0.4478943 0.04251295 -0.002211161)
(0.4273536 0.04438208 0.0006095594)
(0.4762021 0.01291835 0.002856347)
(0.450758 0.05431323 -0.01556872)
(0.5052918 0.05658042 0.00234813)
(0.4466334 0.05725906 -0.002027088)
(0.4572263 0.05482678 0.0009346189)
(0.429292 0.05422242 0.0005852635)
(0.4798376 0.03932703 0.00207657)
(0.4455149 0.07012602 -0.0144097)
(0.501568 0.06859132 0.005454806)
(0.4427823 0.0710211 -0.0006877382)
(0.4526986 0.06741911 0.000382873)
(0.4270598 0.06835235 0.001594186)
(0.481071 0.05968952 0.000464757)
(0.4413769 0.08530105 -0.01143227)
(0.4967351 0.07985967 0.006154841)
(0.4406097 0.08206357 -0.0005602659)
(0.4515616 0.07880294 0.001451067)
(0.4275123 0.07872863 0.00123675)
(0.4809639 0.07792647 -0.001747028)
(0.4409733 0.09838139 -0.01145625)
(0.4943128 0.09069988 0.005247463)
(0.4414826 0.09334356 -0.0004176545)
(0.4507812 0.09076158 0.001391942)
(0.4268403 0.09141377 0.0007945445)
(0.486293 0.06849378 -0.001911427)
(0.4469866 0.1101038 -0.0111724)
(0.4929632 0.1010673 0.006669347)
(0.4439469 0.1045462 -0.0005022622)
(0.4499938 0.1026628 0.0008787817)
(0.4273707 0.103811 0.000802453)
(0.4891976 0.06523279 -0.0008958513)
(0.453534 0.1208715 -0.008706149)
(0.493236 0.1135006 0.005915013)
(0.4457373 0.1167042 -0.001161389)
(0.4486513 0.1154845 0.0002438769)
(0.4275201 0.1167611 0.0005402334)
(0.4863198 0.06554902 -7.016679e-05)
(0.45382 0.1338541 -0.006550451)
(0.4895275 0.1268746 0.004787209)
(0.4432589 0.1299566 -0.001353896)
(0.4453754 0.1281729 -0.0001908038)
(0.4263313 0.1287259 0.0007822712)
(0.4849805 0.07755322 0.001460436)
(0.4566977 0.14857 -0.009273542)
(0.4884432 0.1407489 0.003395637)
(0.4427466 0.142695 -0.001827552)
(0.4463505 0.1407349 0.0003879216)
(0.4260423 0.1406043 0.0009617058)
(0.4834908 0.08308883 0.004433871)
(0.4552851 0.1604748 -0.0106615)
(0.4887295 0.1551648 0.002799265)
(0.4424083 0.1553129 -0.002201114)
(0.4472812 0.1536617 0.0008340675)
(0.425652 0.1535851 0.000709995)
(0.4807641 0.09256582 0.007068759)
(0.4495088 0.1725759 -0.01072899)
(0.4864215 0.1681978 0.00269146)
(0.4408167 0.1681483 -0.002293395)
(0.4460382 0.1665053 0.0005150269)
(0.4243309 0.1665417 0.0003104498)
(0.4806703 0.09909534 0.009801275)
(0.4514739 0.1860816 -0.01427179)
(0.485034 0.1813637 0.003274368)
(0.4388119 0.180692 -0.002348547)
(0.4456706 0.1793798 0.0007713532)
(0.423348 0.1791043 0.0005717691)
(0.4804395 0.1056742 0.01077657)
(0.4505078 0.1990677 -0.01430559)
(0.4849824 0.1952843 0.003421277)
(0.4394357 0.1931916 -0.001779077)
(0.444969 0.1923598 0.0007497574)
(0.4226564 0.1924654 0.0005762292)
(0.4799927 0.1138863 0.01097701)
(0.4498066 0.2130924 -0.01533822)
(0.4850224 0.2091179 0.003675103)
(0.4385089 0.2064287 -0.00154744)
(0.4442334 0.2056943 0.0007639177)
(0.4216197 0.2060515 0.0007293186)
(0.4794292 0.123458 0.0111934)
(0.4483042 0.2270499 -0.01498466)
(0.4851715 0.2231051 0.003648062)
(0.4387854 0.2198193 -0.001174394)
(0.4428259 0.2191564 0.0004253334)
(0.4206645 0.2195632 0.0007425045)
(0.4791482 0.1326808 0.01114017)
(0.4478185 0.2410717 -0.01579985)
(0.4855175 0.2369517 0.004072685)
(0.4385263 0.233913 -0.0009837777)
(0.4417762 0.2330956 0.0003977664)
(0.4195499 0.2332589 0.000802396)
(0.4790958 0.1402421 0.01166434)
(0.4468698 0.2546174 -0.0168775)
(0.4857995 0.2508444 0.004476649)
(0.4379528 0.248294 -0.0006654868)
(0.4410895 0.2472556 0.0006328878)
(0.4183095 0.2469374 0.0008935855)
(0.4790666 0.1459102 0.01286476)
(0.4468919 0.2690006 -0.01781163)
(0.4864246 0.2652742 0.004775719)
(0.437274 0.2629281 -0.0003232145)
(0.4410279 0.2617754 0.001100959)
(0.4169723 0.2611347 0.0009932022)
(0.4791362 0.1566814 0.01322207)
(0.445959 0.2838196 -0.01872826)
(0.4859085 0.2802378 0.004885714)
(0.4358234 0.2777768 -6.249882e-05)
(0.4403312 0.2765655 0.001560922)
(0.4153669 0.2757265 0.001071307)
(0.4786563 0.1659107 0.01278684)
(0.4448585 0.2984996 -0.02016328)
(0.4854277 0.2954371 0.005262161)
(0.4343612 0.2926611 0.0003237456)
(0.4394019 0.2915375 0.001968668)
(0.4135678 0.290565 0.001170046)
(0.4780507 0.1744913 0.01235323)
(0.4435132 0.3133878 -0.02143594)
(0.4852175 0.3109358 0.00563334)
(0.43313 0.3077896 0.0007515506)
(0.4382405 0.3067726 0.002240242)
(0.4115353 0.3057193 0.001216647)
(0.4414312 0.005654549 -0.007349483)
(0.4980401 -0.01019721 0.001514566)
(0.4715109 -0.007956619 0.0022528)
(0.4621941 -0.005296651 -0.0005790837)
(0.4445785 -0.002757382 -0.0005066287)
(0.4328953 -0.002600349 0.000132066)
(0.5404257 -0.0999328 0.002434367)
(0.398932 -0.02093933 -0.004101161)
(0.4759219 0.03594367 -5.354832e-05)
(0.4266024 0.002277104 -0.0009188869)
(0.4418018 0.01468974 -0.0005160283)
(0.4250102 0.01519756 -2.160108e-05)
(0.3092195 0.006467834 -0.02554099)
(0.4474719 0.008132661 -0.004218333)
(0.5238824 0.02050258 -0.001248367)
(0.4522235 0.02085165 -0.0006195695)
(0.4635434 0.02564041 0.0007739015)
(0.4355578 0.02816272 -0.0003122223)
(0.473526 -0.02515163 -0.001329634)
(0.4720495 0.04007342 0.002912564)
(0.5162827 0.04655168 -0.001036892)
(0.4539354 0.04508917 -0.002125857)
(0.4563655 0.04343385 -0.001274224)
(0.4290372 0.04404432 -0.002382531)
(0.4711794 0.01963173 0.002350578)
(0.4484308 0.05482738 0.003160654)
(0.5012303 0.05750452 -0.001287983)
(0.4478921 0.05776286 -0.0008919813)
(0.4549271 0.0562933 -0.0009198191)
(0.4339746 0.05432335 -0.0004643818)
(0.4806249 0.02820162 -0.002873837)
(0.4369206 0.07007836 0.0001109604)
(0.4918978 0.07007273 -0.0009354997)
(0.4399614 0.0716304 -0.0009768708)
(0.4497313 0.06777617 -0.0007637627)
(0.4266883 0.06862652 -0.0003819615)
(0.4875976 0.03954894 -0.003871427)
(0.438708 0.08749983 -0.001830988)
(0.489284 0.08154497 -0.0004860178)
(0.4429145 0.08180693 -0.0002186277)
(0.4490498 0.07894937 -0.0007468824)
(0.4300775 0.07898175 -3.92012e-05)
(0.4896152 0.04524163 -0.001194815)
(0.4403734 0.1004986 -0.001397208)
(0.4918728 0.09219411 0.0003847338)
(0.4442866 0.09346745 -0.0005243766)
(0.4503913 0.0898838 -0.0003611858)
(0.4314505 0.09110387 -0.0002194516)
(0.4917831 0.05185726 -0.001636509)
(0.4421282 0.1105387 -0.001118714)
(0.4909245 0.1028948 0.0007935768)
(0.445547 0.105291 -0.0007713646)
(0.4497954 0.1022688 -0.0004738922)
(0.4299439 0.1034689 -0.0002346614)
(0.4939564 0.05748603 -0.001709589)
(0.4486741 0.1210887 -0.0005536309)
(0.4916545 0.1144479 0.0008078137)
(0.4477053 0.1175565 -0.0004804192)
(0.450209 0.1151594 -0.0005626286)
(0.4298832 0.1159022 -0.0004422267)
(0.4900555 0.06327169 -0.001425112)
(0.4512113 0.1325427 -0.0004816944)
(0.489057 0.1276302 0.000503635)
(0.44597 0.1305678 -0.000386517)
(0.4487204 0.1284431 -0.0005860496)
(0.4284486 0.1285937 -0.0009018489)
(0.4887226 0.08538237 -0.000389256)
(0.452211 0.1450116 -0.001188286)
(0.4850583 0.140882 -9.416247e-05)
(0.443985 0.1426561 -0.0001770414)
(0.4468821 0.1407094 -0.0005128915)
(0.4275407 0.1405397 -0.0006414039)
(0.4868576 0.09780537 0.001170905)
(0.4564482 0.1587682 -0.00159324)
(0.4860071 0.1541311 -0.0009211015)
(0.4452473 0.1539259 -0.0001252768)
(0.44733 0.1529943 -0.0008970219)
(0.4279619 0.1526645 -0.0006396951)
(0.4842509 0.09276385 0.006962892)
(0.4617394 0.1703472 -0.001212044)
(0.4922387 0.1685615 -0.000738703)
(0.4495307 0.1668154 -0.0007556186)
(0.4506112 0.1661767 -0.001390653)
(0.4294855 0.1654229 -0.0005658569)
(0.4832272 0.09480606 0.01051726)
(0.4543886 0.1837192 0.0007916058)
(0.489699 0.1813398 -0.0009426271)
(0.4459188 0.1804624 -0.0003098717)
(0.4484527 0.1793031 -0.001855364)
(0.4265687 0.1791367 -0.0007495577)
(0.4823967 0.103194 0.01046464)
(0.4552025 0.1981404 -0.0008107039)
(0.4904604 0.1949386 -0.0008263811)
(0.446584 0.1931094 -0.0008604456)
(0.4487923 0.1927578 -0.00177954)
(0.4256874 0.1923115 -0.001403609)
(0.4818599 0.1113007 0.00979916)
(0.45294 0.2117158 -0.0002723854)
(0.4880707 0.2080063 -0.001233075)
(0.4444712 0.2066392 -0.0007119203)
(0.4467972 0.2059504 -0.001870907)
(0.424437 0.2057041 -0.0009738612)
(0.4814276 0.1203064 0.00969247)
(0.4547138 0.2259219 -0.001710761)
(0.4894009 0.2222002 -0.0006025468)
(0.4452107 0.2200555 -0.0005475051)
(0.4470495 0.2196453 -0.001673966)
(0.423572 0.2192186 -0.001485988)
(0.4809317 0.1272995 0.009392001)
(0.4517236 0.2392826 -0.001272791)
(0.4884855 0.2361901 -0.0004903177)
(0.4432893 0.2344099 -0.0004340135)
(0.4462146 0.2335567 -0.001399282)
(0.4220933 0.2329775 -0.001290804)
(0.4805697 0.1338834 0.008658963)
(0.450084 0.2531901 -0.001265356)
(0.487114 0.2502171 -0.0003675411)
(0.4419367 0.2487597 -0.0001435833)
(0.4452436 0.2477165 -0.001131618)
(0.4206464 0.247002 -0.001363618)
(0.4805089 0.1422283 0.006887418)
(0.4479541 0.2672296 -0.00102225)
(0.4858366 0.2645557 -0.0002674468)
(0.4406034 0.2631989 2.839633e-05)
(0.4439903 0.2623744 -0.0009175598)
(0.4190707 0.2611918 -0.001170438)
(0.4783281 0.155412 0.007130243)
(0.4462603 0.2812769 -0.001208603)
(0.4853093 0.2793684 0.0001829325)
(0.4385288 0.2780624 0.0002121052)
(0.4429318 0.2774054 -0.0006763349)
(0.4173186 0.2757551 -0.0009893965)
(0.4764416 0.165117 0.00715531)
(0.4427815 0.2957069 -0.0008182843)
(0.4830405 0.2941828 0.0002597526)
(0.4356953 0.2930705 0.0005293847)
(0.4411664 0.2923877 -0.0004300936)
(0.4150914 0.2906614 -0.0007680341)
(0.4742462 0.1732236 0.007524571)
(0.4412543 0.3104832 -0.001613855)
(0.481593 0.3094076 0.0003645302)
(0.4338574 0.3081628 0.0008706087)
(0.4394524 0.3076726 -0.000187747)
(0.4129254 0.3058155 -0.0005578206)
(0.4415046 -0.0005419929 0.001600394)
(0.4926669 -0.007933715 -6.239309e-05)
(0.4684546 -0.006231139 0.001577789)
(0.4559714 -0.001533692 8.630772e-05)
(0.4442331 -0.002737656 0.0006346574)
(0.4316318 -0.001801237 0.0002919594)
(0.5385046 -0.1130598 -1.022135e-05)
(0.398598 -0.02163528 0.005038737)
(0.4760593 0.03666263 4.658905e-05)
(0.4266461 0.001814497 0.0009999437)
(0.4422013 0.01510978 0.0004800754)
(0.4251329 0.01493387 4.912839e-05)
(0.2759873 -0.0005345938 0.005762274)
(0.446924 0.008040866 0.003988273)
(0.5247704 0.02079434 0.001336026)
(0.4525736 0.020945 0.0006586806)
(0.4636447 0.02567077 -0.0007564676)
(0.4356944 0.02819376 0.0003179905)
(0.5066977 -0.0909066 -0.004689572)
(0.4719668 0.0405539 -0.002743605)
(0.516597 0.04672364 0.001041741)
(0.4542607 0.04514298 0.002140773)
(0.4568492 0.0435891 0.001264733)
(0.4291216 0.04403936 0.002438703)
(0.4882289 -0.01069712 -0.004404792)
(0.4481805 0.05484517 -0.003199168)
(0.5011358 0.05749158 0.00133114)
(0.4478975 0.05777648 0.0009271998)
(0.4549487 0.05631118 0.000920593)
(0.4342216 0.0543168 0.0004978564)
(0.4922802 0.02661542 0.0009192463)
(0.437761 0.07044247 0.0002065542)
(0.4919351 0.07009076 0.00096337)
(0.4401358 0.07166105 0.001006212)
(0.4497978 0.06778089 0.0007613403)
(0.426676 0.06866278 0.0004259011)
(0.4949124 0.03685666 0.003639014)
(0.4388463 0.08765633 0.002108054)
(0.4890207 0.08162113 0.0006266168)
(0.4427654 0.08181531 0.0002727642)
(0.4489646 0.07894691 0.0007620465)
(0.4300755 0.07899174 8.167934e-05)
(0.4965765 0.05563118 0.006029759)
(0.4401619 0.1004191 0.001540584)
(0.4917063 0.09220335 -0.0002213926)
(0.4443552 0.09345341 0.0005632068)
(0.4503668 0.08987415 0.000364502)
(0.4314755 0.09109482 0.0002590513)
(0.4985156 0.07477751 0.007137757)
(0.4419446 0.1104956 0.001181218)
(0.4908643 0.1028544 -0.000650821)
(0.4456241 0.1052636 0.0008144377)
(0.4498269 0.1022641 0.0004733392)
(0.4299472 0.1034586 0.0002701101)
(0.4995764 0.08575345 0.006062086)
(0.4487638 0.1211446 0.0006772548)
(0.4916459 0.1143749 -0.0006807984)
(0.4477803 0.1175231 0.0005315021)
(0.4502432 0.11516 0.0005636416)
(0.4298831 0.1159054 0.0004706932)
(0.4950784 0.08377899 0.004839572)
(0.4514012 0.1326163 0.0006395283)
(0.4890496 0.1275734 -0.0003873008)
(0.4459474 0.1305666 0.0004651584)
(0.448746 0.1284544 0.0005945276)
(0.4284409 0.1285976 0.0009152023)
(0.4949688 0.07754301 0.004565719)
(0.4522871 0.1450608 0.00144158)
(0.4850141 0.1408814 0.0001793403)
(0.4439553 0.1426578 0.0002672397)
(0.4469071 0.1407167 0.0005209316)
(0.4275314 0.1405459 0.0006616241)
(0.4932815 0.08167905 0.004907423)
(0.4560977 0.1586262 0.001704404)
(0.4857804 0.1541068 0.001029498)
(0.4451936 0.1539372 0.0002112985)
(0.447266 0.1530004 0.0009079076)
(0.4279469 0.1526685 0.0006517171)
(0.4899923 0.08977491 0.002203679)
(0.4613779 0.1701777 0.001372709)
(0.4920343 0.1684748 0.0008898742)
(0.4494328 0.1667837 0.0007826795)
(0.450548 0.1661707 0.00141982)
(0.4294245 0.1654425 0.0005751273)
(0.4834618 0.1001423 -0.005919917)
(0.4546534 0.1836681 -0.0006938183)
(0.4896003 0.1812435 0.0009962398)
(0.4459763 0.1804367 0.0003626388)
(0.448447 0.1793096 0.001863029)
(0.4265687 0.1791252 0.0007534134)
(0.4819341 0.107197 -0.008714366)
(0.4552273 0.1980509 0.0007794056)
(0.4904867 0.1949406 0.000806921)
(0.446465 0.1931059 0.0008824271)
(0.4488594 0.1927782 0.001785953)
(0.4256189 0.1923364 0.001384998)
(0.4806835 0.1146823 -0.01009158)
(0.4523569 0.2116546 3.250799e-05)
(0.4877714 0.2079377 0.001334527)
(0.4443024 0.2066609 0.0007631081)
(0.4467837 0.2059593 0.001877535)
(0.4244124 0.2057026 0.0009571124)
(0.4796984 0.1224685 -0.01123592)
(0.4545558 0.2257938 0.001523126)
(0.4894154 0.22218 0.000569451)
(0.4450148 0.2200187 0.0005474475)
(0.4470998 0.2196606 0.001674162)
(0.4233577 0.2192838 0.001444739)
(0.4782079 0.1323873 -0.01193192)
(0.45081 0.2392957 0.0008803912)
(0.4884042 0.2361516 0.0005083486)
(0.4431098 0.2344217 0.0004597766)
(0.4461747 0.2335681 0.001403696)
(0.4220554 0.2329957 0.001256495)
(0.4766278 0.1425315 -0.01274004)
(0.4488398 0.2531254 0.0006272016)
(0.4865532 0.2500939 0.000535031)
(0.4417696 0.2487114 0.0001464615)
(0.4450472 0.2477016 0.001126395)
(0.4205595 0.247039 0.001328404)
(0.4753283 0.1512911 -0.0137998)
(0.4500762 0.2676591 0.001950545)
(0.4863883 0.2646967 -3.422336e-06)
(0.4408404 0.2631717 -4.633749e-05)
(0.4439318 0.2623978 0.0009074314)
(0.4190234 0.2612318 0.001151808)
(0.4735389 0.1596076 -0.01441576)