/*--------------------------------*- C++ -*----------------------------------*\
  =========                 |
  \\      /  F ield         | OpenFOAM: The Open Source CFD Toolbox
   \\    /   O peration     | Website:  https://openfoam.org
    \\  /    A nd           | Version:  7
     \\/     M anipulation  |
\*---------------------------------------------------------------------------*/
FoamFile
{
    version     2.0;
    format      ascii;
    class       volScalarField;
    location    "0.08";
    object      epsilon;
}
// * * * * * * * * * * * * * * * * * * * * * * * * * * * * * * * * * * * * * //

dimensions      [0 2 -3 0 0 0 0];

internalField   nonuniform List<scalar> 
105056
(
0.001911603
0.001972764
0.001977247
0.001977883
0.001977741
0.001964907
0.002077816
0.002087663
0.002089341
0.0020889
0.001968927
0.002088389
0.002099837
0.002101847
0.002101265
0.001969245
0.002089728
0.002101583
0.002103768
0.002103198
0.001969222
0.00209006
0.002102013
0.002104147
0.002103662
0.001969339
0.00209019
0.002102164
0.002104243
0.002103816
0.001969381
0.00209026
0.002102232
0.002104263
0.002103878
0.001969399
0.002090287
0.002102257
0.002104307
0.002103906
0.001969409
0.002090282
0.002102267
0.002104357
0.002103925
0.001969443
0.002090284
0.002102269
0.002104401
0.002103938
0.001969438
0.002090292
0.00210228
0.002104414
0.002103947
0.00196942
0.002090301
0.002102286
0.002104424
0.00210395
0.00196943
0.002090314
0.002102299
0.00210441
0.002103947
0.00196945
0.002090326
0.002102307
0.002104399
0.002103945
0.001969419
0.002090318
0.002102309
0.002104379
0.002103943
0.00196945
0.002090354
0.002102318
0.002104352
0.002103939
0.001969432
0.002090525
0.002102356
0.002104285
0.002103933
0.001969398
0.002090504
0.002102379
0.002104221
0.002103922
0.001969423
0.002090491
0.00210237
0.002104188
0.002103897
0.001969249
0.002090644
0.002102346
0.002104092
0.002103824
0.001969188
0.002090506
0.00210215
0.002103851
0.002103585
0.001968962
0.002089795
0.002101414
0.002103088
0.002102835
0.01076158
0.002088435
0.002099932
0.002101559
0.002101349
0.002097994
0.002109089
0.002108599
0.002108698
0.002108715
0.01092451
0.01080508
0.01079632
0.01079563
0.01079532
0.01079529
0.01091792
0.01080072
0.01079629
0.01079538
0.0107952
0.01079517
0.01090789
0.0107999
0.01079613
0.01079526
0.01079517
0.01079515
0.01090871
0.01080022
0.0107961
0.01079529
0.01079518
0.01079516
0.01090844
0.01080018
0.01079611
0.0107953
0.01079519
0.01079516
0.01090833
0.0108
0.01079614
0.01079531
0.01079519
0.01079516
0.01090832
0.01079984
0.01079614
0.01079529
0.01079518
0.01079516
0.01090842
0.01079972
0.01079613
0.01079528
0.01079518
0.01079516
0.0109084
0.01079964
0.01079613
0.01079527
0.01079518
0.01079516
0.01090799
0.01079966
0.01079612
0.01079526
0.01079518
0.01079516
0.01090807
0.01079967
0.01079612
0.01079527
0.01079518
0.01079516
0.01090797
0.01079976
0.01079613
0.01079528
0.01079518
0.01079516
0.01090771
0.01079986
0.01079613
0.0107953
0.01079518
0.01079516
0.01090644
0.01080007
0.01079614
0.01079531
0.01079518
0.01079516
0.01090603
0.01080007
0.01079614
0.01079532
0.01079518
0.01079516
0.01090666
0.01080011
0.01079614
0.01079532
0.01079518
0.01079516
0.01090584
0.01080042
0.01079615
0.01079534
0.01079518
0.01079516
0.01090575
0.0108004
0.01079614
0.01079534
0.01079518
0.01079516
0.01090579
0.01080037
0.01079614
0.01079534
0.01079518
0.01079516
0.01090568
0.0108007
0.01079615
0.01079533
0.01079518
0.01079516
0.01090848
0.0108006
0.01079612
0.01079532
0.01079518
0.01079516
0.01090917
0.01080044
0.0107961
0.01079529
0.01079518
0.01079515
0.01090894
0.01079997
0.01079609
0.01079527
0.01079518
0.01079515
0.002094127
0.002109245
0.002108322
0.002108402
0.002108306
0.01091643
0.01080081
0.01079621
0.01079538
0.0107952
0.01079515
0.01091858
0.01080073
0.01079567
0.01079555
0.01079511
0.01079512
0.01092156
0.01079926
0.01079611
0.01079539
0.01079508
0.01079506
0.01092143
0.01079861
0.01079604
0.01079529
0.0107951
0.01079509
0.01091884
0.01079832
0.01079648
0.01079518
0.01079512
0.01079506
0.01091761
0.01079832
0.01079641
0.01079517
0.01079517
0.01079507
0.01091599
0.01079845
0.01079636
0.01079517
0.01079518
0.01079507
0.01091569
0.01079857
0.01079633
0.01079517
0.01079519
0.01079507
0.01091553
0.01079869
0.01079632
0.01079518
0.0107952
0.01079508
0.0109153
0.01079876
0.01079632
0.01079518
0.0107952
0.01079507
0.01091537
0.01079881
0.01079632
0.01079518
0.01079521
0.01079507
0.0109155
0.01079885
0.01079634
0.01079517
0.01079522
0.01079507
0.01091565
0.0107989
0.01079637
0.01079517
0.01079522
0.01079507
0.01091549
0.01079894
0.0107964
0.01079517
0.01079523
0.01079507
0.01091599
0.01079895
0.01079642
0.01079517
0.01079523
0.01079507
0.01091613
0.01079901
0.01079646
0.01079517
0.01079523
0.01079507
0.01091616
0.01079894
0.01079648
0.01079517
0.01079523
0.01079507
0.01091614
0.01079895
0.01079648
0.01079517
0.01079523
0.01079507
0.01091617
0.01079896
0.01079647
0.01079517
0.01079523
0.01079507
0.01091609
0.01079894
0.01079648
0.01079518
0.01079522
0.01079507
0.01091613
0.01079886
0.01079645
0.01079517
0.01079522
0.01079507
0.01091608
0.01079884
0.01079643
0.01079518
0.01079521
0.01079507
0.01091905
0.0107991
0.01079637
0.01079517
0.0107952
0.01079507
0.002092608
0.002109289
0.002107859
0.002107935
0.002107642
0.01090644
0.01079982
0.0107961
0.01079526
0.01079518
0.01079514
0.01091883
0.01079905
0.01079604
0.01079543
0.01079512
0.01079508
0.01091729
0.0108004
0.01079549
0.01079557
0.01079512
0.0107951
0.01091435
0.01079998
0.01079575
0.01079528
0.01079515
0.01079509
0.01091237
0.01080047
0.01079545
0.01079556
0.01079516
0.01079511
0.01091311
0.01080018
0.01079545
0.01079561
0.01079517
0.01079514
0.010913
0.01079992
0.01079546
0.01079562
0.01079518
0.01079514
0.01091294
0.01079964
0.01079546
0.01079565
0.01079519
0.01079515
0.01091281
0.01079948
0.01079547
0.01079567
0.0107952
0.01079515
0.01091273
0.01079937
0.01079548
0.01079569
0.0107952
0.01079515
0.01091264
0.01079929
0.01079549
0.01079571
0.01079521
0.01079516
0.01091255
0.01079929
0.01079551
0.01079574
0.01079521
0.01079516
0.01091241
0.01079933
0.01079553
0.01079576
0.01079522
0.01079516
0.01091228
0.01079936
0.01079555
0.01079578
0.01079521
0.01079516
0.01091221
0.01079937
0.01079556
0.01079581
0.01079522
0.01079517
0.01091211
0.01079941
0.01079557
0.01079583
0.01079521
0.01079517
0.01091215
0.01079946
0.01079558
0.01079584
0.01079521
0.01079517
0.01091241
0.01079944
0.01079557
0.01079583
0.01079521
0.01079517
0.01091266
0.01079939
0.01079556
0.01079582
0.01079521
0.01079516
0.01091294
0.01079936
0.01079554
0.0107958
0.01079521
0.01079516
0.010913
0.01079932
0.01079555
0.01079579
0.01079521
0.01079516
0.01091319
0.0107993
0.01079553
0.01079577
0.0107952
0.01079516
0.01091287
0.01079918
0.01079552
0.01079573
0.0107952
0.01079516
0.002092353
0.002109018
0.002107592
0.002107732
0.002107424
0.01091238
0.01079943
0.01079604
0.01079526
0.01079517
0.01079514
0.01091899
0.01079853
0.01079594
0.01079533
0.0107951
0.0107951
0.01092439
0.01079975
0.01079566
0.01079523
0.01079512
0.01079506
0.01091263
0.01079942
0.01079558
0.01079577
0.01079522
0.01079516
0.01092488
0.01079862
0.01079551
0.01079536
0.01079514
0.01079509
0.01091515
0.01079774
0.01079544
0.01079522
0.01079512
0.01079508
0.01091466
0.01079778
0.01079544
0.01079523
0.01079512
0.01079508
0.01091465
0.01079787
0.01079545
0.01079524
0.01079513
0.01079508
0.0109144
0.01079792
0.01079546
0.01079525
0.01079513
0.01079508
0.01091435
0.01079797
0.01079547
0.01079526
0.01079513
0.01079508
0.0109148
0.01079799
0.01079548
0.01079528
0.01079513
0.01079508
0.01091555
0.01079802
0.01079548
0.01079526
0.01079513
0.01079508
0.01091646
0.01079801
0.01079548
0.01079522
0.01079512
0.01079508
0.01091736
0.01079802
0.01079549
0.01079521
0.01079512
0.01079507
0.01091832
0.01079804
0.01079549
0.01079521
0.01079512
0.01079508
0.0109188
0.01079804
0.01079549
0.01079521
0.01079512
0.01079508
0.01091855
0.01079802
0.01079549
0.01079519
0.01079512
0.01079508
0.01091798
0.01079799
0.01079548
0.01079519
0.01079512
0.01079507
0.01091751
0.01079798
0.01079547
0.01079518
0.01079511
0.01079507
0.01091707
0.01079797
0.01079547
0.01079519
0.01079511
0.01079506
0.01091635
0.01079793
0.01079545
0.01079516
0.01079511
0.01079507
0.01091493
0.01079792
0.01079544
0.01079516
0.0107951
0.01079506
0.01093958
0.01079768
0.01079544
0.01079515
0.0107951
0.01079506
0.002092484
0.002108857
0.002107507
0.00210735
0.002107405
0.0109132
0.01079939
0.01079606
0.01079528
0.01079516
0.01079514
0.01091876
0.0107985
0.01079597
0.01079533
0.0107951
0.0107951
0.01091264
0.01079976
0.01079566
0.01079523
0.01079512
0.01079506
0.01091553
0.01079935
0.01079558
0.01079576
0.01079522
0.01079516
0.01091332
0.01079845
0.0107955
0.01079533
0.01079514
0.01079508
0.01091194
0.01079768
0.01079544
0.01079521
0.01079512
0.01079508
0.01091138
0.01079777
0.01079543
0.01079522
0.01079512
0.01079508
0.01091113
0.01079788
0.01079545
0.01079524
0.01079513
0.01079508
0.0109113
0.01079794
0.01079545
0.01079525
0.01079513
0.01079508
0.01091195
0.01079794
0.01079546
0.01079525
0.01079513
0.01079508
0.01091264
0.01079793
0.01079546
0.01079525
0.01079513
0.01079507
0.01091328
0.01079793
0.01079546
0.01079522
0.01079512
0.01079507
0.01091387
0.01079792
0.01079545
0.01079518
0.01079511
0.01079507
0.01091439
0.0107979
0.01079544
0.01079516
0.01079511
0.01079506
0.01091489
0.0107979
0.01079544
0.01079515
0.0107951
0.01079506
0.01091521
0.01079789
0.01079543
0.01079514
0.0107951
0.01079506
0.01091523
0.01079786
0.01079542
0.01079514
0.0107951
0.01079506
0.01091492
0.01079785
0.01079542
0.01079513
0.01079509
0.01079506
0.01091456
0.01079787
0.01079542
0.01079514
0.01079509
0.01079506
0.0109143
0.01079787
0.01079542
0.01079514
0.01079509
0.01079506
0.01091377
0.01079787
0.01079542
0.01079515
0.0107951
0.01079506
0.01091325
0.01079787
0.01079543
0.01079519
0.0107951
0.01079507
0.01091458
0.0107976
0.01079536
0.01079508
0.01079507
0.01079505
0.00209337
0.002108836
0.002107614
0.002107449
0.002107497
0.01090585
0.01079988
0.01079613
0.01079525
0.01079518
0.01079514
0.01091675
0.01079895
0.01079607
0.01079544
0.01079512
0.01079508
0.01092394
0.01080036
0.01079551
0.01079556
0.01079512
0.0107951
0.01093696
0.01080002
0.01079573
0.01079527
0.01079514
0.01079509
0.01091989
0.01080053
0.01079542
0.01079556
0.01079515
0.01079511
0.01091194
0.01080021
0.01079544
0.01079559
0.01079517
0.01079513
0.01091116
0.01079991
0.01079543
0.0107956
0.01079517
0.01079513
0.01091106
0.01079963
0.01079544
0.01079564
0.01079518
0.01079514
0.01091103
0.01079947
0.01079544
0.01079566
0.01079519
0.01079515
0.01091099
0.01079938
0.01079545
0.01079568
0.01079519
0.01079515
0.01091093
0.01079931
0.01079546
0.0107957
0.0107952
0.01079515
0.0109109
0.01079931
0.01079548
0.01079572
0.0107952
0.01079516
0.01091088
0.01079933
0.0107955
0.01079575
0.0107952
0.01079516
0.01091085
0.01079936
0.01079551
0.01079576
0.0107952
0.01079516
0.01091083
0.01079936
0.01079552
0.01079578
0.0107952
0.01079517
0.01091083
0.01079939
0.01079553
0.01079579
0.0107952
0.01079517
0.01091084
0.01079942
0.01079553
0.0107958
0.0107952
0.01079517
0.01091084
0.01079944
0.01079553
0.01079581
0.0107952
0.01079517
0.0109108
0.0107994
0.01079552
0.01079579
0.0107952
0.01079516
0.01091077
0.01079933
0.01079551
0.01079577
0.0107952
0.01079516
0.01091074
0.01079929
0.01079551
0.01079578
0.0107952
0.01079517
0.01091081
0.01079931
0.0107955
0.01079573
0.0107952
0.01079515
0.01091055
0.0107993
0.01079551
0.01079573
0.0107952
0.01079517
0.002094218
0.002109738
0.002108192
0.002108248
0.002108167
0.0109116
0.01080067
0.0107963
0.01079539
0.01079521
0.01079515
0.01092966
0.01080073
0.01079575
0.01079553
0.01079511
0.01079511
0.01093526
0.0107992
0.01079618
0.01079536
0.01079508
0.01079506
0.01091849
0.01079852
0.01079612
0.01079525
0.01079509
0.01079508
0.01091448
0.01079824
0.01079652
0.01079514
0.01079512
0.01079505
0.01091321
0.01079825
0.01079644
0.01079513
0.01079516
0.01079506
0.01091307
0.01079841
0.01079639
0.01079513
0.01079517
0.01079506
0.01091294
0.01079854
0.01079635
0.01079513
0.01079518
0.01079506
0.01091287
0.01079865
0.01079633
0.01079513
0.01079518
0.01079506
0.01091283
0.01079873
0.01079633
0.01079513
0.01079519
0.01079506
0.01091292
0.01079881
0.01079632
0.01079513
0.01079519
0.01079506
0.01091297
0.01079887
0.01079633
0.01079512
0.0107952
0.01079506
0.0109132
0.01079886
0.01079635
0.01079512
0.01079521
0.01079506
0.01091316
0.01079894
0.01079637
0.01079512
0.01079521
0.01079505
0.01091334
0.01079892
0.01079639
0.01079512
0.01079521
0.01079505
0.01091326
0.01079901
0.01079641
0.01079511
0.01079521
0.01079505
0.01091347
0.01079893
0.01079642
0.01079511
0.01079521
0.01079505
0.01091352
0.01079895
0.01079644
0.01079512
0.01079521
0.01079505
0.01091357
0.01079891
0.01079645
0.01079512
0.01079521
0.01079505
0.01091364
0.01079875
0.01079642
0.01079512
0.0107952
0.01079505
0.01091328
0.01079895
0.01079643
0.01079512
0.0107952
0.01079505
0.0109132
0.01079893
0.01079642
0.01079512
0.01079519
0.01079505
0.01091303
0.01079899
0.01079633
0.01079512
0.01079518
0.01079505
0.002093577
0.002106511
0.002104822
0.002105299
0.002104972
0.01096427
0.01080497
0.01079632
0.01079561
0.01079532
0.01079528
0.01094536
0.01080063
0.01079629
0.01079535
0.01079519
0.01079515
0.01091741
0.01079978
0.01079613
0.01079522
0.01079517
0.01079514
0.01091329
0.01080007
0.01079609
0.01079524
0.01079518
0.01079515
0.0109134
0.01080002
0.0107961
0.01079526
0.01079519
0.01079515
0.01091313
0.01079986
0.01079614
0.01079526
0.01079518
0.01079515
0.01091298
0.01079969
0.01079614
0.01079524
0.01079518
0.01079515
0.01091295
0.01079961
0.01079612
0.01079522
0.01079518
0.01079514
0.01091295
0.01079958
0.01079611
0.01079521
0.01079518
0.01079514
0.01091293
0.01079955
0.01079612
0.01079521
0.01079518
0.01079514
0.01091312
0.01079965
0.01079612
0.01079522
0.01079518
0.01079514
0.01091307
0.0107997
0.01079612
0.01079523
0.01079518
0.01079514
0.01091442
0.01079979
0.01079612
0.01079525
0.01079518
0.01079514
0.01091303
0.01079976
0.01079612
0.01079525
0.01079518
0.01079514
0.01091498
0.01080003
0.01079613
0.01079526
0.01079518
0.01079514
0.01091354
0.0107999
0.01079613
0.01079527
0.01079518
0.01079514
0.01091353
0.01080018
0.01079614
0.01079529
0.01079518
0.01079515
0.01091256
0.01080018
0.01079614
0.01079528
0.01079518
0.01079514
0.01091491
0.0108005
0.01079614
0.01079529
0.01079518
0.01079514
0.01091472
0.01080064
0.01079609
0.01079527
0.01079518
0.01079514
0.0109125
0.0108002
0.01079612
0.01079525
0.01079518
0.01079515
0.01091246
0.01080022
0.01079612
0.01079523
0.01079518
0.01079514
0.01091261
0.01079989
0.01079609
0.01079524
0.01079518
0.01079515
0.005965847
0.006086179
0.006081562
0.006084993
0.006083347
0.01118238
0.01073757
0.01075493
0.01077361
0.01076813
0.010771
0.01114177
0.01075158
0.01076334
0.01078677
0.0107767
0.0107794
0.01113403
0.01076614
0.01076039
0.01078631
0.01077593
0.01077937
0.01113312
0.01077017
0.01075924
0.01078682
0.01077661
0.01077987
0.01113307
0.01076692
0.01075796
0.01078605
0.01077637
0.01078012
0.01113301
0.01076499
0.01075678
0.01078567
0.01077655
0.01078028
0.01113298
0.01076504
0.01075678
0.01078508
0.01077655
0.0107803
0.01113295
0.0107643
0.01075679
0.01078509
0.01077651
0.01078026
0.01113294
0.01076459
0.01075685
0.01078527
0.01077641
0.01078006
0.01113292
0.01076346
0.0107571
0.01078535
0.01077634
0.01077995
0.01113289
0.01076419
0.01075738
0.01078531
0.01077625
0.01077989
0.01113287
0.01076483
0.0107575
0.01078527
0.01077617
0.01077988
0.01113288
0.01076558
0.01075746
0.0107853
0.01077613
0.01077992
0.01113286
0.01076438
0.01075739
0.01078509
0.01077608
0.01078
0.01113282
0.01076504
0.01075765
0.01078496
0.01077611
0.01078007
0.01113282
0.01076566
0.01075788
0.01078498
0.01077608
0.01078012
0.0111328
0.01076407
0.01075829
0.0107853
0.01077607
0.0107801
0.01113279
0.01076592
0.01075885
0.01078547
0.01077592
0.01078018
0.01113311
0.0107706
0.01076015
0.01078366
0.01077625
0.0107806
0.01131903
0.01077419
0.0107607
0.01078433
0.01077607
0.01078066
0.01117374
0.01076258
0.01075972
0.01078603
0.01077582
0.01078012
0.01134154
0.01076154
0.01075974
0.01078573
0.01077606
0.01078061
0.01136053
0.01076312
0.01075871
0.01078449
0.01077626
0.01078129
0.004154018
0.006739712
0.01118281
0.01083358
0.00411708
0.00428252
0.01118104
0.01084517
0.01143243
0.01088299
0.004281012
0.004284123
0.01114107
0.010882
0.01139236
0.01089727
0.004286527
0.004283669
0.01113399
0.01089862
0.01136633
0.01090023
0.004285035
0.004283671
0.01113308
0.01090426
0.01136535
0.01090322
0.004285062
0.004283721
0.01113304
0.01090652
0.01136782
0.01090515
0.004284906
0.004283748
0.01113297
0.01090725
0.01136833
0.01090619
0.004284731
0.004283817
0.01113294
0.01090775
0.01136424
0.01090566
0.004284665
0.004283917
0.01113291
0.01090584
0.01136026
0.01090309
0.004284749
0.004284009
0.0111329
0.01090485
0.0113588
0.01090346
0.0042853
0.004283952
0.01113287
0.01090508
0.01136184
0.01090301
0.004284752
0.004283982
0.01113287
0.01090394
0.0113594
0.01090251
0.004284781
0.004283945
0.01113284
0.0109036
0.01135481
0.01090165
0.004284639
0.004283962
0.01113283
0.01090372
0.01135447
0.01090134
0.004284937
0.004284135
0.01113282
0.01090399
0.01135989
0.01090261
0.004284221
0.004283927
0.0111328
0.01090445
0.01136231
0.01090117
0.004284762
0.004283891
0.0111328
0.01090283
0.01135489
0.0109007
0.004284245
0.0042845
0.01113278
0.01090384
0.01134311
0.0108979
0.004283896
0.004284316
0.01113278
0.01090257
0.01134975
0.01089878
0.004284236
0.004283856
0.01113265
0.01090018
0.01135301
0.01089891
0.004284019
0.004284695
0.01113537
0.01090185
0.01116024
0.01089007
0.004282807
0.004283867
0.0113146
0.01090885
0.01116588
0.01089734
0.004282895
0.004284052
0.01133605
0.01090975
0.01115626
0.01090321
0.004282574
0.01074962
0.01129649
0.01090794
0.01113538
0.01090014
0.00592363
0.01117391
0.01083863
0.005999131
0.01146436
0.01087539
0.005995191
0.01115291
0.01086286
0.005998527
0.0114288
0.01085915
0.005985729
0.0111383
0.01085979
0.005992617
0.01117322
0.01085674
0.005982185
0.01135905
0.01086682
0.005989255
0.01116207
0.0108607
0.005984765
0.01138968
0.01087209
0.005988704
0.01113363
0.01085997
0.005990855
0.01136969
0.01085816
0.005986546
0.01113287
0.0108569
0.005997487
0.01142951
0.01085894
0.005995695
0.0111496
0.01085922
0.005998593
0.0114608
0.01087441
0.00592349
0.01117641
0.0108389
0.00674155
0.01118274
0.01083344
0.004153959
0.006068664
0.01080274
0.01080367
0.004128335
0.004295496
0.00607147
0.01080253
0.01080062
0.00430684
0.004303483
0.006075892
0.01080071
0.01080115
0.00430779
0.004304507
0.006074985
0.01080092
0.01080071
0.004309061
0.004304293
0.01080074
0.004308427
0.01084537
0.0114304
0.01088304
0.004117182
0.004282442
0.01088204
0.01139134
0.01089723
0.004281056
0.004284184
0.01089852
0.01136621
0.01090002
0.004286211
0.004283645
0.01090442
0.01136535
0.01090313
0.004285202
0.004283639
0.01090655
0.01136896
0.01090518
0.004284989
0.004283737
0.01090717
0.01136861
0.0109058
0.004284975
0.004283801
0.01090792
0.01136383
0.01090486
0.004284759
0.004283852
0.01090714
0.01135931
0.01090306
0.004284777
0.004284029
0.01090658
0.01135735
0.01090203
0.004284319
0.004284068
0.01090462
0.01136475
0.01090189
0.004284086
0.004283986
0.01090238
0.01135726
0.01090187
0.004284857
0.00428393
0.01090498
0.01135384
0.01089928
0.004284518
0.004283871
0.01090195
0.01134833
0.01089931
0.004284487
0.004283648
0.01089253
0.01113577
0.01090026
0.004283717
0.004284609
0.01089299
0.01114104
0.01089293
0.004284891
0.004284462
0.01089861
0.011135
0.01089999
0.004283055
0.01077101
0.0108353
0.008694882
0.004128405
0.00429552
0.005964946
0.006068659
0.01080276
0.0108037
0.004306828
0.004303478
0.00608628
0.006071791
0.01080253
0.01080061
0.0043078
0.004304557
0.006081775
0.00607594
0.0108007
0.01080115
0.004309097
0.004304328
0.006085237
0.006075043
0.01080092
0.01080071
0.004308456
0.006083545
0.01080074
0.01091898
0.008750365
0.01089108
0.008785073
0.01091634
0.008751459
0.01092555
0.008789592
0.01092003
0.008752771
0.01091801
0.008785241
0.01092391
0.008746942
0.01091968
0.008783711
0.01092689
0.008746605
0.01091859
0.00878241
0.01092775
0.008745401
0.01091871
0.008781522
0.01092813
0.008742928
0.01091884
0.008781427
0.01092744
0.008741227
0.01092028
0.008781766
0.01092812
0.008739382
0.01092041
0.008780686
0.01092838
0.008788326
0.01091874
0.008780245
0.01092806
0.008736921
0.01092129
0.008780741
0.01092743
0.008755807
0.01092196
0.008779515
0.01092705
0.008735709
0.01092291
0.008778519
0.0109288
0.008783484
0.01092092
0.008777654
0.01092751
0.008766941
0.01092119
0.008778598
0.01092957
0.008784487
0.01092138
0.008776739
0.01092683
0.0087566
0.01092159
0.008776614
0.01093021
0.008781009
0.01092124
0.008776609
0.01093007
0.008770814
0.01092001
0.008774139
0.0109287
0.008778457
0.01092206
0.00877505
0.01092609
0.008755288
0.01092114
0.008774145
0.01093138
0.008767571
0.01092106
0.008775267
0.01092248
0.008751705
0.0109263
0.008775544
0.01086911
0.01085057
0.01093029
0.01092744
0.01099913
0.01096107
0.01099393
0.01095207
0.01099345
0.01096535
0.01099889
0.01098182
0.01096371
0.01098422
0.01091013
0.01090836
0.01082805
0.01087562
0.01090839
0.01135619
0.01090349
0.004284692
0.004283912
0.01090415
0.0113527
0.01090055
0.004284802
0.004283934
0.010904
0.01136027
0.01090356
0.004284869
0.004284198
0.0109052
0.01135695
0.01090272
0.00428443
0.004285491
0.01089614
0.01134904
0.01089644
0.004283941
0.004284698
0.01089968
0.01127352
0.01088584
0.004283038
0.004283844
0.01091679
0.01134248
0.01091439
0.004283381
0.004283289
0.0108482
0.00888793
0.01083864
0.008503439
0.01088862
0.008733157
0.01093838
0.008438643
0.01082635
0.0108697
0.01091578
0.008790877
0.01090188
0.008767272
0.0109161
0.008786853
0.0109183
0.008743089
0.01091928
0.008784531
0.01092067
0.008751477
0.01091932
0.008783301
0.01092373
0.008747632
0.01091903
0.008782451
0.01092617
0.008746448
0.01091882
0.008782084
0.010927
0.008743699
0.01091927
0.008782912
0.01092718
0.008741496
0.01092004
0.008781778
0.01092686
0.008740024
0.0109199
0.00878453
0.01092911
0.008738618
0.01092046
0.008781301
0.01092788
0.00873792
0.01092105
0.008780086
0.01092766
0.008736571
0.01092243
0.008779671
0.01092698
0.008735462
0.0109232
0.008780626
0.0109304
0.00873581
0.01092374
0.008779107
0.01092907
0.008736281
0.0109229
0.008780544
0.01093046
0.008733391
0.01092275
0.008775855
0.01092983
0.008765139
0.01092353
0.008779083
0.01093216
0.008734008
0.01092312
0.008776873
0.01093165
0.008744539
0.01092279
0.008775884
0.01093045
0.008731298
0.01092683
0.00876625
0.01092773
0.008765478
0.01092952
0.008765128
0.01092639
0.008734365
0.01092387
0.00876551
0.01092766
0.00875318
0.01093027
0.01093582
0.0087394
0.01092298
0.01091533
0.01091233
0.01095022
0.0109681
0.01100888
0.01096477
0.01097349
0.01095838
0.01099864
0.01098072
0.01098742
0.01097525
0.01093712
0.01094198
0.01086579
0.01085103
0.01082859
0.008707387
0.01084733
0.008888237
0.01083821
0.008510147
0.01089015
0.008732683
0.01093887
0.008435312
0.01081145
0.008921867
0.01080092
0.008905456
0.0108014
0.008926461
0.0108108
0.008928028
0.01080796
0.008962581
0.01079661
0.008929696
0.01079935
0.008931779
0.01080501
0.008951489
0.01080814
0.008961519
0.01079548
0.00892922
0.0107987
0.008933728
0.01080499
0.008951417
0.01080791
0.008964735
0.01079567
0.008931147
0.01079899
0.00893327
0.0108046
0.008953014
0.01080805
0.008963408
0.01079557
0.008930535
0.01079877
0.008952366
0.01091919
0.00875068
0.01089135
0.0087849
0.01091622
0.008790918
0.01090174
0.00876733
0.01091568
0.008752251
0.01092548
0.008789643
0.01091603
0.008787993
0.01091871
0.008743903
0.01091953
0.008753404
0.01091817
0.008785725
0.01091908
0.008784947
0.01092054
0.008751746
0.01092381
0.008747919
0.01091941
0.00878375
0.01091921
0.008783289
0.01092417
0.008748035
0.01092655
0.008747074
0.01091821
0.008782973
0.01091898
0.008782674
0.01092619
0.008746657
0.01092737
0.008746328
0.01091863
0.008782049
0.01091871
0.008781635
0.01092689
0.008744033
0.0109282
0.008743725
0.01091835
0.008781727
0.01091916
0.0087817
0.01092734
0.008741705
0.01092836
0.008742003
0.01091942
0.008781413
0.01091957
0.008780481
0.01092856
0.008739812
0.01092674
0.008739395
0.01091974
0.008781271
0.0109222
0.008779599
0.01093006
0.008742084
0.01092839
0.008770116
0.01092036
0.008780466
0.01092181
0.008779429
0.01092862
0.008735558
0.01092408
0.008735581
0.01092152
0.00875283
0.01092769
0.008778755
0.01092959
0.008766165
0.01092898
0.008772498
0.0109208
0.00877735
0.01092367
0.00877901
0.0109329
0.008734396
0.0109301
0.008785163
0.01092193
0.008775452
0.01092376
0.008773389
0.01092766
0.008734313
0.01093229
0.008729313
0.01092352
0.008768719
0.0109232
0.008767154
0.01092184
0.008730517
0.01092072
0.008729404
0.01093317
0.008761972
0.01092171
0.008743833
0.01093255
0.008731248
0.01092931
0.008652978
0.00877075
0.01092231
0.01139488
0.01073818
0.01133466
0.01089905
0.01094776
0.01092445
0.01091358
0.01076799
0.006747712
0.007478183
0.01121737
0.008299793
0.01114693
0.008401114
0.01133755
0.008290401
0.01123623
0.008397247
0.01136739
0.008285078
0.0112676
0.008393485
0.01136872
0.008282397
0.01127029
0.008385193
0.01137452
0.008280608
0.01127311
0.008380552
0.01136654
0.008279522
0.01127441
0.008371435
0.011362
0.008278952
0.01127525
0.00836806
0.01132061
0.008278244
0.01127537
0.008354079
0.01134275
0.008278793
0.01127498
0.008360621
0.01129918
0.008338707
0.01130448
0.008342839
0.01135554
0.008279113
0.01127492
0.008365559
0.01131218
0.008289227
0.01128018
0.008351418
0.01134722
0.008279791
0.01127473
0.008361433
0.01131692
0.008352296
0.01129749
0.008348618
0.01132657
0.008312953
0.01127412
0.008354965
0.01128887
0.008354762
0.01132226
0.008340056
0.01133741
0.008308407
0.011268
0.008356297
0.01129493
0.008368492
0.01130345
0.008335275
0.01134439
0.008342259
0.01126782
0.008356012
0.01129219
0.008369863
0.01130233
0.008332209
0.011347
0.008327617
0.01125411
0.008360455
0.01129931
0.008361533
0.01127055
0.008346931
0.01133034
0.008315758
0.01125031
0.00835815
0.007186798
0.007291942
0.007249872
0.007225381
0.007251818
0.007273162
0.007242623
0.007302732
0.007252014
0.007222994
0.007295
0.007224088
0.007255164
0.007186083
0.007146845
0.007218169
0.007247173
0.007300356
0.01121964
0.008416816
0.01125741
0.008352508
0.007306361
0.007236812
0.01121681
0.008396441
0.0112855
0.008292479
0.01125511
0.008397001
0.0113443
0.008286638
0.01126021
0.00839645
0.01136727
0.008282686
0.01126102
0.008392448
0.01138688
0.008280939
0.01126296
0.008390235
0.01139672
0.008279637
0.01126424
0.008387308
0.01140065
0.00827895
0.01126629
0.008384934
0.01140127
0.008278315
0.01126698
0.008386215
0.01140418
0.008278073
0.01128076
0.008389059
0.01135198
0.008278451
0.01126795
0.008383122
0.0114025
0.00827771
0.01127302
0.008383344
0.01138556
0.00827736
0.01126927
0.008381896
0.01140206
0.008277064
0.01128079
0.008387121
0.01136223
0.008277558
0.01127822
0.008385192
0.01138135
0.008276961
0.01128247
0.008384221
0.0113537
0.008277468
0.01128284
0.008383903
0.01138076
0.008276776
0.01127903
0.008386742
0.01136726
0.008277116
0.01128514
0.008384168
0.01136895
0.008276644
0.01127955
0.008383356
0.01136459
0.008277218
0.01128443
0.008380644
0.01135032
0.008276723
0.01128311
0.008379098
0.01136703
0.008276018
0.01129819
0.008378033
0.01137876
0.00827461
0.01137413
0.008380819
0.01127221
0.008291746
0.007182516
0.007260566
0.007220104
0.007138838
0.00715668
0.007249165
0.007257314
0.00726065
0.007267509
0.007157373
0.007227913
0.007290293
0.00729699
0.007206022
0.007176214
0.00726257
0.006736588
0.00752846
0.01122025
0.008416338
0.01125596
0.008352297
0.00792943
0.007982515
0.0079386
0.007976881
0.007930291
0.007983122
0.007938734
0.007977934
0.007942015
0.007991493
0.0079872
0.007948908
0.01121845
0.008300732
0.008401287
0.01114573
0.01121663
0.00839661
0.01128474
0.00829276
0.01137366
0.008281102
0.008380579
0.01127233
0.01126263
0.008390453
0.01139368
0.008279838
0.01136247
0.008279927
0.008369889
0.01127366
0.011264
0.008389265
0.01139742
0.008279112
0.01136642
0.008279623
0.008370914
0.01127474
0.01126519
0.008385489
0.01139826
0.008278488
0.01132904
0.008317984
0.008358046
0.0112729
0.01126841
0.00838236
0.01140553
0.008276999
0.01130709
0.008277106
0.01129024
0.008369096
0.01127332
0.008375848
0.01139396
0.008276574
0.01137342
0.008289099
0.01125923
0.008363955
0.01127913
0.008364446
0.0113933
0.008275167
0.01137465
0.008276349
0.008358102
0.01127019
0.01093834
0.008745436
0.01092324
0.00872911
0.008344041
0.01127989
0.01132361
0.008325113
0.007292367
0.007840242
0.00767276
0.00766612
0.01091159
0.008345213
0.01128177
0.008434958
0.007087162
0.007163265
0.01116886
0.008411232
0.01121121
0.008296161
0.0112461
0.008397136
0.01131886
0.008289007
0.01125851
0.008396542
0.01135661
0.008284269
0.01126008
0.008394884
0.01137917
0.008281797
0.0112617
0.008391451
0.01139409
0.008280231
0.01126355
0.008390313
0.01139839
0.00827926
0.01126459
0.008388091
0.01140057
0.00827859
0.01126797
0.00838857
0.011402
0.008277823
0.01126661
0.00838686
0.01139983
0.00827792
0.01128089
0.008388028
0.01140283
0.008279478
0.01126723
0.008384189
0.01140225
0.008277408
0.01127321
0.008384895
0.01140456
0.008276814
0.0112694
0.00838262
0.01139982
0.008276869
0.0112815
0.008384435
0.01139648
0.008277222
0.01127541
0.008383015
0.01140179
0.008276904
0.01128995
0.008385141
0.01136289
0.008276974
0.01127641
0.008381657
0.01139331
0.008276715
0.01128947
0.008381188
0.01136691
0.008280283
0.01127832
0.008380849
0.01139834
0.008276881
0.01128725
0.008384096
0.01137602
0.008276753
0.01127356
0.00837934
0.01140178
0.008276713
0.01128222
0.008381259
0.01137646
0.008277482
0.01127475
0.008378984
0.01140437
0.00827635
0.007280292
0.007301717
0.007210417
0.00728232
0.007135901
0.00725325
0.007206275
0.007218195
0.007222288
0.007155708
0.007225979
0.00722305
0.007322456
0.007236368
0.007258142
0.007241349
0.007259116
0.007165146
0.008739325
0.01091906
0.008790105
0.01092746
0.008734992
0.008783406
0.01092617
0.01092238
0.008782332
0.01092656
0.008735875
0.01092219
0.008732464
0.01092192
0.008793293
0.01092595
0.008781612
0.01092573
0.008731678
0.01092747