/*--------------------------------*- C++ -*----------------------------------*\
  =========                 |
  \\      /  F ield         | OpenFOAM: The Open Source CFD Toolbox
   \\    /   O peration     | Website:  https://openfoam.org
    \\  /    A nd           | Version:  7
     \\/     M anipulation  |
\*---------------------------------------------------------------------------*/
FoamFile
{
    version     2.0;
    format      ascii;
    class       volScalarField;
    location    "0.08";
    object      nut;
}
// * * * * * * * * * * * * * * * * * * * * * * * * * * * * * * * * * * * * * //

dimensions      [0 2 -1 0 0 0 0];

internalField   nonuniform List<scalar> 
105056
(
0.0006554391
0.0006385655
0.0006370041
0.0006368717
0.0006369362
0.0006375649
0.0006067124
0.0006036093
0.0006033227
0.0006033771
0.0006359471
0.0006036733
0.0006001656
0.0005997825
0.0005998277
0.0006357473
0.0006032844
0.0005996705
0.0005992488
0.000599293
0.0006356994
0.0006032103
0.0005995615
0.0005991097
0.0005991594
0.0006357024
0.0006031937
0.0005995303
0.0005990626
0.000599115
0.0006357038
0.0006031914
0.0005995208
0.0005990426
0.0005990968
0.0006357051
0.0006031899
0.0005995169
0.0005990407
0.0005990915
0.0006357056
0.000603187
0.0005995151
0.0005990427
0.0005990896
0.0006357095
0.0006031864
0.0005995142
0.000599046
0.0005990893
0.0006357087
0.000603187
0.0005995149
0.0005990469
0.0005990895
0.0006357066
0.0006031879
0.0005995155
0.0005990477
0.0005990895
0.0006357077
0.0006031892
0.0005995169
0.0005990462
0.0005990891
0.0006357103
0.0006031905
0.0005995179
0.0005990451
0.000599089
0.0006357062
0.0006031897
0.0005995183
0.0005990431
0.0005990889
0.0006357113
0.000603194
0.0005995197
0.0005990407
0.0005990891
0.0006357097
0.0006032151
0.0005995255
0.0005990341
0.0005990897
0.000635706
0.0006032154
0.0005995311
0.0005990291
0.000599092
0.0006357106
0.0006032194
0.0005995374
0.0005990344
0.0005990985
0.0006356949
0.0006032526
0.0005995583
0.0005990507
0.0005991181
0.000635715
0.0006032983
0.0005996203
0.0005991178
0.0005991859
0.0006358055
0.0006034391
0.000599817
0.0005993349
0.0005993989
0.0001012627
0.0006037644
0.0006002214
0.0005997705
0.0005998221
0.0005968829
0.0005972575
0.0005972817
0.0005973188
0.0005973379
0.0001007573
0.0001006444
0.0001006175
0.0001006174
0.0001006168
0.0001006165
0.0001007202
0.0001006251
0.0001006191
0.0001006165
0.0001006165
0.0001006162
0.0001006874
0.000100623
0.0001006192
0.0001006163
0.0001006165
0.0001006162
0.000100693
0.0001006251
0.000100619
0.0001006164
0.0001006164
0.0001006162
0.0001006921
0.0001006255
0.0001006193
0.0001006165
0.0001006164
0.0001006162
0.0001006916
0.0001006251
0.0001006196
0.0001006165
0.0001006164
0.0001006162
0.0001006915
0.0001006246
0.0001006198
0.0001006165
0.0001006164
0.0001006162
0.0001006918
0.0001006241
0.0001006198
0.0001006164
0.0001006164
0.0001006162
0.0001006915
0.0001006238
0.0001006198
0.0001006164
0.0001006165
0.0001006162
0.0001006894
0.000100624
0.0001006199
0.0001006164
0.0001006165
0.0001006162
0.0001006897
0.000100624
0.0001006199
0.0001006164
0.0001006165
0.0001006162
0.0001006892
0.0001006244
0.0001006199
0.0001006165
0.0001006165
0.0001006162
0.0001006878
0.0001006246
0.0001006199
0.0001006165
0.0001006165
0.0001006162
0.0001006814
0.0001006254
0.0001006199
0.0001006165
0.0001006165
0.0001006162
0.0001006794
0.0001006254
0.0001006199
0.0001006166
0.0001006165
0.0001006162
0.0001006824
0.0001006256
0.0001006199
0.0001006166
0.0001006165
0.0001006162
0.0001006777
0.0001006267
0.0001006198
0.0001006166
0.0001006165
0.0001006162
0.0001006773
0.0001006266
0.0001006198
0.0001006166
0.0001006165
0.0001006162
0.000100678
0.0001006265
0.0001006198
0.0001006166
0.0001006165
0.0001006162
0.000100677
0.0001006275
0.0001006197
0.0001006166
0.0001006165
0.0001006162
0.0001006881
0.0001006273
0.0001006196
0.0001006166
0.0001006165
0.0001006162
0.0001006913
0.0001006268
0.0001006196
0.0001006165
0.0001006165
0.0001006162
0.0001006932
0.000100625
0.0001006196
0.0001006164
0.0001006165
0.0001006162
0.0005979153
0.0005976849
0.0005977429
0.0005978299
0.0005978235
0.0001007152
0.0001006252
0.0001006187
0.0001006166
0.0001006165
0.0001006162
0.0001007046
0.0001006238
0.0001006152
0.0001006169
0.0001006161
0.0001006161
0.000100729
0.0001006198
0.0001006186
0.0001006166
0.0001006161
0.000100616
0.0001007277
0.000100618
0.000100619
0.0001006163
0.000100616
0.000100616
0.0001007194
0.0001006174
0.000100621
0.000100616
0.0001006163
0.000100616
0.000100715
0.0001006177
0.0001006208
0.000100616
0.0001006164
0.000100616
0.0001007078
0.0001006184
0.0001006206
0.000100616
0.0001006165
0.000100616
0.0001007064
0.000100619
0.0001006204
0.000100616
0.0001006165
0.000100616
0.0001007056
0.0001006196
0.0001006203
0.000100616
0.0001006165
0.000100616
0.0001007044
0.00010062
0.0001006203
0.0001006159
0.0001006166
0.000100616
0.0001007047
0.0001006202
0.0001006203
0.0001006159
0.0001006166
0.000100616
0.0001007053
0.0001006204
0.0001006204
0.0001006159
0.0001006166
0.000100616
0.000100706
0.0001006206
0.0001006205
0.0001006159
0.0001006167
0.000100616
0.0001007052
0.0001006208
0.0001006207
0.0001006159
0.0001006167
0.000100616
0.0001007072
0.0001006209
0.0001006208
0.0001006159
0.0001006167
0.000100616
0.0001007086
0.0001006211
0.0001006209
0.0001006159
0.0001006167
0.000100616
0.000100708
0.0001006208
0.000100621
0.0001006159
0.0001006167
0.000100616
0.0001007077
0.0001006209
0.000100621
0.0001006159
0.0001006167
0.000100616
0.000100708
0.0001006209
0.0001006209
0.0001006159
0.0001006167
0.000100616
0.0001007068
0.0001006209
0.000100621
0.000100616
0.0001006167
0.000100616
0.0001007065
0.0001006205
0.0001006209
0.0001006159
0.0001006166
0.000100616
0.0001007066
0.0001006205
0.0001006208
0.000100616
0.0001006166
0.000100616
0.00010072
0.0001006215
0.0001006205
0.0001006159
0.0001006166
0.000100616
0.0005979363
0.0005979436
0.0005979746
0.0005980815
0.0005980461
0.000100681
0.0001006215
0.0001006192
0.0001006162
0.0001006165
0.0001006162
0.0001007148
0.0001006185
0.0001006184
0.0001006166
0.0001006161
0.000100616
0.0001007
0.0001006236
0.0001006151
0.0001006171
0.000100616
0.000100616
0.0001006965
0.0001006233
0.0001006169
0.0001006162
0.0001006162
0.000100616
0.0001006896
0.0001006257
0.0001006155
0.0001006173
0.0001006161
0.000100616
0.0001006956
0.0001006248
0.0001006153
0.0001006174
0.0001006161
0.0001006161
0.0001006963
0.0001006237
0.0001006153
0.0001006174
0.0001006161
0.0001006161
0.0001006964
0.0001006227
0.0001006153
0.0001006175
0.0001006161
0.0001006161
0.0001006962
0.0001006222
0.0001006153
0.0001006175
0.0001006161
0.0001006161
0.000100696
0.0001006218
0.0001006153
0.0001006176
0.0001006161
0.0001006161
0.0001006958
0.0001006215
0.0001006153
0.0001006176
0.0001006161
0.0001006161
0.0001006954
0.0001006215
0.0001006154
0.0001006177
0.0001006161
0.0001006161
0.0001006943
0.0001006216
0.0001006154
0.0001006178
0.0001006161
0.0001006161
0.0001006932
0.0001006217
0.0001006154
0.0001006178
0.0001006161
0.0001006161
0.0001006924
0.0001006217
0.0001006154
0.0001006179
0.0001006161
0.0001006162
0.0001006915
0.0001006218
0.0001006153
0.000100618
0.0001006161
0.0001006162
0.0001006913
0.0001006218
0.0001006153
0.000100618
0.0001006161
0.0001006162
0.0001006925
0.0001006217
0.0001006153
0.000100618
0.0001006161
0.0001006162
0.0001006941
0.0001006216
0.0001006153
0.000100618
0.0001006161
0.0001006161
0.0001006958
0.0001006215
0.0001006153
0.0001006179
0.0001006161
0.0001006161
0.0001006964
0.0001006213
0.0001006153
0.0001006179
0.0001006161
0.0001006161
0.0001006975
0.0001006213
0.0001006153
0.0001006178
0.0001006161
0.0001006161
0.0001006956
0.0001006209
0.0001006153
0.0001006177
0.0001006161
0.0001006161
0.0005979502
0.0005979855
0.0005980338
0.0005981532
0.0005981157
0.0001007093
0.0001006209
0.0001006191
0.0001006163
0.0001006165
0.0001006162
0.0001007188
0.0001006171
0.0001006185
0.0001006162
0.000100616
0.000100616
0.0001007465
0.0001006227
0.0001006167
0.000100616
0.0001006162
0.000100616
0.0001006875
0.0001006206
0.0001006152
0.0001006177
0.0001006161
0.0001006161
0.0001007511
0.0001006191
0.0001006158
0.0001006166
0.000100616
0.000100616
0.0001007066
0.0001006163
0.0001006161
0.0001006162
0.000100616
0.000100616
0.0001007046
0.0001006164
0.000100616
0.0001006162
0.000100616
0.000100616
0.0001007046
0.0001006166
0.000100616
0.0001006162
0.000100616
0.000100616
0.0001007038
0.0001006167
0.000100616
0.0001006162
0.000100616
0.000100616
0.0001007039
0.0001006167
0.000100616
0.0001006163
0.000100616
0.000100616
0.0001007058
0.0001006167
0.000100616
0.0001006163
0.000100616
0.000100616
0.000100709
0.0001006166
0.000100616
0.0001006163
0.000100616
0.000100616
0.0001007129
0.0001006165
0.000100616
0.0001006161
0.000100616
0.000100616
0.0001007167
0.0001006164
0.000100616
0.0001006161
0.000100616
0.000100616
0.0001007207
0.0001006163
0.000100616
0.0001006161
0.000100616
0.000100616
0.0001007227
0.0001006163
0.000100616
0.0001006161
0.000100616
0.000100616
0.0001007216
0.0001006162
0.0001006161
0.000100616
0.000100616
0.000100616
0.0001007192
0.0001006162
0.0001006161
0.000100616
0.000100616
0.000100616
0.0001007171
0.0001006163
0.000100616
0.000100616
0.000100616
0.000100616
0.0001007152
0.0001006162
0.000100616
0.0001006161
0.000100616
0.000100616
0.0001007121
0.0001006162
0.000100616
0.000100616
0.000100616
0.000100616
0.0001007061
0.0001006161
0.000100616
0.000100616
0.000100616
0.000100616
0.0001008067
0.0001006149
0.0001006163
0.000100616
0.0001006161
0.000100616
0.000597955
0.0005979694
0.0005980293
0.0005981134
0.0005981175
0.0001007136
0.0001006206
0.0001006191
0.0001006164
0.0001006165
0.0001006162
0.000100717
0.0001006169
0.0001006185
0.0001006162
0.000100616
0.000100616
0.0001006855
0.0001006227
0.0001006167
0.000100616
0.0001006162
0.000100616
0.0001007048
0.0001006203
0.0001006151
0.0001006177
0.0001006161
0.0001006161
0.0001006847
0.0001006182
0.0001006158
0.0001006165
0.000100616
0.000100616
0.000100681
0.0001006159
0.0001006161
0.0001006161
0.000100616
0.000100616
0.0001006796
0.0001006162
0.000100616
0.0001006162
0.000100616
0.000100616
0.000100678
0.0001006164
0.000100616
0.0001006162
0.000100616
0.000100616
0.000100678
0.0001006165
0.000100616
0.0001006162
0.000100616
0.000100616
0.0001006797
0.0001006164
0.000100616
0.0001006162
0.000100616
0.000100616
0.0001006816
0.0001006162
0.0001006159
0.0001006162
0.000100616
0.000100616
0.0001006831
0.000100616
0.000100616
0.0001006161
0.000100616
0.000100616
0.0001006844
0.0001006159
0.000100616
0.000100616
0.000100616
0.000100616
0.0001006855
0.0001006157
0.000100616
0.000100616
0.000100616
0.000100616
0.0001006865
0.0001006157
0.000100616
0.0001006159
0.000100616
0.000100616
0.0001006873
0.0001006157
0.000100616
0.0001006159
0.000100616
0.000100616
0.0001006878
0.0001006156
0.000100616
0.0001006159
0.000100616
0.000100616
0.0001006873
0.0001006155
0.000100616
0.0001006159
0.000100616
0.000100616
0.0001006861
0.0001006157
0.000100616
0.0001006159
0.000100616
0.000100616
0.0001006848
0.0001006157
0.000100616
0.0001006159
0.000100616
0.000100616
0.000100683
0.0001006158
0.0001006159
0.0001006159
0.000100616
0.000100616
0.0001006806
0.0001006158
0.000100616
0.0001006161
0.000100616
0.000100616
0.0001007039
0.0001006144
0.0001006161
0.0001006159
0.000100616
0.000100616
0.0005980495
0.0005979335
0.0005979974
0.0005980785
0.0005980798
0.0001006801
0.0001006216
0.0001006192
0.0001006162
0.0001006165
0.0001006162
0.0001007077
0.0001006181
0.0001006184
0.0001006166
0.0001006161
0.000100616
0.0001007443
0.0001006234
0.0001006151
0.0001006171
0.000100616
0.000100616
0.0001008053
0.0001006233
0.0001006168
0.0001006162
0.0001006162
0.000100616
0.0001007282
0.0001006257
0.0001006153
0.0001006173
0.0001006161
0.000100616
0.000100686
0.0001006247
0.0001006152
0.0001006173
0.0001006161
0.0001006161
0.0001006813
0.0001006235
0.0001006151
0.0001006174
0.0001006161
0.0001006161
0.0001006805
0.0001006224
0.0001006152
0.0001006175
0.0001006161
0.0001006161
0.00010068
0.0001006219
0.0001006152
0.0001006175
0.0001006161
0.0001006161
0.0001006795
0.0001006216
0.0001006152
0.0001006176
0.0001006161
0.0001006161
0.0001006791
0.0001006213
0.0001006152
0.0001006177
0.0001006161
0.0001006161
0.000100679
0.0001006213
0.0001006152
0.0001006177
0.0001006161
0.0001006161
0.0001006791
0.0001006213
0.0001006152
0.0001006178
0.0001006161
0.0001006161
0.0001006788
0.0001006214
0.0001006153
0.0001006178
0.0001006161
0.0001006161
0.0001006789
0.0001006214
0.0001006153
0.0001006179
0.0001006161
0.0001006161
0.0001006791
0.0001006215
0.0001006153
0.0001006179
0.0001006161
0.0001006161
0.0001006789
0.0001006214
0.0001006152
0.0001006179
0.0001006161
0.0001006161
0.0001006782
0.0001006214
0.0001006152
0.0001006179
0.0001006161
0.0001006161
0.0001006774
0.0001006213
0.0001006152
0.0001006179
0.0001006161
0.0001006161
0.000100677
0.0001006212
0.0001006152
0.0001006179
0.0001006161
0.0001006161
0.0001006769
0.000100621
0.0001006152
0.0001006178
0.0001006161
0.0001006161
0.0001006751
0.000100621
0.0001006153
0.0001006177
0.0001006161
0.0001006161
0.0001006736
0.0001006211
0.0001006153
0.0001006176
0.0001006161
0.0001006161
0.0005980273
0.0005978227
0.0005978101
0.0005979018
0.0005978942
0.0001007085
0.0001006247
0.0001006187
0.0001006166
0.0001006165
0.0001006162
0.000100764
0.0001006238
0.0001006152
0.0001006169
0.0001006161
0.000100616
0.0001007959
0.0001006194
0.0001006187
0.0001006166
0.0001006161
0.000100616
0.0001007184
0.0001006175
0.0001006191
0.0001006162
0.0001006161
0.000100616
0.0001007004
0.000100617
0.0001006211
0.000100616
0.0001006163
0.000100616
0.0001006905
0.0001006172
0.0001006208
0.000100616
0.0001006164
0.000100616
0.0001006889
0.000100618
0.0001006206
0.000100616
0.0001006165
0.000100616
0.0001006881
0.0001006186
0.0001006204
0.0001006159
0.0001006165
0.000100616
0.0001006877
0.0001006192
0.0001006203
0.0001006159
0.0001006165
0.000100616
0.0001006873
0.0001006195
0.0001006203
0.0001006159
0.0001006165
0.000100616
0.0001006874
0.0001006199
0.0001006203
0.0001006159
0.0001006166
0.000100616
0.0001006875
0.0001006201
0.0001006204
0.0001006159
0.0001006166
0.000100616
0.0001006885
0.0001006201
0.0001006204
0.0001006159
0.0001006166
0.000100616
0.0001006885
0.0001006204
0.0001006205
0.0001006159
0.0001006167
0.000100616
0.0001006894
0.0001006204
0.0001006206
0.0001006159
0.0001006167
0.000100616
0.0001006892
0.0001006207
0.0001006207
0.0001006159
0.0001006167
0.000100616
0.0001006904
0.0001006205
0.0001006208
0.0001006159
0.0001006167
0.000100616
0.000100691
0.0001006205
0.0001006209
0.0001006159
0.0001006167
0.000100616
0.0001006907
0.0001006203
0.0001006209
0.0001006159
0.0001006167
0.000100616
0.0001006905
0.0001006197
0.0001006208
0.0001006159
0.0001006166
0.000100616
0.0001006892
0.0001006206
0.0001006208
0.0001006159
0.0001006166
0.000100616
0.0001006887
0.0001006204
0.0001006207
0.0001006159
0.0001006166
0.000100616
0.0001006871
0.0001006207
0.0001006203
0.0001006159
0.0001006166
0.000100616
0.0005983767
0.0005986131
0.0005985837
0.0005986872
0.0005986625
0.0001009494
0.0001006442
0.0001006174
0.0001006174
0.0001006168
0.0001006165
0.0001008307
0.0001006249
0.000100619
0.0001006165
0.0001006164
0.0001006162
0.000100707
0.0001006228
0.0001006192
0.0001006163
0.0001006164
0.0001006162
0.0001006851
0.0001006249
0.000100619
0.0001006163
0.0001006164
0.0001006162
0.0001006864
0.0001006251
0.0001006193
0.0001006165
0.0001006164
0.0001006162
0.0001006862
0.0001006248
0.0001006196
0.0001006165
0.0001006164
0.0001006162
0.0001006861
0.0001006242
0.0001006197
0.0001006164
0.0001006164
0.0001006162
0.0001006851
0.0001006238
0.0001006197
0.0001006164
0.0001006164
0.0001006162
0.0001006848
0.0001006237
0.0001006197
0.0001006164
0.0001006164
0.0001006162
0.0001006848
0.0001006236
0.0001006198
0.0001006164
0.0001006164
0.0001006162
0.0001006881
0.0001006241
0.0001006198
0.0001006164
0.0001006164
0.0001006162
0.0001006878
0.0001006242
0.0001006198
0.0001006164
0.0001006165
0.0001006162
0.0001006952
0.0001006245
0.0001006198
0.0001006165
0.0001006164
0.0001006162
0.0001006875
0.0001006244
0.0001006198
0.0001006165
0.0001006164
0.0001006162
0.0001006981
0.0001006253
0.0001006198
0.0001006166
0.0001006164
0.0001006162
0.0001006903
0.0001006251
0.0001006198
0.0001006166
0.0001006164
0.0001006162
0.0001006893
0.0001006261
0.0001006198
0.0001006166
0.0001006164
0.0001006162
0.000100683
0.0001006259
0.0001006197
0.0001006166
0.0001006165
0.0001006162
0.000100698
0.0001006268
0.0001006197
0.0001006166
0.0001006164
0.0001006162
0.000100697
0.0001006278
0.0001006195
0.0001006166
0.0001006164
0.0001006162
0.0001006819
0.0001006259
0.0001006196
0.0001006165
0.0001006165
0.0001006162
0.0001006821
0.000100626
0.0001006196
0.0001006164
0.0001006164
0.0001006162
0.0001006822
0.0001006248
0.0001006196
0.0001006165
0.0001006165
0.0001006162
0.0002122853
0.0002100906
0.0002099847
0.0002100322
0.0002100123
0.0001014111
0.000101402
0.0001011808
0.0001009575
0.0001010208
0.0001009863
0.0001009385
0.0001013354
0.0001010856
0.0001008131
0.000100926
0.0001008937
0.0001009024
0.0001012173
0.0001011165
0.0001008191
0.0001009321
0.0001008913
0.0001008956
0.0001011889
0.0001011301
0.0001008101
0.0001009246
0.0001008857
0.0001008959
0.0001012152
0.0001011448
0.0001008183
0.0001009274
0.0001008828
0.0001008961
0.0001012287
0.000101158
0.0001008225
0.0001009254
0.000100881
0.0001008959
0.0001012298
0.0001011576
0.000100829
0.0001009254
0.0001008806
0.0001008956
0.0001012364
0.0001011571
0.0001008291
0.0001009258
0.000100881
0.0001008953
0.0001012337
0.000101156
0.0001008275
0.0001009269
0.0001008833
0.0001008953
0.000101244
0.0001011528
0.000100827
0.0001009278
0.0001008844
0.0001008966
0.000101241
0.0001011496
0.0001008276
0.0001009287
0.0001008851
0.0001008968
0.0001012381
0.0001011481
0.0001008282
0.0001009296
0.0001008851
0.0001008978
0.0001012306
0.0001011484
0.000100828
0.0001009301
0.0001008847
0.0001008966
0.000101244
0.0001011491
0.0001008298
0.0001009306
0.0001008838
0.0001008978
0.000101237
0.000101146
0.0001008311
0.0001009303
0.0001008829
0.0001008974
0.0001012322
0.0001011435
0.0001008311
0.0001009306
0.0001008823
0.0001008974
0.0001012411
0.0001011388
0.0001008293
0.0001009306
0.0001008825
0.0001008971
0.0001012314
0.0001011325
0.0001008278
0.0001009323
0.0001008816
0.0001008993
0.0001011875
0.0001011187
0.0001008444
0.0001009285
0.0001008768
0.0001020489
0.0001011548
0.0001011143
0.0001008378
0.0001009304
0.0001008761
0.0001011074
0.0001012686
0.0001011229
0.0001008236
0.0001009333
0.0001008822
0.0001021357
0.0001012667
0.0001011223
0.0001008258
0.0001009306
0.0001008768
0.0001022651
0.0001012538
0.0001011341
0.0001008351
0.0001009289
0.0001008696
0.0003039213
0.0001881641
0.0001007942
0.0001007017
0.0003056023
0.0002942542
0.0001014079
0.0001007632
0.000102672
0.000100844
0.0002938182
0.000293565
0.0001009326
0.0001008874
0.0001025491
0.0001009489
0.0002936053
0.0002935085
0.0001009012
0.0001009549
0.0001024012
0.0001009599
0.0002935392
0.0002935015
0.0001008944
0.0001009751
0.0001023683
0.0001009713
0.0002935365
0.0002935016
0.0001008947
0.0001009833
0.0001023529
0.000100978
0.0002935319
0.0002935013
0.0001008948
0.0001009855
0.0001023389
0.0001009813
0.0002935267
0.0002935027
0.0001008948
0.0001009875
0.000102304
0.0001009805
0.0002935245
0.0002935052
0.0001008947
0.0001009817
0.0001022772
0.0001009723
0.0002935263
0.0002935076
0.0001008947
0.0001009786
0.0001022606
0.0001009745
0.0002935412
0.000293506
0.0001008957
0.0001009799
0.0001022755
0.0001009726
0.0002935254
0.0002935067
0.0001008949
0.000100976
0.0001022631
0.0001009707
0.0002935266
0.0002935055
0.0001008952
0.0001009749
0.000102235
0.0001009678
0.0002935225
0.0002935062
0.0001008952
0.000100975
0.0001022302
0.0001009685
0.0002935314
0.0002935115
0.0001008969
0.0001009758
0.0001022494
0.000100973
0.0002935126
0.0002935055
0.000100897
0.0001009776
0.0001022635
0.0001009672
0.0002935279
0.0002935043
0.0001008968
0.0001009724
0.0001022236
0.0001009668
0.000293514
0.00029352
0.0001008974
0.0001009748
0.0001021617
0.0001009591
0.0002935056
0.0002935153
0.0001008973
0.0001009701
0.000102194
0.0001009615
0.0002935144
0.0002935041
0.0001008967
0.0001009628
0.0001022069
0.0001009608
0.0002935098
0.0002935283
0.0001009094
0.0001009682
0.0001010412
0.0001009382
0.000293481
0.0002935141
0.0001019627
0.0001009725
0.0001010696
0.0001009512
0.0002934941
0.0002935706
0.0001021125
0.0001009709
0.00010101
0.0001009732
0.0002935685
0.000101625
0.0001017814
0.0001009782
0.0001009079
0.0001009629
0.0002121594
0.0001013662
0.00010073
0.0002098866
0.0001027748
0.0001008321
0.000209816
0.0001010322
0.0001008059
0.0002098162
0.0001026547
0.0001008034
0.0002096562
0.0001009363
0.0001008047
0.0002097468
0.0001011194
0.0001007885
0.0002096174
0.0001022589
0.0001008077
0.000209699
0.0001010569
0.0001008067
0.000209637
0.0001024431
0.0001008227
0.0002096892
0.0001009038
0.0001008062
0.0002097282
0.0001023309
0.0001008035
0.0002096844
0.0001009041
0.0001007943
0.0002098149
0.000102654
0.0001008011
0.0002098033
0.0001010085
0.000100793
0.0002098592
0.0001027594
0.0001008297
0.0002121573
0.0001013795
0.0001007308
0.0001881771
0.0001007942
0.0001007016
0.0003039204
0.0002098973
0.0001006023
0.0001006282
0.0003059136
0.000294564
0.0002098503
0.0001006278
0.0001006207
0.0002944587
0.0002940421
0.0002099113
0.0001006217
0.0001006221
0.0002941362
0.000294029
0.0002098996
0.0001006222
0.0001006208
0.0002941447
0.0002940261
0.0001006217
0.0002941377
0.0001007635
0.0001026707
0.0001008443
0.0003056062
0.0002942533
0.0001008869
0.0001025473
0.0001009487
0.0002938191
0.0002935659
0.0001009537
0.0001024024
0.0001009592
0.0002935989
0.0002935095
0.0001009754
0.0001023724
0.000100971
0.0002935432
0.0002935019
0.0001009827
0.0001023643
0.000100978
0.0002935365
0.0002935023
0.0001009849
0.0001023471
0.0001009798
0.0002935347
0.0002935012
0.0001009871
0.0001023064
0.0001009773
0.0002935261
0.0002935023
0.0001009857
0.0001022804
0.000100972
0.0002935266
0.0002935074
0.0001009842
0.000102247
0.0001009707
0.0002935124
0.0002935088
0.0001009773
0.0001022866
0.0001009688
0.0002935079
0.000293506
0.0001009696
0.0001022401
0.0001009703
0.0002935265
0.0002935048
0.000100979
0.0001022237
0.000100962
0.0002935189
0.0002935029
0.0001009682
0.0001022082
0.00010096
0.0002935187
0.0002934966
0.0001009367
0.0001009146
0.0001009618
0.0002935043
0.0002935327
0.000100942
0.0001009567
0.0001009379
0.000293546
0.0002935774
0.0001009578
0.0001009068
0.0001009644
0.0002935796
0.000101158
0.0001018738
0.0001455373
0.0003059145
0.0002945639
0.0002122742
0.0002098978
0.0001006023
0.0001006283
0.0002944589
0.0002940423
0.0002100913
0.0002098547
0.0001006278
0.0001006206
0.0002941353
0.0002940281
0.000209987
0.0002099121
0.0001006217
0.0001006221
0.0002941443
0.0002940248
0.000210035
0.0002099009
0.0001006223
0.0001006208
0.0002941373
0.0002100147
0.0001006218
0.0001006267
0.0001427065
0.0001004984
0.0001426231
0.0001006415
0.0001423032
0.0001006331
0.0001425357
0.00010067
0.0001423029
0.0001006391
0.0001424997
0.0001006947
0.0001422671
0.0001006455
0.0001424888
0.0001007153
0.0001422648
0.0001006397
0.0001424809
0.0001007195
0.0001422575
0.0001006388
0.0001424761
0.0001007196
0.0001422432
0.0001006388
0.0001424756
0.0001007135
0.0001422333
0.0001006481
0.0001424789
0.0001007179
0.0001422226
0.0001006489
0.0001424718
0.0001007192
0.0001425273
0.0001006371
0.0001424703
0.0001007162
0.0001422092
0.000100655
0.0001424724
0.0001007114
0.0001423235
0.00010066
0.0001424658
0.0001007085
0.0001422019
0.0001006669
0.0001424599
0.0001007181
0.0001424995
0.0001006471
0.000142456
0.0001007128
0.0001423928
0.0001006532
0.0001424618
0.0001007217
0.0001425059
0.0001006533
0.0001424528
0.0001007085
0.0001423297
0.0001006565
0.0001424507
0.0001007239
0.0001424864
0.0001006197
0.000142452
0.0001007235
0.0001424209
0.000100642
0.0001424345
0.0001007173
0.0001424697
0.0001006282
0.0001424415
0.0001007027
0.0001423231
0.0001006691
0.0001424274
0.0001007354
0.0001424021
0.0001006573
0.0001424368
0.0001006847
0.0001423028
0.0001006954
0.0001424553
0.0001019302
0.0001014689
0.0001016199
0.0001020508
0.0001023883
0.0001023515
0.0001024434
0.0001021711
0.0001024467
0.0001021159
0.0001025028
0.0001021922
0.0001025099
0.0001020406
0.0001019465
0.0001017744
0.0001014263
0.0001020711
0.0001009908
0.0001022559
0.0001009738
0.0002935242
0.0002935023
0.0001009758
0.0001022261
0.0001009641
0.000293525
0.0002935029
0.0001009751
0.000102262
0.0001009749
0.0002935254
0.0002935107
0.0001009797
0.000102242
0.0001009728
0.0002935163
0.0002935446
0.0001009519
0.0001022016
0.0001009501
0.0002935028
0.0002935261
0.0001009594
0.000101689
0.0001009322
0.0002934812
0.0002935011
0.0001009941
0.0001021559
0.0001009839
0.0002934925
0.000293495
0.0001010757
0.0001437154
0.0001008587
0.0001482166
0.0001004585
0.000142826
0.0001008014
0.000147843
0.000101361
0.0001021051
0.0001006139
0.0001425579
0.0001005597
0.0001424595
0.0001006242
0.0001425125
0.0001006543
0.0001422518
0.0001006447
0.000142495
0.0001006727
0.0001422946
0.0001006443
0.0001424862
0.000100694
0.0001422712
0.0001006407
0.0001424816
0.0001007108
0.000142264
0.0001006377
0.0001424792
0.0001007133
0.000142248
0.00010064
0.0001424851
0.0001007125
0.0001422353
0.0001006451
0.0001424782
0.0001007097
0.0001422266
0.0001006447
0.0001424995
0.0001007227
0.0001422178
0.000100648
0.0001424756
0.0001007136
0.0001422145
0.0001006526
0.0001424702
0.0001007122
0.0001422073
0.0001006627
0.0001424664
0.0001007066
0.0001422006
0.0001006693
0.0001424756
0.0001007292
0.0001422018
0.0001006727
0.0001424664
0.0001007197
0.000142204
0.0001006657
0.0001424765
0.0001007296
0.0001421861
0.0001006638
0.0001424462
0.0001007235
0.0001423813
0.0001006705
0.000142468
0.0001007359
0.0001421886
0.0001006678
0.0001424537
0.0001007346
0.0001422541
0.0001006683
0.0001424481
0.0001007313
0.0001421736
0.0001006624
0.0001423847
0.0001007076
0.0001423845
0.0001007209
0.0001423799
0.0001006873
0.000142189
0.0001006934
0.0001423876
0.0001006753
0.0001423077
0.0001007183
0.0001015177
0.0001422442
0.0001006341
0.0001019082
0.0001017697
0.0001023002
0.0001020335
0.0001024737
0.0001024116
0.0001021321
0.0001023652
0.0001023313
0.0001025084
0.0001020594
0.0001023911
0.0001017525
0.0001021067
0.000101901
0.0001013399
0.0001018498
0.0001456013
0.0001010606
0.0001437107
0.0001008572
0.0001482565
0.0001004747
0.0001428285
0.0001008082
0.0001478182
0.0001007704
0.0001437126
0.0001008457
0.0001433147
0.0001008276
0.0001433247
0.0001007566
0.000143407
0.0001007802
0.0001435309
0.0001008565
0.0001433418
0.0001008532
0.0001433424
0.0001007638
0.0001434662
0.0001007781
0.0001435159
0.0001008654
0.0001433327
0.0001008474
0.0001433538
0.000100759
0.0001434599
0.000100781
0.0001435348
0.0001008658
0.0001433446
0.0001008529
0.0001433509
0.0001007612
0.0001434697
0.0001007792
0.0001435266
0.0001008658
0.0001433405
0.0001008503
0.0001434679
0.0001006269
0.0001427104
0.000100501
0.0001426235
0.0001006169
0.0001425573
0.000100559
0.0001424612
0.0001006378
0.0001423068
0.0001006334
0.0001425358
0.0001006237
0.0001425172
0.0001006575
0.0001422571
0.0001006683
0.0001423048
0.0001006392
0.0001425013
0.0001006451
0.0001424964
0.0001006714
0.0001422951
0.000100695
0.0001422719
0.0001006466
0.0001424886
0.000100644
0.0001424857
0.0001006975
0.0001422728
0.0001007137
0.000142267
0.0001006375
0.0001424836
0.0001006407
0.0001424824
0.000100711
0.0001422646
0.0001007172
0.0001422622
0.0001006391
0.0001424788
0.0001006372
0.0001424761
0.0001007137
0.0001422493
0.0001007205
0.0001422475
0.0001006356
0.0001424767
0.000100639
0.0001424765
0.0001007144
0.0001422362
0.0001007195
0.0001422378
0.0001006427
0.0001424754
0.0001006414
0.0001424687
0.0001007208
0.0001422256
0.0001007072
0.0001422398
0.0001006477
0.000142478
0.0001006599
0.0001424678
0.0001007262
0.0001422376
0.0001007163
0.0001424124
0.0001006464
0.0001424712
0.000100659
0.0001424646
0.0001007183
0.0001422001
0.0001007007
0.0001422168
0.0001006612
0.0001422965
0.0001006653
0.000142469
0.000100722
0.0001423883
0.0001007207
0.0001424264
0.0001006494
0.0001424543
0.000100671
0.0001424648
0.0001007443
0.0001421918
0.0001007238
0.0001425112
0.0001006323
0.0001424421
0.0001006724
0.0001424287
0.000100712
0.0001421924
0.0001007313
0.000142159
0.000100674
0.0001423987
0.0001006776
0.0001423917
0.0001006659
0.0001421665
0.0001006502
0.0001421618
0.0001007335
0.0001423785
0.0001006284
0.0001422672
0.0001007351
0.0001421905
0.0001007099
0.0001462996
0.0001424437
0.0001006682
0.0001024683
0.0001017513
0.0001021268
0.0001009586
0.0001011645
0.0001006614
0.0001009794
0.0001012021
0.0001827828
0.0001693155
0.0001050293
0.0001478634
0.0001047662
0.0001484759
0.0001054146
0.0001478216
0.0001053366
0.0001484636
0.0001053938
0.0001477893
0.0001053301
0.0001484412
0.0001054771
0.0001477735
0.0001053699
0.0001483945
0.000105527
0.0001477628
0.000105396
0.0001483685
0.0001055688
0.0001477564
0.0001054121
0.0001483166
0.0001055853
0.000147753
0.0001054202
0.0001482974
0.0001055984
0.0001477487
0.0001054375
0.000148218
0.0001055995
0.000147752
0.000105422
0.0001482551
0.0001054701
0.0001481093
0.0001053971
0.0001481536
0.0001056037
0.0001477539
0.0001054248
0.0001482833
0.0001055981
0.0001478136
0.0001054258
0.000148203
0.0001056154
0.0001477579
0.0001054282
0.0001482597
0.0001055143
0.0001481887
0.0001054087
0.0001481871
0.0001055756
0.0001479548
0.0001053929
0.0001482229
0.0001054262
0.000148204
0.0001054234
0.0001481374
0.0001055925
0.0001479277
0.0001053737
0.0001482305
0.000105427
0.0001482858
0.0001054658
0.0001481107
0.0001055751
0.0001481291
0.0001053722
0.0001482293
0.0001054158
0.0001482947
0.0001054644
0.0001480927
0.0001056159
0.0001480421
0.0001053447
0.000148255
0.0001054711
0.0001482438
0.0001053942
0.0001481777
0.0001056045
0.0001479719
0.0001053906
0.0001482419
0.0001740825
0.0001739196
0.0001747589
0.0001736664
0.00017454
0.0001747181
0.0001744705
0.0001746569
0.0001748249
0.0001735486
0.0001745496
0.0001749036
0.0001742987
0.0001740009
0.0001751741
0.0001757797
0.0001742626
0.000174016