/*--------------------------------*- C++ -*----------------------------------*\
  =========                 |
  \\      /  F ield         | OpenFOAM: The Open Source CFD Toolbox
   \\    /   O peration     | Website:  https://openfoam.org
    \\  /    A nd           | Version:  7
     \\/     M anipulation  |
\*---------------------------------------------------------------------------*/
FoamFile
{
    version     2.0;
    format      ascii;
    class       volScalarField;
    location    "0.08";
    object      nut;
}
// * * * * * * * * * * * * * * * * * * * * * * * * * * * * * * * * * * * * * //

dimensions      [0 2 -1 0 0 0 0];

internalField   nonuniform List<scalar> 
82743
(
0.001353776
0.001326501
0.001315715
0.001312576
0.0013108
0.001309638
0.001308742
0.001308179
0.00130765
0.001323673
0.001272165
0.001255382
0.001250892
0.001248908
0.001247658
0.001246684
0.00124591
0.00124493
0.001314538
0.001257419
0.001238676
0.001234776
0.001233368
0.001232339
0.001231201
0.001229659
0.001227334
0.001313117
0.001257656
0.001243458
0.001244252
0.001245627
0.001247856
0.00124662
0.001242265
0.001234604
0.001314157
0.001263891
0.001276154
0.001285598
0.001320806
0.001313686
0.001318151
0.001301742
0.00126544
0.001315879
0.00127099
0.001290826
0.0006039889
0.0006962647
0.0006332189
0.0006368024
0.0006344406
0.0005975146
0.001317331
0.001277193
0.001322764
0.0006351908
0.0001677298
0.0006195913
0.001317667
0.001280107
0.001329651
0.0006396082
0.0001546856
0.001344326
0.001317292
0.001279923
0.001329155
0.0006377047
0.0001516598
0.001344205
0.001316471
0.001278832
0.001327796
0.0006360377
0.0001493024
0.00134332
0.001315434
0.001277451
0.00132631
0.0006345071
0.0001471003
0.00134235
0.001314162
0.001275411
0.001324071
0.0006330168
0.0001447832
0.0006286263
0.001312497
0.001270699
0.00131518
0.0006313612
0.000141981
0.0006384404
0.001310336
0.001263235
0.001281234
0.0006050682
0.0001563156
0.0001462995
0.0001411673
0.0001571422
0.0006241087
0.001308121
0.001255927
0.00126696
0.00127417
0.001303306
0.001309869
0.001310909
0.001296502
0.001264196
0.001306426
0.001248811
0.001234302
0.001234874
0.001239617
0.001242625
0.001242766
0.001238602
0.001231254
0.001305464
0.001244683
0.001224933
0.001220659
0.00122064
0.001221065
0.001221148
0.001220217
0.00121808
0.001305165
0.001243528
0.00122245
0.00121664
0.001215273
0.001214964
0.001214925
0.001214692
0.001213954
0.0001009632
0.0001006912
0.0001006902
0.0001006017
0.0001006151
0.0001005923
0.0001005817
0.0001005673
0.0001005601
0.0001085934
0.000100796
0.0001007315
0.0001007434
0.0001007271
0.0001007266
0.000100688
0.0001006546
0.0001006312
0.0001006211
0.0001087555
0.0001011074
0.0001007233
0.0001007138
0.0001007385
0.000100769
0.0001007275
0.0001006751
0.0001006405
0.0001006244
0.0001083065
0.0001012401
0.0001008734
0.0001006981
0.0001007804
0.0001008773
0.0001008245
0.0001007361
0.000100668
0.0001006419
0.0001078808
0.0001013731
0.0001009292
0.0001008074
0.0001010157
0.0001012769
0.0001012389
0.0001011
0.0001009966
0.0001008895
0.0001075886
0.0001012934
0.0001009438
0.0001009324
0.0001015434
0.0001021684
0.0001024241
0.0001019053
0.0001013863
0.0001012706
0.0001074442
0.0001012957
0.0001009164
0.0001007622
0.0001012508
0.0001387845
0.0001061032
0.0001061187
0.0001030813
0.0001006048
0.0001071844
0.0001012642
0.0001008958
0.000100846
0.0001016319
0.0001569436
0.0001007172
0.0001066072
0.0001013159
0.0001008391
0.0001008751
0.0001010704
0.0001010671
0.0001058921
0.0001013344
0.0001007885
0.0001008259
0.0001009188
0.0001012593
0.0001051081
0.0001013531
0.0001008227
0.0001008104
0.0001008918
0.0001014432
0.0001043936
0.000101381
0.0001008044
0.000100804
0.0001008797
0.0001015622
0.0001037614
0.0001014087
0.0001007711
0.0001008243
0.0001009585
0.0001028088
0.0001032419
0.0001013794
0.000100751
0.0001008416
0.0001009257
0.0001020471
0.000102826
0.0001014125
0.0001007504
0.0001007681
0.0001009477
0.0001088202
0.0006470014
0.0006540519
0.0003900877
0.0001013363
0.0001025089
0.0001014525
0.0001007985
0.0001006719
0.0001007196
0.0001007507
0.0001007978
0.0001009244
0.0001009603
0.000100794
0.0001022915
0.0001014426
0.0001008765
0.0001006559
0.0001006467
0.0001006537
0.0001006737
0.0001007066
0.0001007255
0.0001006866
0.000102143
0.0001014788
0.000100913
0.0001007361
0.0001006382
0.0001006356
0.0001006393
0.0001006558
0.0001006606
0.0001006716
0.0001020435
0.0001014953
0.0001009391
0.0001007602
0.0001006383
0.0001006322
0.0001006321
0.0001006372
0.0001006424
0.000100642
0.0001011941
0.0001007051
0.0001006631
0.0001006353
0.0001006247
0.0001006032
0.0001005903
0.0001005811
0.0001005767
0.0001091311
0.0001006325
0.0001006556
0.0001007328
0.0001006969
0.0001006968
0.0001006584
0.0001006249
0.0001006007
0.0001005891
0.0001016336
0.0001004756
0.0001006205
0.0001006581
0.0001006846
0.0001007059
0.0001006768
0.00010063
0.0001006005
0.0001005884
0.0001017495
0.0001004607
0.0001005968
0.0001006297
0.0001006933
0.0001007737
0.00010075
0.0001006669
0.0001006061
0.0001005908
0.0001015298
0.0001004919
0.0001005643
0.0001006213
0.0001006782
0.0001008975
0.00010092
0.0001007641
0.0001006354
0.0001005924
0.0001016595
0.0001004752
0.0001005561
0.0001006595
0.0001007915
0.0001013922
0.0001018766
0.0001013299
0.0001007361
0.0001006116
0.0001016221
0.0001005214
0.0001005918
0.0001006956
0.0001011428
0.0001403148
0.0001061699
0.0001065476
0.0001031538
0.0001006083
0.0001016838
0.000100557
0.0001006495
0.0001007564
0.0001017532
0.0001596535
0.0001007061
0.0001014283
0.0001006148
0.0001006436
0.0001008163
0.0001091839
0.0001017539
0.0001013074
0.0001006148
0.0001007317
0.0001007821
0.001335821
0.000798434
0.0001023851
0.0001011827
0.000100599
0.0001006871
0.000100752
0.001321237
0.0008753485
0.0001010303
0.0001010513
0.000100603
0.0001006816
0.0001007403
0.001331513
0.0007993127
0.0001008818
0.0001009568
0.0001006067
0.0001007224
0.0001007655
0.0001010364
0.0001024569
0.0001008961
0.0001005995
0.0001006641
0.0001007954
0.000100933
0.0001024415
0.0001008453
0.0001005812
0.0001006489
0.0001007088
0.0001009845
0.0001076739
0.0006408661
0.0006484077
0.0003974872
0.0001005187
0.0001008195
0.0001005707
0.0001006214
0.000100623
0.0001006735
0.000100713
0.0001007479
0.000100852
0.0001008923
0.0001007501
0.0001007913
0.0001005657
0.0001006054
0.000100607
0.0001006096
0.0001006207
0.0001006357
0.0001006701
0.000100676
0.000100654
0.0001007834
0.0001005638
0.0001006022
0.0001005982
0.0001005982
0.0001006026
0.0001006051
0.0001006165
0.0001006257
0.000100619
0.0001007814
0.0001005631
0.0001005984
0.0001005965
0.0001005959
0.0001005965
0.0001005973
0.0001006023
0.0001006068
0.0001006072
0.0001011503
0.0001007093
0.0001006648
0.0001006076
0.000100616
0.0001005939
0.0001005861
0.0001005776
0.0001005746
0.0001086692
0.0001006323
0.0001006594
0.000100733
0.0001007054
0.0001007018
0.0001006605
0.0001006257
0.0001006011
0.0001005895
0.0001016474
0.0001004683
0.0001006305
0.0001006574
0.0001006907
0.0001007124
0.0001006798
0.000100632
0.0001006025
0.0001005894
0.0001017597
0.0001004585
0.0001005952
0.0001006283
0.0001006944
0.0001007732
0.0001007505
0.0001006661
0.0001006061
0.000100591
0.0001014789
0.0001004975
0.0001005618
0.0001006183
0.000100673
0.00010091
0.0001009338
0.0001007651
0.0001006372
0.0001005933
0.0001016974
0.0001004744
0.0001005509
0.000100649
0.0001007868
0.0001014683
0.0001018763
0.0001013571
0.0001007351
0.0001006107
0.0001017159
0.0001004976
0.00010059
0.0001006928
0.0001011551
0.000138298
0.0001062992
0.0001063705
0.0001031413
0.0001006141
0.0001016864
0.0001005562
0.0001006465
0.0001007597
0.0001017644
0.0001593445
0.000100732
0.0001014512
0.0001006116
0.0001006374
0.0001008334
0.0001093558
0.0001021436
0.0001013234
0.0001006168
0.0001007375
0.0001007847
0.001310006
0.000881926
0.0001034602
0.0001012078
0.0001006048
0.0001007041
0.0001007807
0.001283989
0.001047967
0.0001010601
0.0001010731
0.0001006101
0.0001006903
0.0001007606
0.001306826
0.0008823115
0.0001009006
0.0001009851
0.0001006115
0.0001007257
0.0001007629
0.0001010633
0.0001022754
0.0001009003
0.0001006036
0.0001006489
0.0001007891
0.000100919
0.0001024827
0.0001008407
0.0001005835
0.0001006529
0.0001007113
0.000101
0.0001074424
0.0006402275
0.0006480029
0.00039985
0.000100551
0.0001008104
0.0001005689
0.0001006185
0.0001006225
0.0001006764
0.000100718
0.0001007492
0.0001008538
0.0001008823
0.0001007584
0.0001007945
0.0001005646
0.0001006018
0.0001006062
0.0001006092
0.0001006207
0.0001006355
0.0001006684
0.0001006774
0.0001006544
0.0001007866
0.0001005632
0.0001005971
0.0001005977
0.0001005979
0.0001006022
0.0001006047
0.000100616
0.0001006254
0.0001006198
0.000100783
0.0001005632
0.0001005952
0.000100596
0.0001005956
0.0001005962
0.0001005972
0.0001006022
0.0001006069
0.0001006074
0.0001012033
0.0001006813
0.0001006485
0.0001006078
0.0001006187
0.0001005955
0.0001005875
0.0001005785
0.0001005752
0.0001090462
0.0001006405
0.0001006291
0.0001007344
0.0001007032
0.0001006996
0.0001006608
0.0001006267
0.0001006021
0.0001005904
0.0001017814
0.0001004553
0.0001006258
0.0001006565
0.0001006859
0.0001007089
0.0001006787
0.0001006314
0.0001006021
0.0001005897
0.0001017627
0.0001004532
0.0001005951
0.0001006295
0.0001006959
0.0001007739
0.0001007492
0.0001006655
0.0001006062
0.0001005915
0.0001015719
0.0001004817
0.0001005624
0.0001006196
0.0001006746
0.0001008972
0.0001009251
0.0001007623
0.0001006374
0.0001005935
0.0001017421
0.0001004634
0.0001005512
0.0001006539
0.0001007931
0.0001014619
0.0001018801
0.0001013522
0.0001007357
0.0001006118
0.0001016525
0.0001005128
0.0001005933
0.0001006898
0.0001011455
0.0001384745
0.0001063443
0.00010639
0.0001031395
0.0001006139
0.0001017693
0.000100542
0.000100649
0.0001007584
0.0001017757
0.0001596646
0.0001007339
0.0001014783
0.000100604
0.0001006341
0.0001008334
0.0001093705
0.0001021746
0.0001013661
0.0001005998
0.0001007405
0.0001007736
0.001301847
0.0008912211
0.0001036997
0.0001012482
0.0001005867
0.0001006785
0.000100748
0.001274172
0.001060589
0.0001011326
0.0001011025
0.0001005926
0.000100669
0.0001007301
0.001298732
0.0008916526
0.0001008894
0.0001009852
0.0001006051
0.0001007254
0.0001007587
0.0001010455
0.0001022304
0.0001008903
0.0001005997
0.0001006549
0.0001007981
0.0001009225
0.0001024863
0.0001008505
0.0001005753
0.0001006536
0.0001007125
0.0001009935
0.0001076325
0.0006400826
0.0006479053
0.0003999943
0.0001005242
0.0001008186
0.0001005643
0.0001006219
0.0001006217
0.0001006745
0.0001007166
0.0001007486
0.000100855
0.0001008812
0.000100762
0.0001008006
0.0001005596
0.0001006043
0.000100606
0.0001006088
0.0001006216
0.0001006362
0.0001006691
0.0001006781
0.0001006528
0.0001007863
0.0001005554
0.0001006
0.0001005975
0.0001005981
0.000100603
0.0001006051
0.0001006163
0.0001006253
0.0001006199
0.0001007875
0.0001005549
0.0001005968
0.000100596
0.0001005956
0.0001005965
0.0001005974
0.0001006024
0.0001006068
0.0001006072
0.0001011893
0.0001006839
0.0001006562
0.0001006088
0.0001006182
0.0001005947
0.0001005868
0.000100578
0.0001005749
0.0001092438
0.0001006262
0.0001006399
0.0001007349
0.0001007027
0.0001007006
0.0001006609
0.0001006269
0.0001006021
0.0001005904
0.0001017763
0.0001004511
0.000100629
0.000100659
0.0001006891
0.0001007111
0.0001006797
0.000100632
0.0001006027
0.00010059
0.0001017937
0.0001004518
0.0001005977
0.0001006309
0.0001006966
0.000100771
0.0001007505
0.000100666
0.0001006058
0.0001005913
0.0001015117
0.0001004889
0.0001005614
0.0001006184
0.0001006704
0.0001008988
0.0001009274
0.0001007642
0.0001006374
0.0001005934
0.0001017406
0.0001004627
0.0001005508
0.000100654
0.0001007734
0.0001013831
0.0001018714
0.0001013501
0.0001007359
0.0001006115
0.0001016886
0.0001004974
0.000100591
0.0001006887
0.0001011367
0.0001402691
0.0001060981
0.0001063915
0.0001031175
0.0001006143
0.0001017403
0.0001005403
0.0001006471
0.0001007591
0.0001017836
0.0001592628
0.0001007343
0.0001014724
0.0001006031
0.0001006338
0.0001008351
0.000109388
0.0001021723
0.0001013581
0.0001006013
0.0001007415
0.0001007747
0.001301941
0.0008912831
0.0001036934
0.0001012409
0.0001005893
0.000100685
0.0001007542
0.001274166
0.00106069
0.000101152
0.0001010853
0.0001005984
0.0001006722
0.0001007354
0.001298733
0.0008917415
0.0001008828
0.0001009678
0.0001006056
0.0001007259
0.0001007583
0.0001010475
0.0001022175
0.0001008884
0.0001005992
0.0001006537
0.0001007975
0.0001009196
0.0001024903
0.0001008502
0.0001005741
0.0001006535
0.0001007118
0.0001009939
0.0001082474
0.0006400538
0.0006478906
0.0004000147
0.0001005242
0.0001008172
0.0001005639
0.0001006216
0.0001006215
0.0001006746
0.0001007167
0.0001007486
0.0001008553
0.0001008812
0.0001007626
0.0001007952
0.0001005587
0.0001006043
0.0001006057
0.0001006087
0.0001006216
0.0001006362
0.000100669
0.0001006784
0.0001006529
0.0001007889
0.0001005545
0.0001005999
0.0001005972
0.0001005981
0.000100603
0.0001006051
0.0001006162
0.0001006254
0.00010062
0.0001007918
0.0001005536
0.0001005969
0.0001005957
0.0001005955
0.0001005965
0.0001005973
0.0001006024
0.0001006068
0.0001006072
0.0001012093
0.0001006829
0.0001006468
0.0001006077
0.0001006188
0.000100595
0.0001005875
0.0001005783
0.000100575
0.000109387
0.0001006436
0.0001006275
0.0001007349
0.0001007037
0.0001006997
0.0001006598
0.000100626
0.0001006016
0.00010059
0.0001017446
0.0001004576
0.000100627
0.000100656
0.0001006862
0.0001007094
0.0001006792
0.0001006313
0.0001006022
0.0001005896
0.0001017659
0.0001004529
0.0001005943
0.0001006287
0.0001006964
0.0001007733
0.0001007499
0.0001006654
0.0001006066
0.0001005914
0.0001015767
0.0001004814
0.0001005614
0.0001006189
0.0001006725
0.0001008961
0.0001009291
0.0001007612
0.0001006362
0.0001005925
0.0001017477
0.0001004628
0.0001005507
0.0001006535
0.0001007823
0.000101439
0.0001018728
0.0001013561
0.0001007335
0.0001006099
0.0001016532
0.0001005121
0.0001005911
0.0001006879
0.0001011432
0.0001389976
0.0001063018
0.00010637
0.0001031283
0.0001006138
0.0001017798
0.0001005367
0.0001006489
0.0001007574
0.0001017862
0.0001590381
0.000100731
0.0001014922
0.0001006021
0.0001006341
0.0001008318
0.0001093751
0.0001021396
0.0001013871
0.0001005953
0.0001007383
0.0001007787
0.001310128
0.0008822234
0.0001034564
0.0001013027
0.000100583
0.0001006875
0.0001007554
0.001283847
0.001048387
0.0001010664
0.0001011709
0.0001005901
0.0001006794
0.0001007424
0.001306613
0.000882535
0.0001008969
0.0001010276
0.0001006083
0.000100724
0.0001007634
0.0001010592
0.0001022443
0.00010092
0.0001006023
0.0001006491
0.0001007898
0.0001009142
0.0001024881
0.000100847
0.0001005819
0.0001006527
0.0001007113
0.0001010008
0.0001080792
0.0006400825
0.0006479267
0.0004000201
0.0001005157
0.0001008021
0.0001005677
0.0001006183
0.0001006223
0.0001006767
0.0001007181
0.0001007493
0.000100855
0.0001008806
0.0001007619
0.0001007896
0.0001005628
0.0001006018
0.0001006061
0.0001006093
0.0001006207
0.0001006356
0.0001006686
0.0001006782
0.000100653
0.0001007807
0.0001005623
0.0001005971
0.0001005972
0.0001005979
0.0001006023
0.0001006048
0.0001006161
0.0001006256
0.0001006203
0.0001007838
0.0001005616
0.000100595
0.0001005953
0.0001005956
0.0001005962
0.0001005972
0.0001006024
0.0001006069
0.0001006074
0.0001011932
0.0001007119
0.0001006731
0.0001006075
0.000100617
0.0001005935
0.0001005872
0.0001005778
0.000100575
0.0001092696
0.0001006455
0.0001006528
0.0001007419
0.0001007049
0.0001007013
0.00010066
0.0001006263
0.0001006012
0.00010059
0.0001017565
0.000100458
0.0001006338
0.0001006622
0.0001006912
0.0001007134
0.0001006776
0.0001006322
0.000100602
0.0001005902
0.0001017316
0.0001004605
0.0001005939
0.0001006302
0.0001006946
0.0001007705
0.0001007505
0.0001006669
0.0001006052
0.0001005903
0.0001014499
0.0001004986
0.0001005627
0.000100618
0.0001006735
0.0001009076
0.000100924
0.0001007655
0.0001006346
0.0001005907
0.0001016755
0.0001004776
0.0001005512
0.0001006493
0.0001007809
0.0001013973
0.0001018609
0.0001013313
0.0001007357
0.0001006082
0.0001016697
0.000100513
0.0001005928
0.0001006947
0.000101147
0.0001402494
0.0001062758
0.0001064255
0.000103151
0.0001006105
0.0001016986
0.0001005548
0.0001006467
0.0001007567
0.0001017907
0.0001591452
0.0001007062
0.0001014575
0.000100609
0.0001006418
0.0001008194
0.0001093198
0.000101762
0.0001013455
0.0001006126
0.0001007339
0.0001007876
0.001334819
0.0007993932
0.0001023903
0.0001012443
0.000100611
0.0001006981
0.0001007647
0.001319259
0.0008764728
0.0001009789
0.0001010075
0.0001006287
0.0001006862
0.000100747
0.001329437
0.0008000329
0.0001008819
0.0001009388
0.000100609
0.0001007225
0.0001007651
0.0001010309
0.0001024102
0.000100879
0.0001005961
0.0001006604
0.0001007944
0.0001009288
0.000102488
0.0001008454
0.0001005741
0.0001006489
0.0001007099
0.0001009826
0.0001079425
0.0006403378
0.0006481562
0.0004000007
0.0001005263
0.0001008229
0.0001005668
0.0001006209
0.0001006229
0.0001006738
0.0001007139
0.0001007473
0.0001008536
0.0001008828
0.0001007641
0.0001007905
0.0001005612
0.0001006054
0.0001006065
0.0001006098
0.0001006209
0.000100636
0.0001006694
0.0001006789
0.0001006541
0.0001007882
0.000100561
0.0001006019
0.0001005973
0.0001005983
0.0001006027
0.0001006053
0.0001006164
0.0001006256
0.0001006205
0.0001007713
0.0001005608
0.0001005979
0.0001005956
0.0001005958
0.0001005962
0.0001005974
0.0001006024
0.000100607
0.0001006075
0.0001011589
0.0001007334
0.0001006775
0.0001006423
0.000100638
0.0001006155
0.0001006036
0.0001005906
0.0001005859
0.0001089241
0.0001008578
0.000100728
0.0001007675
0.0001007336
0.0001007374
0.0001006922
0.0001006591
0.000100635
0.0001006237
0.0001016211
0.0001016671
0.0001007163
0.0001007109
0.0001007373
0.0001007616
0.0001007256
0.0001006742
0.00010064
0.0001006246
0.0001016311
0.0001018292
0.0001008008
0.0001007938
0.0001008312
0.0001009065
0.0001008778
0.0001007899
0.0001007009
0.0001006643
0.0001014578
0.0001019225
0.0001008122
0.0001009146
0.0001010584
0.0001012363
0.0001012355
0.0001010873
0.0001010051
0.0001008827
0.000101573
0.0001019233
0.0001008525
0.0001010676
0.0001015883
0.0001021567
0.0001024787
0.0001019409
0.0001014081
0.0001012991
0.0001015659
0.0001019834
0.0001008018
0.0001007944
0.000101108
0.0001404041
0.0001061543
0.0001061476
0.0001031964
0.0001006088
0.000101632
0.0001019444
0.0001007821
0.0001008192
0.0001016015
0.0001590636
0.0001006552
0.0001014581
0.0001019688
0.0001007664
0.0001008469
0.0001010248
0.0001009858
0.0001013641
0.0001019465
0.000100796
0.0001007936
0.0001019271
0.0001012011
0.0001013929
0.0001018555
0.000100816
0.0001007837
0.0001013981
0.0001012344
0.0001013832
0.0001017798
0.0001008129
0.0001007819
0.000101147
0.0001014368
0.0001031985
0.0001016643
0.0001007959
0.0001008261
0.0001010201
0.0001027812
0.0001030803
0.0001015492
0.0001007567
0.0001008427
0.0001008961
0.0001025118
0.0001028302
0.000101421
0.0001007281
0.0001007659
0.0001009467
0.0001081029
0.0006423185
0.0006498804
0.0003996793
0.0001005108
0.0001025557
0.000101478
0.0001007854
0.0001006707
0.0001007212
0.0001007514
0.0001007987
0.0001008984
0.000100936
0.0001008018
0.0001023686
0.0001014235
0.0001008612
0.0001006554
0.0001006469
0.0001006541
0.000100674
0.0001007095
0.0001007165
0.0001006924
0.0001022155
0.0001014961
0.0001009055
0.0001007441
0.0001006386
0.0001006357
0.0001006395
0.0001006517
0.0001006623
0.0001006566
0.0001021194
0.000101524
0.0001009305
0.0001007706
0.0001006394
0.0001006339
0.0001006324
0.0001006374
0.0001006418
0.0001006422
0.0001144523
0.0001134298
0.0001105573
0.0001088679
0.0001075552
0.0001064451
0.0001056621
0.0001050932
0.000104742
0.00010949
0.001348628
0.001320359
0.001310222
0.001307296
0.001307017
0.001306072
0.001304215
0.001304562
0.001305017
0.0001105779
0.001318619
0.00126957
0.001253458
0.00124919
0.001247507
0.001246455
0.001245501
0.001244793
0.001243938
0.000109578
0.001309318
0.001255731
0.001237955
0.001234282
0.001233248
0.001232363
0.001231181
0.001229458
0.001227192
0.0001090115
0.001307047
0.001256007
0.001242987
0.001244236
0.001246626
0.001249504
0.001247663
0.001242514
0.001234678
0.0001085986
0.001308361
0.001262468
0.001275769
0.001285682
0.00132497
0.001323499
0.00132297
0.001302435
0.001265799
0.0001085909
0.00131197
0.001269785
0.001290382
0.0001310159
0.0001408216
0.0001065571
0.0001061441
0.0001043516
0.0001017808
0.0001081884
0.001313271
0.001276068
0.0013216
0.0001220151
0.0001589439
0.0001010869
0.000106978
0.001312623
0.001278965
0.001329131
0.0001120663
0.0001009387
0.000106778
0.001312005
0.0012783
0.001327561
0.0001097329
0.0001008035
0.0001058536
0.00130941
0.001276611
0.001323923
0.000108251
0.0001007343
0.0001050163
0.001307359
0.001275071
0.001323798
0.0001079928
0.0001007392
0.0001040189
0.001308378
0.001273277
0.001319782
0.0001095301
0.0001008465
0.00010503
0.001308825
0.001269058
0.001310946
0.000110965
0.0001031562
0.0001051618
0.001307203
0.001262386
0.001279948
0.0001185017
0.0001077288
0.0006636618
0.0006701442
0.0003975778
0.0001052051
0.0001043338
0.001306665
0.001255323
0.001266425
0.001273598
0.001304344
0.001311727
0.001312024
0.00129762
0.001266867
0.0001041006
0.001304678
0.001248178
0.001233795
0.001234377
0.001239397
0.001242513
0.001242621
0.001238552
0.001231516
0.0001036334
0.001303468
0.001243915
0.001224279
0.001219983
0.001219986
0.00122045
0.001220586
0.001219732
0.001217754
0.0001036084
0.001302706
0.001242709
0.001221726
0.001215883
0.001214501
0.001214234
0.001214279
0.001214166
0.001213562
0.0006791362
0.0001007222
0.0001277734
0.0001005185
0.0006636494
0.0006475266
0.0001086878
0.0001076936
0.000168776
0.0001787462
0.0006429138
0.0006406634
0.0001072041
0.0001065134
0.0001737475
0.0001728563
0.0006388287
0.0006382884
0.0001057039
0.0001050652
0.0001652193
0.000164364
0.0006374999
0.0006374218
0.0001045351
0.0001041983
0.0001589095
0.0001584674
0.0006362785
0.0006360704
0.0001036898
0.0001033424
0.0001522623
0.0001517466
0.000635344
0.0006353119
0.0001029787
0.0001027583
0.0001471443
0.0001468388
0.0006345751
0.0006345325
0.0001024982
0.0001023214
0.0001430101
0.0001427835
0.0006340761
0.0006341123
0.0001021674
0.0001020466
0.0001403595
0.0001401562
0.0006337247
0.0001019478
0.0001382349
0.0006742905
0.0006549071
0.000121773
0.0001020661
0.0001208615
0.0001020928
0.0006489761
0.000647065
0.0001199277
0.0001024569
0.0001183181
0.0001022067
0.0006450538
0.0006452803
0.0001175581
0.0001024896
0.0001169914
0.0001022876
0.0006439381
0.0006446919
0.0001165025
0.0001025054
0.0001160833
0.0001023317
0.0006434378
0.0006443546
0.0001157578
0.0001025031
0.000115599
0.0001023703
0.000643129
0.0006441016
0.0001156575
0.0001024996
0.0001152425
0.0001023614
0.0006552557
0.0001790406
0.0001423614
0.0001192336
0.0002054951
0.00064397
0.0001057684
0.0001077109
0.0006060632
0.0002918172
0.00010443
0.000102095
0.0001008822
0.0006423209
0.0006428866
0.0001159843
0.0001024195
0.0001142495
0.0001024635
0.000155818
0.000159739
0.0006411392
0.0006415625
0.0001147484
0.0001024112
0.000112829
0.0001024458
0.0001525974
0.0006397421
0.0006399679
0.0001131257
0.0001024222
0.0001111184
0.0001025491
0.0001501969
0.0006382717
0.0006383843
0.0001109549
0.0001023947
0.0001094201
0.000102591
0.0001480085
0.0006368704
0.0006369289
0.0001089205
0.0001023924
0.0001077285
0.0001026153
0.0001457633
0.0006356089
0.0006356752
0.0001074551
0.0001023783
0.0001062544
0.0001025938
0.0001430954
0.0006344399
0.0006346573
0.0001062628
0.0001023341
0.0001051985
0.0001025739
0.0001521474
0.0003012513
0.000309204
0.0001072263
0.0001374357
0.0006335298
0.0006338815
0.0001052576
0.0001023169
0.0001045163
0.0001025821
0.0006329184
0.0006334162
0.0001045338
0.0001023008
0.0001040858
0.000102574
0.0006325147
0.000633078
0.0001040559
0.0001022906
0.0001038208
0.0001025775
0.0006322696
0.0006328986
0.0001037528
0.0001022775
0.0001036651
0.0001025791
0.0006321484
0.0006328206
0.0001035752
0.0001022691
0.0001025762
0.0001008205
0.0001257756
9.982642e-05
0.0001006274
0.000140789
9.943431e-05
0.0001164361
0.0002020669
0.0001396334
0.0001160818
0.0002044235
0.0001010368
0.0001013556
0.0001031994
0.0001010988
0.0001015151
0.0001590665
9.219886e-05
0.0001619817
0.0001109634
0.0001441224
0.0001099056
0.0001424376
0.0002949828
0.0001010326
0.0001010061
0.0001078758
0.0002931573
0.0001010634
0.0001010103
0.0001009644
0.0001215848
9.972703e-05
0.000100791
0.0001384505
9.969066e-05
0.0001169227
0.0002051742
0.0001397623
0.0001165719
0.000204562
0.0001010526
0.0001013763
0.0001031638
0.000101053
0.0001013619
0.0001590786
0.0001618102
0.0001620323
0.0001083704
0.0001612047
0.0001079513
0.0001606006
0.0002930878
0.0001010788
0.0001010109
0.0001079557
0.0002929686
0.0001010877
0.0001010138
0.0001056231
0.0001019051
0.0001013392
0.000399649
0.0001061421
0.0001018866
0.0001013149
0.0001008972
0.0001246426
9.952539e-05
0.000100861
0.0001280545
9.967886e-05
0.000115566
0.0002046651
0.0001387644
0.0001158539
0.0002045787
0.0001010595
0.0001013452
0.0001031334
0.0001010537
0.000101328
0.0001590319
0.0001620165
0.0001620157
0.0002929777
0.0001010948
0.0001010145
0.0001081034
0.0002929382
0.0001010923
0.0001010142
0.0001062065
0.0001018359
0.0001013333
0.0003999504
0.0001061957
0.0001018424
0.0001013425
0.0001008609
0.000122379
9.952875e-05
0.0001008421
0.0001226991
9.953666e-05
0.0001157164
0.0002048359
0.0001386556
0.0001157637
0.0002045345
0.0001010581
0.0001013459
0.0001031167
0.0001010596
0.0001013373
0.0001590092
0.0001618142
0.000161964
0.000292936
0.0001010913
0.0001010105
0.0001082044
0.000292928
0.0001010887
0.0001010102
0.0001062584
0.0001018331
0.0001013461
0.0004000093
0.0001061473
0.0001018449
0.0001013475
0.000100874
0.0001231834
9.955778e-05
0.0001008412
0.0001232717
9.952943e-05
0.0001167992
0.0002047426
0.000139913
0.0001164629
0.0002050481
0.000101058
0.0001013408
0.0001031183
0.000101058
0.0001013381
0.0001593586
0.000162025
0.0001617613
0.0002929283
0.0001010893
0.0001010103
0.0001075409
0.0002929376
0.0001010922
0.0001010107
0.0001062352
0.0001018419
0.0001013477
0.0004000284
0.0001062761
0.0001018385
0.0001013481
0.0001008665
0.0001230485
9.953922e-05
0.0001008474
0.0001228363
9.942146e-05
0.0001156756
0.0002045803
0.0001395127
0.0001162807
0.0002053567
0.0001010491
0.0001013278
0.000103136
0.0001010538
0.0001013398
0.0001597659
0.0001620201
0.0001620407
0.0002929457
0.0001010929
0.0001010139
0.000107459
0.0002929798
0.0001010948
0.0001010143
0.0001063521
0.0001018405
0.0001013469
0.0004000165
0.0001063898
0.0001018389
0.000101347
0.000100838
0.0001321811
9.977759e-05
0.0001008743
0.000123888
9.950484e-05
0.0001165769
0.0002048022
0.0001397179
0.0001161061
0.0002052819
0.0001010456
0.0001013719
0.0001031488
0.0001010444
0.0001013792
0.0001598704
0.0001620017
0.0001618599
0.0002929677
0.0001010865
0.0001010135
0.000107708
0.0002930934
0.0001010773
0.0001010086
0.0001059585
0.0001018675
0.000101344
0.0003999254
0.0001066757
0.0001018312
0.0001013528
0.0001008529
0.0001328685
9.96703e-05
0.0001007679
0.0001330043
9.968671e-05
0.0001166334
0.0002049303
0.0001381676
0.0001159124
0.0002021765
0.0001010847
0.0001015072
0.0001030922
0.0001010316
0.0001013516
0.0001569412
0.0001621348
0.0001620901
0.0002931515
0.0001010642
0.0001010056
0.0001078535
0.0002952992
0.0001010504
0.0001010009
0.0001068093
0.0001017608
0.0001012374
0.0003987373
0.0001088739
0.0001018655
0.0001013637
0.0001010524
0.0001308979
0.0001005004
0.0003056074
0.0006621712
0.0001055172
0.0001428859
0.0001427597
0.0006246527
0.0006242025
0.000105002
0.0001396428
0.0001389913
0.000624911
0.0006263852
0.0001024866
0.0001105685
0.0001031506
0.0006383295
0.0006393837
0.0001025637
0.0001091255
0.0001025536
0.0006371788
0.0006337726
0.0001025291
0.0001087787
0.0001029631
0.0006353913
0.0006372874
0.0001183427
0.0002046473
0.0006979055
0.0006677557
0.0001700049
0.0001048643
0.0006534044
0.0006498041
0.0001073192
0.0006504966
0.000647589
0.0001022274
0.0001008764
0.0006348173
0.0006069802
0.0002948942
0.000102286
0.0001077607
0.0001028424
0.0006354567
0.0006342502
0.0001452808
0.0001521843
0.0001534938
0.000152222
0.0001510095
8.113321e-05
8.303652e-05
0.0001338539
0.0001024141
0.0001051867
0.0001024389
0.0006255971
0.0006304306
0.000162043
0.0001509901
0.000106716
0.0001550468
0.0003041507
0.0003144828
0.0001019902
0.0001042896
0.0001024714
0.0006245329
0.0006259541
0.0002977513
0.0001112498
0.0001121747
0.0001556706
0.0001501941
0.0006232027
0.0006297567
0.00011039
0.000128555
0.0001355549
0.0001709617
0.0003069732
0.0006261585
0.000609501
0.0001023658
0.0001041394
0.0001025768
0.0006309559
0.0006327511
0.000102065
0.0001036818
0.0001020028
0.000629038
0.0002935929
0.0006226304
0.0001021333
0.0001037096
0.0001026139
0.0002936438
0.000622147
0.0006293075
0.0001021689
0.0001034311
0.0001022453
0.0006298301
0.0006246935
0.0001454738
0.0003689932
0.0002425912
0.0003245407
0.000247191
0.0003230606
0.0002285272
0.0003209869
0.0002329668
0.0003203126
0.0002116521
0.0003196673
0.000216313
0.0003188026
0.0002001407
0.0003186154
0.0002037049
0.0003178669
0.0001886652
0.0003176294
0.0001921846
0.0003167734
0.0001798487
0.0003166994
0.0001827785
0.0003159678
0.0001729024
0.0003159996
0.0001754174
0.000315255
0.0001680585
0.0003154148
0.0001700897
0.000314734
0.0001643123
0.0003150354
0.0001659371
0.0003143423
0.0001292138
0.0003476586
0.000130109
0.0003424723
0.0001237517
0.0003376838
0.0001234641
0.0003340089
0.0001208453
0.0003340941
0.0001204514
0.0003312825
0.0001191272
0.000332061
0.0001186003
0.0003297396
0.000118226
0.0003309371
0.0001175667
0.0003289124
0.0001175935
0.0003303237
0.0001168766
0.0003283726
0.0006298195
0.0006156034
0.0003293346
0.0001307268
0.0001120747
0.0001284051
0.0001495586
0.0006300562
0.0001068639
0.0001043019
0.0001164795
0.0003296945
0.0001160668
0.0003274802
0.0003346735
0.0006401562
0.0003273498
0.0001220185
0.0001929185
0.0001144327
0.0003365101
0.00015875
0.0001771852
9.963693e-05
0.0002916017
0.0006298178
0.0001008818
0.0001016164
0.0001146124
0.0003282282
0.0001144418
0.0003259121
0.0003261813
0.000639072
0.0003241863
0.0001121318
0.0003298863
0.0001085841
0.0003247984
0.0001542243
9.223885e-05
9.2126e-05
0.0006373774
0.0006232171
0.00010418
0.0001021028
0.0001124524
0.0003263105
0.0001125131
0.0003240726
0.000323315