/*--------------------------------*- C++ -*----------------------------------*\
  =========                 |
  \\      /  F ield         | OpenFOAM: The Open Source CFD Toolbox
   \\    /   O peration     | Website:  https://openfoam.org
    \\  /    A nd           | Version:  7
     \\/     M anipulation  |
\*---------------------------------------------------------------------------*/
FoamFile
{
    version     2.0;
    format      ascii;
    class       volScalarField;
    location    "0.08";
    object      p;
}
// * * * * * * * * * * * * * * * * * * * * * * * * * * * * * * * * * * * * * //

dimensions      [0 2 -2 0 0 0 0];

internalField   nonuniform List<scalar> 
82743
(
0.5858432
0.530601
0.4854607
0.5271164
0.4078299
0.4407028
0.3759731
0.3506875
0.294833
0.6579829
0.6398861
0.5425243
0.690575
0.5097633
0.6800669
0.6029941
0.5567685
0.4756566
0.6894886
0.7363846
0.5542351
0.8169364
0.552155
0.8765606
0.7626598
0.7461773
0.5910306
0.7225707
0.8019864
0.5146755
0.91324
-0.030447
0.9961536
0.9985067
0.9098877
0.7561424
0.8746683
0.842747
0.3252911
0.837783
-0.0367226
1.170744
1.202406
1.216986
0.7402673
0.8601357
0.6173548
-0.06419326
-0.887967
-2.253381
0.3315069
1.12192
1.238567
0.8876735
1.273716
1.159418
0.8637457
0.06924259
-2.09669
0.7863022
1.587158
1.564342
1.414907
1.10324
0.7639408
0.680758
1.971095
2.000228
1.924621
1.808838
1.629596
0.5489365
2.257257
2.350675
2.318965
2.372782
2.190474
0.4690748
2.483558
2.63075
2.645809
2.750327
2.621883
0.3000867
2.636845
2.810111
2.852496
3.024761
2.969228
-0.1119953
2.701607
2.915986
2.989247
3.159044
3.2456
-0.858236
2.709666
2.865496
2.873727
3.112885
3.386625
2.672877
2.030146
0.1550303
0.430681
2.64623
2.780792
2.69386
2.807631
2.656304
2.28309
2.035541
1.097299
1.334273
2.575525
2.675395
2.54787
2.577666
2.414759
2.181085
1.971092
1.499954
1.538486
2.506234
2.610029
2.454725
2.505746
2.352836
2.18497
2.054637
1.735147
1.732513
2.445566
2.543646
2.364597
2.40673
2.253292
2.153285
2.031426
1.853549
1.817663
0.3827268
0.2900681
0.2231286
0.2153136
0.2038696
0.1951309
0.1871683
0.1732601
0.155862
0.8135989
0.5770796
0.4572389
0.4445966
0.4555547
0.3500114
0.4105614
0.3427864
0.3345346
0.2739029
0.8559469
0.5635756
0.6178111
0.5341331
0.6614718
0.4624397
0.6526543
0.5762201
0.5324136
0.4603018
0.8454023
0.6114447
0.719249
0.57703
0.8315288
0.4943522
0.9077191
0.757548
0.758998
0.5893844
0.9081881
0.6391835
0.7861813
0.5486601
0.9642065
-0.09210485
1.02284
0.9514895
0.899277
0.7623929
0.98894
0.7421395
0.8212586
0.4112836
0.7628471
-0.2923183
1.34878
1.322672
1.292391
0.7577554
1.11092
0.7437271
0.6387539
-0.09575872
-0.8278726
-2.197169
0.3242756
1.122588
1.214434
0.9443177
1.376619
1.152693
1.12928
0.7317506
-0.0850276
-3.518127
0.8462917
1.691971
1.471577
1.543671
1.344168
0.991283
0.6745855
2.022498
1.8544
1.992648
1.883913
1.774242
0.5897519
2.309606
2.152378
2.344276
2.295668
2.295053
0.4434964
2.547377
2.401006
2.625962
2.638027
2.669578
0.3482544
2.714936
2.561623
2.820056
2.828638
2.96125
-0.2547111
2.805434
2.649333
2.914746
3.016404
3.180907
-0.3358537
2.823156
2.627792
2.861884
2.906829
3.084565
3.310327
2.470027
1.710272
-1.447829
1.128989
2.780018
2.581855
2.762762
2.721116
2.822367
2.687219
2.250505
1.99748
1.055302
1.346344
2.721742
2.500889
2.659684
2.561686
2.581851
2.424265
2.178206
1.961682
1.483499
1.600205
2.659697
2.439736
2.591001
2.463062
2.502721
2.361254
2.182905
2.046111
1.737155
1.732645
2.602559
2.379635
2.51858
2.37279
2.406013
2.260065
2.157377
2.0345
1.857881
1.828633
0.5751009
0.7249013
0.3514371
0.4714577
0.2627517
0.3208876
0.2642759
0.2376242
0.2194932
0.840926
0.5701332
0.575598
0.359207
0.5428633
0.3131446
0.4339788
0.3529936
0.338264
0.2896827
1.093423
0.6156528
0.7994231
0.5989861
0.7714407
0.5080162
0.7030336
0.6100106
0.5678184
0.4901936
0.8369253
0.6348936
0.8215727
0.5321793
0.8641801
0.5124932
0.9202726
0.7481454
0.7508331
0.5867725
1.116646
0.611714
0.8805625
0.5187193
1.01626
-0.0453588
1.040824
0.9584355
0.9182699
0.7821208
1.083588
0.830001
0.9337496
0.3462211
0.8102318
-0.05042997
1.390551
1.284854
1.251651
0.783011
1.203856
0.7928044
0.6829742
-0.1229672
-0.7579341
-1.639889
0.4941197
1.181849
1.272758
0.9856566
1.475394
1.253751
1.193331
0.669128
-0.07948357
-3.605611
0.8290811
1.782898
1.516981
1.566056
1.404594
0.899015
0.7196365
2.114253
1.904439
2.017332
1.888882
1.84326
0.535788
0.5945545
2.393195
2.172763
2.365664
2.32685
2.436984
0.3247483
0.5084882
2.624295
2.395437
2.639491
2.620902
2.617823
0.1125639
0.4495414
2.779722
2.538638
2.846244
2.815954
3.012805
-0.4856698
2.865269
2.57797
2.978602
3.031816
3.23321
-0.1517457
2.942335
2.535454
2.931795
2.876971
3.104359
3.27686
2.458686
1.635683
-1.539907
0.4399371
2.832356
2.568865
2.825169
2.688063
2.833526
2.659093
2.227476
1.901106
1.114525
1.268657
2.822344
2.46694
2.736028
2.518993
2.600851
2.409448
2.18342
1.934607
1.541489
1.541909
2.741989
2.410414
2.675053
2.422168
2.530325
2.345818
2.182774
2.022933
1.74092
1.721486
2.684357
2.349931
2.612255
2.335992
2.417912
2.243591
2.154258
2.018843
1.861618
1.811686
0.578215
0.5382257
0.210149
0.2449412
0.1430175
0.1518584
0.1156229
0.1033926
0.08354345
0.7162185
0.5757789
0.2847627
0.3296908
0.4058951
0.308971
0.3980923
0.3271877
0.3278365
0.2678199
1.055161
0.6318586
0.7917487
0.5548902
0.7093048
0.4480192
0.6542388
0.5639672
0.5254307
0.4516329
0.8038274
0.653336
0.7918654
0.5603277
0.8577423
0.4840126
0.9452218
0.7618856
0.7684882
0.5938954
0.905506
0.6756952
0.8657813
0.5707833
1.03167
-0.1601884
1.050111
0.9457186
0.9178268
0.7859979
0.9823347
0.7729166
0.8951326
0.3998422
0.8439706
-0.3262899
1.527401
1.406192
1.281482
0.8092629
1.081643
0.7565158
0.6698622
-0.1139968
-0.8196501
-2.364502
0.669271
1.265021
1.332464
1.028656
1.390577
1.195206
1.135544
0.6525995
-0.06329981
-3.459863
0.8118942
1.699403
1.491901
1.515658
1.406712
0.8373433
0.7434109
2.032168
1.868883
1.957927
1.88425
1.797534
0.5410239
0.6127742
2.318396
2.151268
2.328324
2.335881
2.453209
0.252573
0.5486045
2.545513
2.384233
2.592908
2.624933
2.601917
0.09392773
0.5224093
2.703939
2.538878
2.817795
2.820657
3.067702
-0.6943977
2.783639
2.642087
2.915872
2.987587
3.261884
-0.2001828
2.790762
2.64256
2.874283
2.883232
3.11098
3.258694
2.446853
1.607336
-1.439503
0.3908296
2.740171
2.589683
2.785744
2.700345
2.82826
2.664471
2.225541
1.884826
1.140632
1.259838
2.693759
2.519624
2.685094
2.541671
2.600213
2.416719
2.188986
1.932403
1.546498
1.54948
2.619895
2.454653
2.627198
2.442073
2.523526
2.353217
2.185841
2.016789
1.750629
1.716811
2.568718
2.396537
2.559736
2.358042
2.426284
2.254397
2.165584
2.022584
1.871172
1.816438
0.6728017
0.8054026
0.3214236
0.4462182
0.2128132
0.2246603
0.1706326
0.1510325
0.1283375
0.8354845
0.7067514
0.6080625
0.3504311
0.5098936
0.2948742
0.3886042
0.3083202
0.3066926
0.2482843
1.191408
0.6899095
0.8579002
0.5824413
0.7830678
0.4678789
0.6835949
0.580807
0.5445245
0.4672189
0.8316712
0.6440403
0.8561599
0.5290287
0.8740432
0.4704704
0.9421034
0.7527432
0.759387
0.5842073
1.149999
0.6157042
0.904036
0.5162252
1.040736
-0.1587537
1.059005
0.9505553
0.9271099
0.7956281
1.073994
0.8358431
0.9521137
0.3316733
0.8363696
-0.3244643
1.528947
1.407463
1.272665
0.8100925
1.179235
0.7937552
0.6877015
-0.1460328
-0.8270381
-2.352354
0.6708422
1.294647
1.363784
1.05584
1.443827
1.254949
1.176037
0.623314
-0.06645559
-3.460843
0.8120365
1.738944
1.515198
1.537166
1.400662
0.8284888
0.7553114
2.063899
1.905882
1.978162
1.874099
1.788758
0.5454406
0.6167593
2.341619
2.164168
2.345588
2.328055
2.452361
0.2081086
0.5867947
2.56388
2.386142
2.610103
2.609863
2.590677
0.1047963
0.5670562
2.725429
2.521165
2.836615
2.808752
3.0916
-0.8037219
2.796828
2.587964
2.970941
3.013415
3.283142
-0.3012854
2.878638
2.524972
2.932181
2.886454
3.122182
3.278289
2.441226
1.594126
-1.452159
0.3575436
2.785083
2.554823
2.812473
2.679505
2.837955
2.653217
2.22085
1.86469
1.137968
1.235621
2.782413
2.487408
2.729123
2.520999
2.607616
2.406512
2.186968
1.92095
1.547946
1.535323
2.750143
2.372863
2.671365
2.416314
2.535134
2.341694
2.183002
2.006678
1.746926
1.709215
2.610957
2.346489
2.609711
2.332695
2.426388
2.241747
2.158132
2.012912
1.866608
1.808326
0.6898321
0.5934552
0.2257707
0.279464
0.1555732
0.1595344
0.118778
0.1063178
0.08429783
1.018918
0.5516995
0.2274785
0.3028813
0.3966326
0.3051708
0.3960407
0.3217343
0.3281009
0.2641059
1.096379
0.6517152
0.8190476
0.5553605
0.7251019
0.4549048
0.6561328
0.5584882
0.5240097
0.4465153
0.8182842
0.6637377
0.8260314
0.5557793
0.8697265
0.5396917
0.95679
0.7682021
0.7741829
0.5961953
0.9094569
0.6871159
0.8864386
0.5432393
1.012328
-0.05633703
1.058286
0.9417316
0.9235539
0.7915279
0.9915576
0.7775556
0.9130961
0.3853852
0.8051306
-0.0579136
1.462745
1.397612
1.269695
0.8135486
1.083498
0.7633416
0.6692287
-0.144156
-0.762495
-1.715321
0.5468498
1.276223
1.377733
1.067631
1.390459
1.210209
1.141316
0.6142727
-0.08578223
-3.495001
0.7996169
1.697188
1.490312
1.510967
1.394688
0.8149386
0.7594061
2.0322
1.878613
1.95376
1.874142
1.778501
0.55427
0.6276956
2.323021
2.150522
2.331869
2.329417
2.451313
0.1460504
0.6408291
2.550388
2.375137
2.598721
2.614017
2.593408
0.1087419
0.5982362
2.726322
2.515742
2.830379
2.810922
3.096893
-0.8329498
2.800684
2.59588
2.966565
3.011226
3.291589
-0.3290577
2.91176
2.504324
2.926758
2.885853
3.122744
3.330733
2.43736
1.58734
-1.471917
0.3405446
2.787904
2.563605
2.809566
2.681211
2.837812
2.651723
2.220861
1.860322
1.139206
1.231377
2.807707
2.455438
2.726211
2.519901
2.607922
2.406449
2.18855
1.919939
1.550492
1.534938
2.69878
2.416903
2.671216
2.423453
2.537462
2.342349
2.184858
2.004895
1.749582
1.707449
2.606888
2.377445
2.599061
2.339583
2.430965
2.244276
2.161903
2.013718
1.869937
1.808789
0.7028539
0.7672915
0.3035994
0.4154665
0.2027817
0.2125263
0.160676
0.1414893
0.1203093
0.9748491
0.5826428
0.5470454
0.3362966
0.4920383
0.2983028
0.3883009
0.3078582
0.3081721
0.247821
1.206372
0.6678208
0.8496861
0.5722347
0.7694191
0.4720738
0.6801434
0.5769752
0.541115
0.4624204
0.832549
0.6339526
0.85037
0.5307323
0.8673911
0.4959009
0.9460613
0.7557095
0.761926
0.5841371
1.14913
0.6108622
0.893026
0.5009061
1.000949
-0.1086078
1.064202
0.9562362
0.9267285
0.7954457
1.071683
0.8442494
0.9377434
0.3240715
0.7794323
-0.2225166
1.544806
1.421704
1.27201
0.8139675
1.167116
0.7848825
0.6722936
-0.1798464
-0.8178308
-1.974822
0.7941519
1.345941
1.377931
1.063644
1.435131
1.240738
1.159995
0.6004984
-0.1205098
-3.65671
0.8094277
1.735533
1.511437
1.528638
1.378507
0.8117898
0.7485181
2.056428
1.898545
1.96956
1.86898
1.78645
0.5415252
0.6166818
2.338323
2.156606
2.334509
2.319399
2.441885
0.2332811
0.551994
2.54865
2.380697
2.60229
2.611225
2.593253
0.08026517
0.533575
2.696381
2.507341
2.825716
2.807333
3.076997
-0.7981018
2.776327
2.620767
2.92452
2.990502
3.26994
-0.2849559
2.78507
2.631653
2.88149
2.879589
3.112127
3.320006
2.435387
1.586413
-1.47133
0.3486802
2.740899
2.580465
2.787503
2.692678
2.825658
2.653689
2.216262
1.858569
1.137264
1.229159
2.696094
2.516469
2.688601
2.533228
2.599899
2.409823
2.188361
1.921884
1.553001
1.534009
2.636234
2.437207
2.637604
2.435944
2.523607
2.344935
2.179569
2.004176
1.747826
1.705701
2.598655
2.379742
2.574577
2.348663
2.424597
2.245749
2.160536
2.01477
1.870391
1.808024
0.6667272
0.5146956
0.208673
0.2335585
0.1339334
0.1415471
0.1039065
0.09731115
0.07382886
0.7519833
0.6194221
0.364048
0.3616151
0.4323866
0.3258869
0.4185951
0.3337651
0.3553199
0.279214
1.084159
0.6603028
0.7677893
0.5424659
0.6982118
0.4478598
0.6539634
0.5504355
0.5232545
0.4347461
0.8148231
0.6667473
0.7750875
0.5573882
0.8623096
0.5537928
0.9564134
0.7661559
0.7721679
0.5989424
0.8949433
0.6592438
0.847635
0.5252935
0.9702694
-0.05124964
1.057477
0.9484053
0.9173935
0.7765221
0.9792553
0.7481283
0.8766239
0.3934893
0.7571867
-0.1018427
1.527387
1.383901
1.261124
0.8034168
1.081017
0.7490461
0.6558319
-0.1664108
-0.813265
-1.923687
0.7123473
1.328082
1.361582
1.037948
1.388521
1.194203
1.13566
0.6317445
-0.1359944
-3.681493
0.807337
1.703147
1.486604
1.524257
1.371378
0.8339555
0.7181808
2.03611
1.86205
1.974367
1.876611
1.819654
0.5322022
0.5946649
2.349931
2.154351
2.330892
2.307385
2.411558
0.3301266
0.4963255
2.55777
2.383838
2.608144
2.612622
2.596061
0.1108624
0.4519776
2.749902
2.507257
2.824474
2.797263
3.05655
-0.6046914
2.857932
2.581634
2.968496
3.021631
3.25543
-0.1293915
2.959863
2.508617
2.920085
2.871583
3.105601
3.322676
2.436927
1.588312
-1.475963
0.3770782
2.848669
2.59982
2.818649
2.684567
2.829551
2.645812
2.219792
1.865327
1.140581
1.239246
2.888383
2.425223
2.719123
2.507132
2.59722
2.401561
2.186366
1.923846
1.55602
1.531953
2.72647
2.431785
2.670602
2.425649
2.5309
2.337909
2.179923
2.005733
1.747237
1.706702
2.762834
2.312659
2.601531
2.324579
2.413482
2.237268
2.155409
2.012347
1.867992
1.806077
0.6278219
0.6783977
0.3094422
0.3940495
0.2278604
0.262
0.2075311
0.1966661
0.1740155
0.7747536
0.5916992
0.5014622
0.3576755
0.5028893
0.3054083
0.4114854
0.3257938
0.3230728
0.2701523
1.132229
0.6038662
0.755632
0.5620821
0.7420746
0.4845319
0.6837228
0.578786
0.5489011
0.4658715
0.8320479
0.6471238
0.7970308
0.535102
0.8549151
0.4983998
0.9156273
0.7476845
0.7576719
0.5831598
1.092305
0.5913508
0.859296
0.5048605
0.9709046
-0.0612697
1.027643
0.9503829
0.9075421
0.7725374
1.069185
0.8284125
0.912899
0.3306604
0.7555695
-0.1924866
1.380645
1.271901
1.276016
0.7655194
1.180466
0.7672137
0.6548653
-0.169842
-0.8061137
-2.127681
0.5873984
1.25929
1.308213
0.9986299
1.452198
1.221165
1.174273
0.6783148
-0.1141717
-3.714666
0.8272947
1.770487
1.497429
1.555204
1.308809
0.9457384
0.6802292
2.079966
1.883674
1.99028
1.882931
1.721566
0.5995061
2.378435
2.146542
2.345872
2.266661
2.281509
0.4519471
2.527066
2.355965
2.635092
2.621951
2.69656
0.3679629
2.372001
2.448166
2.845001
2.80163
3.051508
-0.482151
2.742752
2.622537
2.927688
3.016703
3.245097
0.01826751
2.810611
2.586572
2.863284
2.894718
3.102881
3.326343
2.445615
1.60539
-1.453198
0.4105765
2.784196
2.573014
2.764255
2.709521
2.814124
2.659604
2.21716
1.87436
1.128822
1.221514
2.730257
2.478226
2.663368
2.549808
2.580909
2.412408
2.190634
1.935158
1.564949
1.528936
2.665042
2.437988
2.596086
2.455945
2.501273
2.345105
2.173273
2.009775
1.745093
1.704839
2.610321
2.366927
2.530446
2.363482
2.408596
2.249056
2.157156
2.020475
1.872449
1.807594
0.3593477
0.1563394
0.139823
0.1384082
0.1142709
0.1135668
0.1049588
0.09814431
0.08513762
0.7119066
0.6865394
0.5325675
0.4741536
0.5314929
0.3710272
0.4508929
0.3638939
0.3790037
0.3047432
0.9449479
0.5959535
0.6293273
0.5144974
0.6847139
0.4728126
0.6601612
0.5544022
0.5303875
0.4396502
1.038876
0.6546226
0.7435118
0.5489576
0.8312038
0.5612423
0.8871345
0.7588879
0.7543306
0.5942847
1.029739
0.6367558
0.7995674
0.4735087
0.9059138
0.07744746
0.9759438
0.9750807
0.9075474
0.7517298
1.139896
0.763972
0.8298381
0.3530144
0.8197935
0.1050745
1.144411
1.152204
1.187244
0.7489154
1.249574
0.7705607
0.611809
-0.1020465
-0.8099131
-1.651206
0.09389593
1.07032
1.213546
0.9292214
1.536963
1.205785
1.139026
0.8322871
-0.1570131
-3.341172
0.7864735
1.836247
1.50461
1.553901
1.348289
1.028024
0.6945172
2.150313
1.88908
1.98655
1.916681
1.791838
0.5977667
2.46034
2.170326
2.340816
2.265553
2.30996
0.4688928
2.667623
2.431571
2.633439
2.618267
2.708917
0.2487908
2.694054
2.556579
2.811593
2.804272
3.065973
-0.2189102
2.710228
2.693733
2.901726
2.990834
3.226782
-1.387413
2.798705
2.674251
2.855266
2.85937
3.087704
3.278647
2.490186
1.669267
-1.24338
0.3273617
2.849715
2.644104
2.770964
2.68519
2.794573
2.634509
2.235727
1.914876
1.123677
1.207625
2.801131
2.551165
2.669943
2.537114
2.573891
2.403105
2.195882
1.952514
1.579436
1.502983
2.737063
2.507813
2.608056
2.450121
2.503615
2.337556
2.173614
2.016819
1.736734
1.702415
2.681652
2.433213
2.546612
2.354763
2.406095
2.243504
2.154433
2.020054
1.869014
1.803452
0.4036116
0.0356084
0.3820583
0.1827519
0.2886143
0.6080525
0.1123497
0.1037688
0.1080435
0.1909566
0.4949891
0.4970711
0.1007886
0.08612872
0.2550651
0.1603906
0.4148548
0.5747012
0.08241299
0.07002694
0.1489917
0.1343266
0.3896601
0.4496151
0.07087338
0.06732668
0.1739977
0.1641705
0.3260599
0.4396643
0.06979244
0.05672394
0.1465401
0.1466248
0.3183271
0.3687138
0.06359261
0.05887481
0.1715888
0.1566556
0.2903688
0.3288968
0.06214329
0.05369379
0.1615306
0.13209
0.2619469
0.2778807
0.05490199
0.04905603
0.1425105
0.1131638
0.2276969
0.04881688
0.1154034
0.436943
0.5337383
0.5290281
0.3530388
0.6329074
0.5263593
0.5826721
0.6014479
0.7214184
0.5620209
0.7201458
0.6427307
0.6657175
0.6682257
0.8636907
0.668645
0.7641997
0.7051262
0.7735695
0.741131
0.9099975
0.7613864
0.8431872
0.781082
0.8695437
0.8556363
0.9923391
0.8719944
0.9586829
0.8856146
1.02505
0.9632542
1.076718
1.008269
1.133458
1.001868
-4.181648
-3.013458
-1.833752
-3.105919
-4.77916
1.267791
1.040079
1.272208
1.0224
0.8224887
1.23674
1.024839
0.7914461
1.219988
1.266044
1.295894
1.224701
1.45558
1.307669
0.6159996
-3.309241
1.606721
1.638744
1.624703
1.601907
1.792857
1.675538
1.548955
1.919436
1.965514
1.948264
1.898092
2.1123
1.985806
2.127696
2.218157
2.248473
2.255251
2.207493
2.373551
2.272098
2.570043
2.464745
2.473702
2.524647
2.460743
2.576829
2.493316
2.920581
2.653812
2.616803
2.726501
2.647813
2.713798
2.633351
3.188276
2.740608
2.680304
2.845399
2.729572
2.772398
2.696067
3.625541
-2.061282
-1.762266
-4.107906
-1.837361
2.758193
2.671415
2.883373
2.748299
2.77036
2.694926
2.71505
2.627614
2.861552
2.711138
2.719785
2.653236
2.654362
2.564014
2.806034
2.657441
2.658391
2.593426
2.596935
2.504337
2.74275
2.599825
2.595661
2.529433
2.543509
2.449866
2.683133
2.545618
2.474799
0.04685738
1.035685
0.3256886
0.08158881
0.7268014
0.249424
-3.516063
-4.98849
-2.176032
-3.675095
-5.152116
1.054774
0.7889768
1.29691
1.072668
0.7778274
-3.527307
3.679739
3.532895
-5.357058
-1.236892
-5.831497
-1.337396
2.752911
2.880448
2.72716
3.333373
2.745008
2.90785
2.741437
0.0954035
1.375519
0.2535306
0.09179008
1.025106
0.288235
-2.951762
-4.975516
-1.952468
-3.286555
-5.008873
1.056174
0.7768014
1.31964
1.0759
0.7968623
-3.438129
3.522815
3.525181
-6.617891
-1.302534
-6.545608
-1.299804
2.742408
2.892109
2.735202
3.328074
2.735526
2.887784
2.728332
0.4642075
0.4526067
0.8195666
-1.43219
0.4766346
0.3807821
0.8087803
0.09232121
0.9297839
0.268658
0.09841759
0.9701642
0.2947196
-3.759798
-4.963695
-2.312524
-3.823925
-4.95896
1.091494
0.8025249
1.36214
1.095658
0.8164858
-3.413559
3.557676
3.517756
2.734986
2.889728
2.732016
3.326436
2.73301
2.888276
2.731101
0.4031787
0.3540993
0.8708508
-1.445564
0.4164962
0.3404311
0.8729033
0.09868468
1.296929
0.2744408
0.09925935
1.309713
0.3137963
-3.80508
-4.834566
-2.156002
-3.544454
-5.015322
1.104605
0.8266738
1.382965
1.104922
0.8322148
-3.462757
3.517899
3.502065
2.7323
2.88785
2.730937
3.338611
2.730594
2.884746
2.729211
0.3922922
0.3346744
0.8751716
-1.466756
0.386987
0.3287812
0.8641127
0.1030213
1.404485
0.3136723
0.09932633
1.055507
0.341144
-2.920062
-4.987281
-1.635695
-2.994603
-5.266291
1.108199
0.8315355
1.377646
1.113084
0.8333621
-3.679431
3.527675
3.516181
2.729934
2.884426
2.728403
3.275393
2.728743
2.885758
2.727988
0.3825069
0.3274084
0.8636197
-1.47377
0.380909
0.3299622
0.8693229
0.09119985
1.378987
0.3224761
0.08171763
0.9385406
0.2466204
-3.40289
-5.303061
-2.193978
-3.350129
-5.206103
1.120099
0.8357863
1.365684
1.119603
0.8296896
-3.723837
3.525349
3.556374
2.727516
2.884079
2.725674
3.251567
2.726953
2.884057
2.724663
0.3777486
0.3310548
0.867896
-1.474173
0.3829342
0.3323252
0.8665925
0.08882732
0.9007043
0.3253736
0.1026094
1.404801
0.1986114
-3.149505
-5.324452
-1.493252
-3.019116
-5.354372
1.113625
0.8243957
1.324217
1.090998
0.8062282
-3.886496
3.511796
3.508582
2.726638
2.880841
2.720176
3.271902
2.731673
2.883942
2.725405
0.3891057
0.3302902
0.8531321
-1.462275
0.3098491
0.3600567
0.8752227
0.09278638
0.7595041
0.2808368
0.1026696
1.318671
0.3242662
-3.338134
-5.360268
-2.271739
-3.448219
-5.007868
1.098788
0.8054775
1.24855
1.069397
0.8106648
-3.559076
3.526684
3.492584
2.732053
2.895555
2.729593
3.342098
2.742211
2.8707
2.713715
0.3205716
0.3794511
0.8460031
-1.341531
0.2629801
0.4547018
0.8071622
0.06995599
0.8593982
0.3200143
0.09493047
0.335952
0.1089426
0.1719913
0.1589445
0.2339137
0.2375961
0.09161897
0.1536546
0.1217807
0.2207235
0.21434
0.7001322
0.875984
0.7631727
0.7073388
0.6794872
0.6774136
0.8020468
0.7271368
0.7078753
0.7112654
0.9752823
1.078204
0.9951745
0.9936442
0.9430823
-2.716066
-4.79002
-1.691586
-2.801748
-3.265154
0.6808098
0.3815151
0.8676474
1.272653
1.144582
1.28771
1.025997
0.799526
1.233982
1.037641
0.7904484
1.192473
1.417332
1.306638
1.224973
1.263418
-2.453964
0.5555567
0.7375118
1.532121
1.629262
2.066981
2.721727
2.892521
2.675628
2.743484
2.686903
2.729616
2.67546
3.566376
3.59646
-4.745318
-1.776079
-2.33212
-2.050991
2.702917
2.763775
2.689724
2.729115
2.672578
2.757558
2.901496
2.740855
3.430266
2.750029
2.836436
2.706152
0.05518225
0.4520096
0.646866
-0.06775749
-0.9328078
0.7496382
0.6736165
2.699013
2.720392
2.654197
2.704721
2.627673
2.651039
2.646562
2.565232
2.660112
2.592712
2.551281
2.599962
2.595898
2.525406
2.632896
2.610409
2.500411
2.53933
2.53215
2.444721
2.543935
2.44048
0.2250627
0.2330254
-0.06297335
0.1298973
0.04483322
0.07253111
-0.003877238
0.2914372
0.1360223
0.1597545
0.01073044
0.2155124
0.07693828
0.1986951
0.0009894576
0.2401022
0.07440939
0.1807286
-0.005328712
0.187179
0.06479596
0.1716841
-0.001069464
0.2038113
0.06410557
0.159848
0.0002438238
0.183817
0.06448635
0.1489233
-0.004984966
0.1864264
0.05964444
0.1304543
-0.00928361
0.1736482
0.05197657
0.1189152
0.5282288
0.6233883
0.5357274
0.4467506
0.6644139
0.7579186
0.679075
0.5815351
0.7420005
0.8089544
0.751233
0.6518992
0.8139481
0.8694995
0.816441
0.7263575
0.9196336
0.9660998
0.9167694
0.8378067
1.056743
1.080996
1.045649
0.9764953
-1.303659
-0.4800746
-2.560547
-0.8636327
-1.245416
-0.7859173
-3.26233
0.8474977
-0.005656573
0.6663555
1.309889
1.30963
1.271399
1.244554
-1.278312
0.6666798
0.5168017
-0.136325
-1.618171
0.5958681
0.4496213
-0.3154164
-2.814151
-0.3656435
0.82277
0.6640775
0.7787198
0.6121317
1.648639
1.600553
1.592772
1.582744
0.838961
1.353392
1.488745
1.059799
0.7957979
1.415761
1.484095
1.169569
0.7637585
1.155554
0.698178
0.5739429
0.6741984
0.555192
1.978914
1.942475
1.926296
1.924549
1.681985
1.925176
2.079001
1.782937
1.664599
1.958604
2.074069
1.874478
1.635395
1.865156
0.6175092
0.4356282
0.6014416
0.3939894
2.273757
2.235493
2.226691
2.222388
2.237022
2.39853
2.528007
2.340774
2.222827
2.427262
2.533968
2.378232
2.195286
2.369049
0.4732902
0.1446944
0.4294881
0.2222336
2.516253
2.478512
2.477224
2.457699
2.657136
2.722321
2.880512
2.741437
2.642528
2.773125
2.889869
2.763944
2.621041
2.759622
0.132865
-0.1372029
0.150542
-0.168338
2.685486
2.669212
2.665126
2.624094
2.996112
2.957253
3.14788
3.053698
3.005296
3.02549
3.165161
3.07362
2.97052
3.071719
-0.4652849
-1.231203
-0.4199635
-0.9904036
2.779179
2.784175
2.776467
2.705505
3.248478
3.149412
3.381135
3.222939
3.268173
3.235502
3.556715
3.328547
3.25045
3.332356
-4.455231
-2.103121
-2.747774
-5.037293
2.798378
2.827196
2.82377
2.721019
2.768145
2.861601
2.726429
3.257465
2.772624
2.926514
2.758506
2.232381
2.41734
2.24345
2.510726
2.346207
2.449258
2.234257
0.8566536
1.854531
1.493575
1.764297
0.2592529
1.831742
1.410212
-0.7191162
0.9039562
0.3324351
-1.203127
-0.08483104
0.6383086
0.2490449
2.754161
2.799302
2.796558
2.68034
2.693967
2.740884
2.741417
2.621809
2.63093
2.676035
2.677816
2.55984
2.57351
2.614973
2.618191
2.502236
0.2977409
0.3078052
-1.2349
-0.7755945
-3.597054
-0.8123176
-1.200355
-0.8320364
-3.715918
1.294239
1.190051
1.355213
-1.717262
0.5732181
0.2252497
-0.0704932
-1.854822
0.5716157
0.2128137
-3.631256
0.641687
0.7132431
0.5761238
0.6085814
3.23743
3.164004
3.390075
3.234632
3.247395
3.215708
3.369434
3.215136
2.972488
2.948639
3.109506
3.217927
3.018896
2.969658
3.065223
3.042098
3.102719
3.290491
3.062852
3.038019
3.110671
0.2019754
1.801531
1.420842
1.66175
0.1178803
1.791926
1.418368
0.2893922
0.5725228
0.1191985
-1.476492
0.1667359
0.5228228
0.1952146
0.2240444
0.2687686
-1.141671
-0.8571544
-3.673575
-0.7726604
-1.210314
-0.8439567
-3.578762
1.34461
1.212582
1.39356
-1.813106
0.5367888
0.1968329
-0.05037377
-1.819422
0.5371708
0.1941406
-3.458613
0.584737
0.6481219
0.6013012
0.6404008
3.241004
3.214465
3.372395
3.254914
3.263783
3.228655
3.37822
3.215994
3.033747
2.957883
3.111166
3.214949
3.035285
2.952481
3.064246
3.039995
3.113231
3.330239
3.064194
3.037359
3.111568
-0.1877509
1.769736
1.487312
1.617061
-0.2810641
1.7484
1.471374
-0.9834859
-3.835505
0.3925477
-1.437186
-1.12353
-3.85369
0.3787545
0.2698569
0.262826
-1.303078
-0.8342365
-3.638404
-0.8292491
-1.276693
-0.8332387
-3.537525
1.412506
1.289064
1.432829
-1.81859
0.5097366
0.1780327
-0.06137603
-1.81008
0.5094751
0.1772789
-3.403884
0.6056972
0.6406023
0.6249786
0.6520279
3.261266
3.229991
3.376551
3.264849
3.269938
3.232182
3.380843
-6.933283
-1.426294
-6.542048
-1.355557
3.213094
3.040555
2.952701
3.111838
3.21397
3.042057
2.954266
3.062986
3.03591
3.108725
3.329209
3.063481
3.036006
3.108707
-0.2982499
1.742283
1.48921
1.599816
-0.3100971
1.73461
1.486143
-0.9472996
-3.859609
0.3032506
-1.442863
-0.940016
-3.886339
0.2982891
0.2518291
0.260379
-1.289665
-0.8392986
-3.574299
-0.8028156
-1.22783
-0.8583278
-3.638265
1.434647
1.290011
1.441994
-1.793041
0.5008698
0.1639059
-0.07392696
-1.868925
0.4950888
0.1535248
-3.454094
0.6115293
0.6446496
0.6153522
0.651526
3.28289
3.249191
3.385483
3.287281
3.282844
3.247531
3.387151
-6.529284
-1.373536
-6.480871
-1.404543
3.217212
3.054554
2.955203
3.122073
3.217043
3.057185
2.954509
3.058553
3.035932
3.108032
3.325192
3.057343
3.034554
3.108336
-0.3159257
1.729914
1.486566
1.589936
-0.3241595
1.724503
1.479358
-0.9731863
-3.896262
0.2893775
-1.460727
-0.9637917
-3.917557
0.2834897
0.2670634
0.2537282
-1.149713
-0.8958118
-3.654647
-0.7760696
-1.144445
-0.9424952
-3.833433
1.430087
1.307795
1.447247
-1.876812
0.4794135
0.1348623
-0.1120591
-1.980413
0.4649287
0.1158413
-3.579702
0.6196897
0.6490903
0.6260509
0.6932049
3.285128
3.252362
3.387616
3.274698
3.278763
3.242059
3.384467
-6.427235
-1.403878
-6.355074
-1.392457
3.216616
3.058072
2.954236
3.119677
3.215712
3.052637
2.953437
3.055695
3.029415
3.108503
3.266825
3.054258
3.030603
3.106606
-0.3273856
1.722541
1.478468
1.587241
-0.3285402
1.724135
1.480463
-0.9821794
-3.922433
0.280293
-1.472848
-0.9781937
-3.928074
0.2776175
0.2714778
0.2685583
-1.234692
-0.9607925
-3.847855
-0.8262662
-1.272886
-0.9601092
-3.830528
1.463131
1.319639
1.460993
-1.995028
0.4634539
0.1054846
-0.1322309
-1.96088
0.4526067
0.1017918
-3.698331
0.633016
0.6555052
0.626374
0.6562356
3.270733
3.236822
3.380876
3.257955
3.256463
3.229286
3.373808
-6.607291
-1.422677
-6.634589
-1.402184
3.212014
3.042806
2.95134
3.108699
3.208631
3.039331
2.948543
3.055057
3.031424
3.103978
3.258805
3.056661
3.031198
3.103255
-0.3272124
1.722486
1.479825
1.587626
-0.3292958
1.723814
1.478677
-0.9792552
-3.924602
0.2836434
-1.464001
-0.9800922
-3.912654
0.2801687
0.1997931
0.223655
-1.203284
-0.9840958
-3.862959
-0.783364
-1.148017
-0.988173
-4.010689
1.448855
1.306429
1.418214
-2.004678
0.4687515
0.1071258
-0.1565371
-1.990238
0.4751663
0.1126754
-3.784987
0.6163771
0.6460021
0.6190639
0.6592234
3.261331
3.227251
3.374919
3.243572
3.248553
3.218012
3.3704
-6.797244
-1.450348
-7.331273
-1.610214
3.209507
3.031616
2.94658
3.100251
3.210253
3.030982
2.951693
3.054984
3.029669
3.101821
3.257023
3.055421
3.028688
3.102361
-0.3284961
1.723227
1.470235
1.600017
-0.3210438
1.738353
1.490721
-0.9781262
-3.922333
0.2795722
-1.480739
-0.9716017
-3.941976
0.2674785
0.2529038
0.2694321
-1.205615
-0.9112259
-3.856002
-0.8227267
-1.258858
-0.8222225
-3.629296
1.3911
1.204891
1.325236
-1.991843
0.5255344
0.1481606
-0.1069963
-1.747868
0.5445831
0.1795349
-3.739002
0.6000443
0.6266482
0.6477105
0.6886038
3.263937
3.214614
3.36705
3.191183
3.244917
3.160019
3.362349
-7.001046
-1.614712
-6.504833
-1.638762
3.21127
3.015501
2.959794
3.074852
3.211767
2.96953
2.941235
3.057909
3.026074
3.104718
3.270686
3.053407
3.030546
3.107582
-0.3075035
1.745629
1.487029
1.64523
-0.2142033
1.756249
1.490234
-0.9514606
-3.919801
0.297088
-1.427612
-0.9676957
-3.864275
0.2864996
0.2606396
0.2954678
0.1262357
0.1254313
0.1542338
0.2045275
0.1031599
0.239043
0.3540954
0.141967
0.2734077
0.2604438
0.1059968
0.4073044
0.4082479
0.1384329
0.2447129
0.2326459
0.3455897
0.3879939
0.1240258
0.2396778
0.2244802
0.1036011
0.3554402
0.368639
0.1130248
0.1897732
0.2143155
0.265658
0.2997771
0.1177122
0.2160428
0.1875349
0.27849
0.2802457
0.1151238
0.1915708
0.3852199
0.7688561
0.5366602
0.3745336
0.5894005
0.7895937
0.8504965
0.8032168
0.8034978
0.7800292
0.745248
0.8938057
0.9413416
0.8947474
1.005577
0.9110008
0.8262053
-1.152005
-0.826567
-3.329131
-0.7963946
-1.145255
-0.550512
-2.748672
-1.659545
0.5756482
0.4125957
0.04554367
-1.403848
0.628507
0.4054324
-3.065173
0.7403461
0.6422558
0.7768067
0.6853515
1.508659
1.742549
1.661046
1.553615
1.588411
0.7690073
1.423538
1.468909
1.05642
0.7982756
1.364441
1.455392
0.7087756
0.5886363
0.6711532
0.5882645
1.838721
2.083819
1.970417
1.844156
1.887077
1.645818
1.993015
2.034221
1.778844
1.654153
1.931654
2.068548
0.6098979
0.4373446
0.5577418
0.4569721
2.125757
2.388695
2.27281
2.309743
2.33475
2.230187
2.377646
2.42247
2.462162
2.21713
2.20759
2.287528
2.49961
0.4402186
0.1720757
0.4032893
0.2126393
2.384181
2.630935
2.52038
2.496541
2.410648
2.581105
2.436736
2.631612
2.743782
2.865892
2.780479
2.635244
2.725429
2.849461
0.1200894
-0.1896651
0.1275068
-0.2407419
2.644772
2.670513
2.632312
2.713939
2.673948
2.59814
2.96392
-0.5342829
-1.207833
-0.4346807
-1.452842
3.247364
3.191915
3.371759
3.18823
3.256045
3.123857
3.36518
3.224814
2.934276
2.952087
3.086629
3.224937
2.982305
2.943786
3.061677
3.036752
3.125159
3.363787
3.070074
3.042309
3.116453
2.320981
2.422126
2.237039
2.652084