/*--------------------------------*- C++ -*----------------------------------*\
  =========                 |
  \\      /  F ield         | OpenFOAM: The Open Source CFD Toolbox
   \\    /   O peration     | Website:  https://openfoam.org
    \\  /    A nd           | Version:  7
     \\/     M anipulation  |
\*---------------------------------------------------------------------------*/
FoamFile
{
    version     2.0;
    format      ascii;
    class       volScalarField;
    location    "0.01";
    object      epsilon;
}
// * * * * * * * * * * * * * * * * * * * * * * * * * * * * * * * * * * * * * //

dimensions      [0 2 -3 0 0 0 0];

internalField   nonuniform List<scalar> 
73374
(
0.004658479
0.0009456378
0.0009643171
0.0009705927
0.0009720859
0.0009725054
0.0009726563
0.0009727039
0.0009727012
0.0009726589
0.0009725652
0.004623089
0.0009702674
0.001006598
0.001018403
0.001021571
0.001022511
0.001022852
0.001022973
0.001022983
0.001022907
0.001022743
0.004620887
0.0009782577
0.001020149
0.001035231
0.001039513
0.001040863
0.001041365
0.001041549
0.001041572
0.00104147
0.00104125
0.004620219
0.0009802044
0.001023814
0.001040019
0.001044882
0.001046494
0.001047121
0.00104736
0.0010474
0.001047291
0.001047042
0.004619035
0.0009807633
0.001024918
0.001041543
0.001046675
0.00104844
0.001049148
0.001049424
0.001049482
0.001049378
0.001049123
0.004617857
0.0009809431
0.001025297
0.001042097
0.001047357
0.001049202
0.001049954
0.001050253
0.001050323
0.001050226
0.001049979
0.004616679
0.0009809909
0.001025424
0.001042297
0.001047614
0.001049495
0.001050263
0.001050563
0.00105063
0.00105053
0.001050285
0.004615502
0.0009809877
0.001025451
0.001042352
0.001047686
0.001049572
0.001050331
0.001050607
0.001050637
0.001050504
0.001050235
0.004614337
0.0009809633
0.001025434
0.00104234
0.001047671
0.001049534
0.001050247
0.001050446
0.001050366
0.001050118
0.00104976
0.004613188
0.000980929
0.001025394
0.001042291
0.001047598
0.001049405
0.001050006
0.001050004
0.001049622
0.001049028
0.001048397
0.004612056
0.0009808905
0.001025343
0.001042217
0.001047474
0.001049173
0.001049482
0.001048844
0.001047471
0.001045778
0.001044252
0.004610942
0.0009808468
0.00102528
0.00104212
0.001047301
0.00104881
0.001048494
0.001045385
0.0010402
0.001035189
0.001030463
0.004609841
0.0009807999
0.001025208
0.001042003
0.001047081
0.001048312
0.001047053
0.001040209
0.001016729
0.001010843
0.000989848
0.004608742
0.0009807444
0.001025118
0.001041862
0.001046831
0.00104776
0.001045514
0.001035642
0.001011744
0.002231357
0.002159153
0.004607622
0.0009806734
0.001025002
0.001041691
0.001046567
0.001047273
0.001044308
0.001031747
0.0009933767
0.002168278
0.004437858
0.004606452
0.0009805751
0.001024841
0.00104147
0.001046278
0.001046876
0.001043574
0.001029632
0.000991259
0.002151723
0.004317508
0.004605207
0.0009804394
0.001024633
0.001041198
0.001045959
0.001046518
0.001043136
0.001029108
0.0009910806
0.002152486
0.004319521
0.004603847
0.0009802719
0.001024407
0.001040922
0.001045659
0.001046231
0.001042931
0.001028925
0.0009901868
0.002151112
0.004322207
0.004602326
0.0009801084
0.001024236
0.001040741
0.001045502
0.001046174
0.00104324
0.001030693
0.0009922133
0.002154144
0.004328408
0.004600615
0.00219406
0.002052815
0.01228359
0.01227526
0.01231856
0.01229593
0.01228796
0.01227996
0.01227519
0.01227353
0.0122735
0.01227395
0.002070687
0.01226306
0.01225551
0.01225239
0.01225105
0.0122508
0.01225095
0.01225087
0.01225081
0.01225068
0.0122506
0.0009780748
0.01225624
0.01226029
0.01226051
0.01226034
0.01226046
0.01226043
0.01226055
0.01226071
0.01226084
0.01226095
0.0009924109
0.0122587
0.01226314
0.01226277
0.01226256
0.01226254
0.01226252
0.01226257
0.01226267
0.01226276
0.01226284
0.0009976698
0.01226018
0.01226368
0.01226387
0.01226383
0.01226385
0.01226385
0.01226388
0.01226392
0.01226396
0.012264
0.0009988043
0.01225997
0.01226385
0.012264
0.01226396
0.01226399
0.012264
0.01226403
0.01226406
0.0122641
0.01226415
0.0009990561
0.01226003
0.0122639
0.01226411
0.01226411
0.01226415
0.01226417
0.0122642
0.01226423
0.01226427
0.01226432
0.0009991133
0.01226003
0.01226393
0.01226414
0.01226416
0.0122642
0.01226423
0.01226426
0.0122643
0.01226434
0.0122644
0.000999111
0.01226005
0.01226394
0.01226416
0.01226418
0.01226423
0.01226426
0.0122643
0.01226434
0.0122644
0.01226448
0.000999087
0.01226009
0.01226394
0.01226416
0.01226418
0.01226423
0.01226426
0.01226431
0.01226436
0.01226443
0.01226453
0.000999055
0.01226013
0.01226393
0.01226415
0.01226418
0.01226423
0.01226427
0.0122643
0.01226436
0.01226444
0.01226457
0.0009990215
0.01226018
0.01226393
0.01226414
0.01226416
0.01226421
0.01226424
0.01226427
0.01226433
0.01226444
0.01226468
0.0009989864
0.01226021
0.01226392
0.01226413
0.01226415
0.0122642
0.01226421
0.01226423
0.0122643
0.01226455
0.0122649
0.0009989493
0.0122602
0.01226391
0.01226411
0.01226412
0.01226416
0.01226417
0.01226419
0.01226433
0.01226452
0.01226604
0.0009989071
0.01226013
0.0122639
0.01226411
0.01226411
0.01226414
0.01226411
0.01226415
0.01226415
0.01226537
0.01226551
0.0009988535
0.01225999
0.01226389
0.0122641
0.01226411
0.01226414
0.01226413
0.01226414
0.01226426
0.01226508
0.01226798
0.0009987829
0.01225976
0.01226388
0.01226411
0.01226413
0.01226416
0.01226416
0.01226421
0.01226435
0.01226544
0.01225691
0.0009986934
0.01225945
0.01226387
0.01226413
0.01226415
0.01226421
0.01226424
0.01226433
0.0122646
0.01226551
0.01226525
0.0009985951
0.01225907
0.01226386
0.01226414
0.01226418
0.01226428
0.01226434
0.01226457
0.0122653
0.01226749
0.01225036
0.0009985131
0.01225867
0.01226384
0.01226414
0.0122642
0.01226436
0.01226443
0.01226486
0.01226554
0.01226697
0.01228121
0.01227358
0.01228719
0.01226967
0.01227003
0.01227002
0.01226937
0.0122692
0.01226918
0.01226895
0.01226817
0.01226761
0.0020888
0.01226634
0.01226758
0.01226589
0.01226532
0.01226549
0.01226553
0.01226552
0.01226521
0.01226504
0.01226499
0.0009952749
0.0122567
0.0122651
0.01226521
0.01226513
0.01226493
0.0122649
0.01226486
0.01226486
0.01226485
0.01226486
0.001022529
0.01225714
0.01226473
0.01226473
0.01226474
0.01226476
0.01226477
0.01226478
0.0122648
0.01226481
0.01226482
0.001031417
0.01226074
0.01226476
0.01226475
0.01226476
0.01226478
0.01226479
0.01226481
0.01226483
0.01226484
0.01226486
0.001033571
0.01226059
0.01226472
0.01226473
0.01226474
0.01226476
0.01226477
0.01226479
0.01226481
0.01226484
0.01226486
0.001034104
0.01226082
0.01226472
0.01226474
0.01226475
0.01226477
0.01226479
0.01226481
0.01226483
0.01226486
0.0122649
0.001034254
0.01226082
0.01226471
0.01226472
0.01226474
0.01226476
0.01226478
0.0122648
0.01226483
0.01226487
0.01226492
0.001034283
0.01226085
0.0122647
0.01226471
0.01226473
0.01226475
0.01226477
0.0122648
0.01226483
0.01226488
0.01226495
0.001034267
0.01226089
0.01226468
0.0122647
0.01226471
0.01226473
0.01226475
0.01226479
0.01226483
0.0122649
0.01226499
0.001034237
0.01226092
0.01226467
0.01226468
0.01226469
0.01226471
0.01226473
0.01226477
0.01226482
0.01226491
0.01226504
0.001034207
0.01226096
0.01226465
0.01226466
0.01226467
0.01226469
0.01226471
0.01226474
0.0122648
0.01226491
0.01226516
0.001034178
0.01226098
0.01226464
0.01226464
0.01226465
0.01226466
0.01226467
0.0122647
0.01226477
0.01226499
0.01226531
0.001034144
0.01226097
0.01226462
0.01226463
0.01226463
0.01226463
0.01226463
0.01226465
0.01226475
0.01226492
0.01226639
0.001034099
0.01226091
0.01226461
0.01226461
0.01226461
0.0122646
0.01226459
0.0122646
0.01226463
0.01226534
0.01226543
0.001034034
0.01226078
0.01226461
0.01226461
0.01226461
0.0122646
0.01226459
0.0122646
0.01226471
0.01226507
0.01226756
0.001033938
0.01226057
0.01226461
0.01226462
0.01226462
0.01226462
0.01226463
0.01226467
0.01226482
0.01226554
0.01225677
0.001033812
0.01226028
0.01226461
0.01226463
0.01226465
0.01226467
0.01226471
0.01226478
0.01226511
0.01226533
0.01226444
0.001033669
0.01225995
0.01226463
0.01226465
0.01226469
0.01226474
0.01226483
0.01226503
0.01226573
0.0122676
0.01224347
0.001033548
0.01225959
0.01226464
0.01226468
0.01226473
0.01226482
0.01226495
0.01226535
0.01226596
0.01226721
0.01227774
0.0122728
0.01230522
0.01227083
0.01227086
0.01227162
0.01227122
0.01226857
0.0122684
0.01226813
0.01226753
0.01226756
0.002092069
0.01226691
0.01226737
0.0122672
0.01226657
0.01226728
0.01226604
0.01226569
0.01226565
0.01226536
0.01226537
0.001001831
0.01225667
0.01226594
0.01226488
0.01226477
0.01226483
0.01226481
0.01226483
0.01226483
0.01226484
0.01226484
0.001032812
0.01225663
0.01226473
0.01226473
0.01226474
0.01226477
0.01226477
0.01226478
0.01226479
0.01226481
0.01226482
0.001043906
0.01226081
0.01226475
0.01226474
0.01226475
0.01226476
0.01226478
0.0122648
0.01226482
0.01226484
0.01226486
0.001046668
0.01226061
0.01226472
0.01226472
0.01226473
0.01226475
0.01226477
0.01226479
0.01226481
0.01226483
0.01226486
0.001047398
0.01226089
0.01226473
0.01226474
0.01226475
0.01226477
0.01226479
0.01226481
0.01226483
0.01226486
0.0122649
0.001047623
0.0122609
0.01226471
0.01226472
0.01226474
0.01226476
0.01226478
0.0122648
0.01226483
0.01226487
0.01226492
0.001047671
0.01226092
0.0122647
0.01226471
0.01226473
0.01226475
0.01226477
0.0122648
0.01226483
0.01226488
0.01226495
0.001047649
0.01226095
0.01226468
0.0122647
0.01226471
0.01226473
0.01226475
0.01226478
0.01226483
0.01226489
0.01226499
0.001047618
0.012261
0.01226467
0.01226468
0.01226469
0.01226471
0.01226473
0.01226477
0.01226482
0.01226491
0.01226504
0.001047604
0.01226104
0.01226465
0.01226466
0.01226467
0.01226469
0.01226471
0.01226474
0.0122648
0.0122649
0.01226515
0.001047602
0.01226107
0.01226464
0.01226464
0.01226465
0.01226466
0.01226467
0.0122647
0.01226477
0.01226499
0.01226531
0.001047594
0.01226104
0.01226462
0.01226463
0.01226463
0.01226463
0.01226463
0.01226465
0.01226476
0.01226493
0.01226637
0.001047564
0.01226099
0.01226461
0.01226461
0.01226461
0.0122646
0.0122646
0.0122646
0.01226462
0.01226544
0.01226545
0.001047497
0.01226086
0.01226461
0.01226461
0.01226461
0.0122646
0.01226459
0.0122646
0.01226472
0.0122651
0.01226761
0.001047386
0.01226065
0.01226461
0.01226461
0.01226462
0.01226462
0.01226463
0.01226467
0.01226483
0.01226551
0.01225663
0.001047227
0.01226037
0.01226461
0.01226463
0.01226465
0.01226467
0.01226471
0.01226478
0.0122651
0.01226531
0.0122644
0.001047045
0.01226004
0.01226463
0.01226465
0.01226469
0.01226474
0.01226484
0.01226503
0.01226574
0.01226763
0.01224345
0.001046888
0.01225969
0.01226464
0.01226468
0.01226473
0.01226482
0.01226496
0.01226534
0.01226597
0.01226728
0.01227778
0.01227285
0.01231799
0.01226993
0.0122737
0.01227223
0.01226807
0.01226901
0.01226823
0.01226746
0.01226815
0.01226748
0.002092683
0.01226691
0.01226625
0.01226665
0.01226728
0.01226498
0.0122655
0.0122651
0.01226495
0.012265
0.01226501
0.001003183
0.0122564
0.01226574
0.01226498
0.01226478
0.01226505
0.01226481
0.01226484
0.01226483
0.01226484
0.01226484
0.001035047
0.01225627
0.01226472
0.01226471
0.01226475
0.01226475
0.01226476
0.01226477
0.01226478
0.01226479
0.01226481
0.00104668
0.01226072
0.01226474
0.01226473
0.01226474
0.01226477
0.01226478
0.0122648
0.01226482
0.01226483
0.01226486
0.001049731
0.0122605
0.01226471
0.01226471
0.01226473
0.01226475
0.01226477
0.01226479
0.01226481
0.01226483
0.01226486
0.001050628
0.01226088
0.01226472
0.01226474
0.01226475
0.01226477
0.01226479
0.01226481
0.01226483
0.01226486
0.0122649
0.001050926
0.01226087
0.01226471
0.01226472
0.01226474
0.01226476
0.01226478
0.0122648
0.01226483
0.01226487
0.01226492
0.001050945
0.0122609
0.0122647
0.01226471
0.01226473
0.01226475
0.01226477
0.0122648
0.01226483
0.01226488
0.01226495
0.001050852
0.01226097
0.01226468
0.0122647
0.01226471
0.01226473
0.01226475
0.01226478
0.01226483
0.01226489
0.01226499
0.001050793
0.01226099
0.01226467
0.01226468
0.01226469
0.01226471
0.01226473
0.01226477
0.01226482
0.01226491
0.01226504
0.001050833
0.012261
0.01226465
0.01226466
0.01226467
0.01226469
0.0122647
0.01226474
0.0122648
0.0122649
0.01226515
0.00105094
0.01226106
0.01226464
0.01226464
0.01226465
0.01226466
0.01226467
0.0122647
0.01226476
0.01226498
0.01226531
0.001051036
0.01226102
0.01226462
0.01226463
0.01226463
0.01226463
0.01226463
0.01226465
0.01226475
0.01226492
0.01226636
0.001051064
0.01226097
0.01226461
0.01226461
0.01226461
0.0122646
0.01226459
0.0122646
0.01226461
0.01226541
0.0122654
0.00105102
0.01226084
0.0122646
0.01226461
0.01226461
0.0122646
0.01226459
0.0122646
0.01226472
0.01226509
0.01226762
0.001050903
0.01226064
0.01226461
0.01226461
0.01226462
0.01226462
0.01226463
0.01226467
0.01226482
0.01226552
0.01225666
0.00105072
0.01226036
0.01226461
0.01226463
0.01226465
0.01226467
0.01226471
0.01226478
0.0122651
0.01226532
0.01226444
0.001050505
0.01226003
0.01226463
0.01226465
0.01226469
0.01226474
0.01226484
0.01226503
0.01226574
0.0122676
0.01224365
0.001050318
0.01225967
0.01226464
0.01226468
0.01226473
0.01226482
0.01226496
0.01226535
0.01226596
0.01226723
0.01227779
0.01227282
0.01232269
0.01227017
0.0122682
0.0122684
0.01226842
0.01226736
0.0122693
0.01226851
0.01226803
0.01226737
0.00209289
0.0122673
0.01226577
0.01226675
0.01226506
0.0122654
0.01226497
0.01226555
0.012265
0.01226511
0.01226498
0.001002323
0.01225667
0.01226574
0.01226488
0.01226551
0.01226479
0.01226491
0.0122648
0.01226484
0.01226483
0.01226485
0.001033616
0.0122563
0.01226472
0.01226475
0.01226474
0.01226475
0.01226476
0.01226477
0.01226478
0.01226479
0.01226481
0.001045129
0.01226071
0.01226474
0.01226472
0.01226476
0.01226477
0.01226479
0.0122648
0.01226481
0.01226483
0.01226486
0.001048418
0.01226056
0.01226471
0.01226471
0.01226473
0.01226475
0.01226477
0.01226478
0.0122648
0.01226483
0.01226486
0.001049662
0.01226088
0.01226472
0.01226474
0.01226475
0.01226477
0.01226479
0.01226481
0.01226483
0.01226486
0.0122649
0.001050114
0.01226087
0.01226471
0.01226472
0.01226474
0.01226476
0.01226478
0.0122648
0.01226483
0.01226487
0.01226492
0.001049953
0.01226089
0.0122647
0.01226471
0.01226473
0.01226475
0.01226477
0.0122648
0.01226483
0.01226488
0.01226495
0.001049563
0.0122609
0.01226468
0.0122647
0.01226471
0.01226473
0.01226475
0.01226478
0.01226483
0.01226489
0.01226499
0.001049391
0.01226098
0.01226467
0.01226468
0.01226469
0.01226471
0.01226473
0.01226477
0.01226482
0.01226491
0.01226504
0.001049603
0.01226104
0.01226465
0.01226466
0.01226467
0.01226469
0.0122647
0.01226474
0.0122648
0.0122649
0.01226515
0.001050136
0.01226107
0.01226464
0.01226464
0.01226465
0.01226466
0.01226467
0.0122647
0.01226476
0.01226499
0.01226531
0.001050718
0.012261
0.01226462
0.01226463
0.01226463
0.01226463
0.01226463
0.01226465
0.01226475
0.01226492
0.01226636
0.001051069
0.01226098
0.01226461
0.01226461
0.01226461
0.0122646
0.01226459
0.0122646
0.01226461
0.01226542
0.01226539
0.001051145
0.01226084
0.0122646
0.01226461
0.01226461
0.0122646
0.01226459
0.0122646
0.01226472
0.01226509
0.01226761
0.001051035
0.01226064
0.01226461
0.01226461
0.01226462
0.01226462
0.01226463
0.01226467
0.01226483
0.01226549
0.01225672
0.001050825
0.01226037
0.01226461
0.01226463
0.01226465
0.01226467
0.01226471
0.01226478
0.01226509
0.01226544
0.01226475
0.001050573
0.01226003
0.01226463
0.01226465
0.01226469
0.01226474
0.01226484
0.01226502
0.01226573
0.01226729
0.01224266
0.001050364
0.01225968
0.01226464
0.01226468
0.01226473
0.01226482
0.01226496
0.01226534
0.01226597
0.01226702
0.01227813
0.001050252
0.01227275
0.01231578
0.01227028
0.0122715
0.0122721
0.01226805
0.01226893
0.0122681
0.01226741
0.01226833
0.01226766
0.002091891
0.01226707
0.01226606
0.01226633
0.01226709
0.01226497
0.01226559
0.01226517
0.01226501
0.01226559
0.01226535
0.0009966857
0.01225714
0.0122657
0.01226495
0.01226483
0.01226496
0.01226481
0.01226483
0.01226483
0.01226482
0.01226487
0.001024781
0.01225667
0.01226473
0.01226472
0.01226475
0.01226476
0.01226477
0.01226478
0.01226479
0.01226481
0.01226483
0.001035472
0.01226047
0.01226474
0.01226473
0.01226475
0.01226477
0.01226479
0.0122648
0.01226482
0.01226483
0.01226486
0.001039835
0.01225965
0.01226471
0.01226471
0.01226473
0.01226475
0.01226477
0.01226479
0.01226481
0.01226483
0.01226486
0.001042078
0.01226045
0.01226473
0.01226474
0.01226476
0.01226477
0.01226479
0.01226481
0.01226483
0.01226486
0.0122649
0.001043138
0.01226088
0.01226471
0.01226472
0.01226474
0.01226476
0.01226478
0.0122648
0.01226483
0.01226487
0.01226492
0.001042176
0.01226126
0.01226469
0.01226471
0.01226473
0.01226475
0.01226477
0.0122648
0.01226483
0.01226488
0.01226495
0.001040778
0.01226165
0.01226468
0.0122647
0.01226471
0.01226473
0.01226475
0.01226478
0.01226483
0.01226489
0.01226499
0.001040274
0.01226097
0.01226467
0.01226468
0.01226469
0.01226471
0.01226473
0.01226477
0.01226482
0.01226491
0.01226504
0.001040988
0.0122603
0.01226465
0.01226466
0.01226467
0.01226469
0.0122647
0.01226474
0.0122648
0.0122649
0.01226515
0.001042804
0.0122607
0.01226464
0.01226464
0.01226465
0.01226466
0.01226467
0.0122647
0.01226476
0.01226499
0.01226531
0.001045716
0.01226076
0.01226462
0.01226463
0.01226463
0.01226463
0.01226463
0.01226465
0.01226476
0.01226493
0.01226636
0.001047697
0.01226097
0.01226461
0.01226461
0.01226461
0.0122646
0.0122646
0.0122646
0.01226462
0.01226544
0.01226542
0.001048034
0.01226084
0.01226461
0.01226461
0.01226461
0.0122646
0.01226459
0.0122646
0.01226472
0.01226509
0.0122676
0.001047934
0.01226066
0.01226461
0.01226462
0.01226462
0.01226462
0.01226463
0.01226467
0.01226482
0.01226559
0.01225663
0.001047624
0.01226039
0.01226461
0.01226463
0.01226465
0.01226467
0.01226471
0.01226478
0.0122651
0.01226558
0.01226507
0.001047269
0.01226005
0.01226463
0.01226465
0.01226469
0.01226474
0.01226484
0.01226502
0.01226576
0.012267
0.01222623
0.001047052
0.01225968
0.01226464
0.01226468
0.01226473
0.01226482
0.01226496
0.01226535
0.01226596
0.0122673
0.01227889
0.001046959
0.01225935
0.01226465
0.0122647
0.01227278
0.01230649
0.01227032
0.01227493
0.01227152
0.01227044
0.01226871
0.01226825
0.01226982
0.01227015
0.01226785
0.002082583
0.01226662
0.01226697
0.01226738
0.01226644
0.01226649
0.01226561
0.01226534
0.01226564
0.01226532
0.01226533
0.0009811477
0.01225939
0.01226567
0.01226488
0.01226477
0.01226485
0.01226482
0.01226485
0.01226483
0.01226488
0.01226487
0.0009970616
0.01225777
0.01226474
0.01226473
0.01226477
0.01226477
0.01226478
0.01226478
0.0122648
0.01226481
0.01226483
0.001005064
0.01226033
0.01226475
0.01226473
0.01226475
0.01226476
0.01226478
0.0122648
0.01226482
0.01226484
0.01226486
0.00101864
0.01225866
0.01226473
0.01226471
0.01226473
0.01226475
0.01226477
0.01226479
0.0122648
0.01226483
0.01226486
0.001014936
0.01225881
0.01226474
0.01226473
0.01226475
0.01226477
0.01226479
0.01226481
0.01226483
0.01226486
0.0122649
0.00102814
0.0122608
0.01226471
0.01226472
0.01226474
0.01226476
0.01226478
0.0122648
0.01226483
0.01226487
0.01226492
0.001014396
0.01226257
0.01226469
0.01226472
0.01226473
0.01226475
0.01226477
0.0122648
0.01226483
0.01226488
0.01226495
0.001018612
0.01226243
0.01226467
0.0122647
0.01226471
0.01226473
0.01226475
0.01226479
0.01226483
0.0122649
0.01226499
0.001008738
0.01226091
0.01226467
0.01226468
0.01226469
0.01226471
0.01226473
0.01226477
0.01226482
0.01226491
0.01226504
0.001019348
0.01225932
0.01226467
0.01226466
0.01226467
0.01226469
0.0122647
0.01226474
0.0122648
0.01226491
0.01226515
0.0010157
0.01225934
0.01226465
0.01226464
0.01226465
0.01226466
0.01226467
0.0122647
0.01226477
0.01226498
0.0122653
0.001032103
0.01226056
0.01226462
0.01226463
0.01226463
0.01226463
0.01226463
0.01226465
0.01226475
0.01226492
0.01226639
0.001035227
0.0122609
0.01226461
0.01226461
0.01226461
0.0122646
0.01226459
0.0122646
0.01226463
0.01226535
0.01226542
0.001035869
0.01226077
0.01226461
0.01226461
0.01226461
0.0122646
0.01226459
0.0122646
0.01226471
0.01226507
0.01226756
0.001035777
0.01226062
0.01226461
0.01226462
0.01226462
0.01226462
0.01226463
0.01226467
0.0122648
0.01226566
0.01225659
0.001035198
0.01226036
0.01226462
0.01226463
0.01226465
0.01226467
0.01226471
0.01226478
0.01226512
0.01226562
0.01226513
0.001034559
0.01225998
0.01226463
0.01226465
0.01226469
0.01226474
0.01226484
0.01226503
0.01226578
0.012267
0.01222255
0.001034282
0.01225958
0.01226464
0.01226468
0.01226473
0.01226482
0.01226496
0.01226536
0.01226595
0.01226721
0.01227844
0.001034104
0.01225929
0.01226465
0.0122647
0.01226475
0.01226485
0.01227265
0.01229664
0.01227052
0.01227195
0.01227113
0.01227047
0.01226918
0.01226888
0.01227328
0.0122702
0.01227895
0.002066776
0.01225985
0.01224432
0.01223307
0.01223039
0.01223092
0.01223124
0.012233
0.01223488
0.01224657
0.01224742
0.002112909
0.01226243
0.01226238
0.01226192
0.01226165
0.01226162
0.01226146
0.01226169
0.01226203
0.01226127
0.01226099
0.002180103
0.01226364
0.01226226
0.01226168
0.01226151
0.01226158
0.01226166
0.01226184
0.01226192
0.01226248
0.01226248
0.00219731
0.01226372
0.01226368
0.01226378
0.01226373
0.01226379
0.01226381
0.01226387
0.01226391
0.01226398
0.01226396
0.002214992
0.01226417
0.0122637
0.01226395
0.0122639
0.01226395
0.01226398
0.01226403
0.01226406
0.01226413
0.01226416
0.001000332
0.01225912
0.0122637
0.01226414
0.01226411
0.01226417
0.0122642
0.01226424
0.01226427
0.01226432
0.01226436
0.00100078
0.01226017
0.01226391
0.01226416
0.01226417
0.01226423
0.01226426
0.01226429
0.01226433
0.01226438
0.01226444
0.0009987008
0.01226097
0.0122641
0.01226413
0.0122642
0.01226425
0.01226428
0.01226432
0.01226437
0.01226442
0.01226449
0.002217501
0.01226384
0.01226401
0.01226416
0.0122642
0.01226425
0.01226428
0.01226432
0.01226437
0.01226443
0.01226453
0.002203002
0.0122637
0.01226394
0.01226414
0.01226418
0.01226424
0.01226427
0.0122643
0.01226436
0.01226444
0.01226457
0.002213585
0.01226414
0.01226388
0.01226417
0.01226416
0.01226422
0.01226424
0.01226427
0.01226433
0.01226443
0.01226468
0.001000246
0.01225962
0.01226368
0.01226415
0.01226414
0.0122642
0.01226421
0.01226423
0.0122643
0.01226454
0.0122649
0.001002513
0.01225931
0.01226388
0.01226413
0.01226411
0.01226416
0.01226417
0.01226419
0.01226432
0.01226452
0.01226603
0.001004234
0.01226024
0.01226389
0.0122641
0.0122641
0.01226414
0.01226411
0.01226415
0.01226415
0.01226537
0.01226547
0.001005213
0.01225998
0.01226391
0.0122641
0.01226411
0.01226414
0.01226413
0.01226414
0.01226426
0.0122651
0.01226774
0.001005208
0.01225975
0.01226384
0.0122641
0.01226413
0.01226416
0.01226417
0.01226421
0.01226379
0.01226539
0.01225674
0.001004161
0.01225958
0.01226383
0.01226412
0.01226415
0.01226421
0.01226425
0.01226435
0.01226456
0.0122652
0.01226587
0.001003422
0.01225918
0.01226385
0.01226413
0.01226418
0.01226428
0.01226431
0.01226457
0.0122653
0.01226721
0.01224109
0.001002075
0.0122585
0.01226378
0.01226414
0.01226421
0.01226436
0.01226447
0.01226485
0.01226557
0.01226704
0.01227778
0.001000817
0.01225835
0.01226377
0.01226414
0.01226421
0.01226436
0.0122644
0.01226483
0.01227253
0.01227996
0.01227396
0.01227599
0.01228219
0.01227756
0.01228773
0.01227521
0.01227943
0.01229985
0.01227771
0.004664381
0.0009457304
0.0009686386
0.0009757893
0.0009776265
0.0009778096
0.0009769295
0.0009757114
0.0009761173
0.0009753706
0.0009752556
0.004746456
0.000965232
0.001006328
0.001019301
0.001022852
0.001023949
0.001024115
0.001024038
0.001024055
0.001023915
0.00102371
0.004622971
0.0009715339
0.001018484
0.001035009
0.001039739
0.001041229
0.001041734
0.001041879
0.001041885
0.001041767
0.001041595
0.004792249
0.0009725463
0.001021652
0.001039385
0.001044723
0.001046504
0.001047181
0.001047419
0.001047443
0.001047318
0.001047081
0.002147375
0.0009731879
0.001022758
0.001040799
0.001046396
0.001048336
0.001049106
0.001049384
0.001049407
0.001049252
0.001048963
0.002175809
0.0009742453
0.00102326
0.001041329
0.001047027
0.001049044
0.001049859
0.001050155
0.001050172
0.001049988
0.001049657
0.002230598
0.0009750585
0.001023428
0.00104153
0.001047265
0.001049314
0.00105014
0.001050435
0.001050432
0.001050217
0.001049843
0.00219014
0.0009756896
0.001023458
0.001041579
0.001047329
0.001049381
0.001050196
0.001050461
0.001050414
0.00105015
0.001049723
0.00217193
0.0009740074
0.001023268
0.001041532
0.001047306
0.00104934
0.001050111
0.001050299
0.001050146
0.001049764
0.001049237
0.004750101
0.0009732858
0.001023088
0.001041466
0.001047234
0.001049216
0.001049879
0.001049871
0.001049426
0.001048713
0.001047929
0.002139984
0.000973566
0.001023251
0.001041447
0.001047131
0.001048996
0.001049369
0.001048736
0.001047321
0.001045543
0.001043906
0.002173414
0.0009752767
0.001023579
0.00104145
0.001046991
0.001048653
0.001048403
0.001045312
0.001040113
0.00103507
0.001030313
0.002223921
0.0009769302
0.001023823
0.001041424
0.001046811
0.001048182
0.001046995
0.001040188
0.001016728
0.001010891
0.0009900263
0.002209058
0.0009769522
0.001023797
0.001041321
0.001046591
0.001047662
0.001045546
0.00103583
0.001012
0.01203059
0.0120836
0.002236706
0.000975582
0.00102354
0.001041152
0.001046355
0.001047221
0.001044499
0.001033069
0.0009953612
0.01225373
0.01226815
0.002240714
0.0009754296
0.001023395
0.001040965
0.001046102
0.001046875
0.001043872
0.001031105
0.001002885
0.01224002
0.01225548
0.002228117
0.0009766406
0.00102339
0.001040756
0.001045797
0.001046522
0.00104343
0.001029654
0.0009829058
0.0009675747
0.01224966
0.002191631
0.0009775495
0.00102328
0.001040492
0.001045442
0.001046125
0.001043096
0.001030261
0.001001414
0.01193524
0.01226223
0.002206238
0.0009774386
0.001023237
0.001040256
0.001045139
0.001045855
0.001043113
0.001031686
0.0009936738
0.01217328
0.01227886
0.002194622
0.0009783646
0.001023392
0.001040171
0.001045042
0.001045934
0.001043828
0.00103424
0.001010623
0.01213275
0.01227507
0.004997503
0.00195875
0.01233345
0.004748411
0.01225815
0.001945065
0.001995765
0.01230456
0.01229366
0.01221954
0.01223082
0.00200766
0.00201414
0.01230105
0.01230324
0.01221976
0.01223058
0.002015504
0.002016237
0.01231181
0.01229435
0.01223448
0.0122284
0.002016478
0.002016455
0.01229728
0.01229509
0.01222551
0.0122275
0.002016589
0.002016501
0.0123025
0.01229154
0.01222545
0.01222733
0.002016696
0.002016545
0.0123048
0.01229434
0.01222556
0.01222703
0.002016777
0.002016559
0.01230752
0.01230402
0.01222541
0.01222703
0.002016816
0.002016573
0.01229646
0.01230492
0.01222635
0.01222778
0.002016845
0.002016577
0.01229634
0.01230547
0.01222759
0.01222901
0.002016854
0.002016541
0.01229573
0.01230726
0.01222914
0.01223021
0.002002322
0.004623226
0.0020738
0.002074604
0.01223617
0.002127671
0.01225202
0.002093812
0.004620798
0.002104292
0.002097467
0.01223491
0.002147691
0.01222988
0.002106932
0.004619843
0.00210813
0.002159744
0.01223668
0.002166599
0.01223071
0.002108529
0.004618685
0.00210857
0.00216783
0.01223408
0.00216845
0.01223471
0.002108639
0.004617537
0.00210852
0.002168518
0.01223392
0.002168462
0.01223516
0.002108522
0.004616387
0.00210836
0.002168409
0.0122342
0.002168287
0.01223615
0.002108341
0.004615234
0.002108171
0.002168214
0.01223478
0.002168084
0.01223681
0.002108139
0.004614091
0.002107971
0.002167998
0.01223537
0.002167871
0.01223748
0.002107937
0.004612961
0.00210777
0.002167784
0.01223596
0.002167656
0.01223812
0.002107735
0.004611849
0.002107571
0.002167569
0.01223655
0.002167444
0.01223874
0.002107535
0.004610756
0.002107374
0.002167357
0.01223713
0.002167236
0.01223935
0.002107338
0.004609677
0.00210718
0.002167149
0.0122377
0.002167031
0.01223999
0.002107143
0.004608602
0.002106986
0.002166943
0.01223825
0.002166827
0.01224071
0.002106947
0.004607512
0.002106789
0.002166737
0.01223876
0.002166619
0.01224159
0.002106744
0.004606378
0.002106577
0.002166523
0.01223923
0.0021664
0.01224268
0.004027859
0.004318875
0.01226817
0.01236693
0.01224703
0.002106522
0.004605175
0.002106336
0.002166295
0.01223967
0.00216616
0.01224403
0.004319105
0.01226017
0.01226398
0.002106257
0.004603864
0.002106032
0.00216604
0.01224006
0.002165887
0.01224563
0.004322702
0.01225984
0.01226577
0.0021059
0.004602404
0.0021056
0.002165748
0.01224044
0.00216558
0.01224739
0.004322659
0.01226651
0.01228277
0.002105372
0.004600746
0.002104993
0.002165439
0.01224087
0.00216529
0.01224894
0.004498429
0.004310592
0.01227724
0.01230975
0.01230794
0.002104794
0.002165173
0.01224137
0.012329
0.004746278
0.01228384
0.0122927
0.004759131
0.01230168
0.01237685
0.01224561
0.0122677
0.01237502
0.01224504
0.01230767
0.0123202
0.01227764
0.01231036
0.01230993
0.01231825
0.004761131
0.0122997
0.0122908
0.004762174
0.01230241
0.01237378
0.01224477
0.01226758
0.01237444
0.01224477
0.01231046
0.0123114
0.01227786
0.01231045
0.01231051
0.01232106
0.00476265
0.01230599
0.01229521
0.004762692
0.012305
0.01237408
0.0122447
0.01226763
0.01237394
0.01224474
0.01231086
0.01231067
0.01227781
0.01231077
0.01231066
0.01232618
0.004763452
0.01230687
0.01230003
0.004763561
0.01230712
0.01237371
0.0122448
0.01226762
0.01237372
0.01224495
0.01231083
0.01231074
0.01227777
0.01231064
0.01231084
0.01231053
0.004763869
0.01230766
0.01231799
0.004763939
0.01230855
0.01237373
0.01224497
0.0122676
0.01237395
0.01224507
0.01231068
0.01231067
0.01227815
0.0123107
0.01231067
0.01230513
0.004764468
0.01230832
0.01232477
0.004762384
0.01230856
0.01237408
0.01224501
0.0122676
0.0123743
0.01224502
0.01231095
0.01231063
0.01227834
0.01231102
0.01231056
0.01229469
0.004761059
0.01230736
0.01231903
0.004755207
0.01230632
0.01237452
0.01224502
0.01226753
0.01237397
0.01224499
0.01231065
0.01231054
0.01227881
0.01231066
0.01231117
0.01228896
0.004753302
0.0123059
0.01231136
0.004649665
0.01229867
0.01237527
0.01224527
0.0122679
0.01237671
0.01224584
0.01231016
0.01230976
0.0122837
0.01230773
0.01232036
0.01230122
0.004858971
0.01226625
0.004343501
0.001957745
0.01228736
0.01222976
0.01221408
0.00432754
0.001993955
0.002062961
0.01228261
0.01223897
0.01223583
0.004397253
0.002075905
0.002075943
0.01227621
0.01224882
0.0122482
0.004076605
0.002064329
0.002058888
0.01227831
0.01224343
0.01225104
0.002061504
0.002073754
0.01231398
0.01222423
0.01222989
0.004283173
0.0020674
0.002059813
0.01229879
0.01223028
0.01222713
0.002041098
0.002035635
0.01225331
0.004712747
0.01223839
0.001948473
0.002006583
0.0122538
0.004620071
0.01223438