/*--------------------------------*- C++ -*----------------------------------*\
  =========                 |
  \\      /  F ield         | OpenFOAM: The Open Source CFD Toolbox
   \\    /   O peration     | Website:  https://openfoam.org
    \\  /    A nd           | Version:  7
     \\/     M anipulation  |
\*---------------------------------------------------------------------------*/
FoamFile
{
    version     2.0;
    format      ascii;
    class       surfaceScalarField;
    location    "0.01";
    object      phi;
}
// * * * * * * * * * * * * * * * * * * * * * * * * * * * * * * * * * * * * * //

dimensions      [0 3 -1 0 0 0 0];

internalField   nonuniform List<scalar> 
220679
(
-0.001821501
2.079398e-05
0.001714337
8.636965e-05
0.002687422
0.03532649
0.0001005642
-0.008495073
-0.008959406
-0.009602369
-0.00958745
-0.001732898
0.001474048
-0.001277772
6.641776e-05
0.002996072
0.03576692
0.002227164
-0.009340015
-0.009255798
-0.009851519
-0.009855417
0.003524052
0.03550509
0.003024865
-0.009485556
-0.009418166
-0.01010475
-0.01004948
0.004151381
0.03522269
0.003598016
-0.009598248
-0.009343078
-0.01028841
-0.01021831
0.004829688
0.03519014
0.003653982
-0.009541335
-0.009270367
-0.01041196
-0.01029877
0.00561657
0.03535676
0.00343434
-0.009561468
-0.009231188
-0.01047779
-0.01030754
0.006374038
0.03532258
0.003462125
-0.009583463
-0.009163676
-0.01049952
-0.01029551
0.007085337
0.0352858
0.003518377
-0.009569467
-0.009108119
-0.01053818
-0.01029971
0.007739224
0.03529207
0.003578129
-0.009564678
-0.009067061
-0.01058324
-0.01030911
0.03536837
0.00362101
-0.009573536
-0.009039083
-0.01062368
-0.01032454
0.00831067
-0.001902486
9.838133e-05
0.001711407
9.26994e-05
0.001265622
0.03340493
0.000617966
-0.001808309
0.001729543
-0.0003877388
0.0005044666
0.002295873
0.03364551
0.001091151
0.00318953
0.03368674
0.0009246904
0.003944883
0.03356689
0.0009004472
0.004708957
0.03359231
0.0008337537
0.005503979
0.03369117
0.0008705675
0.006253536
0.03373649
0.0008365368
0.006959965
0.03379588
0.0007834889
0.007612221
0.03389862
0.0007412002
0.0340762
0.000701768
0.008202636
-0.001868829
9.136519e-05
0.001685561
9.190343e-05
0.001729174
0.03266652
-6.051292e-05
-0.001967
0.0015409
-0.0006911727
0.0001870082
0.002475635
0.03257873
0.0003203171
0.003236948
0.03244952
0.0004759018
0.003957282
0.0323124
0.000534161
0.004706013
0.03231199
0.0005315915
0.005479993
0.03236816
0.0005490408
0.006242743
0.03243462
0.0005391316
0.006981742
0.0325488
0.0005080891
0.007685344
0.03271936
0.000475671
0.03296885
0.0004474773
0.008345221
-0.001839426
9.546071e-05
0.001655293
8.867124e-05
0.001626085
0.03181296
7.840957e-05
-0.001931944
0.001515571
-0.0006330289
0.0001984645
0.002377403
0.03166626
0.0001611554
0.003178536
0.03156387
8.452232e-05
0.00394783
0.03145183
9.127472e-05
0.004739319
0.0314382
8.230639e-05
0.005542147
0.03147714
8.819916e-05
0.00633924
0.03155345
8.407524e-05
0.007130273
0.03167899
7.879146e-05
0.007905569
0.03187086
7.320485e-05
0.03215464
6.775862e-05
0.008652029
-0.001795306
9.533077e-05
0.001612965
8.701008e-05
0.001690338
0.03098917
6.766153e-05
-0.001905483
0.001460527
-0.0006539738
0.000164714
0.002418164
0.03082436
0.0001140709
0.003206216
0.03069941
7.640675e-05
0.003987182
0.03057929
9.157476e-05
0.004792616
0.03054389
8.8884e-05
0.005615185
0.0305629
9.166587e-05
0.006453776
0.03062661
8.825406e-05
0.007306312
0.03074274
8.370836e-05
0.008166727
0.03093259
7.785741e-05
0.03122611
7.165091e-05
0.009023614
-0.001748733
9.417586e-05
0.001568911
8.564546e-05
0.001666732
0.03015566
8.437778e-05
-0.001859881
0.001421248
-0.0006404227
0.0001614498
0.002406769
0.02998919
9.513112e-05
0.003206795
0.02985833
4.105298e-05
0.004008246
0.02973324
4.459943e-05
0.004836508
0.02967916
3.64634e-05
0.00569065
0.02967234
3.642679e-05
0.006577538
0.02970562
3.41055e-05
0.007501194
0.02978697
3.211766e-05
0.008461921
0.0299426
2.926316e-05
0.03020942
2.639795e-05
0.00945221
-0.001701594
9.272172e-05
0.001524844
8.402739e-05
0.001659292
0.02932942
8.156196e-05
-0.001816556
0.001379757
-0.0006308049
0.0001529884
0.00240006
0.02916328
8.513965e-05
0.003201935
0.02902443
3.202784e-05
0.004013538
0.02888781
3.383258e-05
0.004858244
0.02880889
2.556871e-05
0.005739823
0.02876562
2.514308e-05
0.006671977
0.02875069
2.277904e-05
0.007668282
0.02876937
2.129418e-05
0.008739356
0.02885274
1.879317e-05
0.02904756
1.58666e-05
0.009885351
-0.001654946
9.11394e-05
0.001481357
8.244992e-05
0.001642015
0.02851165
8.012511e-05
-0.001772156
0.001340286
-0.0006194797
0.0001469762
0.002380093
0.02834663
7.857147e-05
0.003179538
0.02820031
2.466731e-05
0.003993119
0.0280497
2.452036e-05
0.004844097
0.02794263
1.528127e-05
0.005742563
0.02785305
1.409631e-05
0.006709907
0.02777258
1.076644e-05
0.007773259
0.02769665
9.371854e-06
0.008956659
0.02766403
5.302591e-06
0.02772394
3.328498e-06
0.01027695
-0.001608979
8.948935e-05
0.001438649
8.084106e-05
0.001620983
0.02770552
7.741342e-05
-0.001727796
0.001301752
-0.0006076721
0.0001414474
0.002350399
0.02754281
7.439827e-05
0.003138639
0.02739145
2.062059e-05
0.003940689
0.02722803
1.962325e-05
0.004780526
0.02709299
9.807251e-06
0.005673827
0.02695116
8.590622e-06
0.006650788
0.02679123
4.381293e-06
0.007758329
0.02658475
4.350306e-06
0.009051061
0.02636871
2.582136e-06
0.02621297
-3.678383e-06
0.0105657
-0.001563787
8.783065e-05
0.001396718
7.923892e-05
0.001595647
0.02691374
7.444532e-05
-0.001683604
0.001264258
-0.0005954219
0.0001364622
0.002311056
0.02675631
7.109508e-05
0.003079202
0.02660572
1.757789e-05
0.00385578
0.02643543
1.601486e-05
0.004664517
0.02627964
4.604716e-06
0.005526311
0.02608798
1.378829e-06
0.006481195
0.02584808
-1.173733e-05
0.007601446
0.02547921
-1.471265e-05
0.008957025
0.02505704
-4.391283e-05
0.02454353
-3.77347e-05
0.01066419
-0.001519333
8.614292e-05
0.001355552
7.763801e-05
0.001569114
0.02613721
7.15966e-05
-0.001640034
0.001227422
-0.0005831012
0.0001315286
0.00226617
0.0259907
6.854849e-05
0.003004363
0.02585176
1.576718e-05
0.003735906
0.02568897
1.491602e-05
0.004478631
0.02553377
3.14695e-06
0.005254729
0.02530999
1.897823e-06
0.006104003
0.02501309
-1.428809e-05
0.007138195
0.02447046
-2.543789e-05
0.008536035
0.02368365
-2.444998e-05
0.02270266
-7.636622e-05
0.01045327
-0.001475647
8.44874e-05
0.001315114
7.604509e-05
0.001548209
0.02537261
7.012891e-05
-0.001597864
0.001190282
-0.0005716649
0.0001255004
0.002227052
0.02524523
6.662576e-05
0.002931893
0.02513318
1.373631e-05
0.003610128
0.02499882
1.191362e-05
0.004273033
0.02487797
-7.110143e-06
0.004952808
0.02464977
-1.955878e-05
0.005771809
0.0243299
-0.0001358093
0.00675865
0.02369968
-0.0002160706
0.007731564
0.0233035
-0.0005927673
0.02128432
-0.0004935136
0.009643412
-0.001432499
8.290065e-05
0.001275172
7.442594e-05
0.001542164
0.02461315
6.911664e-05
-0.001557976
0.001151423
-0.0005622573
0.0001169913
0.002206912
0.02451499
6.549224e-05
0.002876583
0.02444958
1.393228e-05
0.003481634
0.02437789
1.588167e-05
0.004002782
0.02435412
2.701541e-06
0.004415965
0.02423507
1.515393e-06
0.004713189
0.024155
-0.0001223258
0.005374873
0.02361858
-0.0005805785
0.00600403
0.005431812
-0.0007206356
0.005291495
0.006343354
0.006328321
0.004580174
-0.001252264
0.004618775
0.005676816
0.005451499
0.008213351
-0.001389482
8.143188e-05
0.001235275
7.277477e-05
0.001563496
0.02384472
6.970962e-05
-0.001521353
0.001108767
-0.0005564021
0.0001042096
0.002228499
0.02378527
6.471979e-05
0.002884635
0.02378292
1.051549e-05
0.003438888
0.02380955
1.408676e-05
0.003902728
0.02391743
-2.715427e-05
0.004070153
0.02405171
1.593742e-05
0.004423392
0.02419972
-0.0003979559
0.0001146152
0.02405568
-0.0004696818
0.001920749
0.0008620486
0.001558558
0.0004466739
0.00521409
-0.0001143374
0.0006469938
0.004844476
-0.0002609023
-0.0006503946
-0.001345783
8.011468e-05
0.001194584
7.108488e-05
0.001625327
0.02304666
7.183275e-05
-0.001488632
0.001059834
-0.0005555563
8.525024e-05
0.002315394
0.02302969
6.550604e-05
0.00298916
0.02309889
1.027263e-05
0.003551394
0.0232361
1.121677e-05
0.003975402
0.02350951
-1.608437e-05
0.004121823
0.02391318
-7.892424e-06
0.004104163
0.02439763
-0.0001802556
-0.0004571319
0.02511129
-0.0003362846
0.001973483
0.0004371064
0.001431379
-0.006669533
2.838335e-05
0.006356039
-0.0001720215
-0.001396325
0.0002985437
-0.0002391163
0.00140488
-6.798251e-05
-0.001300232
7.891131e-05
0.001152037
6.928404e-05
0.001731665
0.02219566
7.596715e-05
-0.00145917
0.001003132
-0.0005601063
5.951969e-05
0.002475116
0.02221832
6.792594e-05
0.003210412
0.02235464
8.951659e-06
0.003842454
0.02259309
1.096132e-05
0.004347853
0.02302984
-2.572568e-05
0.004592906
0.02365765
1.047806e-05
0.004600039
0.0246034
-0.0002129012
-0.0002680892
0.02569345
-9.274941e-05
0.002122159
0.0006065002
0.001650056
-0.007455698
0.0001745318
0.006696487
0.00031659
-0.002091718
0.0003108046
-9.924838e-05
0.00178955
9.061139e-05
-0.001251844
7.780436e-05
0.001106679
6.736007e-05
0.001880074
0.02126953
8.209169e-05
-0.001431622
0.000937697
-0.000569465
2.735097e-05
0.002704333
0.02132157
7.249088e-05
0.003543761
0.02150566
9.54895e-06
0.004307149
0.02181818
1.152308e-05
0.004993234
0.0223687
-2.494775e-05
0.005453269
0.02319263
4.983991e-06
0.00580162
0.02446272
-0.0002076698
2.227901e-06
0.02615432
-0.0002946396
0.002528513
0.0009896182
0.00211504
-0.007951261
0.0005177547
0.007133526
0.000302209
-0.002278218
0.0002594003
-4.066502e-05
0.001955569
0.0001039136
-0.001199466
7.659023e-05
0.001057718
6.515861e-05
0.002056657
0.02025236
9.011168e-05
-0.001403412
0.0008641488
-0.000581766
-8.564193e-06
0.002979994
0.02031874
7.948611e-05
0.003952501
0.0205207
1.245308e-05
0.004893995
0.02086142
1.526465e-05
0.005849371
0.021438
-2.467868e-05
0.006685834
0.0223396
1.655973e-05
0.007781396
0.02363152
-0.0002643643
0.0005675565
0.02570205
-0.0003794559
0.003259499
0.001706602
0.003079459
-0.008356386
0.001209088
0.007363912
0.0003509433
-0.00250823
0.0001186489
8.722308e-05
0.002189282
0.0001130769
-0.001142347
7.515775e-05
0.001004531
6.26582e-05
0.0022462
0.000100606
-0.001371542
0.0007843037
-0.0005945296
-4.94578e-05
0.01913678
0.00327827
8.886299e-05
0.01919781
0.004401272
1.909354e-05
0.01937861
0.005558894
2.089254e-05
0.01968291
0.00684351
-5.861889e-06
0.02015925
0.008221357
2.595318e-05
0.0209358
0.01017347
-0.0001410288
0.02182043
0.001462671
-0.0005245183
0.004369188
0.002946196
0.004270377
0.02335161
-0.008338905
0.00277344
0.007123074
-9.493862e-05
-0.002794503
-0.0003871737
0.0007663486
0.002458242
-4.291373e-05
-0.001080335
7.343543e-05
0.0009470234
5.987641e-05
-0.007273209
0.003523983
0.0005344974
-0.002221458
0.005436186
-0.001888637
0.006310267
0.0001348831
-0.004996005
-0.001314075
-0.001996883
-0.001794173
0.005544623
-0.000522756
-0.0006278972
-0.0005348305
0.009281519
-0.0008665429
-0.0006559693
0.0009977568
0.001050405
0.000786299
-0.0006857192
0.0007070972
-0.0005628259
-4.073641e-07
0.0001439717
0.008959164
-0.0006798258
-0.0006904644
0.001089153
0.001123159
-0.000417874
-0.0003223323
0.000515719
0.009247713
-0.001414239
-0.000532567
0.001236985
0.001269085
-0.0003741888
-0.0006807434
0.0007622756
0.009258727
-0.001217297
-0.0004048483
0.001108716
0.001153442
-0.0003689534
-0.0009180161
0.0009360882
0.00929123
-0.0009348285
-0.0003757341
0.0009701408
0.001005896
-0.0003795763
-0.001059627
0.001068465
0.009305147
-0.0006987542
-0.0003709202
0.0008633417
0.000877702
-0.000389824
-0.001197513
0.001190852
0.009264902
-0.0004275659
-0.0003790726
0.0007711408
0.0007728776
-0.0004346433
-0.001354275
0.001319233
0.009195232
-0.0001192376
-0.0003964337
0.0007034611
0.0006924771
-0.0004547644
-0.001478725
0.001429809
0.009174287
3.713264e-05
-0.0004219426
0.0006655107
0.0006545118
-0.0004648713
-0.001585624
0.001521689
0.009166895
0.0001208387
-0.0004254987
0.0006423836
0.0006300037
0.0001367247
-0.002057384
0.0008082393
0.008288273
-0.000142193
-0.002504254
-0.002056125
-0.002473283
0.001950935
0.03920264
0.0006110586
-0.01048805
-0.01037647
-0.01031229
-0.01126831
-0.0005198008
0.0008545093
-0.0004463296
0.0008926962
0.003017524
0.04042397
0.005074611
-0.01076489
-0.01082615
-0.01112593
-0.01162103
0.003851904
0.03994343
0.007905196
-0.01099644
-0.01089333
-0.01186852
-0.01189983
0.004666011
0.03994805
0.008598362
-0.01109279
-0.01092932
-0.0121814
-0.01155898
0.005516348
0.04001883
0.008543502
-0.01122315
-0.01097336
-0.01202146
-0.01154071
0.00626752
0.0399882
0.008340662
-0.01129169
-0.01096093
-0.01187256
-0.0115205
0.007077739
0.04008575
0.00788281
-0.01126135
-0.01087274
-0.01176814
-0.01141441
0.007905167
0.04029716
0.007474158
-0.01120273
-0.01077235
-0.01180645
-0.01129883
0.00862886
0.04045559
0.007151079
-0.01116144
-0.01069442
-0.01177942
-0.01111694
0.04065117
0.006894309
-0.01113856
-0.01064202
-0.01180251
-0.01097777
0.009265267
0.001196493
0.03419222
0.0002863765
-0.0012468
-0.0007548138
0.001745674
0.0003423276
-0.007822224
-0.0099611
-0.008165872
-0.009812277
0.001300482
0.03961351
0.0001030975
0.002504461
0.03992827
0.0003828831
0.003453794
0.03980745
0.0001113406
0.004438466
0.03971832
0.0001455157
0.005422188
0.03974042
0.0001284631
0.006325971
0.03974224
0.0002127521
0.007176974
0.03982069
0.0002505994
0.008015195
0.03995488
0.0002875624
0.008787775
0.04011455
0.0003096706
0.04035088
0.0002930294
0.009496827
0.001243982
0.03260806
-6.798337e-05
-0.001660649
-0.0003087532
0.001796885
0.0005806675
0.002112287
0.0383577
0.0003270016
0.003000469
0.03829154
0.001068863
0.003815095
0.03804572
0.001423009
0.004633095
0.03785992
0.001574564
0.005500271
0.03782537
0.001579463
0.006365662
0.03784295
0.001582947
0.007231626
0.0379397
0.001554169
0.008088015
0.0380996
0.001506984
0.008910302
0.03832421
0.001443732
0.03863877
0.001380555
0.00968934
0.0007576959
0.03186375
0.0001266633
-0.001765338
-0.0004589331
0.001678132
0.0004060878
0.001796991
0.03731092
8.588392e-05
0.002754395
0.03724985
0.0002454322
0.003686266
0.03694705
0.0002513263
0.004598495
0.03673793
0.0003010301
0.005519907
0.03667498
0.0003112898
0.006437782
0.03668368
0.0003295971
0.007355912
0.0367644
0.0003412435
0.008271912
0.0369149
0.0003474965
0.009172227
0.03714924
0.0003478614
0.03749471
0.0003424802
0.01004157
0.0008768776
0.03095805
7.821805e-05
-0.001711026
-0.000421306
0.00165005
0.0004328838
0.001903084
0.03623874
0.0001136402
0.00284107
0.03616604
0.0002599036
0.003745767
0.03585019
0.0002685616
0.004649994
0.03564024
0.0002850315
0.005575346
0.03555484
0.0002836665
0.006522574
0.03554527
0.0002828377
0.007491385
0.03560532
0.00027852
0.00847909
0.03573747
0.0002734295
0.009478806
0.03596274
0.0002646367
0.03631453
0.000253413
0.01047721
0.0008392169
0.03013104
7.455057e-05
-0.001674212
-0.0004240879
0.001602158
0.0004093906
0.001848027
0.03523348
8.082485e-05
0.002799562
0.03515557
0.0001540584
0.00372537
0.03482555
0.0001398797
0.004659688
0.03460492
0.0001456041
0.005617168
0.03449535
0.0001384682
0.006605558
0.03445792
0.0001353799
0.007632327
0.03448276
0.0001298839
0.008703026
0.0345741
0.000124774
0.009818297
0.03475794
0.0001187838
0.0350771
0.0001122295
0.01096989
0.0008468778
0.02930085
5.658074e-05
-0.001628899
-0.0004110523
0.001562147
0.0004045329
0.001840899
0.03425289
6.813234e-05
0.002790442
0.03417358
0.000117579
0.003717416
0.03383681
9.378939e-05
0.004662811
0.03360442
8.892261e-05
0.005638647
0.03346739
7.768571e-05
0.006659599
0.03339002
7.208944e-05
0.007739731
0.03335978
6.562441e-05
0.008894706
0.03338046
5.995799e-05
0.01013758
0.03348053
5.332418e-05
0.03371477
4.633186e-05
0.01146944
0.0008375027
0.02848638
4.828685e-05
-0.001586187
-0.0004015293
0.001520927
0.000395472
0.001818749
0.03329337
5.838953e-05
0.002764195
0.03321243
9.42735e-05
0.003688794
0.03287098
6.589905e-05
0.00463701
0.03262495
5.577259e-05
0.005620801
0.03245704
4.183559e-05
0.006662061
0.03232914
3.371136e-05
0.007783752
0.03222442
2.44273e-05
0.009016233
0.03214137
1.597043e-05
0.01039058
0.03210585
5.630887e-06
0.03218828
-2.789332e-06
0.01192317
0.0008276044
0.02768251
4.387967e-05
-0.001543722
-0.0003915707
0.001480485
0.0003871868
0.001795164
0.03235066
5.256473e-05
0.002728875
0.03226958
8.352888e-05
0.003640694
0.03192728
5.24954e-05
0.004576439
0.03166948
3.934729e-05
0.005548747
0.03147205
2.248362e-05
0.00658669
0.03128918
1.059868e-05
0.007722907
0.03109696
-4.373071e-06
0.009007331
0.03088049
-1.920269e-05
0.0105009
0.03064888
-3.401255e-05
0.03047724
-5.032927e-05
0.01225859
0.0008152272
0.02689116
4.062128e-05
-0.001501982
-0.0003818414
0.001440566
0.00037876
0.001767376
0.03142602
4.693393e-05
0.002683085
0.03134833
7.66408e-05
0.003571967
0.03101254
4.342704e-05
0.004478488
0.03075084
2.812368e-05
0.005415385
0.030533
6.758939e-06
0.006417036
0.03030127
-1.236213e-05
0.007526144
0.03001867
-4.256297e-05
0.008818243
0.0296472
-7.352297e-05
0.01040666
0.02913069
-0.0001141419
0.028601
-0.0001353471
0.01238051
0.0008030416
0.02611179
3.74945e-05
-0.001460868
-0.0003720488
0.001401301
0.0003704454
0.001739172
0.03051937
4.2116e-05
0.002632248
0.03045195
7.184727e-05
0.003488307
0.03013535
3.689545e-05
0.004347083
0.02988699
1.998877e-05
0.005217098
0.02967287
-6.740439e-06
0.006133624
0.02942176
-3.511962e-05
0.007140369
0.02908263
-8.499834e-05
0.008330415
0.02858299
-0.0001512724
0.009880006
0.02775289
-0.0001962442
0.02654974
-0.0002692251
0.01212412
0.0007943599
0.0253397
3.689315e-05
-0.001420641
-0.0003624884
0.001362209
0.0003617626
0.001717121
0.02962622
4.051561e-05
0.002587299
0.02957942
6.89781e-05
0.003404831
0.02929974
3.181116e-05
0.004201424
0.02909052
1.17907e-05
0.004975772
0.02891661
-2.520285e-05
0.005757322
0.02869206
-7.141227e-05
0.00656243
0.02832
-0.0001782877
0.007515156
0.02770819
-0.0002939964
0.009000056
0.0262238
-0.0005485764
0.02429997
-0.0005525687
0.01130888
0.0007945522
0.02456887
3.236732e-05
-0.001380669
-0.000352202
0.001323353
0.0003534259
0.001712914
0.02873852
3.845907e-05
0.002567889
0.02872433
6.56023e-05
0.003351186
0.02850197
2.84036e-05
0.004083331
0.02836625
7.999719e-06
0.004747336
0.02828783
-3.252598e-05
0.005355261
0.02817483
-8.918107e-05
0.005862202
0.02789199
-0.0002012563
0.006164311
0.02723385
-0.0004083493
0.006588574
0.02559876
-0.0005198613
0.005558769
-0.0009656714
0.005232127
0.005428777
0.005106122
0.009276159
0.000807429
0.02378485
3.19474e-05
-0.001341204
-0.0003419151
0.001283362
0.0003444029
0.001736697
0.02784025
3.870979e-05
0.002590984
0.02787071
6.405701e-05
0.003351191
0.02772745
2.482593e-05
0.004022509
0.02770441
4.611368e-06
0.004534357
0.02779814
-4.931142e-05
0.004896386
0.02791234
-8.360237e-05
0.004636997
0.02807835
-0.0003249278
0.003951492
0.02776375
-0.0003140811
0.0004609663
0.006820578
-0.001182922
0.0009631569
0.0004451799
0.000972967
-0.0001486377
-0.0002084135
0.0006545524
0.0007014612
0.006730064
0.006718707
0.006622589
0.0001401601
0.0004819559
0.005549214
-0.000151595
0.0008401177
0.02296973
3.145539e-05
-0.001301427
-0.0003312131
0.001241252
0.0003349325
0.001805567
0.02690768
3.895112e-05
0.0026904
0.02698787
6.35095e-05
0.003472516
0.02693216
2.345411e-05
0.004142202
0.02704308
2.855238e-06
0.004638508
0.02732661
-4.085651e-05
0.004837769
0.02778383
-7.864438e-05
0.004549774
0.02838385
-0.0001977627
0.000182066
0.02915812
-0.0002982729
0.001366713
0.000199657
0.001368959
0.0002242768
-0.0001018615
0.006995282
-0.0001150529
5.289302e-05
-0.001583828
0.0001880688
-0.0002367827
0.001605181
-2.553225e-05
0.0008938597
0.02210291
3.306933e-05
-0.001260571
-0.0003198735
0.001195765
0.0003245726
0.001923236
0.02591382
4.044613e-05
0.002874082
0.02604032
6.462771e-05
0.003724858
0.02606834
2.199533e-05
0.004476262
0.02630023
2.414162e-06
0.005044998
0.02677589
-4.37458e-05
0.005394999
0.02749943
-5.512428e-05
0.00518681
0.02857501
-0.0001958693
0.004551804
0.02976944
-6.906898e-05
-0.0001434316
0.0317254
-0.0001541403
0.001553515
-8.505078e-05
0.001556762
-0.0005339113
-0.0004856802
0.0003974085
0.0005677707
-0.007578787
-0.007461563
-0.007483825
-0.007322658
-0.0002437314
-0.008121153
0.007870952
0.0001391653
-0.0001486829
0.000174244
-0.0001274002
0.0003131737
0.0009676739
0.0211655
3.597395e-05
-0.001217415
-0.0003077411
0.001145758
0.0003131499
0.002087833
0.02483233
4.34275e-05
0.003139299
0.02499261
6.873599e-05
0.004110513
0.02508273
2.393597e-05
0.005014678
0.02540344
4.142457e-06
0.005785636
0.02601996
-3.997258e-05
0.006373717
0.02697438
-5.80499e-05
0.006434513
0.02849263
-0.0001860852
0.005627602
0.03050129
-0.0002195766
0.00028712
0.0344764
-4.022008e-05
-0.0005692706
-0.0003876108
0.0003142046
0.0005877695
0.001182367
0.000372803
0.00112943
-0.0001795481
-0.007893243
0.0001299171
0.008166269
6.372596e-05
0.001055278
0.0201441
4.0364e-05
-0.001170629
-0.0002947601
0.001090667
0.0003004848
0.002284366
0.02364431
4.903936e-05
0.00345971
0.02381898
7.777043e-05
0.004585425
0.02393732
3.214838e-05
0.005699999
0.02429093
1.319674e-05
0.006774437
0.02495103
-3.019137e-05
0.007833723
0.02597637
-4.471299e-05
0.008622882
0.02764198
-0.0002028819
0.008965972
0.03004443
-0.0002656817
0.0007118168
0.008562079
-0.0004273275
0.003206303
0.000660662
0.003215794
-0.0006419547
-0.0003011507
0.0003909307
0.0009207352
0.009408236
0.008460885
0.009275368
7.891011e-05
0.01093112
-0.0001537961
-0.009532307
-0.0003129703
0.0001473596
8.611099e-05
-0.0005326107
0.001149074
4.572284e-05
-0.001119323
-0.0002808952
0.001030539
0.0002862828
0.0190327
0.002495994
5.767478e-05
0.02234032
0.003807453
9.22205e-05
0.02250416
0.00511166
4.818979e-05
0.02260402
0.006477276
3.105919e-05
0.02291515
0.007968836
-7.375264e-07
0.02345435
0.009661996
-1.271877e-05
0.02432188
0.01179648
-0.00010367
0.02547014
0.002804969
-0.0002614299
0.00436898
0.002765597
0.004287554
0.02735071
6.743432e-05
0.003299751
0.008024044
-2.418193e-05
4.105969e-05
-0.002907461
-0.0008799513
0.0009532459
0.00281188
-1.877319e-05
-0.007647675
-8.225949e-05
0.00653499
8.857709e-05
-0.00529134
0.006397708
-0.0007277425
0.000262152
-0.0008025566
0.00959107
-0.0001929224
0.0009592969
-0.0006257772
0.0009295791
-0.0009767817
0.03618703
-0.002828782
-0.0004609147
-0.0006999781
0.001560458
0.001548935
-0.0004345587
0.001368283
-0.001047397
0.001359127
0.001232218
0.03806104
-0.007398829
-0.0004881227
-0.0004910992
0.00237477
0.002285523
0.003220132
0.03867933
-0.007336292
-0.0006143837
-0.0007100534
0.002372325
0.002551711
0.004351202
0.03884473
-0.006368901
-0.0007974433
-0.0008480778
0.002406345
0.002602789
0.005076818
0.03867282
-0.0055135
-0.0009800017
-0.0008824486
0.002366453
0.00258075
0.005623421
0.03835111
-0.00465103
-0.001200446
-0.0009102709
0.002311976
0.002521257
0.006132823
0.03810102
-0.003864501
-0.001432987
-0.00105531
0.002276376
0.002434988
0.006606595
0.03800501
-0.003218526
-0.00159019
-0.001201048
0.00214284
0.002357083
0.03788223
-0.002575448
-0.001699397
-0.001274532
0.002032972
0.002242721
0.006967115
-0.002078193
-4.245899e-05
0.0009744311
0.008268357
-1.270806e-06
-0.002523967
-0.00207799
-0.002518905
0.007102421
0.03844632
0.0007684998
-0.01054668
-0.01130024
-0.01065779
-0.01163514
-0.001114552
0.0003235726
-0.001070274
0.0002949367
0.006197194
0.03884101
0.003325864
0.005142136
0.0387091
0.008312205
0.005322931
0.03844987
0.008647038
0.0059458
0.03844178
0.008323591
0.006725
0.03850868
0.007725611
0.007503126
0.03876212
0.006693691
0.008210479
0.03904861
0.005819225
0.008901024
0.03930281
0.005162744
0.03952958
0.004603904
0.009544102
0.001627521
0.0344593
0.0001428471
-0.00818531
-0.009810299
-0.008222414
-0.009725268
0.001066546
0.0392221
-0.0001117015
0.00226851
0.03805849
-3.655105e-05
0.00336241
0.03803161
-0.0003050592
0.004458788
0.03785018
-0.0003511599
0.005468224
0.03782264
-0.0002618084
0.006377217
0.0378624
-4.993507e-05
0.007235774
0.03798055
0.0001736297
0.008074675
0.03816717
0.0003301238
0.008856207
0.03839886
0.0004321141
0.03869224
0.0004007524
0.009585846
0.00190764
0.03239453
8.915924e-05
0.003052063
0.0380789
0.0003257811
0.003507349
0.03787877
0.0007933006
0.004062087
0.03776118
0.001138709
0.004768871
0.03751207
0.001205908
0.005583639
0.03743887
0.001148472
0.00643118
0.03744969
0.001148127
0.007286536
0.03755296
0.001126415
0.008139522
0.03771954
0.001101632
0.008965748
0.03794252
0.001073853
0.03825706
0.001040377
0.009741133
0.0008292265
0.03165352
3.844075e-05
0.001887902
0.03704536
6.074558e-05
0.002849197
0.03699668
0.000166236
0.003776037
0.03687665
0.0002090158
0.004683616
0.03666644
0.0002390722
0.005609459
0.03659808
0.0002262333
0.006534432
0.0365982
0.0002561026
0.007456506
0.03668107
0.000291054
0.008373507
0.03683716
0.0003128727
0.009273531
0.03707693
0.0003134248
0.03742603
0.0003073883
0.01013963
0.0009282186
0.03077251
3.101219e-05
0.001994515
0.03600481
8.789684e-05
0.002911728
0.03614662
0.0001927285
0.003805725
0.03602251
0.0002286938
0.004709227
0.03581196
0.000236008
0.005639239
0.03572376
0.0002279659
0.006590188
0.03570902
0.0002210609
0.007564955
0.03576972
0.0002150928
0.008559035
0.03590336
0.0002131375
0.009564158
0.03612734
0.0002090896
0.03647638
0.0002005598
0.01056666
0.0008448974
0.02996757
3.459202e-05
0.00186035
0.03501017
6.001036e-05
0.002832814
0.03520451
0.0001237093
0.003775032
0.03508657
0.0001335902
0.004716378
0.03488623
0.0001299627
0.005680615
0.03477975
0.0001182245
0.006675697
0.03473778
0.000111517
0.007711654
0.03475804
0.0001055862
0.00879296
0.03484478
0.0001020287
0.009917985
0.03502319
9.789899e-05
0.03533626
9.257927e-05
0.01107773
0.000849968
0.0291498
2.438474e-05
0.001830961
0.03404431
5.299343e-05
0.002802088
0.03425605
9.489696e-05
0.003750261
0.03413438
9.779591e-05
0.004709182
0.0339286
8.762799e-05
0.005697177
0.03379536
7.40651e-05
0.006729029
0.03371236
6.564643e-05
0.00782036
0.03367401
5.831615e-05
0.008986999
0.0336858
5.228798e-05
0.01024055
0.0337781
4.48389e-05
0.03400399
3.686172e-05
0.01158228
0.0008360177
0.0283455
1.657648e-05
0.001796579
0.03309515
4.698147e-05
0.002764974
0.03330725
7.467456e-05
0.003713348
0.03317785
7.404813e-05
0.004677391
0.03296064
5.967616e-05
0.005674798
0.03279579
4.399085e-05
0.006727738
0.03266036
3.275972e-05
0.007861175
0.03254342
2.157171e-05
0.009106477
0.03244522
1.124429e-05
0.01049257
0.03239841
-7.738809e-07
0.03246831
-1.160301e-05
0.01203705
0.0008238653
0.0275466
1.89162e-05
0.001768374
0.03215923
4.397753e-05
0.002724665
0.03236749
6.698921e-05
0.003660399
0.03223232
6.228462e-05
0.004612038
0.03200326
4.508643e-05
0.005597284
0.03180688
2.614543e-05
0.006645781
0.03161234
1.011728e-05
0.007792561
0.03140077
-8.507609e-06
0.00909137
0.03115436
-2.715451e-05
0.01059769
0.03090594
-4.787091e-05
0.03071186
-6.586982e-05
0.01236968
0.0008114577
0.02676053
1.522862e-05
0.001739754
0.03124113
3.673559e-05
0.0026768
0.03144601
6.107223e-05
0.003588211
0.03131165
5.268338e-05
0.004508505
0.03107724
3.3846e-05
0.005455475
0.030857
9.662335e-06
0.006463566
0.03060625
-1.4364e-05
0.007580687
0.03029027
-4.91938e-05
0.008888921
0.02985927
-8.667918e-05
0.01048827
0.02932519
-0.0001327444
0.02874844
-0.0001574874
0.01247381
0.0007997258
0.02598761
1.068662e-05
0.001711877
0.03034194
2.915088e-05
0.002624825
0.03054846
5.645122e-05
0.003501209
0.03042718
4.49793e-05
0.004370085
0.03020354
2.480474e-05
0.005243533
0.02998274
-5.933208e-06
0.006155163
0.02970036
-4.086017e-05
0.007155161
0.02930588
-0.0001006037
0.008368309
0.02867081
-0.0001759613
0.009937049
0.0278149
-0.0002546948
0.02653783
-0.0003130296
0.01219146
0.0007894173
0.02521865
1.643592e-05
0.001688541
0.0294544
2.892826e-05
0.002577366
0.02967287
5.573846e-05
0.003412866
0.02958376
3.972072e-05
0.004214597
0.02939753
1.606889e-05
0.004981687
0.02921526
-2.481482e-05
0.005741111
0.02894738
-7.785701e-05
0.006536926
0.02852341
-0.0001916333
0.007546656
0.02769647
-0.0003293832
0.009017975
0.02632503
-0.0005300274
0.02429928
-0.0005675935
0.01127155
0.0007898081
0.02445215
9.060004e-06
0.00168366
0.02857289
2.611886e-05
0.002555973
0.02881529
5.087165e-05
0.00335403
0.02877867
3.544196e-05
0.004081885
0.02866732
1.034791e-05
0.004716526
0.02858342
-3.532566e-05
0.005233399
0.0284418
-0.0001004791
0.005646477
0.02815533
-0.0002462572
0.005971684
0.02742502
-0.0004621145
0.006521768
0.02586254
-0.0006074531
0.005580901
-0.0007190473
0.005198636
0.005453887
0.005111909
0.009229094
0.0008018277
0.02367184
1.042969e-05
0.001705823
0.02768028
2.732023e-05
0.002577865
0.02795815
4.914708e-05
0.003354048
0.02799548
3.182756e-05
0.004023792
0.02799671
5.483508e-06
0.004520029
0.02808499
-4.711502e-05
0.004800816
0.02817894
-0.0001015351
0.004596299
0.02832091
-0.0002859954
0.004094437
0.0280044
-0.0003916001
0.0004597596
0.006790219
-0.0005213152
0.0009301635
0.0004510921
0.0009386051
0.006554781
0.006657215
0.006513534
0.0001493163
0.0005205444
0.005448483
-7.768324e-05
0.0008339122
0.02286083
8.550557e-06
0.001772921
0.02675366
2.65619e-05
0.00267691
0.02707081
4.686295e-05
0.003477979
0.02718861
2.925078e-05
0.004152494
0.02732224
2.810111e-06
0.004642427
0.02759647
-4.227639e-05
0.004808737
0.0280202
-8.621408e-05
0.004562334
0.02856283
-0.000193284
0.0002296642
0.02923035
-0.0002504819
0.001422108
0.0002292993
0.001407523
0.0001202729
-4.60624e-05
0.00698741
-4.173719e-05
2.23964e-05
-0.001532368
0.0001671822
-0.0002232739
0.001576481
-1.041669e-05
0.0008864892
0.02199845
8.963045e-06
0.001887422
0.02576607
2.710721e-05
0.002858921
0.02611775
4.619063e-05
0.003730994
0.02631123
2.730808e-05
0.004491362
0.02656313
1.148225e-06
0.005058865
0.02702757
-4.235356e-05
0.005396503
0.02769329
-6.584656e-05
0.005246176
0.02867598
-0.0001586924
0.005014914
0.02947914
-8.65925e-05
-5.417806e-06
0.0311038
-5.754862e-05
0.001653166
1.731285e-05
0.001673252
-0.007549026
-0.007274784
-0.007443689
-0.007256292
-0.008126409
-5.770305e-05
0.00776294
2.738981e-05
-0.0001333868
-0.000139078
0.0003345526
0.0003262763
0.0009589208
0.02106606
9.437449e-06
0.0020484
0.02469135
2.866549e-05
0.003122522
0.02506395
4.840847e-05
0.004117761
0.02531057
2.934769e-05
0.005031893
0.02564966
3.476374e-06
0.005802211
0.02625652
-3.923677e-05
0.006341908
0.02716247
-6.693222e-05
0.006394404
0.02860058
-0.000163176
0.005538528
0.03029394