/*--------------------------------*- C++ -*----------------------------------*\
  =========                 |
  \\      /  F ield         | OpenFOAM: The Open Source CFD Toolbox
   \\    /   O peration     | Website:  https://openfoam.org
    \\  /    A nd           | Version:  7
     \\/     M anipulation  |
\*---------------------------------------------------------------------------*/
FoamFile
{
    version     2.0;
    format      ascii;
    class       volVectorField;
    location    "0.01";
    object      U;
}
// * * * * * * * * * * * * * * * * * * * * * * * * * * * * * * * * * * * * * //

dimensions      [0 1 -1 0 0 0 0];

internalField   nonuniform List<vector> 
105056
(
(0.009486723 -0.00947913 -2.349744e-06)
(0.01824986 -0.008870297 -0.0003744796)
(0.02697845 -0.008252927 -0.0004640207)
(0.03564164 -0.007628085 -0.0005928966)
(0.04446091 -0.007086864 -0.0007191117)
(0.008902836 -0.01824846 0.0003731082)
(0.01815949 -0.0181115 -1.889331e-06)
(0.02713044 -0.01791062 -0.0001192488)
(0.03579074 -0.01779022 -0.0003500983)
(0.04441034 -0.01760769 -0.0006039455)
(0.008327172 -0.02700503 0.0004600142)
(0.01803246 -0.02708843 0.0001131954)
(0.02713671 -0.02698407 -3.996985e-06)
(0.03580216 -0.0268872 -0.0002004501)
(0.04450712 -0.02675787 -0.0004607657)
(0.00776077 -0.03574116 0.0005898915)
(0.01801447 -0.0357951 0.0003397717)
(0.02719263 -0.03566154 0.0001875283)
(0.03590304 -0.0355627 -1.007246e-05)
(0.04463426 -0.0354133 -0.0002399735)
(0.007281368 -0.04468093 0.0007123274)
(0.01795694 -0.04451425 0.0005882414)
(0.02725464 -0.04442706 0.0004386211)
(0.03600954 -0.04430854 0.0002155153)
(0.04480778 -0.04416564 -2.075769e-05)
(0.006703722 -0.05337905 0.000871972)
(0.01783687 -0.05306415 0.0008194284)
(0.02732374 -0.05317104 0.0006884497)
(0.03615146 -0.05301472 0.0004615565)
(0.04498796 -0.05283271 0.0002075839)
(0.006116503 -0.06197348 0.001019966)
(0.01775814 -0.06160771 0.001033546)
(0.02741969 -0.06197147 0.000940598)
(0.03632458 -0.06178128 0.0007111289)
(0.04520089 -0.06156327 0.0004481682)
(0.005545327 -0.07066684 0.001148142)
(0.0177682 -0.07036716 0.001267616)
(0.02756437 -0.07079653 0.001195503)
(0.03652862 -0.07058524 0.0009597598)
(0.04545187 -0.07033647 0.0006945271)
(0.005000626 -0.07952371 0.001268705)
(0.01779724 -0.07927503 0.001516366)
(0.02772424 -0.07964927 0.00145648)
(0.03675484 -0.07943909 0.001209776)
(0.04573577 -0.07916366 0.0009420823)
(0.00452533 -0.08844903 0.001378282)
(0.01784506 -0.088323 0.001754224)
(0.02783919 -0.08846438 0.001692352)
(0.03699656 -0.08836099 0.001458432)
(0.04605056 -0.08805169 0.0011884)
(0.004057038 -0.09750944 0.001498911)
(0.01790154 -0.0974784 0.001989065)
(0.02804713 -0.09744622 0.001914279)
(0.03727717 -0.09733598 0.001710811)
(0.04639767 -0.09700333 0.001435775)
(0.003567039 -0.106642 0.001629122)
(0.0179473 -0.106687 0.002215629)
(0.02823863 -0.1064176 0.002134866)
(0.03757959 -0.1063891 0.001960409)
(0.04677365 -0.1060273 0.001681683)
(0.00308263 -0.1158498 0.00174991)
(0.01800244 -0.1159807 0.002446121)
(0.02844553 -0.1154549 0.00236237)
(0.03789268 -0.1155119 0.002217805)
(0.04717646 -0.1151275 0.001930055)
(0.002581394 -0.1251256 0.00188298)
(0.01807702 -0.1253796 0.00267165)
(0.02869451 -0.1246574 0.002582939)
(0.03819987 -0.1246898 0.002458591)
(0.04760719 -0.1243153 0.002177224)
(0.00207652 -0.1344677 0.002011729)
(0.01816538 -0.1348979 0.002901158)
(0.02895606 -0.1339566 0.002803985)
(0.03861101 -0.1341113 0.002687462)
(0.04807621 -0.1335743 0.002428397)
(0.001587401 -0.143854 0.002141447)
(0.01825856 -0.1445081 0.003128694)
(0.02923057 -0.1434109 0.003023422)
(0.03894438 -0.1433643 0.002905179)
(0.04855275 -0.1429497 0.002676707)
(0.001118828 -0.1533312 0.002264779)
(0.01835636 -0.1542159 0.00336164)
(0.0295591 -0.1530748 0.003267384)
(0.03931843 -0.1527023 0.003136303)
(0.04903318 -0.1524457 0.002926804)
(0.0006657009 -0.1628923 0.002389041)
(0.01848853 -0.1640249 0.003587738)
(0.02986284 -0.1628164 0.003500087)
(0.03974081 -0.1622293 0.003367106)
(0.04959993 -0.162207 0.003184929)
(0.0002166544 -0.1725805 0.002512921)
(0.01861946 -0.17391 0.003822413)
(0.0301858 -0.1726663 0.003741783)
(0.04016302 -0.1719008 0.003589244)
(0.05015232 -0.1719119 0.003401973)
(-0.000212545 -0.1823653 0.002639413)
(0.01875089 -0.1838693 0.004053149)
(0.03050897 -0.1826245 0.00397854)
(0.04060301 -0.1817055 0.003810521)
(0.05066255 -0.1815355 0.003623249)
(-0.0006511553 -0.1922659 0.002765815)
(0.01888758 -0.1939573 0.004287856)
(0.03085574 -0.1927408 0.004221346)
(0.04105897 -0.1916183 0.004033737)
(0.05120262 -0.1912632 0.003856593)
(-0.001052996 -0.2022545 0.002895305)
(0.01902958 -0.2041519 0.004523628)
(0.03121189 -0.2029853 0.004464276)
(0.04153206 -0.2016449 0.004261964)
(0.05179603 -0.2011429 0.004094023)
(0.01659191 -0.2208986 0.02536955)
(0.01917907 -0.2144769 0.004772086)
(0.03158157 -0.2133621 0.004724661)
(0.04200669 -0.211786 0.004490345)
(0.05237796 -0.2112181 0.004334297)
(0.01065682 -0.001714828 0.0002335422)
(0.01850484 -0.002081817 0.0007404498)
(0.02720399 -0.001921123 0.00121353)
(0.03582059 -0.001951867 0.001662254)
(0.04447308 -0.002114873 0.002096565)
(0.001733312 -0.01069529 -0.0002439723)
(0.0128162 -0.01280189 -1.0003e-06)
(0.02120126 -0.01291622 -0.0001197184)
(0.02995998 -0.01269969 -1.725483e-05)
(0.03855426 -0.01271915 -6.504377e-05)
(0.04722073 -0.01264792 -4.233986e-05)
(0.002098274 -0.01852625 -0.000746988)
(0.01296153 -0.02120199 0.0001129231)
(0.02133066 -0.02126876 -3.562759e-06)
(0.03008769 -0.0211345 0.0001830144)
(0.03859529 -0.02112364 0.0001369213)
(0.04723746 -0.02102657 0.0001753235)
(0.001950081 -0.02726289 -0.00123135)
(0.01280277 -0.02999764 1.286877e-05)
(0.02129071 -0.03004262 -0.0001886362)
(0.03010206 -0.02992198 -1.187466e-07)
(0.03865115 -0.02988416 -0.0001073445)
(0.04738549 -0.02974856 -4.329175e-05)
(0.001983036 -0.03597471 -0.00167462)
(0.01289563 -0.03867749 6.068831e-05)
(0.0214053 -0.03861379 -0.0001442799)
(0.03023982 -0.03849571 0.000104997)
(0.03877033 -0.03839075 -3.05019e-06)
(0.04751831 -0.03824217 6.506127e-05)
(0.002149011 -0.04475892 -0.002111487)
(0.01291837 -0.04748864 4.15511e-05)
(0.02146096 -0.04737348 -0.0001859138)
(0.03032525 -0.04730933 4.059244e-05)
(0.03890711 -0.04716636 -7.106199e-05)
(0.04769456 -0.04699198 -2.938417e-06)
(0.002395329 -0.05361517 -0.002598013)
(0.01301022 -0.05626238 1.38544e-05)
(0.02158337 -0.05610776 -0.0001571209)
(0.03045048 -0.0560316 4.664967e-05)
(0.03909041 -0.05584784 -4.689046e-05)
(0.04790457 -0.05564696 2.250842e-05)
(0.002625147 -0.06244961 -0.003191717)
(0.01307597 -0.06506491 -1.110452e-05)
(0.02169696 -0.06493388 -0.0001409958)
(0.03059108 -0.06483252 2.957288e-05)
(0.03929504 -0.0646312 -5.172677e-05)
(0.04814592 -0.06440121 1.347454e-05)
(0.002767884 -0.0712726 -0.003699084)
(0.01314409 -0.07390919 -2.474172e-05)
(0.02182422 -0.07379504 -0.000124097)
(0.03076057 -0.07365695 2.681586e-05)
(0.03952543 -0.07344225 -4.786964e-05)
(0.04842225 -0.07317959 1.416773e-05)
(0.002851127 -0.08012088 -0.004135741)
(0.01320637 -0.08281752 -2.463076e-05)
(0.02195882 -0.08271487 -0.0001160936)
(0.03095245 -0.08254031 2.855928e-05)
(0.03977654 -0.08231391 -4.706847e-05)
(0.04873164 -0.08201779 1.352201e-05)
(0.00288395 -0.08894539 -0.004505644)
(0.0132906 -0.0917886 -2.433108e-05)
(0.02211186 -0.09168829 -0.0001217065)
(0.03117149 -0.09148715 3.535934e-05)
(0.04005265 -0.09124339 -4.788754e-05)
(0.04907519 -0.09091618 1.436191e-05)
(0.002959617 -0.09795519 -0.004944936)
(0.01339387 -0.1008196 -2.056108e-05)
(0.02227181 -0.1007188 -0.0001260691)
(0.03140819 -0.1005021 4.456426e-05)
(0.04035289 -0.1002374 -4.760291e-05)
(0.04944995 -0.09988232 1.580947e-05)
(0.00304925 -0.1070183 -0.005423924)
(0.01351553 -0.1099276 -1.447699e-05)
(0.02244223 -0.109818 -0.0001321795)
(0.03166469 -0.1095889 5.184058e-05)
(0.04067845 -0.1093023 -4.606655e-05)
(0.04985501 -0.1089212 1.750397e-05)
(0.003142944 -0.1161564 -0.005903221)
(0.01363791 -0.1191241 -4.66643e-06)
(0.02262424 -0.1189917 -0.0001375344)
(0.03193688 -0.1187529 5.758199e-05)
(0.0410271 -0.1184463 -4.254362e-05)
(0.05028874 -0.118039 1.977039e-05)
(0.003253114 -0.1253635 -0.006367789)
(0.0137533 -0.1283979 1.456296e-07)
(0.02282827 -0.1282462 -0.0001413051)
(0.03222429 -0.1279972 6.077122e-05)
(0.0413992 -0.1276699 -3.865938e-05)
(0.05075195 -0.12724 2.208371e-05)
(0.003385757 -0.1346766 -0.006849413)
(0.01387962 -0.1377488 -1.511748e-06)
(0.02304107 -0.1375886 -0.0001443471)
(0.03252832 -0.1373285 6.264965e-05)
(0.04179158 -0.1369804 -3.381523e-05)
(0.05123843 -0.13653 2.564599e-05)
(0.003512123 -0.1440648 -0.007312752)
(0.01401019 -0.1471906 -4.922544e-06)
(0.02326572 -0.147024 -0.0001493049)
(0.03284865 -0.1467512 6.016177e-05)
(0.04220566 -0.1463877 -3.122117e-05)
(0.05175057 -0.1459159 3.034277e-05)
(0.003637289 -0.153555 -0.007803345)
(0.01414939 -0.156727 -6.075824e-06)
(0.02349873 -0.1565526 -0.0001539931)
(0.03318183 -0.1562683 6.007009e-05)
(0.04263522 -0.1558904 -3.049128e-05)
(0.05228645 -0.1553981 3.571755e-05)
(0.003758936 -0.1631243 -0.008278815)
(0.01429512 -0.1663622 -6.079764e-06)
(0.02374371 -0.166181 -0.0001593727)
(0.03352907 -0.1658858 6.055015e-05)
(0.04308461 -0.1654937 -2.968059e-05)
(0.05284336 -0.1649804 4.130223e-05)
(0.003885225 -0.1728133 -0.008784642)
(0.01444872 -0.1761017 -5.041365e-06)
(0.02399518 -0.175915 -0.0001643378)
(0.03388841 -0.1756092 6.153594e-05)
(0.04354956 -0.1752036 -2.949662e-05)
(0.05341998 -0.1746729 4.879155e-05)
(0.004009555 -0.1825983 -0.009266618)
(0.01460502 -0.1859465 -2.103359e-06)
(0.02425661 -0.1857546 -0.0001692749)
(0.03426028 -0.1854401 6.28212e-05)
(0.04403023 -0.1850235 -3.064574e-05)
(0.05401493 -0.1844783 5.429107e-05)
(0.004137835 -0.1925098 -0.009777985)
(0.01476768 -0.1958999 1.58829e-06)
(0.02452202 -0.1957031 -0.0001739905)
(0.0346401 -0.1953809 6.448977e-05)
(0.04452094 -0.1949542 -3.138779e-05)
(0.05462332 -0.1943967 5.781287e-05)
(0.004262361 -0.2025038 -0.0102653)
(0.01493121 -0.2059647 6.77114e-06)
(0.02479607 -0.2057635 -0.0001780943)
(0.03503087 -0.2054351 6.61832e-05)
(0.04502466 -0.2050009 -3.633821e-05)
(0.05524777 -0.2044325 6.119749e-05)
(-0.0001038324 -0.2176343 0.01174252)
(0.01510214 -0.2161397 1.158209e-05)
(0.02507372 -0.2159387 -0.0001825136)
(0.03542644 -0.2156055 6.841404e-05)
(0.04553488 -0.2151661 -3.856993e-05)
(0.05588582 -0.2145894 6.498703e-05)
(0.01060002 -0.001556408 9.157427e-06)
(0.01886517 -0.002339529 0.0001248459)
(0.02771829 -0.002201013 0.0001899365)
(0.03653306 -0.002282001 0.000258848)
(0.04532535 -0.002516197 0.0003139498)
(0.00158668 -0.01062123 -1.692976e-05)
(0.01278964 -0.01277323 -3.820986e-06)
(0.02128682 -0.01282822 1.257185e-05)
(0.02999348 -0.01260851 3.124549e-05)
(0.03856823 -0.0126068 1.672399e-05)
(0.0472429 -0.01253376 1.826368e-05)
(0.002349217 -0.01889563 -0.0001231328)
(0.01287493 -0.02128529 -1.63389e-05)
(0.02141283 -0.02134887 -2.280227e-06)
(0.0300661 -0.02107321 4.288564e-05)
(0.03861163 -0.02118862 2.228466e-05)
(0.04725953 -0.02111523 3.797961e-05)
(0.002228169 -0.02778687 -0.0001941485)
(0.01271348 -0.03003065 -3.565436e-05)
(0.02121905 -0.03003548 -4.67e-05)
(0.03012161 -0.02994 3.099192e-07)
(0.03867473 -0.0299075 -3.056164e-05)
(0.04741228 -0.02976634 -4.868467e-06)
(0.00230891 -0.03668344 -0.0002623188)
(0.01278431 -0.03869224 -2.228282e-05)
(0.02145078 -0.0386162 -3.00628e-05)
(0.03026341 -0.03852028 3.019912e-05)
(0.03880058 -0.03842136 -1.865119e-06)
(0.04754415 -0.03827091 2.82936e-05)
(0.002546933 -0.04559657 -0.000319665)
(0.01280101 -0.04750997 -2.380432e-05)
(0.0215558 -0.04739632 -4.415635e-05)
(0.03034536 -0.04733706 1.422748e-06)
(0.03893644 -0.04719279 -3.279875e-05)
(0.04772265 -0.04702038 -2.5699e-06)
(0.002926702 -0.05456611 -0.0003910442)
(0.01290678 -0.0562997 -3.006052e-05)
(0.02167542 -0.05611939 -3.677384e-05)
(0.03046994 -0.0560483 4.611384e-06)
(0.03911857 -0.05585925 -2.68132e-05)
(0.04792999 -0.05566186 2.159184e-06)
(0.003281242 -0.06352258 -0.0004388127)
(0.0129994 -0.06511146 -5.000804e-05)
(0.02179649 -0.06494592 -3.418009e-05)
(0.03060765 -0.06485268 -4.082529e-06)
(0.03932391 -0.06464431 -3.075798e-05)
(0.04816925 -0.064417 -4.447784e-06)
(0.003552292 -0.07244946 -0.0004572627)
(0.01306977 -0.07395406 -6.079805e-05)
(0.02192997 -0.07380623 -2.708393e-05)
(0.0307737 -0.07367551 -6.539637e-06)
(0.03955508 -0.07345388 -2.954251e-05)
(0.04844369 -0.07319218 -4.858918e-06)
(0.003759185 -0.08144276 -0.0005056046)
(0.01313147 -0.0828599 -6.765364e-05)
(0.0220652 -0.08272901 -2.269514e-05)
(0.03096194 -0.08255841 -8.842867e-06)
(0.0398077 -0.08232753 -2.966805e-05)
(0.04875207 -0.08203113 -5.862971e-06)
(0.003898976 -0.09046323 -0.0005504929)
(0.01320789 -0.09183786 -6.267882e-05)
(0.02221606 -0.09170802 -1.908959e-05)
(0.03117787 -0.09150464 -6.525386e-06)
(0.04008283 -0.0912589 -2.943492e-05)
(0.04909508 -0.09092986 -5.676386e-06)
(0.004078389 -0.09958099 -0.0005933233)
(0.01330401 -0.1008807 -6.791078e-05)
(0.02237894 -0.1007446 -2.01474e-05)
(0.03141373 -0.1005225 -4.984583e-06)
(0.0403832 -0.1002547 -3.008859e-05)
(0.0494698 -0.09989718 -5.597968e-06)
(0.004270944 -0.1087533 -0.000640921)
(0.01342892 -0.1099888 -7.280413e-05)
(0.02255372 -0.1098485 -2.080006e-05)
(0.03166909 -0.1096114 -3.767139e-06)
(0.04070803 -0.109321 -3.007612e-05)
(0.04987497 -0.1089375 -5.217218e-06)
(0.004497655 -0.1180271 -0.0007207817)
(0.01355861 -0.1191774 -7.462784e-05)
(0.02273811 -0.1190242 -2.319372e-05)
(0.03194124 -0.1187771 -2.247533e-06)
(0.041056 -0.1184651 -3.051665e-05)
(0.05030877 -0.1180567 -4.814444e-06)
(0.004755103 -0.1273859 -0.0008200553)
(0.01369222 -0.1284589 -6.69936e-05)
(0.02293757 -0.128282 -2.234303e-05)
(0.03222823 -0.1280246 -9.06339e-07)
(0.04142807 -0.1276918 -2.865611e-05)
(0.05077062 -0.12726 -3.999225e-06)
(0.005015547 -0.1368387 -0.0009064791)
(0.01381535 -0.1378248 -6.679054e-05)
(0.02315484 -0.1376296 -2.380823e-05)
(0.03253156 -0.1373578 -1.090584e-06)
(0.04182228 -0.1370061 -3.011952e-05)
(0.0512579 -0.1365521 -4.387403e-06)
(0.005258723 -0.146378 -0.0009729884)
(0.01393986 -0.1472727 -6.970078e-05)
(0.02338542 -0.1470682 -2.47629e-05)
(0.03285147 -0.146783 -3.676527e-07)
(0.04223593 -0.1464135 -3.059797e-05)
(0.05177089 -0.1459383 -3.876913e-06)
(0.005493393 -0.1560138 -0.00102908)
(0.01407556 -0.1568122 -7.428534e-05)
(0.0236238 -0.1566013 -2.727665e-05)
(0.0331858 -0.1563039 -1.442495e-06)
(0.04266819 -0.1559184 -3.114116e-05)
(0.05230691 -0.1554225 -2.665675e-06)
(0.005744906 -0.1657443 -0.001107495)
(0.01421951 -0.1664519 -7.522704e-05)
(0.02387133 -0.1662338 -3.002859e-05)
(0.03353392 -0.1659246 -2.562326e-06)
(0.04311767 -0.1655246 -3.237221e-05)
(0.05286487 -0.1650096 -3.226186e-06)
(0.005985786 -0.175586 -0.00117098)
(0.01437023 -0.1761946 -7.947996e-05)
(0.02412697 -0.1759698 -3.375142e-05)
(0.0338945 -0.1756497 -4.724301e-06)
(0.04358359 -0.1752365 -3.418448e-05)
(0.05344201 -0.1747041 -5.092429e-06)
(0.006238333 -0.1855301 -0.001253015)
(0.01452566 -0.1860429 -7.836181e-05)
(0.0243905 -0.1858116 -3.500172e-05)
(0.03426683 -0.1854821 -4.64917e-06)
(0.04406344 -0.1850572 -3.48749e-05)
(0.05403702 -0.1845095 -5.512017e-06)
(0.006485187 -0.195589 -0.001321682)
(0.01468602 -0.1960003 -8.118416e-05)
(0.02466042 -0.195762 -3.760756e-05)
(0.03464896 -0.1954248 -5.380786e-06)
(0.04455616 -0.1949895 -3.547564e-05)
(0.05464736 -0.1944286 -5.118512e-06)
(0.006740022 -0.2057477 -0.001406163)
(0.01484972 -0.2060689 -7.970262e-05)
(0.02493562 -0.205824 -3.911955e-05)
(0.03504044 -0.20548 -5.623205e-06)
(0.04505974 -0.2050361 -3.696925e-05)
(0.05527129 -0.2044644 -5.913157e-06)
(0.007005798 -0.2160375 -0.001497781)
(0.01501713 -0.2162505 -8.311712e-05)
(0.02521586 -0.2159992 -4.355666e-05)
(0.03543844 -0.2156512 -7.758146e-06)
(0.04557263 -0.2151999 -3.855153e-05)
(0.05590687 -0.2146191 -6.524295e-06)
(0.01057788 -0.001523985 -9.216418e-06)
(0.018867 -0.002148952 -1.897184e-05)
(0.02777493 -0.001937889 -2.030189e-05)
(0.03659598 -0.001914117 -2.041437e-05)
(0.04538213 -0.002106384 -1.497828e-05)
(0.001545065 -0.01059988 7.06729e-06)
(0.01272663 -0.012711 -2.291419e-06)
(0.02126182 -0.01279017 -3.050725e-05)
(0.02997624 -0.0125335 -2.258807e-05)
(0.03856165 -0.01252402 -3.231282e-05)
(0.04725561 -0.01243612 -2.51837e-05)
(0.002176519 -0.01890242 1.488311e-05)
(0.01283768 -0.02125822 2.779166e-05)
(0.02142148 -0.02135756 -1.150806e-06)
(0.03011424 -0.02109776 3.908485e-05)
(0.03859224 -0.02116957 2.701597e-05)
(0.04726835 -0.02111148 3.862918e-05)
(0.001972793 -0.02784877 1.652331e-05)
(0.01264617 -0.03000941 2.293161e-05)
(0.02124069 -0.03008179 -4.176699e-05)
(0.030143 -0.02995903 -2.268017e-08)
(0.03865768 -0.02994268 -3.291323e-05)
(0.0474264 -0.02980269 -1.806355e-05)
(0.00196104 -0.03675937 1.67467e-05)
(0.01271469 -0.03868133 3.313296e-05)
(0.02140924 -0.03859563 -3.31507e-05)
(0.03030073 -0.03850406 3.339696e-05)
(0.03879368 -0.03841655 -8.354093e-07)
(0.04755869 -0.03826532 1.678228e-05)
(0.002162317 -0.04567502 9.591975e-06)
(0.01269966 -0.04751948 2.360657e-05)
(0.02155292 -0.04740523 -4.318841e-05)
(0.03038538 -0.04735021 1.733687e-05)
(0.03893075 -0.04720797 -1.92434e-05)
(0.04773809 -0.04703471 -1.005524e-06)
(0.002576605 -0.05470614 -9.365464e-06)
(0.01281586 -0.0563148 1.773814e-05)
(0.02167968 -0.05611452 -3.500668e-05)
(0.03050874 -0.05605187 1.99498e-05)
(0.03911619 -0.05585894 -1.412864e-05)
(0.04794594 -0.05566157 4.296148e-06)
(0.003047164 -0.06371626 -3.084824e-05)
(0.01291792 -0.06512556 4.382345e-06)
(0.02180471 -0.06494167 -3.265094e-05)
(0.03064353 -0.06485853 1.547389e-05)
(0.03932366 -0.06464644 -1.630913e-05)
(0.04818599 -0.06442012 1.65135e-06)
(0.003335074 -0.07274859 -2.285122e-05)
(0.0129857 -0.07396048 -2.290132e-06)
(0.02194275 -0.0738027 -2.865245e-05)
(0.03080754 -0.07367737 1.37205e-05)
(0.03955667 -0.07345401 -1.579218e-05)
(0.04846044 -0.07319312 1.084295e-06)
(0.003528911 -0.08178143 -1.775637e-05)
(0.01304296 -0.08285676 -8.677934e-06)
(0.02208241 -0.08272822 -2.703147e-05)
(0.03099522 -0.082557 1.299835e-05)
(0.0398093 -0.0823275 -1.584536e-05)
(0.04876926 -0.0820313 7.340231e-07)
(0.00368748 -0.09082582 -2.486796e-05)
(0.01311128 -0.09183023 -7.339156e-06)
(0.02223172 -0.09170954 -2.661919e-05)
(0.03121097 -0.09150149 1.452231e-05)
(0.04008338 -0.09125872 -1.580846e-05)
(0.04911173 -0.09092926 5.902235e-07)
(0.003874365 -0.09990458 -3.513261e-05)
(0.01320212 -0.1008753 -9.332036e-06)
(0.02239616 -0.1007471 -2.844655e-05)
(0.03144823 -0.1005197 1.618183e-05)
(0.04038222 -0.1002545 -1.614613e-05)
(0.04948711 -0.09989637 1.098667e-06)
(0.004100151 -0.1091282 -4.911814e-05)
(0.01332534 -0.1099837 -9.357135e-06)
(0.02257258 -0.1098511 -2.978151e-05)
(0.03170528 -0.1096087 1.718354e-05)
(0.04070692 -0.1093204 -1.616178e-05)
(0.04989173 -0.1089363 1.114421e-06)
(0.004262523 -0.1184343 -3.773835e-05)
(0.01345415 -0.1191715 -1.10721e-05)
(0.02275854 -0.1190268 -3.183248e-05)
(0.03197996 -0.118774 1.821791e-05)
(0.04105409 -0.1184639 -1.624058e-05)
(0.05032589 -0.1180552 1.555116e-06)
(0.004468614 -0.1278272 -3.558605e-05)
(0.01358972 -0.1284476 -1.181591e-05)
(0.02295787 -0.1282836 -3.336894e-05)
(0.03226909 -0.1280217 1.918951e-05)
(0.0414261 -0.1276904 -1.577937e-05)
(0.05078661 -0.1272582 1.723109e-06)
(0.004685581 -0.1372882 -3.96408e-05)
(0.01371972 -0.1378134 -8.721913e-06)
(0.02317225 -0.137631 -3.460017e-05)
(0.0325739 -0.1373556 1.972835e-05)
(0.04181975 -0.1370046 -1.575636e-05)
(0.05127427 -0.1365501 2.542112e-06)
(0.004903829 -0.1468499 -4.323675e-05)
(0.01384231 -0.1472644 -8.426305e-06)
(0.02340264 -0.1470704 -3.622215e-05)
(0.03289554 -0.1467813 1.959955e-05)
(0.04223372 -0.1464127 -1.602764e-05)
(0.05178698 -0.1459363 2.606478e-06)
(0.005105805 -0.1565008 -4.290381e-05)
(0.01397683 -0.1568032 -9.218643e-06)
(0.0236414 -0.1566038 -3.851753e-05)
(0.03323164 -0.1563025 1.936131e-05)
(0.04266577 -0.1559181 -1.679338e-05)
(0.05232356 -0.1554209 3.218618e-06)
(0.005326893 -0.1662566 -4.779134e-05)
(0.01411995 -0.1664425 -9.300089e-06)
(0.02388844 -0.1662366 -4.080705e-05)
(0.03358117 -0.1659238 1.886683e-05)
(0.04311594 -0.165525 -1.770378e-05)
(0.05288078 -0.1650089 2.822503e-06)
(0.005529464 -0.1761077 -4.634295e-05)
(0.01427031 -0.1761847 -1.056132e-05)
(0.02414415 -0.1759725 -4.329348e-05)
(0.03394299 -0.1756494 1.820624e-05)
(0.04358147 -0.1752376 -1.898479e-05)
(0.05345879 -0.1747041 2.7954e-06)
(0.005749898 -0.1860763 -5.047327e-05)
(0.01442506 -0.1860327 -1.045077e-05)
(0.02440664 -0.1858144 -4.524168e-05)
(0.03431585 -0.1854821 1.788339e-05)
(0.04406176 -0.185059 -1.991439e-05)
(0.05405372 -0.18451 2.469353e-06)
(0.005973978 -0.1961478 -5.55182e-05)
(0.01458482 -0.1959895 -1.170808e-05)
(0.02467583 -0.1957653 -4.769491e-05)
(0.03469825 -0.1954251 1.700147e-05)
(0.04455367 -0.194992 -2.130799e-05)
(0.05466503 -0.1944301 2.222221e-06)
(0.006192126 -0.206324 -6.043909e-05)
(0.01474714 -0.2060569 -1.132958e-05)
(0.02494977 -0.2058277 -5.029862e-05)
(0.03508918 -0.2054799 1.573078e-05)
(0.04505642 -0.2050387 -2.392482e-05)
(0.05528947 -0.2044656 1.151907e-06)
(0.006425408 -0.2166162 -7.15783e-05)
(0.01491227 -0.2162376 -1.205058e-05)
(0.02522921 -0.2160035 -5.346983e-05)
(0.03548703 -0.2156498 1.452746e-05)
(0.04556789 -0.2152029 -2.584083e-05)
(0.05592539 -0.2146204 1.284234e-06)
(0.01058681 -0.001516117 -6.110181e-06)
(0.01885219 -0.002139693 -1.014679e-05)
(0.0277732 -0.001922927 -1.221736e-05)
(0.03660026 -0.001909924 -1.394901e-05)
(0.04538941 -0.002012283 -1.435768e-05)
(0.001527366 -0.01059805 7.418414e-07)
(0.01272198 -0.01270771 1.523681e-06)
(0.02127219 -0.01277883 5.714795e-06)
(0.02997568 -0.01252144 1.026547e-05)
(0.03856027 -0.01250105 1.018021e-05)
(0.04724868 -0.01242117 9.474699e-06)
(0.00211029 -0.01887655 3.17422e-06)
(0.01282534 -0.02126854 -2.933452e-06)
(0.02143093 -0.02136559 7.700684e-07)
(0.03012027 -0.02107357 8.587943e-06)
(0.03858662 -0.02116831 4.800967e-06)
(0.04727101 -0.02112225 6.349167e-06)
(0.001883511 -0.02784619 3.656135e-06)
(0.012634 -0.03000974 -6.953564e-06)
(0.02121984 -0.03009041 -7.849554e-06)
(0.03014431 -0.02995987 1.014139e-06)
(0.03865743 -0.02994804 -4.981859e-06)
(0.04743156 -0.0298088 -1.045218e-06)
(0.001863515 -0.03676237 3.496112e-06)
(0.01269348 -0.03867971 -7.84371e-06)
(0.02140539 -0.03859044 -7.071941e-06)
(0.03030572 -0.0385037 4.964883e-06)
(0.03879795 -0.03842092 1.973324e-07)
(0.04756519 -0.03827231 3.763142e-06)
(0.001965372 -0.04567153 4.08634e-06)
(0.01271244 -0.04751137 -6.327407e-06)
(0.02156591 -0.04740821 -6.250366e-06)
(0.03039354 -0.04735384 1.49257e-06)
(0.03893797 -0.0472148 -4.068724e-06)
(0.04774635 -0.0470436 -4.015067e-07)
(0.00228187 -0.05469861 6.251271e-06)
(0.0127838 -0.05631559 -8.188807e-06)
(0.02169418 -0.05611187 -3.944839e-06)
(0.03051494 -0.05605287 2.297594e-06)
(0.03912381 -0.05586016 -3.463056e-06)
(0.04795485 -0.05566404 1.155836e-09)
(0.002724836 -0.06370452 7.703774e-06)
(0.01288647 -0.06512732 -1.030389e-05)
(0.02181815 -0.06493965 -2.909191e-06)
(0.0306484 -0.06486019 1.194122e-06)
(0.03933178 -0.06464766 -3.96514e-06)
(0.04819456 -0.06442253 -1.361984e-06)
(0.003069561 -0.07274319 6.537897e-06)
(0.01295396 -0.07396212 -1.218854e-05)
(0.02195716 -0.0738006 -2.272641e-06)
(0.03081153 -0.0736785 8.166616e-07)
(0.03956484 -0.07345426 -4.200055e-06)
(0.04846909 -0.07319405 -1.658929e-06)
(0.003282598 -0.08178893 8.979448e-06)
(0.01300752 -0.08285903 -1.460205e-05)
(0.02209883 -0.08272661 -1.300963e-06)
(0.03099833 -0.08255765 -5.095045e-08)
(0.03981833 -0.08232768 -4.230966e-06)
(0.04877711 -0.08203181 -2.154464e-06)
(0.003490059 -0.09082196 1.358669e-06)
(0.01306926 -0.0918317 -1.69041e-05)
(0.02225013 -0.09170908 -9.714386e-07)
(0.03121349 -0.09150151 -1.045934e-07)
(0.04009199 -0.09125902 -4.652484e-06)
(0.04912031 -0.09092944 -2.274594e-06)
(0.003683999 -0.09989898 -7.296549e-06)
(0.01315768 -0.1008753 -1.887184e-05)
(0.0224162 -0.1007475 -1.26309e-06)
(0.03145075 -0.1005196 -5.190405e-07)
(0.04039139 -0.1002548 -4.662934e-06)
(0.04949488 -0.09989654 -2.873963e-06)
(0.003886445 -0.1091287 -6.550785e-06)
(0.01328 -0.1099826 -2.112428e-05)
(0.02259307 -0.1098515 -2.018152e-06)
(0.03170766 -0.1096089 -4.239584e-07)
(0.04071582 -0.1093207 -5.536902e-06)
(0.04990021 -0.1089366 -3.100238e-06)
(0.004012229 -0.1184293 4.465682e-06)
(0.01340853 -0.1191713 -2.251659e-05)
(0.02278016 -0.1190275 -1.975011e-06)
(0.03198231 -0.1187746 -1.125641e-06)
(0.04106416 -0.1184644 -5.650243e-06)
(0.05033349 -0.1180558 -3.703062e-06)
(0.004210599 -0.1278262 8.485695e-06)
(0.01354362 -0.1284472 -2.513095e-05)
(0.02298101 -0.1282847 -3.001191e-06)
(0.03227164 -0.1280228 -1.52714e-06)
(0.04143585 -0.1276912 -6.500328e-06)
(0.05079524 -0.127259 -3.999082e-06)
(0.004379668 -0.1372848 1.250446e-05)
(0.01367505 -0.1378114 -2.579892e-05)
(0.0231954 -0.1376323 -3.484715e-06)
(0.03257645 -0.137357 -2.835947e-06)
(0.04182979 -0.137006 -6.978103e-06)
(0.05128228 -0.1365513 -5.018524e-06)
(0.004580328 -0.1468481 1.396006e-05)
(0.01379911 -0.1472626 -2.668923e-05)
(0.02342551 -0.1470721 -4.894358e-06)
(0.03289819 -0.1467831 -3.597339e-06)
(0.04224325 -0.1464144 -8.546824e-06)
(0.05179653 -0.1459375 -5.720279e-06)
(0.004724463 -0.1564885 2.075211e-05)
(0.01393427 -0.1568017 -2.785645e-05)
(0.0236645 -0.1566061 -5.818803e-06)
(0.03323429 -0.1563046 -5.449714e-06)
(0.04267649 -0.1559202 -9.797947e-06)
(0.05233225 -0.1554227 -7.487853e-06)
(0.004920807 -0.1662411 2.25029e-05)
(0.0140772 -0.1664414 -2.97172e-05)
(0.02391167 -0.1662393 -8.16956e-06)
(0.03358404 -0.1659262 -7.04848e-06)
(0.04312624 -0.1655275 -1.25329e-05)
(0.05289084 -0.1650111 -9.326094e-06)
(0.005094615 -0.1760834 2.454308e-05)
(0.01422648 -0.1761832 -3.147734e-05)
(0.02416786 -0.1759754 -1.004372e-05)
(0.03394599 -0.1756517 -9.914674e-06)
(0.04359276 -0.1752403 -1.509284e-05)
(0.05346813 -0.1747064 -1.270118e-05)
(0.005310873 -0.1860556 2.3893e-05)
(0.0143808 -0.1860305 -3.392065e-05)
(0.02443054 -0.1858171 -1.328542e-05)
(0.03431897 -0.1854839 -1.283453e-05)
(0.04407257 -0.185061 -1.988166e-05)
(0.05406408 -0.1845119 -1.710554e-05)
(0.005491735 -0.1961137 2.628035e-05)
(0.01454012 -0.195986 -3.632429e-05)
(0.02470005 -0.1957672 -1.60628e-05)
(0.0347017 -0.1954257 -1.702847e-05)
(0.04456526 -0.1949927 -2.487511e-05)
(0.05467476 -0.1944296 -2.389468e-05)
(0.005704253 -0.206293 2.46091e-05)
(0.01470243 -0.2060522 -3.902085e-05)
(0.02497409 -0.2058279 -2.023285e-05)
(0.03509273 -0.2054788 -2.181803e-05)
(0.04506809 -0.2050364 -3.336666e-05)
(0.05530034 -0.204461 -3.372178e-05)
(0.005924866 -0.2165848 2.276723e-05)
(0.01486818 -0.2162322 -4.068197e-05)
(0.02525468 -0.2160033 -2.276322e-05)
(0.03549142 -0.2156479 -2.691666e-05)
(0.04558152 -0.2151986 -4.125356e-05)
(0.05593682 -0.2146124 -4.581321e-05)
(0.01057885 -0.001519757 -4.04536e-06)
(0.01884845 -0.002130145 -3.019119e-06)
(0.02776922 -0.001913844 -3.289901e-06)
(0.03660214 -0.001878875 -3.69308e-06)
(0.04538773 -0.001984556 -4.338289e-06)
(0.001529788 -0.01060717 -3.581501e-06)
(0.01272339 -0.01270532 3.827189e-06)
(0.02127203 -0.01277855 -1.152262e-06)
(0.02997529 -0.01252116 -5.887462e-06)
(0.03855985 -0.01249965 -6.578179e-06)
(0.04724513 -0.0124308 -5.685471e-06)
(0.002176081 -0.01887618 -5.094197e-06)
(0.01282712 -0.02126846 7.922658e-06)
(0.02142926 -0.02136599 1.932887e-06)
(0.03012009 -0.02107458 -7.833131e-06)
(0.03858659 -0.02116964 -5.105324e-06)
(0.04727057 -0.02112343 -5.497934e-06)
(0.001938057 -0.02784578 -7.648521e-06)
(0.01263509 -0.03001132 1.146681e-05)
(0.02121926 -0.03009048 8.429571e-06)
(0.03014379 -0.02995984 1.852216e-06)
(0.03865722 -0.02994772 4.874465e-06)
(0.04743107 -0.02980926 2.194961e-06)
(0.001895977 -0.03676842 -8.716359e-06)
(0.01269568 -0.03868051 1.134668e-05)
(0.02140218 -0.03858972 6.71138e-06)
(0.03030587 -0.03850403 -4.990946e-06)
(0.03879726 -0.03842174 7.888389e-07)
(0.04756473 -0.03827265 -3.051472e-06)
(0.002016382 -0.04568036 -9.341736e-06)
(0.01269513 -0.04751378 1.113178e-05)
(0.02156424 -0.04740881 7.14445e-06)
(0.03039253 -0.04735467 1.987697e-07)
(0.03893775 -0.04721525 4.851671e-06)
(0.04774638 -0.04704374 1.02148e-06)
(0.002367568 -0.05471016 -8.984034e-06)
(0.01278619 -0.05631545 1.236331e-05)
(0.02169187 -0.05611253 4.598452e-06)
(0.0305142 -0.05605325 -9.046982e-07)
(0.03912378 -0.05586054 4.223365e-06)
(0.04795495 -0.05566467 5.340926e-07)
(0.00281259 -0.06371239 -8.957138e-06)
(0.01288834 -0.06512788 1.496296e-05)
(0.02181602 -0.06494018 3.411383e-06)
(0.03064762 -0.0648607 3.268946e-08)
(0.03933152 -0.06464817 4.421053e-06)
(0.04819473 -0.06442295 1.673137e-06)
(0.003123271 -0.07274685 -9.517461e-06)
(0.01295551 -0.07396278 1.577957e-05)
(0.0219556 -0.07380106 2.804847e-06)
(0.03081082 -0.07367889 -1.193096e-07)
(0.0395649 -0.07345458 4.455042e-06)
(0.04846899 -0.07319459 1.912767e-06)
(0.0033106 -0.08179112 -1.070084e-05)
(0.01300909 -0.08285954 1.811683e-05)
(0.02209703 -0.08272698 1.272047e-06)
(0.03099771 -0.08255799 5.353269e-07)
(0.03981795 -0.08232803 4.198888e-06)
(0.04877745 -0.08203216 1.967706e-06)
(0.003455407 -0.09081797 -8.93521e-06)
(0.01307043 -0.09183237 1.943416e-05)
(0.02224874 -0.09170936 8.994348e-07)
(0.03121282 -0.09150185 -4.096978e-08)
(0.04009204 -0.09125932 4.307846e-06)
(0.0491203 -0.09092988 1.909587e-06)
(0.003584827 -0.09988479 -7.803398e-06)
(0.01315887 -0.1008769 2.071397e-05)
(0.02241474 -0.1007478 2.603938e-07)
(0.03145016 -0.1005199 4.167212e-08)
(0.04039099 -0.1002551 3.780214e-06)
(0.04949529 -0.0998968 1.867414e-06)
(0.003721778 -0.1091091 -1.013227e-05)
(0.01327984 -0.1099844 2.025234e-05)
(0.02259217 -0.1098519 5.490669e-07)
(0.03170715 -0.1096092 -8.816408e-07)
(0.04071612 -0.109321 3.900507e-06)
(0.04990006 -0.108937 1.635923e-06)
(0.003839115 -0.1184055 -1.104463e-05)
(0.01340843 -0.1191725 2.045971e-05)
(0.02277981 -0.1190279 -7.124297e-07)
(0.03198194 -0.118775 -9.428142e-07)
(0.04106396 -0.1184647 3.085002e-06)
(0.05033388 -0.118056 1.216005e-06)
(0.004023213 -0.1277957 -1.036993e-05)
(0.01354277 -0.1284476 2.023221e-05)
(0.02298132 -0.128285 -4.706894e-07)
(0.03227128 -0.1280231 -2.172032e-06)