/*--------------------------------*- C++ -*----------------------------------*\
  =========                 |
  \\      /  F ield         | OpenFOAM: The Open Source CFD Toolbox
   \\    /   O peration     | Website:  https://openfoam.org
    \\  /    A nd           | Version:  7
     \\/     M anipulation  |
\*---------------------------------------------------------------------------*/
FoamFile
{
    version     2.0;
    format      ascii;
    class       volScalarField;
    location    "0.01";
    object      k;
}
// * * * * * * * * * * * * * * * * * * * * * * * * * * * * * * * * * * * * * //

dimensions      [0 2 -2 0 0 0 0];

internalField   nonuniform List<scalar> 
109978
(
0.003746961
0.003746834
0.003746817
0.003746806
0.003746792
0.003746775
0.003746932
0.003746748
0.003746713
0.003746698
0.003746682
0.003746663
0.003746941
0.003746755
0.003746712
0.003746695
0.003746679
0.003746661
0.003746952
0.003746768
0.003746726
0.003746709
0.003746692
0.003746674
0.003746968
0.003746785
0.003746743
0.003746726
0.00374671
0.003746692
0.003746988
0.003746806
0.003746764
0.003746747
0.003746731
0.003746713
0.003747012
0.003746831
0.003746789
0.003746772
0.003746756
0.003746738
0.003747039
0.00374686
0.003746818
0.003746801
0.003746785
0.003746767
0.00374707
0.003746893
0.003746851
0.003746834
0.003746818
0.0037468
0.003747106
0.003746929
0.003746888
0.003746871
0.003746855
0.003746837
0.003747145
0.00374697
0.003746929
0.003746912
0.003746896
0.003746878
0.003747188
0.003747015
0.003746974
0.003746957
0.003746941
0.003746923
0.003747235
0.003747065
0.003747024
0.003747007
0.00374699
0.003746972
0.003747286
0.003747118
0.003747078
0.003747061
0.003747044
0.003747025
0.003747342
0.003747177
0.003747136
0.003747119
0.003747102
0.003747083
0.003747402
0.00374724
0.003747199
0.003747182
0.003747165
0.003747146
0.003747467
0.003747308
0.003747267
0.00374725
0.003747233
0.003747214
0.003747537
0.003747381
0.003747341
0.003747323
0.003747305
0.003747286
0.003747612
0.003747459
0.003747419
0.003747401
0.003747383
0.003747364
0.003747692
0.003747543
0.003747503
0.003747485
0.003747467
0.003747447
0.003747778
0.003747633
0.003747593
0.003747574
0.003747556
0.003747536
0.00374787
0.00374773
0.00374769
0.003747671
0.003747652
0.003747631
0.003713082
0.003747834
0.003747794
0.003747774
0.003747754
0.003747733
0.003746699
0.00374665
0.003746635
0.003746622
0.003746605
0.003746585
0.003713063
0.003713001
0.003713
0.003713
0.003713
0.003713
0.003713055
0.003712999
0.003712999
0.003712999
0.003712999
0.003712999
0.003713055
0.003713
0.003712999
0.003712999
0.003712999
0.003712999
0.003713055
0.003713
0.003713
0.003713
0.003713
0.003713
0.003713056
0.003713
0.003713
0.003713
0.003713
0.003713
0.003713057
0.003713001
0.003713
0.003713
0.003713001
0.003713001
0.003713057
0.003713001
0.003713001
0.003713001
0.003713001
0.003713001
0.003713058
0.003713001
0.003713001
0.003713001
0.003713002
0.003713002
0.003713059
0.003713002
0.003713002
0.003713002
0.003713002
0.003713003
0.003713061
0.003713003
0.003713003
0.003713003
0.003713003
0.003713003
0.003713062
0.003713003
0.003713003
0.003713004
0.003713004
0.003713004
0.003713063
0.003713004
0.003713004
0.003713004
0.003713005
0.003713005
0.003713065
0.003713005
0.003713005
0.003713005
0.003713006
0.003713006
0.003713067
0.003713006
0.003713006
0.003713006
0.003713007
0.003713007
0.003713069
0.003713007
0.003713007
0.003713007
0.003713008
0.003713008
0.003713071
0.003713008
0.003713008
0.003713008
0.003713009
0.003713009
0.003713073
0.003713009
0.003713009
0.003713009
0.00371301
0.003713011
0.003713075
0.00371301
0.00371301
0.003713011
0.003713011
0.003713012
0.003713078
0.003713011
0.003713012
0.003713012
0.003713013
0.003713013
0.003713081
0.003713013
0.003713013
0.003713014
0.003713014
0.003713015
0.003713084
0.003713014
0.003713015
0.003713015
0.003713016
0.003713017
0.003713087
0.003713016
0.003713016
0.003713017
0.003713018
0.003713018
0.003713092
0.003713017
0.003713018
0.003713019
0.00371302
0.00371302
0.003746715
0.003746713
0.003746687
0.003746671
0.003746653
0.003746632
0.003713053
0.003712999
0.003712999
0.003712999
0.003712999
0.003712998
0.003713044
0.003712998
0.003712998
0.003712998
0.003712998
0.003712998
0.003713044
0.003712998
0.003712998
0.003712998
0.003712998
0.003712998
0.003713044
0.003712999
0.003712999
0.003712999
0.003712998
0.003712998
0.003713045
0.003712999
0.003712999
0.003712999
0.003712999
0.003712999
0.003713046
0.003712999
0.003712999
0.003712999
0.003712999
0.003712999
0.003713046
0.003713
0.003713
0.003713
0.003713
0.003713
0.003713047
0.003713
0.003713
0.003713
0.003713
0.003713001
0.003713048
0.003713001
0.003713001
0.003713001
0.003713001
0.003713001
0.003713049
0.003713001
0.003713002
0.003713002
0.003713002
0.003713002
0.00371305
0.003713002
0.003713002
0.003713002
0.003713003
0.003713003
0.003713051
0.003713003
0.003713003
0.003713003
0.003713003
0.003713004
0.003713053
0.003713004
0.003713004
0.003713004
0.003713004
0.003713005
0.003713054
0.003713004
0.003713005
0.003713005
0.003713005
0.003713006
0.003713056
0.003713005
0.003713006
0.003713006
0.003713006
0.003713007
0.003713057
0.003713006
0.003713007
0.003713007
0.003713007
0.003713008
0.003713059
0.003713007
0.003713008
0.003713008
0.003713009
0.003713009
0.003713061
0.003713008
0.003713009
0.003713009
0.00371301
0.00371301
0.003713063
0.00371301
0.00371301
0.003713011
0.003713011
0.003713012
0.003713066
0.003713011
0.003713012
0.003713012
0.003713013
0.003713013
0.003713068
0.003713013
0.003713013
0.003713014
0.003713014
0.003713015
0.003713071
0.003713014
0.003713015
0.003713016
0.003713016
0.003713017
0.003713073
0.003713016
0.003713017
0.003713017
0.003713018
0.003713019
0.003746721
0.003746726
0.003746697
0.00374668
0.003746662
0.00374664
0.003713053
0.003712999
0.003712999
0.003712999
0.003712999
0.003712998
0.003713044
0.003712998
0.003712998
0.003712998
0.003712998
0.003712998
0.003713044
0.003712998
0.003712998
0.003712998
0.003712998
0.003712998
0.003713044
0.003712998
0.003712999
0.003712998
0.003712998
0.003712998
0.003713045
0.003712999
0.003712999
0.003712999
0.003712999
0.003712999
0.003713045
0.003712999
0.003712999
0.003712999
0.003712999
0.003712999
0.003713046
0.003713
0.003713
0.003713
0.003713
0.003713
0.003713047
0.003713
0.003713
0.003713
0.003713
0.003713001
0.003713048
0.003713001
0.003713001
0.003713001
0.003713001
0.003713001
0.003713049
0.003713001
0.003713001
0.003713002
0.003713002
0.003713002
0.00371305
0.003713002
0.003713002
0.003713002
0.003713003
0.003713003
0.003713051
0.003713002
0.003713003
0.003713003
0.003713003
0.003713004
0.003713052
0.003713003
0.003713004
0.003713004
0.003713004
0.003713005
0.003713054
0.003713004
0.003713005
0.003713005
0.003713005
0.003713006
0.003713055
0.003713005
0.003713006
0.003713006
0.003713006
0.003713007
0.003713057
0.003713006
0.003713007
0.003713007
0.003713007
0.003713008
0.003713059
0.003713007
0.003713008
0.003713008
0.003713009
0.003713009
0.003713061
0.003713008
0.003713009
0.003713009
0.00371301
0.00371301
0.003713063
0.003713009
0.00371301
0.003713011
0.003713011
0.003713012
0.003713065
0.003713011
0.003713012
0.003713012
0.003713013
0.003713013
0.003713068
0.003713012
0.003713013
0.003713014
0.003713014
0.003713015
0.00371307
0.003713014
0.003713015
0.003713015
0.003713016
0.003713017
0.003713073
0.003713015
0.003713016
0.003713017
0.003713018
0.003713019
0.003746721
0.003746729
0.0037467
0.003746682
0.003746663
0.003746641
0.003713053
0.003712999
0.003712999
0.003712999
0.003712999
0.003712998
0.003713044
0.003712998
0.003712998
0.003712998
0.003712998
0.003712998
0.003713044
0.003712998
0.003712998
0.003712998
0.003712998
0.003712998
0.003713044
0.003712998
0.003712998
0.003712998
0.003712998
0.003712998
0.003713045
0.003712999
0.003712999
0.003712999
0.003712999
0.003712999
0.003713045
0.003712999
0.003712999
0.003712999
0.003712999
0.003712999
0.003713046
0.003712999
0.003713
0.003713
0.003713
0.003713
0.003713047
0.003713
0.003713
0.003713
0.003713
0.003713001
0.003713048
0.003713
0.003713001
0.003713001
0.003713001
0.003713001
0.003713049
0.003713001
0.003713001
0.003713002
0.003713002
0.003713002
0.00371305
0.003713002
0.003713002
0.003713002
0.003713003
0.003713003
0.003713051
0.003713002
0.003713003
0.003713003
0.003713003
0.003713004
0.003713052
0.003713003
0.003713003
0.003713004
0.003713004
0.003713005
0.003713054
0.003713004
0.003713004
0.003713005
0.003713005
0.003713006
0.003713055
0.003713005
0.003713005
0.003713006
0.003713006
0.003713007
0.003713057
0.003713006
0.003713006
0.003713007
0.003713007
0.003713008
0.003713059
0.003713007
0.003713007
0.003713008
0.003713009
0.003713009
0.003713061
0.003713008
0.003713009
0.003713009
0.00371301
0.00371301
0.003713063
0.003713009
0.00371301
0.003713011
0.003713011
0.003713012
0.003713065
0.00371301
0.003713011
0.003713012
0.003713013
0.003713013
0.003713068
0.003713012
0.003713013
0.003713014
0.003713014
0.003713015
0.00371307
0.003713013
0.003713014
0.003713015
0.003713016
0.003713017
0.003713073
0.003713015
0.003713016
0.003713017
0.003713018
0.003713019
0.003746721
0.003746729
0.003746699
0.003746682
0.003746663
0.003746641
0.003713053
0.003712999
0.003712999
0.003712999
0.003712999
0.003712998
0.003713044
0.003712998
0.003712998
0.003712998
0.003712998
0.003712998
0.003713044
0.003712998
0.003712998
0.003712998
0.003712998
0.003712998
0.003713044
0.003712998
0.003712998
0.003712998
0.003712998
0.003712998
0.003713045
0.003712999
0.003712999
0.003712999
0.003712999
0.003712999
0.003713045
0.003712999
0.003712999
0.003712999
0.003712999
0.003712999
0.003713046
0.003712999
0.003713
0.003713
0.003713
0.003713
0.003713047
0.003713
0.003713
0.003713
0.003713
0.003713001
0.003713048
0.003713
0.003713001
0.003713001
0.003713001
0.003713001
0.003713049
0.003713001
0.003713001
0.003713002
0.003713002
0.003713002
0.00371305
0.003713002
0.003713002
0.003713002
0.003713003
0.003713003
0.003713051
0.003713002
0.003713003
0.003713003
0.003713003
0.003713004
0.003713052
0.003713003
0.003713003
0.003713004
0.003713004
0.003713005
0.003713054
0.003713004
0.003713004
0.003713005
0.003713005
0.003713006
0.003713055
0.003713005
0.003713005
0.003713006
0.003713006
0.003713007
0.003713057
0.003713006
0.003713006
0.003713007
0.003713007
0.003713008
0.003713059
0.003713007
0.003713007
0.003713008
0.003713009
0.003713009
0.003713061
0.003713008
0.003713009
0.003713009
0.00371301
0.00371301
0.003713063
0.003713009
0.00371301
0.003713011
0.003713011
0.003713012
0.003713065
0.00371301
0.003713011
0.003713012
0.003713013
0.003713013
0.003713068
0.003713012
0.003713013
0.003713014
0.003713014
0.003713015
0.00371307
0.003713013
0.003713014
0.003713015
0.003713016
0.003713017
0.003713073
0.003713015
0.003713016
0.003713017
0.003713018
0.003713019
0.003746721
0.003746728
0.003746698
0.003746681
0.003746662
0.00374664
0.003713053
0.003712999
0.003712999
0.003712999
0.003712999
0.003712998
0.003713044
0.003712998
0.003712998
0.003712998
0.003712998
0.003712998
0.003713044
0.003712998
0.003712998
0.003712998
0.003712998
0.003712998
0.003713044
0.003712998
0.003712998
0.003712998
0.003712998
0.003712998
0.003713045
0.003712999
0.003712999
0.003712999
0.003712999
0.003712999
0.003713045
0.003712999
0.003712999
0.003712999
0.003712999
0.003712999
0.003713046
0.003712999
0.003713
0.003713
0.003713
0.003713
0.003713047
0.003713
0.003713
0.003713
0.003713
0.003713001
0.003713048
0.003713
0.003713001
0.003713001
0.003713001
0.003713001
0.003713049
0.003713001
0.003713001
0.003713002
0.003713002
0.003713002
0.00371305
0.003713002
0.003713002
0.003713002
0.003713003
0.003713003
0.003713051
0.003713002
0.003713003
0.003713003
0.003713003
0.003713004
0.003713052
0.003713003
0.003713004
0.003713004
0.003713004
0.003713005
0.003713054
0.003713004
0.003713005
0.003713005
0.003713005
0.003713006
0.003713055
0.003713005
0.003713005
0.003713006
0.003713006
0.003713007
0.003713057
0.003713006
0.003713006
0.003713007
0.003713007
0.003713008
0.003713059
0.003713007
0.003713008
0.003713008
0.003713009
0.003713009
0.003713061
0.003713008
0.003713009
0.003713009
0.00371301
0.00371301
0.003713063
0.003713009
0.00371301
0.003713011
0.003713011
0.003713012
0.003713065
0.003713011
0.003713011
0.003713012
0.003713013
0.003713013
0.003713068
0.003713012
0.003713013
0.003713014
0.003713014
0.003713015
0.00371307
0.003713014
0.003713015
0.003713015
0.003713016
0.003713017
0.003713073
0.003713015
0.003713016
0.003713017
0.003713018
0.003713019
0.003746719
0.003746722
0.003746695
0.003746678
0.00374666
0.003746639
0.003713053
0.003712999
0.003712999
0.003712999
0.003712999
0.003712998
0.003713044
0.003712998
0.003712998
0.003712998
0.003712998
0.003712998
0.003713044
0.003712998
0.003712998
0.003712998
0.003712998
0.003712998
0.003713044
0.003712999
0.003712999
0.003712998
0.003712998
0.003712998
0.003713045
0.003712999
0.003712999
0.003712999
0.003712999
0.003712999
0.003713045
0.003712999
0.003712999
0.003712999
0.003712999
0.003712999
0.003713046
0.003713
0.003713
0.003713
0.003713
0.003713
0.003713047
0.003713
0.003713
0.003713
0.003713
0.003713001
0.003713048
0.003713001
0.003713001
0.003713001
0.003713001
0.003713001
0.003713049
0.003713001
0.003713001
0.003713002
0.003713002
0.003713002
0.00371305
0.003713002
0.003713002
0.003713002
0.003713003
0.003713003
0.003713051
0.003713003
0.003713003
0.003713003
0.003713003
0.003713004
0.003713052
0.003713003
0.003713004
0.003713004
0.003713004
0.003713005
0.003713054
0.003713004
0.003713005
0.003713005
0.003713005
0.003713006
0.003713055
0.003713005
0.003713006
0.003713006
0.003713006
0.003713007
0.003713057
0.003713006
0.003713007
0.003713007
0.003713007
0.003713008
0.003713059
0.003713007
0.003713008
0.003713008
0.003713009
0.003713009
0.003713061
0.003713008
0.003713009
0.003713009
0.00371301
0.00371301
0.003713063
0.00371301
0.00371301
0.003713011
0.003713011
0.003713012
0.003713065
0.003713011
0.003713012
0.003713012
0.003713013
0.003713013
0.003713068
0.003713012
0.003713013
0.003713014
0.003713014
0.003713015
0.00371307
0.003713014
0.003713015
0.003713015
0.003713016
0.003713017
0.003713073
0.003713016
0.003713017
0.003713017
0.003713018
0.003713019
0.003746701
0.003746675
0.003746664
0.003746649
0.003746632
0.003746612
0.003713054
0.003713001
0.003713
0.003713
0.003713
0.003713
0.003713045
0.003712999
0.003712999
0.003712999
0.003712999
0.003712999
0.003713046
0.003712999
0.003712999
0.003712999
0.003712999
0.003712999
0.003713046
0.003713
0.003713
0.003713
0.003713
0.003713
0.003713047
0.003713
0.003713
0.003713
0.003713
0.003713
0.003713047
0.003713
0.003713
0.003713
0.003713001
0.003713001
0.003713048
0.003713001
0.003713001
0.003713001
0.003713001
0.003713001
0.003713049
0.003713001
0.003713001
0.003713001
0.003713002
0.003713002
0.00371305
0.003713002
0.003713002
0.003713002
0.003713002
0.003713003
0.003713051
0.003713002
0.003713002
0.003713003
0.003713003
0.003713003
0.003713052
0.003713003
0.003713003
0.003713003
0.003713004
0.003713004
0.003713053
0.003713004
0.003713004
0.003713004
0.003713005
0.003713005
0.003713055
0.003713005
0.003713005
0.003713005
0.003713006
0.003713006
0.003713056
0.003713005
0.003713006
0.003713006
0.003713007
0.003713007
0.003713058
0.003713006
0.003713007
0.003713007
0.003713008
0.003713008
0.003713059
0.003713007
0.003713008
0.003713008
0.003713009
0.003713009
0.003713061
0.003713008
0.003713009
0.003713009
0.00371301
0.003713011
0.003713063
0.00371301
0.00371301
0.003713011
0.003713011
0.003713012
0.003713066
0.003713011
0.003713011
0.003713012
0.003713013
0.003713013
0.003713068
0.003713012
0.003713013
0.003713013
0.003713014
0.003713015
0.003713071
0.003713014
0.003713014
0.003713015
0.003713016
0.003713017
0.003713073
0.003713015
0.003713016
0.003713017
0.003713018
0.003713018
0.003713092
0.003713017
0.003713018
0.003713019
0.00371302
0.00371302
0.003742268
0.003743554
0.003743564
0.003743515
0.003743452
0.003743374
0.003713248
0.003713042
0.003713043
0.003713043
0.003713043
0.003713042
0.003713043
0.003713228
0.003713043
0.003713042
0.003713042
0.003713041
0.003713041
0.003713042
0.003713229
0.003713041
0.003713042
0.003713041
0.003713041
0.003713041
0.003713043
0.00371323
0.003713041
0.003713042
0.003713042
0.003713042
0.003713042
0.003713043
0.003713231
0.003713042
0.003713043
0.003713043
0.003713043
0.003713043
0.003713044
0.003713233
0.003713043
0.003713044
0.003713043
0.003713044
0.003713044
0.003713046
0.003713235
0.003713043
0.003713044
0.003713044
0.003713045
0.003713045
0.003713047
0.003713237
0.003713044
0.003713045
0.003713045
0.003713046
0.003713046
0.003713048
0.00371324
0.003713045
0.003713047
0.003713047
0.003713047
0.003713048
0.00371305
0.003713243
0.003713046
0.003713048
0.003713048
0.003713049
0.003713049
0.003713051
0.003713247
0.003713048
0.003713049
0.003713049
0.00371305
0.003713051
0.003713053
0.003713251
0.003713049
0.00371305
0.003713051
0.003713052
0.003713052
0.003713054
0.003713255
0.00371305
0.003713052
0.003713052
0.003713053
0.003713054
0.003713056
0.003713259
0.003713052
0.003713054
0.003713054
0.003713055
0.003713056
0.003713058
0.003713264
0.003713054
0.003713055
0.003713056
0.003713057
0.003713058
0.003713061
0.00371327
0.003713056
0.003713057
0.003713058
0.003713059
0.00371306
0.003713063
0.003713276
0.003713058
0.003713059
0.00371306
0.003713061
0.003713063
0.003713065
0.003713282
0.00371306
0.003713062
0.003713063
0.003713064
0.003713065
0.003713068
0.003713289
0.003713063
0.003713064
0.003713065
0.003713066
0.003713068
0.003713071
0.003713296
0.003713065
0.003713067
0.003713068
0.003713069
0.003713071
0.003713074
0.003713304
0.003713068
0.00371307
0.003713071
0.003713072
0.003713074
0.003713077
0.003713312
0.003713071
0.003713073
0.003713074
0.003713075
0.003713077
0.00371308
0.00371332
0.003747997
0.003713076
0.003713077
0.003713079
0.00371308
0.003713084
0.00374436
0.003742976
0.00371326
0.00371304
0.00374386
0.003743645
0.003713233
0.003713058
0.003713229
0.003713056
0.003743695
0.003743708
0.003713208
0.003713051
0.003713228
0.00371305
0.003743735
0.003743739
0.003713209
0.003713051
0.003713229
0.003713051
0.003743762
0.00374377
0.00371321
0.003713052
0.003713231
0.003713051
0.003743801
0.003743809
0.003713211
0.003713052
0.003713233
0.003713052
0.003743848
0.003743857
0.003713213
0.003713053
0.003713236
0.003713053
0.003743903
0.003743913
0.003713215
0.003713054
0.003713238
0.003713054
0.003743967
0.003743977
0.003713217
0.003713056
0.003713242
0.003713055
0.003744039
0.00374405
0.00371322
0.003713057
0.003713246
0.003713056
0.00374412
0.003744132
0.003713223
0.003713058
0.00371325
0.003713058
0.00374421
0.003744222
0.003713226
0.00371306
0.003713255
0.003713059
0.003744309
0.003744322
0.00371323
0.003713062
0.00371326
0.003713061
0.003744417
0.003744431
0.003713233
0.003713064
0.003713266
0.003713063
0.003744535
0.00374455
0.003713238
0.003713066
0.003713272
0.003713065
0.003744663
0.003744679
0.003713242
0.003713068
0.003713279
0.003713067
0.003744802
0.003744818
0.003713247
0.003713071
0.003713287
0.00371307
0.003744951
0.003744968
0.003713253
0.003713074
0.003713295
0.003713072
0.003745111
0.003745129
0.003713259
0.003713077
0.003713305
0.003713075
0.003745282
0.003745301
0.003713265
0.00371308
0.003713315
0.003713078
0.003745466
0.003745486
0.003713272
0.003713084
0.003713325
0.003713081
0.003745663
0.003745684
0.003713279
0.003713087
0.003713336
0.003713085
0.003745873
0.003745895
0.003713286
0.003713092
0.003713348
0.003713089
0.0037461
0.003713185
0.00371332
0.003713096
0.003713334
0.003713066
0.003742658
0.003713228
0.003713051
0.003742583
0.003713223
0.003713051
0.003742678
0.003713203
0.003713046
0.003742674
0.003713222
0.003713045
0.003742692
0.003713202
0.003713046
0.0037427
0.003713222
0.003713045
0.003742695
0.003713202
0.003713045
0.003742699
0.003713221
0.003713045
0.003742695
0.003713202
0.003713045
0.003742699
0.003713221
0.003713045
0.003742691
0.003713202
0.003713045
0.003742698
0.003713222
0.003713045
0.003742671
0.003713202
0.003713045
0.00374268
0.003713222
0.003713046
0.003742578
0.003713204
0.003713051
0.003742668
0.003713244
0.003713051
0.003742966
0.003713241
0.00371304
0.00374436
0.003713038
0.003713228
0.003713056
0.003743863
0.003743645
0.003713031
0.003713228
0.00371305
0.003743698
0.003743708
0.003713031
0.003713229
0.003713051
0.003743738
0.003743738
0.003713033
0.003713235
0.003713053
0.003743851
0.003743856
0.003713034
0.003713238
0.003713054
0.003743906
0.003743912
0.003713035
0.003713241
0.003713055
0.00374397
0.003743977
0.003713036
0.003713245
0.003713056
0.003744042
0.00374405
0.003713037
0.003713249
0.003713058
0.003744123
0.003744131
0.003713039
0.003713254
0.003713059
0.003744213
0.003744222
0.00371304
0.00371326
0.003713061
0.003744312
0.003744322
0.003713042
0.003713265
0.003713063
0.00374442
0.003744431
0.003713044
0.003713272
0.003713065
0.003744538
0.003744549
0.003713046
0.003713279
0.003713067
0.003744666
0.003744678
0.003713048
0.003713286
0.003713069
0.003744805
0.003744817
0.00371305
0.003713295
0.003713072
0.003744954
0.003744967
0.003713053
0.003713304
0.003713075
0.003745114
0.003745128
0.003713056
0.003713314
0.003713078
0.003745286
0.003745301
0.003713062
0.003713336
0.003713085
0.003745667
0.003745685
0.003713065
0.003713347
0.003713089
0.003745877
0.003745896
0.003713096
0.003713334
0.003713093
0.003746102
0.003713179
0.003713155
0.003740527
0.003744372
0.003744657
0.003742264
0.003743554
0.003713052
0.003713055
0.003744616
0.003744647
0.003743552
0.003743587
0.003713057
0.003713058
0.00374461
0.003744615
0.003743563
0.003743534
0.003713059
0.003713058
0.00374458
0.003744578
0.003743514
0.003743475
0.003713059
0.003713057
0.003744541
0.00374453
0.00374345
0.003743403
0.003713058
0.003713057
0.003744494
0.003743372
0.003713058
0.003713171
0.003739173
0.003713169
0.003739192
0.003713169
0.003739248
0.003713168
0.00373925
0.003713169
0.003739315
0.003713168
0.003739316
0.00371317
0.003739385
0.003713169
0.003739385
0.003713172
0.003739471
0.003713171
0.003739471
0.003713174
0.003739577
0.003713173
0.003739577
0.003713176
0.003739703
0.003713175
0.003739703
0.003713179
0.003739849
0.003713177
0.003739849
0.003713182
0.003740015
0.00371318
0.003740015
0.003713185
0.003740201
0.003713183
0.003740202
0.003713189
0.003740408
0.003713187
0.003740409
0.003713193
0.003740637
0.003713191
0.003740638
0.003713198
0.003740887
0.003713196
0.003740888
0.003713203
0.00374116
0.003713201
0.003741161
0.003713209
0.003741456
0.003713206
0.003741458
0.003713215
0.003741777
0.003713212
0.003741778
0.003713221
0.003742122
0.003713218
0.003742123
0.003713228
0.003742493
0.003713225
0.003742495
0.003713236
0.003742891
0.003713233
0.003742893
0.003713245
0.003743318
0.003713241
0.00374332
0.003713254
0.003743774
0.00371325
0.003743777
0.003713264
0.003744261
0.00371326
0.003744265
0.003713274
0.003744781
0.00371327
0.003744784
0.003713151
0.003713156
0.003713151
0.003713149
0.003713155
0.00371315
0.00371315
0.003713151
0.003713152
0.00371315
0.003713151
0.003713151
0.003713152
0.003713151
0.00371315
0.003713152
0.003713152
0.003713159
0.003743546
0.003713052
0.003713055
0.003744372
0.003744657
0.003743579
0.003713057
0.003713058
0.003744617
0.003744647
0.003743525
0.003713058
0.003713058
0.003744611
0.003744616
0.003743467
0.003713058
0.003713057
0.003744581
0.003744578
0.003743393
0.003713058
0.003713057
0.003744542
0.00374453
0.003713057
0.003744496
0.003713032
0.003713231
0.003713051
0.003743766
0.00374377
0.003713032
0.003713233
0.003713052
0.003743804
0.003743809
0.003713059
0.003713325
0.003713081
0.003745469
0.003745486
0.003713268
0.003741278
0.00371332
0.003740387
0.00371314
0.003739282
0.003713171
0.003739494
0.003713153
0.003713157
0.003713168
0.00373921
0.003713169
0.003739212
0.003713168
0.003739279
0.003713168
0.003739276
0.003713169
0.003739344
0.003713169
0.003739343
0.00371317
0.00373942
0.00371317
0.003739419
0.003713172
0.003739515
0.003713172
0.003739514
0.003713174
0.00373963
0.003713174
0.003739628
0.003713177
0.003739765
0.003713177
0.003739763
0.003713179
0.00373992
0.003713179
0.003739917
0.003713182
0.003740095
0.003713183
0.003740092
0.003713186
0.003740291
0.003713186
0.003740287
0.00371319
0.003740507
0.00371319
0.003740504
0.003713194
0.003740746
0.003713195
0.003740741
0.003713199
0.003741006
0.0037132
0.003741002
0.003713204
0.00374129
0.003713205
0.003741284
0.003713209
0.003741596
0.003713211
0.003741591
0.003713216
0.003741928
0.003713217
0.003741922
0.003713222
0.003742285
0.003713224
0.003742278
0.00371323
0.003742668
0.003713232
0.003742661
0.003713238
0.003743079
0.00371324
0.003743071
0.003713246
0.003743519
0.003713249
0.003743511
0.003713255
0.003743989
0.003713259
0.00374398
0.003713265
0.003744491
0.003713269
0.003744482
0.003713276
0.003713432
0.003745016
0.003713231
0.00371315
0.00371315
0.003713151
0.003713153
0.00371315
0.003713149
0.003713151
0.003713151
0.003713151
0.00371315
0.003713151
0.003713151
0.003713152
0.003713148
0.003713152
0.003713153
0.003713155
0.003740527
0.003713268
0.003741278
0.00371332
0.003740387
0.00371314
0.003739283
0.003713172
0.003739496
0.003713171
0.003739172
0.003713168
0.003739192
0.003713168
0.003739211
0.003713169
0.003739212
0.003713169
0.003739248
0.003713167
0.003739251
0.003713168
0.00373928
0.003713168
0.003739276
0.003713169
0.003739315
0.003713168
0.003739316
0.003713174
0.003739577
0.003713173
0.003739577
0.003713174
0.003739631
0.003713175
0.003739629
0.003713176
0.003739703
0.003713174
0.003739703
0.003713176
0.003739766
0.003713177
0.003739763
0.003713179
0.003739849
0.003713177
0.003739849
0.003713179
0.003739921
0.00371318
0.003739917
0.003713182
0.003740015
0.00371318
0.003740015
0.003713182
0.003740096
0.003713183
0.003740092
0.003713185
0.003740201
0.003713183
0.003740202
0.003713186
0.003740291
0.003713187
0.003740287
0.003713193
0.003740637
0.003713191
0.003740638
0.003713194
0.003740746
0.003713195
0.003740742
0.003713198
0.003740887
0.003713195
0.003740888
0.003713199
0.003741007
0.0037132
0.003741002
0.003713209
0.003741457
0.003713206
0.003741458
0.003713209
0.003741597
0.003713211
0.003741591
0.003713216
0.003741929
0.003713218
0.003741922
0.003713221
0.003742121
0.003713218
0.003742124
0.003713222
0.003742285
0.003713225
0.003742278
0.003713229
0.003742492
0.003713225
0.003742498
0.003713264
0.003744267
0.00371326
0.003744267
0.003713265
0.003744495
0.00371327
0.003744486
0.003713274
0.003744786
0.00371327
0.003744789
0.003713276
0.003745031
0.003745022
0.003713231
0.003741465
0.00374244
0.003743126
0.003743139
0.003743073
0.003743086
0.003743132
0.003743142
0.003743029
0.003743152
0.003743119
0.003743141
0.003743149
0.003743133
0.003743111
0.003743058
0.003743108
0.003743113
0.00374328
0.003743337
0.003743363
0.003743147
0.003743061
0.003743086
0.003743122
0.003743023
0.0037431
0.003743137
0.003743147
0.003743079
0.003743134
0.0037431
0.003743095
0.003743081
0.003743138
0.003743141
0.003743076
0.003743203
0.003741454
0.003742442
0.003740136
0.003740248
0.003740367
0.003739986
0.003713321
0.003740895
0.00371332
0.003740865
0.003713318
0.003740825
0.003740807
0.003713314
0.003713317
0.003740804
0.003713314
0.003740785
0.003713317
0.003740818
0.003740806
0.003713313
0.003713169
0.003739344
0.003713169
0.003739343
0.003713322
0.003741076
0.00371332
0.003741068
0.003713324
0.003741172
0.003713321
0.003741147
0.003713325
0.003741201
0.003741195
0.003713321
0.003713327
0.003741314
0.003713324
0.003741287
0.003713328
0.003741347
0.003741343
0.003713324
0.003713335
0.00374166
0.003713332
0.00374163
0.003713336
0.003741703
0.0037417
0.003713332
0.003713189
0.003740408
0.003713187
0.003740412
0.00371319
0.003740507
0.00371319
0.003740507
0.003713345
0.003742143
0.003742143
0.003713343
0.003713349
0.00374234
0.003713345
0.003742303
0.00371335
0.003742397
0.003742398
0.003713347
0.003713354
0.003742612
0.003713351
0.003742573
0.003713203
0.00374116
0.0037132
0.003741161
0.003713204
0.003741289
0.003713205
0.003741284
0.003713362
0.003742974
0.003742978
0.003713361
0.003713367
0.003743226
0.003713363
0.003743183
0.003713214
0.003741776
0.003713212
0.003741778
0.00371323
0.003742671
0.003713233
0.003742663
0.003713236
0.003742894
0.003713233
0.003742896
0.003713238
0.003743082
0.003713241
0.003743074
0.003713254
0.003743778
0.00371325
0.003743781
0.003713256
0.003743994
0.003713259
0.003743985
0.003713421
0.003745825
0.00374584
0.003713424
0.003713431
0.003746235
0.003713425
0.003746174
0.003713432
0.003746354
0.003746372
0.003713434
0.003713443
0.003746774
0.003746727
0.003713436
0.003743035
0.00374299
0.00374318
0.003743187
0.003743137
0.003743148
0.003743008
0.003743122
0.003743069
0.003743082
0.00374304
0.003743045
0.003743049
0.003743088
0.003743167
0.003743089
0.003743128
0.003743161
0.00374328
0.003743151
0.003741338
0.003713226
0.003741048
0.003713291
0.003741439
0.003741033
0.003713224
0.003713288
0.003741336
0.003741168
0.003713252
0.003713223
0.00374144
0.003741062
0.003713231
0.00371328
0.00374132
0.00374112
0.003713248
0.003713231
0.003741367
0.003741013
0.003713231
0.003713278
0.003741256
0.00374104
0.003713246
0.003713231
0.003741273
0.003740932
0.00371323
0.003713275
0.003741169
0.003740941
0.003713243
0.00371323
0.003741159
0.003740832
0.003713228
0.003713272
0.00374106
0.00371324
0.003713228
0.003739384
0.003713169
0.003739385
0.00371317
0.003739421
0.003739418
0.00371317
0.00371317
0.003739471
0.003739471
0.003713172
0.00371317
0.003739514
0.003713172
0.003739514
0.003713172
0.003743321
0.003713242
0.003743324
0.003713245
0.003743522
0.003713249
0.003743515
0.003713246
0.003743323
0.003743196
0.003743137
0.003743156
0.003743144
0.003743078
0.003743126
0.003743141
0.003743134
0.003743058
0.003743138
0.003743124
0.003743094
0.003743096
0.003743112
0.003743045
0.003743087
0.003743166
0.00374306
0.003742915
0.003740594
0.003740267
0.003739885
0.003740918
0.003713485
0.003741282
0.003740156
0.003713428
0.003740118
0.003739935
0.003740368
0.003739947
0.003713324
0.00374083
0.003713323
0.003740947
0.003713315
0.003740784
0.003740773
0.003713314