/*--------------------------------*- C++ -*----------------------------------*\
  =========                 |
  \\      /  F ield         | OpenFOAM: The Open Source CFD Toolbox
   \\    /   O peration     | Website:  https://openfoam.org
    \\  /    A nd           | Version:  7
     \\/     M anipulation  |
\*---------------------------------------------------------------------------*/
FoamFile
{
    version     2.0;
    format      ascii;
    class       volScalarField;
    location    "0.01";
    object      p;
}
// * * * * * * * * * * * * * * * * * * * * * * * * * * * * * * * * * * * * * //

dimensions      [0 2 -2 0 0 0 0];

internalField   nonuniform List<scalar> 
109978
(
0.09069353
0.1227525
0.1491883
0.1676595
0.1864869
0.2049114
0.1190989
0.1579393
0.1855687
0.2046862
0.2235681
0.2422673
0.1272971
0.1729713
0.2053929
0.2223997
0.2405092
0.2586507
0.1263007
0.1814469
0.2117738
0.2286379
0.2466727
0.2648449
0.1285669
0.1843863
0.21488
0.2318677
0.2500294
0.2682798
0.130224
0.1868733
0.2168979
0.2343358
0.2527071
0.2711427
0.1323732
0.1891364
0.2188664
0.2368282
0.2554806
0.2742906
0.1347752
0.191201
0.2210176
0.2395005
0.2585453
0.2777699
0.1373823
0.1932044
0.2234015
0.2424559
0.2619693
0.2816242
0.1401635
0.1952477
0.2260765
0.2457673
0.2657462
0.2858338
0.1429536
0.1974637
0.2291213
0.2494244
0.2698983
0.2903254
0.1456896
0.1999053
0.2325484
0.2534321
0.2744057
0.2950967
0.1484254
0.2026547
0.2363276
0.2577905
0.2792345
0.3001325
0.1512528
0.2057256
0.2404521
0.2625276
0.2843728
0.3055662
0.1542262
0.2091185
0.2449271
0.2676279
0.2897999
0.3115522
0.1573649
0.2128357
0.2497599
0.2730921
0.295589
0.3180925
0.1606772
0.2168841
0.2549545
0.2789305
0.3018388
0.3251257
0.1642093
0.2212501
0.2605051
0.285108
0.3086388
0.332607
0.1679331
0.225973
0.2664432
0.2916984
0.3159739
0.3405904
0.1718689
0.2310541
0.272795
0.2986691
0.3238438
0.349125
0.1760425
0.2364973
0.2795764
0.3060985
0.3321977
0.3582137
0.1804627
0.2423244
0.2867837
0.3141145
0.3411159
0.3679254
0.06959181
0.248574
0.2944994
0.3227836
0.3506903
0.3783183
0.05936614
0.1260104
0.1498589
0.1685287
0.187599
0.2059903
0.008432564
0.01992235
0.04117482
0.069195
0.08530397
0.1062305
0.004614077
0.02342095
0.04229156
0.06593126
0.08590231
0.1069844
0.00505465
0.03236363
0.04211847
0.0714931
0.08749858
0.1078468
0.004403321
0.02848618
0.04139148
0.06971195
0.08713371
0.1080172
0.00497128
0.03239804
0.04342709
0.07195552
0.08860638
0.1091752
0.004974518
0.03183182
0.04330285
0.07206965
0.08901135
0.1097442
0.005202526
0.0326819
0.0440488
0.07288744
0.0899124
0.1107729
0.00541361
0.03306581
0.04449697
0.07353803
0.09073293
0.1117838
0.005644985
0.03351271
0.04499839
0.07429887
0.09168666
0.1129801
0.005887169
0.03396876
0.045506
0.0751382
0.09275023
0.1143211
0.006141477
0.03447061
0.04605397
0.07608481
0.09394621
0.1158186
0.006411907
0.0350207
0.0466399
0.07714605
0.09528072
0.1174666
0.006704708
0.03562057
0.04728973
0.07832865
0.09675894
0.1192607
0.007024712
0.03627202
0.04801766
0.07963876
0.09838802
0.1212116
0.007379724
0.03697595
0.04883197
0.0810819
0.1001773
0.1233428
0.007762151
0.03773371
0.04973228
0.08265204
0.1021184
0.1256156
0.008170418
0.03855589
0.05072228
0.08436526
0.1042151
0.1280842
0.008625772
0.03943993
0.05179914
0.08623102
0.1064452
0.1308082
0.009113718
0.04040226
0.05298367
0.08826379
0.108849
0.1337472
0.009634006
0.04143306
0.0542793
0.09045325
0.111426
0.1368955
0.01018397
0.04254492
0.05569818
0.09281276
0.1142196
0.1403286
0.01075775
0.04372014
0.05724814
0.0953298
0.1172628
0.1440345
0.007116175
0.04498942
0.05893461
0.09804248
0.1205724
0.1480502
0.07057079
0.1548257
0.1810312
0.199381
0.2184093
0.2368506
0.006582784
0.01692482
0.04577502
0.06765472
0.08559599
0.1057747
0.00301119
0.02295495
0.05069654
0.06289771
0.0857871
0.1054581
0.003848002
0.02869586
0.05020976
0.06828842
0.08738446
0.1063897
0.003188564
0.02338811
0.04964011
0.06528739
0.08669059
0.1064792
0.003617822
0.02724412
0.05186328
0.06776526
0.0883458
0.1076803
0.003589872
0.0257886
0.05139528
0.06753574
0.08862242
0.108201
0.003704034
0.02658501
0.05227183
0.06841166
0.08960664
0.1092937
0.003796617
0.02679235
0.05274809
0.06904396
0.09045465
0.1103091
0.003887992
0.02714708
0.05335277
0.06981485
0.09145323
0.1115081
0.003982923
0.02751419
0.0539962
0.07065402
0.09254327
0.1128211
0.004082684
0.02792004
0.05470751
0.0715887
0.09375191
0.1142814
0.004188074
0.02836728
0.05549563
0.07262081
0.09508287
0.115901
0.004301092
0.02886214
0.05636625
0.07376034
0.09655078
0.1176953
0.004422955
0.02940021
0.05731995
0.07500765
0.09815953
0.1196576
0.004554962
0.02998548
0.05836085
0.07636741
0.09991418
0.1217479
0.004696275
0.03061938
0.05949445
0.0778509
0.1018286
0.1240575
0.004846911
0.03130847
0.06072608
0.07946811
0.1039082
0.1265676
0.005008355
0.03205465
0.06205916
0.08122324
0.106161
0.1292802
0.005180341
0.03286623
0.06349699
0.08312552
0.1085948
0.1322057
0.005363645
0.0337545
0.06504664
0.08517861
0.1112273
0.1353573
0.00555861
0.03473141
0.06670924
0.08739161
0.1140538
0.1387336
0.005766335
0.03580785
0.06850827
0.0897839
0.1171021
0.1423672
0.005991908
0.03695332
0.07043249
0.09233724
0.1203336
0.1462344
0.0699008
0.1713808
0.1983624
0.2159856
0.2343747
0.2523319
0.007159136
0.02063017
0.04448342
0.0707251
0.08614471
0.1065074
0.003805195
0.02222699
0.0468904
0.06402763
0.08579614
0.10597
0.005643014
0.03487286
0.04825027
0.07219716
0.08862992
0.1076055
0.004908877
0.02900204
0.04690573
0.06871166
0.08769338
0.1075313
0.005352239
0.03501795
0.05002803
0.07204765
0.08986089
0.1090524
0.005320838
0.03331682
0.04941098
0.07176258
0.09010312
0.1095187
0.005454006
0.03447914
0.05045948
0.07281509
0.09120472
0.1106915
0.005557412
0.03475574
0.05094084
0.07351483
0.09208702
0.1117232
0.005662313
0.03520153
0.05155443
0.07435748
0.09312556
0.112957
0.005771869
0.03564928
0.05218883
0.07526315
0.09425218
0.114304
0.005888687
0.03613727
0.0528813
0.0762635
0.09549702
0.1157994
0.006013925
0.03667262
0.05364065
0.07736433
0.09687019
0.1174456
0.006148444
0.03726007
0.054475
0.07857659
0.09837622
0.1192542
0.00629275
0.03790284
0.05539036
0.07990251
0.100027
0.1212294
0.006447278
0.03860295
0.05639098
0.08134838
0.1018231
0.1233656
0.006612651
0.03936353
0.05748152
0.08292025
0.1037755
0.1256749
0.006789204
0.04018834
0.05866634
0.08462784
0.105888
0.1281819
0.006977266
0.04108029
0.05995095
0.08648035
0.1081732
0.1309034
0.007178181
0.04204405
0.06134389
0.08848944
0.1106428
0.133849
0.007392182
0.0430828
0.06285496
0.09066948
0.1133171
0.1370342
0.007617125
0.04420199
0.06449305
0.09303349
0.1162119
0.1404854
0.00784931
0.04541419
0.06628727
0.09561851
0.1193844
0.1442384
0.008087712
0.04673017
0.06822556
0.09840564
0.1227971
0.1482449
0.06521092
0.1810041
0.2006107
0.2195706
0.2388487
0.2574209
0.006868288
0.01747144
0.0440744
0.06889512
0.08512779
0.1057698
0.003513763
0.0178831
0.04768355
0.06175634
0.08481816
0.1051844
0.005267253
0.03079353
0.04779452
0.06965472
0.08734609
0.1065721
0.004346577
0.02334054
0.04607709
0.06550735
0.08610304
0.1063429
0.004742407
0.02950875
0.0491796
0.06885927
0.08826725
0.1078456
0.004687348
0.02738414
0.04834713
0.06839556
0.08841182
0.1082468
0.004819557
0.02851023
0.0493932
0.06942946
0.08950575
0.109415
0.004921772
0.02869746
0.04984846
0.0700924
0.09036889
0.1104283
0.005026213
0.02908125
0.05045834
0.07090632
0.09139537
0.1116471
0.005135127
0.02946469
0.05109042
0.071782
0.0925034
0.1129728
0.005250508
0.02988332
0.05178315
0.07274545
0.09372864
0.1144456
0.005373138
0.03034104
0.0525394
0.07380464
0.09507444
0.1160643
0.005504155
0.03084217
0.05337087
0.07496594
0.09655125
0.1178446
0.005644085
0.03138983
0.05427879
0.07623779
0.09816678
0.1197865
0.00579308
0.0319868
0.0552715
0.07762211
0.09992794
0.1219018
0.005952299
0.03263618
0.05634978
0.07912983
0.1018408
0.1241991
0.006122129
0.03334117
0.05752344
0.08076335
0.1039149
0.1266847
0.006302974
0.03410498
0.05878998
0.08253377
0.106152
0.129372
0.006496429
0.03493109
0.06015902
0.08443851
0.1085625
0.1322655
0.00670355
0.03582503
0.06162984
0.08649156
0.1111503
0.1353841
0.006925181
0.0367804
0.06319417
0.08866713
0.11389
0.1387041
0.007162899
0.03780984
0.06487396
0.09102481
0.1168436
0.142351
0.007413043
0.03887047
0.06660317
0.09345768
0.1198495
0.1461496
0.06589396
0.1794337
0.2012305
0.2203825
0.2393968
0.2577432
0.006862045
0.0175562
0.0441093
0.06891973
0.08513313
0.1057782
0.003498786
0.01788395
0.04767989
0.0617538
0.08481591
0.1051785
0.005238614
0.03079478
0.04779432
0.06965415
0.08734426
0.1065708
0.004328117
0.02334112
0.04607666
0.0655053
0.0861016
0.106342
0.004728814
0.02950824
0.04917979
0.06885884
0.08826658
0.1078446
0.004670566
0.02738415
0.04834819
0.06839558
0.08841266
0.108246
0.004803078
0.02851107
0.04939431
0.06943108
0.08950684
0.109414
0.004905548
0.02869838
0.04985076
0.07009391
0.09037107
0.1104282
0.005010131
0.02908296
0.05046058
0.07090899
0.09139812
0.1116454
0.005119551
0.02946608
0.05109449
0.07178433
0.09250677
0.1129735
0.005235175
0.02988454
0.05178723
0.07274865
0.09373261
0.1144429
0.005357995
0.03034207
0.05254485
0.07380736
0.09507813
0.1160646
0.005489143
0.03084338
0.05337556
0.07496906
0.09655531
0.1178408
0.005629608
0.03139109
0.05428402
0.07623985
0.09817081
0.1197859
0.005779327
0.03198859
0.05527569
0.07762559
0.09993211
0.1218982
0.005939413
0.03263774
0.0563565
0.07913544
0.1018498
0.1242011
0.006110254
0.0333447
0.05753196
0.08077558
0.103932
0.1266955
0.00629265
0.03411327
0.05880954
0.08256033
0.1061895
0.1294016
0.006488058
0.03495343
0.06019984
0.08450195
0.1086387
0.1323283
0.006697985
0.03587738
0.06172272
0.08663191
0.1113159
0.1355112
0.006924978
0.03689078
0.06337879
0.08894683
0.1142036
0.1389223
0.007171464
0.03803301
0.06524043
0.09155318
0.1174303
0.1426674
0.007432914
0.03925858
0.06722848
0.09433487
0.1208799
0.1465672
0.06762172
0.1808351
0.203459
0.2204377
0.2388012
0.2568519
0.007030882
0.02042884
0.04443171
0.07070204
0.08613821
0.1064969
0.004075107
0.02220092
0.04688587
0.06402483
0.08579564
0.1059728
0.005728961
0.03485382
0.04824302
0.07219333
0.08862547
0.1076023
0.004895596
0.02899732
0.04690405
0.06871137
0.08769171
0.1075293
0.005282044
0.03501677
0.05002649
0.07204672
0.08985834
0.1090485
0.005243377
0.03331654
0.04941032
0.07176166
0.09009977
0.1095158
0.005375963
0.03447863
0.05045919
0.07281312
0.0912017
0.1106869
0.005480212
0.03475609
0.05093961
0.07351252
0.09208263
0.1117186
0.005586909
0.03520111
0.05155236
0.074354
0.09312094
0.1129512
0.005698943
0.03564878
0.05218583
0.07525835
0.09424581
0.1142981
0.005817996
0.03613742
0.05287776
0.07625724
0.09549029
0.1157925
0.00594498
0.03667358
0.05363629
0.0773568
0.09686093
0.1174378
0.006081008
0.03726062
0.05446982
0.07856651
0.09836531
0.1192441
0.006227189
0.03790259
0.05538377
0.07988958
0.100012
0.1212155
0.006383414
0.03860094
0.05638094
0.08133157
0.101803
0.1233457
0.006550759
0.03935912
0.05746678
0.08289633
0.1037451
0.1256464
0.006729308
0.0401789
0.05864151
0.08459289
0.1058423
0.1281368
0.006919618
0.04105999
0.05990923
0.08642265
0.1080979
0.130835
0.007123456
0.04200307
0.06126428
0.08838664
0.1105034
0.1337324
0.007340696
0.04300648
0.06271484
0.09050112
0.1130804
0.1368907
0.007572972
0.04404819
0.064209
0.09270802
0.1157132
0.1402194
0.007822282
0.04516539
0.06583633
0.09521247
0.1186684
0.1442595
0.008082883
0.04626467
0.06734731
0.09767672
0.1212943
0.1481294
0.06010752
0.1665944
0.1887097
0.2068986
0.2256487
0.2439487
0.005707521
0.01691095
0.04574857
0.06764576
0.08558608
0.1057743
0.003838484
0.02293967
0.05068041
0.0628864
0.08578027
0.1054527
0.00505367
0.02869405
0.05020839
0.06828387
0.08738268
0.1063855
0.004055456
0.02339046
0.04964317
0.06528827
0.08669034
0.1064792
0.004757842
0.02725058
0.05187024
0.06776789
0.08834855
0.1076806
0.004599823
0.02579551
0.05140345
0.06754121
0.08862523
0.1082042
0.004727674
0.02659284
0.05228003
0.06841635
0.08960974
0.1092975
0.004807603
0.02679983
0.05275566
0.06904906
0.09045759
0.1103124
0.004894579
0.02715468
0.05335959
0.06981918
0.09145681
0.1115117
0.00498698
0.02752148
0.05400198
0.07065937
0.09254623
0.1128234
0.005087261
0.027927
0.05471331
0.07159218
0.09375453
0.1142834
0.005195386
0.02837469
0.05549909
0.07262417
0.09508378
0.1158994
0.005312246
0.02886911
0.05636845
0.0737607
0.09654847
0.1176914
0.005436637
0.02940707
0.0573197
0.07500605
0.09815446
0.1196497
0.005570249
0.02999104
0.05835875
0.0763618
0.09990456
0.1217357
0.005714636
0.03062285
0.05948997
0.07784361
0.1018163
0.1240481
0.005870058
0.03131038
0.06072148
0.0794588
0.1038956
0.1265599
0.006037496
0.03205629
0.06205545
0.08122135
0.1061515
0.1292798
0.006220333
0.03287259
0.06350239
0.08313669
0.1085907
0.1322128
0.006421075
0.0337825
0.06508262
0.08524276
0.1112651
0.1353922
0.00664215
0.03479162
0.06677887
0.08749545
0.114114
0.1387266
0.006894999
0.03595917
0.06867596
0.08995952
0.1171413
0.1421195
0.007167325
0.0371949
0.07069204
0.09248215
0.1206071
0.1456826
0.06263756
0.1268945
0.1561213
0.1755977
0.1945757
0.2128582
0.005817387
0.01986236
0.0411491
0.06917894
0.08528928
0.1062144
0.003320737
0.02339509
0.04226927
0.06592503
0.08588899
0.1069753
0.004740612
0.03235276
0.04210422
0.07148862
0.08747778
0.1078355
0.003696786
0.02847878
0.04138022
0.06970464
0.08711277
0.1080044
0.00443813
0.03239547
0.0434178
0.0719452
0.08858433
0.1091542
0.004362629
0.03183075
0.04329734
0.07205879
0.08899056
0.1097207
0.004513329
0.03267991
0.04404517
0.07287584
0.08989332
0.1107477
0.004609502
0.03306872
0.04449261
0.07352555
0.09071498
0.1117602
0.004705197
0.033515
0.04499029
0.07428342
0.09167002
0.1129571
0.004802913
0.03397177
0.0454973
0.07512048
0.09273357
0.1142999
0.004905306
0.0344745
0.04604472
0.07606515
0.09392995
0.1157968
0.005016226
0.03503562
0.0466326
0.07712568
0.09526348
0.1174458
0.005136582
0.03563813
0.0472788
0.07830501
0.09674061
0.1192361
0.005265943
0.03629007
0.04800624
0.07961307
0.09836455
0.1211839
0.005412348
0.0369928
0.04881633
0.08105045
0.1001481
0.1233102
0.005575524
0.03774925
0.04971063
0.08261452
0.1020787
0.1255696
0.005750415
0.03856728
0.05068667
0.08431388
0.1041561
0.1280208
0.00594424
0.03944376
0.05174753
0.08616506
0.1063583
0.1307308
0.006152794
0.04039612
0.05289352
0.08816756
0.1086917
0.1336303
0.006363276
0.04142113
0.05414503
0.09037008
0.1112137
0.1368559
0.00657911
0.04248554
0.05539724
0.0926546
0.1136477
0.140128
0.006819858
0.04366881
0.05688695
0.09559072
0.1166738
0.1448067
0.007031526
0.04477096
0.05799329
0.09843334
0.1191803
0.148779
0.03241042
0.1012901
0.1312913
0.1518915
0.1712442
0.1902429
0.001583755
0.03651154
0.09181276
0.1241659
0.143262
0.1621288
0.1804127
0.002868244
0.04253907
0.118356
0.1548358
0.173284
0.1910599
0.2089771
0.002816449
0.04204836
0.1245086
0.1657307
0.1829138
0.2004328
0.218569
0.002608314
0.03982709
0.1266828
0.1698952
0.1873921
0.2050893
0.2234478
0.002707707
0.04090656
0.1287039
0.1724765
0.1901872
0.2079322
0.2264276
0.002755941
0.04143028
0.1298955
0.1740112
0.1922437
0.2102441
0.2289332
0.00283023
0.04227281
0.1311626
0.1756627
0.1943869
0.2126962
0.2315931
0.002905619
0.0430808
0.1324316
0.1775138
0.1966957
0.2153031
0.2344018
0.002980987
0.0439061
0.1337983
0.1795975
0.1992092
0.2181042
0.2374176
0.003055393
0.04474352
0.1353146
0.1819189
0.2019502
0.2211293
0.2406463
0.003135777
0.04560786
0.1370532
0.1844865
0.2049291
0.2243673
0.2442252
0.003212481
0.04650531
0.1390472
0.1873148
0.2081554
0.227839
0.2481928
0.003296901
0.04745835
0.141292
0.1904166
0.2116554
0.2316217
0.2525509
0.003388672
0.04846368
0.143763
0.1937796
0.2153789
0.2357912
0.2572867
0.003483906
0.04952081
0.1464519
0.197413
0.2193692
0.2403834
0.262351
0.003589516
0.05063925
0.1493607
0.2013199
0.2236952
0.2453662
0.2677949
0.003702402
0.05182612
0.1524993
0.2055227
0.2283578
0.2507067
0.2736552
0.003820052
0.05308987
0.155859
0.2100212
0.2334109
0.2563723
0.2798746
0.003940544
0.05442535
0.15945
0.2147881
0.2388588
0.262459
0.2865032
0.004061845
0.05582574
0.1632729
0.2198279
0.2447078
0.2689947
0.2935485
0.004191886
0.05731016
0.1673258
0.2251763
0.2508644
0.2758519
0.3009763
0.004334263
0.05892725
0.1716499
0.2308841
0.2573193
0.2830588
0.3086974
0.004478707
0.1502827
0.1761527
0.2367192
0.2636127
0.289816
0.3162317
-0.02494682
-0.00275146
0.005367174
0.01982965
-0.05447501
-0.03234199
0.001597903
0.01078571
0.003030451
0.01755433
-0.03280908
-0.0485424
0.002873743
0.01611099
0.002778658
0.01767223
-0.03327408
-0.04914547
0.002818955
0.01637404
0.002606241
0.01503788
-0.04149069
-0.05039072
0.00261123
0.01464305
0.00257806
0.01474003
-0.03977115
-0.05029332
0.002710628
0.01528892
0.002649202
0.01526014
-0.03866725
-0.05075051
0.002759782
0.01554949
0.00268996
0.0156039
-0.03747033
-0.05104193
0.002832641
0.01605033
0.00274767
0.01606259
-0.03637995
-0.05137968
0.002907643
0.01655353
0.002801252
0.01649052
-0.03545915
-0.05174863
0.002981851
0.01707055
0.002854861
0.01691606
-0.03464091
-0.05219975
0.003057184
0.01758303
0.002906708
0.01732129
-0.03399704
-0.05274262
0.003133732
0.01808449
0.002960421
0.01771674
-0.03349733
-0.05335971
0.003212631
0.01859909
0.003018437
0.0181215
-0.0330487
-0.05407485
0.003299649
0.01914993
0.003080028
0.01854141
-0.03272638
-0.05486655
0.003391728
0.01971979
0.003145156
0.01897972
-0.03250124
-0.05572705
0.003489669
0.0203199
0.003216434
0.01944762
-0.0323397
-0.05661514
0.003593994
0.02095116
0.003291035
0.01994769
-0.03217995
-0.05755309
0.003707554
0.02162781
0.003370213
0.02048396
-0.03204946
-0.05857113
0.003821914
0.02234692
0.003453033
0.02104744
-0.03201928
-0.05963589
0.003936956
0.02310365
0.003540758
0.02164353
-0.03201248
-0.06074611
0.004060354
0.02390976
0.003635647
0.02227805
-0.03201443
-0.06191996
0.004192729
0.0247773
0.003739227
0.02296466
-0.03206375
-0.06321785
0.004339439
0.02569187
0.00385156
0.02367867
-0.03218479
0.07272058
0.004494482
0.02663282
0.004000316
0.02443932
0.02015912
0.001545199
0.02408013
0.02319111
0.004770294
0.03787833
0.02079647
0.00417231
0.02587077
0.02301492
0.004264978
0.03083832
0.02333367
0.004053692
0.02592622
0.02299908
0.003953653
0.02484269
0.02336357
0.003909564
0.02352058
0.02386649
0.003744943
0.02281304
0.02336842
0.003822636
0.02304444
0.02383563
0.003869321
0.02348527
0.02386121
0.003991835
0.02495617
0.02271027
0.004053006
0.02570666
0.02080437
0.00427016
0.03110355
0.02205113
0.004055431
0.02625873
0.02580706
0.00472
0.03816777
0.01733844
0.001761863
0.0236566
-0.006782874
0.005293355
0.01965597
-0.02517838
0.01063361
0.00302333
0.01749293
-0.05463962
-0.03244282
0.01606973
0.002776268
0.01765751
-0.03285456
-0.04857618
0.01637115
0.002602314
0.01504011
-0.03327592
-0.04910639
0.01555442
0.002687479
0.01560528
-0.03866783
-0.05075247
0.01605963
0.002745363
0.01606713
-0.03746742
-0.05104586
0.01656116
0.002799934
0.01649528
-0.03638768
-0.05138142
0.01707918
0.00285334
0.01691877
-0.03545794
-0.05175063
0.01758984
0.002905924
0.01732751
-0.03464158
-0.05215379
0.01812071
0.002961843
0.01775012
-0.03391725
-0.0527492
0.01860415
0.003015851
0.0181277
-0.03356607
-0.05336661
0.01915467
0.003077115
0.01854509
-0.03306922
-0.05407196
0.01973478
0.003138715
0.01899157
-0.032726
-0.05490544
0.02032294
0.003212251
0.01944506
-0.03250507
-0.05572948
0.02095127
0.003286725
0.01994364
-0.03235017
-0.05663638
0.02161594
0.003364071
0.02046835
-0.03220907
-0.0575526
0.02233606
0.003452597
0.02103886
-0.0320202
-0.05850411
0.02310479
0.003538842
0.02163961
-0.03190718
-0.05959425
0.02473259
0.00373095
0.02292972
-0.03196854
-0.06196158
0.02561371
0.003825225
0.02359931
-0.03206887
-0.06337229
0.02647929
0.00394747
0.02427318
-0.03231066
0.07255033
0.0008007504
-0.02211166
0.07475452
-0.02419499
0.03362586
-0.04886528
0.03531563
0.02322674
0.09812467
-0.01217616
0.1014405
-0.03430713
0.07131461
0.02329069
0.1212319
0.005957304
0.1312594
-0.01741935
0.09570329
0.03718571
0.1395506
0.02429143
0.151924
0.002258343
0.1146321
0.05520227
0.1575514
0.04292058
0.1713094
0.02157648
0.1330406
0.07401314
0.1755618
0.1902725
0.1513575
-0.002376918
-0.01724329
0.001419739
-0.01544259
-0.001109187
-0.01545101
-0.001296794
-0.01535943
-6.894019e-05
-0.01455303
-0.000737678
-0.01484943
-0.00011042
-0.01487582
-0.0003040679
-0.0151916
-4.768976e-06
-0.01461656
-0.0002427847
-0.0148565
7.75497e-05
-0.01432352
-0.0001668686
-0.01465952
0.0001972211
-0.01410793
-9.44383e-05
-0.01446262
0.0003457148
-0.01387789
2.03662e-05
-0.01425645
0.000502376
-0.01365624
0.000149781
-0.01406317
0.000659937
-0.01344234
0.0002945932
-0.01390721
0.0008111504
-0.01325687
0.0004370526
-0.01379096
0.0009533774
-0.0131045
0.000569827
-0.01369542
0.001097187
-0.01296262
0.0007019476
-0.01361816
0.001248374
-0.01283228
0.0008429522
-0.013544
0.001413374
-0.01270198
0.001000437
-0.01346358
0.001592772
-0.01256538
0.001178842
-0.01338166
0.001781062
-0.01242085
0.001369682
-0.01328814
0.0019798
-0.01226119
0.001579948
-0.01318897
0.002186285
-0.01210075
0.001807262
-0.01308795
0.002399657
-0.01192936
0.002042978
-0.01298488
0.002626956
-0.0117446
0.002289989
-0.01287504
0.002868673
-0.01154729
0.00254783
-0.01276974
0.00310914
-0.01136443
0.002805163
-0.01270804
-0.01888412
-0.0270029
-0.02099414
-0.01585263
-0.02629362
-0.01608305
-0.01555185
-0.0189304
-0.02052564
-0.01580648
-0.02047103
-0.02103415
-0.02099161
-0.02103437
-0.0133526
-0.02099873
-0.01346884
-0.01974397
-0.04903623
0.03506073
0.02307309
0.07459214
-0.02432409
-0.03434576
0.07121551
0.02324279
0.09803257
-0.0121592
-0.01741199
0.09564527
0.03716238
0.1212343
0.005931627
0.002220893
0.114621
0.05519199
0.1395454
0.02426413
0.02158132
0.1330588
0.0740139
0.1575545
0.04298969
0.1513824
0.1756351
0.01465529
0.002574131
0.01474145
-0.04128439
-0.05040567
0.0153048
0.002644622
0.01527076
-0.03975081
-0.05030753
0.02389069
0.003632327
0.0222606
-0.03195602
-0.0607323
0.02464908
-0.02198908
-0.006581116
0.04166283
0.00209258
-0.01613304
-0.001309192
-0.02566525
-0.0109835
-0.01166801
-0.000536998
-0.0156084
-0.002005691
-0.01558605
-0.0008211986
-0.01454049
-0.0006827238
-0.01520932
-0.0002626871
-0.01490877
-0.0001076875
-0.01490811
-0.0002280953
-0.01470013
-0.0001705073
-0.01518123
-0.0001330299
-0.01440289
-4.847934e-05
-0.01482462
-0.0001033825
-0.01424227
-5.056159e-06
-0.01463766
-4.627912e-06
-0.01407751
9.216135e-05
-0.01443434
0.0001126
-0.01392332
0.0002035453
-0.01422134
0.0002435599
-0.01377498
0.0003249755
-0.01401204
0.0003753601
-0.01365339
0.0004466157
-0.01382709
0.0005053055
-0.01356796
0.0005607877
-0.01367845
0.0006277728
-0.01350326
0.0006692332
-0.01354628
0.000750919
-0.01345305
0.0007807467
-0.01342711
0.0008893715
-0.01341141
0.0009032376
-0.01331072
0.001045872
-0.0133701
0.001042918
-0.01318764
0.001221708
-0.01332802
0.001197993
-0.0130597
0.001407597
-0.01327834
0.001360849
-0.01291949
0.001602813
-0.0132295
0.001530758
-0.01277225
0.001807631
-0.01317391
0.001708422
-0.01261946
0.002024749
-0.01310811
0.001897386
-0.01246111
0.002249474
-0.01303479
0.002092877
-0.01229061
0.00248637
-0.01298121
0.002293967
-0.01212504
0.002754521
0.04545758
-0.01199754
0.002479973
-0.01567337
-0.01485764
-0.01956021
-0.02540473
-0.01602163
-0.01572485
-0.02061601
-0.02049472
-0.02148886
-0.02038806
-0.02222409
-0.02345631
-0.02335819
-0.01326803
-0.01985643
-0.02235054
-0.0006659445
-0.02267232
0.02431948
-0.02242454
-0.007179064
0.04124159
0.001755616
-0.01630763
-0.001527236
-0.0260497
-0.002465455
-0.01737781
0.001309297
-0.01550586
-0.0005789499
-0.01563596
-0.002037548
-0.01564015
-0.001122768
-0.01547479
-0.001316801
-0.01537165
-0.0008275796
-0.01454296
-0.0006819469
-0.01521776
-5.167634e-05
-0.01455258
-0.0007372308
-0.01486492
8.982477e-05
-0.01434783
-0.0001459798
-0.01466197
-8.818361e-05
-0.01424243
3.591486e-06
-0.01464038
0.0002038078
-0.01410892
-8.75304e-05
-0.01446263
3.879149e-06
-0.01407781
9.938886e-05
-0.01443508
0.0003538413
-0.01387942
2.821068e-05
-0.01425365
0.0001203491
-0.01391995
0.0002112296
-0.0142192
0.0005125715
-0.0136513
0.0001585957
-0.01405961
0.0002535063
-0.01377264
0.0003337789
-0.0140084
0.0006703218
-0.0134399
0.0003019652
-0.01390552
0.0003841089
-0.01361982
0.0004546292
-0.01382208
0.0009566688
-0.01308914
0.0005777988
-0.01369363
0.0006346427
-0.01350697
0.0006767135
-0.01354528
0.001109266
-0.01296461
0.0007122798
-0.01362157
0.0007623318
-0.01345431
0.0007933721
-0.01342968
0.001425155
-0.01272825
0.001019861
-0.01347413
0.001060224
-0.01337292
0.0010543
-0.01319315
0.001226081
-0.01333343
0.001205954
-0.01306197
0.00179298
-0.01242496
0.001378052
-0.01329742
0.001415079
-0.01326817
0.001371106
-0.01292343
0.001961204
-0.0122518
0.0015671
-0.01314948
0.002858876
-0.01158704
0.002529627
-0.01284841
0.002495953
-0.01307101
0.002305601
-0.01220003
0.003146971
-0.01144894
0.002830761
-0.01284037
0.002788924
0.04565988
-0.01212843
0.002533562
-0.01468298
-0.01228109
-0.02698228
-0.0239627
-0.02123326
-0.02005006
-0.02211408
-0.02140094
-0.02357126
-0.02037565
-0.02126583
-0.01956018
-0.02034023
-0.02109019
-0.02310344
-0.02245719
-0.02238186
-0.0229848
-0.028004
-0.02626566
-0.02829192
-0.03474857
-0.02196587
-0.01986066
-0.02296485
-0.02555388
-0.02095198
-0.02111262
-0.0198301
-0.02112484
-0.0204575
-0.02103417
-0.02045131
-0.02128043
-0.02019389
-0.01968661
-0.02478941
-0.02460173
-0.0146363
-0.01235957
0.04207492
-0.02543518
-0.01953154
0.05950192
-0.01079538
-0.005418907
-0.007598993
-0.008456579
-0.004513799
-0.004903559
-0.003218188
-0.006674481
-0.002211059
-0.0006635549
-0.002655029
-0.0004106169
-0.002072876
-0.0003903671
-0.0001777663
-0.002421388
-0.0002409116
-0.01490897
-7.424249e-05
-0.01491212
-0.002095358
-0.0001302658
-0.002350975
-1.478877e-05
-0.002142911
-0.0004697722
-0.002767595
-1.0962e-05
-0.002094684
-5.034995e-05
4.812229e-05
-0.002341476
-0.002143661
-0.0004438194
-0.002811497
5.44066e-05
-0.002088917
2.855905e-05
0.0001179816
-0.002328771
-0.002151903
-0.0003943486
-0.002922685
0.0001876748
-0.002088265
0.0001891857
0.0002637961
-0.002326411
0.000794106
-0.01322749
0.0004256007
-0.01373293
0.000469137
-0.01356254
0.000544277
-0.01362624
-0.002094948
0.0003794159
0.0004351973
-0.002327817
-0.002167283
-0.0002723241
-0.003112536
0.0004449637
-0.002100449
0.0004759622
0.0005308341
-0.002339896
-0.002176613
-0.000214846
-0.003184206
0.0005462513
0.001263879
-0.01283301
0.0008528234
-0.01356105
0.0009091259
-0.01342845
0.0009263678
-0.01332264
-0.002107211
0.000710819
0.0007557392
-0.002353461
-0.002190882
-5.57601e-05
-0.003328353
0.0007884817
0.001601445
-0.01257134
0.001186502
-0.01338639
0.001556384
-0.01318975
0.001483215
-0.01273511
0.002138482
-0.01206668
0.001755083
-0.01306346
0.00174691
-0.01315136
0.001651031
-0.01259545
0.002577039
-0.01174198
0.002238798
-0.0128891
0.002195751
-0.01307345
0.002037857
-0.01231163
-0.002116258
0.002051229
0.00196309
-0.002318472
-0.002217595
0.0009639844
-0.003812336
0.002051352
-0.002188547
0.002193251
0.002100557
-0.002397159
-0.0022783
0.001047569
0.002206404
-0.00400662
-0.01880994
-0.03291251
-0.02177967
-0.02024256
-0.02023422
-0.01964293
-0.02692328
-0.02381632
-0.02068569
-0.02037722
-0.02349295
-0.02304225
-0.02285431
-0.02062139
-0.02100425
-0.02358088
-0.02109547
-0.01971302
-0.03217394
-0.03037063
0.04715786
0.03206438
-0.01150504
-0.002491526
-0.0006835096
0.05491228
0.04244319
0.01215377
0.07310814
0.01373927
0.02516814
0.06391886
0.01993717
0.08019607
0.06933399
0.03312101
0.09455953
0.03401638
0.04717329
0.08741316
0.03915597
0.09959032
0.08947428
0.05261859
0.1133306
0.05247816
0.06597989
0.1063287
0.05779145
0.1178679
0.107949
0.07111209
0.1316706
0.07100177
0.08462582
0.1246607
0.07653204
0.1361704
0.126437
0.08967111
0.1499901
0.1032123
0.1429564
-0.0148867
-0.0002786479
-0.01520638
-7.686171e-05
-0.01471078
-0.01519098
-0.0001981476
-0.0001479179
-0.01462877
-0.01487227
1.374138e-05
-0.0002250194
-0.01442397
-2.77938e-05
-0.01483374
-0.0001118687
-0.0119131
0.001989901
-0.01297568
0.002349965
-0.01310343
0.001838633
-0.01245257
0.00196555
-0.03561371
-0.03001109
-0.02099
-0.01976505
-0.02015387
-0.02141485
-0.02098635
-0.02019102
-0.02055497
-0.02235541
-0.02011866
-0.02116555
-0.02042619
-0.02051511
-0.02394105
-0.02284246
-0.02377046
-0.02219717
-0.01910512
-0.03235884
0.02525701
-0.03461345
0.03711124
-0.03033175
-0.02383294
-0.006804655
-0.02416385
-0.01476317
-0.02269244
0.05826222
0.04113268
-0.02705788
-0.01204615
-0.01439722
-0.01605408
-0.007286959
-0.004700602
-0.002181847
-0.003194416
-0.003334623
-0.00239658
-0.0009097768
-0.0007888667
-0.002686483
-0.002247463
-0.0008321711
-0.002672981
-0.0005546291
-0.002083528
-0.0005549691
-0.0001929989
-0.00258185
-0.002089807
-0.0004720742
4.94677e-06
-0.002720056
-0.002152327
-0.000197532
-0.002399711
-0.0001031704
-0.002075966
-0.0004105702
8.316975e-05
-0.002725781
-0.002146548
-0.0001112003
-0.002375495
-4.151788e-05
-0.002061125
-0.0003573121
0.0001642615
-0.00273984
-0.002138825
-2.823517e-05
-0.002353808
2.564732e-05
-0.002032095
-0.0002333665
0.0003377005
-0.002777204
-0.002128859
0.0001500776
-0.002324544
0.0001774903
-0.002007636
-8.885996e-05
0.0005364995
-0.002825611
-0.002123328
0.0003507459
-0.002304246
0.0003555397
-0.001997838
-4.260565e-06
0.0006473352
-0.002850214
-0.002120497
0.0004652974
-0.002293004
0.0004580834
-0.001973586
0.0001933109
0.0009023834
-0.002903916
-0.002115615
0.0007299002
-0.002272812
0.0006971232
-0.002109582
0.0008804967
-0.002265051
0.000837462
-0.00187566
0.001311783
0.002208898
-0.003118546
-0.002107605
0.002042763
-0.002235549
0.001903269
-0.001899143
0.001464507
0.002410926
-0.003228308
-0.002159888
0.002242318
-0.002271772
0.002064939
0.004644978
0.07794747
0.004674679
0.02786938
0.02757248
0.07772379
0.04816616
0.003056737
0.04954558
0.00311908
-0.002228141
0.002359316
0.002268948
-0.002454337
0.04755036
0.03239202
-0.002179256
-0.01116062
0.02525946
0.07322906
0.06406192
0.01385784
0.04719519
0.09459565
0.08746267
0.03406694
0.06599093
0.113357
0.1063423
0.05255082
0.08459294
0.1316648
0.124652
0.07100671
0.1031358
0.1499521
0.1429025
0.08947788
-0.00447292
-0.004841592
-0.006615439