/*--------------------------------*- C++ -*----------------------------------*\
  =========                 |
  \\      /  F ield         | OpenFOAM: The Open Source CFD Toolbox
   \\    /   O peration     | Website:  https://openfoam.org
    \\  /    A nd           | Version:  7
     \\/     M anipulation  |
\*---------------------------------------------------------------------------*/
FoamFile
{
    version     2.0;
    format      ascii;
    class       volVectorField;
    location    "0.01";
    object      U;
}
// * * * * * * * * * * * * * * * * * * * * * * * * * * * * * * * * * * * * * //

dimensions      [0 1 -1 0 0 0 0];

internalField   nonuniform List<vector> 
90967
(
(-1.23211 0.003378095 -0.03380279)
(-1.214045 0.007548986 -0.006581143)
(-1.226307 -0.001422156 -0.0002541389)
(-1.225305 0.0008458227 -0.0002461815)
(-1.229485 -0.001753924 3.806403e-05)
(-1.229189 -0.00471603 -6.994439e-05)
(-1.245789 0.001430949 -0.0463244)
(-1.221586 0.007962894 -0.006955049)
(-1.236707 0.005782858 0.002343739)
(-1.236876 0.005132002 0.0004294409)
(-1.242642 0.0016685 0.0005281069)
(-1.244289 -0.003624517 0.0001146795)
(-1.24324 0.00495007 -0.0507009)
(-1.219634 0.01069731 -0.007974724)
(-1.238402 0.009735016 0.00170187)
(-1.239002 0.00961652 0.0003671699)
(-1.248116 0.005410099 0.0004461683)
(-1.252718 -0.00173882 0.0001450577)
(-1.239513 0.009166775 -0.0497545)
(-1.217006 0.01463759 -0.00783459)
(-1.237889 0.01688046 0.001955576)
(-1.241115 0.01696475 0.0004241243)
(-1.253938 0.01305565 0.0004794955)
(-1.262837 0.004743879 0.0001437809)
(-1.232441 0.01379476 -0.04960642)
(-1.211972 0.02206943 -0.007609587)
(-1.235963 0.02702504 0.00200483)
(-1.242789 0.02859501 0.0004805639)
(-1.260365 0.02540564 0.0005027616)
(-1.27479 0.01658535 0.0001585567)
(-1.22215 0.01989934 -0.04922461)
(-1.204086 0.03169562 -0.007602014)
(-1.231341 0.04036055 0.002008118)
(-1.242696 0.04462382 0.0004966223)
(-1.265999 0.04326212 0.0004983966)
(-1.287285 0.03505447 0.0001598957)
(-1.207074 0.02794006 -0.04871369)
(-1.191971 0.0447374 -0.007512945)
(-1.223114 0.05818679 0.001996151)
(-1.239885 0.06639463 0.0005160263)
(-1.269958 0.06812644 0.0005063075)
(-1.299476 0.06162802 0.0001612554)
(-1.185984 0.03797184 -0.04791763)
(-1.174289 0.0612537 -0.007402919)
(-1.209793 0.08095631 0.001962856)
(-1.232858 0.0946704 0.0005260097)
(-1.270811 0.101025 0.0005215884)
(-1.309962 0.09789617 0.0001770573)
(-1.157284 0.05025532 -0.04679777)
(-1.149489 0.08179575 -0.007257599)
(-1.18975 0.1094561 0.001921472)
(-1.219945 0.1304941 0.0005395667)
(-1.266895 0.1433372 0.0005415037)
(-1.317245 0.1453885 0.0002157562)
(-1.11931 0.06498772 -0.04529777)
(-1.115725 0.1066684 -0.007043361)
(-1.161068 0.1442541 0.001873554)
(-1.199104 0.1747661 0.0005611982)
(-1.256102 0.1964084 0.0005729973)
(-1.319278 0.2059712 0.0002720566)
(-1.070181 0.08223244 -0.04331736)
(-1.071022 0.1360791 -0.006750761)
(-1.121519 0.1858043 0.001822361)
(-1.16792 0.2282728 0.0005944071)
(-1.23585 0.2615299 0.0006220716)
(-1.313455 0.2816365 0.0003609953)
(-1.008064 0.1019166 -0.04073929)
(-1.013219 0.1699919 -0.0063653)
(-1.068611 0.2343444 0.001771796)
(-1.123501 0.2916137 0.0006610719)
(-1.202868 0.3399194 0.0007192553)
(-1.29629 0.3745278 0.0005135573)
(-0.9308759 0.123849 -0.03756501)
(-0.9401206 0.2078842 -0.005861255)
(-0.9995636 0.2894222 0.001754238)
(-1.062405 0.3645717 0.0007612454)
(-1.153016 0.4319987 0.0008762047)
(-1.263016 0.4861694 0.0007467092)
(-0.837035 0.1476394 -0.03374066)
(-0.8497254 0.2493505 -0.005150271)
(-0.9115678 0.3505819 0.00183828)
(-0.9808297 0.4471759 0.001043324)
(-1.081239 0.5386794 0.001217825)
(-1.207348 0.6192535 0.001223664)
(-0.7247588 0.1718161 -0.02918788)
(-0.7399057 0.2915117 -0.004436436)
(-0.801406 0.4138771 0.001845184)
(-0.8740731 0.5346377 0.001153863)
(-0.9806374 0.6547831 0.00130195)
(-1.119688 0.76899 0.001329281)
(-0.5950733 0.1968851 -0.02399584)
(-0.6108291 0.3357308 -0.003018975)
(-0.6680326 0.4811479 0.002190033)
(-0.7396145 0.6296359 0.001871371)
(-0.8460728 0.7851674 0.002107394)
(-0.9914498 0.9443046 0.002405248)
(-0.4442857 0.2173745 -0.0184946)
(-0.4589595 0.3700786 -0.005542142)
(-0.5072171 0.5349528 -0.003879308)
(-0.5701495 0.7087632 -0.006271289)
(-0.6659911 0.8989377 -0.008284383)
(-0.802439 1.106537 -0.01058274)
(-0.2791887 0.2374374 -0.01957947)
(-0.2922917 0.4111146 -0.02548366)
(-0.3239835 0.5995867 -0.03602356)
(-0.369299 0.8027914 -0.04835972)
(-0.4407997 1.034638 -0.06287416)
(-0.5493729 1.304128 -0.08028698)
(-0.1473412 0.2470116 -0.02690871)
(-0.1835153 0.4222446 -0.0531753)
(-0.2129289 0.6118194 -0.0736031)
(-0.2480421 0.8215471 -0.09568051)
(-0.2986255 1.065935 -0.1212668)
(-0.3718619 1.359015 -0.1511412)
(-0.48506 1.726159 -0.1872969)
(-0.02478239 0.2161761 -0.01476002)
(-0.03572489 0.4011365 -0.02341198)
(-0.04632781 0.6019389 -0.0314732)
(-0.05793951 0.8247732 -0.03921145)
(-0.07212421 1.081446 -0.04697751)
(-0.09066781 1.389491 -0.05513407)
(-0.1169572 1.777939 -0.06422733)
(0.04854556 -0.03356032 -0.0009323859)
(0.0982601 -0.02975562 -0.002086943)
(0.1554408 -0.03056152 -0.002248555)
(0.2159991 -0.03550005 -0.00225685)
(0.2737933 -0.03879611 -0.002428222)
(0.3407627 -0.04826006 -0.002826293)
(0.4175899 -0.06162391 -0.003469083)
(-1.211993 -0.02032176 -0.04863454)
(-1.181879 -0.006443035 -0.05467296)
(-1.198836 -0.002074387 -0.03949003)
(-1.202722 -0.003089768 -0.03513136)
(-1.200729 -0.003025132 -0.03390477)
(-1.198498 -0.003239364 -0.0331208)
(-1.193977 -0.003625963 -0.03214366)
(-1.225495 -0.01141702 -0.0179388)
(-1.232732 -0.006644753 -0.004747046)
(-1.226521 0.001145022 0.007806732)
(-1.235054 -0.003731755 0.002129495)
(-1.236591 -0.0008694999 0.0006286997)
(-1.240239 -0.002641226 0.0007277647)
(-1.240206 -0.005391037 0.0004137993)
(-1.247371 -0.0097469 -0.0348351)
(-1.240397 0.0100275 0.01424842)
(-1.233214 0.01212553 -0.005435971)
(-1.238473 0.008087115 0.001542549)
(-1.239673 0.005911122 -0.001618495)
(-1.243222 0.002070511 -4.512446e-05)
(-1.244905 -0.003575624 -0.000318028)
(-1.24701 0.00215964 -0.03243873)
(-1.242106 0.003997136 0.009272293)
(-1.229275 0.01157965 -0.0008191083)
(-1.240434 0.009719284 0.001031446)
(-1.241437 0.009735835 -0.0008130538)
(-1.248701 0.00540706 1.566843e-05)
(-1.253292 -0.001728089 -0.0001297848)
(-1.239981 0.002009818 -0.03121673)
(-1.238487 0.01022424 0.01148089)
(-1.227329 0.01516615 -0.003237852)
(-1.2401 0.01732141 0.0006931345)
(-1.243786 0.01720328 -0.00131039)
(-1.254619 0.01313389 -0.0001870189)
(-1.263483 0.004756517 -0.000248657)
(-1.231237 0.002489809 -0.03072871)
(-1.231399 0.0138665 0.01083559)
(-1.222039 0.0223268 -0.002970629)
(-1.23825 0.02712861 0.0006212543)
(-1.245456 0.02874017 -0.001303413)
(-1.26108 0.02546683 -0.0002109573)
(-1.27544 0.01661208 -0.0002453976)
(-1.219559 0.003308109 -0.03035811)
(-1.221056 0.01999913 0.01086558)
(-1.214001 0.03173122 -0.003180122)
(-1.233592 0.04038942 0.0004938838)
(-1.245333 0.04467757 -0.001389382)
(-1.266698 0.04331993 -0.0002637006)
(-1.287906 0.03509277 -0.0002661974)
(-1.203178 0.004599938 -0.02981501)
(-1.206031 0.02789945 0.01075993)
(-1.201608 0.04462573 -0.003109423)
(-1.225279 0.058176 0.000484052)
(-1.242453 0.0664347 -0.001376791)
(-1.270632 0.06815732 -0.0002551109)
(-1.30006 0.06170341 -0.0002592542)
(-1.180807 0.006201844 -0.02914931)
(-1.184949 0.03788321 0.01062216)
(-1.183645 0.06096097 -0.003065134)
(-1.211834 0.08090352 0.0004755292)
(-1.235317 0.09470985 -0.001351648)
(-1.271422 0.1010907 -0.0002266593)
(-1.310505 0.09794983 -0.0002264385)
(-1.150853 0.008218117 -0.02830702)
(-1.156232 0.05017417 0.01042526)
(-1.158506 0.08132256 -0.002980152)
(-1.191648 0.1093701 0.0004850821)
(-1.222266 0.1305593 -0.001296612)
(-1.267409 0.1434738 -0.0001769329)
(-1.317706 0.1455234 -0.0001558772)
(-1.111608 0.01065878 -0.02722586)
(-1.118222 0.06493157 0.01015891)
(-1.124374 0.1059792 -0.002871824)
(-1.162782 0.144139 0.0005050207)
(-1.201251 0.1748783 -0.001218557)
(-1.256496 0.1966512 -0.0001068651)
(-1.319613 0.2062758 -6.975126e-05)
(-1.061344 0.01352275 -0.02584323)
(-1.069019 0.08223788 0.009800834)
(-1.079231 0.1351542 -0.002726216)
(-1.123006 0.1856698 0.0005189837)
(-1.169835 0.2284935 -0.001112881)
(-1.236075 0.2619671 -1.559453e-05)
(-1.313619 0.2822227 3.758051e-05)
(-0.9982692 0.01678861 -0.02418418)
(-1.006675 0.1020734 0.009346608)
(-1.020877 0.1688784 -0.002556469)
(-1.069773 0.2342142 0.0005378488)
(-1.125067 0.2920431 -0.0009867885)
(-1.20283 0.3407128 9.179194e-05)
(-1.296193 0.3756039 0.0001713888)
(-0.920617 0.02041231 -0.0221723)
(-0.929186 0.1241187 0.008730437)
(-0.9470137 0.206775 -0.002394484)
(-1.000222 0.2894467 0.0004973907)
(-1.063444 0.3655494 -0.0009142616)
(-1.152512 0.4335661 0.0001049214)
(-1.262476 0.4882774 0.000206896)
(-0.8268425 0.02440466 -0.01973833)
(-0.8348545 0.147997 0.007905711)
(-0.8554091 0.2483123 -0.002204477)
(-0.9113306 0.3509259 0.0005002038)
(-0.980896 0.4488345 -0.0007900666)
(-1.079824 0.5412372 0.0001588582)
(-1.205888 0.6226701 0.0002896826)
(-0.7155934 0.02851041 -0.01658982)
(-0.7219848 0.1722442 0.006876313)
(-0.7437364 0.2916247 -0.002373858)
(-0.7996754 0.4159977 7.009186e-06)
(-0.8724588 0.5389734 -0.001348278)
(-0.9775654 0.6610068 -0.0007752866)
(-1.116564 0.7772363 -0.000945228)
(-0.5873043 0.03232945 -0.01289814)
(-0.5904574 0.1973732 0.00508462)
(-0.6106856 0.3361831 -0.001950885)
(-0.6627414 0.4844355 0.0002046751)
(-0.7333971 0.6356266 -0.0007987048)
(-0.8382596 0.7935737 -0.0005739449)
(-0.9832339 0.9555445 -0.0008210372)
(-0.4414638 0.03588209 -0.008588534)
(-0.4380376 0.2173876 0.004421268)
(-0.4535768 0.375669 -0.004391381)
(-0.4952093 0.5454458 -0.002632482)
(-0.5560414 0.7252783 -0.005503655)
(-0.6489561 0.9214749 -0.007245539)
(-0.7847004 1.136528 -0.01008147)
(-0.2854045 0.03822565 -0.005598533)
(-0.269489 0.2413334 -0.003491174)
(-0.2738504 0.41257 0.001201331)
(-0.301114 0.6020314 0.001815896)
(-0.3425457 0.8082679 0.003103763)
(-0.4101742 1.04409 0.003305137)
(-0.5150235 1.320095 0.003158339)
(-0.1465584 0.0548452 -0.009180243)
(-0.1204848 0.2321125 0.002843112)
(-0.1202726 0.3899332 0.0004292984)
(-0.1355037 0.572007 0.002711953)
(-0.1547547 0.7738152 0.003588484)
(-0.1842437 1.009098 0.004351292)
(-0.2314002 1.293007 0.004920058)
(-0.3102301 1.652841 0.005030849)
(0.009741341 -0.03743955 -0.0008189334)
(0.06858837 -0.05209597 -0.0008331548)
(0.1151407 -0.05287977 -0.002978877)
(0.1631615 -0.05310224 -0.004515057)
(0.2116551 -0.05761205 -0.00202485)
(0.2656746 -0.0669814 -0.001424864)
(0.3318951 -0.08432567 -0.0009721957)
(-1.218427 -0.0440618 0.01163089)
(-1.277692 -0.0182899 -0.02522468)
(-1.205928 -0.01226505 0.007597546)
(-1.232524 0.002819922 -0.007861761)
(-1.22416 -0.001054688 -0.001091132)
(-1.226456 -0.001273843 -0.002146796)
(-1.238243 -0.02906488 -0.01580625)
(-1.246859 -0.02650599 -0.01306683)
(-1.212925 0.02333938 0.0132641)
(-1.243316 -0.005736154 0.002679392)
(-1.237786 0.003276979 0.001723587)
(-1.241085 -0.001487203 0.0009760078)
(-1.24076 -0.003489802 0.0004141278)
(-1.218232 -0.007906904 -0.01389492)
(-1.228288 0.007746542 -0.006212578)
(-1.228992 -0.004500334 -0.01160392)
(-1.230228 0.00381353 -0.001273443)
(-1.2383 0.003418022 -0.002322596)
(-1.241463 0.0009365604 -0.0004733629)
(-1.244486 -0.004108638 -0.0004847458)
(-1.216769 0.004671817 -0.01916102)
(-1.221804 0.002510787 -0.01102122)
(-1.221817 0.01257646 -0.005629624)
(-1.235454 0.008528175 -0.001123983)
(-1.239675 0.009779013 -0.0008330198)
(-1.247546 0.00519839 -6.787445e-05)
(-1.252828 -0.001683937 -0.0001010737)
(-1.217735 0.003110637 -0.02217964)
(-1.21798 0.01155136 -0.009833885)
(-1.222036 0.01256026 -0.009561235)
(-1.232922 0.01645138 -0.001991068)
(-1.241523 0.01650034 -0.00160237)
(-1.252962 0.01280473 -0.000380993)
(-1.262839 0.004604226 -0.0002520305)
(-1.209864 0.005376306 -0.02150078)
(-1.211105 0.01388854 -0.01023718)
(-1.216608 0.02217422 -0.009093126)
(-1.231221 0.02686951 -0.001943715)
(-1.243076 0.02856497 -0.001481576)
(-1.259349 0.02535764 -0.0003471073)
(-1.274727 0.01656611 -0.0002113861)
(-1.198747 0.006863263 -0.02142017)
(-1.201022 0.02038371 -0.009927895)
(-1.208914 0.03149184 -0.009442405)
(-1.226418 0.04024533 -0.002116039)
(-1.24285 0.04456681 -0.001608956)
(-1.264863 0.04326827 -0.0004150742)
(-1.287143 0.03507422 -0.000236381)
(-1.182544 0.009555852 -0.02099963)
(-1.186189 0.02816216 -0.009693909)
(-1.19672 0.04473299 -0.009294771)
(-1.218164 0.05817305 -0.002074677)
(-1.239954 0.06644589 -0.001582877)
(-1.268765 0.06817733 -0.000402086)
(-1.299271 0.06173521 -0.0002153547)
(-1.160418 0.01278878 -0.02060041)
(-1.165438 0.03809852 -0.009449218)
(-1.178926 0.06118226 -0.009162004)
(-1.204807 0.08093697 -0.002040896)
(-1.232815 0.09477084 -0.001547712)
(-1.269534 0.1011529 -0.0003706999)
(-1.309702 0.0980296 -0.0001747078)
(-1.130694 0.01684451 -0.02006516)
(-1.137225 0.05036581 -0.009155552)
(-1.153948 0.08165581 -0.008930552)
(-1.184761 0.1094381 -0.001967756)
(-1.219773 0.1306656 -0.001475331)
(-1.265508 0.1435895 -0.0003068478)
(-1.31689 0.1456635 -0.0001029518)
(-1.091745 0.021694 -0.01939335)
(-1.099859 0.06509532 -0.00879156)
(-1.11998 0.1064122 -0.008619314)
(-1.156071 0.1442263 -0.001871854)
(-1.198769 0.1750426 -0.00137362)
(-1.254578 0.1968412 -0.0002122186)
(-1.318778 0.2065037 9.113563e-06)
(-1.041745 0.02734355 -0.01851596)
(-1.051501 0.08238593 -0.008363895)
(-1.075015 0.135698 -0.008226277)
(-1.116499 0.1857999 -0.001751437)
(-1.167338 0.2287552 -0.001239898)
(-1.23413 0.2622907 -8.743426e-05)
(-1.312741 0.282617 0.0001562691)
(-0.9789468 0.03375289 -0.01742368)
(-0.9902636 0.1021859 -0.007905106)
(-1.016835 0.1695186 -0.00774544)
(-1.063481 0.2343766 -0.001615943)
(-1.122515 0.2924358 -0.00109076)
(-1.200782 0.3412063 3.812607e-05)
(-1.295197 0.3762515 0.0003042048)
(-0.9015794 0.04079545 -0.01606885)
(-0.9141524 0.1241619 -0.007335993)
(-0.9431439 0.2074891 -0.007229415)
(-0.9941011 0.2897529 -0.001547958)
(-1.060688 0.3662271 -0.001046326)
(-1.1502 0.4345187 1.365052e-05)
(-1.261184 0.4895576 0.000258139)
(-0.8082862 0.04837586 -0.01448091)
(-0.8213592 0.1480548 -0.006586186)
(-0.8515153 0.2490245 -0.006658447)
(-0.9051175 0.3513747 -0.001477158)
(-0.9774997 0.449878 -0.001087605)
(-1.076661 0.5428186 -0.0002060222)
(-1.203681 0.6248333 -5.325109e-05)
(-0.697475 0.05570035 -0.01250926)
(-0.7103062 0.1719935 -0.005632688)
(-0.7397612 0.2924714 -0.00644264)
(-0.7928405 0.4169857 -0.002065015)
(-0.8674734 0.5410625 -0.002014126)
(-0.9724402 0.6640768 -0.00167763)
(-1.112284 0.7815749 -0.002013412)
(-0.5707524 0.06358259 -0.01079635)
(-0.5800082 0.1984098 -0.004965225)
(-0.6054622 0.3365412 -0.006267027)
(-0.6534416 0.4860418 -0.003373606)
(-0.724272 0.6385364 -0.004582987)
(-0.8281236 0.7981788 -0.005706839)
(-0.973189 0.9622195 -0.007285994)
(-0.4213297 0.06834669 -0.00743158)
(-0.4303426 0.215015 -0.002455019)
(-0.4479137 0.3785244 -0.008296234)
(-0.4800075 0.5462033 -0.006379972)
(-0.5394024 0.7282229 -0.01035523)
(-0.629738 0.9264181 -0.01361889)
(-0.7648349 1.145614 -0.01808553)
(-0.2704426 0.08106135 -0.007298714)
(-0.2603802 0.2549355 -0.007174301)
(-0.261999 0.4059287 -0.005331516)
(-0.2814556 0.5979254 -0.00989503)
(-0.3156332 0.8014922 -0.01488101)
(-0.3787031 1.036511 -0.02088794)
(-0.4771221 1.31212 -0.0270546)
(-0.1551038 0.0923009 -0.01223257)
(-0.110606 0.2241124 0.008937812)
(-0.0988568 0.4334186 -0.01279444)
(-0.07896679 0.6076565 -0.008259506)
(-0.09552543 0.829872 -0.01370589)
(-0.1153149 1.082406 -0.01829247)
(-0.1531788 1.393599 -0.02526654)
(0.130206 -0.009690728 -0.001387477)
(0.1615001 -0.005630103 -0.003951615)
(0.2121004 -0.01239879 -0.002585605)
(0.2683013 -0.01496616 -0.003145612)
(0.3372468 -0.01815525 -0.003320243)
(0.007968838 -0.0357417 0.002571492)
(0.06679243 -0.04767569 0.001148679)
(0.1115505 -0.05350725 -0.0003116673)
(0.1623123 -0.05456501 -0.003539499)
(0.2132751 -0.05739664 -0.0007772412)
(0.2661063 -0.06649267 -0.000227386)
(0.3334243 -0.08437026 0.0006554583)
(-1.25055 -0.05148243 -0.006744133)
(-1.292451 -0.03462422 -0.007136405)
(-1.211797 -0.0165739 0.001568019)
(-1.243993 0.004488773 -0.001212968)
(-1.234343 -0.0008017365 0.0002452732)
(-1.237479 -0.000840585 -0.0001753791)
(-1.235846 -0.02640504 0.001088649)
(-1.248906 -0.02483989 -0.002343832)
(-1.209235 0.03114206 0.006004205)
(-1.24658 -0.004401733 0.001573832)
(-1.237668 0.003949011 0.0008982442)
(-1.240407 -0.001597792 0.0005400244)
(-1.239676 -0.003397519 0.0002445742)
(-1.206503 -0.009291014 0.005137397)
(-1.232665 0.01168443 0.004837899)
(-1.232072 -0.007016242 -0.001813734)
(-1.230757 0.004033816 0.0003563712)
(-1.239438 0.003363015 -0.0006844415)
(-1.241467 0.0009984679 -1.035239e-05)
(-1.244622 -0.004074233 -9.944965e-05)
(-1.204289 0.006782983 0.007087502)
(-1.224585 0.004050467 0.004655512)
(-1.224258 0.01451783 0.001249314)
(-1.237918 0.009170127 0.0008012336)
(-1.241338 0.01041668 0.0001483186)
(-1.248234 0.005524234 0.0003055715)
(-1.253279 -0.001478578 0.0001345206)
(-1.207026 0.003165944 0.006586138)
(-1.220714 0.01275882 0.005974744)
(-1.224903 0.01248983 -0.0003879049)
(-1.23473 0.01687238 0.0003692333)
(-1.24333 0.01664121 -0.0003063465)
(-1.253592 0.01290416 0.0001431623)
(-1.263319 0.00466108 6.046949e-05)
(-1.197472 0.005593626 0.006809229)
(-1.213584 0.01400797 0.005919555)
(-1.219211 0.02271844 -3.175581e-05)
(-1.233303 0.02722397 0.0004522467)
(-1.245057 0.02885135 -0.0002075792)
(-1.260135 0.02550477 0.0001980087)
(-1.275305 0.01665706 0.0001103286)
(-1.186746 0.006611543 0.006723289)
(-1.203479 0.02020993 0.006011498)
(-1.21154 0.03148204 -0.0002123746)
(-1.22841 0.04030469 0.0003356217)
(-1.244815 0.04465541 -0.0002936607)
(-1.265641 0.04333363 0.000162412)
(-1.287728 0.03513275 0.0001052244)
(-1.170378 0.009147579 0.006652098)
(-1.188511 0.02767908 0.005978028)
(-1.199231 0.04466201 -0.0001521785)
(-1.220134 0.05816359 0.0003584698)
(-1.241913 0.06652801 -0.0002631737)
(-1.269554 0.0682604 0.0001794411)
(-1.299865 0.06182426 0.0001300965)
(-1.148432 0.0121733 0.006509957)
(-1.167614 0.03736696 0.00588926)
(-1.181317 0.06092137 -0.0001457362)
(-1.206685 0.080808 0.0003531636)
(-1.234698 0.09481459 -0.0002418513)
(-1.27029 0.1012546 0.0002079658)
(-1.310281 0.0981696 0.0001713556)
(-1.118942 0.01600876 0.006316398)
(-1.139234 0.04939373 0.005743258)
(-1.156178 0.08127465 -0.0001236523)
(-1.186513 0.1092383 0.0003636472)
(-1.221543 0.1307283 -0.0001936517)
(-1.266205 0.1437607 0.0002646497)
(-1.317429 0.1459231 0.0002452059)
(-1.080382 0.02061341 0.006050583)
(-1.10172 0.06385105 0.005534136)
(-1.122018 0.1058951 -0.0001071709)
(-1.157645 0.1439822 0.000374809)
(-1.200361 0.1751777 -0.000125024)
(-1.255167 0.1971656 0.0003509079)
(-1.319238 0.2069918 0.0003581685)
(-1.030879 0.026013 0.005722063)
(-1.053122 0.08084965 0.005297625)
(-1.076788 0.1350343 -7.820862e-05)
(-1.117809 0.185552 0.0004073301)
(-1.168661 0.2290636 -2.64515e-05)
(-1.234513 0.2629251 0.0004772103)
(-1.313044 0.2835383 0.0005254244)
(-0.9687011 0.03215977 0.005315184)
(-0.9914926 0.1003272 0.004989912)
(-1.018262 0.1687042 -6.87484e-05)
(-1.064362 0.2342161 0.0004304173)
(-1.123376 0.2930859 8.562962e-05)
(-1.200795 0.3424382 0.0006095413)
(-1.295183 0.3779387 0.000707718)
(-0.8921004 0.03892257 0.004832107)
(-0.9148923 0.1219765 0.00460434)
(-0.9440326 0.2066267 -8.600181e-05)
(-0.9942824 0.2899441 0.0004282848)
(-1.060749 0.3676535 0.0001744737)
(-1.149463 0.4368913 0.0006906835)
(-1.260491 0.4927324 0.0008132677)
(-0.7997988 0.04623719 0.00424398)
(-0.8214098 0.1455259 0.004130343)
(-0.8514868 0.2480712 -0.0001313935)
(-0.9040234 0.3520561 0.0003627658)
(-0.9760943 0.4524573 0.0001015601)
(-1.074408 0.5468672 0.0005116905)
(-1.201498 0.6302799 0.0005549563)
(-0.6901576 0.05322546 0.003570199)
(-0.7095317 0.1691665 0.003544739)
(-0.7383155 0.2919174 -0.0004560351)
(-0.7896697 0.419206 -0.0002743604)
(-0.8631833 0.5461971 -0.0009858628)
(-0.9669816 0.6718188 -0.001286457)
(-1.106811 0.7920694 -0.001814868)
(-0.5650988 0.06112318 0.002580245)
(-0.5773753 0.1953191 0.002718649)
(-0.6014444 0.3360228 -0.0004909452)
(-0.64579 0.4889869 -3.339277e-05)
(-0.7138195 0.6443295 -0.000871587)
(-0.8158206 0.8073195 -0.001638376)
(-0.9603299 0.9752474 -0.002452266)
(-0.4177749 0.06482035 0.001841134)
(-0.4264957 0.2113646 0.002017043)
(-0.4413891 0.3794793 -0.00120191)
(-0.4664627 0.5503017 0.000334951)
(-0.5220024 0.7353903 -0.0005877411)
(-0.6089716 0.9376523 -0.00123396)
(-0.7419748 1.162107 -0.00223048)
(-0.2686054 0.0811191 -0.0008346017)
(-0.2531926 0.2545658 -0.0001698156)
(-0.249491 0.4047678 0.002211087)
(-0.2603835 0.5999346 0.005083814)
(-0.2884753 0.8056265 0.006878842)
(-0.346188 1.044934 0.008627953)
(-0.4390823 1.32669 0.0104011)
(-0.1651843 0.09179354 -0.007112258)
(-0.1050079 0.2202323 0.002447581)
(-0.09593384 0.4332849 -0.0006018941)
(-0.0658221 0.604112 0.004017159)
(-0.0804348 0.8240137 0.005989762)
(-0.09583375 1.07509 0.008530006)
(-0.1277984 1.384779 0.01180428)
(0.1416052 -0.01049456 -0.001172176)
(0.1623843 -0.004341066 -0.0003176019)
(0.214754 -0.0143888 -8.159659e-05)
(0.270593 -0.01785782 -0.0003156074)
(0.3402126 -0.02162269 5.245665e-06)
(0.007119517 -0.03628489 0.0003414791)
(0.06634053 -0.04678589 0.0003984967)
(0.1100874 -0.05312704 -0.0002135788)
(0.1624117 -0.05480687 -0.001783026)
(0.2150282 -0.05745532 -0.000329595)
(0.2669708 -0.06607388 -4.813726e-05)
(0.3352003 -0.08415404 0.0003884535)
(-1.25671 -0.05050458 -0.008281519)
(-1.2917 -0.03430032 -0.00217603)
(-1.210448 -0.01820809 0.0002713891)
(-1.244632 0.005138905 -0.0008384588)
(-1.233677 -0.0006560673 -0.0001219917)
(-1.237427 -0.0006296092 -0.0002151199)
(-1.236017 -0.02547821 -0.0001414537)
(-1.250113 -0.02644727 -0.00169663)
(-1.206917 0.03159715 0.0007467703)
(-1.247297 -0.005100516 6.324611e-05)
(-1.237731 0.004288939 -3.474725e-05)
(-1.240389 -0.001673458 1.296226e-05)
(-1.239676 -0.003301514 -2.225085e-05)
(-1.216001 -0.0132584 -0.001490745)
(-1.232187 0.01127614 -0.0003352405)
(-1.231958 -0.009680952 -0.001952608)
(-1.229272 0.003042275 -0.0007129052)
(-1.238937 0.002818284 -0.0006666912)
(-1.240975 0.0007367599 -0.0002250624)
(-1.244451 -0.0041673 -0.0001502298)
(-1.217058 0.006062092 -0.002030622)
(-1.223215 0.003752054 -0.0009081915)
(-1.223137 0.01395524 -0.001704424)
(-1.23649 0.008592924 -0.0008182754)
(-1.2408 0.01017707 -0.0005970076)
(-1.247846 0.005380137 -0.000250744)
(-1.253093 -0.001499306 -0.0001246259)
(-1.22276 0.00294743 -0.002286095)
(-1.219371 0.01315091 -0.0004697175)
(-1.224595 0.01178876 -0.002354809)
(-1.232758 0.01645796 -0.001179822)
(-1.242625 0.01631607 -0.0009155592)
(-1.253111 0.01276374 -0.0004018264)
(-1.263091 0.00462249 -0.0001751187)
(-1.2138 0.005635932 -0.002307496)
(-1.212289 0.01390889 -0.0005899552)
(-1.218844 0.02256513 -0.0024385)
(-1.231223 0.02709587 -0.001325899)
(-1.24428 0.02877902 -0.001065737)
(-1.259666 0.02548161 -0.0004861158)
(-1.275083 0.01666122 -0.0001918667)
(-1.20297 0.006668288 -0.002299454)
(-1.202255 0.02019001 -0.0005694692)
(-1.211255 0.03137985 -0.002539278)
(-1.226267 0.04021357 -0.001427008)
(-1.243982 0.04460963 -0.001178016)
(-1.265123 0.04333386 -0.0005568469)
(-1.287487 0.03515392 -0.0002191606)
(-1.186384 0.009257265 -0.002257551)
(-1.187355 0.02758634 -0.0005699077)
(-1.19895 0.04465132 -0.002532315)
(-1.217986 0.05811851 -0.001447565)
(-1.241055 0.06652953 -0.001202583)
(-1.269017 0.06828542 -0.0005717081)
(-1.299613 0.061866 -0.0002206475)
(-1.164128 0.01231736 -0.002209626)
(-1.16653 0.03723844 -0.0005412093)
(-1.181033 0.0609228 -0.002499649)
(-1.204547 0.08076261 -0.001442101)
(-1.233822 0.09482977 -0.001201636)
(-1.26973 0.1013009 -0.0005683521)
(-1.310014 0.09824319 -0.0002095251)
(-1.134228 0.01620267 -0.002141635)
(-1.13821 0.04921917 -0.0004994194)
(-1.155881 0.08126659 -0.002440847)
(-1.184392 0.1091882 -0.001414924)
(-1.220646 0.1307548 -0.001180111)
(-1.265619 0.1438419 -0.0005524541)
(-1.317146 0.1460417 -0.000190597)
(-1.09513 0.02086458 -0.00208964)
(-1.1007 0.06364227 -0.0004440529)
(-1.121693 0.1058759 -0.002384883)
(-1.155543 0.1439288 -0.001378021)
(-1.199431 0.1752306 -0.001155988)
(-1.254538 0.1973153 -0.0005275979)
(-1.318929 0.207192 -0.0001704246)
(-1.044919 0.0263155 -0.001934017)
(-1.052139 0.08057155 -0.0004278343)
(-1.07643 0.1349957 -0.002279172)
(-1.115726 0.185502 -0.001326939)
(-1.167669 0.2291648 -0.001115623)
(-1.233814 0.2631811 -0.0004948445)
(-1.312686 0.2838889 -0.0001515318)
(-0.9818933 0.03250801 -0.001814424)
(-0.9905678 0.0999492 -0.0004243273)
(-1.017829 0.1686339 -0.002187151)
(-1.062269 0.2341648 -0.001284066)
(-1.122273 0.2933142 -0.001101481)
(-1.199954 0.3428902 -0.0005060231)
(-1.29471 0.3785805 -0.0001923109)
(-0.9042254 0.03929924 -0.001673684)
(-0.9140079 0.1214645 -0.0004442645)
(-0.9434866 0.206491 -0.002081508)
(-0.9920819 0.2898685 -0.001283995)
(-1.059393 0.3679966 -0.001127007)
(-1.148325 0.437665 -0.0006569737)
(-1.259732 0.4938344 -0.0004190027)
(-0.8106624 0.04661143 -0.001552803)
(-0.8205551 0.1448553 -0.0005098987)
(-0.8507386 0.247817 -0.002039677)
(-0.9015984 0.3519277 -0.001413851)
(-0.9742766 0.453059 -0.001562699)
(-1.072487 0.5481381 -0.001489777)
(-1.199959 0.6320817 -0.001569214)
(-0.6994861 0.05344422 -0.001451969)
(-0.7086493 0.1682045 -0.0006068595)
(-0.7372237 0.2914965 -0.002074066)
(-0.7869155 0.4191568 -0.001677079)
(-0.8600956 0.546873 -0.001945872)
(-0.9633381 0.6730265 -0.00227889)
(-1.103547 0.7940236 -0.002718297)
(-0.5719739 0.06117454 -0.001501024)
(-0.5763656 0.1942623 -0.0009193332)
(-0.599989 0.3354686 -0.002233467)
(-0.642228 0.4887772 -0.001861844)
(-0.7088287 0.6443226 -0.002125416)
(-0.809942 0.8076794 -0.002563917)
(-0.9543727 0.9764581 -0.003131451)
(-0.4210769 0.06487362 -0.001407057)
(-0.4257547 0.2106703 -0.001140969)
(-0.4401177 0.3803416 -0.002519758)
(-0.4620909 0.5514106 -0.002297228)
(-0.5159332 0.7372941 -0.002917111)
(-0.6014742 0.9406703 -0.00364015)
(-0.73355 1.167096 -0.004614666)
(-0.2715916 0.08292059 -0.001253103)
(-0.2516655 0.2561461 -0.001423949)
(-0.2469567 0.405819 -0.00107648)
(-0.2548248 0.6018728 -0.0005562998)
(-0.2802541 0.8083358 -0.0002852023)
(-0.3358759 1.048607 -0.0003000547)
(-0.4263487 1.332439 -0.0002665676)
(-0.1668352 0.09289183 -0.006531759)
(-0.1043157 0.2219824 6.394878e-05)
(-0.09750214 0.4418857 -0.001260436)
(-0.06195892 0.6150139 -0.0005004784)
(-0.07656016 0.8409926 2.799593e-05)
(-0.0915177 1.097489 0.0001738747)
(-0.1228214 1.413509 0.0001908595)
(0.1427688 -0.009933342 0.0003492969)
(0.1622895 -0.003682623 -0.0004048416)
(0.2148456 -0.01385282 -0.0002754371)
(0.2705397 -0.01726582 -0.0003416074)
(0.3401716 -0.02096461 -0.0003344006)
(0.007019826 -0.03650913 0.0001728761)
(0.0659123 -0.04664545 0.0001093193)
(0.1094611 -0.05337854 -0.0002052962)
(0.1621766 -0.0547152 -0.0005204209)
(0.215108 -0.05767649 -0.0003900169)
(0.2669459 -0.06642008 -0.0003939732)
(0.335384 -0.08473042 -0.0003576652)
(-1.257672 -0.05013872 -0.007916745)
(-1.291694 -0.0342938 0.002182512)
(-1.210448 -0.01820529 -0.000271438)
(-1.244635 0.005132523 0.000822175)
(-1.233681 -0.0006608244 0.0001947953)
(-1.23743 -0.0006273628 0.0003230369)
(-1.235763 -0.02522276 6.155875e-05)
(-1.250101 -0.02637551 0.001737491)
(-1.206935 0.03159201 -0.0007342102)
(-1.247305 -0.005099149 -4.420132e-05)
(-1.237734 0.004285468 1.108821e-05)
(-1.240381 -0.001676784 3.489217e-05)
(-1.239676 -0.003298609 9.672343e-05)
(-1.215991 -0.0132531 0.001433997)
(-1.232168 0.01127755 0.0003395985)
(-1.232014 -0.009682052 0.001937942)
(-1.229275 0.003043241 0.0007210205)
(-1.238943 0.002822591 0.0006681193)
(-1.240969 0.0007376583 0.0002579973)
(-1.244452 -0.004171103 0.0002020856)
(-1.217015 0.006067066 0.002034049)
(-1.223211 0.003700928 0.0009437812)
(-1.223157 0.01395059 0.001725669)
(-1.236495 0.008584208 0.0008438943)
(-1.240804 0.01017286 0.0006117115)
(-1.247843 0.005374588 0.0002779826)
(-1.253095 -0.00150385 0.0001569436)
(-1.222743 0.002940679 0.00227711)
(-1.219366 0.01313439 0.0004826925)
(-1.224613 0.01178249 0.00235685)
(-1.232759 0.01645062 0.001190411)
(-1.242627 0.01631424 0.0009231025)
(-1.253109 0.01276162 0.000417744)
(-1.26309 0.004617103 0.0001975138)
(-1.21379 0.005637299 0.002307548)
(-1.212286 0.01389807 0.0006008835)
(-1.218855 0.02256446 0.002446507)
(-1.231224 0.02709254 0.001337119)
(-1.244283 0.02877788 0.001075237)
(-1.259665 0.02547804 0.0004981894)
(-1.275083 0.01665954 0.0002056772)
(-1.20296 0.00666595 0.002295577)
(-1.202251 0.02019535 0.0005723305)
(-1.211266 0.03137913 0.002541555)
(-1.226269 0.04021158 0.001432273)
(-1.243982 0.04460828 0.001184413)
(-1.265122 0.04333254 0.0005657216)
(-1.287488 0.03515148 0.0002296653)
(-1.186381 0.009252847 0.002247933)
(-1.18735 0.02761304 0.0005600067)
(-1.198968 0.04465442 0.002531562)
(-1.217989 0.05812122 0.001448032)
(-1.241057 0.06652971 0.001205381)
(-1.269016 0.06828512 0.0005768597)
(-1.299613 0.06186621 0.0002274895)
(-1.164136 0.01231134 0.002186099)
(-1.166517 0.03729018 0.0005303395)
(-1.18107 0.06093126 0.002494708)
(-1.204551 0.08077174 0.001439896)
(-1.233826 0.09483169 0.001203421)
(-1.26973 0.1013018 0.0005728915)
(-1.310015 0.0982427 0.0002160405)
(-1.134245 0.0161665 0.002092479)
(-1.138186 0.04930186 0.000450276)
(-1.155942 0.08127048 0.002432468)
(-1.184401 0.1092007 0.001408587)
(-1.220655 0.1307578 0.00118316)
(-1.265619 0.1438461 0.0005580442)
(-1.317147 0.1460432 0.0001978868)
(-1.095285 0.02087449 0.001928534)
(-1.100636 0.06367497 0.0003013849)
(-1.121794 0.1058849 0.002324243)
(-1.155545 0.1439399 0.00134545)
(-1.199443 0.1752355 0.001147575)
(-1.254538 0.1973186 0.0005298633)
(-1.318931 0.2071957 0.0001778456)
(-1.044908 0.02635928 0.001844185)
(-1.052111 0.08055495 0.0003789615)
(-1.076514 0.1350089 0.002276706)
(-1.115737 0.1855101 0.001328907)
(-1.167684 0.2291738 0.001127597)
(-1.233817 0.2631885 0.0005113591)
(-1.312691 0.2838931 0.0001681408)
(-0.9818887 0.03251733 0.001702453)
(-0.9905394 0.09993151 0.0003629942)
(-1.017908 0.1686405 0.00217262)
(-1.062277 0.2341679 0.001282107)
(-1.122288 0.2933206 0.001115793)
(-1.199957 0.342897 0.0005298709)