/*--------------------------------*- C++ -*----------------------------------*\
  =========                 |
  \\      /  F ield         | OpenFOAM: The Open Source CFD Toolbox
   \\    /   O peration     | Website:  https://openfoam.org
    \\  /    A nd           | Version:  7
     \\/     M anipulation  |
\*---------------------------------------------------------------------------*/
FoamFile
{
    version     2.0;
    format      ascii;
    class       volScalarField;
    location    "0.02";
    object      p;
}
// * * * * * * * * * * * * * * * * * * * * * * * * * * * * * * * * * * * * * //

dimensions      [0 2 -2 0 0 0 0];

internalField   nonuniform List<scalar> 
109978
(
0.0591998
0.08023929
0.09711213
0.1045421
0.1118073
0.1185796
0.07880744
0.09624761
0.1178292
0.1275031
0.1345024
0.1413221
0.08001791
0.1093744
0.1289003
0.1393699
0.1461308
0.1524261
0.07600244
0.122864
0.1411846
0.1472619
0.1539482
0.1610183
0.08405671
0.1154717
0.1411942
0.1487553
0.1562867
0.1632249
0.08082193
0.1220982
0.142144
0.1498825
0.156954
0.1637139
0.08250988
0.122302
0.1422172
0.1499404
0.1570041
0.1637065
0.08257674
0.1223168
0.1424943
0.1501483
0.1571419
0.1638021
0.08268729
0.1223498
0.142527
0.1502174
0.1572129
0.1638592
0.08257615
0.1224292
0.1425964
0.1502998
0.1572761
0.1638896
0.08275491
0.1224343
0.1426425
0.150326
0.1573283
0.1639603
0.08275921
0.1224541
0.1426945
0.1504061
0.1573515
0.1639574
0.08272281
0.1224523
0.1426914
0.1504021
0.1573907
0.1639921
0.08272477
0.1224807
0.1427177
0.1504452
0.1574089
0.1640099
0.08267258
0.122432
0.1427445
0.1504729
0.1574457
0.1640293
0.08277088
0.1224916
0.1427348
0.1504712
0.157432
0.1640303
0.0827696
0.1224148
0.1427563
0.1504748
0.1574397
0.1640088
0.08270982
0.1224831
0.1427366
0.1504678
0.1574064
0.1639988
0.08249513
0.1224874
0.1427331
0.1504309
0.1573887
0.1639693
0.0823567
0.122482
0.1427041
0.1503294
0.1572763
0.1638604
0.08219023
0.1223019
0.142664
0.150254
0.157227
0.163803
0.08144971
0.1226278
0.142561
0.1502514
0.1572297
0.1637862
0.01165897
0.1221958
0.1424219
0.1501122
0.1571513
0.1636034
0.0378007
0.07549418
0.09195513
0.09963733
0.1073149
0.1142881
0.02194268
-0.0001030836
0.008409533
0.02259137
0.02716167
0.03676756
0.01370116
0.002487376
0.01105964
0.02094491
0.02849841
0.03762119
0.01251799
0.007246204
0.007829411
0.02388026
0.02783547
0.03802571
0.01250841
0.00251729
0.007172614
0.0218444
0.02779363
0.03736434
0.01242453
0.007440606
0.006941365
0.02374136
0.02862797
0.0381854
0.01254933
0.004097227
0.00624468
0.02261829
0.02814142
0.03779618
0.01250092
0.004913502
0.006615202
0.02325985
0.02853304
0.03805587
0.01251331
0.004229949
0.006303171
0.02297492
0.02838821
0.03797279
0.01249838
0.004438999
0.006428426
0.02310041
0.02846941
0.03801537
0.01249855
0.004380358
0.006383837
0.02307351
0.02846288
0.03801712
0.01249862
0.004391022
0.006396561
0.02308681
0.02847477
0.03802352
0.01249665
0.004386344
0.006393741
0.02308836
0.02848352
0.03803384
0.01249643
0.004391885
0.006397696
0.02309285
0.02848677
0.03803741
0.01249495
0.004399726
0.00640225
0.02309734
0.02849253
0.03804044
0.01249631
0.004416533
0.006406918
0.02310122
0.02849496
0.03804292
0.01249958
0.004418592
0.006416909
0.02310652
0.02849824
0.03804278
0.01249819
0.004440997
0.006425938
0.02311858
0.02850709
0.03804921
0.01250026
0.00444123
0.00644152
0.02313244
0.02852206
0.03806319
0.01250135
0.004514092
0.006464041
0.0231493
0.02853051
0.03807236
0.01250161
0.004524002
0.006505831
0.02318244
0.02855247
0.03809051
0.01249713
0.004621327
0.006547426
0.02320953
0.0285681
0.03810592
0.01248948
0.004824844
0.006648959
0.02325213
0.02860193
0.03813757
0.01249626
0.005234756
0.006677726
0.02321691
0.02853895
0.03807224
0.04347108
0.09473557
0.1171871
0.1269284
0.1346402
0.1419448
0.01388229
-0.004646542
0.01321979
0.02222641
0.02946439
0.03721115
0.003276885
0.004659761
0.01760475
0.02100554
0.03069138
0.03671933
0.002198964
0.006664181
0.01599979
0.02336709
0.03046262
0.03764618
0.001456726
0.006403538
0.01745889
0.02109659
0.02993932
0.03659513
0.001284223
0.0082813
0.01748719
0.02299387
0.03077305
0.03740971
0.001057139
0.007131275
0.01709884
0.0217155
0.03010867
0.03682172
0.001023244
0.008132621
0.01753743
0.02249501
0.03061273
0.03716688
0.0009998202
0.007588497
0.0172064
0.02209806
0.03038187
0.0370273
0.0009817768
0.007910534
0.01737937
0.02227634
0.03049451
0.03709194
0.0009690112
0.00783606
0.01731458
0.02223038
0.03047581
0.03708773
0.0009684017
0.007879488
0.01733836
0.02225095
0.03049012
0.03709766
0.0009667108
0.007888079
0.01733937
0.02225504
0.03049546
0.03710105
0.000965634
0.00790126
0.0173448
0.02226154
0.03050034
0.03710595
0.0009662358
0.007911106
0.01734959
0.02226768
0.0305059
0.03710912
0.0009659349
0.007922969
0.01735594
0.02227508
0.030512
0.0371145
0.0009679
0.007934353
0.0173636
0.02228359
0.03052003
0.03712027
0.000969561
0.007947173
0.01737269
0.02229408
0.03052843
0.03712755
0.0009713985
0.007967847
0.01738651
0.02230849
0.03054033
0.03713651
0.0009766525
0.008000026
0.01740306
0.0223272
0.0305531
0.03715011
0.0009798448
0.008045136
0.01742447
0.02235144
0.03057054
0.03716958
0.0009834962
0.008098618
0.01743775
0.02237329
0.03057972
0.037191
0.0009899149
0.008180375
0.01744981
0.02240578
0.030595
0.03722948
0.0009927024
0.008196315
0.01742036
0.02241086
0.03058986
0.03726684
0.04212047
0.1127464
0.1289469
0.1382965
0.1463393
0.1537992
0.01406024
-0.002263063
0.01231206
0.02443233
0.02913948
0.03788467
0.001461779
0.00444149
0.01464525
0.01999091
0.02906952
0.03635106
0.001914095
0.01116316
0.01377585
0.02685664
0.03042006
0.03866877
0.001551811
0.009001773
0.01375855
0.02257536
0.02923664
0.03708698
0.00190924
0.01190238
0.01474308
0.02592569
0.03074342
0.03847453
0.001870606
0.01037638
0.01368788
0.02395397
0.02977213
0.03770712
0.001986945
0.01144837
0.01453798
0.0251359
0.03051536
0.03819997
0.001959287
0.01090872
0.01402827
0.02460337
0.03020757
0.03801955
0.001978679
0.01120738
0.01430328
0.02484847
0.03036528
0.03810304
0.001976057
0.01111974
0.01421769
0.02478709
0.03034152
0.03809597
0.001978222
0.01115808
0.01425035
0.02481168
0.03035815
0.03810524
0.001978926
0.01115936
0.01425092
0.02481349
0.03036444
0.03810962
0.001979487
0.01116569
0.01425563
0.02481902
0.03036797
0.03811259
0.001980153
0.01117092
0.0142603
0.02482371
0.03037331
0.03811543
0.001980749
0.0111766
0.01426528
0.0248289
0.03037721
0.0381184
0.001981473
0.01118216
0.01427173
0.02483555
0.03038352
0.03812203
0.001982381
0.01118984
0.01428012
0.02484516
0.03039118
0.03812853
0.001983381
0.01119814
0.01429109
0.02485933
0.03040306
0.03813842
0.001985639
0.01121159
0.01430631
0.0248779
0.03041666
0.03815184
0.001987837
0.01122657
0.01432843
0.02490791
0.03043961
0.03817443
0.001988264
0.01124859
0.01435417
0.02494334
0.03046301
0.03819866
0.001988238
0.0112841
0.01439844
0.02500305
0.03050346
0.03824398
0.001986195
0.01132623
0.01443482
0.02505364
0.03054466
0.03828314
0.03647058
0.1288197
0.1391808
0.1474151
0.1552475
0.1618857
0.0145255
-0.004914639
0.01358453
0.02349927
0.0293987
0.03801406
0.000974415
0.002441155
0.01655309
0.01966066
0.02940335
0.03594513
0.00216531
0.01010543
0.01461244
0.02496604
0.03019037
0.03815008
0.001288701
0.006320655
0.01605487
0.02085166
0.02909873
0.03644571
0.001570985
0.01001748
0.01615112
0.0240218
0.03051777
0.03781733
0.001403463
0.00798815
0.01551107
0.02208712
0.02949004
0.03696682
0.001517846
0.009287607
0.01618113
0.02326755
0.03024399
0.037486
0.001470773
0.008649953
0.01573075
0.0227007
0.0299033
0.03728034
0.001493526
0.00898597
0.01598534
0.02295697
0.03006665
0.03736989
0.001488934
0.008878072
0.01589978
0.02289021
0.03003746
0.03735935
0.001491284
0.008920407
0.01593372
0.02291588
0.03005495
0.03737038
0.001492015
0.008919733
0.01593431
0.0229188
0.0300602
0.0373732
0.001492636
0.008925748
0.01594057
0.02292447
0.03006486
0.03737778
0.001493335
0.008930265
0.01594489
0.02292981
0.03006927
0.03737978
0.001493964
0.008934977
0.01595066
0.02293526
0.03007445
0.037384
0.001494722
0.008940475
0.01595643
0.02294249
0.03007976
0.03738852
0.001495604
0.00894677
0.01596413
0.02295032
0.03008641
0.03739541
0.001496792
0.008955395
0.01597239
0.02296228
0.0300937
0.03740702
0.001498198
0.008964433
0.01597882
0.02297219
0.03009665
0.03742049
0.00149968
0.008976284
0.0159858
0.02299212
0.03010024
0.03745181
0.001499846
0.008977616
0.01596858
0.02298944
0.03007573
0.03747221
0.001499743
0.008985862
0.01596484
0.023035
0.03005637
0.03757205
0.001519632
0.008942152
0.01587443
0.02298474
0.02996317
0.03762783
0.03569656
0.1272464
0.1425919
0.1491444
0.1566321
0.1632577
0.01487256
-0.004758341
0.01356952
0.02349492
0.02937534
0.03796371
0.0009732238
0.002439931
0.01658065
0.01967777
0.02942031
0.03596352
0.002337252
0.01014188
0.01462216
0.02497005
0.03019153
0.03814896
0.001343799
0.006323595
0.01605983
0.02085644
0.02910404
0.0364534
0.001616759
0.01001971
0.01615173
0.02402128
0.03051898
0.03781962
0.001437361
0.007988896
0.01551002
0.02208637
0.02949127
0.03697084
0.00153517
0.009288746
0.01617863
0.02326674
0.0302445
0.03748673
0.001489575
0.008651548
0.01572887
0.02269992
0.02990419
0.0372822
0.001511974
0.008988848
0.01598344
0.02295726
0.03006724
0.03737005
0.001507286
0.008880886
0.01589886
0.02289042
0.03003825
0.03736076
0.00150962
0.00892393
0.01593313
0.02291653
0.03005618
0.03737004
0.001510401
0.008922855
0.01593423
0.02291956
0.03006101
0.03737419
0.001511072
0.008929273
0.01594049
0.02292545
0.03006597
0.03737708
0.001511763
0.008934077
0.01594559
0.02293125
0.03007056
0.03738049
0.001512449
0.008939264
0.01595214
0.02293781
0.03007621
0.03738363
0.00151337
0.008946451
0.01596089
0.02294754
0.0300837
0.03738932
0.001514669
0.00895664
0.01597368
0.0229617
0.03009408
0.0373971
0.001516734
0.008972677
0.01599304
0.02298605
0.03011238
0.03741218
0.001519527
0.008995747
0.01601848
0.023019
0.03013314
0.03743046
0.00152362
0.009033737
0.01606057
0.02307861
0.03017083
0.03746735
0.001528726
0.009076699
0.01609934
0.02313869
0.03021222
0.03750403
0.001536144
0.009146585
0.01616662
0.02325348
0.03026068
0.03754624
0.001506887
0.009181683
0.01619797
0.02329827
0.03034707
0.03759059
0.03801245
0.1209162
0.1404574
0.1451043
0.1510343
0.157968
0.01342784
-0.002478922
0.01222329
0.02430937
0.02901486
0.03773831
0.001838021
0.004467951
0.01467857
0.02002729
0.02911089
0.03639541
0.002890294
0.01114261
0.01375915
0.02683786
0.03040387
0.03864346
0.00172856
0.009002072
0.01376304
0.02258374
0.02924559
0.037097
0.001935304
0.01190284
0.01474333
0.02592845
0.03074403
0.03847181
0.00180256
0.01037906
0.0136916
0.02396014
0.02977626
0.0377109
0.001893981
0.01145199
0.01454233
0.02514131
0.03051963
0.03820438
0.001857528
0.01091424
0.01403418
0.02461047
0.03021238
0.03802501
0.00187394
0.01121563
0.01431112
0.02485608
0.03037172
0.03810882
0.001869678
0.01112843
0.01422584
0.02479562
0.03034711
0.03810193
0.001871712
0.01116785
0.01425935
0.02482005
0.03036476
0.03811136
0.001872246
0.01116786
0.01425923
0.02482182
0.03036995
0.03811522
0.001872712
0.01117418
0.0142636
0.02482679
0.03037387
0.03811814
0.001873229
0.0111787
0.01426769
0.0248313
0.03037795
0.03812033
0.001873721
0.01118369
0.01427183
0.02483658
0.03038225
0.03812408
0.001874383
0.0111893
0.01427778
0.02484386
0.03038713
0.0381295
0.001875355
0.01119563
0.01428395
0.02485302
0.03039153
0.03813711
0.001877181
0.01120368
0.01429462
0.0248698
0.03039789
0.0381551
0.001880012
0.01121008
0.01430029
0.02488503
0.03038833
0.03816923
0.001883257
0.0112212
0.01431502
0.0249407
0.03038313
0.03824522
0.001885425
0.01120157
0.01428136
0.02494965
0.03030649
0.03830139
0.001888936
0.01122497
0.01430592
0.02520337
0.03023919
0.03863612
0.001884788
0.01112119
0.0141312
0.02517107
0.0299864
0.03879556
0.03639169
0.1078106
0.12232
0.132414
0.1399588
0.1471066
0.01049176
-0.004408849
0.01320011
0.0221831
0.0293786
0.03711204
0.001684023
0.004684834
0.01762613
0.02102959
0.03071672
0.03674694
0.002274821
0.006697489
0.01601111
0.02337633
0.03047019
0.03765484
0.001185625
0.006419692
0.01747262
0.02111405
0.02995974
0.03661787
0.001146048
0.008289137
0.01749869
0.02300727
0.03078874
0.03743235
0.0008879174
0.007131594
0.0171062
0.02172923
0.03012477
0.03684554
0.0008222785
0.008137812
0.0175452
0.02250713
0.03062639
0.03718604
0.0008292267
0.007597884
0.01721541
0.02211094
0.03039446
0.03704305
0.0007944759
0.007928272
0.01739219
0.02229039
0.03050695
0.03710597
0.0007852086
0.007851454
0.01732862
0.02224568
0.03048847
0.0371002
0.0007826694
0.007906537
0.01735617
0.02226689
0.03050331
0.03710919
0.0007805219
0.007904666
0.01735481
0.0222708
0.0305081
0.03711179
0.0007799746
0.007922261
0.01736119
0.0222772
0.03051298
0.03711606
0.0007790549
0.007931594
0.01736569
0.02228353
0.03051832
0.037119
0.0007793734
0.007933519
0.01737056
0.02229083
0.03052456
0.0371244
0.0007789854
0.00795103
0.01738223
0.0223036
0.03053503
0.03713074
0.0007805757
0.007971672
0.017402
0.02232316
0.03054894
0.03714094
0.0007832591
0.008004817
0.01743557
0.02235805
0.03057225
0.03715787
0.0007874178
0.008057649
0.01747959
0.02240298
0.03060438
0.03717931
0.0007938526
0.008144516
0.0175482
0.02247718
0.03064487
0.03721257
0.0008021622
0.008247348
0.01761102
0.02252761
0.03070472
0.03724014
0.0008083523
0.008421311
0.01767528
0.02257587
0.03070262
0.03716352
0.0008090413
0.00847531
0.01766582
0.02247638
0.03074117
0.0371657
0.03861046
0.07912122
0.09857363
0.1079112
0.115448
0.1223727
0.01062543
0.0001395831
0.008467587
0.02262357
0.02719195
0.0367844
0.001523107
0.002534422
0.01109226
0.02097654
0.02853944
0.03763969
0.001453118
0.007254561
0.007844469
0.02388283
0.0278473
0.03800957
0.0008513751
0.00251112
0.007174191
0.02185621
0.02779555
0.03738132
0.0006339461
0.007441341
0.006932807
0.02372033
0.0286063
0.0381488
0.0006194001
0.004081012
0.00623212
0.02260793
0.02812295
0.0377763
0.0005968575
0.004911161
0.006605968
0.02324801
0.02851845
0.03803943
0.0005649439
0.00424701
0.006297356
0.02297141
0.02837816
0.03796228
0.0005584651
0.004482181
0.006430255
0.02310072
0.02846437
0.03800931
0.0005515484
0.004427023
0.006385897
0.02307565
0.02845598
0.03800982
0.0005530979
0.004450618
0.006403873
0.02308915
0.02847092
0.03801926
0.0005493451
0.004420411
0.006397263
0.02309087
0.02847563
0.03802406
0.000551272
0.004442028
0.006400604
0.0230928
0.0284791
0.03802723
0.0005469204
0.004440245
0.006404467
0.02309853
0.02848219
0.03802912
0.0005497514
0.004458431
0.006405129
0.02310583
0.0284882
0.03803536
0.0005491757
0.004466471
0.006417189
0.02311695
0.02849479
0.03803951
0.0005515581
0.004497033
0.006425107
0.02312915
0.02850254
0.03805216
0.0005544008
0.004515057
0.006467498
0.02316523
0.02851532
0.03808496
0.0005561508
0.004590493
0.006534037
0.02320236
0.02848595
0.03809651
0.0005730217
0.004715405
0.006668416
0.02336307
0.02847825
0.03821932
0.0005895653
0.004849236
0.00676074
0.02345655
0.0283582
0.0383204
0.0005985066
0.005299293
0.007136228
0.02420936
0.02829056
0.03908009
0.000597303
0.005775563
0.007251194
0.02454593
0.02837016
0.03950392
0.009304963
0.04479494
0.06438045
0.07312634
0.08010662
0.0870764
0.001518077
0.009474674
0.04764711
0.0716752
0.08175326
0.08915263
0.09598653
0.002776179
0.01469731
0.07148763
0.1032397
0.1151556
0.1218957
0.1285761
0.002640806
0.01763883
0.07842829
0.1119519
0.1237668
0.1290668
0.1352653
0.002537708
0.01678342
0.07267796
0.1086645
0.120659
0.1276192
0.1340278
0.002456978
0.01214998
0.07411455
0.1106363
0.1213237
0.1273645
0.133636
0.002434544
0.01182717
0.07176767
0.1099419
0.1208483
0.1270598
0.1335558
0.002440164
0.01136931
0.07204834
0.1101995
0.1210251
0.1271266
0.1335576
0.002461848
0.01130924
0.07196624
0.1100881
0.1209426
0.1270823
0.1335432
0.002446111
0.01136302
0.07198596
0.1100731
0.1209072
0.1270324
0.1334741
0.002450009
0.01129025
0.0719394
0.1100285
0.1208832
0.1270068
0.1334471
0.002474451
0.01153709
0.07195589
0.1099959
0.1208483
0.1269747
0.1334171
0.002456893
0.01122775
0.07188622
0.1099699
0.120845
0.1269855
0.1334201
0.00247449
0.0113051
0.07192175
0.1099748
0.1208318
0.1269581
0.1333823
0.002451025
0.01137347
0.07190874
0.109973
0.1208289
0.1269644
0.1333877
0.00243962
0.01124059
0.07190174
0.1099608
0.1208228
0.1269481
0.1333702
0.002441012
0.01130104
0.07190008
0.1099538
0.1208256
0.1269534
0.1333785
0.002453447
0.01131372
0.07194655
0.1099763
0.1208369
0.1269901
0.1334016
0.002446147
0.0113498
0.07205719
0.110073
0.1208892
0.1270034
0.1334181
0.002444022
0.01144937
0.07214752
0.110239
0.12103
0.1270816
0.1334488
0.00244805
0.01155802
0.07226618
0.1104555
0.1212356
0.1271955
0.13355
0.002450123
0.01178022
0.07259535
0.1109167
0.1217467
0.1275121
0.1336099
0.002455144
0.01215206
0.0730413
0.1118471
0.1222526
0.1278554
0.1337154
0.002459743
0.01144058
0.0724722
0.1116539
0.121328
0.1272526
0.1373529
-0.02953965
-0.02357441
0.004847366
0.01229619
0.03200081
-0.03617837
0.008791455
-0.06123156
0.01524517
0.0005611699
0.04750093
-0.03274168
0.04467252
-0.05388553
0.0401499
-0.01111866
0.06132635
-0.02748946
0.06427538
-0.04978016
0.05704254
-0.01105727
0.06884603
-0.02068803
0.07305638
-0.04270987
0.06638078
-0.005247424
0.07586464
-0.01364659
0.08005845
-0.03582461
0.07370816
0.001757385
0.08283841
0.08703779
0.08075639
-0.05450952
-0.03000588
0.001514301
-0.004033886
0.002877777
0.006873813
-0.03272948
-0.0371294
0.00277051
0.002950675
0.002713543
0.007283477
-0.02985372
-0.03388498
0.002634839
0.004898015
0.00261211
0.00363588
-0.0376377
-0.03387026
0.002526219
0.002124089
0.00253025
0.002900374
-0.03076164
-0.03085901
0.002454721
0.001734242
0.002459147
0.001801896
-0.03196175
-0.03078499
0.002431903
0.001257802
0.002430631
0.001368387
-0.03090076
-0.02988815
0.002438196
0.001617344
0.002441508
0.001596042
-0.03036116
-0.03031695
0.002439537
0.001558188
0.002435166
0.001513976
-0.03040263
-0.03019036
0.002435951
0.001544761
0.002434312
0.00151259
-0.03062091
-0.03021459
0.002436354
0.001558213
0.002436176
0.001547687
-0.03037657
-0.03028332
0.002436597
0.001557772
0.0024357
0.001544447
-0.03035509
-0.0302144
0.002435558
0.001541861
0.002435618
0.001534244
-0.03059084
-0.03050061
0.002437924
0.001581649
0.002437333
0.001568637
-0.03049516
-0.03019912
0.002436194
0.001547051
0.002436191
0.001540031
-0.03066801
-0.03016591
0.002438321
0.001581957
0.002439138
0.001588462
-0.03034078
-0.03038131
0.00243846
0.001573889
0.002437295
0.001559593
-0.03044771
-0.03019306
0.00243676
0.001552796
0.002437692
0.001558518
-0.03058304
-0.0303125
0.00243902
0.001589173
0.002439136
0.001579948
-0.03061524
-0.03014453
0.00243958
0.00158364
0.002437712
0.001555564
-0.03069432
-0.03016088
0.002440272
0.001605783
0.002438178
0.001572215
-0.03062077
-0.0300038
0.002439725
0.001599722
0.002435126
0.001534737
-0.03112264
-0.03247516
0.002438656
0.001610345
0.002429773
0.001523043
-0.03153035
0.02700438
0.002417936
0.001319255
0.002445784
0.001821612
-0.01329132
0.001477555
0.02181864
0.004252415
0.005235281
0.02859417
0.002478233
0.00499937
0.02557849
0.004639395
0.004170204
0.02967545
0.00546062
0.004883053
0.02756466
0.006199081
0.004749807
0.02545992
0.00946238
0.004632957
0.02591481
0.008158582
0.004420391
0.02578165
0.00729826
0.004697574
0.02576389
0.01119695
0.004068687
0.02636377
0.008880828
0.004122621
0.0264203
0.007298253
0.004146562
0.02790673
0.005992266
0.004309917
0.02933879
0.003322622
0.005024732
0.02561561
0.006988957
0.004683305
0.0285297
-0.01384241
0.001568899
0.02119718
-0.02288129
0.004654387
0.01238176
-0.02950654
0.08079621
0.08285752
-0.003866172
0.002883107
0.006934328
-0.05440678
-0.02991446
0.003008393
0.002719516
0.007363018
-0.03264742
-0.0369875
0.002092207
0.002532513
0.002929811
-0.03757274
-0.03403852
0.001747393
0.002461842
0.00181861
-0.03113571
-0.0307256
0.001284207
0.002425405
0.001330795
-0.03186745
-0.03152664
0.001662414
0.002450222
0.001624349
-0.03211927
-0.03013859
0.001914226
0.00245299
0.001864812
-0.03166601
-0.03203873
0.001695764
0.002443422
0.001639048
-0.03228518
-0.03055295
0.0017442
0.002452538
0.001691386
-0.03029698
-0.03257987
0.002208248
0.002474511
0.002016169
-0.03324483
-0.03199833
0.001588791
0.002457044
0.001582905
-0.03084304
-0.03036319
0.001995945
0.002462533
0.0020637
-0.03172071
-0.03275182
0.001780601
0.00244578
0.001702913
-0.03288116
-0.03074977
0.001603786
0.002435274
0.00154431
-0.03085367
-0.03056958
0.001632826
0.002443709
0.001570946
-0.0311153
-0.03083442
0.001794249
0.002450896
0.001802791
-0.03145935
-0.03209067
0.001651901
0.002445455
0.001628065
-0.03151064
-0.03032745
0.001671384
0.002445094
0.001614526
-0.03055295
-0.03060853
0.001711613
0.00244794
0.001663444
-0.03056155
-0.0305282
0.001833571
0.002446407
0.001672986
-0.030096
-0.03096513
0.001946288
0.002434971
0.001676557
-0.03031794
0.02785433
-0.003517924
-0.0197157
-0.003719943
-0.0100955
-0.001930476
-0.01180723
-0.004090566
-0.01263758
-0.004137467
-0.01211787
-0.002818967
-0.01252377
-0.004291696
-0.0120093
-0.002963398
-0.0113287
-0.002961155
-0.01170237
-0.002270722
-0.01151242
-0.002343951
-0.01105559
-0.001876503
-0.01072772
-0.00190674
-0.010777
-0.001653773
-0.01055751
-0.001626024
-0.01045921
-0.001596112
-0.01044381
-0.001579094
-0.01049621
-0.001587379
-0.01050437
-0.001582563
-0.01050936
-0.001590263
-0.01046281
-0.001573008
-0.01045046
-0.001576517
-0.01046625
-0.001567864
-0.01047851
-0.001577609
-0.0104914
-0.001575602
-0.01050194
-0.001565038
-0.01042942
-0.001556865
-0.01038315
-0.001584205
-0.01047314
-0.001579368
-0.01049843
-0.001580385
-0.01043586
-0.001562775
-0.01041055
-0.001577142
-0.01045581
-0.001567729
-0.01047358
-0.001585942
-0.01048719
-0.00158318
-0.0104931
-0.001587183
-0.01044612
-0.00157032
-0.01041928
-0.00161031
-0.01047036
-0.001596994
-0.01050089
-0.001622809
-0.0104766
-0.001603741
-0.01048939
-0.001658373
-0.01051736
-0.001636824
-0.01056461
-0.001726925
-0.01047059
-0.001706944
-0.01041072
-0.001915982
-0.01069464
-0.001847855
-0.01076241
-0.03590598
-0.04031817
-0.04452902
-0.03899623
-0.03983976
-0.03659485
-0.04120633
-0.04046617
-0.04171189
-0.03962663
-0.04140026
-0.04454941
-0.04110992
-0.0421869
-0.03686996
-0.04348783
-0.02407477
-0.03396551
-0.0610805
0.01546174
0.0006700595
0.0321311
-0.03605407
-0.05376376
0.04024338
-0.01103215
0.04762407
-0.03266512
-0.0497115
0.0571032
-0.01098895
0.06140945
-0.02744318
-0.04264923
0.06643569
-0.005191002
0.06889987
-0.02065232
-0.03575439
0.07375343
0.001798735
0.0759111
-0.01361739
0.004931954
0.002630229
0.003724366
-0.0298474
-0.03382732
0.001648664
0.002438489
0.001597159
-0.03177137
-0.03130424
0.002772598
-0.01114793
-0.002162436
-0.02993618
-0.02457417
-0.02872937
-0.002982306
-0.01270928
-0.004491255
-0.01101819
-0.003773089
-0.0125662
-0.003736858
-0.01180145
-0.003732187
-0.01145103
-0.002680972
-0.01218502
-0.002652638
-0.01169124
-0.003084196
-0.01159122
-0.002043163
-0.010808
-0.001969186
-0.01088786
-0.001792014
-0.01062557
-0.001774895
-0.01074038
-0.001573568
-0.01045065
-0.00159639
-0.01042652
-0.001580932
-0.01050512
-0.001588867
-0.0104928
-0.001581747
-0.01048607
-0.001589357
-0.0105006
-0.001563456
-0.01046388
-0.001578744
-0.01043746
-0.001565825
-0.0104886
-0.001574043
-0.01047598
-0.001576569
-0.01046486
-0.00157693
-0.01049411
-0.001550754
-0.01044907
-0.001566872
-0.01037646
-0.001577556
-0.01046742
-0.001586329
-0.01049235
-0.001554847
-0.01044738
-0.001574246
-0.01039438
-0.001570637
-0.01048865
-0.001581325
-0.01047231
-0.00157963
-0.01047491
-0.001590741
-0.0104877
-0.001572877
-0.01046397
-0.001592628
-0.01041158
-0.00159932
-0.01049446
-0.001608996
-0.01049421
-0.001601297
-0.01051631
-0.001625805
-0.01047696
-0.001660972
-0.01052317
-0.00168397
-0.01054499
-0.001789694
-0.0106094
-0.001789959
-0.01045052
-0.001883527
0.01411464
-0.0106995
-0.002179735
-0.04181032
-0.03867618
-0.03683018
-0.04332348
-0.03948751
-0.03936092
-0.04350753
-0.04171492
-0.04251533
-0.04481926
-0.04359213
-0.04508
-0.04379489
-0.03476346
-0.03875987
-0.03988623
-0.005478067
-0.02025147
0.01251564
-0.02989707
-0.02139822
0.01745626
0.00269279
-0.01117118
-0.002413766
-0.02989064
0.03137605
0.06043527
0.06843018
0.02475447
-0.003714103
-0.01008555
-0.001900972
-0.01177294
-0.002949472
-0.01268176
-0.004455691
-0.01099055
-0.004067794
-0.01261249
-0.004111128
-0.01209493
-0.003756756
-0.01255671
-0.003733631
-0.01177631
-0.00296179
-0.01126772
-0.002951523
-0.01167414
-0.002619148
-0.01174672
-0.003091466
-0.0115877
-0.0022584
-0.01153672
-0.002309942
-0.01103967
-0.002012266
-0.01079186
-0.001945719
-0.01086903
-0.00157876
-0.01030069
-0.001621001
-0.01029358
-0.001706079
-0.01020299
-0.001581145
-0.01019062
-0.001575646
-0.01033561
-0.00157164
-0.01032641
-0.00156139
-0.01029992
-0.001576415
-0.01030412
-0.00158475
-0.010218
-0.001554805
-0.0100541
-0.001588101
-0.01031256
-0.001583086
-0.0103467
-0.001549218
-0.01041514
-0.001558638
-0.01031865
-0.00156597
-0.0104394
-0.001564185
-0.01044378
-0.001569012
-0.01048977
-0.00156767
-0.01044799
-0.001583075
-0.010503
-0.001595382
-0.01046701
-0.001614774
-0.01050498
-0.001591968
-0.01048496
-0.001625284
-0.010526
-0.001668158
-0.01050207
-0.001841222
-0.0107104
-0.001922141
-0.01060245
-0.001957616
0.01487227
-0.01076923
-0.001859601
-0.009048674
0.003939249
-0.01718702
-0.01301677
-0.01264197
-0.01274859
-0.014715
-0.01408102
-0.01496943
-0.01241867
-0.01285068
-0.01163059
-0.0126597
-0.01241561
-0.01422206
-0.01615747
-0.01355552
-0.0155203
-0.01749216
-0.01549228
0.01208281
-0.02984901
-0.02134118
0.01760238
-0.01562248
-0.02010252
-0.01569862
-0.01187406
-0.01554079
-0.01781058
-0.01292799
-0.0124789
-0.01185036
-0.01181704
-0.0120959
-0.01413977
-0.01266115
-0.01290127
-0.01370394
-0.01286704
-0.01248356
-0.01407305
-0.008525924
0.004588668
-0.007816643
0.00250484
-0.006565826
0.0007997795
0.03609502
0.08412446
0.07065049
0.03243905
-0.003991701
0.002448155
0.003244018
-0.005186539
-0.00248431
0.004595153
0.004305361
-0.002585772
-0.002475506
0.004690124
-0.00277534
0.004335753
-0.002505173
0.004608808
-0.002848418
0.004289438
-0.002516312
0.004609039
0.004336837
-0.002877881
-0.002435064
0.00470994
-0.002749913
0.004378002
-0.00185021
-0.01070865
-0.001877043
-0.01076713
-0.001771891
-0.01062468
-0.001755555
-0.01074953
-0.00166711
-0.01050728
-0.001631281
-0.010358
-0.001708809
-0.01020887
-0.001637918
-0.01020266
-0.001620033
-0.01022761
-0.001622383
-0.01025052
-0.001549805
-0.01028253
-0.001553967
-0.01019453
-0.001574083
-0.01029307
-0.001592266
-0.01013579
-0.001666827
-0.01016997
-0.001672451
-0.01020931
-0.001963053
-0.01013849
-0.001694259
-0.01040224
-0.001861904
-0.01023775
-0.001647844
-0.01033001
-0.001644985
-0.01036935
-0.00166684
-0.01049776
-0.001623243
-0.01033828
-0.001640656
-0.01047839
-0.001764068
-0.01021758
-0.001586436
-0.01021126
-0.00181728
-0.01015443
-0.001682254
-0.01027365
-0.001670637
-0.01016636
-0.001655308
-0.01021777
-0.001580811
-0.01031167
-0.00158499
-0.01013989
-0.001570441
-0.01035561
-0.00156256
-0.01038804
-0.001553925
-0.01038011
-0.00156033
-0.01037916
-0.002369997
0.00474556
0.004449575
-0.002696129
-0.002359906
0.004777273
-0.002673415
0.004451872
-0.002360487
0.004770759
0.004471515
-0.00268466
-0.001621879
-0.01017674
-0.001569589
-0.01009069
-0.002357756
0.004752573
-0.002677968
0.004454398
-0.002353618
0.004771082
-0.00266921
0.004458545
-0.002356511
0.004771621
0.004449246
-0.002668363
-0.002356039
0.004767369
-0.00266965
0.00445109
-0.002370277
0.004759942
0.00444105
-0.002683419
-0.00175689
-0.0106237
-0.001710677
-0.01055327
-0.002395933
0.004748469
0.004410929
-0.002704177
-0.002428137
0.004681784
0.004408431
-0.002757401
0.01436512
-0.03211137
-0.02611806
0.02130753
-0.01960543
0.001299988
-0.01109342
-0.01249808
-0.008241781
-0.01799454
-0.01457268
-0.01330888
-0.01217517
-0.01171945
-0.01837351
-0.01869065
-0.01428717
-0.0128379
-0.0140707
-0.01650033
-0.01372358
-0.01438399
-0.01268791
-0.013316
-0.01448389
-0.01230767
-0.02308131
-0.01814586
0.01278998
0.01613423
-0.02163783
-0.0197472
-0.01719327
0.01937832
0.02328815
-0.01359799
0.02663927
-0.006184349
-0.001632859
0.03231144
-0.006389785
0.03481497
0.0392591
-0.001287728
0.03875855
0.003351882
0.009603916
0.04632922
0.001095047
0.04322323
0.04828184
0.006491202
0.04645538
0.0107881
0.01731585
0.05429723
0.008116318
0.05054219
0.05554786
0.01364424
0.05349215
0.01773273
0.02433702
0.06138857
0.01510927
0.02067473
0.0575327
0.06256899
-0.01250933
-0.0042916
-0.01197302
-0.00279651
-0.01138217
-0.00264984
-0.01213337
-0.003737047
-0.01022064
-0.001597529
-0.0102302
-0.001577506
-0.01029978
-0.001570908
-0.01022588
-0.001562684
-0.02368393
-0.01639621
-0.01305494
-0.01215903
-0.01294323
-0.0152717
-0.01461184
-0.01357966
-0.01198384
-0.01534896
-0.01369984
-0.01273754
-0.01503908
-0.01277368
-0.01518587
-0.01487052
-0.0142716
-0.01418478
-0.008793154
-0.01710216
0.01446578
-0.03239104
0.02113179
-0.02603532
-0.01951018
0.001240394
-0.01220931
-0.01119869
-0.008314184
-0.00103066
-0.01081795
0.002292436
0.0674415
0.08168034
0.02639426
-0.002340692
0.004746285
0.004225751
-0.002593204
-0.002572221
0.004616743
-0.002845611
0.004284047
-0.002430113
0.004691047
-0.002767633
0.004396375
-0.002353355
0.004767929
0.004469447
-0.002730733
-0.002350209
0.004778144
0.004450369
-0.002668594
-0.002346784
0.004778773
-0.002667341
0.00446487
-0.002342309
0.004783529
0.004482641
-0.002705452
-0.002349127
0.004777748
0.004451438
-0.002669794
-0.002347858
0.004776914
-0.002668736
0.004462984
-0.002357652
0.004768791
-0.002671787
0.004447928
-0.002354739
0.004770043
0.004451701
-0.002668148
-0.002361862
0.004765229
-0.002676583
0.00444387
-0.002354238
0.004769662
0.004453761
-0.002671579
-0.002372976
0.004735514
0.004446695
-0.002697901
-0.002399583
0.004739122
-0.002737715
0.004378628
0.001508946
0.001879216
0.0007988434
0.0006680608
0.002449021
0.01302949
0.07398579
0.1102196
0.1251029
0.1288973
0.1382235
0.02769081
0.002462905
0.002219115
0.01411379
-0.002013211
0.002020006
0.02735133
0.01484539
-0.002001748
-0.01988275
0.0128254
0.01595754
-0.02177684
-0.001752077
0.02643595
0.03218083
-0.006330538
0.009553476
0.03862548
0.0462708
0.003258498