/*--------------------------------*- C++ -*----------------------------------*\
  =========                 |
  \\      /  F ield         | OpenFOAM: The Open Source CFD Toolbox
   \\    /   O peration     | Website:  https://openfoam.org
    \\  /    A nd           | Version:  7
     \\/     M anipulation  |
\*---------------------------------------------------------------------------*/
FoamFile
{
    version     2.0;
    format      ascii;
    class       volVectorField;
    location    "0.02";
    object      U;
}
// * * * * * * * * * * * * * * * * * * * * * * * * * * * * * * * * * * * * * //

dimensions      [0 1 -1 0 0 0 0];

internalField   nonuniform List<vector> 
109978
(
(-0.5037595 -0.02035569 -0.008566189)
(-0.4945187 -0.02338693 0.006261751)
(-0.4943709 -0.02341488 0.005673673)
(-0.4945752 -0.02339559 0.005547245)
(-0.4948722 -0.02328977 0.005504563)
(-0.4950604 -0.02325792 0.005506765)
(-0.5106041 -0.001064571 -0.01859394)
(-0.5040792 -0.004931451 0.0128198)
(-0.5033542 -0.00430977 0.01088848)
(-0.5034826 -0.004724625 0.01071446)
(-0.5037363 -0.004834285 0.01069355)
(-0.5038599 -0.004826586 0.01064864)
(-0.5112752 -0.0001746823 -0.01807167)
(-0.5055862 -0.0007581814 0.01261046)
(-0.5047482 -0.001129703 0.01067112)
(-0.5043925 -0.001043787 0.01020187)
(-0.5043432 -0.001011352 0.009825132)
(-0.5043861 -0.00108286 0.009814961)
(-0.5101701 0.000561676 -0.01750936)
(-0.5065201 0.0001300334 0.008885447)
(-0.504056 0.0001343507 0.008009798)
(-0.5038474 3.486397e-05 0.00801217)
(-0.5040594 -4.029537e-05 0.008259775)
(-0.5042347 -5.893431e-05 0.008249449)
(-0.5108889 0.0001125914 -0.01987738)
(-0.5063213 4.835452e-06 0.01011446)
(-0.5042846 7.009626e-05 0.008368432)
(-0.5039549 5.583004e-05 0.008098486)
(-0.504077 4.057991e-05 0.007937582)
(-0.5042349 2.661802e-05 0.007866343)
(-0.5105525 6.551297e-05 -0.01943671)
(-0.5066513 4.049676e-05 0.008758448)
(-0.504155 5.890583e-05 0.008054804)
(-0.5039331 5.27936e-05 0.007846491)
(-0.5040778 4.423627e-05 0.007801315)
(-0.5042495 3.561312e-05 0.007780061)
(-0.5106888 2.984604e-05 -0.01987694)
(-0.5066576 2.335298e-05 0.008820972)
(-0.5041782 3.641361e-05 0.008074565)
(-0.5039543 3.792179e-05 0.007856628)
(-0.5041022 3.650716e-05 0.007803009)
(-0.5042753 3.265023e-05 0.007793965)
(-0.5106587 1.694306e-05 -0.01987943)
(-0.5066571 1.403663e-05 0.008788623)
(-0.5041544 2.553023e-05 0.00801196)
(-0.5039564 2.852567e-05 0.007810523)
(-0.504109 2.972686e-05 0.007771433)
(-0.5042851 2.802561e-05 0.007773862)
(-0.510653 9.4614e-06 -0.0199047)
(-0.5066533 8.166117e-06 0.008780748)
(-0.5041491 1.798109e-05 0.007998158)
(-0.5039579 2.202704e-05 0.007792107)
(-0.5041125 2.462045e-05 0.007753251)
(-0.5042906 2.441234e-05 0.007757989)
(-0.5106338 5.980575e-06 -0.01988393)
(-0.5066492 4.341992e-06 0.008763285)
(-0.5041376 1.327652e-05 0.007979861)
(-0.5039545 1.728291e-05 0.00777122)
(-0.504113 2.071702e-05 0.007737611)
(-0.5042946 2.189752e-05 0.00775129)
(-0.5106391 3.682867e-06 -0.01991419)
(-0.5066441 1.896633e-06 0.008760108)
(-0.5041266 1.036511e-05 0.007965468)
(-0.5039516 1.458838e-05 0.0077649)
(-0.5041091 1.785741e-05 0.007724257)
(-0.5042907 2.02455e-05 0.007732008)
(-0.5106349 2.569449e-06 -0.01991623)
(-0.5066396 5.172443e-07 0.008752392)
(-0.5041141 8.852901e-06 0.007949366)
(-0.5039435 1.315154e-05 0.007745699)
(-0.5041049 1.683763e-05 0.007722016)
(-0.5042884 2.011767e-05 0.007735852)
(-0.5106307 2.14456e-06 -0.01991653)
(-0.5066352 -3.719692e-07 0.008753018)
(-0.5041088 8.041867e-06 0.007949525)
(-0.5039389 1.276257e-05 0.007747687)
(-0.5040981 1.663764e-05 0.007713604)
(-0.5042823 1.969234e-05 0.007727878)
(-0.5106248 1.734722e-06 -0.01991679)
(-0.5066295 -9.634182e-07 0.008746117)
(-0.5041005 7.565761e-06 0.007944435)
(-0.5039319 1.206111e-05 0.007737774)
(-0.5040917 1.601255e-05 0.007708686)
(-0.5042765 1.966504e-05 0.007723496)
(-0.510617 2.143187e-06 -0.01990972)
(-0.5066265 -1.135002e-06 0.00875817)
(-0.5040926 7.173316e-06 0.007936046)
(-0.5039259 1.172464e-05 0.007730326)
(-0.5040839 1.586303e-05 0.007698944)
(-0.5042694 1.981842e-05 0.007718825)
(-0.510616 1.656858e-06 -0.01992109)
(-0.5066209 -1.791463e-06 0.008748382)
(-0.5040887 6.854207e-06 0.007941513)
(-0.5039202 1.158993e-05 0.007731375)
(-0.504078 1.62417e-05 0.007703264)
(-0.5042633 2.058572e-05 0.007719618)
(-0.51061 9.698739e-07 -0.01992426)
(-0.5066149 -1.811829e-06 0.008766327)
(-0.5040816 7.162034e-06 0.007938795)
(-0.5039151 1.217535e-05 0.007733815)
(-0.5040735 1.826188e-05 0.007702503)
(-0.5042599 2.199979e-05 0.007728467)
(-0.5106033 -2.392217e-07 -0.01992311)
(-0.5066099 -2.232429e-06 0.008756421)
(-0.5040799 7.39269e-06 0.007949831)
(-0.5039099 1.375369e-05 0.007742324)
(-0.5040709 2.092273e-05 0.00771869)
(-0.5042539 2.431953e-05 0.007735016)
(-0.5105778 -3.632024e-06 -0.01986144)
(-0.506603 -2.386431e-06 0.008764105)
(-0.5040749 7.837213e-06 0.00795508)
(-0.503904 1.548881e-05 0.007754613)
(-0.5040605 2.342171e-05 0.007725689)
(-0.5042435 2.708337e-05 0.007744934)
(-0.510567 -7.34559e-06 -0.01983903)
(-0.5065917 -2.21472e-06 0.008781886)
(-0.5040714 9.543075e-06 0.007970987)
(-0.5038986 1.913471e-05 0.007785174)
(-0.5040531 2.824256e-05 0.007756924)
(-0.504234 3.243087e-05 0.00777575)
(-0.5105659 -1.211789e-05 -0.01980631)
(-0.5065772 -2.513824e-06 0.008822984)
(-0.5040637 1.389738e-05 0.007987388)
(-0.5038855 2.578219e-05 0.007805225)
(-0.5040347 3.493546e-05 0.007767018)
(-0.5042123 3.917249e-05 0.007787228)
(-0.5104975 -8.573577e-06 -0.01966781)
(-0.5065576 -2.113559e-06 0.008779077)
(-0.5040567 1.892317e-05 0.00801875)
(-0.5038624 3.087661e-05 0.007805497)
(-0.5040007 3.968429e-05 0.007769214)
(-0.5041765 4.30538e-05 0.007794293)
(-0.4783315 -1.311855e-05 -0.02226896)
(-0.5065492 3.509455e-06 0.008825848)
(-0.5040606 1.902124e-05 0.008031939)
(-0.5038448 2.894127e-05 0.007825581)
(-0.503968 3.552607e-05 0.00778464)
(-0.5041368 3.978441e-05 0.007833198)
(-0.5002405 -0.0209034 -0.02106772)
(-0.4959363 0.006292304 -0.02261627)
(-0.4953122 0.004501797 -0.0237194)
(-0.4953981 0.004275262 -0.02403849)
(-0.4954863 0.004265671 -0.02413807)
(-0.4954987 0.004273664 -0.02420302)
(-0.5030281 -0.0111573 -0.008496998)
(-0.4983363 -0.005970713 -0.004824554)
(-0.4940934 -2.297987e-05 0.0002603588)
(-0.4965551 -5.649542e-05 4.463257e-05)
(-0.4961188 0.0002329116 0.0003306667)
(-0.4966725 0.0001235614 0.0002069212)
(-0.4989075 -0.0007284423 -0.007024963)
(-0.4975987 0.00090039 -0.00161137)
(-0.4962193 0.0004309306 0.0008682012)
(-0.4970257 0.0003028515 0.0009068555)
(-0.4967263 8.339663e-05 0.0004595987)
(-0.4968624 3.375988e-05 0.0002696439)
(-0.4988518 -0.0002761276 -0.006473897)
(-0.4982822 -0.00121401 -0.00427602)
(-0.4948067 -4.566391e-05 0.0003558588)
(-0.4968015 -0.0001408329 0.000377129)
(-0.4963572 2.843311e-05 0.0002933719)
(-0.4967859 2.5487e-05 0.0001541139)
(-0.4985457 3.151403e-05 -0.006343885)
(-0.4979323 0.0003027369 -0.003260382)
(-0.4951793 0.0001807408 0.0006350501)
(-0.4969554 0.0001980474 0.0007134749)
(-0.4965782 9.791418e-05 0.0003987421)
(-0.4968854 6.882339e-05 0.0002288772)
(-0.4986505 -1.183362e-05 -0.006371)
(-0.4980628 -0.0002172673 -0.003790508)
(-0.4949162 -1.93146e-05 0.0005023026)
(-0.4968901 -1.145208e-05 0.0005820348)
(-0.4964979 2.692048e-05 0.0003381054)
(-0.4968625 2.933265e-05 0.000189533)
(-0.4985722 1.171727e-05 -0.006372849)
(-0.4979807 9.831344e-05 -0.003583022)
(-0.4949811 5.8354e-05 0.0005785352)
(-0.4969146 7.34464e-05 0.000669178)
(-0.4965429 5.673562e-05 0.0003793553)
(-0.4968918 4.670083e-05 0.0002128902)
(-0.4985838 4.641747e-06 -0.006364701)
(-0.4980049 -2.256265e-05 -0.003651033)
(-0.4949418 3.657584e-06 0.0005467061)
(-0.4968934 1.605479e-05 0.0006431285)
(-0.4965273 2.542246e-05 0.0003665812)
(-0.496888 2.785306e-05 0.0002078009)
(-0.4985683 4.333097e-06 -0.006361817)
(-0.4979867 1.99156e-05 -0.003627834)
(-0.4949443 2.054719e-05 0.0005632083)
(-0.4968942 2.611281e-05 0.0006565047)
(-0.4965318 2.588216e-05 0.0003735755)
(-0.496892 2.528637e-05 0.00021131)
(-0.4985633 3.757377e-06 -0.006360038)
(-0.4979865 2.331646e-06 -0.003636985)
(-0.4949357 8.652023e-06 0.000558559)
(-0.4968887 1.406439e-05 0.0006535592)
(-0.4965292 1.755159e-05 0.0003716594)
(-0.4968919 1.821693e-05 0.0002111482)
(-0.498557 3.207937e-06 -0.006359291)
(-0.4979817 6.127051e-06 -0.003635486)
(-0.4949326 9.245551e-06 0.000559862)
(-0.496886 1.246823e-05 0.0006541613)
(-0.4965279 1.374921e-05 0.0003717243)
(-0.4968915 1.412559e-05 0.0002109713)
(-0.4985527 2.889031e-06 -0.006359008)
(-0.4979788 4.220702e-06 -0.003635985)
(-0.4949299 6.746283e-06 0.0005596988)
(-0.496884 8.815323e-06 0.0006544316)
(-0.4965268 1.045763e-05 0.000372232)
(-0.4968917 1.096082e-05 0.0002114427)
(-0.4985484 2.615252e-06 -0.006358982)
(-0.4979765 3.540341e-06 -0.00363598)
(-0.4949277 5.500024e-06 0.0005598443)
(-0.4968827 7.120329e-06 0.0006547301)
(-0.4965264 7.818131e-06 0.0003727479)
(-0.4968916 8.059026e-06 0.000211673)
(-0.498545 2.394725e-06 -0.006359172)
(-0.4979746 2.714149e-06 -0.003635995)
(-0.4949264 4.164596e-06 0.0005597719)
(-0.4968815 5.391099e-06 0.0006546258)
(-0.4965258 6.179006e-06 0.0003727606)
(-0.4968917 6.446296e-06 0.0002118204)
(-0.4985427 2.237815e-06 -0.006359064)
(-0.4979734 1.964928e-06 -0.003636254)
(-0.4949251 3.247822e-06 0.0005597714)
(-0.4968807 4.38087e-06 0.0006547703)
(-0.4965253 5.185074e-06 0.0003728248)
(-0.4968914 5.378782e-06 0.0002117692)
(-0.4985401 2.062631e-06 -0.006359583)
(-0.4979722 1.69904e-06 -0.003636245)
(-0.4949239 2.529397e-06 0.0005598346)
(-0.4968797 3.51885e-06 0.0006546606)
(-0.496525 3.918313e-06 0.000372312)
(-0.4968916 4.294935e-06 0.0002113474)
(-0.4985394 2.034527e-06 -0.006359025)
(-0.4979712 1.137704e-06 -0.003636027)
(-0.4949232 1.800279e-06 0.0005597702)
(-0.496879 2.866545e-06 0.0006548329)
(-0.4965244 3.754872e-06 0.000372265)
(-0.4968912 3.615337e-06 0.0002111029)
(-0.4985375 2.022099e-06 -0.006359252)
(-0.4979707 9.930884e-07 -0.003636656)
(-0.4949224 1.399842e-06 0.0005597644)
(-0.4968784 1.745049e-06 0.0006548737)
(-0.4965239 1.876152e-06 0.0003721581)
(-0.4968909 2.669317e-06 0.0002109965)
(-0.4985359 1.902046e-06 -0.006359288)
(-0.4979697 3.090304e-07 -0.003635726)
(-0.4949219 1.103082e-06 0.0005598523)
(-0.4968776 1.41414e-06 0.0006547297)
(-0.4965235 2.357714e-06 0.0003719565)
(-0.4968908 2.924599e-06 0.000210771)
(-0.4985341 2.110917e-06 -0.006358795)
(-0.4979686 5.403456e-07 -0.003635444)
(-0.4949211 4.290713e-07 0.0005597361)
(-0.4968771 7.132522e-07 0.0006545658)
(-0.4965222 2.173691e-06 0.0003718013)
(-0.4968894 2.19497e-06 0.0002106668)
(-0.4985303 2.232098e-06 -0.006358658)
(-0.497966 1.051534e-07 -0.003631996)
(-0.4949218 -6.584495e-07 0.0005593716)
(-0.4968759 7.050559e-08 0.0006530483)
(-0.4965202 1.981617e-06 0.0003709289)
(-0.4968876 3.005041e-06 0.0002097324)
(-0.4985235 2.709347e-06 -0.006358259)
(-0.497962 1.449146e-06 -0.003628055)
(-0.494921 -3.09163e-06 0.0005600433)
(-0.4968744 2.339213e-07 0.0006526245)
(-0.4965185 1.970213e-06 0.0003698563)
(-0.4968849 3.161866e-06 0.0002085013)
(-0.4985098 3.31737e-06 -0.006355839)
(-0.4979577 -8.315169e-06 -0.003622127)
(-0.4949245 -7.303863e-06 0.0005589425)
(-0.4968721 1.99744e-06 0.0006523735)
(-0.496517 5.059136e-06 0.0003700029)
(-0.4968824 6.477211e-06 0.000208376)
(-0.4984803 6.103531e-06 -0.006369025)
(-0.4979594 1.483439e-05 -0.003637676)
(-0.4949159 -3.749277e-06 0.000558371)
(-0.4968664 4.760733e-07 0.0006572314)
(-0.4965153 1.828644e-06 0.0003768258)
(-0.4968805 3.330921e-06 0.0002137888)
(-0.5021294 -0.02629836 -0.002630212)
(-0.5060405 0.0149907 -0.005743476)
(-0.5047795 0.01118625 -0.004345894)
(-0.5043404 0.01072231 -0.004550319)
(-0.5043541 0.0106518 -0.004611902)
(-0.5043107 0.01059898 -0.004605993)
(-0.5038074 -0.01050159 -0.0005884527)
(-0.4979662 -0.004564475 0.0006106105)
(-0.4957876 -0.000280915 0.0001266883)
(-0.4969578 0.0004223045 0.0002563281)
(-0.4967902 0.000254451 0.0001419181)
(-0.497061 0.0001697797 0.0001016189)
(-0.5004903 -0.0001815981 0.0002757782)
(-0.4972342 0.002516435 0.002606223)
(-0.4989642 0.000701716 0.0006256083)
(-0.4974791 0.000650932 0.0007185057)
(-0.4975261 0.0001947352 0.0003020317)
(-0.49721 0.0001272152 0.0002224335)
(-0.4992337 -0.0002346264 0.000269935)
(-0.4979731 -0.0008471567 0.002157478)
(-0.4980219 -8.586409e-06 0.0003352533)
(-0.4973463 1.663208e-05 0.000517833)
(-0.4971799 9.299226e-05 0.0002022956)
(-0.4971154 6.754671e-05 0.0001600765)
(-0.4986152 0.0001128157 0.0003472386)
(-0.4974629 0.0004734721 0.002505548)
(-0.4985044 0.0002301489 0.0004904197)
(-0.4975034 0.0002963662 0.0007042736)
(-0.4974539 0.000148762 0.0002918252)
(-0.4972355 0.0001085963 0.0002188144)
(-0.4986901 -1.333568e-05 0.0003281567)
(-0.4976447 -0.0001540824 0.002449422)
(-0.498323 -6.845161e-06 0.0004048582)
(-0.4974411 3.027232e-06 0.0006346808)
(-0.4973609 3.178958e-05 0.0002574841)
(-0.4971963 3.598353e-05 0.0002036271)
(-0.4986023 3.203466e-05 0.0003370433)
(-0.4974956 9.544963e-05 0.002495406)
(-0.4983724 7.422173e-05 0.0004533098)
(-0.4974705 9.352427e-05 0.0006804721)
(-0.4974197 6.687541e-05 0.000282077)
(-0.4972315 5.436308e-05 0.0002186925)
(-0.4986094 1.4053e-05 0.0003400061)
(-0.4975215 -2.500462e-05 0.002478439)
(-0.4983321 6.292162e-06 0.0004347162)
(-0.4974497 1.467482e-05 0.0006656333)
(-0.4974001 2.334733e-05 0.0002737697)
(-0.4972234 2.640582e-05 0.0002148807)
(-0.4985914 1.707407e-05 0.0003392309)
(-0.4975002 2.133916e-05 0.002485976)
(-0.4983341 2.617766e-05 0.0004443243)
(-0.4974536 3.022601e-05 0.0006723379)
(-0.4974078 2.802539e-05 0.0002769091)
(-0.4972301 2.626704e-05 0.000216872)
(-0.4985844 1.49726e-05 0.0003403338)
(-0.4975005 9.92042e-08 0.00248374)
(-0.4983237 9.447519e-06 0.0004419754)
(-0.4974478 1.369716e-05 0.0006712709)
(-0.4974044 1.697459e-05 0.0002768117)
(-0.4972297 1.773226e-05 0.0002167254)
(-0.4985779 1.473335e-05 0.000340118)
(-0.4974951 5.667427e-06 0.002484584)
(-0.4983203 1.006806e-05 0.000442974)
(-0.4974461 1.286944e-05 0.0006722755)
(-0.4974036 1.385711e-05 0.0002776972)
(-0.4972301 1.458873e-05 0.0002169624)
(-0.4985743 1.431805e-05 0.0003402931)
(-0.4974922 3.324216e-06 0.002484229)
(-0.4983171 6.70417e-06 0.0004427514)
(-0.4974441 8.673965e-06 0.0006718953)
(-0.4974025 1.027906e-05 0.0002770295)
(-0.49723 1.083911e-05 0.0002161569)
(-0.4985712 1.407814e-05 0.0003402074)
(-0.4974897 2.917856e-06 0.002484109)
(-0.4983146 5.430148e-06 0.0004427675)
(-0.4974425 7.10489e-06 0.0006716999)
(-0.4974017 8.027333e-06 0.0002764535)
(-0.4972297 8.61137e-06 0.0002161027)
(-0.4985689 1.389945e-05 0.0003401458)
(-0.4974882 2.366138e-06 0.002484007)
(-0.4983129 4.161504e-06 0.0004426854)
(-0.4974413 5.417176e-06 0.0006716565)
(-0.4974009 6.265731e-06 0.0002765322)
(-0.4972298 6.725316e-06 0.0002160892)
(-0.4985669 1.376128e-05 0.0003400912)
(-0.4974868 1.961644e-06 0.002483962)
(-0.4983115 3.196222e-06 0.0004428152)
(-0.4974404 4.175997e-06 0.0006717783)
(-0.4974004 4.974971e-06 0.000276582)
(-0.4972294 5.350266e-06 0.0002162588)
(-0.4985654 1.36394e-05 0.0003399786)
(-0.497486 1.728719e-06 0.002484034)
(-0.4983104 2.611799e-06 0.0004427537)
(-0.4974397 3.475653e-06 0.0006717611)
(-0.4973999 3.993835e-06 0.0002770911)
(-0.4972295 4.57534e-06 0.0002165879)
(-0.4985641 1.363351e-05 0.0003399123)
(-0.497485 1.557581e-06 0.002483962)
(-0.4983095 1.988502e-06 0.0004429215)
(-0.4974389 2.778398e-06 0.00067178)
(-0.4973993 3.371044e-06 0.0002774815)
(-0.4972291 3.44449e-06 0.0002170988)
(-0.4985628 1.359801e-05 0.0003397146)
(-0.4974844 1.40737e-06 0.002484196)
(-0.4983089 1.550151e-06 0.0004431945)
(-0.4974384 2.356449e-06 0.0006717819)
(-0.4973989 2.829137e-06 0.0002773091)
(-0.4972288 3.349631e-06 0.0002169802)
(-0.4985619 1.356717e-05 0.0003395802)
(-0.4974839 1.163442e-06 0.002483923)
(-0.4983084 1.023931e-06 0.0004430688)
(-0.4974378 1.766133e-06 0.0006715651)
(-0.4973987 2.265472e-06 0.0002770457)
(-0.4972285 2.640651e-06 0.0002168376)
(-0.4985607 1.377068e-05 0.0003396202)
(-0.4974835 9.760994e-07 0.002484436)
(-0.4983075 5.658593e-07 0.0004431071)
(-0.4974369 1.312897e-06 0.0006713676)
(-0.4973983 2.112226e-06 0.0002766255)
(-0.4972284 2.772257e-06 0.0002162297)
(-0.4985599 1.42352e-05 0.000339228)
(-0.4974833 1.998903e-07 0.002483262)
(-0.4983067 -1.796787e-07 0.0004425478)
(-0.4974364 7.479303e-07 0.0006698977)
(-0.497398 1.987684e-06 0.0002746614)
(-0.4972277 2.244182e-06 0.0002148395)
(-0.4985576 1.562118e-05 0.0003388874)
(-0.4974835 -8.368978e-07 0.002482108)
(-0.4983046 -6.888095e-07 0.0004415003)
(-0.4974353 -1.27582e-06 0.0006681991)
(-0.4973979 6.558629e-07 0.0002734378)
(-0.4972278 1.394997e-06 0.0002140562)
(-0.4985547 1.832823e-05 0.0003380399)
(-0.4974848 -2.124373e-06 0.002474969)
(-0.4983023 -5.90844e-07 0.0004395919)
(-0.4974347 -6.60008e-07 0.0006644928)
(-0.4973979 1.27254e-06 0.0002705655)
(-0.497228 1.079282e-07 0.0002105132)
(-0.4985523 1.986978e-05 0.0003372957)
(-0.4974857 -1.064633e-07 0.002481829)
(-0.4983005 2.645672e-07 0.0004418179)
(-0.4974343 -1.543193e-06 0.0006608205)
(-0.4973981 1.359665e-06 0.0002662356)
(-0.4972287 -8.065129e-07 0.0002066555)
(-0.5030497 -0.02599766 -0.0004785326)
(-0.5081966 0.01405251 -0.001100485)
(-0.5061097 0.01037708 -0.001094133)
(-0.5055858 0.009839166 -0.0009543509)
(-0.5055034 0.009778145 -0.0008872722)
(-0.5054218 0.009688689 -0.0008120729)
(-0.5042734 -0.01008529 -0.0001897493)
(-0.498189 -0.006262532 -0.0008835184)
(-0.4947972 -0.0006612275 -3.598685e-05)
(-0.4968119 4.668771e-05 -0.0001031089)
(-0.4965214 0.0001206284 5.701475e-05)
(-0.4969919 8.520206e-05 3.825896e-05)
(-0.4999329 -0.0002408569 6.483522e-06)
(-0.497424 0.002382983 -0.0001309338)
(-0.4985603 0.0005863948 0.0001646265)
(-0.4975593 0.0005338849 0.0001152825)
(-0.4974306 0.0001315804 0.0001250499)
(-0.4972119 8.804572e-05 9.025048e-05)
(-0.4988643 -0.0002707617 -8.148341e-05)
(-0.4981105 -0.001210051 -0.0006658229)
(-0.4967414 -0.00019773 -4.172647e-05)
(-0.4971944 -0.0001930643 -0.0001191482)
(-0.4968962 6.968936e-06 3.096716e-05)
(-0.4970363 1.541587e-05 3.345184e-05)
(-0.4984504 0.0001523007 -8.198379e-05)
(-0.4979064 0.0005724186 -0.0005324816)
(-0.4975276 0.0002135538 4.986827e-05)
(-0.4974614 0.0002877819 -2.499925e-05)
(-0.4972359 0.0001432221 7.037088e-05)
(-0.4971808 0.0001072592 6.186802e-05)
(-0.4986135 -3.699435e-05 -0.000105145)
(-0.4979715 -0.0002109669 -0.0006294785)
(-0.4972132 -6.149071e-05 -5.201236e-06)
(-0.497358 -5.157291e-05 -8.866968e-05)
(-0.4971002 7.289158e-06 4.088906e-05)
(-0.4971186 2.304812e-05 4.693152e-05)
(-0.4985375 3.322837e-05 -0.0001110888)
(-0.4979604 0.0001184058 -0.0006002988)
(-0.497335 8.217181e-05 2.82014e-05)
(-0.4974105 9.685235e-05 -6.471826e-05)
(-0.4971735 6.84333e-05 5.409887e-05)
(-0.4971623 5.549093e-05 5.557544e-05)
(-0.4985629 6.871501e-06 -0.0001152297)
(-0.49795 -3.014181e-05 -0.000617537)
(-0.4972784 -7.388046e-06 1.326792e-05)
(-0.4973784 3.705059e-06 -7.779785e-05)
(-0.4971468 1.750664e-05 4.738953e-05)
(-0.4971495 2.39927e-05 5.303762e-05)
(-0.4985435 1.604678e-05 -0.0001152375)
(-0.4979452 2.456619e-05 -0.0006131315)
(-0.4972854 2.64412e-05 1.763964e-05)
(-0.4973851 3.016362e-05 -7.406768e-05)
(-0.4971564 2.761311e-05 4.962738e-05)
(-0.497157 2.589474e-05 5.409191e-05)
(-0.4985428 1.208484e-05 -0.0001171461)
(-0.4979372 1.335887e-06 -0.0006135611)
(-0.4972763 6.965658e-06 1.54388e-05)
(-0.4973778 1.211748e-05 -7.59684e-05)
(-0.4971522 1.586671e-05 4.850319e-05)
(-0.4971553 1.706499e-05 5.348934e-05)
(-0.4985383 1.261335e-05 -0.0001176246)
(-0.4979337 6.569724e-06 -0.0006128483)
(-0.4972738 9.843891e-06 1.580139e-05)
(-0.4973764 1.226552e-05 -7.631502e-05)
(-0.4971519 1.340368e-05 4.809849e-05)
(-0.4971558 1.415475e-05 5.388995e-05)
(-0.4985349 1.213827e-05 -0.0001177056)
(-0.4979306 3.852779e-06 -0.0006126471)
(-0.4972711 6.539915e-06 1.56062e-05)
(-0.4973741 8.721538e-06 -7.621457e-05)
(-0.4971509 1.041773e-05 4.830077e-05)
(-0.4971558 1.066021e-05 5.410376e-05)
(-0.4985325 1.19785e-05 -0.0001177963)
(-0.4979283 3.305437e-06 -0.0006125837)
(-0.4972692 5.419839e-06 1.563668e-05)
(-0.4973725 6.875536e-06 -7.616018e-05)
(-0.4971498 7.940887e-06 4.874122e-05)
(-0.4971556 8.604146e-06 5.419545e-05)
(-0.4985303 1.183159e-05 -0.0001178808)
(-0.4979265 2.600443e-06 -0.0006124263)
(-0.4972675 4.263906e-06 1.563881e-05)
(-0.4973711 5.444362e-06 -7.59446e-05)
(-0.4971494 6.301975e-06 4.905514e-05)
(-0.4971554 6.629411e-06 5.436083e-05)
(-0.4985288 1.172243e-05 -0.0001179386)
(-0.4979252 2.112917e-06 -0.0006123771)
(-0.4972664 3.37267e-06 1.569248e-05)
(-0.4973703 4.447161e-06 -7.607012e-05)
(-0.4971486 5.12557e-06 4.878034e-05)
(-0.4971552 5.258088e-06 5.41964e-05)
(-0.4985275 1.161508e-05 -0.0001179748)
(-0.4979243 1.835888e-06 -0.0006122998)
(-0.4972655 2.925291e-06 1.572178e-05)
(-0.4973697 3.692405e-06 -7.642353e-05)
(-0.4971485 4.207863e-06 4.821378e-05)
(-0.497155 4.517085e-06 5.400808e-05)
(-0.4985265 1.157005e-05 -0.0001180151)
(-0.4979234 1.581423e-06 -0.0006122809)
(-0.4972647 2.437778e-06 1.585154e-05)
(-0.4973689 3.008693e-06 -7.633937e-05)
(-0.4971481 3.35344e-06 4.78954e-05)
(-0.4971551 3.495593e-06 5.364849e-05)
(-0.4985257 1.147836e-05 -0.0001181538)
(-0.497923 1.555953e-06 -0.0006122632)
(-0.4972641 2.406566e-06 1.60781e-05)
(-0.4973684 2.736468e-06 -7.618234e-05)
(-0.4971477 3.341907e-06 4.802028e-05)
(-0.4971545 3.641741e-06 5.351643e-05)
(-0.4985253 1.155188e-05 -0.0001181201)
(-0.4979228 1.542084e-06 -0.0006121495)
(-0.497264 2.36055e-06 1.629538e-05)
(-0.497368 2.481901e-06 -7.618104e-05)
(-0.4971468 2.377218e-06 4.775513e-05)
(-0.4971539 2.210083e-06 5.325879e-05)
(-0.4985246 1.165772e-05 -0.0001180907)
(-0.4979229 1.96275e-06 -0.0006117738)
(-0.4972636 2.497025e-06 1.675893e-05)
(-0.4973674 1.412539e-06 -7.607549e-05)
(-0.4971465 1.945691e-06 4.819583e-05)
(-0.4971534 2.713751e-06 5.299851e-05)
(-0.4985245 1.203287e-05 -0.0001182114)
(-0.4979242 2.252902e-06 -0.0006113615)
(-0.497264 2.398581e-06 1.725482e-05)
(-0.4973667 1.514169e-06 -7.568239e-05)
(-0.4971453 1.58477e-06 4.875655e-05)
(-0.4971516 9.624358e-07 5.240457e-05)
(-0.4985247 1.241842e-05 -0.0001181229)
(-0.4979256 2.379116e-06 -0.0006103276)
(-0.4972633 1.234582e-06 1.860675e-05)
(-0.4973652 -1.526312e-06 -7.503675e-05)
(-0.4971437 -8.693376e-07 5.005359e-05)
(-0.4971495 1.74176e-07 5.171811e-05)
(-0.498523 1.316884e-05 -0.0001179202)
(-0.4979282 -8.407403e-07 -0.000609426)
(-0.4972638 -1.120803e-06 1.969372e-05)
(-0.4973637 -2.499674e-06 -7.505991e-05)
(-0.4971425 -1.635281e-06 5.174308e-05)
(-0.4971463 -1.16034e-06 5.017943e-05)
(-0.4985212 1.394484e-05 -0.0001176048)
(-0.4979292 -5.877765e-06 -0.0006044238)
(-0.4972636 -5.506094e-06 2.547367e-05)
(-0.4973633 -7.115838e-06 -6.987528e-05)
(-0.4971408 -4.653342e-06 6.068513e-05)
(-0.4971426 -3.714275e-06 5.29107e-05)
(-0.5025403 -0.02609558 -3.498237e-05)
(-0.5092179 0.009881288 2.274937e-05)
(-0.5063204 0.009101513 2.464341e-05)
(-0.5054212 0.008174508 -1.320233e-05)
(-0.5050984 0.007872192 -1.824067e-05)
(-0.5049695 0.007913177 -2.842412e-05)
(-0.5041638 -0.009989252 1.683916e-05)
(-0.4979984 -0.005802164 0.0003372327)
(-0.4949486 -0.0006662049 0.0001277615)
(-0.496834 0.0002206887 0.0001653772)
(-0.4966176 0.0001845744 9.142592e-05)
(-0.4970411 0.0001195943 5.843967e-05)
(-0.4994027 -0.0001972388 0.0001296386)
(-0.4968734 0.002828701 0.0004840203)
(-0.4986798 0.0007322346 0.0001853783)
(-0.4975735 0.0006289935 0.0002105738)
(-0.4975757 0.0001605906 0.0001035853)
(-0.4972782 0.0001169056 7.650509e-05)
(-0.4985349 -0.0003098229 9.381546e-05)
(-0.4982551 -0.001262836 0.0005231535)
(-0.4971979 -0.0001324845 0.0002249756)
(-0.4973253 -0.0001363028 0.0002441717)
(-0.4970694 2.970915e-05 0.0001170847)
(-0.4971211 3.456481e-05 8.540412e-05)
(-0.4978342 0.0001869649 0.0001229797)
(-0.4974406 0.0006305739 0.0006185437)
(-0.4979035 0.0002316362 0.0002180818)
(-0.497529 0.0003093895 0.0002706248)
(-0.4974371 0.0001474349 0.0001278144)
(-0.4972803 0.0001174786 9.833556e-05)
(-0.498023 -4.214553e-05 0.0001185596)
(-0.4978318 -0.0002641083 0.0006542454)
(-0.497597 -3.800223e-05 0.0002454209)
(-0.4974486 -5.198489e-05 0.0002707221)
(-0.4973061 3.143664e-06 0.0001302617)
(-0.4972263 2.305341e-05 0.0001006671)
(-0.4979106 3.730057e-05 0.0001207909)
(-0.4976758 0.0001341594 0.0006780062)
(-0.4976793 8.411068e-05 0.0002447877)
(-0.4974945 9.836378e-05 0.0002769018)
(-0.4973852 6.801383e-05 0.0001349972)
(-0.4972747 5.697057e-05 0.0001057017)
(-0.4979383 3.157246e-06 0.0001203022)
(-0.4977169 -3.985541e-05 0.0006683054)
(-0.4976279 -5.018334e-06 0.0002487417)
(-0.4974683 1.907894e-06 0.0002756439)
(-0.4973577 1.514222e-05 0.0001344649)
(-0.497262 2.248943e-05 0.0001055476)
(-0.4979162 1.39205e-05 0.0001204548)
(-0.4976869 2.709264e-05 0.0006713206)
(-0.497634 2.699642e-05 0.0002488634)
(-0.4974748 3.012448e-05 0.000276043)
(-0.4973683 2.732335e-05 0.0001345069)
(-0.4972701 2.552199e-05 0.0001066078)
(-0.4979141 9.245462e-06 0.0001202763)
(-0.4976875 -2.196442e-07 0.0006701836)
(-0.4976238 7.141875e-06 0.0002494623)
(-0.4974683 1.180227e-05 0.0002758371)
(-0.4973638 1.537533e-05 0.0001342232)
(-0.497269 1.696955e-05 0.0001065009)
(-0.4979093 9.849323e-06 0.0001201157)
(-0.4976818 6.673375e-06 0.0006704717)
(-0.4976212 9.839429e-06 0.0002497053)
(-0.4974667 1.18301e-05 0.0002764222)
(-0.4973636 1.299972e-05 0.0001346276)
(-0.4972696 1.39454e-05 0.0001059269)
(-0.4979062 9.30772e-06 0.0001200702)
(-0.4976789 3.635945e-06 0.0006703213)
(-0.4976182 6.361223e-06 0.0002495766)
(-0.4974649 8.75834e-06 0.0002760784)
(-0.4973625 1.029879e-05 0.0001344574)
(-0.4972695 1.055663e-05 0.0001057035)
(-0.4979037 9.121645e-06 0.0001200886)
(-0.4976765 3.186507e-06 0.0006703273)
(-0.4976161 5.331279e-06 0.0002495471)
(-0.4974634 6.665947e-06 0.000275776)
(-0.4973617 7.579015e-06 0.000133915)
(-0.4972691 8.237075e-06 0.0001058529)
(-0.4979019 8.896519e-06 0.0001201498)
(-0.4976746 2.554614e-06 0.0006703773)
(-0.4976144 4.191495e-06 0.0002495236)
(-0.4974621 5.511875e-06 0.000275818)
(-0.4973609 6.302148e-06 0.0001340995)
(-0.4972692 6.728702e-06 0.0001060106)
(-0.4979004 8.812969e-06 0.0001201445)
(-0.4976731 2.060805e-06 0.0006703461)
(-0.4976132 3.285183e-06 0.0002494618)
(-0.4974612 4.350699e-06 0.0002757498)
(-0.4973605 5.336349e-06 0.0001338843)
(-0.497269 5.60911e-06 0.0001059394)
(-0.4978992 8.812109e-06 0.0001200597)
(-0.497672 1.833027e-06 0.0006703653)
(-0.4976123 2.904927e-06 0.000249462)
(-0.4974605 3.914923e-06 0.0002762484)
(-0.4973598 4.313852e-06 0.0001348017)
(-0.4972686 4.606759e-06 0.0001063859)
(-0.4978983 8.756084e-06 0.0001200716)
(-0.497671 1.712643e-06 0.0006703447)
(-0.4976114 2.5085e-06 0.0002492696)
(-0.4974596 3.156024e-06 0.0002762827)
(-0.4973595 3.82681e-06 0.0001349948)
(-0.4972685 4.175915e-06 0.0001065195)
(-0.4978977 8.664627e-06 0.0001201279)
(-0.4976703 1.724492e-06 0.0006703271)
(-0.4976108 2.565431e-06 0.0002491119)
(-0.497459 3.519846e-06 0.000275911)
(-0.4973589 3.907336e-06 0.0001349882)
(-0.4972682 3.476708e-06 0.0001070105)
(-0.4978975 8.594485e-06 0.0001202085)
(-0.49767 1.958651e-06 0.0006702062)
(-0.4976105 2.713582e-06 0.0002486151)
(-0.4974583 3.157423e-06 0.0002755289)
(-0.4973583 3.669222e-06 0.0001346777)
(-0.4972674 3.373362e-06 0.000107064)
(-0.4978979 8.485001e-06 0.0001202474)
(-0.4976701 2.426393e-06 0.0006698386)
(-0.4976103 3.07519e-06 0.0002478775)
(-0.4974574 3.307349e-06 0.0002747431)
(-0.4973574 3.723136e-06 0.0001338823)
(-0.497267 2.539416e-06 0.000106305)
(-0.4978993 8.559982e-06 0.0001201454)
(-0.4976712 3.117871e-06 0.0006688489)
(-0.4976106 3.739107e-06 0.0002460773)
(-0.4974562 3.595499e-06 0.0002726168)
(-0.4973561 5.112472e-06 0.0001319771)
(-0.4972653 2.178842e-06 0.0001047573)
(-0.4979009 8.872905e-06 0.00012026)
(-0.4976721 2.77135e-06 0.0006672851)
(-0.4976093 3.133137e-06 0.0002434906)
(-0.4974533 2.178792e-06 0.0002695545)
(-0.4973548 5.501021e-06 0.000129543)
(-0.4972657 -8.775639e-07 0.0001038096)
(-0.4979018 9.139793e-06 0.000120278)
(-0.4976728 6.64951e-07 0.0006633866)
(-0.4976089 3.852715e-06 0.0002379945)
(-0.4974501 4.356858e-06 0.0002626674)
(-0.4973545 1.162254e-05 0.0001234656)
(-0.4972653 7.373001e-07 9.901017e-05)
(-0.4978897 -1.064533e-05 7.691457e-06)
(-0.4976689 -3.853157e-06 0.0006605379)
(-0.4976067 2.274408e-06 0.0002326215)
(-0.4974454 1.205175e-06 0.000254816)
(-0.4973558 1.633529e-05 0.0001140609)
(-0.4972745 -7.416842e-06 9.439537e-05)
(-0.5027884 -0.02635556 4.65312e-06)
(-0.5091362 0.01062195 -3.546647e-05)
(-0.5059805 0.008030008 -1.787736e-05)
(-0.5053347 0.007693108 -1.398252e-05)
(-0.5050841 0.007691494 -1.224294e-05)
(-0.5049772 0.007783079 -8.912931e-06)
(-0.5041153 -0.009981992 -3.786057e-06)
(-0.4979967 -0.005806805 -0.0003335163)
(-0.4949434 -0.0006637283 -0.0001246309)
(-0.4968331 0.0002217439 -0.0001599377)
(-0.4966158 0.0001861551 -8.48733e-05)
(-0.4970386 0.0001227935 -5.021551e-05)
(-0.4993677 -0.0001286553 -4.139953e-06)
(-0.4968682 0.002837091 -0.0004833177)
(-0.4986787 0.0007323707 -0.0001860502)
(-0.4975722 0.0006285452 -0.0002109513)
(-0.4975756 0.0001597546 -0.0001039945)
(-0.4972782 0.0001151502 -7.6933e-05)
(-0.498699 -0.0003612912 3.533458e-06)
(-0.4982554 -0.001262522 -0.0005232961)
(-0.497197 -0.0001318042 -0.0002242137)
(-0.4973251 -0.0001359487 -0.0002430799)
(-0.4970688 2.992293e-05 -0.0001156414)
(-0.4971208 3.505009e-05 -8.368538e-05)
(-0.4978245 0.0001867736 -8.095544e-06)
(-0.4974408 0.0006305129 -0.0006189645)
(-0.4979037 0.0002316373 -0.0002177027)
(-0.4975289 0.0003093375 -0.0002700796)
(-0.497437 0.0001473116 -0.000127208)
(-0.4972802 0.0001170757 -9.76013e-05)
(-0.4980098 -4.182732e-05 -1.028012e-05)
(-0.4978319 -0.0002641727 -0.0006539286)
(-0.4975971 -3.807301e-05 -0.0002449747)
(-0.4974485 -5.20075e-05 -0.0002700753)
(-0.497306 3.185566e-06 -0.0001294857)
(-0.497226 2.308044e-05 -9.991102e-05)
(-0.4978905 3.727242e-05 -1.057983e-05)
(-0.4976759 0.000134204 -0.0006778175)
(-0.4976794 8.402493e-05 -0.0002444109)
(-0.4974945 9.846359e-05 -0.0002763119)
(-0.4973851 6.801564e-05 -0.0001344425)
(-0.4972746 5.689712e-05 -0.0001050189)
(-0.49792 2.917063e-06 -1.147761e-05)