/*--------------------------------*- C++ -*----------------------------------*\
  =========                 |
  \\      /  F ield         | OpenFOAM: The Open Source CFD Toolbox
   \\    /   O peration     | Website:  https://openfoam.org
    \\  /    A nd           | Version:  7
     \\/     M anipulation  |
\*---------------------------------------------------------------------------*/
FoamFile
{
    version     2.0;
    format      ascii;
    class       volVectorField;
    location    "0.02";
    object      U;
}
// * * * * * * * * * * * * * * * * * * * * * * * * * * * * * * * * * * * * * //

dimensions      [0 1 -1 0 0 0 0];

internalField   nonuniform List<vector> 
77308
(
(-0.001193179 -0.05332471 -0.00204984)
(-0.001202565 -0.05759246 -0.002483126)
(-0.0006008456 -0.05943119 -0.002482037)
(-0.0008164497 -0.06252766 -0.002607851)
(-0.001040587 -0.06646267 -0.002785454)
(-0.001275354 -0.07132323 -0.003001175)
(-0.002496269 -0.05283914 -0.00127914)
(-0.003152686 -0.0566016 -0.001070773)
(-0.00403501 -0.05924379 -0.001304315)
(-0.005019625 -0.06251886 -0.001404832)
(-0.00618333 -0.06653092 -0.001601043)
(-0.007474181 -0.07151877 -0.001873799)
(-0.00162995 -0.04895849 -0.0004255445)
(-0.003867918 -0.05066575 -0.0008599167)
(-0.005934579 -0.05291666 -0.0009402804)
(-0.008 -0.05605045 -0.000900811)
(-0.01007721 -0.05951715 -0.0009890474)
(-0.01227796 -0.06398128 -0.001043125)
(-0.003784205 -0.04797227 -2.300391e-05)
(-0.005904033 -0.04992072 0.0001264176)
(-0.008593961 -0.05222639 0.0001004198)
(-0.0111515 -0.05488922 0.0001735741)
(-0.01414993 -0.05863381 0.0001204058)
(-0.01707856 -0.06279713 0.0001848078)
(-0.004520347 -0.04471997 -0.0001054856)
(-0.007457543 -0.04635196 -0.0001232613)
(-0.01082319 -0.04828996 -7.93406e-05)
(-0.01417848 -0.05091702 -0.0001079696)
(-0.01782563 -0.05418295 -0.0001241197)
(-0.02166073 -0.05823675 -0.0001278649)
(-0.005604481 -0.04159439 -5.834415e-05)
(-0.009042628 -0.04310365 -3.514018e-05)
(-0.01304345 -0.04493118 4.862107e-05)
(-0.01703421 -0.04731619 2.31755e-05)
(-0.02139484 -0.05038803 2.91167e-05)
(-0.02597762 -0.05412396 2.76444e-05)
(-0.006440361 -0.03754248 -9.247669e-05)
(-0.01041979 -0.03887004 -7.820585e-05)
(-0.01502612 -0.04048032 2.103121e-05)
(-0.01962222 -0.04262035 -8.547857e-06)
(-0.02463418 -0.04536933 -4.088718e-06)
(-0.02990829 -0.04873995 -9.692215e-06)
(-0.007210802 -0.03308594 -0.000110704)
(-0.01164651 -0.03427012 -8.67183e-05)
(-0.01679259 -0.03569757 2.545681e-05)
(-0.02192531 -0.0375868 -6.115761e-06)
(-0.02752101 -0.04001615 -5.815805e-07)
(-0.03341015 -0.04298935 -7.632591e-06)
(-0.007895254 -0.02807386 -9.843346e-05)
(-0.01273504 -0.02904931 -9.511891e-05)
(-0.01835103 -0.03023688 3.112086e-05)
(-0.02394727 -0.03181708 1.806205e-06)
(-0.0300536 -0.03387383 6.876004e-06)
(-0.03647872 -0.0363751 2.628306e-06)
(-0.008362096 -0.02276005 -0.0001507236)
(-0.01358929 -0.02360181 -0.0001264782)
(-0.01957012 -0.02453825 -8.588377e-06)
(-0.02555576 -0.02586313 -3.694726e-05)
(-0.03209363 -0.02751218 -4.695258e-05)
(-0.03896979 -0.02956806 -6.229181e-05)
(-0.008966182 -0.01697373 -6.769988e-05)
(-0.01434531 -0.0175796 4.26908e-05)
(-0.02062616 -0.01827441 0.000174825)
(-0.02695024 -0.01920252 0.0001638127)
(-0.03377769 -0.0204276 0.000178789)
(-0.04100592 -0.02193254 0.0002006487)
(-0.009106185 -0.01132705 2.630712e-06)
(-0.01465384 -0.01187197 0.0002304778)
(-0.02108088 -0.01216714 0.000290765)
(-0.02752792 -0.01289515 0.0002893511)
(-0.03454731 -0.01369615 0.0002811968)
(-0.04196385 -0.01474448 0.0002825155)
(-0.006373497 -0.006025009 0.0003145312)
(-0.01301235 -0.005424709 0.0006320391)
(-0.01980616 -0.004507419 0.000421943)
(-0.02614577 -0.003672081 0.0004918032)
(-0.03322557 -0.002918715 0.0004755174)
(-0.04078892 -0.002280795 0.0005035843)
(-0.006965174 -0.0002717895 0.0001065139)
(-0.01497986 0.0005814836 -0.0001055218)
(-0.02295574 0.001649328 -0.0002959516)
(-0.03130094 0.002607403 -0.0004068317)
(-0.04003703 0.00362383 -0.0005905025)
(-0.04921239 0.004690051 -0.0007752571)
(0.05245617 0.9747395 0.1282039)
(0.1435135 0.9712315 0.1987898)
(0.1691661 0.966989 0.1897695)
(0.2232023 0.966806 0.1601672)
(0.2804572 0.9712662 0.138711)
(0.3380754 0.9802992 0.1302762)
(0.1512278 0.9521685 0.04368404)
(0.1773693 0.9857433 0.05877866)
(0.2189101 0.9752741 0.06162423)
(0.2649212 0.9686812 0.05578825)
(0.3151588 0.968505 0.05429914)
(0.3672462 0.9733576 0.05358944)
(0.04789244 0.7833633 0.001002022)
(0.1320485 0.7893 -0.0003836253)
(0.2034923 0.7943353 -0.0007122094)
(0.2629411 0.8000334 -0.0007138481)
(0.3209177 0.8008681 -0.001367983)
(0.3750122 0.803363 -0.001111605)
(0.1026528 0.7791095 0.003094983)
(0.1511334 0.7911861 0.001111984)
(0.2123384 0.7957461 0.0009946227)
(0.269829 0.8093181 0.00170673)
(0.3287427 0.8175047 0.002524806)
(0.3840155 0.825352 0.001904004)
(0.09023694 0.6932408 -0.001746437)
(0.1517023 0.7015655 -0.001810119)
(0.216052 0.707465 -0.002417654)
(0.2758252 0.7143779 -0.001686775)
(0.3385089 0.7192728 -0.001115603)
(0.3955903 0.7287839 -0.00102225)
(0.100772 0.6414993 9.559199e-05)
(0.1593203 0.6512638 0.0006684053)
(0.2257654 0.6580112 -0.000956159)
(0.2881008 0.6680998 -0.0002040322)
(0.3503365 0.6787277 -0.0004656245)
(0.4086156 0.6916187 -0.0004018603)
(0.1019495 0.5715567 0.0002515292)
(0.1638533 0.5804592 0.0006638283)
(0.2330429 0.5874913 -0.001154034)
(0.2974361 0.5971411 -0.0004941564)
(0.3623557 0.6094089 -0.0005988654)
(0.4233597 0.6246972 -0.0004971423)
(0.1068613 0.5049301 0.0008721456)
(0.1707065 0.5140236 0.001053345)
(0.2427182 0.5223572 -0.0007699273)
(0.3099742 0.5336734 -0.0002532943)
(0.377892 0.5484079 -0.0003368573)
(0.4422472 0.5668092 -0.0002468757)
(0.1106179 0.4338473 0.001006974)
(0.1771395 0.4426491 0.00117596)
(0.2526323 0.4515788 -0.0006294645)
(0.323484 0.4637936 -0.0001033897)
(0.3955085 0.4804053 -0.0001479092)
(0.4644752 0.5017456 -4.351939e-05)
(0.1153367 0.35944 0.001075397)
(0.1848032 0.36787 0.00124538)
(0.2638193 0.3765108 -0.0005741694)
(0.338844 0.3891994 -0.000138482)
(0.4158875 0.4068142 -0.0001926316)
(0.4912137 0.4303708 -0.000133993)
(-0.001686807 -0.0542778 -0.0009681508)
(-0.001784763 -0.05384096 -0.001611349)
(-0.001253158 -0.05617262 -0.002177574)
(-0.001702287 -0.05953477 -0.00254465)
(-0.002028601 -0.06326248 -0.002623746)
(-0.002482442 -0.06792821 -0.00281907)
(-0.001342029 -0.05376598 -0.001367089)
(-0.001150933 -0.05276851 0.0002440281)
(-0.001578259 -0.05219856 0.001307161)
(-0.003233886 -0.05417211 0.001553853)
(-0.004336029 -0.05698335 0.001500206)
(-0.005641066 -0.06066972 0.001631039)
(-0.006934275 -0.06517703 0.001763919)
(-0.0006729041 -0.05221232 -0.002373824)
(-0.002266079 -0.0495906 0.0002962344)
(-0.004242754 -0.05201445 -0.0005286414)
(-0.00597848 -0.05417172 -0.0004928647)
(-0.007935009 -0.05721698 -0.0007274123)
(-0.009955506 -0.06094126 -0.0007259545)
(-0.01212572 -0.06551029 -0.0008266214)
(-0.0005687801 -0.05237837 -0.001643777)
(-0.003529533 -0.0481607 0.0002452825)
(-0.00576151 -0.04933738 9.906914e-05)
(-0.008495389 -0.05146602 0.0001529482)
(-0.0111145 -0.0541871 -3.6713e-06)
(-0.01398213 -0.05770662 3.265359e-05)
(-0.0170073 -0.06201273 -2.048562e-06)
(-0.0007434578 -0.05033187 -0.001598594)
(-0.004486389 -0.04514984 2.941097e-05)
(-0.007612192 -0.04660529 -0.0002214358)
(-0.01083606 -0.04854453 -0.0001285949)
(-0.01420637 -0.05115231 -0.0002132359)
(-0.01782214 -0.05447938 -0.0002144158)
(-0.02165561 -0.05852944 -0.0002344864)
(-0.0009018247 -0.0469257 -0.001428292)
(-0.005383443 -0.04191655 6.511341e-05)
(-0.009175859 -0.04305417 -7.62559e-05)
(-0.01303523 -0.04486127 4.062723e-06)
(-0.01705974 -0.04724373 -5.748485e-05)
(-0.02139426 -0.05030723 -3.458681e-05)
(-0.02598413 -0.05404903 -5.005415e-05)
(-0.001033127 -0.04272188 -0.001393031)
(-0.006215534 -0.03790127 2.087547e-05)
(-0.01059084 -0.03890536 -0.0001254254)
(-0.01502293 -0.04051089 -2.046705e-05)
(-0.01966114 -0.04265384 -6.585193e-05)
(-0.02464974 -0.04540756 -3.768327e-05)
(-0.02993369 -0.04878095 -4.706284e-05)
(-0.001164273 -0.03786263 -0.001349149)
(-0.00696991 -0.03335307 2.87001e-05)
(-0.01183428 -0.03425288 -0.000115343)
(-0.01679538 -0.03566599 -8.922197e-06)
(-0.02197388 -0.03755117 -5.050687e-05)
(-0.02754957 -0.03997481 -2.000444e-05)
(-0.03345352 -0.04294624 -2.905594e-05)
(-0.001303577 -0.03247453 -0.001394959)
(-0.007611828 -0.02834421 3.648141e-05)
(-0.01295605 -0.02906221 -0.000113008)
(-0.01835898 -0.0302398 2.324833e-05)
(-0.02401117 -0.03181114 -6.308422e-06)
(-0.03009314 -0.03384911 3.802417e-05)
(-0.03653486 -0.03636048 4.102095e-05)
(-0.001516348 -0.02644872 -0.001683598)
(-0.008125146 -0.02297218 2.548374e-06)
(-0.01381388 -0.02352202 -0.0001012908)
(-0.01961874 -0.02442225 -1.739183e-05)
(-0.02566173 -0.02570308 -5.650358e-05)
(-0.03217152 -0.02733148 -2.80967e-05)
(-0.03906685 -0.02936318 -4.087113e-05)
(-0.0015776 -0.02012541 -0.001368834)
(-0.008690986 -0.01740376 5.404596e-05)
(-0.01459629 -0.01767406 -0.0001163433)
(-0.0206969 -0.0182844 9.730184e-05)
(-0.0270449 -0.01922649 8.136595e-05)
(-0.03385346 -0.0204541 0.0001526128)
(-0.04110027 -0.02198718 0.0001711564)
(-0.001665252 -0.01343728 -0.00107813)
(-0.009303567 -0.01110734 -0.000228703)
(-0.01502719 -0.01111342 5.827184e-05)
(-0.02141378 -0.01138473 -5.640882e-05)
(-0.02797863 -0.01198695 -5.472535e-05)
(-0.03508074 -0.01265895 -8.290484e-05)
(-0.04259427 -0.01355401 -0.0001060639)
(-0.001062393 -0.007290101 0.0001130013)
(-0.006930179 -0.005289126 0.0002705785)
(-0.01354752 -0.005015213 0.0005114319)
(-0.01969079 -0.004558124 0.0002017536)
(-0.02635046 -0.004443172 7.406819e-06)
(-0.03340467 -0.004244552 -4.95713e-05)
(-0.04087072 -0.004179751 2.90282e-05)
(-0.007608311 -0.0004497827 1.99784e-05)
(-0.01290947 -0.0001014679 -0.0002000699)
(-0.01932865 -8.612479e-05 -0.001864108)
(-0.02608023 -2.709267e-05 -0.002475592)
(-0.0331296 0.0001128846 -0.003197588)
(-0.04056563 0.0002329515 -0.004077487)
(-0.06571271 1.150406 -0.004590412)
(0.04615619 1.247361 -0.02244265)
(0.1569087 1.14317 -0.09463225)
(0.1878359 1.056507 -0.1306212)
(0.2455663 1.039929 -0.1041337)
(0.2991989 1.033926 -0.08071725)
(0.3541585 1.032533 -0.06797315)
(0.03843555 0.8885046 0.09093921)
(0.138968 0.9622644 0.01055653)
(0.1785306 1.013262 0.1044743)
(0.2203357 1.016187 0.1146867)
(0.2650484 1.00186 0.1134155)
(0.321271 1.000965 0.1025032)
(0.3722371 1.000352 0.09056986)
(0.0096853 0.8718307 0.03120966)
(0.04018431 0.7854241 -0.02609467)
(0.1191704 0.7909392 -0.01815733)
(0.1968479 0.791315 -0.02304654)
(0.2622784 0.7942474 -0.03003544)
(0.3245253 0.7991097 -0.03025167)
(0.3809617 0.806333 -0.02762367)
(0.01492282 0.8569583 0.0283248)
(0.101393 0.7949692 0.003036498)
(0.1561798 0.8127194 0.01376288)
(0.2130779 0.8121993 0.008892926)
(0.2688502 0.8139895 0.007157345)
(0.3265022 0.8205636 0.006586173)
(0.3819505 0.8309409 0.007625226)
(0.01559377 0.7876536 0.02655522)
(0.08419124 0.6995587 -0.003780448)
(0.1542117 0.7042429 0.0008038479)
(0.2168984 0.708642 -0.001169649)
(0.2783148 0.7125597 -0.0003430922)
(0.3377607 0.7208274 -0.001033672)
(0.3945857 0.7309176 -6.579847e-05)
(0.01656131 0.7192911 0.0275137)
(0.09497374 0.6496109 -0.0006660243)
(0.1624665 0.654586 0.003342312)
(0.2257104 0.661273 0.00119229)
(0.2883014 0.6701432 0.001926357)
(0.3497003 0.6809608 0.001292429)
(0.4081758 0.6938491 0.001823689)
(0.0166304 0.6460308 0.02407126)
(0.09684197 0.5776326 -0.001121423)
(0.1670762 0.5809968 0.001623655)
(0.2326288 0.588137 -0.0002129646)
(0.2977987 0.5976807 0.0004278582)
(0.3621062 0.610201 -0.000165661)
(0.4231971 0.6255396 2.00452e-05)
(0.0169644 0.5712144 0.02131171)
(0.102207 0.5100922 -0.0009094747)
(0.1736974 0.5145534 0.001653228)
(0.2422577 0.5230132 -0.000105056)
(0.3102532 0.5342823 0.0004603854)
(0.3776686 0.5490995 -1.998804e-05)
(0.4421466 0.5675112 7.400173e-05)
(0.01786225 0.4943356 0.02130243)
(0.1059504 0.4377659 -0.0008710347)
(0.1804703 0.4427015 0.001626598)
(0.2522438 0.4516729 -0.0001400287)
(0.323872 0.4638376 0.0004530057)
(0.395396 0.4804833 9.845414e-06)
(0.4644884 0.5018032 8.04213e-05)
(0.03056753 0.3425443 -0.0005082255)
(0.110656 0.3634552 -0.001067207)
(0.187828 0.3681405 0.001288275)
(0.2635079 0.3769209 -0.0005683818)
(0.3392258 0.3895464 -8.238924e-05)
(0.4157894 0.4072075 -0.0005620402)
(0.4913461 0.4308169 -0.0007078324)
(-0.001454181 -0.05357413 -9.652149e-06)
(-0.001294771 -0.05293238 0.0004322975)
(-0.0008726556 -0.05599695 0.0005465158)
(-0.001482418 -0.05863983 0.0005970484)
(-0.001805354 -0.06277968 0.0006279528)
(-0.002236833 -0.06730999 0.0006832741)
(-0.002102003 -0.05467009 0.001090508)
(-0.003051318 -0.05337472 -0.0003759834)
(-0.002366894 -0.0534348 -0.0005697438)
(-0.00368685 -0.05609808 -0.0006577559)
(-0.004594027 -0.05869073 -0.0009286962)
(-0.005896376 -0.06261499 -0.0009329647)
(-0.007209759 -0.06725715 -0.0009991473)
(-0.0009980344 -0.0520739 -0.00113114)
(-0.001490011 -0.04956176 0.0005108488)
(-0.004666051 -0.05131235 -0.0004155179)
(-0.00598968 -0.05361739 -0.0001993453)
(-0.008060712 -0.05616925 -0.0003163139)
(-0.009981966 -0.05990069 -0.0003676884)
(-0.01215848 -0.06433992 -0.0004074041)
(-0.00178479 -0.04596323 0.0007890694)
(-0.00382399 -0.04867672 0.0001157736)
(-0.005992902 -0.04928251 -0.00010111)
(-0.008574648 -0.05164354 -0.0001606125)
(-0.01122153 -0.0542618 -0.0002413554)
(-0.01402644 -0.05778496 -0.0002776174)
(-0.01705625 -0.06207881 -0.0003147177)
(-0.00122273 -0.04474215 -0.000228757)
(-0.004206421 -0.0453514 -2.387743e-05)
(-0.00757588 -0.04652339 -0.0001944931)
(-0.01076036 -0.0484175 -8.726534e-05)
(-0.01422769 -0.05094495 -0.0001509341)
(-0.01781862 -0.05423382 -0.0001465206)
(-0.02167159 -0.05826028 -0.0001729123)
(-0.001758045 -0.04086508 2.271393e-05)
(-0.005275226 -0.04202917 -0.000123249)
(-0.00905568 -0.04300819 -0.0001234043)
(-0.01297403 -0.04482764 -6.020683e-05)
(-0.01705729 -0.04716742 -8.882794e-05)
(-0.02138978 -0.05021269 -7.701989e-05)
(-0.02600294 -0.05394095 -9.151743e-05)
(-0.001946295 -0.03713607 -0.000158687)
(-0.005965539 -0.03795625 -0.0001920371)
(-0.01040103 -0.03889076 -0.0001568862)
(-0.01491728 -0.04046062 -6.258053e-05)
(-0.01963597 -0.04257143 -6.868881e-05)
(-0.02463838 -0.04530499 -4.274091e-05)
(-0.02995521 -0.04866522 -4.885688e-05)
(-0.002210756 -0.03261556 -0.0001398164)
(-0.006689773 -0.03339356 -0.0002147741)
(-0.01161972 -0.0342133 -0.0001461493)
(-0.01668501 -0.03557788 -5.322383e-05)
(-0.02195099 -0.03742258 -4.957582e-05)
(-0.02755106 -0.03981504 -2.071123e-05)
(-0.03349444 -0.04276738 -2.341963e-05)
(-0.002411792 -0.02772389 -0.0001949048)
(-0.007306961 -0.0283427 -0.0002601828)
(-0.01268976 -0.02894236 -0.0001528558)
(-0.01821538 -0.03007991 -2.763555e-05)
(-0.02397843 -0.0315977 -9.310057e-06)
(-0.03009497 -0.03360661 3.534912e-05)
(-0.0365854 -0.03609412 4.341324e-05)
(-0.002595794 -0.02242866 -0.0001896227)
(-0.007759713 -0.02286745 -0.0002660419)
(-0.01353512 -0.02337492 -6.984275e-05)
(-0.01953481 -0.02412276 1.541314e-06)
(-0.02566843 -0.02532387 3.114381e-05)
(-0.03222069 -0.0268905 6.230177e-05)
(-0.0391555 -0.02888197 6.401732e-05)
(-0.002675945 -0.01668452 -0.0002559992)
(-0.008310022 -0.0171298 -0.0001958793)
(-0.01429094 -0.0169699 -0.0001310999)
(-0.02052949 -0.01761882 9.208008e-05)
(-0.02703541 -0.01841381 0.0001355259)
(-0.03388292 -0.01957129 0.0002096574)
(-0.04119022 -0.02101754 0.0002273966)
(-0.002802692 -0.01100317 -0.0001229586)
(-0.008449709 -0.01073875 -0.0002048599)
(-0.01457704 -0.01085476 0.0004653078)
(-0.02155153 -0.01050432 0.0002894299)
(-0.02800614 -0.01108663 0.0003870229)
(-0.0351416 -0.01165582 0.0003839303)
(-0.04266636 -0.01253442 0.0004187656)
(-0.0006836939 -0.00661713 0.0004103755)
(-0.006878794 -0.004702306 -9.50074e-05)
(-0.01620613 -0.003126626 -0.0004396718)
(-0.02112141 -0.003354389 0.0002740323)
(-0.02814501 -0.003852196 2.771864e-05)
(-0.03504653 -0.003994383 0.0001654529)
(-0.04268823 -0.004314271 0.0001448244)
(-0.008121543 -0.0001005852 0.0007713466)
(-0.07254073 1.173698 -0.02520503)
(-0.09847968 1.207224 0.1089233)
(0.005439625 0.6517516 -0.1073659)
(0.1453571 0.6994808 -0.1701674)
(0.2277873 0.7150693 -0.06818722)
(0.2670907 0.7265904 -0.0809092)
(0.3258238 0.7620944 -0.08842603)
(0.06790014 0.9444731 0.04873578)
(0.1903782 1.003956 0.01101449)
(0.2556889 1.01023 0.09583338)
(0.2272545 1.014351 0.1314246)
(0.2749596 1.060169 0.101722)
(0.3155047 1.055859 0.1003547)
(0.3680632 1.043723 0.09872286)
(0.01011062 0.7645901 -0.03457238)
(0.06075028 0.7955483 -0.02610925)
(0.1314359 0.7534825 -0.01356299)
(0.1948366 0.7600135 -0.00398992)
(0.2636888 0.7822171 -0.002705074)
(0.3252972 0.7844278 -0.004413494)
(0.384354 0.7831164 -0.005967388)
(0.02713987 0.7668385 0.003795025)
(0.09715448 0.8132247 0.006291172)
(0.1573492 0.7971422 0.009330971)
(0.2114701 0.8027365 0.01212324)
(0.2681144 0.81903 0.01304273)
(0.3268953 0.8304506 0.01424113)
(0.3813699 0.8349429 0.01417278)
(0.02328363 0.6859552 -0.002493493)
(0.0856472 0.7028626 -0.0003790667)
(0.1543936 0.6924362 -0.001078777)
(0.2139874 0.7050831 -0.00011153)
(0.2755735 0.7112777 -0.001416681)
(0.3363343 0.7195521 -0.0008218706)
(0.3946907 0.7253778 -0.0001884977)
(0.02919526 0.6376251 0.003495276)
(0.09218102 0.6513653 0.002840907)
(0.1592822 0.652252 0.001868022)
(0.2229405 0.6602117 0.00208368)
(0.2869515 0.6703793 0.001075863)
(0.3491675 0.6821242 0.001218042)
(0.4079407 0.6944409 0.001630153)
(0.03039273 0.5672347 0.001549055)
(0.09401149 0.5770127 0.002441173)
(0.1639509 0.579434 0.001449178)
(0.2306658 0.5872005 0.0005107136)
(0.2966941 0.5969401 0.0002429294)
(0.3613225 0.6095374 -0.0001592331)
(0.4228592 0.6244698 2.988737e-05)
(0.03245028 0.5015852 0.001907477)
(0.09832213 0.5101276 0.002768781)
(0.1703349 0.5143279 0.001759089)
(0.2403005 0.5227532 0.0004408554)
(0.3093304 0.5341129 0.0002741861)
(0.3769865 0.5490541 -0.0001398849)
(0.4418773 0.5673676 -5.680295e-05)
(0.033537 0.4301531 0.002191223)
(0.1017642 0.4377756 0.003068411)
(0.1768361 0.4422163 0.00188722)
(0.2502715 0.4509636 0.0004643383)
(0.3230023 0.4630628 0.0003123715)
(0.3947653 0.4796798 -8.749688e-05)
(0.4643231 0.5008027 -5.878868e-05)
(0.03562229 0.3587139 0.001559986)
(0.1065761 0.3631441 0.003232884)
(0.1841598 0.3674496 0.001555408)
(0.2614099 0.3760407 5.994789e-05)
(0.3383827 0.3885246 -0.000192144)
(0.4150924 0.4062342 -0.0006413647)
(0.4913407 0.4297825 -0.0008660033)
(-0.001420914 -0.05382322 2.286732e-05)
(-0.001869534 -0.05256143 -0.0002963098)
(-0.001080285 -0.05517467 -0.0003888687)
(-0.001567689 -0.0586915 -0.0003203887)
(-0.001838373 -0.06238582 -0.0004199594)
(-0.002273696 -0.06709001 -0.0004135594)
(-0.00216613 -0.05466104 0.0001262066)
(-0.002875472 -0.05316212 4.191895e-05)
(-0.002097078 -0.05301227 0.0001883636)
(-0.00361836 -0.05482083 0.0003610085)
(-0.004454046 -0.05771533 0.0003236756)
(-0.005789479 -0.0613992 0.0003001101)
(-0.007023152 -0.06597586 0.0003219485)
(-0.001810302 -0.05283329 -0.0006317624)
(-0.001200193 -0.04931093 0.0003180165)
(-0.004977905 -0.05172957 -0.0001736439)
(-0.005872108 -0.05345319 -0.0001183019)
(-0.00808817 -0.05656013 -0.0002529111)
(-0.009941551 -0.06018031 -0.0002589439)
(-0.01213344 -0.06468394 -0.0003025993)
(-0.001906771 -0.04682615 0.0002146773)
(-0.003884045 -0.04882746 0.0001342717)
(-0.006064303 -0.04918538 2.699391e-05)
(-0.00861107 -0.05153711 4.390896e-06)
(-0.01119749 -0.054124 -3.091241e-05)
(-0.0140106 -0.05765334 -4.868572e-05)
(-0.01702843 -0.06192881 -6.678866e-05)
(-0.001173102 -0.04532048 7.328682e-05)
(-0.004253243 -0.04534719 8.114742e-05)
(-0.007630987 -0.04661177 -4.993361e-05)
(-0.01078875 -0.04847195 -4.306614e-05)
(-0.01425187 -0.05103568 -8.994047e-05)
(-0.01782716 -0.05432959 -9.528533e-05)
(-0.02168007 -0.05836687 -0.0001157974)
(-0.001707802 -0.04135151 5.658453e-05)
(-0.005274333 -0.0420102 4.612873e-05)
(-0.009066121 -0.04298941 -1.083442e-05)
(-0.01299487 -0.04481538 -1.542409e-05)
(-0.01707849 -0.04714926 -3.939439e-05)
(-0.0214061 -0.05019511 -3.661144e-05)
(-0.02602235 -0.05392042 -4.788723e-05)
(-0.001881759 -0.03753884 2.192034e-05)
(-0.005952097 -0.03792339 1.113977e-05)
(-0.01040673 -0.03888861 -3.290631e-05)
(-0.01493863 -0.04046027 -2.772285e-05)
(-0.01966483 -0.04256622 -4.182582e-05)
(-0.02466999 -0.04529777 -3.321248e-05)
(-0.0299955 -0.04865594 -4.007783e-05)
(-0.002134189 -0.0329484 3.618506e-07)
(-0.006661628 -0.03334723 1.707544e-06)
(-0.01162446 -0.0341861 -2.649888e-05)
(-0.01671869 -0.03554244 -2.518306e-05)
(-0.02199575 -0.03737126 -3.426294e-05)
(-0.02760593 -0.03975046 -2.539047e-05)
(-0.03356206 -0.04269377 -3.040768e-05)
(-0.002325559 -0.02797031 -5.619414e-06)
(-0.007280142 -0.02831183 -7.047451e-06)
(-0.01270361 -0.02888619 -2.963807e-05)
(-0.01826119 -0.03001381 -1.606328e-05)
(-0.02404696 -0.0314974 -1.654946e-05)
(-0.03017921 -0.033484 1.311547e-06)
(-0.03668634 -0.03595877 2.245485e-06)
(-0.002535408 -0.02262175 1.481881e-05)
(-0.00777728 -0.02279545 -3.07356e-05)
(-0.01355775 -0.02330019 -5.492263e-06)
(-0.01962745 -0.02396319 -2.322608e-05)
(-0.02578204 -0.02510734 -1.294671e-05)
(-0.03234811 -0.02663571 -6.703706e-07)
(-0.03929983 -0.02859968 -3.868609e-06)
(-0.002533747 -0.01686714 2.048333e-05)
(-0.008337463 -0.01717315 -6.895124e-06)
(-0.01435877 -0.01677378 -6.761179e-05)
(-0.02063468 -0.01732179 -4.735083e-05)
(-0.0271632 -0.01803139 -4.667057e-05)
(-0.03401222 -0.01915145 -2.167553e-05)
(-0.04133771 -0.02055631 -2.642696e-05)
(-0.002703603 -0.01112416 1.525141e-05)
(-0.008546089 -0.01050029 -0.0001270198)
(-0.01451774 -0.01067099 7.263188e-05)
(-0.02171111 -0.01010142 -5.098835e-05)
(-0.0280699 -0.01061922 -7.850627e-05)
(-0.03519163 -0.01110427 -8.901655e-05)
(-0.04269255 -0.01194051 -0.0001118963)
(-0.0003734622 -0.00663657 0.0004588789)
(-0.006628725 -0.004657293 4.761561e-05)
(-0.01637714 -0.002585476 -5.727445e-05)
(-0.02140075 -0.002856719 -2.802143e-05)
(-0.02854205 -0.003479525 3.253019e-05)
(-0.03551991 -0.003592551 -1.700678e-05)
(-0.04327207 -0.003870615 -2.678304e-05)
(-0.007950961 -0.0001166278 0.0003131147)
(-0.05259424 1.207658 -0.009902397)
(-0.1030014 1.233344 0.01584634)
(0.04577634 0.6248685 -0.01985542)
(0.1085736 0.5763945 -0.09003524)
(0.2474252 0.7313257 -0.0169651)
(0.2651423 0.785342 -0.03154142)
(0.3296887 0.7955274 -0.02634644)
(0.08011552 0.9750071 0.02002161)
(0.211126 1.005961 0.008304275)
(0.2782806 1.039205 0.02864999)
(0.2158416 1.002533 0.1110115)
(0.249109 1.070218 0.01237045)
(0.3008903 1.044688 0.03886717)
(0.364452 1.031394 0.01132222)
(0.01780818 0.7757167 -0.007772455)
(0.05778739 0.8027755 -0.01712225)
(0.1455855 0.7785266 -0.006960076)
(0.189586 0.7362522 -0.02480067)
(0.2606744 0.792008 -0.001277475)
(0.3303743 0.7767117 -0.01257664)
(0.3858512 0.7891927 -0.004348294)
(0.02619227 0.791229 0.001904169)
(0.09047805 0.8065302 -0.001170739)
(0.1685266 0.8311755 0.007327947)
(0.212225 0.8029515 0.001091382)
(0.2676487 0.8387229 0.009523691)
(0.3266424 0.8350836 0.003733118)
(0.3816606 0.8433493 0.006947479)
(0.02550583 0.6985954 -0.001252685)
(0.08368295 0.6997814 -0.002715415)
(0.1525492 0.7108303 -8.642277e-05)
(0.2165384 0.6993015 -0.006209037)
(0.2733663 0.7229824 0.001397921)
(0.3390688 0.7211453 -0.00242532)
(0.3946216 0.7308304 0.003025547)
(0.02901969 0.6460733 -0.0002588924)
(0.09106076 0.6511313 -0.001541666)
(0.1603582 0.6582056 0.0007982499)
(0.2232764 0.6616034 -0.001045243)
(0.2862514 0.6743877 0.0008437407)
(0.3494079 0.6845887 -0.0008289551)
(0.4073945 0.6972006 0.0004890604)
(0.0298161 0.5750536 -3.175948e-05)
(0.09309131 0.5780374 -0.0005160508)
(0.1639919 0.5820406 0.0001713414)
(0.2308199 0.5882469 -0.0009131251)
(0.2966009 0.59929 6.794468e-05)
(0.3612815 0.6114346 -0.000669302)
(0.4226428 0.6264569 -0.0001152956)
(0.0315749 0.5074325 -0.0006268469)
(0.09821813 0.5103078 -0.0006133771)
(0.1702769 0.5153842 1.333539e-06)
(0.2403398 0.5236835 -0.0005103333)
(0.3092991 0.535332 -0.0001441265)
(0.3769389 0.5502822 -0.0004826099)
(0.4418351 0.5686073 -0.0003086578)
(0.03259786 0.4343526 -0.0006680267)
(0.1010379 0.4380455 -0.0003170933)
(0.1767692 0.4425997 1.100104e-05)
(0.2503728 0.4514989 -0.0002011366)
(0.3231288 0.4636698 -4.907355e-05)
(0.3948722 0.4803562 -0.0002422134)
(0.4644492 0.5014652 -0.0001573382)
(0.03447487 0.3625183 -0.0001765973)
(0.1068187 0.3633724 -0.0003420601)
(0.1841089 0.3675894 -0.0001418879)
(0.2616591 0.3763605 -0.0002438228)
(0.3386176 0.3888495 -0.0002624878)
(0.415292 0.4066672 -0.0004770669)
(0.4917115 0.4303289 -0.0005735282)
(-0.001406296 -0.05388764 6.37857e-06)
(-0.001712443 -0.0525567 1.832328e-05)
(-0.0009764961 -0.05562494 -1.884888e-05)
(-0.001629097 -0.05854669 -1.196171e-06)
(-0.001803308 -0.06234304 -1.32109e-05)
(-0.002269701 -0.0669745 -1.487543e-05)
(-0.002164322 -0.05473764 -6.611514e-05)
(-0.003050853 -0.05319061 -0.0001138897)
(-0.002077245 -0.05320701 -0.0001934503)
(-0.003743766 -0.05531509 -0.0002041109)
(-0.004518653 -0.05789658 -0.00035814)
(-0.005834472 -0.06166236 -0.0003648434)
(-0.007076282 -0.0662425 -0.0003963754)
(-0.002666031 -0.05340831 -2.799087e-05)
(-0.001178122 -0.04954215 3.607987e-05)
(-0.005100731 -0.0515752 -0.0001108281)
(-0.005899261 -0.05338024 -9.760522e-05)
(-0.008158876 -0.05632848 -0.0001645795)
(-0.009957851 -0.05994 -0.0001753905)
(-0.01215192 -0.0644243 -0.0001986551)
(-0.001877077 -0.04723148 3.546213e-05)
(-0.00393821 -0.04894104 9.922477e-06)
(-0.006127027 -0.04917758 -9.89606e-05)
(-0.008651058 -0.0515571 -0.0001189152)
(-0.01124616 -0.05409226 -0.0001589682)
(-0.01402984 -0.0576118 -0.0001786521)
(-0.01704853 -0.06188066 -0.0002006354)
(-0.001252552 -0.04555217 -2.482493e-05)
(-0.004245249 -0.04539222 -2.71175e-05)
(-0.007648683 -0.04657651 -8.710074e-05)
(-0.01078102 -0.04843531 -7.888945e-05)
(-0.01427106 -0.05097053 -0.0001062067)
(-0.01783342 -0.05425247 -0.0001151359)
(-0.02169323 -0.05828093 -0.0001300299)
(-0.001722087 -0.04138896 -1.636304e-05)
(-0.005298768 -0.0420501 -5.008267e-05)
(-0.009044885 -0.04296877 -6.741719e-05)
(-0.01298026 -0.04479291 -6.053744e-05)
(-0.01708771 -0.04711459 -7.671299e-05)
(-0.02141561 -0.0501584 -7.910415e-05)
(-0.0260408 -0.05387951 -8.74586e-05)
(-0.00186249 -0.03758583 -6.113869e-05)
(-0.005928928 -0.03793937 -6.399104e-05)
(-0.01035927 -0.0388736 -6.439488e-05)
(-0.01490936 -0.04043136 -4.704671e-05)
(-0.01966852 -0.04252709 -5.288152e-05)
(-0.02468401 -0.04525538 -4.539278e-05)
(-0.03002285 -0.04860856 -4.62062e-05)
(-0.002120764 -0.03295915 -6.290124e-05)
(-0.006631526 -0.03334511 -6.552733e-05)
(-0.01156612 -0.03415464 -5.463592e-05)
(-0.01669062 -0.03548948 -3.493977e-05)
(-0.02200527 -0.03730405 -3.173235e-05)
(-0.02763624 -0.03967195 -1.53401e-05)
(-0.03360682 -0.04260368 -9.403721e-06)
(-0.002296646 -0.02797086 -7.260766e-05)
(-0.007236959 -0.0282993 -6.613672e-05)
(-0.01263213 -0.02882194 -4.872431e-05)
(-0.01822665 -0.02992073 -1.907183e-05)
(-0.0240615 -0.03136919 -5.644016e-06)
(-0.03022319 -0.03333054 2.211271e-05)
(-0.03674512 -0.03578559 3.367914e-05)
(-0.002490834 -0.02260111 -6.650832e-05)
(-0.007719431 -0.02274198 -6.765644e-05)
(-0.01346835 -0.02320429 -3.036673e-05)
(-0.01959711 -0.0238027 -1.383425e-05)
(-0.0258015 -0.02488495 -2.654617e-06)
(-0.0323955 -0.02636498 1.747934e-05)
(-0.03936418 -0.02829945 2.361155e-05)
(-0.002479174 -0.01684082 -4.859858e-05)
(-0.008281866 -0.0171308 -3.991288e-05)
(-0.01426979 -0.01657547 -2.862536e-05)
(-0.02057659 -0.01708963 6.703034e-06)
(-0.02715865 -0.01772443 2.178955e-05)
(-0.03402529 -0.01880365 4.826802e-05)
(-0.04137567 -0.02016812 5.943051e-05)
(-0.002679661 -0.01101449 -3.752827e-05)
(-0.008454073 -0.01038242 -3.411641e-05)
(-0.01437523 -0.01058076 6.226874e-05)
(-0.02169538 -0.009936233 5.111108e-05)
(-0.02804737 -0.01043396 8.202869e-05)
(-0.03518959 -0.01086761 9.840839e-05)
(-0.04269534 -0.01169589 0.0001082494)
(-0.0003648824 -0.006544207 0.0003964824)
(-0.006548176 -0.004674497 3.758059e-05)
(-0.01633045 -0.002550504 -2.867744e-05)
(-0.0213159 -0.002757853 3.101653e-05)
(-0.02855881 -0.003449631 4.781594e-05)
(-0.03548213 -0.003484888 7.915576e-05)
(-0.04326675 -0.003773416 9.517598e-05)
(-0.008071411 -9.205e-05 8.865307e-05)
(-0.05226752 1.21168 -0.01514364)
(-0.1140763 1.246164 -0.00687275)
(-0.04647823 0.6840191 -0.02555002)
(0.100806 0.3394944 -0.0009734622)
(0.3086295 0.8063441 -0.03608118)
(0.2749505 0.7576041 -0.02516715)
(0.3486147 0.8280775 -0.03111207)
(0.09010651 0.9463263 0.00311554)
(0.2247028 1.018891 0.01349781)
(0.363578 1.015005 0.01618148)
(0.2485981 1.129245 0.001745982)
(0.1894419 0.9940111 0.0004725006)
(0.3116217 1.09367 0.006247569)
(0.3247458 1.016095 0.01561606)
(0.01541456 0.7739606 -0.001866271)
(0.06193535 0.8035355 -0.005926448)
(0.125961 0.7374192 -0.003172854)
(0.2073148 0.7912184 0.001235089)
(0.2622408 0.7446961 0.003863419)
(0.3209251 0.8019567 0.003995609)
(0.3845648 0.7708679 -0.001292612)
(0.0257042 0.7713245 -0.0002313141)
(0.09909272 0.8220911 0.00185274)
(0.1593159 0.7912584 0.002468259)
(0.2171247 0.8479928 -0.00332663)
(0.2689326 0.8008907 0.003487631)
(0.3260361 0.8503911 0.0007099736)
(0.3775159 0.8170673 0.004629091)
(0.02085899 0.6879113 0.002989625)
(0.08537579 0.7086878 0.0006389585)
(0.1495922 0.6894236 0.005520256)
(0.215264 0.715583 0.001318963)
(0.2795042 0.7068436 0.004345551)
(0.3315692 0.7303803 0.002777167)
(0.396608 0.7274754 0.005089478)
(0.02797081 0.6406185 0.000271544)
(0.09134821 0.6531396 0.000398948)
(0.1555967 0.6497003 0.0009094191)
(0.2223613 0.6674801 -0.0002103905)
(0.2849197 0.6707167 0.0019342)
(0.3477386 0.6872056 0.0006110617)
(0.4071411 0.6947328 0.00188436)
(0.02860815 0.5719946 0.0018757)
(0.09315911 0.5776798 0.0009596617)
(0.1625135 0.5791352 0.001650376)
(0.2279327 0.5907809 0.0002474056)
(0.2963627 0.5980749 0.001069752)
(0.3606512 0.6123069 0.0002349892)
(0.4225609 0.6262366 0.0006917443)
(0.03093808 0.5068091 0.0007036695)
(0.09735793 0.5102633 0.0009808624)
(0.168972 0.5143918 0.0009840432)
(0.2393689 0.5240395 0.0001602683)
(0.3090117 0.5348114 0.0004461949)
(0.3765499 0.55052 0.0001037451)
(0.4417007 0.5684425 0.0001777209)
(0.03204568 0.4339099 0.0009963118)