/*--------------------------------*- C++ -*----------------------------------*\
  =========                 |
  \\      /  F ield         | OpenFOAM: The Open Source CFD Toolbox
   \\    /   O peration     | Website:  https://openfoam.org
    \\  /    A nd           | Version:  7
     \\/     M anipulation  |
\*---------------------------------------------------------------------------*/
FoamFile
{
    version     2.0;
    format      ascii;
    class       volScalarField;
    location    "0.08";
    object      p;
}
// * * * * * * * * * * * * * * * * * * * * * * * * * * * * * * * * * * * * * //

dimensions      [0 2 -2 0 0 0 0];

internalField   nonuniform List<scalar> 
109978
(
0.3500963
0.3493466
0.3480069
0.3464649
0.3447322
0.3427336
0.350475
0.3497262
0.3485279
0.3466044
0.3444187
0.3418575
0.3512701
0.3503372
0.349145
0.3471654
0.3449687
0.3424131
0.352124
0.3515311
0.3504246
0.3484333
0.346243
0.3436315
0.353003
0.3528889
0.3517521
0.3497458
0.3475565
0.34498
0.3539786
0.3544199
0.3532677
0.3513129
0.3490932
0.3465127
0.3550615
0.3561132
0.3549298
0.3530324
0.3507913
0.3482223
0.3563675
0.3578835
0.356714
0.3548705
0.3526194
0.3500462
0.3578682
0.3597964
0.3586793
0.3568751
0.3546196
0.3520518
0.359539
0.3618415
0.3607844
0.3590019
0.3567498
0.3541824
0.3614024
0.3640094
0.363043
0.3612768
0.3590318
0.3564718
0.3634677
0.3663007
0.3654478
0.3636882
0.3614501
0.3588973
0.3657404
0.368732
0.3679949
0.3662442
0.3640087
0.3614647
0.3681788
0.3713135
0.3706763
0.3689286
0.3666983
0.364167
0.3707323
0.3740437
0.3734935
0.3717633
0.3695166
0.3670004
0.3734089
0.3769265
0.3764329
0.3747186
0.3724649
0.3699626
0.3762145
0.3799499
0.3794965
0.3777984
0.3755302
0.3730466
0.3791572
0.3831087
0.3826878
0.3810062
0.3787294
0.3762462
0.3822379
0.3863584
0.3859982
0.3843269
0.3820429
0.3795579
0.3854459
0.3897152
0.3894179
0.3877497
0.3854578
0.3829757
0.388737
0.3932749
0.3929373
0.3912658
0.3889684
0.3864775
0.3921258
0.3970225
0.3965378
0.3948734
0.3925767
0.3900991
0.381398
0.4007164
0.4002125
0.3985466
0.3962569
0.3937882
0.349506
0.3483509
0.3471986
0.3457412
0.3438863
0.3415024
0.3508262
0.350003
0.3494669
0.3488581
0.3477676
0.3464758
0.3516106
0.3502071
0.3496693
0.3492593
0.3478799
0.3465743
0.3522603
0.3502506
0.349479
0.349045
0.347649
0.3464413
0.3530528
0.3505833
0.3501263
0.3498239
0.3483712
0.3471415
0.3540313
0.3509778
0.3505879
0.350179
0.3487863
0.3475434
0.3552075
0.3515226
0.3514927
0.3509155
0.3496969
0.348392
0.3566686
0.352104
0.352466
0.3517069
0.3506591
0.3492986
0.358179
0.3528435
0.3536036
0.3526716
0.3517814
0.3503862
0.3597845
0.3538446
0.3548961
0.3538552
0.3530899
0.3516752
0.3616055
0.3550455
0.3562973
0.3551955
0.3545075
0.353095
0.363535
0.3564155
0.3578567
0.3567133
0.3561083
0.3547049
0.3656107
0.3579854
0.3595554
0.3583926
0.3578513
0.3564576
0.367828
0.3597316
0.3614106
0.3602418
0.3597579
0.3583746
0.3702383
0.3616439
0.3634281
0.3622477
0.3618212
0.3604431
0.3727605
0.3637456
0.3655938
0.3644063
0.3640332
0.3626592
0.3754094
0.3659862
0.3679183
0.3667162
0.3664016
0.3650253
0.3778707
0.3683497
0.3703913
0.3691518
0.3689093
0.3675254
0.3808656
0.3708039
0.3730181
0.3717179
0.3715574
0.3701607
0.3838442
0.3733215
0.3757964
0.3743944
0.3743243
0.3729141
0.3869922
0.3759904
0.3787178
0.3772142
0.3772161
0.3758002
0.3903352
0.3787409
0.3817221
0.3801494
0.3802043
0.3787938
0.3938221
0.3815463
0.3847834
0.3831951
0.3832973
0.3819054
0.3773241
0.3845482
0.3878796
0.3863524
0.3864655
0.3851031
0.3492653
0.3476193
0.3462169
0.3443388
0.3421247
0.3396964
0.3511133
0.3499877
0.3488414
0.3481038
0.3467881
0.3455499
0.3522245
0.3507282
0.3496596
0.3492815
0.3476793
0.3464156
0.3531587
0.3508803
0.3493328
0.3488914
0.347283
0.3460614
0.3543486
0.3514622
0.3501673
0.3500137
0.3482248
0.3470937
0.3557507
0.3519081
0.3505994
0.3503959
0.3486169
0.347438
0.3571688
0.3525165
0.351629
0.3512755
0.349655
0.3484124
0.3585382
0.3534213
0.3526528
0.3521264
0.3506084
0.3492985
0.3600259
0.3544652
0.3538703
0.3532312
0.3518026
0.3504437
0.3615892
0.3556876
0.3552278
0.3545091
0.3531382
0.3517482
0.3636223
0.3570566
0.3567059
0.3559476
0.3545987
0.3532052
0.3657213
0.358613
0.3583537
0.3575691
0.3562418
0.3548473
0.3679495
0.3604014
0.3601195
0.3593494
0.3580193
0.356632
0.3703457
0.3623311
0.3620357
0.3612889
0.3599627
0.3585832
0.3729364
0.3643971
0.364103
0.3633673
0.3620539
0.3606739
0.3756331
0.3666293
0.3663147
0.3655878
0.3643016
0.3629119
0.378457
0.3690071
0.3686814
0.3679424
0.3666945
0.3652891
0.3813502
0.371502
0.3712058
0.3704324
0.3692317
0.3678042
0.3843141
0.3741545
0.373896
0.3730592
0.3719087
0.3704586
0.3874891
0.3769991
0.3767307
0.3758256
0.3747119
0.3732382
0.3910137
0.3798811
0.3797106
0.3787002
0.377641
0.3761463
0.3947703
0.3828916
0.3827962
0.3816938
0.3806714
0.3791526
0.3984593
0.3859507
0.3860199
0.3847944
0.3838322
0.3822945
0.4016891
0.3891428
0.3893048
0.3879815
0.3870415
0.3854858
0.3493357
0.3473965
0.345922
0.3442154
0.3417012
0.3385774
0.3510002
0.3501349
0.3487363
0.3479377
0.3466078
0.3453437
0.352638
0.3510643
0.3497805
0.3496979
0.3478338
0.3468021
0.3534752
0.3515809
0.3488636
0.348664
0.3471009
0.3460505
0.3546675
0.3519663
0.3498511
0.3502258
0.3481562
0.3472482
0.3562341
0.3525298
0.3501485
0.3504359
0.3484649
0.3474613
0.3581748
0.3529109
0.3513039
0.3512967
0.349545
0.3484417
0.360308
0.353485
0.3522915
0.352052
0.3504873
0.3492966
0.3623793
0.3542048
0.3535257
0.3530456
0.3516618
0.350406
0.3644623
0.3553578
0.354892
0.3542648
0.3529953
0.351702
0.3653976
0.356686
0.3563261
0.3556391
0.3544271
0.3531278
0.3667363
0.3581067
0.3579384
0.3572047
0.3560515
0.3547552
0.3689185
0.3598405
0.3596705
0.3589246
0.3578053
0.3565165
0.3713438
0.3617207
0.361551
0.3608222
0.359726
0.3584498
0.3738398
0.3637095
0.3635943
0.3628553
0.3617971
0.3605262
0.3766502
0.3659354
0.3657629
0.3650541
0.3640192
0.3627525
0.3798232
0.3682897
0.3680814
0.3673879
0.3663905
0.3651227
0.383038
0.3708147
0.3705429
0.3698589
0.368902
0.367628
0.3866147
0.3735171
0.3731671
0.3724581
0.3715549
0.3702689
0.3918334
0.3759579
0.3759253
0.3751591
0.3743284
0.3730286
0.3962237
0.3788276
0.3788237
0.3780053
0.3772382
0.3759181
0.4001161
0.3819887
0.3818359
0.3809713
0.3802552
0.3789107
0.4039186
0.3849023
0.3850575
0.383971
0.3833896
0.3820123
0.4072805
0.3881599
0.3882372
0.3871287
0.3865957
0.3852068
0.3495011
0.3472901
0.3456781
0.3440097
0.3418897
0.3387207
0.350813
0.3501315
0.3486187
0.3477982
0.346568
0.3451898
0.3525427
0.3511379
0.3499161
0.3498609
0.3476732
0.3468191
0.3538424
0.3517181
0.3486282
0.3484913
0.3469572
0.3459388
0.354766
0.3519892
0.3498332
0.3503323
0.3480788
0.3472698
0.356044
0.3526647
0.3500668
0.3504992
0.3483824
0.3474381
0.357972
0.3530234
0.3513296
0.3514134
0.3495244
0.3484728
0.3603362
0.353639
0.3523312
0.3521728
0.3504688
0.349318
0.3622517
0.3544774
0.353583
0.3532118
0.3516703
0.3504479
0.3641755
0.3558336
0.3549354
0.3544765
0.3530128
0.3517561
0.365313
0.3571986
0.3563739
0.3558914
0.3544571
0.3531932
0.3666747
0.3586246
0.3580012
0.3574844
0.3560916
0.354837
0.3688705
0.3604263
0.3597237
0.3592463
0.3578526
0.3566082
0.3712893
0.3622825
0.3616184
0.3611575
0.3597815
0.358553
0.3738113
0.3643367
0.3636695
0.3632161
0.3618614
0.3606344
0.3765068
0.3664719
0.3658812
0.365404
0.3640939
0.362865
0.3794534
0.3688729
0.3682179
0.3677537
0.3664733
0.3652364
0.382489
0.37133
0.3707056
0.370223
0.3689903
0.3677419
0.3857311
0.3740919
0.3733251
0.3728493
0.3716503
0.3703877
0.3896909
0.3771055
0.3761223
0.3755898
0.3744296
0.3731432
0.3959284
0.3796131
0.3791001
0.3784094
0.3773546
0.3760421
0.4001363
0.3826684
0.3821329
0.381352
0.3803477
0.3789957
0.4029257
0.3857213
0.3852851
0.384446
0.3835331
0.3821527
0.3703499
0.3887319
0.3884356
0.3875211
0.3866608
0.3852266
0.3495867
0.3473008
0.345664
0.3436507
0.341508
0.3391074
0.3508381
0.3501277
0.3486399
0.3478295
0.3465731
0.3451746
0.352755
0.3511292
0.3499078
0.3498528
0.3476794
0.3468211
0.3541437
0.3516887
0.3486366
0.3484968
0.3469579
0.3459385
0.3550946
0.3519645
0.3498405
0.3503293
0.3480824
0.3472717
0.3562379
0.3526544
0.3500705
0.3504957
0.3483849
0.347439
0.3576897
0.3530254
0.3513345
0.3514142
0.3495276
0.3484755
0.359855
0.3535942
0.3523338
0.3521671
0.3504712
0.3493188
0.3620995
0.3543986
0.353583
0.3532039
0.351671
0.3504501
0.3640888
0.3557146
0.3549366
0.3544653
0.3530155
0.3517557
0.3651323
0.3571041
0.3563998
0.3558615
0.3544609
0.3531921
0.3667765
0.3586005
0.3580037
0.357471
0.3560986
0.354835
0.3690489
0.3603827
0.3597492
0.359216
0.3578611
0.3566063
0.3715586
0.3623011
0.3616529
0.3611383
0.3597942
0.3585501
0.3741119
0.3643026
0.3637075
0.3631924
0.3618718
0.3606345
0.3768709
0.3665642
0.3659052
0.3654055
0.364105
0.362867
0.3798628
0.3689809
0.3682597
0.3677456
0.3664834
0.3652402
0.3828998
0.3715533
0.3707533
0.3702269
0.3690024
0.3677475
0.3868204
0.3741022
0.3734179
0.3728161
0.3716582
0.3703898
0.3916511
0.3765892
0.376175
0.375535
0.3744325
0.3731516
0.3957144
0.3793676
0.3790827
0.3783822
0.3773419
0.3760411
0.39943
0.3824297
0.3820961
0.3813549
0.3803564
0.3790336
0.4021524
0.3853483
0.3852683
0.3843948
0.383493
0.3821371
0.3708978
0.3884813
0.3884933
0.3875456
0.3867046
0.3853293
0.3494688
0.3474917
0.3459366
0.3441004
0.3418844
0.3393212
0.3509911
0.3501637
0.3487512
0.3479545
0.3466987
0.3453286
0.3524875
0.3510776
0.3497814
0.3496932
0.3478172
0.3468048
0.3539324
0.3515989
0.3488758
0.3486809
0.3471174
0.3460608
0.3549762
0.3519769
0.3498601
0.3502327
0.3481651
0.3472547
0.3558536
0.3525724
0.350163
0.3504479
0.3484761
0.3474697
0.3574916
0.3529146
0.3513097
0.3513105
0.3495551
0.3484501
0.3592074
0.3535812
0.3523031
0.3520765
0.3505015
0.3493074
0.3619386
0.3542807
0.3535331
0.3530782
0.3516759
0.350419
0.3644454
0.3554362
0.3548873
0.3543072
0.3530084
0.3517194
0.3660476
0.3568796
0.3563005
0.3557088
0.3544397
0.3531506
0.367845
0.3584927
0.3578915
0.3572988
0.3560632
0.3547845
0.3705616
0.3601421
0.3596221
0.3590237
0.3578156
0.3565471
0.3735265
0.361952
0.3615091
0.360917
0.3597342
0.3584813
0.3760646
0.3639762
0.3635503
0.3629532
0.3618024
0.3605548
0.3794065
0.3660902
0.3657232
0.3651357
0.364018
0.3627765
0.3826229
0.3683373
0.3680476
0.3674557
0.3663846
0.3651392
0.3859865
0.3707699
0.3705046
0.3699153
0.3688847
0.3676318
0.3891624
0.3732845
0.3731247
0.3724981
0.3715352
0.3702669
0.3926611
0.376199
0.3758364
0.3752117
0.3742842
0.3729903
0.396004
0.3790227
0.3787614
0.3780392
0.3772242
0.375899
0.3996286
0.3820285
0.381747
0.3809081
0.3801559
0.3787649
0.4025595
0.3851091
0.3849653
0.384018
0.3834289
0.3819946
0.3695192
0.3879768
0.3880945
0.3869271
0.3863881
0.3847932
0.3492653
0.3477139
0.346093
0.3440899
0.3417741
0.3389686
0.3511186
0.349993
0.3488563
0.3481111
0.3468376
0.3455651
0.3522571
0.3507239
0.3496726
0.3492883
0.34769
0.34643
0.3533501
0.3508693
0.3493469
0.3489044
0.3472971
0.346073
0.3546055
0.3514413
0.3501835
0.350021
0.3482396
0.3471054
0.3560624
0.351889
0.3506208
0.3504035
0.3486322
0.3474497
0.357828
0.3525415
0.3516594
0.3512897
0.3496738
0.3484254
0.3598956
0.3534367
0.3526953
0.3521435
0.3506296
0.3493138
0.3620784
0.3544819
0.3539155
0.3532568
0.3518267
0.3504609
0.3642417
0.3557456
0.3552681
0.3545502
0.3531642
0.3517715
0.3662506
0.3573155
0.3567368
0.3560145
0.3546283
0.3532292
0.3685749
0.3589507
0.3583749
0.3576571
0.356273
0.3548782
0.3709978
0.3607774
0.3601438
0.3594443
0.3580525
0.3566617
0.3736974
0.3627084
0.3620679
0.3613881
0.3599953
0.3586121
0.3763285
0.3648503
0.3641387
0.3634727
0.3620861
0.360702
0.3792906
0.3669977
0.3663599
0.3656839
0.3643283
0.3629375
0.3821408
0.3693474
0.3687339
0.3680238
0.3667151
0.3653081
0.3852567
0.3717763
0.3712534
0.370491
0.3692401
0.3678139
0.3884025
0.3743741
0.373922
0.3730881
0.3719005
0.3704515
0.3921742
0.3769314
0.3767071
0.375809
0.3746804
0.3732125
0.3957521
0.3798264
0.3796454
0.3786658
0.3775834
0.3760879
0.3995109
0.3828063
0.3827319
0.3816343
0.3805978
0.3790749
0.4033288
0.3859659
0.3859417
0.384707
0.3837161
0.3821627
0.3729724
0.3890868
0.3892401
0.3878725
0.3869198
0.385341
0.3493057
0.348094
0.3466694
0.3448507
0.3431054
0.340907
0.3510395
0.3500216
0.3494831
0.3488874
0.347812
0.3465178
0.3518816
0.3502164
0.3496812
0.3492716
0.3478973
0.3465933
0.3528728
0.3502667
0.349494
0.3490614
0.3476675
0.3464594
0.3538974
0.3506077
0.3501435
0.3498398
0.3483876
0.3471561
0.3547995
0.3510363
0.3506114
0.3502023
0.3488048
0.3475579
0.3559638
0.3515828
0.3515216
0.3509452
0.3497169
0.3484083
0.3575598
0.3522287
0.3525101
0.351749
0.3506858
0.3493177
0.359285
0.353001
0.3536515
0.3527266
0.3518108
0.3504106
0.3611317
0.3540514
0.3549449
0.3539242
0.353125
0.3517025
0.3630676
0.3553292
0.3563428
0.3552851
0.3545448
0.3531311
0.3651754
0.3567569
0.3579027
0.3568196
0.35615
0.3547438
0.3673876
0.3583682
0.3596007
0.358512
0.3578928
0.3565011
0.3697755
0.3601168
0.3614571
0.3603647
0.3598008
0.3584203
0.3722002
0.3620545
0.3634706
0.3623711
0.3618593
0.3604859
0.3747579
0.3640937
0.3656252
0.3645187
0.3640644
0.3626944
0.3773329
0.3663019
0.3679357
0.366817
0.3664235
0.365052
0.3798495
0.3686343
0.3703856
0.3692328
0.3689132
0.3675308
0.3829377
0.3710598
0.3729837
0.371783
0.3715559
0.3701624
0.3865166
0.3734866
0.3757187
0.3744095
0.3742794
0.3728567
0.3901258
0.3760764
0.3786455
0.3772284
0.3772179
0.3757877
0.3937851
0.3787172
0.3815891
0.380044
0.3800716
0.3785686
0.3974693
0.3815423
0.3847181
0.3832346
0.383434
0.3819464
0.3771522
0.3844421
0.387611
0.3860409
0.3860977
0.3841371
0.3493977
0.3482423
0.346421
0.3449332
0.3428455
0.3406023
0.3509667
0.3500193
0.3491434
0.3478161
0.346252
0.3444586
0.3422629
0.3519297
0.3506064
0.3496798
0.3484316
0.3465307
0.3442553
0.3415651
0.3530553
0.3514685
0.3503669
0.3491122
0.3471525
0.3448644
0.3421856
0.3538325
0.3524456
0.3515555
0.3503968
0.3484179
0.34613
0.3434108
0.355102
0.3534316
0.3529667
0.3518213
0.3498367
0.3475427
0.3448285
0.3564495
0.3545248
0.3546179
0.353471
0.3515221
0.3492186
0.3464989
0.3578712
0.3557855
0.3564046
0.3552424
0.3533384
0.3510304
0.348315
0.3591713
0.357256
0.3583231
0.3571617
0.3553045
0.352995
0.3502843
0.3606644
0.3588712
0.3603818
0.3592391
0.3574211
0.3551119
0.3524052
0.3622462
0.3606309
0.3625735
0.3614561
0.3596667
0.3573633
0.3546589
0.364096
0.3625565
0.3649096
0.3638261
0.3620539
0.3597585
0.3570594
0.3660317
0.3646538
0.3673761
0.3663307
0.3645721
0.3622882
0.3595961
0.3681883
0.3669186
0.3699823
0.3689729
0.3672311
0.3649559
0.3622722
0.3704431
0.3693322
0.372721
0.3717468
0.3700127
0.36775
0.3650796
0.3726508
0.3718454
0.3755855
0.3746474
0.3729382
0.3706708
0.3680137
0.3749804
0.3744574
0.3785763
0.3776616
0.3759756
0.3737099
0.3710708
0.3775176
0.3771946
0.3817041
0.380799
0.3791336
0.3768595
0.3742442
0.3804021
0.3800568
0.3849605
0.3840566
0.3824217
0.3801459
0.3775367
0.3835853
0.3830644
0.3883387
0.3874216
0.3858134
0.3835348
0.3809264
0.3868617
0.3862186
0.391858
0.3909003
0.3893147
0.3870301
0.3844303
0.3900246
0.3894588
0.3955279
0.3944733
0.3928959
0.3906085
0.3879971
0.3931673
0.3928333
0.3992764
0.3981425
0.3965947
0.3943586
0.3917757
0.396403
0.381382
0.3751948
0.3712991
0.3687569
0.3667213
0.3643784
0.3502217
0.3503196
0.3501473
0.3502605
0.3493573
0.3501263
0.3493828
0.3508146
0.3492769
0.3501796
0.3485047
0.3498753
0.3482108
0.3507485
0.3482422
0.3498503
0.3471195
0.3494076
0.346392
0.349784
0.3468032
0.3496247
0.3455221
0.348442
0.3449143
0.3488277
0.3452376
0.3489183
0.3435919
0.3471705
0.3428331
0.3479036
0.3432611
0.347885
0.341452
0.3405615
0.340788
0.3509976
0.3499721
0.3509627
0.3510477
0.3494258
0.3500291
0.3515318
0.3497262
0.351912
0.3517444
0.3490769
0.3499089
0.3524055
0.3495104
0.3530371
0.3526165
0.3493598
0.3495972
0.3533079
0.3496035
0.3538159
0.3535073
0.3494478
0.3495973
0.3543921
0.3499229
0.3550692
0.3545621
0.3496992
0.3497423
0.3556488
0.3504253
0.3564033
0.3558362
0.3501756
0.3501159
0.3570034
0.3510469
0.3578126
0.3572691
0.350568
0.3506735
0.3584111
0.3518271
0.3590814
0.3588099
0.351372
0.351547
0.3599471
0.3527838
0.3605515
0.3604629
0.3524376
0.352528
0.3616441
0.3538656
0.3621356
0.3622115
0.3536209
0.353544
0.3635151
0.3550953
0.3640117
0.3641731
0.3549367
0.3547666
0.3655803
0.356502
0.3659555
0.3663138
0.3563705
0.3561898
0.3678182
0.3581977
0.3681217
0.3686365
0.3579739
0.3578077
0.3701774
0.360035
0.3704349
0.3711221
0.3597389
0.3595864
0.3726543
0.3620648
0.3727524
0.3737306
0.3617851
0.3615072
0.375236
0.3642583
0.3750473
0.3763824
0.363846
0.3635759
0.3779471
0.3666341
0.3776103
0.3792593
0.3660259
0.3658346
0.3807726
0.3691888
0.3805182
0.3822988
0.3681124
0.3682512
0.3837095
0.3718999
0.3837166
0.3855696
0.3702976
0.370847
0.3867144
0.3747462
0.3869281
0.3889536
0.3726759
0.3736172
0.3897984
0.3777573
0.3901265
0.3923483
0.3756179
0.3764808
0.3929432
0.3809794
0.3932505
0.3957695
0.3787263
0.3794099
0.3962088
0.3843505
0.3965132
0.3992583
0.3819142
0.3823972
0.3501633
0.3502657
0.3501872
0.3500657
0.3503626
0.3502379
0.3500625
0.3503817
0.35021
0.350055
0.3504284
0.3501665
0.3500945
0.3503613
0.3501886
0.3500907
0.3503479
0.3501045
0.3501178
0.3503217
0.350121
0.3500976
0.3503633
0.3501456
0.3501229
0.3503684
0.3500435
0.3500957
0.350332
0.350207
0.3501067
0.350346
0.3500407
0.3501071
0.3503696
0.3501974
0.3500604
0.3503862
0.3501448
0.3500608
0.3504118
0.3502143
0.3500732
0.3503693
0.3502266
0.3501684
0.3502713
0.35019
0.3503231
0.3501539
0.3502582
0.3502277
0.3508604
0.3492821
0.3501918
0.3493669
0.3501386
0.3507688
0.3481945
0.3498658
0.348511
0.349894
0.3488365
0.3452585
0.3489406
0.345542
0.3484651
0.3479183
0.3432841
0.3479145
0.3436147
0.3472008
0.3408182
0.3414846
0.3510545
0.3494376
0.3500389
0.3510068
0.3499827
0.3517462
0.3490964
0.3498886
0.3515414
0.3497275
0.3535182
0.3494493
0.3496023
0.3533205
0.3496221
0.3558622
0.3501803
0.3501482
0.3556776
0.3504682
0.3573093
0.3505858
0.3507256
0.3570487
0.3511086
0.358873
0.3513428
0.3515962
0.3584789
0.3519027
0.3605382
0.352367
0.3525904
0.3600355
0.3528793
0.3622909
0.3535508
0.3536279
0.3617566
0.3539898
0.3642719
0.3548678
0.3548642
0.363652
0.355237
0.3664118
0.3562988
0.3563005
0.3657254
0.3566551
0.3687345
0.3580085
0.3579258
0.3679646
0.3583514
0.3711936
0.3598744
0.3596975
0.3703281
0.3601757
0.3737612
0.361881
0.3616059
0.3727946
0.3621877
0.3792454
0.3660188
0.3658603
0.3780335
0.3666934
0.3822476
0.3680109
0.3682025
0.3808236
0.369204
0.3855074
0.3701204
0.370786
0.3837133
0.3718717
0.3888641
0.3725889
0.3734978
0.386693
0.3746757
0.3956848
0.3786155
0.379327
0.3928627
0.3808872
0.3991449
0.381797
0.3823
0.3961004
0.3853124
0.3502526
0.350274
0.3502112
0.3508216
0.3507775
0.3500398
0.3504292
0.3512911
0.3511644
0.3500064
0.350864
0.3518777
0.3518047
0.3501452
0.3513813
0.3525505
0.3525722
0.350454
0.3520639
0.3533894
0.3534956
0.3509928
0.3528716
0.3543869
0.3545858
0.3516718
0.3537541
0.35546
0.3557192
0.3524344
0.3547593
0.3565809
0.3568064
0.3533608
0.35597
0.3578851
0.3580847
0.3545262
0.3573932
0.3593819
0.3596524
0.3558835
0.3589004
0.3610191
0.3613524
0.3573834
0.3605331
0.3627844
0.3631828
0.3590208
0.3622844
0.3646816
0.3651862
0.3607688
0.3642375
0.3667601
0.3673879
0.3628076
0.3663883
0.3690568
0.3698227
0.3650298
0.3686347
0.3715215
0.3724183
0.367372
0.3709457
0.3740965
0.3750811
0.3698229
0.3733938
0.3768043
0.3778756
0.3724115
0.3759348
0.3796148
0.3807689
0.3751083
0.3784954
0.3824886
0.3837211
0.3778622
0.3811598
0.3854321
0.3867863
0.3807362
0.3840116
0.3885278
0.3900417
0.3837571
0.3870638
0.3917704
0.3934595
0.3869554
0.3502674
0.3502071
0.3502893
0.350249
0.350271
0.3502547
0.3502589
0.3502624
0.3502644
0.350246
0.3502282
0.3502674
0.350239
0.3502722
0.3502414
0.3502804
0.3502558
0.3502638
0.3497879
0.3468197
0.3496447
0.3471393
0.3494295
0.3526204
0.3493569
0.3496019
0.3524126
0.3495237
0.354564
0.3496688
0.3497537
0.3544098
0.3499518
0.3764043
0.363923
0.3636365
0.3753557
0.3643571
0.3922563
0.3755102
0.3763962
0.3897399
0.3776792
0.3505519
0.3500807
0.3501828
0.3506096
0.3502503
0.3502517
0.3508478
0.3500497
0.3502474
0.3509616
0.3513163
0.3500753
0.350559
0.351515
0.3519954
0.3502431
0.3508608
0.3521798
0.3527916
0.3506197
0.3513859
0.3529959
0.3538107
0.3511828
0.3520452
0.3539816
0.3549239
0.3518477
0.3527876
0.3550626
0.356005
0.3526235
0.3536364
0.3561768
0.3571827
0.3536458
0.3546928
0.3574214
0.3586292
0.3548507
0.3558798
0.3588724
0.3603487
0.3562162
0.3572329
0.3604973
0.362163
0.3577243
0.3586745
0.3622533
0.3641226
0.3593788
0.3602429
0.364143
0.3662239
0.3611941
0.3619503
0.3660717
0.3685791
0.3632689
0.3638571
0.3683415
0.3711401
0.3655003
0.3659242
0.3707651
0.3737976
0.3678514
0.368076
0.3732912
0.3765574
0.3703245
0.3703294
0.3759109
0.3794167
0.3729324
0.3726651
0.3786663
0.3823454
0.3756092
0.3750443
0.3815075
0.3853162
0.3783783
0.3775099
0.3844008
0.3884804
0.3813061
0.3801724
0.3874132
0.3918474
0.3844264
0.3830398
0.3905718
0.3954037
0.3866867
0.3939166
0.3860356
0.3502313
0.3502832
0.3502689
0.3502725
0.3502653
0.3502677
0.3502696
0.3502748
0.3502312
0.3502416
0.3502891
0.3502619
0.3502869
0.3502738
0.350273
0.3502418
0.3502635
0.3502843
0.3499551
0.3503692
0.3502706
0.3498973
0.3473548
0.346261
0.3463191
0.3480826
0.3456632
0.3475072
0.3468242
0.3455012
0.3502234
0.3508306
0.3507872
0.3500506
0.3508583
0.350061
0.3502606
0.3509722
0.3504441
0.3513013
0.3511758
0.3500161
0.3513304
0.350089
0.3505785
0.351525
0.3528096
0.3506402
0.3514062
0.3530136
0.3528981
0.3544143
0.3546097
0.3517013
0.3549535
0.3518857
0.3528244
0.3550956
0.3537916
0.3555
0.3557531
0.3524796
0.3560491
0.3526832
0.3536893
0.3562269
0.3548134
0.3566408
0.3568623
0.3534261
0.3572473
0.3537164
0.3547561
0.3574884
0.3560318
0.3579607
0.3581664
0.3545996
0.3587032
0.3549406
0.3559524
0.3589532
0.3574756
0.3594737
0.3597443
0.3559825
0.3604492
0.3563242
0.3573258
0.3606013
0.3589994
0.3611311
0.36147
0.3574958
0.3606361
0.3629016
0.3632913
0.3591435
0.3642236
0.3595008
0.3603524
0.3642659
0.3624
0.3648102
0.3653066
0.3608978
0.3663436
0.3613307
0.3620718
0.3662086
0.3766065
0.3703756
0.3703746
0.3759747
0.3734134
0.3768428
0.3779109
0.3724412
0.3794397
0.3729366
0.3726737
0.3786961
0.3839256
0.3884471
0.3899549
0.3836694
0.391755
0.3843283
0.3829466
0.390481
0.3869528
0.3916732
0.3933531
0.3868441
0.3952899
0.387562
0.3938074
0.3859299
0.3997737
0.3951126
0.3999141
0.4028174
0.4026946
0.39477
0.3959954
0.3970023
0.3950095
0.396887
0.3502409
0.350263
0.3500569
0.3510759
0.3507192
0.3501216
0.3500001
0.3518015
0.3511842
0.3501468
0.3499661
0.3527106
0.3517762
0.3501624
0.3501596
0.3536898
0.3524931
0.3504095
0.3506056
0.3547959
0.3533833
0.35089
0.351223
0.3560371
0.3544274
0.3515524
0.3519934
0.3573339
0.3555751
0.3523449
0.3528896
0.3586375
0.3567394
0.3532528
0.3540326
0.3601073
0.3580676
0.3544302
0.3553866
0.3617506
0.3595942
0.3558217
0.356935
0.3635722
0.3612905
0.3574177
0.3586187
0.3655416
0.3631145
0.3591665
0.3604373
0.3675889
0.3650641
0.3610572
0.3625028
0.369797
0.3671989
0.3631749
0.3647988
0.3722202
0.3695579
0.3655195
0.3672869
0.3747683
0.3720612
0.3680308
0.3698492
0.3773588
0.3746417
0.3706292
0.3725803
0.3800668
0.3773314
0.3733731
0.3754099
0.3828757
0.3801272
0.3762247
0.3783484
0.3857489
0.3830044
0.379169
0.3813619
0.3886967
0.3859632
0.3821964
0.3845682
0.3917931
0.3890732
0.3853989
0.3879218
0.3950334
0.3923201
0.3887509
0.3502329
0.3502984
0.3505339
0.3500729
0.3504583
0.3502208
0.3505747
0.3500172
0.3502411
0.3502495
0.3500735
0.3504053
0.3500756
0.3505085
0.3501198
0.3504584
0.3502955
0.3502164
0.3505401
0.3497496
0.349962
0.3506198
0.3503062
0.3501505
0.3508491
0.3493054
0.34976
0.3511377
0.3513204
0.349029
0.3496919
0.3517795
0.3518741
0.3489352
0.3497718
0.3525141
0.3525972
0.3490966
0.3500975
0.3533436
0.3535063
0.3494717
0.3506066
0.3543394
0.3545464
0.3500017
0.3512684
0.3553668
0.3556357
0.3506526
0.3520404
0.3564138
0.3568974
0.3515538
0.3530422
0.3576413
0.3583648
0.352678
0.354272
0.3590977
0.3600184
0.3540215
0.3557188
0.3607069
0.3617808
0.3555199
0.3573039
0.3624231
0.3636708
0.3571718
0.3590401
0.3642474
0.3657243
0.3590089
0.3609686
0.3662115
0.3680155
0.3611086
0.3631454
0.368417
0.3704767
0.3633878
0.3655078
0.3707811
0.3730404
0.3657766
0.3679736
0.3732497
0.375741
0.3683042
0.3705738
0.3758427
0.3785779
0.3709733
0.3732992
0.378577
0.3815165
0.373736
0.3761225
0.3814067
0.3844857
0.3765815
0.3790081
0.3842584
0.3875876
0.3795844
0.3820506
0.3872284
0.3907685
0.3827497
0.3852207
0.3903032
0.3884656
0.3859942
0.3940602
0.3936102
0.3500864
0.350531
0.3502438
0.3503413
0.3500098
0.3505745
0.3501453
0.3503748
0.3503662
0.3501352
0.3504633
0.3501288
0.3503823
0.350168
0.3502761
0.3502745
0.3502599
0.3502715
0.3505603
0.3500895
0.3501924
0.3506185
0.3501522
0.3496051
0.3496384
0.3503141
0.3494825
0.3501445
0.3499818
0.3493632
0.3496543
0.3488485
0.3489977
0.3499934
0.3486869
0.3496295
0.3492322
0.3484378
0.3487504
0.3452371
0.3464651
0.3485053
0.3458032
0.3493208
0.3483072
0.3451912
0.345894
0.3445517
0.3446159
0.3467012
0.3439605
0.3461252
0.3453663
0.3437165
0.3443819
0.3427273
0.3429247
0.3500678
0.351084
0.3501326
0.3507286
0.35086
0.349314
0.3497689
0.3511481
0.3500022
0.3518144
0.3501575
0.3511924
0.3513285
0.349037
0.3497024
0.3517863
0.3513954
0.352567
0.3525894
0.3504693
0.3545793
0.3500378
0.3513043
0.3554062
0.3520354
0.3573714
0.3523858
0.3556155
0.3556823
0.3507112
0.3520946
0.3564794
0.3569704
0.3516246
0.3531124
0.3577041
0.3541025
0.3601818
0.3545008
0.3581419
0.3570405
0.3636821
0.3575235
0.3613989
0.3622726
0.3578464
0.358781
0.3623724
0.3587395
0.365669
0.3592917
0.3632345
0.3637925
0.3572906
0.3591612
0.3643563
0.3643527
0.3668936
0.3675263
0.3629369
0.3686994
0.3633917
0.3639723
0.3684705
0.3664931
0.3691836
0.3699644
0.3651366
0.3712393
0.3656051
0.3660263
0.3708767
0.3710026
0.3741674
0.375156
0.3698859
0.3759169
0.3796193
0.3807675
0.3750934
0.3823223
0.3755854
0.3750199
0.3814995
0.3784756
0.3824592
0.3836967
0.377831
0.3852938
0.3783104
0.3774425
0.3843621
0.3858875
0.3883618
0.3939494
0.3934912
0.3503943
0.3499895
0.3500946
0.3504014
0.350268
0.3502299
0.3507087
0.3496042
0.3498769
0.3510597
0.3511971
0.3493354
0.3498657
0.3517427
0.3517144
0.349231
0.3499565
0.3526629
0.3524024
0.3493476
0.3502088
0.3536569
0.3532677
0.3497265
0.3506859
0.3547702
0.3542675
0.3502744
0.3513065
0.3560211
0.35535
0.3509529
0.3520332
0.3573325
0.3565265
0.3518019
0.3529457
0.3586626
0.3579112
0.3529009
0.3541286
0.3601487
0.3594871
0.3542023
0.3555341
0.3617948
0.3611925
0.3556426
0.3570751
0.3635648
0.3629986
0.3572199
0.3587411
0.3654483
0.3649363
0.3589549
0.3605491
0.3674321
0.3671003
0.3609592
0.3626104
0.3696302
0.3694321
0.3631639
0.3648522
0.3719997
0.3719141
0.365497
0.3672389
0.3744817
0.3744893
0.3679488
0.3697353
0.3770395
0.3771936
0.3705487
0.3723727
0.3797122
0.3799985
0.3732718
0.3751219
0.382482
0.3828741
0.3760615
0.3779549
0.3853091
0.3858522
0.3789596
0.3809122
0.3882209
0.3890091
0.3820109
0.3840573
0.3912814
0.3923275
0.3852154
0.3873751
0.3944941
0.350269
0.3503266
0.350095
0.3504941
0.3500557
0.3505044
0.3500146
0.3505433
0.3503423
0.3501347
0.3504703
0.3500903
0.3504814
0.3501641
0.3504392
0.35016
0.3502521
0.3502698
0.3477074
0.3478531
0.3492065
0.3486475
0.3487321
0.3481678
0.3471147
0.3473063
0.3518898
0.3518195
0.3501595
0.3508865
0.3502605
0.3508799
0.3521932
0.3520096
0.3716252
0.3725273
0.367461
0.3687244
0.3679267
0.3681594
0.3733845
0.3738848
0.3853717
0.3867212
0.3806594
0.3810875
0.3812242
0.3800983
0.3873332
0.3884048
0.3500455
0.3506292
0.3505095
0.3500025
0.3501717
0.3502719
0.3498579
0.3512213
0.350829
0.3498162
0.3498697
0.3519239
0.3513388
0.3497297
0.3500504
0.3526636
0.3518768
0.3497784
0.3503655
0.3535707
0.3525537
0.3500279
0.3508897
0.354612
0.3534173
0.3505289
0.3515655
0.3557473
0.3544144
0.3511622
0.3523488
0.3569487
0.3554625
0.3519028
0.3533416
0.3583012
0.3566659
0.3528563
0.3545956
0.3598609
0.3580935
0.3540946
0.3560754
0.3615581
0.3597226
0.3555554
0.3576842
0.363305
0.3614452
0.3571503
0.3594373
0.3651652
0.3632794
0.3589028
0.3613652
0.3671548
0.365252
0.3608272
0.3635619
0.3694031
0.3674692
0.3630513
0.3659471
0.3718151
0.3698591
0.3654682
0.3684557
0.3743293
0.3723573
0.3680183
0.3710871
0.3769389
0.3749531
0.3706978
0.3738671
0.3796851
0.3776703
0.3735434
0.3767562
0.3825245
0.3804781
0.3765059
0.3796939
0.3853958
0.3833359
0.3794962
0.3827615
0.3883595
0.3863072
0.3825982
0.3859625
0.3914432
0.3894427
0.3858083
0.3893128
0.3946049
0.3927383
0.3892339
0.3504618
0.3501441
0.3503687
0.3501982
0.3505486
0.350027
0.3504672
0.3501217
0.3501441
0.3504018
0.350156
0.3504764
0.3502514
0.3503838
0.3502643
0.3503323
0.3502738
0.3502617
0.3463216
0.3492713
0.3451626
0.3484418
0.3481782
0.3449525
0.3459038
0.3487909
0.350719
0.3496142
0.3510672
0.3498879
0.349869
0.3512323
0.3508402
0.3498266
0.3512039
0.3493438
0.3517575
0.3498743
0.3498801
0.3519316
0.3513458
0.3497356
0.3523951
0.3570027
0.3555071
0.3519681
0.3565927
0.3518691
0.3587243
0.3530116
0.3534106
0.358368
0.3567343
0.3529224
0.3579847
0.3529762
0.3602223
0.3541998
0.361302
0.3557564
0.3636741
0.3571861
0.3631162
0.3573364
0.3655625
0.3588594
0.359555
0.3652761
0.3633967
0.3590088
0.3956141
0.3983226
0.3913443
0.3921725
0.3982249
0.3955064
0.3912501
0.3920683
0.3499428
0.350737
0.3505172
0.3498674
0.3497586
0.3499721
0.3506264
0.3505484
0.3493558
0.3502998
0.3497253
0.3503662
0.3482102
0.3435609
0.3441412
0.3470487
0.3414357
0.3459114
0.3462309
0.3430104
0.3556392
0.3574235
0.3625418
0.3618888
0.3786095
0.3709835
0.3733157
0.3785948
0.3828758
0.3762209
0.3801292
0.3754186
0.3469217
0.3494691
0.3496484
0.3478938
0.352723
0.3501764
0.3517838
0.349979
0.3534094
0.3535124
0.3510157
0.3520891
0.3512098
0.3520737
0.3540063
0.3538315
0.3504701
0.349879
0.3499942
0.3505135
0.3546702
0.3599438
0.3581672
0.3541889
0.3772261
0.3705792
0.3797487
0.3724053
0.3738977
0.3797086
0.3777019
0.3735583
0.3507435
0.3483792
0.3489034
0.3502176
0.3431257
0.3476518
0.3468657
0.3442318
0.3413888
0.3430069
0.3634315
0.3615563
0.3572783
0.3578019
0.3732623
0.3824719
0.3799986
0.3751163
0.3492404
0.3526747
0.3517223
0.3499678
0.3501352
0.349592
0.349626