/*--------------------------------*- C++ -*----------------------------------*\
  =========                 |
  \\      /  F ield         | OpenFOAM: The Open Source CFD Toolbox
   \\    /   O peration     | Website:  https://openfoam.org
    \\  /    A nd           | Version:  7
     \\/     M anipulation  |
\*---------------------------------------------------------------------------*/
FoamFile
{
    version     2.0;
    format      ascii;
    class       volScalarField;
    location    "0.02";
    object      epsilon;
}
// * * * * * * * * * * * * * * * * * * * * * * * * * * * * * * * * * * * * * //

dimensions      [0 2 -3 0 0 0 0];

internalField   nonuniform List<scalar> 
90967
(
0.0009436651
0.0009645357
0.0009714647
0.000973098
0.0009735294
0.0009736013
0.0009646423
0.001006105
0.001019273
0.00102276
0.001023734
0.001023963
0.0009715274
0.001019224
0.00103596
0.001040645
0.001042035
0.0010424
0.0009731744
0.001022749
0.001040707
0.001046007
0.001047661
0.001048124
0.0009736233
0.00102379
0.001042204
0.001047791
0.0010496
0.001050131
0.0009737621
0.001024149
0.001042759
0.001048488
0.001050388
0.001050969
0.0009737797
0.001024258
0.001042958
0.001048765
0.001050724
0.001051349
0.0009737394
0.001024257
0.001043004
0.001048858
0.001050863
0.001051528
0.0009736561
0.001024189
0.001042961
0.001048852
0.001050898
0.001051608
0.0009735318
0.001024066
0.001042851
0.001048771
0.001050856
0.001051617
0.0009733588
0.001023875
0.001042659
0.001048601
0.001050725
0.001051542
0.0009731222
0.001023586
0.00104234
0.001048287
0.001050444
0.001051325
0.0009727832
0.001023122
0.001041786
0.001047701
0.001049879
0.001050829
0.0009722576
0.001022294
0.001040732
0.001046535
0.001048699
0.001049717
0.0009712855
0.001020546
0.001038436
0.001043961
0.00104604
0.001047111
0.0009688044
0.001015783
0.001032272
0.00103717
0.001039062
0.001040161
0.0009600859
0.001000089
0.001012812
0.001016518
0.001018077
0.001019146
0.0009327371
0.000952447
0.0009594333
0.0009616238
0.0009628442
0.0009638681
0.001928965
0.002002969
0.002014668
0.002018905
0.002022776
0.002027183
0.002032396
0.009129072
0.009199819
0.009273038
0.009350633
0.009436921
0.009535694
0.009653284
0.001924198
0.001954974
0.001960585
0.001962335
0.001963377
0.001964365
0.001965353
0.002064991
0.002092268
0.002107768
0.002111066
0.002111531
0.00211158
0.002111414
0.01204088
0.01203675
0.01203659
0.01203658
0.01203655
0.01203651
0.01203654
0.01204233
0.01203677
0.0120366
0.01203657
0.01203657
0.01203656
0.01203656
0.01204191
0.01203676
0.0120366
0.01203658
0.01203658
0.01203659
0.01203659
0.01204199
0.01203677
0.01203662
0.0120366
0.01203661
0.01203663
0.01203664
0.01204203
0.01203679
0.01203664
0.01203664
0.01203665
0.01203669
0.01203672
0.01204216
0.01203683
0.01203667
0.01203669
0.01203672
0.01203679
0.01203685
0.01204242
0.01203692
0.01203673
0.01203678
0.01203683
0.01203693
0.01203704
0.01204233
0.01203705
0.01203682
0.01203691
0.01203699
0.01203715
0.01203731
0.01204219
0.01203718
0.01203697
0.0120371
0.01203724
0.01203747
0.01203771
0.01204203
0.01203738
0.0120372
0.0120374
0.0120376
0.01203793
0.01203828
0.01204185
0.01203769
0.01203755
0.01203784
0.01203813
0.0120386
0.01203909
0.01204167
0.01203812
0.01203806
0.01203846
0.01203889
0.01203955
0.01204026
0.0120415
0.01203873
0.01203877
0.01203933
0.01203996
0.01204091
0.01204203
0.01204135
0.01203953
0.01203971
0.01204048
0.0120414
0.0120428
0.01204457
0.01204123
0.01204051
0.01204089
0.01204195
0.01204331
0.0120454
0.01204834
0.01204114
0.01204167
0.0120423
0.01204374
0.01204569
0.01204882
0.01205346
0.01204082
0.01204281
0.01204378
0.01204562
0.01204839
0.01205294
0.01206031
0.01203984
0.01204433
0.01204499
0.01204731
0.01205088
0.01205715
0.01206816
0.0120426
0.01204082
0.01204488
0.01204831
0.0120522
0.01205905
0.01207126
0.01209588
0.002049013
0.01203557
0.01203565
0.01203573
0.01203594
0.0120364
0.01203729
0.002082486
0.0009831985
0.0009986697
0.001004572
0.001005885
0.001006186
0.01204203
0.01203723
0.01203653
0.01203655
0.01203619
0.01203645
0.01203651
0.01203794
0.0120375
0.01203747
0.01203746
0.01203745
0.01203745
0.01203747
0.01203778
0.01203748
0.01203746
0.01203747
0.01203747
0.01203748
0.0120375
0.01203777
0.0120375
0.01203748
0.01203749
0.0120375
0.01203752
0.01203754
0.01203778
0.01203751
0.01203752
0.01203753
0.01203755
0.01203759
0.01203762
0.01203778
0.01203754
0.01203756
0.01203759
0.01203763
0.01203769
0.01203775
0.01203778
0.01203758
0.01203762
0.01203767
0.01203774
0.01203783
0.01203794
0.0120378
0.01203765
0.01203772
0.0120378
0.01203791
0.01203805
0.01203822
0.01203784
0.01203778
0.01203787
0.012038
0.01203816
0.01203837
0.01203862
0.0120379
0.01203797
0.01203811
0.0120383
0.01203853
0.01203883
0.0120392
0.01203802
0.01203827
0.01203847
0.01203873
0.01203906
0.0120395
0.01204004
0.0120382
0.01203871
0.01203898
0.01203935
0.01203982
0.01204046
0.01204125
0.01203845
0.01203933
0.01203968
0.01204021
0.01204088
0.01204182
0.01204302
0.0120388
0.01204013
0.01204061
0.01204135
0.01204232
0.01204371
0.01204557
0.01203921
0.01204114
0.01204177
0.01204281
0.01204422
0.0120463
0.01204926
0.01203978
0.01204225
0.01204309
0.01204459
0.01204657
0.01204968
0.01205434
0.01204009
0.01204352
0.01204457
0.01204629
0.01204922
0.01205376
0.01206128
0.01204102
0.01204524
0.01204498
0.01204828
0.01205179
0.01205835
0.01206961
0.01203901
0.01204185
0.01204283
0.01204338
0.01204673
0.01205149
0.01206064
0.001897909
0.001820803
0.001836277
0.001838931
0.001839484
0.002077232
0.01203543
0.01203571
0.01203582
0.01203595
0.01203635
0.01203718
0.002097047
0.0009982549
0.001025946
0.001035226
0.001037459
0.001037999
0.01204148
0.0120372
0.01203652
0.01203657
0.01203626
0.01203648
0.01203652
0.01203779
0.01203746
0.01203746
0.01203745
0.01203745
0.01203745
0.01203747
0.01203768
0.01203744
0.01203744
0.01203746
0.01203746
0.01203748
0.0120375
0.01203769
0.01203744
0.01203746
0.01203748
0.0120375
0.01203751
0.01203754
0.0120377
0.01203746
0.0120375
0.01203752
0.01203755
0.01203758
0.01203762
0.01203769
0.01203749
0.01203753
0.01203758
0.01203762
0.01203768
0.01203775
0.01203769
0.01203754
0.0120376
0.01203766
0.01203773
0.01203783
0.01203794
0.01203769
0.01203762
0.0120377
0.01203779
0.0120379
0.01203804
0.01203821
0.0120377
0.01203775
0.01203785
0.01203799
0.01203815
0.01203836
0.01203861
0.01203772
0.01203795
0.01203809
0.01203829
0.01203852
0.01203883
0.0120392
0.01203777
0.01203826
0.01203845
0.01203873
0.01203906
0.0120395
0.01204004
0.01203783
0.01203871
0.01203897
0.01203936
0.01203983
0.01204047
0.01204127
0.01203792
0.01203933
0.01203968
0.01204023
0.01204091
0.01204185
0.01204307
0.01203804
0.01204014
0.01204063
0.0120414
0.01204239
0.01204378
0.01204568
0.01203813
0.01204117
0.01204183
0.01204291
0.01204433
0.01204643
0.01204944
0.01203832
0.01204228
0.01204316
0.01204472
0.01204671
0.01204989
0.01205465
0.01203814
0.01204363
0.01204473
0.01204645
0.01204945
0.01205412
0.01206189
0.012039
0.01204515
0.01204488
0.0120484
0.01205184
0.01205855
0.01207011
0.01203905
0.01204213
0.01204255
0.01204011
0.01204345
0.01204659
0.01205576
0.001820851
0.001650933
0.001670379
0.001673147
0.001673361
0.002092124
0.01203538
0.01203569
0.01203575
0.01203585
0.01203624
0.01203708
0.002099931
0.001003637
0.001034507
0.001045732
0.001048426
0.001049085
0.01204146
0.01203718
0.01203652
0.01203657
0.01203628
0.0120365
0.01203653
0.01203785
0.01203744
0.01203744
0.01203744
0.01203744
0.01203745
0.01203747
0.01203768
0.0120374
0.01203742
0.01203745
0.01203746
0.01203748
0.01203749
0.01203768
0.01203741
0.01203743
0.01203746
0.01203749
0.01203751
0.01203754
0.01203769
0.01203743
0.01203747
0.0120375
0.01203754
0.01203758
0.01203762
0.01203768
0.01203746
0.0120375
0.01203756
0.01203761
0.01203768
0.01203775
0.01203769
0.0120375
0.01203757
0.01203764
0.01203773
0.01203782
0.01203794
0.01203769
0.01203757
0.01203766
0.01203777
0.01203789
0.01203804
0.01203821
0.0120377
0.0120377
0.01203782
0.01203797
0.01203815
0.01203836
0.01203861
0.01203772
0.0120379
0.01203806
0.01203827
0.01203852
0.01203883
0.0120392
0.01203776
0.0120382
0.01203842
0.01203871
0.01203906
0.0120395
0.01204005
0.01203783
0.01203865
0.01203894
0.01203933
0.01203983
0.01204047
0.01204128
0.01203793
0.01203927
0.01203965
0.01204021
0.01204092
0.01204185
0.01204308
0.01203805
0.01204008
0.0120406
0.01204138
0.01204239
0.01204377
0.01204567
0.01203815
0.01204111
0.0120418
0.01204287
0.01204431
0.01204639
0.0120494
0.01203838
0.01204221
0.01204312
0.01204466
0.01204666
0.01204988
0.01205471
0.01203819
0.01204362
0.01204472
0.01204643
0.01204949
0.01205425
0.01206223
0.01203915
0.01204511
0.01204482
0.01204851
0.01205202
0.01205894
0.01207091
0.01203915
0.01204214
0.01204295
0.01204001
0.01204399
0.0120473
0.01205722
0.00183606
0.001670454
0.001688602
0.001691177
0.00169132
0.002095156
0.01203537
0.0120357
0.01203577
0.01203587
0.01203626
0.0120371
0.002100076
0.001003632
0.001034496
0.001045708
0.001048393
0.001049057
0.01204145
0.01203718
0.01203652
0.01203657
0.01203628
0.0120365
0.01203653
0.01203785
0.01203744
0.01203744
0.01203744
0.01203744
0.01203745
0.01203747
0.01203768
0.0120374
0.01203742
0.01203745
0.01203746
0.01203748
0.01203749
0.01203768
0.01203741
0.01203743
0.01203746
0.01203749
0.01203751
0.01203754
0.01203769
0.01203743
0.01203747
0.0120375
0.01203754
0.01203758
0.01203762
0.01203768
0.01203746
0.0120375
0.01203756
0.01203761
0.01203768
0.01203775
0.01203769
0.0120375
0.01203757
0.01203764
0.01203773
0.01203782
0.01203794
0.01203769
0.01203757
0.01203766
0.01203777
0.01203789
0.01203804
0.01203821
0.0120377
0.0120377
0.01203782
0.01203797
0.01203815
0.01203836
0.01203861
0.01203772
0.0120379
0.01203806
0.01203827
0.01203852
0.01203883
0.0120392
0.01203777
0.0120382
0.01203842
0.01203871
0.01203906
0.0120395
0.01204005
0.01203783
0.01203865
0.01203894
0.01203933
0.01203983
0.01204047
0.01204128
0.01203793
0.01203927
0.01203966
0.01204021
0.01204092
0.01204185
0.01204308
0.01203805
0.01204008
0.0120406
0.01204138
0.01204239
0.01204377
0.01204567
0.01203815
0.01204111
0.0120418
0.01204287
0.01204431
0.01204639
0.0120494
0.01203838
0.01204221
0.01204312
0.01204466
0.01204666
0.01204988
0.01205471
0.01203819
0.01204362
0.01204473
0.01204643
0.01204949
0.01205425
0.01206223
0.01203915
0.01204511
0.01204482
0.01204851
0.01205202
0.01205894
0.01207092
0.01203915
0.01204213
0.01204295
0.01204001
0.01204398
0.01204729
0.01205721
0.001836062
0.001670457
0.001688615
0.001691196
0.00169135
0.002095392
0.01203537
0.0120357
0.01203577
0.01203587
0.01203626
0.0120371
0.002098985
0.000998242
0.001025904
0.00103511
0.001037278
0.00103786
0.0120415
0.0120372
0.01203652
0.01203656
0.01203623
0.01203648
0.01203653
0.01203779
0.01203746
0.01203746
0.01203745
0.01203745
0.01203745
0.01203747
0.01203768
0.01203744
0.01203744
0.01203746
0.01203746
0.01203748
0.0120375
0.01203769
0.01203744
0.01203746
0.01203748
0.0120375
0.01203751
0.01203754
0.0120377
0.01203746
0.0120375
0.01203752
0.01203755
0.01203758
0.01203762
0.01203768
0.01203749
0.01203753
0.01203757
0.01203762
0.01203768
0.01203775
0.01203769
0.01203754
0.0120376
0.01203766
0.01203773
0.01203783
0.01203794
0.01203769
0.01203762
0.0120377
0.01203779
0.0120379
0.01203804
0.01203821
0.0120377
0.01203775
0.01203785
0.01203799
0.01203815
0.01203836
0.01203861
0.01203772
0.01203795
0.01203809
0.01203829
0.01203852
0.01203883
0.0120392
0.01203777
0.01203826
0.01203845
0.01203873
0.01203906
0.0120395
0.01204004
0.01203783
0.01203871
0.01203897
0.01203936
0.01203983
0.01204047
0.01204127
0.01203792
0.01203933
0.01203968
0.01204023
0.01204091
0.01204185
0.01204307
0.01203804
0.01204014
0.01204063
0.0120414
0.01204239
0.01204378
0.01204568
0.01203813
0.01204117
0.01204183
0.01204291
0.01204433
0.01204644
0.01204944
0.01203832
0.01204228
0.01204316
0.01204472
0.01204671
0.0120499
0.01205465
0.01203814
0.01204363
0.01204472
0.01204646
0.01204946
0.01205413
0.0120619
0.012039
0.01204515
0.01204488
0.01204841
0.01205185
0.01205854
0.01207008
0.0120391
0.0120421
0.01204253
0.01204007
0.01204341
0.01204663
0.01205589
0.001820863
0.001650961
0.001670432
0.001673216
0.001673477
0.002094412
0.01203538
0.01203569
0.01203575
0.01203585
0.01203624
0.01203708
0.002090083
0.0009831811
0.0009985706
0.001004134
0.001005009
0.00100561
0.01204189
0.01203723
0.01203653
0.01203655
0.01203599
0.01203644
0.01203652
0.01203794
0.0120375
0.01203746
0.01203745
0.01203745
0.01203745
0.01203747
0.01203778
0.01203747
0.01203746
0.01203747
0.01203747
0.01203748
0.0120375
0.01203777
0.01203749
0.01203748
0.01203749
0.0120375
0.01203752
0.01203754
0.01203777
0.01203751
0.01203752
0.01203753
0.01203755
0.01203759
0.01203762
0.01203777
0.01203753
0.01203756
0.01203759
0.01203763
0.01203769
0.01203775
0.01203778
0.01203758
0.01203762
0.01203767
0.01203774
0.01203783
0.01203794
0.0120378
0.01203765
0.01203772
0.0120378
0.01203791
0.01203805
0.01203822
0.01203783
0.01203778
0.01203787
0.012038
0.01203816
0.01203837
0.01203862
0.0120379
0.01203797
0.01203811
0.01203829
0.01203853
0.01203883
0.0120392
0.01203802
0.01203827
0.01203847
0.01203873
0.01203906
0.0120395
0.01204004
0.01203819
0.01203872
0.01203898
0.01203935
0.01203982
0.01204046
0.01204125
0.01203845
0.01203933
0.01203968
0.01204021
0.01204088
0.01204182
0.01204302
0.0120388
0.01204014
0.01204061
0.01204135
0.01204232
0.01204371
0.01204557
0.0120392
0.01204115
0.01204177
0.01204281
0.01204422
0.01204631
0.01204926
0.01203977
0.01204225
0.0120431
0.01204458
0.01204657
0.01204969
0.01205434
0.0120401
0.01204351
0.01204459
0.01204629
0.01204921
0.01205374
0.01206126
0.01204101
0.01204523
0.01204498
0.01204825
0.01205176
0.01205838
0.01206972
0.0120391
0.01204174
0.01204286
0.01204367
0.01204674
0.01205148
0.01206064
0.001897951
0.001820907
0.001836482
0.001839107
0.001839818
0.002085085
0.01203543
0.01203571
0.01203582
0.01203595
0.01203635
0.01203718
0.002075846
0.00212426
0.002192564
0.002201407
0.00219312
0.002196614
0.002203059
0.01204053
0.01203675
0.01203659
0.01203658
0.01203655
0.01203649
0.01203655
0.01204071
0.01203676
0.0120366
0.01203657
0.01203657
0.01203656
0.01203657
0.01204115
0.01203676
0.0120366
0.01203658
0.01203658
0.01203659
0.01203659
0.01204074
0.01203676
0.01203662
0.0120366
0.01203661
0.01203663
0.01203665
0.01204074
0.01203679
0.01203664
0.01203664
0.01203665
0.01203669
0.01203672
0.01204069
0.01203683
0.01203667
0.01203669
0.01203672
0.01203679
0.01203685
0.01204066
0.01203692
0.01203673
0.01203678
0.01203683
0.01203693
0.01203704
0.01204061
0.01203704
0.01203682
0.0120369
0.01203699
0.01203715
0.01203731
0.01204056
0.01203716
0.01203697
0.0120371
0.01203724
0.01203747
0.01203771
0.01204094
0.01203737
0.0120372
0.01203741
0.0120376
0.01203793
0.01203828
0.01204033
0.01203768
0.01203754
0.01203784
0.01203813
0.0120386
0.01203909
0.01204025
0.01203813
0.01203806
0.01203846
0.01203889
0.01203955
0.01204027
0.01203985
0.01203874
0.01203876
0.01203933
0.01203996
0.01204091
0.01204204
0.0120396
0.01203952
0.01203972
0.01204048
0.01204141
0.01204281
0.0120446
0.01203957
0.0120405
0.01204091
0.01204196
0.01204332
0.01204542
0.01204834
0.01203939
0.0120417
0.01204229
0.01204375
0.01204569
0.01204885
0.01205348
0.01203852
0.01204285
0.01204376
0.01204563
0.0120484
0.01205295
0.01206027
0.01203854
0.01204432
0.01204497
0.01204729
0.01205084
0.01205707
0.01206824
0.01204278
0.01204067
0.01204344
0.01204396
0.01204531
0.01205115
0.01206163
0.01207873
0.002067446
0.01203556
0.01203565
0.01203573
0.01203594
0.0120364
0.01203728
0.00471358
0.004842927
0.004851956
0.004852435
0.004687928
0.004685575
0.004852376
0.01204483
0.0009438999
0.0009645962
0.0009714918
0.0009732529
0.0009742282
0.0009738558
0.01201112
0.0009650625
0.001006188
0.00101931
0.001022823
0.001023834
0.00102404
0.01204791
0.0009716382
0.001019268
0.001035982
0.00104068
0.001042087
0.00104244
0.01204626
0.0009731861
0.001022762
0.001040715
0.001046016
0.001047672
0.001048133
0.01204616
0.000973625
0.001023794
0.001042208
0.001047794
0.001049603
0.001050133
0.01204604
0.0009737629
0.001024153
0.001042763
0.001048491
0.001050389
0.001050969
0.01204585
0.0009737843
0.001024268
0.001042966
0.00104877
0.001050726
0.001051347
0.01204582
0.0009737692
0.001024288
0.001043022
0.001048865
0.001050865
0.001051529
0.01204643
0.0009739167
0.001024273
0.001043004
0.001048863
0.0010509
0.001051609
0.01205596
0.0009743196
0.001024198
0.001042913
0.001048786
0.001050861
0.001051618
0.01204885
0.0009739523
0.001024032
0.001042717
0.001048617
0.001050728
0.001051544
0.0120511
0.000973763
0.001023737
0.001042385
0.0010483
0.001050446
0.001051324
0.0120455
0.0009732086
0.001023253
0.001041827
0.001047712
0.001049878
0.001050825
0.01204543
0.0009725779
0.001022431
0.001040781
0.001046546
0.001048697
0.001049711
0.01205106
0.0009719846
0.001020744
0.001038528
0.00104399
0.001046061
0.00104712
0.01204423
0.000970006
0.001016041
0.001032436
0.001037326
0.001039247
0.00104028
0.01204642
0.0009609216
0.001000344
0.001013144
0.001017281
0.001019114
0.001019802
0.01203801
0.0009331404
0.0009525495
0.0009601337
0.0009649404
0.0009674357
0.0009665278
0.01203974
0.01188289
0.01177392
0.01165251
0.01152557
0.01142874
0.0112654
0.01101524
0.0046995
0.01203447
0.01203464
0.01203351
0.01203379
0.01203034
0.01203087
0.01203357
0.001934074
0.004908148
0.0120642
0.01203805
0.001944727
0.002001561
0.004713645
0.004845001
0.01196718
0.01202385
0.002014057
0.002021274
0.004842874
0.004856519
0.01197294
0.01201738
0.002022505
0.002023377
0.004851951
0.004860174
0.01196707
0.0120168
0.00202347
0.002023687
0.004854694
0.00486089
0.01196779
0.01201777
0.002023615
0.002023731
0.004855321
0.004861011
0.0119668
0.01201799
0.002023594
0.002023633
0.004855393
0.004860749
0.01196573
0.0120182
0.002023403
0.004855043
0.01196382
0.001945474
0.002001213
0.01204464
0.01125951
0.01204765
0.01125624
0.002014182
0.002020927
0.01204491
0.01125485
0.01204616
0.01125501
0.00202231
0.002023014
0.01204618
0.01125613
0.01204631
0.01125645
0.002023144
0.00202323
0.01204619
0.01125882
0.01204627
0.01125902
0.002023158
0.002023192
0.01204608
0.0112633
0.01204622
0.01126335
0.002023027
0.002023055
0.01204595
0.01126991
0.01204619
0.01126992
0.002022797
0.002022829
0.01204576
0.01127948
0.01204614
0.01127939
0.002022468
0.002022509
0.01204577
0.01129274
0.01204607
0.0112926
0.002022018
0.002022078
0.01204645
0.01131081
0.012046
0.01131041
0.002021427
0.002021504
0.01204666
0.01133423
0.01204592
0.01133385
0.002020677
0.00202077
0.01204681
0.01136449
0.01204585
0.01136419
0.002019735
0.002019839
0.012047
0.01140308
0.01204575
0.01140284
0.002018575
0.002018685
0.01204726
0.01145105
0.01204574
0.01145109
0.002017168
0.00201726
0.01204764
0.01150941
0.01204582
0.0115096
0.002015463
0.002015479
0.01204813
0.01157943
0.0120457
0.0115792
0.002013321
0.002012635
0.01204863
0.01166071
0.01204509
0.01165981
0.002009077
0.002002069
0.0120493
0.01175306
0.01204357
0.01175284
0.001986374
0.001928858
0.01204583
0.01185374
0.01204031
0.01185521
0.001917174
0.003998836
0.0120416
0.01204686
0.01203974
0.009099188
0.004171903
0.0057944
0.01203352
0.00916813
0.00420442
0.004234241
0.01202947
0.01201356
0.009239231
0.00423595
0.004242718
0.01202953
0.01200394
0.009314015
0.004242829
0.00424773
0.01202923
0.01199646
0.009395909
0.004247571
0.004252376
0.01202833
0.01198816
0.009488585
0.004252179
0.004257496
0.01202761
0.01197913
0.009597854
0.004257314
0.004263823
0.0120274
0.01196826
0.004263577
0.0120279
0.001879658
0.00469624
0.01203376
0.00468359
0.01204811
0.01203888
0.00478929
0.01205412
0.01203953
0.005660972
0.01202971
0.005843781
0.01203015
0.004788872
0.01204737
0.01203752
0.00479724
0.01204728
0.01203748
0.005846862
0.01202985
0.005854356
0.01202978
0.004797699
0.0120472
0.01203688
0.00479993
0.01204724
0.01203684
0.005855403
0.01202965
0.005857541
0.01202973
0.004799261
0.01204715
0.0120368
0.004799334
0.01204724
0.0120368
0.005857691
0.01202971
0.005857924
0.01202972
0.004799475
0.01204715
0.01203681
0.004799301
0.01204724
0.01203681
0.005857924
0.01202972
0.005857704
0.01202971
0.004798281
0.01204716
0.01203686
0.004796231
0.01204728
0.01203688
0.005857536
0.01202973
0.005855409
0.01202966
0.004796036
0.01204719
0.01203743
0.004790791
0.01204746
0.01203752
0.005854344
0.01202978
0.005846843
0.01202985
0.004790933
0.01205413
0.01203957
0.004683229
0.01204823
0.01203889
0.00584362
0.01203015
0.00565436
0.01202972
0.004908321
0.01206453
0.01203828
0.001934047
0.004845052
0.01196829
0.01202387
0.001944806
0.002001593
0.004856539
0.01197281
0.01201741
0.00201407
0.00202127
0.004859496
0.0119673
0.0120168
0.002022503
0.002023361
0.004791473
0.01196889
0.01201779
0.002023412
0.002023444
0.004508471
0.01196966
0.01201635
0.002022245
0.002022169
0.004852663
0.0119625
0.01201818
0.002023248
0.002023577
0.01196337
0.002023385
0.01125833
0.01205404
0.01124661
0.001946489
0.002009727
0.01126478
0.01204958
0.01124395
0.002030505
0.002029567
0.01125433
0.01204624
0.01125673
0.002023404
0.002023071
0.0112589
0.01204626
0.01125916
0.002023133
0.002023213
0.01126337
0.01204622
0.01126342
0.002023141
0.002023176
0.01126992
0.01204619
0.01126994
0.002023011
0.002023035
0.01127948
0.01204614
0.0112794
0.002022785
0.002022815
0.01129273
0.0120461
0.01129271
0.002022465
0.002022482
0.01131061
0.01204373
0.01130752
0.00202195
0.002021752
0.01132671
0.01204432
0.01132569
0.002019762
0.002020891
0.01135977
0.01204523
0.01135701
0.002027238
0.002030874
0.01144649
0.01204457
0.011447
0.002024916
0.002027514
0.01150741
0.01204523
0.01150761
0.002020388
0.002020448
0.01165459
0.01204788
0.01165512
0.002011108
0.002010451
0.01174913
0.01204243
0.0117484
0.002010441
0.002016244
0.01185359
0.01203733
0.01186003
0.002004517
0.0019449
0.01204725
0.012039
0.001924504
0.003998693
0.005786012
0.01203356
0.009092907
0.004165056
0.01202952
0.01201333
0.009116515
0.009567033
0.004155494
0.00422506
0.01202954
0.01200394
0.009342214
0.00954445
0.004234287
0.004242643
0.0120292
0.01199632
0.009414718
0.009498407
0.004242711
0.004237845
0.01202831
0.01198858
0.00995967
0.004194159
0.004199188
0.01202729
0.01197955
0.004242281
0.004257381
0.01202747
0.01196819
0.009586178
0.004257309
0.004260892
0.012027
0.009621208
0.004238893
0.01203371
0.001880441
0.01201424
0.003915103
0.01078605
0.004090328
0.01078016
0.004111534
0.01079909
0.004132919
0.01079383
0.004143717
0.01080108
0.004136007
0.01079595
0.004144974
0.01080535
0.004135673
0.01080027
0.00414471
0.01081221
0.00413516
0.01080726
0.004144228
0.01082234
0.004134439
0.01081745
0.004143508
0.01083673
0.004133409
0.01083197
0.004142476
0.01085659
0.004131988
0.01085208
0.004141089
0.01088344
0.004130078
0.01087918
0.004139258
0.01091889
0.004127578
0.01091497
0.00413677
0.01096485
0.004124367
0.01096135
0.004133575
0.0110234
0.004120334
0.01102036
0.004129557
0.01109677
0.004115359
0.01109473
0.004124607
0.01118688
0.004109305
0.01118568
0.004118575
0.01129502
0.004102067
0.01129503
0.004111361
0.01142215
0.004093576
0.01142288
0.004102791
0.01156957
0.004083679
0.01156833
0.004092215
0.01172873
0.004067874
0.01172448
0.004060357
0.01187489
0.004002763
0.0118671
0.003909039
0.001986462
0.004018864
0.004035198
0.01188241
0.01188123
0.01204218
0.0120453
0.002009996
0.004042775
0.004050042
0.01177302
0.01177518
0.01204456
0.01204908
0.002015177
0.004057325
0.004064542
0.01165384
0.01166044
0.01204659
0.0120535
0.002018671
0.004072772
0.004080482
0.01152559
0.01153559
0.0120492
0.01205966
0.002022422
0.004089927
0.004098914
0.01138137
0.01139649
0.01205275
0.01207018
0.002026698
0.00411032
0.004121432
0.01121612
0.01124041
0.01205845
0.01209125
0.004135715
0.01102154
0.01206916
0.01321738
0.008942947
0.01203948
0.00921564
0.01683195
0.009137004
0.00904137
0.0120453
0.01205166
0.01677118
0.009049897
0.01693049
0.00920928
0.00906618
0.01205209
0.01205762
0.0168946
0.009074411
0.01702956
0.009282611
0.00909313
0.01205812
0.01206345
0.01699779
0.009099453
0.01713166
0.009361322
0.009120167
0.01206301
0.01206824
0.01710239
0.009125029
0.01724558
0.009449194
0.009149442
0.01206664
0.01207124
0.01721527
0.009153096
0.01738276
0.009550518
0.009183349
0.01206866
0.01207164
0.01734917
0.009186329
0.009225994
0.01206925
0.01751919
0.01202178
0.003883596
0.01202489
0.003991649
0.01195895
0.01196062
0.01204778
0.01203871
0.01204281
0.01204847
0.01203933
0.01864566
0.01204322
0.01861627
0.01204088
0.01195687
0.01195772
0.01204059
0.01203968
0.0120391
0.01204136
0.01203981
0.01864773
0.01204054
0.01864761
0.01204042
0.01195654
0.01195635
0.0120415
0.0120396
0.0120391
0.01204174
0.01203957
0.01864587
0.01204045
0.01864742
0.01204012
0.01195638
0.01195609
0.01204198
0.01203952
0.01203915
0.01204205
0.01203953
0.01864671
0.01204007
0.01864662
0.01204006
0.01195644
0.01195612
0.01204203
0.01203953
0.01203915
0.01204199
0.01203952
0.01864665
0.01204006
0.01864654
0.01204006
0.01195633
0.01195613
0.01204173
0.01203957
0.01203905
0.01204152
0.0120396
0.01864672
0.01204009
0.01864611
0.01204017
0.01195645
0.01195618
0.01204134
0.01203981
0.012039
0.0120406
0.01203968
0.01864862
0.01204025
0.01864814
0.01204056
0.01195724
0.01195628
0.01204827
0.01203933
0.01204225
0.01204766
0.0120387
0.01864643
0.01204175
0.01864705
0.01204181
0.01198932
0.01196495
0.01139327
0.012044
0.01139354
0.00203424
0.002033589
0.01157525
0.01205771
0.01157387
0.002023879
0.00201645
0.01188167
0.01204236
0.01204387
0.001929362
0.001983469
0.004013876
0.003386875
0.01177475
0.01204528
0.01204819
0.002001073
0.002008331
0.003637407
0.003467435
0.0116577
0.01204751
0.01205746
0.002014475
0.002019758
0.003646295
0.003699436
0.01154664
0.01204944
0.01203543
0.002038212
0.002056484
0.003713237
0.004272068
0.01141762
0.01202835
0.01202831
0.002066833
0.002065163
0.004273256
0.004271673
0.01124231
0.0120275
0.01214279
0.002059826
0.002038302
0.004259379
0.003730036
0.01207451
0.002034812
0.00413874
0.01793789
0.01204065
0.01858453
0.01204226
0.01077329
0.004071844
0.0107624
0.003956383
0.01198938
0.01196518
0.0107855
0.004130354
0.0107852
0.004123419
0.01079806
0.004136007
0.01079319
0.004144546
0.01080221
0.004135929
0.01079679
0.004144973
0.01080714
0.004135611
0.01080193
0.004144649
0.01081438
0.004135096
0.01080957
0.004144152
0.01082514
0.004134336
0.01082069
0.004143409
0.01084046
0.004133254
0.01083646
0.004142334
0.01086156
0.004131768
0.01085814
0.004140833
0.01088991
0.004129776
0.0108872
0.004138825
0.01092723
0.004127161
0.01092539
0.004136195
0.01097529
0.004123803
0.01097466
0.004132824
0.011036
0.004119594
0.01103699
0.004128592
0.01111126
0.004114391
0.0111144
0.004123271
0.01120307
0.00410807
0.01120897
0.004116939
0.01131335
0.004100548
0.01132218
0.004109392
0.01144291
0.00409161
0.01145428
0.004100447
0.01159157
0.004078064
0.01160453
0.004089003
0.01175625
0.004025251
0.01176546
0.004047136
0.01204555
0.003838925
0.01204318
0.003937681
0.01626999
0.009042472
0.009044664
0.01204952
0.01205354
0.01673912
0.009079501
0.01202768
0.003919361
0.0120285
0.003836853
0.01794667
0.01204098
0.01204265
0.01857994
0.01683858
0.009158002
0.009064576
0.01206395
0.01204719
0.01688531
0.009051357
0.01694019
0.009229597
0.009090258
0.01207211
0.01205348
0.01698491
0.009077033
0.01704252
0.009303746
0.009116076
0.01207853
0.01205972
0.0170866
0.009103432
0.01714905
0.009384208
0.009143587
0.01208628
0.01206435
0.01719529
0.009130461
0.01726939
0.009474661
0.009175098
0.01209491
0.01206619
0.01732161
0.009160473
0.01741678
0.009579818
0.009214107
0.0121034
0.01206538
0.01747892
0.009196699
0.01195714
0.01195611
0.01864646
0.01204172
0.01204224
0.01864711
0.01195638
0.01195641
0.0186487
0.01204025
0.01204056
0.0186477
0.0119563
0.01195617
0.01864625
0.01204009
0.01204017
0.01864588
0.01195636
0.0119561
0.01864652
0.01204006
0.01204006
0.01864665
0.01195633
0.01195617
0.01864668
0.01204007
0.01204006
0.01864704
0.01195634
0.01195622
0.0186462
0.01204044
0.01204011
0.01864732
0.011957
0.01195766
0.01864784
0.01204053
0.01204041
0.01864796
0.01195897
0.0119605
0.01864562
0.01204133
0.01204082
0.01862107
0.01201459
0.00391326
0.01190788
0.004074801
0.01197806
0.003954498
0.01077367
0.004071045
0.0107649
0.003956045
0.01200095
0.004091498
0.01187518
0.004108948
0.01201359
0.004135956
0.01197363
0.004119653
0.01200531
0.004136176
0.01187324
0.004139912
0.01202398
0.004143798
0.01197295
0.004141493
0.01200693
0.004140549
0.01186754
0.004141905
0.01202368
0.004144583
0.01197285
0.00414286
0.01200793
0.004141103
0.01186753
0.004142293
0.01202313
0.004142921
0.01198125
0.004142741
0.01193371
0.004136532
0.01185016
0.004168749
0.01203755
0.004172
0.004880476
0.01199118
0.004262399
0.01200576
0.004136101
0.01186694
0.004140585
0.01202172
0.004144715
0.01197306
0.004142461
0.004140993
0.01186344
0.01079367
0.004089333
0.01078179
0.004111502
0.01076258
0.01193112
0.004189736
0.01072761
0.004141404
0.0107045
0.0119001
0.004212984
0.01069494
0.01190318
0.004224304
0.01074023
0.004154008
0.01193427
0.01077037
0.004204439
0.01080276
0.004135903
0.01080524
0.004144071
0.01080333
0.004135448
0.01079657
0.004144369
0.01080524
0.004135208
0.0108003
0.004144262
0.01080719
0.004135146
0.01080194
0.004144179
0.01081225
0.00413469
0.01080729
0.004143774
0.01081443
0.004134643
0.01080963
0.004143717
0.01082235
0.004133988
0.01081747
0.004143072
0.01082515
0.004133883
0.01082072
0.004142973
0.01083674
0.004132959
0.01083197
0.00414204
0.01084047
0.004132799
0.01083649
0.004141895
0.01085658
0.004131536
0.01085205
0.004140646
0.01086162
0.004131272
0.0108585
0.004140385
0.0108854
0.004129531
0.01087967
0.004138318
0.01089161
0.004123939
0.0109001
0.004136804
0.01082647
0.004154457
0.01087142
0.01195593
0.004255636
0.01091165
0.004140172
0.01094778
0.01194434
0.004188149
0.0109167
0.004161692
0.01194224
0.01092953
0.004189108
0.01156831
0.004107786
0.01155147
0.00410457
0.01156197
0.01203032
0.004154581
0.01202269
0.01156768
0.004144613
0.01204578
0.003840388
0.01204291
0.003935432
0.01321411
0.00895548
0.0120394
0.009214878
0.01627236
0.01204867
0.009045892
0.009053708
0.01205397
0.01709655
0.009079062
0.01202662
0.007016265
0.003949741
0.01202845
0.003851892
0.01204544
0.009280176
0.0091061