/*--------------------------------*- C++ -*----------------------------------*\
  =========                 |
  \\      /  F ield         | OpenFOAM: The Open Source CFD Toolbox
   \\    /   O peration     | Website:  https://openfoam.org
    \\  /    A nd           | Version:  7
     \\/     M anipulation  |
\*---------------------------------------------------------------------------*/
FoamFile
{
    version     2.0;
    format      ascii;
    class       volScalarField;
    location    "0.02";
    object      nut;
}
// * * * * * * * * * * * * * * * * * * * * * * * * * * * * * * * * * * * * * //

dimensions      [0 2 -1 0 0 0 0];

internalField   nonuniform List<scalar> 
109978
(
0.000656627
0.0006387177
0.0006371806
0.0006370147
0.0006370304
0.0006372201
0.0006387352
0.0006067241
0.0006036727
0.0006033038
0.0006033223
0.0006035841
0.0006372015
0.0006036759
0.0006002092
0.0005997382
0.0005997501
0.0006000636
0.00063703
0.0006032892
0.0005997136
0.0005991977
0.0005992026
0.0005995352
0.0006370001
0.0006032119
0.0005996019
0.0005990657
0.0005990652
0.000599403
0.0006369957
0.0006031923
0.0005995712
0.000599027
0.0005990219
0.000599361
0.0006369976
0.0006031902
0.0005995625
0.0005990141
0.0005990077
0.0005993475
0.0006370022
0.0006031925
0.0005995633
0.0005990138
0.000599006
0.0005993458
0.0006370081
0.0006031976
0.0005995675
0.0005990172
0.000599009
0.0005993487
0.000637015
0.0006032041
0.0005995737
0.000599023
0.0005990146
0.0005993543
0.0006370228
0.0006032117
0.000599581
0.0005990303
0.0005990213
0.0005993614
0.0006370314
0.0006032202
0.0005995895
0.0005990386
0.0005990296
0.0005993697
0.0006370409
0.0006032296
0.0005995988
0.0005990479
0.0005990389
0.0005993789
0.0006370513
0.0006032399
0.0005996091
0.0005990582
0.0005990491
0.0005993891
0.0006370625
0.0006032511
0.0005996203
0.0005990694
0.0005990603
0.0005994003
0.0006370747
0.0006032634
0.0005996326
0.0005990818
0.0005990727
0.0005994127
0.0006370879
0.0006032769
0.0005996464
0.0005990957
0.0005990871
0.0005994266
0.0006371023
0.000603292
0.0005996622
0.0005991121
0.0005991037
0.0005994431
0.0006371186
0.0006033105
0.0005996825
0.0005991337
0.0005991258
0.0005994652
0.0006371392
0.000603338
0.0005997154
0.0005991697
0.0005991631
0.0005995024
0.0006371764
0.0006034001
0.0005997936
0.000599256
0.000599252
0.0005995899
0.0006372812
0.0006035775
0.0006000139
0.0005994947
0.0005994911
0.0005998166
0.0001011054
0.0006039417
0.0006004449
0.0005999535
0.000599938
0.0006002129
0.0005980077
0.000597375
0.0005974262
0.0005974425
0.0005974443
0.0005974699
0.0001010885
0.000101088
0.000101088
0.000101088
0.000101088
0.000101088
0.0001010884
0.000101088
0.000101088
0.000101088
0.000101088
0.000101088
0.0001010884
0.000101088
0.000101088
0.000101088
0.000101088
0.000101088
0.0001010884
0.000101088
0.000101088
0.000101088
0.000101088
0.000101088
0.0001010884
0.000101088
0.000101088
0.000101088
0.000101088
0.000101088
0.0001010884
0.000101088
0.000101088
0.000101088
0.000101088
0.000101088
0.0001010884
0.000101088
0.000101088
0.000101088
0.000101088
0.000101088
0.0001010884
0.000101088
0.000101088
0.000101088
0.000101088
0.000101088
0.0001010885
0.000101088
0.000101088
0.000101088
0.000101088
0.000101088
0.0001010885
0.000101088
0.000101088
0.000101088
0.000101088
0.000101088
0.0001010885
0.000101088
0.000101088
0.000101088
0.000101088
0.000101088
0.0001010885
0.000101088
0.000101088
0.000101088
0.000101088
0.000101088
0.0001010885
0.000101088
0.000101088
0.000101088
0.000101088
0.000101088
0.0001010885
0.000101088
0.000101088
0.000101088
0.000101088
0.000101088
0.0001010885
0.000101088
0.000101088
0.000101088
0.000101088
0.0001010881
0.0001010885
0.000101088
0.0001010881
0.0001010881
0.0001010881
0.0001010881
0.0001010886
0.0001010881
0.0001010881
0.0001010881
0.0001010881
0.0001010881
0.0001010886
0.0001010881
0.0001010881
0.0001010881
0.0001010881
0.0001010881
0.0001010886
0.0001010881
0.0001010881
0.0001010881
0.0001010881
0.0001010881
0.0001010886
0.0001010881
0.0001010881
0.0001010881
0.0001010881
0.0001010881
0.0001010887
0.0001010881
0.0001010881
0.0001010881
0.0001010881
0.0001010881
0.0001010887
0.0001010881
0.0001010881
0.0001010881
0.0001010882
0.0001010882
0.0001010888
0.0001010882
0.0001010882
0.0001010882
0.0001010882
0.0001010882
0.0005990605
0.0005976898
0.0005977976
0.0005978507
0.0005978526
0.0005978389
0.0001010884
0.000101088
0.000101088
0.000101088
0.000101088
0.000101088
0.0001010883
0.000101088
0.000101088
0.000101088
0.000101088
0.000101088
0.0001010883
0.000101088
0.000101088
0.000101088
0.000101088
0.000101088
0.0001010883
0.000101088
0.000101088
0.000101088
0.000101088
0.000101088
0.0001010883
0.000101088
0.000101088
0.000101088
0.000101088
0.000101088
0.0001010883
0.000101088
0.000101088
0.000101088
0.000101088
0.000101088
0.0001010883
0.000101088
0.000101088
0.000101088
0.000101088
0.000101088
0.0001010883
0.000101088
0.000101088
0.000101088
0.000101088
0.000101088
0.0001010883
0.000101088
0.000101088
0.000101088
0.000101088
0.000101088
0.0001010883
0.000101088
0.000101088
0.000101088
0.000101088
0.000101088
0.0001010883
0.000101088
0.000101088
0.000101088
0.000101088
0.000101088
0.0001010883
0.000101088
0.000101088
0.000101088
0.000101088
0.000101088
0.0001010883
0.000101088
0.000101088
0.000101088
0.000101088
0.000101088
0.0001010884
0.000101088
0.000101088
0.000101088
0.000101088
0.000101088
0.0001010884
0.000101088
0.000101088
0.000101088
0.000101088
0.000101088
0.0001010884
0.000101088
0.000101088
0.000101088
0.000101088
0.000101088
0.0001010884
0.000101088
0.000101088
0.000101088
0.0001010881
0.0001010881
0.0001010884
0.0001010881
0.0001010881
0.0001010881
0.0001010881
0.0001010881
0.0001010884
0.0001010881
0.0001010881
0.0001010881
0.0001010881
0.0001010881
0.0001010884
0.0001010881
0.0001010881
0.0001010881
0.0001010881
0.0001010881
0.0001010884
0.0001010881
0.0001010881
0.0001010881
0.0001010881
0.0001010881
0.0001010885
0.0001010881
0.0001010881
0.0001010881
0.0001010881
0.0001010881
0.0001010885
0.0001010881
0.0001010881
0.0001010881
0.0001010882
0.0001010882
0.0005991959
0.0005978748
0.0005980044
0.0005980734
0.0005980745
0.0005980426
0.0001010884
0.000101088
0.000101088
0.000101088
0.000101088
0.000101088
0.0001010883
0.000101088
0.000101088
0.000101088
0.000101088
0.000101088
0.0001010883
0.000101088
0.000101088
0.000101088
0.000101088
0.000101088
0.0001010883
0.000101088
0.000101088
0.000101088
0.000101088
0.000101088
0.0001010883
0.000101088
0.000101088
0.000101088
0.000101088
0.000101088
0.0001010883
0.000101088
0.000101088
0.000101088
0.000101088
0.000101088
0.0001010883
0.000101088
0.000101088
0.000101088
0.000101088
0.000101088
0.0001010883
0.000101088
0.000101088
0.000101088
0.000101088
0.000101088
0.0001010883
0.000101088
0.000101088
0.000101088
0.000101088
0.000101088
0.0001010883
0.000101088
0.000101088
0.000101088
0.000101088
0.000101088
0.0001010883
0.000101088
0.000101088
0.000101088
0.000101088
0.000101088
0.0001010883
0.000101088
0.000101088
0.000101088
0.000101088
0.000101088
0.0001010883
0.000101088
0.000101088
0.000101088
0.000101088
0.000101088
0.0001010884
0.000101088
0.000101088
0.000101088
0.000101088
0.000101088
0.0001010884
0.000101088
0.000101088
0.000101088
0.000101088
0.000101088
0.0001010884
0.000101088
0.000101088
0.000101088
0.000101088
0.000101088
0.0001010884
0.000101088
0.000101088
0.000101088
0.0001010881
0.0001010881
0.0001010884
0.0001010881
0.0001010881
0.0001010881
0.0001010881
0.0001010881
0.0001010884
0.0001010881
0.0001010881
0.0001010881
0.0001010881
0.0001010881
0.0001010884
0.0001010881
0.0001010881
0.0001010881
0.0001010881
0.0001010881
0.0001010884
0.0001010881
0.0001010881
0.0001010881
0.0001010881
0.0001010881
0.0001010885
0.0001010881
0.0001010881
0.0001010881
0.0001010881
0.0001010881
0.0001010885
0.0001010881
0.0001010881
0.0001010881
0.0001010882
0.0001010882
0.0005992263
0.0005979267
0.0005980685
0.000598142
0.0005981438
0.0005981066
0.0001010884
0.000101088
0.000101088
0.000101088
0.000101088
0.000101088
0.0001010883
0.0001010879
0.0001010879
0.000101088
0.000101088
0.000101088
0.0001010883
0.000101088
0.000101088
0.000101088
0.000101088
0.000101088
0.0001010883
0.000101088
0.000101088
0.000101088
0.000101088
0.000101088
0.0001010883
0.000101088
0.000101088
0.000101088
0.000101088
0.000101088
0.0001010883
0.000101088
0.000101088
0.000101088
0.000101088
0.000101088
0.0001010883
0.000101088
0.000101088
0.000101088
0.000101088
0.000101088
0.0001010883
0.000101088
0.000101088
0.000101088
0.000101088
0.000101088
0.0001010883
0.000101088
0.000101088
0.000101088
0.000101088
0.000101088
0.0001010883
0.000101088
0.000101088
0.000101088
0.000101088
0.000101088
0.0001010883
0.000101088
0.000101088
0.000101088
0.000101088
0.000101088
0.0001010883
0.000101088
0.000101088
0.000101088
0.000101088
0.000101088
0.0001010883
0.000101088
0.000101088
0.000101088
0.000101088
0.000101088
0.0001010884
0.000101088
0.000101088
0.000101088
0.000101088
0.000101088
0.0001010884
0.000101088
0.000101088
0.000101088
0.000101088
0.000101088
0.0001010884
0.000101088
0.000101088
0.000101088
0.000101088
0.000101088
0.0001010884
0.000101088
0.000101088
0.000101088
0.0001010881
0.0001010881
0.0001010884
0.0001010881
0.0001010881
0.0001010881
0.0001010881
0.0001010881
0.0001010884
0.0001010881
0.0001010881
0.0001010881
0.0001010881
0.0001010881
0.0001010884
0.0001010881
0.0001010881
0.0001010881
0.0001010881
0.0001010881
0.0001010884
0.0001010881
0.0001010881
0.0001010881
0.0001010881
0.0001010881
0.0001010885
0.0001010881
0.0001010881
0.0001010881
0.0001010881
0.0001010881
0.0001010885
0.0001010881
0.0001010881
0.0001010881
0.0001010882
0.0001010882
0.0005992204
0.0005979293
0.0005980709
0.0005981444
0.0005981472
0.0005981091
0.0001010884
0.000101088
0.000101088
0.000101088
0.000101088
0.000101088
0.0001010883
0.0001010879
0.0001010879
0.000101088
0.000101088
0.000101088
0.0001010883
0.000101088
0.000101088
0.000101088
0.000101088
0.000101088
0.0001010883
0.000101088
0.000101088
0.000101088
0.000101088
0.000101088
0.0001010883
0.000101088
0.000101088
0.000101088
0.000101088
0.000101088
0.0001010883
0.000101088
0.000101088
0.000101088
0.000101088
0.000101088
0.0001010883
0.000101088
0.000101088
0.000101088
0.000101088
0.000101088
0.0001010883
0.000101088
0.000101088
0.000101088
0.000101088
0.000101088
0.0001010883
0.000101088
0.000101088
0.000101088
0.000101088
0.000101088
0.0001010883
0.000101088
0.000101088
0.000101088
0.000101088
0.000101088
0.0001010883
0.000101088
0.000101088
0.000101088
0.000101088
0.000101088
0.0001010883
0.000101088
0.000101088
0.000101088
0.000101088
0.000101088
0.0001010883
0.000101088
0.000101088
0.000101088
0.000101088
0.000101088
0.0001010884
0.000101088
0.000101088
0.000101088
0.000101088
0.000101088
0.0001010884
0.000101088
0.000101088
0.000101088
0.000101088
0.000101088
0.0001010884
0.000101088
0.000101088
0.000101088
0.000101088
0.000101088
0.0001010884
0.000101088
0.000101088
0.000101088
0.0001010881
0.0001010881
0.0001010884
0.0001010881
0.0001010881
0.0001010881
0.0001010881
0.0001010881
0.0001010884
0.0001010881
0.0001010881
0.0001010881
0.0001010881
0.0001010881
0.0001010884
0.0001010881
0.0001010881
0.0001010881
0.0001010881
0.0001010881
0.0001010884
0.0001010881
0.0001010881
0.0001010881
0.0001010881
0.0001010881
0.0001010885
0.0001010881
0.0001010881
0.0001010881
0.0001010881
0.0001010881
0.0001010885
0.0001010881
0.0001010881
0.0001010881
0.0001010882
0.0001010882
0.0005992184
0.0005979055
0.0005980397
0.0005981101
0.0005981104
0.000598075
0.0001010884
0.000101088
0.000101088
0.000101088
0.000101088
0.000101088
0.0001010883
0.000101088
0.000101088
0.000101088
0.000101088
0.000101088
0.0001010883
0.000101088
0.000101088
0.000101088
0.000101088
0.000101088
0.0001010883
0.000101088
0.000101088
0.000101088
0.000101088
0.000101088
0.0001010883
0.000101088
0.000101088
0.000101088
0.000101088
0.000101088
0.0001010883
0.000101088
0.000101088
0.000101088
0.000101088
0.000101088
0.0001010883
0.000101088
0.000101088
0.000101088
0.000101088
0.000101088
0.0001010883
0.000101088
0.000101088
0.000101088
0.000101088
0.000101088
0.0001010883
0.000101088
0.000101088
0.000101088
0.000101088
0.000101088
0.0001010883
0.000101088
0.000101088
0.000101088
0.000101088
0.000101088
0.0001010883
0.000101088
0.000101088
0.000101088
0.000101088
0.000101088
0.0001010883
0.000101088
0.000101088
0.000101088
0.000101088
0.000101088
0.0001010883
0.000101088
0.000101088
0.000101088
0.000101088
0.000101088
0.0001010884
0.000101088
0.000101088
0.000101088
0.000101088
0.000101088
0.0001010884
0.000101088
0.000101088
0.000101088
0.000101088
0.000101088
0.0001010884
0.000101088
0.000101088
0.000101088
0.000101088
0.000101088
0.0001010884
0.000101088
0.000101088
0.000101088
0.0001010881
0.0001010881
0.0001010884
0.0001010881
0.0001010881
0.0001010881
0.0001010881
0.0001010881
0.0001010884
0.0001010881
0.0001010881
0.0001010881
0.0001010881
0.0001010881
0.0001010884
0.0001010881
0.0001010881
0.0001010881
0.0001010881
0.0001010881
0.0001010884
0.0001010881
0.0001010881
0.0001010881
0.0001010881
0.0001010881
0.0001010885
0.0001010881
0.0001010881
0.0001010881
0.0001010881
0.0001010881
0.0001010885
0.0001010881
0.0001010881
0.0001010881
0.0001010882
0.0001010882
0.0005991341
0.0005977522
0.0005978594
0.0005979196
0.0005979199
0.0005978946
0.0001010884
0.000101088
0.000101088
0.000101088
0.000101088
0.000101088
0.0001010883
0.000101088
0.000101088
0.000101088
0.000101088
0.000101088
0.0001010883
0.000101088
0.000101088
0.000101088
0.000101088
0.000101088
0.0001010883
0.000101088
0.000101088
0.000101088
0.000101088
0.000101088
0.0001010883
0.000101088
0.000101088
0.000101088
0.000101088
0.000101088
0.0001010883
0.000101088
0.000101088
0.000101088
0.000101088
0.000101088
0.0001010883
0.000101088
0.000101088
0.000101088
0.000101088
0.000101088
0.0001010883
0.000101088
0.000101088
0.000101088
0.000101088
0.000101088
0.0001010883
0.000101088
0.000101088
0.000101088
0.000101088
0.000101088
0.0001010883
0.000101088
0.000101088
0.000101088
0.000101088
0.000101088
0.0001010883
0.000101088
0.000101088
0.000101088
0.000101088
0.000101088
0.0001010883
0.000101088
0.000101088
0.000101088
0.000101088
0.000101088
0.0001010883
0.000101088
0.000101088
0.000101088
0.000101088
0.000101088
0.0001010884
0.000101088
0.000101088
0.000101088
0.000101088
0.000101088
0.0001010884
0.000101088
0.000101088
0.000101088
0.000101088
0.000101088
0.0001010884
0.000101088
0.000101088
0.000101088
0.000101088
0.000101088
0.0001010884
0.000101088
0.000101088
0.000101088
0.0001010881
0.0001010881
0.0001010884
0.0001010881
0.0001010881
0.0001010881
0.0001010881
0.0001010881
0.0001010884
0.0001010881
0.0001010881
0.0001010881
0.0001010881
0.0001010881
0.0001010884
0.0001010881
0.0001010881
0.0001010881
0.0001010881
0.0001010881
0.0001010884
0.0001010881
0.0001010881
0.0001010881
0.0001010881
0.0001010881
0.0001010885
0.0001010881
0.0001010881
0.0001010881
0.0001010881
0.0001010881
0.0001010885
0.0001010881
0.0001010881
0.0001010882
0.0001010882
0.0001010882
0.0005994376
0.0005985654
0.0005986731
0.0005987079
0.0005987099
0.000598715
0.0001010884
0.000101088
0.000101088
0.000101088
0.000101088
0.000101088
0.0001010883
0.000101088
0.000101088
0.000101088
0.000101088
0.000101088
0.0001010883
0.000101088
0.000101088
0.000101088
0.000101088
0.000101088
0.0001010883
0.000101088
0.000101088
0.000101088
0.000101088
0.000101088
0.0001010883
0.000101088
0.000101088
0.000101088
0.000101088
0.000101088
0.0001010883
0.000101088
0.000101088
0.000101088
0.000101088
0.000101088
0.0001010883
0.000101088
0.000101088
0.000101088
0.000101088
0.000101088
0.0001010883
0.000101088
0.000101088
0.000101088
0.000101088
0.000101088
0.0001010883
0.000101088
0.000101088
0.000101088
0.000101088
0.000101088
0.0001010883
0.000101088
0.000101088
0.000101088
0.000101088
0.000101088
0.0001010883
0.000101088
0.000101088
0.000101088
0.000101088
0.000101088
0.0001010884
0.000101088
0.000101088
0.000101088
0.000101088
0.000101088
0.0001010884
0.000101088
0.000101088
0.000101088
0.000101088
0.000101088
0.0001010884
0.000101088
0.000101088
0.000101088
0.000101088
0.000101088
0.0001010884
0.000101088
0.000101088
0.000101088
0.000101088
0.0001010881
0.0001010884
0.000101088
0.0001010881
0.0001010881
0.0001010881
0.0001010881
0.0001010884
0.0001010881
0.0001010881
0.0001010881
0.0001010881
0.0001010881
0.0001010884
0.0001010881
0.0001010881
0.0001010881
0.0001010881
0.0001010881
0.0001010884
0.0001010881
0.0001010881
0.0001010881
0.0001010881
0.0001010881
0.0001010885
0.0001010881
0.0001010881
0.0001010881
0.0001010881
0.0001010881
0.0001010885
0.0001010881
0.0001010881
0.0001010881
0.0001010881
0.0001010881
0.0001010885
0.0001010881
0.0001010881
0.0001010881
0.0001010882
0.0001010882
0.0001010888
0.0001010882
0.0001010882
0.0001010882
0.0001010882
0.0001010882
0.0002117144
0.0002090934
0.0002090589
0.0002090569
0.0002090532
0.0002090537
0.0001010899
0.0001011052
0.0001011052
0.0001011052
0.0001011052
0.0001011052
0.0001011052
0.0001010897
0.0001011048
0.0001011045
0.0001011045
0.0001011045
0.0001011045
0.0001011045
0.0001010897
0.0001011048
0.0001011045
0.0001011046
0.0001011046
0.0001011046
0.0001011046
0.0001010897
0.0001011048
0.0001011045
0.0001011046
0.0001011046
0.0001011046
0.0001011046
0.0001010897
0.0001011048
0.0001011045
0.0001011046
0.0001011046
0.0001011046
0.0001011046
0.0001010897
0.0001011048
0.0001011045
0.0001011046
0.0001011046
0.0001011046
0.0001011046
0.0001010898
0.0001011048
0.0001011045
0.0001011046
0.0001011047
0.0001011047
0.0001011046
0.0001010898
0.0001011048
0.0001011045
0.0001011046
0.0001011047
0.0001011047
0.0001011047
0.0001010898
0.0001011048
0.0001011046
0.0001011047
0.0001011047
0.0001011047
0.0001011047
0.0001010898
0.0001011048
0.0001011046
0.0001011047
0.0001011047
0.0001011047
0.0001011047
0.0001010898
0.0001011048
0.0001011046
0.0001011047
0.0001011047
0.0001011047
0.0001011047
0.0001010899
0.0001011049
0.0001011046
0.0001011047
0.0001011047
0.0001011047
0.0001011047
0.0001010899
0.0001011049
0.0001011046
0.0001011047
0.0001011048
0.0001011048
0.0001011047
0.0001010899
0.0001011049
0.0001011047
0.0001011048
0.0001011048
0.0001011048
0.0001011048
0.00010109
0.0001011049
0.0001011047
0.0001011048
0.0001011048
0.0001011048
0.0001011048
0.00010109
0.0001011049
0.0001011047
0.0001011048
0.0001011049
0.0001011048
0.0001011048
0.0001010901
0.000101105
0.0001011048
0.0001011049
0.0001011049
0.0001011049
0.0001011049
0.0001010901
0.000101105
0.0001011048
0.0001011049
0.0001011049
0.0001011049
0.0001011049
0.0001010901
0.000101105
0.0001011049
0.0001011049
0.000101105
0.000101105
0.0001011049
0.0001010902
0.0001011051
0.0001011049
0.000101105
0.000101105
0.000101105
0.000101105
0.0001010903
0.0001011051
0.0001011049
0.000101105
0.000101105
0.000101105
0.000101105
0.0001010903
0.0001011051
0.000101105
0.0001011051
0.0001011051
0.0001011051
0.0001011051
0.0001010903
0.0006377978
0.000101105
0.0001011051
0.0001011051
0.0001011051
0.0001011051
0.0003035867
0.0001876773
0.0001010901
0.0001010884
0.0003054901
0.0002939988
0.0001010897
0.0001010895
0.0001010897
0.0001010895
0.0002937138
0.0002934746
0.0001010895
0.0001010893
0.0001010897
0.0001010893
0.0002934645
0.0002934471
0.0001010895
0.0001010893
0.0001010897
0.0001010893
0.0002934475
0.0002934448
0.0001010895
0.0001010893
0.0001010897
0.0001010893
0.0002934478
0.0002934473
0.0001010895
0.0001010893
0.0001010897
0.0001010893
0.0002934514
0.0002934514
0.0001010895
0.0001010894
0.0001010898
0.0001010894
0.0002934565
0.0002934565
0.0001010896
0.0001010894
0.0001010898
0.0001010894
0.0002934624
0.0002934625
0.0001010896
0.0001010894
0.0001010898
0.0001010894
0.0002934692
0.0002934692
0.0001010896
0.0001010895
0.0001010899
0.0001010894
0.0002934769
0.0002934769
0.0001010896
0.0001010895
0.0001010899
0.0001010895
0.0002934854
0.0002934853
0.0001010896
0.0001010895
0.00010109
0.0001010895
0.0002934947
0.0002934946
0.0001010897
0.0001010896
0.0001010901
0.0001010895
0.0002935049
0.0002935047
0.0001010897
0.0001010896
0.0001010902
0.0001010896
0.000293516
0.0002935158
0.0001010897
0.0001010897
0.0001010902
0.0001010896
0.000293528
0.0002935278
0.0001010898
0.0001010897
0.0001010903
0.0001010897
0.000293541
0.0002935407
0.0001010898
0.0001010898
0.0001010904
0.0001010898
0.0002935549
0.0002935547
0.0001010898
0.0001010899
0.0001010906
0.0001010898
0.00029357
0.0002935698
0.0001010899
0.0001010899
0.0001010907
0.0001010899
0.0002935861
0.0002935861
0.0001010899
0.00010109
0.0001010908
0.00010109
0.0002936036
0.0002936042
0.00010109
0.0001010901
0.000101091
0.0001010901
0.0002936234
0.0002936281
0.00010109
0.0001010902
0.0001010911
0.0001010901
0.0002936515
0.0002936851
0.0001010901
0.0001010903
0.0001010912
0.0001010903
0.0002937332
0.0001011983
0.0001010903
0.0001010904
0.0001010912
0.0001010902
0.000212106
0.0001010898
0.0001010909
0.0002097212
0.0001010896
0.000101091
0.0002097162
0.0001010895
0.0001010909
0.000209683
0.0001010896
0.0001010909
0.0002096917
0.0001010895
0.000101091
0.0002096902
0.0001010896
0.0001010909
0.0002096988
0.0001010895
0.0001010909
0.000209687
0.0001010896
0.0001010909
0.0002096877
0.0001010895
0.0001010909
0.0002096875
0.0001010896
0.0001010909
0.0002096934
0.0001010895
0.0001010909
0.0002097046
0.0001010896
0.0001010909
0.000209691
0.0001010895
0.0001010909
0.0002097023
0.0001010896
0.000101091
0.0002097048
0.0001010895
0.000101091
0.0002121087
0.0001010899
0.0001010909
0.0001876802
0.00010109
0.0001010884
0.0003035878
0.0001010894
0.0001010897
0.0001010895
0.0003054918
0.0002939998
0.0001010892
0.0001010897
0.0001010893
0.0002937141
0.0002934747
0.0001010892
0.0001010897
0.0001010893
0.0002934662
0.0002934488
0.0001010893
0.0001010897
0.0001010894
0.0002934525
0.0002934503
0.0001010893
0.0001010898
0.0001010894
0.0002934559
0.0002934556
0.0001010893
0.0001010898
0.0001010894
0.000293462
0.0002934616
0.0001010893
0.0001010899
0.0001010894
0.0002934688
0.0002934684
0.0001010894
0.0001010899
0.0001010895
0.0002934765
0.000293476
0.0001010894
0.00010109
0.0001010895
0.0002934848
0.0002934842
0.0001010894
0.0001010901
0.0001010895
0.0002934942
0.0002934937
0.0001010895
0.0001010901
0.0001010896
0.0002935045
0.0002935038
0.0001010895
0.0001010902
0.0001010896
0.0002935156
0.0002935153
0.0001010896
0.0001010903
0.0001010897
0.0002935277
0.0002935269
0.0001010897
0.0001010904
0.0001010898
0.0002935406
0.0002935399
0.0001010897
0.0001010905
0.0001010898
0.0002935545
0.0002935538
0.0001010898
0.0001010907
0.0001010899
0.0002935693
0.0002935678
0.0001010899
0.0001010908
0.00010109
0.0002935846
0.0002935839
0.0001010901
0.0001010911
0.0001010901
0.0002936238
0.0002936265
0.0001010901
0.0001010912
0.0001010902
0.0002936522
0.0002936848
0.0001010904
0.0001010912
0.0001010904
0.0002937336
0.0001011983
0.000101139
0.0001451258
0.000305536
0.0002940943
0.0002117132
0.0002091212
0.0001010887
0.0001010887
0.0002937964
0.0002935626
0.0002090918
0.0002090595
0.0001010887
0.0001010888
0.0002935431
0.0002935298
0.0002090579
0.0002090567
0.0001010888
0.0001010888
0.0002935219
0.0002935237
0.0002090558
0.0002090532
0.0001010887
0.0001010888
0.0002935193
0.0002935381
0.000209052
0.0002090512
0.0001010887
0.0001010887
0.000293547
0.0002090523
0.0001010887
0.0001010947
0.0001427369
0.0001010945
0.0001425152
0.0001010947
0.0001424405
0.0001010947
0.0001424346
0.0001010947
0.0001424354
0.0001010948
0.0001424348
0.0001010948
0.0001424375
0.0001010948
0.0001424373
0.0001010949
0.0001424414
0.0001010949
0.0001424412
0.0001010949
0.0001424462
0.0001010949
0.000142446
0.0001010951
0.0001424519
0.000101095
0.0001424517
0.0001010952
0.0001424585
0.0001010952
0.0001424584
0.0001010953
0.0001424661
0.0001010953
0.0001424659
0.0001010955
0.0001424745
0.0001010954
0.0001424743
0.0001010956
0.0001424839
0.0001010956
0.0001424837
0.0001010958
0.0001424943
0.0001010958
0.000142494
0.000101096
0.0001425056
0.000101096
0.0001425053
0.0001010962
0.000142518
0.0001010962
0.0001425177
0.0001010965
0.0001425314
0.0001010964
0.000142531
0.0001010968
0.0001425458
0.0001010967
0.0001425455
0.0001010971
0.0001425614
0.000101097
0.0001425611
0.0001010974
0.0001425782
0.0001010973
0.0001425778
0.0001010978
0.0001425961
0.0001010977
0.0001425958
0.0001010981
0.0001426154
0.0001010981
0.000142615
0.0001010986
0.000142636
0.0001010985
0.0001426356
0.000101099
0.0001426582
0.0001010989
0.0001426582
0.0001010995
0.0001426848
0.0001010994
0.0001426933
0.0001011588
0.0001011556
0.0001011612
0.000101161
0.0001011556
0.0001011631
0.000101162
0.00010116
0.0001011586
0.0001011631
0.0001011598
0.0001011612
0.0001011603
0.0001011598
0.0001011629
0.0001011583
0.0001011491
0.0001011532
0.0002091216
0.0001010887
0.0001010887
0.0003055366
0.0002940906
0.0002090594
0.0001010887
0.0001010888
0.0002937936
0.0002935598
0.0002090572
0.0001010887
0.0001010888
0.0002935416
0.0002935294
0.0002090529
0.0001010887
0.0001010888
0.00029352
0.0002935205
0.0002090511
0.0001010887
0.0001010887
0.0002935164
0.0002935366
0.0001010887
0.0002935446
0.0001010892
0.0001010897
0.0001010893
0.0002934479
0.0002934461
0.0001010892
0.0001010897
0.0001010893
0.0002934498
0.000293448
0.00010109
0.0001010909
0.0001010901
0.0002936018
0.0002936046
0.0001011367
0.0001429773
0.0001011527
0.0001479342
0.0001010929
0.0001428908
0.0001010942
0.0001478915
0.0001011505
0.0001011552
0.0001010946
0.0001424417
0.0001010948
0.0001424901
0.0001010947
0.0001424338
0.0001010947
0.000142435
0.0001010947
0.0001424358
0.0001010948
0.0001424359
0.0001010948
0.0001424388
0.0001010948
0.0001424387
0.0001010949
0.0001424432
0.0001010949
0.000142443
0.0001010949
0.0001424484
0.000101095
0.0001424482
0.0001010951
0.0001424545
0.0001010951
0.0001424543
0.0001010952
0.0001424615
0.0001010953
0.0001424613
0.0001010953
0.0001424694
0.0001010954
0.0001424692
0.0001010955
0.0001424782
0.0001010956
0.000142478
0.0001010956
0.000142488
0.0001010958
0.0001424878
0.0001010958
0.0001424988
0.000101096
0.0001424986
0.000101096
0.0001425105
0.0001010962
0.0001425103
0.0001010963
0.0001425233
0.0001010964
0.0001425231
0.0001010965
0.0001425372
0.0001010967
0.0001425369
0.0001010968
0.0001425521
0.000101097
0.0001425518
0.0001010971
0.0001425682
0.0001010973
0.0001425679
0.0001010974
0.0001425854
0.0001010977
0.0001425852
0.0001010978
0.0001426039
0.0001010981
0.0001426036
0.0001010982
0.0001426237
0.0001010985
0.0001426234
0.0001010986
0.000142645
0.0001010989
0.0001426447
0.0001010991
0.0001426698
0.0001010994
0.000142668
0.0001010996
0.000101351
0.0001427101
0.0001010998
0.0001011623
0.000101161
0.0001011607
0.0001011568
0.0001011629
0.0001011621
0.0001011594
0.0001011607
0.0001011608
0.0001011605
0.0001011602
0.0001011591
0.0001011582
0.0001011642
0.0001011576
0.0001011591
0.0001011388
0.0001451323
0.0001011367
0.0001429778
0.0001011527
0.0001479404
0.000101093
0.0001428898
0.0001010942
0.0001478904
0.0001010947
0.0001427349
0.0001010945
0.0001425144
0.0001010946
0.0001424411
0.0001010948
0.0001424893
0.0001010947
0.0001424397
0.0001010947
0.0001424342
0.0001010947
0.0001424323
0.0001010948
0.0001424355
0.0001010947
0.0001424341
0.0001010947
0.000142434
0.0001010949
0.000142446
0.0001010949
0.0001424456
0.0001010949
0.0001424479
0.000101095
0.0001424477
0.000101095
0.0001424514
0.000101095
0.0001424512
0.0001010951
0.0001424541
0.0001010952
0.0001424538
0.0001010952
0.0001424581
0.0001010951
0.000142458
0.0001010952
0.0001424611
0.0001010953
0.0001424609
0.0001010953
0.0001424656
0.0001010953
0.0001424655
0.0001010953
0.000142469
0.0001010954
0.0001424688
0.0001010955
0.0001424741
0.0001010954
0.0001424739
0.0001010955
0.0001424779
0.0001010956
0.0001424776
0.0001010958
0.0001424939
0.0001010958
0.0001424936
0.0001010958
0.0001424984
0.000101096
0.0001424981
0.000101096
0.0001425052
0.000101096
0.000142505
0.000101096
0.0001425101
0.0001010962
0.0001425099
0.0001010965
0.0001425312
0.0001010964
0.0001425306
0.0001010965
0.0001425368
0.0001010967
0.0001425364
0.0001010968
0.0001425517
0.000101097
0.0001425514
0.0001010971
0.0001425609
0.000101097
0.0001425607
0.0001010971
0.0001425678
0.0001010973
0.0001425675
0.0001010974
0.0001425777
0.0001010973
0.0001425909
0.000101099
0.0001426711
0.0001010989
0.0001426571
0.0001010991
0.0001426707
0.0001010994
0.0001426669
0.0001010995
0.0001426848
0.0001010994
0.0001426951
0.0001010996
0.0001460959
0.0001427097
0.0001010998
0.0001835073
0.0001688693
0.0001743334
0.0001738289
0.0001743031
0.0001736418
0.000174131
0.000174137
0.0001741276
0.0001739165
0.0001743431
0.0001735736
0.000173883
0.0001745705
0.0001739317
0.0001741255
0.0001752486
0.0001752603
0.0001737896
0.0001733965
0.0001737504
0.0001741146
0.0001742639
0.0001736317
0.000174558
0.0001752852
0.0001749208
0.0001745842
0.0001735143
0.0001736402
0.0001736988
0.0001749064
0.0001730856
0.0001733938
0.0001736814
0.0001738624
0.0001743737
0.0001735409
0.0001830694
0.0001688612
0.0001594244
0.0001583206
0.0001592566
0.0001584189
0.0001011275
0.0001485493
0.000101128
0.0001485689
0.0001011275
0.0001485471
0.0001485471
0.0001011276
0.0001011275
0.0001485573
0.0001011277
0.0001485537
0.0001011275
0.0001485581
0.0001485548
0.0001011277
0.0001010947
0.0001424277
0.0001010948
0.0001424342
0.0001011277
0.0001485697
0.0001011279
0.0001485671
0.0001011277
0.0001485746
0.000101128
0.0001485707
0.0001011277
0.0001485761
0.0001485729
0.000101128
0.0001011278
0.0001485811
0.0001011281
0.0001485772
0.0001011278
0.0001485829
0.0001485797
0.0001011281
0.0001011281
0.0001485971
0.0001011283
0.0001485931
0.0001011281
0.0001485993
0.0001485962
0.0001011284
0.0001010956
0.0001424835
0.0001010956
0.0001424967
0.0001010956
0.0001424876
0.0001010958
0.0001425009
0.0001011284
0.0001486197
0.0001486167
0.0001011288
0.0001011286
0.0001486285
0.0001011289
0.0001486242
0.0001011286
0.0001486314
0.0001486284
0.000101129
0.0001011288
0.000148641
0.0001011291
0.0001486366
0.0001010962
0.0001425175
0.0001010962
0.0001425172
0.0001010963
0.0001425182
0.0001010964
0.0001425214
0.000101129
0.0001486575
0.0001486552
0.0001011295
0.0001011292
0.0001486693
0.0001011296
0.0001486647