/*--------------------------------*- C++ -*----------------------------------*\
  =========                 |
  \\      /  F ield         | OpenFOAM: The Open Source CFD Toolbox
   \\    /   O peration     | Website:  https://openfoam.org
    \\  /    A nd           | Version:  7
     \\/     M anipulation  |
\*---------------------------------------------------------------------------*/
FoamFile
{
    version     2.0;
    format      ascii;
    class       volScalarField;
    location    "0.02";
    object      p;
}
// * * * * * * * * * * * * * * * * * * * * * * * * * * * * * * * * * * * * * //

dimensions      [0 2 -2 0 0 0 0];

internalField   nonuniform List<scalar> 
109978
(
0.05088263
0.07449552
0.09358897
0.1077852
0.1218203
0.1356228
0.06567891
0.08869636
0.1098389
0.1253335
0.1398161
0.1540887
0.07035772
0.09783678
0.120306
0.1351037
0.1491332
0.1631155
0.06847558
0.1032965
0.1244148
0.1392463
0.1534312
0.1675956
0.07131022
0.1042742
0.1262815
0.1414737
0.1558344
0.1701474
0.07239054
0.1050302
0.1273719
0.1429874
0.1576114
0.1721489
0.07366827
0.1056665
0.1285766
0.1445569
0.1594358
0.1742272
0.07484332
0.1064532
0.1298907
0.1462271
0.1613902
0.1764569
0.07604742
0.1075273
0.1313902
0.1480801
0.1635491
0.1789047
0.07728251
0.1087879
0.1330664
0.1501287
0.1659156
0.1815665
0.07855703
0.1101954
0.1349316
0.152377
0.1685005
0.1844353
0.07997564
0.1118526
0.1369994
0.1548303
0.1713028
0.1875089
0.08141175
0.1136189
0.1392568
0.157492
0.1743191
0.1908048
0.08288556
0.1154995
0.1417025
0.1603688
0.1775512
0.1943603
0.08444199
0.1175251
0.1443425
0.1634613
0.1809963
0.1981215
0.08610081
0.11972
0.1471874
0.1667858
0.1847024
0.2021648
0.08786298
0.12209
0.1502443
0.170354
0.1887204
0.2065201
0.08973573
0.1246305
0.153512
0.1741528
0.1929595
0.2112346
0.09170494
0.1273421
0.1570063
0.1782038
0.1974654
0.2163472
0.09379108
0.1302343
0.160751
0.1825292
0.2022108
0.2217581
0.09603481
0.1333501
0.164776
0.1872442
0.2073386
0.2274716
0.09844527
0.1367012
0.1690832
0.1922805
0.2130177
0.2336269
0.04528215
0.140293
0.1736817
0.1975995
0.2191169
0.2402292
0.03366856
0.07203644
0.09088813
0.1050781
0.1195211
0.1336078
0.01009264
0.01920064
0.03417717
0.05169202
0.06482624
0.08055803
0.007253849
0.02162998
0.03521442
0.05107634
0.06625238
0.08197327
0.007271468
0.02381829
0.03389096
0.05326774
0.06590737
0.08183664
0.006930031
0.02194835
0.03371401
0.05206603
0.06570688
0.08187364
0.007586944
0.02325942
0.03436469
0.05346428
0.06659252
0.08274171
0.007457797
0.02308492
0.03441885
0.05343142
0.06687199
0.08321436
0.007673669
0.0237374
0.03503283
0.05417139
0.06767675
0.08411069
0.007859502
0.02399811
0.03536964
0.05465515
0.06834716
0.08494924
0.008080181
0.02432714
0.03582221
0.05531232
0.06917846
0.08597513
0.008315789
0.02460578
0.03625927
0.05600886
0.07007529
0.08709272
0.008568212
0.02490773
0.03674199
0.05679463
0.0710758
0.0883349
0.008839867
0.02520328
0.03725261
0.05766151
0.07217485
0.08968661
0.009134192
0.02553437
0.03781795
0.05861568
0.07337529
0.09115242
0.009456093
0.02592532
0.0384526
0.05966156
0.07468561
0.0927361
0.009813031
0.02637714
0.03916373
0.06080667
0.07610483
0.0944373
0.01020194
0.02688001
0.0399493
0.06205315
0.0776447
0.09630892
0.01061477
0.02743249
0.04080861
0.06340664
0.0793127
0.0982965
0.01106484
0.02803971
0.0417451
0.06487786
0.0811087
0.1004637
0.01154576
0.02872476
0.04277479
0.06647737
0.08304371
0.1027689
0.01205421
0.02949456
0.04390776
0.06821271
0.08513554
0.1053167
0.01258748
0.03033315
0.04513992
0.0700897
0.08733677
0.1080646
0.01313252
0.03124226
0.04648375
0.07212098
0.08977411
0.1110557
0.0101302
0.03223774
0.04793797
0.07431166
0.09242523
0.1142814
0.03997138
0.08373846
0.1074985
0.1223279
0.1367323
0.1508114
0.007441861
0.01618277
0.03654621
0.05128338
0.06560263
0.08031776
0.003777337
0.02032528
0.03823119
0.04984886
0.06631927
0.08037469
0.003630807
0.02130021
0.03756493
0.05205125
0.06668938
0.08112479
0.003519094
0.0199671
0.0380218
0.05072348
0.06672001
0.08126915
0.003693718
0.02122141
0.03858644
0.05215557
0.067678
0.08218491
0.003665522
0.02055182
0.03847525
0.05194303
0.06791383
0.08265148
0.003748283
0.02109697
0.03906032
0.05272009
0.06876437
0.08358103
0.003794904
0.02114568
0.03932303
0.05316102
0.06942379
0.08440792
0.003856583
0.02142772
0.03980284
0.05383117
0.07028034
0.08542607
0.003919203
0.02168762
0.04029
0.05452598
0.07118466
0.08651608
0.003987236
0.02200317
0.04085531
0.05531117
0.07219326
0.08772894
0.004061217
0.02235398
0.04148291
0.0561728
0.07329639
0.08906008
0.004143059
0.02275148
0.04218042
0.05712074
0.07450567
0.09052023
0.004235271
0.02319641
0.04294942
0.05815768
0.07582592
0.0921171
0.004339741
0.02369121
0.04379332
0.05928825
0.07726812
0.09385777
0.004455245
0.02423509
0.04471407
0.06051883
0.07883403
0.09572148
0.004580917
0.0248308
0.04571557
0.06185867
0.08053592
0.09775503
0.004718459
0.02548027
0.04680156
0.06331161
0.08238225
0.09994823
0.004867847
0.02618959
0.04797477
0.06488331
0.08437403
0.102305
0.005029554
0.02696449
0.04924387
0.0665865
0.08652723
0.1048376
0.005203665
0.02780542
0.05060669
0.06842421
0.08883646
0.1075539
0.00539181
0.02871919
0.05208448
0.07042394
0.0913465
0.1105105
0.005599449
0.02969441
0.05366563
0.072562
0.09402071
0.1136706
0.03882796
0.09608982
0.1139617
0.1301046
0.1442044
0.1585174
0.007364063
0.01667481
0.03591505
0.05257528
0.06580414
0.08105424
0.00344704
0.01899701
0.03604835
0.04967447
0.0657662
0.08060813
0.003859146
0.02340943
0.03568688
0.05348797
0.06661313
0.08175259
0.003514944
0.0213234
0.03554443
0.05163659
0.06630776
0.08163603
0.00372026
0.02386554
0.03645921
0.0536714
0.06753054
0.08272793
0.003667327
0.02296597
0.03622805
0.05333426
0.06765695
0.08309884
0.003748103
0.0238338
0.03696512
0.05426896
0.06858597
0.08407992
0.00378634
0.02389885
0.0372233
0.05470816
0.0692226
0.08488627
0.003841805
0.02426754
0.03773268
0.05541422
0.07008827
0.08591811
0.003898187
0.0245739
0.03821374
0.05612574
0.07099021
0.08701228
0.003960083
0.02493039
0.03876187
0.05692972
0.07199842
0.08823235
0.004027527
0.02531573
0.03935799
0.05780922
0.07310136
0.08956387
0.00410132
0.02573965
0.0400134
0.05877505
0.0743069
0.0910173
0.004182224
0.02620593
0.04073354
0.05983064
0.07562299
0.09259833
0.004270745
0.02671721
0.04152291
0.06098249
0.07705606
0.09431624
0.004367114
0.02727585
0.04238506
0.06223485
0.07861359
0.0961773
0.00447147
0.0278853
0.04332388
0.06359613
0.08030007
0.0981902
0.004584221
0.02854862
0.04434479
0.06507473
0.08212603
0.1003722
0.004706159
0.02927098
0.04545462
0.06667894
0.08409974
0.1027304
0.004837733
0.03005761
0.04666446
0.06842376
0.08624151
0.105288
0.00497905
0.03091088
0.04797563
0.07031104
0.08855028
0.1080459
0.005130728
0.03184357
0.04941512
0.07237467
0.09107558
0.1110458
0.005293525
0.03285106
0.05096462
0.07459185
0.09379465
0.1142621
0.03468183
0.1055878
0.1189201
0.1349922
0.149487
0.1634707
0.007235729
0.01498579
0.03654598
0.05173196
0.06562531
0.08081844
0.003370924
0.01783241
0.03735912
0.04892857
0.06585043
0.08038266
0.003718844
0.02225824
0.036472
0.05262765
0.06652036
0.08142228
0.003269924
0.01976791
0.03650467
0.05055377
0.06617535
0.08125835
0.003469977
0.02238121
0.03737347
0.05261423
0.06739403
0.08233081
0.003398143
0.0212793
0.03707627
0.05215922
0.06745905
0.08265568
0.0034807
0.02215383
0.03783027
0.05310081
0.06839467
0.08363545
0.0035179
0.02215828
0.0380704
0.05350651
0.06901264
0.08442262
0.003574226
0.02250849
0.0385925
0.0542034
0.06987731
0.08544657
0.003631278
0.0227913
0.03908445
0.05490129
0.07077334
0.08652781
0.00369366
0.02312893
0.03965078
0.05569203
0.07177812
0.08773694
0.003761278
0.02349583
0.04026787
0.05655722
0.07287568
0.08905654
0.003834676
0.02390025
0.04094728
0.05750603
0.07407691
0.09050097
0.003914363
0.02434403
0.04169035
0.05854286
0.07538705
0.0920724
0.004000737
0.02482964
0.04250274
0.05967171
0.07681315
0.09378005
0.004094253
0.02535958
0.04338627
0.06089945
0.07836019
0.09562926
0.004195138
0.02593632
0.0443469
0.06223048
0.08003634
0.09763228
0.00430382
0.02656286
0.04538614
0.06367388
0.08184795
0.09979981
0.004420897
0.02724078
0.04650779
0.06522935
0.08379864
0.102136
0.004547123
0.02797692
0.04771954
0.06691747
0.08590749
0.1046733
0.004682012
0.02876416
0.04900959
0.06871739
0.08814813
0.1073855
0.004826709
0.02962541
0.05041682
0.0707048
0.09059952
0.1103952
0.004979207
0.03052703
0.05188595
0.07278813
0.09314662
0.1135573
0.03402863
0.1027835
0.1221142
0.1360338
0.1504684
0.1643539
0.00733942
0.01505509
0.03653011
0.05177472
0.06561379
0.08083099
0.003442758
0.01781872
0.03735105
0.04892243
0.06584735
0.08038149
0.003773972
0.02226482
0.03647385
0.05262997
0.06652034
0.08142357
0.00330051
0.01976887
0.03650486
0.0505537
0.06617562
0.08125893
0.003498996
0.02238213
0.03737475
0.05261527
0.06739513
0.08233186
0.003428401
0.0212802
0.03707788
0.05216042
0.06746081
0.08265719
0.003509447
0.02215502
0.03783185
0.05310267
0.06839661
0.08363706
0.003545922
0.02215943
0.03807255
0.05350843
0.06901511
0.08442483
0.003601903
0.02251
0.03859462
0.05420582
0.0698802
0.08544802
0.003658826
0.02279268
0.03908731
0.05490378
0.0707765
0.0865305
0.003721183
0.02313028
0.0396536
0.05569478
0.07178178
0.08773811
0.003788945
0.02349703
0.04027119
0.05656008
0.07287934
0.08905946
0.003862611
0.0239016
0.0409504
0.05750923
0.07408118
0.09050238
0.003942749
0.02434561
0.04169417
0.05854649
0.07539204
0.0920763
0.00402976
0.02483203
0.04250703
0.05967691
0.07681949
0.09378372
0.00412406
0.02536305
0.0433936
0.06090811
0.0783703
0.09563779
0.004226069
0.0259429
0.04435852
0.06224629
0.08005367
0.0976465
0.004336436
0.02657554
0.04540835
0.06370316
0.08188008
0.09982609
0.004455811
0.02726557
0.04654688
0.06528237
0.0838535
0.1021774
0.004585483
0.02802401
0.04779153
0.06700986
0.0860035
0.1047309
0.00472598
0.02884571
0.04912934
0.06886586
0.08830974
0.1074607
0.004879499
0.02975785
0.0506032
0.07090308
0.09081598
0.1103976
0.005043287
0.03072651
0.05217328
0.07305967
0.09353702
0.1135526
0.03538425
0.1005968
0.122215
0.1343642
0.1477477
0.1615175
0.007595819
0.01641888
0.03582853
0.05250127
0.06576476
0.08103226
0.003657961
0.0189782
0.0360438
0.04966714
0.06576492
0.08061129
0.003997949
0.02338296
0.03567544
0.05347883
0.06660711
0.08174904
0.003595394
0.0213177
0.03554183
0.05163463
0.06630603
0.08163568
0.003804158
0.02386235
0.03645696
0.05366969
0.06752876
0.08272652
0.003738761
0.02296467
0.03622694
0.05333331
0.06765551
0.08309813
0.003820877
0.02383251
0.03696445
0.05426769
0.06858508
0.08407855
0.003859736
0.02389832
0.0372224
0.05470707
0.06922135
0.08488522
0.003917181
0.02426682
0.03773156
0.05541266
0.07008721
0.08591668
0.003976052
0.0245733
0.03821221
0.05612403
0.07098866
0.087011
0.004040478
0.02492995
0.0387601
0.05692764
0.07199705
0.08823102
0.004110488
0.02531601
0.03935592
0.05780706
0.0730993
0.08956246
0.004186853
0.02573974
0.04001088
0.05877208
0.07430459
0.09101552
0.004270162
0.02620556
0.04073023
0.05982666
0.07561909
0.09259541
0.004360864
0.02671587
0.04151765
0.06097639
0.07704991
0.09431152
0.004459395
0.02727268
0.04237631
0.06222482
0.07860163
0.09616751
0.004566044
0.0278782
0.04330757
0.06357869
0.08027837
0.09817435
0.004681181
0.02853463
0.0443168
0.06504623
0.08208864
0.1003521
0.004805566
0.02924263
0.04539894
0.06662499
0.08402245
0.1026924
0.004939971
0.03001194
0.04657457
0.06835541
0.08612333
0.1052789
0.005084068
0.03082228
0.04779527
0.07018023
0.08828961
0.1080041
0.005241255
0.03173234
0.04916903
0.07232288
0.09073921
0.1112798
0.005405675
0.03265109
0.05049524
0.07446974
0.0930835
0.1144409
0.0347566
0.0938245
0.1105083
0.1258801
0.1402211
0.1542322
0.006176713
0.01623689
0.03650982
0.05127096
0.06558569
0.08031044
0.003563063
0.02032027
0.03822313
0.04984279
0.06631731
0.0803743
0.003751923
0.0213039
0.03756552
0.05205081
0.06669097
0.08112544
0.003376017
0.01997136
0.0380263
0.05072695
0.06672419
0.08127276
0.003669954
0.02122598
0.03859213
0.05216029
0.06768412
0.0821896
0.003554293
0.02055595
0.03848081
0.05194898
0.06792022
0.08265762
0.003642185
0.02110114
0.03906563
0.05272582
0.0687707
0.08358728
0.003664457
0.02114964
0.0393282
0.05316719
0.06943001
0.08441384
0.00371177
0.02143172
0.0398082
0.05383742
0.07028658
0.08543202
0.003759726
0.02169149
0.04029518
0.05453296
0.07119089
0.08652133
0.003814091
0.0220073
0.04086042
0.05531771
0.07219934
0.08773422
0.003874555
0.0223577
0.04148692
0.05617958
0.07330222
0.08906436
0.003943063
0.02275456
0.04218401
0.05712689
0.07451069
0.09052446
0.004019767
0.02319936
0.04295217
0.0581639
0.07583111
0.09212196
0.004105449
0.02369329
0.04379564
0.05929387
0.07727268
0.09386205
0.004200454
0.02423642
0.0447163
0.06052589
0.07883831
0.09572124
0.004304695
0.02483143
0.04571891
0.06186737
0.08054251
0.0977643
0.004418728
0.02548198
0.04680785
0.06332805
0.08239459
0.09996512
0.004544233
0.02619297
0.04798382
0.06490508
0.0843888
0.1023218
0.004682709
0.02697764
0.04926297
0.0666244
0.08655073
0.1048491
0.004833155
0.0278246
0.05062546
0.06845695
0.08887861
0.1075523
0.005000092
0.02874598
0.05207637
0.07038415
0.09129322
0.110303
0.005175649
0.02971015
0.05362645
0.07236652
0.09399966
0.1133602
0.03707894
0.07411782
0.0951349
0.1104536
0.1247463
0.1387095
0.006184299
0.01927248
0.03419133
0.05168584
0.06481874
0.08054751
0.002992058
0.02164775
0.03521953
0.05107851
0.06625199
0.08196616
0.003574731
0.023824
0.03389104
0.05326812
0.06589784
0.08183302
0.002817094
0.02194241
0.03371245
0.05206344
0.06569625
0.08187079
0.003404241
0.02325793
0.03436128
0.05345795
0.06658128
0.0827346
0.003282358
0.02308479
0.03441654
0.05342448
0.06686148
0.08320675
0.003442974
0.02373473
0.03503106
0.05416373
0.06766766
0.08410253
0.003504652
0.02399898
0.03536806
0.05464771
0.06833943
0.08494238
0.003582497
0.0243278
0.03581855
0.05530394
0.06917145
0.085968
0.003650012
0.02460675
0.03625511
0.05600106
0.07006852
0.08708677
0.003716343
0.02490664
0.03673678
0.05678619
0.07106958
0.08832832
0.003780162
0.02520934
0.03724811
0.05765397
0.07216867
0.0896809
0.003845392
0.02554137
0.03781164
0.0586074
0.07336977
0.09114642
0.003919205
0.02593185
0.03844587
0.05965371
0.07467888
0.0927302
0.004004846
0.02638476
0.03915491
0.0607978
0.07609669
0.09443179
0.004101551
0.02688737
0.03993798
0.06204331
0.07763431
0.09630977
0.004207162
0.02743797
0.04078932
0.06339119
0.07929093
0.09828831
0.004323883
0.02804142
0.04171672
0.06486157
0.0810737
0.1004621
0.004451761
0.02871724
0.04271689
0.06644608
0.08295484
0.1027549
0.004586208
0.02948879
0.04382784
0.06822332
0.08500913
0.1053825
0.004724776
0.03030079
0.04494616
0.07008379
0.08697798
0.1080763
0.004882333
0.03124855
0.04626102
0.07248711
0.089221
0.1115906
0.01011156
0.03219654
0.04740302
0.07483456
0.09119195
0.1147348
0.02147848
0.05663196
0.07719321
0.09263446
0.1072562
0.1219295
0.001657664
0.02139814
0.05523607
0.0789412
0.09491464
0.1093107
0.1233063
0.00228285
0.02462355
0.06798858
0.09474453
0.1115917
0.1254463
0.139193
0.002256411
0.02478053
0.06914631
0.09972097
0.1168757
0.1308946
0.1448865
0.002239371
0.0245693
0.07027123
0.1021166
0.1197653
0.1341018
0.1484257
0.002311595
0.02496457
0.07086984
0.1036608
0.1216719
0.136189
0.1506905
0.002323452
0.02510813
0.07126993
0.1045605
0.1229773
0.1377777
0.152497
0.002360781
0.0254342
0.07193845
0.1056374
0.1244083
0.1394518
0.154344
0.002395277
0.02572471
0.07268387
0.1068099
0.1259202
0.1411925
0.1562536
0.002431658
0.02603916
0.07354509
0.1081604
0.1275775
0.1430635
0.1583152
0.002471805
0.0263912
0.07453147
0.1096604
0.1293654
0.1450757
0.1605465
0.002520104
0.02680191
0.07565232
0.1112967
0.1312977
0.147246
0.1630095
0.002568493
0.02720955
0.07683399
0.113066
0.1333825
0.1495917
0.1657303
0.00262556
0.02768061
0.07814665
0.1149822
0.1356394
0.1521482
0.1687332
0.002689803
0.02821457
0.07957661
0.117043
0.1380571
0.1549571
0.172069
0.002754632
0.02880362
0.08111949
0.1192553
0.1406532
0.1580337
0.1756479
0.002827659
0.02943491
0.08277046
0.1216329
0.1434678
0.1613841
0.1795085
0.002904305
0.0301124
0.08454159
0.1241919
0.1465187
0.1650964
0.1833594
0.002986256
0.03084034
0.08643825
0.1269351
0.1498206
0.1690369
0.1872782
0.003076627
0.03162771
0.08846208
0.1298522
0.1533749
0.1732693
0.1914463
0.003166587
0.03248382
0.09062245
0.1329583
0.1571952
0.1776514
0.1959364
0.003262572
0.03339498
0.0929088
0.1362737
0.1613852
0.1820001
0.2008451
0.00336316
0.03438767
0.09534155
0.1397935
0.1658401
0.1865678
0.2059858
0.003459961
0.07491328
0.09784197
0.1433091
0.1701692
0.1906628
0.2110478
-0.007422534
0.001852158
0.004676294
0.01509547
-0.02128016
-0.01047885
0.001666486
0.007940863
0.002385776
0.01311833
-0.009799255
-0.01858692
0.002286335
0.01087857
0.002339089
0.01238691
-0.009053099
-0.01868123
0.002256863
0.0112802
0.002300813
0.01111993
-0.01010147
-0.01929901
0.002240153
0.01047769
0.002293808
0.01074757
-0.009151016
-0.01962171
0.002312729
0.01107198
0.002326567
0.01102378
-0.009153624
-0.02032472
0.00232607
0.01106771
0.002350037
0.01112721
-0.00912268
-0.02083328
0.002362208
0.01126862
0.002379511
0.01127109
-0.009106913
-0.02129839
0.002396676
0.01145301
0.002408663
0.01140096
-0.009056641
-0.02172888
0.002432541
0.01166553
0.002441746
0.01156558
-0.009031326
-0.022125
0.002473211
0.01191743
0.002477607
0.01175638
-0.009005781
-0.02244159
0.002518144
0.01219915
0.002517356
0.01196722
-0.008900614
-0.02271413
0.002567727
0.01250819
0.00256204
0.01221164
-0.008767686
-0.02301426
0.002627066
0.01286234
0.00261046
0.01249366
-0.008651899
-0.02333591
0.002691502
0.0132425
0.002662032
0.0128045
-0.008570876
-0.02366207
0.002758338
0.01365258
0.002716329
0.01315054
-0.008460665
-0.02397233
0.002830143
0.01408504
0.0027714
0.01351718
-0.008307039
-0.02429184
0.00290704
0.01454644
0.002831287
0.01392192
-0.008129379
-0.02461404
0.002987935
0.01503795
0.002896544
0.01435197
-0.00793771
-0.02494486
0.003072611
0.0155548
0.002968167
0.01481847
-0.00774546
-0.02526423
0.003163078
0.01611015
0.003045931
0.01531675
-0.007519981
-0.02556881
0.003259745
0.01671289
0.003130692
0.01587195
-0.00725125
-0.02587505
0.003363116
0.01734544
0.003220263
0.01646348
-0.00690938
0.03233529
0.003471022
0.01800203
0.003321344
0.01700936
0.01050326
0.002146927
0.01817621
0.01863571
0.003896597
0.02294874
0.01883379
0.003548228
0.02039541
0.01994807
0.003346424
0.02257112
0.01962076
0.003423101
0.0211434
0.01940739
0.003389531
0.02052664
0.02165795
0.003330851
0.02018868
0.01985567
0.003248894
0.02012746
0.01959753
0.003317007
0.01953219
0.02200964
0.003139418
0.02009396
0.02055948
0.003222666
0.02033783
0.02079906
0.003192512
0.02157417
0.02027991
0.003452375
0.02221891
0.01915511
0.003474416
0.02043431
0.02060527
0.00373734
0.02310475
0.0122259
0.002136974
0.01825978
0.002321556
0.004519193
0.01511352
-0.007428825
0.007973474
0.002383213
0.0131461
-0.02126127
-0.01047019
0.01088588
0.002340131
0.01240136
-0.009776576
-0.01858835
0.01129089
0.002298778
0.01113484
-0.009044757
-0.01869727
0.01106444
0.002348595
0.01111798
-0.009153144
-0.02031137
0.01126753
0.002378155
0.01126544
-0.00910597
-0.02082706
0.01145044
0.002407789
0.01139426
-0.009096893
-0.02129351
0.01165991
0.002440541
0.01154869
-0.009037715
-0.02171847
0.011907
0.002476478
0.01172446
-0.008993858
-0.0220768
0.01221598
0.002520426
0.01201561
-0.009002846
-0.02246874
0.01250838
0.002560927
0.01220838
-0.008927099
-0.02271004
0.01285477
0.002608544
0.01247406
-0.008756294
-0.02300062
0.01324001
0.002658184
0.01280335
-0.008643239
-0.02335118
0.01364317
0.002713888
0.01312696
-0.008558426
-0.02365131
0.0140733
0.002769267
0.01349939
-0.008448157
-0.02396853
0.01452798
0.002827502
0.01387847
-0.008286056
-0.0242706
0.01501874
0.002899924
0.01432866
-0.00810107
-0.02459184
0.0155502
0.002972304
0.01482918
-0.007916303
-0.02494531
0.01670002
0.003132592
0.01589674
-0.007543191
-0.0256021
0.01731894
0.003208148
0.01645128
-0.007264407
-0.02593366
0.01792797
0.003293704
0.01694235
-0.006951056
0.03227104
0.003444648
-0.009107072
0.03661619
-0.001430916
0.02107728
-0.01575483
0.02335244
0.02093094
0.05596871
0.009921727
0.05657739
-0.004145559
0.04861613
0.02476508
0.07327354
0.02277201
0.07716146
0.007877627
0.06756562
0.03482448
0.08738589
0.0368432
0.09264775
0.02246515
0.08279748
0.04852081
0.1014348
0.05124013
0.1073253
0.03696815
0.09707747
0.06297652
0.1154921
0.1220546
0.1112172
-4.473741e-05
-0.00807463
0.001907755
-0.008856836
-0.0006896154
-0.01032651
-0.001003762
-0.01009605
3.280117e-05
-0.009943027
-0.000934503
-0.009555175
0.0001459376
-0.009875611
-0.0003886219
-0.009514303
0.000268338
-0.009648396
-0.0003063663
-0.009262022
0.0002815224
-0.009580392
-0.0003695679
-0.009168812
0.0003148244
-0.009531762
-0.000425908
-0.009086797
0.0003611099
-0.009474056
-0.0004545617
-0.009001114
0.0004172057
-0.009404805
-0.0004613512
-0.008910933
0.0004751919
-0.009336916
-0.0004587977
-0.008828755
0.0005414193
-0.009268655
-0.0004464221
-0.008741264
0.0006171103
-0.009184631
-0.0004194191
-0.008639282
0.0006991242
-0.00909426
-0.0003862747
-0.00852828
0.0007953903
-0.008994656
-0.0003430369
-0.008408045
0.0009177367
-0.008878272
-0.0002882956
-0.008270721
0.001056728
-0.008738283
-0.0002175076
-0.008104836
0.001198963
-0.00857689
-0.000136477
-0.007922423
0.001349811
-0.008392593
-4.082493e-05
-0.007716627
0.001489275
-0.008183378
6.864516e-05
-0.007497924
0.001648582
-0.007942709
0.0001937519
-0.007256318
0.001828926
-0.007667294
0.0003424003
-0.006986847
0.002035444
-0.007346022
0.0005221827
-0.00668245
0.002252358
-0.006983013
0.0007215723
-0.006339884
-0.01235763
-0.01420718
-0.01805197
-0.01556773
-0.01587338
-0.0148631
-0.01553243
-0.01587482
-0.0164589
-0.01629299
-0.01716435
-0.0185658
-0.0156777
-0.0174301
-0.01233825
-0.01599541
-0.005309699
-0.01081979
-0.01565441
0.02340782
0.02098945
0.03667879
-0.001375281
-0.004119667
0.04864921
0.02478938
0.05601113
0.009951664
0.007879564
0.0675611
0.03483138
0.07329005
0.02277151
0.02243988
0.08279951
0.04851679
0.08738957
0.03682896
0.03694727
0.09708268
0.06296567
0.1014307
0.05124127
0.1112147
0.1154977
0.01050712
0.00229188
0.01074563
-0.01006663
-0.01928768
0.01108824
0.002323454
0.01103755
-0.009134859
-0.01963855
0.01610519
0.003050185
0.01533849
-0.007759466
-0.0252778
0.01517631
-0.006534628
-0.0002045111
0.0211406
0.004315068
-0.007478338
0.001778963
-0.01426095
-0.00546211
-0.006911954
0.0003193066
-0.01022284
-0.0009151069
-0.008994232
-0.0007615607
-0.00962277
-0.0004364023
-0.009978767
-0.0004606786
-0.009600748
-3.075277e-05
-0.009816594
-0.0002448345
-0.00930753
-1.347105e-05
-0.009826801
-0.0002245913
-0.009167339
4.988131e-05
-0.009615428
-0.0002889416
-0.009064107
3.440323e-05
-0.009545885
-0.0003054288
-0.008963488
5.392755e-05
-0.009482753
-0.0003133692
-0.008858463
8.222006e-05
-0.00942145
-0.000311257
-0.008757282
0.0001191533
-0.009354934
-0.0003032364
-0.00866711
0.0001594235
-0.009288787
-0.0002809251
-0.008574182
0.0002085226
-0.009212524
-0.000250981
-0.008487073
0.0002628548
-0.009124257
-0.0002182156
-0.008393019
0.0003230867
-0.009029816
-0.0001736722
-0.008285549
0.0003955466
-0.008924267
-0.0001157743
-0.008158334
0.0004820373
-0.008800905
-4.152855e-05
-0.008010232
0.0005829003
-0.008649025
3.873994e-05
-0.00784875
0.0007048524
-0.008478574
0.0001357112
-0.007672457
0.0008456394
-0.008279664
0.0002409531
-0.007476491
0.0009948892
-0.008060996
0.000370852
-0.007257062
0.001155064
-0.007809855
0.000525914
-0.007004759
0.001330113
-0.007521979
0.0007004877
-0.006717575
0.00150882
-0.007193552
0.0008890115
0.01769464
-0.006842242
0.001680592
-0.01578693
-0.01390035
-0.01434408
-0.01745223
-0.01525038
-0.01646162
-0.01736509
-0.0158776
-0.01773086
-0.01865497
-0.0182944
-0.01931979
-0.01669548
-0.01070829
-0.01353008
-0.0139001
0.002017381
-0.009355031
0.01532562
-0.006507399
-0.0002778974
0.0211011
0.004209651
-0.007514382
0.001579269
-0.01439323
-6.66368e-05
-0.00808527
0.001881268
-0.008851017
0.0003288425
-0.01021125
-0.0009189559
-0.008992247
-0.0006860255
-0.0103168
-0.0009997025
-0.01008507
-0.0007552947
-0.009614379
-0.000428262
-0.009965914
4.141589e-05
-0.009934583
-0.0009285089
-0.009551399
0.0002940477
-0.009582356
-0.0003597385
-0.009150909
-0.0002747421
-0.009054208
4.238375e-05
-0.009530729
0.0003209608
-0.009520419
-0.000417304
-0.009078592
-0.0002985175
-0.008956642
5.885678e-05
-0.009474149
0.0003682635
-0.009465814
-0.0004479589
-0.008989786
-0.0003064034
-0.00884766
8.902272e-05
-0.009409879
0.0004278713
-0.009390771
-0.0004519189
-0.008891859
-0.0002990994
-0.008741263
0.0001293452
-0.009335197
0.0004888897
-0.009317551
-0.0004450238
-0.008802371
-0.0002898587
-0.008651217
0.0001631863
-0.009258908
0.0006200138
-0.009177692
-0.0004194572
-0.008625205
-0.0002438523
-0.008475776
0.0002697715
-0.009111128
0.000710637
-0.009079863
-0.0003756318
-0.008508889
-0.0002057815
-0.008378999
0.0003326302
-0.009009236
0.000929464
-0.008879426
-0.0002815075
-0.008255797
-0.0001037854
-0.008144614
0.0004903977
-0.008783062
-3.356128e-05
-0.007995842
0.0005928956
-0.008633054
0.001211979
-0.008559503
-0.0001254173
-0.007898481
5.159983e-05
-0.007830206
0.0007147812
-0.008450201
0.001346027
-0.008378022
-4.985271e-05
-0.007699542
0.002021672
-0.007364766
0.0005005093
-0.006704136
0.0006916612
-0.006740308
0.001504274
-0.007218908
0.002247992
-0.007009059
0.0007128587
-0.006388583
0.0008889929
0.0169085
-0.006895575
0.001685754
-0.007984413
-0.002232097
-0.01744498
-0.01325316
-0.01323146
-0.01301044
-0.01445556
-0.01424493
-0.01534821
-0.0129893
-0.01386679
-0.01299447
-0.01300512
-0.01336206
-0.01428268
-0.01416482
-0.014615
-0.01670242
-0.01656594
-0.01513309
-0.0145209
-0.01759323
-0.01517279
-0.01287216
-0.01579028
-0.01688772
-0.01284092
-0.01312647
-0.01275775
-0.01472704
-0.01314192
-0.01364184
-0.01301927
-0.01385642
-0.01370198
-0.01360219
-0.01384759
-0.01338205
-0.007935696
-0.002326669
0.02421168
-0.008881866
-0.006067238
0.03650775
-0.006456237
-0.001507299
-0.005188158
-0.00309837
-0.003202373
-0.001654976
-0.0003866808
-0.004542831
-0.001341855
0.001052004
-0.001662806
0.001352792
-0.001273095
0.001193591
0.00140934
-0.00158475
-0.0004391592
-0.0095832
-2.555264e-07
-0.009808204
-0.001294482
0.001307782
-0.001651255
0.00146669
-0.001441348
0.0009444956
-0.001896182
0.001448856
-0.001325706
0.001328656
0.001483429
-0.00169391
-0.001480882
0.0009241654
-0.001954933
0.001472245
-0.00135437
0.001355572
0.001505673
-0.001733714
-0.001568756
0.0008909213
-0.002082434
0.001523507
-0.001412246
0.001418154
0.001565334
-0.001821811
0.0005330067
-0.009260505
-0.0004659411
-0.008732404
-0.0003129723
-0.008578587
0.000199115
-0.009222213
-0.001469659
0.001500597
0.001647929
-0.001914286
-0.001712942
0.0008726252
-0.002289525
0.001630229
-0.00149584
0.001550788
0.001702904
-0.00196361
-0.001763163
0.0008789027
-0.002362196
0.001678534
0.0008024201
-0.008980707
-0.0003345833
-0.008404769
-0.0001617753
-0.008292088
0.0004042018
-0.008920685
-0.001548657
0.001675754
0.001833017
-0.002062369
-0.001864073
0.0009164897
-0.002511994
0.001799565
0.001066671
-0.008724506
-0.0002097089
-0.008088561
0.0001065577
-0.007675277
0.0008210201
-0.008267787
0.001466997
-0.008180002
3.686544e-05
-0.007498507
0.0001952077
-0.007488903
0.0009633622
-0.008069212
0.001801635
-0.007680905
0.0002985912
-0.006998764
0.000474709
-0.007026206
0.001301438
-0.007548221
-0.001661393
0.002504464
0.002612936
-0.002323604
-0.002130676
0.001511676
-0.002943213
0.002605882
-0.001695724
0.002633141
0.00274117
-0.002389746
-0.0021973
0.001613487
0.002754325
-0.003050518
-0.008925192
-0.01460147
-0.0148076
-0.01465585
-0.01309558
-0.01305351
-0.01684811
-0.01708239
-0.01374015
-0.01333644
-0.01529914
-0.01499476
-0.0143454
-0.01378375
-0.01323728
-0.01500633
-0.01506317
-0.01327851
-0.01780946
-0.01354459
0.0247996
0.02292819
0.002454739
0.005371838
0.01007932
0.03311564
0.03189051
0.01303919
0.04296863
0.01998234
0.02417688
0.04313476
0.02545134
0.05085728
0.05062786
0.02907919
0.05911411
0.03520142
0.04054522
0.06053213
0.03998973
0.06547785
0.06561972
0.04379211
0.07363836
0.04968373
0.05524177
0.0752063
0.05442754
0.07986538
0.07992813
0.05818915
0.08799764
0.06413946
0.06976953
0.08955372
0.06895898
0.09425801
0.09430689
0.07270924
0.1023589
0.08422312
0.1038378
-0.009863286
-0.0003764359
-0.009471983
0.0001739178
-0.009293809
-0.009788508
-0.0002141341
6.18668e-06
-0.009635092
-0.009252376
0.0002792493
-0.000292657
-0.009178245
6.158202e-05
-0.009604447
-0.0002099985
-0.007949367
0.0001573104
-0.007261854
0.001622273
-0.007274338
0.001121366
-0.007825205
0.0003203747
-0.01832748
-0.01266716
-0.01489482
-0.01331792
-0.01355192
-0.01552021
-0.01423133
-0.01360847
-0.01338592
-0.01563665
-0.01291159
-0.01346815
-0.01382051
-0.01317539
-0.01651843
-0.01317734
-0.01393
-0.015526
-0.009461971
-0.01415792
0.01428339
-0.01881048
0.01930451
-0.01367123
-0.01370311
-0.001753893
-0.01127037
-0.008246413
-0.007903584
0.03236311
0.02252046
-0.009725114
-0.006753462
-0.004947281
-0.008411074
-0.001788952
-0.002893079
0.000742782
-0.0005362076
-0.002052659
-0.001260464
0.001231947
0.001290771
-0.001416422
-0.001242966
0.001165754
-0.001471798
0.001326392
-0.001333444
0.00105545
0.001357802
-0.001665457
-0.001401367
0.0009784093
0.001440984
-0.001856543
-0.001306539
0.001313556
-0.001636333
0.001415143
-0.001417009
0.0009987894
0.001480547
-0.001887329
-0.001320796
0.00136132
-0.001649916
0.001445661
-0.001440783
0.001010681
0.001517308
-0.001928148
-0.001338608
0.00140611
-0.001672376
0.001479091
-0.001480359
0.001056207
0.001611419
-0.002003771
-0.001379044
0.001501901
-0.001719377
0.001553909
-0.00151644
0.001127009
0.001730272
-0.002077362
-0.001419418
0.001615441
-0.001769633
0.001647524
-0.001529349
0.001179196
0.001803716
-0.002108795
-0.001436271
0.001687749
-0.001790024
0.001705404
-0.001562419
0.001296683
0.001969333
-0.002185777
-0.001475745
0.00185224
-0.001840386
0.001840233
-0.001496458
0.001947602
-0.001867991
0.00192243
-0.001607748
0.002072409
0.002903962
-0.002394646
-0.001586245
0.002772775
-0.001995086
0.002643799
-0.001632186
0.002194341
0.003066809