/*--------------------------------*- C++ -*----------------------------------*\
  =========                 |
  \\      /  F ield         | OpenFOAM: The Open Source CFD Toolbox
   \\    /   O peration     | Website:  https://openfoam.org
    \\  /    A nd           | Version:  7
     \\/     M anipulation  |
\*---------------------------------------------------------------------------*/
FoamFile
{
    version     2.0;
    format      ascii;
    class       surfaceScalarField;
    location    "0.02";
    object      phi;
}
// * * * * * * * * * * * * * * * * * * * * * * * * * * * * * * * * * * * * * //

dimensions      [0 3 -1 0 0 0 0];

internalField   nonuniform List<scalar> 
270789
(
-0.05017878
0.0001980024
-0.002489644
0.001473258
-0.002438104
0.001085061
-0.001026938
0.012099
0.01246422
0.01446919
0.01434473
-0.04970595
0.0002145219
-0.0004160142
0.002255784
-0.002403799
0.0009794528
-0.001102779
-0.04968964
-5.555197e-05
-0.0001212957
0.002409761
-0.002334274
0.001102545
-0.001017498
-0.04969446
-3.708234e-05
-3.737366e-05
0.002388864
-0.002350034
0.001079917
-0.001039469
-0.04967468
-0.0001696694
-1.549905e-05
0.002409519
-0.002328022
0.001102182
-0.001018286
-0.0003501998
-2.589967e-05
0.002420782
-0.002302193
0.001120377
-0.0009975429
-0.04954
-0.04998066
-2.407441e-05
-0.003397305
0.01247506
0.01246557
0.01435976
0.01429964
-0.04890272
0.0002044984
-0.001067915
-0.04890271
9.402862e-05
-0.0001495966
-0.04891593
7.315974e-05
-9.701466e-05
-0.04895784
-0.0001182539
-9.500587e-06
-0.0003872446
-1.731117e-05
-0.04890349
-0.04970407
0.0001643585
-0.003948331
0.01245306
0.01244825
0.01429292
0.01426974
-0.04866843
0.0003316063
-0.001162753
-0.04862041
0.0003052997
-0.0002592945
-0.04870497
0.0002596939
-0.0001019724
-0.04885041
4.460558e-05
-1.741395e-05
-0.0003028648
-6.584213e-06
-0.04892821
-0.04949662
0.0003472155
-0.003968387
0.01240537
0.01241491
0.01423491
0.01422695
-0.04844678
0.0005531019
-0.001271338
-0.04846488
0.0006092669
-0.0002858711
-0.04865063
0.000573986
-0.0001285396
-0.04894066
0.0003586327
-2.399257e-05
-4.233865e-05
-8.332331e-06
-0.04919285
-0.04926113
0.0005666549
-0.004003304
0.01234512
0.01236545
0.01416786
0.01416656
-0.04829933
0.000868154
-0.001276854
-0.04841935
0.001032648
-0.0003033577
-0.04876246
0.001051034
-0.000133938
-0.04924218
0.0008649635
-2.66147e-05
0.000442462
-6.343353e-06
-0.04972063
-0.04896934
0.0008512073
-0.003984202
0.01224998
0.01228334
0.01406758
0.01406808
-0.04811315
0.001296959
-0.001284998
-0.04837862
0.001608381
-0.0003102607
-0.04891736
0.00173015
-0.0001403812
-0.04963652
0.001613959
-2.983117e-05
0.001207899
-6.846241e-06
-0.05039511
-0.04852148
0.001218441
-0.003952424
0.01210687
0.01215829
0.01392166
0.01391985
-0.04781145
0.00186268
-0.001275745
-0.04826072
0.002369358
-0.0003117079
-0.04903878
0.002649276
-0.0001410681
-0.05005004
0.002655952
-3.073578e-05
0.00231451
-6.645435e-06
-0.05115001
-0.04786316
0.001676333
-0.003895953
0.01190342
0.01197878
0.01371298
0.01370604
-0.0473249
0.002585617
-0.001261204
-0.0479941
0.003349288
-0.0003107296
-0.04905527
0.003851017
-0.0001405698
-0.05041305
0.004043979
-3.025167e-05
0.003830673
-6.37114e-06
-0.05192284
-0.0469229
0.002234754
-0.003812648
0.01162224
0.01172639
0.01342138
0.01340712
-0.04658613
0.00348716
-0.001238312
-0.04750908
0.004579127
-0.0003068914
-0.04890014
0.005380347
-0.0001382713
-0.05066445
0.005836686
-2.83961e-05
0.005828638
-4.149431e-06
-0.05265826
-0.04562647
0.002903612
-0.003698058
0.01124952
0.01138454
0.01301737
0.01300424
-0.04551687
0.00458331
-0.001205751
-0.04672548
0.006087879
-0.0003001448
-0.04849177
0.007281027
-0.0001343862
-0.05072906
0.008099666
-2.569726e-05
0.008394082
-6.796725e-07
-0.05329382
-0.0438898
0.00368359
-0.003545489
0.01076421
0.01093307
0.01248442
0.01247361
-0.04402966
0.005884095
-0.001160921
-0.04555
0.007898404
-0.0002901836
-0.04773315
0.009592909
-0.0001287326
-0.0505102
0.01089904
-2.231643e-05
0.01162859
4.035478e-06
-0.05374873
-0.04162723
0.004577268
-0.00334523
0.01014841
0.01035247
0.01179132
0.01178657
-0.04202638
0.007384573
-0.001101327
-0.04387392
0.01002164
-0.0002756994
-0.04650526
0.01234413
-0.000119874
-0.04988361
0.01429413
-1.674539e-05
0.01564009
1.116072e-05
-0.05390627
-0.03874042
0.005577231
-0.003094428
0.009379635
0.009618514
0.01091968
0.01091706
-0.03939814
0.009068003
-0.00102571
-0.04156628
0.01244802
-0.0002582357
-0.04465306
0.01554452
-0.000113596
-0.04867553
0.01833367
-1.707066e-05
0.02054377
9.778277e-06
-0.05358899
-0.03515066
0.006657542
-0.002786731
0.008439385
0.008711175
0.009853272
0.009853254
-0.0360489
0.01089175
-0.0009255072
-0.03849621
0.01512572
-0.0002303799
-0.04200832
0.01915668
-0.0001000452
-0.04667919
0.02301734
-1.279831e-05
0.02641523
1.543319e-05
-0.05256609
-0.03075566
0.007785218
-0.002409403
0.007302488
0.007605998
0.008562928
0.00856598
-0.03184852
0.01280557
-0.0008209616
-0.03448192
0.01798389
-0.0002247622
-0.03830764
0.02311928
-0.0001368773
-0.04353924
0.02833064
-8.170848e-05
0.03335451
-7.654713e-05
-0.05040197
-0.0255964
0.008907448
-0.001972967
0.005983172
0.006317944
0.007067263
0.00707876
-0.02680335
0.01469682
-0.0006843
-0.0294711
0.02089562
-0.0002439821
-0.03341568
0.02727686
-0.0002129867
-0.03898719
0.03411669
-0.0002145367
0.04125704
-0.0002376454
-0.04665207
-0.01941973
0.009877274
-0.001422073
0.004437703
0.004781767
0.005310834
0.005341671
-0.02061612
0.01669788
-0.0008046635
-0.02307754
0.02406398
-0.0007069284
-0.02675851
0.03191075
-0.0009529194
-0.03216474
0.04073332
-0.001210385
0.05069584
-0.001521399
-0.04008214
-0.01253617
0.002627119
-0.001289528
0.002744792
0.002876359
0.003433494
0.003477887
0.002323958
0.003105831
0.00311353
-0.0136223
0.004743665
-0.001627685
0.004156344
0.00525403
0.005257658
-0.01542881
0.006816424
-0.002403461
0.006144093
0.007644993
0.007668446
-0.0183025
0.009085546
-0.003219892
0.008307069
0.01028655
0.01032517
-0.02276346
0.01175372
-0.004192501
0.01081213
0.01338372
0.01343721
0.0149508
-0.005334903
0.0137671
0.01709005
0.01716855
-0.02970922
0.001720655
-0.001620858
-0.0002376302
0.0006428618
0.0007704809
0.0007727401
0.0005788694
0.002133821
-0.001830757
-0.0004036737
0.001353704
0.001110287
0.001336165
0.001044117
0.002357797
-0.002064612
-0.0005704264
0.001981503
0.001615264
0.001955416
0.001541484
0.002682585
-0.002420585
-0.0007691684
0.00267912
0.002177119
0.002645871
0.002090607
0.003216432
-0.002982113
-0.001004146
0.003496642
0.002840247
0.003455646
0.002731012
0.004043883
-0.003884661
-0.001285271
0.004487004
0.003648806
0.004438966
0.003502084
0.005409361
-0.001647934
0.00468677
0.005695568
-0.0189595
-0.005406884
0.005746102
0.004476523
1.047738e-05
-0.0001293583
-6.404901e-06
-1.7194e-05
1.232518e-05
-0.0002357914
-7.900529e-06
-3.107754e-05
1.558488e-05
-0.0003520844
-1.028687e-05
-4.652416e-05
2.004725e-05
-0.0004823109
-1.36098e-05
-6.426867e-05
2.677885e-05
-0.0006348645
-1.867251e-05
-8.560315e-05
3.717889e-05
-0.0008217112
-2.667595e-05
-0.0001125953
5.474194e-05
-0.001063459
-4.05141e-05
-0.0001489466
3.146767e-05
-0.0003927914
0.0005909982
-1.778313e-05
7.324892e-05
5.227172e-05
7.261004e-05
-0.0004100177
1.499459e-06
-0.0008253964
0.001022303
-5.25068e-06
8.128011e-05
3.071698e-05
6.256989e-05
-0.0003677188
-2.591776e-05
-0.00130017
0.001503236
1.947041e-05
8.673007e-05
1.332173e-05
5.332979e-05
-0.0003499968
-4.559331e-05
-0.001808139
0.002034685
2.610444e-05
0.0001036089
6.269664e-06
5.449608e-05
-0.0003714302
-6.263099e-05
-0.002331103
0.00256156
5.805601e-05
0.0001224151
3.370452e-06
5.980664e-05
-0.0004114721
-7.354985e-05
-0.002905377
0.003192314
7.306907e-05
0.0001509387
9.117467e-06
7.51291e-05
-0.0005216388
-7.917379e-05
-0.003584577
0.0001086594
2.398411e-05
0.003935416
0.0001901319
0.0001005434
-0.0006949817
0.0003303917
0.002494589
-0.01139636
-0.0004254812
-4.698415e-05
-0.0003337071
0.0002702326
1.786558e-05
0.003213473
0.002654206
0.003221777
0.0005930515
0.01153616
-0.01117308
-0.0004576109
-0.0005366252
-0.0002944449
0.0003047895
2.776246e-05
0.0005846449
0.01159258
-0.01119822
-0.0004477529
-0.0005276952
-0.0003107214
0.0002943906
1.278003e-05
0.0005896934
0.01154844
-0.01112649
-0.0004674355
-0.0005609078
-0.0003088128
0.0003032849
2.22276e-05
0.0005914159
0.01146064
-0.01106283
-0.0004656962
-0.0005548515
-0.0003055454
0.0003083765
2.849544e-05
0.0005898202
0.01139849
-0.01099766
-0.0004750707
-0.0005538981
-0.0003038225
0.0003108971
3.124561e-05
0.0005869546
0.01132142
-0.0004874454
-0.000550612
0.0003117446
-0.01091291
-0.0003019832
3.282598e-05
0.0004742969
0.0005026182
-0.0136703
-0.0003380355
-0.000365118
-0.0001085592
0.0007486285
-0.0001045686
-5.46724e-05
0.0007870226
-5.891164e-05
-0.05573524
-0.0001485426
-0.001338827
0.0005026612
-0.0006462375
0.0002687253
-0.0009079903
0.01394527
0.01411602
0.01370069
0.0137538
-0.05599224
-5.654569e-05
-1.472115e-05
0.0006320838
-0.0006432529
0.000466905
-0.0005434855
-0.05603413
-0.0001795666
-0.0001350529
0.000697609
-0.0005833447
0.0005685542
-0.0004476071
-0.05607828
-0.0001136071
-5.162761e-05
0.0006490748
-0.0005964915
0.0005336862
-0.0004142577
-0.05603858
-0.0002260254
-1.035958e-05
0.0006598225
-0.0005804883
0.0005188925
-0.000417032
-0.0004235165
-1.111821e-05
0.0006756024
-0.0005585617
0.0005284543
-0.0003932459
-0.0558821
0.0008938295
0.0002275217
-0.01345657
-0.0001115842
-0.00128923
-7.502762e-05
0.0008978367
-7.425305e-05
-0.05699445
6.892895e-05
-0.001455733
0.01384325
0.0138286
0.01360745
0.01355609
-0.05695545
0.0002537731
-0.001417245
-0.05696136
8.701417e-05
-0.0004102637
-0.05694574
6.600685e-05
-0.0002922553
-0.05694806
-0.0001480675
-8.513241e-05
-0.0004546823
-6.168108e-05
-0.05687253
0.0009082822
3.97738e-06
-0.01344619
1.609754e-05
-0.001540281
-7.610975e-05
0.000912348
-7.822479e-05
-0.05691524
0.0001678791
-0.002042629
0.01386358
0.01385001
0.01360195
0.01359503
-0.0567629
0.0003714212
-0.001432747
-0.05670327
0.0003300417
-0.0005619511
-0.05676354
0.0002863048
-0.0002620014
-0.05689166
3.985277e-05
-7.721894e-05
-0.0003565594
-2.481546e-05
-0.05697155
0.0009070296
-1.605411e-05
-0.0133794
1.923658e-05
-0.001560357
-7.614416e-05
0.000908834
-7.899527e-05
-0.0567729
0.0003925807
-0.002111726
0.01380902
0.01379846
0.01354709
0.01353696
-0.05655251
0.0006365956
-0.001756911
-0.05653944
0.0006986683
-0.0006675725
-0.05669307
0.0006647946
-0.0003533997
-0.05698088
0.0004120276
-0.0001083613
-5.006786e-05
-3.398855e-05
-0.05726172
0.0009022932
-2.046323e-05
-0.01331339
2.611457e-05
-0.001548412
-7.635075e-05
0.0009044391
-7.929727e-05
-0.05649778
0.0006338201
-0.002194689
0.01375034
0.01373751
0.01348449
0.01347559
-0.05636639
0.001002419
-0.001774076
-0.05645346
0.001193914
-0.0007115297
-0.05677802
0.001221469
-0.0003660579
-0.05728222
0.001003847
-0.0001142353
0.0005145936
-2.864092e-05
-0.05782458
0.0008958293
-2.849632e-05
-0.01321053
3.646026e-05
-0.001538986
-7.635517e-05
0.0008986306
-7.908017e-05
-0.05615579
0.0009543851
-0.002192214
0.01365041
0.01363567
0.01338451
0.01337264
-0.05612639
0.00150011
-0.001812091
-0.05637556
0.001868527
-0.0007356962
-0.05692043
0.002012378
-0.000386426
-0.05769911
0.001876754
-0.0001240526
0.001405833
-3.082502e-05
-0.05856638
0.0008864314
-4.166851e-05
-0.01306136
5.091375e-05
-0.001523097
-7.643774e-05
0.0008900272
-7.877543e-05
-0.05563198
0.001364549
-0.002177454
0.0135033
0.01348452
0.0132384
0.01322063
-0.05575724
0.002153984
-0.001804362
-0.05621868
0.002758761
-0.000740502
-0.05703978
0.003082842
-0.0003904298
-0.05815538
0.003088524
-0.0001269038
0.002692116
-3.043879e-05
-0.05941787
0.0008736504
-5.795728e-05
-0.01285195
6.909056e-05
-0.001501771
-7.615949e-05
0.0008779875
-7.824529e-05
-0.05487018
0.001881382
-0.002144013
0.01329446
0.0132689
0.01303205
0.013006
-0.05517914
0.002989609
-0.001787866
-0.05589663
0.003903698
-0.0007381819
-0.05704788
0.004484625
-0.0003911021
-0.05856645
0.004704786
-0.0001279391
0.00445264
-3.005121e-05
-0.06030329
0.0008562843
-7.875049e-05
-0.01256406
9.164544e-05
-0.001472431
-7.549391e-05
0.000861416
-7.736788e-05
-0.05378608
0.002514574
-0.00209604
0.01300445
0.01297221
0.01274699
0.01271263
-0.05431241
0.004032289
-0.001754657
-0.05532793
0.005340708
-0.000728382
-0.05686455
0.006269645
-0.0003866738
-0.0588574
0.006795622
-0.0001263791
0.006776347
-2.780581e-05
-0.06115744
0.0008331038
-0.0001046617
-0.01217769
0.0001188402
-0.001433
-7.419002e-05
0.0008391752
-7.582215e-05
-0.05229827
0.003276286
-0.002029479
0.01261379
0.01257287
0.01236272
0.0123186
-0.05306623
0.005301415
-0.001706911
-0.05441928
0.007105591
-0.0007119742
-0.05639622
0.008490729
-0.0003785347
-0.05894019
0.009436974
-0.0001230708
0.00976642
-2.431049e-05
-0.06190662
0.0008025335
-0.0001354821
-0.01167223
0.0001504947
-0.001380814
-7.23003e-05
0.0008097334
-7.365524e-05
-0.0503108
0.004174611
-0.001941826
0.01209926
0.01204897
0.01185712
0.01180346
-0.05134159
0.006812702
-0.001641411
-0.05306539
0.009227497
-0.0006882881
-0.0555344
0.01119782
-0.0003668077
-0.05870969
0.01270888
-0.0001189213
0.01354165
-2.113141e-05
-0.06245976
0.0007629284
-0.0001711755
-0.01102557
0.000186706
-0.001313865
-6.956096e-05
0.0007715564
-7.057117e-05
-0.04772186
0.005212014
-0.00182861
0.01143769
0.01137763
0.0112075
0.01114502
-0.04902748
0.008572057
-0.001555059
-0.05114488
0.01172469
-0.0006554816
-0.05414814
0.01443202
-0.0003508086
-0.05803056
0.01668897
-0.0001144161
0.01823665
-1.87131e-05
-0.06269568
0.0007127486
-0.0002118085
-0.01021484
0.0002263884
-0.001228434
-6.611008e-05
0.0007229222
-6.673003e-05
-0.04442452
0.006380825
-0.001684619
0.01060297
0.01053444
0.01038891
0.01031958
-0.04600307
0.01057155
-0.001446647
-0.04851509
0.01459594
-0.0006174651
-0.05207093
0.01821345
-0.0003391834
-0.05671837
0.02144334
-0.0001240007
0.02399495
-3.703419e-05
-0.06242986
0.0006501099
-0.0002565275
-0.009219977
0.000269277
-0.001121418
-6.196893e-05
0.00066172
-6.205771e-05
-0.04032538
0.00765798
-0.001502915
0.009575053
0.009498708
0.009381951
0.009308696
-0.04215543
0.01278331
-0.001307206
-0.04502906
0.01780883
-0.0005696463
-0.04911285
0.02252968
-0.0003324827
-0.05454255
0.02701493
-0.00015468
0.03096315
-8.296771e-05
-0.06141234
0.000572723
-0.0003050422
-0.008019315
0.000312812
-0.0009868277
-5.657113e-05
0.000585302
-5.670698e-05
-0.03531988
0.009016719
-0.001271855
0.008326669
0.008245546
0.008160049
0.008091328
-0.03734151
0.01514603
-0.001162041
-0.04048236
0.02128738
-0.0005624502
-0.04497963
0.02730745
-0.00041737
-0.05111073
0.03338571
-0.0003213754
0.03926372
-0.0003122673
-0.05917558
0.0004799674
-0.0003514652
-0.006617157
0.000355433
-0.0008270294
-5.041541e-05
0.0004928694
-5.009675e-05
-0.02939008
0.01038812
-0.001015741
0.006866383
0.006784482
0.006732551
0.00667804
-0.03150448
0.0175482
-0.000972065
-0.0347167
0.0248785
-0.0006228816
-0.03938641
0.03240116
-0.0006369864
-0.04597688
0.04045197
-0.0006903292
0.04890407
-0.0007854323
-0.05506944
0.000368248
-0.0004007475
-0.004986075
0.0003887179
-0.0006290033
-4.419394e-05
0.0003817394
-4.256034e-05
-0.02235837
0.01166375
-0.0006239578
0.00514072
0.005069116
0.00504808
0.005026709
-0.02427346
0.01966256
-0.00100392
-0.02718411
0.0281076
-0.001025381
-0.03152956
0.0372381
-0.001444411
-0.03799744
0.04755237
-0.001842908
0.05929156
-0.002339387
-0.04756694
0.000245887
-0.0004379289
-0.003229038
0.0004228413
-0.0003878977
-3.385208e-05
0.0002585336
-3.091555e-05
-0.01412575
0.0029575
-0.0006595731
0.003280764
0.003268164
0.003236647
0.003297575
0.003078582
0.002968608
0.003071702
-0.01522686
0.004889806
-0.000755077
0.005018578
0.004882981
0.005099696
-0.01718229
0.007143699
-0.00130046
0.00729825
0.007110623
0.00740746
-0.0203896
0.009631707
-0.001808569
0.009829544
0.009605882
0.009966965
-0.02553764
0.01256447
-0.00241448
0.0128254
0.01253677
0.01299574
0.01609735
-0.003066717
0.01645377
0.01606054
0.01667249
-0.03379842
0.0001234648
-0.001732638
-0.0001298565
0.0001686337
0.0001586337
0.0001548469
0.0002060381
-0.0005748262
-5.920434e-06
9.78703e-05
6.741673e-06
-1.077383e-05
0.001671862
-0.001518946
0.002756261
5.909616e-05
3.665853e-06
0.001608136
-0.001575897
0.004783459
7.044166e-05
3.167005e-05
0.001784229
-0.001798014
0.007013324
0.0001124895
9.10129e-05
0.002057317
-0.002132922
0.009516894
9.940628e-05
0.0001681221
0.002496103
-0.002676247
0.0124642
0.0001122985
0.0002738389
0.003212541
-0.003582523
0.01607797
0.0001155199
0.0004341061
0.004436495
0.0207704
7.745265e-05
-0.02054872
-0.005169738
6.022229e-06
4.704347e-05
0.0001926097
1.141501e-05
6.840753e-05
4.904421e-05
6.928582e-05
1.146518e-05
-1.930159e-05
2.121511e-06
-0.0004381114
0.003845546
1.782333e-05
1.545145e-05
0.0001155109
-0.0004596075
-0.0004521428
0.0001861029
0.0003197374
0.0001659615
0.0002799149
-0.002936031
-7.971661e-05
2.666749e-05
-0.0005108929
-0.0005343195
0.005761699
-7.478458e-05
-1.329631e-06
0.0001640793
0.0001899751
0.0003639768
0.0001279272
0.0003433878
-0.003000869
-9.834772e-05
6.983774e-05
0.007745802
-0.0002030116
-2.821733e-05
0.0001983808
0.0001267235
0.0004031072
0.0001362386
0.0004105657
-0.003029091
-9.144649e-05
9.265006e-05
0.009835979
-0.0001065849
-6.306393e-05
0.0002080184
9.300879e-05
0.0004678991
0.0001340452
0.0004600013
-0.003258757
-0.0001307392
0.0001059924
0.01228331
-9.914535e-05
-0.0001067406
0.0002418856
8.207595e-05
0.0005577431
0.0001315493
0.0005351765
-0.00375316
-0.0001681796
0.0001314678
-9.872708e-05
-0.0001366857
0.0002881425
0.0001119618
0.0006867816
0.0001493401
0.0006516092
0.01535986
-0.004667815
-0.0002163309
0.0001551747
0.002707532
-0.0001665706
-0.01121614
-0.0006903143
0.0001562442
0.003246669
0.0027159
0.003246675
-0.04850051
-0.0007978216
-0.0004224704
0.001244657
-0.001829077
0.0009305688
-0.0002940557
0.01074717
0.01391639
0.01116179
0.01384336
-0.04762678
-0.0008848251
0.0002147664
0.001779283
-0.001910763
0.000493801
-0.0005660003
-0.04770952
-7.495793e-06
-0.0002147126
0.001973876
-0.001826562
0.0006084262
-0.0004507904
-0.04754395
-0.0001925958
-3.466661e-05
0.00189491
-0.001853336
0.000531487
-0.0005113606
-0.0001962293
-7.043548e-05
0.001898471
-0.001834331
0.0005418486
-0.0004981013
-0.04738517
0.000925187
0.0002668544
-0.01356053
-0.001233851
-0.0001465838
-4.233056e-05
0.0009197939
-3.489805e-05
-0.0546116
-0.0005516905
-0.000720789
0.0006188619
-0.0006617233
0.0005632327
-0.0007445273
0.01360077
0.01386025
0.01356777
0.01374061
-0.05541164
-0.0001671065
0.0001546063
-0.05591812
-0.0004302123
-8.319067e-05
-0.05581921
-0.0001332848
-2.475555e-05
-0.05577886
-0.0002399346
-3.367285e-06
-0.0003848106
-1.161216e-06
-0.05560024
-0.05433783
-0.0006361777
-0.0008823301
0.001956775
-0.0006237085
0.003050863
-0.0005751723
0.001950284
-0.0006047215
0.003043268
-0.0005540971
-0.05566044
1.612514e-05
-0.0007009462
-0.05618364
-0.0001631604
-0.0008980029
-0.05655072
-0.0001168954
-0.0003565031
-0.05672816
-1.485247e-05
-0.0002332545
-0.05679527
-0.0001886196
-6.934162e-05
-0.0004540536
-3.779397e-05
-0.05674992
-0.05435953
5.235316e-05
-0.001458377
0.003284069
-0.0005306283
0.003371785
-0.0005003048
-0.05553121
0.0001668741
-0.001021709
-0.056423
0.0002677444
-0.0009718724
-0.05677484
0.0002354321
-0.0005624377
-0.05702987
0.0002367523
-0.0002585931
-0.0572301
1.464125e-05
-8.025302e-05
-0.0003616378
-1.614486e-05
-0.05733119
-0.05429927
0.0001320307
-0.001700491
0.003387029
-0.000476009
0.003398064
-0.0004660221
-0.05558883
0.0004128867
-0.001068188
-0.05634511
0.000544795
-0.001277698
-0.0566888
0.0006495102
-0.0007379638
-0.05706475
0.0006288971
-0.0003695921
-0.05743498
0.0003959827
-0.0001194866
-5.624588e-05
-2.468522e-05
-0.05774968
-0.05406112
0.0002057689
-0.00170764
0.003367676
-0.0004701684
0.003377827
-0.0004654901
-0.05534984
0.0006403691
-0.001133456
-0.05622461
0.0009710799
-0.001325591
-0.05665425
0.001177889
-0.0008102758
-0.0571964
0.001212352
-0.0004073619
-0.05778273
0.001003164
-0.0001350897
0.0005160774
-2.152194e-05
-0.05836218
-0.05366973
0.0002947082
-0.00170339
0.003345411
-0.0004653574
0.00335821
-0.0004618991
-0.05504739
0.0009619681
-0.001136153
-0.05600542
0.001486612
-0.001369594
-0.05658769
0.001872285
-0.0008478244
-0.05734818
0.002023192
-0.0004367754
-0.05821141
0.001891573
-0.0001492375
0.001418581
-2.430123e-05
-0.05912043
-0.05308858
0.0004156341
-0.001684869
0.003308661
-0.0004638974
0.003325926
-0.0004600477
-0.05453952
0.001367811
-0.001132363
-0.05564634
0.002159305
-0.001370228
-0.05643622
0.002779432
-0.0008577671
-0.05747187
0.003114284
-0.0004458752
-0.05867423
0.003121439
-0.000154416
0.002720337
-2.41392e-05
-0.05998228
-0.05225827
0.0005671771
-0.001659553
0.00325793
-0.0004614116
0.00328083
-0.0004559245
-0.05379911
0.001880918
-0.00111628
-0.05507619
0.003008887
-0.00136036
-0.05611867
0.00394103
-0.0008573002
-0.05748495
0.00453834
-0.000448874
-0.05909425
0.004759627
-0.0001568253
0.004501571
-2.370614e-05
-0.06088182
-0.05110659
0.000754225
-0.001623259
0.003187434
-0.0004575315
0.003217288
-0.0004496746
-0.05274389
0.002514284
-0.001092108
-0.05421951
0.004066016
-0.001336164
-0.05555917
0.005399298
-0.0008469852
-0.05731277
0.006350714
-0.000445433
-0.0594021
0.00687834
-0.0001557606
0.006851948
-2.152454e-05
-0.06175875
-0.04955587
0.0009789134
-0.00157491
0.003093054
-0.0004512743
0.003131275
-0.0004401623
-0.051294
0.003280919
-0.001057981
-0.05298983
0.005355018
-0.001300078
-0.05466707
0.00719314
-0.0008285721
-0.0568654
0.008607671
-0.0004371558
-0.05951431
0.009556353
-0.0001521535
0.009877169
-1.788034e-05
-0.06254595
-0.04751873
0.001243153
-0.001510492
0.002969095
-0.0004420462
0.003017371
-0.0004262682
-0.04935888
0.004191005
-0.001011756
-0.05129141
0.006895741
-0.001249601
-0.05334224
0.009356299
-0.0008006083
-0.05604097
0.01136339
-0.000423794
-0.05933326
0.01287635
-0.0001466143
0.0136975
-1.395024e-05
-0.06316077
-0.04490698
0.001547606
-0.001427625
0.002810215
-0.000428647
0.002869491
-0.0004075488
-0.04684161
0.005249144
-0.0009521225
-0.04901875
0.008700247
-0.001182419
-0.05147088
0.0119147
-0.0007617466
-0.05471696
0.01466461
-0.0004059381
-0.05873505
0.01692144
-0.000141412
0.01845256
-1.290391e-05
-0.06349592
-0.0416245
0.001892051
-0.001321778
0.002609774
-0.000410804
0.002680624
-0.0003833474
-0.04364167
0.006456413
-0.0008747119
-0.04605792
0.01076692
-0.001097072
-0.04892106
0.01487473
-0.0007143394
-0.05274008
0.01853651
-0.0003920698
-0.0575528
0.0217624
-0.0001522391
0.02429068
-3.558695e-05
-0.06339237
-0.03759615
0.002268898
-0.001191401
0.002362738
-0.0003862658
0.002445523
-0.0003513608
-0.03966296
0.007794167
-0.0007738571
-0.04229694
0.01308033
-0.00098663
-0.04554671
0.0182112
-0.0006563575
-0.04992054
0.02296831
-0.0003904417
-0.0555554
0.02743961
-0.0001970314
0.03136512
-0.0001076929
-0.06260511
-0.03272013
0.002681215
-0.001026795
0.002059922
-0.0003557007
0.002154316
-0.0003119048
-0.03482157
0.009267961
-0.0006442065
-0.0376019
0.01556884
-0.0008702265
-0.04114436
0.02182425
-0.0006330257
-0.04595349
0.02785054
-0.000490476
-0.05234416
0.03391714
-0.0004082253
0.03979989
-0.0004025874
-0.06068861
-0.02705275
0.003115019
-0.0008420138
0.001708347
-0.0003092775
0.00181061
-0.0002570652
-0.02902753
0.01072952
-0.0005025257
-0.03187092
0.01815984
-0.0007196685
-0.03544103
0.02542061
-0.0006491365
-0.04039133
0.03289073
-0.0007268805
-0.0472549
0.04092868
-0.0008383
0.04944539
-0.0009792518
-0.05670659
-0.02033204
0.003817718
-0.0005293223
0.001274178
-0.0002653503
0.001355609
-0.0002034809
-0.02225718
0.01231525
-0.0002845501
-0.02440296
0.01996705
-0.0006653467
-0.02731823
0.02804961
-0.0007391066
-0.03174469
0.03695916
-0.001086387
-0.03839811
0.0471451
-0.001405923
0.05889735
-0.001789693
-0.04839977
-0.01331757
0.001199604
-0.0002836894
0.001252956
0.001438713
0.001271238
0.0007367959
-0.0001901725
0.0005786042
-8.228046e-05
-0.01356205
0.002994173
-0.0003291804
0.003085472
0.003026623
0.003123072
-0.01458967
0.02058005
-0.0003404592
-0.01615502
0.02895525
-0.0006407499
-0.01903778
0.03898393
-0.000950569
-0.02382114
0.0508256
-0.001311627
0.06521797
-0.001675686
-0.0315328
0.0001921212
-0.00158801
-7.372453e-05
0.0002056511
0.0002675263
0.0002062288
0.0002691176
0.001371923
-0.0001212532
-0.001081999
0.002760792
6.471068e-05
-0.003522742
-0.0004109906
-7.2093e-05
-0.0001051471
0.0007724566
0.001098955
0.001035749
0.001050667
0.00107438
0.00133421
-0.003313685
-0.0005516108
-0.0001342408
-0.0001827243
0.001638089
0.001591164
-0.004063038
-0.000897038
-8.644233e-05
-0.0001804569
0.002241204
0.002136309
-0.005444182
-0.001160399
-9.073501e-05
-0.0002142073
0.002891959
0.002748105
-0.001494595
-7.448631e-05
-0.0002313723
0.003721577
0.003514153
-0.008168027
0.003192164
-0.001053856
-0.000193883
-0.0003257091
0.0001261097
-0.000804965
-0.0009398592
0.004120657
-0.0008475172
-7.6286e-05
-0.0001937738
0.0001890832
0.005296123
-0.001076899
-9.644816e-05
-0.0002658091
0.0002636882
0.006666371
-0.001244362
-0.000124402
-0.0003373034
0.0003358226
-0.001538903
-0.0001380967
-0.0004500347
0.0003984335
0.008394974
4.543042e-05
-2.841182e-05
0.0001764306
1.924086e-05
6.442535e-05
4.625569e-05
6.4495e-05
-0.0003878652
0.003611716
3.83406e-05
-0.0004355337
-0.0004316937
0.0001560116
0.0002945812
0.000162471
0.0003737895
-0.002743456
-0.0005003854
-0.0005080186
0.005425385
-7.37605e-06
-0.002934936
0.007448451
-0.000117517
-0.002956082
0.009493429
-3.87062e-05
-0.003189755
0.01185471
-3.029257e-05
-0.003674495
-1.523048e-05
0.01482243
-0.004590119
0.002757472
-4.57649e-06
-0.01135943
-0.0007257533
-4.258932e-06
0.003286845
0.002755198
0.003294507
-0.04921733
-0.001501
-0.0002222583
0.01131589
0.01395697
0.01133435
0.01391091
-0.04789064
-0.001122819
1.089293e-05
-0.04801175
-1.937164e-05
-7.423078e-05
-0.04782638
-0.0002077796
-1.224958e-05
-0.0001967712
-2.484875e-05
-0.0476752
0.0009240671
9.56378e-06
-0.01350434
-0.001443629
-1.583864e-06
-3.563036e-05
0.0009267048
-3.558914e-05
-0.05428766
-0.0005389596
-0.0002473852
0.0005787275
-0.0007226369
0.0005796239
-0.0007276239
0.01356984
0.0137711
0.01356159
0.01374258
-0.05536686
-0.0003007606
3.355857e-05
-0.05599497
-0.0005203253
-5.756976e-05
-0.05582398
-0.0001839766
-3.114748e-05
-0.05576623
-0.000257481
-1.141605e-05
-0.0003869677
-7.542255e-06
-0.05556965
-0.05412839
-0.001021474
-5.726409e-05
0.003213167
-0.0005738874
0.003295072
-0.0005560935
-0.05524851
5.133466e-05
-0.0001711284
-0.05577978
-0.0002915743
-0.0003759288
-0.05625697
-0.0002123016
-0.0001873458
-0.05647627
-5.919969e-05
-0.0001387398
-0.05655094
-0.0002050024
-4.715648e-05
-0.0004525835
-2.327675e-05
-0.05649985
-0.05408893
5.590058e-05
-0.0001074803
-0.05498204
0.0002016997
-0.0002789763
-0.05607703
0.0002390855
-0.0004075594
-0.05672489
0.0001834525
-0.0003103371
-0.05706672
0.0002004361
-0.0001764187
-0.05729257
1.382028e-06
-6.079443e-05
-0.0003641908
-1.475063e-05
-0.05738237
-0.054104
0.0001346488
-0.0001641119
-0.05508899
0.0004143163
-0.0002958262
-0.05608641
0.0005222664
-0.0005634602
-0.0568251
0.0006237583
-0.000439586
-0.05732227
0.0006111911
-0.0002831905
-0.05773578
0.0003901658
-9.476241e-05
-5.677802e-05
-2.135172e-05
-0.05804654
-0.05383151
0.0002005022
-0.0001704373
-0.05485291
0.0006310541
-0.0003287952
-0.05602153
0.0009610314
-0.0005957382
-0.05687107
0.001167316
-0.0005043079
-0.05753471
0.001210231
-0.0003427676
-0.05817052
0.001006469
-0.0001155874
0.0005199602
-2.090923e-05
-0.05874788
-0.05345564
0.0002777377
-0.0001750894
-0.05456996
0.0009450797
-0.0003358678
-0.05582728
0.001472566
-0.0006238068
-0.05684121
0.001868397
-0.0005349743
-0.05772805
0.002033071
-0.0003727791
-0.05864694
0.001905557
-0.0001294401
0.001431037
-2.397911e-05
-0.05955834
-0.0528695
0.0003915903
-0.0001742011
-0.0540647
0.001346387
-0.0003384696
-0.05547969
0.002144117
-0.0006267939
-0.05670678
0.002782101
-0.0005443765
-0.05787455
0.003137578
-0.0003826139
-0.0591377
0.003149348
-0.0001350584
0.002745757
-2.469518e-05
-0.06045187
-0.05204014
0.000534754
-0.0001729452
-0.05333103
0.001855931
-0.0003349336
-0.0549153
0.002991676
-0.0006236464
-0.05639637
0.003951296
-0.0005454172
-0.05790005
0.004578416
-0.000386027
-0.05957606
0.004806107
-0.0001375745
0.004546055
-2.491298e-05
-0.06137514
-0.05088879
0.0007126539
-0.0001698165
-0.05228373
0.002486698
-0.0003279295
-0.05406459
0.004049177
-0.0006127994
-0.05584269
0.005421928
-0.0005395096
-0.05774021
0.006414394
-0.0003838836
-0.05990364
0.00695128
-0.0001374946
0.006923525
-2.409391e-05
-0.06227854
-0.04934142
0.0009281122
-0.0001663031
-0.0508482
0.00325279
-0.0003172938
-0.0528451
0.005342966
-0.0005969624
-0.0549599
0.007236465
-0.0005282902
-0.05731095
0.008706305
-0.0003780095
-0.06004374
0.009667624
-0.0001356901
0.009987182
-2.272044e-05
-0.06310254
-0.0473084
0.001184426
-0.0001593237
-0.04893235
0.00416791
-0.0003029227
-0.05116344
0.006897613
-0.0005731519
-0.05365219
0.00943537
-0.0005107594
-0.05651668
0.01151456
-0.0003675471
-0.05990656
0.01304354
-0.0001326387
0.01386302
-2.146662e-05
-0.06377488
-0.04470045
0.001483408
-0.0001514742
-0.04644147
0.005240368
-0.0002835653
-0.04891693
0.008733013
-0.0005423504
-0.05180976
0.01205326
-0.0004868063
-0.05524239
0.01489525
-0.0003540051
-0.05937842
0.01716936
-0.0001311979
0.01869666
-2.41972e-05
-0.06420077
-0.04142496
0.001827498
-0.0001405181
-0.04327853
0.006477461
-0.0002582321
-0.04599661
0.01085682
-0.000502808
-0.04930714
0.01510646
-0.0004570154
-0.05334249
0.01887943
-0.000340906
-0.05830323
0.02211963
-0.0001417768
0.02464296
-4.626061e-05
-0.06423885
-0.0374056
0.002210313
-0.0001273843
-0.03934209
0.007865027
-0.0002249323
-0.04228482
0.0132649
-0.0004519802
-0.0459974
0.0185837
-0.0004210175
-0.05062616
0.02345906
-0.0003413203
-0.05644765
0.02793754
-0.0001934501
0.03186722
-0.0001280158
-0.06365158
-0.0325466
0.002643088
-0.0001095244
-0.03455694
0.009413675
-0.0001825155
-0.03765035
0.015888
-0.0003999077
-0.04168318
0.02238093
-0.0003974424
-0.04675843
0.02843912
-0.0003952882
-0.05337336
0.03451226
-0.0003680173
0.04043522
-0.0003798103
-0.06196415
-0.02688487
0.00311192
-9.434208e-05
-0.02878408
0.01094903
-0.0001386782
-0.03191453
0.01862141