/*--------------------------------*- C++ -*----------------------------------*\
  =========                 |
  \\      /  F ield         | OpenFOAM: The Open Source CFD Toolbox
   \\    /   O peration     | Website:  https://openfoam.org
    \\  /    A nd           | Version:  7
     \\/     M anipulation  |
\*---------------------------------------------------------------------------*/
FoamFile
{
    version     2.0;
    format      ascii;
    class       volVectorField;
    location    "0.1";
    object      C;
}
// * * * * * * * * * * * * * * * * * * * * * * * * * * * * * * * * * * * * * //

dimensions      [0 1 0 0 0 0 0];

internalField   nonuniform List<vector> 
53911
(
(0.2480805 0.247127 0.04746803)
(0.4499551 0.2477298 0.04628138)
(0.6499726 0.2470712 0.04565362)
(0.8498802 0.2481066 0.0459516)
(1.049991 0.2492743 0.0463661)
(1.24999 0.2493497 0.0463867)
(1.449993 0.249352 0.0463758)
(1.649983 0.2491938 0.04631876)
(1.850089 0.2476943 0.04581082)
(2.050013 0.2480649 0.04586685)
(2.249955 0.2479762 0.04588653)
(2.450101 0.2470188 0.0456026)
(2.650024 0.2478687 0.04619996)
(2.851072 0.2479295 0.0479971)
(0.2487824 0.4498259 0.04663737)
(0.4988058 0.4984765 0.09629692)
(0.6988727 0.4978163 0.0945667)
(0.8991643 0.4973396 0.09389098)
(1.099528 0.4971163 0.09371175)
(1.299743 0.4969828 0.09363344)
(1.49987 0.4968981 0.09359361)
(1.699966 0.496772 0.09356612)
(1.900042 0.4966458 0.09355529)
(2.100153 0.4967988 0.09362474)
(2.30033 0.4971723 0.09383682)
(2.500347 0.4978019 0.09464718)
(2.700828 0.498696 0.09737111)
(2.84952 0.451342 0.04675942)
(0.24941 0.6499538 0.04645256)
(0.4982538 0.6987921 0.09465181)
(0.6979657 0.6978607 0.09161929)
(0.8985114 0.697202 0.09051272)
(1.099148 0.6967775 0.09018041)
(1.299528 0.6965527 0.09006336)
(1.499749 0.6964475 0.09001665)
(1.6999 0.6964124 0.09000659)
(1.900034 0.6964693 0.09003476)
(2.100217 0.6966947 0.09013684)
(2.30049 0.6971642 0.09046794)
(2.500409 0.6978727 0.09168472)
(2.700399 0.6988736 0.09580717)
(2.846423 0.6490471 0.0454824)
(0.2492799 0.8499012 0.04634323)
(0.4975382 0.8991559 0.09392796)
(0.697246 0.8984882 0.09051608)
(0.8979629 0.8979614 0.08913606)
(1.098805 0.8976138 0.08870191)
(1.299322 0.8974133 0.08854797)
(1.499626 0.8973212 0.08848907)
(1.699832 0.8973126 0.08848078)
(1.900015 0.8973942 0.08852195)
(2.100255 0.8975997 0.08865529)
(2.300599 0.8979681 0.08907532)
(2.500498 0.8985239 0.09055044)
(2.700573 0.8992555 0.09507922)
(2.846416 0.8489869 0.04525069)
(0.2491835 1.049955 0.04631764)
(0.4969636 1.099534 0.09367525)
(0.6967098 1.099145 0.09016915)
(0.8975718 1.098812 0.08869698)
(1.098538 1.098568 0.08820941)
(1.299146 1.098415 0.08803017)
(1.499512 1.098344 0.08796051)
(1.699762 1.098344 0.08795103)
(1.89998 1.098417 0.08799996)
(2.100252 1.098576 0.08815499)
(2.300626 1.098834 0.0886259)
(2.500542 1.099182 0.09020019)
(2.700618 1.099584 0.09487963)
(2.846878 1.048931 0.04510577)
(0.247389 1.250057 0.04570849)
(0.4964657 1.29975 0.09352571)
(0.6963799 1.299522 0.09003534)
(0.897321 1.29932 0.08853373)
(1.098351 1.29916 0.0880212)
(1.29901 1.299053 0.08782644)
(1.499416 1.299002 0.08774899)
(1.699695 1.299005 0.08773775)
(1.899931 1.299062 0.08779089)
(2.100209 1.299177 0.08795845)
(2.300569 1.299349 0.08845553)
(2.500432 1.299565 0.09007832)
(2.700398 1.299798 0.09485784)
(2.846306 1.249031 0.04526936)
(0.2465719 1.450005 0.04540606)
(0.4963632 1.499839 0.09348116)
(0.6962377 1.499721 0.08997768)
(0.8971822 1.4996 0.08846004)
(1.098231 1.499497 0.08793404)
(1.298913 1.499427 0.08772998)
(1.499339 1.499392 0.08764701)
(1.699632 1.499396 0.08763327)
(1.899871 1.499439 0.08768685)
(2.100134 1.49952 0.08785841)
(2.300441 1.499638 0.08836567)
(2.500177 1.499789 0.0900201)
(2.699956 1.499953 0.09485548)
(2.846216 1.448973 0.04526236)
(0.2484937 1.649942 0.04603734)
(0.4965682 1.69991 0.09351191)
(0.6962161 1.699836 0.08995635)
(0.8971159 1.69976 0.08842423)
(1.098158 1.699695 0.08788972)
(1.298845 1.699649 0.0876795)
(1.49928 1.699627 0.08759194)
(1.699576 1.699632 0.08757453)
(1.899807 1.699663 0.08762428)
(2.100038 1.699722 0.08778943)
(2.300262 1.699819 0.08828204)
(2.499788 1.699984 0.08992055)
(2.699147 1.700298 0.09487189)
(2.845786 1.649166 0.04541833)
(0.2485629 1.850014 0.04613973)
(0.4966717 1.899947 0.09352779)
(0.6962189 1.899902 0.08994701)
(0.8970812 1.899855 0.0884052)
(1.098112 1.899813 0.08786514)
(1.298799 1.899784 0.08765046)
(1.499234 1.899771 0.08755874)
(1.699528 1.899775 0.08753611)
(1.899746 1.899798 0.0875766)
(2.099938 1.89984 0.08772105)
(2.300074 1.899939 0.08815259)
(2.499466 1.900325 0.08956109)
(2.697731 1.900909 0.09396072)
(2.844415 1.850009 0.04532175)
(0.2492303 2.049999 0.04634551)
(0.4967197 2.099967 0.0935349)
(0.6962061 2.099941 0.08994005)
(0.897055 2.099911 0.08839386)
(1.098081 2.099885 0.08785044)
(1.298767 2.099867 0.0876323)
(1.4992 2.099859 0.08753637)
(1.699489 2.099862 0.08750696)
(1.899695 2.099878 0.08753366)
(2.099855 2.099906 0.0876442)
(2.299928 2.100005 0.08797302)
(2.499317 2.100675 0.08901089)
(2.698083 2.102948 0.09160788)
(2.843133 2.051617 0.04325001)
(3.04924 2.051402 0.0463845)
(3.249917 2.049914 0.04647814)
(3.449963 2.049791 0.04642871)
(3.650045 2.049745 0.04643605)
(3.849963 2.048983 0.04622081)
(4.050025 2.047762 0.04584365)
(0.2491573 2.249976 0.04631161)
(0.4965784 2.299991 0.09350244)
(0.6961496 2.299965 0.08992879)
(0.8970247 2.299946 0.08838561)
(1.098058 2.29993 0.08784101)
(1.298744 2.299918 0.0876202)
(1.499177 2.299913 0.08752)
(1.699461 2.299916 0.08748313)
(1.899657 2.299927 0.08749408)
(2.099799 2.299943 0.08756545)
(2.299848 2.300019 0.08777919)
(2.49933 2.300628 0.08847062)
(2.697318 2.302579 0.09068124)
(2.897259 2.301531 0.09130664)
(3.099418 2.301977 0.09301923)
(3.299855 2.301746 0.09322175)
(3.499985 2.301834 0.0932058)
(3.700027 2.302051 0.09319236)
(3.900032 2.302147 0.09319453)
(4.100007 2.302216 0.09321363)
(0.2473564 2.450064 0.04569976)
(0.4962327 2.500001 0.09342509)
(0.6960585 2.49998 0.08991349)
(0.8969909 2.499968 0.0883792)
(1.09804 2.499957 0.08783463)
(1.298729 2.49995 0.08761173)
(1.49916 2.499947 0.08750774)
(1.699442 2.49995 0.08746395)
(1.899633 2.499956 0.08746041)
(2.099765 2.499966 0.08749778)
(2.299824 2.500008 0.08761175)
(2.499612 2.500274 0.08793687)
(2.699284 2.500571 0.08843072)
(2.89928 2.500604 0.08887163)
(3.099635 2.500657 0.08923661)
(3.299914 2.500765 0.08942878)
(3.499974 2.500888 0.08945862)
(3.699998 2.501089 0.08946245)
(3.900007 2.501268 0.08947131)
(4.100004 2.501416 0.08948444)
(0.2462203 2.649981 0.04528379)
(0.4960211 2.699994 0.09337955)
(0.6959946 2.699987 0.08990336)
(0.8969692 2.69998 0.08837528)
(1.09803 2.699974 0.08783092)
(1.298721 2.699969 0.08760633)
(1.499152 2.699968 0.0874991)
(1.699431 2.69997 0.08744951)
(1.899619 2.699975 0.08743476)
(2.099747 2.699981 0.08744856)
(2.299825 2.699995 0.08749814)
(2.499856 2.70002 0.0875966)
(2.699862 2.700032 0.08774006)
(2.899875 2.700016 0.08789111)
(3.099911 2.700004 0.08800676)
(3.299954 2.700032 0.08807356)
(3.499981 2.700113 0.08810743)
(3.699996 2.700228 0.08813159)
(3.900003 2.700344 0.0881565)
(4.100002 2.700451 0.08817504)
(0.2461473 2.850001 0.04525998)
(0.4960196 2.899995 0.09338059)
(0.6959961 2.899992 0.08990334)
(0.8969707 2.899987 0.08837489)
(1.098031 2.899984 0.08782971)
(1.298721 2.899982 0.0876037)
(1.49915 2.899982 0.08749422)
(1.699428 2.899983 0.08744028)
(1.899613 2.899987 0.08741796)
(2.099738 2.899992 0.08741738)
(2.299824 2.899997 0.08743542)
(2.49988 2.9 0.08747154)
(2.699916 2.900001 0.08752292)
(2.899938 2.900001 0.08757906)
(3.099955 2.900007 0.08762691)
(3.299971 2.900031 0.08766386)
(3.499986 2.900081 0.08769685)
(3.699997 2.900148 0.08773268)
(3.900002 2.900222 0.08776935)
(4.100001 2.900299 0.08779562)
(0.2464846 3.05003 0.04537909)
(0.4962369 3.099985 0.09342476)
(0.696064 3.099993 0.08991346)
(0.8969967 3.099992 0.08837825)
(1.098044 3.099991 0.08783167)
(1.298729 3.09999 0.0876048)
(1.499156 3.09999 0.08749386)
(1.699431 3.099992 0.0874371)
(1.899613 3.099994 0.08740993)
(2.099737 3.099999 0.08740106)
(2.299821 3.100004 0.08740531)
(2.499878 3.100009 0.08741977)
(2.699916 3.100014 0.08744168)
(2.899941 3.100021 0.08746727)
(3.099961 3.100034 0.08749389)
(3.299976 3.100056 0.08752244)
(3.499989 3.10009 0.087557)
(3.699998 3.100133 0.08759991)
(3.900002 3.100183 0.08764558)
(4.100001 3.100244 0.08768007)
(0.2485727 3.249949 0.046079)
(0.4965891 3.299991 0.09350206)
(0.696162 3.299997 0.08992998)
(0.8970383 3.299996 0.08838581)
(1.098068 3.299996 0.0878381)
(1.298747 3.299995 0.08761133)
(1.499169 3.299996 0.08749983)
(1.699441 3.299997 0.08744166)
(1.89962 3.3 0.08741171)
(2.099741 3.300003 0.08739822)
(2.299824 3.300007 0.08739548)
(2.49988 3.300013 0.08740037)
(2.699918 3.300019 0.08741074)
(2.899945 3.300027 0.08742513)
(3.099964 3.30004 0.08744383)
(3.299979 3.300058 0.08746947)
(3.499991 3.300081 0.08750588)
(3.7 3.300112 0.08755437)
(3.900004 3.300152 0.08760821)
(4.100003 3.300208 0.08765307)
(0.2492863 3.450009 0.04636763)
(0.4967338 3.500002 0.0935389)
(0.6962266 3.500001 0.08994463)
(0.8970816 3.5 0.08839807)
(1.098104 3.5 0.08785144)
(1.298777 3.5 0.08762606)
(1.499193 3.5 0.08751512)
(1.699459 3.500002 0.08745688)
(1.899634 3.500004 0.0874258)
(2.099751 3.500006 0.08741021)
(2.299831 3.50001 0.08740415)
(2.499885 3.500015 0.08740451)
(2.699923 3.50002 0.08740965)
(2.899949 3.500028 0.0874196)
(3.099968 3.500038 0.08743527)
(3.299982 3.500051 0.08746034)
(3.499995 3.500069 0.08749909)
(3.700004 3.500094 0.08755337)
(3.900008 3.500131 0.0876182)
(4.100008 3.500189 0.08768212)
(0.2491616 3.649976 0.04631353)
(0.4966259 3.700013 0.09352262)
(0.6962343 3.700005 0.08995466)
(0.897124 3.700004 0.0884164)
(1.098152 3.700003 0.08787416)
(1.298821 3.700004 0.08765167)
(1.499229 3.700004 0.08754293)
(1.699486 3.700006 0.08748576)
(1.899654 3.700007 0.08745481)
(2.099766 3.700009 0.08743855)
(2.299842 3.700012 0.08743098)
(2.499893 3.700015 0.08742946)
(2.699929 3.70002 0.08743266)
(2.899954 3.700026 0.08744069)
(3.099972 3.700033 0.08745537)
(3.299987 3.700043 0.08748099)
(3.5 3.700058 0.08752297)
(3.70001 3.700079 0.08758582)
(3.900009 3.700107 0.0876755)
(4.099986 3.700146 0.08779561)
(0.2473599 3.850062 0.04569981)
(0.4963166 3.900018 0.09346709)
(0.696213 3.900007 0.08996449)
(0.8971719 3.900006 0.08844129)
(1.098215 3.900006 0.08790582)
(1.298878 3.900006 0.08768773)
(1.499275 3.900007 0.08758228)
(1.699521 3.900008 0.08752717)
(1.89968 3.900009 0.08749742)
(2.099785 3.90001 0.08748155)
(2.299855 3.900012 0.08747377)
(2.499903 3.900014 0.08747155)
(2.699937 3.900018 0.08747402)
(2.89996 3.900022 0.0874815)
(3.099978 3.900027 0.08749623)
(3.299993 3.900034 0.08752334)
(3.500008 3.900045 0.08757026)
(3.700024 3.900063 0.08764826)
(3.900006 3.900063 0.08779236)
(4.099749 3.899864 0.08813043)
(0.2462189 4.049981 0.04528672)
(0.4961434 4.100004 0.09344274)
(0.6962133 4.100005 0.0899793)
(0.897227 4.100005 0.08846851)
(1.098281 4.100005 0.08793955)
(1.298937 4.100005 0.08772615)
(1.499322 4.100006 0.0876243)
(1.699556 4.100007 0.08757177)
(1.899705 4.100007 0.08754364)
(2.099803 4.100008 0.08752856)
(2.299868 4.100009 0.08752132)
(2.499913 4.10001 0.08751932)
(2.699944 4.100012 0.08752184)
(2.899966 4.100015 0.08752948)
(3.099985 4.100018 0.08754507)
(3.300002 4.100022 0.08757467)
(3.500022 4.10003 0.08762918)
(3.70005 4.100043 0.08773162)
(3.90003 4.100009 0.08796426)
(4.099487 4.099464 0.08866068)
(0.2461412 4.249998 0.04526536)
(0.496125 4.3 0.09344802)
(0.6962326 4.300002 0.0899927)
(0.8972677 4.300002 0.08848736)
(1.098326 4.300001 0.08796227)
(1.298976 4.300001 0.08775208)
(1.499352 4.300002 0.08765255)
(1.699579 4.300002 0.08760193)
(1.899722 4.300002 0.08757512)
(2.099815 4.300002 0.08756123)
(2.299877 4.300002 0.08755476)
(2.499919 4.300002 0.08755356)
(2.699949 4.300002 0.08755688)
(2.899972 4.300003 0.08756555)
(3.099992 4.300004 0.08758284)
(3.300014 4.300006 0.08761602)
(3.500045 4.300009 0.08768057)
(3.700096 4.300014 0.08781391)
(3.900118 4.29996 0.08815124)
(4.099523 4.299347 0.08918355)
(0.2921939 0.2920723 0.2964531)
(0.5044508 0.2732996 0.3041464)
(0.7039584 0.2570527 0.3084939)
(0.8992754 0.2515759 0.3106272)
(1.09925 0.2502712 0.3106904)
(1.299598 0.2499315 0.3105102)
(1.499828 0.2498173 0.3104028)
(1.700006 0.2497324 0.3102962)
(1.900174 0.2497058 0.310195)
(2.100404 0.2500651 0.3103926)
(2.300152 0.2514666 0.3104775)
(2.495213 0.2571073 0.3085264)
(2.695414 0.2741434 0.3048851)
(2.856744 0.2426591 0.2480936)
(0.2735601 0.5043248 0.3044273)
(0.4862462 0.4860541 0.2952441)
(0.6933536 0.4740458 0.2926682)
(0.8963952 0.4684303 0.2916364)
(1.097944 0.4660067 0.2912161)
(1.298849 0.4650504 0.2909715)
(1.499408 0.4646924 0.2908464)
(1.699805 0.4646164 0.2907991)
(1.900153 0.4648635 0.2908453)
(2.100556 0.4658238 0.2910676)
(2.301088 0.468339 0.2915084)
(2.502112 0.4740609 0.2925747)
(2.705115 0.4858328 0.2949848)
(2.902698 0.498585 0.2993248)
(0.2573249 0.7039455 0.308897)
(0.4742502 0.6932927 0.2927844)
(0.6868602 0.6868034 0.287133)
(0.8931062 0.6824417 0.2847801)
(1.096178 0.6800704 0.2838659)
(1.297838 0.6789184 0.283471)
(1.498823 0.6784482 0.2833058)
(1.699493 0.6784232 0.2832802)
(1.900062 0.6788644 0.2833954)
(2.100723 0.6800364 0.2837369)
(2.301769 0.682483 0.2845712)
(2.503926 0.6869672 0.2867493)
(2.708324 0.6933266 0.2916621)
(2.904197 0.6989562 0.299802)
(0.2516968 0.8992985 0.3107951)
(0.4685097 0.8963949 0.2916903)
(0.6824255 0.8931085 0.2847827)
(0.8903352 0.8903886 0.2816308)
(1.094499 0.8886051 0.2803496)
(1.296815 0.887604 0.2798044)
(1.498204 0.8871649 0.2795853)
(1.699145 0.8871649 0.2795596)
(1.899932 0.8876135 0.2797224)
(2.10083 0.8886497 0.2801917)
(2.302221 0.8905052 0.2813475)
(2.50488 0.8933498 0.2842528)
(2.70954 0.8967508 0.2903356)
(2.904896 0.8993423 0.299643)
(0.2501721 1.099271 0.3105651)
(0.4658561 1.09795 0.2911525)
(0.6799187 1.096185 0.2838334)
(0.8884504 1.094545 0.2803302)
(1.093193 1.093327 0.2788397)
(1.295941 1.09257 0.2781877)
(1.497635 1.092219 0.2779227)
(1.698791 1.092231 0.2778923)
(1.899744 1.092608 0.2780904)
(2.100787 1.093407 0.2786543)
(2.302321 1.09469 0.2800113)
(2.505096 1.09643 0.2832827)
(2.709736 1.098308 0.2898608)
(2.904954 1.099605 0.2995466)
(0.2495829 1.299617 0.3100551)
(0.4646619 1.298831 0.2907939)
(0.6785987 1.297808 0.283393)
(0.8872948 1.296811 0.2797481)
(1.092285 1.296012 0.2781489)
(1.29527 1.295482 0.2774299)
(1.497155 1.295228 0.2771315)
(1.698453 1.295245 0.2770947)
(1.899499 1.295534 0.2773137)
(2.100583 1.296109 0.2779353)
(2.302083 1.296966 0.2794043)
(2.504699 1.298034 0.2828622)
(2.709092 1.299103 0.2897076)
(2.904365 1.299336 0.2994309)
(0.2494386 1.499774 0.3099437)
(0.4642001 1.499318 0.2906431)
(0.6779441 1.498708 0.2831816)
(0.8866257 1.498094 0.2794661)
(1.091693 1.497579 0.2778078)
(1.294786 1.497224 0.2770473)
(1.496771 1.497052 0.2767246)
(1.698141 1.497072 0.2766784)
(1.899212 1.497287 0.2769024)
(2.100241 1.497695 0.2775452)
(2.301536 1.498281 0.2790598)
(2.503639 1.498976 0.282607)
(2.707151 1.499661 0.2896489)
(2.902504 1.498557 0.2986171)
(0.2495353 1.69989 0.3101588)
(0.4641034 1.699605 0.2906407)
(0.6776407 1.699228 0.283087)
(0.8862493 1.698844 0.2793225)
(1.091318 1.698515 0.2776278)
(1.294447 1.698284 0.2768401)
(1.496473 1.698174 0.2764977)
(1.697865 1.698197 0.2764367)
(1.898911 1.698357 0.2766468)
(2.099818 1.698659 0.2772708)
(2.300779 1.699108 0.2787558)
(2.50205 1.699736 0.2822824)
(2.703989 1.700693 0.2896657)
(2.856945 1.65077 0.2462376)
(0.249581 1.899938 0.3102399)
(0.4640784 1.899769 0.2906518)
(0.6774897 1.899534 0.2830413)
(0.8860323 1.899293 0.2792448)
(1.09108 1.899084 0.2775266)
(1.294213 1.898937 0.2767193)
(1.496247 1.89887 0.2763582)
(1.697634 1.898894 0.276275)
(1.898632 1.899016 0.2764498)
(2.099401 1.899248 0.277004)
(2.300019 1.899624 0.2783348)
(2.500412 1.900282 0.2815204)
(2.699617 1.901746 0.2885336)
(2.849948 1.853966 0.2461536)
(0.249607 2.099965 0.3103074)
(0.4640456 2.099863 0.2906507)
(0.6773914 2.099717 0.2830114)
(0.8858972 2.099566 0.2791984)
(1.090927 2.099434 0.2774654)
(1.294052 2.099342 0.2766425)
(1.496082 2.099303 0.2762625)
(1.697452 2.099326 0.2761504)
(1.898407 2.099418 0.2762705)
(2.099079 2.099589 0.2767042)
(2.299494 2.099877 0.2777399)
(2.49947 2.100418 0.2801433)
(2.698141 2.101733 0.2854448)
(2.846324 2.053502 0.2418139)
(3.046185 2.050088 0.2460583)
(3.299482 2.09463 0.2946552)
(3.500076 2.096001 0.2943609)
(3.700317 2.100172 0.2941566)
(3.900215 2.102442 0.2943297)
(4.100057 2.103317 0.2945265)
(0.2495166 2.300001 0.3101933)
(0.4639294 2.299927 0.2905932)
(0.6772947 2.299829 0.2829792)
(0.8858018 2.299733 0.2791663)
(1.090826 2.299651 0.2774254)
(1.293945 2.299594 0.2765903)
(1.495965 2.299572 0.2761915)
(1.69732 2.299592 0.2760468)
(1.898249 2.299658 0.2761023)
(2.098878 2.299774 0.2763932)
(2.299251 2.299955 0.2770748)
(2.499308 2.300241 0.2785295)
(2.698855 2.300724 0.2813678)
(2.898432 2.300855 0.2848217)
(3.098793 2.299488 0.2866089)
(3.299492 2.298758 0.2867994)
(3.499836 2.30001 0.2866564)
(3.700004 2.302573 0.2864368)
(3.900064 2.304632 0.2863526)
(4.10004 2.305814 0.2863871)
(0.2493012 2.500016 0.3098528)
(0.4637348 2.499961 0.2904808)
(0.6771954 2.499897 0.2829431)
(0.8857326 2.499837 0.2791425)
(1.090762 2.499785 0.2773987)
(1.293877 2.499751 0.2765537)
(1.49589 2.49974 0.2761374)
(1.697234 2.499756 0.2759614)
(1.898148 2.499801 0.2759559)
(2.098764 2.499877 0.2761176)
(2.29915 2.499983 0.2765012)
(2.499326 2.500119 0.2772253)
(2.699315 2.500259 0.2783799)
(2.899281 2.500251 0.279632)
(3.099434 2.500042 0.2804443)
(3.299689 2.500067 0.2807613)
(3.499858 2.500802 0.2808306)
(3.69996 2.502057 0.2808317)
(3.90001 2.503239 0.2808599)
(4.100016 2.504106 0.2809062)
(0.2491702 2.699994 0.3096717)
(0.4636058 2.699972 0.2904079)
(0.6771337 2.699936 0.2829196)
(0.8856969 2.6999 0.2791286)
(1.090732 2.699869 0.2773825)
(1.293844 2.699849 0.2765296)
(1.49585 2.699844 0.2760987)
(1.697185 2.699857 0.2758964)
(1.89809 2.699888 0.2758421)
(2.098704 2.699938 0.2759087)
(2.299107 2.700003 0.2761006)
(2.499348 2.700076 0.2764365)
(2.699472 2.700145 0.2769075)
(2.899551 2.70018 0.2774005)
(3.099658 2.70021 0.2777672)
(3.299785 2.700381 0.2779801)
(3.499886 2.700823 0.2781059)
(3.699954 2.701469 0.2782098)
(3.899991 2.702126 0.278316)
(4.100002 2.7027 0.2783953)
(0.2491674 2.899995 0.3096742)
(0.4636091 2.899979 0.2904087)
(0.6771407 2.899961 0.2829196)
(0.8857046 2.899939 0.2791269)
(1.090737 2.899921 0.2773777)
(1.293844 2.89991 0.2765188)
(1.495842 2.899909 0.2760767)
(1.697169 2.899919 0.2758547)
(1.898068 2.899941 0.2757654)
(2.09868 2.899975 0.2757702)
(2.299092 2.900019 0.2758534)
(2.49936 2.90007 0.276007)
(2.699531 2.900123 0.2762136)
(2.899648 2.90018 0.276432)
(3.099746 2.900263 0.2766207)
(3.299835 2.900424 0.2767744)
(3.499907 2.900696 0.2769188)
(3.699958 2.901053 0.2770764)
(3.899986 2.90144 0.2772366)
(4.099995 2.901833 0.2773515)
(0.2493073 3.099972 0.3098536)
(0.4637503 3.099979 0.2904826)
(0.6772215 3.099975 0.2829444)
(0.8857614 3.099964 0.2791399)
(1.090783 3.099954 0.277387)
(1.29388 3.099948 0.2765242)
(1.495869 3.099949 0.2760751)
(1.697186 3.099957 0.2758401)
(1.898075 3.099974 0.2757281)
(2.098682 3.099998 0.2756955)
(2.299095 3.10003 0.2757199)
(2.499374 3.100069 0.2757876)
(2.69956 3.100116 0.2758851)
(2.89969 3.100174 0.2759972)
(3.099786 3.100256 0.2761137)
(3.299863 3.10038 0.2762408)
(3.499922 3.100556 0.2763953)
(3.699963 3.100775 0.2765852)
(3.899986 3.101029 0.2767849)
(4.099992 3.101331 0.2769355)
(0.2495325 3.299981 0.3101963)
(0.4639659 3.299988 0.2905997)
(0.6773558 3.299987 0.282987)
(0.8858699 3.299981 0.27917)
(1.090878 3.299975 0.2774164)
(1.293962 3.299972 0.2765537)
(1.495935 3.299974 0.2761024)
(1.697236 3.299981 0.2758606)
(1.898112 3.299993 0.2757355)
(2.098708 3.300012 0.2756817)
(2.299116 3.300036 0.2756749)
(2.499394 3.300067 0.2757008)
(2.699584 3.300106 0.2757502)
(2.899716 3.300156 0.2758172)
(3.099811 3.300224 0.2759035)
(3.299881 3.300316 0.2760204)
(3.499934 3.300436 0.276184)
(3.69997 3.300588 0.2763983)
(3.899988 3.300782 0.2766338)
(4.09999 3.30105 0.2768286)
(0.2496264 3.500004 0.3103229)
(0.464113 3.500004 0.2906677)
(0.6775127 3.499999 0.2830343)
(0.8860368 3.499994 0.2792214)
(1.09104 3.499989 0.2774757)
(1.294105 3.499988 0.2766195)
(1.496052 3.49999 0.2761715)
(1.697328 3.499996 0.2759289)
(1.89818 3.500006 0.2757982)
(2.098759 3.50002 0.2757337)
(2.299153 3.500038 0.275711)
(2.499424 3.500062 0.2757167)
(2.69961 3.500093 0.2757439)
(2.899739 3.500133 0.2757913)
(3.099831 3.500185 0.2758652)
(3.299898 3.500253 0.2759801)
(3.499947 3.500341 0.2761542)
(3.69998 3.500457 0.2763938)
(3.899993 3.500625 0.2766749)
(4.099988 3.500887 0.2769431)
(0.2495745 3.700028 0.310221)
(0.4641556 3.700019 0.2906608)
(0.6776912 3.700009 0.2830845)
(0.8862781 3.700003 0.2793008)
(1.091286 3.699999 0.277575)
(1.294322 3.699999 0.2767333)
(1.496229 3.700001 0.2762946)
(1.697463 3.700006 0.2760567)
(1.898281 3.700014 0.2759266)
(2.098833 3.700024 0.2758586)
(2.299208 3.700038 0.2758291)
(2.499464 3.700055 0.2758256)
(2.699642 3.700078 0.2758428)
(2.899766 3.700108 0.2758819)
(3.099854 3.700146 0.2759515)
(3.299919 3.700196 0.2760691)
(3.499966 3.700262 0.2762572)
(3.699996 3.700355 0.2765319)
(3.900002 3.700502 0.2768902)
(4.099981 3.700756 0.2773109)
(0.2494023 3.900037 0.3099071)
(0.4641465 3.900024 0.2906109)
(0.6779101 3.900014 0.2831458)
(0.8865936 3.900008 0.2794089)
(1.091609 3.900005 0.2777122)
(1.294604 3.900004 0.2768914)
(1.496454 3.900006 0.2764675)
(1.697634 3.900011 0.2762389)
(1.898407 3.900016 0.2761136)
(2.098924 3.900023 0.2760469)
(2.299274 3.900033 0.2760158)
(2.499513 3.900045 0.2760092)
(2.699679 3.90006 0.2760228)
(2.899796 3.900081 0.2760592)
(3.099881 3.900107 0.276129)
(3.299946 3.900141 0.2762527)
(3.499995 3.900188 0.2764612)
(3.700027 3.900255 0.2767918)
(3.900027 3.900364 0.2772951)
(4.099967 3.900557 0.2780594)
(0.2493224 4.100009 0.3097528)
(0.464203 4.100013 0.2906033)
(0.678156 4.100011 0.2832189)
(0.8869256 4.100007 0.2795248)
(1.091942 4.100004 0.2778574)
(1.294891 4.100004 0.2770585)
(1.49668 4.100005 0.2766505)
(1.697804 4.100008 0.2764329)
(1.898531 4.100011 0.2763145)
(2.099013 4.100015 0.2762518)
(2.299338 4.10002 0.2762225)
(2.499561 4.100026 0.2762164)
(2.699716 4.100035 0.2762303)
(2.899828 4.100047 0.2762676)
(3.099913 4.100062 0.276341)
(3.299983 4.100082 0.2764749)
(3.500044 4.100108 0.2767129)
(3.700093 4.10014 0.2771286)
(3.900098 4.100174 0.2778767)
(4.099965 4.100191 0.2793229)
(0.2493327 4.300002 0.3097457)
(0.46429 4.300002 0.2906307)
(0.6783321 4.300003 0.2832739)
(0.8871474 4.300001 0.2796032)
(1.092161 4.299999 0.2779545)
(1.295079 4.299998 0.2771703)
(1.496828 4.299998 0.2767737)
(1.697915 4.299997 0.2765644)
(1.898612 4.299997 0.2764521)
(2.099072 4.299997 0.2763937)
(2.299382 4.299997 0.2763681)
(2.499594 4.299998 0.2763655)
(2.699744 4.3 0.2763829)
(2.899856 4.300003 0.2764247)
(3.099947 4.300008 0.2765052)
(3.300033 4.300015 0.2766546)
(3.500124 4.30002 0.2769307)
(3.700224 4.300012 0.2774519)
(3.900298 4.299944 0.278506)
(4.100148 4.299662 0.2808514)
(0.2889871 0.2889711 0.4990692)
(0.5068306 0.255257 0.5045898)
(0.7101492 0.2259256 0.5120908)
(0.8996503 0.2152784 0.5128183)
(1.098561 0.2119498 0.5128535)
(1.299122 0.2110315 0.5126313)
(1.499624 0.2107821 0.5124978)
(1.7 0.2107687 0.5124867)
(1.900408 0.2109969 0.5126041)
(2.100744 0.2119099 0.5128299)
(2.29921 0.2152665 0.5128198)
(2.487868 0.2260849 0.5121431)
(2.691694 0.2569786 0.5048496)
(2.858066 0.2399954 0.4497132)
(0.2553155 0.5067507 0.5046282)
(0.4740765 0.4740507 0.4978897)
(0.6869649 0.4499694 0.4965098)
(0.892843 0.4370239 0.4955661)
(1.095788 0.431307 0.4950282)
(1.297579 0.4290834 0.4946735)
(1.498738 0.4283115 0.4944975)
(1.699569 0.4282881 0.4944816)
(1.900303 0.4290263 0.4946316)
(2.101065 0.4312477 0.4949758)
(2.30189 0.4370036 0.4955211)
(2.503411 0.4500797 0.4965045)
(2.707464 0.4740004 0.497922)
(2.905386 0.4977375 0.4997887)
(0.2259085 0.7101491 0.5121238)
(0.4499535 0.6869451 0.4965356)
(0.6724269 0.6724665 0.4932628)
(0.8850526 0.6619416 0.4910016)
(1.091548 0.65615 0.489813)
(1.295128 0.6533746 0.4892241)
(1.497304 0.6522728 0.4889667)
(1.698801 0.6522685 0.4889464)
(1.900049 0.6533763 0.4891635)
(2.101395 0.6561995 0.4897097)
(2.303334 0.6621149 0.490835)
(2.506765 0.6728921 0.4929165)
(2.713082 0.6870259 0.4960365)
(2.908253 0.6980098 0.4997623)
(0.2152658 0.8996558 0.5128352)
(0.4369598 0.8928588 0.4955696)
(0.6618125 0.885109 0.4909947)
(0.8781328 0.8782915 0.4877422)
(1.087315 0.8737523 0.4859669)
(1.292528 0.8712416 0.485108)
(1.495718 0.8701568 0.4847448)
(1.697898 0.8701757 0.4847171)
(1.899686 0.8713107 0.4850214)
(2.101598 0.8739104 0.4858064)
(2.304314 0.8786134 0.4874634)
(2.508747 0.8856484 0.4905349)
(2.715311 0.893435 0.4949332)
(2.909297 0.8986781 0.4996776)
(0.2119014 1.098561 0.5128388)
(0.4311411 1.095784 0.4949953)
(0.6558603 1.091574 0.4897717)
(0.8733962 1.087439 0.4859339)
(1.083997 1.084327 0.48374)
(1.290295 1.082401 0.4826608)
(1.494256 1.081515 0.4822012)
(1.696988 1.08155 0.4821649)
(1.899198 1.082512 0.4825482)
(2.101479 1.084544 0.4835376)
(2.304562 1.08781 0.4856091)
(2.509233 1.092129 0.4893259)
(2.715692 1.096507 0.494411)
(2.909391 1.099235 0.4995716)
(0.2109308 1.299104 0.5125849)
(0.4287581 1.297521 0.4945932)
(0.6528187 1.295061 0.4891257)
(0.8705472 1.292529 0.4850072)
(1.081705 1.290482 0.482583)
(1.288583 1.289123 0.4813592)
(1.493029 1.288475 0.4808277)
(1.696126 1.288518 0.4807805)
(1.898586 1.28926 0.4812155)
(2.100997 1.290729 0.4823363)
(2.304047 1.29291 0.4846475)
(2.508455 1.295573 0.4887179)
(2.714558 1.298096 0.4941814)
(2.908515 1.298768 0.499394)
(0.2106222 1.499548 0.5124353)
(0.427758 1.49856 0.4943674)
(0.6512822 1.497052 0.4887795)
(0.8688949 1.495476 0.4845182)
(1.080212 1.494151 0.4819653)
(1.28735 1.493237 0.4806506)
(1.492052 1.492796 0.4800661)
(1.695341 1.492846 0.4800016)
(1.897885 1.493395 0.4804541)
(2.100205 1.494435 0.4816325)
(2.302855 1.495909 0.4840513)
(2.50637 1.497617 0.4883258)
(2.711032 1.499085 0.4941079)
(2.905295 1.497411 0.4991741)
(0.2105076 1.699779 0.5123966)
(0.427318 1.699165 0.4942681)
(0.6504952 1.698223 0.4885998)
(0.867943 1.69723 0.4842541)
(1.079262 1.69638 0.4816243)
(1.286489 1.695783 0.4802494)
(1.491297 1.6955 0.4796219)
(1.694653 1.695557 0.4795285)
(1.897159 1.695966 0.4799604)
(2.099239 1.696727 0.4811195)
(2.301242 1.697819 0.4835195)
(2.503347 1.699184 0.4878658)
(2.705568 1.700674 0.4940952)
(2.859126 1.650911 0.448664)
(0.2104557 1.899888 0.5123923)
(0.4271054 1.89951 0.494226)
(0.6500747 1.89892 0.4885046)
(0.8673865 1.898294 0.484106)
(1.07866 1.897753 0.481427)
(1.285896 1.897372 0.4800087)
(1.490728 1.897199 0.479341)
(1.694079 1.89726 0.4792029)
(1.896494 1.897572 0.4795712)
(2.098305 1.89815 0.4806194)
(2.299665 1.899036 0.4828168)
(2.500395 1.900352 0.4869172)
(2.699478 1.902252 0.4932232)
(2.849997 1.854605 0.4484877)
(3.706324 1.955832 0.5057192)
(3.904982 1.962688 0.5037651)
(4.10059 1.963838 0.5047581)
(0.2104255 2.099938 0.5123922)
(0.4269835 2.099707 0.4942014)
(0.6498313 2.09934 0.4884482)
(0.8670512 2.098946 0.4840174)
(1.078275 2.098605 0.4813057)
(1.285492 2.098367 0.4798532)
(1.490313 2.098267 0.4791443)
(1.693631 2.098326 0.4789461)
(1.895961 2.098562 0.4792099)
(2.097583 2.098993 0.480053)
(2.298576 2.099673 0.4818207)
(2.498703 2.100764 0.4851513)
(2.696988 2.102556 0.4905517)
(2.844813 2.054696 0.4459406)
(3.045068 2.050173 0.4482845)
(3.299313 2.094521 0.4974224)
(3.500124 2.099549 0.4973302)
(3.700086 2.113699 0.4967505)
(3.900452 2.123581 0.4963472)
(4.100216 2.127232 0.4964756)
(0.2103963 2.299962 0.5123774)
(0.4268905 2.299823 0.4941723)
(0.6496737 2.299596 0.4884064)
(0.8668425 2.299349 0.4839598)
(1.078031 2.299136 0.4812264)
(1.285223 2.29899 0.4797452)
(1.490022 2.298935 0.4789948)
(1.693307 2.298988 0.4787279)
(1.895582 2.299159 0.4788642)
(2.097125 2.29946 0.4794508)
(2.298048 2.299911 0.4806732)
(2.498311 2.300541 0.4828765)
(2.697685 2.301404 0.486265)
(2.897198 2.301623 0.4897576)
(3.097895 2.299904 0.4913989)
(3.299141 2.299415 0.4915962)
(3.499727 2.302928 0.4915286)
(3.699947 2.309828 0.4913102)
(3.900138 2.315812 0.4911867)
(4.100121 2.31919 0.4912513)
(0.2103645 2.499976 0.5123467)
(0.4268112 2.499892 0.494137)
(0.6495677 2.499753 0.4883722)
(0.8667169 2.4996 0.4839207)
(1.077885 2.499468 0.4811732)
(1.285057 2.49938 0.4796682)
(1.489834 2.499352 0.4788791)
(1.693093 2.499395 0.4785444)
(1.895339 2.499516 0.4785554)
(2.096862 2.499717 0.4788998)
(2.297821 2.499998 0.4796385)
(2.498297 2.500345 0.4808675)
(2.69838 2.500681 0.4825807)
(2.898412 2.500751 0.484277)
(3.09878 2.500567 0.4853508)
(3.299329 2.500991 0.4858106)
(3.499682 2.503034 0.4859371)
(3.699879 2.506383 0.4859318)
(3.900004 2.509593 0.4859617)
(4.10004 2.511907 0.486037)
(0.2103453 2.699985 0.512326)
(0.4267662 2.699934 0.4941137)
(0.6495167 2.699849 0.488352)
(0.8666616 2.699755 0.4838987)
(1.07782 2.699675 0.4811413)
(1.284976 2.699624 0.4796173)
(1.489734 2.699611 0.4787948)
(1.692973 2.699646 0.4784018)
(1.895201 2.69973 0.4783086)
(2.096723 2.699865 0.4784644)
(2.297726 2.700045 0.4788626)
(2.498335 2.700255 0.4795039)
(2.698671 2.700462 0.4803306)
(2.898904 2.700622 0.4811478)
(3.09918 2.700815 0.4817542)
(3.299484 2.701354 0.4821327)
(3.499717 2.702528 0.4823838)
(3.69987 2.7042 0.4825999)
(3.899961 2.705908 0.4828165)
(4.099999 2.707385 0.4829778)
(0.2103472 2.899992 0.5123266)
(0.4267746 2.899961 0.4941148)
(0.6495327 2.899909 0.4883523)
(0.86668 2.899852 0.483896)
(1.077832 2.899804 0.4811315)
(1.284976 2.899775 0.4795936)
(1.489715 2.899771 0.4787459)
(1.692934 2.899799 0.4783085)
(1.895147 2.899859 0.4781383)
(2.096668 2.899952 0.4781646)
(2.297696 2.900074 0.4783519)
(2.49837 2.900219 0.4786735)
(2.698806 2.900379 0.4790834)
(2.899109 2.90056 0.4795036)
(3.09936 2.900813 0.4798682)
(3.29958 2.901254 0.4801773)
(3.499752 2.901959 0.4804789)
(3.699872 2.902872 0.480809)
(3.899944 2.903857 0.4811421)
(4.099977 2.904855 0.4813822)
(0.2103721 3.099997 0.5123489)
(0.4268423 3.099979 0.4941418)