/*--------------------------------*- C++ -*----------------------------------*\
  =========                 |
  \\      /  F ield         | OpenFOAM: The Open Source CFD Toolbox
   \\    /   O peration     | Website:  https://openfoam.org
    \\  /    A nd           | Version:  7
     \\/     M anipulation  |
\*---------------------------------------------------------------------------*/
FoamFile
{
    version     2.0;
    format      ascii;
    class       volScalarField;
    location    "0.1";
    object      Cx;
}
// * * * * * * * * * * * * * * * * * * * * * * * * * * * * * * * * * * * * * //

dimensions      [0 1 0 0 0 0 0];

internalField   nonuniform List<scalar> 
53911
(
0.2480805
0.4499551
0.6499726
0.8498802
1.049991
1.24999
1.449993
1.649983
1.850089
2.050013
2.249955
2.450101
2.650024
2.851072
0.2487824
0.4988058
0.6988727
0.8991643
1.099528
1.299743
1.49987
1.699966
1.900042
2.100153
2.30033
2.500347
2.700828
2.84952
0.24941
0.4982538
0.6979657
0.8985114
1.099148
1.299528
1.499749
1.6999
1.900034
2.100217
2.30049
2.500409
2.700399
2.846423
0.2492799
0.4975382
0.697246
0.8979629
1.098805
1.299322
1.499626
1.699832
1.900015
2.100255
2.300599
2.500498
2.700573
2.846416
0.2491835
0.4969636
0.6967098
0.8975718
1.098538
1.299146
1.499512
1.699762
1.89998
2.100252
2.300626
2.500542
2.700618
2.846878
0.247389
0.4964657
0.6963799
0.897321
1.098351
1.29901
1.499416
1.699695
1.899931
2.100209
2.300569
2.500432
2.700398
2.846306
0.2465719
0.4963632
0.6962377
0.8971822
1.098231
1.298913
1.499339
1.699632
1.899871
2.100134
2.300441
2.500177
2.699956
2.846216
0.2484937
0.4965682
0.6962161
0.8971159
1.098158
1.298845
1.49928
1.699576
1.899807
2.100038
2.300262
2.499788
2.699147
2.845786
0.2485629
0.4966717
0.6962189
0.8970812
1.098112
1.298799
1.499234
1.699528
1.899746
2.099938
2.300074
2.499466
2.697731
2.844415
0.2492303
0.4967197
0.6962061
0.897055
1.098081
1.298767
1.4992
1.699489
1.899695
2.099855
2.299928
2.499317
2.698083
2.843133
3.04924
3.249917
3.449963
3.650045
3.849963
4.050025
0.2491573
0.4965784
0.6961496
0.8970247
1.098058
1.298744
1.499177
1.699461
1.899657
2.099799
2.299848
2.49933
2.697318
2.897259
3.099418
3.299855
3.499985
3.700027
3.900032
4.100007
0.2473564
0.4962327
0.6960585
0.8969909
1.09804
1.298729
1.49916
1.699442
1.899633
2.099765
2.299824
2.499612
2.699284
2.89928
3.099635
3.299914
3.499974
3.699998
3.900007
4.100004
0.2462203
0.4960211
0.6959946
0.8969692
1.09803
1.298721
1.499152
1.699431
1.899619
2.099747
2.299825
2.499856
2.699862
2.899875
3.099911
3.299954
3.499981
3.699996
3.900003
4.100002
0.2461473
0.4960196
0.6959961
0.8969707
1.098031
1.298721
1.49915
1.699428
1.899613
2.099738
2.299824
2.49988
2.699916
2.899938
3.099955
3.299971
3.499986
3.699997
3.900002
4.100001
0.2464846
0.4962369
0.696064
0.8969967
1.098044
1.298729
1.499156
1.699431
1.899613
2.099737
2.299821
2.499878
2.699916
2.899941
3.099961
3.299976
3.499989
3.699998
3.900002
4.100001
0.2485727
0.4965891
0.696162
0.8970383
1.098068
1.298747
1.499169
1.699441
1.89962
2.099741
2.299824
2.49988
2.699918
2.899945
3.099964
3.299979
3.499991
3.7
3.900004
4.100003
0.2492863
0.4967338
0.6962266
0.8970816
1.098104
1.298777
1.499193
1.699459
1.899634
2.099751
2.299831
2.499885
2.699923
2.899949
3.099968
3.299982
3.499995
3.700004
3.900008
4.100008
0.2491616
0.4966259
0.6962343
0.897124
1.098152
1.298821
1.499229
1.699486
1.899654
2.099766
2.299842
2.499893
2.699929
2.899954
3.099972
3.299987
3.5
3.70001
3.900009
4.099986
0.2473599
0.4963166
0.696213
0.8971719
1.098215
1.298878
1.499275
1.699521
1.89968
2.099785
2.299855
2.499903
2.699937
2.89996
3.099978
3.299993
3.500008
3.700024
3.900006
4.099749
0.2462189
0.4961434
0.6962133
0.897227
1.098281
1.298937
1.499322
1.699556
1.899705
2.099803
2.299868
2.499913
2.699944
2.899966
3.099985
3.300002
3.500022
3.70005
3.90003
4.099487
0.2461412
0.496125
0.6962326
0.8972677
1.098326
1.298976
1.499352
1.699579
1.899722
2.099815
2.299877
2.499919
2.699949
2.899972
3.099992
3.300014
3.500045
3.700096
3.900118
4.099523
0.2921939
0.5044508
0.7039584
0.8992754
1.09925
1.299598
1.499828
1.700006
1.900174
2.100404
2.300152
2.495213
2.695414
2.856744
0.2735601
0.4862462
0.6933536
0.8963952
1.097944
1.298849
1.499408
1.699805
1.900153
2.100556
2.301088
2.502112
2.705115
2.902698
0.2573249
0.4742502
0.6868602
0.8931062
1.096178
1.297838
1.498823
1.699493
1.900062
2.100723
2.301769
2.503926
2.708324
2.904197
0.2516968
0.4685097
0.6824255
0.8903352
1.094499
1.296815
1.498204
1.699145
1.899932
2.10083
2.302221
2.50488
2.70954
2.904896
0.2501721
0.4658561
0.6799187
0.8884504
1.093193
1.295941
1.497635
1.698791
1.899744
2.100787
2.302321
2.505096
2.709736
2.904954
0.2495829
0.4646619
0.6785987
0.8872948
1.092285
1.29527
1.497155
1.698453
1.899499
2.100583
2.302083
2.504699
2.709092
2.904365
0.2494386
0.4642001
0.6779441
0.8866257
1.091693
1.294786
1.496771
1.698141
1.899212
2.100241
2.301536
2.503639
2.707151
2.902504
0.2495353
0.4641034
0.6776407
0.8862493
1.091318
1.294447
1.496473
1.697865
1.898911
2.099818
2.300779
2.50205
2.703989
2.856945
0.249581
0.4640784
0.6774897
0.8860323
1.09108
1.294213
1.496247
1.697634
1.898632
2.099401
2.300019
2.500412
2.699617
2.849948
0.249607
0.4640456
0.6773914
0.8858972
1.090927
1.294052
1.496082
1.697452
1.898407
2.099079
2.299494
2.49947
2.698141
2.846324
3.046185
3.299482
3.500076
3.700317
3.900215
4.100057
0.2495166
0.4639294
0.6772947
0.8858018
1.090826
1.293945
1.495965
1.69732
1.898249
2.098878
2.299251
2.499308
2.698855
2.898432
3.098793
3.299492
3.499836
3.700004
3.900064
4.10004
0.2493012
0.4637348
0.6771954
0.8857326
1.090762
1.293877
1.49589
1.697234
1.898148
2.098764
2.29915
2.499326
2.699315
2.899281
3.099434
3.299689
3.499858
3.69996
3.90001
4.100016
0.2491702
0.4636058
0.6771337
0.8856969
1.090732
1.293844
1.49585
1.697185
1.89809
2.098704
2.299107
2.499348
2.699472
2.899551
3.099658
3.299785
3.499886
3.699954
3.899991
4.100002
0.2491674
0.4636091
0.6771407
0.8857046
1.090737
1.293844
1.495842
1.697169
1.898068
2.09868
2.299092
2.49936
2.699531
2.899648
3.099746
3.299835
3.499907
3.699958
3.899986
4.099995
0.2493073
0.4637503
0.6772215
0.8857614
1.090783
1.29388
1.495869
1.697186
1.898075
2.098682
2.299095
2.499374
2.69956
2.89969
3.099786
3.299863
3.499922
3.699963
3.899986
4.099992
0.2495325
0.4639659
0.6773558
0.8858699
1.090878
1.293962
1.495935
1.697236
1.898112
2.098708
2.299116
2.499394
2.699584
2.899716
3.099811
3.299881
3.499934
3.69997
3.899988
4.09999
0.2496264
0.464113
0.6775127
0.8860368
1.09104
1.294105
1.496052
1.697328
1.89818
2.098759
2.299153
2.499424
2.69961
2.899739
3.099831
3.299898
3.499947
3.69998
3.899993
4.099988
0.2495745
0.4641556
0.6776912
0.8862781
1.091286
1.294322
1.496229
1.697463
1.898281
2.098833
2.299208
2.499464
2.699642
2.899766
3.099854
3.299919
3.499966
3.699996
3.900002
4.099981
0.2494023
0.4641465
0.6779101
0.8865936
1.091609
1.294604
1.496454
1.697634
1.898407
2.098924
2.299274
2.499513
2.699679
2.899796
3.099881
3.299946
3.499995
3.700027
3.900027
4.099967
0.2493224
0.464203
0.678156
0.8869256
1.091942
1.294891
1.49668
1.697804
1.898531
2.099013
2.299338
2.499561
2.699716
2.899828
3.099913
3.299983
3.500044
3.700093
3.900098
4.099965
0.2493327
0.46429
0.6783321
0.8871474
1.092161
1.295079
1.496828
1.697915
1.898612
2.099072
2.299382
2.499594
2.699744
2.899856
3.099947
3.300033
3.500124
3.700224
3.900298
4.100148
0.2889871
0.5068306
0.7101492
0.8996503
1.098561
1.299122
1.499624
1.7
1.900408
2.100744
2.29921
2.487868
2.691694
2.858066
0.2553155
0.4740765
0.6869649
0.892843
1.095788
1.297579
1.498738
1.699569
1.900303
2.101065
2.30189
2.503411
2.707464
2.905386
0.2259085
0.4499535
0.6724269
0.8850526
1.091548
1.295128
1.497304
1.698801
1.900049
2.101395
2.303334
2.506765
2.713082
2.908253
0.2152658
0.4369598
0.6618125
0.8781328
1.087315
1.292528
1.495718
1.697898
1.899686
2.101598
2.304314
2.508747
2.715311
2.909297
0.2119014
0.4311411
0.6558603
0.8733962
1.083997
1.290295
1.494256
1.696988
1.899198
2.101479
2.304562
2.509233
2.715692
2.909391
0.2109308
0.4287581
0.6528187
0.8705472
1.081705
1.288583
1.493029
1.696126
1.898586
2.100997
2.304047
2.508455
2.714558
2.908515
0.2106222
0.427758
0.6512822
0.8688949
1.080212
1.28735
1.492052
1.695341
1.897885
2.100205
2.302855
2.50637
2.711032
2.905295
0.2105076
0.427318
0.6504952
0.867943
1.079262
1.286489
1.491297
1.694653
1.897159
2.099239
2.301242
2.503347
2.705568
2.859126
0.2104557
0.4271054
0.6500747
0.8673865
1.07866
1.285896
1.490728
1.694079
1.896494
2.098305
2.299665
2.500395
2.699478
2.849997
3.706324
3.904982
4.10059
0.2104255
0.4269835
0.6498313
0.8670512
1.078275
1.285492
1.490313
1.693631
1.895961
2.097583
2.298576
2.498703
2.696988
2.844813
3.045068
3.299313
3.500124
3.700086
3.900452
4.100216
0.2103963
0.4268905
0.6496737
0.8668425
1.078031
1.285223
1.490022
1.693307
1.895582
2.097125
2.298048
2.498311
2.697685
2.897198
3.097895
3.299141
3.499727
3.699947
3.900138
4.100121
0.2103645
0.4268112
0.6495677
0.8667169
1.077885
1.285057
1.489834
1.693093
1.895339
2.096862
2.297821
2.498297
2.69838
2.898412
3.09878
3.299329
3.499682
3.699879
3.900004
4.10004
0.2103453
0.4267662
0.6495167
0.8666616
1.07782
1.284976
1.489734
1.692973
1.895201
2.096723
2.297726
2.498335
2.698671
2.898904
3.09918
3.299484
3.499717
3.69987
3.899961
4.099999
0.2103472
0.4267746
0.6495327
0.86668
1.077832
1.284976
1.489715
1.692934
1.895147
2.096668
2.297696
2.49837
2.698806
2.899109
3.09936
3.29958
3.499752
3.699872
3.899944
4.099977
0.2103721
0.4268423
0.6496275
0.8667855
1.077935
1.285063
1.48978
1.692975
1.895167
2.096676
2.29771
2.498409
2.698881
2.899209
3.099452
3.29964
3.499782
3.69988
3.899939
4.099965
0.2104144
0.4269646
0.6498146
0.8670058
1.078157
1.285264
1.489946
1.693102
1.89526
2.096744
2.297764
2.498463
2.698942
2.899274
3.099511
3.299683
3.499808
3.699892
3.899939
4.099955
0.2104625
0.4271352
0.6501196
0.867388
1.078548
1.285616
1.490238
1.693331
1.895432
2.096871
2.29786
2.49854
2.699008
2.899333
3.099562
3.299725
3.499839
3.69991
3.899941
4.099937
0.2105179
0.4273667
0.6505798
0.8679812
1.079151
1.286153
1.490676
1.69367
1.895685
2.097057
2.297997
2.498643
2.699089
2.8994
3.099618
3.299774
3.49988
3.69994
3.899948
4.099901
0.2105864
0.4276696
0.6511927
0.8687694
1.079944
1.286846
1.491233
1.694095
1.896
2.097286
2.298163
2.498765
2.699182
2.899475
3.099685
3.299838
3.499945
3.700001
3.899981
4.099843
0.2106666
0.4279993
0.6518381
0.8695867
1.080757
1.287549
1.491792
1.694516
1.896309
2.09751
2.298325
2.498884
2.699275
2.899555
3.099763
3.299925
3.500052
3.70013
3.9001
4.099814
0.2107258
0.4282266
0.6522689
0.8701253
1.08129
1.288008
1.492155
1.694789
1.89651
2.097656
2.298433
2.498968
2.699346
2.899625
3.099847
3.300042
3.500226
3.700394
3.900466
4.100107
0.2876687
0.5075379
0.7101599
0.8996865
1.097976
1.298686
1.499435
1.700027
1.900648
2.101056
2.29875
2.487182
2.68985
2.858315
0.2493432
0.4677576
0.6822719
0.8898868
1.093833
1.296362
1.498072
1.699328
1.900422
2.10148
2.302478
2.504306
2.708522
2.906222
0.2149757
0.4365808
0.661284
0.8776841
1.08699
1.292331
1.495685
1.698031
1.89997
2.10196
2.304608
2.508602
2.715171
2.909472
0.203443
0.4178904
0.6448577
0.8660596
1.079626
1.287756
1.492867
1.696414
1.899297
2.10225
2.305999
2.511325
2.718005
2.910746
0.1989696
0.4093233
0.6352782
0.8577592
1.073597
1.283673
1.490185
1.694744
1.898407
2.102035
2.306416
2.512069
2.718528
2.910868
0.197633
0.405782
0.63037
0.852759
1.069404
1.280517
1.487923
1.693171
1.897325
2.101247
2.305662
2.511021
2.717132
2.90982
0.1971983
0.4042649
0.6278586
0.8498736
1.066699
1.278255
1.486133
1.691755
1.896105
2.099949
2.303867
2.508208
2.712873
2.906207
0.1970189
0.4035572
0.6265409
0.8482043
1.064985
1.276686
1.484761
1.690526
1.894857
2.098378
2.301453
2.504188
2.706427
2.859722
0.1969337
0.4031998
0.6258241
0.847225
1.063901
1.275611
1.483734
1.689506
1.893717
2.096857
2.299103
2.500289
2.699692
2.850438
3.704567
3.907266
4.101054
0.1968884
0.4030053
0.6254178
0.8466405
1.063214
1.274882
1.482984
1.68871
1.892794
2.095663
2.297448
2.497915
2.696585
2.844832
3.044902
3.299448
3.500571
3.699948
3.900751
4.100424
0.1968611
0.4028913
0.6251805
0.8462898
1.062784
1.2744
1.48246
1.68813
1.892128
2.094874
2.29657
2.497183
2.696791
2.896497
3.097414
3.298986
3.499788
3.699987
3.900267
4.100241
0.1968441
0.4028241
0.625046
0.8460912
1.062531
1.274103
1.48212
1.687743
1.891689
2.0944
2.296141
2.497061
2.697359
2.89758
3.098195
3.299023
3.499563
3.699843
3.900028
4.100087
0.1968363
0.4027955
0.6249919
0.8460093
1.062419
1.273957
1.481937
1.687521
1.891434
2.094139
2.295942
2.497059
2.697703
2.898156
3.098643
3.299149
3.49953
3.699777
3.899928
4.099999
0.1968391
0.4028082
0.6250177
0.8460398
1.06244
1.273953
1.481899
1.687446
1.891329
2.094029
2.295869
2.497086
2.69788
2.898434
3.098884
3.299266
3.49956
3.699762
3.899888
4.099954
0.1968547
0.4028716
0.625142
0.846205
1.062613
1.274105
1.482012
1.687514
1.891359
2.094036
2.295883
2.49714
2.697991
2.898583
3.099018
3.29935
3.499596
3.699766
3.899872
4.099929
0.1968868
0.4030047
0.6254069
0.8465616
1.062993
1.274457
1.482305
1.687739
1.891521
2.094153
2.295975
2.49723
2.698091
2.898689
3.099113
3.299419
3.499636
3.699782
3.899867
4.099907
0.1969424
0.4032404
0.6258824
0.8472009
1.06367
1.275076
1.482822
1.688146
1.891828
2.094379
2.296145
2.497365
2.698207
2.898792
3.099201
3.299489
3.499686
3.699809
3.899867
4.099874
0.19703
0.403615
0.6266389
0.8482091
1.064719
1.276019
1.483599
1.68875
1.892281
2.094713
2.29639
2.497549
2.698351
2.898909
3.0993
3.299574
3.499757
3.699859
3.899878
4.099815
0.1971499
0.4041228
0.6276563
0.8495503
1.066096
1.277237
1.484585
1.689506
1.892842
2.095122
2.296688
2.497768
2.698518
2.899044
3.099418
3.299685
3.499866
3.699958
3.89993
4.099723
0.1972777
0.404657
0.6287151
0.850934
1.067502
1.278467
1.48557
1.690254
1.893393
2.095522
2.296978
2.497982
2.698684
2.899186
3.099555
3.299836
3.500045
3.700164
3.900114
4.099667
0.1973634
0.4050121
0.6294139
0.851843
1.068422
1.279268
1.486209
1.690739
1.893751
2.095784
2.297172
2.498132
2.698811
2.89931
3.099701
3.300033
3.500329
3.700578
3.900648
4.10012
0.2871499
0.5068612
0.7097442
0.8992271
1.097517
1.298372
1.499289
1.700028
1.900793
2.101293
2.298903
2.487164
2.689974
2.858395
0.2477526
0.4648956
0.6796193
0.8878801
1.092379
1.295402
1.497518
1.699101
1.90047
2.101744
2.302858
2.504789
2.708957
2.906445
0.2115503
0.430633
0.6550339
0.8726332
1.083492
1.290039
1.494296
1.697332
1.899832
2.102308
2.305396
2.509544
2.715937
2.909794
0.1989187
0.4092146
0.6350036
0.8573681
1.073334
1.283624
1.490306
1.695032
1.898865
2.102665
2.307021
2.51261
2.719008
2.911137
0.1938983
0.3990428
0.6228126
0.8459523
1.064544
1.277571
1.486327
1.692562
1.897573
2.102309
2.307526
2.513498
2.719598
2.911273
0.1923409
0.3947111
0.6164232
0.8388712
1.05823
1.272736
1.482883
1.690203
1.89601
2.101261
2.306613
2.512311
2.718098
2.91018
0.191818
0.3928015
0.6130868
0.8347846
1.054177
1.26927
1.480156
1.688093
1.894272
2.099531
2.304397
2.509119
2.71356
2.90644
0.1915948
0.3918852
0.6113061
0.8324116
1.051636
1.266898
1.478088
1.686279
1.892499
2.097425
2.301412
2.504575
2.706724
2.859866
0.1914858
0.3914131
0.6103258
0.8310165
1.05004
1.26529
1.476553
1.68478
1.890874
2.095376
2.298482
2.500146
2.699568
2.850161
3.70562
3.907459
4.101234
0.191428
0.3911563
0.6097704
0.8301858
1.049034
1.264206
1.475436
1.683605
1.889541
2.093738
2.296339
2.497332
2.696178
2.844372
3.04482
3.299581
3.500899
3.700155
3.901014
4.100603
0.1913958
0.3910126
0.6094527
0.8296929
1.048407
1.26349
1.474652
1.682738
1.888551
2.092603
2.295107
2.496244
2.696156
2.89606
3.097178
3.298937
3.499875
3.700091
3.900406
4.10036
0.1913786
0.3909354
0.6092808
0.8294183
1.048041
1.263049
1.474138
1.682146
1.887876
2.091868
2.294452
2.49588
2.696511
2.896962
3.097788
3.298821
3.49951
3.699856
3.900083
4.100149
0.191372
0.3909063
0.6092151
0.8293072
1.047879
1.26283
1.473857
1.681798
1.887467
2.091435
2.294103
2.495771
2.696759
2.897461
3.098163
3.298858
3.499381
3.699713
3.899913
4.100011
0.1913755
0.3909228
0.6092494
0.8293484
1.047905
1.262819
1.473791
1.68167
1.887287
2.091235
2.293947
2.495751
2.69693
2.897751
3.098406
3.298954
3.49937
3.699656
3.899835
4.099935
0.1913919
0.3909967
0.6094078
0.8295728
1.048149
1.263035
1.473951
1.68176
1.887313
2.091223
2.293938
2.495794
2.697053
2.897926
3.098565
3.299048
3.499403
3.699648
3.899803
4.099893
0.191428
0.3911586
0.609752
0.8300614
1.048689
1.263543
1.474375
1.682084
1.887543
2.091382
2.294058
2.495908
2.697181
2.898063
3.098688
3.299136
3.499453
3.699664
3.899792
4.09986
0.1914959
0.3914586
0.6103827
0.8309439
1.049653
1.26444
1.47513
1.682678
1.887989
2.091709
2.294302
2.4961
2.697344
2.898207
3.098811
3.299233
3.499522
3.699702
3.899793
4.099817
0.1916073
0.3919463
0.6113944
0.8323384
1.051148
1.265806
1.476263
1.683563
1.888654
2.092199
2.294661
2.496369
2.697553
2.898378
3.098954
3.299356
3.499623
3.699774
3.899812
4.099735
0.1917608
0.3926093
0.6127546
0.8341902
1.053106
1.267566
1.477699
1.68467
1.889479
2.092801
2.295099
2.496691
2.697799
2.898576
3.099127
3.299518
3.499781
3.699917
3.899877
4.099628
0.1919228
0.3933026
0.6141646
0.8360951
1.055101
1.269341
1.479132
1.685765
1.890288
2.09339
2.295526
2.497007
2.698043
2.898783
3.099325
3.299734
3.500033
3.700201
3.90011
4.099651
0.1920306
0.3937612
0.6150933
0.8373449
1.056405
1.270496
1.480062
1.686474
1.890814
2.093776
2.295813
2.497228
2.69823
2.898965
3.099536
3.300011
3.500424
3.700743
3.900798
4.100293
0.2869529
0.5064134
0.7092822
0.8988217
1.097219
1.298183
1.499192
1.700011
1.900853
2.101434
2.299112
2.487389
2.69018
2.85842
0.2472928
0.4636693
0.6781913
0.8866344
1.09142
1.294737
1.497112
1.698913
1.900466
2.101894
2.303116
2.5051
2.709185
2.906522
0.2105835
0.4282382
0.6519368
0.8697321
1.081217
1.288435
1.493273
1.696785
1.899674
2.102467
2.30578
2.50998
2.716243
2.909893
0.1975914
0.4057024
0.6301027
0.8523292
1.069159
1.280659
1.488386
1.693955
1.898476
2.102844
2.307516
2.513164
2.719388
2.911254
0.192356
0.394765
0.6164709
0.8388992
1.058273
1.272958
1.483325
1.690836
1.896885
2.102368
2.308036
2.514096
2.72
2.911395
0.1906873
0.389977
0.6091332
0.8302996
1.050162
1.266527
1.478762
1.687787
1.894915
2.101126
2.307021
2.512832
2.718454
2.910287
0.1901062
0.3878065
0.6052173
0.825278
1.044873
1.261831
1.475084
1.68504
1.892767
2.099101
2.304563
2.509454
2.713805
2.906501
0.1898509
0.3867409
0.6030927
0.8223416
1.041594
1.258669
1.472328
1.682687
1.890565
2.096614
2.301246
2.50465
2.706802
2.859892
0.1897238
0.3861831
0.6019101
0.8206091
1.039547
1.256559
1.470309
1.680748
1.888532
2.094173
2.297968
2.499937
2.699445
2.850004
3.705982
3.907635
4.101363
0.1896558
0.3858774
0.6012373
0.8195768
1.038263
1.255148
1.468845
1.679213
1.886841
2.092177
2.295508
2.496868
2.695893
2.844089
3.044717
3.299623
3.50104
3.700307
3.901185
4.10073
0.1896183
0.3857074
0.6008531
0.8189655
1.037466
1.254218
1.467809
1.678055
1.885542
2.090733
2.293989
2.495558
2.695714
2.895784
3.097036
3.298903
3.499927
3.700174
3.900509
4.10045
0.1895988
0.3856177
0.6006471
0.8186263
1.037001
1.253642
1.467122
1.677244
1.884606
2.089748
2.293079
2.494988
2.69591
2.896553
3.097532
3.298694
3.499476
3.699875
3.900131
4.100203
0.1895917
0.3855846
0.6005691
0.818489
1.036794
1.253353
1.466738
1.676749
1.884003
2.089119
2.29255
2.494712
2.696024
2.896944
3.097816
3.298653
3.499281
3.699677
3.899916
4.100032
0.1895957
0.3856039
0.6006094
0.8185379
1.036824
1.253332
1.466637
1.676551
1.883714
2.088789
2.292283
2.494601
2.696121
2.897178
3.098011
3.2987
3.499221
3.699577
3.899799
4.099925
0.1896143
0.385689
0.6007961
0.8188095
1.037126
1.253603
1.46683
1.676645
1.883712
2.088725
2.29222
2.49461
2.69623
2.89735
3.098168
3.298785
3.499236
3.699548
3.899747
4.099864
0.1896555
0.3858768
0.6012037
0.8194028
1.0378
1.254245
1.467369
1.677051
1.883991
2.088905
2.292346
2.49473
2.69637
2.897506
3.09831
3.298885
3.499291
3.699563
3.89973
4.099823
0.1897338
0.3862272
0.6019523
0.820475
1.039
1.255384
1.468334
1.67781
1.884558
2.089317
2.292648
2.494964
2.696569
2.897682
3.098461
3.299006
3.499378
3.699613
3.899732
4.099765
0.189863
0.386798
0.6031532
0.8221669
1.04086
1.257117
1.469784
1.678946
1.885411
2.089944
2.293106
2.495306
2.696834
2.897898
3.098643
3.299161
3.499509
3.699706
3.89975
4.09968
0.1900408
0.3875731
0.604765
0.8244095
1.043292
1.259349
1.471621
1.680367
1.886471
2.090718
2.293669
2.49572
2.697149
2.898152
3.098863
3.299369
3.499712
3.699875
3.899843
4.099614
0.1902279
0.3883819
0.606433
0.8267122
1.045766
1.261597
1.473453
1.68177
1.887511
2.091476
2.29422
2.496126
2.697463
2.898418
3.099117
3.299643
3.500025
3.700213
3.900165
4.099715
0.1903523
0.3889164
0.6075308
0.828222
1.047383
1.263061
1.474643
1.682681
1.888188
2.091974
2.29459
2.496412
2.697703
2.898651
3.099384
3.299992
3.5005
3.700861
3.900974
4.100465
0.2868797
0.5062177
0.7090296
0.8985914
1.097063
1.298084
1.499137
1.699994
1.900873
2.101499
2.299238
2.487529
2.690277
2.858427
0.2471407
0.4631701
0.6775138
0.8859823
1.090892
1.294355
1.496869
1.69879
1.900447
2.101964
2.303253
2.505262
2.709293
2.906554
0.2102952
0.4273074
0.6505296
0.8682714
1.079977
1.287507
1.492656
1.696438
1.899552
2.102521
2.30595
2.510171
2.716367
2.909929
0.1971954
0.4043374
0.6278777
0.8498341
1.066919
1.278943
1.487225
1.69328
1.898199
2.102867
2.307706
2.513386
2.719532
2.911294
0.1918848
0.3930664
0.6135451
0.8353833
1.054865
1.270227
1.481476
1.689757
1.896434
2.102325
2.308213
2.514323
2.720147
2.911436
0.190165
0.3880503
0.6057019
0.8259644
1.045668
1.262707
1.476115
1.686271
1.894217
2.100967
2.307131
2.513018
2.71858
2.910322
0.1895518
0.3857347
0.6014509
0.8203825
1.039557
1.257082
1.471684
1.683068
1.891823
2.098779
2.304547
2.509552
2.713883
2.90652
0.1892776
0.3845804
0.5991171
0.8170925
1.035775
1.253295
1.468363
1.680337
1.88936
2.096082
2.301061
2.504625
2.706814
2.859899
0.1891393
0.3839697
0.5978079
0.8151437
1.033423
1.250817
1.465968
1.678081
1.887063
2.093422
2.297603
2.499777
2.699384
2.849981
3.706092
3.907734
4.101442
0.1890648
0.3836328
0.5970597
0.8139806
1.031951
1.249171
1.464234
1.676278
1.885128
2.09122
2.294968
2.496572
2.695746
2.844012
3.044687
3.299629
3.501085
3.700382
3.901275
4.100804
0.1890237
0.383445
0.5966318
0.8132918
1.031038
1.248086
1.462991
1.674884
1.883602
2.089578
2.293288
2.495132
2.695458
2.895637
3.096959
3.298877
3.499946
3.700219
3.900567
4.100504
0.1890023
0.3833465
0.5964026
0.8129095
1.030506
1.247412
1.462157
1.673864
1.882454
2.088397
2.29223
2.494438
2.695549
2.896318
3.097387
3.298619
3.499454
3.699886
3.900159
4.100236
0.1889947
0.3833102
0.5963157
0.8127539
1.030267
1.247071
1.461684
1.67321
1.881667
2.087597
2.291557
2.494051
2.695574
2.896636
3.097613
3.298531
3.49922
3.699657
3.89992
4.100046
0.1889989
0.3833311
0.5963595
0.8128067
1.030298
1.24704
1.461547
1.672926
1.881243
2.087137
2.291173
2.493846
2.695598
2.896812
3.097763
3.298542
3.499131
3.699532
3.899782
4.099924
0.189019
0.3834237
0.5965641
0.8131078
1.030638
1.247347
1.46176
1.673008
1.881185
2.086996
2.291042
2.493801
2.695668
2.896956
3.097897
3.298606
3.499126
3.699484
3.899711
4.099846
0.1890637
0.3836281
0.5970116
0.813766
1.031396
1.24808
1.462377
1.673466
1.881486
2.087168
2.291149
2.493909
2.695806
2.897116
3.098043
3.298708
3.499178
3.699495
3.899687
4.099795
0.1891485
0.3840098
0.5978326
0.814955
1.032748
1.249382
1.463489
1.67434
1.882133
2.087631
2.291484
2.494165
2.696023
2.897312
3.098214
3.298845
3.499278
3.699548
3.899687
4.099736
0.1892885
0.3846307
0.5991483
0.8168284
1.03484
1.251364
1.465164
1.675652
1.883118
2.088352
2.292009
2.494555
2.696326
2.897559
3.098422
3.299024
3.499429
3.699649
3.89972
4.09967
0.189481
0.385473
0.6009117
0.8193085
1.037572
1.253914
1.467286
1.677296
1.884344
2.089248
2.29266
2.495033
2.696689
2.897851
3.098676
3.299266
3.499654
3.699852
3.899852
4.099633
0.1896833
0.386351
0.6027352
0.8218527
1.04035
1.256481
1.469402
1.67892
1.885547
2.090125
2.293297
2.495504
2.697053
2.898158
3.098969
3.299582
3.500005
3.700247
3.900216
4.099782
0.1898177
0.3869312
0.6039349
0.8235203
1.042165
1.258152
1.470775
1.679973
1.886331
2.090703
2.293726
2.495835
2.69733
2.898427
3.099277
3.299978
3.50054
3.700958
3.90108
4.100598
0.2868608
0.5061664
0.7089578
0.8985224
1.097016
1.298053
1.499119
1.699987
1.900877
2.101518
2.299275
2.487568
2.690302
2.858428
0.2471017
0.4630349
0.677317
0.8857832
1.090725
1.294232
1.496788
1.698748
1.900438
2.101984
2.303295
2.505309
2.709323
2.906562
0.2102248
0.427059
0.6501258
0.8678296
1.079586
1.287206
1.49245
1.69632
1.899507
2.102533
2.305997
2.510225
2.716401
2.909938
0.1970991
0.4039727
0.6272389
0.849083
1.066218
1.278387
1.486838
1.693051
1.898099
2.102863
2.307754
2.513446
2.71957
2.911305
0.1917688
0.3926075
0.6126979
0.8343218
1.053808
1.269349
1.480859
1.689391
1.896268
2.102292
2.308252
2.514381
2.720184
2.911445
0.1900338
0.3875226
0.6046974
0.8246455
1.044273
1.261454
1.475209
1.685764
1.893979
2.100893
2.307146
2.513061
2.71861
2.91033
0.1894106
0.3851603
0.6003378
0.8188799
1.037896
1.255488
1.470496
1.682388
1.891509
2.098651
2.304522
2.509568
2.7139
2.906524
0.1891302
0.3839766
0.5979339
0.8154696
1.033939
1.251454
1.466954
1.679514
1.888963
2.095886
2.300984
2.504604
2.706811
2.859903
0.188988
0.3833479
0.5965813
0.813446
1.031479
1.248837
1.464412
1.677138
1.886581
2.093156
2.297467
2.499715
2.69936
2.849978
3.70612
3.907764
4.101467
0.1889113
0.3830003
0.5958069
0.8122376
1.029941
1.247104
1.46257
1.675232
1.884567
2.090886
2.294777
2.496466
2.695696
2.843991
3.044678
3.299628
3.501094
3.700403
3.901302
4.100828
0.188869
0.3828066
0.5953641
0.8115215
1.028987
1.245962
1.461241
1.673742
1.88296
2.089181
2.293043
2.494982
2.69537
2.895587
3.096932
3.298866
3.49995
3.700233
3.900586
4.100522
0.188847
0.3827048
0.5951268
0.811124
1.02843
1.24525
1.460347
1.672637
1.881713
2.087945
2.291937
2.494247
2.695424
2.896237
3.097337
3.298593
3.499445
3.699888
3.900169
4.100247
0.1888391
0.3826672
0.5950367
0.810962
1.02818
1.24489
1.459838
1.671913
1.880827
2.087082
2.291221
2.493824
2.695419
2.896531
3.097543
3.29849
3.499199
3.69965
3.899921
4.100051
0.1888436
0.3826886
0.5950814
0.8110157
1.02821
1.244854
1.459686
1.671587
1.880341
2.086548
2.290788
2.493588
2.695419
2.896687
3.097678
3.298489
3.4991
3.699517
3.899777
4.099924
0.1888641
0.3827836
0.5952919
0.8113265
1.028562
1.245173
1.459905
1.671663
1.880261
2.086363
2.290614
2.493508
2.695466
2.896815
3.097801
3.298543
3.499088
3.699462
3.8997
4.099841
0.18891
0.3829936
0.5957524
0.8120064
1.029349
1.245939
1.46055
1.672139
1.880568
2.086533
2.290711
2.493602
2.695595
2.896971
3.097944
3.298642
3.499134
3.699464
3.899669
4.099789
0.1889969
0.3833855
0.5965976
0.8132342
1.030751
1.247298
1.461716
1.673054
1.881245
2.087015
2.291058
2.493872
2.695823
2.897176
3.098121
3.298782
3.499228
3.699516
3.899671
4.099733
0.1891405
0.3840231
0.5979511
0.8151682
1.032922
1.249368
1.463472
1.674431
1.882277
2.087771
2.291608
2.494281
2.696139
2.897434
3.098338
3.298966
3.499378
3.699632
3.899718
4.099673
0.1893377
0.3848875
0.599765
0.8177275
1.035755
1.25203
1.465697
1.676158
1.883564
2.088711
2.292291
2.494782
2.69652
2.897739
3.098603
3.299211
3.499625
3.699851
3.899859
4.099646
0.1895451
0.3857885
0.6016402
0.8203525
1.038635
1.25471
1.467915
1.677863
1.884827
2.089631
2.29296
2.495276
2.696902
2.898061
3.098909
3.299534
3.500005
3.700259
3.900233
4.099809
0.1896829
0.386384
0.6028741
0.8220733
1.040516
1.256454
1.469355
1.67897
1.88565
2.090238
2.293411
2.495624
2.697193
2.898343
3.099231
3.299948
3.50056
3.700983
3.901106
4.100633
0.2868797
0.5062177
0.7090296
0.8985914
1.097063
1.298084
1.499137
1.699994
1.900873
2.1015
2.299239
2.487529
2.690278
2.858428
0.2471407
0.46317
0.6775136
0.885982
1.090891
1.294355
1.496869
1.69879
1.900448
2.101965
2.303255
2.505263
2.709294
2.906554
0.210295
0.427307
0.6505289
0.8682705
1.079976
1.287506
1.492656
1.696439
1.899554
2.102524
2.305953
2.510173
2.716368
2.909929
0.1971953
0.4043366
0.6278763
0.8498326
1.066918
1.278942
1.487225
1.693281
1.898201
2.10287
2.307709
2.513389
2.719534
2.911295
0.1918848
0.3930656
0.6135432
0.8353811
1.054863
1.270226
1.481476
1.689757
1.896435
2.102326
2.308214
2.514324
2.720147
2.911435
0.1901648
0.3880495
0.6056993
0.8259612
1.045666
1.262705
1.476114
1.68627
1.894216
2.100967
2.307129
2.513016
2.718578
2.910321
0.1895516
0.3857332
0.6014475
0.8203779
1.039554
1.25708
1.471682
1.683066
1.891821
2.098776
2.304542
2.509547
2.713879
2.906519
0.1892772
0.3845784
0.5991124
0.8170864
1.035771
1.253292
1.46836
1.680334
1.889356
2.096075
2.301052
2.504615
2.706806
2.859905
0.1891388
0.3839671
0.5978023
0.8151365
1.033418
1.250813
1.465965
1.678076
1.887057
2.093413
2.297589
2.499762
2.699372
2.849981
3.706092
3.907734
4.101441
0.1890643
0.3836301
0.5970536
0.8139731
1.031945
1.249167
1.46423
1.676273
1.885121
2.09121
2.294953
2.496553
2.69573
2.843998
3.044679
3.299625
3.501083
3.700381
3.901274
4.100804
0.1890232
0.3834425
0.5966262
0.8132843
1.031032
1.248082
1.462987
1.674879
1.883595
2.089568
2.293274
2.495113
2.69544
2.895622
3.096948
3.298872
3.499944
3.700218
3.900567
4.100504
0.1890018
0.3833443
0.5963974
0.8129025
1.030501
1.247408
1.462153
1.67386
1.882449
2.088389
2.292219
2.494424
2.695533
2.896304
3.097377
3.298614
3.499451
3.699884
3.900159
4.100236
0.1889943
0.3833081
0.5963107
0.8127472
1.030261
1.247067
1.46168
1.673206
1.881663
2.087591
2.291549
2.494041
2.695563
2.896626
3.097605
3.298527
3.499218
3.699656
3.89992
4.100047
0.1889985
0.3833289
0.596354
0.8127994
1.030292
1.247035
1.461543
1.672922
1.881239
2.087132
2.291168
2.49384
2.695591
2.896806
3.097758
3.298539
3.499129
3.699532
3.899783
4.099925
0.1890185
0.3834208
0.5965578
0.8130992
1.03063
1.247341
1.461756
1.673005
1.881182
2.086992
2.291039
2.493797
2.695664
2.896953
3.097894
3.298605
3.499126
3.699485
3.899713
4.099849
0.189063
0.3836245
0.5970038
0.8137561
1.031387
1.248074
1.462372
1.673462
1.881483
2.087165
2.291147
2.493907
2.695804
2.897115
3.098042
3.298708
3.499179
3.699497
3.899691
4.099801
0.1891476
0.3840054