/*--------------------------------*- C++ -*----------------------------------*\
  =========                 |
  \\      /  F ield         | OpenFOAM: The Open Source CFD Toolbox
   \\    /   O peration     | Website:  https://openfoam.org
    \\  /    A nd           | Version:  7
     \\/     M anipulation  |
\*---------------------------------------------------------------------------*/
FoamFile
{
    version     2.0;
    format      ascii;
    class       volScalarField;
    location    "0.1";
    object      Cy;
}
// * * * * * * * * * * * * * * * * * * * * * * * * * * * * * * * * * * * * * //

dimensions      [0 1 0 0 0 0 0];

internalField   nonuniform List<scalar> 
53911
(
0.247127
0.2477298
0.2470712
0.2481066
0.2492743
0.2493497
0.249352
0.2491938
0.2476943
0.2480649
0.2479762
0.2470188
0.2478687
0.2479295
0.4498259
0.4984765
0.4978163
0.4973396
0.4971163
0.4969828
0.4968981
0.496772
0.4966458
0.4967988
0.4971723
0.4978019
0.498696
0.451342
0.6499538
0.6987921
0.6978607
0.697202
0.6967775
0.6965527
0.6964475
0.6964124
0.6964693
0.6966947
0.6971642
0.6978727
0.6988736
0.6490471
0.8499012
0.8991559
0.8984882
0.8979614
0.8976138
0.8974133
0.8973212
0.8973126
0.8973942
0.8975997
0.8979681
0.8985239
0.8992555
0.8489869
1.049955
1.099534
1.099145
1.098812
1.098568
1.098415
1.098344
1.098344
1.098417
1.098576
1.098834
1.099182
1.099584
1.048931
1.250057
1.29975
1.299522
1.29932
1.29916
1.299053
1.299002
1.299005
1.299062
1.299177
1.299349
1.299565
1.299798
1.249031
1.450005
1.499839
1.499721
1.4996
1.499497
1.499427
1.499392
1.499396
1.499439
1.49952
1.499638
1.499789
1.499953
1.448973
1.649942
1.69991
1.699836
1.69976
1.699695
1.699649
1.699627
1.699632
1.699663
1.699722
1.699819
1.699984
1.700298
1.649166
1.850014
1.899947
1.899902
1.899855
1.899813
1.899784
1.899771
1.899775
1.899798
1.89984
1.899939
1.900325
1.900909
1.850009
2.049999
2.099967
2.099941
2.099911
2.099885
2.099867
2.099859
2.099862
2.099878
2.099906
2.100005
2.100675
2.102948
2.051617
2.051402
2.049914
2.049791
2.049745
2.048983
2.047762
2.249976
2.299991
2.299965
2.299946
2.29993
2.299918
2.299913
2.299916
2.299927
2.299943
2.300019
2.300628
2.302579
2.301531
2.301977
2.301746
2.301834
2.302051
2.302147
2.302216
2.450064
2.500001
2.49998
2.499968
2.499957
2.49995
2.499947
2.49995
2.499956
2.499966
2.500008
2.500274
2.500571
2.500604
2.500657
2.500765
2.500888
2.501089
2.501268
2.501416
2.649981
2.699994
2.699987
2.69998
2.699974
2.699969
2.699968
2.69997
2.699975
2.699981
2.699995
2.70002
2.700032
2.700016
2.700004
2.700032
2.700113
2.700228
2.700344
2.700451
2.850001
2.899995
2.899992
2.899987
2.899984
2.899982
2.899982
2.899983
2.899987
2.899992
2.899997
2.9
2.900001
2.900001
2.900007
2.900031
2.900081
2.900148
2.900222
2.900299
3.05003
3.099985
3.099993
3.099992
3.099991
3.09999
3.09999
3.099992
3.099994
3.099999
3.100004
3.100009
3.100014
3.100021
3.100034
3.100056
3.10009
3.100133
3.100183
3.100244
3.249949
3.299991
3.299997
3.299996
3.299996
3.299995
3.299996
3.299997
3.3
3.300003
3.300007
3.300013
3.300019
3.300027
3.30004
3.300058
3.300081
3.300112
3.300152
3.300208
3.450009
3.500002
3.500001
3.5
3.5
3.5
3.5
3.500002
3.500004
3.500006
3.50001
3.500015
3.50002
3.500028
3.500038
3.500051
3.500069
3.500094
3.500131
3.500189
3.649976
3.700013
3.700005
3.700004
3.700003
3.700004
3.700004
3.700006
3.700007
3.700009
3.700012
3.700015
3.70002
3.700026
3.700033
3.700043
3.700058
3.700079
3.700107
3.700146
3.850062
3.900018
3.900007
3.900006
3.900006
3.900006
3.900007
3.900008
3.900009
3.90001
3.900012
3.900014
3.900018
3.900022
3.900027
3.900034
3.900045
3.900063
3.900063
3.899864
4.049981
4.100004
4.100005
4.100005
4.100005
4.100005
4.100006
4.100007
4.100007
4.100008
4.100009
4.10001
4.100012
4.100015
4.100018
4.100022
4.10003
4.100043
4.100009
4.099464
4.249998
4.3
4.300002
4.300002
4.300001
4.300001
4.300002
4.300002
4.300002
4.300002
4.300002
4.300002
4.300002
4.300003
4.300004
4.300006
4.300009
4.300014
4.29996
4.299347
0.2920723
0.2732996
0.2570527
0.2515759
0.2502712
0.2499315
0.2498173
0.2497324
0.2497058
0.2500651
0.2514666
0.2571073
0.2741434
0.2426591
0.5043248
0.4860541
0.4740458
0.4684303
0.4660067
0.4650504
0.4646924
0.4646164
0.4648635
0.4658238
0.468339
0.4740609
0.4858328
0.498585
0.7039455
0.6932927
0.6868034
0.6824417
0.6800704
0.6789184
0.6784482
0.6784232
0.6788644
0.6800364
0.682483
0.6869672
0.6933266
0.6989562
0.8992985
0.8963949
0.8931085
0.8903886
0.8886051
0.887604
0.8871649
0.8871649
0.8876135
0.8886497
0.8905052
0.8933498
0.8967508
0.8993423
1.099271
1.09795
1.096185
1.094545
1.093327
1.09257
1.092219
1.092231
1.092608
1.093407
1.09469
1.09643
1.098308
1.099605
1.299617
1.298831
1.297808
1.296811
1.296012
1.295482
1.295228
1.295245
1.295534
1.296109
1.296966
1.298034
1.299103
1.299336
1.499774
1.499318
1.498708
1.498094
1.497579
1.497224
1.497052
1.497072
1.497287
1.497695
1.498281
1.498976
1.499661
1.498557
1.69989
1.699605
1.699228
1.698844
1.698515
1.698284
1.698174
1.698197
1.698357
1.698659
1.699108
1.699736
1.700693
1.65077
1.899938
1.899769
1.899534
1.899293
1.899084
1.898937
1.89887
1.898894
1.899016
1.899248
1.899624
1.900282
1.901746
1.853966
2.099965
2.099863
2.099717
2.099566
2.099434
2.099342
2.099303
2.099326
2.099418
2.099589
2.099877
2.100418
2.101733
2.053502
2.050088
2.09463
2.096001
2.100172
2.102442
2.103317
2.300001
2.299927
2.299829
2.299733
2.299651
2.299594
2.299572
2.299592
2.299658
2.299774
2.299955
2.300241
2.300724
2.300855
2.299488
2.298758
2.30001
2.302573
2.304632
2.305814
2.500016
2.499961
2.499897
2.499837
2.499785
2.499751
2.49974
2.499756
2.499801
2.499877
2.499983
2.500119
2.500259
2.500251
2.500042
2.500067
2.500802
2.502057
2.503239
2.504106
2.699994
2.699972
2.699936
2.6999
2.699869
2.699849
2.699844
2.699857
2.699888
2.699938
2.700003
2.700076
2.700145
2.70018
2.70021
2.700381
2.700823
2.701469
2.702126
2.7027
2.899995
2.899979
2.899961
2.899939
2.899921
2.89991
2.899909
2.899919
2.899941
2.899975
2.900019
2.90007
2.900123
2.90018
2.900263
2.900424
2.900696
2.901053
2.90144
2.901833
3.099972
3.099979
3.099975
3.099964
3.099954
3.099948
3.099949
3.099957
3.099974
3.099998
3.10003
3.100069
3.100116
3.100174
3.100256
3.10038
3.100556
3.100775
3.101029
3.101331
3.299981
3.299988
3.299987
3.299981
3.299975
3.299972
3.299974
3.299981
3.299993
3.300012
3.300036
3.300067
3.300106
3.300156
3.300224
3.300316
3.300436
3.300588
3.300782
3.30105
3.500004
3.500004
3.499999
3.499994
3.499989
3.499988
3.49999
3.499996
3.500006
3.50002
3.500038
3.500062
3.500093
3.500133
3.500185
3.500253
3.500341
3.500457
3.500625
3.500887
3.700028
3.700019
3.700009
3.700003
3.699999
3.699999
3.700001
3.700006
3.700014
3.700024
3.700038
3.700055
3.700078
3.700108
3.700146
3.700196
3.700262
3.700355
3.700502
3.700756
3.900037
3.900024
3.900014
3.900008
3.900005
3.900004
3.900006
3.900011
3.900016
3.900023
3.900033
3.900045
3.90006
3.900081
3.900107
3.900141
3.900188
3.900255
3.900364
3.900557
4.100009
4.100013
4.100011
4.100007
4.100004
4.100004
4.100005
4.100008
4.100011
4.100015
4.10002
4.100026
4.100035
4.100047
4.100062
4.100082
4.100108
4.10014
4.100174
4.100191
4.300002
4.300002
4.300003
4.300001
4.299999
4.299998
4.299998
4.299997
4.299997
4.299997
4.299997
4.299998
4.3
4.300003
4.300008
4.300015
4.30002
4.300012
4.299944
4.299662
0.2889711
0.255257
0.2259256
0.2152784
0.2119498
0.2110315
0.2107821
0.2107687
0.2109969
0.2119099
0.2152665
0.2260849
0.2569786
0.2399954
0.5067507
0.4740507
0.4499694
0.4370239
0.431307
0.4290834
0.4283115
0.4282881
0.4290263
0.4312477
0.4370036
0.4500797
0.4740004
0.4977375
0.7101491
0.6869451
0.6724665
0.6619416
0.65615
0.6533746
0.6522728
0.6522685
0.6533763
0.6561995
0.6621149
0.6728921
0.6870259
0.6980098
0.8996558
0.8928588
0.885109
0.8782915
0.8737523
0.8712416
0.8701568
0.8701757
0.8713107
0.8739104
0.8786134
0.8856484
0.893435
0.8986781
1.098561
1.095784
1.091574
1.087439
1.084327
1.082401
1.081515
1.08155
1.082512
1.084544
1.08781
1.092129
1.096507
1.099235
1.299104
1.297521
1.295061
1.292529
1.290482
1.289123
1.288475
1.288518
1.28926
1.290729
1.29291
1.295573
1.298096
1.298768
1.499548
1.49856
1.497052
1.495476
1.494151
1.493237
1.492796
1.492846
1.493395
1.494435
1.495909
1.497617
1.499085
1.497411
1.699779
1.699165
1.698223
1.69723
1.69638
1.695783
1.6955
1.695557
1.695966
1.696727
1.697819
1.699184
1.700674
1.650911
1.899888
1.89951
1.89892
1.898294
1.897753
1.897372
1.897199
1.89726
1.897572
1.89815
1.899036
1.900352
1.902252
1.854605
1.955832
1.962688
1.963838
2.099938
2.099707
2.09934
2.098946
2.098605
2.098367
2.098267
2.098326
2.098562
2.098993
2.099673
2.100764
2.102556
2.054696
2.050173
2.094521
2.099549
2.113699
2.123581
2.127232
2.299962
2.299823
2.299596
2.299349
2.299136
2.29899
2.298935
2.298988
2.299159
2.29946
2.299911
2.300541
2.301404
2.301623
2.299904
2.299415
2.302928
2.309828
2.315812
2.31919
2.499976
2.499892
2.499753
2.4996
2.499468
2.49938
2.499352
2.499395
2.499516
2.499717
2.499998
2.500345
2.500681
2.500751
2.500567
2.500991
2.503034
2.506383
2.509593
2.511907
2.699985
2.699934
2.699849
2.699755
2.699675
2.699624
2.699611
2.699646
2.69973
2.699865
2.700045
2.700255
2.700462
2.700622
2.700815
2.701354
2.702528
2.7042
2.705908
2.707385
2.899992
2.899961
2.899909
2.899852
2.899804
2.899775
2.899771
2.899799
2.899859
2.899952
2.900074
2.900219
2.900379
2.90056
2.900813
2.901254
2.901959
2.902872
2.903857
2.904855
3.099997
3.099979
3.099947
3.099912
3.099884
3.099868
3.099869
3.099891
3.099935
3.100001
3.100089
3.100197
3.100328
3.100491
3.100716
3.101041
3.10149
3.102046
3.102689
3.103449
3.300002
3.299993
3.299974
3.299951
3.299933
3.299925
3.299928
3.299945
3.299978
3.300027
3.300092
3.300175
3.300279
3.300413
3.300591
3.300828
3.301134
3.301516
3.302004
3.302671
3.500006
3.500007
3.499994
3.499977
3.499963
3.499958
3.499963
3.499977
3.500002
3.500038
3.500086
3.500149
3.500229
3.500333
3.500467
3.500641
3.500863
3.501155
3.501572
3.502216
3.70001
3.70002
3.70001
3.699993
3.699981
3.699977
3.699981
3.699993
3.700012
3.700038
3.700073
3.700119
3.700178
3.700254
3.700353
3.700479
3.700644
3.700875
3.701236
3.701853
3.900014
3.900027
3.900019
3.900002
3.89999
3.899986
3.899989
3.899998
3.900011
3.90003
3.900053
3.900084
3.900124
3.900175
3.900243
3.90033
3.900445
3.90061
3.900876
3.901356
4.100013
4.100024
4.100017
4.100003
4.099993
4.099989
4.09999
4.099994
4.100001
4.10001
4.100023
4.100039
4.100061
4.10009
4.10013
4.100181
4.100244
4.100323
4.100416
4.100527
4.300005
4.300008
4.300004
4.299997
4.299991
4.299986
4.299984
4.299982
4.299981
4.29998
4.29998
4.299982
4.299986
4.299993
4.300006
4.300023
4.300037
4.300023
4.2999
4.299423
0.2876693
0.2493121
0.2150311
0.2034795
0.1990249
0.1977328
0.1973814
0.1973758
0.1977176
0.1990069
0.2034933
0.215249
0.2512638
0.23916
0.5074538
0.4677698
0.4366639
0.4180322
0.4095538
0.4062028
0.4050393
0.4050297
0.4061803
0.4095375
0.4180741
0.4369857
0.4682368
0.4970349
0.7101691
0.6822696
0.6613954
0.6450967
0.6357402
0.6312305
0.629438
0.6294485
0.6312761
0.6358685
0.6454271
0.6621354
0.6825567
0.6973234
0.8997001
0.8899271
0.8777939
0.8663444
0.8583678
0.8539395
0.8520428
0.8520833
0.8540789
0.8586644
0.8669302
0.8786638
0.8906343
0.8981628
1.09798
1.093832
1.087043
1.079849
1.074183
1.07064
1.069025
1.06909
1.070849
1.074583
1.08049
1.087876
1.094822
1.09891
1.298656
1.296272
1.292228
1.287773
1.284024
1.281503
1.280302
1.280382
1.281752
1.284466
1.288411
1.293009
1.297099
1.298423
1.499306
1.497797
1.495287
1.492483
1.490045
1.488345
1.487522
1.487613
1.488626
1.490537
1.493191
1.496134
1.498513
1.497094
1.699661
1.698708
1.697126
1.695347
1.693777
1.692665
1.692135
1.692236
1.692984
1.694362
1.696276
1.698459
1.700434
1.650642
1.899832
1.899237
1.898241
1.897112
1.896109
1.895399
1.895073
1.895181
1.895744
1.896773
1.898271
1.900167
1.90222
1.853513
1.962686
1.977028
1.979182
2.09991
2.099543
2.098919
2.098207
2.097573
2.097128
2.096938
2.097042
2.097464
2.098224
2.099365
2.100906
2.102756
2.054133
2.04944
2.094972
2.102153
2.123747
2.140929
2.147448
2.299947
2.299722
2.299334
2.298888
2.298492
2.298218
2.298113
2.298206
2.298513
2.299047
2.299815
2.300824
2.301876
2.301982
2.300279
2.30046
2.306058
2.316912
2.326854
2.332604
2.499967
2.49983
2.499591
2.499314
2.499069
2.498904
2.49885
2.498927
2.499145
2.499507
2.500003
2.500598
2.501182
2.501429
2.501448
2.50248
2.505982
2.511605
2.517128
2.521173
2.699979
2.699896
2.69975
2.699579
2.69943
2.699333
2.699309
2.699371
2.699525
2.699772
2.700099
2.70048
2.700865
2.701203
2.701651
2.7027
2.704796
2.70773
2.710753
2.713382
2.899988
2.899939
2.899849
2.899745
2.899655
2.8996
2.899592
2.899642
2.899753
2.899924
2.90015
2.900421
2.900725
2.901076
2.90157
2.902387
2.903652
2.905273
2.907024
2.908803
3.099994
3.099967
3.099913
3.099849
3.099794
3.099763
3.099764
3.099804
3.099885
3.100008
3.100171
3.100373
3.100618
3.100926
3.101345
3.101941
3.102749
3.103742
3.104891
3.106248
3.300001
3.29999
3.299957
3.299914
3.299879
3.299861
3.299866
3.299897
3.299957
3.300047
3.300168
3.300321
3.300515
3.300763
3.30109
3.301522
3.302074
3.302759
3.303634
3.304824
3.500009
3.50001
3.499989
3.499955
3.499928
3.499916
3.499922
3.499947
3.499992
3.500058
3.500147
3.500263
3.50041
3.500601
3.500847
3.501163
3.501564
3.502089
3.502838
3.503987
3.700017
3.700029
3.700013
3.699981
3.699955
3.699944
3.699949
3.699969
3.700002
3.70005
3.700114
3.700198
3.700306
3.700446
3.700625
3.700855
3.701155
3.701573
3.702227
3.703333
3.900023
3.90004
3.900027
3.899994
3.899968
3.899957
3.89996
3.899973
3.899996
3.900028
3.900071
3.900127
3.9002
3.900295
3.900418
3.900578
3.900789
3.901096
3.901596
3.902483
4.100021
4.100036
4.100025
4.099998
4.099975
4.099964
4.099963
4.099969
4.09998
4.099996
4.100018
4.100047
4.100087
4.100141
4.100214
4.100309
4.100432
4.100594
4.100817
4.101125
4.300008
4.300013
4.300006
4.299992
4.299978
4.299969
4.299963
4.299959
4.299956
4.299954
4.299953
4.299955
4.299962
4.299976
4.3
4.300035
4.300073
4.300085
4.299967
4.299526
0.2871518
0.2477255
0.2116187
0.1989666
0.1939658
0.1924611
0.1920436
0.19204
0.1924512
0.193956
0.1989969
0.2118819
0.2498329
0.2389623
0.5067723
0.4649196
0.4307466
0.4094048
0.3993406
0.3952499
0.3938041
0.3938004
0.3952454
0.3993559
0.4095079
0.431203
0.4656866
0.4966294
0.7097571
0.6796246
0.6551866
0.6353287
0.6234411
0.6175861
0.6152292
0.6152526
0.6176741
0.6236555
0.6358335
0.6561974
0.6801006
0.696863
0.8992448
0.8879347
0.8727813
0.8577673
0.8468102
0.8405445
0.8378643
0.8379277
0.840761
0.8472689
0.8586413
0.8739543
0.8887897
0.8978185
1.097522
1.092381
1.083571
1.073653
1.065395
1.060039
1.057595
1.057695
1.060362
1.066017
1.074593
1.084632
1.093569
1.098676
1.298332
1.295287
1.289908
1.283663
1.278097
1.274211
1.272337
1.27246
1.274594
1.278756
1.28454
1.290905
1.296307
1.298277
1.499121
1.497166
1.493777
1.489798
1.486168
1.483554
1.48227
1.482406
1.483972
1.486873
1.49075
1.494858
1.498092
1.497112
1.699565
1.698317
1.696161
1.693616
1.691268
1.689561
1.688733
1.688881
1.690022
1.692085
1.694837
1.697808
1.700416
1.650832
1.899783
1.898997
1.89763
1.896007
1.894502
1.89341
1.892901
1.893056
1.893901
1.895422
1.897511
1.899955
1.902515
1.854534
1.963861
1.979205
1.981979
2.099883
2.099396
2.098535
2.097507
2.096553
2.095867
2.095568
2.095716
2.096341
2.097455
2.099022
2.100941
2.103133
2.05496
2.050188
2.095383
2.103382
2.127642
2.147658
2.155621
2.299931
2.299631
2.299094
2.298448
2.29785
2.297427
2.29726
2.297391
2.297843
2.298621
2.299715
2.300998
2.302223
2.302454
2.30081
2.301423
2.308201
2.321206
2.333449
2.340777
2.499957
2.499773
2.499441
2.499039
2.498669
2.498413
2.498326
2.498436
2.498757
2.499286
2.500018
2.500864
2.501623
2.501989
2.502221
2.503774
2.508347
2.515604
2.522864
2.528305
2.699973
2.699862
2.699657
2.69941
2.699183
2.699032
2.698992
2.699082
2.699311
2.699676
2.700159
2.700729
2.701318
2.701867
2.702596
2.704145
2.707068
2.711114
2.715326
2.719048
2.899984
2.899918
2.899794
2.899642
2.899505
2.899417
2.899404
2.899477
2.899642
2.899898
2.900236
2.900643
2.901103
2.901641
2.902394
2.903608
2.905441
2.907768
2.910293
2.912875
3.099993
3.099957
3.099882
3.099787
3.099703
3.099654
3.099654
3.099712
3.099833
3.100018
3.100263
3.100569
3.10094
3.101406
3.102036
3.102922
3.104105
3.105552
3.107228
3.109211
3.300002
3.299986
3.299941
3.299879
3.299823
3.299794
3.2998
3.299846
3.299936
3.300071
3.300253
3.300484
3.300776
3.30115
3.30164
3.302281
3.303095
3.304103
3.305388
3.307132
3.500012
3.500013
3.499985
3.499937
3.499893
3.499872
3.499879
3.499915
3.499982
3.500081
3.500215
3.500388
3.500611
3.500896
3.501265
3.501735
3.50233
3.503108
3.504213
3.505901
3.700023
3.700037
3.700017
3.699972
3.699929
3.699909
3.699915
3.699942
3.699991
3.700062
3.700158
3.700284
3.700446
3.700655
3.700924
3.701268
3.701716
3.702342
3.703319
3.704938
3.90003
3.900052
3.900036
3.899991
3.899947
3.899926
3.899927
3.899946
3.899978
3.900025
3.900089
3.900172
3.900282
3.900425
3.90061
3.900851
3.901173
3.901644
3.902398
3.903703
4.100027
4.100047
4.100034
4.099996
4.099957
4.099937
4.099933
4.09994
4.099956
4.099979
4.100011
4.100054
4.100114
4.100196
4.100306
4.100453
4.10065
4.10092
4.101303
4.101919
4.300011
4.300017
4.300009
4.299988
4.299966
4.299951
4.299941
4.299933
4.299928
4.299924
4.299922
4.299925
4.299934
4.299956
4.299994
4.300053
4.30013
4.300192
4.300164
4.299896
0.2869544
0.2472665
0.2106575
0.1976468
0.192435
0.190828
0.19037
0.1903672
0.1908207
0.1924304
0.1976891
0.2109509
0.2494553
0.2389129
0.5063221
0.4636961
0.4283671
0.4059274
0.3951193
0.3906174
0.388996
0.3889966
0.390627
0.3951619
0.4060797
0.4289242
0.4646734
0.4964528
0.7092964
0.6781994
0.6521182
0.6304949
0.6172324
0.610543
0.6078104
0.6078452
0.6106693
0.6175207
0.6311168
0.6532911
0.678885
0.6966258
0.8988417
0.8866989
0.8699098
0.852816
0.8399583
0.8323812
0.8291096
0.8291955
0.8326736
0.8405744
0.8539148
0.8712736
0.8877268
0.8976183
1.097225
1.091425
1.081318
1.069553
1.059347
1.052469
1.049256
1.049392
1.052915
1.060199
1.070746
1.082548
1.092763
1.098529
1.298138
1.294606
1.288288
1.280721
1.273631
1.268441
1.265847
1.266019
1.268976
1.274517
1.281789
1.28944
1.295761
1.298189
1.499005
1.49671
1.492673
1.48779
1.48315
1.479648
1.477865
1.47805
1.480203
1.484033
1.488923
1.493921
1.497791
1.497122
1.699499
1.698023
1.695432
1.692286
1.689275
1.687001
1.685866
1.686061
1.68759
1.690272
1.693714
1.697302
1.700385
1.650998
1.899746
1.898811
1.897159
1.895142
1.893207
1.891754
1.891058
1.891256
1.892372
1.894318
1.896881
1.899763
1.902703
1.855074
1.964293
1.980042
1.98304
2.099862
2.099279
2.098234
2.096953
2.095722
2.094808
2.094397
2.094582
2.095399
2.096809
2.098705
2.100927
2.103394
2.05555
2.050542
2.095643
2.103947
2.129122
2.150185
2.15879
2.299918
2.299558
2.298904
2.298097
2.297324
2.296758
2.296525
2.296687
2.297272
2.298271
2.299597
2.301082
2.302477
2.302818
2.301223
2.30208
2.309429
2.323414
2.336751
2.344923
2.499949
2.499727
2.499322
2.498819
2.498339
2.497996
2.497871
2.498008
2.49842
2.499117
2.500032
2.501029
2.501919
2.502411
2.502817
2.50471
2.509899
2.518052
2.526297
2.532599
2.699968
2.699833
2.699584
2.699273
2.698979
2.698775
2.698716
2.698829
2.699124
2.6996
2.700238
2.700965
2.701681
2.702367
2.703309
2.705222
2.708715
2.713519
2.718562
2.723078
2.899981
2.899902
2.899749
2.899559
2.89938
2.899262
2.899239
2.899332
2.899546
2.89988
2.900323
2.900862
2.901475
2.902186
2.903167
2.904713
2.907004
2.909893
2.913046
2.916295
3.099992
3.099948
3.099856
3.099738
3.099628
3.09956
3.099557
3.099632
3.09979
3.100031
3.100353
3.100754
3.101242
3.101852
3.102674
3.103819
3.105335
3.107178
3.109315
3.111846
3.300002
3.299983
3.299928
3.299851
3.299779
3.299737
3.299742
3.299802
3.299919
3.300096
3.300334
3.300638
3.301021
3.301509
3.302147
3.302979
3.304029
3.305323
3.30697
3.309202
3.500014
3.500015
3.499981
3.499923
3.499866
3.499834
3.499841
3.499887
3.499974
3.500104
3.500279
3.500507
3.500798
3.501171
3.50165
3.502261
3.503032
3.504039
3.505462
3.507611
3.700026
3.700044
3.700021
3.699967
3.699912
3.699881
3.699885
3.699919
3.699982
3.700074
3.7002
3.700364
3.700576
3.70085
3.701201
3.70165
3.702235
3.703051
3.704298
3.706342
3.900035
3.900062
3.900044
3.899991
3.899935
3.899902
3.8999
3.899922
3.899963
3.900024
3.900107
3.900216
3.900359
3.900546
3.900789
3.901106
3.901534
3.902147
3.903127
3.904803
4.100031
4.100056
4.100041
4.099997
4.099948
4.099916
4.099908
4.099916
4.099935
4.099964
4.100006
4.100062
4.10014
4.100248
4.100394
4.100592
4.10086
4.101232
4.101787
4.102666
4.300012
4.30002
4.30001
4.299986
4.299959
4.299936
4.299921
4.299911
4.299903
4.299897
4.299894
4.299896
4.299909
4.299937
4.29999
4.300076
4.300194
4.300328
4.300421
4.300327
0.2868811
0.2471148
0.2103717
0.1972555
0.1919716
0.1903195
0.1898407
0.1898382
0.1903137
0.1919703
0.1973051
0.2106817
0.2493399
0.2388972
0.5061257
0.4631975
0.4274441
0.4045839
0.3934578
0.3887578
0.3870444
0.3870482
0.3887766
0.3935185
0.4047668
0.4280602
0.464285
0.4963834
0.7090444
0.6775229
0.6507284
0.628313
0.6143924
0.6072718
0.6043338
0.6043766
0.6074241
0.614727
0.6290019
0.6519961
0.678341
0.6965202
0.8986128
0.8860528
0.8684682
0.8503778
0.8365729
0.8283095
0.8247004
0.8248028
0.8286549
0.8372789
0.8515845
0.8699431
0.8871965
0.8975189
1.09707
1.090899
1.080091
1.067364
1.056083
1.048305
1.044592
1.044759
1.048855
1.057094
1.068688
1.081424
1.092327
1.09845
1.298038
1.294217
1.287353
1.279024
1.270999
1.264919
1.261782
1.262
1.265592
1.272053
1.280211
1.2886
1.295445
1.298135
1.498942
1.49644
1.492009
1.48658
1.481292
1.47713
1.474929
1.475161
1.477807
1.482295
1.487824
1.493354
1.497596
1.497104
1.699461
1.697843
1.694983
1.691465
1.688022
1.685341
1.683956
1.684186
1.686019
1.689131
1.693012
1.696971
1.700308
1.651013
1.899723
1.898695
1.896863
1.894601
1.892385
1.890675
1.889832
1.890063
1.891374
1.893606
1.89647
1.89961
1.902722
1.855143
1.964438
1.980327
1.983403
2.099848
2.099204
2.098044
2.096602
2.095191
2.094114
2.093613
2.093829
2.094777
2.096383
2.098486
2.100889
2.103479
2.055694
2.050614
2.095772
2.104198
2.129678
2.151102
2.159962
2.299909
2.29951
2.298782
2.297873
2.296985
2.296317
2.296029
2.296216
2.2969
2.298035
2.299502
2.301117
2.302606
2.303
2.301446
2.302438
2.310039
2.324428
2.338225
2.346786
2.499943
2.499698
2.499245
2.498678
2.498125
2.497719
2.497563
2.497712
2.498209
2.499008
2.500021
2.501118
2.502095
2.502667
2.503179
2.505255
2.510745
2.519317
2.528029
2.534767
2.699964
2.699815
2.699536
2.699185
2.698846
2.698604
2.698528
2.698655
2.699009
2.699573
2.700296
2.701096
2.701895
2.702675
2.703752
2.705871
2.709667
2.714863
2.720343
2.725297
2.899979
2.899891
2.899721
2.899505
2.899299
2.899157
2.899128
2.899234
2.899482
2.899886
2.900417
2.901038
2.901724
2.902529
2.903649
2.9054
2.90797
2.911206
2.914748
2.918415
3.099991
3.099942
3.09984
3.099706
3.099579
3.099497
3.099491
3.099578
3.099763
3.100047
3.10043
3.100911
3.101491
3.102209
3.103167
3.104493
3.106236
3.108345
3.110792
3.113687
3.300003
3.299981
3.29992
3.299833
3.29975
3.299699
3.299703
3.299772
3.29991
3.300118
3.3004
3.300758
3.301208
3.30178
3.302526
3.303496
3.304714
3.306211
3.308107
3.310661
3.500015
3.500016
3.499979
3.499914
3.49985
3.499811
3.499815
3.499868
3.49997
3.500122
3.500328
3.500595
3.500937
3.501374
3.501934
3.502646
3.503543
3.504705
3.506335
3.508789
3.700028
3.700048
3.700023
3.699964
3.699903
3.699865
3.699865
3.699903
3.699976
3.700084
3.700231
3.700424
3.700673
3.700993
3.701403
3.701929
3.702609
3.70355
3.704989
3.707317
3.900038
3.900067
3.900049
3.899992
3.89993
3.899889
3.899882
3.899906
3.899953
3.900024
3.90012
3.900248
3.900415
3.900634
3.90092
3.901296
3.901794
3.902514
3.903654
3.905558
4.100034
4.100061
4.100046
4.099998
4.099944
4.099906
4.099892
4.099899
4.099921
4.099954
4.100002
4.100068
4.100159
4.100286
4.100459
4.100695
4.101017
4.101474
4.102153
4.103209
4.300013
4.300022
4.300012
4.299985
4.299955
4.299928
4.299908
4.299895
4.299885
4.299878
4.299874
4.299876
4.29989
4.299924
4.299989
4.300096
4.300253
4.300453
4.300645
4.300694
0.2868621
0.2470759
0.210302
0.1971604
0.1918581
0.1901932
0.1897081
0.1897059
0.1901881
0.191858
0.1972126
0.2106174
0.2493114
0.2388924
0.5060743
0.4630624
0.4271981
0.4042263
0.3930113
0.388253
0.3865115
0.3865165
0.3882753
0.3930786
0.4044199
0.4278338
0.4641828
0.496365
0.7089728
0.6773266
0.6503297
0.6276883
0.6135745
0.6063226
0.6033205
0.6033665
0.6064847
0.6139256
0.6284003
0.6516295
0.6781868
0.6964903
0.8985441
0.8858554
0.8680325
0.849646
0.8355564
0.8270818
0.8233665
0.8234754
0.8274465
0.8362924
0.850888
0.869545
0.8870375
0.8974889
1.097023
1.090733
1.079705
1.066681
1.055076
1.047025
1.043159
1.043337
1.047609
1.056135
1.068048
1.081074
1.092191
1.098425
1.298007
1.294091
1.28705
1.278474
1.270156
1.263772
1.26044
1.260683
1.264508
1.271266
1.279706
1.288331
1.295345
1.298117
1.498923
1.49635
1.491789
1.486178
1.480673
1.476265
1.473907
1.474162
1.477001
1.481724
1.487466
1.493172
1.497532
1.497096
1.699449
1.697782
1.694832
1.691188
1.687599
1.684769
1.683285
1.683531
1.685483
1.688753
1.692784
1.696866
1.700281
1.65101
1.899716
1.898655
1.896763
1.894417
1.892105
1.890302
1.889405
1.889649
1.891033
1.893371
1.89634
1.899566
1.902726
1.855154
1.964472
1.980393
1.983488
2.099843
2.099179
2.097978
2.096483
2.09501
2.093874
2.093339
2.093568
2.094564
2.096244
2.098421
2.100886
2.103509
2.055733
2.050635
2.095813
2.10427
2.129826
2.151338
2.160266
2.299906
2.299494
2.29874
2.297797
2.296869
2.296165
2.295855
2.296057
2.296776
2.297959
2.29948
2.30114
2.302659
2.303066
2.301524
2.302556
2.310226
2.324722
2.338644
2.347315
2.499941
2.499688
2.499219
2.498629
2.498052
2.497624
2.497457
2.497622
2.498154
2.498974
2.500026
2.50116
2.502167
2.502764
2.503308
2.505439
2.511017
2.519708
2.528554
2.535424
2.699963
2.699809
2.69952
2.699155
2.698801
2.698545
2.698463
2.698598
2.698983
2.699574
2.700318
2.701148
2.701977
2.70279
2.703909
2.706093
2.709982
2.715295
2.720907
2.725998
2.899979
2.899887
2.899711
2.899487
2.899271
2.899122
2.899089
2.899203
2.899477
2.899916
2.900462
2.901099
2.901814
2.902652
2.903819
2.905637
2.908296
2.911642
2.91531
2.919115
3.099991
3.09994
3.099834
3.099695
3.099563
3.099476
3.099469
3.099562
3.099761
3.100072
3.100494
3.101
3.101594
3.102339
3.103342
3.104731
3.106555
3.108763
3.111322
3.114346
3.300003
3.299981
3.299917
3.299827
3.29974
3.299686
3.299689
3.299762
3.299909
3.300132
3.300435
3.300824
3.301313
3.301923
3.302711
3.303733
3.305012
3.306574
3.308551
3.311219
3.500016
3.500017
3.499978
3.499911
3.499844
3.499803
3.499806
3.499861
3.499969
3.50013
3.50035
3.500634
3.500998
3.50146
3.502052
3.502801
3.503738
3.504957
3.506678
3.509255
3.700029
3.700049
3.700023
3.699963
3.6999
3.699861
3.699857
3.699897
3.699974
3.700088
3.700243
3.700447
3.70071
3.701049
3.701483
3.702036
3.702753
3.703753
3.705273
3.707712
3.900039
3.900069
3.90005
3.899992
3.899929
3.899886
3.899875
3.899898
3.899948
3.900023
3.900124
3.900259
3.900436
3.900668
3.90097
3.901362
3.901896
3.902674
3.903884
3.905892
4.100035
4.100063
4.100048
4.099998
4.099944
4.099904
4.099886
4.099892
4.099914
4.099949
4.099999
4.100069
4.100166
4.1003
4.100485
4.100739
4.101091
4.101592
4.102336
4.103483
4.300014
4.300023
4.300012
4.299985
4.299953
4.299925
4.299904
4.299889
4.299878
4.29987
4.299865
4.299867
4.299882
4.299919
4.299991
4.300111
4.300292
4.300532
4.300784
4.300918
0.286881
0.2471146
0.2103713
0.1972549
0.1919711
0.1903192
0.1898405
0.1898382
0.1903138
0.1919704
0.1973053
0.210682
0.2493404
0.2388939
0.5061254
0.4631966
0.4274426
0.4045819
0.3934557
0.3887562
0.3870434
0.3870478
0.3887767
0.3935187
0.4047671
0.4280608
0.4642857
0.4963838
0.7090441
0.6775219
0.650726
0.6283095
0.6143886
0.6072686
0.6043314
0.6043753
0.607424
0.6147278
0.629003
0.6519975
0.6783415
0.6965199
0.8986125
0.8860516
0.8684656
0.8503741
0.8365689
0.8283058
0.8246979
0.824802
0.8286556
0.8372813
0.8515879
0.869946
0.8871977
0.8975184
1.09707
1.090898
1.080089
1.067361
1.05608
1.048303
1.044592
1.04476
1.048859
1.0571
1.068695
1.081431
1.09233
1.09845
1.298038
1.294216
1.287352
1.279022
1.270998
1.264919
1.261784
1.262005
1.2656
1.272065
1.280225
1.288613
1.295454
1.298137
1.498943
1.49644
1.492009
1.486579
1.481292
1.477132
1.474934
1.475169
1.477819
1.482313
1.487847
1.493379
1.497612
1.497107
1.699461
1.697843
1.694983
1.691465
1.688023
1.685344
1.683961
1.684197
1.686036
1.689157
1.693047
1.697009
1.700335
1.651017
1.899723
1.898695
1.896863
1.894601
1.892386
1.890678
1.889839
1.890075
1.891394
1.893637
1.896514
1.899663
1.902763
1.855161
1.964438
1.980328
1.983403
2.099848
2.099204
2.098044
2.096603
2.095192
2.094118
2.09362
2.093841
2.094797
2.096415
2.098533
2.100948
2.103534
2.055745
2.050636
2.095782
2.104203
2.129681
2.151103
2.159963
2.299909
2.29951
2.298782
2.297874
2.296986
2.296321
2.296035
2.296228
2.296919
2.298064
2.299545
2.301172
2.302666
2.303051
2.301482
2.30246
2.310052
2.324435
2.338229
2.346788
2.499943
2.499698
2.499245
2.498678
2.498127
2.497722
2.497569
2.497722
2.498224
2.499032
2.500055
2.501163
2.502146
2.502715
2.503217
2.505281
2.510762
2.519328
2.528036
2.534773
2.699964
2.699815
2.699536
2.699186
2.698847
2.698607
2.698533
2.698662
2.699021
2.699591
2.700321
2.701127
2.701931
2.702711
2.703782
2.705895
2.709685
2.714877
2.720356
2.725312
2.899979
2.899891
2.899721
2.899505
2.8993
2.89916
2.899131
2.89924
2.899491
2.899899
2.900434
2.901059
2.901749
2.902554
2.903672
2.90542
2.907988
2.911224
2.91477
2.918443
3.099991
3.099942
3.09984
3.099707
3.09958
3.099499
3.099494
3.099583
3.09977
3.100056
3.100442
3.100925
3.101508
3.102226
3.103185
3.104511
3.106256
3.108371
3.110828
3.113739
3.300003
3.299982
3.29992
3.299834
3.29975
3.2997
3.299705
3.299775
3.299914
3.300124
3.300407
3.300767
3.301219
3.301793
3.302541
3.303515
3.30474
3.306249
3.308164
3.310749
3.500015
3.500016
3.499979
3.499914
3.49985
3.499812
3.499816
3.49987
3.499973
3.500126
3.500333
3.500602
3.500946
3.501385
3.501949
3.502667
3.503576
3.504757
3.506419
3.508924
3.700029
3.700048
3.700023
3.699964
3.699904
3.699866
3.699866