/*--------------------------------*- C++ -*----------------------------------*\
  =========                 |
  \\      /  F ield         | OpenFOAM: The Open Source CFD Toolbox
   \\    /   O peration     | Website:  https://openfoam.org
    \\  /    A nd           | Version:  7
     \\/     M anipulation  |
\*---------------------------------------------------------------------------*/
FoamFile
{
    version     2.0;
    format      ascii;
    class       volScalarField;
    location    "0.1";
    object      Cz;
}
// * * * * * * * * * * * * * * * * * * * * * * * * * * * * * * * * * * * * * //

dimensions      [0 1 0 0 0 0 0];

internalField   nonuniform List<scalar> 
53911
(
0.04746803
0.04628138
0.04565362
0.0459516
0.0463661
0.0463867
0.0463758
0.04631876
0.04581082
0.04586685
0.04588653
0.0456026
0.04619996
0.0479971
0.04663737
0.09629692
0.0945667
0.09389098
0.09371175
0.09363344
0.09359361
0.09356612
0.09355529
0.09362474
0.09383682
0.09464718
0.09737111
0.04675942
0.04645256
0.09465181
0.09161929
0.09051272
0.09018041
0.09006336
0.09001665
0.09000659
0.09003476
0.09013684
0.09046794
0.09168472
0.09580717
0.0454824
0.04634323
0.09392796
0.09051608
0.08913606
0.08870191
0.08854797
0.08848907
0.08848078
0.08852195
0.08865529
0.08907532
0.09055044
0.09507922
0.04525069
0.04631764
0.09367525
0.09016915
0.08869698
0.08820941
0.08803017
0.08796051
0.08795103
0.08799996
0.08815499
0.0886259
0.09020019
0.09487963
0.04510577
0.04570849
0.09352571
0.09003534
0.08853373
0.0880212
0.08782644
0.08774899
0.08773775
0.08779089
0.08795845
0.08845553
0.09007832
0.09485784
0.04526936
0.04540606
0.09348116
0.08997768
0.08846004
0.08793404
0.08772998
0.08764701
0.08763327
0.08768685
0.08785841
0.08836567
0.0900201
0.09485548
0.04526236
0.04603734
0.09351191
0.08995635
0.08842423
0.08788972
0.0876795
0.08759194
0.08757453
0.08762428
0.08778943
0.08828204
0.08992055
0.09487189
0.04541833
0.04613973
0.09352779
0.08994701
0.0884052
0.08786514
0.08765046
0.08755874
0.08753611
0.0875766
0.08772105
0.08815259
0.08956109
0.09396072
0.04532175
0.04634551
0.0935349
0.08994005
0.08839386
0.08785044
0.0876323
0.08753637
0.08750696
0.08753366
0.0876442
0.08797302
0.08901089
0.09160788
0.04325001
0.0463845
0.04647814
0.04642871
0.04643605
0.04622081
0.04584365
0.04631161
0.09350244
0.08992879
0.08838561
0.08784101
0.0876202
0.08752
0.08748313
0.08749408
0.08756545
0.08777919
0.08847062
0.09068124
0.09130664
0.09301923
0.09322175
0.0932058
0.09319236
0.09319453
0.09321363
0.04569976
0.09342509
0.08991349
0.0883792
0.08783463
0.08761173
0.08750774
0.08746395
0.08746041
0.08749778
0.08761175
0.08793687
0.08843072
0.08887163
0.08923661
0.08942878
0.08945862
0.08946245
0.08947131
0.08948444
0.04528379
0.09337955
0.08990336
0.08837528
0.08783092
0.08760633
0.0874991
0.08744951
0.08743476
0.08744856
0.08749814
0.0875966
0.08774006
0.08789111
0.08800676
0.08807356
0.08810743
0.08813159
0.0881565
0.08817504
0.04525998
0.09338059
0.08990334
0.08837489
0.08782971
0.0876037
0.08749422
0.08744028
0.08741796
0.08741738
0.08743542
0.08747154
0.08752292
0.08757906
0.08762691
0.08766386
0.08769685
0.08773268
0.08776935
0.08779562
0.04537909
0.09342476
0.08991346
0.08837825
0.08783167
0.0876048
0.08749386
0.0874371
0.08740993
0.08740106
0.08740531
0.08741977
0.08744168
0.08746727
0.08749389
0.08752244
0.087557
0.08759991
0.08764558
0.08768007
0.046079
0.09350206
0.08992998
0.08838581
0.0878381
0.08761133
0.08749983
0.08744166
0.08741171
0.08739822
0.08739548
0.08740037
0.08741074
0.08742513
0.08744383
0.08746947
0.08750588
0.08755437
0.08760821
0.08765307
0.04636763
0.0935389
0.08994463
0.08839807
0.08785144
0.08762606
0.08751512
0.08745688
0.0874258
0.08741021
0.08740415
0.08740451
0.08740965
0.0874196
0.08743527
0.08746034
0.08749909
0.08755337
0.0876182
0.08768212
0.04631353
0.09352262
0.08995466
0.0884164
0.08787416
0.08765167
0.08754293
0.08748576
0.08745481
0.08743855
0.08743098
0.08742946
0.08743266
0.08744069
0.08745537
0.08748099
0.08752297
0.08758582
0.0876755
0.08779561
0.04569981
0.09346709
0.08996449
0.08844129
0.08790582
0.08768773
0.08758228
0.08752717
0.08749742
0.08748155
0.08747377
0.08747155
0.08747402
0.0874815
0.08749623
0.08752334
0.08757026
0.08764826
0.08779236
0.08813043
0.04528672
0.09344274
0.0899793
0.08846851
0.08793955
0.08772615
0.0876243
0.08757177
0.08754364
0.08752856
0.08752132
0.08751932
0.08752184
0.08752948
0.08754507
0.08757467
0.08762918
0.08773162
0.08796426
0.08866068
0.04526536
0.09344802
0.0899927
0.08848736
0.08796227
0.08775208
0.08765255
0.08760193
0.08757512
0.08756123
0.08755476
0.08755356
0.08755688
0.08756555
0.08758284
0.08761602
0.08768057
0.08781391
0.08815124
0.08918355
0.2964531
0.3041464
0.3084939
0.3106272
0.3106904
0.3105102
0.3104028
0.3102962
0.310195
0.3103926
0.3104775
0.3085264
0.3048851
0.2480936
0.3044273
0.2952441
0.2926682
0.2916364
0.2912161
0.2909715
0.2908464
0.2907991
0.2908453
0.2910676
0.2915084
0.2925747
0.2949848
0.2993248
0.308897
0.2927844
0.287133
0.2847801
0.2838659
0.283471
0.2833058
0.2832802
0.2833954
0.2837369
0.2845712
0.2867493
0.2916621
0.299802
0.3107951
0.2916903
0.2847827
0.2816308
0.2803496
0.2798044
0.2795853
0.2795596
0.2797224
0.2801917
0.2813475
0.2842528
0.2903356
0.299643
0.3105651
0.2911525
0.2838334
0.2803302
0.2788397
0.2781877
0.2779227
0.2778923
0.2780904
0.2786543
0.2800113
0.2832827
0.2898608
0.2995466
0.3100551
0.2907939
0.283393
0.2797481
0.2781489
0.2774299
0.2771315
0.2770947
0.2773137
0.2779353
0.2794043
0.2828622
0.2897076
0.2994309
0.3099437
0.2906431
0.2831816
0.2794661
0.2778078
0.2770473
0.2767246
0.2766784
0.2769024
0.2775452
0.2790598
0.282607
0.2896489
0.2986171
0.3101588
0.2906407
0.283087
0.2793225
0.2776278
0.2768401
0.2764977
0.2764367
0.2766468
0.2772708
0.2787558
0.2822824
0.2896657
0.2462376
0.3102399
0.2906518
0.2830413
0.2792448
0.2775266
0.2767193
0.2763582
0.276275
0.2764498
0.277004
0.2783348
0.2815204
0.2885336
0.2461536
0.3103074
0.2906507
0.2830114
0.2791984
0.2774654
0.2766425
0.2762625
0.2761504
0.2762705
0.2767042
0.2777399
0.2801433
0.2854448
0.2418139
0.2460583
0.2946552
0.2943609
0.2941566
0.2943297
0.2945265
0.3101933
0.2905932
0.2829792
0.2791663
0.2774254
0.2765903
0.2761915
0.2760468
0.2761023
0.2763932
0.2770748
0.2785295
0.2813678
0.2848217
0.2866089
0.2867994
0.2866564
0.2864368
0.2863526
0.2863871
0.3098528
0.2904808
0.2829431
0.2791425
0.2773987
0.2765537
0.2761374
0.2759614
0.2759559
0.2761176
0.2765012
0.2772253
0.2783799
0.279632
0.2804443
0.2807613
0.2808306
0.2808317
0.2808599
0.2809062
0.3096717
0.2904079
0.2829196
0.2791286
0.2773825
0.2765296
0.2760987
0.2758964
0.2758421
0.2759087
0.2761006
0.2764365
0.2769075
0.2774005
0.2777672
0.2779801
0.2781059
0.2782098
0.278316
0.2783953
0.3096742
0.2904087
0.2829196
0.2791269
0.2773777
0.2765188
0.2760767
0.2758547
0.2757654
0.2757702
0.2758534
0.276007
0.2762136
0.276432
0.2766207
0.2767744
0.2769188
0.2770764
0.2772366
0.2773515
0.3098536
0.2904826
0.2829444
0.2791399
0.277387
0.2765242
0.2760751
0.2758401
0.2757281
0.2756955
0.2757199
0.2757876
0.2758851
0.2759972
0.2761137
0.2762408
0.2763953
0.2765852
0.2767849
0.2769355
0.3101963
0.2905997
0.282987
0.27917
0.2774164
0.2765537
0.2761024
0.2758606
0.2757355
0.2756817
0.2756749
0.2757008
0.2757502
0.2758172
0.2759035
0.2760204
0.276184
0.2763983
0.2766338
0.2768286
0.3103229
0.2906677
0.2830343
0.2792214
0.2774757
0.2766195
0.2761715
0.2759289
0.2757982
0.2757337
0.275711
0.2757167
0.2757439
0.2757913
0.2758652
0.2759801
0.2761542
0.2763938
0.2766749
0.2769431
0.310221
0.2906608
0.2830845
0.2793008
0.277575
0.2767333
0.2762946
0.2760567
0.2759266
0.2758586
0.2758291
0.2758256
0.2758428
0.2758819
0.2759515
0.2760691
0.2762572
0.2765319
0.2768902
0.2773109
0.3099071
0.2906109
0.2831458
0.2794089
0.2777122
0.2768914
0.2764675
0.2762389
0.2761136
0.2760469
0.2760158
0.2760092
0.2760228
0.2760592
0.276129
0.2762527
0.2764612
0.2767918
0.2772951
0.2780594
0.3097528
0.2906033
0.2832189
0.2795248
0.2778574
0.2770585
0.2766505
0.2764329
0.2763145
0.2762518
0.2762225
0.2762164
0.2762303
0.2762676
0.276341
0.2764749
0.2767129
0.2771286
0.2778767
0.2793229
0.3097457
0.2906307
0.2832739
0.2796032
0.2779545
0.2771703
0.2767737
0.2765644
0.2764521
0.2763937
0.2763681
0.2763655
0.2763829
0.2764247
0.2765052
0.2766546
0.2769307
0.2774519
0.278506
0.2808514
0.4990692
0.5045898
0.5120908
0.5128183
0.5128535
0.5126313
0.5124978
0.5124867
0.5126041
0.5128299
0.5128198
0.5121431
0.5048496
0.4497132
0.5046282
0.4978897
0.4965098
0.4955661
0.4950282
0.4946735
0.4944975
0.4944816
0.4946316
0.4949758
0.4955211
0.4965045
0.497922
0.4997887
0.5121238
0.4965356
0.4932628
0.4910016
0.489813
0.4892241
0.4889667
0.4889464
0.4891635
0.4897097
0.490835
0.4929165
0.4960365
0.4997623
0.5128352
0.4955696
0.4909947
0.4877422
0.4859669
0.485108
0.4847448
0.4847171
0.4850214
0.4858064
0.4874634
0.4905349
0.4949332
0.4996776
0.5128388
0.4949953
0.4897717
0.4859339
0.48374
0.4826608
0.4822012
0.4821649
0.4825482
0.4835376
0.4856091
0.4893259
0.494411
0.4995716
0.5125849
0.4945932
0.4891257
0.4850072
0.482583
0.4813592
0.4808277
0.4807805
0.4812155
0.4823363
0.4846475
0.4887179
0.4941814
0.499394
0.5124353
0.4943674
0.4887795
0.4845182
0.4819653
0.4806506
0.4800661
0.4800016
0.4804541
0.4816325
0.4840513
0.4883258
0.4941079
0.4991741
0.5123966
0.4942681
0.4885998
0.4842541
0.4816243
0.4802494
0.4796219
0.4795285
0.4799604
0.4811195
0.4835195
0.4878658
0.4940952
0.448664
0.5123923
0.494226
0.4885046
0.484106
0.481427
0.4800087
0.479341
0.4792029
0.4795712
0.4806194
0.4828168
0.4869172
0.4932232
0.4484877
0.5057192
0.5037651
0.5047581
0.5123922
0.4942014
0.4884482
0.4840174
0.4813057
0.4798532
0.4791443
0.4789461
0.4792099
0.480053
0.4818207
0.4851513
0.4905517
0.4459406
0.4482845
0.4974224
0.4973302
0.4967505
0.4963472
0.4964756
0.5123774
0.4941723
0.4884064
0.4839598
0.4812264
0.4797452
0.4789948
0.4787279
0.4788642
0.4794508
0.4806732
0.4828765
0.486265
0.4897576
0.4913989
0.4915962
0.4915286
0.4913102
0.4911867
0.4912513
0.5123467
0.494137
0.4883722
0.4839207
0.4811732
0.4796682
0.4788791
0.4785444
0.4785554
0.4788998
0.4796385
0.4808675
0.4825807
0.484277
0.4853508
0.4858106
0.4859371
0.4859318
0.4859617
0.486037
0.512326
0.4941137
0.488352
0.4838987
0.4811413
0.4796173
0.4787948
0.4784018
0.4783086
0.4784644
0.4788626
0.4795039
0.4803306
0.4811478
0.4817542
0.4821327
0.4823838
0.4825999
0.4828165
0.4829778
0.5123266
0.4941148
0.4883523
0.483896
0.4811315
0.4795936
0.4787459
0.4783085
0.4781383
0.4781646
0.4783519
0.4786735
0.4790834
0.4795036
0.4798682
0.4801773
0.4804789
0.480809
0.4811421
0.4813822
0.5123489
0.4941418
0.4883766
0.4839175
0.4811501
0.4796053
0.4787417
0.4782743
0.478053
0.4779975
0.4780618
0.478215
0.478426
0.4786629
0.4789093
0.4791799
0.4795089
0.4799085
0.4803256
0.4806411
0.5123834
0.4941863
0.4884248
0.4839711
0.4812104
0.4796681
0.4787993
0.4783162
0.478065
0.4779615
0.4779573
0.4780227
0.4781366
0.4782872
0.4784778
0.4787322
0.4790831
0.4795359
0.480029
0.4804349
0.5124053
0.4942332
0.4884985
0.4840704
0.4813328
0.4798067
0.4789455
0.47846
0.4781957
0.4780673
0.4780274
0.478048
0.4781145
0.4782245
0.4783906
0.4786428
0.4790174
0.4795241
0.480109
0.4806535
0.5124081
0.4942796
0.4886049
0.4842307
0.4815375
0.480044
0.4792041
0.4787288
0.4784647
0.4783276
0.4782713
0.4782709
0.4783154
0.4784072
0.4785648
0.4788234
0.4792278
0.4798045
0.4805305
0.481327
0.5123997
0.494334
0.4887465
0.4844491
0.4818181
0.4803713
0.479564
0.479109
0.4788547
0.4787196
0.4786593
0.4786514
0.4786875
0.4787732
0.4789311
0.4792031
0.4796482
0.4803272
0.4812887
0.4825676
0.5124015
0.4943998
0.4888996
0.4846795
0.4821127
0.480715
0.4799431
0.4795119
0.4792723
0.4791451
0.4790884
0.4790813
0.4791176
0.4792053
0.4793703
0.4796631
0.4801639
0.4809879
0.4823122
0.4844385
0.5124107
0.49445
0.4890039
0.4848333
0.4823087
0.4809444
0.4801974
0.4797844
0.4795578
0.4794405
0.4793918
0.4793919
0.4794361
0.4795334
0.4797137
0.4800369
0.4806075
0.481606
0.4833709
0.4865033
0.6995507
0.6997079
0.7007269
0.701192
0.7010324
0.7008161
0.7006954
0.700692
0.7008084
0.7010273
0.7011987
0.7007607
0.699866
0.649899
0.6997137
0.6986268
0.6978304
0.6971779
0.6967131
0.6963867
0.6962224
0.6962168
0.6963738
0.6967036
0.6971946
0.6979235
0.6988892
0.6997729
0.7007333
0.6978353
0.6960285
0.6944961
0.6934311
0.6928378
0.6925679
0.6925585
0.6928136
0.6934049
0.694501
0.6961567
0.6981067
0.6996398
0.7011962
0.6971722
0.6944862
0.6923023
0.6906809
0.6897544
0.6893471
0.6893307
0.6897087
0.6906185
0.6922526
0.6946811
0.6974733
0.6995255
0.7010271
0.6966872
0.6933853
0.690639
0.6885755
0.6873508
0.6868072
0.6867812
0.687278
0.6884741
0.6906087
0.6937
0.6970771
0.6994461
0.7007978
0.6963269
0.6927315
0.689624
0.6872442
0.6857923
0.6851369
0.6850977
0.6856828
0.6870965
0.6895907
0.6931079
0.6968472
0.6993901
0.7006562
0.6961053
0.6923502
0.6890476
0.686481
0.6848853
0.6841469
0.684085
0.684709
0.6862288
0.6889098
0.6926856
0.6967149
0.6994136
0.7005993
0.6959895
0.6921357
0.6887178
0.6860382
0.6843481
0.6835434
0.683442
0.6840488
0.685568
0.6882917
0.692208
0.6966048
0.6493604
0.7005819
0.6959326
0.6920161
0.6885257
0.6857734
0.6840156
0.6831497
0.6829867
0.6835152
0.6849158
0.6874932
0.6913266
0.6958918
0.649191
0.7045865
0.7067096
0.7068628
0.7005764
0.6959018
0.6919461
0.6884093
0.6856072
0.6837956
0.6828677
0.6826195
0.6830105
0.6841642
0.6863531
0.6897164
0.6939463
0.6477028
0.6490918
0.6985365
0.6984982
0.6984334
0.6985107
0.6987077
0.7005703
0.6958801
0.691901
0.6883348
0.685497
0.6836401
0.6826491
0.6823008
0.6825169
0.683346
0.6849563
0.6874541
0.6905693
0.6933468
0.6946307
0.6948555
0.6948762
0.6948178
0.6948297
0.6949444
0.7005613
0.695862
0.6918706
0.6882866
0.685423
0.6835276
0.6824763
0.6820272
0.6820657
0.6825732
0.6835982
0.6851603
0.6870883
0.6888254
0.6898984
0.6904005
0.6906107
0.6907022
0.6908148
0.6909491
0.700555
0.6958515
0.6918543
0.6882597
0.6853778
0.6834516
0.6823484
0.6818103
0.6816953
0.6819384
0.682516
0.6833968
0.6844669
0.6854715
0.6862049
0.6866781
0.6870052
0.6872867
0.6875676
0.6877807
0.7005556
0.6958526
0.6918549
0.688256
0.685363
0.6834149
0.682272
0.6816649
0.6814336
0.6814875
0.6817725
0.6822387
0.6828091
0.6833752
0.6838626
0.6842819
0.6846944
0.6851429
0.6855935
0.6859212
0.7005639
0.6958675
0.6918763
0.6882811
0.6853868
0.6834286
0.682261
0.681607
0.6812966
0.6812269
0.6813333
0.6815662
0.6818766
0.6822176
0.6825685
0.6829521
0.6834137
0.683968
0.6845439
0.6849829
0.7005772
0.6958961
0.6919245
0.6883478
0.6854673
0.6835144
0.682339
0.6816601
0.6813024
0.6811586
0.6811618
0.681267
0.6814419
0.6816679
0.6819486
0.6823172
0.6828168
0.6834535
0.6841422
0.6847112
0.7005907
0.6959383
0.6920091
0.6884755
0.6856317
0.683705
0.6825413
0.6818581
0.6814792
0.6812967
0.6812442
0.681282
0.6813878
0.6815564
0.6818049
0.6821745
0.682713
0.6834315
0.6842519
0.685008
0.7006036
0.695998
0.6921419
0.688684
0.6859053
0.6840291
0.6828979
0.6822301
0.6818506
0.6816537
0.6815757
0.6815809
0.6816532
0.6817957
0.6820333
0.682415
0.6829999
0.6838189
0.6848276
0.6858959
0.7006184
0.6960767
0.6923212
0.6889676
0.6862785
0.6844735
0.6833917
0.6827543
0.6823895
0.6821947
0.68211
0.6821032
0.6821625
0.6822961
0.6825351
0.6829378
0.6835816
0.6845374
0.6858385
0.6874266
0.7006358
0.6961613
0.6925099
0.6892644
0.6866681
0.6849376
0.6839097
0.6833081
0.6829653
0.6827822
0.6827024
0.6826966
0.682756
0.6828924
0.6831427
0.6835757
0.6842941
0.6854284
0.6871338
0.6894627
0.7006489
0.6962188
0.6926357
0.6894616
0.6869268
0.685247
0.6842571
0.6836828
0.6833598
0.6831917
0.6831241
0.6831294
0.6832005
0.6833515
0.6836243
0.6840991
0.6849075
0.6862471
0.6883787
0.6914156
0.899778
0.899473
0.8991617
0.8988361
0.8985757
0.8984161
0.8983449
0.898344
0.8984147
0.8985767
0.8988454
0.8991927
0.8995799
0.849968
0.8994736
0.8990409
0.8984891
0.897963
0.8975676
0.8973106
0.8971864
0.8971856
0.8973115
0.8975804
0.8980111
0.8986258
0.8993406
0.8998876
0.8991624
0.8984889
0.8975796
0.8966459
0.8959221
0.8954651
0.895248
0.895247
0.8954684
0.8959513
0.8967498
0.8978429
0.8990174
0.8998324
0.8988364
0.8979552
0.8966347
0.8951917
0.8940379
0.8932704
0.8929167
0.8929137
0.8932716
0.8940831
0.8953772
0.8970305
0.8986864
0.8997734
0.8985727
0.8975463
0.8958805
0.8939965
0.8925348
0.8914894
0.8909825
0.8909737
0.8914768
0.8925612
0.8942578
0.8963888
0.8984298
0.8997227
0.8984067
0.897262
0.8953664
0.893136
0.8913753
0.8900961
0.8894506
0.88943
0.890051
0.8913896
0.8934427
0.8959277
0.898246
0.899681
0.8983216
0.8970871
0.8950431
0.8926105
0.8906347
0.8891771
0.8884193
0.8883759
0.8890666
0.8905682
0.8928391
0.8955597
0.8981096
0.8996862
0.8982854
0.8969896
0.89485
0.8922939
0.8901885
0.8886149
0.8877733
0.8876885
0.8883785
0.8899217
0.8922771
0.8951421
0.8979781
0.8496549
0.898272
0.8969376
0.8947369
0.8921029
0.8899138
0.8882586
0.887343
0.8871908
0.887808
0.8892743
0.8915694
0.8944349
0.8974388
0.8495233
0.900343
0.9006946
0.9008444
0.8982673
0.896909
0.8946696
0.8919851
0.8897377
0.888018
0.8870281
0.8867803
0.8872537
0.8885197
0.8905758
0.8932032
0.8960945
0.8485376
0.8494371
0.8991009
0.8990422
0.8990022
0.8990626
0.8991926
0.8982641
0.8968911
0.8946275
0.8919098
0.8896195
0.8878445
0.8867786
0.8864148
0.8866951
0.8876565
0.8892958
0.8914397
0.8937528
0.8956962
0.896611
0.8968062
0.8968608
0.8968796
0.8969437
0.8970517
0.8982608
0.8968792
0.894601
0.8918613
0.889539
0.8877165
0.8865774
0.8860935
0.886169
0.886784
0.8879249
0.8894647
0.8911243
0.8925126
0.8933776
0.8938138
0.8940365
0.8941876
0.894352
0.8945025
0.8982586
0.8968731
0.8945874
0.8918347
0.8894892
0.8876283
0.8864252
0.8858332
0.8857259
0.8860338
0.8867197
0.887695
0.888786
0.8897521
0.890447
0.8909122
0.8912534
0.8915531
0.8918503
0.892079
0.8982592
0.8968742
0.8945878
0.8918301
0.8894712
0.8875835
0.8863314
0.8856544
0.8854053
0.8854885
0.8858372
0.8863861
0.8870314
0.8876438
0.8881562
0.888592
0.8890135
0.8894626
0.8899135
0.8902476
0.8982628
0.8968839
0.8946053
0.8918536
0.8894939
0.8875937
0.8863112
0.8855762
0.8852294
0.8851621
0.8852995
0.8855811
0.8859428
0.8863272
0.8867136
0.8871282
0.887618
0.8881985
0.8887999
0.8892644
0.8982696
0.8969049
0.8946471
0.8919176
0.8895747
0.8876809
0.8863889
0.8856227
0.8852175
0.885059
0.8850717
0.8852023
0.8854104
0.8856713
0.8859885
0.8863961
0.886939
0.8876232
0.8883619
0.8889783
0.8982793
0.8969408
0.8947243
0.8920417
0.8897401
0.8878767
0.8865991
0.8858275
0.8853957
0.8851892
0.885134
0.8851837
0.885311
0.8855083
0.8857932
0.8862085
0.8868048
0.8875928
0.8884884
0.8893171
0.8982925
0.8969963
0.8948475
0.8922436
0.8900146
0.888209
0.8869704
0.8862168
0.8857837
0.885559
0.8854724
0.8854827
0.8855708
0.8857388
0.8860138
0.8864486
0.887107
0.8880191
0.8891311
0.8902646
0.8983097
0.8970706
0.8950134
0.8925161
0.8903863
0.8886618
0.8874825
0.8867651
0.8863489
0.8861262
0.886031
0.8860265
0.8860991
0.8862575
0.8865365
0.8870006
0.8877337
0.8888076
0.8901988
0.8917182
0.8983281
0.8971486
0.8951865
0.8927995
0.890773
0.8891333
0.8880181
0.8873433
0.8869528
0.8867437
0.8866539
0.8866504
0.8867233
0.8868858
0.8871793
0.8876812
0.8885012
0.8897595
0.891458
0.8933924
0.8983405
0.8972004
0.8953009
0.8929871
0.8910295
0.8894473
0.8883773
0.8877353
0.8873683
0.8871769
0.8871016
0.8871112
0.8871977
0.8873772
0.8876971
0.8882469
0.8891634
0.8905971
0.8925574
0.8948232
1.099903
1.099723
1.099455
1.09917
1.09898
1.098885
1.098847
1.098847
1.098886
1.098983
1.09918
1.099479
1.099785
1.050005
1.099723
1.099446
1.099098
1.098755
1.09849
1.098322
1.098243
1.098244
1.098328
1.098508
1.098802
1.099209
1.099646
1.09995
1.099455
1.099097
1.098586
1.098046
1.097602
1.097307
1.097163
1.097166
1.097321
1.097646
1.098155
1.098819
1.099491
1.09993
1.09917
1.098748
1.098037
1.097233
1.096537
1.096054
1.095815
1.09582
1.096077
1.096611
1.097413
1.09839
1.099322
1.099904
1.098979
1.098474
1.09757
1.096503
1.095528
1.094828
1.094454
1.094457
1.094856
1.09564
1.096743
1.098013
1.099172
1.099874
1.098881
1.098287
1.097232
1.095948
1.094731
1.093888
1.093399
1.093396
1.093887
1.094856
1.096208
1.09771
1.099049
1.099843
1.098835
1.098171
1.097006
1.095573
1.094162
1.093164
1.092569
1.092549
1.093127
1.094253
1.095776
1.097447
1.098943
1.09983
1.098815
1.098104
1.096865
1.095335
1.093808
1.092694
1.092011
1.091957
1.092567
1.093758
1.095361
1.097146
1.098832
1.049796
1.098808
1.098066
1.096779
1.095187
1.093585
1.092394
1.091639
1.091526
1.092096
1.093258
1.09485
1.096665
1.098496
1.04971
1.099836
1.09983
1.09989
1.098804
1.098045
1.096727
1.095093
1.09344
1.092188
1.091362
1.091161
1.09163
1.092677
1.094149
1.095852
1.097663
1.049133
1.049672
1.099474
1.099424
1.099366
1.099368
1.09943
1.098803
1.098032
1.096694
1.095033
1.093342
1.092037
1.091137
1.090823
1.091137
1.091987
1.093236
1.094685
1.096176
1.097405
1.097984
1.09812
1.098168
1.098192
1.098243
1.098316
1.098801
1.098024
1.096674
1.094994
1.093274
1.091924
1.090951
1.090516
1.090639
1.09124
1.0922
1.093339
1.094471
1.095394
1.095978
1.096288
1.096465
1.0966
1.09674
1.096857
1.098801
1.09802
1.096664
1.094972
1.093231
1.091844
1.090808
1.090262
1.090197
1.090538
1.09119
1.092015
1.092848
1.093555
1.094067
1.09442
1.09469
1.094939
1.095184
1.09537
1.098801
1.09802
1.096663
1.094968
1.093215
1.091802
1.090716
1.090084
1.089871
1.089985
1.090349
1.090876
1.091451
1.091969
1.092392
1.092749
1.09309
1.093446
1.093804
1.094075
1.098803
1.098027
1.096676
1.094985
1.093232
1.091806
1.09069
1.089999
1.089685
1.08964
1.08979
1.090077
1.090427
1.090778
1.091114
1.091463
1.091864
1.092332
1.092817
1.0932
1.098807
1.098041
1.096707
1.095034
1.093295
1.091874
1.090749
1.090027
1.089653
1.089515
1.089537
1.089669
1.089868
1.090108
1.090389
1.090742
1.091205
1.091786
1.092414
1.09295
1.098813
1.098067
1.096764
1.095128
1.093424
1.09203
1.090918
1.090191
1.089791
1.089603
1.089558
1.089608
1.089729
1.08991
1.090165
1.090534
1.091061
1.091759
1.092553
1.093273
1.098823
1.098108
1.096855
1.095279
1.093637
1.092294
1.091218
1.090509
1.090107
1.089902
1.089825
1.089837
1.08992
1.090074
1.090324
1.09072
1.091323
1.092158
1.093131
1.094047
1.098836
1.098163
1.096978
1.095482
1.093923
1.092652
1.091631
1.090957
1.090571
1.090368
1.090282
1.09028
1.090348
1.090495
1.090753
1.091185
1.091877
1.092851
1.093988
1.095088
1.09885
1.098219
1.097104
1.095693
1.09422
1.093024
1.092062
1.09143
1.091068
1.090877
1.090796
1.090794
1.090863
1.091014
1.091289
1.091765
1.092543
1.093636
1.094904
1.096171
1.098859
1.098257
1.097188
1.095831
1.094417
1.093271
1.092352
1.09175
1.091411
1.091236
1.091169
1.09118
1.091261
1.091428
1.091728
1.092254
1.093107
1.094287
1.095657
1.097066
1.299965
1.299896
1.299783
1.299658
1.299572
1.29953
1.299513
1.299513
1.29953
1.299574
1.299663
1.299796
1.299923
1.250018
1.299896
1.29976
1.299596
1.299435
1.299308
1.299228
1.29919
1.299191
1.299233
1.29932
1.299462
1.299654
1.299851
1.29998
1.299783
1.299596
1.299353
1.299103
1.298894
1.298752
1.298682
1.298685
1.298763
1.298923
1.299168
1.299478
1.299782
1.299973
1.299657
1.299431
1.299098
1.298731
1.298406
1.298175
1.298059
1.298063
1.298193
1.298454
1.298836
1.299289
1.299708
1.299962
1.299571
1.2993
1.298877
1.298387
1.297936
1.297599
1.297421
1.297427
1.297624
1.298001
1.298524
1.299115
1.299639
1.299948
1.299527
1.29921
1.298711
1.298116
1.297546
1.297091
1.296842
1.296847
1.297123
1.297617
1.298262
1.298966
1.299578
1.299933
1.299507
1.299153
1.298597
1.297926
1.297259
1.296702
1.29642
1.296403
1.296722
1.297306
1.29804
1.298831
1.299522
1.299924
1.299499
1.299119
1.298524
1.2978
1.297068
1.296427
1.296092
1.296059
1.296413
1.297041
1.297822
1.298675
1.299462
1.249896
1.299496
1.2991
1.298478
1.297719
1.296945
1.296253
1.295869
1.295807
1.296148
1.296774
1.297556
1.298433
1.299299
1.249846
1.299896
1.299863
1.299879
1.299495
1.299089
1.29845
1.297668
1.296864
1.296134
1.295702
1.295595
1.295885
1.296465
1.297197
1.29803
1.2989
1.249552
1.249831
1.299757
1.299732
1.299691
1.299676
1.299697
1.299494
1.299082
1.298432
1.297634
1.296808
1.296046
1.295561
1.29539
1.295595
1.296094
1.296732
1.297451
1.29818
1.298775
1.299055
1.299125
1.299151
1.299163
1.299187
1.299222
1.299493
1.299078
1.298421
1.297613
1.29677
1.295979
1.29544
1.295177
1.29528
1.295672
1.2962
1.296777
1.297342
1.297802
1.298094
1.298254
1.29835
1.298425
1.298501
1.298563
1.299493
1.299075
1.298415
1.2976
1.296745
1.29593
1.295345
1.294988
1.294982
1.295241
1.295649
1.2961
1.296531
1.296893
1.297158
1.297345
1.297493
1.297631
1.297766
1.297867
1.299493
1.299076
1.298415
1.297598
1.296735
1.295904
1.295284
1.294861
1.294742
1.294856
1.295125
1.295461
1.295792
1.29608
1.296312
1.296509
1.296696
1.296893
1.29709
1.297241
1.299494
1.299079
1.298421
1.297607
1.296744
1.295905
1.295264
1.294798
1.294593
1.294586
1.294712
1.294924
1.295165
1.295389
1.29559
1.295792
1.296019
1.296279
1.296548
1.296764
1.299496
1.299087
1.298438
1.297633
1.296778
1.295942
1.295294
1.294806
1.294557
1.294474
1.294498
1.2946
1.294743
1.2949
1.295072
1.295281
1.295554
1.295899
1.296277
1.296597
1.299499
1.2991
1.298468
1.297683
1.296847
1.296027
1.295387
1.294896
1.294629
1.294511
1.294485
1.294522
1.294601
1.294715
1.294872
1.295099
1.295435
1.295883
1.296375
1.296797
1.299504
1.299121
1.298516
1.297763
1.29696
1.296171
1.295554
1.295076
1.294808
1.294677
1.29463
1.294639
1.294692
1.294788
1.294945
1.295199
1.295606
1.296148
1.296719
1.29721
1.299511
1.29915
1.29858
1.297869
1.297112
1.296367
1.295784
1.29533
1.295073
1.294943
1.29489
1.294889
1.294932
1.295024
1.29519
1.295486
1.295957
1.296556
1.29717
1.29772
1.299518
1.299179
1.298646
1.297979
1.297268
1.296569
1.296024
1.295597
1.295356
1.295235
1.295184
1.295184
1.295227
1.295324
1.295504
1.295841
1.29636
1.296983
1.297627
1.298243
1.299523
1.299198
1.298689
1.298052
1.297371
1.296703
1.296185
1.295779
1.295553
1.295442
1.2954
1.295407
1.295459
1.295565
1.295763
1.296132
1.296681
1.297323
1.297998
1.298671
1.5
1.5
1.5
1.5
1.5
1.5
1.5
1.5
1.5
1.5
1.5
1.5
1.5
1.450022
1.5
1.5
1.5
1.5
1.5
1.5
1.5
1.5
1.5
1.5
1.500001
1.500001
1.500001
1.5
1.5
1.5
1.5
1.5
1.5
1.5
1.5
1.5
1.5
1.500001
1.500002
1.500002
1.500002
1.5
1.5
1.5
1.5
1.5
1.5
1.5
1.5
1.5
1.500001
1.500001
1.500002
1.500003
1.500002
1.5
1.5
1.5
1.5
1.5
1.5
1.5
1.500001
1.500001
1.500001
1.500002
1.500002
1.500002
1.500001
1.5
1.5
1.5
1.5
1.5
1.5
1.500001
1.500001
1.500001
1.500001
1.500002
1.500002
1.500002
1.500001
1.5
1.5
1.5
1.5
1.5
1.5
1.500001
1.500001
1.500001
1.500001
1.500001
1.500001
1.500001
1.500001
1.5
1.5
1.5
1.5
1.5
1.500001
1.500001
1.500001
1.500002
1.500001
1.500001
1.500001
1.500001
1.500001
1.449977
1.5
1.5
1.5
1.500001
1.500001
1.500001
1.500002
1.500001
1.500001
1.5
1.5
1.5
1.500001
1.449961
1.5
1.5
1.5
1.5
1.5
1.5
1.5
1.500001
1.500001
1.500001
1.500001
1.500001
1.5
1.5
1.5
1.5
1.449908
1.449966
1.500001
1.5
1.5
1.5
1.5
1.5
1.5
1.5
1.5
1.5
1.500001
1.500001
1.500001
1.500001
1.5
1.499999
1.499999
1.5
1.5
1.500001
1.500001
1.500001
1.500001
1.500001
1.500001
1.5
1.5
1.5
1.5
1.5
1.500001
1.500001
1.500001
1.500001
1.5
1.499999
1.499999
1.499999
1.499999
1.5
1.5
1.5
1.500001
1.500001
1.500001
1.5
1.5
1.5
1.5
1.5
1.500001
1.500001
1.500001
1.500001
1.5
1.499999
1.499999
1.499999
1.499999
1.5
1.5
1.5
1.500001
1.500001
1.500002
1.5
1.5
1.5
1.5
1.500001
1.500001
1.500001
1.500001
1.500001
1.500001
1.5
1.5
1.5
1.5
1.5
1.5
1.500001
1.500001
1.500002
1.500002
1.5
1.5
1.500001
1.500001
1.500001
1.500002
1.500002
1.500002
1.500001
1.500001
1.500001
1.5
1.5
1.5
1.5
1.5
1.500001
1.500002
1.500002
1.500003
1.5
1.500001
1.500001
1.500001
1.500002
1.500002
1.500002
1.500002
1.500001
1.500001
1.500001
1.500001
1.5
1.5
1.500001
1.500001
1.500001
1.500002
1.500003
1.500004
1.5
1.500001
1.500002
1.500002
1.500002
1.500002
1.500002
1.500002
1.500001
1.500001
1.500001
1.500001
1.5
1.5
1.500001
1.500001
1.500001
1.500002
1.500004
1.500006
1.5
1.500001
1.500002
1.500002
1.500002
1.500002
1.500002
1.500002
1.500001
1.500001
1.500001
1.500001
1.500001
1.500001
1.500001
1.500001
1.500002
1.500003
1.500004
1.500007
1.500001
1.500001
1.500002
1.500002
1.500002
1.500002
1.500002
1.500002
1.500001
1.500001
1.500001
1.500001
1.500001
1.500001
1.500001
1.500001
1.500002
1.500002
1.500004
1.500007
1.5
1.500001
1.500001
1.500001
1.500002
1.500002
1.500002
1.500001
1.500001
1.500001
1.500001
1.500001
1.500001
1.500001
1.500001
1.500001
1.500001
1.500002
1.500003
1.500005
1.5
1.5
1.5
1.5
1.500001
1.500001
1.500001
1.500001
1.500001
1.500001
1.500001
1.500001
1.500001
1.500001
1.500001
1.500001
1.500001
1.500001
1.500001
1.500002
1.700035
1.700104
1.700217
1.700343
1.700429
1.700471
1.700487
1.700487
1.70047
1.700426
1.700338
1.700205
1.700078
1.650025
1.700104
1.700241
1.700404
1.700566
1.700693
1.700773
1.70081
1.700809
1.700768
1.700681
1.70054
1.70035
1.700153
1.700022
1.700217
1.700405
1.700648
1.700898
1.701107
1.701249
1.701319
1.701316
1.701238
1.70108
1.700837
1.700529
1.700224
1.700031
1.700343
1.700569
1.700902
1.701271
1.701596
1.701827
1.701943
1.701939
1.701809
1.70155
1.701171
1.700718
1.700297
1.700041
1.700429
1.7007
1.701123
1.701613
1.702066
1.702403
1.702581
1.702576
1.70238
1.702003
1.701481
1.700891
1.700364
1.700053
1.700472
1.70079
1.701289
1.701884
1.702456
1.702912
1.70316
1.703156
1.70288
1.702387
1.701742
1.701038
1.700424
1.700068
1.700493
1.700848
1.701403
1.702075
1.702743
1.703301
1.703583
1.7036
1.703281
1.702697
1.701963
1.701172
1.700479
1.700076
1.700501
1.700882
1.701477
1.702202
1.702935
1.703576
1.703911
1.703944
1.70359
1.702961
1.70218
1.701327
1.700539
1.650054
1.700505
1.700901
1.701523
1.702282
1.703058
1.70375
1.704134
1.704196
1.703854
1.703227
1.702444
1.701568
1.700703
1.650071
1.700104
1.700138
1.700122
1.700506
1.700913
1.701552
1.702334
1.703138
1.703868
1.704301
1.704407
1.704117
1.703535
1.702802
1.701969
1.701101
1.650254
1.650097
1.700245
1.700269
1.70031
1.700325
1.700304
1.700506
1.70092
1.70157
1.702367
1.703194
1.703957
1.704442
1.704613
1.704407
1.703906
1.703266
1.702546
1.701819
1.701225
1.700946
1.700876
1.70085
1.700838
1.700814
1.70078
1.700507
1.700923
1.70158
1.702389
1.703233
1.704024
1.704563
1.704825
1.704722
1.704328
1.703799
1.703221