/*--------------------------------*- C++ -*----------------------------------*\
  =========                 |
  \\      /  F ield         | OpenFOAM: The Open Source CFD Toolbox
   \\    /   O peration     | Website:  https://openfoam.org
    \\  /    A nd           | Version:  7
     \\/     M anipulation  |
\*---------------------------------------------------------------------------*/
FoamFile
{
    version     2.0;
    format      ascii;
    class       volScalarField;
    location    "0.1";
    object      epsilon;
}
// * * * * * * * * * * * * * * * * * * * * * * * * * * * * * * * * * * * * * //

dimensions      [0 2 -3 0 0 0 0];

internalField   nonuniform List<scalar> 
53911
(
0.001912561
0.001961004
0.001987241
0.001974467
0.001956568
0.001955142
0.001954673
0.001955943
0.001975981
0.001971842
0.001968977
0.001978736
0.00195125
0.00187733
0.001945594
0.000949055
0.0009659546
0.0009729435
0.0009745776
0.0009752772
0.0009754719
0.0009755309
0.0009753597
0.0009743201
0.0009717759
0.000963171
0.0009359673
0.001927921
0.001953324
0.0009654619
0.0009968205
0.001009111
0.001012589
0.001013807
0.001014132
0.001014039
0.001013464
0.001012033
0.001008051
0.0009944883
0.0009515926
0.001984026
0.001958259
0.0009729921
0.001009074
0.001024773
0.001029577
0.001031268
0.001031786
0.001031727
0.001031053
0.001029303
0.001024276
0.001007514
0.0009594961
0.001997662
0.001959733
0.0009756762
0.001012966
0.001029976
0.001035419
0.001037547
0.001038224
0.001038253
0.001037561
0.001035641
0.001030074
0.001012153
0.0009622057
0.002008224
0.001986314
0.0009773789
0.001014682
0.001032053
0.001037899
0.001040194
0.001041061
0.001041187
0.001040553
0.001038598
0.001032872
0.00101447
0.0009634306
0.002005707
0.002000041
0.0009779616
0.00101544
0.001033111
0.001039131
0.001041633
0.001042623
0.001042879
0.001042352
0.001040507
0.001034819
0.001016276
0.0009645306
0.002011897
0.001973195
0.0009777979
0.00101588
0.001033725
0.001039915
0.001042515
0.001043642
0.001044026
0.001043683
0.001042072
0.001036862
0.001018898
0.000966212
0.002015033
0.001969437
0.0009777524
0.001016103
0.001034137
0.001040388
0.001043149
0.001044381
0.001044939
0.001044837
0.001043694
0.00103949
0.001024884
0.0009760431
0.002048765
0.001961103
0.0009777999
0.001016335
0.001034437
0.001040775
0.00104359
0.001044927
0.001045608
0.001045749
0.001045042
0.001042158
0.001031474
0.00100114
0.002143584
0.002018701
0.001997824
0.001993626
0.001988235
0.001994262
0.002006697
0.001962941
0.0009782309
0.001016561
0.001034672
0.001041021
0.001043918
0.001045326
0.001046132
0.00104647
0.001046258
0.001044597
0.001037595
0.001013961
0.001008967
0.0009906595
0.000987479
0.0009869652
0.0009864813
0.0009859214
0.0009851617
0.00198962
0.0009791221
0.001016821
0.001034848
0.001041208
0.001044138
0.001045595
0.001046477
0.001046956
0.001047079
0.001046442
0.001043485
0.001038805
0.001034956
0.001031718
0.001029654
0.001029139
0.001028809
0.001028353
0.001027783
0.00200804
0.0009796472
0.001016988
0.001034957
0.001041317
0.001044271
0.001045761
0.001046699
0.001047276
0.001047622
0.001047645
0.001047208
0.001046313
0.001045446
0.001044724
0.001044133
0.001043776
0.001043378
0.001042879
0.001042375
0.002009217
0.0009796542
0.001017018
0.001034987
0.001041356
0.001044319
0.001045821
0.001046785
0.001047408
0.001047856
0.001048147
0.001048307
0.00104831
0.001048305
0.001048284
0.001048121
0.001047874
0.001047455
0.001046939
0.001046455
0.002004162
0.0009791871
0.001016898
0.001034936
0.001041319
0.001044281
0.001045786
0.001046757
0.001047399
0.00104789
0.001048271
0.001048581
0.001048827
0.001049028
0.001049136
0.001049074
0.001048839
0.0010484
0.001047848
0.00104734
0.001973818
0.0009783387
0.001016678
0.001034805
0.001041197
0.001044143
0.001045636
0.001046598
0.001047235
0.001047731
0.001048131
0.001048475
0.001048765
0.001049007
0.001049156
0.001049137
0.001048922
0.001048483
0.001047917
0.001047377
0.001961104
0.0009778924
0.001016462
0.001034584
0.001040965
0.001043876
0.001045348
0.001046285
0.001046905
0.001047386
0.001047776
0.001048115
0.001048408
0.001048639
0.001048778
0.001048759
0.001048537
0.001048077
0.00104745
0.001046767
0.001963063
0.0009780052
0.001016266
0.001034281
0.001040599
0.001043457
0.001044887
0.001045789
0.00104638
0.001046834
0.001047202
0.001047519
0.001047789
0.001048004
0.00104813
0.001048107
0.001047876
0.001047375
0.001046545
0.001045313
0.001989208
0.0009784887
0.001016037
0.001033865
0.001040102
0.001042892
0.00104427
0.001045128
0.001045682
0.001046104
0.001046443
0.001046733
0.001046976
0.001047165
0.001047269
0.001047224
0.001046955
0.001046319
0.001044936
0.001041245
0.002006768
0.0009786229
0.001015763
0.001033415
0.001039564
0.001042282
0.001043608
0.001044417
0.001044934
0.001045324
0.001045632
0.001045891
0.001046105
0.001046265
0.001046341
0.001046263
0.001045926
0.001045062
0.001042759
0.001035081
0.002007179
0.0009784422
0.001015478
0.001033036
0.00103914
0.001041805
0.001043097
0.001043869
0.001044357
0.001044715
0.001044992
0.001045218
0.001045395
0.001045514
0.001045541
0.001045396
0.001044935
0.001043714
0.00104027
0.001028994
0.01041582
0.01041979
0.01040495
0.01039656
0.01040033
0.01039951
0.0104001
0.01040041
0.01040112
0.01040149
0.0104034
0.01040508
0.01041709
0.01037132
0.01042131
0.01041781
0.01041827
0.01041598
0.01041829
0.01041823
0.0104182
0.01041817
0.01041815
0.01041813
0.01041811
0.01041789
0.01037516
0.000936601
0.01042213
0.0104185
0.01041843
0.01041837
0.01041838
0.01041839
0.01041842
0.01041846
0.01041853
0.0104186
0.01041867
0.01041768
0.01036533
0.0009516504
0.01042221
0.01041845
0.01041853
0.01041796
0.01041861
0.01041868
0.01041879
0.01041893
0.01041912
0.01041936
0.0104196
0.01041686
0.01035782
0.0009593718
0.01042239
0.01041862
0.01041868
0.0104187
0.01041882
0.01041895
0.01041916
0.0104194
0.01041974
0.01042004
0.01042053
0.01041652
0.01034626
0.0009607972
0.01042255
0.01041872
0.01041883
0.01041876
0.01041906
0.01041927
0.01041956
0.01041994
0.01042047
0.01042083
0.01042173
0.010418
0.01032336
0.0009560364
0.01042273
0.01041886
0.01041898
0.01041906
0.01041928
0.01041955
0.01041993
0.01042044
0.01042121
0.01042175
0.01042374
0.01041777
0.01029015
0.000937513
0.01042285
0.010419
0.01041911
0.01041917
0.01041947
0.01041979
0.01042026
0.01042093
0.01042198
0.01042337
0.01042604
0.01042775
0.01043371
0.01032928
0.01042299
0.0104191
0.01041922
0.01041932
0.01041961
0.01041997
0.0104205
0.01042128
0.01042256
0.01042429
0.01042894
0.01042947
0.010469
0.01069957
0.01042308
0.01041918
0.01041928
0.01041938
0.01041968
0.01042004
0.01042056
0.01042131
0.01042245
0.01042397
0.01042636
0.01042722
0.01043337
0.01062021
0.01074115
0.01046125
0.01044844
0.01044618
0.0104429
0.01044155
0.01042316
0.01041923
0.01041932
0.01041941
0.01041969
0.01042001
0.01042051
0.01042121
0.01042219
0.01042364
0.01042584
0.0104278
0.01043097
0.01044683
0.01044952
0.01044417
0.01043981
0.01043535
0.01043229
0.01042935
0.01042321
0.01041924
0.01041931
0.01041938
0.01041964
0.01041991
0.01042035
0.01042087
0.01042161
0.01042239
0.01042359
0.01042416
0.01042612
0.01042805
0.01042778
0.01042066
0.01041505
0.01040902
0.01040592
0.01040593
0.01042324
0.01041923
0.01041928
0.01041933
0.01041954
0.01041972
0.01042015
0.01042059
0.01042119
0.01042192
0.01042295
0.01042432
0.01042618
0.01042837
0.01042944
0.01042949
0.01042885
0.01042799
0.0104274
0.01042672
0.01042325
0.01041921
0.01041923
0.01041924
0.01041943
0.01041954
0.01041993
0.01042029
0.01042081
0.01042139
0.01042219
0.01042318
0.0104244
0.01042535
0.01042485
0.01042483
0.01042434
0.01042316
0.01042277
0.01042273
0.01042325
0.01041921
0.01041922
0.01041923
0.01041941
0.01041949
0.01041989
0.01042025
0.01042071
0.01042128
0.01042198
0.0104228
0.01042367
0.01042456
0.01042518
0.01042548
0.01042554
0.0104254
0.01042522
0.01042501
0.01042324
0.01041923
0.01041925
0.01041927
0.01041945
0.01041953
0.01041993
0.01042027
0.01042069
0.01042117
0.01042174
0.01042235
0.01042295
0.01042348
0.01042376
0.01042396
0.01042399
0.01042378
0.01042365
0.01042362
0.01042322
0.01041922
0.01041925
0.01041928
0.01041946
0.01041952
0.01041994
0.01042023
0.01042063
0.01042106
0.01042155
0.01042208
0.01042261
0.01042311
0.0104235
0.01042378
0.01042392
0.01042393
0.01042398
0.01042401
0.01042316
0.01041919
0.01041923
0.01041927
0.01041945
0.01041951
0.01041991
0.01042017
0.01042055
0.01042094
0.01042136
0.0104218
0.01042224
0.01042265
0.010423
0.01042325
0.01042342
0.01042347
0.01042353
0.01042353
0.01042309
0.01041913
0.01041918
0.01041923
0.01041942
0.01041942
0.01041986
0.0104201
0.01042045
0.0104208
0.01042117
0.01042156
0.01042197
0.01042236
0.01042272
0.01042302
0.01042328
0.01042348
0.01042378
0.01042384
0.010423
0.01041905
0.01041912
0.01041918
0.01041936
0.01041937
0.01041979
0.01042
0.01042034
0.01042065
0.01042098
0.01042132
0.01042168
0.01042203
0.01042238
0.01042271
0.01042306
0.01042329
0.01042363
0.01042313
0.01042289
0.01041897
0.01041904
0.0104191
0.01041928
0.01041927
0.01041969
0.01041987
0.0104202
0.01042046
0.01042076
0.01042106
0.01042136
0.01042168
0.01042203
0.01042238
0.0104229
0.01042335
0.01042383
0.01042159
0.01041299
0.01012422
0.0007263046
0.0007932412
0.0008165594
0.0008231929
0.0008248438
0.0008247485
0.0008228144
0.0008158705
0.0007920002
0.0007236467
0.01040525
0.0103735
0.01042212
0.010422
0.01041807
0.01041821
0.01041809
0.01041797
0.0104179
0.01041784
0.01041779
0.01041775
0.01041764
0.01041721
0.01038254
0.000962957
0.01042261
0.0104217
0.01042183
0.0104218
0.01042178
0.01042179
0.01042182
0.01042183
0.01042188
0.01042191
0.01042195
0.01042172
0.01037507
0.0009933673
0.01042205
0.01042155
0.01042185
0.01042195
0.01042205
0.01042211
0.01042221
0.01042233
0.01042248
0.01042268
0.01042293
0.01042295
0.01036707
0.00100558
0.01042228
0.01042172
0.01042194
0.01042209
0.01042228
0.01042242
0.01042262
0.01042285
0.01042317
0.01042359
0.01042417
0.01042443
0.01035685
0.001007553
0.01042242
0.01042185
0.01042212
0.01042229
0.01042253
0.01042275
0.01042305
0.01042341
0.01042394
0.01042471
0.01042573
0.01042665
0.01033018
0.0009991965
0.01042256
0.01042196
0.01042223
0.01042245
0.01042274
0.01042304
0.01042343
0.01042394
0.01042471
0.01042586
0.01042782
0.01042943
0.01029428
0.0009651479
0.01042267
0.0104221
0.01042238
0.01042259
0.01042292
0.01042329
0.01042376
0.01042443
0.01042549
0.01042728
0.01043086
0.01043876
0.01045567
0.01032579
0.0104228
0.01042218
0.01042246
0.01042271
0.01042305
0.01042346
0.010424
0.01042478
0.01042606
0.01042824
0.01043318
0.01044471
0.01050202
0.01070775
0.01060754
0.01061137
0.01058197
0.0104229
0.01042225
0.01042253
0.01042277
0.01042311
0.01042352
0.01042406
0.01042484
0.010426
0.01042808
0.01043181
0.01044087
0.01046542
0.01061077
0.01072303
0.01046195
0.01045124
0.0104421
0.01044063
0.01043734
0.01042299
0.01042229
0.01042255
0.01042279
0.01042312
0.01042352
0.01042402
0.01042473
0.01042573
0.01042733
0.01042974
0.01043505
0.01044427
0.01045327
0.01045399
0.01044827
0.01044333
0.01043753
0.0104347
0.01043414
0.01042304
0.01042228
0.01042255
0.01042277
0.01042307
0.01042342
0.01042386
0.01042444
0.01042523
0.01042627
0.01042778
0.01043008
0.01043377
0.01043882
0.01044212
0.01043866
0.01043615
0.01043375
0.01043225
0.01043145
0.01042306
0.01042227
0.01042252
0.01042271
0.01042298
0.01042329
0.01042366
0.01042414
0.01042474
0.01042551
0.01042653
0.01042796
0.01042984
0.01043205
0.01043316
0.01043335
0.0104326
0.0104319
0.0104314
0.01043091
0.01042305
0.01042225
0.01042246
0.01042263
0.01042286
0.01042313
0.01042345
0.01042386
0.01042437
0.01042501
0.01042581
0.01042689
0.01042823
0.01042983
0.01043073
0.01043076
0.01043049
0.01043008
0.01042973
0.0104294
0.01042305
0.01042224
0.01042246
0.01042261
0.01042284
0.0104231
0.01042341
0.0104238
0.01042427
0.01042485
0.01042556
0.01042639
0.01042727
0.01042816
0.01042883
0.01042912
0.01042917
0.01042905
0.0104289
0.01042869
0.01042304
0.01042225
0.01042249
0.01042264
0.01042289
0.01042315
0.01042345
0.01042382
0.01042425
0.01042475
0.01042534
0.010426
0.01042671
0.0104274
0.01042791
0.01042821
0.01042831
0.01042828
0.01042818
0.01042802
0.01042302
0.01042225
0.01042248
0.01042265
0.0104229
0.01042316
0.01042346
0.0104238
0.01042419
0.01042464
0.01042513
0.01042568
0.01042623
0.01042676
0.01042721
0.01042752
0.0104277
0.01042776
0.01042774
0.01042766
0.01042296
0.01042223
0.01042246
0.01042264
0.01042289
0.01042315
0.01042344
0.01042376
0.01042412
0.01042451
0.01042494
0.0104254
0.01042588
0.01042634
0.01042674
0.01042707
0.01042732
0.01042747
0.01042755
0.01042759
0.01042287
0.01042218
0.01042241
0.0104226
0.01042286
0.01042311
0.01042339
0.01042369
0.01042402
0.01042437
0.01042475
0.01042515
0.01042555
0.01042596
0.01042635
0.0104267
0.01042701
0.01042729
0.01042753
0.01042779
0.01042276
0.01042211
0.01042234
0.01042254
0.0104228
0.01042305
0.01042332
0.0104236
0.0104239
0.01042422
0.01042455
0.0104249
0.01042526
0.01042563
0.01042601
0.01042641
0.01042682
0.0104273
0.01042784
0.01042882
0.01042264
0.01042202
0.01042226
0.01042246
0.01042272
0.01042297
0.01042322
0.01042349
0.01042376
0.01042405
0.01042435
0.01042465
0.01042497
0.0104253
0.01042566
0.01042607
0.01042658
0.01042725
0.01042838
0.01043065
0.01041303
0.01010591
0.0007946883
0.0008831443
0.0009224921
0.0009344857
0.0009376066
0.0009373985
0.0009338305
0.0009213944
0.0008814467
0.0007912073
0.01040244
0.01037202
0.01042226
0.01042198
0.01041842
0.01041848
0.01041837
0.01041822
0.01041813
0.01041805
0.01041799
0.01041793
0.0104178
0.0104174
0.01038417
0.0009714614
0.01042222
0.01042167
0.01042178
0.01042177
0.01042175
0.01042173
0.01042174
0.01042174
0.01042176
0.01042177
0.01042178
0.0104216
0.01037647
0.001006618
0.01042188
0.01042147
0.01042178
0.01042187
0.010422
0.01042205
0.01042215
0.01042224
0.01042237
0.01042256
0.0104228
0.01042286
0.01036832
0.001021755
0.0104221
0.01042161
0.01042184
0.010422
0.01042219
0.01042235
0.01042254
0.01042276
0.01042306
0.01042347
0.01042405
0.01042436
0.01035799
0.001024125
0.01042219
0.01042173
0.01042198
0.01042217
0.01042243
0.01042267
0.01042297
0.01042334
0.01042384
0.01042462
0.01042563
0.01042661
0.01033074
0.001013549
0.01042236
0.01042186
0.01042211
0.01042233
0.01042263
0.01042295
0.01042335
0.01042386
0.01042463
0.01042578
0.01042775
0.01042931
0.01029286
0.0009744898
0.01042247
0.01042196
0.01042223
0.01042247
0.01042282
0.01042319
0.01042368
0.01042436
0.01042543
0.01042722
0.01043077
0.01043833
0.01045369
0.01029821
0.01042259
0.01042205
0.01042233
0.01042257
0.01042294
0.01042336
0.01042392
0.01042471
0.01042599
0.01042816
0.01043302
0.01044446
0.01050271
0.01085903
0.01057502
0.01055168
0.01053188
0.01042269
0.01042212
0.01042239
0.01042263
0.010423
0.01042343
0.01042398
0.01042476
0.01042594
0.01042804
0.01043178
0.01044096
0.01046522
0.01061306
0.01075199
0.01046054
0.01045211
0.01044369
0.01043973
0.01043672
0.01042277
0.01042216
0.01042242
0.01042265
0.01042301
0.01042342
0.01042394
0.01042466
0.01042568
0.01042729
0.01042981
0.01043515
0.01044443
0.01045343
0.0104523
0.01044716
0.01044254
0.01043633
0.01043331
0.01043354
0.01042282
0.01042218
0.01042242
0.01042263
0.01042296
0.01042333
0.01042379
0.01042437
0.01042517
0.01042622
0.01042776
0.01042997
0.01043359
0.01043889
0.0104423
0.01043844
0.01043575
0.01043317
0.01043177
0.01043126
0.01042286
0.01042218
0.0104224
0.01042257
0.01042287
0.01042319
0.01042359
0.01042407
0.01042469
0.01042548
0.01042651
0.01042796
0.01042976
0.01043188
0.01043295
0.01043322
0.01043253
0.01043157
0.01043114
0.01043072
0.01042287
0.01042216
0.01042235
0.01042249
0.01042276
0.01042304
0.01042338
0.0104238
0.01042432
0.01042497
0.01042578
0.01042687
0.01042823
0.01042984
0.01043065
0.01043072
0.01043039
0.01042993
0.01042961
0.01042932
0.01042287
0.01042216
0.01042234
0.01042248
0.01042274
0.01042301
0.01042335
0.01042374
0.01042423
0.01042482
0.01042554
0.01042637
0.01042725
0.01042813
0.0104288
0.01042908
0.01042915
0.010429
0.01042887
0.01042867
0.01042285
0.01042217
0.01042236
0.01042251
0.01042278
0.01042306
0.01042339
0.01042377
0.01042421
0.01042472
0.01042532
0.01042599
0.0104267
0.01042739
0.0104279
0.0104282
0.0104283
0.01042826
0.01042817
0.01042801
0.01042281
0.01042216
0.01042235
0.01042252
0.0104228
0.01042308
0.0104234
0.01042375
0.01042416
0.01042461
0.01042511
0.01042566
0.01042621
0.01042675
0.0104272
0.01042752
0.0104277
0.01042776
0.01042775
0.01042767
0.01042274
0.01042211
0.01042232
0.01042251
0.01042279
0.01042307
0.01042338
0.01042372
0.01042408
0.01042449
0.01042493
0.01042539
0.01042587
0.01042633
0.01042674
0.01042707
0.01042731
0.01042747
0.01042756
0.0104276
0.01042266
0.01042205
0.01042227
0.01042247
0.01042276
0.01042304
0.01042334
0.01042365
0.01042399
0.01042435
0.01042473
0.01042513
0.01042554
0.01042595
0.01042634
0.0104267
0.01042701
0.01042729
0.01042754
0.01042781
0.01042255
0.01042198
0.01042221
0.01042241
0.01042271
0.01042298
0.01042327
0.01042356
0.01042387
0.0104242
0.01042454
0.01042489
0.01042526
0.01042563
0.01042601
0.0104264
0.01042681
0.01042729
0.01042784
0.01042882
0.01042244
0.01042189
0.01042213
0.01042234
0.01042263
0.0104229
0.01042318
0.01042345
0.01042374
0.01042403
0.01042433
0.01042464
0.01042496
0.0104253
0.01042566
0.01042607
0.01042658
0.01042727
0.01042836
0.01043057
0.01041293
0.01010477
0.0008187963
0.000923133
0.0009717946
0.0009873856
0.0009915685
0.0009913252
0.0009865939
0.0009705271
0.0009211433
0.0008148483
0.01040243
0.01037245
0.01042224
0.01042209
0.01041849
0.01041849
0.01041841
0.01041824
0.01041814
0.01041805
0.01041799
0.01041793
0.01041777
0.01041737
0.01038422
0.0009737444
0.01042229
0.01042177
0.01042185
0.01042178
0.01042174
0.01042171
0.01042171
0.0104217
0.01042171
0.0104217
0.01042171
0.01042154
0.01037662
0.001010179
0.01042194
0.01042157
0.0104218
0.01042187
0.01042197
0.01042202
0.01042209
0.01042218
0.01042229
0.01042246
0.0104227
0.0104228
0.01036822
0.00102622
0.0104222
0.01042168
0.01042186
0.01042198
0.01042215
0.0104223
0.01042248
0.01042268
0.01042296
0.01042336
0.01042396
0.01042431
0.01035763
0.00102878
0.01042234
0.0104218
0.01042198
0.01042213
0.01042237
0.01042261
0.01042289
0.01042325
0.01042375
0.01042453
0.01042556
0.01042657
0.01032966
0.001017618
0.0104225
0.01042193
0.0104221
0.01042228
0.01042257
0.01042288
0.01042327
0.01042378
0.01042455
0.0104257
0.01042768
0.01042932
0.01029029
0.0009769182
0.01042262
0.01042205
0.01042223
0.01042241
0.01042273
0.01042311
0.0104236
0.01042428
0.01042535
0.01042714
0.01043072
0.01043871
0.01045713
0.01031608
0.01042274
0.01042213
0.0104223
0.01042252
0.01042285
0.01042327
0.01042383
0.01042462
0.01042591
0.01042806
0.01043299
0.01044431
0.01049959
0.01068749
0.01058163
0.01054605
0.01052985
0.01042284
0.01042221
0.01042237
0.01042257
0.01042291
0.01042333
0.01042389
0.01042468
0.01042586
0.01042794
0.01043162
0.01044057
0.01046454
0.01060689
0.01072905
0.01046114
0.01044972
0.01044126
0.01043894
0.01043547
0.01042292
0.01042224
0.01042239
0.01042259
0.01042291
0.01042332
0.01042386
0.01042458
0.01042561
0.01042722
0.01042967
0.01043497
0.01044392
0.01045307
0.0104522
0.01044696
0.01044254
0.01043619
0.01043463
0.01043369
0.01042298
0.01042226
0.01042239
0.01042257
0.01042286
0.01042323
0.0104237
0.0104243
0.0104251
0.01042615
0.01042767
0.01042991
0.01043354
0.01043866
0.01044219
0.01043853
0.0104359
0.01043322
0.01043201
0.01043131
0.01042301
0.01042226
0.01042237
0.01042251
0.01042278
0.0104231
0.01042351
0.010424
0.01042463
0.01042543
0.01042646
0.01042793
0.01042972
0.01043185
0.01043294
0.01043327
0.0104326
0.01043169
0.01043129
0.0104309
0.01042302
0.01042224
0.01042232
0.01042243
0.01042266
0.01042295
0.0104233
0.01042373
0.01042427
0.01042492
0.01042575
0.01042685
0.0104282
0.01042982
0.01043066
0.01043074
0.01043043
0.01042998
0.01042966
0.01042938
0.01042301
0.01042223
0.01042231
0.01042242
0.01042265
0.01042293
0.01042327
0.01042368
0.01042418
0.01042478
0.01042551
0.01042636
0.01042723
0.01042811
0.0104288
0.0104291
0.01042917
0.01042903
0.0104289
0.01042872
0.010423
0.01042224
0.01042232
0.01042245
0.01042269
0.01042297
0.01042332
0.01042371
0.01042416
0.01042468
0.01042529
0.01042597
0.01042668
0.01042738
0.0104279
0.0104282
0.01042831
0.01042828
0.01042819
0.01042804
0.01042296
0.01042222
0.01042232
0.01042245
0.01042271
0.010423
0.01042333
0.0104237
0.01042411
0.01042458
0.01042509
0.01042564
0.0104262
0.01042674
0.0104272
0.01042752
0.01042771
0.01042777
0.01042776
0.01042769
0.01042289
0.01042217
0.01042229
0.01042244
0.0104227
0.01042299
0.01042332
0.01042366
0.01042404
0.01042446
0.0104249
0.01042537
0.01042586
0.01042632
0.01042674
0.01042707
0.01042732
0.01042748
0.01042757
0.01042762
0.0104228
0.01042211
0.01042223
0.0104224
0.01042267
0.01042296
0.01042328
0.01042361
0.01042395
0.01042432
0.01042471
0.01042512
0.01042554
0.01042595
0.01042634
0.0104267
0.01042702
0.0104273
0.01042755
0.01042782
0.01042269
0.01042203
0.01042217
0.01042234
0.01042262
0.01042291
0.01042321
0.01042352
0.01042384
0.01042418
0.01042452
0.01042488
0.01042525
0.01042562
0.01042601
0.0104264
0.01042682
0.0104273
0.01042784
0.01042883
0.01042257
0.01042194
0.01042208
0.01042227
0.01042254
0.01042283
0.01042312
0.01042341
0.01042371
0.01042401
0.01042432
0.01042463
0.01042496
0.01042529
0.01042566
0.01042607
0.01042659
0.01042726
0.0104284
0.01043067
0.01041284
0.01010426
0.0008258496
0.0009355025
0.0009877442
0.001005007
0.001009791
0.001009523
0.001004159
0.0009863992
0.0009333768
0.0008216218
0.01040253
0.0103727
0.01042224
0.01042212
0.0104185
0.01041847
0.0104184
0.01041821
0.01041809
0.01041801
0.01041794
0.01041789
0.01041775
0.01041734
0.01038448
0.0009745403
0.01042235
0.01042181
0.01042187
0.01042177
0.01042174
0.0104217
0.0104217
0.01042168
0.01042169
0.01042167
0.01042168
0.01042152
0.01037661
0.001011279
0.01042197
0.0104216
0.01042183
0.01042188
0.01042196
0.010422
0.01042207
0.01042214
0.01042225
0.01042242
0.01042267
0.01042278
0.01036838
0.001027566
0.01042227
0.01042174
0.01042187
0.01042198
0.01042213
0.01042226
0.01042243
0.01042263
0.0104229
0.0104233
0.01042392
0.01042431
0.01035762
0.001030187
0.01042238
0.01042185
0.01042199
0.01042213
0.01042233
0.01042256
0.01042284
0.01042319
0.01042368
0.01042447
0.01042553
0.0104266
0.01032981
0.001018845
0.01042257
0.01042199
0.01042211
0.01042227
0.01042252
0.01042281
0.01042321
0.01042372
0.01042448
0.01042565
0.01042767
0.0104294
0.01028862
0.0009775012
0.01042268
0.0104221
0.01042223
0.0104224
0.01042268
0.01042304
0.01042353
0.01042421
0.01042529
0.01042712
0.01043081
0.01043923
0.01046062
0.01033792
0.01042281
0.0104222
0.01042231
0.0104225
0.0104228
0.0104232
0.01042376
0.01042455
0.01042585
0.01042804
0.01043303
0.01044452
0.01049719
0.01074678
0.01057013
0.01054325
0.01052766
0.01042291
0.01042226
0.01042237
0.01042256
0.01042285
0.01042326
0.01042382
0.0104246
0.01042579
0.01042785
0.01043144
0.01044016
0.01046324
0.01058914
0.01073451
0.01046059
0.01045136
0.0104416
0.01043753
0.01043582
0.010423
0.01042231
0.0104224
0.01042257
0.01042285
0.01042325
0.01042378
0.01042451
0.01042555
0.01042716
0.01042963
0.01043475
0.01044342
0.01045295
0.01045242
0.01044754
0.01044276
0.01043656
0.01043313
0.0104336
0.01042306
0.01042233
0.0104224
0.01042255
0.01042281
0.01042316
0.01042363
0.01042423
0.01042504
0.0104261
0.0104276
0.01042979
0.01043344
0.01043862
0.01044234
0.01043851
0.0104358
0.01043324
0.01043173
0.0104313
0.0104231
0.01042233
0.01042238
0.0104225
0.01042272
0.01042303
0.01042344
0.01042394
0.01042458
0.01042538
0.01042642
0.01042789
0.01042965
0.01043176
0.01043287
0.01043322
0.01043258
0.01043146
0.01043111
0.01043083
0.01042311
0.01042231
0.01042233
0.01042242
0.01042261
0.01042288
0.01042324
0.01042368
0.01042422
0.01042488
0.01042572
0.01042683
0.01042816
0.01042979
0.01043057
0.01043068
0.01043034
0.01042989
0.01042959
0.01042933
0.01042311
0.01042231
0.01042232
0.01042241
0.01042259
0.01042286
0.0104232
0.01042363
0.01042413
0.01042475
0.01042548
0.01042634
0.01042721
0.0104281
0.01042878
0.01042906
0.01042914
0.01042897
0.01042887
0.0104287
0.01042309
0.01042231
0.01042233
0.01042243
0.01042264
0.01042291
0.01042325
0.01042365
0.01042412
0.01042465
0.01042527
0.01042595
0.01042667
0.01042737
0.01042788
0.01042819
0.01042829
0.01042825
0.01042817
0.01042803
0.01042305
0.01042228
0.01042233
0.01042244
0.01042265
0.01042293
0.01042327
0.01042365
0.01042408
0.01042455
0.01042507
0.01042562
0.01042619
0.01042673
0.01042719
0.01042751
0.0104277
0.01042776
0.01042776
0.0104277
0.01042298
0.01042224
0.01042229
0.01042242
0.01042265
0.01042293
0.01042326
0.01042362
0.01042401
0.01042443
0.01042489
0.01042536
0.01042585
0.01042632
0.01042673
0.01042707
0.01042731
0.01042748
0.01042756
0.01042761
0.01042289
0.01042218
0.01042224
0.01042239
0.01042262
0.0104229
0.01042322
0.01042356
0.01042392
0.0104243
0.0104247
0.01042511
0.01042553
0.01042594
0.01042634
0.0104267
0.01042702
0.0104273
0.01042755
0.01042787
0.01042278
0.0104221
0.01042217
0.01042233
0.01042257
0.01042285
0.01042316
0.01042348
0.01042381
0.01042415
0.01042451
0.01042487
0.01042524
0.01042562
0.010426
0.0104264
0.01042681
0.01042729
0.01042784
0.01042879
0.01042265
0.01042201
0.01042209
0.01042225
0.0104225
0.01042278
0.01042308
0.01042338
0.01042368
0.01042399
0.0104243
0.01042462
0.01042495
0.01042529
0.01042565
0.01042607
0.01042659
0.01042727
0.01042837
0.01043057
0.01041289
0.01010442
0.000827955
0.000939255
0.0009926852
0.001010608
0.001015688
0.001015417
0.001009744
0.000991293
0.0009370161
0.0008236105
0.01040239
0.01037263
0.01042225
0.01042214
0.01041849
0.01041844
0.01041839
0.01041818
0.01041807
0.01041798
0.01041791
0.01041786
0.01041772
0.01041732
0.01038434
0.0009748712
0.01042239
0.01042185
0.01042191
0.01042178
0.01042173
0.0104217
0.01042169
0.01042167
0.01042168
0.01042166
0.01042167
0.01042152
0.01037667
0.001011683
0.01042198
0.01042166
0.01042186
0.0104219
0.01042197
0.01042199
0.01042205
0.01042212
0.01042223
0.0104224
0.01042264
0.01042277
0.01036838
0.001028034
0.01042231
0.0104218
0.0104219
0.010422
0.01042212
0.01042225
0.0104224
0.0104226
0.01042286
0.01042327
0.0104239
0.0104243
0.01035748
0.001030666
0.01042241
0.0104219
0.01042201
0.01042213
0.01042232
0.01042253
0.0104228
0.01042315
0.01042364
0.01042443
0.01042551
0.0104266
0.01032974
0.001019249
0.01042261
0.01042204
0.01042213
0.01042228
0.0104225
0.01042278
0.01042316
0.01042367
0.01042444
0.01042561
0.01042764
0.0104294
0.01028804
0.000977698
0.01042272
0.01042215
0.01042224
0.0104224
0.01042266
0.010423
0.01042348
0.01042416
0.01042525
0.01042708
0.01043078
0.01043922
0.01046049
0.01034086
0.01042285
0.01042225
0.01042233
0.0104225
0.01042277
0.01042315
0.0104237
0.0104245
0.0104258
0.01042799
0.01043297
0.01044437
0.01049571
0.01074007
0.01057983
0.01054333
0.01052782
0.01042295
0.01042231
0.01042239
0.01042255
0.01042282
0.01042321
0.01042376
0.01042455
0.01042573
0.01042779
0.01043135
0.01043995
0.01046275
0.01058596
0.01073681
0.01046089
0.01044968
0.01044092
0.01043846
0.0104351
0.01042304
0.01042236
0.01042242
0.01042257
0.01042283
0.0104232
0.01042372
0.01042445
0.0104255
0.01042711
0.01042955
0.01043465
0.01044319
0.01045277
0.01045212
0.010447
0.01044259
0.01043602
0.01043474
0.01043332
0.0104231
0.01042238
0.01042242
0.01042254
0.01042278
0.01042311
0.01042357
0.01042417
0.01042499
0.01042605
0.01042754
0.01042973
0.01043338
0.01043853
0.01044226
0.01043849
0.01043581
0.01043311
0.01043197
0.0104312
0.01042313
0.01042238
0.01042239
0.01042249
0.01042269
0.01042298
0.01042338
0.01042389
0.01042454
0.01042534
0.01042638
0.01042786
0.01042961
0.01043172
0.01043284
0.01043316
0.01043256
0.01043159
0.01043127
0.01043086
0.01042314
0.01042236
0.01042235
0.01042242
0.01042258
0.01042283
0.01042318
0.01042363
0.01042419
0.01042485
0.0104257
0.01042681
0.01042813
0.01042977
0.01043058
0.01043068
0.01043036
0.01042993
0.01042963
0.01042936
0.01042314
0.01042235
0.01042234
0.0104224
0.01042257
0.01042281
0.01042315
0.01042358
0.0104241
0.01042473
0.01042546
0.01042632
0.0104272
0.01042808
0.01042877
0.01042906
0.01042915
0.01042901
0.0104289
0.01042874
0.01042312
0.01042235
0.01042235
0.01042243
0.01042261
0.01042286
0.0104232
0.01042361
0.01042409
0.01042463
0.01042525
0.01042594
0.01042665
0.01042736
0.01042788
0.01042819
0.0104283
0.01042826
0.01042818
0.01042804
0.01042308
0.01042233
0.01042234
0.01042244
0.01042263
0.01042289
0.01042322
0.01042361
0.01042405
0.01042453
0.01042505
0.01042561
0.01042618
0.01042672
0.01042719
0.01042751
0.0104277
0.01042777
0.01042777
0.01042772
0.01042301
0.01042228
0.01042231
0.01042242
0.01042262
0.01042289
0.01042321
0.01042358
0.01042398
0.01042441
0.01042487
0.01042535
0.01042584
0.01042631
0.01042673
0.01042706
0.01042731
0.01042748
0.01042757
0.01042763
0.01042291
0.01042222
0.01042225
0.01042238
0.01042259
0.01042286
0.01042318
0.01042353
0.0104239
0.01042428
0.01042468
0.0104251
0.01042552
0.01042594
0.01042633
0.0104267
0.01042702
0.0104273
0.01042756
0.01042789
0.0104228
0.01042213
0.01042218
0.01042232
0.01042254
0.01042281
0.01042312
0.01042345
0.01042379
0.01042414
0.0104245
0.01042486
0.01042523
0.01042561
0.010426
0.0104264
0.01042681
0.01042728
0.01042784
0.0104288
0.01042268
0.01042204
0.01042209
0.01042224
0.01042247
0.01042274
0.01042304
0.01042335
0.01042366
0.01042398
0.01042429
0.01042462
0.01042494
0.01042528
0.01042565
0.01042607
0.01042658
0.01042726
0.01042838
0.01043058
0.01041269
0.01010458
0.0008284901
0.0009401459
0.0009938708
0.001012034
0.001017183
0.001016906
0.001011144
0.0009924988
0.0009379092
0.0008240791
0.0104022
0.01037279
0.01042225
0.01042215
0.01041848
0.01041844
0.01041838
0.01041817
0.01041806
0.01041797
0.0104179
0.01041785
0.01041772
0.01041732
0.01038431
0.0009749541
0.01042239
0.01042186
0.01042191
0.01042178
0.01042173
0.01042169
0.01042169
0.01042167
0.01042167
0.01042166
0.01042167
0.01042152
0.01037658
0.001011789
0.01042199
0.01042167
0.01042186
0.0104219
0.01042196
0.01042198
0.01042205
0.01042212
0.01042222
0.01042239
0.01042265
0.01042277
0.01036836
0.001028153
0.0104223
0.0104218
0.01042191
0.010422
0.01042212