/*--------------------------------*- C++ -*----------------------------------*\
  =========                 |
  \\      /  F ield         | OpenFOAM: The Open Source CFD Toolbox
   \\    /   O peration     | Website:  https://openfoam.org
    \\  /    A nd           | Version:  7
     \\/     M anipulation  |
\*---------------------------------------------------------------------------*/
FoamFile
{
    version     2.0;
    format      ascii;
    class       volScalarField;
    location    "0.1";
    object      k;
}
// * * * * * * * * * * * * * * * * * * * * * * * * * * * * * * * * * * * * * //

dimensions      [0 2 -2 0 0 0 0];

internalField   nonuniform List<scalar> 
53911
(
0.003715327
0.003714556
0.003713632
0.003713778
0.003713456
0.003712736
0.003711536
0.00371007
0.003707968
0.003705762
0.00370318
0.003700003
0.003697554
0.003696397
0.003713978
0.003732173
0.003730952
0.00373105
0.003730459
0.003730159
0.003729585
0.003728993
0.003728254
0.003727431
0.003726538
0.00372579
0.003725079
0.00369757
0.003713964
0.003731933
0.003730421
0.003730684
0.003730081
0.003729836
0.003729332
0.003728816
0.003728169
0.00372746
0.00372676
0.003726292
0.003726003
0.00370008
0.003714386
0.003732171
0.003730683
0.003730875
0.003730354
0.00373011
0.003729695
0.003729311
0.003728833
0.003728342
0.003727912
0.003727723
0.003727634
0.003704465
0.003714893
0.003732321
0.003730704
0.003731196
0.003730581
0.003730632
0.003730276
0.003730073
0.003729792
0.003729558
0.003729398
0.003729542
0.003729452
0.003709668
0.003715488
0.003732694
0.003731234
0.003731633
0.003731233
0.003731215
0.003731091
0.003731072
0.003731063
0.003731129
0.003731401
0.003731914
0.003732095
0.003715629
0.003716118
0.003732996
0.003731501
0.003732121
0.00373173
0.003731936
0.003731945
0.003732171
0.003732438
0.003732902
0.003733601
0.003734789
0.003734923
0.003723014
0.003716855
0.003733406
0.003732001
0.003732599
0.003732365
0.003732623
0.003732829
0.00373326
0.003733866
0.003734726
0.003736208
0.003738531
0.003739782
0.003735652
0.003717652
0.003733718
0.003732292
0.003733066
0.003732807
0.003733327
0.003733666
0.003734367
0.003735292
0.003736701
0.003738919
0.003743264
0.003740921
0.003773026
0.00371818
0.003734035
0.003732679
0.003733477
0.003733328
0.003733874
0.003734345
0.003735146
0.003736265
0.003737753
0.003740251
0.003743887
0.003740948
0.003768806
0.003794255
0.003772627
0.003764441
0.003757891
0.003753759
0.003748714
0.003718698
0.003734272
0.003732923
0.003733817
0.003733656
0.003734322
0.00373484
0.003735729
0.003736868
0.003738428
0.00374059
0.003743445
0.003747622
0.003752561
0.003753223
0.003750522
0.003748736
0.003747105
0.003745709
0.003744266
0.00371921
0.003734483
0.003733142
0.003734064
0.003733927
0.003734613
0.003735137
0.003736008
0.003737069
0.003738455
0.003740219
0.003742446
0.003745263
0.00374848
0.003750944
0.003751324
0.003750899
0.003750188
0.00374931
0.003748268
0.003719394
0.003734607
0.003733271
0.00373422
0.003734087
0.00373478
0.003735291
0.003736129
0.003737103
0.003738345
0.003739842
0.003741645
0.003743632
0.003745903
0.003747496
0.003747985
0.003748093
0.00374782
0.003747321
0.003746622
0.003719546
0.003734653
0.003733346
0.003734284
0.003734145
0.00373482
0.003735296
0.00373607
0.003736933
0.003738004
0.003739237
0.003740676
0.003742177
0.003743799
0.003745141
0.003745818
0.003746178
0.003746198
0.003746009
0.003745591
0.003719825
0.003734643
0.003733331
0.003734255
0.003734114
0.003734761
0.003735199
0.00373591
0.003736677
0.003737611
0.003738661
0.003739834
0.003741069
0.003742302
0.003743341
0.003744019
0.003744456
0.003744635
0.003744621
0.00374439
0.003719946
0.003734542
0.003733249
0.003734151
0.003734001
0.003734613
0.003735009
0.003735656
0.003736332
0.003737145
0.003738035
0.003739011
0.003740018
0.003741025
0.003741931
0.003742631
0.003743169
0.003743515
0.003743704
0.003743696
0.003719393
0.003734383
0.003733124
0.003733961
0.003733822
0.003734392
0.003734753
0.00373534
0.003735942
0.003736655
0.003737425
0.00373826
0.00373912
0.003739971
0.003740763
0.003741448
0.003742035
0.003742499
0.00374286
0.003743055
0.003718966
0.003734235
0.003732917
0.003733744
0.003733584
0.003734115
0.00373444
0.003734972
0.003735509
0.00373614
0.003736814
0.003737539
0.003738287
0.003739043
0.003739777
0.003740467
0.003741127
0.003741736
0.003742323
0.00374281
0.003718695
0.003733982
0.003732622
0.003733435
0.003733287
0.003733782
0.003734081
0.003734568
0.003735051
0.003735617
0.003736214
0.003736854
0.003737517
0.003738192
0.003738874
0.003739551
0.003740262
0.003740983
0.003741796
0.003742571
0.00371796
0.003733668
0.003732357
0.003733111
0.003732947
0.003733411
0.003733687
0.003734134
0.003734575
0.003735087
0.003735623
0.003736196
0.003736788
0.0037374
0.003738038
0.003738708
0.003739472
0.003740344
0.003741468
0.003742729
0.003717284
0.003733344
0.003732023
0.003732721
0.003732568
0.003732997
0.003733262
0.003733676
0.003734085
0.003734553
0.00373504
0.003735554
0.003736081
0.003736621
0.003737191
0.0037378
0.003738552
0.003739445
0.00374079
0.003742685
0.003411085
0.003411176
0.003411615
0.003411806
0.003411639
0.003411666
0.003411621
0.003411572
0.003411513
0.00341147
0.003411375
0.003411277
0.003410769
0.003412811
0.003410799
0.003410939
0.003410938
0.00341102
0.003410928
0.003410922
0.003410923
0.003410926
0.003410932
0.003410941
0.003410953
0.003410984
0.00341247
0.003725004
0.003410932
0.003410959
0.003410945
0.003410941
0.003410949
0.003410956
0.003410968
0.003410984
0.003411005
0.003411031
0.003411061
0.003411121
0.00341303
0.003726046
0.003410962
0.003410949
0.003410969
0.003410999
0.003410999
0.003411018
0.003411044
0.003411077
0.003411121
0.00341118
0.003411251
0.003411454
0.00341365
0.003727965
0.003410992
0.003410982
0.003410998
0.003411011
0.003411041
0.003411072
0.003411115
0.003411167
0.003411241
0.003411347
0.003411487
0.003411837
0.003414616
0.003730188
0.003411031
0.003411
0.003411027
0.00341105
0.003411088
0.003411132
0.003411192
0.00341127
0.003411383
0.003411569
0.003411802
0.00341241
0.003416236
0.003733248
0.003411068
0.003411026
0.003411055
0.003411079
0.003411128
0.003411183
0.00341126
0.003411363
0.003411523
0.003411788
0.00341222
0.003413313
0.003419746
0.003732416
0.003411093
0.003411051
0.003411078
0.003411107
0.003411162
0.003411228
0.00341132
0.003411454
0.003411673
0.003412074
0.003412889
0.003414975
0.00341958
0.003431488
0.003411119
0.003411069
0.003411097
0.003411127
0.003411187
0.003411259
0.003411362
0.003411517
0.003411778
0.003412256
0.003413341
0.003416135
0.003426654
0.00351028
0.003411138
0.003411082
0.003411108
0.003411137
0.003411197
0.00341127
0.00341137
0.003411521
0.003411753
0.003412199
0.003413038
0.003415212
0.003420876
0.003454201
0.003481337
0.003416948
0.003415044
0.003414728
0.003414151
0.003413948
0.003411156
0.003411089
0.003411113
0.00341114
0.003411198
0.003411268
0.003411361
0.003411496
0.003411693
0.003412021
0.003412564
0.003413799
0.003416009
0.003417838
0.003417655
0.003416205
0.003415278
0.003414294
0.003413651
0.003413015
0.003411171
0.003411091
0.003411111
0.003411135
0.003411188
0.003411251
0.00341133
0.003411442
0.003411593
0.003411811
0.003412138
0.003412672
0.003413518
0.003414799
0.003415619
0.003414949
0.003414366
0.003414015
0.003413796
0.0034136
0.00341118
0.003411089
0.003411105
0.003411125
0.003411172
0.003411228
0.003411293
0.003411383
0.003411498
0.003411651
0.003411857
0.003412146
0.003412516
0.003412957
0.003413165
0.00341316
0.003413026
0.003412865
0.003412764
0.003412624
0.003411181
0.003411084
0.003411096
0.00341111
0.003411151
0.0034112
0.003411254
0.003411331
0.003411426
0.00341155
0.003411707
0.00341192
0.003412188
0.003412532
0.003412725
0.003412716
0.003412643
0.003412578
0.003412501
0.00341241
0.00341118
0.003411085
0.003411095
0.003411108
0.003411148
0.003411196
0.003411246
0.003411317
0.003411403
0.003411513
0.003411645
0.003411804
0.003411967
0.003412134
0.003412255
0.003412289
0.003412287
0.003412252
0.003412212
0.00341216
0.003411173
0.003411088
0.003411099
0.003411114
0.003411155
0.003411203
0.003411252
0.003411317
0.003411394
0.003411488
0.003411597
0.003411722
0.003411858
0.003411991
0.003412085
0.003412133
0.003412142
0.003412129
0.003412097
0.003412055
0.003411166
0.003411087
0.0034111
0.003411116
0.003411157
0.003411206
0.003411252
0.003411314
0.003411382
0.003411463
0.003411554
0.003411653
0.003411753
0.00341185
0.003411931
0.003411981
0.003412005
0.003412006
0.003411987
0.003411957
0.003411157
0.003411082
0.003411096
0.003411114
0.003411156
0.003411203
0.003411247
0.003411305
0.003411366
0.003411437
0.003411515
0.0034116
0.003411687
0.003411771
0.003411844
0.003411901
0.003411939
0.003411961
0.003411963
0.003411958
0.003411146
0.003411072
0.003411089
0.003411108
0.00341115
0.003411198
0.003411237
0.003411291
0.003411347
0.00341141
0.003411477
0.003411549
0.003411623
0.003411696
0.003411766
0.003411829
0.003411882
0.003411926
0.00341196
0.003412003
0.00341113
0.003411059
0.003411078
0.003411099
0.00341114
0.003411187
0.003411224
0.003411275
0.003411325
0.003411381
0.003411441
0.003411504
0.003411569
0.003411636
0.003411706
0.003411779
0.003411853
0.003411949
0.003412052
0.003412292
0.003411108
0.003411045
0.003411065
0.003411086
0.003411127
0.003411173
0.003411207
0.003411255
0.0034113
0.003411351
0.003411403
0.003411458
0.003411516
0.003411577
0.003411643
0.003411722
0.003411819
0.003411959
0.003412203
0.003412803
0.003411056
0.00342164
0.003734079
0.003733625
0.003732795
0.003732426
0.0037318
0.003731199
0.003730463
0.003729744
0.003729383
0.003727951
0.003411422
0.00341274
0.003410848
0.003410846
0.003410958
0.003410936
0.003410919
0.003410907
0.003410902
0.003410898
0.003410896
0.003410896
0.003410891
0.003410931
0.003412187
0.003724345
0.003410941
0.003410774
0.003410798
0.003410795
0.003410794
0.003410798
0.003410811
0.003410821
0.003410839
0.003410859
0.003410885
0.003410913
0.003412615
0.003725144
0.003410834
0.00341075
0.003410802
0.003410821
0.003410841
0.003410855
0.003410879
0.003410907
0.003410946
0.003410999
0.003411065
0.003411168
0.003413267
0.003727109
0.003410875
0.00341078
0.003410818
0.003410846
0.003410881
0.00341091
0.003410951
0.003410999
0.00341107
0.003411166
0.0034113
0.00341149
0.003414179
0.003729468
0.003410899
0.003410804
0.00341085
0.00341088
0.003410924
0.003410967
0.003411026
0.003411101
0.003411211
0.003411377
0.003411599
0.003412037
0.003415858
0.003732716
0.003410923
0.003410823
0.00341087
0.003410909
0.003410962
0.003411018
0.003411093
0.003411194
0.003411351
0.003411591
0.003412014
0.003412805
0.003419403
0.003732437
0.003410942
0.003410846
0.003410894
0.003410933
0.003410992
0.00341106
0.00341115
0.003411283
0.003411497
0.003411867
0.003412636
0.003414362
0.003418316
0.003433173
0.003410963
0.003410859
0.003410907
0.003410952
0.003411013
0.003411089
0.003411191
0.003411343
0.003411598
0.00341204
0.003413075
0.003415362
0.003425941
0.003523494
0.003444848
0.003446988
0.00343995
0.003410981
0.003410872
0.003410918
0.003410962
0.003411024
0.003411099
0.003411199
0.00341135
0.003411576
0.003411995
0.003412752
0.003414621
0.00342002
0.003452023
0.003477439
0.003416875
0.003415377
0.003413826
0.003413494
0.003413
0.003410996
0.003410877
0.003410921
0.003410964
0.003411022
0.003411096
0.00341119
0.003411326
0.00341152
0.003411837
0.003412324
0.003413465
0.003415507
0.003417512
0.003417583
0.003416184
0.003415045
0.003413764
0.003413164
0.003413082
0.003411004
0.003410874
0.00341092
0.003410959
0.003411013
0.003411079
0.003411159
0.00341127
0.003411421
0.003411626
0.003411932
0.003412412
0.003413223
0.003414356
0.003415015
0.003414156
0.003413567
0.003413021
0.003412696
0.003412534
0.003411006
0.003410871
0.003410914
0.003410949
0.003410997
0.003411054
0.003411123
0.003411213
0.003411329
0.003411482
0.003411686
0.003411978
0.00341237
0.003412817
0.003413005
0.003413006
0.003412814
0.003412654
0.003412552
0.003412449
0.003411004
0.003410867
0.003410904
0.003410934
0.003410976
0.003411025
0.003411085
0.003411162
0.003411259
0.003411382
0.003411539
0.00341175
0.003412017
0.003412337
0.003412497
0.003412468
0.003412387
0.003412285
0.003412206
0.003412136
0.003411005
0.003410866
0.003410904
0.003410931
0.003410972
0.00341102
0.003411077
0.003411149
0.003411237
0.003411347
0.003411481
0.00341164
0.003411806
0.003411972
0.003412092
0.003412128
0.003412121
0.003412085
0.003412047
0.003412
0.003411004
0.003410868
0.003410909
0.003410936
0.00341098
0.003411028
0.003411083
0.00341115
0.003411229
0.003411323
0.003411433
0.003411557
0.00341169
0.003411818
0.003411906
0.00341195
0.003411956
0.003411936
0.003411905
0.003411867
0.003411002
0.003410869
0.003410909
0.003410939
0.003410983
0.003411031
0.003411084
0.003411147
0.003411218
0.003411299
0.003411391
0.003411491
0.003411591
0.003411688
0.003411767
0.003411816
0.003411839
0.003411838
0.003411823
0.003411797
0.003410992
0.003410867
0.003410905
0.003410937
0.003410982
0.003411029
0.00341108
0.003411138
0.003411202
0.003411275
0.003411353
0.003411438
0.003411524
0.003411607
0.003411678
0.003411734
0.00341177
0.003411789
0.003411791
0.003411786
0.003410977
0.003410859
0.003410898
0.003410931
0.003410976
0.003411022
0.003411071
0.003411126
0.003411184
0.003411248
0.003411317
0.003411389
0.003411462
0.003411536
0.003411604
0.003411666
0.003411718
0.003411761
0.003411796
0.003411831
0.003410958
0.003410848
0.003410887
0.003410922
0.003410967
0.003411012
0.003411059
0.00341111
0.003411163
0.00341122
0.00341128
0.003411344
0.003411409
0.003411476
0.003411545
0.003411616
0.00341169
0.003411778
0.003411871
0.003412057
0.003410937
0.003410834
0.003410875
0.00341091
0.003410955
0.003410998
0.003411043
0.00341109
0.003411139
0.00341119
0.003411243
0.003411298
0.003411355
0.003411416
0.003411482
0.00341156
0.003411656
0.003411784
0.003412006
0.003412454
0.003411061
0.003422481
0.003732787
0.003732064
0.003731022
0.00373047
0.003729788
0.003729078
0.003728293
0.003727535
0.003727518
0.003726422
0.003411516
0.003412806
0.003410875
0.003410838
0.003410961
0.003410932
0.003410911
0.003410894
0.003410886
0.003410879
0.003410873
0.00341087
0.003410869
0.003410907
0.003412119
0.003724123
0.003410864
0.003410769
0.003410788
0.003410787
0.003410788
0.003410789
0.003410796
0.003410804
0.003410818
0.003410833
0.003410854
0.003410887
0.003412557
0.003724843
0.003410804
0.003410735
0.00341079
0.003410806
0.003410832
0.003410845
0.003410867
0.003410892
0.003410928
0.003410978
0.003411042
0.003411151
0.003413231
0.003726752
0.003410844
0.003410761
0.003410802
0.00341083
0.003410865
0.003410896
0.003410936
0.003410984
0.00341105
0.003411145
0.003411278
0.003411475
0.003414141
0.003729153
0.003410859
0.003410782
0.003410826
0.003410861
0.003410908
0.003410954
0.003411012
0.003411087
0.003411194
0.003411362
0.003411581
0.003412028
0.003415845
0.003732455
0.003410887
0.003410804
0.003410849
0.003410887
0.003410943
0.003411002
0.003411079
0.003411181
0.003411337
0.003411576
0.003412003
0.003412783
0.003419382
0.003732318
0.003410906
0.003410822
0.00341087
0.003410912
0.003410974
0.003411044
0.003411138
0.00341127
0.003411486
0.003411857
0.00341262
0.003414269
0.003417888
0.003428128
0.003410927
0.003410837
0.003410886
0.003410929
0.003410995
0.003411072
0.003411178
0.00341133
0.003411585
0.003412025
0.003413041
0.00341531
0.003425749
0.00350331
0.003438337
0.003435104
0.00343032
0.003410943
0.003410847
0.003410896
0.003410938
0.003411005
0.003411082
0.003411186
0.003411335
0.003411566
0.003411989
0.003412748
0.003414646
0.003419942
0.003452204
0.003484152
0.0034166
0.003415474
0.003414314
0.003413586
0.003413123
0.003410957
0.003410854
0.003410901
0.00341094
0.003411004
0.003411079
0.003411176
0.003411312
0.00341151
0.003411831
0.003412341
0.003413489
0.003415547
0.00341754
0.003417193
0.003415946
0.003414882
0.003413486
0.003412862
0.003412954
0.003410966
0.003410856
0.0034109
0.003410935
0.003410994
0.003411061
0.003411146
0.003411257
0.00341141
0.003411616
0.003411928
0.00341239
0.003413185
0.003414376
0.003415061
0.003414109
0.003413472
0.003412882
0.003412582
0.003412488
0.003410972
0.003410855
0.003410895
0.003410926
0.003410979
0.003411037
0.003411111
0.003411202
0.00341132
0.003411475
0.003411684
0.003411978
0.003412352
0.003412777
0.003412955
0.003412978
0.003412799
0.003412581
0.003412492
0.003412406
0.003410973
0.003410851
0.003410886
0.003410912
0.003410959
0.003411009
0.003411073
0.003411151
0.00341125
0.003411375
0.003411535
0.003411747
0.003412016
0.00341234
0.003412478
0.003412459
0.003412363
0.003412252
0.00341218
0.003412119
0.003410973
0.003410851
0.003410885
0.003410909
0.003410955
0.003411005
0.003411066
0.003411139
0.003411229
0.003411342
0.003411477
0.003411636
0.0034118
0.003411965
0.003412084
0.003412121
0.003412117
0.003412073
0.00341204
0.003411997
0.003410971
0.003410854
0.003410888
0.003410915
0.003410963
0.003411013
0.003411072
0.003411141
0.003411222
0.003411318
0.00341143
0.003411555
0.003411688
0.003411816
0.003411903
0.003411948
0.003411953
0.003411931
0.003411902
0.003411865
0.003410964
0.003410852
0.003410887
0.003410916
0.003410966
0.003411016
0.003411073
0.003411138
0.003411211
0.003411295
0.003411387
0.003411487
0.003411589
0.003411685
0.003411765
0.003411815
0.003411838
0.003411838
0.003411823
0.003411799
0.003410953
0.003410845
0.003410883
0.003410914
0.003410965
0.003411015
0.00341107
0.00341113
0.003411197
0.00341127
0.00341135
0.003411435
0.003411522
0.003411606
0.003411677
0.003411733
0.003411769
0.003411788
0.003411791
0.003411788
0.003410939
0.003410835
0.003410875
0.003410909
0.00341096
0.003411009
0.003411063
0.003411119
0.003411179
0.003411244
0.003411314
0.003411387
0.003411461
0.003411534
0.003411604
0.003411665
0.003411718
0.003411761
0.003411797
0.003411835
0.003410921
0.003410824
0.003410865
0.0034109
0.003410952
0.003411
0.003411051
0.003411103
0.003411159
0.003411217
0.003411278
0.003411342
0.003411408
0.003411475
0.003411544
0.003411616
0.003411688
0.003411775
0.00341187
0.003412057
0.003410902
0.00341081
0.003410852
0.003410888
0.003410939
0.003410987
0.003411035
0.003411084
0.003411135
0.003411187
0.003411241
0.003411297
0.003411354
0.003411415
0.003411482
0.003411559
0.003411657
0.003411788
0.003412001
0.003412436
0.003411072
0.003422559
0.003732206
0.003731286
0.003730068
0.003729493
0.003728737
0.003728014
0.003727184
0.003726492
0.003726587
0.003725894
0.003411512
0.003412813
0.003410868
0.003410858
0.003410974
0.003410924
0.003410913
0.003410892
0.003410883
0.003410876
0.003410869
0.003410864
0.003410856
0.0034109
0.00341211
0.003724054
0.003410875
0.003410785
0.0034108
0.00341079
0.003410785
0.003410785
0.003410791
0.003410797
0.00341081
0.003410823
0.003410843
0.003410877
0.003412543
0.003724748
0.003410815
0.003410751
0.003410794
0.003410807
0.003410827
0.003410839
0.003410858
0.003410881
0.003410913
0.003410962
0.003411025
0.003411139
0.003413236
0.003726674
0.003410861
0.003410775
0.003410804
0.003410826
0.003410859
0.003410888
0.003410925
0.00341097
0.003411034
0.003411127
0.003411263
0.003411467
0.003414157
0.003729095
0.003410883
0.003410794
0.003410826
0.003410854
0.003410896
0.003410942
0.003410999
0.003411073
0.003411178
0.003411345
0.003411568
0.003412024
0.003415929
0.003732472
0.003410912
0.003410817
0.003410847
0.003410879
0.003410931
0.003410989
0.003411065
0.003411166
0.003411322
0.003411562
0.00341199
0.003412799
0.003419603
0.003732321
0.003410932
0.003410836
0.003410868
0.003410902
0.00341096
0.003411029
0.003411123
0.003411256
0.003411471
0.003411842
0.003412609
0.00341435
0.003418632
0.003430122
0.003410952
0.003410851
0.003410881
0.003410919
0.00341098
0.003411057
0.003411162
0.003411315
0.00341157
0.003412007
0.003413037
0.003415286
0.003425511
0.003506435
0.003439864
0.003433701
0.00342988
0.00341097
0.003410862
0.003410892
0.003410927
0.003410988
0.003411065
0.00341117
0.003411321
0.003411551
0.00341197
0.003412718
0.003414563
0.00341982
0.003450983
0.003478918
0.003416761
0.003415152
0.003413722
0.003413451
0.003412848
0.003410983
0.003410867
0.003410894
0.003410929
0.003410987
0.003411062
0.003411161
0.003411299
0.003411498
0.003411818
0.003412313
0.003413448
0.003415434
0.003417461
0.003417168
0.003415895
0.003414864
0.003413463
0.003413151
0.003412989
0.003410993
0.00341087
0.003410894
0.003410925
0.003410978
0.003411045
0.003411131
0.003411244
0.003411398
0.003411604
0.003411909
0.003412378
0.003413177
0.003414325
0.003415039
0.003414131
0.003413507
0.003412895
0.003412636
0.003412498
0.003410998
0.003410869
0.003410888
0.003410915
0.003410962
0.003411021
0.003411096
0.00341119
0.00341131
0.003411466
0.003411674
0.003411971
0.003412343
0.003412772
0.003412953
0.003412988
0.003412814
0.003412604
0.003412521
0.003412441
0.003410998
0.003410865
0.00341088
0.003410901
0.003410942
0.003410994
0.00341106
0.00341114
0.003411241
0.003411367
0.003411528
0.003411743
0.003412011
0.003412335
0.003412482
0.003412464
0.003412372
0.003412261
0.003412188
0.003412131
0.003410998
0.003410864
0.003410878
0.003410898
0.003410939
0.003410989
0.003411052
0.003411128
0.00341122
0.003411335
0.003411471
0.003411632
0.003411797
0.003411962
0.003412084
0.003412124
0.003412121
0.003412078
0.003412045
0.003412006
0.003410995
0.003410865
0.003410881
0.003410903
0.003410946
0.003410998
0.003411059
0.003411131
0.003411214
0.003411311
0.003411425
0.003411552
0.003411685
0.003411815
0.003411903
0.003411949
0.003411955
0.003411934
0.003411905
0.00341187
0.003410988
0.003410862
0.003410881
0.003410905
0.00341095
0.003411001
0.003411061
0.003411128
0.003411204
0.003411289
0.003411383
0.003411484
0.003411587
0.003411684
0.003411765
0.003411815
0.003411839
0.003411839
0.003411826
0.003411803
0.003410977
0.003410855
0.003410876
0.003410903
0.003410949
0.003411001
0.003411059
0.003411122
0.00341119
0.003411265
0.003411347
0.003411433
0.003411521
0.003411605
0.003411677
0.003411733
0.00341177
0.00341179
0.003411794
0.003411792
0.003410962
0.003410845
0.003410868
0.003410897
0.003410944
0.003410996
0.003411052
0.003411111
0.003411173
0.00341124
0.003411311
0.003411384
0.003411459
0.003411533
0.003411603
0.003411666
0.003411719
0.003411763
0.003411798
0.003411838
0.003410944
0.003410833
0.003410857
0.003410888
0.003410936
0.003410988
0.003411041
0.003411096
0.003411153
0.003411213
0.003411275
0.00341134
0.003411406
0.003411474
0.003411544
0.003411616
0.00341169
0.003411776
0.003411871
0.003412058
0.003410923
0.003410819
0.003410844
0.003410876
0.003410924
0.003410975
0.003411026
0.003411077
0.00341113
0.003411184
0.003411238
0.003411295
0.003411353
0.003411414
0.003411482
0.00341156
0.003411658
0.003411787
0.003412009
0.003412458
0.003411081
0.003422627
0.003732024
0.003730993
0.003729697
0.003729161
0.003728381
0.003727631
0.003726814
0.003726115
0.003726322
0.003725696
0.003411502
0.003412816
0.003410869
0.003410862
0.003410981
0.003410927
0.003410917
0.003410895
0.003410885
0.003410877
0.003410869
0.003410864
0.003410859
0.0034109
0.003412103
0.003724019
0.003410886
0.003410792
0.003410803
0.003410788
0.003410785
0.003410783
0.003410789
0.003410793
0.003410805
0.003410817
0.003410836
0.003410874
0.003412544
0.003724735
0.003410819
0.003410757
0.003410799
0.003410807
0.003410826
0.003410835
0.003410854
0.003410875
0.003410906
0.003410954
0.003411019
0.003411136
0.003413237
0.003726651
0.003410875
0.003410785
0.003410806
0.003410826
0.003410854
0.003410882
0.003410916
0.00341096
0.003411023
0.003411116
0.003411255
0.003411468
0.003414173
0.00372909
0.00341089
0.003410802
0.003410828
0.003410852
0.00341089
0.003410933
0.003410989
0.003411062
0.003411166
0.003411335
0.003411564
0.003412034
0.003415976
0.003732516
0.003410923
0.003410827
0.003410848
0.003410877
0.003410922
0.003410978
0.003411054
0.003411154
0.003411311
0.003411553
0.003411988
0.003412826
0.003419757
0.003732162
0.003410942
0.003410845
0.003410868
0.0034109
0.003410951
0.003411018
0.003411111
0.003411244
0.003411462
0.003411841
0.003412628
0.003414462
0.003419386
0.003434718
0.003410964
0.003410861
0.003410882
0.003410916
0.00341097
0.003411044
0.00341115
0.003411303
0.003411561
0.003412003
0.003413044
0.003415331
0.003425115
0.003548714
0.003437247
0.003433109
0.003429411
0.003410981
0.003410872
0.003410892
0.003410925
0.003410978
0.003411053
0.003411157
0.003411307
0.003411538
0.003411951
0.00341268
0.003414476
0.00341953
0.003447309
0.003480028
0.003416702
0.003415444
0.003413811
0.003413113
0.00341295
0.003410996
0.003410879
0.003410896
0.003410926
0.003410978
0.003411049
0.003411148
0.003411286
0.003411486
0.003411806
0.003412307
0.003413402
0.003415325
0.003417434
0.003417219
0.003416033
0.003414916
0.003413532
0.003412824
0.003412964
0.003411006
0.003410882
0.003410895
0.003410922
0.003410968
0.003411032
0.003411118
0.003411232
0.003411387
0.003411594
0.003411896
0.003412353
0.003413158
0.003414317
0.003415076
0.003414128
0.003413483
0.003412903
0.003412578
0.003412499
0.003411012
0.003410881
0.003410891
0.003410912
0.003410953
0.003411009
0.003411084
0.003411179
0.003411301
0.003411458
0.003411666
0.003411964
0.003412328
0.003412751
0.003412939
0.00341298
0.003412809
0.003412553
0.003412485
0.003412429
0.003411014
0.003410878
0.003410882
0.003410898
0.003410933
0.003410982
0.003411048
0.00341113
0.003411233
0.00341136
0.003411524
0.00341174
0.003412002
0.00341233
0.003412462
0.003412452
0.003412352
0.003412242
0.003412174
0.003412121
0.003411014
0.003410877
0.00341088
0.003410896
0.00341093
0.003410978
0.003411041
0.003411119
0.003411213
0.003411329
0.003411467
0.003411629
0.003411793
0.003411959
0.003412079
0.003412116
0.003412115
0.003412066
0.003412037
0.003412002
0.003411011
0.003410877
0.003410883
0.003410901
0.003410937
0.003410986
0.003411048
0.003411122
0.003411207
0.003411306
0.003411421
0.003411549
0.003411682
0.003411812
0.003411899
0.003411946
0.00341195
0.003411928
0.003411901
0.003411867
0.003411004
0.003410874
0.003410882
0.003410903
0.003410941
0.00341099
0.003411051
0.00341112
0.003411197
0.003411284
0.003411379
0.003411481
0.003411585
0.003411682
0.003411763
0.003411813
0.003411838
0.003411837
0.003411826
0.003411804
0.003410993
0.003410867
0.003410877
0.0034109
0.00341094
0.00341099
0.003411049
0.003411114
0.003411184
0.003411261
0.003411344
0.003411431
0.003411519
0.003411603
0.003411675
0.003411732
0.003411768
0.003411788
0.003411792
0.003411791
0.003410977
0.003410857
0.003410869
0.003410894
0.003410936
0.003410986
0.003411043
0.003411104
0.003411168
0.003411236
0.003411308
0.003411382
0.003411458
0.003411532
0.003411602
0.003411665
0.003411719
0.003411763
0.003411799
0.003411847
0.003410959
0.003410844
0.003410857
0.003410885
0.003410928
0.003410978
0.003411033
0.00341109
0.003411149
0.00341121
0.003411273
0.003411338
0.003411405
0.003411473
0.003411543
0.003411615
0.003411689
0.003411773
0.003411871
0.003412051
0.003410938
0.00341083
0.003410844
0.003410873
0.003410916
0.003410965
0.003411018
0.003411071
0.003411125
0.00341118
0.003411236
0.003411293
0.003411352
0.003411413
0.003411481
0.003411559
0.003411657
0.003411787
0.003412001
0.003412434
0.00341108
0.003422458
0.003731922
0.003730962
0.003729607
0.003729017
0.003728252
0.003727504
0.003726682
0.003726009
0.003726201
0.003725667
0.00341151
0.003412814
0.00341087
0.003410867
0.003410983
0.003410925
0.003410921
0.003410897
0.003410886
0.003410878
0.00341087
0.003410864
0.003410857
0.003410899
0.003412107
0.003724035
0.003410893
0.003410798
0.003410809
0.003410788
0.003410784
0.003410782
0.003410787
0.003410791
0.003410804
0.003410815
0.003410835
0.003410874
0.003412542
0.003724739
0.003410821
0.003410768
0.003410803
0.00341081
0.003410826
0.003410833
0.003410851
0.003410872
0.003410902
0.00341095
0.003411016
0.003411135
0.003413239
0.00372665
0.003410881
0.003410794
0.003410812
0.003410829
0.003410853
0.003410878
0.003410912
0.003410955
0.003411016
0.00341111
0.003411252
0.003411468
0.003414177
0.003729096
0.003410895
0.00341081
0.003410831
0.003410853
0.003410888
0.003410928
0.003410982
0.003411054
0.003411158
0.003411329
0.003411561
0.003412034
0.003415995
0.003732533
0.00341093
0.003410836
0.003410852
0.003410878
0.003410919
0.003410972
0.003411045
0.003411146
0.003411303
0.003411546
0.003411984
0.00341283
0.003419788
0.003732168
0.003410948
0.003410853
0.003410871
0.0034109
0.003410947
0.00341101
0.003411101
0.003411235
0.003411454
0.003411833
0.003412623
0.003414461
0.003419375
0.003435224
0.00341097
0.00341087
0.003410885
0.003410915
0.003410965
0.003411036
0.003411139
0.003411293
0.003411552
0.003411994
0.003413033
0.003415304
0.003424864
0.003547997
0.003439494
0.003433106
0.00342948
0.003410988
0.00341088
0.003410895
0.003410924
0.003410973
0.003411044
0.003411146
0.003411297
0.003411528
0.00341194
0.003412663
0.003414432
0.003419425
0.003446622
0.003480599
0.003416813
0.003415156
0.003413653
0.003413367
0.003412783
0.003411002
0.003410887
0.003410898
0.003410925
0.003410972
0.00341104
0.003411137
0.003411276
0.003411478
0.003411797
0.003412292
0.003413381
0.003415275
0.003417393
0.003417152
0.003415906
0.003414874
0.003413427
0.003413179
0.003412909
0.003411013
0.00341089
0.003410898
0.003410921
0.003410963
0.003411023
0.003411108
0.003411222
0.003411379
0.003411585
0.003411886
0.003412342
0.003413144
0.0034143
0.003415059
0.003414127
0.003413488
0.003412875
0.003412629
0.003412475
0.003411019
0.00341089
0.003410893
0.003410911
0.003410948
0.003411001
0.003411074
0.00341117
0.003411294
0.003411451
0.003411659
0.003411958
0.003412321
0.003412743
0.003412933
0.003412967
0.003412806
0.003412584
0.00341252
0.003412433
0.00341102
0.003410886
0.003410885
0.003410898
0.003410928
0.003410974
0.003411038
0.003411122
0.003411227
0.003411354
0.003411519
0.003411736
0.003411997
0.003412327
0.003412464
0.003412453
0.003412357
0.00341225
0.003412184
0.003412126
0.003411019
0.003410885
0.003410883
0.003410895
0.003410925
0.00341097
0.003411032
0.003411111
0.003411207
0.003411324
0.003411463
0.003411626
0.00341179
0.003411956
0.003412078
0.003412116
0.003412117
0.003412074
0.003412045
0.003412008
0.003411016
0.003410885
0.003410885
0.0034109
0.003410932
0.003410978
0.003411039
0.003411114