/*--------------------------------*- C++ -*----------------------------------*\
  =========                 |
  \\      /  F ield         | OpenFOAM: The Open Source CFD Toolbox
   \\    /   O peration     | Website:  https://openfoam.org
    \\  /    A nd           | Version:  7
     \\/     M anipulation  |
\*---------------------------------------------------------------------------*/
FoamFile
{
    version     2.0;
    format      ascii;
    class       volVectorField;
    location    "0.1";
    object      U;
}
// * * * * * * * * * * * * * * * * * * * * * * * * * * * * * * * * * * * * * //

dimensions      [0 1 -1 0 0 0 0];

internalField   nonuniform List<vector> 
53911
(
(-0.2474473 -0.01403854 -0.001581111)
(-0.2457116 -0.01814852 -0.002476099)
(-0.2381753 -0.01238415 -0.001684803)
(-0.235995 -0.01776505 -0.004329525)
(-0.2293298 -0.02043514 -0.006016147)
(-0.2229545 -0.02337077 -0.007096786)
(-0.2100723 -0.02462671 -0.00757738)
(-0.1960052 -0.02635483 -0.008070162)
(-0.1765649 -0.03070747 -0.005821128)
(-0.1537094 -0.02859097 -0.00750257)
(-0.1271837 -0.03027153 -0.008042342)
(-0.09717143 -0.03178028 -0.00763853)
(-0.06496853 -0.02761607 -0.004883862)
(-0.03225164 -0.02794575 -1.188314e-07)
(-0.2382994 0.009805312 -0.01159927)
(-0.2484557 -0.01388769 0.001085396)
(-0.2276496 -0.003735263 -3.960953e-05)
(-0.2310302 -0.0184102 0.002918496)
(-0.2180673 -0.01714661 -0.0005222778)
(-0.2117853 -0.02459586 -0.0005774961)
(-0.1984701 -0.02896751 -0.001526672)
(-0.1845784 -0.0362813 -0.001954753)
(-0.1659986 -0.04346992 -0.002552546)
(-0.1444117 -0.05096108 -0.003096115)
(-0.118761 -0.05841871 -0.003910829)
(-0.08829625 -0.06669728 -0.003532572)
(-0.05555895 -0.07131789 -0.001831806)
(-0.02412491 -0.06430105 0.0009360773)
(-0.2426602 -0.005908829 -0.01866315)
(-0.256528 -0.01302371 -0.009893236)
(-0.2296935 -0.01165745 -0.004597603)
(-0.2377938 -0.01974689 0.0002175047)
(-0.2247288 -0.02452099 -0.0006457768)
(-0.2188516 -0.03157211 -3.851779e-05)
(-0.2059791 -0.03970957 -0.000469262)
(-0.1929455 -0.04899424 -0.0004072045)
(-0.1750512 -0.0591337 -0.0006806786)
(-0.153663 -0.0704473 -0.0005844159)
(-0.1278408 -0.08172664 -0.0009975893)
(-0.09628454 -0.09277833 0.0009341907)
(-0.06492769 -0.1007188 0.001889058)
(-0.02321761 -0.1016259 0.003778875)
(-0.247453 -0.006461915 -0.01902478)
(-0.2648034 -0.01244797 -0.006375037)
(-0.2423739 -0.01769062 -0.002047466)
(-0.2457837 -0.02622655 0.001702827)
(-0.2365972 -0.03337501 -0.000256096)
(-0.2292511 -0.04315331 -0.0003782103)
(-0.2177659 -0.05308593 -0.0003182196)
(-0.2054906 -0.06620356 -0.0001278834)
(-0.1886619 -0.08057358 -0.0003108025)
(-0.1679547 -0.09658809 -0.0001768461)
(-0.1419251 -0.1139129 -0.0006886237)
(-0.1087786 -0.1302088 0.001148968)
(-0.07128237 -0.1438417 0.001390439)
(-0.02382574 -0.1482363 0.002723837)
(-0.2524743 -0.008753837 -0.01993601)
(-0.2687814 -0.01565973 -0.008706515)
(-0.2431027 -0.02124837 -0.004643554)
(-0.2550651 -0.03006606 0.0006670398)
(-0.2410188 -0.03882118 -0.000998971)
(-0.2424413 -0.05043963 1.680872e-05)
(-0.2302093 -0.06304506 -0.0006591513)
(-0.2207148 -0.07846416 -0.0002892012)
(-0.2055799 -0.09627888 -0.0004668027)
(-0.187032 -0.1173485 -0.0001095476)
(-0.161532 -0.1398415 -0.0008381921)
(-0.1274968 -0.1650113 0.001934944)
(-0.08648977 -0.1834774 0.0009933648)
(-0.02776755 -0.1972808 0.003174241)
(-0.2591047 -0.01180886 -0.01981963)
(-0.2794173 -0.01523949 -0.009254982)
(-0.256864 -0.0233985 -0.00248011)
(-0.2637628 -0.03327258 0.001425392)
(-0.2569255 -0.04313655 -0.0005770015)
(-0.2534453 -0.05599706 -0.0009454312)
(-0.246311 -0.07207392 -0.0005552564)
(-0.2389442 -0.09065462 -0.0002494284)
(-0.2277393 -0.1132263 -0.0003971696)
(-0.2116665 -0.1405796 -0.0002328835)
(-0.1894015 -0.1727799 -0.001028097)
(-0.1533609 -0.2083088 0.001916779)
(-0.1092533 -0.2426217 -0.0007592502)
(-0.03866609 -0.2521527 0.001694278)
(-0.2665574 -0.01035221 -0.01929114)
(-0.2847308 -0.01634558 -0.008401497)
(-0.2617226 -0.02463845 -0.004577361)
(-0.2754765 -0.03425293 0.0006646663)
(-0.2674747 -0.04553768 -0.0009620955)
(-0.2688364 -0.05961489 -0.0003750399)
(-0.2638718 -0.0761138 -0.0005991526)
(-0.2618107 -0.09678946 -0.0003016412)
(-0.2555333 -0.1221281 -0.0006395446)
(-0.2467643 -0.1552261 -0.0004167235)
(-0.2300173 -0.1948514 -0.001684158)
(-0.2004983 -0.2469924 0.00303949)
(-0.1452101 -0.2959674 -0.002053026)
(-0.04314751 -0.3193972 -0.004340963)
(-0.2729974 -0.009490865 -0.02153848)
(-0.2964045 -0.01538859 -0.01031099)
(-0.2742821 -0.02386358 -0.002625909)
(-0.2849566 -0.03359049 0.001571206)
(-0.2813557 -0.04519679 -0.0006396291)
(-0.2833784 -0.06052984 -0.0009114339)
(-0.2832521 -0.07729217 -0.0005743483)
(-0.2849293 -0.09932698 -0.0003030075)
(-0.2861718 -0.1276975 -0.0004613106)
(-0.2842362 -0.1663162 -0.0005235085)
(-0.2827974 -0.2189273 -0.0008666508)
(-0.2646557 -0.2994958 0.002575273)
(-0.2371868 -0.4163221 0.002529438)
(-0.1048685 -0.4174339 -0.01823601)
(-0.2801835 -0.0109081 -0.02226485)
(-0.3019171 -0.01464348 -0.00911773)
(-0.2793924 -0.02327919 -0.004723055)
(-0.2957338 -0.03213641 0.001150791)
(-0.289774 -0.04338232 -0.001291909)
(-0.300285 -0.05616976 4.412515e-05)
(-0.3028198 -0.07265634 -0.0005117802)
(-0.3129236 -0.09320663 -0.0002121113)
(-0.3231242 -0.1202552 -0.0007774915)
(-0.338774 -0.1572571 -0.0008372414)
(-0.3623646 -0.2083348 -0.002613951)
(-0.3978627 -0.2935708 0.00484473)
(-0.4640215 -0.4324907 0.002517462)
(-0.2991958 -0.8096275 -0.0768576)
(-0.2861006 -0.01049021 -0.02308731)
(-0.3108639 -0.01298676 -0.01026104)
(-0.2895667 -0.01970553 -0.003116335)
(-0.3046804 -0.02857092 0.001304857)
(-0.3036081 -0.03688453 -0.0007997961)
(-0.3124088 -0.0496473 -0.0001689558)
(-0.3199067 -0.06300799 -0.0004003453)
(-0.3328109 -0.08003288 -0.0001239133)
(-0.3509813 -0.1013899 -0.0003752862)
(-0.3740427 -0.1276555 -0.0004242281)
(-0.4167307 -0.1590881 -0.000239198)
(-0.4708789 -0.2053189 0.004715876)
(-0.5944374 -0.2429167 0.00869414)
(-0.7017584 -0.3013976 -0.009210332)
(-1.118095 0.04532102 0.01049913)
(-0.8932642 0.3644817 0.03253542)
(-0.7598607 0.4481206 0.0395395)
(-0.6666725 0.4816811 0.03814712)
(-0.593882 0.4901225 0.035988)
(-0.5329604 0.4945124 0.03017057)
(-0.2913699 -0.009761417 -0.02353563)
(-0.3158646 -0.01061289 -0.01084967)
(-0.29392 -0.01689825 -0.004537476)
(-0.3126455 -0.02360179 0.001152202)
(-0.3100776 -0.03138589 -0.001219259)
(-0.3237086 -0.04028692 0.0002709683)
(-0.3331824 -0.05028647 -0.0003398342)
(-0.3507147 -0.06202059 -0.0001386443)
(-0.3720951 -0.07656667 -0.0004418258)
(-0.4029989 -0.09040364 -0.0007310012)
(-0.4451484 -0.1072075 -0.001160345)
(-0.5043702 -0.1191555 0.000725824)
(-0.5961705 -0.114388 0.002649361)
(-0.7134208 -0.04974539 -0.001882714)
(-0.771606 0.1103746 -0.01137609)
(-0.7299781 0.246232 -0.02485499)
(-0.6756932 0.3273925 -0.01874618)
(-0.6179481 0.383069 -0.02432572)
(-0.5661174 0.4151281 -0.02396143)
(-0.5161589 0.4287114 -0.01807336)
(-0.2971502 -0.01082716 -0.02263223)
(-0.3220039 -0.007693772 -0.01144156)
(-0.2998912 -0.01192842 -0.003725398)
(-0.3184287 -0.01772854 0.00111791)
(-0.317177 -0.02241583 -0.001294252)
(-0.331201 -0.0288194 0.0002709642)
(-0.3414384 -0.03518791 -0.0003037405)
(-0.3592572 -0.04214737 3.986336e-06)
(-0.3803224 -0.04926229 -0.0001379748)
(-0.4089819 -0.05498171 -8.733788e-05)
(-0.4450036 -0.05819835 -0.0002297868)
(-0.4939758 -0.05331255 0.0008099013)
(-0.5548888 -0.03755001 0.001234317)
(-0.6257654 0.007155608 0.005493854)
(-0.6676466 0.1188263 0.009515099)
(-0.655516 0.1955461 0.009896761)
(-0.6236997 0.2590104 0.01321219)
(-0.5851823 0.3065144 0.01601958)
(-0.5455572 0.337881 0.01560082)
(-0.5052766 0.3566546 0.01723179)
(-0.2998866 -0.00779186 -0.02215868)
(-0.3242555 -0.004761881 -0.01014155)
(-0.3022134 -0.008054421 -0.004697642)
(-0.3221338 -0.01120885 0.001247926)
(-0.3210283 -0.01419265 -0.001241779)
(-0.3359655 -0.01746441 0.0004404949)
(-0.3464741 -0.02059539 -0.000238225)
(-0.3645841 -0.02335867 2.626559e-05)
(-0.3848404 -0.02538592 -0.0001835494)
(-0.4116113 -0.02461218 -0.0002868008)
(-0.4432488 -0.02007447 -0.0006638323)
(-0.4821536 -0.007287332 -0.001324054)
(-0.5231732 0.01781902 -0.002311953)
(-0.5713445 0.05415806 -0.003399464)
(-0.5955126 0.1280332 -0.00361913)
(-0.5911297 0.1879397 -0.006188906)
(-0.5760977 0.2391511 -0.007166585)
(-0.5501636 0.2803802 -0.007000487)
(-0.5217133 0.3093367 -0.007613221)
(-0.490654 0.3300742 -0.007165)
(-0.3014464 -0.006633794 -0.0221511)
(-0.325494 -0.001883475 -0.01085159)
(-0.3042711 -0.002570244 -0.004352039)
(-0.3238916 -0.00437139 0.001173769)
(-0.3227298 -0.005122934 -0.001238338)
(-0.3374143 -0.005765181 0.0004768903)
(-0.3472207 -0.005874764 -0.000207324)
(-0.364061 -0.004931571 7.355099e-05)
(-0.3819236 -0.002484303 -9.865199e-05)
(-0.4048571 0.002767597 -0.0001328054)
(-0.4301318 0.01207358 -0.0003609894)
(-0.4601251 0.02747908 -0.0005388748)
(-0.4885541 0.05267765 -0.0006111165)
(-0.5190626 0.08932499 0.0002101541)
(-0.5385879 0.1411531 0.001267162)
(-0.5382491 0.1879135 0.00121292)
(-0.5314934 0.2295787 0.001321138)
(-0.5155251 0.2644419 0.001848619)
(-0.4970298 0.2907799 0.001595979)
(-0.4747468 0.3099173 0.00168724)
(-0.3052548 -0.004775673 -0.0195403)
(-0.3261004 0.001763789 -0.01137749)
(-0.3038944 0.001994485 -0.004422055)
(-0.3235766 0.002259602 0.001208834)
(-0.3222654 0.00328992 -0.001119136)
(-0.3364944 0.004996168 0.0005156572)
(-0.3455087 0.007297378 -0.0001859223)
(-0.3610292 0.0109397 5.132309e-05)
(-0.3768222 0.01623274 -0.0001355165)
(-0.3965103 0.02429051 -0.0001918443)
(-0.4176913 0.0362757 -0.0003548041)
(-0.4411081 0.05344831 -0.0006373078)
(-0.4638101 0.07779684 -0.0007279254)
(-0.4855899 0.1055658 -0.0009315738)
(-0.49868 0.1442206 -0.000658965)
(-0.5013808 0.1807164 -0.0009062234)
(-0.4980688 0.2152476 -0.001231497)
(-0.4884735 0.2441936 -0.001200747)
(-0.4761243 0.2672008 -0.001435818)
(-0.4604975 0.2841985 -0.001452901)
(-0.3072077 -0.001079 -0.021289)
(-0.3235745 0.003986335 -0.01089867)
(-0.3021755 0.006658232 -0.00437466)
(-0.3213396 0.008544209 0.001191952)
(-0.3197846 0.01134399 -0.001063039)
(-0.3332261 0.01509557 0.0004993142)
(-0.3411202 0.01948323 -0.0001707223)
(-0.3549694 0.02545416 6.325629e-05)
(-0.3683992 0.03314477 -8.680295e-05)
(-0.3848745 0.0433595 -7.528756e-05)
(-0.4019082 0.05676763 -0.0001191302)
(-0.4200903 0.07421383 -0.0001355668)
(-0.4368855 0.09707275 -4.095322e-05)
(-0.4518751 0.125217 0.000101475)
(-0.4632927 0.1556058 0.0002704872)
(-0.4675647 0.1866683 0.0003200251)
(-0.4677099 0.2163648 0.0003063334)
(-0.4634054 0.2419497 0.0004476479)
(-0.4570498 0.2626422 0.0004686434)
(-0.4483069 0.2772036 0.0005986558)
(-0.300566 -0.002358287 -0.02237109)
(-0.3203129 0.007162568 -0.01231937)
(-0.2993789 0.01115481 -0.004022404)
(-0.3173759 0.01457473 0.0009344249)
(-0.3156733 0.01879973 -0.0008785193)
(-0.3281944 0.02414536 0.0005226978)
(-0.3351049 0.03012356 -0.0001150973)
(-0.3474357 0.03768793 0.0001020636)
(-0.3589168 0.04677625 -3.8089e-05)
(-0.3728116 0.05811062 -3.419385e-05)
(-0.3868517 0.07213503 -9.543689e-05)
(-0.4015473 0.08923779 -0.0001542895)
(-0.4152614 0.1098744 -0.0001928873)
(-0.4269199 0.133247 -0.0001692187)
(-0.4354234 0.1599586 -9.080276e-05)
(-0.4404809 0.1862839 -0.0001041507)
(-0.4426078 0.2119986 -0.0001587069)
(-0.4419888 0.2345569 -0.0001676978)
(-0.4406327 0.253086 -0.0002663355)
(-0.4378904 0.2658708 -0.0002809677)
(-0.2964584 -0.001354655 -0.02160781)
(-0.3167615 0.01031174 -0.01133392)
(-0.2946559 0.01495349 -0.004168113)
(-0.3125966 0.01957806 0.001007133)
(-0.3102594 0.02536365 -0.0008255783)
(-0.3217331 0.03214686 0.0005143655)
(-0.3275267 0.03947601 -6.197675e-05)
(-0.338313 0.0483501 0.0001372549)
(-0.3479249 0.05861685 -7.774946e-07)
(-0.3595056 0.07086447 1.672195e-05)
(-0.3708639 0.08533749 -7.048618e-06)
(-0.3825213 0.1023522 3.104416e-06)
(-0.3932461 0.1221272 2.054597e-05)
(-0.4027777 0.1442863 6.341648e-05)
(-0.4102702 0.1682044 7.51419e-05)
(-0.4155263 0.1925843 9.148515e-05)
(-0.4194105 0.2167724 7.964606e-05)
(-0.422264 0.2385806 0.0001130259)
(-0.4257037 0.2577271 0.000131007)
(-0.4299882 0.2698721 0.0003340716)
(-0.2937131 -0.003111463 -0.0182795)
(-0.310704 0.01189438 -0.01032839)
(-0.2882833 0.01852213 -0.004716739)
(-0.3054482 0.02488834 0.0009590364)
(-0.3032522 0.03120101 -0.0005361776)
(-0.3138785 0.03914455 0.000588641)
(-0.3188249 0.04749819 9.197108e-06)
(-0.3282955 0.057321 0.0001541092)
(-0.336398 0.0683019 1.89913e-05)
(-0.3461149 0.08096469 2.901944e-05)
(-0.3554222 0.09541927 2.214348e-06)
(-0.3648343 0.1118737 -3.671826e-08)
(-0.3734226 0.1304422 -2.119965e-06)
(-0.3809325 0.1508476 8.519469e-06)
(-0.3871572 0.1730295 -1.441792e-06)
(-0.3919114 0.195921 -1.956434e-05)
(-0.3966063 0.2191972 -8.208893e-05)
(-0.4008948 0.2412825 -0.0001696449)
(-0.4085652 0.2611814 -0.0003025733)
(-0.4180903 0.2750447 -1.789836e-06)
(-0.2866203 0.0005646425 -0.01693263)
(-0.3035199 0.0145499 -0.01135664)
(-0.2820901 0.02191 -0.0042308)
(-0.2982571 0.02911121 0.001060475)
(-0.2954691 0.03648821 -0.0005759607)
(-0.3051641 0.04531931 0.0005628694)
(-0.3092724 0.05445645 5.11437e-05)
(-0.317527 0.0650301 0.0001607727)
(-0.3243018 0.07654254 3.602776e-05)
(-0.3324196 0.08950285 4.436037e-05)
(-0.3399974 0.10393 2.203314e-05)
(-0.3475498 0.1200315 2.641759e-05)
(-0.3543322 0.1379047 2.580358e-05)
(-0.3602415 0.1574848 3.825698e-05)
(-0.3652428 0.1788309 2.645117e-05)
(-0.3693941 0.2015102 2.872427e-05)
(-0.374123 0.2258545 -3.09824e-05)
(-0.3801053 0.2503037 -4.12895e-05)
(-0.3910659 0.2763965 -0.0002276599)
(-0.4084689 0.2954356 0.0006289875)
(-0.2799705 0.002270701 -0.0163723)
(-0.2958369 0.01669123 -0.0106492)
(-0.274634 0.02481984 -0.003261932)
(-0.2894589 0.03290311 0.0008919565)
(-0.286795 0.04103781 -0.0004365763)
(-0.2954525 0.05067624 0.0005663607)
(-0.2990191 0.06043192 0.0001342368)
(-0.3062296 0.07156021 0.0001756053)
(-0.3119413 0.08338887 5.430773e-05)
(-0.3187474 0.09642745 4.93039e-05)
(-0.3249156 0.1106237 2.519291e-05)
(-0.3308823 0.126165 2.429569e-05)
(-0.335996 0.1431753 1.692582e-05)
(-0.3400277 0.1617471 1.889725e-05)
(-0.3431691 0.1821716 -2.019685e-05)
(-0.3449008 0.2046572 -6.765514e-05)
(-0.3477075 0.2298796 -0.0002671)
(-0.3498639 0.2579291 -0.0005242286)
(-0.3607403 0.2895723 -0.0001147901)
(-0.3750438 0.3252363 0.001958962)
(-0.2467611 0.005868485 -0.004396236)
(-0.2398167 -0.01743619 -0.01412281)
(-0.2239744 -0.01513281 0.004951692)
(-0.2206187 -0.007263664 -0.003787189)
(-0.212206 -0.003099334 0.002065961)
(-0.2053269 -0.004830989 0.0001931806)
(-0.1925138 -0.005897744 0.001675593)
(-0.1781353 -0.007749615 0.0008002257)
(-0.1593681 -0.009967054 0.0008748246)
(-0.1377349 -0.01163599 0.000617107)
(-0.1119127 -0.01379049 0.001365433)
(-0.08486286 -0.01334948 -0.0002188649)
(-0.06228349 -0.02528921 0.00169412)
(-0.02908281 -0.02147867 0.001773179)
(-0.2268373 -0.004942427 0.003156426)
(-0.2351764 0.0003134943 0.009736671)
(-0.2376274 -0.006086293 0.0005636192)
(-0.2335081 -0.01316572 0.003509972)
(-0.2235082 -0.01696175 0.0004349195)
(-0.2140063 -0.02224952 0.0006991965)
(-0.2008374 -0.02733404 -9.044366e-05)
(-0.1860566 -0.03333247 -0.000353087)
(-0.16726 -0.03946656 -0.0006204445)
(-0.1456655 -0.04627429 -0.000896803)
(-0.1193029 -0.05324553 -0.001645201)
(-0.0893513 -0.0612248 -0.001359162)
(-0.0518936 -0.0698274 -0.003506139)
(-0.01519592 -0.07583351 -0.002441192)
(-0.2396813 0.002460404 -0.01541227)
(-0.2433704 -0.01211854 -0.00360853)
(-0.2378304 -0.01616253 -0.0002691494)
(-0.2354464 -0.02092665 0.0009690922)
(-0.225962 -0.02516854 -0.000861148)
(-0.217949 -0.03142581 -0.0007695502)
(-0.2058063 -0.03866132 -0.0006835737)
(-0.1924225 -0.04754855 -0.001084527)
(-0.1742846 -0.05733121 -0.001271539)
(-0.1530952 -0.06805025 -0.001372075)
(-0.1263427 -0.07936201 -0.001218512)
(-0.09605223 -0.09060385 -0.0007183685)
(-0.05775536 -0.1018748 -0.001259703)
(-0.01858774 -0.1057896 0.001872207)
(-0.2394399 -0.002203987 -0.01288942)
(-0.2475196 -0.009756912 -2.107328e-05)
(-0.2449435 -0.01610252 -0.00355999)
(-0.2416537 -0.02442638 0.002459904)
(-0.2340534 -0.03309474 -0.0007055327)
(-0.228246 -0.04240651 0.0005121185)
(-0.2172253 -0.05285129 3.034524e-05)
(-0.2050568 -0.06543867 0.0002373771)
(-0.1881318 -0.07974442 -1.520648e-05)
(-0.1678061 -0.0955078 0.0001492342)
(-0.1409645 -0.1133071 -0.0003525953)
(-0.1089342 -0.1300082 0.0001148681)
(-0.06596793 -0.1476883 -0.002055588)
(-0.02093239 -0.1510515 -0.001423559)
(-0.2467895 -0.005449062 -0.01520684)
(-0.2555578 -0.01477043 -0.001736548)
(-0.2516297 -0.02141359 -0.004270502)
(-0.2495873 -0.03015132 0.00184671)
(-0.243124 -0.03902397 -0.0005488997)
(-0.2391341 -0.04991529 0.0005584782)
(-0.2295699 -0.06271932 -0.0006836455)
(-0.2201283 -0.07814405 -0.0003234261)
(-0.2050839 -0.09599955 -0.0005163316)
(-0.1871446 -0.1171313 -0.0001885828)
(-0.1602483 -0.1402499 -0.0007323912)
(-0.1282703 -0.1652801 0.0005496186)
(-0.07815908 -0.1888484 -0.002884845)
(-0.0239889 -0.1969293 0.0004752814)
(-0.2519284 -0.006435065 -0.01481316)
(-0.2628082 -0.01402481 -0.001326452)
(-0.2596905 -0.02251071 -0.005039355)
(-0.2590883 -0.03208493 0.002236998)
(-0.2539185 -0.043222 -0.001269562)
(-0.2522958 -0.05621636 7.67947e-05)
(-0.2458127 -0.07155502 -0.0003281438)
(-0.2387864 -0.09035805 8.090387e-06)
(-0.227529 -0.1131688 -0.0002080275)
(-0.2121812 -0.1405984 -2.631608e-05)
(-0.1888887 -0.1741621 -0.0007336016)
(-0.1564419 -0.2095465 8.717184e-05)
(-0.09854696 -0.2529143 -0.005302174)
(-0.03635457 -0.2585991 -0.001104592)
(-0.2603069 -0.006259846 -0.01641297)
(-0.2707787 -0.01546087 -0.00181122)
(-0.2689252 -0.02383671 -0.004930032)
(-0.269442 -0.03432215 0.002043611)
(-0.2661293 -0.04546659 -0.001166367)
(-0.267896 -0.05915745 0.0003456316)
(-0.2638784 -0.07588407 -0.0004948076)
(-0.2620084 -0.09668866 -5.932131e-05)
(-0.2557571 -0.1220301 -0.0004047811)
(-0.2482179 -0.1557061 8.955525e-05)
(-0.2298181 -0.195492 -0.0008507909)
(-0.205526 -0.2514983 0.001441648)
(-0.1345841 -0.3079577 -0.00642995)
(-0.04435171 -0.3425245 0.002117533)
(-0.2663015 -0.006419484 -0.01591879)
(-0.2793706 -0.01496002 -0.001906849)
(-0.2776937 -0.0235096 -0.005661709)
(-0.2799647 -0.03372696 0.002245224)
(-0.2787084 -0.04504732 -0.001412444)
(-0.2822033 -0.05966528 5.995722e-05)
(-0.2829759 -0.07698547 -0.0003942277)
(-0.2849911 -0.09918127 -5.515493e-05)
(-0.2863533 -0.1279768 -0.0002042632)
(-0.2849162 -0.1674975 -0.0001368323)
(-0.2832976 -0.2217125 -0.0004230464)
(-0.2676212 -0.3029439 -0.0006792482)
(-0.2350321 -0.4282215 -0.004812013)
(-0.06924421 -0.4027333 -0.01841274)
(-0.2742738 -0.006051557 -0.0174003)
(-0.2870748 -0.01430162 -0.002479645)
(-0.2868987 -0.02224653 -0.005446333)
(-0.2914087 -0.03180792 0.001879087)
(-0.2917691 -0.04259976 -0.001026974)
(-0.2990335 -0.05592818 0.0004683012)
(-0.3032357 -0.07226634 -0.000396428)
(-0.3129284 -0.0932938 6.996634e-05)
(-0.3238726 -0.1201944 -0.0002971553)
(-0.3420715 -0.158368 0.0001969651)
(-0.3662336 -0.2085294 -0.0004137713)
(-0.4116854 -0.2949789 0.0009751212)
(-0.4618769 -0.430595 -0.007209964)
(-0.3321295 -0.8316674 -0.07461999)
(-0.2800265 -0.005356278 -0.01730893)
(-0.2945183 -0.01254063 -0.002490429)
(-0.294662 -0.0196047 -0.005723276)
(-0.3000149 -0.02806672 0.002088064)
(-0.3024815 -0.03756723 -0.001285015)
(-0.3114269 -0.04919462 0.0004170339)
(-0.3196142 -0.06274666 -0.0002851776)
(-0.3327323 -0.0796393 5.703731e-05)
(-0.3512204 -0.1007988 4.545378e-05)
(-0.3746359 -0.1276582 9.793435e-06)
(-0.419452 -0.1610161 0.0006746892)
(-0.4723052 -0.2073294 -0.0004965245)
(-0.5942991 -0.244874 -0.001477596)
(-0.7149738 -0.3165217 -0.005759123)
(-1.042616 -0.01933781 0.02346703)
(-0.8231996 0.3719065 0.04934388)
(-0.7246369 0.4618636 0.0475088)
(-0.6419233 0.4935381 0.05692583)
(-0.580355 0.5043305 0.0571091)
(-0.5239437 0.5129399 0.04989793)
(-0.2855977 -0.004779589 -0.01780328)
(-0.300598 -0.01040166 -0.002476996)
(-0.3016908 -0.01617503 -0.005543951)
(-0.3083294 -0.02304996 0.00195874)
(-0.3119934 -0.03070771 -0.001090872)
(-0.3230343 -0.03976565 0.0005473874)
(-0.3335141 -0.04993871 -0.0002412686)
(-0.3507563 -0.06171956 5.834543e-05)
(-0.3724106 -0.07643632 -0.0002132856)
(-0.4037532 -0.09006857 -0.0002993081)
(-0.4479443 -0.1064793 -0.0007875201)
(-0.5119632 -0.1160992 -0.002424778)
(-0.6080359 -0.1059341 -0.007748575)
(-0.7374726 -0.06035363 -0.0112898)
(-0.8222247 0.07272951 -0.01713539)
(-0.7709195 0.2151231 -0.03386368)
(-0.6977304 0.2955892 -0.03434491)
(-0.6266143 0.3398718 -0.03298274)
(-0.5720456 0.3706118 -0.03372035)
(-0.5275059 0.3894681 -0.03468906)
(-0.2895894 -0.003972938 -0.01782262)
(-0.3052394 -0.008166763 -0.002270766)
(-0.3068338 -0.01217738 -0.0057591)
(-0.3136494 -0.01733301 0.00201791)
(-0.318556 -0.02255118 -0.001166262)
(-0.3303956 -0.02864107 0.000546294)
(-0.3415999 -0.03506487 -0.000168009)
(-0.3590496 -0.04203752 0.000204656)
(-0.3801619 -0.04910005 0.0001051927)
(-0.409025 -0.05471151 0.0002369103)
(-0.4446743 -0.057464 3.064132e-05)
(-0.495571 -0.04917978 0.0001899314)
(-0.5520321 -0.03150996 -0.0005277756)
(-0.6211291 0.01776857 0.001741333)
(-0.6627808 0.1311051 0.003909962)
(-0.659242 0.2239252 0.004858577)
(-0.6250751 0.2942251 0.005185389)
(-0.5850594 0.3404266 0.007421603)
(-0.5480073 0.3740877 0.009355711)
(-0.508151 0.3925279 0.006614136)
(-0.2926629 -0.002121147 -0.01850475)
(-0.308455 -0.005198161 -0.002460289)
(-0.3103101 -0.007670687 -0.005488666)
(-0.3178404 -0.01086981 0.002031654)
(-0.3230348 -0.01391086 -0.00106408)
(-0.3353619 -0.01727766 0.0006127646)
(-0.3467877 -0.02049613 -0.0001688846)
(-0.3645497 -0.02332516 0.0001557665)
(-0.3849612 -0.02534245 -8.873151e-05)
(-0.411978 -0.02441245 -0.0001079053)
(-0.4441619 -0.01925656 -0.0003917711)
(-0.4840414 -0.004787891 -0.0007772704)
(-0.5266668 0.02037795 -0.001544711)
(-0.576322 0.05216827 -0.002909224)
(-0.6016319 0.1210815 -0.002493555)
(-0.5964548 0.1836681 -0.005632446)
(-0.577334 0.235135 -0.005936856)
(-0.5501548 0.2744417 -0.006709709)
(-0.5214135 0.3048507 -0.006258035)
(-0.4906798 0.3256598 -0.007351992)
(-0.2940872 -0.0005399435 -0.01883788)
(-0.3104381 -0.002068286 -0.002508748)
(-0.3121745 -0.003041374 -0.005582275)
(-0.3196813 -0.00414757 0.002005055)
(-0.3248139 -0.005071178 -0.001082356)
(-0.3368404 -0.005700615 0.000623264)
(-0.3475639 -0.005849506 -0.0001435063)
(-0.364045 -0.004906205 0.0001950724)
(-0.3820331 -0.002440068 -2.331991e-05)
(-0.4051356 0.002925473 1.155053e-05)
(-0.4305006 0.01253603 -0.0001659096)
(-0.4607225 0.02935011 -0.0001190043)
(-0.4884912 0.05479998 3.331084e-06)
(-0.5187389 0.09236209 0.0008157053)
(-0.5386565 0.1432131 0.002523336)
(-0.5392103 0.1920744 0.001910567)
(-0.5319964 0.2364048 0.002255387)
(-0.5162069 0.2715612 0.003081447)
(-0.49811 0.2992345 0.003240566)
(-0.4757849 0.3184256 0.002917292)
(-0.2940567 0.001070544 -0.01908805)
(-0.3109327 0.0007464064 -0.002698775)
(-0.3122907 0.001620454 -0.005614735)
(-0.3197838 0.002303936 0.00208117)
(-0.3245656 0.003338149 -0.001019596)
(-0.3360824 0.005016959 0.0006365387)
(-0.345995 0.007280397 -0.0001499551)
(-0.3611464 0.01094769 0.0001528965)
(-0.3770965 0.01625405 -8.832547e-05)
(-0.396867 0.02434873 -8.894592e-05)
(-0.4183613 0.03634614 -0.0002232343)
(-0.4417987 0.05393064 -0.0003867325)
(-0.4651283 0.07778515 -0.0003793778)
(-0.4868979 0.1041264 -0.0005302239)
(-0.500109 0.1428122 -0.0002050684)
(-0.5030222 0.1798565 -0.0007010746)
(-0.498992 0.2147338 -0.0008911543)
(-0.4889409 0.2432763 -0.001134032)
(-0.4763914 0.2664098 -0.001219476)
(-0.4605921 0.2831566 -0.001608678)
(-0.2928454 0.002212952 -0.0189648)
(-0.309805 0.00370091 -0.003282017)
(-0.3106512 0.005925137 -0.005486789)
(-0.3179894 0.008606213 0.002145507)
(-0.322183 0.01129688 -0.00100977)
(-0.332924 0.01507745 0.0006460018)
(-0.3416871 0.01941452 -0.0001280628)
(-0.3551213 0.02538689 0.0001787202)
(-0.3686746 0.03300034 -2.567426e-05)
(-0.3851474 0.04327419 3.172519e-05)
(-0.4022741 0.05673913 7.414161e-06)
(-0.4204557 0.07444154 5.210561e-05)
(-0.4370415 0.09777107 0.0002164763)
(-0.4520511 0.1260057 0.0003679178)
(-0.4638822 0.1559529 0.0006714459)
(-0.4681601 0.1874431 0.0006717033)
(-0.4682147 0.2176278 0.0006861622)
(-0.4638974 0.2433856 0.000841411)
(-0.4576027 0.2645184 0.0009415918)
(-0.4488707 0.2792703 0.0009618925)
(-0.2900849 0.003056259 -0.01889988)
(-0.3070548 0.006229322 -0.003356475)
(-0.307679 0.01000793 -0.005614646)
(-0.3145728 0.01426036 0.002258912)
(-0.3182733 0.0185424 -0.0008923246)
(-0.3280649 0.02398978 0.0006730281)
(-0.3357777 0.02995961 -7.873289e-05)
(-0.3476511 0.0375541 0.0002058724)
(-0.3592709 0.04662426 2.86691e-06)
(-0.3731777 0.05799282 3.754561e-05)
(-0.3873347 0.07198818 -2.621728e-05)
(-0.4021254 0.08905939 -6.399813e-05)
(-0.4159105 0.1096154 -8.073822e-05)
(-0.4275585 0.1328098 -5.551908e-05)
(-0.4360859 0.1597242 4.351949e-05)
(-0.4411923 0.1861756 -1.895776e-05)
(-0.44318 0.2120691 -6.441055e-05)
(-0.4424752 0.2346446 -0.0001429004)
(-0.4410221 0.2532787 -0.0002323569)
(-0.4382811 0.266015 -0.0004038115)
(-0.2864333 0.003814703 -0.01866114)
(-0.3029149 0.008459695 -0.003555924)
(-0.3031096 0.01393441 -0.005614789)
(-0.3097131 0.01940383 0.002218821)
(-0.3127047 0.02512012 -0.0009355262)
(-0.3216604 0.03197083 0.000666378)
(-0.3282383 0.03932377 -5.110116e-05)
(-0.3385721 0.04824408 0.0002244507)
(-0.3483057 0.05848471 3.221295e-05)
(-0.3598486 0.07077258 9.113936e-05)
(-0.3712453 0.08525314 6.132649e-05)
(-0.3829232 0.1023188 9.546737e-05)
(-0.3936623 0.1221389 0.0001313438)
(-0.4032244 0.1443083 0.0001860124)
(-0.4107352 0.168288 0.0002172528)
(-0.4159731 0.1927486 0.0002285721)
(-0.419789 0.2170265 0.0002173693)
(-0.4225851 0.2388527 0.0002318774)
(-0.4259274 0.2580218 0.0002215984)
(-0.4302914 0.2702802 0.0002997483)
(-0.2807739 0.004760878 -0.0186347)
(-0.2971915 0.01095791 -0.003740859)
(-0.297356 0.01720529 -0.005461809)
(-0.3037255 0.02410186 0.002383583)
(-0.305998 0.03095536 -0.0008098595)
(-0.3140496 0.0389614 0.0006834221)
(-0.3196278 0.04736908 -2.060724e-05)
(-0.3286176 0.05722267 0.0002238328)
(-0.3368121 0.06818728 3.351387e-05)
(-0.346481 0.08087392 8.35197e-05)
(-0.3558252 0.09532568 4.248229e-05)
(-0.3652579 0.1117882 5.459572e-05)
(-0.3738668 0.1303669 5.806517e-05)
(-0.3813955 0.1507645 7.379519e-05)
(-0.3876186 0.1730084 6.911123e-05)
(-0.3923701 0.1959482 5.234692e-05)
(-0.3970295 0.2192479 -8.842232e-06)
(-0.4014199 0.2413645 -7.813204e-05)
(-0.4090543 0.2614202 -0.0002339569)
(-0.4194795 0.2757429 -0.0004798759)
(-0.2743971 0.005905171 -0.0183079)
(-0.2908213 0.01327538 -0.003454191)
(-0.2906828 0.02019693 -0.005479892)
(-0.2964128 0.02830531 0.002235864)
(-0.2981632 0.03614893 -0.0009235497)
(-0.3054503 0.04510143 0.0006463056)
(-0.3100881 0.05436875 -2.968851e-05)
(-0.3178809 0.06494841 0.0002090898)
(-0.3247193 0.07646072 3.16219e-05)
(-0.3327803 0.08944644 8.718433e-05)
(-0.3403764 0.1038866 5.464321e-05)
(-0.3479359 0.1200144 7.707577e-05)
(-0.3547244 0.1379105 8.23283e-05)
(-0.3606469 0.1575013 0.0001032658)
(-0.3656338 0.178871 9.401653e-05)
(-0.3697796 0.201505 0.0001038072)
(-0.3744258 0.2258468 1.812569e-05)
(-0.3804082 0.2499467 2.997833e-05)
(-0.3913527 0.2762732 -0.0003147345)
(-0.4094121 0.2963443 -0.0004703922)
(-0.2675593 0.006745497 -0.01798968)
(-0.2835446 0.01527413 -0.003341594)
(-0.2831044 0.02322583 -0.005613085)
(-0.288288 0.03204368 0.00218242)
(-0.2895292 0.04071795 -0.0009105168)
(-0.2960578 0.05042854 0.000645525)
(-0.2998831 0.06038057 -1.084452e-05)
(-0.3066444 0.07148801 0.0002001287)
(-0.3123713 0.08333191 3.09983e-05)
(-0.3191174 0.0963908 8.014359e-05)
(-0.3252927 0.1106038 4.619505e-05)
(-0.3312661 0.1261677 6.45784e-05)
(-0.3363822 0.1432002 6.087308e-05)
(-0.3404405 0.1617899 7.38658e-05)
(-0.3435846 0.182206 3.276131e-05)
(-0.3454332 0.2046824 5.601047e-06)
(-0.34842 0.2296883 -0.0001523071)
(-0.3513375 0.2578157 -0.0002763948)
(-0.3635385 0.289046 -0.001217839)
(-0.3773273 0.3249963 -0.001041466)
(-0.2494278 0.008871617 -4.288164e-05)
(-0.2383355 -0.04166826 -0.002616358)
(-0.2219447 -0.01194966 0.002817892)
(-0.22663 -0.0029533 -0.002528247)
(-0.2125592 -0.003805784 9.396907e-05)
(-0.2070664 -0.005618655 -0.001100588)
(-0.1921183 -0.007653882 -0.002234933)
(-0.1782454 -0.009380942 -0.002737588)
(-0.1590916 -0.01173044 -0.003004568)
(-0.1369821 -0.01358763 -0.003787504)
(-0.1126056 -0.01631225 -0.002443176)
(-0.08234346 -0.01589117 -0.003007131)
(-0.05616936 -0.01630414 -0.000418355)
(-0.0283869 -0.01970074 -0.0004958566)
(-0.2196246 -0.01075324 0.01265221)
(-0.2393574 -0.001535162 0.005400059)
(-0.2390789 -0.00615663 0.001070837)
(-0.2320362 -0.01046879 0.000768101)
(-0.222226 -0.0145596 0.0008507039)
(-0.2121693 -0.01763683 0.0009871578)
(-0.198854 -0.02176002 0.001163282)
(-0.1841739 -0.02656171 0.001138041)
(-0.1653798 -0.03211748 0.001021205)
(-0.1441426 -0.03768738 0.0009366687)
(-0.1181392 -0.04526082 0.0003481523)
(-0.09024178 -0.05282891 0.0006609237)
(-0.05245631 -0.06627051 -0.001970075)
(-0.01353214 -0.0755145 -0.001890677)
(-0.2414123 -0.00485485 0.001936428)
(-0.2526605 -0.01383697 -0.001897892)
(-0.2405117 -0.01724383 -0.002521454)
(-0.2361232 -0.01955156 -0.001696264)
(-0.2253436 -0.02398443 -0.0007556009)
(-0.2196721 -0.03073249 -0.0005718921)
(-0.2057374 -0.03800293 -0.00078072)
(-0.1919349 -0.04638594 -0.001083634)
(-0.1733961 -0.05593187 -0.001091517)
(-0.1515614 -0.0664162 -0.001246435)
(-0.1250684 -0.07735438 -0.0006400639)
(-0.09343894 -0.08950634 -0.0006800651)
(-0.05614392 -0.09928913 0.0003032151)
(-0.01842518 -0.1063817 9.883386e-05)
(-0.2395889 -0.002272627 0.00439098)
(-0.2498277 -0.007444844 0.001091234)
(-0.2478448 -0.01646667 -0.003237969)
(-0.2438461 -0.02509338 0.0003181324)
(-0.2359707 -0.0316161 -0.0001445816)
(-0.2280821 -0.04035123 0.0002370911)
(-0.2170035 -0.05122605 -0.0002248074)
(-0.2041529 -0.06324974 -7.807337e-05)
(-0.1871291 -0.07731854 -0.0003624767)
(-0.1664437 -0.09266947 -0.0002320593)
(-0.1396634 -0.1108243 -0.000518037)
(-0.1071326 -0.127586 -0.0002636904)
(-0.0652397 -0.1463909 -0.0009592407)
(-0.02137948 -0.1524082 -0.001082214)
(-0.2507956 -0.004131382 0.004955478)