/*--------------------------------*- C++ -*----------------------------------*\
  =========                 |
  \\      /  F ield         | OpenFOAM: The Open Source CFD Toolbox
   \\    /   O peration     | Website:  https://openfoam.org
    \\  /    A nd           | Version:  7
     \\/     M anipulation  |
\*---------------------------------------------------------------------------*/
FoamFile
{
    version     2.0;
    format      ascii;
    class       volScalarField;
    location    "0.1";
    object      Ux;
}
// * * * * * * * * * * * * * * * * * * * * * * * * * * * * * * * * * * * * * //

dimensions      [0 1 -1 0 0 0 0];

internalField   nonuniform List<scalar> 
53911
(
-0.2474473
-0.2457116
-0.2381753
-0.235995
-0.2293298
-0.2229545
-0.2100723
-0.1960052
-0.1765649
-0.1537094
-0.1271837
-0.09717143
-0.06496853
-0.03225164
-0.2382994
-0.2484557
-0.2276496
-0.2310302
-0.2180673
-0.2117853
-0.1984701
-0.1845784
-0.1659986
-0.1444117
-0.118761
-0.08829625
-0.05555895
-0.02412491
-0.2426602
-0.256528
-0.2296935
-0.2377938
-0.2247288
-0.2188516
-0.2059791
-0.1929455
-0.1750512
-0.153663
-0.1278408
-0.09628454
-0.06492769
-0.02321761
-0.247453
-0.2648034
-0.2423739
-0.2457837
-0.2365972
-0.2292511
-0.2177659
-0.2054906
-0.1886619
-0.1679547
-0.1419251
-0.1087786
-0.07128237
-0.02382574
-0.2524743
-0.2687814
-0.2431027
-0.2550651
-0.2410188
-0.2424413
-0.2302093
-0.2207148
-0.2055799
-0.187032
-0.161532
-0.1274968
-0.08648977
-0.02776755
-0.2591047
-0.2794173
-0.256864
-0.2637628
-0.2569255
-0.2534453
-0.246311
-0.2389442
-0.2277393
-0.2116665
-0.1894015
-0.1533609
-0.1092533
-0.03866609
-0.2665574
-0.2847308
-0.2617226
-0.2754765
-0.2674747
-0.2688364
-0.2638718
-0.2618107
-0.2555333
-0.2467643
-0.2300173
-0.2004983
-0.1452101
-0.04314751
-0.2729974
-0.2964045
-0.2742821
-0.2849566
-0.2813557
-0.2833784
-0.2832521
-0.2849293
-0.2861718
-0.2842362
-0.2827974
-0.2646557
-0.2371868
-0.1048685
-0.2801835
-0.3019171
-0.2793924
-0.2957338
-0.289774
-0.300285
-0.3028198
-0.3129236
-0.3231242
-0.338774
-0.3623646
-0.3978627
-0.4640215
-0.2991958
-0.2861006
-0.3108639
-0.2895667
-0.3046804
-0.3036081
-0.3124088
-0.3199067
-0.3328109
-0.3509813
-0.3740427
-0.4167307
-0.4708789
-0.5944374
-0.7017584
-1.118095
-0.8932642
-0.7598607
-0.6666725
-0.593882
-0.5329604
-0.2913699
-0.3158646
-0.29392
-0.3126455
-0.3100776
-0.3237086
-0.3331824
-0.3507147
-0.3720951
-0.4029989
-0.4451484
-0.5043702
-0.5961705
-0.7134208
-0.771606
-0.7299781
-0.6756932
-0.6179481
-0.5661174
-0.5161589
-0.2971502
-0.3220039
-0.2998912
-0.3184287
-0.317177
-0.331201
-0.3414384
-0.3592572
-0.3803224
-0.4089819
-0.4450036
-0.4939758
-0.5548888
-0.6257654
-0.6676466
-0.655516
-0.6236997
-0.5851823
-0.5455572
-0.5052766
-0.2998866
-0.3242555
-0.3022134
-0.3221338
-0.3210283
-0.3359655
-0.3464741
-0.3645841
-0.3848404
-0.4116113
-0.4432488
-0.4821536
-0.5231732
-0.5713445
-0.5955126
-0.5911297
-0.5760977
-0.5501636
-0.5217133
-0.490654
-0.3014464
-0.325494
-0.3042711
-0.3238916
-0.3227298
-0.3374143
-0.3472207
-0.364061
-0.3819236
-0.4048571
-0.4301318
-0.4601251
-0.4885541
-0.5190626
-0.5385879
-0.5382491
-0.5314934
-0.5155251
-0.4970298
-0.4747468
-0.3052548
-0.3261004
-0.3038944
-0.3235766
-0.3222654
-0.3364944
-0.3455087
-0.3610292
-0.3768222
-0.3965103
-0.4176913
-0.4411081
-0.4638101
-0.4855899
-0.49868
-0.5013808
-0.4980688
-0.4884735
-0.4761243
-0.4604975
-0.3072077
-0.3235745
-0.3021755
-0.3213396
-0.3197846
-0.3332261
-0.3411202
-0.3549694
-0.3683992
-0.3848745
-0.4019082
-0.4200903
-0.4368855
-0.4518751
-0.4632927
-0.4675647
-0.4677099
-0.4634054
-0.4570498
-0.4483069
-0.300566
-0.3203129
-0.2993789
-0.3173759
-0.3156733
-0.3281944
-0.3351049
-0.3474357
-0.3589168
-0.3728116
-0.3868517
-0.4015473
-0.4152614
-0.4269199
-0.4354234
-0.4404809
-0.4426078
-0.4419888
-0.4406327
-0.4378904
-0.2964584
-0.3167615
-0.2946559
-0.3125966
-0.3102594
-0.3217331
-0.3275267
-0.338313
-0.3479249
-0.3595056
-0.3708639
-0.3825213
-0.3932461
-0.4027777
-0.4102702
-0.4155263
-0.4194105
-0.422264
-0.4257037
-0.4299882
-0.2937131
-0.310704
-0.2882833
-0.3054482
-0.3032522
-0.3138785
-0.3188249
-0.3282955
-0.336398
-0.3461149
-0.3554222
-0.3648343
-0.3734226
-0.3809325
-0.3871572
-0.3919114
-0.3966063
-0.4008948
-0.4085652
-0.4180903
-0.2866203
-0.3035199
-0.2820901
-0.2982571
-0.2954691
-0.3051641
-0.3092724
-0.317527
-0.3243018
-0.3324196
-0.3399974
-0.3475498
-0.3543322
-0.3602415
-0.3652428
-0.3693941
-0.374123
-0.3801053
-0.3910659
-0.4084689
-0.2799705
-0.2958369
-0.274634
-0.2894589
-0.286795
-0.2954525
-0.2990191
-0.3062296
-0.3119413
-0.3187474
-0.3249156
-0.3308823
-0.335996
-0.3400277
-0.3431691
-0.3449008
-0.3477075
-0.3498639
-0.3607403
-0.3750438
-0.2467611
-0.2398167
-0.2239744
-0.2206187
-0.212206
-0.2053269
-0.1925138
-0.1781353
-0.1593681
-0.1377349
-0.1119127
-0.08486286
-0.06228349
-0.02908281
-0.2268373
-0.2351764
-0.2376274
-0.2335081
-0.2235082
-0.2140063
-0.2008374
-0.1860566
-0.16726
-0.1456655
-0.1193029
-0.0893513
-0.0518936
-0.01519592
-0.2396813
-0.2433704
-0.2378304
-0.2354464
-0.225962
-0.217949
-0.2058063
-0.1924225
-0.1742846
-0.1530952
-0.1263427
-0.09605223
-0.05775536
-0.01858774
-0.2394399
-0.2475196
-0.2449435
-0.2416537
-0.2340534
-0.228246
-0.2172253
-0.2050568
-0.1881318
-0.1678061
-0.1409645
-0.1089342
-0.06596793
-0.02093239
-0.2467895
-0.2555578
-0.2516297
-0.2495873
-0.243124
-0.2391341
-0.2295699
-0.2201283
-0.2050839
-0.1871446
-0.1602483
-0.1282703
-0.07815908
-0.0239889
-0.2519284
-0.2628082
-0.2596905
-0.2590883
-0.2539185
-0.2522958
-0.2458127
-0.2387864
-0.227529
-0.2121812
-0.1888887
-0.1564419
-0.09854696
-0.03635457
-0.2603069
-0.2707787
-0.2689252
-0.269442
-0.2661293
-0.267896
-0.2638784
-0.2620084
-0.2557571
-0.2482179
-0.2298181
-0.205526
-0.1345841
-0.04435171
-0.2663015
-0.2793706
-0.2776937
-0.2799647
-0.2787084
-0.2822033
-0.2829759
-0.2849911
-0.2863533
-0.2849162
-0.2832976
-0.2676212
-0.2350321
-0.06924421
-0.2742738
-0.2870748
-0.2868987
-0.2914087
-0.2917691
-0.2990335
-0.3032357
-0.3129284
-0.3238726
-0.3420715
-0.3662336
-0.4116854
-0.4618769
-0.3321295
-0.2800265
-0.2945183
-0.294662
-0.3000149
-0.3024815
-0.3114269
-0.3196142
-0.3327323
-0.3512204
-0.3746359
-0.419452
-0.4723052
-0.5942991
-0.7149738
-1.042616
-0.8231996
-0.7246369
-0.6419233
-0.580355
-0.5239437
-0.2855977
-0.300598
-0.3016908
-0.3083294
-0.3119934
-0.3230343
-0.3335141
-0.3507563
-0.3724106
-0.4037532
-0.4479443
-0.5119632
-0.6080359
-0.7374726
-0.8222247
-0.7709195
-0.6977304
-0.6266143
-0.5720456
-0.5275059
-0.2895894
-0.3052394
-0.3068338
-0.3136494
-0.318556
-0.3303956
-0.3415999
-0.3590496
-0.3801619
-0.409025
-0.4446743
-0.495571
-0.5520321
-0.6211291
-0.6627808
-0.659242
-0.6250751
-0.5850594
-0.5480073
-0.508151
-0.2926629
-0.308455
-0.3103101
-0.3178404
-0.3230348
-0.3353619
-0.3467877
-0.3645497
-0.3849612
-0.411978
-0.4441619
-0.4840414
-0.5266668
-0.576322
-0.6016319
-0.5964548
-0.577334
-0.5501548
-0.5214135
-0.4906798
-0.2940872
-0.3104381
-0.3121745
-0.3196813
-0.3248139
-0.3368404
-0.3475639
-0.364045
-0.3820331
-0.4051356
-0.4305006
-0.4607225
-0.4884912
-0.5187389
-0.5386565
-0.5392103
-0.5319964
-0.5162069
-0.49811
-0.4757849
-0.2940567
-0.3109327
-0.3122907
-0.3197838
-0.3245656
-0.3360824
-0.345995
-0.3611464
-0.3770965
-0.396867
-0.4183613
-0.4417987
-0.4651283
-0.4868979
-0.500109
-0.5030222
-0.498992
-0.4889409
-0.4763914
-0.4605921
-0.2928454
-0.309805
-0.3106512
-0.3179894
-0.322183
-0.332924
-0.3416871
-0.3551213
-0.3686746
-0.3851474
-0.4022741
-0.4204557
-0.4370415
-0.4520511
-0.4638822
-0.4681601
-0.4682147
-0.4638974
-0.4576027
-0.4488707
-0.2900849
-0.3070548
-0.307679
-0.3145728
-0.3182733
-0.3280649
-0.3357777
-0.3476511
-0.3592709
-0.3731777
-0.3873347
-0.4021254
-0.4159105
-0.4275585
-0.4360859
-0.4411923
-0.44318
-0.4424752
-0.4410221
-0.4382811
-0.2864333
-0.3029149
-0.3031096
-0.3097131
-0.3127047
-0.3216604
-0.3282383
-0.3385721
-0.3483057
-0.3598486
-0.3712453
-0.3829232
-0.3936623
-0.4032244
-0.4107352
-0.4159731
-0.419789
-0.4225851
-0.4259274
-0.4302914
-0.2807739
-0.2971915
-0.297356
-0.3037255
-0.305998
-0.3140496
-0.3196278
-0.3286176
-0.3368121
-0.346481
-0.3558252
-0.3652579
-0.3738668
-0.3813955
-0.3876186
-0.3923701
-0.3970295
-0.4014199
-0.4090543
-0.4194795
-0.2743971
-0.2908213
-0.2906828
-0.2964128
-0.2981632
-0.3054503
-0.3100881
-0.3178809
-0.3247193
-0.3327803
-0.3403764
-0.3479359
-0.3547244
-0.3606469
-0.3656338
-0.3697796
-0.3744258
-0.3804082
-0.3913527
-0.4094121
-0.2675593
-0.2835446
-0.2831044
-0.288288
-0.2895292
-0.2960578
-0.2998831
-0.3066444
-0.3123713
-0.3191174
-0.3252927
-0.3312661
-0.3363822
-0.3404405
-0.3435846
-0.3454332
-0.34842
-0.3513375
-0.3635385
-0.3773273
-0.2494278
-0.2383355
-0.2219447
-0.22663
-0.2125592
-0.2070664
-0.1921183
-0.1782454
-0.1590916
-0.1369821
-0.1126056
-0.08234346
-0.05616936
-0.0283869
-0.2196246
-0.2393574
-0.2390789
-0.2320362
-0.222226
-0.2121693
-0.198854
-0.1841739
-0.1653798
-0.1441426
-0.1181392
-0.09024178
-0.05245631
-0.01353214
-0.2414123
-0.2526605
-0.2405117
-0.2361232
-0.2253436
-0.2196721
-0.2057374
-0.1919349
-0.1733961
-0.1515614
-0.1250684
-0.09343894
-0.05614392
-0.01842518
-0.2395889
-0.2498277
-0.2478448
-0.2438461
-0.2359707
-0.2280821
-0.2170035
-0.2041529
-0.1871291
-0.1664437
-0.1396634
-0.1071326
-0.0652397
-0.02137948
-0.2507956
-0.2578073
-0.2500413
-0.2537616
-0.2449728
-0.2401048
-0.2295109
-0.219598
-0.2042724
-0.1857163
-0.1588199
-0.1258126
-0.07675275
-0.02442055
-0.255354
-0.2673703
-0.2635966
-0.2610059
-0.2570173
-0.2526623
-0.2461686
-0.2382784
-0.2269556
-0.2109662
-0.1876142
-0.1537686
-0.09766077
-0.03991816
-0.2626903
-0.2728911
-0.2677759
-0.2737489
-0.2697213
-0.2679974
-0.2642905
-0.2614675
-0.2550518
-0.2467544
-0.2276239
-0.2021762
-0.1297903
-0.04786229
-0.2688238
-0.2829615
-0.2809763
-0.2820026
-0.2814941
-0.2825713
-0.2833961
-0.2846105
-0.2859801
-0.2838994
-0.2818671
-0.2647278
-0.2332435
-0.0872215
-0.2755154
-0.2885141
-0.2860841
-0.2932454
-0.2919844
-0.2990672
-0.3031161
-0.3121463
-0.322768
-0.3391574
-0.3616743
-0.401651
-0.4499428
-0.3866312
-0.4773317
-0.3906991
-0.3633353
-0.2813007
-0.297038
-0.2962166
-0.3014973
-0.3040194
-0.311362
-0.3196647
-0.3321013
-0.3509705
-0.3727494
-0.4190106
-0.4685519
-0.5959543
-0.7223955
-1.044743
-0.8248776
-0.7191506
-0.6416615
-0.5733422
-0.5244633
-0.2866378
-0.3019226
-0.3002836
-0.3093808
-0.3116477
-0.3227263
-0.3332198
-0.3502106
-0.3719057
-0.4029804
-0.4465886
-0.5081829
-0.6070335
-0.7377001
-0.8196356
-0.7670831
-0.7003082
-0.6277133
-0.5720159
-0.5294551
-0.2906722
-0.307032
-0.3057397
-0.3150295
-0.3182207
-0.3301624
-0.3412913
-0.3584747
-0.3796586
-0.4082791
-0.4435757
-0.4939584
-0.5520363
-0.622012
-0.6639506
-0.6594177
-0.6230478
-0.5815895
-0.5464136
-0.5097011
-0.2936866
-0.3095979
-0.3080479
-0.3189344
-0.3223774
-0.3350636
-0.3464034
-0.3640471
-0.3845387
-0.4114189
-0.4434806
-0.4830749
-0.5259535
-0.5756236
-0.6040378
-0.5964154
-0.5774356
-0.5494947
-0.5214918
-0.4910475
-0.2951585
-0.3112728
-0.3098941
-0.3207326
-0.3240889
-0.3365604
-0.3471827
-0.3635924
-0.3816713
-0.4047037
-0.4300507
-0.4601946
-0.4881159
-0.5180904
-0.5382981
-0.5395446
-0.5311705
-0.5151889
-0.4978921
-0.4757076
-0.294975
-0.3114143
-0.309566
-0.3206831
-0.323749
-0.3358074
-0.3456323
-0.3607537
-0.3768102
-0.3965401
-0.4180975
-0.4414697
-0.4648996
-0.4866407
-0.5001094
-0.5030094
-0.4989765
-0.488879
-0.4765322
-0.4607018
-0.2932271
-0.3099411
-0.3080279
-0.3187523
-0.3213968
-0.3326653
-0.3413566
-0.3547754
-0.3684369
-0.3848843
-0.4020743
-0.4202144
-0.4368408
-0.4518641
-0.4636918
-0.4680351
-0.4680209
-0.4636944
-0.4575794
-0.4489258
-0.2903112
-0.3070547
-0.3048609
-0.3153049
-0.3174033
-0.3278353
-0.3354706
-0.347356
-0.3590882
-0.3729837
-0.3872143
-0.4020045
-0.4158166
-0.4274547
-0.4360331
-0.4411472
-0.4431497
-0.4424411
-0.4410812
-0.4383266
-0.2859354
-0.302812
-0.3004135
-0.3103383
-0.3119661
-0.3214502
-0.3279814
-0.3383137
-0.3481581
-0.3596838
-0.3711392
-0.382812
-0.393571
-0.4031276
-0.4106487
-0.4158972
-0.4197177
-0.4225148
-0.4259421
-0.4303621
-0.2804151
-0.2972831
-0.2946498
-0.304047
-0.3052454
-0.3138223
-0.3194037
-0.3283851
-0.3366966
-0.3463492
-0.3557541
-0.3651862
-0.3738126
-0.3813414
-0.387564
-0.3923124
-0.3969354
-0.4013016
-0.4089792
-0.4186995
-0.2741103
-0.2902776
-0.2880456
-0.296539
-0.2975333
-0.3051859
-0.309905
-0.3176518
-0.324621
-0.3326592
-0.3403136
-0.3478724
-0.3546768
-0.3606023
-0.3655867
-0.3697552
-0.3743854
-0.3804416
-0.3914362
-0.4087801
-0.2669427
-0.2828838
-0.280616
-0.2879263
-0.2889019
-0.2956667
-0.2997118
-0.3063974
-0.3122827
-0.3190055
-0.325243
-0.3312172
-0.3363489
-0.3404136
-0.3435462
-0.3454003
-0.3483345
-0.3511793
-0.3627919
-0.3792019
-0.2517185
-0.2412371
-0.221524
-0.2267674
-0.2163764
-0.207581
-0.1944015
-0.1792815
-0.1609206
-0.1371052
-0.1142372
-0.08384119
-0.05924242
-0.02981571
-0.2174765
-0.2355541
-0.2403059
-0.2323871
-0.2223612
-0.212051
-0.1987069
-0.1839572
-0.1650951
-0.1443272
-0.1181973
-0.09000208
-0.05192127
-0.01225763
-0.2439173
-0.2423469
-0.2367409
-0.2356211
-0.225493
-0.2175922
-0.2043162
-0.1906386
-0.1722365
-0.1506244
-0.1241454
-0.09320328
-0.0556049
-0.01741705
-0.2430747
-0.2423743
-0.244182
-0.2416759
-0.2348752
-0.2271315
-0.2160704
-0.2032758
-0.1861374
-0.1658143
-0.1387718
-0.1068101
-0.06475088
-0.02019015
-0.254812
-0.2500909
-0.2510492
-0.2485977
-0.2430636
-0.2377724
-0.2288254
-0.218566
-0.2033775
-0.18511
-0.1578064
-0.1253788
-0.07593956
-0.02291262
-0.2597962
-0.2568061
-0.259785
-0.2589383
-0.2552142
-0.2516115
-0.2453844
-0.237714
-0.2263291
-0.2107179
-0.1869178
-0.1539081
-0.0964621
-0.0382241
-0.2675098
-0.2655843
-0.2684818
-0.2687736
-0.2671466
-0.266422
-0.2637732
-0.2610455
-0.2547347
-0.246766
-0.2271161
-0.2016408
-0.128584
-0.04486174
-0.2745268
-0.2727493
-0.2775337
-0.2796092
-0.2798985
-0.2816833
-0.2828768
-0.2843015
-0.285733
-0.283773
-0.2815673
-0.2628113
-0.2304191
-0.07392275
-0.281294
-0.281036
-0.286226
-0.289709
-0.2923076
-0.2974707
-0.3030944
-0.3119801
-0.3228163
-0.3396801
-0.3611962
-0.398318
-0.4406486
-0.2222992
-0.5041955
-0.4336637
-0.4029317
-0.2879357
-0.2875332
-0.2940322
-0.2988426
-0.3031434
-0.3104194
-0.3194307
-0.3317524
-0.3505135
-0.3728231
-0.418285
-0.4681519
-0.5939993
-0.7199622
-1.039229
-0.8138188
-0.7163777
-0.6408932
-0.5649798
-0.5241118
-0.2931905
-0.2938151
-0.3007827
-0.3066375
-0.3124045
-0.3218273
-0.3332804
-0.3498118
-0.3719323
-0.4029934
-0.4472513
-0.5099096
-0.6081139
-0.7385874
-0.8277512
-0.7701873
-0.6978357
-0.6234221
-0.564091
-0.5264656
-0.2978137
-0.2983698
-0.3058977
-0.3123456
-0.3188853
-0.32908
-0.3412433
-0.3579855
-0.3793997
-0.4078938
-0.4429974
-0.4936796
-0.5489401
-0.6174152
-0.6575348
-0.6564744
-0.6182924
-0.5752526
-0.5411387
-0.506045
-0.3008099
-0.3018674
-0.3094641
-0.3163417
-0.3233092
-0.3340446
-0.3465438
-0.3636898
-0.3845756
-0.4114978
-0.4437838
-0.4837117
-0.526837
-0.5766194
-0.6013967
-0.5948719
-0.5738293
-0.5454846
-0.5191097
-0.4886266
-0.3025777
-0.3035954
-0.3113042
-0.3182246
-0.3250886
-0.3355535
-0.3473515
-0.3632243
-0.3816399
-0.4046252
-0.4298755
-0.4600541
-0.4869978
-0.5172115
-0.5368812
-0.5369105
-0.5293714
-0.5124516
-0.4964345
-0.4745074
-0.3028772
-0.3038585
-0.3114946
-0.3182922
-0.3248932
-0.3348906
-0.3458922
-0.3604537
-0.3768655
-0.39652
-0.418241
-0.4416297
-0.4650406
-0.4866081
-0.4996599
-0.5025486
-0.4980988
-0.4877593
-0.475883
-0.4600323
-0.3014634
-0.3024784
-0.3100436
-0.3165017
-0.3226165
-0.3318279
-0.3416608
-0.354506
-0.3684644
-0.3847973
-0.4019555
-0.4198553
-0.4365757
-0.4513323
-0.4632641
-0.4675295
-0.4673756
-0.4628775
-0.4569759
-0.4482592
-0.2985819
-0.2996596
-0.3071652
-0.3131624
-0.3187521
-0.3271138
-0.3358494
-0.347167
-0.3591933
-0.3729697
-0.3873682
-0.4019954
-0.4157082
-0.4273255
-0.4358395
-0.4409647
-0.442887
-0.4421116
-0.4408506
-0.4380702
-0.2946536
-0.2954277
-0.3027138
-0.3083394
-0.3133296
-0.3208213
-0.3283967
-0.3381773
-0.348268
-0.3596565
-0.3711542
-0.382771
-0.3934981
-0.4030212
-0.4104886
-0.4156995
-0.4194368
-0.4220865
-0.4254757
-0.4295936
-0.2893929
-0.2901609
-0.2970837
-0.302352
-0.3067149
-0.313346
-0.3198757
-0.3283235
-0.336847
-0.3463658
-0.3558175
-0.3652012
-0.3738158
-0.3813439
-0.3875571
-0.3923158
-0.3969454
-0.4012496
-0.4087982
-0.4183463
-0.2831505
-0.2838148
-0.2905294
-0.2952646
-0.2990179
-0.3048341
-0.3103973
-0.3176442
-0.3247835
-0.3326914
-0.3403715
-0.3478922
-0.3546875
-0.3606057
-0.3655704
-0.3697181
-0.3742821
-0.3800874
-0.3911385
-0.4083953
-0.2765309
-0.2767796
-0.2829485
-0.287272
-0.2904417
-0.2955088
-0.3002369
-0.3064607
-0.3124659
-0.3190663
-0.32532
-0.3312678
-0.3364091
-0.3404987
-0.3436842
-0.3456133
-0.3487344
-0.3517463
-0.3633922
-0.3776049
-0.2540751
-0.2414194
-0.22203
-0.2279188
-0.2167433
-0.2088085
-0.1947746
-0.1800866
-0.1609306
-0.138182
-0.1138669
-0.08406239
-0.05860005
-0.02967302
-0.2155112
-0.2374944
-0.2393884
-0.2322225
-0.2223306
-0.2118365
-0.1986134
-0.1837238
-0.164867
-0.1438245
-0.1177917
-0.09015447
-0.05178858
-0.01251235
-0.2474813
-0.2475365
-0.2403558
-0.2342378
-0.2252417
-0.2174914
-0.2042362
-0.1903165
-0.1718163
-0.1498689
-0.123495
-0.09226459
-0.05503808
-0.01750667
-0.2446697
-0.2437403
-0.2453989
-0.2418012
-0.2346737
-0.2267777
-0.215669
-0.2025907
-0.1854381
-0.165001
-0.1381131
-0.1064769
-0.06481409
-0.02031839
-0.2565284
-0.2546889
-0.2501356
-0.2516858
-0.2444277
-0.2384265
-0.2286407
-0.2180312
-0.2027337
-0.1842327
-0.1571797
-0.1249114
-0.07604519
-0.0232726
-0.2648169
-0.2600858
-0.2611627
-0.2582977
-0.2552222
-0.2515317
-0.2452027
-0.2372027
-0.2258466
-0.2101514
-0.186614
-0.1544175
-0.09784539
-0.03869659
-0.2709006
-0.2696083
-0.267231
-0.2713029
-0.2678465
-0.266865
-0.2636931
-0.2607196
-0.25444
-0.2465636
-0.2272957
-0.20324
-0.13319
-0.04587779
-0.2796735
-0.2784168
-0.2799407
-0.2790201
-0.2799223
-0.2815338
-0.282736
-0.2839447
-0.2855099
-0.283754
-0.2813738
-0.2671163
-0.2283733
-0.06405069
-0.2862758
-0.2845707
-0.285361
-0.2910033
-0.2922557
-0.2977018
-0.3028133
-0.3115796
-0.3225403
-0.3395532
-0.3616114
-0.4024144
-0.4446959
-0.3130742
-0.4506039
-0.4290321
-0.3891035
-0.2927281
-0.2930808
-0.295813
-0.2981586
-0.3028692
-0.3099097
-0.3189915
-0.3311012
-0.3500439
-0.3719451
-0.4179787
-0.4663421
-0.5938613
-0.7198224
-1.032617
-0.8089314
-0.7036858
-0.6349793
-0.5754348
-0.5132918
-0.2985224
-0.2975889
-0.2995959
-0.3058967
-0.3116796
-0.3211773
-0.3327451
-0.349225
-0.3715427
-0.4028235
-0.4471375
-0.5090098
-0.6072117
-0.7349018
-0.8267663
-0.771671
-0.7001518
-0.6231994
-0.5673944
-0.5229476
-0.3024103
-0.3029385
-0.3054213
-0.311414
-0.3181562
-0.3283414
-0.3406093
-0.3572343
-0.3787794
-0.4070626
-0.4421611
-0.491455
-0.5476204
-0.6160033
-0.6569398
-0.6567335
-0.6181883
-0.5773703
-0.5433311
-0.5062139
-0.3055625
-0.3052343
-0.3078676
-0.3152009
-0.3223959
-0.3332584
-0.345901
-0.3630257
-0.3840697
-0.4109777
-0.4431346
-0.4831492
-0.5262411
-0.5757595
-0.6016251
-0.5953079
-0.5747592
-0.5465113
-0.5197676
-0.4888097
-0.306609
-0.3066941
-0.3097014
-0.3170448
-0.3241532
-0.3347665
-0.3467162
-0.3625924
-0.3811605
-0.404142
-0.4292788
-0.459667
-0.4865049
-0.5166878
-0.5366275
-0.5368019
-0.5293877
-0.5127624
-0.4965087
-0.474929
-0.3066301
-0.3067484
-0.3100574
-0.3170675
-0.3239583
-0.3341296
-0.345302
-0.3598815
-0.3764706
-0.3961306
-0.4178919
-0.4413521
-0.4648762
-0.4863748
-0.4997411
-0.5026387
-0.4982815
-0.4879848
-0.4760719
-0.4603062
-0.3053204
-0.3053949
-0.3087334
-0.3152965
-0.3217117
-0.3311125
-0.3411211
-0.3539958
-0.3681315
-0.3844761
-0.4016916
-0.4196462
-0.4363803
-0.4511573
-0.4631339
-0.467454
-0.4673352
-0.462891
-0.4570944
-0.4484395
-0.302564
-0.3026236
-0.3059259
-0.3120006
-0.3178641
-0.3264583
-0.3353683
-0.346726
-0.3589338
-0.3727227
-0.3872131
-0.4018576
-0.4156186
-0.4272376
-0.4358133
-0.4409614
-0.4429179
-0.4421583
-0.440955
-0.4381483
-0.2984357
-0.2985488
-0.3013806
-0.3072679
-0.3124754
-0.3202249
-0.3279712
-0.3377915
-0.3480542
-0.3594505
-0.3710227
-0.3826506
-0.3934039
-0.4029308
-0.4104151
-0.4156466
-0.4193957
-0.4220802
-0.4255461
-0.4297089
-0.2931312
-0.2932269
-0.2958203
-0.3013392
-0.3058817
-0.312797
-0.3194967
-0.327986
-0.3366766
-0.3462035
-0.3557304
-0.3651224
-0.3737615
-0.3813005
-0.3875138
-0.3923002
-0.3969083
-0.4012586
-0.4089832
-0.4174523
-0.2865563
-0.2867961
-0.2891374
-0.2942995
-0.2982109
-0.3043126
-0.3100478
-0.3173322
-0.3246342
-0.3325469
-0.3402952
-0.3478231
-0.3546353
-0.3605622
-0.3655143
-0.3697063
-0.374214
-0.3802643
-0.3910487
-0.4077294
-0.278981
-0.2794378
-0.281343
-0.2862192
-0.2896275
-0.2949839
-0.2998991
-0.3061607
-0.3123305
-0.3189379
-0.32526
-0.3312167
-0.3363738
-0.3404825
-0.3436458
-0.3456761
-0.3486597
-0.3523513
-0.3637234
-0.3823421
-0.2544647
-0.2419494
-0.2227802
-0.2257148
-0.2139726
-0.2092989
-0.1954355
-0.1803148
-0.1617204
-0.138149
-0.1151971
-0.08326251
-0.05952216
-0.02945678
-0.214451
-0.2368189
-0.2403826
-0.2325771
-0.2227879
-0.2117917
-0.1985597
-0.1837707
-0.1649138
-0.1442053
-0.1179375
-0.09013246
-0.052113
-0.01170314
-0.2478066
-0.2450138
-0.2371917
-0.2361933
-0.2253451
-0.2177171
-0.203961
-0.1900589
-0.1715414
-0.1495665
-0.1232578
-0.0924531
-0.05522738
-0.01749807
-0.2410129
-0.2435967
-0.2437914
-0.24105
-0.2345707
-0.2263572
-0.2153461
-0.2022757
-0.185092
-0.1648027
-0.1378983
-0.106622
-0.0649716
-0.01997335
-0.2572092
-0.2523885
-0.2503958
-0.2497344
-0.2432512
-0.2374161
-0.2280958
-0.2175276
-0.2023291
-0.1840525
-0.1571541
-0.1253564
-0.07650433
-0.02312978
-0.2610071
-0.2591617
-0.2589904
-0.2574076
-0.2546065
-0.2510557
-0.2448278
-0.2369263
-0.2255895
-0.2102501
-0.1867507
-0.1560567
-0.09856734
-0.03814087
-0.2705
-0.2678914
-0.2678585
-0.2674548
-0.2664486
-0.2659624
-0.263416
-0.2606039
-0.2546068
-0.2472505
-0.2288465
-0.2059211
-0.1394313
-0.04641768
-0.2769443
-0.2755175
-0.2767567
-0.2778586
-0.279154
-0.2810374
-0.2824646
-0.283861
-0.2856102
-0.2844038
-0.2819323
-0.2718921
-0.2259482
-0.09980176
-0.2847962
-0.2834943
-0.2854483
-0.2878556
-0.2913868
-0.2966548
-0.3026797
-0.3117388
-0.3234708
-0.3420713
-0.3676117
-0.4152355
-0.4818522
-0.4955402
-0.5175466
-0.4436744
-0.4099419
-0.2912159
-0.2902736
-0.2930745
-0.2967702
-0.302009
-0.3093241
-0.3186697
-0.330867
-0.3498944
-0.3721679
-0.4175371
-0.4675329
-0.5921504
-0.7272319
-1.042063
-0.821631
-0.7181956
-0.6430849
-0.5666032
-0.5248418
-0.2970944
-0.2964437
-0.2998163
-0.3044627
-0.3110663
-0.3205352
-0.3324361
-0.3488666
-0.371592
-0.4030257
-0.4478965
-0.5100585
-0.6063625
-0.7303167
-0.8288881
-0.7742947
-0.6994667
-0.6261184
-0.5590069
-0.5265916
-0.3016229
-0.3010895
-0.3048473
-0.3100555
-0.3174137
-0.3276305
-0.3401983
-0.3567248
-0.3784706
-0.4064868
-0.4418625
-0.489148
-0.5450094
-0.6129212
-0.6551936
-0.6573148
-0.6173269
-0.5740017
-0.5394051
-0.5059771
-0.3048508
-0.3044925
-0.308456
-0.3139662
-0.3217857
-0.332572
-0.3455559
-0.3626043
-0.3838752
-0.4108304
-0.4429803
-0.4830353
-0.5260205
-0.5752937
-0.5982771
-0.5934996
-0.5714592
-0.5437285
-0.5188135
-0.4881271
-0.3066535
-0.3062141
-0.3102442
-0.315799
-0.3235505
-0.3340901
-0.3463898
-0.3621755
-0.3809044
-0.4039366
-0.4287517
-0.4596695
-0.4860023
-0.5163684
-0.5357709
-0.5345411
-0.5281493
-0.5102216
-0.4950114
-0.4740476
-0.3069361
-0.3064605
-0.3104539
-0.3158721
-0.3233959
-0.3334998
-0.3450306
-0.3595101
-0.3762885
-0.3959596
-0.4178101
-0.4412873
-0.464539
-0.4861352
-0.4993008
-0.5019246
-0.4971515
-0.4867838
-0.4754092
-0.4596609
-0.3057427
-0.3051613
-0.3090298
-0.314144
-0.32119
-0.3305324
-0.3408977
-0.3536713
-0.3679756
-0.384332
-0.4015395
-0.4194133
-0.4361241
-0.4507145
-0.4628141
-0.4669339
-0.4667031
-0.4620237
-0.4564121
-0.4477049
-0.3031459
-0.3024691
-0.3061362
-0.3108935
-0.3174048
-0.325941
-0.3352069
-0.3464629
-0.3588401
-0.3726343
-0.3872342
-0.4017754
-0.4154992
-0.4270802
-0.4355552
-0.4406924
-0.4425713
-0.4417924
-0.4408111
-0.4381239
-0.2992838
-0.2984984
-0.3018486
-0.306208
-0.312112
-0.3197745
-0.3278668
-0.3375804
-0.3479879
-0.3593778
-0.3709869
-0.3825962
-0.3933177
-0.4028191
-0.4102303
-0.415391
-0.4190368
-0.4215818
-0.4249616
-0.4288026
-0.2942642
-0.2933702
-0.2963739
-0.3003227
-0.3056081
-0.3124181
-0.319448
-0.3278287
-0.3366507
-0.3461675
-0.3557344
-0.3651088
-0.3737393
-0.3812669
-0.387452
-0.3922237
-0.396849
-0.4010288
-0.4091009
-0.4172171
-0.2881718
-0.2872019
-0.2898012
-0.2933736
-0.2980106
-0.3040024
-0.3100381
-0.3172159
-0.3246295
-0.3325283
-0.3403029
-0.3478176
-0.3546183
-0.3605246
-0.3654297
-0.3695587
-0.3739335
-0.3796271
-0.3899737
-0.4068631
-0.2810021
-0.2800528
-0.2822699
-0.2854757
-0.2895059
-0.2947499
-0.2999238
-0.3060841
-0.3123474
-0.3189412
-0.3252868
-0.3312391
-0.3363997
-0.3405095
-0.3436787
-0.3456852
-0.3486344
-0.3520269
-0.3626112
-0.3799696
-0.2549062
-0.2428017
-0.2195419
-0.2281074
-0.2158175
-0.2082198
-0.1948846
-0.1798948
-0.1610466
-0.138
-0.1138098
-0.08405028
-0.05926467
-0.02938273
-0.2145206
-0.2370557
-0.2394317
-0.2324345
-0.2228642
-0.2117747
-0.1987377
-0.1837712
-0.1649318
-0.1440364
-0.1179951
-0.0902721
-0.05217414
-0.01203129
-0.2478481
-0.2487838
-0.2401101
-0.2351486
-0.2251916
-0.217317
-0.2038908
-0.190004
-0.1714743
-0.1494709
-0.1232026
-0.09224639
-0.05481268
-0.01743235
-0.2403968
-0.2437744
-0.244335
-0.2414991
-0.2346649
-0.2263091
-0.2153156
-0.2021053
-0.1849332
-0.1645882
-0.1378542
-0.106655
-0.06503805
-0.01992079
-0.2578867
-0.2556043
-0.2524852
-0.24969
-0.2434343
-0.2373439
-0.2279736
-0.2172911
-0.2020917
-0.1838367
-0.1571014
-0.1253288
-0.07651907
-0.0232418
-0.2624093
-0.2598651
-0.2592956
-0.2576484
-0.2546697
-0.2508971
-0.2447205
-0.2366829
-0.2253984
-0.2101715
-0.1868155
-0.1567451
-0.09876407
-0.03782914
-0.2710543
-0.2708916
-0.2688501
-0.2684911
-0.2665608
-0.2658705
-0.2634093
-0.2604825
-0.2545569
-0.2473069
-0.2293398
-0.2066544
-0.1408576
-0.04586663
-0.2785424
-0.2768968
-0.2772711
-0.2780829
-0.2790726
-0.2807623
-0.2824096
-0.2837483
-0.2855658
-0.2845205
-0.2822215
-0.2735849
-0.2272215
-0.09959547
-0.2851013
-0.2856861
-0.285799
-0.2887631
-0.2911515
-0.2964088
-0.3025684
-0.3116198
-0.3234785
-0.3422101
-0.3684823
-0.4169527
-0.4848537
-0.5062045
-0.4498663
-0.4337511
-0.3909714
-0.2921221
-0.2928763
-0.2942446
-0.2970275
-0.3017593
-0.3088705
-0.3184479
-0.3305989
-0.3496453
-0.3717887
-0.4171295
-0.4668118
-0.5896602
-0.7279921
-1.043836
-0.8113986
-0.702357
-0.6316029
-0.5777583
-0.5137161
-0.2979862
-0.2979656
-0.2999228
-0.3046565
-0.3106807
-0.3199817
-0.332157
-0.3486074
-0.3714187
-0.4028805
-0.4477383
-0.5094132
-0.6050844
-0.7275919
-0.8290655
-0.7760095
-0.7005272
-0.6243902
-0.5668595
-0.521644
-0.3020815
-0.3031249
-0.3053489
-0.3101668
-0.3170036
-0.3269893
-0.339833
-0.3563368
-0.3781325
-0.4059867
-0.4413159
-0.4880956
-0.5437635
-0.6113701
-0.6545387
-0.6571611
-0.6173218
-0.5765179
-0.543313
-0.5026927
-0.3056214
-0.3054699
-0.3085626
-0.313912
-0.3213031
-0.331883
-0.3451788
-0.3622467
-0.3836486
-0.4105673
-0.442681
-0.4827168
-0.525834
-0.5749955
-0.5983509
-0.5941349
-0.5733406
-0.5457121
-0.5194367
-0.4878769
-0.3063277
-0.3071224
-0.3102607
-0.3157292
-0.3230418
-0.3333866
-0.3459999
-0.3618091
-0.380644
-0.403677
-0.4282961
-0.4594483
-0.4856646
-0.516054
-0.535653
-0.5342685
-0.5287076
-0.5119509
-0.4962689
-0.4745743
-0.3066829
-0.3074062
-0.3105061
-0.3157883
-0.322883
-0.3328055
-0.3446603
-0.3591612
-0.3760678
-0.3957283
-0.4176506
-0.4410366
-0.4643553
-0.4860485
-0.4995483
-0.5021331
-0.4975749
-0.4874965
-0.4758061
-0.4599976
-0.3053961
-0.3060993
-0.3090608
-0.3140568
-0.3206818
-0.3298665
-0.3405542
-0.3533583
-0.3677881
-0.3841407
-0.4014148
-0.4192778
-0.4359407
-0.4506185
-0.4628085
-0.4669965
-0.4668738
-0.4623843
-0.4567248
-0.4480474
-0.3027806
-0.3034152
-0.3061485
-0.3108097
-0.3169066
-0.3253101
-0.3348971
-0.3461864
-0.3586888
-0.3724858
-0.3871466
-0.4017008
-0.4154376
-0.4270421
-0.4355877
-0.4407752
-0.4427259
-0.442038
-0.4410174
-0.4383651
-0.2987848
-0.2993812
-0.3018026
-0.3061401
-0.3116281
-0.3191832
-0.3275903
-0.3373375
-0.3478624
-0.3592518
-0.3709073
-0.3825212
-0.3932519
-0.4027685
-0.4102119
-0.4154084
-0.4190912
-0.421707
-0.4250806
-0.4290033
-0.2936126
-0.2941772
-0.2962851
-0.3002671
-0.3051386
-0.3118678
-0.319201
-0.3276152
-0.3365491
-0.3460664
-0.3556769
-0.3650581
-0.3737032
-0.3812462
-0.387447
-0.3922697
-0.3969036
-0.4012387
-0.4093746
-0.417598
-0.2874191
-0.287929
-0.2897185
-0.293315
-0.2975628
-0.3034808
-0.3098129
-0.3170193
-0.3245407
-0.332437
-0.3402488
-0.3477661
-0.3545736
-0.3604878
-0.3653844
-0.3695491
-0.3738695
-0.379737
-0.3898515
-0.406711
-0.2803715
-0.2806454
-0.2821812
-0.2854006
-0.2890594
-0.2942422
-0.2997106
-0.3058991
-0.3122672
-0.3188596
-0.325241
-0.3311975
-0.3363658
-0.3404889
-0.3436408
-0.3457085
-0.3485652
-0.3522805
-0.3632138
-0.3819138
-0.2548437
-0.2417669
-0.2221112
-0.2259639
-0.2123327
-0.2102222
-0.1958775
-0.1805833
-0.1618845
-0.1386775
-0.1150838
-0.08357776
-0.05949541
-0.02926124
-0.2146377
-0.2373162
-0.2398174
-0.2321552
-0.2232192
-0.2117103
-0.1987721
-0.1838196
-0.1650346
-0.1442911
-0.1180924
-0.09024102
-0.05252113
-0.01181906
-0.2483392
-0.2479256
-0.2402849
-0.2343333
-0.2244149
-0.2177229
-0.2039655
-0.1900615
-0.1715257
-0.1495016
-0.1232495
-0.09253775
-0.05510533
-0.01755326
-0.2404883
-0.2439842
-0.2445753
-0.2415068
-0.2347507
-0.2262258
-0.2152992
-0.2021565
-0.1849873
-0.164719
-0.1379674
-0.1068103
-0.06518486
-0.01983667
-0.2582206
-0.2537558
-0.2510448
-0.2502919
-0.2434865
-0.2373455
-0.2278878
-0.2173206
-0.2021445
-0.1840131
-0.1573013
-0.1255802
-0.07666458
-0.02319303
-0.2608052
-0.2597167
-0.2593203
-0.2574965
-0.2546141
-0.2508354
-0.2446678
-0.2367306
-0.2255
-0.2104607
-0.1870855
-0.1573394
-0.09885588
-0.03754106
-0.2703712
-0.2687165
-0.2680834
-0.2675566
-0.266359
-0.2656567
-0.2634
-0.2606072
-0.2547777
-0.2477032
-0.2299877
-0.2069545
-0.141116
-0.04525534
-0.2767414
-0.2761948
-0.2769305
-0.2778407