/*--------------------------------*- C++ -*----------------------------------*\
  =========                 |
  \\      /  F ield         | OpenFOAM: The Open Source CFD Toolbox
   \\    /   O peration     | Website:  https://openfoam.org
    \\  /    A nd           | Version:  7
     \\/     M anipulation  |
\*---------------------------------------------------------------------------*/
FoamFile
{
    version     2.0;
    format      ascii;
    class       volScalarField;
    location    "0.1";
    object      Uy;
}
// * * * * * * * * * * * * * * * * * * * * * * * * * * * * * * * * * * * * * //

dimensions      [0 1 -1 0 0 0 0];

internalField   nonuniform List<scalar> 
53911
(
-0.01403854
-0.01814852
-0.01238415
-0.01776505
-0.02043514
-0.02337077
-0.02462671
-0.02635483
-0.03070747
-0.02859097
-0.03027153
-0.03178028
-0.02761607
-0.02794575
0.009805312
-0.01388769
-0.003735263
-0.0184102
-0.01714661
-0.02459586
-0.02896751
-0.0362813
-0.04346992
-0.05096108
-0.05841871
-0.06669728
-0.07131789
-0.06430105
-0.005908829
-0.01302371
-0.01165745
-0.01974689
-0.02452099
-0.03157211
-0.03970957
-0.04899424
-0.0591337
-0.0704473
-0.08172664
-0.09277833
-0.1007188
-0.1016259
-0.006461915
-0.01244797
-0.01769062
-0.02622655
-0.03337501
-0.04315331
-0.05308593
-0.06620356
-0.08057358
-0.09658809
-0.1139129
-0.1302088
-0.1438417
-0.1482363
-0.008753837
-0.01565973
-0.02124837
-0.03006606
-0.03882118
-0.05043963
-0.06304506
-0.07846416
-0.09627888
-0.1173485
-0.1398415
-0.1650113
-0.1834774
-0.1972808
-0.01180886
-0.01523949
-0.0233985
-0.03327258
-0.04313655
-0.05599706
-0.07207392
-0.09065462
-0.1132263
-0.1405796
-0.1727799
-0.2083088
-0.2426217
-0.2521527
-0.01035221
-0.01634558
-0.02463845
-0.03425293
-0.04553768
-0.05961489
-0.0761138
-0.09678946
-0.1221281
-0.1552261
-0.1948514
-0.2469924
-0.2959674
-0.3193972
-0.009490865
-0.01538859
-0.02386358
-0.03359049
-0.04519679
-0.06052984
-0.07729217
-0.09932698
-0.1276975
-0.1663162
-0.2189273
-0.2994958
-0.4163221
-0.4174339
-0.0109081
-0.01464348
-0.02327919
-0.03213641
-0.04338232
-0.05616976
-0.07265634
-0.09320663
-0.1202552
-0.1572571
-0.2083348
-0.2935708
-0.4324907
-0.8096275
-0.01049021
-0.01298676
-0.01970553
-0.02857092
-0.03688453
-0.0496473
-0.06300799
-0.08003288
-0.1013899
-0.1276555
-0.1590881
-0.2053189
-0.2429167
-0.3013976
0.04532102
0.3644817
0.4481206
0.4816811
0.4901225
0.4945124
-0.009761417
-0.01061289
-0.01689825
-0.02360179
-0.03138589
-0.04028692
-0.05028647
-0.06202059
-0.07656667
-0.09040364
-0.1072075
-0.1191555
-0.114388
-0.04974539
0.1103746
0.246232
0.3273925
0.383069
0.4151281
0.4287114
-0.01082716
-0.007693772
-0.01192842
-0.01772854
-0.02241583
-0.0288194
-0.03518791
-0.04214737
-0.04926229
-0.05498171
-0.05819835
-0.05331255
-0.03755001
0.007155608
0.1188263
0.1955461
0.2590104
0.3065144
0.337881
0.3566546
-0.00779186
-0.004761881
-0.008054421
-0.01120885
-0.01419265
-0.01746441
-0.02059539
-0.02335867
-0.02538592
-0.02461218
-0.02007447
-0.007287332
0.01781902
0.05415806
0.1280332
0.1879397
0.2391511
0.2803802
0.3093367
0.3300742
-0.006633794
-0.001883475
-0.002570244
-0.00437139
-0.005122934
-0.005765181
-0.005874764
-0.004931571
-0.002484303
0.002767597
0.01207358
0.02747908
0.05267765
0.08932499
0.1411531
0.1879135
0.2295787
0.2644419
0.2907799
0.3099173
-0.004775673
0.001763789
0.001994485
0.002259602
0.00328992
0.004996168
0.007297378
0.0109397
0.01623274
0.02429051
0.0362757
0.05344831
0.07779684
0.1055658
0.1442206
0.1807164
0.2152476
0.2441936
0.2672008
0.2841985
-0.001079
0.003986335
0.006658232
0.008544209
0.01134399
0.01509557
0.01948323
0.02545416
0.03314477
0.0433595
0.05676763
0.07421383
0.09707275
0.125217
0.1556058
0.1866683
0.2163648
0.2419497
0.2626422
0.2772036
-0.002358287
0.007162568
0.01115481
0.01457473
0.01879973
0.02414536
0.03012356
0.03768793
0.04677625
0.05811062
0.07213503
0.08923779
0.1098744
0.133247
0.1599586
0.1862839
0.2119986
0.2345569
0.253086
0.2658708
-0.001354655
0.01031174
0.01495349
0.01957806
0.02536365
0.03214686
0.03947601
0.0483501
0.05861685
0.07086447
0.08533749
0.1023522
0.1221272
0.1442863
0.1682044
0.1925843
0.2167724
0.2385806
0.2577271
0.2698721
-0.003111463
0.01189438
0.01852213
0.02488834
0.03120101
0.03914455
0.04749819
0.057321
0.0683019
0.08096469
0.09541927
0.1118737
0.1304422
0.1508476
0.1730295
0.195921
0.2191972
0.2412825
0.2611814
0.2750447
0.0005646425
0.0145499
0.02191
0.02911121
0.03648821
0.04531931
0.05445645
0.0650301
0.07654254
0.08950285
0.10393
0.1200315
0.1379047
0.1574848
0.1788309
0.2015102
0.2258545
0.2503037
0.2763965
0.2954356
0.002270701
0.01669123
0.02481984
0.03290311
0.04103781
0.05067624
0.06043192
0.07156021
0.08338887
0.09642745
0.1106237
0.126165
0.1431753
0.1617471
0.1821716
0.2046572
0.2298796
0.2579291
0.2895723
0.3252363
0.005868485
-0.01743619
-0.01513281
-0.007263664
-0.003099334
-0.004830989
-0.005897744
-0.007749615
-0.009967054
-0.01163599
-0.01379049
-0.01334948
-0.02528921
-0.02147867
-0.004942427
0.0003134943
-0.006086293
-0.01316572
-0.01696175
-0.02224952
-0.02733404
-0.03333247
-0.03946656
-0.04627429
-0.05324553
-0.0612248
-0.0698274
-0.07583351
0.002460404
-0.01211854
-0.01616253
-0.02092665
-0.02516854
-0.03142581
-0.03866132
-0.04754855
-0.05733121
-0.06805025
-0.07936201
-0.09060385
-0.1018748
-0.1057896
-0.002203987
-0.009756912
-0.01610252
-0.02442638
-0.03309474
-0.04240651
-0.05285129
-0.06543867
-0.07974442
-0.0955078
-0.1133071
-0.1300082
-0.1476883
-0.1510515
-0.005449062
-0.01477043
-0.02141359
-0.03015132
-0.03902397
-0.04991529
-0.06271932
-0.07814405
-0.09599955
-0.1171313
-0.1402499
-0.1652801
-0.1888484
-0.1969293
-0.006435065
-0.01402481
-0.02251071
-0.03208493
-0.043222
-0.05621636
-0.07155502
-0.09035805
-0.1131688
-0.1405984
-0.1741621
-0.2095465
-0.2529143
-0.2585991
-0.006259846
-0.01546087
-0.02383671
-0.03432215
-0.04546659
-0.05915745
-0.07588407
-0.09668866
-0.1220301
-0.1557061
-0.195492
-0.2514983
-0.3079577
-0.3425245
-0.006419484
-0.01496002
-0.0235096
-0.03372696
-0.04504732
-0.05966528
-0.07698547
-0.09918127
-0.1279768
-0.1674975
-0.2217125
-0.3029439
-0.4282215
-0.4027333
-0.006051557
-0.01430162
-0.02224653
-0.03180792
-0.04259976
-0.05592818
-0.07226634
-0.0932938
-0.1201944
-0.158368
-0.2085294
-0.2949789
-0.430595
-0.8316674
-0.005356278
-0.01254063
-0.0196047
-0.02806672
-0.03756723
-0.04919462
-0.06274666
-0.0796393
-0.1007988
-0.1276582
-0.1610161
-0.2073294
-0.244874
-0.3165217
-0.01933781
0.3719065
0.4618636
0.4935381
0.5043305
0.5129399
-0.004779589
-0.01040166
-0.01617503
-0.02304996
-0.03070771
-0.03976565
-0.04993871
-0.06171956
-0.07643632
-0.09006857
-0.1064793
-0.1160992
-0.1059341
-0.06035363
0.07272951
0.2151231
0.2955892
0.3398718
0.3706118
0.3894681
-0.003972938
-0.008166763
-0.01217738
-0.01733301
-0.02255118
-0.02864107
-0.03506487
-0.04203752
-0.04910005
-0.05471151
-0.057464
-0.04917978
-0.03150996
0.01776857
0.1311051
0.2239252
0.2942251
0.3404266
0.3740877
0.3925279
-0.002121147
-0.005198161
-0.007670687
-0.01086981
-0.01391086
-0.01727766
-0.02049613
-0.02332516
-0.02534245
-0.02441245
-0.01925656
-0.004787891
0.02037795
0.05216827
0.1210815
0.1836681
0.235135
0.2744417
0.3048507
0.3256598
-0.0005399435
-0.002068286
-0.003041374
-0.00414757
-0.005071178
-0.005700615
-0.005849506
-0.004906205
-0.002440068
0.002925473
0.01253603
0.02935011
0.05479998
0.09236209
0.1432131
0.1920744
0.2364048
0.2715612
0.2992345
0.3184256
0.001070544
0.0007464064
0.001620454
0.002303936
0.003338149
0.005016959
0.007280397
0.01094769
0.01625405
0.02434873
0.03634614
0.05393064
0.07778515
0.1041264
0.1428122
0.1798565
0.2147338
0.2432763
0.2664098
0.2831566
0.002212952
0.00370091
0.005925137
0.008606213
0.01129688
0.01507745
0.01941452
0.02538689
0.03300034
0.04327419
0.05673913
0.07444154
0.09777107
0.1260057
0.1559529
0.1874431
0.2176278
0.2433856
0.2645184
0.2792703
0.003056259
0.006229322
0.01000793
0.01426036
0.0185424
0.02398978
0.02995961
0.0375541
0.04662426
0.05799282
0.07198818
0.08905939
0.1096154
0.1328098
0.1597242
0.1861756
0.2120691
0.2346446
0.2532787
0.266015
0.003814703
0.008459695
0.01393441
0.01940383
0.02512012
0.03197083
0.03932377
0.04824408
0.05848471
0.07077258
0.08525314
0.1023188
0.1221389
0.1443083
0.168288
0.1927486
0.2170265
0.2388527
0.2580218
0.2702802
0.004760878
0.01095791
0.01720529
0.02410186
0.03095536
0.0389614
0.04736908
0.05722267
0.06818728
0.08087392
0.09532568
0.1117882
0.1303669
0.1507645
0.1730084
0.1959482
0.2192479
0.2413645
0.2614202
0.2757429
0.005905171
0.01327538
0.02019693
0.02830531
0.03614893
0.04510143
0.05436875
0.06494841
0.07646072
0.08944644
0.1038866
0.1200144
0.1379105
0.1575013
0.178871
0.201505
0.2258468
0.2499467
0.2762732
0.2963443
0.006745497
0.01527413
0.02322583
0.03204368
0.04071795
0.05042854
0.06038057
0.07148801
0.08333191
0.0963908
0.1106038
0.1261677
0.1432002
0.1617899
0.182206
0.2046824
0.2296883
0.2578157
0.289046
0.3249963
0.008871617
-0.04166826
-0.01194966
-0.0029533
-0.003805784
-0.005618655
-0.007653882
-0.009380942
-0.01173044
-0.01358763
-0.01631225
-0.01589117
-0.01630414
-0.01970074
-0.01075324
-0.001535162
-0.00615663
-0.01046879
-0.0145596
-0.01763683
-0.02176002
-0.02656171
-0.03211748
-0.03768738
-0.04526082
-0.05282891
-0.06627051
-0.0755145
-0.00485485
-0.01383697
-0.01724383
-0.01955156
-0.02398443
-0.03073249
-0.03800293
-0.04638594
-0.05593187
-0.0664162
-0.07735438
-0.08950634
-0.09928913
-0.1063817
-0.002272627
-0.007444844
-0.01646667
-0.02509338
-0.0316161
-0.04035123
-0.05122605
-0.06324974
-0.07731854
-0.09266947
-0.1108243
-0.127586
-0.1463909
-0.1524082
-0.004131382
-0.01370491
-0.02008266
-0.0289104
-0.03851878
-0.04931759
-0.06219578
-0.07748664
-0.09524951
-0.1163825
-0.1394284
-0.1650049
-0.1876113
-0.1981811
-0.003702889
-0.01284111
-0.02110693
-0.03142877
-0.04212851
-0.05517839
-0.07103739
-0.08952902
-0.1123382
-0.1396294
-0.1730962
-0.2083898
-0.2519991
-0.2577277
-0.004107569
-0.01459522
-0.02248515
-0.03257364
-0.04443556
-0.0588109
-0.07543207
-0.09629767
-0.1216664
-0.1554096
-0.1950751
-0.2508102
-0.3020431
-0.3394724
-0.004273198
-0.01364257
-0.02149127
-0.03195322
-0.04434174
-0.05952238
-0.07647314
-0.09873111
-0.1273592
-0.1667867
-0.2197673
-0.3014887
-0.419104
-0.4407171
-0.003837849
-0.0129526
-0.02075271
-0.03044863
-0.04199801
-0.05557101
-0.0718617
-0.09298632
-0.1197721
-0.1582247
-0.2079684
-0.2948878
-0.4325688
-0.8435557
0.4633846
0.4348934
0.4533374
-0.003679883
-0.01118214
-0.01758125
-0.02732819
-0.03638031
-0.04894258
-0.06245931
-0.07946307
-0.1008822
-0.1275947
-0.1594133
-0.2085223
-0.2459571
-0.3078947
-0.009805433
0.3785588
0.4675374
0.4939849
0.4901277
0.5058935
-0.002778018
-0.009233578
-0.01499395
-0.02281522
-0.03034239
-0.0397152
-0.04971762
-0.06150194
-0.07648647
-0.08975071
-0.1060275
-0.1175872
-0.1082085
-0.05829042
0.07612499
0.2200102
0.3060996
0.3399773
0.3611622
0.3876901
-0.001991616
-0.006895023
-0.01068216
-0.01717206
-0.02206386
-0.02848421
-0.03488491
-0.04194384
-0.04909171
-0.05472412
-0.05765848
-0.05032298
-0.03448454
0.01347166
0.1260263
0.2237284
0.2900795
0.3364764
0.3655612
0.3896643
-0.001229643
-0.004680633
-0.006900044
-0.01094667
-0.01381433
-0.01725681
-0.02045427
-0.0233273
-0.02542132
-0.02453517
-0.01955923
-0.005583322
0.01887151
0.05127009
0.1171907
0.1826749
0.234379
0.2706088
0.2994358
0.3222203
-0.0004053297
-0.002294603
-0.002250677
-0.00431969
-0.005091859
-0.00575947
-0.005887485
-0.00497858
-0.002552283
0.002757146
0.01226299
0.02886972
0.05385375
0.09130551
0.141618
0.1911314
0.2350565
0.2705276
0.297563
0.3180837
0.0004022836
0.0003812649
0.001879735
0.002022663
0.003146056
0.004863724
0.007163379
0.01081576
0.0161127
0.02417532
0.03611747
0.0536589
0.07723209
0.1037404
0.1418991
0.1792899
0.2140185
0.2422148
0.2649943
0.2819795
0.001207569
0.002917103
0.006097315
0.008169117
0.01099707
0.01484037
0.01924433
0.02522354
0.03285627
0.04311827
0.05656441
0.07425299
0.09750871
0.125741
0.155601
0.1872871
0.2173658
0.2432876
0.2643099
0.2793651
0.002048396
0.005995946
0.009978039
0.01381439
0.0181594
0.02372349
0.02975569
0.03737835
0.04647947
0.05785147
0.07185059
0.08891776
0.1094278
0.1326337
0.1594518
0.1859602
0.2118079
0.2343724
0.2529261
0.2657264
0.002801704
0.008431412
0.01353938
0.0189465
0.02464388
0.0316925
0.03909262
0.04806654
0.05834689
0.07065552
0.08515528
0.1022403
0.1220624
0.1442527
0.1682194
0.1927369
0.2170103
0.2389464
0.2581536
0.2704349
0.00354335
0.01025241
0.01680958
0.02368313
0.03041101
0.03866823
0.04711263
0.05704398
0.06804953
0.08076278
0.09523499
0.1117094
0.1302882
0.1506947
0.1729237
0.1958838
0.2191598
0.2413149
0.2613742
0.2757192
0.004139005
0.01240359
0.01988779
0.02794711
0.03555444
0.04479813
0.05408062
0.06477098
0.07632878
0.08934986
0.1038149
0.1199621
0.1378681
0.1574738
0.1788409
0.2015022
0.2258359
0.250204
0.2760924
0.2954362
0.00463927
0.01414137
0.02252172
0.03165236
0.04009294
0.05010959
0.06004338
0.07129574
0.08319399
0.0962947
0.1105331
0.1261138
0.1431549
0.1617561
0.1821756
0.2046828
0.2296469
0.25793
0.288312
0.3245152
0.008228279
-0.04107238
-0.01777844
-0.001864465
-0.003141274
-0.00480905
-0.007534492
-0.00922212
-0.0117933
-0.0132885
-0.01466066
-0.01375762
-0.01498887
-0.01779002
-0.0106978
0.002714188
-0.006982176
-0.007635193
-0.01427269
-0.01726313
-0.02171049
-0.02625587
-0.03179039
-0.03708557
-0.04547346
-0.05267067
-0.06675309
-0.07585047
-0.00438206
-0.01401828
-0.01673914
-0.02036908
-0.0238251
-0.02931642
-0.0362671
-0.04424028
-0.05344624
-0.06347252
-0.07450792
-0.08709833
-0.09813145
-0.1071875
-0.001873929
-0.004511968
-0.01589644
-0.0216733
-0.03166336
-0.04005258
-0.05064277
-0.06220426
-0.07630165
-0.0914161
-0.1101449
-0.1271262
-0.1466301
-0.1527177
-0.00358853
-0.0112767
-0.01954802
-0.02833569
-0.03793426
-0.04873989
-0.06147363
-0.07660722
-0.09432406
-0.1154076
-0.1388819
-0.1645203
-0.1882719
-0.1981622
-0.002719807
-0.01049653
-0.01981771
-0.02977109
-0.04169487
-0.05463905
-0.07030818
-0.08895025
-0.1119159
-0.1392897
-0.1733475
-0.2085967
-0.2517399
-0.2558394
-0.003901038
-0.01261642
-0.02180931
-0.03214079
-0.04406416
-0.05805122
-0.07478638
-0.09574262
-0.1212046
-0.1551533
-0.1947083
-0.2512241
-0.3011596
-0.3369812
-0.003893861
-0.01190316
-0.02100423
-0.03145732
-0.04358797
-0.05811809
-0.07570935
-0.0981459
-0.1270656
-0.1667185
-0.220044
-0.3015613
-0.4132976
-0.4033238
-0.003834062
-0.01162942
-0.02026051
-0.02999808
-0.04119226
-0.05478652
-0.07112025
-0.09229623
-0.1192961
-0.1577513
-0.2074335
-0.2947333
-0.4324372
-0.8338005
0.4897828
0.4531483
0.4637794
-0.003461856
-0.01001131
-0.01773015
-0.02636625
-0.03616089
-0.04783112
-0.06166089
-0.07887023
-0.1003791
-0.1275504
-0.1607739
-0.2098032
-0.2498765
-0.2997071
0.00690844
0.3676925
0.4533476
0.4730954
0.4580434
0.4734751
-0.002819762
-0.008422213
-0.01488459
-0.02181222
-0.02960558
-0.0387021
-0.04918232
-0.06113619
-0.07598935
-0.08935561
-0.1055255
-0.1158088
-0.1055047
-0.05899329
0.06986157
0.2108348
0.2967272
0.3208541
0.3359784
0.3653924
-0.002088958
-0.006259838
-0.01106633
-0.01620917
-0.02173505
-0.02788086
-0.03456696
-0.04162007
-0.04883622
-0.05448087
-0.05730081
-0.04944365
-0.03288353
0.01777657
0.1349412
0.2251372
0.2926795
0.3313569
0.3586404
0.3827097
-0.00128841
-0.003899131
-0.007071912
-0.01020767
-0.01345465
-0.01685655
-0.02025926
-0.02320031
-0.02527024
-0.02421275
-0.0188346
-0.004904895
0.02001992
0.04969661
0.1183381
0.1793349
0.2305009
0.2634102
0.2892452
0.3136412
-0.0005681037
-0.00138357
-0.002788909
-0.003911973
-0.004919055
-0.005608839
-0.005812036
-0.004940201
-0.002506177
0.002810343
0.01256784
0.03019513
0.05491078
0.09339617
0.1438193
0.1928063
0.2367138
0.2701158
0.2966864
0.3171629
0.0002892989
0.00105573
0.001357514
0.002170466
0.003206258
0.004834211
0.007131674
0.01073774
0.01607243
0.02418975
0.03647505
0.05351264
0.07738694
0.1031991
0.1413806
0.1781096
0.2127663
0.2398335
0.2620955
0.2789962
0.00116253
0.003468222
0.005388138
0.008055343
0.01094654
0.01466536
0.01914301
0.0250885
0.03278221
0.04307395
0.056675
0.07524015
0.09787203
0.1265554
0.1560721
0.1875593
0.2176767
0.2430648
0.2639546
0.278919
0.002054207
0.005756656
0.009099764
0.01343885
0.01799887
0.02342416
0.02959348
0.03717884
0.04634984
0.05773052
0.07179263
0.08882224
0.1093537
0.1325121
0.1592289
0.1855671
0.2113601
0.2336575
0.2521284
0.2648908
0.002690271
0.007652879
0.01259853
0.01840619
0.02443929
0.03132071
0.03890492
0.0478425
0.0582068
0.07055288
0.08511663
0.1023401
0.1220922
0.1443194
0.1682413
0.192672
0.2169009
0.2386656
0.2578019
0.270014
0.003370531
0.009603983
0.0158299
0.02294875
0.03019187
0.03826001
0.04692238
0.05680574
0.0678953
0.08062413
0.0951362
0.1116292
0.1302097
0.1506025
0.1727973
0.1957065
0.2189347
0.2410436
0.2611566
0.2754218
0.003968455
0.01131989
0.01872971
0.02700468
0.03529966
0.0443651
0.05390709
0.06453911
0.07618565
0.08922355
0.1037299
0.1199079
0.1378146
0.1574211
0.1787585
0.2013537
0.2256034
0.249697
0.2754604
0.2957337
0.004519446
0.01261192
0.02129156
0.03053296
0.03974752
0.04964787
0.05989088
0.07106793
0.08305505
0.09616441
0.1104361
0.1260322
0.1430772
0.1616755
0.1820553
0.2045289
0.229294
0.2576036
0.2892028
0.3230687
0.009950999
-0.04233076
-0.0188398
-0.003394388
-0.002659831
-0.003971448
-0.00632816
-0.00769657
-0.01002211
-0.01145122
-0.01415821
-0.01231698
-0.01461068
-0.01939739
-0.01271925
0.002669767
-0.006209739
-0.005666084
-0.01423039
-0.01631936
-0.02039634
-0.02465939
-0.02983914
-0.03504366
-0.04340951
-0.05067832
-0.06628168
-0.07593592
-0.004125213
-0.01774613
-0.01959086
-0.01968
-0.02336039
-0.02864102
-0.03541554
-0.0431163
-0.05216987
-0.06209125
-0.07334532
-0.0863327
-0.0975097
-0.1071708
-0.001843193
-0.004380181
-0.01690068
-0.02228682
-0.03035744
-0.03869724
-0.04929009
-0.06062843
-0.07457178
-0.08959028
-0.108713
-0.1260517
-0.1467112
-0.1534256
-0.003091583
-0.01050094
-0.01961353
-0.02761389
-0.03742344
-0.04814618
-0.0607334
-0.07574417
-0.09339053
-0.1145744
-0.1383395
-0.1644198
-0.1889927
-0.1994621
-0.002947
-0.00937542
-0.01940795
-0.02892783
-0.04092401
-0.05396588
-0.06964998
-0.08818163
-0.1112279
-0.1387197
-0.173203
-0.2089227
-0.253415
-0.2593092
-0.004612399
-0.0118661
-0.02096172
-0.03067319
-0.04315604
-0.05734142
-0.07418479
-0.09518919
-0.1207435
-0.1548266
-0.1947513
-0.2509963
-0.3071752
-0.3431943
-0.003616157
-0.01115102
-0.01999622
-0.03026708
-0.04312424
-0.05747702
-0.07510537
-0.09759381
-0.1265974
-0.1663407
-0.2196872
-0.3010019
-0.4210553
-0.401479
-0.003807744
-0.01106905
-0.01945764
-0.02830774
-0.04035488
-0.05390757
-0.07053173
-0.09176197
-0.1187351
-0.1572637
-0.2059132
-0.2938593
-0.4289679
-0.8314455
0.4333053
0.4581535
0.4202762
-0.00326824
-0.009354447
-0.01648334
-0.02562674
-0.03575759
-0.04730762
-0.06120886
-0.07844974
-0.1000947
-0.1269831
-0.1587273
-0.2081222
-0.2438058
-0.302812
-0.003496429
0.3646849
0.4564832
0.4816607
0.4710208
0.4833849
-0.002624386
-0.007712449
-0.01439972
-0.0213601
-0.02917096
-0.03826401
-0.04880267
-0.06078559
-0.07575066
-0.08886859
-0.1045998
-0.1159764
-0.1059905
-0.06239816
0.06562399
0.2065017
0.2923944
0.3132983
0.3452745
0.3643594
-0.001970411
-0.00563581
-0.01032513
-0.01594822
-0.02143178
-0.02758495
-0.03431686
-0.04140447
-0.04865498
-0.05420261
-0.05698605
-0.05045941
-0.03255909
0.01644546
0.1324924
0.2237733
0.2917775
0.3328282
0.3616418
0.3861684
-0.001152302
-0.003503601
-0.007098258
-0.01020565
-0.01331571
-0.01672854
-0.02016979
-0.02315197
-0.02525887
-0.024164
-0.01889737
-0.005608538
0.02005184
0.04867249
0.1169055
0.1778472
0.2293917
0.2620728
0.2896763
0.3131736
-0.0005593632
-0.001235971
-0.002808883
-0.003911758
-0.004900483
-0.005608899
-0.005828087
-0.004987705
-0.002583835
0.002698579
0.01239491
0.02954476
0.05462797
0.09294218
0.1430308
0.1927904
0.2364534
0.2706367
0.2971754
0.3181859
0.0002855425
0.001022322
0.001201618
0.002029645
0.003091877
0.00470428
0.007010531
0.01059479
0.01592732
0.02401611
0.03628967
0.05312787
0.07716584
0.1027792
0.1407758
0.1775707
0.2122784
0.2393059
0.2617202
0.2787208
0.0009597582
0.003217807
0.005178325
0.007760074
0.01072198
0.01442802
0.01894714
0.0248924
0.03260518
0.04288938
0.05649508
0.07497378
0.09766179
0.1263753
0.1558918
0.1875777
0.2176864
0.2433325
0.264254
0.2794387
0.001671971
0.004898832
0.008854161
0.01300578
0.01767708
0.02310885
0.02934259
0.03694515
0.04615483
0.05754422
0.0716271
0.08862759
0.1091934
0.1323262
0.1590101
0.1853997
0.2111966
0.2335547
0.2520241
0.2648791
0.00242285
0.006654467
0.01225499
0.01787506
0.02403089
0.0309578
0.03862193
0.04759611
0.05801247
0.07038499
0.08497966
0.102227
0.1219992
0.1442618
0.168195
0.1926994
0.2169297
0.2388253
0.2579824
0.2702746
0.003034925
0.008652216
0.01537528
0.02233789
0.02970608
0.03786136
0.04661935
0.05655268
0.06770199
0.08046068
0.09500488
0.1115149
0.1301138
0.1505234
0.1727198
0.195672
0.2188823
0.2411077
0.261088
0.2754595
0.003626413
0.01014672
0.01822801
0.02632849
0.03473034
0.04393548
0.053588
0.06428826
0.07600005
0.08907683
0.1036206
0.1198258
0.137752
0.1573852
0.1787241
0.2013768
0.2255333
0.2498861
0.2746568
0.2951725
0.004134256
0.01152336
0.02073005
0.02982893
0.03906863
0.04916601
0.05954127
0.07080773
0.08286776
0.09602019
0.1103286
0.1259488
0.1430107
0.1616306
0.1820229
0.2045541
0.2293532
0.2579117
0.2877951
0.3238782
0.01017161
-0.04328264
-0.01838765
-0.00392746
-0.002562694
-0.003411043
-0.006415053
-0.007862983
-0.01035126
-0.01172036
-0.01356032
-0.01280082
-0.01441133
-0.01979593
-0.01219412
0.004197859
-0.008096737
-0.005919323
-0.01335696
-0.01546662
-0.02048197
-0.0246288
-0.0298673
-0.03485679
-0.04417482
-0.05099122
-0.06695119
-0.07551062
-0.00637994
-0.01649319
-0.01879372
-0.02108991
-0.02339591
-0.02849129
-0.03509502
-0.04263813
-0.05162921
-0.06150319
-0.07275258
-0.08610366
-0.09763478
-0.1078393
-0.001610054
-0.003417437
-0.01679242
-0.0209048
-0.03052163
-0.03833022
-0.04904465
-0.06013769
-0.07414529
-0.08916874
-0.1087595
-0.1263891
-0.1476376
-0.154218
-0.003500338
-0.01126606
-0.01953553
-0.02742707
-0.03722008
-0.04776406
-0.06022023
-0.07513207
-0.09280594
-0.1140902
-0.1382942
-0.1646431
-0.1906691
-0.2007502
-0.002947515
-0.009087176
-0.01901463
-0.02815247
-0.04073952
-0.05347182
-0.06920757
-0.08772898
-0.110998
-0.1387795
-0.1739117
-0.2108923
-0.2568855
-0.2634816
-0.003933578
-0.01190398
-0.02092126
-0.03065634
-0.04269769
-0.05673082
-0.0736735
-0.09476249
-0.1204813
-0.1547297
-0.1951411
-0.2515045
-0.3152834
-0.3474353
-0.003623826
-0.01101002
-0.01996856
-0.02991521
-0.04221665
-0.05665026
-0.07451632
-0.09717717
-0.1265208
-0.1668233
-0.2215397
-0.3054869
-0.4329749
-0.4638185
-0.003693558
-0.01099343
-0.01923972
-0.02859374
-0.03978891
-0.05332323
-0.06988707
-0.09118516
-0.1182328
-0.1566497
-0.2052654
-0.2929988
-0.4187537
-0.841099
0.4879325
0.4439066
0.4582079
-0.003173964
-0.009592332
-0.01684531
-0.02511551
-0.03487994
-0.04651846
-0.06049527
-0.07780077
-0.0992078
-0.1259233
-0.1572362
-0.2017111
-0.2342993
-0.3117843
-0.02747567
0.3638764
0.4485809
0.4688984
0.45897
0.4712926
-0.002702243
-0.008108568
-0.01412068
-0.02078983
-0.02859683
-0.03765708
-0.04831048
-0.0604516
-0.07521006
-0.08824487
-0.1035968
-0.1147104
-0.1044956
-0.0661946
0.06182516
0.2064497
0.2980334
0.3218823
0.3367755
0.3662479
-0.002009611
-0.006047594
-0.01050951
-0.01542866
-0.02098234
-0.02714927
-0.03396844
-0.04108595
-0.048311
-0.05373932
-0.05630681
-0.05045578
-0.03115972
0.01671162
0.1359284
0.2232926
0.2912884
0.3260314
0.356262
0.382178
-0.001306341
-0.003842281
-0.006737646
-0.009733507
-0.01302007
-0.01645646
-0.01999211
-0.02299977
-0.0250645
-0.02374867
-0.01858309
-0.007300824
0.02190534
0.04749025
0.119637
0.1768854
0.2295434
0.2609566
0.2852859
0.3106995
-0.0005755185
-0.001503798
-0.002660733
-0.003732419
-0.004763935
-0.005500982
-0.005762252
-0.004952724
-0.002554036
0.002777898
0.01251535
0.03067239
0.05501424
0.0929954
0.1437652
0.1934903
0.2363131
0.2686465
0.2950645
0.3160682
0.0002157139
0.0007546074
0.001311153
0.002084563
0.003105217
0.004679265
0.006968738
0.01053076
0.01587722
0.02402501
0.03643004
0.05282534
0.07769957
0.102251
0.1408108
0.1770231
0.2119645
0.2380764
0.2600241
0.2771028
0.0009883011
0.003008672
0.005189317
0.007706249
0.01062525
0.01429639
0.01882822
0.02476818
0.03250615
0.04280599
0.05648135
0.07552593
0.0974542
0.1267001
0.1559731
0.1874971
0.2174703
0.2425571
0.263299
0.2783553
0.001731659
0.005104909
0.008819585
0.01291072
0.01750109
0.02289888
0.02916644
0.03677175
0.04601949
0.05742469
0.07154803
0.08853064
0.1091741
0.1322079
0.1589306
0.1851342
0.2109286
0.2330647
0.2514777
0.2643742
0.002392986
0.007065641
0.01221917
0.01774057
0.0238092
0.03069939
0.03841677
0.04740152
0.05786546
0.07027204
0.08490485
0.1022393
0.1219509
0.144258
0.1681434
0.1925664
0.2167536
0.2384964
0.2576129
0.2695039
0.002984635
0.008917087
0.01534081
0.022142
0.02946923
0.0375725
0.04640358
0.05634735
0.06754602
0.08033055
0.09490616
0.1114357
0.130043
0.1504427
0.1726338
0.195544
0.2187614
0.2410867
0.2610131
0.2752063
0.003515443
0.01052489
0.01814115
0.0260858
0.03450372
0.04363027
0.05337466
0.0640854
0.07585172
0.08895534
0.1035302
0.1197629
0.1376935
0.1573328
0.1786593
0.2012802
0.2254505
0.249759
0.2745211
0.2960813
0.003996364
0.01193219
0.02056812
0.0295245
0.03885736
0.04884672
0.05932542
0.07060276
0.08271929
0.09589724
0.1102332
0.1258709
0.1429395
0.1615591
0.1819327
0.2044244
0.2291422
0.2575341
0.2890701
0.3229167
0.009947826
-0.04364221
-0.01921328
-0.00522342
-0.002142588
-0.00374618
-0.006273758
-0.007573176
-0.009966051
-0.01139934
-0.0136775
-0.01256959
-0.01470296
-0.02045428
-0.01282834
0.003502952
-0.00614755
-0.003449591
-0.01448908
-0.01603556
-0.02013563
-0.02439071
-0.02941856
-0.03463563
-0.04330248
-0.05026192
-0.06669595
-0.07670096
-0.005722639
-0.01883107
-0.02024854
-0.0211073
-0.02331395
-0.0283524
-0.03485825
-0.04236177
-0.05133293
-0.06120234
-0.07262779
-0.08594858
-0.09769961
-0.1081234
-0.0005713796
-0.00377175
-0.01709862
-0.02060601
-0.03042204
-0.03808525
-0.04866774
-0.05970459
-0.07369344
-0.08875706
-0.1084144
-0.1262599
-0.1478223
-0.1546921
-0.003205558
-0.01160789
-0.01990829
-0.02768161
-0.0371767
-0.04753636
-0.05988712
-0.0747691
-0.09245897
-0.1138244
-0.1382256
-0.1647415
-0.191187
-0.2012074
-0.002771381
-0.009048859
-0.0192707
-0.02820631
-0.04041555
-0.05316527
-0.06885396
-0.08733421
-0.1106847
-0.1386008
-0.1739846
-0.2114529
-0.2574287
-0.2640589
-0.004148798
-0.01158707
-0.02059585
-0.03045496
-0.04235647
-0.05634402
-0.07331965
-0.09446168
-0.1202442
-0.1545747
-0.1952155
-0.2515906
-0.3174262
-0.3475185
-0.003508748
-0.01087753
-0.01986575
-0.02973997
-0.04194278
-0.0562131
-0.07411096
-0.0968656
-0.1262822
-0.1666525
-0.221306
-0.3056211
-0.4335537
-0.4586681
-0.003857528
-0.01070473
-0.01890955
-0.02810039
-0.03946932
-0.0528793
-0.06947766
-0.09082338
-0.1178753
-0.1562115
-0.2043231
-0.291604
-0.4156729
-0.827588
0.4319435
0.4625303
0.4175423
-0.003003138
-0.009286122
-0.01645079
-0.02495492
-0.03469412
-0.04613997
-0.06013565
-0.07747066
-0.0989118
-0.1254444
-0.1561202
-0.2001568
-0.2320846
-0.3155272
-0.03810896
0.3638085
0.455162
0.4791606
0.4703336
0.4802266
-0.002529762
-0.007744522
-0.01410817
-0.02068424
-0.02839527
-0.03735622
-0.04802833
-0.06019273
-0.07496423
-0.08790276
-0.1030751
-0.1146196
-0.1048819
-0.06906521
0.05764787
0.2007588
0.2876948
0.3077135
0.3448491
0.3590186
-0.001841104
-0.005643808
-0.01034443
-0.01537327
-0.02084879
-0.02693707
-0.03376583
-0.04090457
-0.04813464
-0.05348997
-0.05596878
-0.05016627
-0.03118443
0.01555152
0.1355988
0.2222378
0.2908243
0.3303857
0.3620382
0.3850235
-0.001136497
-0.003825857
-0.00690184
-0.009768213
-0.01296159
-0.0163517
-0.01990447
-0.02291315
-0.02497433
-0.02357454
-0.01846471
-0.007764841
0.02207513
0.04645546
0.1188752
0.1750258
0.2263671
0.2587854
0.2876948
0.31066
-0.0006724936
-0.001605709
-0.002701089
-0.003759005
-0.004751614
-0.005482015
-0.005744004
-0.004936885
-0.002555939
0.00282238
0.01252281
0.03105191
0.05488174
0.09260696
0.1435056
0.1942611
0.2361802
0.2697815
0.2969757
0.3174443
0.0003059365
0.0007359306
0.001241044
0.002022633
0.003059842
0.00461559
0.006910306
0.01046909
0.015829
0.02397572
0.03635593
0.05289747
0.07766757
0.1018719
0.1403765
0.176613
0.2115343
0.2380226
0.2606208
0.277514
0.0009335412
0.002908631
0.005095513
0.007593904
0.01052822
0.01416579
0.01871545
0.02465928
0.03241488
0.04272497
0.05639973
0.07552109
0.09744883
0.1266061
0.1559142
0.18761
0.2175942
0.243019
0.2639732
0.2789869
0.001645348
0.00490763
0.008689749
0.01275743
0.01736505
0.02271862
0.02901398
0.03663043
0.0459069
0.0573258
0.07146206
0.0884703
0.1091108
0.1320794
0.1588147
0.1850842
0.2109118
0.2331973
0.2517083
0.2646524
0.002303276
0.006765763
0.01203156
0.01755151
0.0236395
0.03048617
0.03824095
0.04724491
0.05774406
0.07017172
0.08482438
0.1021874
0.1219142
0.1442379
0.168138
0.1926354
0.2168487
0.2387026
0.2578327
0.2698704
0.002938946
0.008574997
0.01509219
0.02192838
0.02927501
0.03734151
0.04621613
0.05618533
0.06742333
0.08022907
0.09482738
0.1113755
0.1299951
0.150411
0.1726161
0.1955873
0.2188249
0.241195
0.2610759
0.2754741
0.003519994
0.01024879
0.01784859
0.02584215
0.03427786
0.04338593
0.05317977
0.06392384
0.07573296
0.08886181
0.1034613
0.1197152
0.1376638
0.1573275
0.1786688
0.2013552
0.2255009
0.2499905
0.274566
0.2964692
0.004017377
0.01172167
0.02022121
0.02922814
0.03859248
0.0485805
0.05911902
0.07043809
0.08260101
0.09580472
0.1101669
0.1258227
0.1429067
0.1615477
0.1819437
0.204489
0.2292561
0.2576703
0.2881912
0.3238348
0.009570237
-0.04388793
-0.01653003
-0.005733461
-0.002293944
-0.004010011
-0.00620434
-0.007728937
-0.01014209
-0.01162563
-0.01344792
-0.01270559
-0.01490245
-0.02075932
-0.0118022
0.003759685
-0.006912392
-0.004447235
-0.01338262
-0.01470698
-0.02047904
-0.02447406
-0.02952883
-0.0345695
-0.04407387
-0.05086697
-0.06681585
-0.07614138
-0.007177733
-0.01836506
-0.02045921
-0.0211159
-0.02306854
-0.02852254
-0.03490291