/*--------------------------------*- C++ -*----------------------------------*\
  =========                 |
  \\      /  F ield         | OpenFOAM: The Open Source CFD Toolbox
   \\    /   O peration     | Website:  https://openfoam.org
    \\  /    A nd           | Version:  7
     \\/     M anipulation  |
\*---------------------------------------------------------------------------*/
FoamFile
{
    version     2.0;
    format      ascii;
    class       volScalarField;
    location    "0.1";
    object      Uz;
}
// * * * * * * * * * * * * * * * * * * * * * * * * * * * * * * * * * * * * * //

dimensions      [0 1 -1 0 0 0 0];

internalField   nonuniform List<scalar> 
53911
(
-0.001581111
-0.002476099
-0.001684803
-0.004329525
-0.006016147
-0.007096786
-0.00757738
-0.008070162
-0.005821128
-0.00750257
-0.008042342
-0.00763853
-0.004883862
-1.188314e-07
-0.01159927
0.001085396
-3.960953e-05
0.002918496
-0.0005222778
-0.0005774961
-0.001526672
-0.001954753
-0.002552546
-0.003096115
-0.003910829
-0.003532572
-0.001831806
0.0009360773
-0.01866315
-0.009893236
-0.004597603
0.0002175047
-0.0006457768
-3.851779e-05
-0.000469262
-0.0004072045
-0.0006806786
-0.0005844159
-0.0009975893
0.0009341907
0.001889058
0.003778875
-0.01902478
-0.006375037
-0.002047466
0.001702827
-0.000256096
-0.0003782103
-0.0003182196
-0.0001278834
-0.0003108025
-0.0001768461
-0.0006886237
0.001148968
0.001390439
0.002723837
-0.01993601
-0.008706515
-0.004643554
0.0006670398
-0.000998971
1.680872e-05
-0.0006591513
-0.0002892012
-0.0004668027
-0.0001095476
-0.0008381921
0.001934944
0.0009933648
0.003174241
-0.01981963
-0.009254982
-0.00248011
0.001425392
-0.0005770015
-0.0009454312
-0.0005552564
-0.0002494284
-0.0003971696
-0.0002328835
-0.001028097
0.001916779
-0.0007592502
0.001694278
-0.01929114
-0.008401497
-0.004577361
0.0006646663
-0.0009620955
-0.0003750399
-0.0005991526
-0.0003016412
-0.0006395446
-0.0004167235
-0.001684158
0.00303949
-0.002053026
-0.004340963
-0.02153848
-0.01031099
-0.002625909
0.001571206
-0.0006396291
-0.0009114339
-0.0005743483
-0.0003030075
-0.0004613106
-0.0005235085
-0.0008666508
0.002575273
0.002529438
-0.01823601
-0.02226485
-0.00911773
-0.004723055
0.001150791
-0.001291909
4.412515e-05
-0.0005117802
-0.0002121113
-0.0007774915
-0.0008372414
-0.002613951
0.00484473
0.002517462
-0.0768576
-0.02308731
-0.01026104
-0.003116335
0.001304857
-0.0007997961
-0.0001689558
-0.0004003453
-0.0001239133
-0.0003752862
-0.0004242281
-0.000239198
0.004715876
0.00869414
-0.009210332
0.01049913
0.03253542
0.0395395
0.03814712
0.035988
0.03017057
-0.02353563
-0.01084967
-0.004537476
0.001152202
-0.001219259
0.0002709683
-0.0003398342
-0.0001386443
-0.0004418258
-0.0007310012
-0.001160345
0.000725824
0.002649361
-0.001882714
-0.01137609
-0.02485499
-0.01874618
-0.02432572
-0.02396143
-0.01807336
-0.02263223
-0.01144156
-0.003725398
0.00111791
-0.001294252
0.0002709642
-0.0003037405
3.986336e-06
-0.0001379748
-8.733788e-05
-0.0002297868
0.0008099013
0.001234317
0.005493854
0.009515099
0.009896761
0.01321219
0.01601958
0.01560082
0.01723179
-0.02215868
-0.01014155
-0.004697642
0.001247926
-0.001241779
0.0004404949
-0.000238225
2.626559e-05
-0.0001835494
-0.0002868008
-0.0006638323
-0.001324054
-0.002311953
-0.003399464
-0.00361913
-0.006188906
-0.007166585
-0.007000487
-0.007613221
-0.007165
-0.0221511
-0.01085159
-0.004352039
0.001173769
-0.001238338
0.0004768903
-0.000207324
7.355099e-05
-9.865199e-05
-0.0001328054
-0.0003609894
-0.0005388748
-0.0006111165
0.0002101541
0.001267162
0.00121292
0.001321138
0.001848619
0.001595979
0.00168724
-0.0195403
-0.01137749
-0.004422055
0.001208834
-0.001119136
0.0005156572
-0.0001859223
5.132309e-05
-0.0001355165
-0.0001918443
-0.0003548041
-0.0006373078
-0.0007279254
-0.0009315738
-0.000658965
-0.0009062234
-0.001231497
-0.001200747
-0.001435818
-0.001452901
-0.021289
-0.01089867
-0.00437466
0.001191952
-0.001063039
0.0004993142
-0.0001707223
6.325629e-05
-8.680295e-05
-7.528756e-05
-0.0001191302
-0.0001355668
-4.095322e-05
0.000101475
0.0002704872
0.0003200251
0.0003063334
0.0004476479
0.0004686434
0.0005986558
-0.02237109
-0.01231937
-0.004022404
0.0009344249
-0.0008785193
0.0005226978
-0.0001150973
0.0001020636
-3.8089e-05
-3.419385e-05
-9.543689e-05
-0.0001542895
-0.0001928873
-0.0001692187
-9.080276e-05
-0.0001041507
-0.0001587069
-0.0001676978
-0.0002663355
-0.0002809677
-0.02160781
-0.01133392
-0.004168113
0.001007133
-0.0008255783
0.0005143655
-6.197675e-05
0.0001372549
-7.774946e-07
1.672195e-05
-7.048618e-06
3.104416e-06
2.054597e-05
6.341648e-05
7.51419e-05
9.148515e-05
7.964606e-05
0.0001130259
0.000131007
0.0003340716
-0.0182795
-0.01032839
-0.004716739
0.0009590364
-0.0005361776
0.000588641
9.197108e-06
0.0001541092
1.89913e-05
2.901944e-05
2.214348e-06
-3.671826e-08
-2.119965e-06
8.519469e-06
-1.441792e-06
-1.956434e-05
-8.208893e-05
-0.0001696449
-0.0003025733
-1.789836e-06
-0.01693263
-0.01135664
-0.0042308
0.001060475
-0.0005759607
0.0005628694
5.11437e-05
0.0001607727
3.602776e-05
4.436037e-05
2.203314e-05
2.641759e-05
2.580358e-05
3.825698e-05
2.645117e-05
2.872427e-05
-3.09824e-05
-4.12895e-05
-0.0002276599
0.0006289875
-0.0163723
-0.0106492
-0.003261932
0.0008919565
-0.0004365763
0.0005663607
0.0001342368
0.0001756053
5.430773e-05
4.93039e-05
2.519291e-05
2.429569e-05
1.692582e-05
1.889725e-05
-2.019685e-05
-6.765514e-05
-0.0002671
-0.0005242286
-0.0001147901
0.001958962
-0.004396236
-0.01412281
0.004951692
-0.003787189
0.002065961
0.0001931806
0.001675593
0.0008002257
0.0008748246
0.000617107
0.001365433
-0.0002188649
0.00169412
0.001773179
0.003156426
0.009736671
0.0005636192
0.003509972
0.0004349195
0.0006991965
-9.044366e-05
-0.000353087
-0.0006204445
-0.000896803
-0.001645201
-0.001359162
-0.003506139
-0.002441192
-0.01541227
-0.00360853
-0.0002691494
0.0009690922
-0.000861148
-0.0007695502
-0.0006835737
-0.001084527
-0.001271539
-0.001372075
-0.001218512
-0.0007183685
-0.001259703
0.001872207
-0.01288942
-2.107328e-05
-0.00355999
0.002459904
-0.0007055327
0.0005121185
3.034524e-05
0.0002373771
-1.520648e-05
0.0001492342
-0.0003525953
0.0001148681
-0.002055588
-0.001423559
-0.01520684
-0.001736548
-0.004270502
0.00184671
-0.0005488997
0.0005584782
-0.0006836455
-0.0003234261
-0.0005163316
-0.0001885828
-0.0007323912
0.0005496186
-0.002884845
0.0004752814
-0.01481316
-0.001326452
-0.005039355
0.002236998
-0.001269562
7.67947e-05
-0.0003281438
8.090387e-06
-0.0002080275
-2.631608e-05
-0.0007336016
8.717184e-05
-0.005302174
-0.001104592
-0.01641297
-0.00181122
-0.004930032
0.002043611
-0.001166367
0.0003456316
-0.0004948076
-5.932131e-05
-0.0004047811
8.955525e-05
-0.0008507909
0.001441648
-0.00642995
0.002117533
-0.01591879
-0.001906849
-0.005661709
0.002245224
-0.001412444
5.995722e-05
-0.0003942277
-5.515493e-05
-0.0002042632
-0.0001368323
-0.0004230464
-0.0006792482
-0.004812013
-0.01841274
-0.0174003
-0.002479645
-0.005446333
0.001879087
-0.001026974
0.0004683012
-0.000396428
6.996634e-05
-0.0002971553
0.0001969651
-0.0004137713
0.0009751212
-0.007209964
-0.07461999
-0.01730893
-0.002490429
-0.005723276
0.002088064
-0.001285015
0.0004170339
-0.0002851776
5.703731e-05
4.545378e-05
9.793435e-06
0.0006746892
-0.0004965245
-0.001477596
-0.005759123
0.02346703
0.04934388
0.0475088
0.05692583
0.0571091
0.04989793
-0.01780328
-0.002476996
-0.005543951
0.00195874
-0.001090872
0.0005473874
-0.0002412686
5.834543e-05
-0.0002132856
-0.0002993081
-0.0007875201
-0.002424778
-0.007748575
-0.0112898
-0.01713539
-0.03386368
-0.03434491
-0.03298274
-0.03372035
-0.03468906
-0.01782262
-0.002270766
-0.0057591
0.00201791
-0.001166262
0.000546294
-0.000168009
0.000204656
0.0001051927
0.0002369103
3.064132e-05
0.0001899314
-0.0005277756
0.001741333
0.003909962
0.004858577
0.005185389
0.007421603
0.009355711
0.006614136
-0.01850475
-0.002460289
-0.005488666
0.002031654
-0.00106408
0.0006127646
-0.0001688846
0.0001557665
-8.873151e-05
-0.0001079053
-0.0003917711
-0.0007772704
-0.001544711
-0.002909224
-0.002493555
-0.005632446
-0.005936856
-0.006709709
-0.006258035
-0.007351992
-0.01883788
-0.002508748
-0.005582275
0.002005055
-0.001082356
0.000623264
-0.0001435063
0.0001950724
-2.331991e-05
1.155053e-05
-0.0001659096
-0.0001190043
3.331084e-06
0.0008157053
0.002523336
0.001910567
0.002255387
0.003081447
0.003240566
0.002917292
-0.01908805
-0.002698775
-0.005614735
0.00208117
-0.001019596
0.0006365387
-0.0001499551
0.0001528965
-8.832547e-05
-8.894592e-05
-0.0002232343
-0.0003867325
-0.0003793778
-0.0005302239
-0.0002050684
-0.0007010746
-0.0008911543
-0.001134032
-0.001219476
-0.001608678
-0.0189648
-0.003282017
-0.005486789
0.002145507
-0.00100977
0.0006460018
-0.0001280628
0.0001787202
-2.567426e-05
3.172519e-05
7.414161e-06
5.210561e-05
0.0002164763
0.0003679178
0.0006714459
0.0006717033
0.0006861622
0.000841411
0.0009415918
0.0009618925
-0.01889988
-0.003356475
-0.005614646
0.002258912
-0.0008923246
0.0006730281
-7.873289e-05
0.0002058724
2.86691e-06
3.754561e-05
-2.621728e-05
-6.399813e-05
-8.073822e-05
-5.551908e-05
4.351949e-05
-1.895776e-05
-6.441055e-05
-0.0001429004
-0.0002323569
-0.0004038115
-0.01866114
-0.003555924
-0.005614789
0.002218821
-0.0009355262
0.000666378
-5.110116e-05
0.0002244507
3.221295e-05
9.113936e-05
6.132649e-05
9.546737e-05
0.0001313438
0.0001860124
0.0002172528
0.0002285721
0.0002173693
0.0002318774
0.0002215984
0.0002997483
-0.0186347
-0.003740859
-0.005461809
0.002383583
-0.0008098595
0.0006834221
-2.060724e-05
0.0002238328
3.351387e-05
8.35197e-05
4.248229e-05
5.459572e-05
5.806517e-05
7.379519e-05
6.911123e-05
5.234692e-05
-8.842232e-06
-7.813204e-05
-0.0002339569
-0.0004798759
-0.0183079
-0.003454191
-0.005479892
0.002235864
-0.0009235497
0.0006463056
-2.968851e-05
0.0002090898
3.16219e-05
8.718433e-05
5.464321e-05
7.707577e-05
8.23283e-05
0.0001032658
9.401653e-05
0.0001038072
1.812569e-05
2.997833e-05
-0.0003147345
-0.0004703922
-0.01798968
-0.003341594
-0.005613085
0.00218242
-0.0009105168
0.000645525
-1.084452e-05
0.0002001287
3.09983e-05
8.014359e-05
4.619505e-05
6.45784e-05
6.087308e-05
7.38658e-05
3.276131e-05
5.601047e-06
-0.0001523071
-0.0002763948
-0.001217839
-0.001041466
-4.288164e-05
-0.002616358
0.002817892
-0.002528247
9.396907e-05
-0.001100588
-0.002234933
-0.002737588
-0.003004568
-0.003787504
-0.002443176
-0.003007131
-0.000418355
-0.0004958566
0.01265221
0.005400059
0.001070837
0.000768101
0.0008507039
0.0009871578
0.001163282
0.001138041
0.001021205
0.0009366687
0.0003481523
0.0006609237
-0.001970075
-0.001890677
0.001936428
-0.001897892
-0.002521454
-0.001696264
-0.0007556009
-0.0005718921
-0.00078072
-0.001083634
-0.001091517
-0.001246435
-0.0006400639
-0.0006800651
0.0003032151
9.883386e-05
0.00439098
0.001091234
-0.003237969
0.0003181324
-0.0001445816
0.0002370911
-0.0002248074
-7.807337e-05
-0.0003624767
-0.0002320593
-0.000518037
-0.0002636904
-0.0009592407
-0.001082214
0.004955478
-0.001935972
-0.003966442
-0.0009171637
-0.0007105579
-0.0003383239
-0.0008496348
-0.0004872233
-0.000686153
-0.0004373445
-0.0005181863
-3.681323e-05
-0.0003239615
-0.0003102467
0.004649123
-0.002189865
-0.005129768
-0.0002956854
-0.0006598559
-0.000208167
-0.0006047931
-0.0002738929
-0.0005122007
-0.0003532692
-0.0004997545
-0.0001578604
-0.0006681269
-0.0003623309
0.002628931
-0.001600591
-0.005163958
-0.001098373
-0.000772275
-0.0002721874
-0.0009361891
-0.0003633212
-0.0006423152
-0.0001946329
-0.000287506
0.0009356589
0.001453487
0.00650408
0.004130495
-0.00224803
-0.005332319
-0.0004732259
-0.0008843679
-0.0002411461
-0.0006773062
-0.0002927676
-0.0004617596
-0.0002782066
0.0002203487
0.001397063
0.008362882
0.01894005
0.002883996
-0.001909536
-0.005202047
-0.0007986238
-0.001160135
-0.0001402181
-0.0007771141
-0.0002299814
-0.0003811182
0.0002588202
0.001306311
0.003659836
0.01404709
0.1558278
-0.01773095
-0.001740681
-0.01726623
0.004053064
-0.002467068
-0.00558666
-0.000490946
-0.001023804
9.210586e-06
-0.0005456876
-0.0001068892
-0.000132907
7.720391e-06
0.00104827
0.00189296
0.004845861
0.0176739
0.0002694981
0.01252864
-0.003691121
-0.007967717
-0.006186764
-0.01822642
0.003101618
-0.002437305
-0.005439204
-0.0006193248
-0.00123787
4.797203e-05
-0.0005349372
-0.0001299854
-0.0003624777
-0.0002250602
4.275374e-05
0.0006441797
0.001444823
9.876248e-05
-0.0005568684
-0.004488786
-0.003356469
-0.004975171
-0.001448327
-0.003648044
0.003747724
-0.002653082
-0.005569118
-0.0005654138
-0.001151556
0.0001271564
-0.0004031269
6.699348e-05
-2.813548e-05
0.0002389298
0.0004899992
0.001078808
0.002083164
0.003295056
0.004720568
0.006102582
0.006446367
0.01084684
0.01279268
0.01146794
0.002853785
-0.002267398
-0.005538733
-0.0005540267
-0.001115997
0.00017244
-0.0004000079
1.205288e-05
-0.0002145978
-0.0001197041
-0.0001937251
-5.835074e-05
-0.0001910288
-0.0004684878
-0.001143146
-0.001001902
-0.0003258975
0.001032567
0.002255466
0.001223779
0.002993931
-0.002421761
-0.005568115
-0.0005572884
-0.001073716
0.0002246844
-0.0003320068
0.0001034059
-0.0001100547
2.139711e-05
-4.677951e-05
0.0002255382
0.0002488141
0.00112895
0.001888646
0.002282243
0.002687181
0.004248891
0.005237754
0.00477765
0.003346183
-0.002505716
-0.005564784
-0.0005402561
-0.001021388
0.0002573049
-0.0003096502
9.272499e-05
-0.0001333639
-5.954787e-05
-0.0001808339
-0.0002205878
-0.0001919923
-0.0003387632
-0.0001444633
-4.43598e-05
8.36687e-05
0.0005182127
0.0008041966
0.0004193682
0.003501011
-0.002629879
-0.005588942
-0.0004962342
-0.0009840213
0.0003004394
-0.0002586555
0.0001498749
-5.555635e-05
6.736696e-05
1.659973e-05
0.0001405588
0.00021484
0.0003624661
0.000665414
0.0008804936
0.001057005
0.001447802
0.001737188
0.001732235
0.003336079
-0.003318202
-0.005515049
-0.0005164656
-0.0008968193
0.0003358252
-0.0002125521
0.0001673757
-4.442868e-05
3.124806e-05
-4.745831e-05
-0.0001481396
-3.354466e-05
-3.674659e-05
6.191588e-05
0.0001304201
0.0001799962
0.0002626575
0.0003228559
0.0001380996
0.00334033
-0.002919607
-0.005459649
-0.000450843
-0.0008490693
0.0003780688
-0.0001655386
0.0002067108
6.222951e-06
0.0001023458
5.462403e-05
9.05115e-05
0.0001261971
0.0001857768
0.0002616652
0.0003493595
0.0004273205
0.0005515029
0.0006995372
0.0007165986
0.002982634
-0.002566264
-0.005379459
-0.0005155658
-0.0007771363
0.0004074621
-0.0001306376
0.0002161537
1.709682e-05
9.647015e-05
3.966249e-05
4.563294e-05
5.267205e-05
6.588409e-05
7.667802e-05
9.489851e-05
8.62748e-05
0.000105016
0.0001524801
3.918884e-05
0.002761058
-0.003287116
-0.005283475
-0.0005753653
-0.0007662071
0.0003959292
-0.000123264
0.0002135577
2.64061e-05
0.0001084
6.023123e-05
8.201198e-05
8.229852e-05
0.0001065922
0.0001142638
0.0001555788
0.0001589173
0.0002741461
0.000451034
0.0004349303
0.002753901
-0.002600943
-0.005157402
-0.0007584097
-0.000738356
0.0003727012
-0.0001076077
0.0002125194
3.31592e-05
0.0001070738
5.737289e-05
7.158009e-05
5.593893e-05
5.592149e-05
1.697583e-05
-2.001273e-05
-0.0001175627
-3.286609e-05
-0.0001229348
0.000276528
-0.001367368
-0.001062538
-0.001192332
-0.002552178
4.038989e-05
0.0006599686
0.0004503585
0.0004615451
0.0002377755
0.0002775975
-1.761141e-05
0.0002529619
0.0006537335
-0.000625284
0.002623682
0.002840783
0.001332993
0.00175031
1.29221e-05
0.0001293471
-0.0001713217
-0.0002671335
-0.0004679329
-0.0005858949
-0.0009908911
-0.001224366
-0.002197829
-0.001447379
-0.0020925
0.0005758544
-0.00218489
-0.0008464785
-0.0004770695
-0.000110975
-0.0005190765
-0.0003881605
-0.0004219914
-0.000343558
-0.0001678401
-0.000273179
-0.000654878
-0.0003063317
-0.0007644281
0.005757262
-0.001825107
0.0008589856
-0.000902163
-0.0003606035
-0.0005308129
-0.0003826183
-0.0006781269
-0.0005526068
-0.001058615
-0.001023702
-0.002177125
-0.001817661
-0.001792619
0.003413102
-0.002509575
0.0001752737
-0.001158184
-0.000458153
-0.0009429485
-0.0005369811
-0.0008005989
-0.000591332
-0.001169577
-0.0009615519
-0.002220951
-0.001636108
-0.0006286269
0.00484626
-0.003501304
0.0002618598
-0.001752604
-0.0007729199
-0.0007767078
-0.0005039317
-0.0007824466
-0.0007181971
-0.001512771
-0.001605485
-0.004196578
-0.002953664
-0.001223184
0.004049697
-0.003228417
0.0004158442
-0.001842433
-0.0007533273
-0.001012494
-0.0006271216
-0.001027798
-0.0008733518
-0.00174827
-0.001970684
-0.003881079
-0.00308779
-2.742496e-05
0.004862007
-0.003566535
0.0004707998
-0.001864013
-0.0007798001
-0.0008543849
-0.0005264169
-0.0007986336
-0.0007583015
-0.00137434
-0.001036479
-0.004623413
-0.004178332
-0.0007316027
0.004704269
-0.003679749
1.893817e-05
-0.001679711
-0.0003333763
-0.0009243758
-0.0005439612
-0.001035465
-0.0009617049
-0.001789872
-0.001245187
-0.004084761
-0.01994289
-0.03506643
-0.0140606
-0.02769728
-0.0003011562
0.005013767
-0.003474672
0.0002343308
-0.001780372
-0.0003130682
-0.0006924554
-0.000224157
-0.0004185234
-0.0001439218
9.068761e-05
0.000314079
0.001500132
0.0008716178
0.008064805
0.01910185
0.01754599
0.02410264
0.009814815
0.02172861
-0.0002791291
0.005216482
-0.003537346
3.3317e-06
-0.001604508
-3.656359e-05
-0.000655553
-0.0002510905
-0.000576121
-0.000565604
-0.0007915816
-0.001599607
-0.001594519
-0.0009265245
-0.0005626191
-0.0051866
-0.004742553
-0.005037709
-0.006583568
-0.005688781
-0.0002165111
0.005191923
-0.003421974
0.0001477091
-0.001649819
7.223716e-05
-0.0004885637
3.650149e-05
-6.833186e-05
0.0002156211
0.0004861397
0.0007203855
0.001661607
0.003792651
0.004252808
0.006024439
0.007010409
0.008964803
0.007116204
0.007761126
-0.0003648516
0.005082452
-0.003410923
0.0001871282
-0.001581022
0.0001590887
-0.0004842476
-2.088313e-05
-0.0002611304
-0.0001670871
-0.0002959487
-0.0002121769
-0.0006818902
-0.0004293518
-0.001538664
-0.001359245
-0.001408184
-0.0002805141
-0.000562449
-0.000603479
-0.00033484
0.004680528
-0.003350346
0.0002629932
-0.001543758
0.0002348311
-0.0003968481
9.625227e-05
-0.0001260701
2.684315e-05
-8.116447e-05
0.0002527908
1.318992e-05
0.001074491
0.001522227
0.001941291
0.002378932
0.003430679
0.003638265
0.003331269
-0.0003022016
0.004040325
-0.003293776
0.0004235257
-0.001474894
0.0002935432
-0.0003702323
9.997887e-05
-0.0001324323
-4.16163e-05
-0.0001687019
-0.0001901441
-0.0002780082
-0.0004083068
-0.0003285151
-0.0002496266
-0.0002618765
5.221915e-05
0.0001112355
-0.0001812112
-0.0002373282
0.003435683
-0.003259798
0.0005365233
-0.001408274
0.0003520123
-0.0003050061
0.0001661798
-3.867878e-05
9.802298e-05
3.929167e-05
0.0001777731
0.0001980173
0.0003271261
0.0006257459
0.0008481226
0.0009463119
0.001229564
0.001380822
0.001317378
4.662912e-05
0.002747004
-0.003229122
0.0006807257
-0.001306119
0.0004082923
-0.0002504199
0.0001891066
-2.569026e-05
6.237009e-05
-1.752084e-05
-0.0001109138
-7.234962e-06
-1.076724e-05
5.385697e-05
0.0001042249
0.0001022204
0.0001395294
0.0001153637
-7.089855e-05
-5.784531e-05
0.003842659
-0.003239728
0.0007144739
-0.001237882
0.0004355815
-0.0001967101
0.0002236967
2.748913e-05
0.0001335318
8.741417e-05
0.0001278832
0.0001544574
0.0002174619
0.0002773802
0.0003626015
0.0004116916
0.0005117419
0.0005900169
0.0005819972
-5.183536e-05
0.003820592
-0.003213734
0.0008029503
-0.001126701
0.0004568331
-0.0001550279
0.0002290981
3.541941e-05
0.0001244183
6.870508e-05
7.752219e-05
8.213899e-05
9.351373e-05
9.328721e-05
0.0001065077
4.955153e-05
4.157754e-05
-9.607034e-06
-0.0001128692
-9.532757e-05
0.003524026
-0.003264472
0.0007447114
-0.001095181
0.000423041
-0.0001423555
0.0002183165
4.259504e-05
0.0001317235
8.829525e-05
0.0001135258
0.00011445
0.0001419289
0.0001451473
0.0001989331
0.000171565
0.0003186911
0.0002886244
0.0004795789
-0.0002724679
0.004102052
-0.003377795
0.0007013505
-0.001040809
0.0004044365
-0.0001064952
0.0002111575
4.830627e-05
0.0001274911
8.335294e-05
0.0001013675
8.718465e-05
9.079154e-05
4.104974e-05
1.480049e-05
-0.0002024128
-0.0002106372
-0.0005317898
-0.0004962302
0.0004700789
-0.0006925393
0.0009547721
-0.0009846472
-0.0003008176
-0.001341508
-0.0007696385
-0.0009519068
-0.001448438
-0.001540044
-0.0007995333
-0.0006972928
-0.000109646
-0.000198508
0.002054962
0.001198899
0.0001868334
0.0009311444
-0.0001556671
-1.349158e-05
-8.71162e-05
-0.0001216497
-0.0002428017
-0.0003100577
-0.0005143472
-0.0005607171
-0.001333197
-0.001056314
0.000692705
0.0002427493
-0.0005753239
-0.001087275
-0.0004900228
-0.0005996457
-0.0005445613
-0.0006799271
-0.0007188247
-0.0008210641
-0.0005885534
-0.001015089
-0.0008384646
-0.001077016
0.001454117
0.001497563
-8.078247e-05
0.0004673154
-0.0004003197
-0.0001140624
-0.0003821909
-0.0003136573
-0.0005172775
-0.0004964779
-0.0009020642
-0.001131387
-0.001874457
-0.001999359
0.002142582
0.000963462
-0.0006896376
-0.0002764791
-0.0006017592
-0.0005345722
-0.0007258848
-0.0006654636
-0.0008247758
-0.000878753
-0.001295345
-0.001702502
-0.002470559
-0.002855226
0.00148123
0.0006284698
-0.0008472764
-0.0003213495
-0.00103348
-0.0005425794
-0.0007194327
-0.0005909587
-0.0008463382
-0.001018233
-0.00182538
-0.002340333
-0.00478964
-0.004800971
0.00193113
0.0009489314
-0.0009403375
-0.0005461588
-0.001159461
-0.0007044571
-0.0008992019
-0.0007750462
-0.001140956
-0.00145425
-0.002686785
-0.004265098
-0.00641785
-0.01105229
0.001883087
0.001051632
-0.0009680463
-0.0005272596
-0.001345913
-0.0006942041
-0.0008276839
-0.0006649835
-0.0009476603
-0.001181359
-0.002428095
-0.00221032
-0.01300937
-0.01975341
0.00210929
0.001098809
-0.0009196632
-0.0005651732
-0.001390866
-0.000689743
-0.0009263269
-0.0008080061
-0.001323034
-0.002041626
-0.004262461
-0.008879591
-0.02044225
-0.1213609
-0.0068185
-0.00452971
-0.01259146
0.002258141
0.001286184
-0.001025156
-0.0004680897
-0.001387736
-0.0005849977
-0.0007036409
-0.0004234269
-0.0004994431
-0.0003180773
-0.0001694917
-0.0002535446
-0.0006598179
-0.00705731
0.01957126
0.008594907
0.0004622734
-0.0009252984
0.005128705
-0.004417884
0.002291903
0.001287882
-0.00092306
-0.000471188
-0.001401382
-0.0005523237
-0.0006892187
-0.0004407612
-0.000670463
-0.0006801631
-0.0007839027
-0.001912456
-0.0003372801
0.002626846
0.005289126
0.0008850084
0.0002482936
-0.0001351212
-0.0009767309
0.0001807801
0.00233642
0.001403356
-0.0009781803
-0.0004322111
-0.00135028
-0.0004554087
-0.000518585
-0.0001450996
-9.064291e-05
0.0001508122
0.0007515893
0.0008216048
0.002405469
0.00362885
0.003794171
0.003982215
0.003190804
0.003424009
0.003231399
0.003250828
0.002265314
0.001402685
-0.0009028088
-0.0003987253
-0.001321378
-0.0004256406
-0.0005213703
-0.000194502
-0.0002443084
-0.0001002353
-1.716146e-05
0.0003725521
0.0002500544
0.001612576
0.0004700673
0.0009541396
0.000858781
0.001779765
0.001304111
0.0006906733
0.002329552
0.001427194
-0.0009047604
-0.0003802368
-0.00128332
-0.0003707373
-0.0004457114
-9.472068e-05
-0.0001455489
3.943788e-05
5.851009e-05
0.0005592976
-4.062348e-06
0.001016554
0.00105986
0.001408739
0.001309984
0.002230234
0.002348459
0.002073208
0.002458829
0.001423396
-0.0008897258
-0.0003452836
-0.001243298
-0.000335614
-0.0004216896
-8.839959e-05
-0.0001433233
-1.644437e-05
-1.946214e-05
6.347491e-05
6.375454e-05
0.0002597517
0.0002150776
0.0002795861
0.0004853471
0.000821449
0.0009193193
0.0005760004
0.002613494
0.001423296
-0.0008625172
-0.0003003222
-0.001192261
-0.0002867785
-0.0003680429
-3.493398e-05
-8.352276e-05
5.577512e-05
5.89004e-05
0.0001906343
0.0001868587
0.0003368084
0.0005037929
0.0007631451
0.0008354579
0.001133626
0.001298097
0.001253997
0.002646581
0.001377023
-0.0008116487
-0.0002705161
-0.001128589
-0.0002431915
-0.0003276925
-1.394702e-05
-7.280464e-05
2.980776e-05
1.459444e-05
-1.152461e-05
9.642819e-05
9.253439e-05
0.0001866347
0.0002629456
0.000313351
0.0003778098
0.0003730269
0.000104905
0.002521306
0.001564302
-0.0006948355
-0.0002093609
-0.001062166
-0.0001952609
-0.0002840558
2.219964e-05
-3.240463e-05
7.902357e-05
7.524137e-05
0.0001265274
0.0001617573
0.0002333989
0.0002935449
0.000404216
0.0004797812
0.0006288119
0.0007412073
0.0008412074
0.002455704
0.001699475
-0.0006409364
-0.0002045793
-0.0010193
-0.0001721963
-0.0002643597
3.056077e-05
-2.688612e-05
7.196421e-05
5.903839e-05
8.347715e-05
0.0001026884
0.0001271407
0.0001505051
0.0001914482
0.0001822817
0.0002005064
0.0001723068
-7.626722e-05
0.002327254
0.001630793
-0.0006246747
-0.0002526758
-0.001011376
-0.0001815537
-0.0002670929
2.527391e-05
-2.338313e-05
7.809706e-05
7.176304e-05
0.0001086484
0.0001255424
0.0001677699
0.0001969302
0.000287643
0.0003284034
0.0005954372
0.0007295023
0.001423422
0.002187052
0.001576551
-0.0006470367
-0.0003291549
-0.001003905
-0.0001942309
-0.0002660613
1.877579e-05
-2.233944e-05
7.455818e-05
6.706637e-05
9.765061e-05
0.0001011426
0.000122356
0.0001105248
0.000147535
7.078702e-05
0.0003000638
-0.0002892822
0.0003961854
0.0005252205
0.0003701589
-4.64798e-07
-0.001784976
4.42965e-05
-0.0004127883
-0.0002020398
-0.0001698711
-0.0003001811
-0.0002334142
-0.0003174014
-0.0006700056
-0.0002489929
-0.0002442891
0.000123296
0.000888013
2.639575e-07
0.0005627612
-0.0002645631
-0.0001002487
-0.0002903324
-0.0003336947
-0.0004870193
-0.0005691312
-0.0008590267
-0.0009001709
-0.001182607
-0.001278352
-0.0004807823
0.0002003239
-0.00070048
-0.0004837093
-0.0003104268
-0.000300807
-0.0003759978
-0.0004027588
-0.0004569951
-0.0004855155
-0.0005255762
-0.0007065808
-0.0009467748
-0.0007264048
-0.0005388695
0.0009339814
-0.000372569
0.0003831014
-0.0004799545
-0.0002237645
-0.0004475999
-0.0003914824
-0.000582468
-0.0006312016
-0.00108302
-0.001212129
-0.001843369
-0.001760143
-0.001032638
0.001384658
-0.000165659
0.0001547164
-0.0006493017
-0.0006422438
-0.0007441998
-0.0005855401
-0.0007455143
-0.0008457051
-0.00138775
-0.001689405
-0.002543016
-0.002622703
-0.0006635993
0.002046481
-0.0006923619
-0.0002301994
-0.0008270049
-0.0006640205
-0.0007633029
-0.000635085
-0.0008910826
-0.001097309
-0.001935347
-0.002205674
-0.004338869
-0.003773791
-0.0004871022
0.001480777
-0.0002654108
0.0004354205
-0.001238827
-0.0008890593
-0.0009695906
-0.0007945542
-0.001176092
-0.001592647
-0.002697762
-0.004203624
-0.004718765
-0.007040146
-0.0001580184
0.002221849
-0.001102774
-0.000419457
-0.001066298
-0.0008489447
-0.0008548669
-0.000681406
-0.0009753994
-0.001307703
-0.002495005
-0.002508285
-0.008158459
-0.001087328
-0.0004132102
0.001635948
-0.0006125959
0.0001833099
-0.001186677
-0.0008161959
-0.0009840524
-0.0008359703
-0.001368145
-0.002271643
-0.004645698
-0.00906526
-0.006706041
-0.01226246
-0.008646712
-0.005505119
-0.01119778
-6.36291e-05
0.002170537
-0.0009596362
-4.972474e-05
-0.000954516
-0.0006447682
-0.0007163326
-0.0004376753
-0.0005504015
-0.0004135181
-0.0007794202
-0.0007591802
-0.0014367
0.00034753
0.01648322
0.009941053
0.008361629
0.007247632
0.00259468
0.007294442
-0.0001150958
0.00187425
-0.0007976718
0.0001695917
-0.0009204005
-0.0005645584
-0.0006694906
-0.0004451892
-0.0006089999
-0.0006316836
-0.0007960743
-0.001924241
-0.0004391284
0.002595954
0.004699765
0.0005445233
0.0004700624
0.0004277019
0.0002045919
0.0002649439
-6.459717e-06
0.001914103
-0.0007677219
0.0001960839
-0.0008518249
-0.0004556548
-0.0004956367
-0.0001603725
-0.0001066045
0.0001176754
0.000528917
0.0005508432
0.002222619
0.003377881
0.002889113
0.003761572
0.004141827
0.003902076
0.00326094
0.003766934
2.659333e-05
0.001767357
-0.0006856359
0.0003596665
-0.000804774
-0.0003973018
-0.000473648
-0.0001753726
-0.0002301865
-0.0001086664
-5.235591e-05
0.0002198453
0.0001211605
0.001381784
4.817561e-05
0.0005273707
0.0003318125
0.001088402
0.0005245974
0.0008685717
-8.744926e-05
0.001602896
-0.0006602449
0.0003881466
-0.0007565226
-0.000331967
-0.0003922179
-7.161498e-05
-0.0001370114
9.62458e-06
1.134289e-05
0.0003904642
-9.882397e-05
0.0008274973
0.0007460567
0.0009698801
0.001252214
0.001785771
0.001512213
0.001564381
-7.450875e-05
0.001495812
-0.0005934279
0.0004379428
-0.0007085673
-0.0002878046
-0.000360587
-4.901345e-05
-0.0001059008
-2.678708e-05
-2.814923e-05
-4.049808e-05
2.402986e-05
0.0002011298
7.404264e-05
0.0001427738
0.0002953322
0.0005263328
0.0003805398
0.0003163401
-2.463299e-05
0.001381286
-0.0005541973
0.0004726136
-0.0006562937
-0.0002359574
-0.0003080425
1.870009e-06
-4.999302e-05
4.532715e-05
4.795562e-05
0.0001175567
0.0001151566
0.0002436303
0.0003919061
0.0006094042
0.0006338583
0.0008207927
0.0008237989
0.0008382033
6.795635e-06
0.001280203
-0.0005189092
0.0005064844
-0.0005964986
-0.0001880446
-0.0002676387
2.727186e-05
-3.061708e-05
4.106155e-05
2.633869e-05
-2.335203e-05
7.910052e-05
7.791418e-05
0.0001542205
0.0002117097
0.000218652
0.0002423812
0.0001384641
-4.706105e-05
4.598328e-05
0.001524855
-0.0004855703
0.0005576181
-0.0005434781
-0.0001428138
-0.0002246637
5.900757e-05
6.870263e-06
8.687582e-05
8.358383e-05
0.0001167663
0.0001497729
0.0002144544
0.0002585009
0.0003496914
0.00040141
0.0005214388
0.0005898177
0.0007759072
9.750279e-05
0.001592542
-0.0004674558
0.0005665305
-0.0005018232
-0.0001144234
-0.0001974115
6.831041e-05
1.620893e-05
8.612329e-05
7.602327e-05
9.224217e-05
0.0001092038
0.0001286909
0.0001428721
0.0001685181
0.0001427864
0.0001213193
3.955593e-05
-0.0001193726
0.0001586502
0.001700332
-0.0004649558
0.0005457043
-0.0004830421
-0.0001104153
-0.0001874339
6.664109e-05
2.189504e-05
9.357556e-05
9.00024e-05
0.0001191476
0.0001362416
0.0001768892
0.0002070064
0.0002974289
0.0003609431
0.000595126
0.0007409269
0.00143379
0.0002535371
0.001948412
-0.0005143687
0.000538933
-0.0004436692
-0.0001067012
-0.0001717209
6.512475e-05
2.505181e-05
9.217869e-05
8.781255e-05
0.0001113151
0.0001167053
0.000138493
0.000134591
0.0001737077
0.0001422717
0.0002609939
2.404234e-05
0.0003871846
0.0003762536
0.0001914412
0.0007883734
-0.0002624707
-0.0002072658
-0.001294187
-0.0002092672
-0.0003916853
-0.0006463571
-0.0005612561
-0.0005761925
-0.0003966993
-0.0006269929
-4.697746e-05
-0.0001525992
1.31479e-05
-0.0005822226
0.0004810658
-0.0003755289
-5.02662e-05
-0.000321639
-0.0003087232
-0.0004323879
-0.0004952513
-0.0006103438
-0.0007678366
-0.0008537233
-0.0006738468
-0.0004392234
-0.0001241729
-0.000118562
-7.785075e-05
-0.0004151222
-0.0005887207
-0.0003757255
-0.0004473075
-0.0005410624
-0.00062209