/*--------------------------------*- C++ -*----------------------------------*\
  =========                 |
  \\      /  F ield         | OpenFOAM: The Open Source CFD Toolbox
   \\    /   O peration     | Website:  https://openfoam.org
    \\  /    A nd           | Version:  7
     \\/     M anipulation  |
\*---------------------------------------------------------------------------*/
FoamFile
{
    version     2.0;
    format      ascii;
    class       volScalarField;
    location    "0.01";
    object      p;
}
// * * * * * * * * * * * * * * * * * * * * * * * * * * * * * * * * * * * * * //

dimensions      [0 2 -2 0 0 0 0];

internalField   nonuniform List<scalar> 
109978
(
0.5524362
0.55023
0.5450743
0.5402648
0.5353145
0.5308708
0.5543168
0.5521052
0.5491396
0.5447307
0.5387819
0.5322219
0.5589061
0.5544966
0.5515091
0.5473187
0.5408827
0.5343204
0.5630798
0.55818
0.55498
0.5507597
0.5444823
0.5379843
0.5672479
0.5632547
0.5605251
0.5561746
0.5498101
0.5435943
0.5707069
0.5687893
0.5660492
0.5615763
0.5550189
0.5486524
0.5748467
0.5746095
0.5721401
0.5676066
0.5610095
0.5546195
0.5789558
0.5808072
0.5784848
0.5739664
0.5673824
0.5608053
0.5837868
0.5873656
0.5852979
0.5807375
0.5741518
0.5675289
0.588828
0.594358
0.5924637
0.5879053
0.5812977
0.5746571
0.5946718
0.6017272
0.6001023
0.5954525
0.5888398
0.5821825
0.6011073
0.6095333
0.608252
0.6034012
0.5967778
0.5901063
0.6080455
0.6177326
0.6167923
0.6118373
0.6051084
0.5984062
0.6154908
0.626354
0.6257142
0.6205841
0.6138101
0.6071055
0.6233221
0.6354641
0.6351163
0.6300413
0.6228949
0.6162059
0.631534
0.6449565
0.6448634
0.6398508
0.6324519
0.6257289
0.6402911
0.6549055
0.6550272
0.6501005
0.6423646
0.6356493
0.649419
0.6652951
0.6656332
0.6607928
0.6529069
0.6459437
0.6591917
0.6760463
0.6767125
0.6719026
0.6639411
0.6566708
0.6694714
0.6870315
0.6881606
0.6834365
0.6753809
0.6678663
0.6802223
0.6984172
0.7000825
0.6954333
0.6872905
0.6793264
0.6912884
0.7102021
0.7123805
0.7078953
0.6996195
0.6915539
0.5994716
0.7224516
0.7251656
0.7206663
0.7123174
0.7041612
0.5496681
0.5439035
0.5397661
0.5354136
0.5303683
0.5249188
0.5554481
0.5523431
0.5496419
0.5466562
0.5450898
0.543315
0.5608059
0.5547817
0.5520214
0.5526456
0.5514187
0.548374
0.5643389
0.5572263
0.5507975
0.5513989
0.5494701
0.5463957
0.5680332
0.5581536
0.5513138
0.5526974
0.5507556
0.5477534
0.5722746
0.5591285
0.5534652
0.554977
0.5529432
0.54991
0.5768157
0.5587474
0.5553556
0.556108
0.5540001
0.5510242
0.5816028
0.559442
0.5581661
0.5584744
0.5564501
0.5535751
0.5871383
0.5611752
0.5608303
0.5609143
0.5588718
0.556052
0.5930103
0.5640386
0.5636551
0.5639247
0.5618242
0.5590625
0.5996654
0.5678418
0.5667392
0.5674461
0.5651789
0.5624223
0.6061936
0.5716083
0.5702458
0.5712334
0.5689031
0.566154
0.6134728
0.5756993
0.5743659
0.5754009
0.573049
0.5702744
0.6217463
0.579333
0.5787126
0.5799507
0.5775791
0.5747867
0.6295779
0.5846674
0.5835908
0.5849048
0.5825437
0.5796993
0.6377178
0.5899667
0.5888055
0.5902075
0.5878284
0.5849948
0.6462677
0.5957844
0.5945107
0.5959761
0.5935586
0.5907036
0.6551718
0.6019627
0.6006185
0.6021255
0.5997219
0.5968477
0.6645749
0.608548
0.6071248
0.6086775
0.606282
0.6033722
0.6743919
0.6155598
0.6140297
0.6156213
0.6132238
0.6102355
0.6847697
0.6230036
0.6213684
0.6230007
0.6205852
0.61754
0.6954989
0.630815
0.6290825
0.6307658
0.6283703
0.6252775
0.7067502
0.6390359
0.6372119
0.63894
0.6365428
0.6334022
0.5819595
0.6476002
0.6456737
0.6474638
0.6450989
0.6419288
0.5492619
0.5416608
0.5364045
0.531754
0.5258668
0.5194669
0.5556951
0.5523322
0.5484743
0.5452471
0.5442736
0.5424672
0.5630628
0.5559501
0.5520971
0.5537202
0.5521741
0.5492378
0.5676116
0.5586383
0.5495603
0.5512487
0.5488315
0.5456204
0.5716959
0.5590872
0.5504105
0.5530616
0.5506985
0.5477793
0.5768031
0.5600434
0.5526228
0.5556778
0.552852
0.549893
0.5822288
0.5593768
0.5545555
0.556726
0.5537933
0.5509863
0.5885529
0.5601351
0.5578023
0.5592493
0.5563936
0.5537273
0.5954269
0.5621718
0.5605848
0.5617007
0.5587886
0.5562292
0.6026239
0.5650756
0.5634646
0.5647448
0.5617648
0.5592526
0.6101
0.5688376
0.5664679
0.5682793
0.565097
0.5626091
0.6177823
0.5726848
0.5699523
0.5721612
0.5688488
0.566349
0.6269312
0.5767581
0.57409
0.5763929
0.5730105
0.5704992
0.6352748
0.581236
0.578667
0.5809496
0.5775853
0.5750213
0.6443864
0.5855801
0.5835449
0.5858562
0.5825055
0.5799573
0.6542464
0.589977
0.5885481
0.5911291
0.5878385
0.5852782
0.6634332
0.5962038
0.5941827
0.5968718
0.5935749
0.5910263
0.6732021
0.6026207
0.6002992
0.6030391
0.5997249
0.5971571
0.6834295
0.6093452
0.6068317
0.6096374
0.6062748
0.6037278
0.6943025
0.6164034
0.6137678
0.6166341
0.6132412
0.610697
0.7055513
0.6238666
0.6210921
0.6240463
0.6205947
0.6180715
0.7174256
0.6317083
0.6288263
0.6318499
0.6283646
0.6258071
0.7295751
0.6399877
0.6369604
0.6400719
0.6365137
0.6339666
0.742191
0.6486603
0.6455276
0.6486869
0.6450833
0.6424889
0.5499289
0.5400331
0.5338394
0.5286944
0.5223195
0.5163092
0.5551246
0.5523547
0.5477726
0.5436189
0.5425112
0.5407142
0.5645589
0.5566212
0.552105
0.5537476
0.5526614
0.5493227
0.5701797
0.5603178
0.549517
0.5511701
0.5494295
0.5456139
0.5746476
0.5610631
0.5499367
0.552219
0.5506519
0.5472979
0.5802642
0.5618809
0.5525149
0.5556091
0.5532716
0.5498561
0.5853866
0.5606173
0.5540438
0.5564399
0.5538828
0.5506339
0.5911088
0.5610313
0.5573517
0.5590879
0.5565353
0.5534779
0.5980548
0.5628633
0.5600815
0.5615047
0.558875
0.5559287
0.6057356
0.5658842
0.5629398
0.5645779
0.5618465
0.5589728
0.6133409
0.569858
0.5659705
0.5681156
0.5652048
0.5623264
0.621092
0.5740454
0.5694616
0.5720147
0.5689537
0.5660674
0.630508
0.5781211
0.5736236
0.5762216
0.5731254
0.5702023
0.6400866
0.5826398
0.5782422
0.5807874
0.5776885
0.5747185
0.6496129
0.5873316
0.583222
0.5856878
0.5826178
0.5796383
0.6608116
0.5911801
0.5881532
0.5909262
0.5879074
0.5849417
0.6702661
0.5974416
0.5937852
0.5966696
0.5936343
0.5906627
0.6803882
0.6039311
0.5998927
0.6028435
0.599772
0.5967997
0.6910599
0.6106798
0.6064328
0.6094379
0.6063303
0.6033302
0.7024268
0.6177683
0.6133671
0.6164357
0.6132902
0.6102634
0.7141417
0.6252348
0.6207231
0.6238556
0.6206787
0.6176192
0.7265284
0.633095
0.6284755
0.6316736
0.6284714
0.6253862
0.7391813
0.6413616
0.6366379
0.6399029
0.6366918
0.6335716
0.7526258
0.6500078
0.6451697
0.6485104
0.6452893
0.6421358
0.5502073
0.540116
0.5342096
0.5292754
0.5219254
0.5147092
0.554931
0.5523974
0.5474952
0.5432049
0.5422162
0.5402749
0.5644693
0.5570159
0.5521504
0.5541238
0.5531517
0.5495499
0.5699107
0.5608272
0.5491601
0.5511612
0.5494653
0.5454243
0.5741543
0.5615008
0.5494432
0.5521135
0.5506413
0.5471928
0.5806313
0.562377
0.5523877
0.5558112
0.5533711
0.5498585
0.5871221
0.5611571
0.5536045
0.5565716
0.5538852
0.5505599
0.5930183
0.5615719
0.5569539
0.5592668
0.5565724
0.5534703
0.5995714
0.5634232
0.5596684
0.5616788
0.5588911
0.5559048
0.6072833
0.5664631
0.5624931
0.5647618
0.5618595
0.5589741
0.6149035
0.5705805
0.5654781
0.5683155
0.5652161
0.5623194
0.6233638
0.5748916
0.5689571
0.572233
0.5689698
0.5660784
0.6345716
0.5789074
0.5730856
0.5764501
0.5731445
0.5702001
0.643906
0.583341
0.5776949
0.5810194
0.5777133
0.5747413
0.6534991
0.5880239
0.5826544
0.5859335
0.5826445
0.5796471
0.6644758
0.5919142
0.5876098
0.5911704
0.5879376
0.5849685
0.6741994
0.5981793
0.5932471
0.5969144
0.5936596
0.5906822
0.6843393
0.6046021
0.5993508
0.6030867
0.5997991
0.5968109
0.695352
0.6113312
0.6058762
0.6096812
0.6063481
0.6033395
0.7066862
0.6184006
0.6127997
0.6166771
0.6133035
0.6102663
0.7186895
0.6258801
0.6201357
0.6240844
0.6206624
0.6175807
0.7309857
0.6337346
0.6278726
0.6318743
0.6283982
0.6252536
0.7439003
0.6419895
0.6360208
0.6400743
0.6365512
0.6333275
0.5422825
0.6506539
0.6445475
0.6486333
0.6450316
0.6416553
0.5502772
0.5401886
0.5343578
0.5293728
0.521949
0.5144002
0.5548707
0.5524042
0.5474999
0.5432065
0.5422168
0.5402779
0.5646358
0.5570124
0.5521504
0.5541206
0.5531477
0.5495479
0.5698047
0.5608175
0.5491438
0.5511451
0.5494584
0.5454176
0.5740637
0.5614801
0.5494186
0.5520966
0.5506336
0.5471844
0.5805119
0.5623463
0.5523336
0.5557934
0.5533613
0.5498474
0.5873653
0.5611233
0.5535787
0.5565592
0.5538751
0.5505606
0.5935533
0.5615452
0.5569402
0.5592588
0.5565685
0.5534626
0.600175
0.5634068
0.5596602
0.561676
0.558883
0.5559122
0.6077246
0.5664681
0.5624912
0.5647626
0.5618617
0.5589629
0.6157138
0.5706283
0.5654813
0.5683216
0.5652136
0.5623304
0.6246657
0.5750027
0.5689667
0.5722416
0.5689783
0.5660658
0.6359101
0.5790147
0.5730991
0.5764591
0.5731441
0.5702124
0.6450784
0.5834558
0.5777093
0.5810279
0.5777237
0.5747238
0.654362
0.5881443
0.5826722
0.5859443
0.5826459
0.5796557
0.6653711
0.5920854
0.5876375
0.5911845
0.5879513
0.5849555
0.6750757
0.5983364
0.5932804
0.5969343
0.5936769
0.5906914
0.6852501
0.6047511
0.5993926
0.603117
0.5998296
0.5968298
0.6960987
0.6114601
0.6059287
0.6097267
0.6063998
0.6033869
0.7075518
0.6185296
0.6128709
0.6167447
0.6133838
0.610349
0.7195911
0.6260043
0.6202282
0.6241906
0.6208006
0.6177498
0.7321757
0.6338807
0.6279979
0.6320402
0.6286316
0.6255535
0.7452538
0.6421801
0.6361994
0.640351
0.6369498
0.6338677
0.5428195
0.6508628
0.6447853
0.6490325
0.6456201
0.6425125
0.5500355
0.5400211
0.5340042
0.5288951
0.5217358
0.5150035
0.5551209
0.5523593
0.5477787
0.5436173
0.5425073
0.5407188
0.5645269
0.556615
0.5521056
0.5537512
0.5526635
0.5493218
0.5701245
0.5603071
0.5495232
0.551176
0.5494356
0.5456136
0.5745923
0.5610528
0.5499441
0.552228
0.5506601
0.5473045
0.580872
0.56188
0.5525208
0.55562
0.5532799
0.5498617
0.5869658
0.5606309
0.554054
0.5564506
0.5538896
0.5506416
0.5922395
0.5610418
0.5573602
0.559099
0.5565445
0.5534823
0.5988203
0.562879
0.5600883
0.5615146
0.5588792
0.555933
0.6063894
0.5658895
0.5629357
0.5645826
0.5618496
0.5589757
0.6136408
0.5698739
0.5659565
0.5681182
0.5651993
0.5623265
0.6217035
0.5740451
0.5694372
0.572012
0.5689475
0.5660664
0.6318389
0.5781131
0.5735865
0.5762133
0.5731108
0.5701963
0.6412189
0.5826197
0.5781933
0.5807722
0.5776723
0.5747114
0.6509275
0.5873233
0.5831657
0.5856682
0.5825936
0.5796233
0.6621347
0.5911712
0.5880941
0.5909032
0.5878781
0.5849267
0.6720033
0.5974422
0.5937231
0.5966386
0.5935958
0.5906319
0.682157
0.6039193
0.5998237
0.6028106
0.5997237
0.5967537
0.6931629
0.6106739
0.6063625
0.6093912
0.6062652
0.6032561
0.7044567
0.6177393
0.6132932
0.6163794
0.613197
0.6101498
0.7166482
0.6252205
0.6206561
0.6237742
0.6205491
0.6174371
0.7290432
0.6330758
0.6283925
0.6315372
0.6282261
0.6250198
0.7420919
0.6413663
0.6365815
0.6397553
0.6364442
0.6331763
0.5426788
0.6500077
0.6450514
0.6481633
0.6446729
0.6410887
0.549467
0.5403963
0.534789
0.5299397
0.5242815
0.5182149
0.5555686
0.5523428
0.5484786
0.5452481
0.5442709
0.5424723
0.5642104
0.5559566
0.552109
0.5537297
0.5521835
0.5492431
0.5692065
0.5586464
0.5495759
0.5512562
0.5488371
0.5456297
0.5735428
0.5590853
0.5504277
0.553067
0.5507093
0.5477856
0.5784541
0.5600306
0.5526425
0.5556867
0.5528623
0.549908
0.5836201
0.5593727
0.5545733
0.5567328
0.55381
0.550994
0.5894406
0.5601374
0.5578231
0.5592629
0.556403
0.5537461
0.5962412
0.5621882
0.5605996
0.5617115
0.5588037
0.5562327
0.6035317
0.5650909
0.5634743
0.5647593
0.5617655
0.5592592
0.6113131
0.5688729
0.5664707
0.5682904
0.5651083
0.5626031
0.6188511
0.5727332
0.5699557
0.5721749
0.5688473
0.5663603
0.6276377
0.5768271
0.5740863
0.5764017
0.5730168
0.5704869
0.6364542
0.5812943
0.578656
0.580956
0.577574
0.5750246
0.6459811
0.585665
0.5835272
0.585859
0.5825034
0.5799361
0.6567455
0.5900449
0.588532
0.5911356
0.5878252
0.5852715
0.6661113
0.596286
0.5941619
0.5968772
0.593571
0.5910107
0.6758919
0.6026999
0.6002841
0.6030482
0.599719
0.5971608
0.6864072
0.6094296
0.6068203
0.6096546
0.6062864
0.6037379
0.6974319
0.6164856
0.6137766
0.6166672
0.6132624
0.6107271
0.7090917
0.6239696
0.6211295
0.624115
0.6206603
0.6181276
0.7211006
0.6318148
0.628909
0.6319593
0.6284319
0.6258681
0.7336814
0.6401247
0.6371392
0.640292
0.6366419
0.6339744
0.5527362
0.64883
0.6458125
0.6490825
0.6453118
0.6425652
0.5491645
0.5436191
0.5395794
0.5352695
0.5299709
0.5242055
0.5558943
0.552347
0.5496376
0.5466412
0.5450765
0.5433135
0.561072
0.5547654
0.5520195
0.5526434
0.5514129
0.548363
0.5645422
0.5572186
0.5507946
0.551394
0.5494641
0.5463919
0.5681909
0.5581491
0.5513143
0.5527011
0.5507499
0.5477511
0.5727271
0.559132
0.5534694
0.5549802
0.5529403
0.5499061
0.5776209
0.5587547
0.5553616
0.5561097
0.5539936
0.5510199
0.5833372
0.5594498
0.5581718
0.5584761
0.5564471
0.5535655
0.5891802
0.561195
0.560836
0.5609178
0.5588636
0.5560494
0.5952199
0.5640412
0.5636534
0.5639257
0.5618219
0.5590618
0.6016058
0.5678571
0.5667371
0.5674475
0.5651677
0.5624203
0.6081273
0.5716096
0.5702417
0.5712317
0.5688957
0.5661413
0.6158337
0.5757139
0.5743594
0.5753999
0.5730326
0.5702655
0.6244235
0.579334
0.5786972
0.5799471
0.5775673
0.5747687
0.6324733
0.5846774
0.583576
0.5849009
0.582523
0.5796851
0.6411135
0.5899637
0.5887934
0.5901991
0.5878104
0.5849735
0.649755
0.5957829
0.5944978
0.5959673
0.5935312
0.5906772
0.6588024
0.6019691
0.6006095
0.6021211
0.5996928
0.5968099
0.6683686
0.608568
0.607118
0.6086706
0.6062492
0.60333
0.6784454
0.6155748
0.6140236
0.6156113
0.6131775
0.6101703
0.6890167
0.623042
0.6213816
0.623016
0.6205701
0.6175328
0.700045
0.6308682
0.6291067
0.6307479
0.6282261
0.6250942
0.7115351
0.6391538
0.6373666
0.6391676
0.6367783
0.634063
0.5785856
0.647706
0.6457
0.6473845
0.6445301
0.6415487
0.5505114
0.5467593
0.5427008
0.5383036
0.533231
0.5275275
0.5545655
0.552441
0.5500978
0.5465709
0.5431763
0.5390813
0.5347134
0.5580255
0.5544484
0.5520959
0.5486196
0.5443248
0.5389436
0.5330375
0.5615621
0.5574578
0.5549985
0.5515081
0.5468953
0.5411742
0.5351297
0.5652082
0.5602338
0.5586058
0.555409
0.55076
0.5449966
0.5389591
0.5693363
0.5634998
0.5631444
0.5602826
0.5556586
0.5498362
0.5437971
0.5738375
0.5669045
0.5680804
0.5653307
0.5606712
0.5548425
0.5487541
0.5790035
0.5708005
0.5734402
0.5709097
0.5662841
0.5604698
0.5543852
0.5849115
0.5751849
0.5789736
0.5767336
0.5722077
0.5664039
0.5602767
0.5900608
0.5801033
0.5848845
0.5829596
0.5785285
0.5727398
0.5665663
0.5958999
0.5853696
0.5911475
0.5895747
0.5852387
0.5794562
0.5732606
0.602102
0.591041
0.5978164
0.596511
0.5923128
0.5865629
0.5803462
0.6090379
0.5971997
0.6049743
0.6039191
0.5997957
0.594072
0.5878329
0.6166033
0.6036875
0.6124631
0.6117123
0.6076583
0.6019714
0.5957039
0.6241684
0.6106076
0.6203702
0.6198856
0.6158863
0.6102511
0.6039792
0.6316798
0.617889
0.6287209
0.6284626
0.6244537
0.6189076
0.6126582
0.6398404
0.6255628
0.637487
0.6375111
0.633575
0.6280075
0.6217547
0.6481494
0.6336242
0.6466678
0.6469567
0.6430992
0.6375198
0.6312694
0.6568787
0.6421278
0.6562852
0.6568501
0.6530055
0.6473803
0.6411554
0.6660731
0.6511301
0.6663496
0.6671978
0.6633514
0.65768
0.6514726
0.6756713
0.660603
0.6768046
0.6779552
0.6741442
0.6684754
0.6622218
0.6856806
0.6704865
0.6876719
0.6891015
0.6852954
0.6796188
0.6733031
0.6962401
0.6808158
0.6990031
0.7006901
0.6968765
0.6911881
0.6847433
0.7070272
0.5996611
0.5732804
0.5606718
0.5526186
0.5451086
0.5385531
0.5526228
0.5531769
0.5519315
0.5525733
0.5477961
0.5538526
0.5505025
0.5561781
0.5498127
0.5522111
0.5446691
0.5555026
0.5467351
0.5584287
0.5466099
0.5522962
0.5408608
0.5562595
0.5426622
0.5608658
0.5441325
0.5521705
0.5368003
0.5560205
0.5382794
0.5622668
0.5409258
0.55122
0.5316018
0.5547658
0.5332013
0.5622905
0.5370046
0.5494903
0.5255154
0.5275109
0.5323583
0.5572984
0.550991
0.5545607
0.555219
0.5487841
0.5526743
0.560111
0.5488948
0.5580085
0.5581006
0.5462365
0.5521428
0.5633752
0.5474284
0.5615319
0.5600517
0.5428467
0.5516762
0.5667961
0.5468543
0.5651706
0.5626032
0.5405423
0.5518516
0.5711553
0.547101
0.5692633
0.5656801
0.5391441
0.5525262
0.5762186
0.5476998
0.5737642
0.5693572
0.5382601
0.5539086
0.5818526
0.5485328
0.5789293
0.5736019
0.5385618
0.5556365
0.5872852
0.5488492
0.5848828
0.5780177
0.5388213
0.557905
0.5931767
0.549593
0.5900616
0.5827557
0.5391538
0.5603472
0.5991832
0.5505982
0.5958689
0.587813
0.5396944
0.5631549
0.6056402
0.5521629
0.6021317
0.5932903
0.5408014
0.5662594
0.6126311
0.5542846
0.6090327
0.5993267
0.5426042
0.569889
0.6201535
0.5568436
0.6165756
0.6061348
0.5445065
0.5738082
0.6278832
0.5598423
0.6241181
0.6126415
0.5467741
0.5778401
0.6359226
0.5631817
0.6316964
0.6195109
0.5492933
0.5821269
0.6442623
0.5667653
0.6397519
0.6267006
0.5523946
0.5866607
0.6529576
0.5707994
0.6480602
0.6342912
0.5556435
0.5916876
0.6621014
0.5753334
0.6568509
0.6423248
0.5593435
0.5973222
0.6717628
0.5803048
0.6659787
0.6508596
0.5634138
0.6033689
0.6818716
0.585711
0.6757012
0.659802
0.5681217
0.6097908
0.6924128
0.5914862
0.6856505
0.6692131
0.5729664
0.6166039
0.7033253
0.5976449
0.6961194
0.6790452
0.5784525
0.6238362
0.7146069
0.6015727
0.7067809
0.6893193
0.5842711
0.6314251
0.5524716
0.5526861
0.5526039
0.5523835
0.5527639
0.5525631
0.552407
0.5527442
0.5526189
0.5526575
0.5525075
0.552569
0.5528193
0.5524249
0.5526366
0.5528677
0.5524869
0.5526156
0.5528853
0.552437
0.5526106
0.5528401
0.552457
0.5526066
0.5528282
0.5524571
0.5526039
0.5528671
0.552443
0.5525989
0.5528185
0.5524758
0.5526106
0.552799
0.5524287
0.552629
0.5526696
0.5525003
0.5525717
0.5524347
0.5526976
0.5526049
0.5523528
0.5527356
0.5525737
0.5524485
0.5526704
0.5525972
0.5531742
0.5519283
0.5525701
0.5526032
0.5561752
0.5498151
0.5522104
0.5477888
0.5538586
0.5584619
0.5466222
0.5523074
0.5446663
0.5555085
0.56233
0.5409343
0.5512323
0.5368132
0.55603
0.5623686
0.5370171
0.5495039
0.5316151
0.5547746
0.5323612
0.5255241
0.5552199
0.5487663
0.552684
0.5572948
0.5510003
0.5581195
0.5461381
0.552165
0.5601237
0.5488988
0.5626372
0.540595
0.5518737
0.5668284
0.546898
0.5693954
0.5383745
0.5539434
0.57627
0.5477721
0.5736408
0.5387161
0.5556619
0.5818831
0.5485381
0.5780637
0.538875
0.5579201
0.5873222
0.5488722
0.582774
0.5392663
0.5603556
0.5931623
0.5495896
0.5878361
0.5397979
0.5631572
0.5991919
0.5506396
0.5932934
0.540889
0.5662635
0.6056098
0.5521385
0.5993319
0.5426023
0.5699055
0.6126419
0.5543289
0.6061286
0.544604
0.5738086
0.6201199
0.5568381
0.6126628
0.5468191
0.5778293
0.62788
0.5598073
0.6195263
0.5493034
0.5821408
0.6359118
0.5631743
0.634287
0.555722
0.5917155
0.6529677
0.5707946
0.6423238
0.5593023
0.597367
0.6621319
0.5753685
0.6508586
0.5635198
0.6033863
0.671764
0.5802779
0.6598396
0.5680419
0.60983
0.6819029
0.5856634
0.6791025
0.5785017
0.6239328
0.7034107
0.5977313
0.6894067
0.5843985
0.6316194
0.7147059
0.615431
0.5526393
0.5526812
0.552157
0.555186
0.5539019
0.5518615
0.5520831
0.5567283
0.5555078
0.5510345
0.5531364
0.559488
0.5577282
0.5515428
0.5542635
0.5625824
0.5605279
0.5519193
0.5558205
0.5659463
0.5636506
0.5528288
0.5576987
0.5696266
0.5671948
0.5540627
0.5600114
0.5736369
0.5708417
0.5558452
0.5624636
0.5778885
0.5748118
0.5579107
0.5650286
0.5823511
0.5786935
0.5602204
0.567981
0.5872079
0.5829875
0.562821
0.5713618
0.5923108
0.5877249
0.5658675
0.5752506
0.5979082
0.5930125
0.5694681
0.5795172
0.6039926
0.5988039
0.5733658
0.583989
0.6103852
0.6047642
0.5776258
0.5887906
0.6170724
0.611114
0.5822093
0.5939819
0.6240967
0.6177824
0.5872048
0.5995051
0.6314077
0.6248089
0.5925024
0.6054884
0.63917
0.6322166
0.5983199
0.6118992
0.6473421
0.6400981
0.6045258
0.6188078
0.655997
0.6484712
0.6112506
0.6260547
0.664992
0.6572829
0.6182625
0.6337628
0.6744018
0.6664899
0.6257367
0.6418494
0.6840897
0.6761487
0.6335441
0.5526974
0.552684
0.5528422
0.5527462
0.552751
0.5527764
0.5527249
0.5527006
0.5525725
0.5526795
0.552667
0.5527524
0.5527384
0.5527837
0.5527146
0.5527902
0.5526512
0.5526938
0.5609388
0.5441403
0.552181
0.5408723
0.5562754
0.5600833
0.5428617
0.5516962
0.5634094
0.5474532
0.565725
0.5392228
0.5525688
0.571196
0.5471519
0.6266998
0.552408
0.5866802
0.6442739
0.5667789
0.6692536
0.5729641
0.6166761
0.6924704
0.5915355
0.5534638
0.5521114
0.5521719
0.5542344
0.5526522
0.5526808
0.5541746
0.5511505
0.5519104
0.5553544
0.5554681
0.5511052
0.5521675
0.5571348
0.5576017
0.5514685
0.5535309
0.5601553
0.5597672
0.5519035
0.5547639
0.5628878
0.562483
0.5527148
0.5563733
0.5661732
0.5656194
0.553891
0.5584623
0.5700126
0.5692501
0.5554241
0.560735
0.5741543
0.5729648
0.5572528
0.5632121
0.5785916
0.5768966
0.5594397
0.5658667
0.5831545
0.5811489
0.5619427
0.5689234
0.5880663
0.5858614
0.5648932
0.5724836
0.5933407
0.5911185
0.568408
0.5765873
0.5992181
0.5966029
0.5722209
0.5808993
0.6053269
0.6024908
0.5764084
0.585539
0.6117714
0.6086977
0.58092
0.5905522
0.6184454
0.6152963
0.5857872
0.5959016
0.6255292
0.62223
0.5910181
0.6016494
0.6329001
0.62965
0.5967325
0.6078093
0.6408149
0.6374983
0.6029217
0.614453
0.6491098
0.6458489
0.6095916
0.6215076
0.6579253
0.654529
0.6166141
0.6290538
0.6669803
0.6637155
0.6240104
0.6369658
0.6765294
0.673274
0.6237764
0.6864277
0.6454438
0.552719
0.5527373
0.5528405
0.5527668
0.552685
0.5527311
0.5526968
0.5526411
0.5526501
0.5526911
0.5527155
0.552714
0.5527793
0.5527376
0.5527215
0.552662
0.552641
0.5526801
0.5517665
0.553086
0.5530196
0.5510176
0.5492286
0.5410282
0.5431484
0.5514985
0.5435127
0.5510189
0.5482772
0.5404404
0.5521552
0.5551856
0.5539004
0.5518616
0.5541727
0.5511425
0.5518852
0.5553562
0.5520656
0.5567228
0.555501
0.5510241
0.5554583
0.551111
0.5521624
0.5571238
0.5598013
0.5519317
0.5547851
0.5629344
0.5577424
0.569667
0.5672374
0.5541139
0.5656689
0.5539399
0.5585026
0.5700661
0.5600592
0.5736865
0.5708955
0.5559155
0.5692986
0.5554854
0.5607906
0.5742114
0.5624912
0.5779168
0.5748712
0.5579456
0.5730004
0.5572892
0.5632381
0.5785926
0.5650573
0.5823834
0.5787399
0.5602563
0.5769302
0.5594771
0.5659034
0.5831807
0.5679884
0.5872188
0.5830316
0.5628216
0.5811641
0.5619691
0.5689317
0.5880339
0.5713844
0.5923293
0.5877566
0.5659007
0.5752478
0.5979011
0.5930195
0.5694797
0.5911224
0.5684268
0.5765616
0.5991953
0.5795465
0.6040139
0.5988213
0.5734122
0.5966335
0.5722699
0.5809509
0.6053716
0.6222184
0.591011
0.6015997
0.6329032
0.6054636
0.6391301
0.6321969
0.5982928
0.6296298
0.5967189
0.6077618
0.6407879
0.633817
0.674498
0.6665413
0.6258242
0.6637789
0.624089
0.6370318
0.6766184
0.6419396
0.684203
0.6762443
0.6336716
0.6733666
0.6320616
0.6865619
0.645577
0.7182376
0.7135215
0.7179972
0.7000106
0.7001945
0.6969728
0.7002093
0.6862877
0.6943829
0.6864725
0.5526511
0.5526557
0.5520103
0.5549021
0.5544514
0.5518279
0.5513681
0.5570858
0.5561899
0.5509167
0.5516617
0.5599437
0.5585776
0.5508422
0.5519346
0.563017
0.5612388
0.5508915
0.5524856
0.5663965
0.564157
0.5512227
0.5535707
0.570222
0.567544
0.5519727
0.5551984
0.5744628
0.5713532
0.5532482
0.5572804
0.5790067
0.575463
0.554914
0.559707
0.5838085
0.5798147
0.5569046
0.5624977
0.5889384
0.5845159
0.5592619
0.56574
0.5945052
0.5896453
0.5620605
0.5694775
0.6005795
0.5952946
0.5653719
0.5736761
0.6071486
0.601435
0.5691659
0.5781689
0.6139735
0.6078415
0.5732326
0.5830258
0.6211756
0.614623
0.5777017
0.5882676
0.6287303
0.6217611
0.5825436
0.5938663
0.6366586
0.6292626
0.5877706
0.5999082
0.6449716
0.6371622
0.5933694
0.6064161
0.6537645
0.6455365
0.599471
0.6133679
0.662984
0.654351
0.6060017
0.6207385
0.6726509
0.6636059
0.6130226
0.6285514
0.6827147
0.6732602
0.6204422
0.636737
0.6931492
0.6832928
0.6282376
0.5526234
0.5527485
0.5526356
0.5526958
0.5527691
0.5527781
0.5526936
0.552727
0.5527301
0.552757
0.5527073
0.5528729
0.5527157
0.5527696
0.5526665
0.5527032
0.5525658
0.5525938
0.5537407
0.5513205
0.5517166
0.5541325
0.5526266
0.552507
0.5546338
0.5499916
0.5505921
0.5559177
0.5565194
0.5494009
0.5503409
0.5584332
0.5587445
0.549083
0.5504093
0.5613381
0.5609783
0.5490951
0.5506546
0.5644219
0.5638089
0.5496251
0.5514157
0.5680053
0.5670267
0.5505008
0.5526179
0.5716993
0.5706527
0.5517707
0.5542072
0.5759231
0.5745055
0.553302
0.5560571
0.580383
0.5786742
0.5551722
0.5582505
0.5851708
0.583286
0.5574668
0.5608713
0.5902496
0.5883983
0.5602939
0.5640145
0.5958605
0.5940701
0.5636586
0.5677101
0.6019609
0.6000342
0.5673199
0.5717055
0.6083975
0.6063464
0.571356
0.5760592
0.6151843
0.6130156
0.5757739
0.5807867
0.6223197
0.6200387
0.5805661
0.5858741
0.6298152
0.6274509
0.5857752
0.5913815
0.6377019
0.6353157
0.5914504
0.5973416
0.6460539
0.6436486
0.5976035
0.6037824
0.6548775
0.6524067
0.6041882
0.6106411
0.6641052
0.6615819
0.6112248
0.6179486
0.6737402
0.6711345
0.6186393
0.6256367
0.6837499
0.633844
0.6265825
0.6811622
0.6942155
0.5525889
0.5526963
0.5527899
0.5527688
0.5526682
0.5527389
0.552639
0.5527922
0.5527357
0.5527647
0.5527791
0.5527569
0.5528373
0.552739
0.5526773
0.552706
0.5526509
0.5526522
0.5534613
0.5521127
0.5521702
0.5542303
0.5529322
0.5499669
0.5512188
0.553204
0.5508267
0.5537483
0.553111
0.5496308
0.5526851
0.548125
0.5493503
0.5536812
0.5491736
0.5533117
0.5523517
0.5475299
0.5517892
0.540843
0.5425659
0.5528796
0.542279
0.5540813
0.5524893
0.5388875
0.5467704
0.536864
0.5392456
0.5496186
0.5398511
0.5492007
0.5456815
0.5362499
0.5438749
0.5322178
0.5347288
0.5520086
0.5549
0.5518229
0.5544475
0.5546326
0.5499824
0.5505877
0.5559238
0.5513611
0.5570855
0.5509168
0.5561801
0.5565456
0.5494197
0.5503682
0.558453
0.5542906
0.5626314
0.5605619
0.5519464
0.567077
0.5505412
0.5526612
0.5717469
0.5552388
0.5745026
0.553287
0.5714006
0.5707057
0.5518191
0.5542548
0.5759657
0.5745342
0.5533258
0.5560865
0.5803898
0.5597318
0.5838247
0.5569319
0.5798432
0.5657409
0.594504
0.5620674
0.5896502
0.5858863
0.5649077
0.5725289
0.5933746
0.5694962
0.600597
0.5653968
0.5953082
0.5940711
0.5636529
0.5677132
0.6019573
0.5839994
0.6103828
0.6048263
0.5775881
0.6024874
0.5763903
0.585608
0.6117028
0.5888123
0.6170406
0.6111375
0.582186
0.6087061
0.5808868
0.5905715
0.6184494
0.5995045
0.6314122
0.6248016
0.592512
0.6119286
0.6473722
0.6401093
0.6045577
0.6375353
0.6029122
0.6145077
0.6491651
0.6187917
0.6559777
0.6484976
0.6111945
0.6458268
0.609513
0.6215537
0.6578666
0.6267244
0.6339989
0.6812858
0.6943529
0.553158
0.5518533
0.5522334
0.5533697
0.5526611
0.5526416
0.5542723
0.5507868
0.5512383
0.5550569
0.5558574
0.5498495
0.5505627
0.5572395
0.5581499
0.5494796
0.550625
0.5602581
0.5604278
0.549181
0.5506895
0.5631324
0.5630714
0.5495223
0.5512317
0.5663499
0.566194
0.550293
0.5522669
0.5699581
0.569872
0.5515534
0.5538478
0.574077
0.5738935
0.553087
0.5557321
0.5785536
0.5782
0.5549096
0.5579052
0.5832814
0.5828507
0.5570965
0.5604492
0.5883591
0.5879502
0.5597544
0.5634597
0.5938415
0.5935541
0.5629418
0.5670068
0.5998358
0.5995437
0.5665218
0.5709311
0.6062587
0.6058311
0.5704125
0.5751685
0.612963
0.6124558
0.5746723
0.5797616
0.6200549
0.6194559
0.5793084
0.5847428
0.6275031
0.6267758
0.5843188
0.5900672
0.6353463
0.6345451
0.5897916
0.5958649
0.6435605
0.6427676
0.5957436
0.6021119
0.6522663
0.6514308
0.6021576
0.6088346
0.6613538
0.6604989
0.6089902
0.615938
0.670923
0.6700055
0.6162409
0.6234874
0.6808547
0.6799068
0.6239206
0.6314418
0.6911715
0.5526992
0.5525762
0.5526898
0.5527402
0.5527403
0.5526767
0.5526516
0.5527284
0.5526385
0.5527435
0.5527168
0.5527698
0.5526731
0.5527464
0.5526212
0.5527249
0.552621
0.5527438
0.5448439
0.5466379
0.5526132
0.5510821
0.5522622
0.5503366
0.5439131
0.5464184
0.5595044
0.5577366
0.5515591
0.5531443
0.5514985
0.5535467
0.5601876
0.557628
0.6240758
0.6177925
0.5871877
0.5939951
0.5857576
0.595912
0.6255561
0.6153129
0.6650022
0.6572941
0.6183162
0.62609
0.6166243
0.6290558
0.6670748
0.6545852
0.5521892
0.553828
0.553678
0.5519508
0.5526304
0.5527266
0.5510426
0.5553785
0.5547853
0.5507283
0.5507824
0.5578642
0.5566623
0.5501883
0.5509981
0.5607746
0.5590977
0.5501619
0.5512015
0.563881
0.5614531
0.5503187
0.5519816
0.5671447
0.5644505
0.5507428
0.553231
0.570958
0.5679305
0.5515922
0.5549256
0.5752889
0.5718274
0.5529708
0.5568512
0.5799091
0.576
0.5546166
0.5590875
0.5847613
0.5804012
0.5565639
0.5617567
0.5899562
0.5851746
0.5588961
0.564935
0.595593
0.5903943
0.5617467
0.5687158
0.6017575
0.5961688
0.5651613
0.5728441
0.608263
0.6022516
0.5689413
0.5773097
0.6150846
0.6086616
0.573068
0.5821546
0.6222507
0.6154054
0.5775672
0.5873478
0.6297741
0.6225343
0.5824217
0.5929533
0.6376636
0.6300027
0.5876941
0.5990006
0.6460053
0.6379351
0.5934156
0.6055448
0.6548061
0.6463063
0.5996393
0.6125097
0.6640465
0.6551449
0.6062792
0.6199371
0.6736962
0.6643625
0.6133811
0.62773
0.6837381
0.6740028
0.620846
0.6360204
0.6941969
0.6840582
0.6288171
0.5525875
0.5526709
0.5527766
0.5527572
0.5526174
0.5527661
0.5527026
0.5527109
0.5526749
0.5527112
0.5526417
0.55282
0.5527243
0.5527156
0.5527001
0.5525825
0.5526703
0.552617
0.543208
0.5543808
0.5405559
0.5528364
0.5521538
0.5396548
0.5419692
0.5531115
0.5542691
0.55079
0.5550538
0.5512394
0.5510442
0.5553783
0.5547848
0.5507298
0.5558511
0.5498482
0.5572288
0.5505595
0.5508014
0.557877
0.556667
0.5502097
0.5549737
0.5753351
0.5718815
0.5530146
0.5739183
0.5531138
0.5785719
0.5557593
0.556883
0.57993
0.5760225
0.5546463
0.5782272
0.554937
0.5832989
0.5579374
0.5879544
0.5597618
0.5938434
0.5634675
0.5935578
0.5629547
0.599853
0.5670145
0.5687339
0.6017638
0.5961661
0.5651784
0.6937567
0.70401
0.6453995
0.6365355
0.7041731
0.6939174
0.6455999
0.6366999
0.5514751
0.5538968
0.5535006
0.5510782
0.5513217
0.5517139
0.5541271
0.5537351
0.5502604
0.5533117
0.5507119
0.5531168
0.5526793
0.534647
0.5386071
0.5508122
0.5320217
0.550023
0.5483194
0.5345575
0.5603003
0.5640212
0.5958301
0.5883807
0.6353074
0.591422
0.5973318
0.6460387
0.6537369
0.5994505
0.645519
0.606405
0.5444633
0.553509
0.5526333
0.5458099
0.5599713
0.5508729
0.5586031
0.5517047
0.5659941
0.5636687
0.552874
0.5558526
0.5527459
0.5564045
0.5662209
0.56253
0.5530832
0.5514226
0.5515791
0.5533032
0.5591144
0.5847815
0.5804347
0.5565872
0.634536
0.5897861
0.6435802
0.5958505
0.5990181
0.645999
0.637918
0.5934273
0.5549199
0.547572
0.5489557
0.5541952
0.5355412
0.5518464
0.5504829
0.5380822
0.5319788
0.535645
0.5955977
0.5904081
0.5617493
0.5649557
0.5957309
0.6522285
0.6427761
0.6020988
0.5494892
0.5602724
0.5581851
0.5506511
0.5529286
0.5499643
0.5512189
0.5531934
0.552697
0.5481191
0.5493482
0.5536757