/*--------------------------------*- C++ -*----------------------------------*\
  =========                 |
  \\      /  F ield         | OpenFOAM: The Open Source CFD Toolbox
   \\    /   O peration     | Website:  https://openfoam.org
    \\  /    A nd           | Version:  7
     \\/     M anipulation  |
\*---------------------------------------------------------------------------*/
FoamFile
{
    version     2.0;
    format      ascii;
    class       volScalarField;
    location    "0.06";
    object      k;
}
// * * * * * * * * * * * * * * * * * * * * * * * * * * * * * * * * * * * * * //

dimensions      [0 2 -2 0 0 0 0];

internalField   nonuniform List<scalar> 
82743
(
0.003792865
0.003796845
0.003790053
0.003785224
0.003779675
0.003775258
0.003771655
0.003769376
0.003767649
0.003788753
0.003795377
0.003790167
0.003785566
0.003779579
0.0037745
0.003770653
0.003768656
0.003767164
0.003787561
0.003795572
0.003791746
0.003787448
0.003780239
0.003773698
0.003769201
0.003767537
0.003766842
0.003786226
0.00379536
0.003792357
0.003788121
0.003774571
0.00377034
0.003764361
0.003764367
0.003765049
0.003785954
0.003795807
0.003794719
0.003788977
0.003792025
0.003764359
0.003755402
0.003754479
0.003757198
0.003785501
0.003796483
0.003799319
0.003872224
0.004246178
0.003793191
0.003757704
0.003772585
0.003781378
0.00378441
0.003794007
0.003795235
0.003866977
0.004619672
0.003783866
0.003781386
0.003789252
0.003788463
0.003845103
0.004448995
0.003768046
0.003777943
0.003784257
0.003782256
0.003828487
0.004320294
0.003767116
0.003774158
0.003778966
0.003776464
0.003814439
0.004223444
0.003770157
0.003770367
0.003774139
0.003771037
0.003801233
0.004135257
0.003763065
0.003767035
0.003769922
0.003766232
0.003787979
0.004044161
0.003806535
0.003764603
0.003766899
0.003762069
0.003775655
0.003934512
0.003829453
0.003762978
0.003764993
0.00376123
0.003769737
0.003749379
0.003947113
0.004011915
0.004189935
0.003857278
0.003762047
0.003765284
0.003762362
0.003760041
0.003760613
0.00376446
0.003771047
0.003775992
0.003775466
0.003761698
0.003765345
0.003764485
0.003762625
0.003763235
0.003765555
0.003768961
0.003771764
0.003770587
0.003761332
0.003765734
0.003765345
0.003764371
0.003764956
0.003766038
0.003767844
0.003769175
0.003768529
0.003761106
0.003765755
0.003765613
0.00376488
0.003765248
0.003765748
0.003766542
0.003767086
0.00376659
0.003575004
0.003556075
0.003553984
0.003549395
0.003548804
0.003547042
0.003545779
0.003544603
0.003543884
0.003991527
0.003555827
0.003549387
0.003549148
0.003547681
0.003546975
0.003544779
0.003542866
0.003541584
0.003540962
0.003922586
0.003550202
0.003547088
0.003547533
0.003547995
0.003548495
0.00354619
0.003543502
0.003541769
0.003540934
0.003895116
0.003546722
0.003544893
0.003545774
0.003548906
0.00355198
0.003549495
0.003545126
0.003541929
0.003540856
0.003875065
0.0035452
0.003543699
0.003545309
0.003553281
0.003563552
0.003558311
0.003550152
0.003544272
0.003541298
0.003859996
0.003544344
0.00354309
0.003547028
0.003571648
0.003621393
0.003593483
0.003567468
0.003550607
0.003542756
0.00385268
0.00354498
0.003544061
0.003549657
0.003588864
0.00451189
0.003751785
0.003623766
0.003622398
0.003543124
0.003841325
0.003546561
0.003546205
0.003553318
0.003608886
0.004385839
0.003543048
0.003815406
0.003549092
0.003546871
0.003554422
0.003564886
0.003541752
0.003783071
0.003550036
0.003547297
0.003551707
0.00355937
0.003542341
0.003746348
0.003550359
0.00354751
0.003550227
0.003556584
0.003543416
0.003713265
0.003549981
0.00354715
0.003549316
0.00355492
0.00354534
0.00368354
0.003548961
0.003546549
0.003549752
0.003557353
0.003554459
0.003659497
0.003547478
0.003545231
0.003550265
0.00355768
0.003579628
0.003640488
0.003545166
0.003543455
0.00354699
0.003559211
0.003933742
0.003774815
0.00380129
0.004003063
0.003578351
0.003626152
0.003543458
0.003542007
0.003542261
0.003544687
0.003545771
0.003548157
0.003554655
0.003557681
0.003549484
0.003617443
0.003542977
0.003541406
0.003541159
0.003541236
0.003541494
0.003542543
0.003544312
0.003545555
0.003543856
0.003612009
0.003542689
0.003541216
0.003540902
0.003540661
0.003540721
0.003540999
0.003541756
0.00354233
0.00354222
0.003608426
0.00354257
0.003541137
0.003540851
0.003540567
0.003540533
0.003540648
0.003540962
0.003541316
0.003541332
0.003582622
0.003550342
0.003547019
0.003545621
0.003544407
0.003543024
0.003541963
0.003541227
0.0035408
0.00402032
0.003552278
0.003547827
0.003549732
0.003547486
0.003547006
0.003544806
0.003542916
0.003541578
0.003540887
0.00359687
0.003543772
0.003545831
0.003546741
0.003547285
0.003547732
0.003545726
0.003543149
0.003541544
0.00354078
0.003584999
0.00354236
0.003544582
0.003545453
0.003548721
0.003551426
0.003549187
0.003544845
0.003541739
0.003540751
0.003574495
0.003542654
0.003542916
0.003545232
0.003552798
0.003562829
0.003557418
0.003549081
0.003543383
0.003540699
0.003578548
0.003542247
0.003542388
0.003547679
0.003570725
0.00361944
0.003591296
0.003565969
0.003549544
0.003541526
0.003578139
0.003543435
0.003543714
0.003549682
0.003587486
0.004529768
0.003772092
0.003624825
0.00362458
0.003543373
0.003580581
0.003544809
0.003546282
0.003551208
0.003608799
0.004496947
0.003542864
0.003573664
0.003546326
0.003545274
0.003553318
0.003571273
0.003542514
0.003570153
0.003545763
0.003548999
0.003549618
0.003782926
0.003787371
0.003544251
0.003566618
0.00354431
0.003546655
0.003547544
0.003772749
0.003784517
0.003543054
0.003562903
0.003543885
0.003545424
0.003546511
0.003761217
0.003792476
0.003545698
0.003560294
0.003543577
0.003547287
0.003548366
0.003562369
0.003552411
0.003558215
0.00354297
0.003544128
0.003549428
0.003557799
0.003582489
0.003556151
0.003541877
0.003543585
0.00354595
0.003561418
0.003904591
0.003774765
0.003802616
0.004022674
0.003611921
0.003555098
0.003541224
0.003542105
0.003541796
0.003544174
0.003545595
0.003547613
0.003553213
0.003556778
0.003548831
0.003554139
0.003540905
0.00354121
0.003541029
0.003541072
0.003541496
0.003542396
0.003544288
0.003544917
0.003543982
0.003553743
0.003540794
0.003540965
0.003540618
0.003540559
0.003540728
0.003540951
0.003541644
0.003542268
0.003541998
0.003553624
0.003540713
0.003540711
0.003540535
0.00354046
0.00354047
0.003540572
0.00354089
0.003541206
0.003541249
0.003581593
0.003550599
0.003546655
0.003543991
0.003543688
0.00354241
0.003541609
0.00354097
0.003540628
0.00400002
0.003552845
0.003547598
0.003549803
0.003547546
0.003547069
0.003544747
0.003542835
0.003541499
0.003540825
0.003598097
0.003543125
0.003546195
0.003546665
0.003547481
0.003547892
0.003545827
0.003543193
0.003541586
0.003540791
0.003584654
0.003542311
0.003544515
0.003545376
0.003548801
0.003551406
0.003549248
0.003544849
0.003541735
0.003540753
0.003572387
0.003542886
0.003542892
0.003545169
0.003552536
0.003563052
0.00355784
0.00354917
0.003543461
0.003540748
0.003579794
0.003542436
0.003542194
0.003547271
0.003570128
0.003620005
0.003591247
0.003566974
0.00354948
0.003541516
0.003581256
0.003543105
0.003543594
0.00354953
0.003587715
0.004503671
0.003771468
0.003624783
0.003624914
0.003543542
0.00358107
0.003544793
0.00354619
0.003551248
0.003610481
0.004489701
0.003542852
0.003574509
0.003546424
0.003544776
0.003554309
0.003571039
0.003542935
0.003570776
0.00354603
0.00354922
0.003549716
0.003783629
0.00378333
0.003545716
0.003567582
0.003544648
0.00354753
0.003548741
0.00377268
0.003778851
0.003543605
0.003563592
0.003544269
0.0035457
0.003547181
0.003763556
0.003786126
0.003547215
0.003561025
0.003543935
0.003547616
0.003548292
0.00356452
0.003551681
0.003558452
0.00354323
0.003543247
0.003549333
0.003557143
0.003582215
0.003556403
0.003542124
0.003543722
0.003546053
0.003562123
0.003895212
0.003774737
0.003803039
0.004019455
0.003611968
0.003555168
0.003541352
0.003541978
0.00354178
0.003544309
0.003545808
0.003547674
0.003553269
0.003556142
0.003549157
0.003554561
0.003541094
0.003541076
0.003541013
0.003541048
0.003541498
0.00354238
0.003544236
0.003544978
0.00354401
0.003554203
0.003540987
0.00354077
0.003540618
0.003540549
0.00354072
0.003540932
0.003541627
0.00354227
0.003542043
0.003554096
0.00354094
0.003540631
0.003540528
0.003540459
0.003540467
0.00354057
0.003540893
0.003541212
0.003541263
0.003583404
0.003549676
0.003546091
0.003544047
0.003543799
0.003542477
0.003541671
0.003541011
0.003540658
0.004002492
0.003553036
0.003545956
0.003549749
0.003547484
0.003546988
0.003544745
0.003542867
0.003541529
0.003540847
0.00360409
0.003543049
0.00354577
0.003546606
0.003547214
0.003547747
0.003545746
0.00354314
0.003541548
0.003540772
0.003585265
0.003542196
0.003544475
0.003545451
0.003548803
0.003551368
0.003549174
0.003544803
0.003541726
0.003540759
0.003574724
0.003542404
0.003542885
0.003545161
0.003552549
0.003562654
0.003557583
0.00354906
0.003543457
0.003540742
0.00358109
0.003542144
0.003542211
0.003547464
0.003570489
0.003619923
0.00359136
0.003566708
0.003549525
0.003541581
0.003579104
0.003543297
0.003543727
0.003549367
0.003587292
0.004507438
0.003772646
0.003624393
0.003625004
0.003543513
0.003583404
0.00354457
0.003546271
0.003551102
0.003610945
0.004496154
0.003542836
0.003575508
0.003546112
0.003544698
0.003554311
0.003571956
0.003542969
0.003572115
0.003545604
0.003549386
0.00354932
0.003783832
0.003782374
0.003546179
0.003568975
0.003544022
0.003546211
0.003547261
0.003772752
0.003778139
0.003543559
0.003564708
0.003543651
0.003544635
0.003545917
0.003763735
0.003785573
0.003546945
0.003561284
0.003543668
0.00354732
0.003548012
0.003563968
0.003551643
0.003558329
0.003543076
0.003543559
0.003549548
0.003557142
0.003582349
0.003556529
0.003541798
0.003543779
0.003546059
0.003561806
0.003898576
0.003774657
0.003803033
0.00402053
0.00361066
0.003555316
0.003541124
0.003542119
0.003541723
0.003544227
0.003545715
0.003547645
0.003553292
0.003556076
0.003549362
0.003554839
0.003540857
0.003541189
0.003540981
0.003541005
0.003541517
0.003542384
0.003544252
0.003544993
0.003543937
0.00355427
0.003540679
0.003540876
0.00354058
0.003540546
0.003540742
0.003540939
0.003541629
0.003542258
0.003542042
0.003554239
0.003540612
0.003540652
0.003540502
0.003540445
0.003540469
0.003540567
0.003540892
0.003541203
0.003541253
0.003583468
0.003549749
0.003546374
0.00354404
0.003543777
0.003542449
0.003541646
0.003540995
0.003540646
0.003996142
0.003552478
0.003546363
0.003549813
0.003547419
0.003547003
0.003544744
0.003542865
0.003541522
0.003540841
0.003604074
0.003542895
0.003545861
0.00354666
0.003547321
0.003547801
0.003545772
0.003543158
0.003541564
0.003540777
0.003585616
0.003542202
0.003544563
0.003545533
0.003548849
0.003551306
0.003549207
0.003544817
0.00354171
0.003540748
0.003573055
0.003542645
0.003542861
0.00354513
0.003552411
0.003562814
0.003557605
0.003549109
0.003543459
0.003540748
0.003581399
0.003542123
0.003542172
0.003547543
0.003570273
0.00361926
0.003591156
0.003566708
0.003549534
0.003541584
0.003580313
0.003542968
0.003543615
0.003549323
0.003587257
0.004524588
0.003770302
0.003624347
0.003625033
0.003543514
0.00358256
0.003544374
0.003546188
0.003551139
0.003611344
0.004488762
0.003542851
0.003575144
0.003546073
0.003544654
0.003554411
0.003571917
0.003542961
0.003571743
0.00354563
0.003549395
0.00354938
0.003783879
0.003782336
0.003546144
0.003568681
0.003544116
0.00354643
0.003547499
0.003772607
0.003778068
0.003543618
0.003564098
0.003543858
0.003544764
0.003546123
0.003763724
0.003785727
0.003546732
0.003560633
0.003543653
0.003547341
0.003548004
0.003563847
0.003551572
0.003558239
0.00354307
0.003543498
0.003549542
0.003556985
0.003582472
0.003556504
0.003541772
0.003543763
0.003546028
0.003561887
0.003907586
0.003774658
0.003803098
0.004020732
0.003610569
0.003555289
0.003541137
0.00354211
0.003541718
0.003544229
0.003545721
0.003547648
0.003553307
0.003556069
0.003549384
0.003554721
0.003540848
0.003541187
0.003540976
0.003541005
0.003541517
0.003542383
0.003544253
0.003545007
0.003543947
0.003554349
0.003540681
0.003540873
0.003540579
0.003540548
0.003540744
0.00354094
0.003541628
0.003542262
0.00354205
0.003554349
0.003540605
0.003540664
0.003540504
0.003540445
0.00354047
0.003540568
0.003540893
0.003541204
0.003541255
0.003583959
0.003549807
0.003546078
0.003544043
0.003543808
0.003542471
0.003541672
0.003541011
0.003540657
0.0040064
0.003553386
0.003545877
0.003549764
0.003547494
0.003546996
0.003544713
0.003542847
0.003541517
0.00354084
0.003603238
0.003543066
0.003545815
0.003546608
0.003547246
0.003547788
0.003545776
0.003543145
0.00354156
0.003540776
0.003585231
0.003542208
0.003544455
0.003545429
0.003548849
0.003551388
0.003549227
0.003544822
0.003541752
0.003540763
0.003574839
0.003542446
0.003542827
0.003545166
0.003552476
0.003562697
0.003557711
0.003549053
0.003543449
0.003540737
0.003581222
0.003542177
0.003542197
0.003547502
0.003570291
0.003619817
0.003591179
0.003566986
0.003549432
0.003541519
0.003578944
0.003543355
0.003543642
0.003549297
0.003587389
0.004504352
0.003772096
0.003624416
0.003625007
0.00354352
0.003583648
0.003544428
0.003546229
0.003551075
0.0036114
0.004487411
0.003542811
0.003575895
0.003546158
0.003544701
0.003554174
0.003571785
0.003542927
0.003572638
0.003545563
0.003549278
0.003549523
0.003783656
0.003783317
0.003545734
0.00357056
0.003544068
0.003546556
0.003547544
0.003772729
0.003778792
0.003543636
0.003566701
0.003543791
0.003545061
0.003546395
0.003763636
0.003785971
0.003547198
0.00356242
0.003544026
0.00354751
0.003548317
0.003564522
0.003551561
0.003559182
0.003543329
0.003543211
0.003549353
0.003556852
0.003582485
0.003556687
0.003542166
0.003543716
0.003546056
0.003562137
0.003904314
0.003774621
0.00380313
0.004020909
0.003610564
0.003554916
0.003541364
0.00354196
0.003541773
0.003544317
0.003545809
0.003547682
0.003553299
0.00355605
0.003549362
0.003554473
0.003541076
0.00354107
0.003541012
0.003541047
0.003541494
0.003542377
0.003544245
0.003545001
0.003543951
0.003553993
0.003541013
0.003540775
0.003540617
0.00354055
0.00354072
0.003540932
0.003541627
0.003542272
0.003542062
0.003554089
0.003540962
0.003540632
0.003540528
0.003540459
0.003540466
0.003540569
0.003540897
0.003541211
0.003541262
0.003583279
0.003550784
0.003547026
0.003543975
0.003543746
0.003542388
0.003541646
0.003540968
0.003540649
0.004043719
0.003553587
0.003547246
0.003550159
0.003547492
0.003547024
0.003544725
0.003542856
0.003541487
0.003540835
0.003603643
0.003542968
0.003546312
0.003546837
0.003547497
0.003547907
0.003545678
0.003543187
0.003541537
0.0035408
0.003583994
0.003542205
0.003544413
0.003545503
0.003548753
0.003551351
0.003549216
0.003544845
0.003541697
0.003540721
0.003571547
0.003542714
0.003542916
0.003545158
0.003552638
0.003563051
0.003557487
0.003549153
0.003543378
0.00354066
0.003579281
0.003542331
0.003542208
0.003547339
0.00357022
0.003618588
0.003590779
0.003566036
0.003549521
0.003541441
0.003579582
0.003543318
0.003543726
0.003549558
0.003587604
0.004525866
0.003772455
0.00362556
0.003625125
0.003543418
0.00358136
0.003544675
0.003546147
0.003551201
0.003610822
0.004488795
0.003542861
0.003574766
0.003546249
0.003545075
0.003553451
0.003572188
0.003542534
0.003571445
0.003545849
0.003548973
0.003549831
0.00378299
0.003787325
0.003544228
0.003569643
0.003544946
0.003547111
0.00354807
0.003772685
0.003784358
0.003542918
0.003561533
0.003544854
0.003545623
0.003546794
0.003761165
0.00379209
0.003545895
0.003559934
0.003543839
0.003547312
0.003548381
0.003563129
0.003551864
0.003557566
0.003542893
0.003543855
0.003549402
0.003557395
0.003582892
0.003556032
0.003541701
0.003543551
0.003545974
0.003561295
0.003902433
0.003774737
0.003803221
0.004021179
0.003610926
0.00355531
0.003541235
0.003542079
0.00354179
0.003544168
0.003545617
0.003547586
0.003553241
0.003556167
0.003549465
0.003553946
0.003540892
0.003541205
0.003541027
0.003541063
0.003541491
0.003542391
0.003544266
0.003545035
0.003543997
0.003553842
0.003540811
0.003540977
0.003540618
0.003540562
0.003540729
0.003540951
0.003541633
0.00354227
0.003542067
0.003553267
0.003540718
0.003540708
0.003540538
0.003540462
0.003540466
0.003540573
0.003540894
0.003541211
0.003541264
0.003584941
0.00355138
0.003547143
0.003545263
0.003544382
0.003543008
0.003542008
0.003541253
0.00354089
0.004019607
0.003555074
0.003548888
0.00355007
0.003547641
0.003547168
0.00354469
0.003542879
0.003541584
0.003540907
0.003599924
0.003545968
0.003545862
0.003546861
0.003547654
0.003548035
0.003545895
0.003543271
0.003541626
0.003540836
0.003583315
0.003544727
0.003544947
0.00354565
0.003549227
0.003551828
0.003549564
0.003545182
0.00354201
0.003540922
0.003573783
0.003545156
0.003543259
0.003545651
0.003553065
0.003562888
0.003557979
0.003549945
0.003544294
0.003541255
0.003577885
0.003544772
0.003542758
0.003548127
0.003571593
0.003620101
0.003592575
0.00356749
0.003550734
0.003542818
0.003578572
0.003545643
0.003543718
0.00354975
0.003587591
0.004534318
0.003768086
0.003624137
0.003626856
0.003543493
0.003580744
0.003546937
0.003546417
0.003552245
0.00361087
0.004484923
0.003542847
0.003576124
0.003548687
0.00354599
0.003553023
0.003562946
0.003541705
0.003573601
0.003547871
0.003547703
0.003549717
0.003560043
0.003542233
0.00357436
0.003546357
0.003548597
0.003548932
0.003557713
0.003543251
0.003574096
0.00354678
0.00354822
0.003548176
0.003557947
0.003545596
0.003647858
0.003551398
0.003547248
0.003549815
0.003561112
0.00355328
0.003648815
0.003548789
0.003545197
0.003550292
0.003556475
0.003585504
0.003640556
0.003545392
0.003543485
0.00354689
0.00356001
0.003910847
0.003774725
0.003802776
0.004019645
0.003613181
0.003629661
0.003543539
0.003541973
0.003542226
0.003544721
0.003545747
0.003548151
0.003553436
0.003556423
0.003549439
0.003621571
0.003542978
0.003541386
0.003541145
0.003541225
0.003541491
0.003542524
0.003544427
0.003545087
0.003544105
0.003616256
0.003542731
0.0035412
0.003540912
0.003540659
0.003540719
0.003540998
0.003541697
0.003542398
0.003542185
0.003612845
0.003542649
0.00354111
0.003540867
0.003540561
0.003540533
0.003540649
0.003540967
0.003541286
0.003541343
0.003586219
0.003566031
0.003560976
0.003556334
0.00355368
0.003551136
0.003549391
0.003547928
0.003547034
0.004037441
0.003794027
0.003798679
0.003791912
0.003786195
0.003781472
0.003776249
0.003773024
0.0037703
0.003768892
0.004022563
0.003788156
0.003795231
0.003789804
0.003785042
0.003778985
0.003773987
0.003770083
0.003768175
0.003766753
0.003969272
0.003787248
0.003795933
0.003792051
0.003787347
0.003780507
0.003773781
0.003769425
0.003767472
0.003767082
0.003919284
0.003787469
0.003795542
0.003792488
0.003787988
0.003774735
0.003770308
0.00376429
0.00376431
0.003765052
0.003913981
0.003786077
0.003796103
0.003794847
0.003788746
0.003790894
0.003764591
0.003755622
0.003754622
0.003757311
0.00392066
0.003785362
0.00379654
0.003799589
0.003628391
0.004528658
0.003733172
0.00363706
0.00362769
0.003546855
0.003905233
0.003783841
0.003793934
0.003795575
0.003639643
0.004480134
0.003544666
0.003839175
0.003781338
0.003789346
0.003788343
0.003581328
0.00354291
0.003839355
0.003777532
0.003784274
0.003782327
0.003573129
0.003542671
0.003785721
0.003774285
0.003778999
0.003776707
0.00356636
0.003543346
0.003748725
0.003770778
0.003774195
0.003771083
0.003565592
0.003545228
0.003703531
0.003766775
0.003770096
0.003766307
0.003570437
0.003550158
0.003861507
0.003764294
0.003766841
0.003762254
0.003575474
0.003620919
0.003891901
0.003762888
0.003765295
0.003761284
0.003584477
0.003920618
0.003769154
0.003801735
0.004015436
0.003650047
0.003839962
0.003761998
0.003765295
0.003762366
0.003760109
0.003760561
0.003764428
0.003771067
0.003775965
0.00377543
0.003821501
0.003761765
0.003765486
0.003764551
0.003762678
0.003763265
0.003765593
0.003768933
0.003771732
0.003770928
0.003781643
0.00376127
0.003765753
0.003765323
0.003764373
0.003764956
0.003766042
0.003767852
0.003769152
0.003768647
0.00377922
0.003761078
0.003765844
0.003765617
0.003764928
0.003765276
0.003765768
0.003766553
0.003767111
0.003766644
0.003898222
0.003613833
0.006215642
0.003593301
0.003844134
0.003857442
0.003625568
0.003571874
0.003632451
0.003636737
0.00385039
0.003849679
0.003578869
0.003566411
0.003629409
0.003621714
0.003836829
0.003834699
0.003574388
0.003559717
0.003622578
0.00361576
0.003827192
0.00382703
0.003562799
0.00355671
0.003613158
0.003608502
0.003816859
0.003815716
0.00356175
0.00355378
0.003607216
0.003602298
0.003808715
0.003808575
0.003556433
0.003551529
0.003599862
0.003596697
0.003801978
0.003801648
0.003553541
0.00354971
0.003594381
0.00359218
0.003797266
0.003797163
0.003550649
0.00354857
0.003590472
0.003589225
0.003793504
0.003549305
0.003587793
0.003887656
0.003888219
0.005767874
0.003587622
0.005382174
0.003584851
0.003875494
0.003879034
0.005257354
0.003579422
0.005111181
0.003568806
0.003867401
0.003871688
0.005020723
0.003569783
0.004961165
0.003563715
0.00386187
0.003868061
0.004899258
0.003567119
0.004867116
0.003562335
0.00385854
0.003865753
0.004821739
0.003565248
0.004823098
0.003562294
0.003856006
0.003863412
0.004789177
0.003565067
0.004794988
0.003562512
0.003878341
0.004670016
0.004572824
0.003941353
0.004701724
0.003748822
0.003636087
0.003639731
0.003766929
0.003856943
0.003626391
0.003555795
0.003564401
0.003850696
0.003855696
0.004781406
0.003565127
0.004702177
0.003563991
0.004507931
0.004509465
0.003842924
0.003846792
0.004679585
0.003564675
0.004570055
0.003562393
0.004370677
0.003833432
0.003836226
0.004544337
0.003564355
0.004415972
0.003562612
0.004270801
0.003823208
0.003825363
0.004379596
0.003562378
0.004262876
0.003561481
0.004181523
0.003813084
0.003814966
0.004226944
0.003560864
0.004121316
0.003560172
0.004090912
0.003803602
0.003806213
0.004100871
0.003559484
0.004002929
0.003558296
0.003983037
0.003795552
0.003799243
0.003996312
0.003557273
0.003912783
0.003556057
0.003720555
0.003963425
0.004089063
0.003619436
0.003935307
0.003789499
0.00379409
0.003913324
0.003555136
0.00385088
0.003554182
0.003785777
0.003791303
0.003856812
0.003554098
0.003811642
0.003553034
0.003783429
0.003789169
0.00382027
0.003552834
0.003786879
0.003552559
0.003781887
0.003787867
0.003796274
0.003552575
0.003770207
0.003552307
0.003780823
0.003786798
0.003779776
0.003552398
0.003552139
0.00360842
0.006304213
0.003595026
0.003598404
0.006964903
0.003595003
0.003921326
0.004596773
0.004521158
0.003921184
0.004665492
0.003558056
0.003564867
0.003626691
0.003559753
0.003569905
0.004484784
0.003759761
0.00376387
0.00361702
0.003990268
0.003621334
0.003955185
0.00379662
0.003561172
0.003559678
0.003900542
0.003796722
0.003563084
0.003560337
0.003611296
0.006277056
0.003599514
0.003604422
0.006795981
0.003599836
0.003927192
0.004668249
0.004520173
0.003927945
0.004666731
0.0035587
0.003565174
0.003625521
0.003558687
0.003564464
0.004489206
0.003759638
0.003762503
0.003610053
0.004181755
0.003600852
0.004141496
0.003796682
0.003563222
0.003559707
0.003902581
0.003796763
0.003563564
0.003559746
0.00392725
0.003623197
0.003586769
0.0040178
0.00394455
0.003621448
0.003584794
0.003608033
0.006482299
0.003595701
0.003608191
0.006599263
0.003599987
0.003921181
0.004665532
0.004511487
0.003922127
0.004665645
0.003558744
0.003563258
0.003625269
0.003558459
0.003562732
0.004487891
0.003760522
0.003761047
0.003796911
0.003563733
0.003559811
0.003905255
0.003796724
0.00356364
0.003559802
0.003924925
0.003620291
0.003587109
0.004020216
0.003925473
0.003620935
0.003587209
0.003607097
0.006362833
0.003598047
0.003607275
0.006399141
0.003599085
0.003921921
0.004668741
0.00450569
0.003922576
0.004665804
0.003558533
0.003563067
0.003625184
0.003558468
0.00356281
0.004487728
0.003757641
0.003759359
0.003796632
0.003563601
0.003559681
0.00390662
0.003796615
0.003563525
0.003559675
0.003923965
0.003620615
0.003587634
0.004020663
0.00392241
0.00362126
0.003587658
0.003608229
0.006460321
0.003600109
0.003607566
0.006418442
0.003599155
0.003925164
0.004667435
0.004516506
0.003923152
0.004668667
0.003558444
0.003562861
0.003624887
0.003558535
0.00356283
0.004490643
0.003759866
0.003756026
0.003796632
0.003563542
0.003559678
0.00389562
0.003796684
0.003563633
0.003559684
0.00392428
0.003621053
0.003587784
0.004020814
0.003924844
0.003620937
0.003587779
0.003607388
0.006466521
0.00359816
0.003606207
0.006350536
0.003594622
0.003920498
0.004665685
0.004518932
0.003923379
0.004670203
0.003558422
0.003562583
0.003624745
0.003558627
0.003563113
0.004498194
0.003760785
0.003761043
0.003796845
0.003563651
0.003559794
0.003895907
0.003796977
0.003563724
0.003559809
0.00392709
0.003621066
0.003587771
0.004020856
0.003927486
0.003620858
0.003587868
0.003606651
0.006665361
0.003601056
0.003606147
0.006507168
0.003593924
0.003925558
0.004668954
0.004505173
0.003922149
0.004664278
0.003558448
0.003564719
0.003624516
0.003558487
0.003565337
0.004497688
0.003762113
0.003759173
0.003796834
0.003563494
0.003559751
0.003905014
0.003796878
0.003563141
0.003559614
0.003921228
0.003622386
0.003587662
0.004020881
0.003931217
0.003620745
0.003588131
0.003606654
0.006645637
0.003598122
0.003602584
0.006647415
0.003597208
0.003921609
0.00467066
0.004494247
0.003913996
0.004608893
0.003559425
0.003569521
0.003622735
0.003558028
0.00356452
0.004405499
0.00376557
0.00376686
0.003796848
0.003563042
0.003560154
0.003904897
0.003796508
0.003562012
0.003559307
0.00394163
0.003620512
0.003586691
0.00401502
0.003972393
0.003621227
0.003589232
0.003608491
0.006606331
0.003597337
0.004080883
0.003903438
0.003547382
0.003593264
0.003593702
0.003805708
0.003805761
0.003546946
0.003589849
0.003588757
0.00380046
0.003800577
0.003585951
0.00402534
0.003580952
0.003882631
0.003886428
0.003572533
0.0039511
0.003575271
0.003876118
0.003879839
0.003573356
0.003929709
0.003577899
0.003864886
0.003870657
0.003931072
0.004682732
0.004225491
0.003878209
0.004663704
0.003642797
0.00379389
0.003764742
0.003635697
0.003757109
0.003746452
0.0035567
0.003564643
0.003770188
0.003767759
0.003859472
0.003570877
0.003875045
0.003577866
0.003858989
0.00386168
0.004536594
0.004515768
0.004460029
0.004368811
0.004314265
0.004220625
0.004321649
0.004092193
0.003561377
0.003900593
0.003557866
0.003797435
0.00379993
0.003769197
0.003730115
0.003615574
0.004162619
0.003955505
0.004102611
0.003553891
0.00382522
0.003553695
0.003788528
0.003793873
0.003793497
0.003577885
0.003578382
0.003772148
0.003896334
0.003762387
0.003773633
0.004000458
0.003667593
0.003637877
0.004362407
0.00405819
0.003814151
0.003826603
0.003554226
0.003813434
0.003553249
0.00378549
0.003791417
0.003552437
0.003778388
0.003550452
0.003783784
0.003791961
0.003787945
0.003550834
0.003767104
0.00355254
0.003792118
0.003782613
0.003788539
0.003552178
0.003745184
0.00355001
0.0037811
0.003786064
0.005489134
0.004565374
0.003713128
0.00397433
0.003755669
0.00397502
0.003699253
0.003957609
0.003734138
0.003960942
0.003681513
0.003936376
0.003704029
0.003933578
0.003666929
0.003915189
0.003678826
0.003915381
0.003653558
0.003896941
0.003667681
0.003894724
0.003642052
0.003879351
0.003650587
0.003879575
0.003633079
0.003866451
0.003639317
0.003866246
0.003626876
0.00385593
0.003628884
0.003856373
0.003621962
0.003848664
0.003622448
0.003848635
0.004685822
0.00447124
0.004754518
0.004404423
0.004453313
0.004336167
0.004482643
0.004281471
0.004337534
0.004266176
0.004355755
0.004226987
0.00426638
0.004222696
0.004277186
0.004193749
0.004228313
0.004198503
0.004233199
0.004175182
0.004200847
0.004185352
0.004203559
0.004163227
0.003958817
0.003872829
0.004137462
0.003627537
0.003926342
0.003633936
0.005059674
0.003768057
0.003733852
0.003639099
0.004155263
0.004172367
0.004164698
0.004144599
0.004088023
0.003855876
0.004007934
0.003640092
0.00408423
0.003608888
0.004001928
0.004622671
0.004929423
0.005726686
0.003852079
0.003798591
0.003550913
0.003549763
0.004085241
0.004142417
0.004097294
0.004112703
0.003986336
0.003839007
0.003954711
0.003581977
0.00398855
0.003572312
0.003967916
0.004433665
0.005317893
0.005304813
0.003789852
0.003799048
0.003556682
0.003551247
0.004004131
0.004102911
0.004017661
0.004074064
0.003937598
0.003824857
0.003916462
0.003571324
0.003945115
0.003562505
0.003930506
0.004314634
0.005011684
0.005016642
0.003796771
0.003803292
0.003549932
0.003550128
0.003922654
0.00405839
0.003937472
0.004033586
0.003901165
0.003810148
0.003883726
0.003566548
0.003909578
0.003558514
0.003896175
0.004218854
0.004786841
0.004790189
0.003802107
0.003806493
0.003549689
0.003552002
0.003847977
0.004013739
0.003863404
0.003994154
0.00386941
0.003795308
0.003850781
0.003565951
0.003876679
0.003559304
0.003860887
0.00412695
0.004587858
0.004582207
0.003808059
0.003813658
0.00355255
0.003558293
0.003786207
0.003971999
0.003799732
0.003958418
0.003837794
0.003779737
0.003812892
0.003567436
0.003841705
0.003562733
0.003811417
0.00402627
0.004389156
0.00436377
0.003804412
0.003954229
0.003565813
0.003616415
0.003737155
0.003936308
0.0037476
0.00392909
0.003800863
0.003764222
0.003757014
0.003577239
0.003798011
0.003574477
0.003737153
0.003889834
0.004149321
0.004070239
0.003897223
0.004193544
0.003896205
0.004163216
0.003700168
0.003908368
0.003707803
0.003907469
0.003893214
0.003761619
0.003773837
0.003734131
0.003792302
0.003575323
0.003578597
0.003848521
0.003779243
0.003790917
0.00376829
0.003785456
0.003576577
0.003585901
0.004003855
0.003800439
0.003816991
0.003802028
0.003915519
0.00360543
0.003660226
0.004038877
0.003813443
0.003831404
0.004007466
0.004135088
0.003650403
0.003660072
0.003674848
0.003888504
0.003680709
0.003892817
0.003659485
0.003875903
0.003663487
0.003883589
0.003649338
0.003867537
0.00365237
0.00387749
0.003642508
0.003861747
0.00364471
0.003873366
0.005323795
0.005302867
0.003904909
0.003599371
0.004805216
0.00358805
0.003899014
0.003599159
0.004978238
0.003639919
0.003624279
0.00364572
0.003959841
0.003576994
0.003849372
0.003610894
0.004062781
0.003575171
0.003852514
0.00446407
0.003546917
0.00358491
0.003546774
0.003588515
0.003788931
0.003553912
0.003703789
0.003556289
0.003795835
0.00355384
0.003691713
0.003610927
0.003542124
0.003553734
0.003559842
0.003590731