/*--------------------------------*- C++ -*----------------------------------*\
  =========                 |
  \\      /  F ield         | OpenFOAM: The Open Source CFD Toolbox
   \\    /   O peration     | Website:  https://openfoam.org
    \\  /    A nd           | Version:  7
     \\/     M anipulation  |
\*---------------------------------------------------------------------------*/
FoamFile
{
    version     2.0;
    format      ascii;
    class       volVectorField;
    location    "0.06";
    object      U;
}
// * * * * * * * * * * * * * * * * * * * * * * * * * * * * * * * * * * * * * //

dimensions      [0 1 -1 0 0 0 0];

internalField   nonuniform List<vector> 
105056
(
(0.4751804 0.02700045 0.007503245)
(0.4949586 0.01403275 -0.004343707)
(0.489582 0.01625831 -0.00391083)
(0.4930264 0.01617787 -0.003590166)
(0.4936294 0.01703071 -0.003626591)
(0.4604788 0.004993342 0.005431167)
(0.5081595 0.000451094 -0.008850912)
(0.498231 -0.0007217085 -0.00738458)
(0.5080153 0.002439545 -0.00739721)
(0.503603 0.003122124 -0.007468003)
(0.4451927 -0.005860909 0.00469801)
(0.5094637 -0.001062139 -0.008982457)
(0.5005349 -0.001297114 -0.006901795)
(0.5109413 0.001238403 -0.00773977)
(0.5036627 0.0004534646 -0.007527828)
(0.4397995 -0.006643366 0.003876465)
(0.5090801 -0.001343589 -0.0085227)
(0.5006343 -0.001581357 -0.008387924)
(0.5106339 -0.0001750232 -0.007565755)
(0.5042818 -0.0003188892 -0.008087112)
(0.4376415 -0.00351499 0.003048092)
(0.5099088 -0.000802766 -0.008640789)
(0.5011518 -0.001470207 -0.007844887)
(0.5091513 -0.000230286 -0.006857055)
(0.5040943 -0.0002547476 -0.007980663)
(0.4416395 -0.001492315 0.002277614)
(0.5106371 -0.0004879841 -0.008809907)
(0.5015954 -0.001458746 -0.007744821)
(0.5083155 -0.0006010179 -0.006418831)
(0.5040123 -0.0004610077 -0.007851824)
(0.4432917 -3.469636e-06 0.002375742)
(0.5114479 -0.0003223591 -0.008972762)
(0.501943 -0.001305586 -0.007521337)
(0.5074134 -0.0006843389 -0.006271094)
(0.503956 -0.0007284421 -0.007432538)
(0.4443277 0.0004113855 0.002547121)
(0.5117072 -0.0002577437 -0.008967785)
(0.5020995 -0.001070146 -0.007256219)
(0.5078906 -0.0007237878 -0.006350982)
(0.5040707 -0.0007780996 -0.006979061)
(0.4441683 0.0003713238 0.002518356)
(0.5114961 -0.0002349531 -0.008879295)
(0.5021468 -0.0008553577 -0.006974243)
(0.5087675 -0.0007146202 -0.00650856)
(0.5042132 -0.0006996805 -0.006706733)
(0.4448609 0.0003459551 0.002592516)
(0.5114304 -0.0002370291 -0.008747218)
(0.5021249 -0.0006965729 -0.006725469)
(0.5098413 -0.0006534175 -0.006645166)
(0.5043528 -0.0006162186 -0.00668887)
(0.4449839 0.0002556749 0.002556046)
(0.5115367 -0.0002291991 -0.008673778)
(0.5022726 -0.0005860936 -0.006699509)
(0.5101488 -0.000608622 -0.006598694)
(0.5044729 -0.0005751801 -0.006782827)
(0.4448512 0.0001747299 0.00281495)
(0.5116947 -0.0002013071 -0.008610255)
(0.5023685 -0.0005019265 -0.006671534)
(0.510383 -0.0005601944 -0.006519232)
(0.5044965 -0.0005110719 -0.00673408)
(0.4450079 -1.869452e-05 0.002694243)
(0.5119018 -0.000173734 -0.008628723)
(0.5025501 -0.0004179863 -0.006711797)
(0.5100214 -0.0005241782 -0.00636388)
(0.5044223 -0.0004335036 -0.006495116)
(0.4459143 0.0002174842 0.00270937)
(0.5121764 -0.0001712162 -0.008622351)
(0.5026755 -0.0003833786 -0.006621901)
(0.5097709 -0.0004682287 -0.006244965)
(0.5043857 -0.0003761612 -0.006363599)
(0.4445595 5.412043e-05 0.002958275)
(0.5120385 -0.0001995012 -0.008489017)
(0.5026921 -0.00032679 -0.006517047)
(0.5092268 -0.0003735528 -0.00610913)
(0.5043519 -0.0003291763 -0.006224997)
(0.4464697 -0.0003090756 0.003055255)
(0.5129209 -0.0001395604 -0.008811644)
(0.5028547 -0.0002401976 -0.006638424)
(0.5084415 -0.0002920232 -0.005956579)
(0.5043082 -0.0002870535 -0.006127807)
(0.4460564 -0.0005538281 0.002932239)
(0.5176434 8.175034e-06 -0.01038478)
(0.5035026 -0.0001754661 -0.007042738)
(0.5066199 -0.000276127 -0.005726321)
(0.5042576 -0.0002519342 -0.00604374)
(0.4453215 6.480467e-05 0.002635117)
(0.5173241 -5.941702e-05 -0.01033427)
(0.5046471 -0.0001402555 -0.007863487)
(0.5053719 -0.0002527359 -0.005553679)
(0.5042167 -0.0002200268 -0.005908425)
(0.4460378 -0.0003343397 0.003078895)
(0.5172881 -1.053524e-05 -0.01042094)
(0.5049826 0.0006116933 -0.008212905)
(0.5051888 -0.0002179098 -0.005486095)
(0.5041977 -0.0001969307 -0.005807189)
(0.440686 -0.002503749 0.004748589)
(0.5227123 0.0002096929 -0.01258333)
(0.5056406 0.001689423 -0.007680927)
(0.5045943 -0.000179132 -0.005367475)
(0.5041577 -0.0001740595 -0.005607731)
(0.4410162 0.001022281 0.003178313)
(0.5224746 -0.0004498543 -0.0132255)
(0.505819 -0.0008194073 -0.007902271)
(0.5045367 -0.0001683223 -0.005313219)
(0.5041425 -0.0001388848 -0.005444476)
(0.4410673 0.0004193691 0.004042954)
(0.5182317 -0.000312139 -0.01127994)
(0.5049604 -0.0005254948 -0.008188893)
(0.5045232 -0.0001193585 -0.005318009)
(0.5041051 -9.659797e-05 -0.005260412)
(0.4577366 0.002180406 0.01632402)
(0.5139931 -8.681595e-06 -0.009266293)
(0.5039115 0.0002630253 -0.008162159)
(0.504474 -8.006004e-05 -0.005276397)
(0.5040615 -8.166035e-05 -0.005281054)
(0.4713102 0.01156692 0.02245716)
(0.4947147 -0.005212118 0.0147553)
(0.4899351 -0.004419272 0.01911439)
(0.4930564 -0.002934556 0.01601812)
(0.4939341 -0.003066939 0.01643779)
(0.4483945 -0.03415092 -0.03017382)
(0.4474715 -0.02736308 -0.02674912)
(0.5102285 0.03725328 0.03507972)
(0.4726021 -0.008909222 -0.007916295)
(0.4997014 0.007264955 0.007373875)
(0.4919528 -0.0008148991 -0.0001557283)
(0.4882819 -0.004813113 -0.1188564)
(0.4206725 -0.02741299 -0.04823768)
(0.5229047 0.01626792 0.03764786)
(0.4683293 -0.005228228 -0.01575392)
(0.5013595 0.001144204 0.002442611)
(0.4909016 -0.0008117777 -0.0037351)
(0.5079326 0.01100335 -0.1184728)
(0.4107418 -0.01445599 -0.06194478)
(0.5182645 0.009094413 0.03840076)
(0.4643345 -0.0023688 -0.01539897)
(0.4978536 -0.0005219281 0.003656955)
(0.4894032 -0.00124062 -0.001152478)
(0.5091915 0.008627916 -0.1397144)
(0.4032197 -0.007556339 -0.06973175)
(0.5192117 0.003171502 0.03803511)
(0.4659552 -0.001454948 -0.01467386)
(0.499853 -0.001203657 0.004552562)
(0.4897391 -0.002118661 -0.003359191)
(0.5120002 0.005584884 -0.1464649)
(0.398169 -0.002289036 -0.06948486)
(0.5182481 0.000977304 0.03659762)
(0.4665318 -0.0003281491 -0.01280021)
(0.5026114 -0.0008291591 0.008018021)
(0.4900931 -0.001473077 -0.002290934)
(0.5135272 0.005533681 -0.1510563)
(0.3948284 3.508269e-05 -0.06632686)
(0.5149979 -0.000169039 0.03179786)
(0.4673819 -0.0003666565 -0.0117498)
(0.5029139 -0.0008314545 0.008717304)
(0.4903422 -0.001193133 -0.002596846)
(0.51442 0.006697229 -0.1553636)
(0.3938375 0.0009312818 -0.06509028)
(0.513129 -0.0004732979 0.02970889)
(0.4670329 -0.0003041787 -0.01187317)
(0.5023757 -0.000423417 0.008624008)
(0.4901605 -0.0007167985 -0.002518263)
(0.5147563 0.006834198 -0.1583868)
(0.3930186 0.001165356 -0.06387285)
(0.511471 -0.0004613286 0.02780844)
(0.4662652 -0.0002147202 -0.01222988)
(0.501986 -0.0003856702 0.008569671)
(0.4899862 -0.0006003707 -0.002496493)
(0.5149828 0.005794568 -0.1592303)
(0.3924986 0.001066136 -0.06376248)
(0.5101235 -0.0004227458 0.02640211)
(0.4655926 -0.0002216595 -0.01257495)
(0.5015612 -0.0003541916 0.008380556)
(0.4898683 -0.0005089747 -0.002375045)
(0.5155109 0.006041802 -0.1569172)
(0.3923869 0.0008398157 -0.06358059)
(0.5091902 -0.0003607549 0.0253939)
(0.4651807 -0.0002373402 -0.01282355)
(0.5014982 -0.0003403768 0.008497774)
(0.4898374 -0.0005050253 -0.002222268)
(0.5154869 0.007229503 -0.1582693)
(0.3922415 0.0006094272 -0.06370552)
(0.5082919 -0.0002687385 0.02434472)
(0.4650164 -0.0002485966 -0.01294019)
(0.5016541 -0.000338023 0.008867408)
(0.4898378 -0.0004822742 -0.002049606)
(0.5157245 0.006905867 -0.1579208)
(0.3921546 0.0004433971 -0.06408009)
(0.5076644 -0.0001733601 0.02355356)
(0.4652323 -0.0002711217 -0.0128573)
(0.5020047 -0.0003483698 0.009465689)
(0.4899059 -0.0004105596 -0.001862647)
(0.5159451 0.004656539 -0.1546908)
(0.3920534 -5.146378e-05 -0.06535086)
(0.5070327 -0.0001562478 0.02276133)
(0.4656319 -0.0003058929 -0.01267818)
(0.5022809 -0.0003294451 0.009959662)
(0.4899683 -0.0003251616 -0.001621075)
(0.5165942 0.003411035 -0.1406606)
(0.3922127 -0.0003235913 -0.0653629)
(0.5069083 -0.0001685012 0.02259176)
(0.4659557 -0.0002828164 -0.01263935)
(0.5025172 -0.0002776034 0.01036108)
(0.4901425 -0.0002482111 -0.001393956)
(0.5166109 0.006033115 -0.1349333)
(0.3919011 4.807397e-05 -0.06586118)
(0.5065695 -0.0001381335 0.0220102)
(0.4661576 -0.000242107 -0.01259366)
(0.5027197 -0.0001918311 0.01072551)
(0.4903185 -0.0001682735 -0.001201024)
(0.5169928 0.005518295 -0.1431968)
(0.3922842 -4.78529e-05 -0.06732548)
(0.5064844 -0.0001826026 0.022017)
(0.4661885 -0.0002904277 -0.01263251)
(0.5028649 -0.0002186508 0.01093459)
(0.4904294 -0.0001345272 -0.001104364)
(0.5168985 0.005064847 -0.1259641)
(0.3926789 -0.0002960729 -0.06635599)
(0.5066698 -0.0002103704 0.02228948)
(0.4669957 -0.0002580061 -0.01250529)
(0.5032948 -0.0001938732 0.01121714)
(0.4906714 -7.53421e-05 -0.001007432)
(0.5168 0.005625789 -0.1246428)
(0.3929824 -9.784504e-05 -0.06640188)
(0.5066579 -0.0002186348 0.02212609)
(0.4669975 -0.0001532317 -0.01269651)
(0.5033034 -7.070146e-05 0.01114962)
(0.4907663 -1.232489e-05 -0.0009647177)
(0.5166765 0.004709215 -0.1314196)
(0.3926989 0.0007450542 -0.06586046)
(0.5068696 -0.0003860497 0.02242643)
(0.4668782 -0.0002702097 -0.01293666)
(0.5032671 -3.728303e-05 0.0110547)
(0.4908858 2.831251e-05 -0.0009377832)
(0.5172118 0.002675902 -0.1210929)
(0.3949702 0.00102337 -0.06585259)
(0.5083197 -0.0003191259 0.02551665)
(0.4671206 -9.992064e-05 -0.01334379)
(0.5034908 2.317832e-05 0.01102956)
(0.4910328 5.201561e-05 -0.0008318809)
(0.5095529 0.00730005 -0.1280385)
(0.3958254 0.0006105935 -0.06473527)
(0.5074126 -4.113323e-05 0.0241804)
(0.4667432 6.733796e-05 -0.01324733)
(0.5030813 0.0002126185 0.01063941)
(0.4910216 0.0001184888 -0.0009162705)
(0.508048 0.004482041 -0.1331555)
(0.3962075 0.001125062 -0.06375191)
(0.5077822 -1.261613e-05 0.0251332)
(0.4660152 0.0001758214 -0.01354983)
(0.5027967 0.0002486302 0.01052386)
(0.4907137 0.0001608902 -0.0009357818)
(0.5143018 -0.003940233 -0.1600342)
(0.3968348 0.0003193552 -0.06673028)
(0.5070904 -0.0003392051 0.02388618)
(0.4652974 9.449492e-05 -0.01350798)
(0.5023928 -9.774237e-07 0.01047763)
(0.4905676 9.433783e-06 -0.001021366)
(0.4596684 0.009555556 0.008336618)
(0.5086127 -0.01033965 0.001014983)
(0.5002891 -0.007520606 -0.0003898253)
(0.5054645 -0.006149276 0.001052197)
(0.5037212 -0.007336002 0.002701872)
(0.4883895 -0.1172772 -0.008603622)
(0.4194552 -0.04573283 -0.02521105)
(0.518984 0.03765277 0.01412166)
(0.4672009 -0.01561563 -0.005377425)
(0.4999793 0.002283764 0.001362781)
(0.4906416 -0.003438328 -2.685728e-05)
(0.2139327 -0.006613159 -0.005070792)
(0.4297419 -0.02787794 -0.02463421)
(0.5508525 0.0119379 0.01050513)
(0.4865399 -0.009951617 -0.008499019)
(0.5129062 -0.00113967 -0.001451349)
(0.4958315 -0.001948668 -0.001556838)
(0.4201449 0.009683543 -0.03048304)
(0.406376 -0.026651 -0.03441533)
(0.5428591 0.01423306 0.002512542)
(0.4767815 -0.002070738 -0.01247248)
(0.5025335 0.0006212547 -0.004142143)
(0.4907442 -0.0004660724 -0.003283883)
(0.4569303 0.006866397 -0.03399333)
(0.3891214 -0.01054488 -0.04513678)
(0.5394856 0.004690177 -0.002506552)
(0.4744904 -0.001971927 -0.01491495)
(0.5111076 2.810783e-05 -0.002161803)
(0.4939045 -0.001148694 -0.002414803)
(0.4549292 0.003881434 -0.04638256)
(0.3834709 -0.001760277 -0.04549364)
(0.5332402 0.002579399 -0.006464457)
(0.4647531 -4.357492e-05 -0.01664398)
(0.50529 0.0009065812 -0.003810972)
(0.4899242 0.0006145988 -0.002954434)
(0.4526141 0.00240259 -0.06214314)
(0.3840743 0.001729798 -0.04168041)
(0.5318189 0.001586693 -0.009113464)
(0.4638626 -0.0005046425 -0.01817202)
(0.5047698 -0.0006773892 -0.00469447)
(0.4905249 -0.0004704571 -0.003561198)
(0.450935 0.00216554 -0.07563515)
(0.3853012 0.002085428 -0.03721621)
(0.5320848 0.0002006108 -0.009254454)
(0.4645869 -0.0005309229 -0.01902974)
(0.5045439 -0.0005347692 -0.0047589)
(0.4897833 -0.0002535555 -0.004025787)
(0.4503279 0.001987902 -0.08096903)
(0.3864751 0.001990401 -0.03338502)
(0.5318938 -0.000282071 -0.009257931)
(0.4647547 -0.0004348282 -0.01998177)
(0.50406 -0.0005023478 -0.00512219)
(0.4900958 -0.0003745713 -0.004361596)
(0.4496263 0.001440304 -0.08418535)
(0.3866296 0.001470214 -0.03088011)
(0.531861 -0.0005417257 -0.009237482)
(0.4646473 -0.0004472541 -0.02073985)
(0.5038189 -0.000324301 -0.005322318)
(0.4899611 -0.0002179992 -0.004741905)
(0.4488945 0.001092984 -0.08745103)
(0.3860031 0.0009550926 -0.02890896)
(0.5318296 -0.0006916123 -0.009318287)
(0.4640929 -0.0004002817 -0.02145443)
(0.5035228 -0.0001504573 -0.005549523)
(0.4898924 -7.362449e-05 -0.005065485)
(0.4489509 0.001584799 -0.08656695)
(0.3850907 0.0003661913 -0.02755334)
(0.5313447 -0.0007340566 -0.009679012)
(0.4629324 -0.0002623784 -0.02215833)
(0.5030525 -1.939693e-06 -0.005778245)
(0.4896414 6.274234e-05 -0.005346083)
(0.4495457 0.00146221 -0.08468961)
(0.3833696 -0.0001373287 -0.02678007)
(0.5308189 -0.0006774398 -0.01001542)
(0.4615689 -2.999867e-05 -0.02289717)
(0.5024984 7.789377e-05 -0.006035355)
(0.4893963 0.0001555742 -0.005578837)
(0.4499824 0.001126087 -0.08313974)
(0.3813812 -0.0005210341 -0.02674568)
(0.5300527 -0.0005715093 -0.01043686)
(0.4600367 0.0001180546 -0.02366143)
(0.5019382 4.285261e-05 -0.006263278)
(0.489075 0.0001836165 -0.005823304)
(0.449919 0.0002025647 -0.08863307)
(0.3794392 -0.0006875851 -0.02617213)
(0.5296245 -0.0005230319 -0.01067793)
(0.4596174 0.0001337545 -0.02413163)
(0.5016011 -2.1303e-05 -0.006330651)
(0.4889092 0.0001074657 -0.005883815)
(0.450268 0.001101927 -0.08822665)
(0.3782277 -0.0004442743 -0.02570299)
(0.5291469 -0.0004540189 -0.01115953)
(0.4588759 0.0001663434 -0.02462673)
(0.5014675 -3.322232e-05 -0.006440561)
(0.4887242 4.426935e-05 -0.005992065)
(0.4527703 0.0005825996 -0.07611008)
(0.3769226 -0.0003265511 -0.02620537)
(0.528725 -0.0004798146 -0.0114971)
(0.4584823 0.0002036726 -0.02487448)
(0.5013706 -6.210977e-05 -0.006516446)
(0.488599 1.654682e-05 -0.006002874)
(0.4505981 0.0001393931 -0.08820409)
(0.3762845 -0.0001585233 -0.02623738)
(0.5281185 -0.0004647956 -0.01165938)
(0.4580634 9.854367e-05 -0.02498972)
(0.5011406 -0.0001179677 -0.006613441)
(0.488481 -2.224158e-06 -0.006020793)
(0.4496889 -0.0006282241 -0.09004937)
(0.376598 0.0004411645 -0.02599593)
(0.5281646 -0.0003187631 -0.01160068)
(0.458461 -6.268125e-05 -0.02479487)
(0.5011401 -0.0001420945 -0.00661221)
(0.4884908 -8.068401e-05 -0.005955049)
(0.4493454 -0.001876704 -0.08750935)
(0.3766438 0.0008211512 -0.02562222)
(0.5285815 -0.0005151565 -0.01127969)
(0.4582899 -0.0001261055 -0.0245408)
(0.5013756 -0.0002178337 -0.006581183)
(0.4884979 -8.20093e-05 -0.00589936)
(0.4456399 -0.002095796 -0.09783762)
(0.3767394 0.00102749 -0.02590056)
(0.5289933 -0.0002263437 -0.01001938)
(0.4596969 -7.216586e-05 -0.02395152)
(0.5012436 -0.0001946379 -0.006600184)
(0.4886337 -9.680368e-05 -0.00581236)
(0.4429491 -0.0003474638 -0.1048302)
(0.3783893 0.0006445689 -0.02564776)
(0.5296093 0.0001710776 -0.009941899)
(0.4595063 -1.723348e-05 -0.02366893)
(0.5014601 -0.0001544247 -0.006779577)
(0.4886773 -6.167078e-05 -0.00583683)
(0.4425202 -0.005099169 -0.09879132)
(0.3790097 0.0008283492 -0.02541684)
(0.5301834 0.0002798243 -0.009249152)
(0.4612277 -7.939264e-05 -0.02309111)
(0.5010256 -6.065302e-05 -0.006808772)
(0.4887576 -1.414024e-05 -0.005806305)
(0.4426995 -0.007789545 -0.06494229)
(0.3802385 0.0003991893 -0.02377406)
(0.5311566 -0.0002086607 -0.008819808)
(0.4609745 -0.0002179772 -0.02290864)
(0.5008085 -3.139747e-05 -0.006777064)
(0.4887061 -0.0002422533 -0.005761752)
(0.4467912 0.003092947 -0.003099637)
(0.5233307 -0.01390086 0.004244567)
(0.5043941 -0.009827786 -0.003330002)
(0.51185 -0.008753384 0.0009167587)
(0.5050129 -0.007653632 0.0003089771)
(0.5099144 -0.1091987 0.005394567)
(0.4089961 -0.06114677 -0.01303409)
(0.5133273 0.03578605 0.007354628)
(0.4624254 -0.01508786 -0.002888542)
(0.4971867 0.002941793 0.0004202163)
(0.4891082 -0.002070671 -0.0004018405)
(0.3792248 -0.03071569 0.004595401)
(0.4095263 -0.03737451 -0.02535189)
(0.5438685 0.002591395 0.01251512)
(0.4774609 -0.01389813 -0.002349351)
(0.507739 -0.005141007 0.001159834)
(0.4916369 -0.004064193 -0.0007097527)
(0.1724842 -0.004400054 -0.00376661)
(0.4393631 -0.0253419 -0.0204924)
(0.5608517 0.004118133 0.00214636)
(0.4861079 -0.007332492 -0.00635681)
(0.5122081 0.001177078 0.001455464)
(0.4940658 -0.001625649 -0.0004929185)
(0.2745655 0.003018385 -0.02038399)
(0.4165415 -0.01445051 -0.0172676)
(0.5535056 -0.0001845705 -0.00759088)
(0.4721669 -0.003923882 -0.01107896)
(0.5044451 -0.002399594 -0.004234312)
(0.4916214 -0.001605084 -0.002862843)
(0.3314056 0.0005826714 -0.03874867)
(0.4306666 -0.001147722 -0.01234439)
(0.5573133 -0.001853866 -0.01176096)
(0.4812937 -0.003054968 -0.01243272)
(0.5075131 -0.001985651 -0.004629964)
(0.4941191 -0.002217394 -0.002561785)
(0.4080529 0.002080917 -0.06668704)
(0.4412659 0.00142127 -0.007540489)
(0.5639943 -0.002462002 -0.0113996)
(0.4842646 -0.001493865 -0.01076484)
(0.5129818 -0.002011149 -0.005937901)
(0.4972318 -0.001881016 -0.002791926)
(0.4219059 0.007841816 -0.07545555)
(0.4419579 0.001773063 -0.006296011)
(0.5646696 -0.00177076 -0.01265845)
(0.4842658 -0.001303786 -0.01131242)
(0.5128012 -0.001924884 -0.007165428)
(0.4961168 -0.001349776 -0.002976507)
(0.4262627 0.008852547 -0.07714462)
(0.4428941 0.001628823 -0.00495673)
(0.5664534 -0.001423863 -0.01433403)
(0.4853919 -0.001187942 -0.01146162)
(0.5144086 -0.001893249 -0.00784573)
(0.4973841 -0.001288956 -0.003189593)
(0.429067 0.006644873 -0.07699267)
(0.4430032 0.001042916 -0.004405509)
(0.566961 -0.001222409 -0.01583892)
(0.4853562 -0.0009938591 -0.01161856)
(0.5150822 -0.001667322 -0.008470598)
(0.4974394 -0.001005148 -0.00321226)
(0.4310283 0.004834506 -0.07600006)
(0.4427451 0.0006724425 -0.003939027)
(0.5676963 -0.001183365 -0.01737246)
(0.485521 -0.0009692115 -0.0118493)
(0.5160755 -0.001476543 -0.008896292)
(0.4975901 -0.0008233141 -0.003118021)
(0.432593 0.002477788 -0.07341185)
(0.442746 0.0001908824 -0.00375252)
(0.5687799 -0.001345563 -0.01875254)
(0.4854809 -0.0009408762 -0.01220456)
(0.5171008 -0.001292392 -0.009185985)
(0.4975948 -0.0006872099 -0.00307949)
(0.4302382 -0.0005725788 -0.07081215)
(0.4433209 -0.0001383396 -0.003910645)
(0.5697969 -0.001585234 -0.02031102)
(0.4854719 -0.000903831 -0.01234086)
(0.5184156 -0.00118406 -0.009320148)
(0.4978571 -0.0006039621 -0.003027139)
(0.4231052 -0.001950686 -0.06866095)
(0.4448023 -0.0004093903 -0.003839999)
(0.5710649 -0.001690507 -0.02197031)
(0.4859589 -0.0008389336 -0.0123162)
(0.5196537 -0.0009482278 -0.009406199)
(0.4986706 -0.0004207648 -0.002771482)
(0.4175264 -0.001108605 -0.06969496)
(0.4442846 -0.0002456992 -0.004090011)
(0.5721477 -0.001624522 -0.02307936)
(0.4846699 -0.0008564108 -0.01283723)
(0.5199516 -0.0007200108 -0.009206093)
(0.4986446 -0.0003284161 -0.002737858)
(0.413421 -0.0009938599 -0.0699647)
(0.4450458 -1.143322e-05 -0.003916276)
(0.57422 -0.001446613 -0.02407448)
(0.484579 -0.0006602328 -0.01331488)
(0.5205911 -0.0005167827 -0.009308107)
(0.4988734 -0.0002440319 -0.002595106)
(0.4085597 -0.0009686166 -0.06915455)
(0.4453469 -4.747987e-05 -0.003741282)
(0.5747673 -0.00121465 -0.02486208)
(0.4840983 -0.0004730485 -0.01369423)
(0.5205994 -0.00033996 -0.009159307)
(0.4986736 -0.0001875871 -0.00273773)
(0.404562 0.0004732247 -0.07260851)
(0.4469728 0.0001137279 -0.003258193)
(0.5760487 -0.0008657162 -0.02532575)
(0.4846244 -0.0003256543 -0.01369136)
(0.5211711 -6.319399e-05 -0.00908627)
(0.498812 -8.489817e-05 -0.002666776)
(0.4076854 0.002770938 -0.07573817)
(0.4464208 0.0002912793 -0.003262309)
(0.5753543 -0.0002940879 -0.02535433)
(0.4840263 -0.0001164448 -0.01390982)
(0.521007 0.0002703828 -0.008798067)
(0.498662 4.868211e-05 -0.002684978)
(0.4136005 0.003244498 -0.07796816)
(0.445224 0.000453995 -0.003460233)
(0.5747593 7.126471e-05 -0.02516426)
(0.4836105 -0.0001107643 -0.0139297)
(0.52072 0.0003558795 -0.008637731)
(0.4986923 9.25665e-05 -0.002671696)
(0.4177709 0.002498596 -0.08295817)
(0.4433504 0.0009616974 -0.004130453)
(0.5742969 0.0003176788 -0.02453949)
(0.4832762 0.0001572567 -0.01385393)
(0.5208619 0.0003126795 -0.008130647)
(0.4985431 0.0001056468 -0.002607095)
(0.4211446 0.002241228 -0.08395583)
(0.4454898 0.0001808003 -0.003212908)
(0.5732289 0.0002284839 -0.02446767)
(0.485921 0.0003104153 -0.01258641)
(0.5206839 0.0003516259 -0.008069957)
(0.4990626 9.962431e-05 -0.002577589)
(0.4226057 -1.085013e-05 -0.08444075)
(0.4427836 0.001062534 -0.005211089)
(0.5732571 0.0003021141 -0.02288969)
(0.4851764 0.0008154824 -0.01223727)
(0.5197782 0.000349148 -0.007303676)
(0.4982507 0.0001912867 -0.002692089)
(0.4216573 -0.004131217 -0.07743003)
(0.4433007 0.0007780189 -0.004645972)
(0.5700636 -7.544944e-05 -0.0229716)
(0.4870086 0.0003405506 -0.01120903)
(0.5202867 0.0002215157 -0.006481542)
(0.498333 7.169425e-06 -0.002625052)
(0.4425228 0.00157682 -0.007253311)
(0.5218607 -0.01374409 0.002056966)
(0.5033984 -0.007837123 -0.000267946)
(0.5124943 -0.008510387 -0.0001116985)
(0.505272 -0.007625975 4.819527e-05)
(0.5013555 -0.1346839 0.001681725)
(0.4023321 -0.0690201 -0.003396553)
(0.5149453 0.03790633 0.001820347)
(0.4628357 -0.01515227 -0.001199325)
(0.4966512 0.002135077 -0.0003963754)
(0.4886861 -0.003603576 -0.0005314854)
(0.4538208 -0.03620604 -0.0008264976)
(0.3951325 -0.04718426 -0.007570337)
(0.5388853 -0.001898382 0.001900311)
(0.4774856 -0.0160219 -0.0008471683)
(0.511932 -0.002607404 -0.002015535)
(0.4953734 -0.002556112 -0.0003976711)
(0.3635499 -0.005631875 -0.04950214)
(0.4204365 -0.01832423 -0.00867186)
(0.5528266 -0.002817892 -0.001387072)
(0.470543 -0.01221517 -0.001169652)
(0.4996156 -0.004569469 -0.0008522719)
(0.4895057 -0.00293224 0.001020403)
(0.2953691 -0.004541494 -0.06301803)
(0.4691283 -0.00720227 0.004450181)
(0.5792687 -0.007210888 -0.007667753)
(0.4975709 -0.005039872 -0.003001814)
(0.521245 -0.004524241 -0.004034431)
(0.4996282 -0.00249306 -0.0008900845)
(0.5035298 0.02262698 -0.1064578)
(0.4569517 -0.0002991659 0.007386051)
(0.56265 8.28623e-05 -0.004672514)
(0.487682 -0.0001320889 -0.001611625)
(0.5104275 -0.001384645 -0.00230316)
(0.494532 0.0004123335 -0.0007535438)
(0.4913656 0.01515423 -0.09539991)
(0.4480327 0.0008983901 0.006644034)
(0.5507599 -0.00146982 -0.002984553)
(0.4904815 -0.000676583 -0.0009989921)
(0.5099595 -0.001458285 -0.001540463)
(0.4966013 -0.0007985885 6.128563e-05)
(0.4908903 0.01499549 -0.09613007)
(0.4513815 0.001138141 0.006388359)
(0.5495674 -0.001639128 -0.003202137)
(0.4912453 -0.001083142 -0.0006844785)
(0.508995 -0.0009716582 -0.001507802)
(0.4956147 -0.0005612564 0.0003616704)
(0.4910132 0.01458423 -0.09757158)
(0.4560873 0.0010515 0.006460734)
(0.5516571 -0.001348698 -0.003119634)
(0.4934633 -0.001077414 -0.0009228649)
(0.5092682 -0.0009821446 -0.001630563)
(0.4968509 -0.0006574141 0.0008591748)
(0.491872 0.00891398 -0.09505595)
(0.4569011 0.000307682 0.007721341)
(0.5521883 -0.001209084 -0.00315656)
(0.4939912 -0.0009678831 -0.001077507)
(0.5093192 -0.0008240741 -0.001702922)
(0.4970911 -0.0007013055 0.001087913)
(0.4942482 0.006819348 -0.08808749)
(0.4596757 1.50718e-05 0.007838631)
(0.5532904 -0.00126542 -0.003192959)
(0.494856 -0.0008678005 -0.001123538)
(0.5094368 -0.0008223947 -0.001766288)
(0.4972559 -0.0006159528 0.001372823)
(0.4971564 0.005337418 -0.07852534)
(0.4622346 -0.0004815007 0.007766404)
(0.5540221 -0.001368573 -0.00322916)
(0.495317 -0.0007326114 -0.001003742)
(0.5097096 -0.0006928557 -0.001865585)
(0.4974736 -0.0005075321 0.001633783)
(0.5005225 0.003912939 -0.0678908)
(0.463311 -0.0007795273 0.008043689)
(0.5545783 -0.001481692 -0.003192345)
(0.4951118 -0.0006599194 -0.0008743027)
(0.5096074 -0.0003482721 -0.001735097)
(0.4969968 -0.0004255014 0.001976117)
(0.5041909 0.002760755 -0.05783862)
(0.462827 -0.0007474951 0.008326989)
(0.5550827 -0.001601329 -0.003239824)
(0.4930718 -0.0006918787 -0.0008260842)
(0.5093669 -0.000156531 -0.001350889)
(0.4966468 -0.000205659 0.002248811)
(0.5078708 0.002501427 -0.04938673)
(0.4635749 -0.0003682104 0.008897)
(0.5565439 -0.001814153 -0.003322068)
(0.4924601 -0.0005160331 -0.0003749971)
(0.5091907 -0.0002510566 -0.001160251)
(0.4962869 -0.0001409595 0.002689322)
(0.5114469 0.001418295 -0.04265622)
(0.4658032 -0.0002184354 0.009475981)
(0.5576649 -0.001591996 -0.003549834)
(0.4928687 -0.0003811605 0.0001325463)
(0.5100133 -0.0002413077 -0.0009397237)
(0.4964495 -0.0001096648 0.00284824)
(0.5133572 0.0009274715 -0.04033057)
(0.4672275 -0.0002035407 0.009639947)
(0.5584699 -0.001144265 -0.003674325)
(0.4927328 -0.0001202907 0.0006780869)
(0.5103437 -0.0001394754 -0.0007840842)
(0.4962734 0.0001196478 0.003082269)
(0.513257 0.0003102827 -0.04301701)
(0.4671915 -0.0001643229 0.009463765)
(0.5576331 -0.0006156805 -0.003636499)
(0.4921302 0.0002653859 0.001130601)
(0.5101293 -3.840661e-05 -0.0006911622)
(0.4960749 0.00032223 0.003222079)
(0.5121789 0.001590403 -0.04633401)
(0.4666437 -7.417447e-05 0.009376543)
(0.5567008 -8.262328e-05 -0.003599928)
(0.4916025 0.0004960457 0.001444888)
(0.509107 -4.397504e-05 -0.0007809735)
(0.4955635 0.0002954891 0.003403279)
(0.5112254 0.001740055 -0.0485379)
(0.4653852 -1.067226e-06 0.009040574)
(0.556038 0.0001731934 -0.003672653)
(0.4903401 0.0005395018 0.001243904)
(0.5093342 -2.655184e-05 -0.0007918688)
(0.4955568 0.0004182337 0.003241869)
(0.5103356 0.001739673 -0.05148212)
(0.4655816 -3.835498e-05 0.009037515)
(0.5563594 0.0008862413 -0.003525911)
(0.4904981 0.000483257 0.001428481)
(0.507157 0.0001246595 -0.001036272)
(0.4949215 4.43337e-05 0.003436732)
(0.5084112 0.0004808334 -0.05614199)
(0.4610835 -0.0001624087 0.007733756)
(0.555428 0.0007328597 -0.003367713)
(0.4878105 0.001154536 0.0009024658)
(0.508085 0.0001669446 -0.000251906)
(0.4944271 -0.0001958301 0.003284639)
(0.5051838 -0.001456148 -0.06556749)
(0.4603408 -0.001379477 0.007004285)
(0.5527099 0.0008451682 -0.003419431)
(0.4887661 0.001443818 0.001722353)
(0.5083216 0.0004987777 -0.00042623)
(0.4945843 0.0003762846 0.002921626)
(0.3298439 0.08146286 -0.09982254)
(0.4508545 -0.0007588934 0.006987276)
(0.5478793 -0.0002018274 -0.002163651)
(0.4836002 -9.174384e-05 0.002133454)
(0.5067639 3.59466e-05 0.0001175106)
(0.4936903 -0.0002732682 0.003595891)
(0.4450595 0.0003985916 -0.003898975)
(0.5167168 -0.01140905 -0.0003913679)
(0.501393 -0.008740847 0.003519146)
(0.5041985 -0.005296697 0.0001029951)
(0.5058121 -0.005977417 0.0006066883)
(0.5002833 -0.1307779 0.0009932228)
(0.4028884 -0.06874619 0.003895829)
(0.5150532 0.03938557 -0.001981802)
(0.4632985 -0.01549318 0.001171438)
(0.4970287 0.002389041 0.0003716384)
(0.4887049 -0.003561775 0.0006044824)
(0.4527267 -0.04399908 0.0005747866)
(0.3951978 -0.04760243 0.007716601)
(0.5387801 -0.001370675 -0.00203589)
(0.4776045 -0.01598983 0.0008663582)
(0.5119323 -0.002491512 0.002028399)
(0.4953443 -0.002566141 0.0004167727)
(0.2542438 -0.02082039 0.0003273805)
(0.4200368 -0.01750652 0.008631967)
(0.5525944 -0.002510378 0.001451438)
(0.4704005 -0.01211177 0.001213737)
(0.4994768 -0.004593336 0.0008773041)
(0.4894924 -0.002861813 -0.000969646)
(0.2599645 -0.01003011 -0.003731914)
(0.468646 -0.006350045 -0.003924609)
(0.5791153 -0.006866745 0.007729826)
(0.4974571 -0.005085045 0.003019445)
(0.5212239 -0.004436715 0.004000133)
(0.4993046 -0.002536958 0.001032473)
(0.1525636 -0.0006502042 0.0002290342)
(0.4569476 -0.001687081 -0.005640966)
(0.5619496 0.0001441571 0.00468337)
(0.4875275 -0.0001042976 0.001606391)
(0.5095525 -0.001433171 0.002192462)
(0.4943232 0.0006091164 0.001015443)
(0.1496663 -8.610021e-05 0.0002265874)
(0.4486383 0.0007919119 -0.003990039)
(0.5499254 -0.001393042 0.003033772)
(0.4897879 -0.0005812556 0.001018378)
(0.5091896 -0.001446245 0.001621707)
(0.4959899 -0.0007996842 3.63723e-06)
(0.1493952 -8.472496e-05 0.0003952429)
(0.4515663 0.00124305 -0.005273893)
(0.5488355 -0.001612165 0.003295105)
(0.4907102 -0.001067065 0.0006341432)
(0.5088022 -0.000978576 0.001552345)
(0.4956976 -0.000670501 -0.0002676372)
(0.1487925 -6.091504e-05 0.0003351385)
(0.4557845 0.001059128 -0.005691187)
(0.5511718 -0.001355549 0.003321403)
(0.4935316 -0.001054366 0.0008999902)
(0.509431 -0.001033567 0.001707565)
(0.4968795 -0.0007068473 -0.0007860765)
(0.1480887 -1.447502e-05 0.0002448253)
(0.457898 0.0004566081 -0.006293803)
(0.5517411 -0.001182778 0.003352819)
(0.4943424 -0.0009077935 0.001057596)
(0.5094154 -0.0007935837 0.001713752)
(0.497043 -0.0007067696 -0.00103598)
(0.1473269 -5.942135e-06 9.270191e-05)
(0.4598851 0.0002689675 -0.006126405)
(0.5521961 -0.001178581 0.003447634)
(0.4950105 -0.0008064605 0.001112627)
(0.5091657 -0.0007137338 0.001758102)
(0.4970259 -0.0005768024 -0.001270626)
(0.1468462 -2.996365e-06 -2.01408e-05)
(0.461532 -8.163808e-05 -0.005466069)
(0.5523546 -0.00124772 0.003543639)
(0.4951153 -0.0006890749 0.001023767)
(0.5088924 -0.0005089944 0.001795582)
(0.4967294 -0.0003743056 -0.001461013)
(0.1466847 -1.150472e-06 -4.892099e-05)
(0.4620491 -0.0003589501 -0.005013686)
(0.5524649 -0.001329433 0.003640959)
(0.4944623 -0.0005812831 0.0009558167)
(0.5081233 -0.0002201571 0.001610577)
(0.4961171 -0.0002065588 -0.001712423)
(0.1467493 -2.151882e-07 4.966949e-06)
(0.4621061 -0.0006746374 -0.004544265)
(0.5527754 -0.001312987 0.003696513)
(0.4922805 -0.0005033368 0.00095675)
(0.5075089 -3.138548e-05 0.001150375)
(0.4955272 0.0001808658 -0.001963282)
(0.1466681 -2.251125e-06 4.727451e-05)
(0.4610655 -0.0006977572 -0.004435503)
(0.5521301 -0.001282633 0.003956676)
(0.4901974 -0.0003849098 0.0007827255)
(0.5057479 -9.371749e-05 0.001028182)
(0.4948181 0.0003494311 -0.002226546)
(0.1465046 5.936658e-07 7.071414e-05)
(0.4613588 -0.0004830471 -0.004389457)
(0.5521385 -0.001104446 0.004249174)
(0.4888824 -0.0002853094 0.0005829144)
(0.5051357 -0.000126762 0.0009184807)
(0.4944626 0.000266767 -0.002272577)
(0.1464526 1.227046e-07 8.136388e-05)
(0.4611791 -0.0002697602 -0.004461021)