/*--------------------------------*- C++ -*----------------------------------*\
  =========                 |
  \\      /  F ield         | OpenFOAM: The Open Source CFD Toolbox
   \\    /   O peration     | Website:  https://openfoam.org
    \\  /    A nd           | Version:  7
     \\/     M anipulation  |
\*---------------------------------------------------------------------------*/
FoamFile
{
    version     2.0;
    format      ascii;
    class       volScalarField;
    location    "0.02";
    object      k;
}
// * * * * * * * * * * * * * * * * * * * * * * * * * * * * * * * * * * * * * //

dimensions      [0 2 -2 0 0 0 0];

internalField   nonuniform List<scalar> 
82743
(
0.003766045
0.003765396
0.003763302
0.003761637
0.003759846
0.003758394
0.003757248
0.003756499
0.00375595
0.003764944
0.003764906
0.003763316
0.003761707
0.003759761
0.003758112
0.003756876
0.003756208
0.003755734
0.003764571
0.003764925
0.003763806
0.003762288
0.003760002
0.003757835
0.003756389
0.003755857
0.00375564
0.003764065
0.003764787
0.003763942
0.003762747
0.003759352
0.003756663
0.003754791
0.003754793
0.0037549
0.003763963
0.003764992
0.003764651
0.003763365
0.003760985
0.003754973
0.003752328
0.003752683
0.003753919
0.003763813
0.003765268
0.00376607
0.003793236
0.003827209
0.003765962
0.003753484
0.003755633
0.003760124
0.003763283
0.003764526
0.003765111
0.003793473
0.004052319
0.003761509
0.003762169
0.003763007
0.003762969
0.0037843
0.004000798
0.003755981
0.00376091
0.003761381
0.003760841
0.003778509
0.003956228
0.003755814
0.003759572
0.00375966
0.003758911
0.003773496
0.003923284
0.003756492
0.003758252
0.003758047
0.003757074
0.003768765
0.003893572
0.003756771
0.003757077
0.003756633
0.003755433
0.003764126
0.003862906
0.003768783
0.003756183
0.003755561
0.00375411
0.003759756
0.003825797
0.003774549
0.00375564
0.003754964
0.003753887
0.003757864
0.003748704
0.003822425
0.003859092
0.00392115
0.003779022
0.003755319
0.003755071
0.003754186
0.003753477
0.003753518
0.003754833
0.003757094
0.003758643
0.003758443
0.003755214
0.003755076
0.003754825
0.003754261
0.003754431
0.003755223
0.003756366
0.003757298
0.003756925
0.003755104
0.003755195
0.003755102
0.003754832
0.003754966
0.003755354
0.003755948
0.003756381
0.003756188
0.003755025
0.003755195
0.003755207
0.003755019
0.003755094
0.003755268
0.003755521
0.003755699
0.003755532
0.003692172
0.00368412
0.003682287
0.003681096
0.003680442
0.003679754
0.003679191
0.003678757
0.003678493
0.003762228
0.003682868
0.003680381
0.003680165
0.003679592
0.003679272
0.003678546
0.003677905
0.003677512
0.003677325
0.003718225
0.003681437
0.003679505
0.003679581
0.003679654
0.003679673
0.003678925
0.003678103
0.003677553
0.003677308
0.003703616
0.003679587
0.003678585
0.003678945
0.0036799
0.003680734
0.003679891
0.003678575
0.003677591
0.003677275
0.00370043
0.00367871
0.003678071
0.003678646
0.003681447
0.003683837
0.003682566
0.003680031
0.00367819
0.003677312
0.003700307
0.003678171
0.003677739
0.003679044
0.003686145
0.003700373
0.003691689
0.003685027
0.003680138
0.003677615
0.003700456
0.003678324
0.003677922
0.003680009
0.003695415
0.003873164
0.003737245
0.003704135
0.00370364
0.003677836
0.003700475
0.003678542
0.003678732
0.003681193
0.003691489
0.003991862
0.003678286
0.003699935
0.003679752
0.003679077
0.003681796
0.003683574
0.003677569
0.003699265
0.003680236
0.003679256
0.003681068
0.00368511
0.003677597
0.003698287
0.003680459
0.003679343
0.003680461
0.003683163
0.003677914
0.003696927
0.003680359
0.003679267
0.00368012
0.003682497
0.003678489
0.003694627
0.003679959
0.003679137
0.003680256
0.003682715
0.003680556
0.003692401
0.003679414
0.003678732
0.003680518
0.003683262
0.003689534
0.003690378
0.003678358
0.00367812
0.003679485
0.003683429
0.003861397
0.003760253
0.003769721
0.003844407
0.003685265
0.003688532
0.003677942
0.003677607
0.003677776
0.003678695
0.003678987
0.003679822
0.003681859
0.00368358
0.003680369
0.003687539
0.003677752
0.003677365
0.003677374
0.003677408
0.003677509
0.003677838
0.00367843
0.003678765
0.003678307
0.003686876
0.003677633
0.003677283
0.003677251
0.0036772
0.003677215
0.00367731
0.003677537
0.00367775
0.003677714
0.003686489
0.003677581
0.003677242
0.003677218
0.003677162
0.003677153
0.003677189
0.003677291
0.003677401
0.003677421
0.003696431
0.003681191
0.003679226
0.003678746
0.0036784
0.003677948
0.003677612
0.003677389
0.003677268
0.003781852
0.003681288
0.003679736
0.003680338
0.003679502
0.003679247
0.003678522
0.003677918
0.003677508
0.003677306
0.003688892
0.003678194
0.003679187
0.003679425
0.003679429
0.00367952
0.00367884
0.003678034
0.003677512
0.003677275
0.003687104
0.003677724
0.003678775
0.003678866
0.003679897
0.003680633
0.003679845
0.003678541
0.00367757
0.003677267
0.003680441
0.003677791
0.003678084
0.003678661
0.003681356
0.003683666
0.003682362
0.00367983
0.003678042
0.003677216
0.003680213
0.003677579
0.003677672
0.00367942
0.003685904
0.003700078
0.003691011
0.003684634
0.00367995
0.003677474
0.00368043
0.003677696
0.003677909
0.003680185
0.003694814
0.003866554
0.003743145
0.003703626
0.003704032
0.003677855
0.003680742
0.003678152
0.003678973
0.003680532
0.003691541
0.003993637
0.003678222
0.003680362
0.003678484
0.003678598
0.003681284
0.003683802
0.00367751
0.003680459
0.003678505
0.003680139
0.00368016
0.003761464
0.003762671
0.003677809
0.003680459
0.00367812
0.003679412
0.003679641
0.003758091
0.003761472
0.003677852
0.003680362
0.003678065
0.003678863
0.003679274
0.003756059
0.003765348
0.003678937
0.003680175
0.003678058
0.003679549
0.00367975
0.0036853
0.003680009
0.003679853
0.003677965
0.003678285
0.003680097
0.003682938
0.003688368
0.003679375
0.00367762
0.003678398
0.003679108
0.003685231
0.003859952
0.00376033
0.003770401
0.003851788
0.003704894
0.003679006
0.003677361
0.003677828
0.00367765
0.003678513
0.003678914
0.003679708
0.003681552
0.003683042
0.003679795
0.003678794
0.003677254
0.003677491
0.003677344
0.003677373
0.003677514
0.003677801
0.00367843
0.003678603
0.003678327
0.00367871
0.00367722
0.003677369
0.003677208
0.003677187
0.00367723
0.00367731
0.003677525
0.003677737
0.003677649
0.003678691
0.003677203
0.003677229
0.003677171
0.003677148
0.003677148
0.00367718
0.003677281
0.003677383
0.003677407
0.003695409
0.003681559
0.003678721
0.003678116
0.003678014
0.003677699
0.003677471
0.003677303
0.003677212
0.003771687
0.003681556
0.003679149
0.003680431
0.003679434
0.003679214
0.003678476
0.003677873
0.003677474
0.00367728
0.003688895
0.003677765
0.003679232
0.003679393
0.003679454
0.003679525
0.003678845
0.003678032
0.003677512
0.003677274
0.003687636
0.003677697
0.003678745
0.003678847
0.003679933
0.003680615
0.003679848
0.003678545
0.003677571
0.003677266
0.003679618
0.003677817
0.003678059
0.003678671
0.003681278
0.003683658
0.00368248
0.003679832
0.003678059
0.00367724
0.00368015
0.003677677
0.003677616
0.003679344
0.003685827
0.003700246
0.003691025
0.003684904
0.003679924
0.003677445
0.003680385
0.003677783
0.003677871
0.003680138
0.003694703
0.003865182
0.003742224
0.003703877
0.003703927
0.003677899
0.00368061
0.003678184
0.003678954
0.003680456
0.003691592
0.003992649
0.00367822
0.00368029
0.003678545
0.003678369
0.003681609
0.00368454
0.003677485
0.003680318
0.003678576
0.003680232
0.00368017
0.003761964
0.003761285
0.003677981
0.003680468
0.003678265
0.003679492
0.003679792
0.003758244
0.003759641
0.0036779
0.003680439
0.003678215
0.00367871
0.003679252
0.003756593
0.003763557
0.003679491
0.003680369
0.003678207
0.003679765
0.003679709
0.003685436
0.003679921
0.003680072
0.003678067
0.003678159
0.003680169
0.003682743
0.003688125
0.00367957
0.0036777
0.00367841
0.003679133
0.003685765
0.003854057
0.003760312
0.003770556
0.003847449
0.003705629
0.003679116
0.003677457
0.003677774
0.00367764
0.003678553
0.00367897
0.003679748
0.003681554
0.003682761
0.003679938
0.003678872
0.003677368
0.003677434
0.003677341
0.003677364
0.00367752
0.0036778
0.00367843
0.003678619
0.003678313
0.003678732
0.003677338
0.003677295
0.003677208
0.003677181
0.003677227
0.003677305
0.003677522
0.003677736
0.003677661
0.003678679
0.003677333
0.003677215
0.00367717
0.003677147
0.003677146
0.003677179
0.003677282
0.003677384
0.003677408
0.003695505
0.003681339
0.00367867
0.003678125
0.003678045
0.003677722
0.00367749
0.003677315
0.00367722
0.003769453
0.003681633
0.003678893
0.003680404
0.003679456
0.00367922
0.003678495
0.003677896
0.003677491
0.003677291
0.00368984
0.003677787
0.003678927
0.003679391
0.003679387
0.003679498
0.003678831
0.003678023
0.003677505
0.003677269
0.003687716
0.003677659
0.003678762
0.003678882
0.003679922
0.003680605
0.003679835
0.003678537
0.003677567
0.003677266
0.003679533
0.003677678
0.003678077
0.003678659
0.003681284
0.003683595
0.003682428
0.00367982
0.003678052
0.003677239
0.003680189
0.003677542
0.003677628
0.0036794
0.003685893
0.003700203
0.003691033
0.003684833
0.003679947
0.003677515
0.003680284
0.003677645
0.003677887
0.003680117
0.003694586
0.003865005
0.003742337
0.003703641
0.003703809
0.003677884
0.003680762
0.003678074
0.003678983
0.003680379
0.003691717
0.003992484
0.003678217
0.003680441
0.00367839
0.003678354
0.003681594
0.003685072
0.003677484
0.003680474
0.00367845
0.003680322
0.003680066
0.003762051
0.003760998
0.003678035
0.003680656
0.003678007
0.003679088
0.003679373
0.003758319
0.003759444
0.003677855
0.003680581
0.003677962
0.003678448
0.003678948
0.003756651
0.003763331
0.00367938
0.003680441
0.003678051
0.003679437
0.003679605
0.003684964
0.003679929
0.003680102
0.003677996
0.00367816
0.003680133
0.00368268
0.003688136
0.00367945
0.003677597
0.003678459
0.003679093
0.003685701
0.003850266
0.003760278
0.003770574
0.003847406
0.003705106
0.003679
0.003677335
0.003677828
0.003677629
0.003678541
0.003678941
0.003679744
0.003681547
0.003682739
0.003680033
0.003678783
0.00367723
0.003677476
0.003677331
0.003677356
0.003677524
0.003677798
0.003678432
0.003678622
0.003678291
0.003678693
0.003677192
0.003677315
0.003677201
0.003677183
0.003677232
0.003677306
0.003677521
0.003677733
0.00367766
0.003678655
0.003677175
0.003677215
0.003677166
0.003677144
0.003677147
0.003677178
0.003677281
0.003677382
0.003677405
0.003695647
0.00368137
0.003678705
0.003678122
0.003678041
0.003677714
0.003677483
0.003677311
0.003677217
0.003769959
0.003681662
0.003678643
0.003680435
0.003679435
0.003679215
0.003678488
0.003677889
0.003677485
0.003677287
0.003690026
0.003677728
0.003678834
0.003679397
0.003679406
0.0036795
0.003678832
0.003678025
0.003677507
0.00367727
0.00368765
0.003677654
0.003678773
0.003678901
0.003679937
0.00368059
0.003679832
0.003678535
0.003677565
0.003677264
0.003679419
0.003677688
0.003678064
0.003678653
0.003681262
0.003683611
0.003682422
0.003679822
0.003678051
0.00367724
0.003680251
0.003677545
0.00367762
0.003679427
0.003685862
0.003700155
0.003691035
0.003684833
0.003679953
0.003677522
0.003680356
0.003677618
0.003677873
0.003680096
0.003694569
0.00386469
0.003742309
0.003703674
0.003703848
0.003677879
0.003680623
0.003678056
0.003678971
0.003680394
0.003691687
0.00399218
0.003678221
0.003680289
0.003678402
0.003678353
0.003681618
0.003685208
0.003677482
0.003680316
0.003678462
0.00368031
0.003680086
0.00376207
0.003760994
0.00367803
0.00368056
0.00367805
0.003679086
0.003679372
0.003758313
0.003759432
0.003677874
0.003680396
0.003678025
0.003678457
0.003678972
0.003756645
0.003763347
0.003679346
0.003680283
0.003678056
0.003679421
0.003679597
0.003684615
0.003679913
0.003680084
0.003677999
0.003678155
0.003680135
0.003682629
0.003688171
0.003679447
0.003677594
0.003678454
0.003679086
0.003685754
0.003847333
0.003760275
0.003770583
0.003847392
0.003705064
0.003679002
0.003677337
0.003677827
0.003677628
0.003678541
0.003678942
0.003679746
0.003681549
0.003682735
0.003680041
0.003678785
0.003677231
0.003677475
0.003677331
0.003677355
0.003677524
0.003677798
0.003678434
0.003678626
0.003678294
0.003678724
0.003677195
0.003677314
0.003677201
0.003677183
0.003677232
0.003677307
0.003677521
0.003677734
0.003677661
0.003678678
0.003677178
0.003677216
0.003677167
0.003677144
0.003677147
0.003677178
0.003677281
0.003677382
0.003677405
0.003695589
0.003681374
0.003678675
0.003678126
0.003678043
0.00367772
0.003677489
0.003677314
0.003677219
0.003769381
0.003681645
0.003678956
0.003680396
0.00367945
0.003679212
0.003678481
0.003677886
0.003677485
0.003677287
0.003689789
0.003677818
0.003678971
0.00367939
0.003679386
0.003679504
0.00367883
0.00367802
0.003677504
0.00367727
0.003687756
0.00367766
0.003678758
0.003678875
0.003679938
0.003680611
0.003679839
0.003678541
0.003677572
0.003677267
0.003679517
0.003677692
0.003678056
0.003678661
0.003681272
0.003683595
0.003682458
0.003679805
0.003678055
0.003677238
0.003680175
0.003677561
0.003677622
0.003679402
0.003685874
0.003700199
0.003691012
0.003684895
0.003679911
0.003677442
0.003680265
0.003677656
0.003677869
0.003680106
0.003694633
0.003864892
0.003742335
0.003703732
0.003703916
0.003677898
0.003680731
0.00367807
0.003678971
0.003680396
0.003691594
0.003992302
0.00367821
0.003680452
0.003678401
0.003678359
0.003681526
0.003685128
0.003677483
0.003680495
0.00367845
0.003680285
0.003680118
0.003761975
0.003761285
0.003677985
0.003680741
0.003678032
0.003679187
0.003679455
0.003758255
0.003759624
0.003677906
0.003680432
0.003677981
0.003678549
0.003679045
0.003756613
0.003763543
0.003679493
0.003680305
0.003678208
0.003679678
0.003679719
0.003685045
0.003679886
0.003680143
0.003678092
0.00367815
0.003680165
0.003682678
0.003688202
0.003679578
0.003677709
0.003678414
0.00367913
0.003685728
0.003849005
0.003760271
0.003770585
0.003847421
0.003705102
0.003679105
0.003677461
0.003677772
0.003677637
0.003678555
0.003678969
0.003679751
0.003681549
0.003682733
0.003680036
0.00367885
0.003677371
0.003677433
0.00367734
0.003677363
0.003677519
0.003677799
0.003678434
0.003678624
0.003678293
0.003678691
0.003677349
0.003677294
0.003677208
0.003677181
0.003677227
0.003677305
0.003677522
0.003677736
0.003677664
0.003678659
0.003677341
0.00367721
0.003677171
0.003677147
0.003677146
0.003677179
0.003677283
0.003677384
0.003677407
0.003695588
0.003681602
0.003678764
0.003678112
0.003678018
0.003677706
0.003677475
0.003677309
0.003677216
0.003771212
0.003681496
0.003678992
0.003680484
0.003679437
0.00367921
0.003678497
0.003677878
0.00367748
0.003677282
0.003690156
0.00367773
0.003679243
0.003679428
0.003679481
0.003679531
0.003678807
0.003678037
0.003677507
0.003677279
0.003687473
0.003677659
0.003678716
0.003678879
0.003679915
0.00368061
0.00367984
0.003678534
0.003677563
0.003677261
0.003679572
0.003677761
0.003678064
0.003678656
0.003681321
0.003683684
0.003682363
0.003679823
0.00367804
0.003677216
0.003680225
0.003677621
0.00367762
0.003679396
0.00368581
0.003699897
0.003690931
0.003684642
0.003679945
0.003677462
0.003680311
0.003677744
0.003677885
0.003680131
0.003694702
0.003864855
0.003742663
0.003704067
0.003704133
0.00367786
0.003680666
0.003678139
0.003678939
0.003680509
0.003691192
0.003992772
0.003678243
0.003680436
0.003678471
0.003678514
0.003681275
0.003684772
0.003677522
0.003680431
0.003678512
0.003680126
0.003680203
0.003761491
0.003762696
0.003677808
0.003681282
0.003678269
0.0036794
0.003679654
0.003758089
0.003761447
0.003677816
0.003680305
0.003678443
0.003678852
0.003679294
0.003756058
0.003765291
0.003678958
0.00368056
0.003678216
0.003679553
0.00367977
0.003684863
0.003679888
0.003680019
0.003677986
0.003678201
0.003680089
0.003682774
0.003688483
0.003679308
0.003677577
0.003678385
0.003679098
0.003685072
0.003852686
0.003760331
0.003770592
0.003847569
0.00370524
0.003679038
0.00367736
0.003677826
0.003677647
0.00367851
0.003678916
0.003679712
0.003681543
0.003682764
0.00368006
0.00367877
0.003677257
0.003677486
0.003677344
0.00367737
0.003677511
0.0036778
0.003678436
0.003678641
0.003678308
0.003678711
0.003677224
0.003677368
0.003677208
0.003677187
0.00367723
0.00367731
0.003677523
0.003677736
0.003677667
0.00367864
0.003677212
0.003677231
0.003677173
0.003677148
0.003677148
0.00367718
0.003677282
0.003677385
0.003677408
0.00369683
0.003681529
0.003679417
0.003678842
0.003678463
0.003677995
0.003677659
0.003677441
0.003677319
0.003770107
0.003682171
0.003679959
0.003680426
0.003679509
0.003679234
0.003678468
0.003677892
0.003677498
0.003677304
0.003689933
0.003678626
0.003679141
0.00367943
0.003679511
0.003679559
0.003678846
0.003678035
0.00367751
0.003677276
0.003687197
0.003678117
0.003678811
0.003678858
0.003679968
0.003680674
0.00367988
0.003678581
0.003677603
0.003677287
0.003680251
0.003678183
0.003678078
0.003678678
0.003681371
0.003683676
0.003682496
0.003679982
0.003678186
0.003677304
0.003680231
0.00367803
0.00367769
0.003679407
0.003686105
0.003700108
0.003691456
0.003685024
0.00368016
0.003677635
0.003680837
0.003678079
0.003677851
0.003680155
0.003694827
0.003866324
0.003742397
0.003703787
0.003704522
0.003677919
0.003681194
0.003678573
0.00367895
0.003680842
0.003691474
0.003993246
0.003678207
0.003680893
0.003678835
0.003678758
0.003681189
0.003683277
0.003677577
0.003681125
0.003678806
0.003679277
0.003680252
0.003683479
0.003677583
0.003681411
0.003678358
0.00367986
0.003679972
0.003683207
0.003677919
0.003680964
0.003678446
0.003679942
0.003679638
0.003683031
0.003678538
0.003693804
0.003681108
0.003679436
0.003680246
0.003683498
0.003680219
0.003687917
0.003680055
0.00367872
0.003680527
0.003682669
0.003689273
0.003688516
0.003678465
0.003678149
0.003679453
0.003683688
0.003857153
0.003760303
0.003770369
0.003847591
0.003705943
0.003687652
0.003677944
0.003677606
0.003677763
0.003678699
0.003678963
0.003679839
0.003681596
0.003682801
0.00368002
0.003686498
0.003677746
0.003677364
0.003677369
0.003677404
0.003677506
0.003677831
0.003678469
0.003678628
0.00367831
0.003686281
0.003677641
0.00367728
0.003677251
0.003677199
0.003677214
0.00367731
0.003677529
0.003677762
0.003677689
0.003685775
0.003677593
0.003677236
0.00367722
0.003677161
0.003677153
0.003677189
0.003677292
0.003677395
0.003677419
0.003692733
0.003683142
0.003682463
0.003681003
0.003680306
0.003679545
0.003679093
0.003678508
0.003678414
0.003774959
0.003766266
0.003766073
0.003763938
0.003762069
0.003760448
0.003758753
0.003757686
0.003756857
0.003756355
0.003724907
0.003764729
0.003764914
0.003763214
0.003761577
0.003759611
0.003757987
0.003756737
0.003756109
0.003755644
0.003708874
0.003764465
0.003765091
0.0037639
0.003762292
0.003760075
0.003757873
0.003756454
0.003755864
0.003755713
0.003703191
0.003764107
0.00376488
0.003763977
0.003762724
0.00375933
0.003756665
0.00375476
0.003754795
0.00375491
0.003711719
0.003763891
0.003765076
0.003764692
0.003763305
0.003760733
0.003754963
0.003752398
0.003752703
0.003753952
0.003705823
0.003763803
0.003765325
0.003766151
0.003699624
0.003870624
0.00372836
0.003710012
0.003705865
0.003678582
0.003704495
0.003763142
0.003764545
0.003765232
0.003693831
0.00399998
0.003678311
0.003701878
0.003762081
0.003763059
0.003762936
0.003683187
0.003677799
0.00370649
0.00376082
0.003761435
0.003760866
0.003682879
0.003677678
0.003701304
0.003759476
0.003759678
0.003759005
0.003684385
0.003677924
0.003709238
0.003758242
0.003758054
0.003757099
0.003682565
0.003678507
0.003693754
0.003756876
0.003756706
0.003755473
0.003682963
0.003679841
0.003728462
0.003756047
0.00375555
0.003754155
0.003686163
0.003694652
0.003784829
0.003755576
0.003755022
0.003753885
0.003686677
0.003875348
0.003758973
0.003769382
0.00384613
0.003711758
0.003797609
0.003755297
0.003755076
0.003754196
0.003753494
0.003753499
0.003754819
0.003757109
0.003758682
0.003758351
0.003773981
0.003755229
0.003755121
0.003754838
0.003754277
0.003754444
0.003755232
0.003756362
0.003757283
0.003756995
0.003764501
0.003755076
0.003755193
0.003755102
0.003754835
0.003754968
0.003755358
0.003755955
0.003756382
0.003756202
0.003759278
0.00375502
0.003755228
0.00375521
0.003755029
0.003755099
0.003755273
0.003755525
0.003755703
0.003755541
0.003798155
0.003732158
0.004699133
0.003694612
0.003788709
0.0037896
0.003705402
0.003686851
0.003697769
0.003695242
0.003785528
0.003785394
0.003686907
0.00368392
0.003692591
0.003689457
0.003780582
0.003780309
0.00368593
0.00368251
0.003690966
0.003688159
0.003776821
0.003776809
0.003683838
0.00368164
0.00368885
0.003686869
0.003773132
0.003772948
0.003683026
0.003680919
0.003687632
0.003685777
0.003770156
0.003770107
0.003681948
0.003680344
0.003686076
0.003684817
0.003767778
0.003767677
0.003681103
0.003679931
0.003684936
0.003684063
0.003766081
0.003766034
0.003680417
0.003679655
0.003684153
0.003683572
0.00376479
0.003680001
0.003683669
0.003790103
0.00379271
0.00448486
0.003684578
0.004202494
0.003691743
0.003787068
0.003789417
0.004219429
0.003686341
0.004126464
0.00368393
0.003784538
0.003787078
0.004168406
0.003683522
0.004082242
0.003681973
0.003782635
0.003785834
0.004128791
0.003683403
0.004062448
0.00368134
0.003781492
0.003785148
0.004114139
0.003682496
0.004048828
0.003681071
0.003780701
0.003784472
0.004110089
0.003682386
0.004039021
0.003681039
0.003775367
0.004128442
0.003880735
0.003762515
0.004222225
0.003749455
0.003710203
0.003708275
0.003757682
0.003789066
0.003704973
0.003680522
0.003683975
0.003779518
0.003782563
0.004104655
0.003682022
0.004009924
0.003681335
0.004032693
0.00400065
0.003777462
0.003780052
0.004075889
0.003682022
0.003973471
0.003681683
0.003981914
0.003774841
0.003777109
0.004039004
0.003681834
0.003931625
0.003682046
0.003945104
0.00377191
0.003774057
0.003992011
0.003681679
0.003891552
0.003682208
0.003912185
0.003768899
0.003771145
0.003945149
0.003681625
0.003852824
0.003682217
0.003878451
0.003766181
0.003768616
0.003897877
0.003681536
0.003818598
0.003682031
0.003837796
0.003763971
0.003766597
0.00385691
0.00368122
0.003792475
0.003681721
0.003743687
0.003821213
0.00385287
0.003705386
0.003765469
0.003762371
0.003765211
0.003821899
0.003681013
0.003775234
0.00368129
0.003761442
0.003764371
0.003797205
0.003680956
0.003764215
0.003681064
0.003760898
0.003763762
0.003783433
0.003680753
0.003756908
0.003680896
0.003760533
0.003763345
0.003776136
0.003680713
0.003751231
0.003680809
0.003760299
0.003763014
0.003771936
0.003680696
0.00368075
0.003701272
0.004938033
0.003699024
0.003706895
0.005320749
0.00370149
0.003758191
0.00421063
0.003867257
0.003760369
0.004215705
0.003681209
0.00368427
0.003704463
0.003681259
0.00368536
0.003993638
0.003752468
0.00374978
0.003696077
0.003758423
0.003701478
0.003746202
0.003765918
0.003683717
0.003683866
0.003852725
0.003765953
0.003684448
0.003684136
0.003699259
0.00523113
0.003707217
0.003698366
0.005238163
0.003707364
0.003761817
0.004216742
0.003865549
0.003762155
0.004216698
0.003681409
0.003684212
0.003704144
0.003681385
0.003683953
0.003993072
0.0037506
0.003749654
0.003697354
0.003774415
0.003695976
0.003766913
0.003766045
0.003684455
0.003683808
0.003852634
0.003766058
0.003684544
0.003683765
0.003758239
0.003707905
0.003697999
0.003847091
0.003763386
0.003705513
0.003697245
0.00369938
0.005226693
0.003709219
0.003699475
0.005232999
0.003709687
0.003761523
0.004217213
0.003865026
0.003761479
0.004216256
0.003681424
0.003683774
0.003703889
0.003681423
0.003683698
0.00399265
0.003749499
0.003749104
0.003766127
0.003684548
0.00368386
0.003849379
0.003766076
0.003684547
0.003683853
0.003747391
0.003705958
0.003699157
0.003847376
0.003745495
0.003706096
0.003699074
0.003699484
0.005231387
0.003710157
0.003699415
0.005229151
0.003710174
0.003761579
0.004217128
0.003864825
0.003761664
0.004216314
0.003681442
0.003683658
0.003703848
0.003681438
0.00368361
0.003992439
0.003749282
0.003748815
0.00376607
0.003684552
0.003683784
0.003847402
0.003766059
0.003684552
0.003683776
0.003744521
0.003706108
0.003699275
0.003847391
0.003744036
0.003706205
0.003699259
0.003699611
0.005230201
0.003710357
0.003699517
0.005237183
0.003710174
0.003761628
0.004217072
0.00386478
0.003761533
0.00421619
0.003681439
0.003683596
0.003703836
0.003681444
0.003683649
0.003992619
0.003748974
0.003749057
0.003766064
0.003684551
0.00368378
0.003849826
0.003766087
0.003684552
0.003683779
0.003743791
0.003706171
0.00369936
0.003847409
0.003743854
0.003706157
0.003699335
0.003699236
0.005238088
0.003710045
0.003699056
0.005232148
0.00370952
0.003761469
0.004217092
0.003865
0.003761487
0.00421623
0.003681413
0.003683701
0.003703974
0.003681407
0.003683787
0.003993034
0.003749166
0.003749289
0.003766104
0.003684542
0.003683853
0.003854134
0.003766159
0.003684548
0.003683859
0.003744248
0.003706201
0.003699378
0.003847471
0.003744631
0.003706129
0.003699476
0.003699578
0.005239299
0.003709672
0.00369846
0.005233205
0.003707445
0.003761956
0.004217389
0.003865546
0.003761622
0.004215652
0.003681338
0.003683896
0.003704108
0.003681356
0.003684105
0.003993648
0.003749762
0.003750227
0.003766108
0.003684525
0.003683791
0.003857271
0.003766111
0.003684434
0.003683802
0.003749962
0.003706366
0.003699231
0.003847683
0.003748602
0.003706161
0.003699441
0.003700318
0.005220982
0.003708588
0.003701377
0.005185512
0.003703734
0.003760096
0.004216486
0.003870612
0.003757524
0.004210803
0.0036812
0.003685394
0.003703955
0.003681189
0.003683827
0.003993162
0.003750416
0.003750993
0.003766064
0.003684446
0.003684119
0.003855918
0.003765926
0.0036841
0.003683709
0.003756646
0.003705968
0.003699297
0.003847057
0.003761459
0.003705438
0.003699752
0.003696528
0.005167475
0.00370512
0.003876683
0.003798268
0.003678153
0.003684378
0.003684382
0.003768539
0.003768602
0.003678111
0.003683744
0.003683515
0.003766825
0.003766898
0.003681264
0.003718726
0.003684524
0.003789082
0.003791532
0.003680844
0.003710374
0.003683162
0.003786841
0.003789579
0.003681435
0.003715972
0.003683441
0.003783419
0.003787031
0.003759783
0.004227018
0.003824759
0.003775754
0.004138568
0.003709441
0.0037654
0.003755429
0.003707357
0.003753431
0.003749117
0.003681027
0.003684616
0.003755531
0.003757897
0.00378896
0.003680742
0.003708471
0.003683362
0.003782108
0.003785012
0.004066992
0.004035109
0.004001711
0.003980706
0.003958222
0.003886657
0.003889187
0.003877093
0.003685214
0.003756571
0.003682636
0.003765352
0.003766867
0.003750858
0.003742815
0.003701487
0.003799534
0.003820527
0.003846057
0.003681027
0.003767656
0.003681186
0.003763006
0.003765812
0.003764873
0.003686513
0.003686422
0.00375744
0.003807592
0.003753743
0.003758593
0.003783968
0.003712275
0.003704949
0.003973076
0.003845648
0.003775008
0.003779804
0.003680761
0.003760336
0.003681209
0.00376148
0.003764358
0.003680615
0.003750431
0.003680527
0.00376099
0.003774698
0.003764412
0.003679983
0.003745838
0.003680977
0.003771814
0.00376136
0.003763677
0.003680705
0.003736196
0.003680124
0.003760388
0.003763358
0.003920298
0.003934609
0.003710147
0.003841042
0.003725423
0.003840556
0.00370662
0.003830248
0.003709948
0.003830144
0.003702051
0.003819867
0.00370397
0.003819459
0.003699178
0.003811303
0.003698989
0.003811123
0.00369599
0.003803676
0.003696336
0.003803391
0.003693769
0.003797202
0.003693443
0.003797
0.003691937
0.003792093
0.003691383
0.003791862
0.003690686
0.00378829
0.003689915
0.003788054
0.003689836
0.003785424
0.003689064
0.003785196
0.003780122
0.003939566
0.003832223
0.003922598
0.003754421
0.003915689
0.003783735
0.003900635
0.003747066
0.003899487
0.003762323
0.00388996
0.003741738
0.003888619
0.003752391
0.003882849
0.003738843
0.003882413
0.003747028
0.003878823
0.003736683
0.003878819
0.003744217
0.003875989
0.003799949
0.003794117
0.003892019
0.003699325
0.003754921
0.003693542
0.004633488
0.003756485
0.003728416
0.003709383
0.003733896
0.003874964
0.003742396
0.003870878
0.003868204
0.003786402
0.003839698
0.003692953
0.00376805
0.003698968
0.003840871
0.00406368
0.004123691
0.004465044
0.003786803
0.003766765
0.003681306
0.003680065
0.00372923
0.003867177
0.003737939
0.003862917
0.003832323
0.003780732
0.003820925
0.003683232
0.003835083
0.003684166
0.003829427
0.003993203
0.004295547
0.004283025
0.003762871
0.003766365
0.003684486
0.003681615
0.003723754
0.003856845
0.003731889
0.003853214
0.003815788
0.003775493
0.003807685
0.003682623
0.003822037
0.003681582
0.003815446
0.003950539
0.004193958
0.004188857
0.003765376
0.003767788
0.003680174
0.003680999
0.003717659
0.00384519
0.00372448
0.003842957
0.003803405
0.003770418
0.003796268
0.003681907
0.003809399
0.003680979
0.003803236
0.003917002
0.004119551
0.0041146
0.003767473
0.003768694
0.003679985
0.003681823
0.003711485
0.003833527
0.00371702
0.003833241
0.003792494
0.003765398
0.003784907
0.003681876
0.003797957
0.003681414
0.00379103
0.003885327
0.004053453
0.004045358
0.003769201
0.003770607
0.003681058
0.003683366
0.003705674
0.003822756
0.003709687
0.003823977
0.003781617
0.003760077
0.003771839
0.003683027
0.003785903
0.003682414
0.003772571
0.003850693
0.003987518
0.003972942
0.003772681
0.003822746
0.003683539
0.003707028
0.003700679
0.003812955
0.003703062
0.003815798
0.00376886
0.003754789
0.003753097
0.003685809
0.00376924
0.003684752
0.003748283
0.003802896
0.003910537
0.003874761
0.003817457
0.003939782
0.003818269
0.003951029
0.003696717
0.003804615
0.003697787
0.0038094
0.00380652
0.003753478
0.003758651
0.003744931
0.003764525
0.003685375
0.00368684
0.003787963
0.003759375
0.003764849
0.003758859
0.003762412
0.003686813
0.003688128
0.003832735
0.003766889
0.003774715
0.003769318
0.003816125
0.003695051
0.003708959
0.003847378
0.003775478
0.003781776
0.003843806
0.003879407
0.003710876
0.003716428
0.003694017
0.003798666
0.003694084
0.003805033
0.003692519
0.003794806
0.003691806
0.003802197
0.003691631
0.003792389
0.003690486
0.003800393
0.00369106
0.003790756
0.003689681
0.003799196
0.003918548
0.003926885
0.003749843
0.003689133
0.004541797
0.00369503
0.003747975
0.003688743
0.004589099
0.003708784
0.003703955
0.00370993
0.003747916
0.003684693
0.003787869
0.003691042
0.003767777
0.003682521
0.003789358
0.003994246
0.00367845
0.003684252
0.003678381
0.003684076
0.003765634
0.003680824
0.003733287
0.003682623
0.003767839
0.00368066
0.003728126
0.003710669
0.003677417
0.003680275
0.003683603
0.003700852
0.003677451
0.003680418