/*--------------------------------*- C++ -*----------------------------------*\
  =========                 |
  \\      /  F ield         | OpenFOAM: The Open Source CFD Toolbox
   \\    /   O peration     | Website:  https://openfoam.org
    \\  /    A nd           | Version:  7
     \\/     M anipulation  |
\*---------------------------------------------------------------------------*/
FoamFile
{
    version     2.0;
    format      ascii;
    class       surfaceScalarField;
    location    "0.02";
    object      phi;
}
// * * * * * * * * * * * * * * * * * * * * * * * * * * * * * * * * * * * * * //

dimensions      [0 3 -1 0 0 0 0];

internalField   nonuniform List<scalar> 
249116
(
0.0198029
-0.08886051
-0.004032631
0.02283588
0.02400018
0.02763553
0.02742233
-0.003661267
-0.01045231
-0.005912378
-0.008777768
0.01453294
-0.08396838
-0.005440614
0.02162858
0.02224342
0.02549252
0.02531443
0.01250141
-0.07581569
-0.006336717
0.01925317
0.01970746
0.02267418
0.02254911
0.01080361
-0.06954638
-0.005774454
0.01761865
0.01809348
0.02067933
0.02062717
0.008996686
-0.06199887
-0.005243455
0.01583923
0.01616395
0.01854539
0.01850066
0.007031635
-0.05632076
-0.004812124
0.01449648
0.0148025
0.01691424
0.01688472
0.005183728
-0.05187093
-0.004436424
0.0134035
0.01360393
0.01558581
0.01556201
0.003816326
-0.04932191
-0.004203879
0.01268064
0.01283744
0.01470876
0.01466635
-0.04731525
-0.004007873
0.01211527
0.01401534
0.002827169
0.01220626
0.01397541
0.02558259
-0.08308111
0.001581422
-0.003766135
-0.01125697
-0.007817315
-0.01010302
0.02115296
-0.07841773
-0.00112103
0.01908911
-0.07200576
-0.001746088
0.01724652
-0.06607034
-0.001633463
0.01456459
-0.05787869
-0.001438249
0.01122326
-0.05165975
-0.00131968
0.008069905
-0.04749759
-0.001219974
0.005814557
-0.04586318
-0.001203379
-0.04462969
-0.001161131
0.004290123
0.02972913
-0.07959982
0.002171695
-0.004549336
-0.01162685
-0.008497604
-0.01070833
0.02645591
-0.07582542
0.000680898
0.02519443
-0.07065045
-9.3836e-05
0.02408471
-0.06490138
-5.924887e-05
0.02052088
-0.0542523
-6.256508e-05
0.0152745
-0.04639082
-2.255608e-05
0.01033175
-0.04252112
-3.372974e-05
0.007193741
-0.04264587
-7.929073e-05
-0.04245752
-9.123456e-05
0.005112813
0.03209863
-0.07768005
0.003129546
-0.00510281
-0.01191886
-0.009011094
-0.01111519
0.03021979
-0.07485574
0.0009091422
0.03091185
-0.07183806
0.0004955436
0.03211146
-0.06715489
0.001053899
0.02821394
-0.05167897
0.00132419
0.01959717
-0.03892121
0.001147159
0.01170117
-0.03555469
0.0009295776
0.007357414
-0.03929658
0.0009944683
-0.04147545
0.0007818424
0.005593495
0.0347097
-0.07686355
0.002802681
-0.005478382
-0.01209724
-0.009376401
-0.01137687
0.03424526
-0.07554114
0.001149838
0.03816394
-0.07694804
0.001191282
0.04598043
-0.02047616
0.002966931
-0.01576487
-0.02224924
-0.01944804
0.04044238
-0.01576939
0.002806456
-0.006118627
-0.01764964
-0.009409725
0.02309714
-0.007313139
0.00224116
-0.003882128
-0.00691495
-0.00570692
0.01002434
-0.006219745
0.00238012
-0.005688236
-0.006475034
-0.006479002
0.004925493
-0.008213413
0.002473307
-0.008937906
-0.009377306
-0.01014242
-0.009701968
0.002296621
-0.01121855
0.00406921
-0.01028971
-0.01170555
0.03478357
-0.076159
0.002888704
-0.005550375
-0.0120491
-0.009420816
-0.01135655
0.03519391
-0.0769267
0.0009752179
0.01183006
-0.08218788
-6.818776e-05
0.005898477
0.01177803
0.01099536
0.01260871
-0.02158562
0.0003307963
0.01924663
0.0006805508
-0.01902734
-0.002555472
-0.005679759
-0.007614828
-0.000819179
-0.01616425
0.0105373
0.0005419284
-0.001113535
-0.0006603333
-0.0004073977
-4.687885e-05
0.003347498
0.0003502399
-0.007871705
-0.0006218844
-0.0006743573
-0.0006172454
-0.0001322931
-0.0005147659
-0.0006378145
0.0007209595
-0.002484922
-0.001184729
-0.001689593
-0.002422549
0.0001471661
-0.01012781
0.0005541925
-0.0002755194
0.03131982
-0.07321086
0.002445682
-0.005240563
-0.0115824
-0.008952196
-0.0109385
0.02814527
-0.07441123
0.0006590766
0.01080086
-0.0808722
-0.001544163
0.001663504
0.01038673
0.005522658
0.02644352
-0.02310601
-0.0006073278
0.001869217
0.002923604
0.002731118
0.0005467534
0.002129843
-0.0004981564
-0.001552895
-7.8793e-05
0.0006335012
0.01065957
-0.01049915
-0.00044255
0.0004799322
-0.0002993858
3.068505e-05
-0.0005626185
0.02818961
-0.06825216
0.002306359
-0.005075504
-0.01115578
-0.008609783
-0.01061361
0.02246979
-0.06910659
0.0004151686
0.007313075
-0.07315289
-0.001506901
0.0001410217
0.005946021
0.002857252
0.02430262
-0.02024531
-0.0004292301
0.0007436386
0.001756449
0.001256376
-7.147534e-05
0.00130663
-0.0002007762
-0.001091669
-1.418403e-05
-0.05145203
-2.922943e-05
0.001313378
-0.002689407
0.001807795
-0.0009793096
0.0105404
0.01434591
0.002373899
0.01144034
0.01332823
0.02637991
-0.06233443
0.002243532
-0.005045178
-0.01075976
-0.008370601
-0.01036566
0.0197243
-0.06244487
-6.118246e-06
0.005921706
-0.06473535
-0.0007347738
-0.000305389
0.00443519
0.001990016
0.02136483
-0.01772176
-0.0004714996
0.0005189028
0.001416577
0.0009443003
-0.0001296423
0.00109718
-0.0001650402
-0.0009116652
-2.047472e-05
-0.05239768
-0.0002738611
0.001817602
-0.002942321
0.0002641767
-0.001511847
0.003591904
0.02551315
-0.05587505
0.002206454
-0.005172585
-0.01045715
-0.008307436
-0.01024183
0.0183589
-0.05539163
0.0001010023
0.005324439
-0.05652603
-0.0007597056
-0.0001722963
0.003996981
0.001760154
0.0187284
-0.01536851
-0.0004891575
0.0004525275
0.001249646
0.0008453506
-9.381996e-05
0.0009524214
-0.0001457085
-0.0007835716
-2.314127e-05
-0.05669943
0.0007996799
0.001971944
-0.00303175
0.0003741918
-0.001567893
0.005755589
0.02545231
-0.04943319
0.002285528
-0.005395649
-0.01022817
-0.008360642
-0.01019525
0.01840558
-0.04835434
9.426386e-06
0.005025996
-0.04849784
-0.0006875411
0.0002247898
0.003926253
0.001887895
0.01614398
-0.01307151
-0.0004775585
0.0004558628
0.001152108
0.0008216668
1.452453e-06
0.0008254614
-0.0001312104
-0.0006694978
-2.475284e-05
-0.01316099
0.0002898021
0.001683469
-0.002658498
-0.0002260492
-0.002370521
-0.01819832
0.008016498
-0.01376957
-0.01630524
0.02632898
-0.0436614
0.002529743
-0.005724436
-0.01010918
-0.008541242
-0.01025567
0.01985568
-0.04167253
-0.0002085171
0.005000885
-0.0403955
-0.0005717385
0.0009119174
0.004110612
0.002301663
0.01353804
-0.01070341
-0.0004541233
0.0005448862
0.001092285
0.0008478147
0.0001353901
0.0006968908
-0.0001186964
-0.0005524067
-2.578752e-05
0.0002516818
-0.01458685
-0.0001126447
0.001286829
0.02791216
-0.03870948
0.00247918
-0.006133581
-0.01005541
-0.008797867
-0.01035642
0.02261658
-0.0362012
-0.0001757647
0.005420212
-0.03274691
-0.00131281
0.002460889
0.004860617
0.003539082
0.01079014
-0.008115857
-0.0004195937
0.0007370868
0.001094705
0.0009653538
0.0003683795
0.0005421614
-0.0001067347
-0.0004108254
-2.460113e-05
0.0002308553
-0.01654263
-8.195113e-05
-0.001214484
-0.0005183021
-0.0009249762
0.01579063
0.003260848
0.0297343
-0.03479143
0.002662717
-0.006590662
-0.01008794
-0.009123253
-0.01051324
0.02621509
-0.03260728
-7.471395e-05
0.00670558
-0.02923395
-0.001815439
0.004900683
0.006625344
0.006285959
0.007677812
-0.005637538
-0.0006959479
0.001403752
0.001483792
0.001387007
0.001086703
0.0002009355
-0.0002333836
0.0002294233
-6.123155e-05
-0.0001357428
-0.0004968198
0.0004683564
2.898e-05
-5.163954e-07
-0.0006509146
0.0006800065
-3.609173e-06
-2.548223e-05
-0.001232763
0.001470081
-4.649444e-05
-0.0001908228
-0.001981367
0.01677754
-0.01300643
-0.0001963761
-0.002725175
-0.0030497
-0.003192022
0.00737353
0.03187628
-0.03236919
0.003120591
-0.007020988
-0.01020858
-0.009469186
-0.01072037
0.02939189
-0.03030567
0.000182775
0.02875233
-0.02750573
-0.001088667
0.03034974
-0.02476915
-0.001949289
0.005169441
0.006686444
0.006566066
0.006699079
0.03635504
-0.02166444
-0.001414588
0.002767543
0.005442244
0.003893152
0.004970784
0.043208
-0.02201584
-0.001236124
0.001756975
0.005979268
0.003577468
0.005085294
0.04565795
-0.02671855
-0.001858171
0.002961092
0.009072864
0.005123388
0.00896942
0.03916026
-0.03639381
-0.002205168
0.007979988
0.01320336
0.01192849
0.01198483
-0.03957087
-0.0008939352
0.009408702
0.01243987
0.03237034
0.01226374
0.01314242
0.0332377
-0.03051329
0.003073914
-0.007341745
-0.01026221
-0.009715144
-0.01084843
0.03127324
-0.02893495
0.0005937369
0.03101154
-0.02714383
-0.0001001974
0.03209533
-0.02518678
-0.0006661638
0.03484142
-0.02383236
-0.0005781758
0.03805206
-0.02462912
-0.0005973548
0.03915539
-0.02722626
-0.0005956301
0.03587438
-0.0324713
-0.0006415083
-0.03440648
-0.0005159818
0.03122598
0.03422148
-0.02930201
0.003262308
-0.007556601
-0.01031075
-0.009880842
-0.0109469
0.03263403
-0.02805425
0.000706746
0.03200427
-0.02683869
0.0003246187
0.03259477
-0.02576217
-1.511408e-05
0.03395262
-0.02516302
-2.71869e-05
0.03520524
-0.02582818
-5.355539e-05
0.03540442
-0.02739891
-2.652604e-05
0.03322068
-0.03028958
2.023909e-06
-0.03169944
3.826798e-05
0.03047536
0.03473677
0.003334082
-0.007709298
-0.01032656
-0.00999835
-0.01100015
-0.02833852
0.03320617
0.000801929
-0.02732558
0.03253835
0.0004088195
-0.02657969
0.03271958
-4.659595e-05
-0.0258968
0.03318551
1.147597e-05
-0.02564043
0.03351725
-2.876257e-05
-0.02613116
0.03321639
-1.844711e-05
-0.0270796
0.03168157
-3.146679e-05
-0.0287233
-7.427761e-06
0.02962222
-0.02963266
0.0007896615
0.000386667
0.001271515
-0.02791045
-0.0006255862
0.001443141
-2.390568e-05
-4.143026e-05
-0.0008687414
0.0009692973
-0.0008895417
0.001389103
-0.001036083
0.000911525
-0.02421583
-0.001811325
0.001466107
-0.0001021128
-0.0001015916
0.001283714
-0.0009387479
0.0007711037
-0.0216706
-0.002129271
0.001331864
-0.0001113858
-0.0001180206
0.001184767
-0.000690467
0.0005952203
-0.01955084
-0.002012787
0.001220627
-0.0001146022
-0.0001192845
0.001090508
-0.0005946822
0.0004923131
-0.01767661
-0.001864337
0.001117725
-0.0001098122
-0.0001166201
0.001012272
-0.0004735304
0.0003802698
-0.01605044
-0.001740215
0.001034532
-0.0001043571
-0.0001096357
0.0009507518
-0.0003688023
0.0002818996
-0.01481977
-0.001635277
0.0009673871
-9.76603e-05
-0.0001023104
0.0009051535
-0.0002657929
0.0002025585
-0.01391184
-0.001551313
0.0009177341
-9.231303e-05
-9.563551e-05
0.0008709086
-0.0001943533
-0.01325245
-0.001487764
0.0008807043
-8.647908e-05
-8.9032e-05
0.0001484222
0.000193325
0.003544802
0.007575061
-0.01918581
-0.0005328937
0.0008091294
-0.0008145587
0.0004624404
0.006680998
0.003454038
0.00674468
0.02097748
-0.09987362
-0.001057813
0.0273379
0.0274112
0.02687729
0.0268075
-0.007218083
-0.008645028
-0.007569891
-0.009079559
0.0175338
-0.09601107
-0.002659232
0.02447188
0.02411219
0.02432265
0.02376664
0.01416453
-0.08689482
-0.002651001
0.02188761
0.02168917
0.02167249
0.0213291
0.01231672
-0.0798036
-0.002850521
0.01991205
0.0197529
0.01963745
0.01942509
0.01016115
-0.0714609
-0.002576023
0.01794582
0.01780262
0.01769349
0.0175071
0.007906918
-0.06463158
-0.002360478
0.01626399
0.01620675
0.01603403
0.01592939
0.005781227
-0.0596134
-0.002187114
0.0150099
0.01497723
0.01478395
0.01471869
0.00425714
-0.05656232
-0.002074847
0.01412474
0.01410879
0.01386803
0.01385582
-0.05432169
-0.002015336
0.01350415
0.01323485
0.003135926
0.01347527
0.01323609
0.0002314184
0.01788825
0.008094599
-0.01701735
-0.0003689536
0.000880479
-0.0007840422
0.0004575868
0.02916236
-0.09378308
0.003678394
-0.008630965
-0.009947138
-0.008869154
-0.009902616
0.02573045
-0.09149417
-0.002206025
0.02237242
-0.0841209
-0.001161981
0.02020848
-0.07736169
-0.001911443
0.01690936
-0.06797017
-0.00162986
0.01304677
-0.0605407
-0.00154797
0.00939758
-0.05571174
-0.001472439
0.006754867
-0.0536684
-0.001454578
-0.05221789
-0.001451935
0.004941873
0.0001819249
0.0169925
0.008396734
-0.01631631
-0.0001972913
0.000864593
-0.0007744675
0.0004348068
0.03357809
-0.08986554
0.004414868
-0.009360755
-0.01055642
-0.009450347
-0.01037128
0.03166157
-0.08853644
-0.0003603213
0.02939117
-0.08267746
0.0007331199
0.02819407
-0.07611758
-0.0001062717
0.02406815
-0.06401048
0.0001036632
0.01790744
-0.05446797
6.542415e-05
0.0120678
-0.04998552
7.969726e-05
0.008427738
-0.05006283
-4.479434e-05
-0.04978506
-0.0001381683
0.006041847
0.0001660637
0.01626041
0.008608985
-0.01561347
-0.0004029217
0.0008706903
-0.0007460298
0.0004623494
0.03720549
-0.08748044
0.0049116
-0.009879387
-0.01091216
-0.009863649
-0.01071744
0.0370245
-0.0874094
-3.691132e-05
0.03695984
-0.0836956
0.001578337
0.03780636
-0.07708653
0.001176321
0.03314125
-0.05934968
0.001328506
0.02299907
-0.04436341
0.001184767
0.01383311
-0.0408263
0.0009363287
0.008572686
-0.04476972
0.0009617762
-0.04736357
0.0006799698
0.006253077
0.0001481834
0.01562414
0.008759329
-0.01514894
-0.0003803446
0.0008686302
-0.0007359405
0.0004707605
0.03939054
-0.086759
0.005170402
-0.01019933
-0.01115074
-0.01013822
-0.0109914
0.04114539
-0.0884638
0.0004493942
0.04553623
-0.08867867
0.001783504
0.05143766
-0.02246341
0.002323761
-0.01945691
-0.02162332
-0.01880114
0.04579966
-0.01752661
0.001549955
-0.009033229
-0.01706335
-0.008831971
0.02686394
-0.006609871
0.001181746
-0.005598677
-0.006554688
-0.005605067
0.01167163
-0.006259699
0.001245403
-0.006217792
-0.006021991
-0.005999787
0.006134335
-0.009252008
0.001386314
-0.01009422
-0.009014487
-0.009784713
-0.01117054
0.001585554
-0.01091989
0.004545654
-0.0116108
-0.01136259
0.00013764
0.01527179
0.008801585
-0.01485018
-0.0003743544
0.0008713464
-0.0007284938
0.0004764574
0.03976362
-0.0859692
0.005073634
-0.01028805
-0.01117464
-0.0102283
-0.01104736
0.04221743
-0.08989696
-4.543726e-05
0.01246583
-0.09533483
0.0008201406
0.01169079
0.01212267
0.01170597
-0.0003199554
0.01428895
-0.02425356
0.0002869839
-0.0003554804
0.02248067
0.000430287
-0.01788855
-0.002785701
-0.00831774
-0.002773093
-0.008316984
-0.01597797
-0.0004741184
0.01008522
-0.0007437144
0.0005006921
3.697747e-05
0.003539997
-7.676463e-05
-0.006906608
-0.0007795195
-0.0005946939
-0.0005712548
-0.0009078424
-0.0002344819
-0.0005560331
0.0001025979
-0.0001992807
-0.002662132
-0.001497535
-0.00271057
-0.001494571
-4.491554e-05
-0.0003939365
-0.01078439
0.0003450775
-0.0002923709
0.0001328567
0.01497458
0.00862161
-0.01436724
-0.0004225663
0.0008848652
-0.0007109804
0.000492676
0.03564247
-0.08283918
0.004948957
-0.009856552
-0.01080919
-0.009893816
-0.0107162
0.03472714
-0.08781951
-0.0005030464
0.01083672
-0.09568464
0.0002382874
0.005739032
0.01091582
0.00580292
2.239062e-05
0.02681217
-0.02683517
8.0058e-05
0.002196673
0.003227397
0.00221529
0.003117905
-1.151669e-05
0.00231462
-0.000995464
-0.001313719
6.081323e-06
-0.05703879
0.0005043548
0.00230874
0.002808056
0.002611768
0.00345786
0.01164819
0.01146922
0.0001338323
-0.001444909
0.0005486544
0.01209183
0.01161644
0.0003456848
-0.001060942
0.0001121439
0.01430522
0.008501797
-0.01357502
-0.000436499
0.0008828241
-0.0006895279
0.0005048784
0.03205766
-0.0774399
0.004862395
-0.00952451
-0.01049114
-0.009566387
-0.01043094
0.02725641
-0.0819378
-0.0006652947
0.005689352
-0.08663694
-9.948532e-05
0.00299748
0.005544928
0.002569533
-0.0001223034
0.02594677
0.00359224
-0.0240596
0.0003322321
-0.06087036
-0.0009003386
0.001771692
-0.001189843
0.00212809
-0.0008978689
0.002890613
8.494643e-05
0.01337304
0.008393253
-0.01253119
-0.0004641782
0.0008808506
-0.0006572936
0.0005263901
0.02985212
-0.07089144
0.004880299
-0.00926968
-0.01025316
-0.009305847
-0.01020867
0.02350554
-0.07418293
-0.001414411
0.003845425
-0.07666815
0.001103952
0.002138563
0.003573249
0.002140782
0.0001143077
0.02248416
0.002091049
-0.02027779
-0.0005663041
-0.0631431
-0.0008222311
0.0002162616
-0.001453985
0.0005207814
-0.001253679
0.004791719
4.691728e-05
0.01222365
0.008361988
-0.01134772
-0.0004686602
0.0008681015
-0.0006241546
0.0005456878
0.028858
-0.06379688
0.004836446
-0.009174826
-0.01013612
-0.009168439
-0.01010316
0.02171126
-0.06582208
-0.001113124
0.003381574
-0.06677943
0.0005488047
0.001909793
0.003234456
0.001988201
0.000185477
0.01947619
0.001679414
-0.01751783
-0.000441679
-0.06650461
0.000358546
0.0004094787
-0.001386062
0.000445772
-0.001569262
0.005902716
5.128431e-06
0.01099159
0.008372642
-0.01012668
-0.000464857
0.0008522067
-0.0005907945
0.0005665899
0.02876322
-0.05659865
0.004810574
-0.009171484
-0.0101003
-0.009141486
-0.01007323
0.02139572
-0.0574176
-0.001027563
0.003345277
-0.05719124
0.0003791067
0.001981959
0.003271401
0.002142236
0.0002220269
0.01665619
0.001667979
-0.01486527
-0.0003356545
-0.07196704
0.0008714658
0.0003884997
-0.001586939
0.000116584
-0.001807969
0.007770556
-4.031766e-05
0.009763305
0.008429595
-0.008955694
-0.0004434531
0.0008285381
-0.0005618773
0.0005857193
0.02955106
-0.04971267
0.004848079
-0.009270729
-0.01014366
-0.009215553
-0.01012544
0.02227795
-0.04921414
-0.00113888
0.003366036
-0.04737529
0.0006339717
0.002243346
0.003435622
0.002211284
0.0002884123
0.0141869
0.001509707
-0.01229138
-0.0003276082
-0.07553089
0.0007526365
0.0008644366
-0.0005116941
-0.00112186
-0.004663596
-0.0007105135
-0.005077147
0.01347306
0.0008810928
-0.0003225852
-8.961835e-05
0.008616159
0.008531507
-0.007911098
-0.0004065813
0.0008032343
-0.0005380718
0.0006002799
0.03114181
-0.04374675
0.004855254
-0.009485688
-0.0102927
-0.009419195
-0.01028622
0.02494462
-0.04227788
-0.0009148387
0.004349609
-0.03778752
2.884716e-05
0.002956638
0.00404211
0.002666835
0.000134058
-0.009020074
-0.00014199
0.01089147
0.0004675083
0.0007553593
0.0004923029
0.0007709679
-0.06597518
-0.0004161011
-0.0071446
-0.009338364
-0.007974017
-0.009487717
0.0004846864
-0.0008549016
0.02440094
0.0009200337
-0.0001456375
-0.0001366164
0.007630666
0.008668397
-0.007068739
-0.0003388417
0.0007715674
-0.0005231
0.0006024743
0.03405576
-0.03937994
0.004904364
-0.009807376
-0.01054484
-0.009769749
-0.01054225
0.03050825
-0.03786143
-0.0009436663
0.00647417
-0.03332583
-0.0001783389
0.005947724
0.006227916
0.005759655
0.007636014
-0.006302196
-0.0002522161
0.0003500883
0.001259622
0.001282754
0.00127441
0.001225691
0.0001379805
5.528726e-05
-0.0003133359
0.0002532186
-0.0001396319
6.481566e-06
-0.00212605
-0.0002932005
0.01095604
-0.001401008
0.000163907
-0.002615177
-0.002104415
-0.002580102
-5.302512e-05
-0.003342952
1.348153e-05
-0.01332188
0.003852753
0.003857051
0.004493282
0.00450129
-0.000131607
-0.00700894
0.01048119
7.748463e-05
-0.003418135
-0.05311153
0.0003144061
-0.01251405
-0.01401949
-0.01254135
-0.01349344
-0.0012596
3.847745e-05
-0.0008972511
0.03883052
0.00182222
-0.0005647149
0.001701275
-0.0002806335
-0.000172464
0.00689534
0.008764303
-0.006442359
-0.000284802
0.0007500178
-0.0005118691
0.0006076411
0.03673173
-0.0363453
0.004922758
-0.01003568
-0.01074045
-0.01005325
-0.01073916
0.03500223
-0.03531757
-0.0006315766
0.03285874
-0.0323425
7.148293e-05
0.03513464
-0.02847157
-0.001169023
0.006258496
0.006673508
0.006036858
0.006446539
0.04215702
-0.0245641
-0.0007092744
0.003701919
0.004848446
0.003636549
0.004649494
0.05032807
-0.0251653
-0.0006981767
0.003406641
0.004945659
0.003371638
0.00473236
0.05226255
-0.03132274
-0.001011764
0.005131535
0.009210762
0.005049293
0.009150259
0.04530829
-0.04224178
-0.001016811
0.01216674
0.01202682
0.01198006
0.01183407
-0.04550846
-0.0008079877
0.03761927
-0.0001969125
0.006353662
0.008845213
-0.005993564
-0.0002472192
0.000736292
-0.0005037306
0.0006120626
0.03829615
-0.03437013
0.005112545
-0.01022971
-0.01091252
-0.01026412
-0.01090359
0.03757668
-0.03369213
-0.0003122377
0.03635683
-0.03188497
0.0006621263
0.03752581
-0.02974112
-0.0005655949
0.04082194
-0.02797011
-0.0004682943
0.04460002
-0.0289004
-0.0006403359
0.04547473
-0.03213778
-0.0006553033
0.04147025
-0.03811665
-0.0007621545
-0.04068619
-0.0003873295
0.03651932
-0.0002127841
0.005973763
0.008899851
-0.005677794
-0.000222803
0.0007271478
-0.0004977212
0.0006161417
0.03941335
-0.03294035
0.005176607
-0.01035331
-0.01101347
-0.01038952
-0.01100113
0.03896582
-0.0326692
0.0001313472
0.03773315
-0.03142867
0.001100992
0.03823629
-0.03021869
-4.068532e-05
0.03968885
-0.02942837
-2.147802e-05
0.04112892
-0.03018191
-0.0002121169
0.04127041
-0.0320613
-0.0002444938
0.03873364
-0.03538823
-0.0001896391
-0.03708902
-0.0001639467
0.03533868
-0.0002227049
0.005698642
0.008931025
-0.005442636
-0.0002113597
0.0007233779
-0.0004920162
0.0006214727
0.04004918
0.005242612
-0.01042838
-0.01108401
-0.01046836
-0.01106573
-0.03185157
0.03983474
0.0001767386
-0.03182958
0.03860826
0.001221278
-0.03101465
0.03846038
0.0001731563
-0.03029056
0.03878726
0.0001912082
-0.02993499
0.03908194
-1.936252e-05
-0.03048599
0.03866181
-5.87927e-05
-0.03160083
0.03683516
-8.709212e-05
-0.03350596
-5.592813e-05
0.03438571
-0.03459107
0.001226671
0.0003318891
-0.0001003082
-0.02731778
-0.0002276673
-0.000936231
0.001230584
-0.0009317167
0.005157981
-0.0948813
-0.001370364
0.002893802
0.005148306
-0.0007834691
-0.0007319889
0.00176574
-0.003500323
0.003794246
-0.003426012
0.004605219
-0.08536179
-0.002189979
0.004768512
0.00515063
-0.0006988856
-0.0006082705
0.003847312
-0.07826755
-0.002402161
0.004564369
0.004774642
-0.0005432572
-0.0005080062
0.00312716
-0.07030258
-0.00215253
0.004153666
0.004317582
-0.0005289596
-0.0005279504
0.002425748
-0.06430027
-0.002021128
0.003854602
0.003981957
-0.0005003166
-0.0004870029
0.001806606
-0.05927273
-0.001861443
0.00359431
0.003689015
-0.0004807879
-0.0004717124
0.00133424
-0.05591089
-0.001775328
0.003413115
0.003484818
-0.0004566366
-0.0004419654
-0.05324906
-0.001685778
0.003265732
-0.0004443184
0.0009930844
0.00332104
-0.0004328138
0.003341998
6.554491e-05
0.007411979
-0.01823455
-4.033272e-05
0.006763529
0.003335694
0.006749707
0.01944942
-0.09410218
-0.0002540158
0.02581625
0.02631546
0.02581546
0.02605807
-0.007020774
-0.007867409
-0.007132234
-0.008135869
0.01678955
-0.0935603
-0.00132037
0.0140184
-0.08399039
-0.001251244
0.01225279
-0.07796878
-0.001383685
0.0101962
-0.06959219
-0.001229825
0.007965776
-0.0632777
-0.001152621
0.005886403
-0.05832241
-0.001058057
0.004347732
-0.05543511
-0.001011953
-0.05314609
-0.0009822306
0.003211661
0.02880786
-0.07630106
-0.001898711
0.0007153594
0.002803849
-0.004075259
0.001202904
0.01594843
0.02634277
0.01572169
0.02630762
0.02687418
-0.09087092
0.002380816
0.02286606
-0.09018703
-0.001571181
0.02140329
-0.08289874
-0.0007908764
0.0195569
-0.07673138
-0.00130246
0.01677479
-0.06736588
-0.001074068
0.01298869
-0.06000836
-0.001031211
0.009417325
-0.05524757
-0.0009759137
0.006793144
-0.05329527
-0.0009702318
-0.05181393
-0.0009939352
0.005002993
0.0325835
-0.07054081
-0.0008166861
0.0005244505
0.001817866
-0.004243974
0.0009267901
0.03179134
-0.08853891
0.00287501
0.02970618
-0.08785361
-0.0006085873
0.02908081
-0.08198589
0.0004456404
0.02785656
-0.07547979
-0.0001336275
0.02400359
-0.063479
6.97489e-05
0.01791996
-0.0539132
5.390634e-05
0.01212839
-0.04944347
6.718357e-05
0.008506311
-0.04969292
-2.505629e-05
-0.04937664
-0.0001452088
0.006076066
0.03574204
-0.06813326
-0.001508358
0.0007876935
0.002220836
-0.004012814
0.001293392
0.03561463
-0.08658747
0.003087568
0.03489083
-0.08684758
-0.0003191401
0.03635353
-0.08304662
0.001176355
0.03713163
-0.07599144
0.0009098647
0.03275578
-0.0586978
0.000923179
0.02282955
-0.04362012
0.000817906
0.01377811
-0.04010814
0.0006524409
0.008547429
-0.04422504
0.0007245894
-0.04700062
0.0006164934
0.006234884
0.03678751
-0.06639065
-0.001400486
0.0005953713
0.002084137
-0.004036717
0.001198038
0.03784564
-0.08583122
0.003356029
0.03891996
-0.08759317
0.00012066
0.04423822
-0.08775171
0.001170329
0.05033773
-0.02189392
0.001337085
-0.01897599
-0.02151867
-0.01871568
0.04463092
-0.01732135
0.001085424
-0.009031704
-0.01718407
-0.008989314
0.02625628
-0.006600419
0.0007771232
-0.005871021
-0.006559017
-0.005810426
0.01156441
-0.006296199
0.0007613654
-0.006241328
-0.006210076
-0.006184626
0.005851961
-0.009159736
0.0009132871
-0.009953946
-0.009090436
-0.009835446
-0.01104423
0.001103787
-0.01089758
0.004177487
-0.01159837
-0.0113042
0.03715053
-0.06504512
-0.001450924
0.0005503438
0.002115476
-0.003996217
0.001254809
0.03840624
-0.08525132
0.003238025
0.04051408
-0.08940906
-0.0003373936
0.01202241
-0.0942695
0.0006877982
0.0116696
0.01183004
0.01164216
-0.0003741186
0.01388805
-0.02362201
0.00023657
-0.0003242189
0.02244424
0.0002241119
-0.0175309
-0.002765586
-0.008311643
-0.002772758
-0.008284585
-0.01569403
-0.0002756196
0.009429292
-0.0002357899
0.0001756933
1.489693e-05
0.003578042
-4.696768e-07
-0.006839467
-0.0005849249
-0.0009401536
-0.0005855134
-0.0009386229
-0.0001400068
-0.0005104046
8.434434e-05
-0.0002188455
-0.002641493
-0.00155278
-0.002653618
-0.001526928
-0.0001332939
-0.0002814907
-0.01064665
0.0001568919
-0.0001396793
0.03561241
-0.06234876
-0.001680997
0.0005959879
0.002258754
-0.003848489
0.001334947
0.03445233
-0.08231139
0.003169108
0.03334737
-0.088173
-0.0006341393
0.01097537
-0.09458741
0.0002322025
0.005894152
0.01095746
0.005844387
-0.0002589576
0.02582984
-0.02563824
0.0001849033
0.002268561
0.003166673
0.002273899
0.003148684
-1.438182e-05
0.002341291
-0.0009802944
-0.001345794
-8.179014e-07
-0.05657363
-6.992085e-05
0.002652214
0.003470616
0.002639554
0.003397649
0.01145695
0.01137525
-0.000949706
0.01167604
0.01142933
0.03449646
-0.05855262
-0.001743044
0.0005239945
0.002283103
-0.003722885
0.001335085
0.03093863
-0.07703834
0.00314718
0.02572265
-0.08283991
-0.0007824013
0.00589629
-0.08521856
-9.419566e-05
0.002483788
0.0056842
0.002284231
0.02467326
-0.0005357111
0.003858158
-0.02243374
0.0003343143
-0.05852012
-0.000910648
0.002158725
-0.002037262
0.001761384
-0.002657394
0.00273135
0.03340623
-0.05374418
-0.001821446
0.000439425
0.002317905
-0.003547931
0.001366269
0.02871797
-0.07065025
0.003180458
0.02048306
-0.07471873
-0.001300683
0.01153903
-0.07603937
0.0008687892
-0.06581917
-0.0001203574
0.0008590224
0.001703849
-0.0004252602
-0.002556288
0.02139682
0.01726707
0.02111842
0.01811493
0.007451908
-0.04109537
0.00192291
0.004192606
-0.001069105
0.01360453
0.01499252
-0.05726158
-0.0005533179
0.005924459
0.03304855
-0.04853992
-0.001798165
0.0002804698
0.002272055
-0.003395302
0.001357133
0.02755416
-0.0634672
0.003147789
0.01901117
-0.0661994
-0.001089481
0.009320893
-0.06622959
0.0004292989
-0.0566559
2.923566e-05
0.0004701395
0.002425534
-0.0006466908
-0.002120595
0.002022873
-0.04337394
2.634953e-06
0.001831249
-0.001578213
-0.06100036
0.0002438351
0.005876352
0.03293976
-0.04327454
-0.00173406
0.0001129426
0.002241711
-0.003228461
0.001371802
0.02728175
-0.05609682
0.003098196
0.01874044
-0.05769984
-0.0009858138
0.008928412
-0.05621816
0.0001797051
-0.01354015
0.0002985252
0.0001607227
0.002204745
-0.001067995
-0.001253077
-0.01040031
-0.01335099
-0.01077896
-0.003976916
-0.001987668
0.0013991
-0.004799148
-0.01624587
-0.0177635
-0.07110333
0.000927104
0.00607039
0.03316404
-0.03827342
-0.001685085
-5.822737e-05
0.002202068
-0.003060033
0.001405251
0.02813618
-0.04923807
0.003017193
0.01933784
-0.04898502
-0.00105537
0.003025427
-0.0466098
0.0004546005
0.001856866
0.003212194
0.001814361
0.0001920414
0.0009533646
-0.01147602
-0.0001841117
-0.07656337
0.0006723001
-9.227173e-05
-0.005017837
0.0008910143
-0.004652421
0.01441184
0.03382451
-0.03398852
-0.001606668
-0.0002431527
0.002179629
-0.00291333
0.001443272
0.02971108
-0.04321726
0.002947864
0.02254282
-0.04189284
-0.0008387636
0.003954913
-0.03701812
0.0001002253
0.002548761
0.003867394
0.002508693
6.656062e-05
-0.008561284
-7.108883e-05
0.01023155
0.0004239542
0.0007222947
0.0004239548
0.0007189707
-0.01658533
-0.0004273319
-0.007739269
-0.01180668
-0.007671197
-0.01245633
-0.01598182
0.0266805
-0.01581351
-0.01517846
0.03489803
-0.03073288
-0.001532871
-0.0004310788
0.002150166
-0.002826442
0.001455758
0.03244401
-0.03879001
0.002931128
0.02803553
-0.03754317
-0.0008848614
0.006195386
-0.03254648
-0.0001042409
0.005630523
0.00610997
0.005553909
0.0001436721
0.007270688
-0.006025663
-9.08386e-05
0.001239671
0.001204114
0.00125788
0.001195859
1.098959e-06
0.0002338407
-0.0002589571
0.000212275
-0.0001876327
-6.237934e-07
-0.002104736
-4.274767e-05
0.01074577
-0.001447446
3.886875e-05
-0.002545847
-0.00210056
-0.002543299
1.967673e-05
-0.003464595
6.693644e-06
-0.01327886
0.003885209
0.003873919
0.00447614
0.004481819
-0.0001956963
-0.007132581
-0.003921252
0.0001097813
0.001552495
0.00403459
0.001542851
0.004009811
-0.002853548
-0.01389524
0.0002254127
-0.003030856
-0.00297217
-0.002987498
0.009242979
0.03592555
-0.02840159
-0.001526145
-0.0005733861
0.002124017
-0.00277196
0.001459849
0.0349677
-0.03587276
0.00296336
0.03252727
-0.0350217
-0.0007126277
0.03196615
-0.03186183
-5.204396e-05
0.03448634
-0.0280585
-0.000740555
0.00603988
0.006603975
0.005943715
0.00652227
0.0415052
-0.02408544
-0.0004551777
0.003695755
0.004742497
0.003682773
0.004691455
0.04954667
-0.02492961
-0.0004261829
0.003476891
0.004849104
0.003467517
0.004822628
0.05128703
-0.03128266
-0.0005693894
0.005218428
0.009408291
0.005156178
0.009317034
0.04383234
-0.04174795
-0.0005614744
0.011482
0.01301476
0.01138233
0.01286821
-0.04495796
-0.0005758812
0.01251353
0.01202402
0.03768907
0.01345122
0.01288036
0.03663015
-0.02671936
-0.001521537
-0.0006718291
0.002102458
-0.002726249
0.001474001
0.03660189
-0.03384584
0.003113895
0.03527958
-0.03357241
-0.0004392254
0.03558846
-0.03178084
0.0002722631
0.03694835
-0.02947838
-0.0005056006
0.04057764
-0.02777789
-0.0004051259
0.0443592
-0.0288348
-0.0005166964
0.04511223
-0.03216156
-0.0005294507
0.04142116
-0.03819749
-0.0006215557
-0.04027113
-0.0003359303
0.03668293
0.03713738
-0.02549642
-0.001540803
-0.0007397954
0.002086302
-0.002684681
0.001487886
0.03774553
-0.03244188
0.003164506
0.0368919
-0.03254603
-4.140234e-05
0.03700007
-0.03147473
0.0006867138
0.03783367
-0.03022662
-0.0001260463
0.0396583
-0.02949932
-0.0001246723
0.04117731
-0.03028881
-0.0002771158
0.04128946
-0.03222508
-0.0002931212
0.03868054
-0.03554596
-0.0002322543
-0.03715425
-0.000144476
0.03554419
0.03743907
-0.001566613
-0.000784985
0.002082237
-0.002645296
0.001506537
-0.02455815
0.03835792
0.003229124
-0.03134725
0.03766877
3.044493e-05
-0.03171059
0.03773751
0.0008262631
-0.03114846
0.03803083
8.366662e-05
-0.03043044