/*--------------------------------*- C++ -*----------------------------------*\
  =========                 |
  \\      /  F ield         | OpenFOAM: The Open Source CFD Toolbox
   \\    /   O peration     | Website:  https://openfoam.org
    \\  /    A nd           | Version:  7
     \\/     M anipulation  |
\*---------------------------------------------------------------------------*/
FoamFile
{
    version     2.0;
    format      ascii;
    class       volVectorField;
    location    "0.1";
    object      C;
}
// * * * * * * * * * * * * * * * * * * * * * * * * * * * * * * * * * * * * * //

dimensions      [0 1 0 0 0 0 0];

internalField   nonuniform List<vector> 
86107
(
(0.4992631 0.4992634 0.09770032)
(0.6997276 0.4996157 0.09558495)
(0.89974 0.4995582 0.09490914)
(1.099893 0.499461 0.0947504)
(1.299962 0.49942 0.09471001)
(1.499988 0.4994082 0.09470246)
(1.699997 0.4994075 0.09470906)
(1.899999 0.4994109 0.09471978)
(0.4996156 0.6997272 0.09558476)
(0.6995943 0.699594 0.09164768)
(0.8995124 0.6995135 0.0904728)
(1.099787 0.6994172 0.09016663)
(1.299922 0.6993714 0.09008415)
(1.499972 0.6993572 0.09006619)
(1.699991 0.6993567 0.0900712)
(1.899997 0.6993603 0.09008048)
(0.4995578 0.8997394 0.09490803)
(0.6995133 0.8995114 0.09047118)
(0.8993848 0.899384 0.08902159)
(1.099719 0.8993173 0.08862514)
(1.299893 0.8992864 0.08851351)
(1.499961 0.8992778 0.08848926)
(1.699987 0.899281 0.08849704)
(1.899996 0.8992892 0.08851087)
(0.4994596 1.099891 0.09474707)
(0.6994157 1.099784 0.09016079)
(0.899317 1.099716 0.08861971)
(1.09968 1.099678 0.08817908)
(1.299875 1.099661 0.0880527)
(1.499955 1.09966 0.0880295)
(1.699986 1.099671 0.08804726)
(1.899997 1.099689 0.08807376)
(0.4994166 1.29996 0.09470228)
(0.699367 1.299918 0.0900704)
(0.8992834 1.299887 0.08849773)
(1.099662 1.299869 0.08804137)
(1.299869 1.299862 0.08791511)
(1.499957 1.299869 0.08790769)
(1.699993 1.299892 0.08795533)
(1.900004 1.299934 0.08801739)
(0.4994013 1.499985 0.09468696)
(0.6993482 1.499967 0.09004042)
(0.8992705 1.499952 0.08845888)
(1.099658 1.499943 0.08800403)
(1.299866 1.499933 0.08790127)
(1.499938 1.499922 0.08795444)
(1.699957 1.499942 0.08810194)
(1.899969 1.500027 0.08827948)
(0.4993966 1.699993 0.09468234)
(0.6993426 1.699984 0.09003273)
(0.8992693 1.699975 0.08845355)
(1.099666 1.699969 0.08801473)
(1.299863 1.699932 0.08797285)
(1.499707 1.699671 0.08826241)
(1.69941 1.699382 0.0888007)
(1.899431 1.699435 0.08935056)
(0.4993958 1.899996 0.09468193)
(0.6993433 1.89999 0.09003426)
(0.899276 1.899983 0.08846405)
(1.099686 1.899973 0.08805464)
(1.299887 1.8999 0.08811349)
(1.499458 1.899266 0.08879497)
(1.69748 1.89715 0.09121459)
(1.897463 1.898054 0.09225234)
(0.4993965 2.099997 0.09468306)
(0.699347 2.099993 0.09003909)
(0.8992875 2.099986 0.08848034)
(1.099717 2.099971 0.0881061)
(1.299957 2.099876 0.08828075)
(1.499504 2.09915 0.08933662)
(1.698546 2.096555 0.09229017)
(1.844801 2.044091 0.04286227)
(0.4993976 2.299999 0.09468447)
(0.699351 2.299996 0.0900439)
(0.8993 2.299991 0.08849455)
(1.099753 2.29998 0.08814833)
(1.300053 2.299911 0.08841736)
(1.499637 2.29952 0.08983418)
(1.698668 2.298786 0.094641)
(1.844527 2.247029 0.04523226)
(2.011493 2.203128 0.01152947)
(0.499398 2.5 0.09468509)
(0.6993529 2.5 0.09004595)
(0.8993065 2.5 0.0885008)
(1.099775 2.500001 0.08816621)
(1.300105 2.499994 0.08847526)
(1.49969 2.499964 0.09005071)
(1.699406 2.499937 0.09508322)
(1.845823 2.448767 0.04547845)
(0.4993975 2.700001 0.09468455)
(0.6993514 2.700004 0.09004461)
(0.8993025 2.700009 0.08849756)
(1.099764 2.700024 0.08815815)
(1.300076 2.700073 0.08845425)
(1.499605 2.700243 0.08999442)
(1.699182 2.700814 0.0949438)
(1.846479 2.649548 0.04531069)
(0.4993961 2.900002 0.09468304)
(0.6993467 2.900006 0.09004003)
(0.8992898 2.900014 0.08848531)
(1.099729 2.900032 0.08812504)
(1.299986 2.900113 0.08835229)
(1.499438 2.900541 0.08962207)
(1.697848 2.901416 0.09379128)
(1.844372 2.850824 0.04494677)
(0.4993943 3.100002 0.09468084)
(0.6993412 3.100006 0.09003327)
(0.8992751 3.100012 0.08846717)
(1.099691 3.100023 0.0880755)
(1.299901 3.100103 0.08820191)
(1.49938 3.100755 0.08910245)
(1.698338 3.102968 0.09144337)
(1.84351 3.051597 0.04299501)
(0.4993928 3.300002 0.09467853)
(0.6993363 3.300005 0.09002604)
(0.8992635 3.300008 0.08844782)
(1.099664 3.300011 0.08802276)
(1.29985 3.300067 0.08804473)
(1.499404 3.300641 0.08862457)
(1.697495 3.302515 0.09070372)
(1.89761 3.301356 0.0912029)
(0.4993917 3.500001 0.09467633)
(0.699333 3.500003 0.09001963)
(0.8992554 3.500004 0.08843133)
(1.099647 3.500003 0.08797941)
(1.299838 3.500028 0.08791471)
(1.499678 3.500263 0.08815629)
(1.699389 3.500504 0.08859656)
(1.899423 3.500438 0.08900774)
(0.499391 3.700001 0.09467474)
(0.699331 3.700002 0.09001487)
(0.8992508 3.700003 0.08841962)
(1.099638 3.7 0.08795083)
(1.299845 3.700001 0.08783258)
(1.499916 3.700003 0.08786458)
(1.699935 3.699978 0.08797989)
(1.899948 3.699906 0.08811459)
(0.4993908 3.900001 0.09467382)
(0.6993301 3.900002 0.09001205)
(0.8992486 3.900002 0.08841275)
(1.099633 3.900001 0.08793514)
(1.299845 3.899996 0.08779346)
(1.499937 3.899984 0.08777374)
(1.699977 3.89996 0.08780907)
(1.899989 3.899926 0.08785572)
(0.499391 4.100001 0.0946736)
(0.6993303 4.100002 0.09001117)
(0.8992483 4.100003 0.08841011)
(1.099632 4.100003 0.08792853)
(1.299842 4.100001 0.08777882)
(1.499933 4.099996 0.08774433)
(1.699971 4.099985 0.08775693)
(1.899984 4.09997 0.08777777)
(0.4993918 4.300002 0.09467461)
(0.6993316 4.300004 0.09001302)
(0.8992497 4.300006 0.08841216)
(1.099633 4.300008 0.0879296)
(1.299843 4.300009 0.08777709)
(1.499933 4.300007 0.08773758)
(1.69997 4.300003 0.08774256)
(1.899984 4.299996 0.08775482)
(0.4993934 4.500003 0.09467759)
(0.6993346 4.500006 0.09001904)
(0.8992532 4.50001 0.08842084)
(1.099636 4.500015 0.08794006)
(1.299846 4.50002 0.08778791)
(1.499934 4.500022 0.08774696)
(1.699971 4.500022 0.08774927)
(1.899985 4.500018 0.08775821)
(0.499397 4.700005 0.09468442)
(0.6993405 4.700011 0.09003218)
(0.8992601 4.700019 0.08844011)
(1.099643 4.700029 0.08796461)
(1.299851 4.700041 0.08781592)
(1.499939 4.70005 0.08777626)
(1.699975 4.700054 0.08777785)
(1.899987 4.70005 0.08778506)
(0.4994037 4.900008 0.09469807)
(0.699351 4.900019 0.09005633)
(0.8992726 4.900034 0.08847671)
(1.099655 4.900056 0.08801333)
(1.299862 4.900083 0.08787331)
(1.499947 4.900109 0.08783799)
(1.69998 4.900123 0.08784031)
(1.899992 4.900118 0.08784624)
(0.4507607 0.2590685 0.2508448)
(0.6504192 0.2584716 0.2516918)
(0.8500161 0.2581543 0.2521378)
(1.049987 0.2580877 0.2521599)
(1.249992 0.2580775 0.2521543)
(1.449994 0.2580756 0.2521542)
(1.649995 0.2580764 0.2521576)
(1.849995 0.2580797 0.2521663)
(0.2590691 0.4507445 0.2508438)
(0.500055 0.5000523 0.2946703)
(0.6995346 0.4995414 0.2917713)
(0.8996844 0.4989285 0.2907186)
(1.099828 0.498639 0.2903619)
(1.299915 0.498529 0.2902445)
(1.49996 0.4984958 0.2902215)
(1.699982 0.4984956 0.2902407)
(1.899992 0.4985067 0.2902688)
(0.2584718 0.6504182 0.2516918)
(0.499542 0.6995324 0.2917701)
(0.6989339 0.6989325 0.2863533)
(0.8993206 0.6983913 0.2841603)
(1.099636 0.698086 0.2833996)
(1.299817 0.6979465 0.2831468)
(1.499912 0.697899 0.2830898)
(1.699959 0.6978971 0.2831104)
(1.899982 0.6979107 0.2831438)
(0.2581543 0.850016 0.2521377)
(0.4989275 0.8996826 0.2907138)
(0.6983909 0.8993176 0.2841535)
(0.8989936 0.8989911 0.2812505)
(1.099456 0.8987807 0.2801807)
(1.299723 0.8986739 0.2798135)
(1.499864 0.8986392 0.2797313)
(1.699936 0.8986491 0.2797646)
(1.899972 0.8986788 0.2798185)
(0.2580876 1.049987 0.2521596)
(0.4986352 1.099825 0.2903491)
(0.6980806 1.099629 0.2833764)
(0.8987786 1.099447 0.280159)
(1.099326 1.099319 0.2789218)
(1.299652 1.099251 0.2784925)
(1.499828 1.099237 0.2784134)
(1.69992 1.099269 0.2784848)
(1.899965 1.099335 0.2785863)
(0.2580772 1.249992 0.2521535)
(0.4985184 1.299909 0.2902155)
(0.6979299 1.299805 0.2830929)
(0.8986597 1.299703 0.2797502)
(1.09925 1.299626 0.2784471)
(1.29961 1.299585 0.2780145)
(1.49981 1.299588 0.2779913)
(1.699913 1.299653 0.2781658)
(1.899964 1.299795 0.2783869)
(0.2580744 1.449993 0.2521518)
(0.4984729 1.499951 0.2901662)
(0.6978637 1.499892 0.2829914)
(0.8986044 1.499829 0.2796114)
(1.099216 1.499775 0.2783111)
(1.299599 1.499738 0.2779465)
(1.499812 1.499738 0.2780891)
(1.699915 1.499826 0.278544)
(1.899968 1.500114 0.2790939)
(0.2580736 1.649994 0.2521514)
(0.4984564 1.699971 0.2901507)
(0.6978398 1.699932 0.2829649)
(0.8985889 1.699884 0.2795935)
(1.09922 1.699828 0.2783513)
(1.299622 1.69976 0.2781543)
(1.499837 1.699686 0.2786946)
(1.699902 1.699683 0.2799165)
(1.899949 1.700183 0.2814168)
(0.2580734 1.849995 0.2521514)
(0.4984524 1.89998 0.29015)
(0.6978376 1.89995 0.2829719)
(0.8986003 1.899904 0.2796345)
(1.099258 1.899829 0.2784949)
(1.299694 1.899686 0.278583)
(1.499904 1.899385 0.2799011)
(1.69975 1.898734 0.2830667)
(1.899715 1.898715 0.2871479)
(0.2580734 2.049995 0.2521514)
(0.4984538 2.099986 0.2901546)
(0.6978466 2.099963 0.282991)
(0.8986298 2.099919 0.2796963)
(1.099333 2.099829 0.2786751)
(1.299852 2.099607 0.2790975)
(1.500172 2.098987 0.2813941)
(1.699802 2.097063 0.2872457)
(1.849086 2.04579 0.2417649)
(0.2580734 2.249995 0.2521516)
(0.4984567 2.299992 0.2901594)
(0.6978577 2.299978 0.2830086)
(0.8986643 2.29995 0.2797485)
(1.099428 2.299885 0.2788189)
(1.300112 2.299709 0.2794901)
(1.500913 2.299185 0.2824736)
(1.702075 2.297621 0.289603)
(1.851286 2.243669 0.2461794)
(2.010535 2.20068 0.2124708)
(0.2580734 2.449995 0.2521516)
(0.4984577 2.5 0.2901617)
(0.6978624 2.499999 0.2830168)
(0.8986805 2.499999 0.2797718)
(1.099479 2.5 0.2788801)
(1.300275 2.499996 0.2796432)
(1.50145 2.499973 0.2828198)
(1.704113 2.499889 0.2900936)
(1.856422 2.448827 0.2464032)
(0.2580734 2.649995 0.2521516)
(0.4984553 2.700006 0.2901601)
(0.6978552 2.700019 0.2830118)
(0.898663 2.700048 0.2797594)
(1.099436 2.700117 0.2788508)
(1.300161 2.700295 0.2795748)
(1.501118 2.700794 0.2826693)
(1.702981 2.702213 0.2898751)
(1.856178 2.652524 0.2463099)
(0.2580733 2.849995 0.2521515)
(0.4984501 2.90001 0.2901545)
(0.6978387 2.90003 0.2829943)
(0.8986203 2.900074 0.2797132)
(1.099327 2.900175 0.2787342)
(1.299863 2.900429 0.2792788)
(1.500232 2.901141 0.2819144)
(1.699751 2.903339 0.2883572)
(1.849286 2.857696 0.2456861)
(0.2580732 3.049995 0.2521514)
(0.4984441 3.10001 0.2901465)
(0.6978204 3.100031 0.2829683)
(0.8985764 3.100072 0.279644)
(1.099228 3.100154 0.2785562)
(1.299645 3.100333 0.27881)
(1.499765 3.10075 0.2806318)
(1.699198 3.10181 0.2850191)
(1.898836 3.102205 0.2906563)
(0.258073 3.249995 0.2521512)
(0.4984391 3.300009 0.2901374)
(0.6978059 3.300025 0.2829397)
(0.8985452 3.300053 0.2795686)
(1.099169 3.300098 0.2783647)
(1.299555 3.30017 0.2783107)
(1.499714 3.300267 0.2792818)
(1.699657 3.300281 0.2815704)
(1.899803 3.299311 0.2845807)
(0.2580729 3.449995 0.252151)
(0.4984356 3.500007 0.2901293)
(0.6977965 3.500018 0.2829142)
(0.8985266 3.500033 0.2795033)
(1.099139 3.500051 0.2782046)
(1.29952 3.500063 0.2779127)
(1.499719 3.50004 0.2782738)
(1.699799 3.499888 0.2791737)
(1.899868 3.499371 0.2802713)
(0.2580729 3.649995 0.252151)
(0.4984336 3.700005 0.290123)
(0.6977915 3.700012 0.2828949)
(0.8985172 3.700019 0.2794557)
(1.099125 3.700024 0.278095)
(1.299506 3.700016 0.2776633)
(1.499721 3.699973 0.277717)
(1.699833 3.699851 0.2780477)
(1.89989 3.699599 0.2784496)
(0.2580729 3.849995 0.2521509)
(0.498433 3.900004 0.2901192)
(0.6977898 3.900009 0.2828831)
(0.8985139 3.900014 0.279427)
(1.09912 3.900015 0.2780317)
(1.299502 3.900006 0.2775306)
(1.499721 3.899974 0.2774539)
(1.69984 3.899903 0.2775775)
(1.899898 3.899785 0.2777403)
(0.2580729 4.049995 0.2521508)
(0.4984338 4.100005 0.2901183)
(0.6977912 4.10001 0.2828793)
(0.8985155 4.100016 0.2794156)
(1.099121 4.10002 0.278004)
(1.299503 4.100016 0.2774721)
(1.499724 4.099999 0.2773433)
(1.699844 4.099962 0.2773915)
(1.899904 4.099907 0.27747)
(0.258073 4.249995 0.2521509)
(0.4984365 4.300006 0.2901216)
(0.6977966 4.300015 0.2828858)
(0.8985225 4.300025 0.279423)
(1.099128 4.300035 0.2780075)
(1.299511 4.30004 0.2774646)
(1.499731 4.300036 0.2773158)
(1.699851 4.30002 0.2773359)
(1.899912 4.299993 0.2773834)
(0.2580731 4.449995 0.2521511)
(0.4984426 4.50001 0.2901324)
(0.6978085 4.500024 0.2829087)
(0.8985375 4.500043 0.2794571)
(1.099144 4.500064 0.2780488)
(1.299525 4.500084 0.2775072)
(1.499743 4.500095 0.2773534)
(1.699862 4.500093 0.2773631)
(1.899921 4.500076 0.2773979)
(0.2580735 4.649995 0.2521518)
(0.4984546 4.700016 0.2901565)
(0.6978303 4.700038 0.2829584)
(0.8985646 4.700072 0.2795329)
(1.099173 4.700115 0.2781466)
(1.299552 4.700163 0.2776189)
(1.499765 4.700203 0.2774695)
(1.699879 4.700219 0.2774763)
(1.899935 4.700202 0.2775049)
(0.2580758 4.950006 0.2521565)
(0.4984754 4.900023 0.2902025)
(0.697866 4.900058 0.2830484)
(0.8986096 4.900117 0.2796736)
(1.099221 4.900203 0.2783343)
(1.299597 4.900312 0.2778403)
(1.499803 4.90042 0.2777078)
(1.699907 4.900478 0.2777172)
(1.899956 4.900456 0.2777409)
(0.451788 0.2586853 0.450384)
(0.7013532 0.3080809 0.5008394)
(0.900372 0.3066066 0.5016895)
(1.099963 0.3060729 0.5018223)
(1.299961 0.3059498 0.5018028)
(1.499982 0.305922 0.5017941)
(1.699992 0.3059179 0.5018009)
(1.899996 0.3059196 0.5018112)
(0.2586929 0.4517851 0.4503826)
(0.5001299 0.5001263 0.4982352)
(0.6996761 0.4985204 0.4966263)
(0.899645 0.4968383 0.4957689)
(1.099755 0.49611 0.4953922)
(1.299857 0.4958477 0.4952451)
(1.499922 0.4957653 0.4952129)
(1.69996 0.4957529 0.4952345)
(1.899981 0.4957618 0.4952642)
(0.3080818 0.701352 0.5008386)
(0.498523 0.6996719 0.4966238)
(0.6986633 0.69866 0.4930777)
(0.8990766 0.6975831 0.4909954)
(1.099443 0.6969313 0.4900746)
(1.299683 0.6966298 0.4897273)
(1.499827 0.6965219 0.4896461)
(1.69991 0.6965104 0.4896797)
(1.899958 0.6965327 0.4897312)
(0.3066067 0.9003711 0.5016876)
(0.4968382 0.8996416 0.4957597)
(0.6975842 0.89907 0.4909827)
(0.898433 0.8984267 0.4879195)
(1.099087 0.8979634 0.4864784)
(1.299487 0.8977224 0.4859305)
(1.49972 0.8976384 0.4858058)
(1.699854 0.8976525 0.4858653)
(1.89993 0.8977113 0.4859572)
(0.306072 1.099961 0.5018177)
(0.4961065 1.09975 0.4953695)
(0.6969248 1.099431 0.490033)
(0.8979612 1.099069 0.4864391)
(1.098801 1.098786 0.4846601)
(1.299322 1.098626 0.4839827)
(1.49963 1.098585 0.4838568)
(1.699805 1.098646 0.4839822)
(1.899906 1.098782 0.4841561)
(0.3059461 1.299959 0.5017928)
(0.4958336 1.299847 0.4951968)
(0.6966029 1.29966 0.4896337)
(0.8976955 1.299448 0.4858183)
(1.098622 1.299271 0.4839017)
(1.299216 1.299166 0.4832048)
(1.499571 1.299159 0.4831686)
(1.699771 1.299284 0.4834606)
(1.899886 1.299574 0.4838211)
(0.3059134 1.499978 0.5017749)
(0.4957315 1.499908 0.4951262)
(0.6964592 1.49979 0.4894795)
(0.8975669 1.499649 0.4855961)
(1.098536 1.499516 0.4836764)
(1.299172 1.499416 0.4830886)
(1.499549 1.499397 0.4833126)
(1.699746 1.499568 0.4840094)
(1.899865 1.500142 0.4848137)
(0.3059025 1.699988 0.5017689)
(0.4956939 1.69994 0.4951034)
(0.6964041 1.699856 0.4894392)
(0.897524 1.699741 0.48557)
(1.098526 1.6996 0.4837473)
(1.299195 1.699434 0.4834249)
(1.499573 1.699274 0.4842154)
(1.699693 1.699305 0.4858341)
(1.899778 1.700256 0.4875999)
(0.3058993 1.899992 0.5017678)
(0.4956831 1.899958 0.4951023)
(0.6963943 1.89989 0.4894518)
(0.8975374 1.899778 0.4856419)
(1.098586 1.899597 0.4839881)
(1.299309 1.899281 0.484086)
(1.499675 1.898716 0.4858194)
(1.699433 1.897796 0.4891547)
(1.899494 1.898274 0.4926754)
(0.305899 2.099995 0.5017684)
(0.4956839 2.09997 0.4951093)
(0.6964078 2.099916 0.4894834)
(0.8975886 2.099812 0.4857463)
(1.098717 2.099606 0.4842799)
(1.299579 2.099153 0.4848384)
(1.50008 2.098087 0.4875746)
(1.699633 2.095815 0.4927045)
(1.848938 2.044465 0.4463156)
(0.3058995 2.299997 0.5017695)
(0.4956881 2.299983 0.4951168)
(0.6964267 2.299952 0.4895123)
(0.8976504 2.299885 0.4858324)
(1.098886 2.29974 0.4845048)
(1.300019 2.299393 0.4853856)
(1.501169 2.298543 0.4887093)
(1.702509 2.296732 0.4943888)
(1.851661 2.242645 0.4485901)
(2.010536 2.200675 0.4125126)
(0.3058996 2.5 0.5017699)
(0.4956893 2.499999 0.4951202)
(0.6964338 2.499997 0.4895253)
(0.8976771 2.499997 0.4858702)
(1.098971 2.499996 0.4845996)
(1.300282 2.499987 0.4855982)
(1.501951 2.499945 0.4890852)
(1.705015 2.499842 0.4947678)
(1.857648 2.448622 0.4488178)
(0.3058987 2.700002 0.5017696)
(0.4956843 2.700013 0.4951181)
(0.6964185 2.700042 0.4895177)
(0.897639 2.700108 0.4858503)
(1.098879 2.700258 0.4845533)
(1.300053 2.700608 0.4854993)
(1.501363 2.701418 0.4889151)
(1.703446 2.703064 0.4946023)
(1.857164 2.653134 0.4487915)
(0.3058968 2.900003 0.5017684)
(0.4956745 2.900022 0.49511)
(0.6963865 2.900068 0.4894896)
(0.8975546 2.900172 0.4857737)
(1.09867 2.900397 0.4843666)
(1.299517 2.900914 0.4850674)
(1.499983 2.902138 0.488064)
(1.699351 2.904788 0.493429)
(1.848983 2.859165 0.4484014)
(0.3058949 3.100004 0.5017666)
(0.4956636 3.100023 0.4950976)
(0.6963525 3.100072 0.4894466)
(0.8974714 3.10017 0.4856557)
(1.098487 3.100365 0.4840726)
(1.299139 3.100753 0.48436)
(1.499298 3.101537 0.4865123)
(1.698504 3.10295 0.4904768)
(1.898084 3.102536 0.4947554)
(0.3058932 3.300004 0.5017646)
(0.4956549 3.300021 0.4950834)
(0.6963267 3.300059 0.4893983)
(0.897415 3.30013 0.4855249)
(1.098387 3.300246 0.4837503)
(1.299002 3.300422 0.483593)
(1.499261 3.300617 0.4847777)
(1.699169 3.300549 0.4871058)
(1.899324 3.298682 0.4897418)
(0.3058921 3.500003 0.5017626)
(0.4956493 3.500016 0.49507)
(0.6963108 3.500042 0.489354)
(0.8973842 3.500083 0.4854091)
(1.098341 3.500137 0.4834757)
(1.298964 3.500183 0.4829703)
(1.499304 3.500148 0.4834254)
(1.69945 3.499826 0.4845396)
(1.899577 3.498778 0.4858307)
(0.3058914 3.700002 0.501761)
(0.4956463 3.700011 0.4950594)
(0.696303 3.700028 0.4893202)
(0.8973704 3.700051 0.4853233)
(1.098325 3.70007 0.4832824)
(1.298958 3.700066 0.4825606)
(1.49934 3.699988 0.4826121)
(1.699553 3.699741 0.4830883)
(1.899681 3.699221 0.4836548)
(0.3058913 3.900002 0.5017599)
(0.4956457 3.900009 0.4950525)
(0.6963013 3.900022 0.4892983)
(0.8973676 3.900036 0.4852699)
(1.098324 3.900044 0.4831669)
(1.298964 3.900031 0.4823303)
(1.499362 3.89997 0.4821874)
(1.699598 3.899824 0.4823829)
(1.899732 3.899576 0.4826413)
(0.3058917 4.100002 0.5017598)
(0.4956475 4.10001 0.4950504)
(0.6963052 4.100022 0.4892903)
(0.8973734 4.100037 0.485247)
(1.098332 4.100048 0.4831138)
(1.298976 4.100043 0.4822234)
(1.499381 4.10001 0.4819946)
(1.699625 4.099933 0.4820738)
(1.899763 4.099815 0.4822067)
(0.305893 4.300003 0.5017607)
(0.4956531 4.300013 0.495055)
(0.6963167 4.300031 0.4892995)
(0.8973897 4.300055 0.4852572)
(1.098351 4.300078 0.4831165)
(1.298997 4.300092 0.4822061)
(1.499403 4.300085 0.481943)
(1.699648 4.300051 0.4819754)
(1.899788 4.29999 0.4820577)
(0.3058958 4.500004 0.5017638)
(0.4956647 4.500019 0.4950712)
(0.6963407 4.500048 0.4893358)
(0.8974226 4.500089 0.4853134)
(1.098387 4.500138 0.4831861)
(1.299032 4.500183 0.4822783)
(1.499435 4.500211 0.4820064)
(1.699676 4.500207 0.4820209)
(1.899813 4.500168 0.4820822)
(0.3059011 4.700006 0.501771)
(0.4956863 4.700028 0.4951069)
(0.6963839 4.700074 0.4894153)
(0.8974807 4.700146 0.4854407)
(1.09845 4.700243 0.483354)
(1.299092 4.700351 0.4824713)
(1.499487 4.700441 0.4822077)
(1.699717 4.700477 0.482218)
(1.899846 4.70044 0.482269)
(0.3059097 4.900008 0.5017854)
(0.495721 4.900039 0.4951721)
(0.6964522 4.900108 0.4895578)
(0.897574 4.900233 0.4856741)
(1.098554 4.900422 0.4836718)
(1.299192 4.900663 0.4828487)
(1.499573 4.900898 0.4826145)
(1.699784 4.901025 0.4826299)
(1.899897 4.900977 0.4826736)
(0.4522724 0.2583956 0.6500084)
(0.7023612 0.3066722 0.7001477)
(0.9007038 0.3041576 0.7003739)
(1.099964 0.3033608 0.7004742)
(1.299943 0.3031629 0.7004609)
(1.499972 0.3031144 0.7004526)
(1.699987 0.3031033 0.7004556)
(1.899994 0.3031023 0.70046)
(0.2584014 0.4522754 0.6500095)
(0.4996985 0.4996937 0.699306)
(0.6995152 0.4969308 0.6985547)
(0.8995482 0.4942462 0.6980487)
(1.099683 0.4930798 0.6977844)
(1.299808 0.4926575 0.6976721)
(1.499892 0.4925179 0.6976461)
(1.699943 0.4924854 0.6976606)
(1.899973 0.4924872 0.6976798)
(0.3066739 0.7023599 0.7001469)
(0.496937 0.6995081 0.6985515)
(0.697964 0.6979559 0.6969449)
(0.8987348 0.6963199 0.6957132)
(1.099245 0.6953108 0.6950475)
(1.29956 0.6948348 0.694773)
(1.499751 0.6946548 0.6947082)
(1.699865 0.6946225 0.6947386)
(1.899935 0.6946442 0.6947827)
(0.3041596 0.9007028 0.7003709)
(0.4942518 0.8995426 0.6980366)
(0.6963294 0.8987222 0.6956972)
(0.8977757 0.8977598 0.6937193)
(1.098704 0.8970306 0.6925692)
(1.29926 0.8966343 0.6920918)
(1.499583 0.8964879 0.6919839)
(1.699773 0.8964959 0.6920432)
(1.899889 0.8965751 0.6921308)
(0.3033633 1.099962 0.7004673)
(0.493086 1.099674 0.6977562)
(0.6953167 1.099226 0.6949987)
(0.8970391 1.098675 0.6925248)
(1.098237 1.098208 0.6909906)
(1.298992 1.097931 0.6903399)
(1.499431 1.097851 0.6902215)
(1.699688 1.097935 0.6903486)
(1.899844 1.098134 0.6905217)
(0.3031644 1.299941 0.7004475)
(0.4926564 1.299794 0.6976178)
(0.6948203 1.299528 0.6946707)
(0.8966122 1.299203 0.6919716)
(1.097933 1.298913 0.690255)
(1.29881 1.298731 0.6895464)
(1.499326 1.298708 0.6895128)
(1.699624 1.298893 0.6898105)
(1.899803 1.299323 0.6901721)
(0.3031124 1.499968 0.700431)
(0.492498 1.499872 0.6975573)
(0.6945978 1.499699 0.6945363)
(0.8964045 1.49948 0.6917677)
(1.097787 1.49926 0.6900382)
(1.29873 1.499092 0.6894376)
(1.499284 1.499059 0.6896834)
(1.699573 1.499318 0.6903778)
(1.899752 1.500134 0.6911117)
(0.3030954 1.699981 0.700425)
(0.4924396 1.699915 0.6975368)
(0.69451 1.699788 0.6945004)
(0.8963302 1.699607 0.6917468)
(1.097761 1.699377 0.6901193)
(1.298758 1.699115 0.689807)
(1.499293 1.698873 0.6905858)
(1.699487 1.698946 0.691976)
(1.899654 1.700266 0.6932926)
(0.3030901 1.899988 0.7004237)
(0.492422 1.899939 0.6975355)
(0.6944905 1.899836 0.6945124)
(0.896342 1.89966 0.6918198)
(1.097844 1.899374 0.6903725)
(1.298916 1.898899 0.6904758)
(1.499407 1.898176 0.6919629)
(1.699326 1.897384 0.6942696)
(1.899416 1.898355 0.6963604)
(0.3030892 2.099992 0.7004245)
(0.4924215 2.099957 0.6975418)
(0.6945052 2.099875 0.6945418)
(0.8964094 2.099714 0.6919223)
(1.09803 2.099397 0.6906689)
(1.299271 2.098755 0.6911602)
(1.499949 2.097534 0.6932516)
(1.699737 2.095393 0.6963478)
(1.848963 2.04426 0.6482462)
(0.3030897 2.299996 0.7004255)
(0.4924261 2.299976 0.6975485)
(0.6945287 2.299928 0.6945684)
(0.8964918 2.299826 0.6920049)
(1.098263 2.299606 0.6908879)
(1.299833 2.299129 0.6916193)
(1.501258 2.298167 0.6940092)
(1.702786 2.296433 0.6972772)
(1.851757 2.242504 0.6493689)
(2.010537 2.200675 0.6125214)
(0.3030896 2.5 0.7004261)
(0.4924271 2.499998 0.6975519)
(0.6945365 2.499996 0.6945807)
(0.8965251 2.499995 0.6920413)
(1.098375 2.499993 0.6909784)
(1.300155 2.499977 0.6917954)
(1.502148 2.499924 0.6942637)
(1.705367 2.49981 0.6974999)
(1.857826 2.448586 0.6494941)
(0.3030885 2.700003 0.7004259)
(0.4924204 2.700018 0.6975504)
(0.6945148 2.700061 0.6945747)
(0.8964682 2.700162 0.6920235)
(1.098235 2.700388 0.6909354)
(1.299824 2.700865 0.6917137)
(1.501383 2.701779 0.6941432)
(1.703555 2.703311 0.6973883)
(1.857219 2.653169 0.6494703)
(0.3030862 2.900005 0.700425)
(0.4924074 2.900031 0.6975438)
(0.6944712 2.900101 0.69455)
(0.8963484 2.900261 0.6919513)
(1.097932 2.900607 0.6907534)
(1.299102 2.901333 0.6913475)
(1.499666 2.902746 0.693562)
(1.698976 2.905298 0.6967006)
(1.848164 2.859389 0.6492103)
(0.3030838 3.100006 0.7004233)
(0.4923933 3.100034 0.6975332)
(0.6944257 3.100107 0.6945108)
(0.8962322 3.100263 0.6918362)
(1.097669 3.10057 0.6904539)
(1.298602 3.101151 0.6907078)
(1.49877 3.102131 0.6924331)
(1.697943 3.103511 0.6949667)
(1.896984 3.103159 0.6972341)
(0.3030818 3.300005 0.7004212)
(0.4923821 3.30003 0.6975203)
(0.6943921 3.30009 0.6944652)
(0.8961555 3.300204 0.6917058)
(1.097526 3.300396 0.6901196)
(1.298423 3.300674 0.6899532)
(1.498743 3.300975 0.6910065)
(1.698622 3.300838 0.6927368)
(1.898626 3.29868 0.6943816)
(0.3030805 3.500004 0.7004189)
(0.4923749 3.500023 0.6975076)
(0.6943719 3.500064 0.6944223)
(0.8961157 3.500134 0.6915887)
(1.097467 3.500228 0.6898343)
(1.298379 3.50031 0.6893041)
(1.498858 3.500265 0.6897376)
(1.699035 3.499814 0.6907192)
(1.899188 3.498393 0.6917478)
(0.3030797 3.700003 0.7004169)
(0.4923712 3.700017 0.6974968)
(0.6943624 3.700044 0.694388)
(0.8960994 3.700083 0.6915001)
(1.09745 3.700121 0.6896308)
(1.298382 3.700123 0.68887)
(1.498934 3.700011 0.6889043)
(1.699245 3.699641 0.6893617)
(1.899438 3.698864 0.6898944)
(0.3030795 3.900003 0.7004155)
(0.4923702 3.900013 0.6974894)
(0.6943608 3.900034 0.6943649)
(0.896098 3.900058 0.6914428)
(1.097453 3.900075 0.6895067)
(1.2984 3.90006 0.6886259)
(1.498985 3.89997 0.6884653)
(1.699337 3.89975 0.688652)
(1.899548 3.899371 0.6889015)
(0.30308 4.100003 0.7004148)
(0.4923727 4.100014 0.6974859)
(0.6943667 4.100034 0.6943538)
(0.8961082 4.100058 0.6914147)
(1.097469 4.100077 0.6894455)
(1.298425 4.100073 0.6885078)
(1.499023 4.100024 0.6882609)
(1.69939 4.099907 0.6883342)
(1.89961 4.099724 0.6884649)
(0.3030816 4.300004 0.7004154)
(0.4923803 4.300018 0.6974883)
(0.6943834 4.300046 0.6943583)
(0.8961334 4.300082 0.6914178)
(1.0975 4.30012 0.6894391)
(1.298461 4.300144 0.6884802)
(1.499062 4.300136 0.6881985)
(1.699432 4.300083 0.6882262)
(1.899655 4.299988 0.6883085)
(0.3030852 4.500006 0.7004183)
(0.4923963 4.500027 0.697501)
(0.6944177 4.500069 0.694387)
(0.8961828 4.500131 0.6914636)
(1.097556 4.500208 0.6894973)
(1.298517 4.500282 0.6885409)
(1.499115 4.500327 0.6882504)
(1.69948 4.50032 0.688262)
(1.899699 4.500259 0.6883256)
(0.3030916 4.700008 0.7004248)
(0.4924251 4.700039 0.6975298)
(0.6944786 4.700104 0.6944533)
(0.8962694 4.700212 0.6915745)
(1.097654 4.700363 0.6896492)
(1.298612 4.700534 0.6887195)
(1.499198 4.700675 0.6884389)
(1.699547 4.700731 0.6884488)
(1.899754 4.700674 0.6885058)
(0.3031015 4.900011 0.7004365)
(0.4924693 4.900052 0.6975814)
(0.6945731 4.90015 0.6945736)
(0.8964069 4.900334 0.6917815)
(1.097814 4.900628 0.6899421)
(1.298769 4.901004 0.6890754)
(1.499334 4.901367 0.6888279)
(1.699654 4.901562 0.6888476)
(1.899835 4.901488 0.6889019)
(0.452307 0.2583363 0.849989)
(0.7025427 0.3061762 0.8999409)
(0.9008457 0.3034102 0.8999296)
(1.099962 0.3024561 0.8999279)
(1.299932 0.3022126 0.8999275)
(1.499966 0.3021466 0.8999279)
(1.699984 0.3021276 0.8999299)
(1.899993 0.3021235 0.8999306)
(0.2583408 0.4522988 0.8499889)
(0.4995027 0.4994953 0.8998125)
(0.699387 0.496323 0.8996027)
(0.8994732 0.4932374 0.8994512)
(1.099636 0.4918549 0.8993723)
(1.299779 0.4913305 0.899344)
(1.499874 0.4911413 0.8993428)
(1.699933 0.4910865 0.8993514)
(1.899967 0.4910791 0.8993573)
(0.3061801 0.702541 0.8999396)
(0.4963369 0.6993758 0.8995982)
(0.6975545 0.697536 0.8991521)
(0.8985064 0.6955816 0.898782)
(1.099122 0.6943499 0.8985687)
(1.299489 0.6937498 0.8984827)
(1.499709 0.693506 0.8984687)
(1.69984 0.6934466 0.8984848)
(1.899922 0.6934592 0.8985009)
(0.3034177 0.9008451 0.899924)
(0.4932596 0.8994644 0.8994342)
(0.695613 0.898484 0.8987628)
(0.8973492 0.8973143 0.8981349)
(1.098465 0.8964096 0.8977288)
(1.299125 0.8958989 0.8975529)
(1.499503 0.8956957 0.8975178)
(1.699726 0.8956857 0.8975451)
(1.899865 0.8957668 0.8975799)
(0.3024707 1.099962 0.899915)
(0.4918951 1.099625 0.8993348)
(0.6943958 1.099094 0.8985176)
(0.896449 1.09842 0.8976908)
(1.097892 1.09784 0.8971034)
(1.298787 1.097484 0.8968336)
(1.49931 1.097366 0.8967872)
(1.699615 1.097453 0.8968435)
(1.899804 1.097683 0.8969176)
(0.3022358 1.299931 0.8999068)
(0.4913862 1.299763 0.8992826)
(0.6937965 1.299448 0.8983917)
(0.895919 1.299052 0.8974651)
(1.097512 1.298684 0.8967799)
(1.29855 1.298442 0.8964696)
(1.499169 1.298397 0.8964564)
(1.699524 1.29861 0.8965891)
(1.899744 1.29912 0.8967476)
(0.3021745 1.499963 0.8999006)
(0.4911976 1.499851 0.8992585)
(0.6935263 1.499646 0.8983371)
(0.8956593 1.499379 0.8973784)
(1.097323 1.4991 0.8966821)
(1.298438 1.498874 0.8964165)
(1.499094 1.498809 0.8965331)
(1.699453 1.499111 0.8968409)
(1.899684 1.500081 0.8971379)
(0.3021543 1.699978 0.899898)
(0.4911277 1.699901 0.8992494)
(0.6934186 1.69975 0.8983214)
(0.8955633 1.699528 0.8973684)
(1.097286 1.699235 0.8967183)
(1.298454 1.698887 0.896588)
(1.499116 1.698627 0.8969264)
(1.699395 1.698819 0.8974617)
(1.899599 1.700347 0.897926)
(0.3021482 1.899986 0.8998976)
(0.491106 1.899929 0.8992485)
(0.6933926 1.899806 0.8983252)
(0.8955712 1.899592 0.8973985)
(1.097379 1.899229 0.896834)
(1.298635 1.898661 0.8968831)
(1.499308 1.89794 0.8974538)
(1.699301 1.897268 0.8982244)
(1.89939 1.898408 0.8988946)
(0.3021469 2.099991 0.8998978)
(0.4911046 2.09995 0.8992509)
(0.6934072 2.099853 0.8983368)
(0.8956444 2.099659 0.8974413)
(1.09759 2.099267 0.8969668)
(1.299059 2.098542 0.8971594)
(1.49994 2.097316 0.8979025)
(1.699775 2.095271 0.898885)
(1.848987 2.044235 0.8493478)
(0.3021472 2.299995 0.8998981)
(0.4911091 2.299972 0.8992534)
(0.6934323 2.299916 0.8983478)
(0.8957349 2.299794 0.897476)
(1.097855 2.299526 0.8970618)
(1.299695 2.298993 0.8973347)
(1.50132 2.298023 0.8981608)
(1.702866 2.296347 0.899181)
(1.851786 2.242483 0.8497723)
(2.010538 2.200675 0.8125254)
(0.3021471 2.5 0.8998985)
(0.4911101 2.499998 0.8992554)
(0.6934404 2.499995 0.8983543)
(0.8957704 2.499993 0.8974932)
(1.097977 2.499989 0.8971031)
(1.300042 2.499971 0.8974046)
(1.502226 2.499914 0.8982517)
(1.705445 2.499793 0.8992563)
(1.857857 2.448575 0.8498086)
(0.3021461 2.700004 0.8998991)
(0.4911032 2.700021 0.8992567)
(0.6934163 2.700071 0.8983547)
(0.895704 2.700191 0.8974897)
(1.097808 2.700464 0.89709)
(1.299651 2.700997 0.8973805)
(1.501371 2.701914 0.8982167)
(1.70352 2.703368 0.8992261)
(1.85717 2.653135 0.8497983)
(0.302144 2.900006 0.8998998)
(0.4910898 2.900036 0.8992565)
(0.6933684 2.900119 0.8983482)
(0.8955676 2.90031 0.8974644)
(1.097452 2.900735 0.8970178)
(1.298814 2.901557 0.8972502)
(1.499505 2.902988 0.8980284)
(1.698722 2.905463 0.8990161)
(1.847703 2.859453 0.8497086)
(0.3021417 3.100007 0.8999002)
(0.4910751 3.10004 0.8992543)
(0.6933186 3.100128 0.8983348)
(0.8954369 3.100317 0.897419)