/*--------------------------------*- C++ -*----------------------------------*\
  =========                 |
  \\      /  F ield         | OpenFOAM: The Open Source CFD Toolbox
   \\    /   O peration     | Website:  https://openfoam.org
    \\  /    A nd           | Version:  7
     \\/     M anipulation  |
\*---------------------------------------------------------------------------*/
FoamFile
{
    version     2.0;
    format      ascii;
    class       volScalarField;
    location    "0.1";
    object      Cx;
}
// * * * * * * * * * * * * * * * * * * * * * * * * * * * * * * * * * * * * * //

dimensions      [0 1 0 0 0 0 0];

internalField   nonuniform List<scalar> 
86107
(
0.4992631
0.6997276
0.89974
1.099893
1.299962
1.499988
1.699997
1.899999
0.4996156
0.6995943
0.8995124
1.099787
1.299922
1.499972
1.699991
1.899997
0.4995578
0.6995133
0.8993848
1.099719
1.299893
1.499961
1.699987
1.899996
0.4994596
0.6994157
0.899317
1.09968
1.299875
1.499955
1.699986
1.899997
0.4994166
0.699367
0.8992834
1.099662
1.299869
1.499957
1.699993
1.900004
0.4994013
0.6993482
0.8992705
1.099658
1.299866
1.499938
1.699957
1.899969
0.4993966
0.6993426
0.8992693
1.099666
1.299863
1.499707
1.69941
1.899431
0.4993958
0.6993433
0.899276
1.099686
1.299887
1.499458
1.69748
1.897463
0.4993965
0.699347
0.8992875
1.099717
1.299957
1.499504
1.698546
1.844801
0.4993976
0.699351
0.8993
1.099753
1.300053
1.499637
1.698668
1.844527
2.011493
0.499398
0.6993529
0.8993065
1.099775
1.300105
1.49969
1.699406
1.845823
0.4993975
0.6993514
0.8993025
1.099764
1.300076
1.499605
1.699182
1.846479
0.4993961
0.6993467
0.8992898
1.099729
1.299986
1.499438
1.697848
1.844372
0.4993943
0.6993412
0.8992751
1.099691
1.299901
1.49938
1.698338
1.84351
0.4993928
0.6993363
0.8992635
1.099664
1.29985
1.499404
1.697495
1.89761
0.4993917
0.699333
0.8992554
1.099647
1.299838
1.499678
1.699389
1.899423
0.499391
0.699331
0.8992508
1.099638
1.299845
1.499916
1.699935
1.899948
0.4993908
0.6993301
0.8992486
1.099633
1.299845
1.499937
1.699977
1.899989
0.499391
0.6993303
0.8992483
1.099632
1.299842
1.499933
1.699971
1.899984
0.4993918
0.6993316
0.8992497
1.099633
1.299843
1.499933
1.69997
1.899984
0.4993934
0.6993346
0.8992532
1.099636
1.299846
1.499934
1.699971
1.899985
0.499397
0.6993405
0.8992601
1.099643
1.299851
1.499939
1.699975
1.899987
0.4994037
0.699351
0.8992726
1.099655
1.299862
1.499947
1.69998
1.899992
0.4507607
0.6504192
0.8500161
1.049987
1.249992
1.449994
1.649995
1.849995
0.2590691
0.500055
0.6995346
0.8996844
1.099828
1.299915
1.49996
1.699982
1.899992
0.2584718
0.499542
0.6989339
0.8993206
1.099636
1.299817
1.499912
1.699959
1.899982
0.2581543
0.4989275
0.6983909
0.8989936
1.099456
1.299723
1.499864
1.699936
1.899972
0.2580876
0.4986352
0.6980806
0.8987786
1.099326
1.299652
1.499828
1.69992
1.899965
0.2580772
0.4985184
0.6979299
0.8986597
1.09925
1.29961
1.49981
1.699913
1.899964
0.2580744
0.4984729
0.6978637
0.8986044
1.099216
1.299599
1.499812
1.699915
1.899968
0.2580736
0.4984564
0.6978398
0.8985889
1.09922
1.299622
1.499837
1.699902
1.899949
0.2580734
0.4984524
0.6978376
0.8986003
1.099258
1.299694
1.499904
1.69975
1.899715
0.2580734
0.4984538
0.6978466
0.8986298
1.099333
1.299852
1.500172
1.699802
1.849086
0.2580734
0.4984567
0.6978577
0.8986643
1.099428
1.300112
1.500913
1.702075
1.851286
2.010535
0.2580734
0.4984577
0.6978624
0.8986805
1.099479
1.300275
1.50145
1.704113
1.856422
0.2580734
0.4984553
0.6978552
0.898663
1.099436
1.300161
1.501118
1.702981
1.856178
0.2580733
0.4984501
0.6978387
0.8986203
1.099327
1.299863
1.500232
1.699751
1.849286
0.2580732
0.4984441
0.6978204
0.8985764
1.099228
1.299645
1.499765
1.699198
1.898836
0.258073
0.4984391
0.6978059
0.8985452
1.099169
1.299555
1.499714
1.699657
1.899803
0.2580729
0.4984356
0.6977965
0.8985266
1.099139
1.29952
1.499719
1.699799
1.899868
0.2580729
0.4984336
0.6977915
0.8985172
1.099125
1.299506
1.499721
1.699833
1.89989
0.2580729
0.498433
0.6977898
0.8985139
1.09912
1.299502
1.499721
1.69984
1.899898
0.2580729
0.4984338
0.6977912
0.8985155
1.099121
1.299503
1.499724
1.699844
1.899904
0.258073
0.4984365
0.6977966
0.8985225
1.099128
1.299511
1.499731
1.699851
1.899912
0.2580731
0.4984426
0.6978085
0.8985375
1.099144
1.299525
1.499743
1.699862
1.899921
0.2580735
0.4984546
0.6978303
0.8985646
1.099173
1.299552
1.499765
1.699879
1.899935
0.2580758
0.4984754
0.697866
0.8986096
1.099221
1.299597
1.499803
1.699907
1.899956
0.451788
0.7013532
0.900372
1.099963
1.299961
1.499982
1.699992
1.899996
0.2586929
0.5001299
0.6996761
0.899645
1.099755
1.299857
1.499922
1.69996
1.899981
0.3080818
0.498523
0.6986633
0.8990766
1.099443
1.299683
1.499827
1.69991
1.899958
0.3066067
0.4968382
0.6975842
0.898433
1.099087
1.299487
1.49972
1.699854
1.89993
0.306072
0.4961065
0.6969248
0.8979612
1.098801
1.299322
1.49963
1.699805
1.899906
0.3059461
0.4958336
0.6966029
0.8976955
1.098622
1.299216
1.499571
1.699771
1.899886
0.3059134
0.4957315
0.6964592
0.8975669
1.098536
1.299172
1.499549
1.699746
1.899865
0.3059025
0.4956939
0.6964041
0.897524
1.098526
1.299195
1.499573
1.699693
1.899778
0.3058993
0.4956831
0.6963943
0.8975374
1.098586
1.299309
1.499675
1.699433
1.899494
0.305899
0.4956839
0.6964078
0.8975886
1.098717
1.299579
1.50008
1.699633
1.848938
0.3058995
0.4956881
0.6964267
0.8976504
1.098886
1.300019
1.501169
1.702509
1.851661
2.010536
0.3058996
0.4956893
0.6964338
0.8976771
1.098971
1.300282
1.501951
1.705015
1.857648
0.3058987
0.4956843
0.6964185
0.897639
1.098879
1.300053
1.501363
1.703446
1.857164
0.3058968
0.4956745
0.6963865
0.8975546
1.09867
1.299517
1.499983
1.699351
1.848983
0.3058949
0.4956636
0.6963525
0.8974714
1.098487
1.299139
1.499298
1.698504
1.898084
0.3058932
0.4956549
0.6963267
0.897415
1.098387
1.299002
1.499261
1.699169
1.899324
0.3058921
0.4956493
0.6963108
0.8973842
1.098341
1.298964
1.499304
1.69945
1.899577
0.3058914
0.4956463
0.696303
0.8973704
1.098325
1.298958
1.49934
1.699553
1.899681
0.3058913
0.4956457
0.6963013
0.8973676
1.098324
1.298964
1.499362
1.699598
1.899732
0.3058917
0.4956475
0.6963052
0.8973734
1.098332
1.298976
1.499381
1.699625
1.899763
0.305893
0.4956531
0.6963167
0.8973897
1.098351
1.298997
1.499403
1.699648
1.899788
0.3058958
0.4956647
0.6963407
0.8974226
1.098387
1.299032
1.499435
1.699676
1.899813
0.3059011
0.4956863
0.6963839
0.8974807
1.09845
1.299092
1.499487
1.699717
1.899846
0.3059097
0.495721
0.6964522
0.897574
1.098554
1.299192
1.499573
1.699784
1.899897
0.4522724
0.7023612
0.9007038
1.099964
1.299943
1.499972
1.699987
1.899994
0.2584014
0.4996985
0.6995152
0.8995482
1.099683
1.299808
1.499892
1.699943
1.899973
0.3066739
0.496937
0.697964
0.8987348
1.099245
1.29956
1.499751
1.699865
1.899935
0.3041596
0.4942518
0.6963294
0.8977757
1.098704
1.29926
1.499583
1.699773
1.899889
0.3033633
0.493086
0.6953167
0.8970391
1.098237
1.298992
1.499431
1.699688
1.899844
0.3031644
0.4926564
0.6948203
0.8966122
1.097933
1.29881
1.499326
1.699624
1.899803
0.3031124
0.492498
0.6945978
0.8964045
1.097787
1.29873
1.499284
1.699573
1.899752
0.3030954
0.4924396
0.69451
0.8963302
1.097761
1.298758
1.499293
1.699487
1.899654
0.3030901
0.492422
0.6944905
0.896342
1.097844
1.298916
1.499407
1.699326
1.899416
0.3030892
0.4924215
0.6945052
0.8964094
1.09803
1.299271
1.499949
1.699737
1.848963
0.3030897
0.4924261
0.6945287
0.8964918
1.098263
1.299833
1.501258
1.702786
1.851757
2.010537
0.3030896
0.4924271
0.6945365
0.8965251
1.098375
1.300155
1.502148
1.705367
1.857826
0.3030885
0.4924204
0.6945148
0.8964682
1.098235
1.299824
1.501383
1.703555
1.857219
0.3030862
0.4924074
0.6944712
0.8963484
1.097932
1.299102
1.499666
1.698976
1.848164
0.3030838
0.4923933
0.6944257
0.8962322
1.097669
1.298602
1.49877
1.697943
1.896984
0.3030818
0.4923821
0.6943921
0.8961555
1.097526
1.298423
1.498743
1.698622
1.898626
0.3030805
0.4923749
0.6943719
0.8961157
1.097467
1.298379
1.498858
1.699035
1.899188
0.3030797
0.4923712
0.6943624
0.8960994
1.09745
1.298382
1.498934
1.699245
1.899438
0.3030795
0.4923702
0.6943608
0.896098
1.097453
1.2984
1.498985
1.699337
1.899548
0.30308
0.4923727
0.6943667
0.8961082
1.097469
1.298425
1.499023
1.69939
1.89961
0.3030816
0.4923803
0.6943834
0.8961334
1.0975
1.298461
1.499062
1.699432
1.899655
0.3030852
0.4923963
0.6944177
0.8961828
1.097556
1.298517
1.499115
1.69948
1.899699
0.3030916
0.4924251
0.6944786
0.8962694
1.097654
1.298612
1.499198
1.699547
1.899754
0.3031015
0.4924693
0.6945731
0.8964069
1.097814
1.298769
1.499334
1.699654
1.899835
0.452307
0.7025427
0.9008457
1.099962
1.299932
1.499966
1.699984
1.899993
0.2583408
0.4995027
0.699387
0.8994732
1.099636
1.299779
1.499874
1.699933
1.899967
0.3061801
0.4963369
0.6975545
0.8985064
1.099122
1.299489
1.499709
1.69984
1.899922
0.3034177
0.4932596
0.695613
0.8973492
1.098465
1.299125
1.499503
1.699726
1.899865
0.3024707
0.4918951
0.6943958
0.896449
1.097892
1.298787
1.49931
1.699615
1.899804
0.3022358
0.4913862
0.6937965
0.895919
1.097512
1.29855
1.499169
1.699524
1.899744
0.3021745
0.4911976
0.6935263
0.8956593
1.097323
1.298438
1.499094
1.699453
1.899684
0.3021543
0.4911277
0.6934186
0.8955633
1.097286
1.298454
1.499116
1.699395
1.899599
0.3021482
0.491106
0.6933926
0.8955712
1.097379
1.298635
1.499308
1.699301
1.89939
0.3021469
0.4911046
0.6934072
0.8956444
1.09759
1.299059
1.49994
1.699775
1.848987
0.3021472
0.4911091
0.6934323
0.8957349
1.097855
1.299695
1.50132
1.702866
1.851786
2.010538
0.3021471
0.4911101
0.6934404
0.8957704
1.097977
1.300042
1.502226
1.705445
1.857857
0.3021461
0.4911032
0.6934163
0.895704
1.097808
1.299651
1.501371
1.70352
1.85717
0.302144
0.4910898
0.6933684
0.8955676
1.097452
1.298814
1.499505
1.698722
1.847703
0.3021417
0.4910751
0.6933186
0.8954369
1.097149
1.298216
1.498492
1.697585
1.896335
0.3021398
0.4910636
0.6932818
0.8953517
1.096988
1.298006
1.498406
1.698277
1.898161
0.3021385
0.4910559
0.6932596
0.8953079
1.096923
1.297979
1.49853
1.698743
1.898906
0.3021375
0.491051
0.6932482
0.8952903
1.096908
1.298002
1.498656
1.699014
1.899249
0.3021368
0.4910488
0.6932448
0.8952888
1.096915
1.298032
1.498736
1.699158
1.899419
0.3021367
0.4910501
0.69325
0.8953004
1.096936
1.298067
1.49879
1.699235
1.899509
0.3021382
0.4910577
0.6932682
0.8953295
1.096974
1.298112
1.498841
1.699292
1.899569
0.3021419
0.4910754
0.6933075
0.8953877
1.097042
1.298183
1.498908
1.699353
1.899625
0.302149
0.4911076
0.6933778
0.8954904
1.097161
1.2983
1.499013
1.699438
1.899695
0.3021593
0.491156
0.6934864
0.8956525
1.097353
1.298494
1.499183
1.699572
1.899797
0.4522991
0.7025505
0.900875
1.100014
1.299985
1.499996
1.699991
1.899991
0.258336
0.4995071
0.6993933
0.8994794
1.099642
1.299783
1.499876
1.699933
1.899966
0.3061835
0.4963464
0.6975677
0.8985188
1.099132
1.299497
1.499713
1.699842
1.899922
0.3034218
0.4932712
0.6956293
0.8973643
1.098477
1.299133
1.499508
1.699728
1.899866
0.3024743
0.4919057
0.6944113
0.8964639
1.097903
1.298795
1.499315
1.699618
1.899806
0.3022389
0.4913956
0.6938103
0.8959323
1.097523
1.298557
1.499174
1.699526
1.899745
0.3021771
0.4912058
0.6935383
0.8956707
1.097332
1.298444
1.499098
1.699455
1.899685
0.302157
0.4911351
0.6934291
0.8955732
1.097294
1.298459
1.499119
1.699397
1.8996
0.3021513
0.4911139
0.6934031
0.8955804
1.097386
1.29864
1.499312
1.699303
1.899391
0.30215
0.4911125
0.6934173
0.8956533
1.097597
1.299064
1.499943
1.699777
1.849008
0.3021495
0.4911158
0.6934417
0.8957438
1.097862
1.299699
1.501321
1.702865
1.851799
2.010538
0.3021494
0.4911171
0.6934508
0.8957802
1.097984
1.300043
1.50222
1.705436
1.857865
0.3021494
0.4911132
0.6934304
0.8957163
1.097814
1.299645
1.501348
1.703488
1.857163
0.3021488
0.4911038
0.6933876
0.8955835
1.097457
1.2988
1.499461
1.69865
1.847646
0.3021478
0.4910925
0.6933427
0.8954567
1.097155
1.298201
1.498442
1.69749
1.896211
0.3021471
0.4910838
0.6933093
0.8953746
1.096998
1.297997
1.498368
1.6982
1.898046
0.3021465
0.4910774
0.6932879
0.8953314
1.096936
1.297977
1.49851
1.698703
1.898849
0.3021446
0.4910703
0.6932733
0.8953115
1.09692
1.298005
1.498649
1.698997
1.899226
0.3021419
0.4910634
0.6932643
0.8953055
1.096926
1.298037
1.498734
1.699152
1.899411
0.3021401
0.4910596
0.6932632
0.8953124
1.096944
1.298071
1.498791
1.699234
1.899506
0.30214
0.4910632
0.6932766
0.8953376
1.09698
1.298116
1.498843
1.699292
1.899568
0.3021431
0.491079
0.6933134
0.8953937
1.097048
1.298186
1.498911
1.699354
1.899625
0.3021498
0.4911103
0.6933823
0.8954952
1.097165
1.298304
1.499016
1.69944
1.899696
0.302156
0.4911556
0.693488
0.8956555
1.097358
1.2985
1.499188
1.699577
1.8998
0.45231
0.7023881
0.9009593
1.100547
1.300533
1.500236
1.700011
1.89999
0.2583576
0.4997181
0.699541
0.8995738
1.099714
1.299836
1.499901
1.699944
1.89997
0.3066906
0.4969782
0.6980149
0.8987782
1.099282
1.299589
1.499765
1.69987
1.899936
0.3041786
0.4942995
0.6963892
0.897826
1.09874
1.299285
1.499597
1.699779
1.899892
0.3033787
0.4931273
0.6953713
0.8970866
1.09827
1.299013
1.499443
1.699694
1.899847
0.3031779
0.492692
0.6948683
0.8966543
1.097963
1.298828
1.499337
1.69963
1.899807
0.3031237
0.4925285
0.6946384
0.8964401
1.097812
1.298746
1.499294
1.699579
1.899755
0.3031062
0.4924674
0.694545
0.8963607
1.097783
1.298773
1.499303
1.699493
1.899657
0.3031047
0.4924542
0.6945257
0.8963706
1.097865
1.298931
1.499417
1.699332
1.899418
0.3031041
0.4924534
0.694539
0.896437
1.098051
1.299286
1.49996
1.699742
1.849029
0.3030995
0.4924505
0.6945587
0.896519
1.098285
1.299848
1.501266
1.702786
1.851803
2.010538
0.3030982
0.4924516
0.69457
0.8965561
1.098396
1.300163
1.502137
1.705341
1.857864
0.3031024
0.4924575
0.694563
0.8965086
1.098256
1.299813
1.501315
1.70342
1.857161
0.3031077
0.4924618
0.6945394
0.8964018
1.097952
1.299069
1.49953
1.698644
1.847648
0.3031102
0.4924612
0.6945123
0.896299
1.097694
1.298566
1.498621
1.697581
1.896273
0.3031139
0.4924625
0.6944918
0.8962323
1.09756
1.298404
1.498642
1.69838
1.898175
0.3031176
0.4924633
0.6944742
0.8961932
1.097507
1.298378
1.49881
1.698923
1.899015
0.3031133
0.4924501
0.6944515
0.8961677
1.097488
1.298391
1.498917
1.699201
1.899376
0.303103
0.4924277
0.6944281
0.8961512
1.097485
1.298413
1.498982
1.699322
1.899527
0.3030937
0.4924082
0.6944111
0.8961456
1.097493
1.298437
1.499025
1.699386
1.899604
0.303088
0.4923996
0.6944103
0.8961583
1.097517
1.298471
1.499066
1.699432
1.899653
0.3030892
0.4924091
0.6944364
0.8962014
1.097571
1.298527
1.49912
1.699481
1.899699
0.3030958
0.4924369
0.6944953
0.8962868
1.097669
1.298623
1.499205
1.699552
1.899755
0.3030947
0.4924738
0.6945845
0.8964221
1.09783
1.298785
1.499348
1.699664
1.89984
0.4520477
0.7013879
0.9007122
1.102305
1.302189
1.500367
1.700023
1.89999
0.2585476
0.5001926
0.6997445
0.8997061
1.099852
1.299964
1.499945
1.699965
1.899979
0.3081583
0.4986577
0.698793
0.8991623
1.099512
1.29974
1.499851
1.699917
1.89996
0.3066761
0.4969783
0.697725
0.8985265
1.099145
1.299523
1.499739
1.699862
1.899935
0.3061151
0.4962129
0.697043
0.8980449
1.098851
1.299351
1.499645
1.699813
1.89991
0.3059942
0.4959258
0.6967064
0.8977688
1.098665
1.29924
1.499583
1.699778
1.899889
0.3059469
0.4958074
0.696544
0.8976274
1.098572
1.299193
1.499561
1.699753
1.89987
0.305933
0.4957595
0.696472
0.8975725
1.098556
1.299214
1.499585
1.699701
1.899783
0.3059588
0.495778
0.6964664
0.8975824
1.098614
1.299329
1.49969
1.699444
1.8995
0.3059639
0.495782
0.6964771
0.8976317
1.098746
1.299603
1.500103
1.699649
1.849055
0.3059293
0.4957448
0.6964812
0.8976917
1.098918
1.300051
1.501202
1.702531
1.851784
2.010538
0.3059191
0.4957394
0.6964942
0.8977268
1.099009
1.300314
1.501976
1.705012
1.857817
0.3059429
0.4957773
0.6965167
0.8977101
1.098921
1.300063
1.501309
1.703223
1.85713
0.3059741
0.4958248
0.696536
0.8976542
1.098714
1.299498
1.499828
1.698702
1.847675
0.3059748
0.4958441
0.6965469
0.8975986
1.09854
1.299113
1.499127
1.697936
1.896561
0.3060026
0.4958706
0.6965552
0.8975606
1.09845
1.298993
1.499154
1.698864
1.89858
0.3060315
0.4959157
0.696543
0.8975269
1.098407
1.298972
1.499256
1.699322
1.899353
0.3060192
0.4958799
0.6964983
0.8974906
1.098384
1.298975
1.499324
1.699506
1.89961
0.3059781
0.495804
0.6964434
0.8974584
1.098371
1.298982
1.499361
1.699583
1.899709
0.3059357
0.4957363
0.696394
0.8974344
1.098366
1.298992
1.499385
1.699621
1.899756
0.305908
0.4956925
0.696365
0.8974277
1.098374
1.299009
1.499408
1.699648
1.899785
0.3059053
0.495691
0.6963743
0.8974511
1.098406
1.299043
1.49944
1.699677
1.899812
0.3059186
0.4957226
0.6964225
0.8975124
1.098472
1.299106
1.499495
1.69972
1.899846
0.3059222
0.4957595
0.6964985
0.897613
1.098582
1.299214
1.49959
1.699794
1.8999
0.4515494
0.6521269
0.8493844
1.050017
1.300345
1.500055
1.700051
1.900004
0.2588731
0.5002777
0.6996784
0.8997604
1.099918
1.300065
1.499979
1.699978
1.899993
0.2579097
0.5000535
0.6992125
0.8994348
1.099703
1.299873
1.499935
1.699961
1.899986
0.2565484
0.4993594
0.6986694
0.8991224
1.099515
1.299756
1.49988
1.699942
1.899976
0.2563097
0.4988867
0.6982887
0.8988882
1.099377
1.299676
1.49984
1.699925
1.899968
0.2562838
0.4988045
0.6981209
0.8987565
1.099294
1.29963
1.499819
1.699918
1.899966
0.256269
0.4986819
0.6980145
0.8986815
1.099252
1.299616
1.49982
1.699921
1.899971
0.2562611
0.4985798
0.6979394
0.8986432
1.099247
1.299638
1.499847
1.69991
1.899955
0.2563148
0.4987209
0.6979498
0.8986481
1.099283
1.299712
1.499921
1.699766
1.899726
0.2564092
0.4987662
0.6979546
0.8986746
1.099359
1.29988
1.500208
1.699839
1.849125
0.2562873
0.4985586
0.6979264
0.8987053
1.099461
1.300158
1.50099
1.702167
1.851659
2.010539
0.2562543
0.4985339
0.6979409
0.8987346
1.099525
1.30034
1.501572
1.704302
1.857471
0.2562737
0.4986739
0.6980143
0.8987524
1.099492
1.300218
1.501193
1.702997
1.856898
0.2563539
0.4989014
0.6981065
0.8987556
1.099389
1.299889
1.500199
1.699319
1.84782
0.2562951
0.4989445
0.6981869
0.8987564
1.099299
1.299653
1.499696
1.698865
1.897486
0.2563016
0.4990816
0.6982486
0.8987529
1.099248
1.299566
1.499672
1.699512
1.899278
0.2563954
0.4992258
0.698222
0.8987199
1.099214
1.299537
1.499699
1.699731
1.899723
0.2564967
0.4990306
0.6981207
0.8986688
1.099187
1.299524
1.499714
1.699806
1.899847
0.2563814
0.4988761
0.6980261
0.8986258
1.099167
1.299518
1.499721
1.699831
1.899885
0.2563101
0.4986421
0.6979322
0.8985873
1.099153
1.299516
1.499726
1.699842
1.8999
0.2562558
0.4984985
0.6978601
0.8985623
1.099149
1.29952
1.499733
1.69985
1.89991
0.2562491
0.498482
0.6978496
0.8985666
1.099161
1.299533
1.499745
1.69986
1.899919
0.2562647
0.4985529
0.6978924
0.8986041
1.099196
1.299563
1.499768
1.699876
1.899931
0.2581415
0.4986227
0.6979744
0.8986743
1.099259
1.299618
1.499812
1.699907
1.89995
0.4261601
0.6244866
0.824628
1.050671
1.251436
1.44909
1.64897
1.849011
0.2340901
0.4997504
0.6998998
0.8996264
1.099855
1.300038
1.50005
1.699934
1.900007
0.2340534
0.5011337
0.6999949
0.8996046
1.099809
1.299954
1.499994
1.699981
1.900003
0.2342712
0.5006193
0.6998935
0.8995109
1.099758
1.299912
1.49997
1.699987
1.899999
0.2335845
0.4999061
0.6996663
0.8994183
1.099716
1.299889
1.49996
1.699988
1.899998
0.2336656
0.5002604
0.6996175
0.8993763
1.099694
1.29988
1.499961
1.699994
1.900005
0.2338637
0.4999169
0.6995417
0.8993422
1.099683
1.299874
1.499941
1.699959
1.899971
0.2335546
0.499534
0.6994285
0.899309
1.099681
1.29987
1.499712
1.699415
1.899435
0.2336144
0.499726
0.6994083
0.8993036
1.099698
1.299896
1.49947
1.697494
1.897476
0.2350253
0.4998104
0.6994026
0.8993109
1.099731
1.299978
1.499542
1.698598
1.849633
0.2336141
0.4994755
0.699386
0.8993222
1.099775
1.300098
1.499741
1.698859
1.851308
2.010548
0.2335446
0.4994746
0.6994178
0.8993442
1.099811
1.300191
1.499923
1.699973
1.855181
0.2335567
0.4997889
0.6995283
0.8993789
1.099813
1.300178
1.5
1.69992
1.855767
0.2340478
0.500453
0.6996719
0.8994165
1.099783
1.300048
1.499716
1.698912
1.84934
0.2337785
0.500544
0.6998199
0.8994538
1.099751
1.299926
1.499479
1.697195
1.896574
0.2580659
0.5013043
0.6999323
0.8994745
1.099729
1.299881
1.499677
1.698949
1.897137
0.2344849
0.5007417
0.6998297
0.8994369
1.099704
1.299872
1.499904
1.699664
1.89934
0.2331272
0.5001349
0.6996623
0.8993791
1.09968
1.299863
1.499937
1.699948
1.899937
0.2340771
0.5003621
0.6995909
0.8993437
1.099664
1.299853
1.499937
1.699973
1.899986
0.233751
0.4997644
0.6994852
0.8993073
1.099652
1.299848
1.499934
1.69997
1.899984
0.2335483
0.4994596
0.6993878
0.8992775
1.099644
1.299847
1.499933
1.699969
1.899983
0.2335436
0.4994252
0.6993648
0.8992717
1.099645
1.299849
1.499934
1.699969
1.899982
0.2335664
0.4995259
0.6993944
0.8992916
1.099659
1.299857
1.499936
1.699967
1.89998
0.2338324
0.4996349
0.6994503
0.8992888
1.099646
1.299877
1.499987
1.700019
1.900009
0.3481452
0.3775803
0.2333099
0.3475128
0.4503377
0.5510041
0.4260264
0.5755735
0.448833
0.5494723
0.6489444
0.7508799
0.6245028
0.775548
0.6497582
0.7498449
0.8489654
0.950946
0.8244693
0.9755348
0.8499445
0.9499316
1.049005
1.15097
1.024463
1.175535
1.049999
1.149958
1.249018
1.350976
1.224464
1.375536
1.250017
1.349967
1.449022
1.550978
1.424464
1.575536
1.450024
1.549971
1.649023
1.750978
1.624464
1.775536
1.650026
1.749973
1.849023
1.950978
1.824464
1.975536
1.850027
1.949972
2.024464
0.3465814
0.348946
0.2340751
0.3483325
0.2335938
0.3481737
0.3492122
0.3493173
0.2335825
0.348035
0.2335557
0.3479181
0.3493022
0.3492918
0.2335521
0.3478632
0.2335449
0.3478192
0.3492854
0.3492794
0.2335445
0.3478024
0.2335434
0.3477883
0.3492778
0.3492761
0.2335433
0.3477838
0.233543
0.3477793
0.3492757
0.3492753
0.233543
0.3477781
0.233543
0.3477765
0.3492751
0.3492751
0.2335429
0.3477762
0.2335429
0.3477757
0.3492751
0.3492751
0.2335429
0.3477757
0.2335429
0.3477756
0.3492751
0.3492751
0.2335429
0.3477757
0.2335429
0.3477758
0.3492751
0.3492751
0.2335429
0.3477759
0.2335429
0.3477759
1.987312
1.845502
1.989355
1.851181
1.984717
1.853471
1.978521
2.010546
0.3492751
0.3492751
0.2335429
0.347776
0.2335429
0.3477759
1.989358
1.846116
1.989533
1.854642
1.951892
1.855183
1.952393
0.3492751
0.349275
0.2335429
0.3477759
0.2335429
0.3477758
1.98973
1.846042
1.989474
1.854816
1.952025
1.853349
1.976871
0.3492751
0.3492751
0.2335429
0.3477756
0.2335429
0.3477755
1.988969
1.844051
1.97481
1.850323
1.974476
1.849213
1.948289
2.024229
2.023546
0.349275
0.3492751
0.2335429
0.3477753
0.2335429
0.3477752
0.349275
0.3492751
0.2335429
0.3477749
0.2335429
0.3477749
0.3492751
0.3492751
0.2335429
0.3477748
0.2335429
0.3477747
0.3492751
0.3492752
0.2335429
0.3477747
0.2335429
0.3477746
0.3492752
0.3492752
0.2335429
0.3477746
0.2335429
0.3477747
0.3492753
0.3492753
0.2335429
0.3477747
0.2335429
0.3477747
0.3492753
0.3492753
0.2335429
0.3477748
0.2335429
0.347775
0.3492753
0.3492754
0.2335429
0.3477752
0.2335429
0.3477756
0.3492755
0.3492757
0.2335429
0.347776
0.233543
0.3477771
0.3492761
0.349277
0.233543
0.3477783
0.2335433
0.3477811
0.3771666
0.2341531
0.3493157
0.3789767
0.2337336
0.3496359
1.984711
1.854362
1.97871
1.851636
1.984705
1.854997
1.978865
2.010539
2.022856
0.3789794
0.2337281
0.3496698
0.3790136
0.2337079
0.3496345
1.984704
1.855122
1.978868
1.851781
1.984705
1.855271
1.978877
2.010538
2.021895
2.021615
0.3790232
0.2337036
0.3496075
0.3790379
0.2337002
0.3495931
1.984705
1.855261
1.978877
1.851803
1.984705
1.855308
1.978879
2.010538
0.379043
0.2336962
0.3495709
0.3790315
0.2336988
0.3495677
1.984705
1.855295
1.978878
1.851799
1.984705
1.855306
1.978878
2.010538
0.3790278
0.233698
0.3495666
0.3790375
0.2336991
0.3495724
1.984705
1.855306
1.978878
1.851786
1.984705
1.855293
1.978878
2.010538
0.3790455
0.2336987
0.3495942
0.3790479
0.2337011
0.3496106
1.984705
1.855306
1.978878
1.851758
1.984705
1.855259
1.978876
2.010537
0.3790335
0.2337064
0.3496436
0.3789645
0.2337336
0.3496826
1.984705
1.855271
1.978877
1.85167
1.984705
1.855132
1.978869
2.010537
0.3789565
0.2337411
0.3496624
0.3772032
0.2341597
0.3493463
1.984705
1.855034
1.978866
1.851342
1.984714
1.854463
1.978723
2.010536
0.3778194
0.233318
0.3475093
0.3481191
0.5754474
0.4488816
0.5495732
0.4503922
0.5511147
0.775574
0.6498085
0.7498724
0.648994
0.7508987
0.9768
0.8499116
0.9498891
0.9752137
0.8488808
0.9507062
1.152768
1.050089
1.149959
1.025892
1.174974
1.048942
1.150996
1.351421
1.249971
1.349999
1.224353
1.249056
1.351005
1.550743
1.449973
1.550023
1.424733
1.448967
1.551143
1.950866
1.849993
1.950028
1.825518
1.848985
1.95112
0.3485633
0.2337866
0.3490889
0.3468155
0.3500678
0.3504444
0.2583815
0.3507181
0.3529855
0.2329102
0.3547514
0.3502505
0.2336169
0.3487836
0.2307767
0.3530409
0.3504449
0.3481578
0.2335789
0.3482284
0.3496351
0.3497596
0.3490124
0.2577188
0.3493357
0.3511002
0.2303174
0.3526724
0.348962
0.2335694
0.3481475
0.3510531
0.3496883
0.3478972
0.2335687
0.3478972
0.349377
0.3493288
0.3482367
0.2346717
0.3496845
0.3494879
0.3506572
0.350554
0.2337236
0.3487597
0.230188
0.3515501
0.3498481
0.3479757
0.2335462
0.347826
0.3493483
0.3492908
1.984721
1.853702
1.97854
1.844702
1.987559
1.845837
1.989442
2.011554
0.3478062
0.2335485
0.3478405
0.3492913
0.3493269
1.952175
1.856167
1.952972
1.846662
1.989463
1.847952
1.978118
0.3479917
0.2337512
0.3485812
0.3494758
0.3502045
1.952631
1.853564
1.976292
1.848513
1.978376
1.84759
1.977235
0.3498734
0.2340589
0.3499657
0.3522788
0.3523768
0.3490313
0.2338431
0.349444
0.3507334
0.3517411
0.3501184
0.2583721
0.3506073
0.2307962
0.3545214
0.2330099
0.3552196
0.3508389
0.2318686
0.3503592
0.2308263
0.3532013
0.3508019
0.3494015
0.2338435
0.3489598
0.3499505
0.350313
0.3499212
0.2340477
0.3498531
0.3522725
0.3522493
0.3485722
0.2335565
0.3479871
0.3501953
0.3494731
0.3478359
0.2335437
0.3477964
0.3493257
0.3492898
0.34779
0.2335517
0.3478125
0.3492825
0.3492914
0.3479524
0.2338318
0.3484575
0.3493768
0.3498476
0.3484838
0.2335776
0.3480735
0.3498717
0.3495009
0.2663208
0.2682704
0.4747276
0.4242517
0.4244071
0.4755397
0.6749672
0.6243309
0.6249365
0.6754295
0.8749929
0.8243574
0.8249856
0.8754492
1.074998
1.024367
1.024995
1.075454
1.274999
1.224369
1.224997
1.275455
1.475
1.42437
1.424998
1.475455
1.675
1.62437
1.624998
1.675455
1.875
1.82437
1.824998
1.875455
2.02437
2.024998
0.2654375
0.266655
0.2655394
0.2667037
0.2653622
0.2670685
0.26539
0.2671068
0.2653491
0.2670833
0.2653647
0.2671093
0.265346
0.2670797
0.2653589
0.2671081
0.2653452
0.267079
0.2653575
0.2671078
0.265345
0.2670788
0.2653572
0.2671077
0.265345
0.2670788
0.2653571
0.2671077
0.265345
0.2670788
0.265357
0.2671077
0.265345
0.2670788
0.265357
0.2671077
1.94885
1.844309
1.973047
1.849598
1.94931
1.849397
1.971808
2.024396
2.023072
0.265345
0.2670788
0.265357
0.2671077
2.010702
0.265345
0.2670788
0.265357
0.2671077
0.265345
0.2670788
0.265357
0.2671077
0.265345
0.2670788
0.265357
0.2671077
2.01155
2.009894
0.265345
0.2670788
0.265357
0.2671077
0.2653449
0.2670788
0.265357
0.2671077
0.265345
0.2670788
0.265357
0.2671077
0.265345
0.2670789
0.265357
0.2671077
0.265345
0.2670789
0.265357
0.2671077
0.265345
0.2670789
0.265357
0.2671077
0.265345
0.2670789
0.265357
0.2671077
0.265345
0.2670789
0.2653571
0.2671077
0.265345
0.2670789
0.2653571
0.2671078
0.2653452
0.2670789
0.2653572
0.2671078
0.2675745
0.2675056
1.948961
1.84896
1.971701
1.84911
1.948716
1.849096
1.971643
2.022981
2.022923
2.010539
1.95293
1.853471
1.976772
1.856974
1.953272
1.853676
1.976403
1.974189
1.848004
1.946601
1.848798
1.973045
1.847448
1.945171
2.008732
2.02183
0.2675751
0.2675733
1.948709
1.849045
1.971636
1.84905
1.948652
1.849144
1.971638
2.022917
2.022916
2.010538
1.953367
1.853783
1.976535
1.857301
1.953396
1.853836
1.976522
1.973247
1.847275
1.94588
1.848928
1.973217
1.847122
1.945663
2.021702
2.008279
0.2675792
0.2675918
1.94867
1.849109
1.971637
1.849027
1.948649
1.849155
1.971639
2.022915
2.022916
2.010538
1.953364
1.853531
1.976357
1.85721
1.95335
1.853417
1.976257
1.972952
1.846293
1.943915
1.847851
1.972743
1.845871
1.943184
2.020717
2.020329
0.2675776
0.2675956
1.948658
1.849136
1.971638
1.849007
1.948652
1.849149
1.971638
2.022915
2.022916
2.010538
1.953341
1.853337
1.976252
1.857169
1.953339
1.853323
1.976249
1.972734
1.845614
1.942983
1.847665
1.972727
1.845541
1.942907
2.020135
2.020122
0.2675574
0.2675664
1.948652
1.849149
1.971638
1.848988
1.948659
1.849136
1.971638
2.022916
2.022915
2.010538
1.953338
1.853313
1.976248
1.857149
1.953335
1.853297
1.976248
1.972726
1.845505
1.942882
1.847627
1.972725
1.845475
1.942878
2.020122
2.020116
0.2675967
0.2676018
1.948649
1.849155
1.971639
1.848966
1.948672
1.849111
1.971637
2.022916
2.022915
2.010537
1.953336
1.853315
1.976248
1.857116
1.953328
1.853275
1.976247
1.972726
1.845519
1.942875
1.847616
1.972725
1.845481
1.942902
2.020123
2.020114
0.2675998
0.2675994
1.948654
1.849148
1.971639
1.848947
1.948713
1.849054
1.971638
2.022917
2.022918
2.010537
1.953324
1.853313
1.976249
1.856995
1.953292
1.853225
1.976245
1.972727
1.845613
1.942917
1.847638
1.972726
1.845615
1.943024
2.020126
2.020114
0.2675785
0.2675615
1.948723
1.849113
1.971645
1.849111
1.948976
1.848995
1.97171
2.022924
2.022982
2.010536
1.953232
1.853274
1.976249
1.856333
1.952978
1.853128
1.976256
1.972734
1.846024
1.943192
1.848032
1.972786
1.846526
1.943789
2.020149
2.020153
0.2669626
0.2673717
1.751316
1.649987
1.749986
1.774823
1.649003
1.750844
1.949337
1.849463
1.971827
1.844835
1.948882
1.844405
1.973209
2.023077
2.024503
2.010616
1.97292
1.848282
1.945321
1.845511
1.976086
1.844367
1.944606
2.020539
2.020965
0.3215692
0.3748887
0.3737178
0.3230394
0.2657826
0.2668462
0.2655798
0.2661701
0.2669724
0.2673415
0.5248371
0.5755853
0.5749161
0.5246133
0.7249764
0.7756148
0.7749876
0.7245259
0.9249951
0.9756273
0.9749988
0.9245404
1.124999
1.17563
1.175002
1.124544
1.325
1.37563
1.375002
1.324545
1.525
1.57563
1.575002
1.524545
1.725
1.77563
1.775002
1.724545
1.925001
1.97563
1.975002
1.924545
0.2654198
0.2670466
0.2653956
0.2668581
0.2653598
0.2670821
0.2653652
0.2671097
0.2653485
0.2670794
0.265359
0.2671092
0.2653459
0.267079
0.2653576
0.267108
0.2653452
0.2670789
0.2653571
0.2671077
0.265345
0.2670789
0.2653571
0.2671077
0.265345
0.2670788
0.265357
0.2671077
0.265345
0.2670788
0.265357
0.2671077
0.265345
0.2670788
0.265357
0.2671077
0.265345
0.2670788
0.265357
0.2671077
1.927122
1.921764
1.989067
1.984911
1.92474
1.975562
1.922951
1.927075
1.984802
1.924059