/*--------------------------------*- C++ -*----------------------------------*\
  =========                 |
  \\      /  F ield         | OpenFOAM: The Open Source CFD Toolbox
   \\    /   O peration     | Website:  https://openfoam.org
    \\  /    A nd           | Version:  7
     \\/     M anipulation  |
\*---------------------------------------------------------------------------*/
FoamFile
{
    version     2.0;
    format      ascii;
    class       volScalarField;
    location    "0.1";
    object      Cx;
}
// * * * * * * * * * * * * * * * * * * * * * * * * * * * * * * * * * * * * * //

dimensions      [0 1 0 0 0 0 0];

internalField   nonuniform List<scalar> 
109929
(
0.4498022
0.649942
0.8499909
1.049999
1.25
1.450001
0.450286
0.6499112
0.8499805
1.049996
1.249999
1.45
0.4502746
0.6499053
0.8499794
1.049997
1.25
1.450002
0.4502723
0.6499046
0.8499798
1.049998
1.250001
1.450002
0.4502722
0.6499048
0.8499802
1.049998
1.250001
1.450003
0.4502722
0.6499049
0.8499803
1.049998
1.250001
1.450003
0.4502722
0.6499049
0.8499804
1.049999
1.250001
1.450003
0.4502722
0.649905
0.8499804
1.049999
1.250001
1.450003
0.4502722
0.649905
0.8499804
1.049999
1.250001
1.450003
0.4502722
0.649905
0.8499805
1.049999
1.250001
1.450003
0.4502722
0.649905
0.8499805
1.049999
1.250001
1.450003
0.4502722
0.649905
0.8499805
1.049999
1.250001
1.450003
0.4502722
0.649905
0.8499805
1.049999
1.250001
1.450003
0.4502722
0.649905
0.8499805
1.049999
1.250001
1.450003
0.4502722
0.649905
0.8499805
1.049999
1.250001
1.450003
0.4502722
0.649905
0.8499805
1.049999
1.250001
1.450003
0.4502722
0.649905
0.8499805
1.049999
1.250001
1.450003
0.4502722
0.649905
0.8499804
1.049999
1.250001
1.450003
0.4502722
0.649905
0.8499804
1.049999
1.250001
1.450003
0.4502722
0.6499049
0.8499804
1.049998
1.250001
1.450003
0.4502724
0.6499051
0.8499803
1.049998
1.250001
1.450003
0.4502736
0.6499057
0.8499805
1.049998
1.250001
1.450002
0.4488561
0.6499079
0.849981
1.049998
1.25
1.450002
0.451212
0.6499994
0.8499983
1.05
1.25
1.450001
0.2578174
0.4997564
0.6999238
0.8999923
1.100004
1.300004
0.2577723
0.5001552
0.6999631
0.9000019
1.100013
1.300011
0.2577762
0.5002023
0.6999811
0.9000127
1.100022
1.300019
0.2577775
0.5002065
0.6999888
0.9000205
1.10003
1.300025
0.2577777
0.5002067
0.6999924
0.9000254
1.100035
1.300029
0.2577778
0.5002068
0.6999942
0.9000283
1.100038
1.300032
0.2577778
0.5002069
0.6999951
0.9000298
1.100039
1.300034
0.2577778
0.5002069
0.6999958
0.9000306
1.10004
1.300034
0.2577778
0.500207
0.699996
0.9000313
1.100041
1.300035
0.2577778
0.5002071
0.6999962
0.9000315
1.100041
1.300035
0.2577778
0.5002071
0.6999963
0.9000317
1.100042
1.300036
0.2577778
0.5002071
0.6999963
0.9000318
1.100042
1.300036
0.2577778
0.5002071
0.6999963
0.9000317
1.100042
1.300036
0.2577778
0.5002071
0.6999963
0.9000318
1.100042
1.300036
0.2577778
0.5002071
0.6999963
0.9000317
1.100042
1.300036
0.2577778
0.5002071
0.6999963
0.9000317
1.100041
1.300035
0.2577778
0.5002071
0.6999962
0.9000315
1.100041
1.300035
0.2577778
0.5002072
0.699996
0.9000309
1.10004
1.300035
0.2577778
0.5002073
0.6999957
0.9000303
1.10004
1.300034
0.2577778
0.5002076
0.6999953
0.9000294
1.100039
1.300033
0.2577778
0.5002082
0.6999947
0.9000276
1.100036
1.300031
0.2577782
0.5002104
0.6999951
0.9000259
1.100034
1.300029
0.2577906
0.5002221
0.6999986
0.9000253
1.100032
1.300028
0.4519429
0.6500239
0.8499979
1.05
1.25
1.449999
0.2578945
0.5001195
0.70009
0.9000533
1.100028
1.300014
0.2577942
0.5008074
0.7003213
0.9001391
1.10007
1.300036
0.2578024
0.5009853
0.7004588
0.9002068
1.100109
1.300059
0.2578066
0.5010318
0.7005152
0.9002453
1.100137
1.300078
0.2578074
0.5010465
0.700539
0.900267
1.100154
1.30009
0.2578077
0.501052
0.7005495
0.9002783
1.100164
1.300098
0.2578078
0.5010542
0.7005545
0.900284
1.10017
1.300103
0.2578078
0.5010553
0.7005568
0.9002871
1.100173
1.300105
0.2578079
0.5010558
0.7005579
0.9002887
1.100174
1.300107
0.2578079
0.501056
0.7005585
0.9002895
1.100175
1.300108
0.2578079
0.5010561
0.7005589
0.9002899
1.100176
1.300108
0.2578079
0.5010562
0.700559
0.90029
1.100176
1.300108
0.2578079
0.5010562
0.700559
0.90029
1.100176
1.300108
0.2578079
0.5010562
0.700559
0.90029
1.100176
1.300108
0.2578079
0.5010562
0.7005589
0.9002899
1.100176
1.300108
0.2578079
0.5010561
0.7005586
0.9002897
1.100176
1.300108
0.2578079
0.5010559
0.7005581
0.900289
1.100175
1.300107
0.2578079
0.5010554
0.7005571
0.9002876
1.100173
1.300106
0.2578078
0.5010545
0.700555
0.9002849
1.100171
1.300104
0.2578077
0.5010523
0.700551
0.9002804
1.100167
1.3001
0.2578075
0.5010479
0.7005443
0.9002734
1.10016
1.300096
0.2578068
0.5010405
0.7005358
0.9002652
1.100153
1.30009
0.257806
0.501034
0.7005293
0.900259
1.100148
1.300087
0.4519597
0.65003
0.8499998
1.050001
1.25
1.45
0.2579045
0.5001672
0.7001572
0.900095
1.10005
1.300024
0.2578075
0.5008979
0.7004797
0.9002474
1.100125
1.300063
0.2578173
0.5011192
0.7007023
0.9003877
1.100201
1.300104
0.2578228
0.5011904
0.700809
0.9004756
1.100256
1.300138
0.2578242
0.5012167
0.700855
0.9005209
1.100288
1.300162
0.2578247
0.5012273
0.7008755
0.9005436
1.100307
1.300176
0.2578248
0.5012319
0.700885
0.900555
1.100317
1.300184
0.2578249
0.501234
0.7008894
0.9005608
1.100323
1.300189
0.2578249
0.501235
0.7008915
0.9005637
1.100326
1.300192
0.2578249
0.5012354
0.7008925
0.9005651
1.100327
1.300193
0.2578249
0.5012356
0.7008931
0.9005659
1.100328
1.300194
0.2578249
0.5012357
0.7008934
0.9005661
1.100329
1.300194
0.2578249
0.5012358
0.7008934
0.9005662
1.100329
1.300194
0.2578249
0.5012358
0.7008933
0.9005661
1.100329
1.300194
0.2578249
0.5012357
0.7008932
0.9005659
1.100328
1.300194
0.2578249
0.5012355
0.7008927
0.9005652
1.100328
1.300193
0.2578249
0.5012351
0.7008918
0.900564
1.100326
1.300192
0.2578249
0.5012341
0.7008897
0.9005614
1.100324
1.30019
0.2578248
0.501232
0.7008854
0.9005562
1.100319
1.300186
0.2578247
0.5012276
0.7008773
0.9005472
1.100311
1.30018
0.2578242
0.501219
0.7008639
0.9005334
1.1003
1.300172
0.2578227
0.5012044
0.7008458
0.9005167
1.100287
1.300163
0.2578198
0.5011879
0.7008298
0.9005035
1.100278
1.300158
0.4519633
0.6500314
0.8500008
1.050001
1.250001
1.45
0.2579062
0.5001738
0.7001772
0.9001124
1.10006
1.30003
0.2578113
0.5009126
0.7005242
0.9002923
1.100154
1.300079
0.257822
0.5011456
0.7007716
0.9004688
1.100257
1.300133
0.2578279
0.5012263
0.7008998
0.9005912
1.100343
1.300182
0.2578295
0.5012582
0.7009581
0.900657
1.100398
1.300216
0.2578301
0.5012716
0.7009847
0.9006888
1.100427
1.300236
0.2578302
0.5012775
0.700997
0.9007044
1.100442
1.300248
0.2578304
0.5012804
0.7010028
0.900712
1.100449
1.300254
0.2578304
0.5012816
0.7010056
0.9007159
1.100453
1.300257
0.2578305
0.5012823
0.7010069
0.9007177
1.100455
1.300259
0.2578305
0.5012825
0.7010077
0.9007187
1.100456
1.30026
0.2578305
0.5012826
0.7010079
0.9007192
1.100457
1.300261
0.2578305
0.5012827
0.7010081
0.9007192
1.100457
1.300261
0.2578305
0.5012827
0.7010079
0.9007192
1.100457
1.300261
0.2578305
0.5012826
0.7010077
0.9007189
1.100457
1.30026
0.2578305
0.5012823
0.7010071
0.900718
1.100456
1.30026
0.2578304
0.5012817
0.7010058
0.9007163
1.100454
1.300258
0.2578304
0.5012804
0.7010031
0.9007128
1.10045
1.300255
0.2578303
0.5012777
0.7009976
0.900706
1.100444
1.30025
0.2578302
0.5012721
0.7009872
0.9006938
1.100433
1.300242
0.2578296
0.5012613
0.70097
0.9006753
1.100418
1.300231
0.2578278
0.5012435
0.7009473
0.9006527
1.1004
1.30022
0.2578243
0.5012234
0.7009269
0.9006349
1.100387
1.300212
0.4519597
0.6500315
0.850001
1.050002
1.250001
1.45
0.2579065
0.5001739
0.7001773
0.9001125
1.10006
1.30003
0.2578115
0.5009126
0.7005242
0.9002923
1.100154
1.300079
0.2578223
0.5011456
0.7007717
0.9004688
1.100257
1.300133
0.2578282
0.5012263
0.7008998
0.9005912
1.100343
1.300182
0.2578298
0.5012582
0.7009581
0.9006571
1.100398
1.300216
0.2578304
0.5012716
0.7009848
0.9006889
1.100427
1.300236
0.2578305
0.5012776
0.7009971
0.9007044
1.100442
1.300248
0.2578306
0.5012804
0.7010028
0.900712
1.100449
1.300254
0.2578307
0.5012816
0.7010057
0.9007159
1.100453
1.300257
0.2578307
0.5012823
0.701007
0.9007178
1.100455
1.300259
0.2578307
0.5012825
0.7010077
0.9007187
1.100456
1.30026
0.2578307
0.5012827
0.701008
0.9007192
1.100457
1.300261
0.2578307
0.5012827
0.7010081
0.9007193
1.100457
1.300261
0.2578307
0.5012827
0.7010079
0.9007193
1.100457
1.300261
0.2578307
0.5012826
0.7010078
0.900719
1.100457
1.30026
0.2578307
0.5012823
0.7010071
0.9007181
1.100456
1.30026
0.2578307
0.5012818
0.7010059
0.9007163
1.100454
1.300258
0.2578306
0.5012805
0.7010032
0.9007129
1.100451
1.300255
0.2578306
0.5012777
0.7009977
0.9007061
1.100444
1.30025
0.2578304
0.5012721
0.7009873
0.900694
1.100433
1.300242
0.2578298
0.5012615
0.7009702
0.9006756
1.100418
1.300232
0.257828
0.5012436
0.7009476
0.9006533
1.1004
1.30022
0.2578245
0.5012237
0.7009273
0.9006355
1.100388
1.300213
0.4519654
0.6500314
0.8500007
1.050002
1.250001
1.45
0.2579057
0.5001676
0.7001575
0.900095
1.10005
1.300024
0.2578099
0.500898
0.7004799
0.9002474
1.100125
1.300063
0.25782
0.5011193
0.7007025
0.9003877
1.100201
1.300104
0.2578256
0.5011905
0.7008092
0.9004755
1.100256
1.300138
0.2578269
0.5012168
0.7008552
0.9005208
1.100288
1.300162
0.2578274
0.5012274
0.7008756
0.9005435
1.100307
1.300176
0.2578276
0.501232
0.7008851
0.900555
1.100317
1.300184
0.2578278
0.501234
0.7008895
0.9005607
1.100323
1.300189
0.2578278
0.501235
0.7008917
0.9005636
1.100326
1.300192
0.2578278
0.5012355
0.7008927
0.900565
1.100327
1.300193
0.2578278
0.5012357
0.7008933
0.9005658
1.100328
1.300194
0.2578277
0.5012358
0.7008936
0.900566
1.100329
1.300194
0.2578277
0.5012359
0.7008935
0.9005662
1.100328
1.300194
0.2578277
0.5012359
0.7008935
0.9005661
1.100329
1.300194
0.2578278
0.5012358
0.7008933
0.9005659
1.100328
1.300194
0.2578278
0.5012356
0.7008929
0.9005652
1.100328
1.300193
0.2578278
0.5012352
0.700892
0.900564
1.100326
1.300192
0.2578278
0.5012342
0.70089
0.9005614
1.100324
1.30019
0.2578276
0.5012321
0.7008858
0.9005564
1.100319
1.300186
0.2578275
0.5012278
0.7008778
0.9005474
1.100312
1.300181
0.257827
0.5012193
0.7008645
0.9005341
1.100301
1.300173
0.2578254
0.5012048
0.7008469
0.9005181
1.100289
1.300165
0.2578221
0.5011886
0.7008312
0.9005056
1.100281
1.300161
0.4519613
0.6500294
0.8499996
1.050001
1.250001
1.450001
0.2579
0.5001198
0.7000902
0.9000533
1.100029
1.300014
0.2577987
0.5008076
0.7003213
0.9001391
1.10007
1.300036
0.2578068
0.5009855
0.7004587
0.9002068
1.100109
1.300059
0.2578115
0.501032
0.7005151
0.9002453
1.100137
1.300078
0.2578125
0.5010466
0.7005389
0.900267
1.100154
1.30009
0.2578128
0.5010522
0.7005494
0.9002783
1.100164
1.300098
0.257813
0.5010543
0.7005544
0.900284
1.10017
1.300103
0.257813
0.5010554
0.7005567
0.9002871
1.100173
1.300105
0.257813
0.5010559
0.7005578
0.9002887
1.100174
1.300107
0.257813
0.5010561
0.7005584
0.9002895
1.100175
1.300108
0.257813
0.5010563
0.7005587
0.9002899
1.100176
1.300108
0.257813
0.5010563
0.7005589
0.90029
1.100176
1.300108
0.257813
0.5010564
0.7005589
0.90029
1.100176
1.300108
0.257813
0.5010564
0.7005589
0.9002899
1.100176
1.300108
0.257813
0.5010563
0.7005588
0.9002899
1.100176
1.300108
0.257813
0.5010562
0.7005586
0.9002897
1.100176
1.300108
0.257813
0.501056
0.7005581
0.9002891
1.100175
1.300107
0.257813
0.5010556
0.7005571
0.9002879
1.100174
1.300106
0.257813
0.5010547
0.700555
0.9002853
1.100171
1.300104
0.2578129
0.5010527
0.7005513
0.9002808
1.100167
1.3001
0.2578126
0.5010485
0.7005449
0.9002744
1.100161
1.300096
0.2578115
0.5010413
0.7005373
0.9002675
1.100156
1.300092
0.2578094
0.5010354
0.700532
0.9002632
1.100153
1.300091
0.4517852
0.6500143
0.849999
1.050001
1.250002
1.450001
0.2579229
0.4997563
0.6999237
0.8999924
1.100004
1.300004
0.2578585
0.5001552
0.6999631
0.9000019
1.100013
1.300011
0.2578664
0.5002023
0.6999811
0.9000127
1.100022
1.300019
0.2578692
0.5002065
0.6999888
0.9000205
1.10003
1.300025
0.2578696
0.5002067
0.6999925
0.9000254
1.100035
1.300029
0.2578697
0.5002068
0.6999942
0.9000283
1.100038
1.300032
0.2578698
0.5002069
0.6999952
0.9000298
1.100039
1.300034
0.2578698
0.5002069
0.6999959
0.9000306
1.10004
1.300034
0.2578697
0.500207
0.699996
0.9000314
1.100041
1.300035
0.2578697
0.500207
0.6999962
0.9000315
1.100041
1.300035
0.2578697
0.500207
0.6999964
0.9000317
1.100042
1.300036
0.2578698
0.5002072
0.6999963
0.9000319
1.100042
1.300036
0.2578698
0.5002072
0.6999964
0.9000317
1.100042
1.300036
0.2578698
0.5002072
0.6999964
0.9000318
1.100042
1.300036
0.2578698
0.5002071
0.6999963
0.9000318
1.100042
1.300036
0.2578698
0.5002072
0.6999963
0.9000318
1.100042
1.300035
0.2578698
0.5002072
0.6999963
0.9000316
1.100041
1.300035
0.2578698
0.5002073
0.6999961
0.9000311
1.100041
1.300035
0.2578698
0.5002075
0.6999959
0.9000306
1.10004
1.300034
0.2578698
0.500208
0.6999956
0.9000298
1.100039
1.300033
0.2578697
0.5002086
0.6999955
0.9000287
1.100037
1.300031
0.2578696
0.5002113
0.699997
0.9000285
1.100037
1.30003
0.2577906
0.500224
0.7000024
0.9000312
1.10004
1.300032
0.4269908
0.6245286
0.8245257
1.024526
1.224526
1.424526
0.2297195
0.4487805
0.6498501
0.8499782
1.049996
1.249999
1.449999
0.2295218
0.4488106
0.6497793
0.8499505
1.04998
1.249985
1.449986
0.2295192
0.4488115
0.6497755
0.8499529
1.049984
1.24999
1.449991
0.2295193
0.4488118
0.6497779
0.8499568
1.049989
1.249994
1.449995
0.2295193
0.4488121
0.6497795
0.849959
1.049991
1.249996
1.449997
0.2295192
0.4488121
0.6497802
0.8499601
1.049992
1.249997
1.449998
0.2295193
0.4488125
0.6497806
0.8499607
1.049993
1.249998
1.449998
0.2295193
0.4488126
0.6497807
0.8499609
1.049993
1.249998
1.449999
0.2295192
0.4488123
0.6497807
0.849961
1.049993
1.249998
1.449999
0.2295192
0.4488122
0.6497808
0.8499611
1.049993
1.249998
1.449999
0.2295192
0.4488122
0.6497808
0.8499611
1.049993
1.249998
1.449999
0.2295193
0.4488126
0.6497808
0.8499611
1.049993
1.249998
1.449999
0.2295193
0.4488127
0.6497808
0.8499611
1.049993
1.249998
1.449999
0.2295193
0.4488126
0.6497808
0.8499611
1.049993
1.249998
1.449999
0.2295192
0.4488124
0.6497808
0.8499611
1.049993
1.249998
1.449999
0.2295193
0.4488126
0.6497809
0.8499611
1.049993
1.249998
1.449999
0.2295193
0.4488125
0.6497808
0.849961
1.049993
1.249998
1.449999
0.2295193
0.4488126
0.6497808
0.8499609
1.049993
1.249998
1.449999
0.2295193
0.4488124
0.6497806
0.8499608
1.049993
1.249998
1.449999
0.2295193
0.4488126
0.6497805
0.8499604
1.049993
1.249997
1.449998
0.2295193
0.4488129
0.6497804
0.84996
1.049992
1.249997
1.449998
0.2295193
0.4488153
0.6497818
0.8499597
1.049991
1.249996
1.449996
0.2295204
0.4502898
0.6497878
0.849961
1.049991
1.249995
1.449995
0.3753642
0.3772944
0.2279624
0.3456613
0.374861
0.376554
0.2297194
0.3462045
0.2295238
0.3464192
0.3765582
0.3765583
0.2295218
0.3464427
0.2295191
0.3464434
0.3765581
0.3765578
0.2295192
0.3464426
0.2295192
0.3464422
0.3765579
0.376558
0.2295192
0.3464421
0.2295192
0.346442
0.376558
0.376558
0.2295192
0.3464421
0.2295192
0.3464421
0.376558
0.376558
0.2295192
0.3464421
0.2295192
0.3464421
0.376558
0.376558
0.2295192
0.3464421
0.2295192
0.3464421
0.376558
0.376558
0.2295192
0.3464421
0.2295192
0.3464421
0.376558
0.376558
0.2295192
0.3464421
0.2295192
0.3464421
0.376558
0.376558
0.2295192
0.3464421
0.2295192
0.3464421
0.376558
0.376558
0.2295192
0.3464421
0.2295192
0.3464421
0.376558
0.376558
0.2295192
0.3464421
0.2295192
0.3464421
0.376558
0.376558
0.2295192
0.3464421
0.2295192
0.3464421
0.376558
0.376558
0.2295192
0.3464421
0.2295192
0.3464421
0.376558
0.376558
0.2295192
0.3464421
0.2295192
0.3464421
0.376558
0.376558
0.2295192
0.3464421
0.2295192
0.3464421
0.376558
0.376558
0.2295192
0.3464421
0.2295192
0.3464421
0.376558
0.376558
0.2295192
0.3464421
0.2295192
0.3464421
0.376558
0.376558
0.2295192
0.3464421
0.2295192
0.3464421
0.376558
0.376558
0.2295192
0.3464421
0.2295192
0.3464422
0.376558
0.3765581
0.2295192
0.3464424
0.2295193
0.346443
0.3765581
0.3765593
0.2295193
0.3464445
0.2295198
0.3464489
0.3765605
0.3194816
0.2295204
0.3464619
0.2295263
0.3464901
0.3761593
0.2297439
0.3463914
0.3780569
0.2295704
0.3466811
0.3780617
0.2295696
0.3467451
0.3780552
0.2295685
0.3467629
0.3780612
0.2295684
0.3467705
0.3780618
0.2295689
0.3467737
0.3780732
0.2295685
0.3467737
0.3780529
0.2295691
0.3467717
0.3780518
0.229569
0.3467707
0.3780579
0.229569
0.346773
0.3780709
0.2295686
0.3467747
0.3780883
0.229568
0.3467723
0.3780766
0.2295681
0.3467656
0.3780369
0.2295705
0.3467456
0.3780276
0.2295714
0.3466795
0.3761575
0.2297439
0.3463917
0.3772932
0.2279625
0.345662
0.3753653
1.450001
1.4245
0.3464427
0.2295192
0.3464436
0.3765581
0.3765585
0.3464446
0.2295198
0.346449
0.3765582
0.3765592
0.3464618
0.2295263
0.3464898
0.3765605
0.31948
0.2662912
0.2836299
0.4255358
0.575485
0.426991
0.5754841
0.4490388
0.5497674
0.6244887
0.7754981
0.6245286
0.7754742
0.6499306
0.7499767
0.8244984
0.9755003
0.8245257
0.9754743
0.8499921
0.9499974
1.0245
1.1755
1.024526
1.175474
1.049999
1.15
1.2245
1.375501
1.224526
1.375474
1.250001
1.350001
1.4245
1.424526
1.450001
0.2646784
0.2831106
0.2646889
0.2831133
0.2646747
0.2831188
0.2646752
0.2831184
0.2646742
0.2831185
0.2646742
0.2831186
0.2646742
0.2831186
0.2646742
0.2831187
0.2646742
0.2831187
0.2646742
0.2831187
0.2646742
0.2831187
0.2646742
0.2831187
0.2646742
0.2831187
0.2646742
0.2831187
0.2646742
0.2831187
0.2646742
0.2831187
0.2646742
0.2831187
0.2646742
0.2831187
0.2646742
0.2831187
0.2646742
0.2831187
0.2646742
0.2831187
0.2646742
0.2831187
0.2646742
0.2831187
0.2646742
0.2831187
0.2646742
0.2831187
0.2646742
0.2831187
0.2646742
0.2831187
0.2646742
0.2831187
0.2646742
0.2831187
0.2646742
0.2831187
0.2646742
0.2831187
0.2646742
0.2831187
0.2646742
0.2831187
0.2646742
0.2831187
0.2646742
0.2831187
0.2646742
0.2831187
0.2646742
0.2831187
0.2646742
0.2831187
0.2646742
0.2831187
0.2646742
0.2831187
0.2646743
0.2831187
0.2646742
0.2831187
0.2646745
0.2831187
0.2646744
0.2831187
0.2646811
0.2831188
0.2646773
0.2831197
0.2659381
0.2658827
0.2659523
0.265943
0.2659567
0.2659673
0.2659501
0.2659683
0.2659376
0.2659488
0.2659633
0.2659743
0.2659733
0.2659661
0.2659506
0.26594
0.265812
0.2658389
0.575484
0.4490387
0.5497673
0.4255362
0.575485
0.7754743
0.6499304
0.7499767
0.6244887
0.7754981
0.9754743
0.849992
0.9499974
0.8244984
0.9755003
1.175474
1.049999
1.15
1.0245
1.1755
1.375474
1.25
1.350001
1.2245
1.375501
0.3462046
0.2295238
0.346419
0.3748614
0.3765539
0.3464428
0.2295193
0.3464426
0.3765582
0.3765581
0.3464428
0.2295193
0.3464428
0.3765584
0.3765585
0.3464424
0.2295192
0.3464419
0.3765584
0.3765578
0.346442
0.2295193
0.3464422
0.3765579
0.3765582
0.3464427
0.2295193
0.3464428
0.3765584
0.3765584
0.3464428
0.2295193
0.3464425
0.3765584
0.3765581
0.3464421
0.2295192
0.3464419
0.376558
0.3765578
0.3464421
0.2295192
0.3464419
0.3765579
0.3765576
0.3464417
0.2295193
0.3464424
0.3765576
0.3765583
0.3464428
0.2295193
0.3464429
0.3765584
0.3765584
0.3464429
0.2295193
0.3464429
0.3765584
0.3765584
0.3464428
0.2295193
0.3464425
0.3765584
0.3765581
0.3464423
0.2295193
0.3464425
0.376558
0.3765583
0.3464428
0.2295193
0.3464428
0.3765584
0.3765584
0.3464425
0.2295193
0.3464423
0.3765583
0.3765582
0.3464427
0.2295193
0.3464427
0.3765584
0.3765584
0.3464424
0.2295193
0.3464426
0.3765582
0.3765583
0.3464429
0.2295193
0.346443
0.3765584
0.3765585
0.3464433
0.2295193
0.3464434
0.3765585
0.3765582
0.3219871
0.3875732
0.3741297
0.3106215
0.2651334
0.2831226
0.2647511
0.2827204
0.2658322
0.2658174
0.2646767
0.2831189
0.2646758
0.2831162
0.2646744
0.2831185
0.2646743
0.2831184
0.2646742
0.2831186
0.2646742
0.2831186
0.2646742
0.2831187
0.2646742
0.2831187
0.2646742
0.2831187
0.2646742
0.2831187
0.2646742
0.2831187
0.2646742
0.2831187
0.2646742
0.2831187
0.2646742
0.2831187
0.2646742
0.2831187
0.2646742
0.2831187
0.2646742
0.2831187
0.2646742
0.2831187
0.2646742
0.2831187
0.2646742
0.2831187
0.2646742
0.2831187
0.2646742
0.2831187
0.2646742
0.2831187
0.2646742
0.2831187
0.2646742
0.2831187
0.2646742
0.2831187
0.2646742
0.2831187
0.2646742
0.2831187
0.2646742
0.2831187
0.2646742
0.2831187
0.2646742
0.2831187
0.2646742
0.2831187
0.2646742
0.2831187
0.2646742
0.2831187
0.2646742
0.2831187
0.2646742
0.2831187
0.2646742
0.2831187
0.2646742
0.2831187
0.2646742
0.2831187
0.2646742
0.2831187
0.2646743
0.2831187
0.2646743
0.2831187
0.2646748
0.2831188
0.2646756
0.2831187
0.2646891
0.2516074
0.2831204
0.2647026
0.2659553
0.2659432
0.2659557
0.2659517
0.2659688
0.2659708
0.2659488
0.2659574
0.2659572
0.2659669
0.2659607
0.265958
0.2659472
0.2659563
0.2659237
0.265903
0.2662849
0.283667
0.3219902
0.387575
0.3741318
0.3106428
0.265137
0.2831248
0.2647533
0.2827424
1.475
1.412241
1.425
0.2646748
0.2831186
0.2646751
0.2831185
0.2646745
0.2831187
0.2646745
0.2831186
0.2646748
0.2831188
0.2646756
0.2831186
0.264681
0.2831189
0.2646773
0.2831195
0.2646878
0.2831246
0.28312
0.2647
0.2295285
0.3195011
0.2295286
0.3465134
0.3465132
0.3194994
0.2516132
0.2647162
0.2831272
0.2647137
0.2275934
0.2295511
0.4121639
0.4247385
0.4749106
0.4877547
0.6749969
0.6122394
0.624993
0.6877591
0.8749999
0.8122407
0.8249994
0.8877594
1.075
1.012241
1.025
1.087759
1.275
1.212241
1.225
1.287759
1.475
1.412241
1.425
1.487759
0.2258919
0.2266416
0.2258962
0.2266368
0.2258908
0.2266398
0.2258931
0.2266365
0.2258908
0.2266397
0.2258931
0.2266365
0.2258908
0.2266397
0.2258931
0.2266364
0.2258908
0.2266397
0.2258931
0.2266364
0.2258908
0.2266397
0.2258931
0.2266364
0.2258908
0.2266397
0.2258931
0.2266364
0.2258908
0.2266397
0.2258931
0.2266364
0.2258908
0.2266397
0.2258931
0.2266364
0.2258908
0.2266397
0.2258931
0.2266364
0.2258908
0.2266397
0.2258931
0.2266364
0.2258908
0.2266397
0.2258931
0.2266364
0.2258908
0.2266397
0.2258931
0.2266364
0.2258908
0.2266397
0.2258931
0.2266364
0.2258908
0.2266397
0.2258931
0.2266364
0.2258908
0.2266397
0.2258931
0.2266364
0.2258908
0.2266397
0.2258931
0.2266364
0.2258908
0.2266397
0.2258931
0.2266364
0.2258908
0.2266397
0.2258931
0.2266364
0.2258908
0.2266397
0.2258931
0.2266364
0.2258908
0.2266397
0.2258931
0.2266364
0.2258908
0.2266397
0.2258931
0.2266364
0.2258909
0.2266397
0.2258932
0.2266365
0.2269425
0.2269572
0.226939
0.226954
0.2270396
0.227039
0.2269623
0.2270439
0.2269783
0.2269983
0.2270454
0.227019
0.2270184
0.226953
0.2269427
0.226942
0.2269671
0.2270618
0.362275
0.3874547
0.3874234
0.3623646
0.2259124
0.2266466
0.2259009
0.2266581
0.226965
0.2269645
0.2258908
0.2266398
0.2258931
0.2266365
0.2258908
0.2266397
0.2258931
0.2266365
0.2258908
0.2266397
0.2258931
0.2266364
0.2258908
0.2266397
0.2258931
0.2266364
0.2258908
0.2266397
0.2258931
0.2266364
0.2258908
0.2266397
0.2258931
0.2266364
0.2258908
0.2266397
0.2258931
0.2266364
0.2258908
0.2266397
0.2258931
0.2266364
0.2258908
0.2266397
0.2258931
0.2266364
0.2258908
0.2266397
0.2258931
0.2266364
0.2258908
0.2266397
0.2258931
0.2266364
0.2258908
0.2266397
0.2258931
0.2266364
0.2258908
0.2266397
0.2258931
0.2266364
0.2258908
0.2266397
0.2258931
0.2266364
0.2258908
0.2266397
0.2258931
0.2266364
0.2258908
0.2266397
0.2258931
0.2266364
0.2258908
0.2266397
0.2258931
0.2266364
0.2258908
0.2266397
0.2258931
0.2266364
0.2258908
0.2266397
0.2258931
0.2266364
0.2258908
0.2266397
0.2258931
0.2266364
0.2258908
0.2266397
0.2258931
0.2266364
0.2258908
0.2266397
0.2258932
0.2266364
0.2258975
0.2266412
0.2258935
0.2266374
0.2269426
0.2269549
0.2269766
0.2269311
0.2269754
0.2270184
0.2270015
0.2269678
0.2270125
0.226976
0.2269753
0.2269662
0.2270083
0.2269973
0.2269539
0.2270594
0.2276882
0.2297825
0.3622786
0.3874563
0.3874249
0.3623689
0.2259126
0.2266471
0.2259016
0.226658
1.4375
1.412499
1.412498
1.4375
0.2258908
0.2266398
0.2258931
0.2266365
0.2646751
0.2831237
0.2646773
0.2831186
0.2258908
0.2266397
0.2258932
0.2266364
0.2258909
0.2266397
0.2266365
0.2258932
0.2266433
0.2258986
0.2258959
0.226641
0.2561631
0.2855285
0.2843002
0.2589979
0.2268613
0.227086
0.2262169
0.2279169
0.2273006
0.227166
0.5249648
0.5877577
0.5749854
0.512237
0.7249982
0.7877594
0.7749993
0.7122405
0.9249997
0.9877594
0.9750001
0.9122407
1.125
1.187759
1.175
1.112241
1.325
1.387759
1.375
1.312241
0.2258913
0.2266397
0.2258933
0.2266365
0.2258908
0.2266397
0.2258931
0.2266365
0.2258908
0.2266397
0.2258931
0.2266364
0.2258908
0.2266397
0.2258931
0.2266364
0.2258908
0.2266397
0.2258931
0.2266364
0.2258908
0.2266397
0.2258931
0.2266364
0.2258908
0.2266397
0.2258931
0.2266364
0.2258908
0.2266397
0.2258931
0.2266364
0.2258908
0.2266397
0.2258931
0.2266364
0.2258908
0.2266397
0.2258931
0.2266364
0.2258908
0.2266397
0.2258931
0.2266364
0.2258908
0.2266397
0.2258931
0.2266364
0.2258908
0.2266397
0.2258931
0.2266364
0.2258908
0.2266397
0.2258931
0.2266364
0.2258908
0.2266397
0.2258931
0.2266364
0.2258908
0.2266397
0.2258931
0.2266364
0.2258908
0.2266397
0.2258931
0.2266364
0.2258908
0.2266397
0.2258931
0.2266364
0.2258908
0.2266397
0.2258931
0.2266364
0.2258908
0.2266397
0.2258931
0.2266364
0.2258908
0.2266397
0.2258931
0.2266364
0.2258908
0.2266397
0.2258931
0.2266364
0.225891
0.2266398
0.2258936
0.2266365
0.2269957
0.2270282
0.2269855
0.2270009
0.2269336
0.2269838
0.2269622
0.226957
0.2269229
0.2269245
0.226966
0.2269709
0.2270784
0.2270008
0.2269995
0.2270142
0.2269711
0.226998
0.4121646
0.4247392
0.4877546
0.474911
0.5877576
0.512237
0.5249647
0.5749854
0.6122395
0.687759
0.674997
0.624993
0.7877593
0.7122406
0.7249981
0.7749993
0.8122408
0.8877594
0.875
0.8249993
0.9877593
0.9122407
0.9249997
0.9750002
1.012241
1.087759
1.075
1.025
1.187759
1.112241
1.125
1.175
1.212241
1.287759
1.275
1.225
1.387759
1.375
1.312241
1.325
0.2831114
0.2646893
0.2831128
0.264678
0.2831185
0.2646747
0.2831145
0.2646747
0.2831234
0.2646763
0.283117
0.2646729
0.283124
0.2831183
0.2646745
0.2646775
0.2831242
0.2831242
0.2646783
0.2646781
0.2831242
0.2831242
0.2646783
0.2646782
0.2831241
0.2831184
0.2646744
0.2646775
0.2831182
0.2831169
0.2646722
0.264673
0.2831185
0.2831183
0.2646738
0.2646739
0.2831241
0.2831242
0.2646782
0.2646779
0.2831242
0.2831242
0.2646782
0.2646782
0.2831242
0.2831242
0.2646782
0.2646782
0.2831188
0.2831241
0.2646776
0.2646749
0.2831187
0.2831185
0.2646741
0.2646743
0.2831169
0.2831182
0.2646731
0.2646722
0.2831183
0.2831234
0.2646768
0.2646743
0.2831162
0.2831214
0.2646741
0.264671
0.2831163
0.2831168
0.2646718
0.2646712
0.2831241
0.2831183
0.2646744
0.2646775
0.2831242
0.2831242
0.2646782
0.2646781
0.2831242
0.2831242
0.2646782
0.2646783
0.2831242
0.2831242
0.2646782
0.2646783
0.2831242
0.2831242
0.2646782
0.2646783
0.2831242
0.2831242
0.2646782
0.2646782
0.2831188
0.2831241
0.2646776
0.2646749
0.2831187
0.2831187
0.2646744
0.2646744
0.2831242
0.2831242
0.2646782
0.2646781
0.2831242
0.2831242
0.2646782
0.2646781
0.2831241
0.2831184
0.2646745
0.2646776
0.2831241
0.2831242
0.2646782
0.2646779
0.2831241
0.2831242
0.2646782
0.2646779
0.2831236
0.283117
0.2646729
0.2646765
0.2831241
0.2831184
0.2646745
0.2646776
0.2831242
0.2831242
0.2646783
0.2646781
0.2831242
0.2831242
0.2646783
0.2646782
0.2831242
0.2831242
0.2646782
0.2646783
0.2831188
0.264675
0.2831241
0.2646776
0.3369063
0.3116
0.3110496
0.33714
0.2259421
0.2268007
0.2260189
0.226694
0.2269741
0.2270901
0.2258908
0.2266397
0.2258933
0.2266365
0.2258908
0.2266397
0.2258931
0.2266365
0.2258908
0.2266397
0.2258931
0.2266364
0.2258908
0.2266397
0.2258931
0.2266364
0.2258908
0.2266397
0.2258931
0.2266364
0.2258908
0.2266397
0.2258931
0.2266364
0.2258908
0.2266397
0.2258931
0.2266364
0.2258908
0.2266397
0.2258931
0.2266364
0.2258908
0.2266397
0.2258931
0.2266364
0.2258908
0.2266397
0.2258931
0.2266364
0.2258908
0.2266397
0.2258931
0.2266364
0.2258908
0.2266397
0.2258931
0.2266364
0.2258908
0.2266397
0.2258931
0.2266364
0.2258908
0.2266397
0.2258931
0.2266364
0.2258908
0.2266397
0.2258931
0.2266364
0.2258908
0.2266397
0.2258931
0.2266364
0.2258908
0.2266397
0.2258931
0.2266364
0.2258908
0.2266397
0.2258931
0.2266364
0.2258908
0.2266397
0.2258931
0.2266364
0.2258908
0.2266397
0.2258931
0.2266364
0.2258908
0.2266397
0.2258931
0.2266364
0.2258908
0.2266397
0.2258931
0.2266364
0.2258924
0.22664
0.225894
0.226637
0.2269959
0.2270282
0.2269969
0.2269669
0.2270116
0.2270166
0.2269862
0.2269402
0.227018
0.2269852
0.2269783
0.226977
0.2269745
0.2269156
0.2269352
0.2269877
0.2272941
0.2270721
0.256301
0.2856156
0.2592136
0.284363
0.2268836
0.2271101
0.2279684
0.2262306
0.3369147
0.3116322
0.3110731
0.3371515
0.2259429
0.2268106
0.2260247
0.2266953
1.4625
1.4625
0.2258908
0.2266397
0.2266365
0.2258932
0.2258907
0.2266397
0.2266364
0.2258931
0.2258907
0.2266397
0.2258931
0.2266364
0.225891
0.2266398
0.2266365
0.2258935
0.2258936
0.2266401
0.225894
0.2266389
0.2258992
0.2266418
0.2258979
0.226639
0.4124836
0.4124716
0.4374902
0.4374954
0.6374999
0.6124987
0.6124982
0.6375003
0.8375
0.8124988
0.8124984
0.8375004
1.0375
1.012499
1.012498
1.0375
1.2375
1.212499
1.212498
1.2375
1.4375
1.412499
1.412498
1.4375
0.2258907
0.2266397
0.2258931
0.2266364
0.5624994
0.5875011
0.5875013
0.5624994
0.7625
0.7875012
0.7875016
0.7624996
0.9625
0.9875012
0.9875016
0.9624996
1.1625
1.187501
1.187502
1.1625
1.3625
1.387501
1.387502
1.3625
0.5875007
0.562499
0.5624987
0.5875005
0.6124991
0.6375008
0.6375007
0.612499
0.8124992
0.8375008
0.8375008
0.8124992
0.9875008
0.9624992
0.9624992
0.9875008
1.012499
1.037501
1.037501
1.012499
1.212499
1.237501
1.237501
1.212499
0.2266418
0.2266368
0.2258966
0.225892
0.22664
0.2258931
0.2266385
0.225892
0.2266343
0.2266362
0.2258908
0.2258894
0.2831236
0.283117
0.2646728
0.2646764
0.2266342
0.2266341
0.2258894
0.2258894
0.2258907
0.2266397
0.2266364
0.2258931
0.2266416
0.2258931
0.2266399
0.2258943
0.2266398
0.2266362
0.2258907
0.2258932
0.2266419
0.2266418
0.2258942
0.2258943
0.2266418
0.225893
0.2266402
0.2258942
0.2266342
0.2266343
0.2258894
0.2258894
0.2266342
0.2258894
0.2266341
0.2258895
0.2266342
0.2266341
0.2258895
0.2258895
0.2266342
0.2266341
0.2258895
0.2258895
0.2258908
0.2266397
0.2266362
0.2258932
0.2258907
0.2266397
0.2266364
0.2258931
0.2831241
0.2831188
0.264675
0.2646776
0.2266342
0.2266341
0.2258894
0.2258895
0.2831236
0.283117
0.2646729
0.2646765
0.2266343
0.2266362
0.2258908
0.2258894
0.2266342
0.2266343
0.2258894
0.2258894
0.2266342
0.2266341
0.2258894
0.2258895
0.2266397
0.2258932
0.2266362
0.2258908
0.226644