/*--------------------------------*- C++ -*----------------------------------*\
  =========                 |
  \\      /  F ield         | OpenFOAM: The Open Source CFD Toolbox
   \\    /   O peration     | Website:  https://openfoam.org
    \\  /    A nd           | Version:  7
     \\/     M anipulation  |
\*---------------------------------------------------------------------------*/
FoamFile
{
    version     2.0;
    format      ascii;
    class       volScalarField;
    location    "0.1";
    object      Cy;
}
// * * * * * * * * * * * * * * * * * * * * * * * * * * * * * * * * * * * * * //

dimensions      [0 1 0 0 0 0 0];

internalField   nonuniform List<scalar> 
86107
(
0.4992634
0.4996157
0.4995582
0.499461
0.49942
0.4994082
0.4994075
0.4994109
0.6997272
0.699594
0.6995135
0.6994172
0.6993714
0.6993572
0.6993567
0.6993603
0.8997394
0.8995114
0.899384
0.8993173
0.8992864
0.8992778
0.899281
0.8992892
1.099891
1.099784
1.099716
1.099678
1.099661
1.09966
1.099671
1.099689
1.29996
1.299918
1.299887
1.299869
1.299862
1.299869
1.299892
1.299934
1.499985
1.499967
1.499952
1.499943
1.499933
1.499922
1.499942
1.500027
1.699993
1.699984
1.699975
1.699969
1.699932
1.699671
1.699382
1.699435
1.899996
1.89999
1.899983
1.899973
1.8999
1.899266
1.89715
1.898054
2.099997
2.099993
2.099986
2.099971
2.099876
2.09915
2.096555
2.044091
2.299999
2.299996
2.299991
2.29998
2.299911
2.29952
2.298786
2.247029
2.203128
2.5
2.5
2.5
2.500001
2.499994
2.499964
2.499937
2.448767
2.700001
2.700004
2.700009
2.700024
2.700073
2.700243
2.700814
2.649548
2.900002
2.900006
2.900014
2.900032
2.900113
2.900541
2.901416
2.850824
3.100002
3.100006
3.100012
3.100023
3.100103
3.100755
3.102968
3.051597
3.300002
3.300005
3.300008
3.300011
3.300067
3.300641
3.302515
3.301356
3.500001
3.500003
3.500004
3.500003
3.500028
3.500263
3.500504
3.500438
3.700001
3.700002
3.700003
3.7
3.700001
3.700003
3.699978
3.699906
3.900001
3.900002
3.900002
3.900001
3.899996
3.899984
3.89996
3.899926
4.100001
4.100002
4.100003
4.100003
4.100001
4.099996
4.099985
4.09997
4.300002
4.300004
4.300006
4.300008
4.300009
4.300007
4.300003
4.299996
4.500003
4.500006
4.50001
4.500015
4.50002
4.500022
4.500022
4.500018
4.700005
4.700011
4.700019
4.700029
4.700041
4.70005
4.700054
4.70005
4.900008
4.900019
4.900034
4.900056
4.900083
4.900109
4.900123
4.900118
0.2590685
0.2584716
0.2581543
0.2580877
0.2580775
0.2580756
0.2580764
0.2580797
0.4507445
0.5000523
0.4995414
0.4989285
0.498639
0.498529
0.4984958
0.4984956
0.4985067
0.6504182
0.6995324
0.6989325
0.6983913
0.698086
0.6979465
0.697899
0.6978971
0.6979107
0.850016
0.8996826
0.8993176
0.8989911
0.8987807
0.8986739
0.8986392
0.8986491
0.8986788
1.049987
1.099825
1.099629
1.099447
1.099319
1.099251
1.099237
1.099269
1.099335
1.249992
1.299909
1.299805
1.299703
1.299626
1.299585
1.299588
1.299653
1.299795
1.449993
1.499951
1.499892
1.499829
1.499775
1.499738
1.499738
1.499826
1.500114
1.649994
1.699971
1.699932
1.699884
1.699828
1.69976
1.699686
1.699683
1.700183
1.849995
1.89998
1.89995
1.899904
1.899829
1.899686
1.899385
1.898734
1.898715
2.049995
2.099986
2.099963
2.099919
2.099829
2.099607
2.098987
2.097063
2.04579
2.249995
2.299992
2.299978
2.29995
2.299885
2.299709
2.299185
2.297621
2.243669
2.20068
2.449995
2.5
2.499999
2.499999
2.5
2.499996
2.499973
2.499889
2.448827
2.649995
2.700006
2.700019
2.700048
2.700117
2.700295
2.700794
2.702213
2.652524
2.849995
2.90001
2.90003
2.900074
2.900175
2.900429
2.901141
2.903339
2.857696
3.049995
3.10001
3.100031
3.100072
3.100154
3.100333
3.10075
3.10181
3.102205
3.249995
3.300009
3.300025
3.300053
3.300098
3.30017
3.300267
3.300281
3.299311
3.449995
3.500007
3.500018
3.500033
3.500051
3.500063
3.50004
3.499888
3.499371
3.649995
3.700005
3.700012
3.700019
3.700024
3.700016
3.699973
3.699851
3.699599
3.849995
3.900004
3.900009
3.900014
3.900015
3.900006
3.899974
3.899903
3.899785
4.049995
4.100005
4.10001
4.100016
4.10002
4.100016
4.099999
4.099962
4.099907
4.249995
4.300006
4.300015
4.300025
4.300035
4.30004
4.300036
4.30002
4.299993
4.449995
4.50001
4.500024
4.500043
4.500064
4.500084
4.500095
4.500093
4.500076
4.649995
4.700016
4.700038
4.700072
4.700115
4.700163
4.700203
4.700219
4.700202
4.950006
4.900023
4.900058
4.900117
4.900203
4.900312
4.90042
4.900478
4.900456
0.2586853
0.3080809
0.3066066
0.3060729
0.3059498
0.305922
0.3059179
0.3059196
0.4517851
0.5001263
0.4985204
0.4968383
0.49611
0.4958477
0.4957653
0.4957529
0.4957618
0.701352
0.6996719
0.69866
0.6975831
0.6969313
0.6966298
0.6965219
0.6965104
0.6965327
0.9003711
0.8996416
0.89907
0.8984267
0.8979634
0.8977224
0.8976384
0.8976525
0.8977113
1.099961
1.09975
1.099431
1.099069
1.098786
1.098626
1.098585
1.098646
1.098782
1.299959
1.299847
1.29966
1.299448
1.299271
1.299166
1.299159
1.299284
1.299574
1.499978
1.499908
1.49979
1.499649
1.499516
1.499416
1.499397
1.499568
1.500142
1.699988
1.69994
1.699856
1.699741
1.6996
1.699434
1.699274
1.699305
1.700256
1.899992
1.899958
1.89989
1.899778
1.899597
1.899281
1.898716
1.897796
1.898274
2.099995
2.09997
2.099916
2.099812
2.099606
2.099153
2.098087
2.095815
2.044465
2.299997
2.299983
2.299952
2.299885
2.29974
2.299393
2.298543
2.296732
2.242645
2.200675
2.5
2.499999
2.499997
2.499997
2.499996
2.499987
2.499945
2.499842
2.448622
2.700002
2.700013
2.700042
2.700108
2.700258
2.700608
2.701418
2.703064
2.653134
2.900003
2.900022
2.900068
2.900172
2.900397
2.900914
2.902138
2.904788
2.859165
3.100004
3.100023
3.100072
3.10017
3.100365
3.100753
3.101537
3.10295
3.102536
3.300004
3.300021
3.300059
3.30013
3.300246
3.300422
3.300617
3.300549
3.298682
3.500003
3.500016
3.500042
3.500083
3.500137
3.500183
3.500148
3.499826
3.498778
3.700002
3.700011
3.700028
3.700051
3.70007
3.700066
3.699988
3.699741
3.699221
3.900002
3.900009
3.900022
3.900036
3.900044
3.900031
3.89997
3.899824
3.899576
4.100002
4.10001
4.100022
4.100037
4.100048
4.100043
4.10001
4.099933
4.099815
4.300003
4.300013
4.300031
4.300055
4.300078
4.300092
4.300085
4.300051
4.29999
4.500004
4.500019
4.500048
4.500089
4.500138
4.500183
4.500211
4.500207
4.500168
4.700006
4.700028
4.700074
4.700146
4.700243
4.700351
4.700441
4.700477
4.70044
4.900008
4.900039
4.900108
4.900233
4.900422
4.900663
4.900898
4.901025
4.900977
0.2583956
0.3066722
0.3041576
0.3033608
0.3031629
0.3031144
0.3031033
0.3031023
0.4522754
0.4996937
0.4969308
0.4942462
0.4930798
0.4926575
0.4925179
0.4924854
0.4924872
0.7023599
0.6995081
0.6979559
0.6963199
0.6953108
0.6948348
0.6946548
0.6946225
0.6946442
0.9007028
0.8995426
0.8987222
0.8977598
0.8970306
0.8966343
0.8964879
0.8964959
0.8965751
1.099962
1.099674
1.099226
1.098675
1.098208
1.097931
1.097851
1.097935
1.098134
1.299941
1.299794
1.299528
1.299203
1.298913
1.298731
1.298708
1.298893
1.299323
1.499968
1.499872
1.499699
1.49948
1.49926
1.499092
1.499059
1.499318
1.500134
1.699981
1.699915
1.699788
1.699607
1.699377
1.699115
1.698873
1.698946
1.700266
1.899988
1.899939
1.899836
1.89966
1.899374
1.898899
1.898176
1.897384
1.898355
2.099992
2.099957
2.099875
2.099714
2.099397
2.098755
2.097534
2.095393
2.04426
2.299996
2.299976
2.299928
2.299826
2.299606
2.299129
2.298167
2.296433
2.242504
2.200675
2.5
2.499998
2.499996
2.499995
2.499993
2.499977
2.499924
2.49981
2.448586
2.700003
2.700018
2.700061
2.700162
2.700388
2.700865
2.701779
2.703311
2.653169
2.900005
2.900031
2.900101
2.900261
2.900607
2.901333
2.902746
2.905298
2.859389
3.100006
3.100034
3.100107
3.100263
3.10057
3.101151
3.102131
3.103511
3.103159
3.300005
3.30003
3.30009
3.300204
3.300396
3.300674
3.300975
3.300838
3.29868
3.500004
3.500023
3.500064
3.500134
3.500228
3.50031
3.500265
3.499814
3.498393
3.700003
3.700017
3.700044
3.700083
3.700121
3.700123
3.700011
3.699641
3.698864
3.900003
3.900013
3.900034
3.900058
3.900075
3.90006
3.89997
3.89975
3.899371
4.100003
4.100014
4.100034
4.100058
4.100077
4.100073
4.100024
4.099907
4.099724
4.300004
4.300018
4.300046
4.300082
4.30012
4.300144
4.300136
4.300083
4.299988
4.500006
4.500027
4.500069
4.500131
4.500208
4.500282
4.500327
4.50032
4.500259
4.700008
4.700039
4.700104
4.700212
4.700363
4.700534
4.700675
4.700731
4.700674
4.900011
4.900052
4.90015
4.900334
4.900628
4.901004
4.901367
4.901562
4.901488
0.2583363
0.3061762
0.3034102
0.3024561
0.3022126
0.3021466
0.3021276
0.3021235
0.4522988
0.4994953
0.496323
0.4932374
0.4918549
0.4913305
0.4911413
0.4910865
0.4910791
0.702541
0.6993758
0.697536
0.6955816
0.6943499
0.6937498
0.693506
0.6934466
0.6934592
0.9008451
0.8994644
0.898484
0.8973143
0.8964096
0.8958989
0.8956957
0.8956857
0.8957668
1.099962
1.099625
1.099094
1.09842
1.09784
1.097484
1.097366
1.097453
1.097683
1.299931
1.299763
1.299448
1.299052
1.298684
1.298442
1.298397
1.29861
1.29912
1.499963
1.499851
1.499646
1.499379
1.4991
1.498874
1.498809
1.499111
1.500081
1.699978
1.699901
1.69975
1.699528
1.699235
1.698887
1.698627
1.698819
1.700347
1.899986
1.899929
1.899806
1.899592
1.899229
1.898661
1.89794
1.897268
1.898408
2.099991
2.09995
2.099853
2.099659
2.099267
2.098542
2.097316
2.095271
2.044235
2.299995
2.299972
2.299916
2.299794
2.299526
2.298993
2.298023
2.296347
2.242483
2.200675
2.5
2.499998
2.499995
2.499993
2.499989
2.499971
2.499914
2.499793
2.448575
2.700004
2.700021
2.700071
2.700191
2.700464
2.700997
2.701914
2.703368
2.653135
2.900006
2.900036
2.900119
2.90031
2.900735
2.901557
2.902988
2.905463
2.859453
3.100007
3.10004
3.100128
3.100317
3.100706
3.10139
3.102396
3.103745
3.103485
3.300006
3.300035
3.300107
3.300249
3.300499
3.300865
3.301181
3.30096
3.298735
3.500005
3.500027
3.500078
3.500166
3.500291
3.500419
3.500396
3.499857
3.498203
3.700004
3.70002
3.700053
3.700103
3.700156
3.70017
3.700049
3.699618
3.698694
3.900003
3.900016
3.900041
3.900072
3.900096
3.900082
3.899978
3.899712
3.899248
4.100003
4.100016
4.100041
4.100071
4.100096
4.100093
4.100035
4.099893
4.099668
4.300004
4.300021
4.300054
4.300099
4.300145
4.300176
4.300168
4.300104
4.299987
4.500006
4.500031
4.50008
4.500155
4.500249
4.50034
4.500397
4.50039
4.500314
4.700009
4.700044
4.700119
4.700247
4.70043
4.700641
4.700816
4.700885
4.700816
4.900012
4.90006
4.900172
4.900388
4.900741
4.901203
4.901651
4.901892
4.901802
0.2583318
0.3061708
0.3033883
0.3024046
0.3021194
0.302011
0.3019643
0.3019495
0.4523017
0.4994954
0.4963172
0.4932102
0.4917731
0.4911644
0.4909004
0.4908048
0.4907792
0.7025415
0.6993757
0.6975312
0.695558
0.6942821
0.693616
0.6933106
0.6932126
0.6932048
0.900845
0.8994645
0.898482
0.8973014
0.8963713
0.8958232
0.8955838
0.8955482
0.8956135
1.099962
1.099625
1.099093
1.098415
1.097823
1.097449
1.097313
1.097386
1.097607
1.299931
1.299763
1.299448
1.299051
1.298677
1.298428
1.298375
1.298581
1.299087
1.499963
1.499851
1.499646
1.499378
1.499097
1.498868
1.4988
1.499099
1.500068
1.699978
1.699901
1.69975
1.699528
1.699234
1.698885
1.698624
1.698814
1.700343
1.899986
1.899929
1.899806
1.899592
1.899228
1.89866
1.897938
1.897266
1.898407
2.09999
2.09995
2.099853
2.099659
2.099267
2.098541
2.097315
2.09527
2.044248
2.299995
2.299972
2.299916
2.299794
2.299526
2.298992
2.298021
2.296345
2.242487
2.200676
2.5
2.499998
2.499995
2.499993
2.499989
2.49997
2.499911
2.49979
2.448578
2.700004
2.700022
2.700071
2.700191
2.700465
2.700997
2.701913
2.703365
2.653137
2.900007
2.900037
2.90012
2.900311
2.900738
2.901562
2.902998
2.905478
2.859473
3.100007
3.100041
3.100128
3.100319
3.10071
3.1014
3.102419
3.103789
3.103554
3.300006
3.300036
3.300108
3.300251
3.300503
3.300874
3.301202
3.301003
3.298798
3.500005
3.500027
3.500078
3.500167
3.500294
3.500425
3.500407
3.499877
3.498222
3.700004
3.70002
3.700054
3.700104
3.700158
3.700173
3.700054
3.699624
3.698695
3.900003
3.900016
3.900041
3.900073
3.900097
3.900084
3.89998
3.899713
3.899246
4.100003
4.100016
4.100041
4.100072
4.100097
4.100094
4.100036
4.099893
4.099667
4.300004
4.300021
4.300054
4.300099
4.300145
4.300176
4.300168
4.300103
4.299986
4.500006
4.50003
4.50008
4.500154
4.500247
4.500338
4.500394
4.500387
4.500312
4.700009
4.700044
4.700118
4.700244
4.700425
4.700634
4.70081
4.70088
4.700811
4.900019
4.900059
4.900169
4.900381
4.900729
4.901189
4.901636
4.901878
4.901792
0.2583503
0.3066601
0.3040332
0.3030713
0.3027013
0.302397
0.3022133
0.3021769
0.4522935
0.4996971
0.4969215
0.4941688
0.4927802
0.4919817
0.4915189
0.4913332
0.491276
0.7023625
0.6995123
0.697953
0.6962687
0.6951204
0.6944182
0.6940286
0.6938741
0.6938348
0.9007016
0.899545
0.8987249
0.89774
0.8969437
0.8964397
0.8961871
0.8961229
0.8961586
1.099962
1.099676
1.099229
1.09867
1.098175
1.097853
1.097725
1.097773
1.097947
1.299941
1.299796
1.29953
1.299202
1.298901
1.298701
1.298658
1.298826
1.299245
1.499967
1.499871
1.4997
1.49948
1.499256
1.49908
1.499039
1.499291
1.500103
1.699981
1.699915
1.699789
1.699607
1.699375
1.699111
1.698866
1.698937
1.700256
1.89999
1.89994
1.899836
1.89966
1.899372
1.898897
1.898172
1.89738
1.898352
2.09999
2.099957
2.099876
2.099714
2.099396
2.098753
2.097531
2.09539
2.044288
2.299995
2.299976
2.299929
2.299827
2.299606
2.299127
2.298162
2.296427
2.242507
2.200676
2.5
2.499999
2.499997
2.499995
2.499992
2.499975
2.499915
2.499791
2.448586
2.700006
2.70002
2.700062
2.700163
2.70039
2.700866
2.701773
2.703282
2.653135
2.900007
2.900033
2.900103
2.900263
2.900613
2.901349
2.902779
2.905359
2.859464
3.100008
3.100037
3.10011
3.100268
3.10058
3.101179
3.10221
3.103716
3.103663
3.300006
3.30003
3.300091
3.300208
3.300407
3.3007
3.301041
3.301002
3.299049
3.500003
3.50002
3.500065
3.500138
3.500236
3.500325
3.500298
3.499878
3.498477
3.700002
3.700017
3.700046
3.700086
3.700126
3.700131
3.700024
3.69966
3.698874
3.900002
3.900014
3.900035
3.900061
3.900078
3.900064
3.899975
3.899753
3.899368
4.100001
4.100013
4.100035
4.10006
4.100079
4.100075
4.100026
4.099908
4.099721
4.300003
4.300018
4.300046
4.300083
4.300121
4.300145
4.300136
4.300083
4.299986
4.500006
4.500026
4.500068
4.50013
4.500206
4.500279
4.500322
4.500316
4.500255
4.700008
4.700038
4.700101
4.700206
4.700353
4.70052
4.700661
4.700718
4.700663
4.900033
4.900052
4.900144
4.900317
4.900598
4.900966
4.901326
4.901527
4.901461
0.258539
0.3080886
0.3064904
0.3049015
0.3050731
0.3035625
0.3032759
0.3032238
0.4520367
0.5001562
0.4985508
0.4967974
0.4955967
0.494237
0.4933217
0.493011
0.4929256
0.7013616
0.6996944
0.6986996
0.6975975
0.696752
0.696054
0.6955751
0.6953751
0.6953112
0.9003537
0.8996508
0.8991019
0.8984558
0.8979244
0.8975412
0.8973097
0.8972291
0.8972319
1.099966
1.099757
1.099449
1.099088
1.098781
1.09857
1.098473
1.098491
1.098597
1.299964
1.299851
1.299668
1.299457
1.299271
1.299148
1.299119
1.299226
1.299501
1.499964
1.499904
1.499793
1.499654
1.499517
1.49941
1.499382
1.499546
1.500114
1.699986
1.699938
1.699857
1.699743
1.699601
1.699431
1.699268
1.699296
1.700247
1.900004
1.899957
1.899889
1.899779
1.899596
1.899279
1.898712
1.897791
1.898272
2.099985
2.099971
2.099918
2.099814
2.099606
2.099151
2.098082
2.095809
2.044414
2.299991
2.299985
2.299954
2.299886
2.29974
2.29939
2.298536
2.29672
2.24258
2.200677
2.500002
2.500001
2.499998
2.499997
2.499996
2.499984
2.499933
2.499805
2.448609
2.700014
2.700017
2.700041
2.700108
2.70026
2.700609
2.701408
2.702984
2.653098
2.900012
2.900027
2.900069
2.900173
2.900405
2.900934
2.902192
2.904904
2.859383
3.100026
3.100033
3.100074
3.100174
3.100378
3.100791
3.101654
3.103333
3.103824
3.300009
3.300018
3.300059
3.300134
3.300259
3.300453
3.300703
3.300786
3.299422
3.499979
3.500002
3.500042
3.500088
3.500147
3.500202
3.500189
3.499912
3.498919
3.699996
3.700016
3.700033
3.700056
3.700077
3.700076
3.700004
3.699767
3.699245
3.899999
3.900011
3.900025
3.90004
3.900048
3.900036
3.899976
3.899831
3.899578
4.09999
4.100007
4.100025
4.100041
4.100051
4.100047
4.100013
4.099936
4.099814
4.3
4.300012
4.300033
4.300058
4.300081
4.300094
4.300087
4.300052
4.299989
4.500005
4.500019
4.500049
4.500091
4.500139
4.500183
4.50021
4.500205
4.500165
4.700008
4.700029
4.700073
4.700143
4.700237
4.700341
4.700429
4.700465
4.70043
4.900031
4.900042
4.900103
4.900215
4.90039
4.900619
4.90085
4.900984
4.900947
0.2588739
0.2578424
0.2564608
0.2560465
0.3065828
0.306234
0.306079
0.3060529
0.4515747
0.5001427
0.4996818
0.499257
0.4987373
0.4972973
0.4962546
0.4959783
0.4959619
0.6523045
0.6995814
0.6990578
0.6986394
0.6983027
0.6978408
0.697438
0.6972797
0.6972308
0.8490323
0.8997134
0.899399
0.89912
0.898909
0.8987099
0.8985568
0.8984949
0.8984824
1.04899
1.099838
1.099663
1.099501
1.099373
1.099277
1.099223
1.099225
1.099269
1.249163
1.299915
1.299816
1.299723
1.299646
1.299595
1.299585
1.299637
1.29977
1.448814
1.499951
1.499902
1.499839
1.499782
1.499741
1.499735
1.499819
1.500104
1.648977
1.699965
1.699934
1.699888
1.69983
1.69976
1.699684
1.699679
1.70018
1.849006
1.899956
1.899946
1.899906
1.89983
1.899685
1.899382
1.898729
1.898714
2.048982
2.100012
2.099972
2.099922
2.099829
2.099606
2.098982
2.097051
2.04499
2.248986
2.300006
2.299984
2.299952
2.299885
2.299708
2.299179
2.297602
2.24297
2.200678
2.448993
2.500002
2.499998
2.499999
2.499999
2.499995
2.499967
2.499863
2.448707
2.648999
2.699999
2.700011
2.700045
2.700117
2.700297
2.700793
2.70214
2.652862
2.849008
2.900011
2.900025
2.900073
2.90018
2.900447
2.9012
2.903505
2.858858
3.049113
3.100024
3.100026
3.100071
3.100163
3.100362
3.100847
3.102159
3.103363
3.249184
3.299992
3.300021
3.300055
3.300107
3.300193
3.300324
3.300415
3.299724
3.448707
3.499968
3.500022
3.500039
3.500059
3.500078
3.500068
3.49994
3.499464
3.648959
3.700042
3.700023
3.700025
3.70003
3.700025
3.699987
3.699873
3.699623
3.849009
3.900014
3.900017
3.900019
3.90002
3.900011
3.899981
3.899912
3.899792
4.048978
4.100014
4.100019
4.100022
4.100023
4.10002
4.100003
4.099966
4.09991
4.248991
4.300008
4.30002
4.30003
4.30004
4.300045
4.300041
4.300023
4.299994
4.448993
4.50001
4.500027
4.500049
4.500071
4.500091
4.500101
4.500097
4.500078
4.648996
4.700011
4.700041
4.700079
4.700124
4.700171
4.700208
4.700221
4.700203
4.949997
4.900033
4.90006
4.900116
4.900197
4.900298
4.9004
4.90046
4.900443
0.2343486
0.2336083
0.2336206
0.2581195
0.2575074
0.2560308
0.2557194
0.2561368
0.4260102
0.4993166
0.4998557
0.5007335
0.5016861
0.50121
0.5005798
0.5003218
0.500681
0.6251351
0.6996957
0.6997577
0.699982
0.7001352
0.700017
0.699786
0.6997208
0.6997186
0.8233403
0.8999142
0.8996225
0.8995694
0.8995748
0.899529
0.8994594
0.8994323
0.8994242
1.024438
1.099889
1.099817
1.099777
1.09976
1.09974
1.099721
1.09972
1.09973
1.225099
1.299905
1.299921
1.299904
1.299892
1.299884
1.299886
1.299905
1.299944
1.423206
1.500076
1.499988
1.499962
1.49995
1.499939
1.499926
1.499944
1.500028
1.624457
1.7
1.699995
1.69998
1.699971
1.699934
1.699671
1.699381
1.699434
1.824478
1.899924
1.899992
1.899985
1.899974
1.8999
1.899265
1.897145
1.898049
2.024496
2.100078
2.1
2.099989
2.099972
2.099875
2.099146
2.09654
2.047639
2.224449
2.300016
2.299996
2.299992
2.29998
2.299911
2.299517
2.298768
2.245608
2.200695
2.424465
2.499995
2.499995
2.499998
2.500001
2.500003
2.499999
2.499966
2.44925
2.624466
2.69993
2.699986
2.700004
2.700023
2.700098
2.700491
2.701159
2.651564
2.824754
2.899985
2.899994
2.900009
2.900033
2.900147
2.900934
2.903716
2.855334
3.024212
3.099938
3.099987
3.100007
3.100026
3.100121
3.100848
3.103426
3.10388
3.250432
3.299959
3.299998
3.300008
3.300015
3.300059
3.300376
3.301103
3.302544
3.423296
3.500144
3.500035
3.500014
3.500009
3.500013
3.50005
3.500264
3.500408
3.623975
3.699985
3.700008
3.700007
3.700004
3.699998
3.69999
3.699976
3.699922
3.824767
3.900007
3.900008
3.900006
3.900003
3.899999
3.899989
3.899968
3.899934
4.024177
4.100073
4.100019
4.100009
4.100006
4.100004
4.099998
4.099988
4.099973
4.224464
4.300009
4.30001
4.30001
4.300012
4.300013
4.300011
4.300006
4.299998
4.424464
4.500002
4.500011
4.500018
4.500025
4.50003
4.500031
4.500028
4.500021
4.624482
4.699987
4.700017
4.700034
4.700052
4.700065
4.700071
4.700068
4.700058
4.824361
4.900012
4.899994
4.900008
4.900045
4.900081
4.900094
4.900093
4.900096
0.3481626
0.2333181
0.3775331
0.3475135
0.3465864
0.3489474
0.2340767
0.2335938
0.3483357
0.3481743
0.3492126
0.3493174
0.2335825
0.2335557
0.3480351
0.3479181
0.3493022
0.3492919
0.233552
0.2335449
0.3478632
0.3478193
0.3492856
0.3492795
0.2335445
0.2335435
0.3478027
0.3477888
0.349278
0.3492764
0.2335434
0.2335431
0.3477847
0.3477807
0.3492763
0.3492763
0.2335431
0.2335432
0.3477804
0.3477803
0.3492768
0.3492778
0.2335433
0.2335439
0.3477821
0.3477847
0.3492793
0.3492818
0.2335444
0.2335473
0.34779
0.347797
0.2335479
0.4503414
0.551005
0.4260043
0.4488225
0.5755723
0.5494699
0.6489446
0.7508799
0.6245023
0.6497575
0.7755479
0.7498446
0.8489654
0.950946
0.8244692
0.8499443
0.9755348
0.9499315
1.049004
1.15097
1.024463
1.049998
1.175535
1.149958
1.249018
1.350976
1.224464
1.250017
1.375536
1.349967
1.449021
1.550977
1.424464
1.450023
1.575536
1.54997
1.649022
1.750977
1.624464
1.650026
1.775536
1.749971
1.849022
1.950977
1.824464
1.850026
1.975536
1.949971
2.049022
2.150978
2.024464
2.050027
2.175536
2.149972
2.249022
2.350978
2.224464
2.250027
2.375536
2.349972
2.204483
2.350106
2.38747
2.24569
2.19892
2.347498
2.375201
2.200696
2.449022
2.550978
2.424464
2.450027
2.575536
2.549973
2.412474
2.551104
2.587496
2.449287
2.449827
2.550336
2.550404
2.649022
2.750978
2.624464
2.650028
2.775536
2.749973
2.612668
2.752208
2.788379
2.651696
2.651541
2.753736
2.782227
2.849022
2.950978
2.824464
2.850028
2.975536
2.949973
2.814364
2.95358
2.978527
2.855209
2.835478
2.953869
2.956384
2.978675
2.978275
3.049023
3.150978
3.024464
3.050028
3.175536
3.149973
3.249023
3.350978
3.224464
3.250028
3.375536
3.349973
3.449022
3.550978
3.424464
3.450028
3.575536
3.549973
3.649022
3.750978
3.624464
3.650028
3.775536
3.749973
3.849022
3.950978
3.824464
3.850028
3.975536
3.949973
4.049022
4.150978
4.024464
4.050028
4.175536
4.149973
4.249022
4.350978
4.224464
4.250028
4.375536
4.349973
4.449022
4.550978
4.424464
4.450028
4.575536
4.549973
4.649023
4.750978
4.624464
4.650028
4.775536
4.749973
4.849023
4.950978
4.824464
4.850029
4.975536
4.949975
0.2341579
0.3771267
0.349298
0.2337363
0.3789551
0.3496279
2.198873
2.346429
2.3753
2.242983
2.198821
2.345839
2.375295
2.200678
2.978456
0.2337276
0.3789664
0.3496435
0.2337044
0.379021
0.3496195
2.198815
2.345719
2.375291
2.242585
2.198814
2.345596
2.375284
2.200677
2.977973
2.977977
0.2337027
0.3790289
0.3495941
0.2336939
0.3790316
0.3495655
2.198812
2.345598
2.375284
2.242509
2.198812
2.345557
2.37528
2.200676
0.2336973
0.3790238
0.3495613
0.2336935
0.3790312
0.3495523
2.198811
2.345564
2.37528
2.242487
2.198812
2.345553
2.37528
2.200676
0.2336942
0.3790355
0.3495557
0.2336945
0.3790311
0.3495636
2.198812
2.345552
2.37528
2.242482
2.198811
2.345562
2.37528
2.200675
0.2336959
0.379022
0.3495624
0.2337062
0.3789933
0.3495845
2.198812
2.345552
2.37528
2.242501
2.198812
2.345591
2.375281
2.200675
0.2337066
0.3789968
0.3496177
0.2337239
0.3789891
0.3496576
2.198814
2.345585
2.375281
2.242638
2.198815
2.345705
2.375287
2.200675
0.2337329
0.3789826
0.3496592
0.234222
0.3771382
0.3494149
2.19882
2.345818
2.375289
2.243633
2.198868
2.346385
2.375271
2.20068
0.2334244
0.3775406
0.3478279
0.3484145
0.2336378
0.3491242
0.3485669
0.3472896
0.349239
0.2335918
0.3481802
0.3481961
0.3493121
0.3495924
0.2341813
0.3488224
0.3502456
0.2308489
0.3504907
0.3532683
0.2571801
0.3505599
0.3502325
0.2330828
0.2332877
0.3556367
0.3560105
0.2561945
0.3495194
0.3486313
0.232983
0.3550137
0.3534755
0.2558197
0.3483706
0.3479195
0.2306162
0.3539986
0.3529828
0.2559709
0.3484773
0.3482771
0.2327033
0.3546018
0.3537312
0.4489253
0.5759631
0.5494495
0.450397
0.5509211
0.6497317
0.7499859
0.7498391
0.6486904
0.7743275
0.7509005
0.8500002
0.975377
0.9499841
0.8248123
0.8492034
0.9510485
1.05
1.175778
1.149941
1.049012
1.150931
1.249972
1.349996
1.349962
1.248822
1.375681
1.350985
1.450074
1.5755
1.549984
1.449197
1.551008
1.650022
1.775529
1.749963
1.649023
1.750976
1.849975
1.975863
1.949736
1.848992
1.950794
2.050194
2.175379
2.150109
2.024996
2.049163
2.151087
2.250047
2.375539
2.349976
2.24903
2.350978
2.198911
2.347406
2.375123
2.246923
2.204267
2.349982
2.387454
2.203037
2.450029
2.575536
2.549976
2.449024
2.550979
2.449834
2.550311
2.550414
2.448785
2.41244
2.551133
2.574946
2.650028
2.775824
2.749916
2.649021
2.750885
2.651354
2.753548
2.78127
2.64955
2.624928
2.752636
2.77693
2.849971
2.975253
2.950039
2.848812
2.951193
3.050076
3.176902
3.149929
3.049089
3.150778
3.250073
3.349827
3.34986
3.225137
3.248888
3.374127
3.351015
3.450003
3.575508
3.549942
3.42479
3.44928
3.551068
3.650202
3.775829
3.749957
3.649062
3.750885
3.849976
3.975249
3.950034
3.848809
3.951192
4.050087
4.175534
4.149973
4.049116
4.150979
4.250025
4.375536
4.349972
4.249021
4.350976
4.450028
4.575537
4.549973
4.449022
4.550978
4.650009
4.775639
4.749906
4.649007
4.750902
4.850101
4.975525
4.950001
4.849103
4.950997
0.266321
0.2684234
0.2654392
0.2666618
0.2655441
0.2667062
0.2653622
0.2670686
0.2653901
0.2671068
0.265349
0.2670833
0.2653647
0.2671093
0.265346
0.2670797
0.2653589
0.2671081
0.2653453
0.2670791
0.2653576
0.2671078
0.2653452
0.2670789
0.2653573
0.2671078
0.2653456
0.2670789
0.2653575
0.2671079
0.2653488
0.2670795
0.2653594
0.2671089
0.2670819
0.2653671
0.4747267
0.4242598
0.424405
0.4755423
0.6749671
0.624331
0.6249364
0.6754295
0.8749929
0.8243574
0.8249856
0.8754492
1.074998
1.024367
1.024995
1.075454
1.274999
1.224369
1.224997
1.275455
1.475
1.42437
1.424998
1.475455
1.675
1.62437
1.624998
1.675455
1.875
1.82437
1.824998
1.875455
2.075
2.02437
2.024998
2.075455
2.043281
2.147394
2.16975
2.04766
2.047132
2.145618
2.163621
2.169408
2.167394
2.275
2.22437
2.224998
2.275455
2.200889
2.475
2.42437
2.424998
2.475455
2.675
2.62437
2.624998
2.675455
2.875
2.82437
2.824998
2.875455
2.891077
2.896491
3.075
3.02437
3.024998
3.075455
3.275
3.22437
3.224998
3.275455
3.475
3.42437
3.424998
3.475455
3.675
3.62437
3.624998
3.675455
3.875
3.82437
3.824998
3.875455
4.075
4.02437
4.024998
4.075455
4.275
4.22437
4.224998
4.275455
4.475
4.42437
4.424998
4.475455
4.675
4.62437
4.624998
4.675455
4.875
4.82437
4.824998
4.875455
0.2675305
0.2674677
2.045842
2.143501
2.163317
2.044996
2.045658
2.142485
2.163111
2.167404
2.167449
2.200681
2.65167
2.755601
2.782299
2.653004
2.651709
2.756181
2.781872
2.835796
2.956769
2.958532
2.858795
2.835465
2.957986
2.95955
2.897959
2.883262
0.2675689
0.2675666
2.045508
2.142182
2.163094
2.044416
2.04557
2.142
2.163081
2.167449
2.167457
2.200677
2.651795
2.756587
2.782085
2.653231
2.651804
2.756636
2.782068
2.835492
2.95853
2.959117
2.859373
2.835494
2.958685
2.959205
2.883234
2.897986
0.2675971
0.2675943
2.045522
2.141966
2.163078
2.044289
2.045562
2.141918
2.163077
2.167456
2.167458
2.200676
2.651722
2.756577
2.781822
2.65316
2.651678
2.756507
2.781681
2.835459
2.959101
2.960231
2.859446
2.835396
2.959232
2.960519
2.883881
2.884059
0.2675509
0.2675645
2.045542
2.141917
2.163076
2.044248
2.045554
2.141906
2.163076
2.167457
2.167458
2.200676
2.651664
2.756513
2.781676
2.653139
2.651662
2.756506
2.781673
2.835393
2.95934
2.960616
2.85947
2.835393
2.959352
2.960634
2.884115
2.884126
0.2675974
0.2675745
2.045554
2.141905
2.163076
2.044234
2.045541
2.141916
2.163076
2.167458
2.167457
2.200675
2.651661
2.756505
2.781673
2.653128
2.65166
2.75651
2.781673
2.835393
2.95936
2.960642
2.859463
2.835393
2.959378
2.960656
2.884117
2.884128
0.2675391
0.2675747
2.045561
2.141917
2.163077
2.044259
2.045522
2.141964
2.163078
2.167458
2.167456
2.200675
2.65166
2.756485
2.781673
2.653099
2.651655
2.756489
2.781672
2.835393
2.95933
2.960641
2.859417
2.835391
2.959359
2.960675
2.884116
2.88413
0.2675775
0.2675489
2.04557
2.141997
2.163081
2.044462
2.045508
2.142178
2.163093
2.167457
2.167449
2.200675
2.651648
2.756408
2.78167
2.652982
2.651622
2.756343
2.78166
2.83539
2.959209
2.960633
2.85919
2.835376
2.959134
2.960673
2.884115
2.884134
0.2675863
0.2676158
2.04566
2.142476
2.163111
2.045778
2.045843
2.14348
2.16331
2.16745
2.167409
2.200675
2.651566
2.756003
2.781648
2.652363
2.651481
2.755348
2.781465
2.835364
2.95853
2.960489
2.857746
2.835158
2.957479
2.960104
2.884117
2.88415
0.2669339
0.2673198
0.2558638
0.3475347
0.3479498
0.2306541
0.3517912
0.3531286
2.047119
2.145573
2.163601
2.04407
2.043249
2.147375
2.169545
2.167398
2.169289
2.200735
2.834863
2.954644
2.95809
2.852781
2.830186
2.956559
2.956195
2.884026
2.883684
0.2657989
0.2668655
0.2655915
0.2662166
0.321563
0.3749184
0.3737156
0.3231316
0.2669127
0.267282
0.2654204
0.2670468
0.2653958
0.266859
0.2653598
0.2670821
0.2653652
0.2671097
0.2653485
0.2670794
0.265359
0.2671092
0.2653459
0.267079
0.2653576
0.267108
0.2653453
0.2670789
0.2653572
0.2671077
0.2653452
0.2670789
0.2653574
0.2671078
0.2653459
0.2670793
0.2653585
0.267108
0.265351
0.2670815
0.2653655
0.2671095
0.5248368
0.5755855
0.5749159
0.5246141
0.7249763
0.7756148
0.7749876
0.7245259
0.9249951
0.9756273
0.9749988
0.9245404
1.124999
1.17563
1.175001
1.124544
1.325
1.37563
1.375002
1.324545
1.525
1.57563
1.575002
1.524545
1.725
1.77563
1.775002
1.724545
1.925
1.97563
1.975002
1.924545
2.125
2.17563
2.175002
2.124545
2.325
2.37563
2.375002
2.324545
2.270673
2.221109
2.286494
2.199768
2.219032
2.268873
2.273706
2.268508
2.199285
2.214989
2.266937
2.216224
2.267449
2.267367
2.200747
2.525
2.57563
2.575002
2.524545
2.725
2.77563
2.775002
2.724545
2.925
2.97563
2.975002
2.924545
2.897837
2.897254
3.125
3.17563
3.175002
3.124545
3.325
3.37563
3.375002
3.324545
3.525
3.57563
3.575002
3.524545
3.725
3.77563
3.775002
3.724545
3.925
3.97563
3.975002
3.924545
4.125
4.17563
4.175002
4.124545
4.325
4.37563
4.375002
4.324545
4.525
4.57563
4.575002
4.524545
4.725
4.77563
4.775002
4.724545
4.925
4.97563
4.924545
4.975002
0.2675497
0.2675603
2.266655
2.214381
2.266742
2.198837
2.266916
2.214138
2.266662
2.266568
2.198824
2.213956
2.266615
2.213991
2.26663
2.266502
2.200675
2.88382
2.883848
0.2675746
0.2675971
2.266456
2.213897
2.266609
2.198815
2.266485
2.213882
2.266605
2.266453
2.198812
2.213874
2.266603
2.213861
2.266604
2.266446
2.200675
2.883244
2.897991
0.2675819
0.2675879
2.266437
2.213857
2.266602
2.198812
2.266447
2.213852
2.266601
2.266438
2.198811