/*--------------------------------*- C++ -*----------------------------------*\
  =========                 |
  \\      /  F ield         | OpenFOAM: The Open Source CFD Toolbox
   \\    /   O peration     | Website:  https://openfoam.org
    \\  /    A nd           | Version:  7
     \\/     M anipulation  |
\*---------------------------------------------------------------------------*/
FoamFile
{
    version     2.0;
    format      ascii;
    class       volScalarField;
    location    "0.1";
    object      Cy;
}
// * * * * * * * * * * * * * * * * * * * * * * * * * * * * * * * * * * * * * //

dimensions      [0 1 0 0 0 0 0];

internalField   nonuniform List<scalar> 
109929
(
0.4498023
0.4502859
0.4502746
0.4502724
0.4502729
0.4502765
0.649942
0.6499112
0.6499052
0.6499045
0.6499052
0.6499069
0.8499908
0.8499805
0.8499792
0.8499796
0.8499801
0.8499806
1.049999
1.049996
1.049997
1.049997
1.049998
1.049998
1.249999
1.249998
1.249998
1.249999
1.249999
1.249999
1.449999
1.449998
1.449998
1.449999
1.449999
1.449999
1.649999
1.649998
1.649998
1.649999
1.649999
1.649999
1.849999
1.849998
1.849998
1.849998
1.849999
1.849999
2.049999
2.049998
2.049998
2.049998
2.049999
2.049999
2.249999
2.249998
2.249998
2.249998
2.249999
2.249999
2.449999
2.449998
2.449998
2.449998
2.449999
2.449999
2.649999
2.649998
2.649998
2.649998
2.649999
2.649999
2.849999
2.849998
2.849998
2.849998
2.849999
2.849999
3.049999
3.049998
3.049998
3.049998
3.049999
3.049999
3.249999
3.249998
3.249998
3.249998
3.249999
3.249999
3.449999
3.449998
3.449998
3.449998
3.449999
3.449999
3.649999
3.649998
3.649998
3.649998
3.649999
3.649999
3.849999
3.849998
3.849998
3.849998
3.849999
3.849999
4.049999
4.049998
4.049998
4.049999
4.049999
4.049999
4.249999
4.249998
4.249998
4.249999
4.249999
4.249999
4.45
4.449998
4.449999
4.449999
4.449999
4.449999
4.65
4.649999
4.65
4.650001
4.650001
4.650001
4.950002
4.85
4.850001
4.850002
4.850002
4.850001
0.2578177
0.2577722
0.2577761
0.2577775
0.2577779
0.25778
0.4512075
0.4997557
0.5001546
0.500202
0.5002068
0.5002083
0.6499992
0.6999236
0.6999619
0.6999792
0.6999863
0.6999901
0.8499983
0.8999913
0.8999993
0.9000083
0.9000145
0.9000177
1.05
1.100003
1.100009
1.100016
1.100021
1.100023
1.25
1.300003
1.300008
1.300013
1.300016
1.300018
1.45
1.500002
1.500006
1.500009
1.500011
1.500012
1.65
1.700001
1.700004
1.700005
1.700007
1.700008
1.85
1.900001
1.900002
1.900003
1.900004
1.900005
2.05
2.1
2.100001
2.100002
2.100002
2.100003
2.25
2.3
2.300001
2.300001
2.300001
2.300002
2.45
2.5
2.5
2.500001
2.500001
2.500001
2.65
2.7
2.7
2.7
2.7
2.7
2.85
2.9
2.9
2.9
2.9
2.9
3.05
3.1
3.1
3.1
3.1
3.1
3.25
3.3
3.3
3.3
3.3
3.3
3.45
3.5
3.5
3.5
3.5
3.5
3.65
3.7
3.7
3.7
3.700001
3.700001
3.85
3.9
3.900001
3.900001
3.900001
3.900001
4.05
4.100001
4.100001
4.100002
4.100003
4.100003
4.25
4.300001
4.300003
4.300004
4.300005
4.300005
4.45
4.500001
4.500003
4.500005
4.500006
4.500007
4.650001
4.699999
4.700001
4.700003
4.700004
4.700004
4.950001
4.899996
4.899997
4.899998
4.899999
4.899999
0.257894
0.2577941
0.2578023
0.2578064
0.2578067
0.257806
0.4519451
0.5001189
0.500806
0.5009829
0.5010263
0.5010348
0.650024
0.70009
0.7003192
0.7004536
0.7005048
0.700521
0.8499979
0.9000526
0.9001364
0.9002004
0.9002332
0.9002468
1.05
1.100028
1.100068
1.100103
1.100125
1.100136
1.25
1.300015
1.300036
1.300056
1.300069
1.300077
1.449999
1.500008
1.50002
1.500031
1.500039
1.500044
1.649999
1.700005
1.700011
1.700017
1.700022
1.700025
1.849999
1.900002
1.900006
1.90001
1.900012
1.900014
2.049999
2.100001
2.100003
2.100005
2.100007
2.100008
2.249999
2.300001
2.300002
2.300003
2.300004
2.300005
2.449999
2.5
2.500001
2.500002
2.500002
2.500002
2.649999
2.7
2.7
2.700001
2.700001
2.700001
2.849999
2.9
2.9
2.9
2.900001
2.900001
3.049999
3.1
3.1
3.1
3.1
3.1
3.249999
3.3
3.3
3.3
3.3
3.3
3.449999
3.5
3.5
3.5
3.5
3.5
3.649999
3.7
3.7
3.7
3.7
3.7
3.849999
3.9
3.9
3.9
3.900001
3.900001
4.049999
4.1
4.1
4.100001
4.100001
4.100001
4.249999
4.3
4.3
4.300001
4.300002
4.300002
4.449999
4.499999
4.499999
4.5
4.500001
4.500001
4.649999
4.699998
4.699997
4.699998
4.699998
4.699998
4.849999
4.899997
4.899996
4.899996
4.899996
4.899996
0.2579038
0.2578074
0.2578172
0.2578225
0.2578228
0.2578208
0.4519658
0.5001665
0.5008959
0.5011147
0.5011799
0.5011942
0.6500303
0.7001573
0.7004767
0.700694
0.7007906
0.7008204
0.8499998
0.9000946
0.9002446
0.900379
0.9004563
0.9004859
1.050001
1.10005
1.100123
1.100195
1.100241
1.100261
1.250001
1.300026
1.300064
1.300103
1.300131
1.300145
1.45
1.500014
1.500034
1.500055
1.500071
1.50008
1.65
1.700007
1.700018
1.70003
1.700039
1.700045
1.85
1.900004
1.90001
1.900016
1.900021
1.900025
2.05
2.100002
2.100005
2.100009
2.100012
2.100014
2.25
2.300001
2.300003
2.300005
2.300007
2.300008
2.45
2.500001
2.500002
2.500003
2.500004
2.500004
2.65
2.7
2.700001
2.700001
2.700002
2.700002
2.85
2.9
2.9
2.900001
2.900001
2.900001
3.05
3.1
3.1
3.1
3.100001
3.100001
3.25
3.3
3.3
3.3
3.3
3.3
3.45
3.5
3.5
3.5
3.5
3.5
3.65
3.7
3.7
3.7
3.7
3.7
3.85
3.9
3.9
3.899999
3.899999
3.899999
4.05
4.099999
4.099999
4.099999
4.099999
4.099999
4.25
4.299999
4.299998
4.299997
4.299997
4.299997
4.45
4.499998
4.499996
4.499995
4.499994
4.499994
4.649999
4.699997
4.699995
4.699993
4.699992
4.699992
4.849999
4.899998
4.899996
4.899994
4.899992
4.899992
0.257906
0.2578111
0.2578219
0.2578275
0.2578279
0.2578255
0.4519627
0.5001728
0.5009101
0.50114
0.5012132
0.5012303
0.6500314
0.7001771
0.7005206
0.7007614
0.7008766
0.7009145
0.8500008
0.9001121
0.9002891
0.9004585
0.9005671
0.9006121
1.050001
1.100061
1.100153
1.100251
1.100326
1.100365
1.250001
1.300032
1.30008
1.300133
1.300174
1.300198
1.45
1.500017
1.500043
1.500071
1.500093
1.500107
1.65
1.700009
1.700023
1.700038
1.70005
1.700058
1.85
1.900005
1.900012
1.900021
1.900028
1.900032
2.05
2.100003
2.100007
2.100011
2.100015
2.100018
2.25
2.300002
2.300004
2.300006
2.300008
2.30001
2.45
2.500001
2.500002
2.500003
2.500005
2.500005
2.65
2.7
2.700001
2.700002
2.700003
2.700003
2.85
2.9
2.900001
2.900001
2.900001
2.900001
3.05
3.1
3.1
3.1
3.100001
3.100001
3.25
3.3
3.3
3.3
3.3
3.3
3.45
3.5
3.5
3.5
3.5
3.5
3.65
3.7
3.7
3.699999
3.699999
3.699999
3.85
3.9
3.899999
3.899999
3.899998
3.899998
4.05
4.099999
4.099998
4.099997
4.099997
4.099996
4.25
4.299998
4.299997
4.299995
4.299993
4.299992
4.45
4.499997
4.499995
4.499992
4.49999
4.499988
4.65
4.699997
4.699994
4.69999
4.699987
4.699986
4.85
4.899998
4.899995
4.899992
4.899989
4.899987
0.2579056
0.2578113
0.2578221
0.2578277
0.2578281
0.2578257
0.4519666
0.5001728
0.5009101
0.50114
0.5012132
0.5012303
0.6500318
0.700177
0.7005206
0.7007614
0.7008767
0.7009146
0.850001
0.9001121
0.9002891
0.9004585
0.9005671
0.9006121
1.050002
1.100061
1.100153
1.100251
1.100326
1.100365
1.250001
1.300032
1.30008
1.300133
1.300174
1.300198
1.450001
1.500017
1.500043
1.500071
1.500093
1.500107
1.65
1.700009
1.700023
1.700038
1.70005
1.700058
1.85
1.900005
1.900012
1.900021
1.900028
1.900032
2.05
2.100003
2.100007
2.100011
2.100015
2.100018
2.25
2.300001
2.300004
2.300006
2.300008
2.30001
2.45
2.500001
2.500002
2.500003
2.500005
2.500006
2.65
2.7
2.700001
2.700002
2.700003
2.700003
2.85
2.9
2.900001
2.900001
2.900001
2.900002
3.05
3.1
3.1
3.1
3.100001
3.100001
3.25
3.3
3.3
3.3
3.3
3.3
3.45
3.5
3.5
3.5
3.5
3.5
3.65
3.7
3.7
3.699999
3.699999
3.699999
3.85
3.9
3.899999
3.899999
3.899998
3.899998
4.05
4.099999
4.099998
4.099997
4.099997
4.099996
4.25
4.299998
4.299997
4.299995
4.299993
4.299992
4.45
4.499997
4.499995
4.499992
4.499989
4.499988
4.65
4.699997
4.699994
4.69999
4.699987
4.699985
4.85
4.899998
4.899994
4.89999
4.899986
4.899984
0.2579054
0.2578096
0.2578198
0.2578252
0.2578255
0.2578232
0.4519599
0.5001656
0.5008958
0.5011147
0.50118
0.5011942
0.6500308
0.7001569
0.7004767
0.7006942
0.7007908
0.7008206
0.8500006
0.9000946
0.9002446
0.900379
0.9004563
0.9004859
1.050002
1.10005
1.100123
1.100195
1.100241
1.100261
1.250001
1.300026
1.300064
1.300103
1.300131
1.300145
1.450001
1.500014
1.500034
1.500055
1.500071
1.50008
1.65
1.700007
1.700018
1.70003
1.700039
1.700045
1.85
1.900004
1.90001
1.900016
1.900021
1.900025
2.05
2.100002
2.100005
2.100009
2.100012
2.100014
2.25
2.300001
2.300003
2.300005
2.300007
2.300008
2.45
2.500001
2.500002
2.500003
2.500004
2.500004
2.65
2.7
2.700001
2.700002
2.700002
2.700002
2.85
2.9
2.9
2.900001
2.900001
2.900001
3.05
3.1
3.1
3.1
3.100001
3.100001
3.25
3.3
3.3
3.3
3.3
3.3
3.45
3.5
3.5
3.5
3.5
3.5
3.65
3.7
3.7
3.7
3.7
3.7
3.85
3.9
3.9
3.899999
3.899999
3.9
4.05
4.099999
4.099999
4.099999
4.099999
4.099999
4.25
4.299999
4.299998
4.299997
4.299997
4.299997
4.45
4.499998
4.499996
4.499995
4.499994
4.499994
4.65
4.699997
4.699994
4.699992
4.69999
4.699989
4.85
4.899997
4.899994
4.899991
4.899987
4.899984
0.2578994
0.2577985
0.2578067
0.2578113
0.2578115
0.25781
0.4519589
0.5001189
0.5008062
0.5009831
0.5010266
0.501035
0.6500291
0.70009
0.7003192
0.7004535
0.7005047
0.7005208
0.8499997
0.9000526
0.9001363
0.9002003
0.9002332
0.9002468
1.050001
1.100028
1.100068
1.100103
1.100125
1.100136
1.250001
1.300015
1.300036
1.300056
1.300069
1.300077
1.450001
1.500008
1.50002
1.500031
1.500039
1.500044
1.650001
1.700005
1.700011
1.700017
1.700022
1.700025
1.850001
1.900002
1.900006
1.90001
1.900012
1.900014
2.050001
2.100001
2.100003
2.100005
2.100007
2.100008
2.250001
2.300001
2.300002
2.300003
2.300004
2.300005
2.450001
2.5
2.500001
2.500002
2.500002
2.500002
2.650001
2.7
2.7
2.700001
2.700001
2.700001
2.850001
2.9
2.9
2.9
2.900001
2.900001
3.050001
3.1
3.1
3.1
3.1
3.1
3.250001
3.3
3.3
3.3
3.3
3.3
3.450001
3.5
3.5
3.5
3.5
3.5
3.650001
3.7
3.7
3.7
3.7
3.700001
3.850001
3.9
3.9
3.900001
3.900001
3.900001
4.050001
4.1
4.1
4.100001
4.100002
4.100002
4.250001
4.3
4.3
4.300001
4.300002
4.300002
4.45
4.499999
4.5
4.5
4.500001
4.500002
4.65
4.699998
4.699997
4.699997
4.699998
4.699998
4.85
4.899997
4.899995
4.899994
4.899992
4.89999
0.2579217
0.2578584
0.2578664
0.2578691
0.2578695
0.2578701
0.451795
0.4997564
0.5001548
0.5002021
0.5002068
0.5002083
0.6500148
0.6999238
0.6999619
0.6999792
0.6999863
0.6999901
0.8499991
0.8999914
0.8999994
0.9000083
0.9000145
0.9000177
1.050001
1.100003
1.100009
1.100016
1.100021
1.100023
1.250001
1.300003
1.300008
1.300013
1.300016
1.300018
1.450001
1.500002
1.500006
1.500009
1.500011
1.500012
1.650001
1.700001
1.700004
1.700005
1.700007
1.700008
1.850001
1.900001
1.900002
1.900003
1.900004
1.900005
2.050001
2.1
2.100001
2.100002
2.100002
2.100003
2.250001
2.3
2.300001
2.300001
2.300001
2.300002
2.450001
2.5
2.5
2.500001
2.500001
2.500001
2.650001
2.7
2.7
2.7
2.7
2.7
2.850001
2.9
2.9
2.9
2.9
2.9
3.050001
3.1
3.1
3.1
3.1
3.1
3.250001
3.3
3.3
3.3
3.3
3.3
3.450001
3.5
3.5
3.5
3.5
3.5
3.650001
3.7
3.7
3.7
3.700001
3.700001
3.850001
3.9
3.900001
3.900001
3.900001
3.900002
4.050001
4.100001
4.100001
4.100002
4.100003
4.100003
4.250001
4.300001
4.300003
4.300005
4.300006
4.300006
4.450001
4.500002
4.500004
4.500006
4.500008
4.500008
4.650001
4.7
4.700002
4.700004
4.700007
4.700008
4.950001
4.899996
4.899999
4.900002
4.900004
4.900005
0.2297196
0.2295218
0.2295192
0.2295193
0.2295193
0.2295197
0.4269815
0.4487809
0.4488108
0.4488117
0.4488121
0.4488139
0.4488241
0.6245285
0.6498504
0.6497792
0.6497753
0.6497776
0.6497798
0.6497848
0.8245256
0.8499782
0.8499503
0.8499525
0.8499561
0.8499581
0.8499597
1.024526
1.049996
1.049979
1.049984
1.049987
1.049989
1.04999
1.224526
1.249998
1.249983
1.249987
1.249991
1.249993
1.249993
1.424526
1.449998
1.449983
1.449987
1.449991
1.449992
1.449993
1.624526
1.649998
1.649982
1.649987
1.64999
1.649991
1.649992
1.824526
1.849998
1.849982
1.849986
1.849989
1.849991
1.849991
2.024526
2.049998
2.049982
2.049986
2.049989
2.04999
2.049991
2.224526
2.249998
2.249982
2.249986
2.249989
2.24999
2.24999
2.424526
2.449998
2.449982
2.449986
2.449989
2.44999
2.44999
2.624526
2.649998
2.649982
2.649986
2.649989
2.64999
2.64999
2.824526
2.849998
2.849982
2.849986
2.849989
2.84999
2.84999
3.024526
3.049998
3.049982
3.049986
3.049989
3.04999
3.04999
3.224526
3.249998
3.249982
3.249986
3.249989
3.24999
3.24999
3.424526
3.449998
3.449982
3.449986
3.449989
3.44999
3.44999
3.624526
3.649998
3.649982
3.649986
3.649989
3.64999
3.64999
3.824526
3.849998
3.849982
3.849986
3.849989
3.84999
3.84999
4.024526
4.049998
4.049982
4.049986
4.049989
4.04999
4.04999
4.224526
4.249998
4.249982
4.249986
4.249989
4.24999
4.24999
4.424526
4.449998
4.449983
4.449987
4.44999
4.449991
4.449991
4.624526
4.649999
4.649984
4.649988
4.649991
4.649993
4.649992
4.824526
4.950003
4.849985
4.849989
4.849993
4.849995
4.849995
0.375366
0.2279637
0.3772453
0.3456579
0.4255364
0.575485
0.4269809
0.4490378
0.5754838
0.5497676
0.6244887
0.7754981
0.6245285
0.6499306
0.7754742
0.7499767
0.8244984
0.9755003
0.8245257
0.8499921
0.9754743
0.9499973
1.0245
1.1755
1.024526
1.049999
1.175474
1.15
1.2245
1.3755
1.224526
1.25
1.375474
1.35
1.4245
1.5755
1.424526
1.45
1.575474
1.55
1.6245
1.7755
1.624526
1.65
1.775474
1.75
1.8245
1.9755
1.824526
1.85
1.975474
1.95
2.0245
2.1755
2.024526
2.05
2.175474
2.15
2.2245
2.3755
2.224526
2.25
2.375474
2.35
2.4245
2.5755
2.424526
2.45
2.575474
2.55
2.6245
2.7755
2.624526
2.65
2.775474
2.75
2.8245
2.9755
2.824526
2.85
2.975474
2.95
3.0245
3.1755
3.024526
3.05
3.175474
3.15
3.2245
3.3755
3.224526
3.25
3.375474
3.35
3.4245
3.5755
3.424526
3.45
3.575474
3.55
3.6245
3.7755
3.624526
3.65
3.775474
3.75
3.8245
3.9755
3.824526
3.85
3.975474
3.95
4.0245
4.1755
4.024526
4.05
4.175474
4.15
4.2245
4.3755
4.224526
4.25
4.375474
4.35
4.4245
4.5755
4.424526
4.45
4.575474
4.55
4.6245
4.775501
4.624526
4.650001
4.775474
4.750001
4.8245
4.975001
4.824526
4.850001
4.975475
4.949999
0.2297446
0.3761192
0.3463878
0.2295707
0.3780291
0.3466786
0.2295699
0.3780391
0.3467453
0.2295676
0.3780641
0.3467652
0.2295681
0.3780603
0.3467734
0.2295678
0.3780605
0.3467734
0.2295685
0.3780469
0.3467721
0.2295677
0.3780644
0.3467717
0.2295677
0.3780659
0.3467743
0.2295677
0.3780635
0.3467739
0.2295682
0.3780509
0.3467693
0.2295689
0.3780257
0.3467634
0.2295681
0.3780402
0.3467618
0.2295689
0.3780676
0.3467497
0.2295696
0.3780628
0.3466841
0.2297445
0.3761249
0.3463916
0.2279635
0.3772495
0.345658
0.3753649
0.3464516
0.376559
0.6499307
0.7754743
0.7499767
0.6244887
0.7754981
4.650001
4.775474
4.750001
4.6245
4.775501
4.850001
4.975475
4.949999
4.8245
4.975001
0.2662712
0.2837012
0.3748616
0.376554
0.2297196
0.2295238
0.3462044
0.3464192
0.3765582
0.3765583
0.2295217
0.2295191
0.3464426
0.3464434
0.3765581
0.3765578
0.2295191
0.2295192
0.3464426
0.3464423
0.3765579
0.376558
0.2295192
0.2295192
0.3464423
0.3464425
0.3765581
0.3765585
0.2295192
0.2295194
0.3464433
0.3464454
0.3765589
0.2295196
0.3464516
0.4749095
0.4121656
0.4247341
0.4877548
0.6749969
0.6122394
0.624993
0.6877591
0.8749999
0.8122407
0.8249994
0.8877594
1.075
1.012241
1.025
1.087759
1.275
1.212241
1.225
1.287759
1.475
1.412241
1.425
1.487759
1.675
1.612241
1.625
1.687759
1.875
1.812241
1.825
1.887759
2.075
2.012241
2.025
2.087759
2.275
2.212241
2.225
2.287759
2.475
2.412241
2.425
2.487759
2.675
2.612241
2.625
2.687759
2.875
2.812241
2.825
2.887759
3.075
3.012241
3.025
3.087759
3.275
3.212241
3.225
3.287759
3.475
3.412241
3.425
3.487759
3.675
3.612241
3.625
3.687759
3.875
3.812241
3.825
3.887759
4.075
4.012241
4.025
4.087759
4.275
4.212241
4.225
4.287759
4.475
4.412241
4.425
4.487759
4.675
4.612241
4.625
4.687759
4.875001
4.812241
4.825
4.887759
0.2659023
0.2658616
0.2659383
0.2659404
0.2659672
0.2659646
0.2659353
0.2659454
0.2659698
0.2659471
0.265928
0.2659535
0.2659477
0.2659325
0.2659413
0.2659719
0.2657699
0.2657822
0.2295239
0.3462049
0.34642
0.3748614
0.3765545
0.2295192
0.3464435
0.3464442
0.3765587
0.3765588
0.2295193
0.3464435
0.3464431
0.3765585
0.3765584
0.2295193
0.3464431
0.3464433
0.3765584
0.3765585
0.2295194
0.346444
0.3464458
0.3765586
0.3765586
0.4490385
0.5754839
0.549768
0.425536
0.5754849
0.8499921
0.9754743
0.9499973
0.8244985
0.9755002
1.049999
1.175474
1.15
1.0245
1.1755
1.25
1.375474
1.35
1.2245
1.3755
1.45
1.575474
1.55
1.4245
1.5755
1.65
1.775474
1.75
1.6245
1.7755
1.85
1.975474
1.95
1.8245
1.9755
2.05
2.175474
2.15
2.0245
2.1755
2.25
2.375474
2.35
2.2245
2.3755
2.45
2.575474
2.55
2.4245
2.5755
2.65
2.775474
2.75
2.6245
2.7755
2.85
2.975474
2.95
2.8245
2.9755
3.05
3.175474
3.15
3.0245
3.1755
3.25
3.375474
3.35
3.2245
3.3755
3.45
3.575474
3.55
3.4245
3.5755
3.65
3.775474
3.75
3.6245
3.7755
3.85
3.975474
3.95
3.8245
3.9755
4.05
4.175474
4.15
4.0245
4.1755
4.25
4.375474
4.35
4.2245
4.3755
4.45
4.575474
4.55
4.4245
4.5755
0.2651421
0.2831251
0.2647565
0.2827586
0.321962
0.3875776
0.3741178
0.3106658
0.2657766
0.2657744
0.5249646
0.5877577
0.5749853
0.512237
0.7249982
0.7877594
0.7749993
0.7122405
0.9249997
0.9877593
0.9750001
0.9122407
1.125
1.187759
1.175
1.112241
1.325
1.387759
1.375
1.312241
1.525
1.587759
1.575
1.512241
1.725
1.787759
1.775
1.712241
1.925
1.987759
1.975
1.912241
2.125
2.187759
2.175
2.112241
2.325
2.387759
2.375
2.312241
2.525
2.587759
2.575
2.512241
2.725
2.787759
2.775
2.712241
2.925
2.987759
2.975
2.912241
3.125
3.187759
3.175
3.112241
3.325
3.387759
3.375
3.312241
3.525
3.587759
3.575
3.512241
3.725
3.787759
3.775
3.712241
3.925
3.987759
3.975
3.912241
4.125
4.187759
4.175
4.112241
4.325
4.387759
4.375
4.312241
4.525
4.587759
4.575
4.512241
4.725
4.787759
4.775
4.712241
4.925001
4.987504
4.912241
4.975002
0.265922
0.2659361
0.2659413
0.2659674
0.2659497
0.2659608
0.2659415
0.2659357
0.2659486
0.2659549
0.2659049
0.2659134
0.2659709
0.2659572
0.2659244
0.2658717
0.2662597
0.2836604
0.2651355
0.283123
0.2647548
0.2827348
0.3219472
0.3875756
0.3741135
0.3106419
0.2646765
0.2831187
0.2646753
0.6749969
0.6122394
0.6249931
0.6877591
4.675
4.612241
4.625
4.687759
4.725
4.787759
4.775
4.712241
4.875001
4.812241
4.825
4.887759
4.925001
4.987759
4.912241
4.975002
5.024526
5.024999
5.024526
5.05
5.05
5.024999
5.012497
5.025001
5.012241
5.025001
0.2276629
0.229801
0.2831113
0.2646905
0.2646787
0.2831133
0.2646747
0.2831188
0.2646752
0.2831184
0.2646742
0.2831185
0.2646742
0.2831186
0.2646742
0.2831186
0.2646742
0.2831187
0.2646743
0.2831187
0.2646743
0.2831187
0.2646765
0.2831187
0.2646753
0.2831189
0.4374885
0.4124838
0.4124683
0.4374952
0.6374999
0.6124987
0.6124982
0.6375003
0.8375
0.8124988
0.8124984
0.8375004
1.0375
1.012499
1.012498
1.0375
1.2375
1.212499
1.212498
1.2375
1.4375
1.412499
1.412498
1.4375
1.6375
1.612499
1.612498
1.6375
1.8375
1.812499
1.812498
1.8375
2.0375
2.012499
2.012498
2.0375
2.2375
2.212499
2.212498
2.2375
2.4375
2.412499
2.412498
2.4375
2.6375
2.612499
2.612498
2.6375
2.8375
2.812499
2.812498
2.8375
3.0375
3.012499
3.012498
3.0375
3.2375
3.212499
3.212498
3.2375
3.4375
3.412499
3.412498
3.4375
3.6375
3.612499
3.612498
3.6375
3.8375
3.812499
3.812498
3.8375
4.0375
4.012499
4.012498
4.0375
4.2375
4.212499
4.212498
4.2375
4.4375
4.412499
4.412498
4.4375
4.6375
4.612499
4.612498
4.6375
4.8375
4.812499
4.812498
4.8375
0.2269805
0.2269255
0.2269891
0.2269408
0.2269763
0.2269767
0.2269767
0.2269605
0.2269918
0.2269356
0.2269581
0.2270084
0.226962
0.2269763
0.227058
0.2270589
0.2269527
0.2269226
0.225915
0.2266471
0.2259019
0.22666
0.3622685
0.387457
0.3874179
0.3623737
0.2269134
0.2269058
0.5624994
0.5875011
0.5875013
0.5624994
0.7625
0.7875012
0.7875016
0.7624996
0.9625
0.9875012
0.9875016
0.9624996
1.1625
1.187501
1.187502
1.1625
1.3625
1.387501
1.387502
1.3625
1.5625
1.587501
1.587502
1.5625
1.7625
1.787501
1.787502
1.7625
1.9625
1.987501
1.987502
1.9625
2.1625
2.187501
2.187502
2.1625
2.3625
2.387501
2.387502
2.3625
2.5625
2.587501
2.587502
2.5625
2.7625
2.787501
2.787502
2.7625
2.9625
2.987501
2.987502
2.9625
3.1625
3.187501
3.187502
3.1625
3.3625
3.387501
3.387502
3.3625
3.5625
3.587501
3.587502
3.5625
3.7625
3.787501
3.787502
3.7625
3.9625
3.987501
3.987502
3.9625
4.1625
4.187501
4.187502
4.1625
4.3625
4.387501
4.387502
4.3625
4.5625
4.587501
4.587502
4.5625
4.7625
4.787501
4.787502
4.7625
4.987502
4.987501
4.9625
4.9625
0.2269864
0.22694
0.2270076
0.2270612
0.227034
0.2270093
0.2269312
0.2269408
0.2269448
0.227033
0.2269002
0.2269228
0.2269435
0.2269566
0.2269945
0.2269334
0.2276325
0.2295736
0.2259137
0.2266465
0.2259013
0.2266582
0.3622654
0.3874555
0.3874164
0.3623699
0.2258907
0.2266397
0.2258931
0.2266364
0.6374999
0.6124987
0.6124982
0.6375004
0.7249982
0.7877594
0.7749994
0.7122405
4.7625
4.787501
4.787502
4.7625
4.8375
4.812499
4.8375
4.812498
4.987501
4.987501
4.9625
4.9625
0.2268692
0.22712
0.2262515
0.2279821
0.2562504
0.2856911
0.2843564
0.2593112
0.2272814
0.2270209
0.2646768
0.2831189
0.2646758
0.2831163
0.2646744
0.2831185
0.2646743
0.2831184
0.2646742
0.2831186
0.2646742
0.2831186
0.2646743
0.2831187
0.2646743
0.2831187
0.2646745
0.2831187
0.2646747
0.2831187
0.4624949
0.4875002
0.487499
0.4624976
0.6624999
0.6875012
0.6875015
0.6624996
0.8625
0.8875012
0.8875016
0.8624996
1.0625
1.087501
1.087502
1.0625
1.2625
1.287501
1.287502
1.2625
1.4625
1.487501
1.487502
1.4625
1.6625
1.687501
1.687502
1.6625
1.8625
1.887501
1.887502
1.8625
2.0625
2.087501
2.087502
2.0625
2.2625
2.287501
2.287502
2.2625
2.4625
2.487501
2.487502
2.4625
2.6625
2.687501
2.687502
2.6625
2.8625
2.887501
2.887502
2.8625
3.0625
3.087501
3.087502
3.0625
3.2625
3.287501
3.287502
3.2625
3.4625
3.487501
3.487502
3.4625
3.6625
3.687501
3.687502
3.6625
3.8625
3.887501
3.887502
3.8625
4.0625
4.087501
4.087502
4.0625
4.2625
4.287501
4.287502
4.2625
4.4625
4.487501
4.487502
4.4625
4.6625
4.687501
4.687502
4.6625
4.8625
4.887501
4.887502
4.8625
0.2269701
0.2269178
0.2269789
0.2269322
0.2270601
0.2270056
0.226936
0.2269387
0.227025
0.2270245
0.2269704
0.2269204
0.2269103
0.226997
0.2269535
0.2269346
0.2269167
0.2269262
0.2831106
0.2646907
0.2831185
0.2646819
0.2831244
0.2831217
0.2646807
0.2646798
0.2831243
0.2831239
0.2646787
0.2646792
0.283124
0.2831239
0.2646784
0.2646783
0.283124
0.2831241
0.2646783
0.2646783
0.2831242
0.2831241
0.2646783
0.2646782
0.2831242
0.2831242
0.2646783
0.2646783
0.2831242
0.2831242
0.2646783
0.2646783
0.2831242
0.2831242
0.2646783
0.2646783
0.2831188
0.2646754
0.2831241
0.2646778
0.4121648
0.4247331
0.4877547
0.4749093
0.5877577
0.5749854
0.5122371
0.5249645
0.8122408
0.8249992
0.8877593
0.8749999
0.9877593
0.9122407
0.9249998
0.9750002
1.012241
1.087759
1.075
1.025
1.187759
1.112241
1.125
1.175
1.212241
1.287759
1.275
1.225
1.387759
1.312241
1.325
1.375
1.412241
1.487759
1.475
1.425
1.612241
1.687759
1.675
1.625
1.787759
1.712241
1.725
1.775
1.812241
1.887759
1.875
1.825
1.987759
1.912241
1.925
1.975
2.012241
2.087759
2.075
2.025
2.187759
2.112241
2.125
2.175
2.212241
2.287759
2.275
2.225
2.387759
2.312241
2.325
2.375
2.412241
2.487759
2.475
2.425
2.587759
2.512241
2.525
2.575
2.612241
2.687759
2.675
2.625
2.787759
2.712241
2.725
2.775
2.812241
2.887759
2.875
2.825
2.987759
2.912241
2.925
2.975
3.012241
3.087759
3.075
3.025
3.187759
3.112241
3.125
3.175
3.212241
3.287759
3.275
3.225
3.412241
3.487759
3.475
3.425
3.587759
3.512241
3.525
3.575
3.612241
3.687759
3.675
3.625
3.812241
3.887759
3.875
3.825
3.987759
3.912241
3.925
3.975
4.012241
4.087759
4.075
4.025
4.187759
4.112241
4.125
4.175
4.212241
4.287759
4.275
4.225
4.387759
4.312241
4.325
4.375
4.412241
4.487759
4.475
4.425
4.587759
4.575
4.512241
4.525
0.2259476
0.2268149
0.2260336
0.2266986
0.3369028
0.3116693
0.3110616
0.3371672
0.2269544
0.226946
0.5374991
0.5124982
0.5124969
0.5375
0.7375
0.7124988
0.7124984
0.7375004
0.9375
0.9124988
0.9124984
0.9375004
1.1375
1.112499
1.112498
1.1375
1.3375
1.312499
1.312498
1.3375
1.5375
1.512499
1.512498
1.5375
1.7375
1.712499
1.712498
1.7375
1.9375
1.912499
1.912498
1.9375
2.1375
2.112499
2.112498
2.1375
2.3375
2.312499
2.312498
2.3375
2.5375
2.512499
2.512498
2.5375
2.7375
2.712499
2.712498
2.7375
2.9375
2.912499
2.912498
2.9375
3.1375
3.112499
3.112498
3.1375
3.3375
3.312499
3.312498
3.3375
3.5375
3.512499
3.512498
3.5375
3.7375
3.712499
3.712498
3.7375
3.9375
3.912499
3.912498
3.9375
4.1375
4.112499
4.112498
4.1375
4.3375
4.312499
4.312498
4.3375
4.5375
4.512499
4.512498
4.5375
4.7375
4.712499
4.712498
4.7375
4.9375
4.912499
4.912499
4.9375
0.2269728
0.2269186
0.2269407
0.2269428
0.2269468
0.226938
0.2269782
0.2269881
0.2269329
0.2269901
0.2268944
0.2268994
0.2270126
0.2270743
0.2270117
0.226986
0.2272887
0.2270119
0.2268652
0.2270947
0.2279393
0.2262386
0.2561825
0.2856128
0.2591184
0.2843165
0.2259457
0.2268046
0.226028
0.2266952
0.3368938
0.3116395
0.3110412
0.3371557
0.2258908
0.2266364
0.6624999
0.6875012
0.6624996
0.6875015
4.6625
4.687501
4.6625
4.687502
4.7375
4.712499
4.712498
4.7375
4.8625
4.887501
4.8625
4.887502
4.937501
4.912499
4.912499
4.937501
5.012499
5.012499
5.0375
5.0375
0.2266417
0.2258966
0.2258919
0.2266368
0.2258908
0.2266398
0.2258931
0.2266365
0.2258908
0.2266397
0.2258931
0.2266365
0.2258908
0.2266397
0.2258931
0.2266364
0.2258908
0.2266397
0.2258931
0.2266364
0.2258908
0.2266397
0.2258931
0.2266364
4.6375
4.612499
4.612498
4.6375
0.2258908
0.2266398
0.2258931
0.2266365
0.2258908
0.2266397
0.2258931
0.2266365
0.2258908
0.2266397
0.2258931
0.2266364
0.2258908
0.2266397
0.2258931
0.2266364
0.2258908
0.2266397
0.2258931
0.2266364
0.2266342
0.2266342
0.2258895
0.2258895
0.2266343
0.2266342
0.2258895
0.2258895
0.2266342
0.2266341
0.2258895
0.2258895
0.2266342
0.2266341
0.2258895
0.2258895
0.2266342
0.2266341
0.2258895
0.2258895
0.2266342
0.2266341
0.2258895
0.2258895
0.4124833
0.437495
0.4124676
0.4374883
0.587501
0.5875012
0.562499
0.5624987
0.8124992
0.8375013
0.8375016
0.8124993
1.587759
1.512241
1.525
1.575
1.612499
1.637501
1.637501
1.612499
2.0375
2.012499
2.0375
2.012498
2.187501
2.1625
2.1625
2.187501
2.212499
2.2375
2.2375
2.212498
2.387501
2.362499
2.362499
2.387501
2.412499
2.4375
2.4375
2.412499
2.587501
2.562499
2.562499
2.587501
2.612499
2.637501
2.637501
2.612499
2.787501
2.762499
2.762499
2.787501
2.812499
2.837501
2.837501
2.812499
3.1625
3.187501
3.1625
3.187502
3.2375
3.212499
3.2375
3.212498
3.387759
3.312241
3.325
3.375
3.412499
3.437501
3.437501
3.412499
3.787759
3.712241
3.725
3.775
4.012499
4.037501
4.037502
4.012499
4.187501
4.162499
4.162499
4.187501
4.212499
4.237501
4.237501
4.212499
4.587501
4.587502
4.5625
4.5625
5.012499
5.012499
5.0375
5.0375
0.2258913
0.2266397
0.2258933
0.2266365
0.2258908
0.2266397
0.2258931
0.2266365
0.2258908
0.2266397
0.2258931
0.2266364
0.2258908
0.2266397
0.2258931
0.2266364
0.2258908
0.2266397
0.2258931
0.2266364
0.2258908
0.2266397
0.2266364
0.7124987
0.7124984
0.7375003
0.7374999
0.2258908
0.2266397
0.2258932
0.2266365
0.2258908
0.2266397
0.2258931
0.2266365
0.2258908
0.2266397
0.2258931
0.2266364
0.2258908
0.2266397
0.2258931
0.2266364
0.2258908
0.2266397
0.2258931
0.2266364
0.2266342
0.2266342
0.2258895
0.2258896
0.2266342
0.2266341
0.2258895
0.2258895
0.2266342
0.2266341
0.2258895
0.2258895
0.2266342
0.2266341
0.2258895
0.2258895
0.2266342
0.2266341
0.2258894
0.2258895
0.2266342
0.2266343
0.2258894
0.2258894
0.4875003
0.4624975
0.4624948
0.487499
0.5124986
0.5375
0.5374991
0.5124977
0.8875008
0.8624996
0.8625001
0.8875008
0.9124987
0.9374999
0.9375003
0.9124983
1.4625
1.487501
1.4625
1.487502
2.0625
2.087501
2.0625
2.087502
2.137501
2.112499
2.137501
2.112498
2.287501
2.262499
2.262499
2.287501
2.3125
2.337501
2.337502
2.3125
2.487501
2.4625
2.4625
2.487501
2.512499
2.5375
2.5375
2.512498
2.687501
2.662499
2.662499
2.687501
2.712499
2.737501
2.737501
2.712499
3.2625
3.287501
3.2625
3.287502
3.487501
3.462499
3.462499
3.487501
3.6625
3.687501
3.6625
3.687502
4.087501
4.0625
4.0625
4.087501
4.112499
4.1375
4.1375
4.112498
0.2266415
0.2266365
0.2258964
0.2258919
0.2266342
0.2266342
0.2258894
0.2258895
0.2266342
0.2266341
0.2258895
0.2258895
0.2266397
0.2258932
0.2266362
0.2258908
0.9624991
0.9875008
0.9624992
0.9875008
1.037501
1.012499
1.037501
1.012499
1.187501
1.162499
1.162499
1.187501
1.212499
1.237501
1.237501
1.212499
1.362499
1.387501
1.362499
1.387502
1.4375
1.412499
1.4375
1.412498
1.587501
1.562499
1.587501
1.562498
1.762499
1.787501
1.762499
1.787501
1.837501
1.812499
1.837501
1.812499
1.9625
1.987501
1.9625
1.987502
3.387501
3.362499
3.387501
3.362499
3.587501
3.562499
3.562499
3.587501
3.612499
3.637501
3.637501
3.612499
3.787501
3.762499
3.787501
3.762498
3.812499
3.837501
3.837501
3.812499
3.987501
3.962499
3.962499
3.987501
4.387501
4.362499
4.362499
4.387501
4.412499
4.437501
4.437501
4.412499
0.2266342
0.2266343
0.22589
0.2258896
0.2266342
0.2266341
0.2258895
0.2258895
1.087501
1.062499
1.062499
1.087501
1.112499
1.137501
1.137501
1.112499
1.287501
1.2625
1.2625
1.287502
1.312499
1.3375
1.3375
1.312499
1.712499
1.737501
1.737501
1.712499
1.862499
1.887501
1.862499
1.887501
1.937501
1.912499
1.937501
1.912499
2.887501
2.862499
2.862499
2.887501
3.112499
3.137501
3.137501
3.112499
3.512499
3.537501
3.537501
3.512499
3.887501
3.862499
3.862499
3.887501
3.912499
3.937501
3.937501
3.912499
4.287501
4.262499
4.262499
4.287501
4.312499
4.337501
4.337501
4.312499
4.487501
4.462499
4.462499
4.487501
4.512499
4.537501
4.537501
4.512499
1.512499
1.5375
1.512499
1.5375
3.312499
3.3375
3.312498
3.3375
3.712499
3.7375
3.712499
3.7375
0.7875008
0.7624992
0.7624991
0.7875008
2.987501
2.962499
2.962499
2.987501
3.012499
3.037501
3.037501
3.012499
0.2266342
0.2266342
0.2258895
0.2258895
0.2266342
0.2266342
0.2258894
0.2258895
1.687501
1.662499
1.662499
1.687501
2.912499
2.937501
2.937501
2.912499
3.087501
3.062499
3.062499
3.087501
0.4502095
0.5500102
0.5501211
0.4487804
0.4487996
0.5495958
0.5495578
0.4502803
0.5501801
0.5501782
0.4488105
0.4488118
0.5495416
0.5495399
0.4502728
0.5501737
0.5501723
0.4488113
0.4488114
0.5495376
0.5495378
0.4502725
0.5501719
0.5501722
0.4488117
0.4488123
0.5495378
0.5495387
0.450274
0.5501726
0.5501735
0.4488135
0.4488165
0.5495398
0.5495424
0.5501753
0.448824
0.5495475
0.6499188
0.7499748
0.7499617
0.6498503
0.6497938
0.7499487
0.7499503
0.6499075
0.7499545
0.7499515
0.6497791
0.6497756
0.7499396
0.7499377
0.6499046
0.7499503
0.74995
0.6497752
0.6497766
0.7499357
0.7499358
0.6499048
0.74995
0.74995
0.6497775
0.6497786
0.7499356
0.7499362
0.6499058
0.7499503
0.7499507
0.6497798
0.6497816
0.7499366
0.7499379
0.7499513
0.6497847
0.7499394
0.8499835
0.949998