/*--------------------------------*- C++ -*----------------------------------*\
  =========                 |
  \\      /  F ield         | OpenFOAM: The Open Source CFD Toolbox
   \\    /   O peration     | Website:  https://openfoam.org
    \\  /    A nd           | Version:  7
     \\/     M anipulation  |
\*---------------------------------------------------------------------------*/
FoamFile
{
    version     2.0;
    format      ascii;
    class       volScalarField;
    location    "0.1";
    object      Cz;
}
// * * * * * * * * * * * * * * * * * * * * * * * * * * * * * * * * * * * * * //

dimensions      [0 1 0 0 0 0 0];

internalField   nonuniform List<scalar> 
86107
(
0.09770032
0.09558495
0.09490914
0.0947504
0.09471001
0.09470246
0.09470906
0.09471978
0.09558476
0.09164768
0.0904728
0.09016663
0.09008415
0.09006619
0.0900712
0.09008048
0.09490803
0.09047118
0.08902159
0.08862514
0.08851351
0.08848926
0.08849704
0.08851087
0.09474707
0.09016079
0.08861971
0.08817908
0.0880527
0.0880295
0.08804726
0.08807376
0.09470228
0.0900704
0.08849773
0.08804137
0.08791511
0.08790769
0.08795533
0.08801739
0.09468696
0.09004042
0.08845888
0.08800403
0.08790127
0.08795444
0.08810194
0.08827948
0.09468234
0.09003273
0.08845355
0.08801473
0.08797285
0.08826241
0.0888007
0.08935056
0.09468193
0.09003426
0.08846405
0.08805464
0.08811349
0.08879497
0.09121459
0.09225234
0.09468306
0.09003909
0.08848034
0.0881061
0.08828075
0.08933662
0.09229017
0.04286227
0.09468447
0.0900439
0.08849455
0.08814833
0.08841736
0.08983418
0.094641
0.04523226
0.01152947
0.09468509
0.09004595
0.0885008
0.08816621
0.08847526
0.09005071
0.09508322
0.04547845
0.09468455
0.09004461
0.08849756
0.08815815
0.08845425
0.08999442
0.0949438
0.04531069
0.09468304
0.09004003
0.08848531
0.08812504
0.08835229
0.08962207
0.09379128
0.04494677
0.09468084
0.09003327
0.08846717
0.0880755
0.08820191
0.08910245
0.09144337
0.04299501
0.09467853
0.09002604
0.08844782
0.08802276
0.08804473
0.08862457
0.09070372
0.0912029
0.09467633
0.09001963
0.08843133
0.08797941
0.08791471
0.08815629
0.08859656
0.08900774
0.09467474
0.09001487
0.08841962
0.08795083
0.08783258
0.08786458
0.08797989
0.08811459
0.09467382
0.09001205
0.08841275
0.08793514
0.08779346
0.08777374
0.08780907
0.08785572
0.0946736
0.09001117
0.08841011
0.08792853
0.08777882
0.08774433
0.08775693
0.08777777
0.09467461
0.09001302
0.08841216
0.0879296
0.08777709
0.08773758
0.08774256
0.08775482
0.09467759
0.09001904
0.08842084
0.08794006
0.08778791
0.08774696
0.08774927
0.08775821
0.09468442
0.09003218
0.08844011
0.08796461
0.08781592
0.08777626
0.08777785
0.08778506
0.09469807
0.09005633
0.08847671
0.08801333
0.08787331
0.08783799
0.08784031
0.08784624
0.2508448
0.2516918
0.2521378
0.2521599
0.2521543
0.2521542
0.2521576
0.2521663
0.2508438
0.2946703
0.2917713
0.2907186
0.2903619
0.2902445
0.2902215
0.2902407
0.2902688
0.2516918
0.2917701
0.2863533
0.2841603
0.2833996
0.2831468
0.2830898
0.2831104
0.2831438
0.2521377
0.2907138
0.2841535
0.2812505
0.2801807
0.2798135
0.2797313
0.2797646
0.2798185
0.2521596
0.2903491
0.2833764
0.280159
0.2789218
0.2784925
0.2784134
0.2784848
0.2785863
0.2521535
0.2902155
0.2830929
0.2797502
0.2784471
0.2780145
0.2779913
0.2781658
0.2783869
0.2521518
0.2901662
0.2829914
0.2796114
0.2783111
0.2779465
0.2780891
0.278544
0.2790939
0.2521514
0.2901507
0.2829649
0.2795935
0.2783513
0.2781543
0.2786946
0.2799165
0.2814168
0.2521514
0.29015
0.2829719
0.2796345
0.2784949
0.278583
0.2799011
0.2830667
0.2871479
0.2521514
0.2901546
0.282991
0.2796963
0.2786751
0.2790975
0.2813941
0.2872457
0.2417649
0.2521516
0.2901594
0.2830086
0.2797485
0.2788189
0.2794901
0.2824736
0.289603
0.2461794
0.2124708
0.2521516
0.2901617
0.2830168
0.2797718
0.2788801
0.2796432
0.2828198
0.2900936
0.2464032
0.2521516
0.2901601
0.2830118
0.2797594
0.2788508
0.2795748
0.2826693
0.2898751
0.2463099
0.2521515
0.2901545
0.2829943
0.2797132
0.2787342
0.2792788
0.2819144
0.2883572
0.2456861
0.2521514
0.2901465
0.2829683
0.279644
0.2785562
0.27881
0.2806318
0.2850191
0.2906563
0.2521512
0.2901374
0.2829397
0.2795686
0.2783647
0.2783107
0.2792818
0.2815704
0.2845807
0.252151
0.2901293
0.2829142
0.2795033
0.2782046
0.2779127
0.2782738
0.2791737
0.2802713
0.252151
0.290123
0.2828949
0.2794557
0.278095
0.2776633
0.277717
0.2780477
0.2784496
0.2521509
0.2901192
0.2828831
0.279427
0.2780317
0.2775306
0.2774539
0.2775775
0.2777403
0.2521508
0.2901183
0.2828793
0.2794156
0.278004
0.2774721
0.2773433
0.2773915
0.27747
0.2521509
0.2901216
0.2828858
0.279423
0.2780075
0.2774646
0.2773158
0.2773359
0.2773834
0.2521511
0.2901324
0.2829087
0.2794571
0.2780488
0.2775072
0.2773534
0.2773631
0.2773979
0.2521518
0.2901565
0.2829584
0.2795329
0.2781466
0.2776189
0.2774695
0.2774763
0.2775049
0.2521565
0.2902025
0.2830484
0.2796736
0.2783343
0.2778403
0.2777078
0.2777172
0.2777409
0.450384
0.5008394
0.5016895
0.5018223
0.5018028
0.5017941
0.5018009
0.5018112
0.4503826
0.4982352
0.4966263
0.4957689
0.4953922
0.4952451
0.4952129
0.4952345
0.4952642
0.5008386
0.4966238
0.4930777
0.4909954
0.4900746
0.4897273
0.4896461
0.4896797
0.4897312
0.5016876
0.4957597
0.4909827
0.4879195
0.4864784
0.4859305
0.4858058
0.4858653
0.4859572
0.5018177
0.4953695
0.490033
0.4864391
0.4846601
0.4839827
0.4838568
0.4839822
0.4841561
0.5017928
0.4951968
0.4896337
0.4858183
0.4839017
0.4832048
0.4831686
0.4834606
0.4838211
0.5017749
0.4951262
0.4894795
0.4855961
0.4836764
0.4830886
0.4833126
0.4840094
0.4848137
0.5017689
0.4951034
0.4894392
0.48557
0.4837473
0.4834249
0.4842154
0.4858341
0.4875999
0.5017678
0.4951023
0.4894518
0.4856419
0.4839881
0.484086
0.4858194
0.4891547
0.4926754
0.5017684
0.4951093
0.4894834
0.4857463
0.4842799
0.4848384
0.4875746
0.4927045
0.4463156
0.5017695
0.4951168
0.4895123
0.4858324
0.4845048
0.4853856
0.4887093
0.4943888
0.4485901
0.4125126
0.5017699
0.4951202
0.4895253
0.4858702
0.4845996
0.4855982
0.4890852
0.4947678
0.4488178
0.5017696
0.4951181
0.4895177
0.4858503
0.4845533
0.4854993
0.4889151
0.4946023
0.4487915
0.5017684
0.49511
0.4894896
0.4857737
0.4843666
0.4850674
0.488064
0.493429
0.4484014
0.5017666
0.4950976
0.4894466
0.4856557
0.4840726
0.48436
0.4865123
0.4904768
0.4947554
0.5017646
0.4950834
0.4893983
0.4855249
0.4837503
0.483593
0.4847777
0.4871058
0.4897418
0.5017626
0.49507
0.489354
0.4854091
0.4834757
0.4829703
0.4834254
0.4845396
0.4858307
0.501761
0.4950594
0.4893202
0.4853233
0.4832824
0.4825606
0.4826121
0.4830883
0.4836548
0.5017599
0.4950525
0.4892983
0.4852699
0.4831669
0.4823303
0.4821874
0.4823829
0.4826413
0.5017598
0.4950504
0.4892903
0.485247
0.4831138
0.4822234
0.4819946
0.4820738
0.4822067
0.5017607
0.495055
0.4892995
0.4852572
0.4831165
0.4822061
0.481943
0.4819754
0.4820577
0.5017638
0.4950712
0.4893358
0.4853134
0.4831861
0.4822783
0.4820064
0.4820209
0.4820822
0.501771
0.4951069
0.4894153
0.4854407
0.483354
0.4824713
0.4822077
0.482218
0.482269
0.5017854
0.4951721
0.4895578
0.4856741
0.4836718
0.4828487
0.4826145
0.4826299
0.4826736
0.6500084
0.7001477
0.7003739
0.7004742
0.7004609
0.7004526
0.7004556
0.70046
0.6500095
0.699306
0.6985547
0.6980487
0.6977844
0.6976721
0.6976461
0.6976606
0.6976798
0.7001469
0.6985515
0.6969449
0.6957132
0.6950475
0.694773
0.6947082
0.6947386
0.6947827
0.7003709
0.6980366
0.6956972
0.6937193
0.6925692
0.6920918
0.6919839
0.6920432
0.6921308
0.7004673
0.6977562
0.6949987
0.6925248
0.6909906
0.6903399
0.6902215
0.6903486
0.6905217
0.7004475
0.6976178
0.6946707
0.6919716
0.690255
0.6895464
0.6895128
0.6898105
0.6901721
0.700431
0.6975573
0.6945363
0.6917677
0.6900382
0.6894376
0.6896834
0.6903778
0.6911117
0.700425
0.6975368
0.6945004
0.6917468
0.6901193
0.689807
0.6905858
0.691976
0.6932926
0.7004237
0.6975355
0.6945124
0.6918198
0.6903725
0.6904758
0.6919629
0.6942696
0.6963604
0.7004245
0.6975418
0.6945418
0.6919223
0.6906689
0.6911602
0.6932516
0.6963478
0.6482462
0.7004255
0.6975485
0.6945684
0.6920049
0.6908879
0.6916193
0.6940092
0.6972772
0.6493689
0.6125214
0.7004261
0.6975519
0.6945807
0.6920413
0.6909784
0.6917954
0.6942637
0.6974999
0.6494941
0.7004259
0.6975504
0.6945747
0.6920235
0.6909354
0.6917137
0.6941432
0.6973883
0.6494703
0.700425
0.6975438
0.69455
0.6919513
0.6907534
0.6913475
0.693562
0.6967006
0.6492103
0.7004233
0.6975332
0.6945108
0.6918362
0.6904539
0.6907078
0.6924331
0.6949667
0.6972341
0.7004212
0.6975203
0.6944652
0.6917058
0.6901196
0.6899532
0.6910065
0.6927368
0.6943816
0.7004189
0.6975076
0.6944223
0.6915887
0.6898343
0.6893041
0.6897376
0.6907192
0.6917478
0.7004169
0.6974968
0.694388
0.6915001
0.6896308
0.68887
0.6889043
0.6893617
0.6898944
0.7004155
0.6974894
0.6943649
0.6914428
0.6895067
0.6886259
0.6884653
0.688652
0.6889015
0.7004148
0.6974859
0.6943538
0.6914147
0.6894455
0.6885078
0.6882609
0.6883342
0.6884649
0.7004154
0.6974883
0.6943583
0.6914178
0.6894391
0.6884802
0.6881985
0.6882262
0.6883085
0.7004183
0.697501
0.694387
0.6914636
0.6894973
0.6885409
0.6882504
0.688262
0.6883256
0.7004248
0.6975298
0.6944533
0.6915745
0.6896492
0.6887195
0.6884389
0.6884488
0.6885058
0.7004365
0.6975814
0.6945736
0.6917815
0.6899421
0.6890754
0.6888279
0.6888476
0.6889019
0.849989
0.8999409
0.8999296
0.8999279
0.8999275
0.8999279
0.8999299
0.8999306
0.8499889
0.8998125
0.8996027
0.8994512
0.8993723
0.899344
0.8993428
0.8993514
0.8993573
0.8999396
0.8995982
0.8991521
0.898782
0.8985687
0.8984827
0.8984687
0.8984848
0.8985009
0.899924
0.8994342
0.8987628
0.8981349
0.8977288
0.8975529
0.8975178
0.8975451
0.8975799
0.899915
0.8993348
0.8985176
0.8976908
0.8971034
0.8968336
0.8967872
0.8968435
0.8969176
0.8999068
0.8992826
0.8983917
0.8974651
0.8967799
0.8964696
0.8964564
0.8965891
0.8967476
0.8999006
0.8992585
0.8983371
0.8973784
0.8966821
0.8964165
0.8965331
0.8968409
0.8971379
0.899898
0.8992494
0.8983214
0.8973684
0.8967183
0.896588
0.8969264
0.8974617
0.897926
0.8998976
0.8992485
0.8983252
0.8973985
0.896834
0.8968831
0.8974538
0.8982244
0.8988946
0.8998978
0.8992509
0.8983368
0.8974413
0.8969668
0.8971594
0.8979025
0.898885
0.8493478
0.8998981
0.8992534
0.8983478
0.897476
0.8970618
0.8973347
0.8981608
0.899181
0.8497723
0.8125254
0.8998985
0.8992554
0.8983543
0.8974932
0.8971031
0.8974046
0.8982517
0.8992563
0.8498086
0.8998991
0.8992567
0.8983547
0.8974897
0.89709
0.8973805
0.8982167
0.8992261
0.8497983
0.8998998
0.8992565
0.8983482
0.8974644
0.8970178
0.8972502
0.8980284
0.8990161
0.8497086
0.8999002
0.8992543
0.8983348
0.897419
0.8968881
0.8970034
0.8976497
0.8984761
0.8991843
0.8998998
0.89925
0.8983169
0.8973637
0.8967364
0.8966792
0.8971255
0.8977524
0.8982963
0.8998982
0.8992434
0.8982971
0.8973105
0.8966036
0.896375
0.8965809
0.8969932
0.8973823
0.8998962
0.8992363
0.8982786
0.8972668
0.8965047
0.8961643
0.8961812
0.8963884
0.8966189
0.8998946
0.89923
0.8982632
0.8972339
0.8964391
0.8960414
0.8959672
0.8960496
0.896159
0.8998933
0.8992248
0.8982513
0.8972108
0.8963975
0.8959716
0.8958578
0.8958903
0.8959487
0.8998924
0.8992215
0.898244
0.8971971
0.8963745
0.895936
0.8958063
0.8958206
0.8958616
0.8998924
0.8992215
0.8982434
0.8971952
0.8963705
0.895929
0.895796
0.8958077
0.8958468
0.8998938
0.899227
0.8982541
0.8972114
0.8963928
0.8959574
0.8958309
0.8958498
0.8958966
0.8998974
0.8992402
0.8982813
0.8972557
0.8964578
0.8960428
0.895935
0.895972
0.8960338
1.050001
1.10008
1.100128
1.10017
1.100206
1.100243
1.100272
1.100277
1.050002
1.100206
1.100443
1.100636
1.100773
1.10086
1.1009
1.100907
1.100898
1.100071
1.100435
1.100915
1.101334
1.101609
1.101755
1.10181
1.101811
1.101792
1.100088
1.100602
1.101305
1.101973
1.102428
1.102648
1.102712
1.102696
1.102659
1.100095
1.100696
1.101539
1.102394
1.103012
1.103308
1.103371
1.10332
1.103243
1.100103
1.100744
1.101653
1.102597
1.103298
1.103622
1.103642
1.103509
1.103348
1.100107
1.100763
1.101697
1.102666
1.103371
1.103641
1.103525
1.103214
1.102913
1.100108
1.100768
1.101706
1.102665
1.103319
1.103449
1.103108
1.102568
1.102099
1.100109
1.100768
1.101698
1.10263
1.103196
1.103144
1.102568
1.101791
1.101115
1.100109
1.100764
1.101685
1.102585
1.103061
1.102867
1.102117
1.101125
1.050217
1.100107
1.100761
1.101675
1.102553
1.102971
1.102698
1.101865
1.100832
1.050081
1.012528
1.100107
1.100761
1.101674
1.102544
1.102941
1.102642
1.101788
1.100765
1.050041
1.100109
1.100767
1.101683
1.10256
1.102971
1.102689
1.101849
1.100814
1.050038
1.100114
1.100778
1.101703
1.1026
1.103064
1.10285
1.102079
1.101068
1.05009
1.10012
1.10079
1.101727
1.102657
1.103209
1.103123
1.102507
1.10169
1.100974
1.100123
1.100799
1.101748
1.102714
1.103362
1.103454
1.103052
1.102462
1.101932
1.100121
1.100799
1.10176
1.102756
1.103479
1.103737
1.103571
1.103196
1.102824
1.100117
1.100795
1.101762
1.102779
1.103549
1.103907
1.103916
1.103734
1.103516
1.100114
1.100789
1.101758
1.102784
1.103577
1.103981
1.104069
1.104002
1.103901
1.100111
1.10078
1.101745
1.102771
1.103571
1.103993
1.104113
1.104094
1.104046
1.100107
1.100768
1.101722
1.102736
1.103529
1.103953
1.104086
1.10409
1.104071
1.100103
1.100751
1.101683
1.102669
1.103438
1.10385
1.103988
1.104009
1.104013
1.100098
1.100727
1.101619
1.102552
1.10327
1.103652
1.10379
1.103833
1.103868
1.100099
1.100692
1.10152
1.102362
1.102987
1.103313
1.103446
1.103522
1.103604
1.250011
1.299899
1.299892
1.300043
1.300223
1.300562
1.300821
1.300849
1.250014
1.300728
1.301518
1.302102
1.302492
1.302743
1.302856
1.302876
1.302858
1.299882
1.301507
1.303148
1.304442
1.305201
1.30557
1.305698
1.305694
1.305648
1.299661
1.302024
1.304388
1.306404
1.307607
1.308137
1.30828
1.308234
1.308144
1.299558
1.302294
1.305069
1.307563
1.309124
1.309799
1.309934
1.309812
1.309636
1.299577
1.302427
1.305384
1.308091
1.309818
1.310537
1.310577
1.310279
1.309915
1.299589
1.302479
1.305506
1.308277
1.31001
1.310613
1.310368
1.309672
1.308934
1.29959
1.302491
1.305533
1.308287
1.309915
1.310226
1.309445
1.308051
1.306731
1.299595
1.302493
1.305518
1.308209
1.309655
1.30955
1.308059
1.305746
1.30365
1.299595
1.302486
1.305487
1.308105
1.309358
1.308865
1.30677
1.303665
1.251152
1.299586
1.302474
1.305459
1.308025
1.309144
1.308414
1.30602
1.30274
1.250416
1.212531
1.299584
1.302472
1.305452
1.307997
1.309066
1.308255
1.305785
1.302531
1.250297
1.299594
1.302487
1.305472
1.308029
1.309128
1.308364
1.305939
1.302663
1.250304
1.29961
1.302516
1.305516
1.308118
1.309332
1.308768
1.306581
1.303416
1.250512
1.29963
1.302549
1.305573
1.308248
1.309649
1.309442
1.307782
1.305298
1.303057
1.299644
1.302574
1.305625
1.308381
1.309985
1.3102
1.309229
1.307594
1.306009
1.299636
1.302573
1.305657
1.308486
1.310252
1.310818
1.310446
1.309537
1.308556
1.29962
1.30256
1.30567
1.308552
1.310425
1.311206
1.311205
1.310786
1.310274
1.29961
1.30255
1.305669
1.308581
1.310513
1.3114
1.311576
1.311408
1.311169
1.299599
1.302532
1.305653
1.308574
1.31053
1.311464
1.311718
1.311657
1.311537
1.299587
1.302508
1.305615
1.308524
1.310475
1.311421
1.311707
1.311696
1.311635
1.299579
1.302477
1.305545
1.308407
1.31032
1.311249
1.311547
1.311569
1.311548
1.29957
1.302428
1.305419
1.308182
1.310001
1.31088
1.311177
1.311237
1.311268
1.299579
1.302356
1.30521
1.307783
1.30942
1.31019
1.310478
1.310602
1.31072
1.449796
1.499233
1.498682
1.499808
1.498911
1.500616
1.501051
1.501117
1.449799
1.50184
1.503493
1.504513
1.5052
1.505773
1.505998
1.506034
1.506022
1.499311
1.503516
1.507051
1.509205
1.510263
1.510752
1.510917
1.510915
1.510864
1.498442
1.50437
1.509124
1.512207
1.513699
1.5143
1.514458
1.514411
1.514315
1.49826
1.504727
1.510047
1.513642
1.515438
1.516134
1.516272
1.516151
1.515974
1.498307
1.504901
1.510433
1.514238
1.516156
1.516859
1.516898
1.516606
1.516243
1.4983
1.50495
1.510572
1.514444
1.51636
1.516948
1.516724
1.516026
1.515219
1.498269
1.504947
1.5106
1.51446
1.516278
1.516599
1.515807
1.514186
1.512417
1.49831
1.504958
1.510586
1.514384
1.516033
1.515933
1.514198
1.510859
1.507333
1.498322
1.504951
1.510553
1.514279
1.515742
1.515183
1.512446
1.50731
1.452536
1.498261
1.50492
1.510518
1.514194
1.515522
1.514645
1.511327
1.505643
1.450944
1.412535
1.498248
1.504914
1.510509
1.514163
1.515439
1.514453
1.510983
1.505308
1.450743
1.49829
1.504952
1.510537
1.514198
1.515505
1.514587
1.51121
1.505526
1.45077
1.498365
1.505015
1.510595
1.514294
1.515717
1.515069
1.512167
1.506847
1.451171
1.49843
1.505091
1.510668
1.514429
1.516029
1.51582
1.513836
1.510091
1.506092
1.498517
1.505151
1.510731
1.514564
1.516351
1.516582
1.515568
1.513514
1.511132
1.498454
1.505107
1.510755
1.514667
1.516605
1.517156
1.516801
1.515832
1.514643
1.498361
1.505055
1.510758
1.514731
1.516769
1.517512
1.517505
1.517086
1.516552
1.498352
1.505039
1.510754
1.514759
1.516854
1.517696
1.517856
1.517682
1.517435
1.498293
1.505
1.510732
1.514752
1.516872
1.51776
1.517995
1.517927
1.517803
1.49825
1.504954
1.510687
1.514701
1.51682
1.517721
1.517989
1.51797
1.517904
1.498236
1.504913
1.51061
1.514581
1.516664
1.517551
1.517831
1.517847
1.517823
1.498232
1.504859
1.510469
1.514332
1.516321
1.517158
1.517443
1.517506
1.517543
1.498246
1.504785
1.510219
1.513854
1.515631
1.51635
1.516642
1.516807
1.516968
1.649471
1.647415
1.644427
1.645346
1.700539
1.701358
1.701391
1.701801
1.649519
1.70545
1.708366
1.709674
1.710485
1.710957
1.711033
1.71102
1.711048
1.647742
1.70849
1.713772
1.716014
1.7169
1.717255
1.717345
1.717334
1.717301
1.644424
1.709505
1.715943
1.718839
1.71994
1.720338
1.720435
1.720405
1.720348
1.643985
1.70979
1.716693
1.719894
1.721136
1.721574
1.721658
1.721587
1.721482
1.644118
1.709958
1.71697
1.720286
1.721585
1.722019
1.722043
1.721867
1.721644
1.644107
1.709966
1.717058
1.720415
1.721709
1.722072
1.721929
1.721473
1.720921
1.643929
1.709911
1.717065
1.720425
1.721663
1.721858
1.721317
1.720093
1.718591
1.643998
1.70993
1.717056
1.720383
1.721517
1.721427
1.720108
1.716942
1.712857
1.644174
1.709925
1.717035
1.72032
1.721337
1.720915
1.718621
1.712769
1.655446
1.643946
1.709883
1.717012
1.720267
1.721196
1.720531
1.71756
1.710453
1.652231
1.612545
1.643891
1.709873
1.717008
1.720249
1.721144
1.720396
1.717252
1.710098
1.65206
1.643934
1.709943
1.717036
1.720273
1.721188
1.720498
1.717484
1.710439
1.65219
1.644133
1.710044
1.717086
1.720334
1.721324
1.720847
1.718408
1.712281
1.652761
1.644256
1.710164
1.717145
1.720417
1.721517
1.72136
1.719855
1.716225
1.71106
1.644565
1.710281
1.717191
1.720497
1.721707
1.721844
1.721145
1.719487
1.717016
1.644547
1.710124
1.717189
1.720554
1.721849
1.722186
1.721951
1.721269
1.720303
1.644138
1.710022
1.717176
1.720586
1.721939
1.722387
1.722376
1.722107
1.721738
1.644135
1.710039
1.717174
1.720598
1.721983
1.722488
1.722578
1.722472
1.722318
1.644017
1.709971
1.71715
1.72059
1.721992
1.722522
1.722655
1.722614
1.72254
1.643898
1.709896
1.717113
1.720558
1.721961
1.722498
1.72265
1.722638
1.722599
1.643884
1.709861
1.717062
1.720483
1.721866
1.722396
1.722555
1.722565
1.722552
1.643886
1.709821
1.716968
1.720319
1.721639
1.722135
1.722303
1.722351
1.722385
1.747923
1.709784
1.716786
1.719952
1.721094
1.721495
1.721688
1.721854
1.722012
1.823457
1.820611
1.821132
1.853161
1.85254
1.849216
1.846867
1.849601
1.822403
1.902406
1.904494
1.905321
1.905677
1.905954
1.905941
1.90594
1.905948
1.823396
1.904586
1.908415
1.909602
1.909962
1.910086
1.910112
1.910106
1.910096
1.824572
1.905248
1.909575
1.911013
1.911419
1.911539
1.911566
1.911558
1.911542
1.820697
1.905345
1.909872
1.9114
1.91184
1.911968
1.911992
1.911973
1.911946
1.822122
1.905414
1.90996
1.911516
1.911969
1.912094
1.912102
1.912053
1.911991
1.823461
1.905408
1.909983
1.911551
1.912002
1.912104
1.91205
1.911902
1.911724
1.82058
1.905356
1.909983
1.911553
1.911989
1.91203
1.91174
1.911202
1.910651
1.820735
1.905443
1.909987
1.911543
1.911949
1.911889
1.911208
1.908788
1.90775
1.824154
1.905472
1.909983
1.911526
1.911897
1.911722
1.910668
1.907718
1.861729
1.820732
1.905349
1.909967
1.911511
1.911856
1.911589
1.910179
1.905397
1.856735
1.812601
1.820538
1.905331
1.909964
1.911506
1.91184
1.91154
1.909989
1.905097
1.856834
1.820576
1.905391
1.909978
1.911514
1.911854
1.911581
1.910167
1.905474
1.857666
1.823017
1.905463
1.91
1.911533
1.911895
1.911704
1.910608
1.907537
1.858163
1.822097
1.905531
1.910021
1.911556
1.91195
1.911871
1.911129
1.908505
1.907278
1.85248
1.905554
1.910037
1.911578
1.912002
1.912025
1.911669
1.910828
1.908772
1.824955
1.90556
1.910037
1.911593
1.912039
1.912131
1.912035
1.911699
1.911242
1.822119
1.905477
1.910028
1.911599
1.912061
1.912188
1.91218
1.912089
1.911962
1.823026
1.905454
1.910022
1.911599
1.912071
1.912213
1.912237
1.912208
1.912164
1.821928
1.905398
1.910007
1.911595
1.912072
1.91222
1.912256
1.912245
1.912226
1.820548
1.905336
1.90999
1.911585
1.912063
1.912214
1.912254
1.912251
1.912241
1.820536
1.905323
1.909975
1.911564
1.912037
1.912186
1.912229
1.912232
1.91223
1.820561
1.905328
1.90995
1.911516
1.911969
1.912107
1.912154
1.912171
1.912184
1.821635
1.905323
1.909878
1.911367
1.911752
1.911857
1.911916
1.911987
1.91206
0.04781193
0.1780357
0.178033
0.1467642
0.04751654
0.04619988
0.1776405
0.1794158
0.1453566
0.1445747
0.04590329
0.04575093
0.1794175
0.1794497
0.144271
0.1440686
0.04571899
0.04570318
0.1794566
0.1794641
0.1440025
0.1439558
0.04569874
0.04569703
0.179464
0.1794639
0.1439422
0.1439299
0.04569613
0.04569585
0.1794639
0.1794641
0.1439271
0.1439241
0.04569603
0.04569654
0.1794641
0.1794645
0.143925
0.1439269
0.04569771
0.04569976
0.1794647
0.1794665
0.1439316
0.1439389
0.04570292
0.0457061
0.1794676
0.1794717
0.1439498
0.1439597
0.1794721
0.047518
0.04620014
0.1776392
0.1453582
0.1794158
0.1445749
0.0459033
0.04575091
0.1794176
0.1442709
0.1794497
0.1440685
0.04571895
0.04570311
0.1794566
0.1440023
0.179464
0.1439554
0.04569857
0.04569683
0.179464
0.1439415
0.1794638
0.1439285
0.04569574
0.04569518
0.1794638
0.143925
0.1794639
0.1439207
0.0456949
0.04569471
0.1794638
0.1439196
0.1794639
0.1439181
0.04569459
0.04569454
0.1794638
0.143918
0.1794639
0.1439174
0.04569453
0.04569455
0.1794638
0.1439175
0.1794639
0.1439175
0.0456946
0.0456946
0.1794638
0.1439177
0.1794639
0.1439179
0.04569462
0.04569463
0.1794639
0.143918
0.1794639
0.1439181
0.01127638
0.04560037
0.01065808
0.1433258
0.1872777
0.1437823
0.175179
0.1873989
0.04569464
0.04569464
0.1794639
0.1439182
0.1794639
0.1439182
0.01065033
0.04538147
0.01056196
0.143602
0.1484612
0.1434992
0.1485847
0.04569463
0.04569462
0.1794639
0.1439181
0.1794639
0.1439181
0.01037082
0.04537537
0.01049262
0.1433794
0.1479815
0.1434323
0.1743078
0.0456946
0.0456946
0.1794639
0.1439179
0.1794639
0.1439176
0.01089479
0.04360618
0.02089789
0.1428713
0.1744721
0.1407316
0.1447791
0.02118948
0.1719542
0.04569449
0.04569451
0.1794639
0.1439175
0.1794638
0.1439171
0.0456944
0.04569439
0.1794638
0.1439169
0.1794638
0.1439167
0.04569435
0.04569431
0.1794638
0.1439164
0.1794638
0.1439162
0.04569428
0.04569425
0.1794638
0.143916
0.1794638
0.1439158
0.04569424
0.04569422
0.1794638
0.1439157
0.1794638
0.1439156
0.04569422
0.04569423
0.1794638
0.1439156
0.1794638
0.1439156
0.04569424
0.04569428
0.1794638
0.1439157
0.1794638
0.143916
0.04569436
0.0456945
0.1794638
0.1439164
0.1794638
0.1439172
0.04569472
0.04569516
0.1794639
0.1439182
0.1794641
0.1439205
0.04569587
0.0456973
0.1794641
0.1439235
0.1794649
0.1439296
0.2261715
0.2261691
0.2490714
0.3755748
0.3755743
0.3496594
0.2123624
0.2465191
0.224248
0.3477941
0.3874245
0.3481416
0.3754402
0.3874549
0.2228799
0.4245074
0.4245056
0.4498412
0.5755456
0.5755452
0.5499131
0.4124775
0.4488024
0.4244535
0.5490646
0.5874544
0.5492735
0.5754839
0.5874648
0.4243044
0.5745702
0.6244716
0.6244724
0.6499509
0.7755312
0.7755331
0.7499696
0.612504
0.6494692
0.624481
0.7495865
0.787467
0.7496998
0.7754945
0.787469
0.8244653
0.8244663
0.8499858
0.9755346
0.9755322
0.949994
0.812516
0.8497944
0.8244908
0.9499209
0.9874756
0.9499642
0.975502
0.9874718
1.024467
1.024466
1.050007
1.175533
1.175536
1.150016
1.012524
1.050038
1.024498
1.15023
1.187484
1.150208
1.175509
1.187475
1.224466
1.22447
1.250033
1.375529
1.375527
1.350054
1.212533
1.250304
1.224506
1.350636
1.387496
1.350539
1.375519
1.387479
1.424456
1.424454
1.450093
1.575495
1.575496
1.550174
1.412546
1.450743
1.424518
1.551425
1.587523
1.551231
1.575561
1.587488
1.624425
1.62443
1.650365
1.773912
1.773842
1.750954
1.612576
1.651926
1.624585
1.753858
1.78764
1.753592
1.775875
1.787529
1.822632
1.821981
1.85326
1.952256
1.820819
1.854626
1.855454
1.952676
1.953869
1.820704
1.855783
1.856088
1.954109
1.954299
1.824987
1.856545
1.857376
1.978985
1.954579
1.955273
1.851659
1.858258
1.858722
1.978966
1.979077
1.955832
1.956029
1.849139
1.859077
1.859132
1.978913
1.956006
1.956022
1.848248
1.859068
1.858745
1.979114
1.95591
1.955757
1.84922
1.859141
1.859146
1.978702
1.95599
1.95599
1.854774
1.82209
1.855891
1.952543
1.954092
1.856833
1.852049
1.857431
1.95499
1.978944
1.955513
1.857089
1.821111
1.856529
1.978947
1.955189
1.954582
1.856248
1.821131
1.856331
1.954363
1.954419
1.856764
1.850825
1.8571
1.95486
1.978779
1.955192
1.856747
1.82069
1.856313
1.95487
1.954412
1.856151
1.820592
1.856141
1.954324
1.954314
1.856268
1.823578
1.85646
1.954371
1.954727
1.856452
1.821241
1.856392
1.977534
1.954928
1.954508
1.856175
1.820541
1.856105
1.954326
1.954306
1.812726
1.856361
1.824987
1.954787
1.988772
1.954498
1.989382
1.988451
1.856093
1.820548
1.856111
1.954306
1.954312
1.852229
1.857428
1.853078
1.954806
1.989408
1.955184
1.978176
1.856194
1.821929
1.856472
1.954344
1.954565
1.853816
1.857479
1.826481
1.955395
1.978615
1.955324
1.978134
1.856908
1.823064
1.856965
1.955032
1.955049
1.856758
1.823939
1.857076
1.954686
1.954987
1.857778
1.852969
1.857918
1.979008
1.955565
1.978931
1.955711
1.857337
1.822812
1.856728
1.978952
1.95522
1.954503
1.856399
1.82197
1.85653
1.954333
1.954567
1.856905
1.823016
1.856895
1.955029
1.955029
1.85647
1.820576
1.856195
1.954564
1.954345
1.856111
1.820536
1.85609
1.954312
1.954306
1.856085
1.820536
1.856086
1.954305
1.954306
1.856094
1.821634
1.856082
1.954324
1.954452
1.856092
1.820609
1.856152
1.954454
1.954342
0.07302181
0.02378215
0.07188191
0.02274482
0.07197028
0.0226281
0.07178404
0.0225179
0.07180141
0.02245738
0.07176928
0.02250079
0.07177359
0.02244992
0.07176718
0.02250073
0.07176956
0.02244955
0.07176676
0.02250077
0.07176872
0.02244945
0.07176684
0.02250075
0.0717687
0.02244945
0.07176776
0.02250085
0.07176924
0.02244963
0.07177264
0.02250161
0.07177262
0.02245079
0.02250371
0.0717797
0.07188247
0.02274531
0.07197117
0.02262833
0.07178406
0.0225179
0.07180144
0.02245739
0.07176926
0.02250079
0.07177358
0.02244992
0.07176714
0.02250072
0.07176953
0.02244954
0.07176666
0.02250075
0.07176865
0.02244944
0.07176651
0.02250071
0.07176846
0.0224494
0.07176647
0.02250069
0.07176835
0.02244938
0.07176646
0.02250069
0.07176835
0.02244938
0.07176647
0.02250069
0.07176836
0.02244938
0.04364151
0.04376801
0.02211694
0.1382785
0.1412278
0.1414692
0.1735662
0.02302794
0.1741942
0.07176648
0.02250069
0.07176836
0.02244939
0.08698513
0.07176649
0.0225007
0.07176837
0.02244939
0.07176649
0.0225007
0.07176837
0.02244939
0.07176647
0.0225007
0.07176836
0.02244939
0.01027185
0.08596688
0.07176646
0.02250069
0.07176834
0.02244938
0.07176644
0.02250068
0.07176832
0.02244938
0.07176643
0.02250068
0.07176831
0.02244938
0.07176641
0.02250067
0.07176829
0.02244937
0.0717664
0.02250067
0.07176828
0.02244937
0.0717664
0.02250067
0.07176827
0.02244937
0.07176641
0.02250067
0.07176828
0.02244937
0.07176643
0.02250068
0.0717683
0.02244937
0.07176653
0.02250069
0.07176837
0.02244939
0.07176694
0.02250074
0.07176864
0.02244947
0.2749731
0.2249498
0.2444902
0.2446102
0.2240226
0.3445624
0.346661
0.346745
0.3746061
0.224488
0.3748114
0.2874424
0.2490994
0.2463445
0.2246606
0.3480678
0.3495294
0.3480041
0.3748901
0.2253707
0.2438935
0.2468455
0.3475319
0.3747977
0.3460928
0.3482056
0.2123361
0.2751739
0.4749941
0.4249887
0.4478028
0.4478093
0.4246938
0.5474705
0.5485417
0.5485682
0.5748348
0.4248582
0.5749232
0.4874617
0.4497549
0.4487795
0.4248665
0.5492747
0.549854
0.5491701
0.5750474
0.4242179
0.4474354
0.4490423
0.5488874
0.5756628
0.5481174
0.5490993
0.4246176
0.4873517
0.6750043
0.6249984
0.6489977
0.6489783
0.6248699
0.7488525
0.7493575
0.7493741
0.7749283
0.6249424
0.7749662
0.6874675
0.6498996
0.6494405
0.6250059
0.7497071
0.7499444
0.749645
0.7749915
0.6250792
0.6487385
0.6494469
0.7495291
0.7749819
0.7491227
0.7496283
0.6251221
0.6749374
0.874998
0.8250025
0.8496325
0.8496104
0.8249518
0.9497869
0.9498838
0.9499025
0.9749897
0.8249798
0.9749938
0.8874706
0.8499651
0.8498054
0.8249865
0.9499686
0.9499931
0.9499364
0.975003
0.8249875
0.849561
0.8498137
0.9499328
0.9749975
0.9498188
0.9499202
0.8250331
0.8749507
1.075001
1.025001
1.050118
1.0501
1.025011
1.150656
1.15037
1.150392
1.175049
1.025006
1.17502
1.087473
1.050008
1.050075
1.024997
1.15021
1.150037
1.150209
1.175014
1.025003
1.050225
1.050107
1.150321
1.175014
1.150495
1.150226
1.025048
1.074964
1.275008
1.225006
1.250645
1.250629
1.225072
1.351759
1.351005
1.351026
1.37513
1.225034
1.375058
1.287476
1.250057
1.250374
1.225009
1.350547
1.350101
1.350577
1.375029
1.225021
1.250958
1.250442
1.350831
1.375038
1.351365
1.350633
1.225064
1.274978
1.475007
1.425001
1.451461
1.451438
1.425166
1.553691
1.552201
1.552199
1.575307
1.425077
1.575142
1.487481
1.450161
1.450866
1.425027
1.551324
1.550317
1.551351
1.575079
1.425048
1.452052
1.450959
1.551813
1.575097
1.552915
1.551399
1.425088
1.475005
1.675016
1.62501
1.653343
1.653267
1.625396
1.758244
1.755514
1.755405
1.775982
1.625189
1.775512
1.687498
1.650676
1.652223
1.625112
1.754241
1.751513
1.754095
1.775778
1.625135
1.654426
1.652172
1.754788
1.775559
1.756926
1.753644
1.625163
1.675126
1.875585
1.825141
1.848292
1.858435
1.85874
1.978892
1.955601
1.955781
1.858776
1.858552
1.826442
1.957142
1.956363
1.956259
1.977911
1.825806
1.976974
1.88776
1.826022
1.860854
1.85679
1.95616
1.976714
1.956867
1.955123
1.825971
1.87665
0.0723858
0.02285441
0.07206402
0.0235013
0.07239966
0.02285645
0.07206653
0.02351078
0.1244268
0.1748674
0.07184807
0.02253389
0.07181304
0.02256892
0.07177935
0.0225022
0.07177511
0.02245352
0.07176883
0.02250099
0.07176975
0.02244963