/*--------------------------------*- C++ -*----------------------------------*\
  =========                 |
  \\      /  F ield         | OpenFOAM: The Open Source CFD Toolbox
   \\    /   O peration     | Website:  https://openfoam.org
    \\  /    A nd           | Version:  7
     \\/     M anipulation  |
\*---------------------------------------------------------------------------*/
FoamFile
{
    version     2.0;
    format      ascii;
    class       volVectorField;
    location    "0.1";
    object      U;
}
// * * * * * * * * * * * * * * * * * * * * * * * * * * * * * * * * * * * * * //

dimensions      [0 1 -1 0 0 0 0];

internalField   nonuniform List<vector> 
109929
(
(-1.133643 0.3021608 -0.003468471)
(-1.028309 0.3608709 0.007351637)
(-0.9410364 0.379144 0.008207537)
(-0.870876 0.3948709 0.006335988)
(-0.811792 0.4050231 0.005359327)
(-0.7613089 0.4125373 0.00481719)
(-1.051799 0.2300305 -0.02249326)
(-0.9809654 0.3081842 0.001590142)
(-0.9135107 0.350817 -0.002611603)
(-0.8535342 0.3797702 -0.003903058)
(-0.8009971 0.40054 -0.003889612)
(-0.7542698 0.4158925 -0.003856725)
(-0.9743499 0.1546579 -0.01893751)
(-0.9284734 0.2269951 0.008272133)
(-0.877528 0.27508 0.005394142)
(-0.8269083 0.3115444 0.002931352)
(-0.7816221 0.3381256 0.00197999)
(-0.7398637 0.3583996 0.001411049)
(-0.9006778 0.1265407 -0.01745854)
(-0.8723253 0.1936745 0.006603581)
(-0.8348558 0.2432828 0.002660873)
(-0.7946762 0.2810316 0.0008357235)
(-0.7567281 0.3106136 0.0003519354)
(-0.7202622 0.3338195 -3.833603e-05)
(-0.8409478 0.09712225 -0.01674845)
(-0.8216467 0.1539714 0.0081731)
(-0.7935924 0.1978755 0.004841023)
(-0.7612896 0.2347792 0.003216257)
(-0.7295042 0.2653294 0.002667614)
(-0.698121 0.2902106 0.002206059)
(-0.7882529 0.08222637 -0.01632424)
(-0.7753273 0.1331313 0.007743077)
(-0.7539792 0.1744655 0.004092714)
(-0.7285371 0.2102039 0.002519928)
(-0.7019743 0.2400348 0.002037612)
(-0.6750042 0.2652901 0.001549491)
(-0.7437031 0.06855925 -0.01560309)
(-0.7343513 0.1128437 0.008309616)
(-0.7175828 0.1498017 0.00451441)
(-0.696642 0.1827591 0.003143695)
(-0.6745509 0.2114629 0.002758215)
(-0.6515636 0.236644 0.002244623)
(-0.7041656 0.05972385 -0.01487659)
(-0.6972288 0.0992639 0.008430124)
(-0.6840303 0.1330378 0.004467945)
(-0.6667574 0.1640114 0.00312609)
(-0.6485414 0.1916155 0.002816072)
(-0.6285151 0.2156541 0.002273443)
(-0.6693237 0.05205753 -0.01435406)
(-0.663879 0.08721296 0.008539874)
(-0.6533463 0.1180758 0.004632299)
(-0.638783 0.1465894 0.003302845)
(-0.623182 0.1724902 0.003024791)
(-0.6060636 0.1955464 0.002526663)
(-0.6380538 0.04624537 -0.01385399)
(-0.6336195 0.07793596 0.008554134)
(-0.6251129 0.106325 0.004713175)
(-0.6126436 0.1327138 0.003380119)
(-0.5992817 0.1570321 0.003122081)
(-0.5845707 0.1790908 0.002689094)
(-0.6098925 0.04135792 -0.01341777)
(-0.6062985 0.07007973 0.008597359)
(-0.5991455 0.09609127 0.004771569)
(-0.5883423 0.1204913 0.003475584)
(-0.5767887 0.1432758 0.003236144)
(-0.5640722 0.1643334 0.002831942)
(-0.5842991 0.03734972 -0.01298653)
(-0.5812942 0.06356167 0.00861265)
(-0.5752037 0.08745932 0.00482614)
(-0.565774 0.1101251 0.003548319)
(-0.5556648 0.1314511 0.00331942)
(-0.5443784 0.15132 0.002926603)
(-0.5609102 0.03392665 -0.01258437)
(-0.5583295 0.05793982 0.008601094)
(-0.5530878 0.07998351 0.004870108)
(-0.5447722 0.1010432 0.003605539)
(-0.5358529 0.1209705 0.003388582)
(-0.5257817 0.1397076 0.003008172)
(-0.5394391 0.03100826 -0.01219342)
(-0.5371254 0.05308838 0.008565738)
(-0.5326836 0.07359117 0.004937067)
(-0.5252193 0.09301311 0.003641499)
(-0.5172304 0.1116859 0.003445266)
(-0.5081983 0.1293802 0.003085581)
(-0.5196575 0.02846341 -0.01181716)
(-0.5175181 0.04886334 0.008504876)
(-0.5136888 0.06795653 0.005102013)
(-0.5070131 0.08584491 0.003649249)
(-0.499737 0.1033935 0.003484147)
(-0.4915897 0.1201007 0.00316001)
(-0.5013604 0.0262357 -0.01144877)
(-0.4992901 0.04514952 0.008421161)
(-0.4959946 0.06276187 0.005428665)
(-0.490021 0.07946386 0.003637162)
(-0.48333 0.0959664 0.003506187)
(-0.4759262 0.1117242 0.003218946)
(-0.4843703 0.02425525 -0.01109415)
(-0.4822928 0.04180064 0.008333743)
(-0.4795586 0.0582138 0.006008574)
(-0.4740573 0.07382535 0.003616391)
(-0.4679497 0.08932586 0.003521504)
(-0.4611783 0.1041332 0.003266972)
(-0.4685567 0.02246851 -0.01075363)
(-0.4662621 0.03871652 0.008248381)
(-0.4641489 0.05416759 0.006030094)
(-0.4592294 0.06873426 0.003684855)
(-0.4535285 0.08330223 0.003541746)
(-0.4472723 0.09721268 0.003305853)
(-0.4538195 0.02085752 -0.01043219)
(-0.451398 0.03595408 0.0081647)
(-0.4494785 0.05037193 0.005993548)
(-0.4453567 0.06417766 0.003776042)
(-0.4399742 0.07780853 0.003561312)
(-0.4341457 0.09086503 0.003338094)
(-0.4400741 0.0193949 -0.01012593)
(-0.4376019 0.03346002 0.008086081)
(-0.4355763 0.04684806 0.005935953)
(-0.4322991 0.0600208 0.003844849)
(-0.4272237 0.07275116 0.003576688)
(-0.4217704 0.08503502 0.003363448)
(-0.4272339 0.01806227 -0.009840284)
(-0.4247541 0.03119435 0.008006653)
(-0.4225187 0.04364037 0.00587336)
(-0.4200251 0.05613555 0.003882672)
(-0.4152427 0.06805501 0.003586243)
(-0.410149 0.07965032 0.003381406)
(-0.4152203 0.01683436 -0.00957543)
(-0.4127631 0.02911002 0.007928326)
(-0.4104319 0.04073397 0.00581787)
(-0.4084732 0.05252541 0.003889589)
(-0.4040522 0.06369899 0.00360782)
(-0.3992187 0.07462436 0.003389909)
(-0.3847976 0.01385107 -0.001563045)
(-0.4015482 0.02718873 0.00785358)
(-0.3992089 0.03806131 0.005759629)
(-0.3976355 0.04926603 0.003987072)
(-0.3936077 0.05960403 0.003620487)
(-0.388934 0.06988496 0.00338814)
(-0.7461319 0.4490178 -0.1121745)
(-0.5845408 0.4204164 -0.03216183)
(-0.5225581 0.4263776 -0.03258744)
(-0.478587 0.4302935 -0.03269213)
(-0.4434768 0.4329212 -0.03295183)
(-0.4145797 0.4346568 -0.03307685)
(-1.286414 0.1762664 -0.02136574)
(-1.118328 0.2771732 -0.03189559)
(-1.004176 0.344398 -0.02971945)
(-0.9206564 0.3671054 -0.02682909)
(-0.8518365 0.3870731 -0.02802354)
(-0.794908 0.3990737 -0.03027776)
(-1.110987 0.1028044 -0.004158708)
(-1.024455 0.258903 0.01276685)
(-0.9474665 0.318564 0.02317773)
(-0.8876046 0.3602405 0.02874238)
(-0.8308769 0.386901 0.02747611)
(-0.7817978 0.4070779 0.0287985)
(-1.016599 0.05940348 -0.003845955)
(-0.9693729 0.162105 -0.01635036)
(-0.9075657 0.2219598 -0.01065461)
(-0.8603773 0.2626173 -0.01394983)
(-0.8091661 0.2947183 -0.01333844)
(-0.7655743 0.3192936 -0.01345339)
(-0.9164929 0.04641949 -0.001466811)
(-0.888704 0.1445183 -0.0002610711)
(-0.8500266 0.201377 0.008609883)
(-0.8166232 0.2472736 0.009990862)
(-0.7779454 0.2821627 0.01142112)
(-0.742145 0.3101535 0.01206461)
(-0.8517737 0.03412809 -0.00206089)
(-0.8393257 0.1066393 -0.00866331)
(-0.8068018 0.1564389 -0.003176116)
(-0.7806983 0.197014 -0.004874963)
(-0.7474364 0.2307561 -0.005025873)
(-0.7165769 0.2588935 -0.004790309)
(-0.7928459 0.02783826 -0.001867796)
(-0.783874 0.0936302 -0.003798674)
(-0.7609027 0.1391073 0.00246438)
(-0.7417095 0.1788805 0.002706265)
(-0.7155644 0.2121299 0.002800892)
(-0.6901642 0.2406134 0.003087565)
(-0.7462837 0.0224312 -0.002195303)
(-0.7421533 0.07678033 -0.005934455)
(-0.7228571 0.116758 -0.0007012127)
(-0.7078702 0.1521893 -0.001079728)
(-0.6859092 0.1831416 -0.001645534)
(-0.664324 0.2103876 -0.001717033)
(-0.7047341 0.01901231 -0.002214727)
(-0.7019445 0.06775246 -0.004601514)
(-0.6866016 0.1039133 0.0005983335)
(-0.6751632 0.1369035 0.001139406)
(-0.6571874 0.1661816 0.0005351185)
(-0.6390792 0.1924256 0.0004249651)
(-0.6689801 0.01616472 -0.002315435)
(-0.6677752 0.05877876 -0.004909219)
(-0.654648 0.09117705 -0.0001717305)
(-0.6456397 0.1210479 0.0003548189)
(-0.6304571 0.1482217 -0.0004243799)
(-0.6149978 0.1729574 -0.0007013609)
(-0.636923 0.01405809 -0.002347449)
(-0.6363459 0.05247303 -0.004488852)
(-0.6251692 0.08190808 0.0001354947)
(-0.6180957 0.1094047 0.000833966)
(-0.6052411 0.1347479 9.723569e-05)
(-0.5920408 0.1581354 -0.0002253265)
(-0.608251 0.01232553 -0.002384001)
(-0.6082507 0.04688253 -0.004419482)
(-0.5984284 0.0736285 2.308554e-05)
(-0.5928012 0.09883041 0.0007013723)
(-0.5817381 0.12237 -4.07522e-05)
(-0.5703622 0.144329 -0.0004304572)
(-0.5822495 0.01093837 -0.002400153)
(-0.5825516 0.04239333 -0.004236377)
(-0.5738411 0.06686389 9.77434e-05)
(-0.5693499 0.09010619 0.00078975)
(-0.5597435 0.1120191 9.152337e-05)
(-0.5498794 0.1326442 -0.0003128369)
(-0.5585899 0.009777289 -0.002414027)
(-0.5590985 0.03850611 -0.004120923)
(-0.5512502 0.06095646 9.355987e-05)
(-0.5476401 0.0824134 0.00075762)
(-0.5392088 0.1028347 0.0001075263)
(-0.530594 0.1221635 -0.0003007802)
(-0.5369097 0.008802228 -0.002420268)
(-0.5375337 0.03519086 -0.003994867)
(-0.5304002 0.05587946 0.0001135557)
(-0.5274637 0.07573826 0.0007030076)
(-0.5200025 0.0948172 0.0002081829)
(-0.51244 0.1129227 -0.0002275099)
(-0.5169004 0.007967968 -0.002420158)
(-0.5176444 0.03229505 -0.003887627)
(-0.5111114 0.05142659 0.0001143764)
(-0.5086932 0.0698516 0.0005657886)
(-0.5020345 0.08767739 0.0003618852)
(-0.4953751 0.1046453 -0.0001497774)
(-0.4984074 0.007248597 -0.002419827)
(-0.4992303 0.02975533 -0.003797433)
(-0.4932057 0.04749911 8.35982e-05)
(-0.4912029 0.06469003 0.0004598727)
(-0.4852175 0.08129094 0.0005553555)
(-0.4793275 0.09721371 -5.474847e-05)
(-0.481265 0.006620248 -0.00241848)
(-0.4821332 0.02748709 -0.003723012)
(-0.4765006 0.04397103 -2.039024e-05)
(-0.4748937 0.05997275 0.0004224962)
(-0.4695173 0.07551955 0.0007116526)
(-0.4642302 0.0904712 2.866711e-05)
(-0.4653394 0.006064664 -0.002416164)
(-0.4662509 0.02545126 -0.003648184)
(-0.4610063 0.04079299 -6.191212e-05)
(-0.4596447 0.05567316 0.0003053512)
(-0.4547277 0.07028202 0.0008025401)
(-0.4500172 0.08433152 8.894354e-05)
(-0.4505121 0.005570725 -0.002411333)
(-0.4514471 0.02362287 -0.003570239)
(-0.4465333 0.03792665 -7.639844e-05)
(-0.4453933 0.05185419 0.00023713)
(-0.4408687 0.06550271 0.0008401715)
(-0.4366346 0.0787237 0.0001299001)
(-0.4366836 0.005130446 -0.002403549)
(-0.4376349 0.02196242 -0.003488509)
(-0.4330065 0.03531169 -7.175557e-05)
(-0.4320589 0.04835956 0.0002158264)
(-0.4278639 0.06113012 0.000840231)
(-0.4240283 0.07356981 0.0001523737)
(-0.4237674 0.004735491 -0.002391329)
(-0.4247291 0.02044831 -0.003401982)
(-0.4203473 0.03291367 -5.606969e-05)
(-0.4195672 0.04514444 0.0002149539)
(-0.415662 0.05709282 0.000831072)
(-0.4121623 0.06881111 0.0001637588)
(-0.4116874 0.004378341 -0.00237393)
(-0.4126676 0.01905452 -0.003311122)
(-0.4085047 0.03070828 -3.588249e-05)
(-0.4078745 0.04217866 0.0002187507)
(-0.4041993 0.05337911 0.0008120123)
(-0.4009781 0.06440364 0.0001791745)
(-0.3945185 0.003506 -0.003620457)
(-0.4013835 0.01778327 -0.003223536)
(-0.397404 0.02865718 -1.517836e-05)
(-0.3968933 0.03942233 0.000228602)
(-0.39344 0.04977588 0.0007567414)
(-0.3904763 0.06033214 0.0002270823)
(-0.7343707 0.4766238 -0.03004879)
(-0.5820183 0.4491308 -0.003075902)
(-0.5214998 0.4519876 -0.003648758)
(-0.4789191 0.4549839 -0.003497207)
(-0.4427906 0.452915 -0.002869468)
(-0.4128353 0.4523967 -0.002663456)
(-1.289116 0.1812435 -0.004258415)
(-1.131518 0.272693 -0.01325507)
(-1.01424 0.3336921 -0.01958404)
(-0.9308738 0.3563571 -0.01990911)
(-0.8596803 0.3791599 -0.02040621)
(-0.8010747 0.3907457 -0.02045434)
(-1.112002 0.1083721 -0.002509726)
(-1.022665 0.2611106 0.0089178)
(-0.9505382 0.3261915 0.00877457)
(-0.8891095 0.370359 0.01029873)
(-0.8337348 0.3980773 0.01065436)
(-0.7840226 0.4175706 0.01110312)
(-1.027405 0.06100576 0.0009819331)
(-0.9731513 0.1606281 0.001582485)
(-0.9132743 0.2201113 -0.001903744)
(-0.8616316 0.2618681 -0.002684179)
(-0.8106521 0.2949296 -0.003992715)
(-0.7656697 0.3206192 -0.003779921)
(-0.913083 0.04651819 0.002573266)
(-0.8881546 0.145012 0.006553536)
(-0.8539144 0.2019914 0.004003353)
(-0.8167158 0.2480077 0.005190368)
(-0.7797978 0.2843726 0.004440353)
(-0.7422097 0.3117438 0.004109595)
(-0.858518 0.03274676 0.001863176)
(-0.8401898 0.1058492 0.003283979)
(-0.8113827 0.1556778 -0.00065496)
(-0.7812058 0.196214 -0.0003832862)
(-0.7488289 0.2305489 -0.001032424)
(-0.7165513 0.2588343 -0.0009109309)
(-0.7955306 0.02746553 0.001875322)
(-0.7837779 0.09323447 0.00436151)
(-0.7650226 0.1393971 0.001419898)
(-0.7418968 0.1788475 0.002467941)
(-0.7168964 0.2125757 0.00191892)
(-0.6905453 0.2408795 0.002065087)
(-0.7502368 0.02158177 0.001631182)
(-0.7425481 0.07604135 0.003184326)
(-0.7271873 0.1165126 -0.0001222934)
(-0.7081347 0.1515192 0.0004271789)
(-0.6869601 0.1827816 -0.0001712511)
(-0.6644283 0.2100629 -1.345978e-05)
(-0.7073325 0.01847731 0.001559154)
(-0.7020139 0.06727338 0.003415319)
(-0.6906858 0.1040442 0.0005109792)
(-0.6753435 0.1367184 0.00117444)
(-0.6581294 0.1662261 0.0006867279)
(-0.639254 0.19244 0.000831126)
(-0.6714549 0.01555967 0.001448452)
(-0.6679863 0.05822421 0.003013918)
(-0.6587206 0.09108763 0.0001352537)
(-0.6458949 0.1206958 0.0006097252)
(-0.6312751 0.1479818 0.0001013264)
(-0.6150743 0.1727486 0.0002423331)
(-0.6387837 0.01355773 0.001386169)
(-0.6364889 0.05204941 0.002993717)
(-0.6290836 0.08192463 0.0002587498)
(-0.6183298 0.1092506 0.0007526404)
(-0.6060003 0.1346783 0.00028137)
(-0.5921113 0.1580609 0.0004191555)
(-0.609805 0.01184286 0.001321879)
(-0.608434 0.04647286 0.002841053)
(-0.6022614 0.07359188 0.0001758407)
(-0.593059 0.09864802 0.0006093372)
(-0.5824531 0.1222323 0.0001387337)
(-0.5703777 0.1441841 0.0002680021)
(-0.5834613 0.01049626 0.001271725)
(-0.5827264 0.04204112 0.002766877)
(-0.5775622 0.06686005 0.0001953398)
(-0.5696102 0.0899939 0.0006127266)
(-0.5604341 0.1119321 0.0001549167)
(-0.549869 0.1325341 0.0002761999)
(-0.5595353 0.009359646 0.001223422)
(-0.5592788 0.03818016 0.00267728)
(-0.5548787 0.06095298 0.0001815506)
(-0.5479179 0.08232521 0.0005711154)
(-0.5398925 0.1027271 0.0001158372)
(-0.5305569 0.1220418 0.0002283118)
(-0.5376218 0.008402346 0.001177638)
(-0.5376994 0.03489594 0.002605926)
(-0.5339205 0.0558872 0.000188163)
(-0.5277739 0.07569775 0.0005690312)
(-0.5206965 0.09469439 9.681353e-05)
(-0.5123798 0.1128144 0.0002130021)
(-0.5174821 0.007591382 0.001133077)
(-0.5177977 0.03202237 0.002536358)
(-0.5145214 0.0514289 0.0001859249)
(-0.5090546 0.06982096 0.0005698858)
(-0.5027575 0.08752621 6.182914e-05)
(-0.4952773 0.1045292 0.0001926342)
(-0.4988909 0.006897519 0.001090094)
(-0.4993717 0.02950195 0.002470406)
(-0.4965167 0.04749808 0.0001804601)
(-0.4916253 0.06460685 0.0005670796)
(-0.4859712 0.08113533 2.748094e-05)
(-0.4791864 0.0970961 0.0001734591)
(-0.4816723 0.006295119 0.00104875)
(-0.4822656 0.02726014 0.002402509)
(-0.4797681 0.04398214 0.0001666937)
(-0.475371 0.05994 0.0005136579)
(-0.470252 0.07539085 -5.783701e-06)
(-0.4640529 0.09037534 0.000151016)
(-0.4656866 0.005763739 0.001010637)
(-0.4663581 0.02524889 0.002347469)
(-0.464151 0.04081134 0.0001652338)
(-0.4601742 0.05572147 0.0005355733)
(-0.4555214 0.07019284 -2.706812e-05)
(-0.4498209 0.08426068 0.000139174)
(-0.4508167 0.005293154 0.0009738551)
(-0.4515375 0.02343245 0.002293783)
(-0.4495762 0.03793966 0.00016124)
(-0.4459499 0.05187486 0.0005419638)
(-0.4416994 0.0654547 -3.856094e-05)
(-0.4364362 0.07866464 0.0001276895)
(-0.4369626 0.004872751 0.0009384372)
(-0.4377112 0.021782 0.002242164)
(-0.4359601 0.03532328 0.0001602218)
(-0.4326232 0.04835839 0.0005440972)
(-0.4287195 0.06110807 -3.951453e-05)
(-0.4238441 0.07351542 0.0001169223)
(-0.4240396 0.004496554 0.0009043795)
(-0.4247961 0.0202762 0.002190204)
(-0.4232254 0.03292884 0.0001597322)
(-0.4201324 0.04513175 0.0005383168)
(-0.4165315 0.05710167 -3.929952e-05)
(-0.4119987 0.0687547 0.0001058186)
(-0.4119683 0.004156282 0.0008719252)
(-0.4127217 0.01889506 0.002136525)
(-0.4113062 0.03072724 0.0001629817)
(-0.4084199 0.04216001 0.0005350893)
(-0.4050882 0.05339579 -2.138101e-05)
(-0.4008564 0.06432983 9.196171e-05)
(-0.4006771 0.003846019 0.0008422246)
(-0.401424 0.01762381 0.002089543)
(-0.4001449 0.0286929 0.0001662135)
(-0.3974362 0.03940828 0.0005222921)
(-0.3943528 0.04997024 -2.057211e-05)
(-0.3903869 0.0601927 7.201038e-05)
(-0.736668 0.4810028 -0.01315031)
(-0.5827309 0.4398956 0.002235558)
(-0.5194016 0.4514988 0.002429706)
(-0.4781309 0.4691794 0.002582225)
(-0.4455141 0.4833256 0.004415241)
(-0.4165244 0.4851966 0.004678706)
(-1.309222 0.1781451 -0.002520937)
(-1.131937 0.2641453 -0.011317)
(-1.013705 0.3298369 -0.0183673)
(-0.9300468 0.3537166 -0.0196151)
(-0.8586229 0.3765323 -0.01939156)
(-0.8011339 0.3900474 -0.01918325)
(-1.115731 0.1125079 0.001632244)
(-1.017385 0.2583103 0.003322007)
(-0.9462601 0.3211858 0.00567382)
(-0.8861782 0.3680039 0.009677401)
(-0.831356 0.3961409 0.009908821)
(-0.7822067 0.4148606 0.01018945)
(-1.036337 0.061527 0.0009013041)
(-0.9731363 0.1556496 -0.001541604)
(-0.9123194 0.2141644 0.001584722)
(-0.8615935 0.2575824 0.001396405)
(-0.8092382 0.2920882 0.0003638106)
(-0.7644586 0.3178986 0.0004466949)
(-0.9260558 0.04863768 0.001651606)
(-0.8835586 0.1435261 0.001732327)
(-0.8509828 0.2018889 0.003721818)
(-0.8159768 0.2500811 0.004680454)
(-0.7780388 0.2847796 0.004904315)
(-0.7416384 0.3127703 0.005125561)
(-0.8645663 0.03256501 0.0009047954)
(-0.8401624 0.1042752 -0.0006049444)
(-0.8112452 0.1535785 -0.0005689191)
(-0.7814659 0.193693 -0.001010698)
(-0.7481239 0.2276835 -0.0007488464)
(-0.7164008 0.2559553 -0.000905012)
(-0.8027933 0.02768571 0.0008539497)
(-0.782519 0.09370863 1.249893e-05)
(-0.7635185 0.139815 0.0009590413)
(-0.7415224 0.179832 0.00110548)
(-0.7161965 0.2131433 0.001522923)
(-0.6903788 0.2416199 0.001598724)
(-0.7560541 0.02155631 0.0006343266)
(-0.7423839 0.07592015 -0.0008481998)
(-0.726362 0.1159353 -0.0003821666)
(-0.708239 0.1508904 -0.0006046014)
(-0.6865637 0.1818729 -0.0003957285)
(-0.6643665 0.2090975 -0.000465384)
(-0.7131798 0.01855389 0.0005767399)
(-0.7015327 0.06772001 -0.0005638665)
(-0.6895617 0.1042663 7.388272e-05)
(-0.6752683 0.1371547 5.347923e-05)
(-0.6577367 0.1665073 0.0002742458)
(-0.6391837 0.192725 0.0002582748)
(-0.6767706 0.01558875 0.0005214682)
(-0.6677994 0.05843591 -0.0007319494)
(-0.657778 0.09102631 -0.0002335887)
(-0.6459348 0.1206567 -0.0003352518)
(-0.631006 0.1478185 -0.0001828748)
(-0.6150694 0.1725304 -0.0002650941)
(-0.6439053 0.01360562 0.0004790785)
(-0.6362542 0.05236247 -0.0006351857)
(-0.6281075 0.08206496 -0.0001096675)
(-0.6183375 0.109449 -0.0001727681)
(-0.6057548 0.1348114 -1.81917e-05)
(-0.5921256 0.1581722 -9.831957e-05)
(-0.6146339 0.01187311 0.0004470168)
(-0.6082745 0.0467081 -0.0006396647)
(-0.6013394 0.07365937 -0.0001482524)
(-0.5930946 0.0987357 -0.0002318426)
(-0.5822524 0.1222626 -9.583903e-05)
(-0.5704348 0.1441895 -0.0001975524)
(-0.5880704 0.01052253 0.0004162073)
(-0.5825756 0.04227235 -0.0005996391)
(-0.5766533 0.06695699 -0.0001069328)
(-0.5696414 0.09011575 -0.0001885997)
(-0.5602465 0.112018 -5.156575e-05)
(-0.5499486 0.1326132 -0.0001595674)
(-0.5639125 0.009379234 0.000389463)
(-0.5591563 0.03837899 -0.0005798582)
(-0.5539939 0.06102709 -9.53626e-05)
(-0.5479517 0.08241731 -0.0001848347)
(-0.5397138 0.1027957 -5.000383e-05)
(-0.5306583 0.122107 -0.0001597465)
(-0.5417823 0.008426799 0.0003656455)
(-0.5375982 0.03507751 -0.0005560405)
(-0.5330542 0.05595551 -7.462605e-05)
(-0.5277982 0.07578414 -0.00016879)
(-0.5205156 0.0947799 -2.538661e-05)
(-0.5124972 0.1128942 -0.0001386506)
(-0.52143 0.007612889 0.0003444731)
(-0.5177216 0.03218394 -0.000537609)
(-0.5136747 0.05148312 -6.182257e-05)
(-0.5090597 0.06989745 -0.000161778)
(-0.5025661 0.08762028 -1.111959e-06)
(-0.4954136 0.1046127 -0.0001183143)
(-0.502637 0.006913179 0.0003255966)
(-0.4993206 0.0296451 -0.000521943)
(-0.4956839 0.04753796 -5.24104e-05)
(-0.4915988 0.06467837 -0.0001521074)
(-0.4857654 0.0812333 3.15933e-05)
(-0.4793426 0.09718007 -9.206594e-05)
(-0.4852301 0.006303646 0.0003080941)
(-0.4822434 0.02738539 -0.0005110832)
(-0.4789467 0.04401099 -5.141127e-05)
(-0.4753068 0.05998561 -0.0001473312)
(-0.4700315 0.07547631 6.138573e-05)
(-0.4642253 0.09044687 -6.949308e-05)
(-0.4690682 0.005767696 0.000292042)
(-0.4663632 0.02536189 -0.0005017528)
(-0.4633565 0.04083888 -4.856071e-05)
(-0.460081 0.05574757 -0.0001518587)
(-0.4552732 0.07025796 8.366023e-05)
(-0.4500007 0.08431867 -5.222796e-05)
(-0.4540292 0.005293379 0.0002775163)
(-0.4515658 0.02353909 -0.0004927732)
(-0.4488045 0.03796931 -4.435809e-05)
(-0.4458384 0.05190544 -0.0001542058)
(-0.4414311 0.06550113 9.844696e-05)
(-0.4366162 0.07871458 -3.994549e-05)
(-0.4400121 0.004870228 0.0002646143)
(-0.4377586 0.0218842 -0.0004831275)
(-0.4352066 0.03535492 -3.754446e-05)
(-0.4325027 0.04839593 -0.0001515258)
(-0.4284387 0.06114096 0.0001087839)
(-0.424018 0.07355965 -3.071967e-05)
(-0.4269291 0.004490679 0.0002533483)
(-0.4248592 0.0203726 -0.0004730009)
(-0.4224858 0.03295887 -2.91494e-05)
(-0.4200076 0.04516917 -0.0001472754)
(-0.416242 0.05712201 0.0001149316)
(-0.4121631 0.06879869 -2.581041e-05)
(-0.4147049 0.004147929 0.0002432268)
(-0.4127986 0.01898157 -0.0004639935)
(-0.4105799 0.03075196 -1.956422e-05)
(-0.4082966 0.04219248 -0.000144026)
(-0.4047882 0.0534051 0.0001228619)
(-0.4010054 0.06438004 -1.964547e-05)
(-0.4032759 0.003836341 0.000233536)
(-0.4015146 0.01769511 -0.0004538485)
(-0.39943 0.02870716 -9.199397e-06)
(-0.3973161 0.03942683 -0.0001407616)
(-0.3940345 0.04993844 0.0001245924)
(-0.3905129 0.06026436 -1.445551e-05)
(-0.7301636 0.472034 -0.00458226)
(-0.5843187 0.4379242 0.001453935)
(-0.5218745 0.4445058 0.001692962)
(-0.4785613 0.4485826 0.001759998)
(-0.4429867 0.4500414 0.001729125)
(-0.4133395 0.4509357 0.001584722)
(-1.30911 0.1755736 -0.001797839)
(-1.145474 0.2688347 -0.002485683)
(-1.020272 0.3294985 -0.005944296)
(-0.9288102 0.349606 -0.008768931)
(-0.8591219 0.375271 -0.009796654)
(-0.7997633 0.3848313 -0.008171132)
(-1.102631 0.1116493 -3.439995e-05)
(-1.014789 0.2548843 0.0008130372)
(-0.9448768 0.307369 -0.0001904227)
(-0.8845026 0.349578 -0.0006688201)
(-0.8297297 0.3841054 -0.0003604707)
(-0.7785914 0.404164 4.830895e-05)
(-1.036021 0.06157479 0.0004687514)
(-0.9698907 0.1541312 0.001668799)
(-0.9092071 0.2097841 0.002742368)
(-0.8606831 0.2519968 0.003715796)
(-0.809908 0.2863773 0.002791753)
(-0.7646576 0.3116343 0.002731629)
(-0.9243458 0.04854492 0.0007441906)
(-0.8820785 0.1405232 0.001384882)
(-0.8510212 0.2004337 0.001557087)
(-0.8156514 0.2471441 0.002179952)
(-0.7788524 0.2835228 0.00194349)
(-0.7421828 0.3116531 0.002191056)
(-0.862693 0.03210552 0.0005920522)
(-0.8399559 0.1034816 0.001581878)
(-0.8117141 0.1526441 0.0003985744)
(-0.7815231 0.1925801 0.001102842)
(-0.7487969 0.22658 0.0003418115)
(-0.7165402 0.2547159 0.0005564968)
(-0.8013615 0.02744973 0.0004596714)
(-0.7820262 0.0931115 0.001363038)
(-0.7637701 0.1396134 0.0005270549)
(-0.7413692 0.1793269 0.001010784)
(-0.7164691 0.2129835 0.0006179004)
(-0.6903753 0.2413914 0.0007798596)
(-0.7549685 0.02142721 0.0003615015)
(-0.7421711 0.07559079 0.001120161)
(-0.7267863 0.115676 0.0001863668)
(-0.7082074 0.1505173 0.0006134218)
(-0.6868887 0.1815476 0.0001839213)
(-0.6643838 0.2087259 0.000328687)
(-0.7121844 0.01849527 0.000326107)
(-0.701225 0.06752968 0.00106881)
(-0.6899144 0.1042504 0.0002483553)
(-0.6751953 0.1370538 0.000635941)
(-0.6580076 0.1664966 0.0002880836)
(-0.6392135 0.1926802 0.000413563)
(-0.6759184 0.01553308 0.0002973711)
(-0.667579 0.05826883 0.0009668588)
(-0.6581729 0.09095106 0.0001475369)
(-0.6459014 0.1205201 0.0004964091)
(-0.631273 0.1477118 0.0001536519)
(-0.6150935 0.1724062 0.0002740191)
(-0.6431172 0.01357154 0.0002834202)
(-0.6360183 0.05225347 0.0009301615)
(-0.6284775 0.08205728 0.0001544071)
(-0.6182954 0.1094042 0.0004909159)
(-0.606005 0.134801 0.0001705777)
(-0.5921513 0.1581459 0.0002845122)
(-0.6139152 0.01184293 0.0002696801)
(-0.6080661 0.046605 0.0008804004)
(-0.6017142 0.07363637 0.0001219774)
(-0.5930649 0.09867716 0.0004397074)
(-0.5824962 0.1222258 0.0001284086)
(-0.5704524 0.1441382 0.0002385859)
(-0.5873996 0.01050104 0.0002590646)
(-0.5823717 0.04219014 0.0008480039)
(-0.5770179 0.06695222 0.0001145357)
(-0.5696134 0.09008271 0.0004208054)
(-0.5604826 0.1120056 0.0001207835)
(-0.5499634 0.1325865 0.0002276149)
(-0.5632867 0.009360328 0.0002491808)
(-0.5589638 0.03830362 0.0008159789)
(-0.5543548 0.0610215 0.0001017238)
(-0.5479295 0.08238424 0.0003957082)
(-0.539945 0.1027792 0.0001036041)
(-0.5306699 0.1220774 0.0002064639)
(-0.5411953 0.008410729 0.0002402644)
(-0.5374124 0.03501091 0.0007892809)
(-0.5334085 0.05595455 9.495433e-05)
(-0.5277808 0.07575833 0.0003781275)
(-0.5207422 0.09476858 9.295064e-05)
(-0.512507 0.1128715 0.0001927039)
(-0.5208771 0.007597733 0.0002320374)
(-0.5175433 0.03212244 0.000764189)
(-0.5140238 0.05148228 8.806372e-05)
(-0.5090478 0.06987277 0.0003613565)
(-0.5027888 0.08760769 8.213702e-05)
(-0.4954213 0.1045895 0.000178579)
(-0.5021144 0.006898403 0.0002244867)
(-0.499149 0.0295886 0.000741088)
(-0.496028 0.04753726 8.228731e-05)
(-0.491593 0.06465363 0.000345382)
(-0.4859846 0.08122077 7.152406e-05)
(-0.4793487 0.09715868 0.0001653331)
(-0.4847351 0.006289217 0.0002174411)
(-0.4820787 0.02733525 0.0007194101)
(-0.4792881 0.04401306 7.608688e-05)
(-0.475307 0.05997076 0.0003283305)
(-0.4702463 0.07546538 6.047866e-05)
(-0.4642296 0.09042721 0.00015288)
(-0.4685967 0.00575406 0.0002110613)
(-0.4662019 0.02531775 0.0007011385)
(-0.4636878 0.04084419 7.314793e-05)
(-0.4600879 0.05574288 0.0003221623)
(-0.4554918 0.0702514 5.175255e-05)
(-0.4500048 0.08430276 0.0001432622)
(-0.4535793 0.005280271 0.0002051002)
(-0.4514078 0.02349798 0.0006839435)
(-0.4491275 0.03797552 7.045264e-05)
(-0.4458506 0.05190161 0.0003156241)
(-0.4416527 0.06549923 4.43145e-05)
(-0.4366219 0.07869781 0.0001342477)
(-0.4395821 0.004857787 0.0001994907)
(-0.4376031 0.02184569 0.0006674704)
(-0.435522 0.03536217 6.850653e-05)
(-0.4325181 0.04839036 0.0003089635)
(-0.4286631 0.06114264 3.932642e-05)
(-0.4240265 0.07354077 0.0001266013)
(-0.4265181 0.004478808 0.0001946307)
(-0.4247055 0.02033538 0.0006512884)
(-0.4227957 0.03296803 6.619158e-05)
(-0.4200267 0.04516271 0.0003011042)
(-0.4164715 0.05713206 3.442194e-05)
(-0.4121797 0.06877477 0.0001206598)
(-0.4143117 0.00413645 0.0001899053)
(-0.4126445 0.01894691 0.0006349769)
(-0.4108852 0.03076316 6.470511e-05)
(-0.4083131 0.04218456 0.0002938629)
(-0.4050222 0.05341811 3.341734e-05)
(-0.4010279 0.06434738 0.0001167395)
(-0.4028974 0.003825586 0.0001856795)
(-0.401358 0.01766231 0.0006201722)
(-0.399733 0.02872438 6.144783e-05)
(-0.3973361 0.03941652 0.0002846206)
(-0.3942825 0.04997864 2.619011e-05)
(-0.390558 0.06021842 0.0001128827)
(-0.7202598 0.463284 0.001277317)
(-0.5857212 0.4746015 -0.01768222)
(-0.5218577 0.4808724 -0.01593284)
(-0.4785955 0.4822748 -0.01308328)
(-0.4455032 0.4824549 -0.01098933)
(-0.416968 0.4836655 -0.01080934)
(-1.311074 0.1753198 0.0005215953)
(-1.141405 0.2666454 0.002242851)
(-1.019562 0.3291772 0.005604771)
(-0.9285632 0.3493861 0.008702572)
(-0.8590026 0.3752631 0.009778773)
(-0.7997199 0.3848014 0.008157845)
(-1.100051 0.1107891 0.000631825)
(-1.01486 0.2558345 -0.0006204357)
(-0.945044 0.3078587 0.0001903975)
(-0.8845023 0.3495759 0.0006981084)
(-0.8297451 0.3841251 0.0003559982)
(-0.7785831 0.4041593 -4.704599e-05)
(-1.037134 0.06153003 0.0002752297)
(-0.9698078 0.1539333 -0.001737082)
(-0.90914 0.2097615 -0.002810097)
(-0.8606293 0.2519697 -0.003720606)
(-0.8099017 0.2863782 -0.002796615)
(-0.7646507 0.3116349 -0.002729723)
(-0.9255888 0.04847835 6.691531e-05)
(-0.8820878 0.1406004 -0.001379386)
(-0.8510289 0.2004896 -0.001565715)
(-0.8156484 0.2471509 -0.002182056)
(-0.7788526 0.2835286 -0.00194559)
(-0.7421812 0.3116537 -0.002191576)
(-0.8634246 0.03200871 1.088524e-05)
(-0.8399612 0.1034749 -0.001587379)
(-0.81171 0.1526489 -0.0004055176)
(-0.7815197 0.1925807 -0.001104891)
(-0.7487958 0.2265816 -0.0003431578)
(-0.7165391 0.2547165 -0.0005566463)
(-0.8020552 0.02743759 2.015215e-05)
(-0.7820272 0.09311688 -0.001363935)
(-0.7637702 0.1396177 -0.0005288709)
(-0.7413684 0.1793283 -0.001011498)
(-0.7164688 0.2129844 -0.0006182739)
(-0.6903747 0.2413918 -0.000779729)
(-0.7556142 0.02142493 2.763788e-05)
(-0.7421716 0.07559126 -0.00112071)
(-0.7267861 0.115677 -0.0001873054)
(-0.7082071 0.1505179 -0.0006137182)
(-0.6868884 0.181548 -0.0001840756)
(-0.6643836 0.2087261 -0.0003285572)
(-0.712772 0.0184942 2.770272e-05)
(-0.7012249 0.06753009 -0.00106903)
(-0.6899144 0.1042508 -0.0002486209)
(-0.6751951 0.1370541 -0.0006359431)
(-0.6580075 0.1664968 -0.0002879745)
(-0.6392133 0.1926803 -0.0004133927)
(-0.6764697 0.01553275 2.879164e-05)
(-0.6675791 0.05826895 -0.0009670242)
(-0.6581729 0.09095127 -0.0001476986)
(-0.6459014 0.1205202 -0.0004963295)
(-0.6312728 0.1477119 -0.0001535504)
(-0.6150934 0.1724062 -0.0002737963)
(-0.6436337 0.01357046 2.73382e-05)
(-0.6360184 0.05225352 -0.0009302879)
(-0.6284775 0.08205724 -0.0001543859)
(-0.6182953 0.1094041 -0.0004907465)
(-0.606005 0.134801 -0.000170376)
(-0.5921512 0.1581459 -0.0002843442)
(-0.6144029 0.01184271 2.560156e-05)
(-0.6080661 0.046605 -0.0008804849)
(-0.6017141 0.07363639 -0.0001219434)
(-0.5930649 0.09867718 -0.0004394675)
(-0.582496 0.1222257 -0.0001282167)
(-0.5704524 0.1441382 -0.000238297)
(-0.5878613 0.01050057 2.41833e-05)
(-0.5823717 0.04219013 -0.0008479865)
(-0.577018 0.06695213 -0.0001144139)
(-0.5696133 0.09008269 -0.0004205607)
(-0.5604825 0.1120056 -0.0001205085)
(-0.5499633 0.1325866 -0.0002273928)
(-0.5637242 0.009359754 2.240441e-05)
(-0.5589638 0.03830361 -0.0008159184)
(-0.5543548 0.06102147 -0.0001016144)
(-0.5479293 0.08238424 -0.0003953868)
(-0.5399447 0.1027792 -0.0001033333)
(-0.5306697 0.1220775 -0.0002060963)
(-0.5416107 0.008410121 2.095063e-05)
(-0.5374125 0.03501084 -0.0007892005)
(-0.5334085 0.05595449 -9.483943e-05)
(-0.5277806 0.07575827 -0.0003779)
(-0.520742 0.09476868 -9.258906e-05)
(-0.5125067 0.1128717 -0.0001924381)
(-0.5212729 0.007597047 1.935091e-05)
(-0.5175434 0.03212224 -0.0007641947)
(-0.5140236 0.05148211 -8.801142e-05)
(-0.5090476 0.06987265 -0.0003611421)
(-0.5027884 0.08760771 -8.174873e-05)
(-0.4954208 0.1045899 -0.000178212)
(-0.5024924 0.006897612 1.772078e-05)
(-0.4991493 0.02958823 -0.0007411254)