/*--------------------------------*- C++ -*----------------------------------*\
  =========                 |
  \\      /  F ield         | OpenFOAM: The Open Source CFD Toolbox
   \\    /   O peration     | Website:  https://openfoam.org
    \\  /    A nd           | Version:  7
     \\/     M anipulation  |
\*---------------------------------------------------------------------------*/
FoamFile
{
    version     2.0;
    format      ascii;
    class       volScalarField;
    location    "0.1";
    object      Ux;
}
// * * * * * * * * * * * * * * * * * * * * * * * * * * * * * * * * * * * * * //

dimensions      [0 1 -1 0 0 0 0];

internalField   nonuniform List<scalar> 
109929
(
-1.133643
-1.028309
-0.9410364
-0.870876
-0.811792
-0.7613089
-1.051799
-0.9809654
-0.9135107
-0.8535342
-0.8009971
-0.7542698
-0.9743499
-0.9284734
-0.877528
-0.8269083
-0.7816221
-0.7398637
-0.9006778
-0.8723253
-0.8348558
-0.7946762
-0.7567281
-0.7202622
-0.8409478
-0.8216467
-0.7935924
-0.7612896
-0.7295042
-0.698121
-0.7882529
-0.7753273
-0.7539792
-0.7285371
-0.7019743
-0.6750042
-0.7437031
-0.7343513
-0.7175828
-0.696642
-0.6745509
-0.6515636
-0.7041656
-0.6972288
-0.6840303
-0.6667574
-0.6485414
-0.6285151
-0.6693237
-0.663879
-0.6533463
-0.638783
-0.623182
-0.6060636
-0.6380538
-0.6336195
-0.6251129
-0.6126436
-0.5992817
-0.5845707
-0.6098925
-0.6062985
-0.5991455
-0.5883423
-0.5767887
-0.5640722
-0.5842991
-0.5812942
-0.5752037
-0.565774
-0.5556648
-0.5443784
-0.5609102
-0.5583295
-0.5530878
-0.5447722
-0.5358529
-0.5257817
-0.5394391
-0.5371254
-0.5326836
-0.5252193
-0.5172304
-0.5081983
-0.5196575
-0.5175181
-0.5136888
-0.5070131
-0.499737
-0.4915897
-0.5013604
-0.4992901
-0.4959946
-0.490021
-0.48333
-0.4759262
-0.4843703
-0.4822928
-0.4795586
-0.4740573
-0.4679497
-0.4611783
-0.4685567
-0.4662621
-0.4641489
-0.4592294
-0.4535285
-0.4472723
-0.4538195
-0.451398
-0.4494785
-0.4453567
-0.4399742
-0.4341457
-0.4400741
-0.4376019
-0.4355763
-0.4322991
-0.4272237
-0.4217704
-0.4272339
-0.4247541
-0.4225187
-0.4200251
-0.4152427
-0.410149
-0.4152203
-0.4127631
-0.4104319
-0.4084732
-0.4040522
-0.3992187
-0.3847976
-0.4015482
-0.3992089
-0.3976355
-0.3936077
-0.388934
-0.7461319
-0.5845408
-0.5225581
-0.478587
-0.4434768
-0.4145797
-1.286414
-1.118328
-1.004176
-0.9206564
-0.8518365
-0.794908
-1.110987
-1.024455
-0.9474665
-0.8876046
-0.8308769
-0.7817978
-1.016599
-0.9693729
-0.9075657
-0.8603773
-0.8091661
-0.7655743
-0.9164929
-0.888704
-0.8500266
-0.8166232
-0.7779454
-0.742145
-0.8517737
-0.8393257
-0.8068018
-0.7806983
-0.7474364
-0.7165769
-0.7928459
-0.783874
-0.7609027
-0.7417095
-0.7155644
-0.6901642
-0.7462837
-0.7421533
-0.7228571
-0.7078702
-0.6859092
-0.664324
-0.7047341
-0.7019445
-0.6866016
-0.6751632
-0.6571874
-0.6390792
-0.6689801
-0.6677752
-0.654648
-0.6456397
-0.6304571
-0.6149978
-0.636923
-0.6363459
-0.6251692
-0.6180957
-0.6052411
-0.5920408
-0.608251
-0.6082507
-0.5984284
-0.5928012
-0.5817381
-0.5703622
-0.5822495
-0.5825516
-0.5738411
-0.5693499
-0.5597435
-0.5498794
-0.5585899
-0.5590985
-0.5512502
-0.5476401
-0.5392088
-0.530594
-0.5369097
-0.5375337
-0.5304002
-0.5274637
-0.5200025
-0.51244
-0.5169004
-0.5176444
-0.5111114
-0.5086932
-0.5020345
-0.4953751
-0.4984074
-0.4992303
-0.4932057
-0.4912029
-0.4852175
-0.4793275
-0.481265
-0.4821332
-0.4765006
-0.4748937
-0.4695173
-0.4642302
-0.4653394
-0.4662509
-0.4610063
-0.4596447
-0.4547277
-0.4500172
-0.4505121
-0.4514471
-0.4465333
-0.4453933
-0.4408687
-0.4366346
-0.4366836
-0.4376349
-0.4330065
-0.4320589
-0.4278639
-0.4240283
-0.4237674
-0.4247291
-0.4203473
-0.4195672
-0.415662
-0.4121623
-0.4116874
-0.4126676
-0.4085047
-0.4078745
-0.4041993
-0.4009781
-0.3945185
-0.4013835
-0.397404
-0.3968933
-0.39344
-0.3904763
-0.7343707
-0.5820183
-0.5214998
-0.4789191
-0.4427906
-0.4128353
-1.289116
-1.131518
-1.01424
-0.9308738
-0.8596803
-0.8010747
-1.112002
-1.022665
-0.9505382
-0.8891095
-0.8337348
-0.7840226
-1.027405
-0.9731513
-0.9132743
-0.8616316
-0.8106521
-0.7656697
-0.913083
-0.8881546
-0.8539144
-0.8167158
-0.7797978
-0.7422097
-0.858518
-0.8401898
-0.8113827
-0.7812058
-0.7488289
-0.7165513
-0.7955306
-0.7837779
-0.7650226
-0.7418968
-0.7168964
-0.6905453
-0.7502368
-0.7425481
-0.7271873
-0.7081347
-0.6869601
-0.6644283
-0.7073325
-0.7020139
-0.6906858
-0.6753435
-0.6581294
-0.639254
-0.6714549
-0.6679863
-0.6587206
-0.6458949
-0.6312751
-0.6150743
-0.6387837
-0.6364889
-0.6290836
-0.6183298
-0.6060003
-0.5921113
-0.609805
-0.608434
-0.6022614
-0.593059
-0.5824531
-0.5703777
-0.5834613
-0.5827264
-0.5775622
-0.5696102
-0.5604341
-0.549869
-0.5595353
-0.5592788
-0.5548787
-0.5479179
-0.5398925
-0.5305569
-0.5376218
-0.5376994
-0.5339205
-0.5277739
-0.5206965
-0.5123798
-0.5174821
-0.5177977
-0.5145214
-0.5090546
-0.5027575
-0.4952773
-0.4988909
-0.4993717
-0.4965167
-0.4916253
-0.4859712
-0.4791864
-0.4816723
-0.4822656
-0.4797681
-0.475371
-0.470252
-0.4640529
-0.4656866
-0.4663581
-0.464151
-0.4601742
-0.4555214
-0.4498209
-0.4508167
-0.4515375
-0.4495762
-0.4459499
-0.4416994
-0.4364362
-0.4369626
-0.4377112
-0.4359601
-0.4326232
-0.4287195
-0.4238441
-0.4240396
-0.4247961
-0.4232254
-0.4201324
-0.4165315
-0.4119987
-0.4119683
-0.4127217
-0.4113062
-0.4084199
-0.4050882
-0.4008564
-0.4006771
-0.401424
-0.4001449
-0.3974362
-0.3943528
-0.3903869
-0.736668
-0.5827309
-0.5194016
-0.4781309
-0.4455141
-0.4165244
-1.309222
-1.131937
-1.013705
-0.9300468
-0.8586229
-0.8011339
-1.115731
-1.017385
-0.9462601
-0.8861782
-0.831356
-0.7822067
-1.036337
-0.9731363
-0.9123194
-0.8615935
-0.8092382
-0.7644586
-0.9260558
-0.8835586
-0.8509828
-0.8159768
-0.7780388
-0.7416384
-0.8645663
-0.8401624
-0.8112452
-0.7814659
-0.7481239
-0.7164008
-0.8027933
-0.782519
-0.7635185
-0.7415224
-0.7161965
-0.6903788
-0.7560541
-0.7423839
-0.726362
-0.708239
-0.6865637
-0.6643665
-0.7131798
-0.7015327
-0.6895617
-0.6752683
-0.6577367
-0.6391837
-0.6767706
-0.6677994
-0.657778
-0.6459348
-0.631006
-0.6150694
-0.6439053
-0.6362542
-0.6281075
-0.6183375
-0.6057548
-0.5921256
-0.6146339
-0.6082745
-0.6013394
-0.5930946
-0.5822524
-0.5704348
-0.5880704
-0.5825756
-0.5766533
-0.5696414
-0.5602465
-0.5499486
-0.5639125
-0.5591563
-0.5539939
-0.5479517
-0.5397138
-0.5306583
-0.5417823
-0.5375982
-0.5330542
-0.5277982
-0.5205156
-0.5124972
-0.52143
-0.5177216
-0.5136747
-0.5090597
-0.5025661
-0.4954136
-0.502637
-0.4993206
-0.4956839
-0.4915988
-0.4857654
-0.4793426
-0.4852301
-0.4822434
-0.4789467
-0.4753068
-0.4700315
-0.4642253
-0.4690682
-0.4663632
-0.4633565
-0.460081
-0.4552732
-0.4500007
-0.4540292
-0.4515658
-0.4488045
-0.4458384
-0.4414311
-0.4366162
-0.4400121
-0.4377586
-0.4352066
-0.4325027
-0.4284387
-0.424018
-0.4269291
-0.4248592
-0.4224858
-0.4200076
-0.416242
-0.4121631
-0.4147049
-0.4127986
-0.4105799
-0.4082966
-0.4047882
-0.4010054
-0.4032759
-0.4015146
-0.39943
-0.3973161
-0.3940345
-0.3905129
-0.7301636
-0.5843187
-0.5218745
-0.4785613
-0.4429867
-0.4133395
-1.30911
-1.145474
-1.020272
-0.9288102
-0.8591219
-0.7997633
-1.102631
-1.014789
-0.9448768
-0.8845026
-0.8297297
-0.7785914
-1.036021
-0.9698907
-0.9092071
-0.8606831
-0.809908
-0.7646576
-0.9243458
-0.8820785
-0.8510212
-0.8156514
-0.7788524
-0.7421828
-0.862693
-0.8399559
-0.8117141
-0.7815231
-0.7487969
-0.7165402
-0.8013615
-0.7820262
-0.7637701
-0.7413692
-0.7164691
-0.6903753
-0.7549685
-0.7421711
-0.7267863
-0.7082074
-0.6868887
-0.6643838
-0.7121844
-0.701225
-0.6899144
-0.6751953
-0.6580076
-0.6392135
-0.6759184
-0.667579
-0.6581729
-0.6459014
-0.631273
-0.6150935
-0.6431172
-0.6360183
-0.6284775
-0.6182954
-0.606005
-0.5921513
-0.6139152
-0.6080661
-0.6017142
-0.5930649
-0.5824962
-0.5704524
-0.5873996
-0.5823717
-0.5770179
-0.5696134
-0.5604826
-0.5499634
-0.5632867
-0.5589638
-0.5543548
-0.5479295
-0.539945
-0.5306699
-0.5411953
-0.5374124
-0.5334085
-0.5277808
-0.5207422
-0.512507
-0.5208771
-0.5175433
-0.5140238
-0.5090478
-0.5027888
-0.4954213
-0.5021144
-0.499149
-0.496028
-0.491593
-0.4859846
-0.4793487
-0.4847351
-0.4820787
-0.4792881
-0.475307
-0.4702463
-0.4642296
-0.4685967
-0.4662019
-0.4636878
-0.4600879
-0.4554918
-0.4500048
-0.4535793
-0.4514078
-0.4491275
-0.4458506
-0.4416527
-0.4366219
-0.4395821
-0.4376031
-0.435522
-0.4325181
-0.4286631
-0.4240265
-0.4265181
-0.4247055
-0.4227957
-0.4200267
-0.4164715
-0.4121797
-0.4143117
-0.4126445
-0.4108852
-0.4083131
-0.4050222
-0.4010279
-0.4028974
-0.401358
-0.399733
-0.3973361
-0.3942825
-0.390558
-0.7202598
-0.5857212
-0.5218577
-0.4785955
-0.4455032
-0.416968
-1.311074
-1.141405
-1.019562
-0.9285632
-0.8590026
-0.7997199
-1.100051
-1.01486
-0.945044
-0.8845023
-0.8297451
-0.7785831
-1.037134
-0.9698078
-0.90914
-0.8606293
-0.8099017
-0.7646507
-0.9255888
-0.8820878
-0.8510289
-0.8156484
-0.7788526
-0.7421812
-0.8634246
-0.8399612
-0.81171
-0.7815197
-0.7487958
-0.7165391
-0.8020552
-0.7820272
-0.7637702
-0.7413684
-0.7164688
-0.6903747
-0.7556142
-0.7421716
-0.7267861
-0.7082071
-0.6868884
-0.6643836
-0.712772
-0.7012249
-0.6899144
-0.6751951
-0.6580075
-0.6392133
-0.6764697
-0.6675791
-0.6581729
-0.6459014
-0.6312728
-0.6150934
-0.6436337
-0.6360184
-0.6284775
-0.6182953
-0.606005
-0.5921512
-0.6144029
-0.6080661
-0.6017141
-0.5930649
-0.582496
-0.5704524
-0.5878613
-0.5823717
-0.577018
-0.5696133
-0.5604825
-0.5499633
-0.5637242
-0.5589638
-0.5543548
-0.5479293
-0.5399447
-0.5306697
-0.5416107
-0.5374125
-0.5334085
-0.5277806
-0.520742
-0.5125067
-0.5212729
-0.5175434
-0.5140236
-0.5090476
-0.5027884
-0.4954208
-0.5024924
-0.4991493
-0.4960279
-0.4915925
-0.4859839
-0.4793478
-0.4850972
-0.4820793
-0.4792878
-0.4753062
-0.4702447
-0.464228
-0.4689444
-0.4662028
-0.4636874
-0.4600869
-0.4554893
-0.4500021
-0.4539139
-0.4514096
-0.4491266
-0.445849
-0.4416477
-0.4366165
-0.4399052
-0.4376064
-0.4355203
-0.4325159
-0.4286545
-0.4240192
-0.4268315
-0.4247117
-0.4227929
-0.4200237
-0.4164549
-0.4121636
-0.4146179
-0.4126553
-0.4108803
-0.4083124
-0.4049949
-0.4010066
-0.4031989
-0.4013771
-0.3997268
-0.3973363
-0.3942337
-0.3905061
-0.7315443
-0.5897927
-0.5235856
-0.4787422
-0.4442635
-0.415222
-1.305262
-1.131865
-1.013749
-0.930155
-0.8586559
-0.8011552
-1.098449
-1.017443
-0.9463239
-0.8861854
-0.8313489
-0.7822088
-1.038316
-0.9731725
-0.9123244
-0.8615807
-0.8092381
-0.7644589
-0.9271506
-0.8835609
-0.8509862
-0.8159745
-0.7780377
-0.7416373
-0.8648573
-0.8401647
-0.8112462
-0.781464
-0.7481231
-0.7163997
-0.8031518
-0.7825195
-0.7635187
-0.7415218
-0.716196
-0.6903783
-0.7564603
-0.7423843
-0.7263621
-0.7082387
-0.6865634
-0.664366
-0.7135983
-0.7015329
-0.6895616
-0.6752682
-0.6577365
-0.6391836
-0.6772256
-0.6677993
-0.6577779
-0.6459347
-0.631006
-0.6150694
-0.6443754
-0.6362541
-0.6281075
-0.6183375
-0.6057548
-0.5921257
-0.6151197
-0.6082743
-0.6013394
-0.5930945
-0.5822524
-0.5704347
-0.5885641
-0.5825757
-0.5766533
-0.5696415
-0.5602465
-0.5499486
-0.5644117
-0.5591563
-0.5539939
-0.5479517
-0.5397139
-0.5306584
-0.5422842
-0.5375982
-0.5330541
-0.5277983
-0.5205157
-0.5124974
-0.5219331
-0.5177212
-0.5136747
-0.5090598
-0.5025664
-0.495414
-0.5031401
-0.4993201
-0.495684
-0.491599
-0.485766
-0.4793433
-0.4857326
-0.4822426
-0.478947
-0.4753071
-0.4700329
-0.4642269
-0.4695688
-0.4663618
-0.4633573
-0.4600813
-0.4552761
-0.4500032
-0.4545278
-0.4515631
-0.4488066
-0.4458392
-0.4414371
-0.4366224
-0.4405088
-0.4377538
-0.4352108
-0.4325012
-0.4284483
-0.4240262
-0.427425
-0.42485
-0.4224933
-0.420007
-0.416264
-0.4121897
-0.4152024
-0.4127828
-0.4105966
-0.4082816
-0.4048203
-0.4010333
-0.4037729
-0.4014873
-0.3994543
-0.3972998
-0.3941093
-0.3906199
-0.7309266
-0.5912231
-0.526737
-0.478505
-0.4433374
-0.4140228
-1.294928
-1.131524
-1.014242
-0.9308069
-0.859653
-0.8010502
-1.101586
-1.022648
-0.9505383
-0.8891081
-0.8337343
-0.7840177
-1.036983
-0.9731498
-0.9132714
-0.8616281
-0.8106488
-0.765667
-0.9300547
-0.8881554
-0.8539162
-0.8167143
-0.7797963
-0.7422076
-0.8646604
-0.8401909
-0.8113825
-0.7812047
-0.7488281
-0.7165501
-0.8033657
-0.7837784
-0.7650229
-0.7418962
-0.7168959
-0.6905445
-0.7561951
-0.7425484
-0.7271874
-0.7081342
-0.6869597
-0.6644279
-0.7134321
-0.7020139
-0.6906857
-0.675343
-0.6581292
-0.6392536
-0.6769649
-0.6679866
-0.6587204
-0.6458945
-0.6312749
-0.6150741
-0.6441579
-0.636489
-0.6290832
-0.6183293
-0.6060001
-0.5921112
-0.6149028
-0.608434
-0.6022609
-0.5930585
-0.5824529
-0.5703776
-0.5883686
-0.5827262
-0.577562
-0.5696096
-0.5604339
-0.5498689
-0.5642301
-0.5592786
-0.5548784
-0.5479172
-0.5398922
-0.5305566
-0.5421135
-0.5376994
-0.5339204
-0.527773
-0.520696
-0.5123795
-0.521768
-0.5177981
-0.5145212
-0.5090535
-0.5027566
-0.4952768
-0.5029775
-0.4993722
-0.4965165
-0.4916241
-0.4859699
-0.4791857
-0.4855686
-0.4822664
-0.4797677
-0.4753693
-0.4702501
-0.4640516
-0.469401
-0.4663593
-0.4641505
-0.4601721
-0.4555184
-0.4498186
-0.4543541
-0.4515394
-0.4495754
-0.4459474
-0.441694
-0.4364313
-0.4403292
-0.4377141
-0.4359586
-0.4326195
-0.4287097
-0.4238362
-0.4272399
-0.424802
-0.4232231
-0.4201272
-0.4165118
-0.41198
-0.4150115
-0.4127313
-0.4113026
-0.4084142
-0.4050469
-0.4008268
-0.4035792
-0.4014461
-0.4001461
-0.3974332
-0.3942709
-0.3902978
-0.7421407
-0.5913633
-0.5266647
-0.48173
-0.4464646
-0.4168787
-1.309022
-1.118328
-1.004175
-0.9206482
-0.8518298
-0.7949015
-1.115054
-1.024458
-0.9474687
-0.8876018
-0.830876
-0.7817955
-1.03765
-0.9693816
-0.9075657
-0.8603749
-0.8091644
-0.7655741
-0.9317656
-0.8887049
-0.8500264
-0.8166218
-0.7779439
-0.742144
-0.8675969
-0.8393263
-0.8068017
-0.7806976
-0.7474356
-0.7165766
-0.8064451
-0.7838742
-0.760902
-0.7417088
-0.7155639
-0.6901639
-0.7587913
-0.7421534
-0.7228568
-0.70787
-0.6859089
-0.664324
-0.7159563
-0.7019442
-0.686601
-0.6751631
-0.6571871
-0.6390792
-0.6792509
-0.6677751
-0.6546474
-0.64564
-0.6304573
-0.6149978
-0.6463152
-0.6363459
-0.6251686
-0.6180961
-0.6052414
-0.5920409
-0.6169178
-0.608251
-0.5984278
-0.5928014
-0.5817383
-0.5703623
-0.5902797
-0.5825516
-0.5738409
-0.5693501
-0.5597439
-0.5498794
-0.5660398
-0.5590985
-0.5512498
-0.5476402
-0.5392091
-0.5305941
-0.5438337
-0.5375336
-0.5303999
-0.5274639
-0.5200029
-0.5124405
-0.5234063
-0.5176446
-0.5111107
-0.5086933
-0.5020347
-0.4953754
-0.5045407
-0.49923
-0.4932055
-0.4912031
-0.4852182
-0.4793281
-0.4870611
-0.4821324
-0.4764998
-0.4748936
-0.4695188
-0.4642318
-0.4708316
-0.4662491
-0.4610071
-0.4596444
-0.4547304
-0.4500196
-0.4557265
-0.4514431
-0.4465356
-0.4453931
-0.4408755
-0.4366432
-0.4416469
-0.4376272
-0.4330136
-0.4320534
-0.4278758
-0.4240393
-0.4285021
-0.4247128
-0.4203603
-0.419562
-0.4156961
-0.4122115
-0.4162159
-0.412639
-0.4085383
-0.4078315
-0.4042577
-0.4010395
-0.3945361
-0.4013264
-0.3974497
-0.3968369
-0.3936215
-0.3907839
-0.1225837
-0.1106394
-0.09771922
-0.08886861
-0.08221323
-0.07667219
-1.37305
-1.164093
-1.034684
-0.9447537
-0.8744212
-0.8150683
-0.7638371
-1.181473
-1.070681
-0.9832718
-0.9160329
-0.8582353
-0.8061044
-0.7594043
-1.053462
-0.9863753
-0.9290255
-0.8793376
-0.8305929
-0.7850561
-0.7426219
-0.9541097
-0.9085555
-0.8711493
-0.8360665
-0.7978864
-0.7598561
-0.7229864
-0.8812749
-0.846191
-0.8189424
-0.7951459
-0.7647591
-0.7329771
-0.7011612
-0.820715
-0.7904773
-0.7731272
-0.7553092
-0.7317685
-0.7053748
-0.6779531
-0.7704936
-0.7441662
-0.7292615
-0.7188576
-0.7003087
-0.6782291
-0.6546225
-0.7273227
-0.7030481
-0.6920952
-0.6852649
-0.6705602
-0.6519618
-0.6315605
-0.6897341
-0.6668768
-0.6586697
-0.65456
-0.6425499
-0.6268593
-0.609328
-0.6564439
-0.6343808
-0.6284003
-0.6262152
-0.6164206
-0.603132
-0.5878556
-0.6266673
-0.6051557
-0.600902
-0.6000861
-0.5920978
-0.5808275
-0.5672448
-0.5998082
-0.5786369
-0.5757494
-0.5759928
-0.5694327
-0.5597087
-0.5477484
-0.5753731
-0.5544644
-0.5526519
-0.5537147
-0.5482908
-0.5398474
-0.5292836
-0.5530106
-0.5323113
-0.531369
-0.5330775
-0.5285841
-0.521202
-0.5118019
-0.5324168
-0.5119122
-0.5116663
-0.513858
-0.5102351
-0.5036927
-0.4952982
-0.5133926
-0.4930508
-0.4933736
-0.4958479
-0.493103
-0.4872267
-0.479631
-0.4957461
-0.4755567
-0.4764009
-0.4778176
-0.4768243
-0.4717008
-0.464827
-0.4793561
-0.4592941
-0.4605527
-0.4623777
-0.4618193
-0.4571568
-0.4508856
-0.4640917
-0.4441615
-0.4457447
-0.4479128
-0.4477243
-0.4434938
-0.4377539
-0.4498736
-0.4300526
-0.4319472
-0.4344032
-0.434467
-0.4306515
-0.4253654
-0.4365975
-0.4168963
-0.4190906
-0.4217873
-0.4220065
-0.4185897
-0.4136632
-0.4241872
-0.4046228
-0.4070861
-0.4100061
-0.4103316
-0.4072037
-0.4026663
-0.4125976
-0.3999811
-0.3958552
-0.398971
-0.399358
-0.39644
-0.3923197
-1.265081
-0.1102978
-1.433929
-1.261137
-1.196021
-1.15131
-1.373122
-1.260088
-1.263435
-1.208662
-1.074587
-1.034955
-1.181458
-1.119777
-1.098153
-1.072952
-0.9856742
-0.9689697
-1.053464
-1.020009
-0.9948671
-0.9815152
-0.9015646
-0.892453
-0.9540966
-0.9325532
-0.9099531
-0.9002211
-0.8383421
-0.836282
-0.8812685
-0.8669523
-0.8464729
-0.8390446
-0.7812327
-0.7838663
-0.8207148
-0.8097128
-0.7913228
-0.7848426
-0.7350555
-0.7396585
-0.7704931
-0.7626207
-0.7457139
-0.7401434
-0.6935961
-0.699991
-0.727321
-0.720884
-0.7055636
-0.7004818
-0.6574279
-0.665014
-0.6897349
-0.6846703
-0.6705644
-0.6659184
-0.6251801
-0.6335569
-0.6564482
-0.6523013
-0.6392392
-0.6349134
-0.5963301
-0.6051732
-0.6266739
-0.6232779
-0.6111257
-0.6070316
-0.5702248
-0.5793291
-0.5998068
-0.5969524
-0.5856399
-0.5816679
-0.5464435
-0.555699
-0.5753698
-0.5729313
-0.5623926
-0.5585094
-0.5247035
-0.5339662
-0.5530081
-0.5508915
-0.5410406
-0.5372499
-0.5047521
-0.5139364
-0.5324176
-0.5305932
-0.5213403
-0.5176401
-0.4863307
-0.4953799
-0.5133882
-0.5118266
-0.5030966
-0.499475
-0.469266
-0.4781551
-0.4957434
-0.4944153
-0.4861542
-0.4826074
-0.4534248
-0.4621396
-0.4793497
-0.4782304
-0.4704015
-0.4669305
-0.4386828
-0.4472263
-0.4640878
-0.4631576
-0.4557265
-0.4523392
-0.4249618
-0.4333141
-0.4498622
-0.4491003
-0.442038
-0.4387363
-0.4121591
-0.4203089
-0.4365839
-0.4359756
-0.4292579
-0.4260379
-0.4001934
-0.4081216
-0.4241794
-0.4237118
-0.4173257
-0.4141679
-0.3889896
-0.3895707
-0.4125885
-0.4122505
-0.4061691
-0.4030756
-0.2869276
-1.400801
-1.210774
-0.1556267
-1.397359
-1.205633
-0.266907
-1.397204
-1.200963
-0.1507716
-1.393409
-1.20108
-0.2679438
-1.399286
-1.198069
-0.150855
-1.394354
-1.198898
-0.262129
-1.398813
-1.199972
-0.2388776
-1.392069
-1.170538
-0.1568374
-1.392981
-1.198314
-0.2617454
-1.398322
-1.195929
-0.1500771
-1.393658
-1.200171
-0.2675944
-1.39865
-1.198779
-0.1507256
-1.393373
-1.201023
-0.2667262
-1.397318
-1.200973
-0.1555902
-1.397459
-1.205716
-0.2872367
-1.400768
-1.210878
-0.1104251
-1.433687
-1.26121
-1.265091
-0.7344082
-0.7825776
-1.11977
-1.098158
-1.072954
-1.074584
-1.034957
-0.4237208
-0.4173494
-0.4141888
-0.4002351
-0.4081796
-0.4122654
-0.4061992
-0.4031022
-0.3890619
-0.3896939
-0.8694176
-1.2775
-1.219222
-1.116687
-0.1224717
-0.1012348
-1.13544
-1.083547
-1.081118
-1.006308
-0.1106211
-0.09103589
-1.008352
-0.9674116
-0.9779129
-0.9240325
-0.09771618
-0.08217477
-0.9156814
-0.8791258
-0.8991933
-0.8582532
-0.08887304
-0.07552562
-0.8433689
-0.8132895
-0.8359454
-0.8033805
-0.08221478
-0.07038405
-0.7844884
-0.7591758
-0.7825862
-0.07667523
-0.7344162
-1.283737
-1.263831
-1.307832
-1.203834
-1.121897
-1.126928
-1.141996
-1.086752
-1.013683
-1.022159
-1.031347
-0.9932124
-0.9242541
-0.9329697
-0.9337403
-0.911691
-0.8551891
-0.8646288
-0.8627813
-0.847931
-0.7974829
-0.8065114
-0.8034656
-0.7934809
-0.7493802
-0.7576216
-0.7556362
-0.7469255
-0.7074046
-0.7149173
-0.7135212
-0.7064974
-0.6709272
-0.6753943
-0.676766
-0.6709248
-0.6385889
-0.6392691
-0.6441046
-0.6392073
-0.6096395
-0.6092419
-0.6148471
-0.6106711
-0.5834431
-0.5836147
-0.5884511
-0.5848165
-0.5595486
-0.5602121
-0.5644623
-0.5612347
-0.5376545
-0.5387442
-0.5425154
-0.5395866
-0.517507
-0.5189816
-0.5223451
-0.5196498
-0.498922
-0.500707
-0.5037427
-0.5012216
-0.4817329
-0.4837505
-0.4865197
-0.4841257
-0.4657911
-0.4679881
-0.4705294
-0.4682331
-0.4509738
-0.4533068
-0.4556528
-0.4534234
-0.4371727
-0.4396049
-0.4417892
-0.4396128
-0.4243002
-0.426802
-0.4288486
-0.4267066
-0.4122777
-0.4148159
-0.4167554
-0.4146319
-0.4010298
-0.4035991
-0.4054482
-0.4033077
-0.8549315
-0.8831558
-0.8730198
-0.8890225
-0.8776469
-0.8941509
-0.8774035
-0.8945476
-0.8945141
-0.878848
-0.8955609
-0.877601
-0.8851248
-0.8766518
-0.8643415
-0.8665105
-0.9189169
-0.8714217
-0.1012528
-1.135485
-1.083588
-1.219246
-1.116711
-0.09104307
-1.008376
-0.9674382
-1.081155
-1.0063
-0.08217879
-0.9156921
-0.8791433
-0.9778974
-0.9240004
-0.0755326
-0.8433751
-0.8132931
-0.8991543
-0.8582206
-0.07039125
-0.7844764
-0.7591617
-0.8359085
-0.8033714
-1.260085
-1.263421
-1.208663
-1.196009
-1.151293
-1.020008
-0.99488
-0.9815209
-0.9856803
-0.9689628
-0.9325563
-0.9099657
-0.9002289
-0.901561
-0.8924732
-0.8669549
-0.8464691
-0.8390447
-0.8383475
-0.836274
-0.8097111
-0.7913249
-0.7848462
-0.7812265
-0.7838619
-0.7626243
-0.7457135
-0.7401506
-0.7350621
-0.7396525
-0.7208887
-0.7055643
-0.7004873
-0.6936076
-0.6999966
-0.68467
-0.6705556
-0.6659196
-0.6574257
-0.6650074
-0.6523005
-0.6392278
-0.6349127
-0.6251739
-0.6335491
-0.6232751
-0.6111261
-0.6070359
-0.5963122
-0.6051669
-0.5969586
-0.5856465
-0.5816765
-0.5702346
-0.5793355
-0.5729382
-0.5623979
-0.558518
-0.546456
-0.5557042
-0.5508974
-0.5410435
-0.5372548
-0.5247177
-0.5339716
-0.5305946
-0.5213443
-0.5176455
-0.5047491
-0.5139305
-0.5118324
-0.5031048
-0.4994817
-0.4863372
-0.4953852
-0.4944186
-0.4861547
-0.4826119
-0.4692735
-0.4781493
-0.4782359
-0.4704134
-0.4669375
-0.4534299
-0.4621459
-0.4631605
-0.455735
-0.4523476
-0.4386937
-0.4472278
-0.4491078
-0.4420573
-0.4387486
-0.4249761
-0.4333351
-0.4359843
-0.4292779
-0.4260527
-0.4121892
-0.4203438
-0.9043485
-1.101727
-0.800743
-1.216817
-1.344974
-1.348226
-1.391418
-1.353874
-0.9207407
-0.8699955
-1.238475
-1.181346
-1.228144
-1.186783
-1.102548
-1.064704
-1.081214
-1.086892
-0.9953672
-0.971401
-0.9824256
-0.9884381
-0.9112693
-0.8955145
-0.8971886
-0.9099354
-0.8455889
-0.8334154
-0.8328282
-0.8465412
-0.7899007
-0.7810821
-0.7786632
-0.7926691
-0.7437733
-0.7359939
-0.7326773
-0.7463893
-0.7029361
-0.6967902
-0.6925919
-0.7063241
-0.6673422
-0.6622766
-0.6575413
-0.6712477
-0.6356398
-0.6320492
-0.6263157
-0.6398693
-0.6072073
-0.6057264
-0.5982985
-0.6113978
-0.5814785
-0.5822759
-0.5729444
-0.585499
-0.558062
-0.5606189
-0.5498473
-0.5618043
-0.5366109
-0.5400535
-0.5286972
-0.5397856
-0.5168591
-0.5209588
-0.5092387
-0.519569
-0.4986157
-0.5028015
-0.4912928
-0.5008956
-0.4817067
-0.4857783
-0.474662
-0.4833318
-0.4660041
-0.4698453
-0.4591959
-0.4669797
-0.4513896
-0.454906
-0.4447984
-0.4513842
-0.4377666
-0.4409331
-0.4313917
-0.4371904
-0.4250513
-0.4278473
-0.4188872
-0.4240163
-0.4131606
-0.4156193
-0.4071956
-0.4118782
-0.4020536
-0.4084605
-0.4007439
-0.3962886
-0.8640826
-0.8667418
-0.8878805
-0.8768497
-0.8923128
-0.8771424
-0.8959657
-0.8918935
-0.8771636
-0.8952896
-0.8773735
-0.8943704
-0.8727633
-0.8878395
-0.855787
-0.8842403
-0.869822
-1.276313
-0.9047551
-1.101665
-0.8006287
-1.216052
-1.344619
-1.348192
-1.391293
-1.353493
-0.4524774
-0.6537227
-0.4676629
-1.121884
-1.126927
-1.141971
-1.086743
-0.4123122
-0.4148399
-0.4167726
-0.4146646
-0.4131976
-0.4156557
-0.4072316
-0.4118781
-0.4010836
-0.4036445
-0.4054769
-0.4033665
-0.4021165
-0.4040438
-0.4007363
-0.3963452
-0.4017948
-0.3871417
-0.4017762
-0.4015267
-0.4015594
-0.3872691
-0.4039292
-0.3949278
-0.3932507
-0.3949925
-0.2198616
-0.2252924
-1.079861
-0.7796498
-0.7252571
-0.9960092
-0.6264764
-0.9209073
-0.6539042
-0.8723636
-0.5657134
-0.8257228
-0.5878019
-0.7918861
-0.5203211
-0.7553448
-0.5389331
-0.7297094
-0.4835161
-0.6997865
-0.5002371
-0.6792509
-0.4524835
-0.6536967
-0.4676619
-0.6366542
-1.335509
-1.344802
-1.39971
-1.302115
-1.153803
-1.188893
-1.208794
-1.180864
-1.034683
-1.06493
-1.082824
-1.061259
-0.9410546
-0.9635621
-0.9799626
-0.9671459
-0.8704569
-0.8867759
-0.9017998
-0.8925771
-0.8126567
-0.8232807
-0.836698
-0.8296678
-0.7695962
-0.7714588
-0.7822895
-0.7690302
-0.7284012
-0.7274767
-0.7357776
-0.7213356
-0.6903792
-0.6902451
-0.6942651
-0.6838211
-0.6564545
-0.6569931
-0.6581461
-0.6511703
-0.6260598
-0.6263539
-0.6267271
-0.6209844
-0.5986075
-0.5982911
-0.5985722
-0.5932118
-0.5735526
-0.5727072
-0.5729651
-0.5681521
-0.5505739
-0.5493919
-0.5495796
-0.5455823
-0.5294019
-0.5280189
-0.5281069
-0.5252505
-0.5098124
-0.5083398
-0.5083395
-0.5063623
-0.4916498
-0.4902837
-0.4900734
-0.4886556
-0.474759
-0.4735964
-0.473158
-0.4720852
-0.4590282
-0.4581051
-0.4574453
-0.4567743
-0.4443564
-0.4437094
-0.4428173
-0.4425478
-0.4306749
-0.4303052
-0.4291754
-0.4292728
-0.417908
-0.4178045
-0.4164379
-0.416942
-0.4059706
-0.4061313
-0.4045334
-0.4053574
-0.147492
-0.1289254
-0.1400277
-0.1858027
-0.1495058
-0.1300568
-0.148823
-0.1325526
-0.1727124
-0.137261
-0.1353101
-0.1322922
-0.136161
-0.1351425
-0.1408462
-0.1496813
-0.1732306
-0.1375208
-0.0622676
-0.06885375
-0.06345147
-0.06809559
-1.46796
-1.411091
-1.463613
-1.429389
-0.1377347
-0.1299445
-1.233354
-1.259872
-1.243989
-1.242457
-1.094502
-1.124846
-1.106927
-1.103739
-0.991137
-1.020218
-1.001478
-0.9977005
-0.910113
-0.9361867
-0.9183476
-0.9142853
-0.8451473
-0.8681147
-0.8517538
-0.8484096
-0.7912572
-0.8056601
-0.7969362
-0.7936491
-0.7452159
-0.7528835
-0.7496936
-0.7484956
-0.7046935
-0.7122137
-0.7078567
-0.7076296
-0.6689126
-0.6764726
-0.6710176
-0.6715373
-0.6370494
-0.6440934
-0.6384508
-0.6393629
-0.6085433
-0.6144977
-0.6092821
-0.6103913
-0.582597
-0.5873533
-0.5829731
-0.5840492
-0.5588019
-0.5625278
-0.558901
-0.5598671
-0.5368753
-0.5398517
-0.5366942
-0.5378872
-0.516647
-0.5194934
-0.5163035
-0.5173567
-0.4978773
-0.5004929
-0.4974007
-0.4985736
-0.4804681
-0.4828365
-0.4798621
-0.4811089
-0.4642671
-0.4665086
-0.4635637
-0.464927
-0.4491722
-0.4513525
-0.4483829
-0.4500638
-0.4350987
-0.4372836
-0.4342346
-0.4362822
-0.4219535
-0.4242167
-0.4210516
-0.4234802
-0.4096808
-0.4119867
-0.4087459
-0.4115013
-0.3972063
-0.40048
-0.3982049
-0.4003383
-0.1443372
-0.1403941
-0.1479385
-0.1431112
-0.1602351
-0.1328487
-0.1447547
-0.1347382
-0.1263726
-0.1710784
-0.1605516
-0.1512236
-0.1790325
-0.1476371
-0.153174
-0.1283605
-0.2215111
-0.2110485
-0.06230729
-0.06885358
-0.06350362
-0.06805545
-1.468
-1.411086
-1.463547
-1.429449
-0.02651164
-0.02993302
-0.02988944
-0.03069097
-1.153801
-1.188884
-1.208782
-1.180861
-1.102532
-1.064673
-1.081189
-1.086888
-0.4097365
-0.4120627
-0.4087937
-0.4115657
-0.4060297
-0.406197
-0.4054288
-0.4045902
-0.4006294
-0.3972707
-0.398303
-0.40049
-0.07774105
-0.09212633
-0.09400028
-0.08945211
-0.8859915
-1.390197
-1.394904
-0.9667735
-0.15391
-0.1798956
-0.701292
-0.9287779
-0.6746103
-0.9885245
-0.616925
-0.8329714
-0.6022478
-0.8678984
-0.5589105
-0.7628003
-0.5513464
-0.7873938
-0.5149276
-0.7077611
-0.5110617
-0.7256719
-0.4789904
-0.6622122
-0.4769783
-0.6752119
-1.311339
-1.297956
-1.306352
-1.308303
-1.148306
-1.174167
-1.151343
-1.153526
-1.033765
-1.059791
-1.03781
-1.034769
-0.9445003
-0.9686036
-0.9471212
-0.9433743
-0.8739943
-0.8951884
-0.8760866
-0.8715465
-0.8151249
-0.8331631
-0.8169981
-0.8126423
-0.7667837
-0.7770955
-0.7681774
-0.7651314
-0.7242426
-0.7285916
-0.7250307
-0.7228743
-0.6865036
-0.6874066
-0.6868491
-0.6854953
-0.6528721
-0.6530814
-0.6527815
-0.6518165
-0.6227049
-0.6225659
-0.6222025
-0.6214476
-0.5953847
-0.5949759
-0.5944764
-0.5940181
-0.5704733
-0.5697497
-0.5692351
-0.5690657
-0.5476198
-0.5467447
-0.5460809
-0.546214
-0.5265625
-0.525647
-0.5248158
-0.5251105
-0.5070924
-0.5062617
-0.5052174
-0.5058625
-0.4890566
-0.4884219
-0.4870724
-0.4879968
-0.4722901
-0.4718798
-0.4702824
-0.4715217
-0.4566788
-0.4565611
-0.4546739
-0.4561807
-0.4421206
-0.4422935
-0.4401641
-0.4419794
-0.4285288
-0.4290051
-0.4266508
-0.428706
-0.4158343
-0.4166116
-0.414037
-0.416296
-0.4039535
-0.4049856
-0.4022554
-0.4047188
-0.1299417
-0.1610316
-0.1357233
-0.1418032
-0.1365115
-0.1329737
-0.1343746
-0.1352745
-0.1440972
-0.13749
-0.1517137
-0.1544193
-0.1410737
-0.1531682
-0.1770147
-0.1414536
-0.1343825
-0.166211
-1.079799
-0.7796459
-0.9960211
-0.7252844
-0.9288292
-0.9885781
-0.7013745
-0.674568
-0.9209807
-0.8724024
-0.6264816
-0.6539901
-0.8330348
-0.8679537
-0.6170127
-0.6022244
-0.8257706
-0.7919456
-0.5657315
-0.5878698
-0.762817
-0.7874397
-0.5589682
-0.5513156
-0.7553512
-0.7297674
-0.5203398
-0.5389862
-0.7078127
-0.725727
-0.5149781
-0.5110531
-0.6998243
-0.6793528
-0.4835627
-0.5003009
-0.662239
-0.4769749
-0.6752809
-0.4790814
-1.263821
-1.307775
-1.20385
-1.283698
-1.181351
-1.228106
-1.186789
-1.238438
-1.022126
-1.031332
-0.9932158
-1.01369
-0.9713721
-0.9884455
-0.995356
-0.9824116
-0.9329209
-0.9116771
-0.9242345
-0.9337244
-0.895489
-0.9099081
-0.9112615
-0.8971823
-0.864586
-0.8479305
-0.8552049
-0.8627812
-0.8334205
-0.8465665
-0.8456059
-0.8328333
-0.8065177
-0.7934785
-0.797485
-0.8034646
-0.7575673
-0.7469168
-0.7493643
-0.7557111
-0.7359574
-0.7463242
-0.7437548
-0.732654
-0.7148697
-0.706487
-0.7073935
-0.7135074
-0.6967809
-0.7063351
-0.7029253
-0.6925917
-0.6753476
-0.6709272
-0.670928
-0.6767668
-0.6622745
-0.6712388
-0.667344
-0.6575426
-0.6392336
-0.6392019
-0.6385737
-0.6440991
-0.6322019
-0.6398916
-0.6356418
-0.6263151
-0.609243
-0.610674
-0.6096386
-0.614853
-0.6057338
-0.6113286
-0.607202
-0.5982752
-0.5836349
-0.5848087
-0.5834295
-0.5884445
-0.5823501
-0.5854985
-0.5814635
-0.5729219
-0.5602345
-0.5612265
-0.5595373
-0.5644554
-0.5606034
-0.561818
-0.5580465
-0.5498267
-0.5387666
-0.5395857
-0.5376485
-0.5425098
-0.5401358
-0.5398667
-0.5366031
-0.5286937
-0.5189808
-0.5196526
-0.5175061
-0.5223425
-0.5007258
-0.5012184
-0.4989122
-0.5037364
-0.50285
-0.5009318
-0.4986065
-0.4912786
-0.4837771
-0.4841204
-0.48174
-0.4865118
-0.4680091
-0.4682322
-0.465781
-0.4705258
-0.4699115
-0.4669731
-0.465999
-0.459186
-0.4533366
-0.453422
-0.4509861
-0.4556482
-0.4549431
-0.4511906
-0.4513871
-0.4447932
-0.4396324
-0.4396185
-0.4371724
-0.44179
-0.4410036
-0.4371673
-0.4377733
-0.4313919
-0.4268371