/*--------------------------------*- C++ -*----------------------------------*\
  =========                 |
  \\      /  F ield         | OpenFOAM: The Open Source CFD Toolbox
   \\    /   O peration     | Website:  https://openfoam.org
    \\  /    A nd           | Version:  7
     \\/     M anipulation  |
\*---------------------------------------------------------------------------*/
FoamFile
{
    version     2.0;
    format      ascii;
    class       volScalarField;
    location    "0.1";
    object      Ux;
}
// * * * * * * * * * * * * * * * * * * * * * * * * * * * * * * * * * * * * * //

dimensions      [0 1 -1 0 0 0 0];

internalField   nonuniform List<scalar> 
86107
(
-0.03048589
-0.04924736
-0.06942636
-0.08802069
-0.105835
-0.1220651
-0.1361231
-0.1475376
-0.03168754
-0.05060504
-0.07147117
-0.09100631
-0.1097968
-0.1271446
-0.1425178
-0.1553743
-0.03190635
-0.05223391
-0.07378689
-0.09443175
-0.114533
-0.133563
-0.1507344
-0.1657149
-0.03289954
-0.05393978
-0.0765152
-0.09843062
-0.1201814
-0.1414542
-0.1612862
-0.179452
-0.03384744
-0.05583459
-0.07948016
-0.1029495
-0.1267082
-0.1509347
-0.1743082
-0.1975381
-0.03483533
-0.05739253
-0.08212423
-0.1069789
-0.1330013
-0.1605458
-0.1892371
-0.219787
-0.03569015
-0.05880291
-0.08433741
-0.1103648
-0.1383264
-0.1695753
-0.2046183
-0.248294
-0.03591599
-0.05918048
-0.08489917
-0.1109647
-0.1403283
-0.1734584
-0.2184949
-0.2782839
-0.03612114
-0.05926756
-0.08464201
-0.1096949
-0.1374622
-0.1683193
-0.2095282
-0.2919501
-0.03558023
-0.05832141
-0.08206176
-0.1035315
-0.1242326
-0.1402003
-0.1558384
-0.1964476
-0.8469146
-0.03585491
-0.05832947
-0.08143387
-0.09967439
-0.1164764
-0.1183597
-0.1162997
-0.1111677
-0.03686957
-0.06006208
-0.08370697
-0.1020722
-0.1192865
-0.1198357
-0.118956
-0.09891145
-0.03899452
-0.06375073
-0.08938838
-0.1105952
-0.1326859
-0.1432699
-0.16299
-0.1634159
-0.04192977
-0.06893955
-0.09739567
-0.1222338
-0.1508519
-0.1669607
-0.2149993
-0.2080753
-0.04511764
-0.07459559
-0.1053119
-0.134022
-0.1638401
-0.190533
-0.2246687
-0.2675433
-0.04893202
-0.08099401
-0.1146982
-0.1468802
-0.1812544
-0.2133289
-0.2574926
-0.2958733
-0.05271251
-0.08728326
-0.1231994
-0.1578651
-0.192686
-0.2272072
-0.2639996
-0.3046377
-0.05692627
-0.09418977
-0.1327266
-0.1696674
-0.2062271
-0.2414935
-0.2778172
-0.3150949
-0.06155457
-0.1017185
-0.1427787
-0.1816026
-0.2187231
-0.2538898
-0.2883619
-0.3228533
-0.06665295
-0.1103241
-0.1543457
-0.1952626
-0.2332181
-0.2678467
-0.300239
-0.3312587
-0.07322846
-0.1210963
-0.1687667
-0.2120003
-0.2503934
-0.2834735
-0.3123763
-0.3390693
-0.0802252
-0.13362
-0.1858411
-0.2324178
-0.2719949
-0.3033726
-0.3273148
-0.3479985
-0.09089012
-0.1509873
-0.2100224
-0.2609359
-0.3011804
-0.3285852
-0.3449669
-0.3572416
-0.02489212
-0.04444204
-0.06711748
-0.08796542
-0.1075268
-0.1252205
-0.1404454
-0.1529937
-0.004005085
-0.03072835
-0.05092006
-0.07039762
-0.08902183
-0.1068395
-0.1234133
-0.1374538
-0.1488606
-0.004268844
-0.03075336
-0.05150014
-0.07139561
-0.09110539
-0.1098233
-0.1271841
-0.1426114
-0.155521
-0.004290174
-0.03077419
-0.05312581
-0.07371012
-0.09468216
-0.1145475
-0.1336362
-0.1507898
-0.165769
-0.004178822
-0.03150779
-0.05516291
-0.07641183
-0.09868695
-0.1201854
-0.141558
-0.1613976
-0.1795659
-0.004329101
-0.03241052
-0.0572118
-0.07934324
-0.1032356
-0.1266835
-0.1510844
-0.1743029
-0.1977014
-0.00455946
-0.03333754
-0.0588515
-0.08197333
-0.1072991
-0.1329181
-0.1607612
-0.1891414
-0.2196058
-0.004797697
-0.0343259
-0.06020361
-0.08421055
-0.1107985
-0.1381826
-0.1703588
-0.2040675
-0.2490001
-0.004854901
-0.03454007
-0.06068033
-0.08480514
-0.1114918
-0.1402238
-0.174187
-0.2176418
-0.2779377
-0.004812143
-0.03454703
-0.0609515
-0.08457335
-0.1105586
-0.1376699
-0.1717665
-0.208309
-0.2984252
-0.004652497
-0.0338274
-0.0602588
-0.08207001
-0.1049999
-0.1248405
-0.1470367
-0.1530069
-0.233205
-0.8619863
-0.004593646
-0.03391004
-0.06030699
-0.08137973
-0.1007119
-0.1169331
-0.1205728
-0.1145737
-0.09448783
-0.004619379
-0.03483861
-0.06218868
-0.08357311
-0.1035032
-0.1195227
-0.1244709
-0.1180438
-0.09412501
-0.004846748
-0.0368842
-0.0659399
-0.08926352
-0.1115422
-0.1328217
-0.1454044
-0.1564865
-0.1594096
-0.00519075
-0.03971083
-0.07140097
-0.09716502
-0.1243554
-0.1501765
-0.1783678
-0.1963783
-0.2472998
-0.005609023
-0.04285235
-0.07714428
-0.1054466
-0.1355429
-0.1662387
-0.195939
-0.2317241
-0.270867
-0.006073478
-0.04645318
-0.08360319
-0.1144572
-0.147875
-0.1812649
-0.2152647
-0.2529483
-0.3005252
-0.006563859
-0.05009587
-0.09000823
-0.123034
-0.1586814
-0.1935019
-0.2283215
-0.2663746
-0.3048701
-0.007098346
-0.05412295
-0.09698426
-0.1323446
-0.1701867
-0.2062085
-0.2418273
-0.2784664
-0.3150773
-0.007687863
-0.05859818
-0.1046368
-0.1423472
-0.1820846
-0.2187375
-0.2541277
-0.2888785
-0.3229413
-0.008365802
-0.06359425
-0.1133385
-0.1538027
-0.1956068
-0.2329662
-0.2678173
-0.3002292
-0.3312779
-0.009170719
-0.06998979
-0.1242238
-0.1680705
-0.2122899
-0.250123
-0.283458
-0.3124525
-0.3391534
-0.01013475
-0.07709519
-0.136849
-0.1851551
-0.2324939
-0.2714042
-0.3030995
-0.3270692
-0.3481439
-0.01420526
-0.0872961
-0.1542697
-0.2086527
-0.2609456
-0.3009815
-0.3285167
-0.3452369
-0.3575877
-0.02476887
-0.05231153
-0.06724541
-0.08739437
-0.1038517
-0.1198322
-0.1334528
-0.144522
-0.003350755
-0.02953483
-0.04954933
-0.07005558
-0.08896228
-0.1069099
-0.1233599
-0.1376507
-0.1493136
-0.009353863
-0.03059842
-0.05008195
-0.07116182
-0.09101346
-0.1097728
-0.1273051
-0.1427367
-0.1556567
-0.008881366
-0.02928333
-0.05185851
-0.07326401
-0.09428882
-0.114388
-0.1335486
-0.1507819
-0.1658269
-0.01021684
-0.03098751
-0.05367981
-0.07601846
-0.0982688
-0.1200273
-0.1414585
-0.1613547
-0.1795621
-0.01020241
-0.0316705
-0.05555548
-0.07888785
-0.1027544
-0.126479
-0.1509405
-0.1742315
-0.1976337
-0.01057426
-0.03269012
-0.05720809
-0.08153732
-0.1068129
-0.1327112
-0.1606108
-0.1890113
-0.2195957
-0.01075946
-0.03344651
-0.05858649
-0.08371197
-0.1102803
-0.1379059
-0.1701654
-0.2037848
-0.2488122
-0.01077241
-0.03370126
-0.05897798
-0.08435582
-0.1110063
-0.140029
-0.1741071
-0.2170268
-0.2776543
-0.01068179
-0.0337645
-0.05901926
-0.08411059
-0.1099567
-0.1373534
-0.1716078
-0.208277
-0.2943433
-0.01047271
-0.03346061
-0.05815682
-0.0818114
-0.1045759
-0.1253322
-0.1484711
-0.1563803
-0.2553783
-0.9090037
-0.01043276
-0.03371664
-0.05799089
-0.08103938
-0.09984366
-0.1169023
-0.1193046
-0.1164936
-0.09650918
-0.0107151
-0.03473726
-0.05971218
-0.08322001
-0.1024515
-0.1194506
-0.1226123
-0.1205851
-0.09799328
-0.01130251
-0.03673749
-0.06325634
-0.08881917
-0.110312
-0.1324141
-0.1435814
-0.1596937
-0.1596411
-0.01218222
-0.03947402
-0.06848535
-0.09657204
-0.1228146
-0.1491453
-0.17533
-0.1974578
-0.2511472
-0.01315662
-0.04254171
-0.07404032
-0.1047553
-0.1338878
-0.1646201
-0.1925581
-0.2288667
-0.2689666
-0.01428772
-0.04602594
-0.08037752
-0.1138102
-0.1464785
-0.1803447
-0.2134255
-0.2525763
-0.2996675
-0.01544184
-0.04960284
-0.08667661
-0.1224091
-0.1574404
-0.1927723
-0.22732
-0.26528
-0.3048288
-0.01671024
-0.05355411
-0.09355193
-0.1317304
-0.169061
-0.2057378
-0.2412317
-0.2780917
-0.314692
-0.01813594
-0.05797742
-0.1010893
-0.1417384
-0.1810005
-0.2183393
-0.2536949
-0.2885468
-0.3227405
-0.0197191
-0.06304575
-0.1096903
-0.1531987
-0.1945324
-0.2326314
-0.2674839
-0.3000667
-0.331154
-0.02175885
-0.06940952
-0.1204381
-0.1674659
-0.2112276
-0.2498396
-0.2831751
-0.3123241
-0.3390759
-0.02399744
-0.07681268
-0.1329806
-0.1845549
-0.2314222
-0.2711552
-0.3028974
-0.3270345
-0.3480895
-0.02719521
-0.08669724
-0.150244
-0.2081005
-0.2599629
-0.3008506
-0.3282999
-0.3451473
-0.3575707
-0.02513828
-0.05310142
-0.06804327
-0.08817009
-0.1049897
-0.1211999
-0.1347538
-0.1458247
-0.003126764
-0.02949511
-0.04976804
-0.0703274
-0.08903903
-0.1068236
-0.1231858
-0.1373323
-0.1488813
-0.008330806
-0.03134077
-0.05020708
-0.07135722
-0.09108938
-0.1097679
-0.1272529
-0.1425968
-0.1554569
-0.008759188
-0.02987234
-0.05204385
-0.07347364
-0.09442
-0.1144215
-0.1335377
-0.1506849
-0.1656729
-0.01014318
-0.03131887
-0.05387022
-0.07616904
-0.09840729
-0.1200599
-0.1414805
-0.1612807
-0.1794261
-0.01004587
-0.03197933
-0.05575341
-0.07902729
-0.1029107
-0.1265112
-0.1510062
-0.1741215
-0.1975339
-0.01037808
-0.03295166
-0.05742316
-0.08166637
-0.1069921
-0.1327345
-0.160774
-0.1888776
-0.2194353
-0.01053599
-0.03367054
-0.05880254
-0.08384822
-0.1105136
-0.1379332
-0.1704655
-0.2035011
-0.2485469
-0.01059063
-0.03400051
-0.05923585
-0.08452756
-0.1112618
-0.1400843
-0.1739715
-0.2165139
-0.2754649
-0.01060631
-0.03424254
-0.05935117
-0.08434168
-0.1103299
-0.1373428
-0.1722276
-0.2057873
-0.2938252
-0.01045389
-0.0340444
-0.05861907
-0.08217435
-0.1053327
-0.1259142
-0.1502943
-0.1578296
-0.2613786
-0.9448426
-0.01044587
-0.03436581
-0.05846454
-0.08140397
-0.1003648
-0.1172638
-0.1196558
-0.1166206
-0.09516107
-0.0107268
-0.03541316
-0.0602348
-0.08361961
-0.1031016
-0.1199925
-0.1231483
-0.120113
-0.09926153
-0.01133018
-0.03751122
-0.06382604
-0.08937997
-0.1109973
-0.1336144
-0.1438623
-0.1630812
-0.1612645
-0.01221094
-0.04027957
-0.06903087
-0.09706763
-0.1231725
-0.1503237
-0.1734329
-0.2042554
-0.2376093
-0.01320847
-0.0434605
-0.07477164
-0.1055161
-0.1351824
-0.166525
-0.1965659
-0.233932
-0.2769999
-0.01435232
-0.04696702
-0.08100716
-0.1142781
-0.1470842
-0.1809161
-0.214309
-0.2528109
-0.293785
-0.01552583
-0.05063568
-0.08739423
-0.1230008
-0.1582394
-0.1936237
-0.2286007
-0.2663824
-0.3058754
-0.0167992
-0.05462246
-0.09422469
-0.1321846
-0.1695594
-0.2060815
-0.2416674
-0.2784727
-0.3152863
-0.01827202
-0.05914863
-0.1018247
-0.1422442
-0.181536
-0.2187335
-0.2541555
-0.2889539
-0.3232043
-0.01985483
-0.06424904
-0.1104304
-0.1536677
-0.1949827
-0.2328608
-0.2677063
-0.3002057
-0.3312692
-0.02192113
-0.07067188
-0.1212176
-0.1679473
-0.2117076
-0.2500856
-0.28339
-0.3124502
-0.3391427
-0.02419477
-0.07814077
-0.1338082
-0.1851069
-0.2318847
-0.2713357
-0.3030665
-0.3270868
-0.3482053
-0.02747958
-0.08810629
-0.1510525
-0.2085221
-0.2604609
-0.3011503
-0.3285551
-0.3453437
-0.3575751
-0.02501762
-0.05206783
-0.06784039
-0.08826981
-0.1049157
-0.1212542
-0.1349052
-0.1459866
-0.003086035
-0.02910725
-0.04941231
-0.07020063
-0.08891593
-0.1067908
-0.123202
-0.1374396
-0.1490315
-0.008135122
-0.03117416
-0.04982746
-0.07114414
-0.09096565
-0.109717
-0.1272444
-0.1426444
-0.1555047
-0.008680026
-0.02950652
-0.05165409
-0.07324961
-0.0942536
-0.1143445
-0.1334964
-0.1506783
-0.1656849
-0.01025333
-0.03117477
-0.0534615
-0.07596287
-0.0982426
-0.1199886
-0.1414351
-0.1612583
-0.1794171
-0.01002034
-0.03162701
-0.055298
-0.07877879
-0.1027241
-0.1264207
-0.1509538
-0.1740642
-0.1974888
-0.01042773
-0.03266944
-0.05697006
-0.08143186
-0.1068094
-0.1326612
-0.1607367
-0.1887743
-0.2194083
-0.01053114
-0.03334416
-0.05833351
-0.08359106
-0.1103153
-0.1378204
-0.1704202
-0.2033122
-0.2483979
-0.01060763
-0.03368471
-0.05876846
-0.08430652
-0.1110836
-0.1401048
-0.1739038
-0.2160177
-0.2745991
-0.01059176
-0.03383608
-0.0588157
-0.08407303
-0.1100224
-0.1370261
-0.1707606
-0.2038912
-0.2916478
-0.01051635
-0.03370089
-0.05811989
-0.08203952
-0.1052873
-0.1263581
-0.1518459
-0.1627251
-0.2695567
-0.9945839
-0.01054012
-0.03400394
-0.05790342
-0.08120849
-0.1000319
-0.1172901
-0.1192596
-0.1173073
-0.09489067
-0.01086155
-0.03506571
-0.05965042
-0.08340788
-0.1027662
-0.1199871
-0.1227266
-0.1200672
-0.1024649
-0.01146097
-0.03710961
-0.06318789
-0.08917021
-0.110726
-0.1337953
-0.14421
-0.1646921
-0.1657985
-0.01234854
-0.03982816
-0.06830552
-0.09671542
-0.1226627
-0.1499563
-0.1728443
-0.2034082
-0.2369059
-0.01336465
-0.04296536
-0.07398155
-0.1051247
-0.1345699
-0.1660705
-0.1954111
-0.232949
-0.2757248
-0.01448221
-0.04635444
-0.08013276
-0.1138456
-0.1465007
-0.1805594
-0.2136452
-0.2524189
-0.2932695
-0.01568556
-0.05002261
-0.08651057
-0.12258
-0.157717
-0.1933226
-0.2281152
-0.2659604
-0.305246
-0.01696357
-0.05398352
-0.09331596
-0.1317485
-0.16908
-0.2058487
-0.2413732
-0.2782719
-0.3150156
-0.01840538
-0.0584188
-0.1008526
-0.141794
-0.1810791
-0.2185357
-0.2539506
-0.288805
-0.3230585
-0.02005488
-0.06360564
-0.1094771
-0.1532284
-0.1945461
-0.2326885
-0.2675514
-0.3001238
-0.3312086
-0.02211001
-0.06998332
-0.1202043
-0.1674748
-0.2112631
-0.2499299
-0.283267
-0.3124052
-0.3391271
-0.02446891
-0.07754222
-0.1328016
-0.1846614
-0.2314577
-0.2712113
-0.3029737
-0.327081
-0.3482426
-0.02767062
-0.08734648
-0.1499232
-0.2079812
-0.2599921
-0.301054
-0.3284786
-0.3453972
-0.3576112
-0.02478613
-0.05183434
-0.06785583
-0.08819285
-0.1048891
-0.1211789
-0.1348081
-0.1458653
-0.003097034
-0.02911283
-0.04939104
-0.07024261
-0.08893198
-0.1068869
-0.1232291
-0.1374132
-0.1489634
-0.008146438
-0.03122803
-0.04989946
-0.07126383
-0.09104363
-0.1097238
-0.1272126
-0.1425819
-0.1554203
-0.008651071
-0.02955605
-0.05167643
-0.07328055
-0.0942847
-0.1143746
-0.1335046
-0.1506642
-0.1656522
-0.01024904
-0.03119173
-0.05350005
-0.07600487
-0.09827768
-0.1199947
-0.1414273
-0.1612303
-0.1793786
-0.01006122
-0.03168058
-0.05533285
-0.07880868
-0.1027419
-0.1264325
-0.1509589
-0.1740489
-0.197472
-0.01045514
-0.0327167
-0.05700745
-0.08146136
-0.1068312
-0.1326696
-0.1607344
-0.1887534
-0.2194009
-0.01058087
-0.03340562
-0.05837061
-0.0836261
-0.1103321
-0.1378269
-0.1704248
-0.2032671
-0.2483589
-0.01059704
-0.03369629
-0.05879187
-0.08432296
-0.1110995
-0.1401104
-0.173909
-0.2159266
-0.2743712
-0.01074542
-0.03399813
-0.05887249
-0.08413935
-0.1100469
-0.137055
-0.1706924
-0.2036874
-0.2914027
-0.01051363
-0.03371404
-0.05813753
-0.08207019
-0.1053373
-0.1264622
-0.1523134
-0.164251
-0.2775938
-1.024926
-0.01056339
-0.03403955
-0.05792346
-0.08125839
-0.1000584
-0.1173943
-0.1194005
-0.1174672
-0.09488763
-0.01081776
-0.03503974
-0.0596458
-0.08341795
-0.1027581
-0.1200793
-0.1227374
-0.1199664
-0.1035345
-0.01146061
-0.03712941
-0.06320978
-0.08925724
-0.1108054
-0.1340755
-0.1446735
-0.1651015
-0.1673699
-0.0123716
-0.03985056
-0.06829898
-0.09672693
-0.1225348
-0.149921
-0.1722631
-0.2035529
-0.2349454
-0.01334953
-0.04298708
-0.07406508
-0.105249
-0.1347743
-0.16636
-0.1959587
-0.233181
-0.2765167
-0.01467539
-0.04655634
-0.08022017
-0.1139349
-0.1465166
-0.1805778
-0.2134997
-0.2522926
-0.2923034
-0.01581667
-0.05017145
-0.08663583
-0.1227304
-0.1578678
-0.1935008
-0.2283423
-0.2660792
-0.3053106
-0.0170491
-0.05407059
-0.09339774
-0.1318355
-0.169138
-0.2059029
-0.2414002
-0.2782902
-0.3149641
-0.01877917
-0.0587961
-0.1010355
-0.1420012
-0.1812045
-0.2186504
-0.254045
-0.2888664
-0.3231057
-0.02012209
-0.06367431
-0.109542
-0.1532906
-0.1946024
-0.232728
-0.2675986
-0.3001529
-0.3312109
-0.02224368
-0.07012307
-0.1203516
-0.1676756
-0.2114191
-0.2499862
-0.283287
-0.312359
-0.3390538
-0.02439263
-0.07747134
-0.1327991
-0.1846281
-0.231509
-0.2711932
-0.3030734
-0.3271345
-0.3482372
-0.0279116
-0.08759726
-0.1501259
-0.2083781
-0.2603279
-0.3010518
-0.3284384
-0.3451799
-0.3573899
-0.02533141
-0.05322932
-0.06767153
-0.08865147
-0.1049809
-0.1206571
-0.1350711
-0.1458372
-0.003130067
-0.02942401
-0.04966143
-0.07001725
-0.08891445
-0.1067744
-0.1232735
-0.137526
-0.1489934
-0.008351255
-0.03124974
-0.05016449
-0.07121956
-0.09122519
-0.1097845
-0.1272012
-0.1427121
-0.1554724
-0.008744435
-0.02979142
-0.05199381
-0.07339358
-0.09436944
-0.1144059
-0.1335627
-0.1507385
-0.165719
-0.01016908
-0.0312939
-0.05384375
-0.07612955
-0.09842515
-0.1200658
-0.1414744
-0.1613165
-0.1794521
-0.01002576
-0.03186805
-0.05568579
-0.07899237
-0.1028824
-0.1264998
-0.1510053
-0.1741194
-0.1975461
-0.01043998
-0.03287895
-0.0573474
-0.08166274
-0.1069691
-0.1327316
-0.1607646
-0.1888524
-0.2194586
-0.01058501
-0.03362908
-0.05875252
-0.08384754
-0.1104892
-0.1379197
-0.170449
-0.2034073
-0.2484973
-0.0106687
-0.03404223
-0.05921866
-0.08454682
-0.1112451
-0.1400877
-0.1739171
-0.2163246
-0.2750912
-0.01064303
-0.03405512
-0.05921548
-0.08436451
-0.1102876
-0.1373303
-0.172114
-0.2049223
-0.293251
-0.01051999
-0.03412805
-0.05864724
-0.08223861
-0.105357
-0.1259958
-0.1502434
-0.1574077
-0.2720823
-1.034381
-0.01050426
-0.03442152
-0.05846688
-0.08150631
-0.1004342
-0.1174571
-0.1199636
-0.1166608
-0.09429947
-0.01077432
-0.03555544
-0.06028666
-0.08370852
-0.1031107
-0.1201742
-0.1231874
-0.1196111
-0.1017779
-0.01138688
-0.03756993
-0.06382779
-0.08958521
-0.1111814
-0.1342558
-0.1450232
-0.1645895
-0.1648462
-0.01232946
-0.04041618
-0.06902064
-0.09712791
-0.1229709
-0.1503996
-0.1727988
-0.2048898
-0.2343282
-0.01345861
-0.04362685
-0.07476264
-0.1056807
-0.1351887
-0.1667547
-0.1964669
-0.2337425
-0.276981
-0.01457092
-0.04666258
-0.08068651
-0.1142861
-0.1468231
-0.1808845
-0.2137964
-0.2527312
-0.2922812
-0.01587072
-0.05055623
-0.08720974
-0.1231104
-0.1581657
-0.1937405
-0.2285601
-0.2663417
-0.3054478
-0.01710378
-0.05458698
-0.09405163
-0.132193
-0.1694146
-0.2060651
-0.2415252
-0.2784311
-0.3150366
-0.01850932
-0.05870092
-0.1014636
-0.1422867
-0.1814146
-0.2187701
-0.254142
-0.2889709
-0.3231842
-0.02012958
-0.06430339
-0.110313
-0.1536659
-0.1948948
-0.2328301
-0.2676629
-0.3002018
-0.3312617
-0.0221212
-0.07073212
-0.1210806
-0.1679283
-0.2116225
-0.2500253
-0.2833627
-0.3124511
-0.3391804
-0.02439956
-0.07841049
-0.1337482
-0.1850693
-0.2318369
-0.2712352
-0.3030079
-0.3270585
-0.3482876
-0.02773542
-0.08827606
-0.1507236
-0.2083495
-0.2602415
-0.300954
-0.3284751
-0.3454049
-0.3577329
-0.02482118
-0.05243608
-0.06791423
-0.08860093
-0.1055922
-0.1209799
-0.1348131
-0.1457715
-0.003369031
-0.02947781
-0.04943895
-0.06968701
-0.08882974
-0.1071756
-0.1234991
-0.1376131
-0.1490424
-0.009399715
-0.0306461
-0.05018733
-0.07139262
-0.09134437
-0.1097401
-0.1271727
-0.1426717
-0.1554925
-0.008990969
-0.02937978
-0.05191549
-0.07324899
-0.0943121
-0.1144534
-0.1336018
-0.1508092
-0.1658032
-0.01028867
-0.03107011
-0.05375635
-0.07608124
-0.09836287
-0.1200274
-0.1414467
-0.1613336
-0.1795304
-0.01022284
-0.03180574
-0.05560161
-0.07892858
-0.1027712
-0.1264954
-0.1509621
-0.1742132
-0.1976321
-0.01071853
-0.0328689
-0.05727022
-0.08160901
-0.1068494
-0.1327299
-0.1606113
-0.1889765
-0.2196362
-0.01096677
-0.03359765
-0.05864188
-0.08379518
-0.1102956
-0.1379139
-0.1701722
-0.2036688
-0.2487776
-0.01070714
-0.03368156
-0.05904193
-0.08437949
-0.1110357
-0.1400359
-0.1740453
-0.2168103
-0.2771478
-0.01132155
-0.03468161
-0.05908623
-0.08432606
-0.1099586
-0.1373997
-0.1716457
-0.2075916
-0.2946479
-0.01052824
-0.03355616
-0.05823581
-0.08190626
-0.104659
-0.1255539
-0.148554
-0.1567507
-0.265296
-1.002447
-0.01056823
-0.03380268
-0.05801805
-0.08120017
-0.09985611
-0.11722
-0.1192687
-0.1169766
-0.094486
-0.01055528
-0.0346504
-0.05977318
-0.08324172
-0.102447
-0.1195791
-0.1224252
-0.1201656
-0.1033744
-0.01116688
-0.03671868
-0.063254
-0.08909982
-0.1103347
-0.1334215
-0.1432657
-0.1642763
-0.1656267
-0.01241014
-0.03963328
-0.06844317
-0.09658643
-0.1222917
-0.1491701
-0.1716503
-0.201664
-0.237322
-0.01313969
-0.04242659
-0.07428577
-0.105119
-0.1344723
-0.1657507
-0.1949192
-0.2320532
-0.2756086
-0.01524696
-0.04695471
-0.08036158
-0.1140535
-0.1463816
-0.1803144
-0.2132868
-0.2518941
-0.2932625
-0.01631171
-0.05011413
-0.0868541
-0.1228481
-0.1577539
-0.1933279
-0.2280369
-0.2657921
-0.3052591
-0.01695516
-0.05349307
-0.09355861
-0.1318922
-0.1690749
-0.2058312
-0.2413246
-0.2782176
-0.3150806
-0.01980254
-0.05993641
-0.1012767
-0.1423723
-0.1811796
-0.2186315
-0.2539252
-0.2887517
-0.3230062
-0.02015165
-0.06328435
-0.1097119
-0.1532627
-0.1945574
-0.232663
-0.2675916
-0.3001598
-0.3312271
-0.02221284
-0.06962496
-0.1206192
-0.1679611
-0.2115674
-0.2498725
-0.2831448
-0.3121365
-0.3389128
-0.02363432
-0.07636658
-0.1327961
-0.1841334
-0.2314216
-0.2709633
-0.3031746
-0.3272108
-0.3481564
-0.02816163
-0.08736021
-0.1503926
-0.209354
-0.2610783
-0.3004317
-0.3278357
-0.3441843
-0.3568991
-0.02628144
-0.04464746
-0.06545105
-0.08640248
-0.1106171
-0.1173328
-0.1348467
-0.1444463
-0.004477385
-0.03041767
-0.05063382
-0.06974082
-0.08853362
-0.106456
-0.1233943
-0.1377473
-0.1490542
-0.003477615
-0.03066704
-0.05135737
-0.07116672
-0.09143613
-0.1093059
-0.1269226
-0.1428917
-0.1555471
-0.004206568
-0.03093756
-0.05314718
-0.07360374
-0.09449744
-0.1145035
-0.133737
-0.1508952
-0.1658882
-0.003995058
-0.03152726
-0.05511779
-0.076367
-0.09878314
-0.1202125
-0.1415253
-0.1614724
-0.1796115
-0.002648957
-0.03258071
-0.05691968
-0.0793477
-0.1031657
-0.1266766
-0.1510971
-0.1743208
-0.1977375
-0.005144572
-0.03402247
-0.05835311
-0.08209065
-0.1072369
-0.1329379
-0.1607519
-0.1891113
-0.2196782
-0.005389305
-0.03450735
-0.06003042
-0.08428482
-0.1107449
-0.1381743
-0.1703588
-0.2039004
-0.2489573
-0.005767853
-0.03468038
-0.06061471
-0.0848542
-0.1114843
-0.1402337
-0.1741308
-0.2173606
-0.2771551
-0.00558708
-0.03624173
-0.05990764
-0.08485332
-0.1104198
-0.1377859
-0.1718191
-0.2083864
-0.2964412
-0.003985717
-0.03406008
-0.0603591
-0.08222494
-0.1051459
-0.125138
-0.1476569
-0.1533454
-0.2475395
-1.011478
-0.002933204
-0.03401106
-0.06026576
-0.08156824
-0.1007245
-0.1173554
-0.1206329
-0.1151573
-0.09104567
-0.004404415
-0.03479329
-0.06243245
-0.08367678
-0.1035497
-0.1200033
-0.1240939
-0.1183484
-0.1004061
-0.002548397
-0.03708187
-0.06573785
-0.08964138
-0.1115402
-0.1342073
-0.1452175
-0.1623709
-0.1602009
-0.006145462
-0.03948836
-0.07160355
-0.09725586
-0.1238021
-0.1509609
-0.1745262
-0.2055123
-0.2328835
-0.006037416
-0.04321377
-0.0771953
-0.1059472
-0.1358463
-0.1672876
-0.197854
-0.2357701
-0.2796
-0.006993267
-0.04893448
-0.08160947
-0.11491
-0.147286
-0.1812706
-0.2146282
-0.2535995
-0.2935976
-0.005530312
-0.05173576
-0.08892258
-0.1236794
-0.1586066
-0.1940004
-0.2288549
-0.2666686
-0.305915
-0.004273522
-0.05463503
-0.09632657
-0.132608
-0.1699253
-0.2062885
-0.2417787
-0.2786123
-0.3153149
-0.008626215
-0.06295481
-0.1021691
-0.1432093
-0.1817551
-0.2189968
-0.2542515
-0.2890458
-0.3232479
-0.007822399
-0.06488029
-0.1127304
-0.1539964
-0.1954474
-0.2329762
-0.2678289
-0.3003052
-0.3313539
-0.006031566
-0.07024949
-0.1239459
-0.168327
-0.2122754
-0.2500337
-0.2834237
-0.3124006
-0.3391716
-0.008118565
-0.07674556
-0.1368595
-0.1848146
-0.2325007
-0.2711345
-0.3031021
-0.3271287
-0.3483974
-0.01447555
-0.08858364
-0.1535433
-0.2087021
-0.2607881
-0.3003587
-0.3284004
-0.3453088
-0.3577378
-0.02114835
-0.04847317
-0.07150252
-0.08883388
-0.105116
-0.1231074
-0.142202
-0.1520809
-0.0008515296
-0.03012328
-0.04930253
-0.06940692
-0.0880064
-0.1054416
-0.122127
-0.1360918
-0.1473862
-3.426212e-05
-0.03141706
-0.05050205
-0.07127499
-0.09132028
-0.1099529
-0.1271769
-0.142767
-0.1554979
-0.00444664
-0.03204466
-0.05239383
-0.07378055
-0.09444351
-0.1145012
-0.1335852
-0.1507911
-0.1657264
0.0005387353
-0.0326933
-0.05400216
-0.07648913
-0.09853487
-0.1202136
-0.1414653
-0.1613476
-0.1794928
0.004385302
-0.03395323
-0.05599415
-0.07949989
-0.1029629
-0.1267055
-0.1509563
-0.1742996
-0.1975818
-0.005452231
-0.03560506
-0.057444
-0.08226549
-0.1070044
-0.1330272
-0.1605442
-0.1892141
-0.2198134
0.001082522
-0.03583764
-0.05877082
-0.08441952
-0.1103482
-0.1383176
-0.169577
-0.2045061
-0.2484146
0.002568625
-0.03533814
-0.05935862
-0.08484197
-0.1110221
-0.1403215
-0.1733968
-0.2181699
-0.2770642
0.001999539
-0.03653037
-0.05894245
-0.08481567
-0.109613
-0.1374768
-0.1681716
-0.2090211
-0.2910074
0.002378157
-0.03545318
-0.05850325
-0.08214738
-0.1037962
-0.1245824
-0.1411254
-0.1565954
-0.2235504
-0.9897859
0.002486022
-0.03579395
-0.05826134
-0.08155159
-0.09965543
-0.1167384
-0.1184475
-0.1167636
-0.09604365
0.003323499
-0.03631307
-0.06050552
-0.08363291
-0.1025277
-0.1195474
-0.1213519
-0.1225472
-0.1005847
0.0002756247
-0.03897149
-0.06364839
-0.08952201
-0.1103426
-0.1327721
-0.1405914
-0.1625422
-0.1624253
0.007380043
-0.04127311
-0.06882483
-0.0969804
-0.122952
-0.1484162
-0.1730602
-0.1961947
-0.2478031
-0.01001725
-0.04426969
-0.07555761
-0.1056442
-0.1347003
-0.1651652
-0.1930344
-0.2279257
-0.2693863
-0.01171849
-0.05125899
-0.07971817
-0.1150283
-0.1467382
-0.1803889
-0.2134342
-0.2512621
-0.2969888
0.01850831
-0.05381421
-0.0867028
-0.1238528
-0.1580793
-0.1935683
-0.2279822
-0.265582
-0.3046929
-0.005789586
-0.0577155
-0.09375594
-0.132991
-0.1695602
-0.2062802
-0.241689
-0.2783549
-0.3153549
0.001666659
-0.06408022
-0.1004909
-0.1436386
-0.1815437
-0.2190796
-0.2540978
-0.2888109
-0.3229049
-0.00138073
-0.06735815
-0.1100357
-0.1543681
-0.1952106
-0.2332421
-0.2679875
-0.3004284
-0.3313468
-0.0008153651
-0.07362173
-0.1209679
-0.1694659
-0.2124514
-0.2502229
-0.283254
-0.3120029
-0.3388138
0.0002335992
-0.07842217
-0.1334586
-0.1844438
-0.2322603
-0.2717928
-0.3039062
-0.3277751
-0.3483083
-0.002165385
-0.09207576
-0.1506155
-0.2127333
-0.2635038
-0.2988887
-0.3264199
-0.3426038
-0.3560855
-0.01618331
-0.01947405
-0.0006705507
-0.01542419
-0.02137588
-0.0379988
-0.02240924
-0.04388883
-0.02256687
-0.03574526
-0.04309328
-0.05819267
-0.04846541
-0.06836645
-0.04286384
-0.05542619
-0.06367133
-0.07777064
-0.07166953
-0.09283957
-0.06229548
-0.0753302
-0.08337347
-0.09665777
-0.09473009
-0.1146651
-0.08151352
-0.09381099
-0.1019529
-0.1137301
-0.1158328
-0.1347154
-0.1000532
-0.1108729
-0.1187869
-0.1290983
-0.1351825
-0.1525857
-0.1167253
-0.1265308
-0.133625
-0.1420533
-0.152127
-0.1674589
-0.1316108
-0.139588
-0.1457197
-0.1519923
-0.1658661
-0.1789788
-0.1436353
-0.1500523
-0.176365
-0.01078036
-0.01948962
-0.00098768
-0.01102659
-0.003886778
-0.01994217
-0.008329147
-0.02293077
-0.001197487
-0.00838331
-0.004430868
-0.02363342
-0.005271317
-0.02434438
-0.0005250106
-0.005354857
-0.00510946
-0.02650649
-0.002830832
-0.02690518
8.891931e-05
-0.003329338
-0.005719399
-0.03030386
-0.0003854742
-0.02925742
0.0005428426
-0.001138146
-0.005997767
-0.03346398
0.001882203
-0.03144259
0.0008997907
0.001003085
-0.006503386
-0.03600618
0.001956609
-0.03359068
0.001050345
0.003110312
-0.006833753
-0.0387646
0.002880845
-0.03555015
0.00121919
0.005448401
-0.006857446
-0.0407908
0.004125258
-0.03717133
0.001458076
0.007333158
-0.0071538
-0.04251856
0.005292542
-0.03839508
0.001901492
0.009374142
-0.007273007
-0.04352746
-0.7160557
-0.09359404
0.0001585087
-0.2262989
-0.8884135
-0.1063837
-0.01176628
-0.9952018
0.006258663
-0.03962775
0.002267085
0.01067403
-0.00762166
-0.04491276
-0.008726554
-0.05474737
-0.001049758
-0.0944265
-0.02168927
-0.05192504
-0.01917225
0.006778937
-0.04118228
0.002423091
0.01148028
-0.008070909
-0.0464897
-0.006695936
-0.06406332
-0.00231865
-0.1014416
-0.02274117
-0.0637145
-0.01718834
0.006763542
-0.04317449
0.002466709
0.01173086
-0.00854098
-0.04869586
-0.009231881
-0.1564444
-0.255704
-0.1630026
-0.04603051
-0.1392544
-0.2059968
-0.2758748
-0.2552508
0.006285309
-0.04543724
0.002471988
0.01148631
-0.009022695
-0.05128894
0.005497281
-0.04778069
0.002360947
0.01106767
-0.009573404
-0.05386021
0.004475076
-0.05011299
0.002012167
0.01042697
-0.01019175
-0.05651489
0.003258004
-0.05237413
0.001551712
0.00963134
-0.01067327
-0.05892652
0.001798657
-0.0546052
0.001073107
0.008400625
-0.01106298
-0.06140734
5.001423e-05
-0.05687989
0.0005579299
0.006696554
-0.01141529
-0.06402146
-0.002107335
-0.0593126
5.670557e-05
0.004513755
-0.01171976
-0.0666724
-0.004797738
-0.06206756
-0.0004772721
0.001386844
-0.01211358
-0.07014263
-0.008183717
-0.06523922
-0.0009536841
-0.002321373
-0.01247618
-0.07310935
-0.01239287
-0.0690188
-0.001544187
-0.007663582
-0.01325913
-0.07839947
-0.01666674
-0.00125719
-0.01536814
-0.01734205
-0.000309908
-0.01481623
-0.825635
-0.1103065
-0.01410951
-0.2450481
-0.8909878
-0.1167293
-0.01613471
-1.017285
-0.2649917
-0.01605249
-0.0001834661
-0.01471918
-0.01601991
-0.0005017447
-0.01457291
-0.8472162
-0.1230358
-0.02631734
-0.2642203
-0.8806215
-0.1259558
-0.01890201
-1.013971
-0.2615897
-0.2553338
-0.0161161
-0.000434153
-0.01440685
-0.01604766
-0.0005271403
-0.01444257
-0.8586077
-0.1237571
-0.02380605
-0.2664511
-0.885734
-0.125597
-0.01868645
-1.028044
-0.01607958
-0.0004378602
-0.01432894
-0.01573699
-0.0004131681
-0.01438567
-0.8681666
-0.1281428
-0.02445703
-0.2728316
-0.8802755
-0.1256073
-0.01991402
-1.034665
-0.01582922
-0.0001829811
-0.01423428
-0.01584671
-0.0003883205
-0.0144187
-0.874037
-0.1259703
-0.02330868
-0.2772497
-0.8760586
-0.1274294
-0.01863671
-1.026031
-0.015898
-0.0001616737
-0.0142002
-0.01571537
-0.0004034035
-0.01436372
-0.8844493
-0.1278692
-0.02593841
-0.2615643
-0.85897
-0.1240334
-0.02567302
-0.9599982
-0.01603299
-0.0003629063
-0.01443195
-0.01607356
-0.000150937
-0.01477118
-0.8726942
-0.126611
-0.02005728
-0.252591
-0.851422
-0.1221472
-0.02451063
-0.9177395
-0.01719093
-0.000286831
-0.01465788
-0.01663401
-0.001289889
-0.01534715
-0.8855388
-0.1168006
-0.0131979
-0.2349618
-0.8232467
-0.1133796
-0.02435937
-0.8606784
-0.01928276
-0.0008438221
-0.0152497
-0.0160478
-0.04350864
-0.02247465
-0.03549793
-0.02133625
-0.0376126
-0.06828345
-0.04265442
-0.05500764
-0.04255177
-0.05710996
-0.07644579
-0.06101889
-0.07502836
-0.0940078
-0.06302557
-0.07828539
-0.09617355
-0.08109596
-0.09478511
-0.08836418
-0.1091916
-0.08403659
-0.0984343
-0.1189949
-0.1023047
-0.1105477
-0.112602
-0.1042589
-0.1168115
-0.1344699
-0.1180745
-0.1259436
-0.126687
-0.1229911
-0.1319117
-0.1606187
-0.144293
-0.1507915
-0.1595995
-0.1515169
-0.1551635
-0.01076213
-0.003266926
-0.02016346
-0.01072718
-0.01930054
-0.009438446
-0.005652726
-0.02141658
-0.009410146
-0.003764241
-0.0236835
-0.006631319
-0.005133453
-0.0273952
0.004415172
-0.006300572
-0.02444898
-0.003519752
-0.005080385
-0.0304699
-0.002848215
-0.02691953
-0.002352056
-0.00992253
-0.0291887
-0.003307998
0.006087233
-0.03394441
0.0004832701
-0.00724544
-0.03667383
-5.086319e-05
-0.0316329
0.002240726
-0.006977698
-0.0389917
0.002359035
-0.0336759
0.005648476
-0.007449
-0.04004248
0.00281419
-0.03764909
0.006839252
-0.007430666
-0.04289716
-0.01283029
0.004809372
-0.03647927
0.009024779
-0.006994244
-0.04376264
0.00566641
-0.03835246
-0.8832161
-0.1083178