/*--------------------------------*- C++ -*----------------------------------*\
  =========                 |
  \\      /  F ield         | OpenFOAM: The Open Source CFD Toolbox
   \\    /   O peration     | Website:  https://openfoam.org
    \\  /    A nd           | Version:  7
     \\/     M anipulation  |
\*---------------------------------------------------------------------------*/
FoamFile
{
    version     2.0;
    format      ascii;
    class       volScalarField;
    location    "0.1";
    object      Uy;
}
// * * * * * * * * * * * * * * * * * * * * * * * * * * * * * * * * * * * * * //

dimensions      [0 1 -1 0 0 0 0];

internalField   nonuniform List<scalar> 
86107
(
0.030369
0.03029055
0.02857335
0.02728658
0.02508488
0.02240986
0.01854373
0.01409183
0.04906233
0.04860362
0.04708363
0.04480682
0.04144659
0.03714711
0.03117868
0.02390173
0.07068582
0.0700242
0.0679486
0.06495553
0.06052723
0.05461392
0.04630321
0.03599445
0.09196926
0.09143012
0.08916511
0.0857189
0.08063861
0.07356849
0.06335115
0.05027431
0.1145142
0.1143428
0.1121681
0.1087065
0.1036061
0.09591932
0.08457497
0.06842416
0.1376357
0.137855
0.135994
0.1329717
0.1285526
0.1213686
0.1099116
0.09177144
0.1617516
0.1624458
0.1615423
0.1596646
0.1574654
0.1521945
0.1446403
0.1227605
0.1859494
0.1872239
0.1873028
0.1869329
0.1879437
0.1877987
0.1884539
0.167199
0.2103728
0.2121935
0.2133264
0.2151471
0.2209054
0.2304823
0.250618
0.2408063
0.2345367
0.2364507
0.2377374
0.239711
0.2476208
0.259438
0.2974561
0.3905787
0.07857443
0.2581802
0.2594598
0.2588736
0.257787
0.2601772
0.2625956
0.278794
0.3114336
0.2822647
0.2826686
0.2794966
0.2746277
0.2684572
0.2581268
0.241973
0.2515106
0.3073706
0.3068726
0.3013898
0.2930601
0.2812259
0.2608959
0.233238
0.1884485
0.3345475
0.3337009
0.3268714
0.3177345
0.3034828
0.2860935
0.2523254
0.1965727
0.3639003
0.3628819
0.3552677
0.3455478
0.3305911
0.3150725
0.2877668
0.2853183
0.395787
0.3947525
0.3868114
0.376869
0.3629302
0.3471697
0.3266598
0.3003922
0.4303419
0.4293333
0.4211519
0.4113156
0.3984256
0.3864604
0.3698566
0.3561876
0.4674849
0.4662036
0.4573619
0.4466114
0.4336358
0.4206054
0.4067901
0.3946832
0.5077616
0.5060514
0.4962754
0.4844244
0.470707
0.4574885
0.4444141
0.4350755
0.5510279
0.5483119
0.5366416
0.5222975
0.5062591
0.4906775
0.4767415
0.4666999
0.5987589
0.5948012
0.5808343
0.5632899
0.543744
0.5246223
0.5083237
0.4976011
0.6504994
0.6443594
0.6263573
0.6030487
0.5773314
0.5520969
0.5321271
0.5195443
0.7097189
0.7015283
0.6796694
0.6501656
0.6156956
0.580817
0.5537293
0.5392689
0.004176411
0.004037896
0.003763841
0.003472692
0.003270389
0.002929344
0.002278177
0.001615201
0.02494467
0.03050193
0.02927795
0.02752596
0.026024
0.02395764
0.02124632
0.01733655
0.0130292
0.04397987
0.05094557
0.04951354
0.04776801
0.04562708
0.04238404
0.03803011
0.03202147
0.02457903
0.06743716
0.07188436
0.06985339
0.06793888
0.0648649
0.06044403
0.05451371
0.04615023
0.03579865
0.09069713
0.0934603
0.09161117
0.08941465
0.08589682
0.08080601
0.0737408
0.0633906
0.05025706
0.1139597
0.1159977
0.1143404
0.1122017
0.1087116
0.103554
0.09594262
0.08428697
0.06823807
0.1383328
0.1391789
0.1379214
0.1360255
0.1330158
0.1284396
0.1213792
0.1092981
0.0917398
0.1631833
0.1635046
0.1624775
0.1615031
0.1596363
0.1572171
0.1523073
0.1433115
0.1232038
0.1883849
0.1882451
0.187233
0.1872956
0.1868733
0.1875531
0.187808
0.1862025
0.1681394
0.2139132
0.2130165
0.2121702
0.2132482
0.2149915
0.2197771
0.2301145
0.2463753
0.2383431
0.2392725
0.2374238
0.236483
0.2378541
0.239814
0.2480702
0.2600568
0.3001977
0.3836821
0.1891297
0.2647261
0.2612682
0.2595467
0.2590062
0.2579723
0.2606
0.2631887
0.2835124
0.3158061
0.2900179
0.2856502
0.2828007
0.2797172
0.274806
0.2684725
0.2585903
0.243775
0.2464985
0.3162456
0.3110852
0.3070318
0.3015605
0.2933855
0.2804603
0.2626046
0.2209888
0.1590066
0.3440506
0.3385519
0.3337939
0.3270141
0.3175324
0.3030553
0.2834719
0.2453923
0.2086754
0.3739335
0.3682517
0.3630108
0.3556721
0.3456621
0.3321004
0.3139281
0.2866819
0.2581491
0.4061342
0.4004541
0.3949053
0.3871831
0.3772374
0.363979
0.3497441
0.3309225
0.317061
0.4407105
0.4353266
0.4294573
0.4214985
0.4114844
0.3990923
0.3864166
0.3724408
0.3598608
0.4778218
0.4728317
0.4663578
0.4577196
0.4469747
0.4342426
0.4215845
0.4083033
0.3987781
0.5175645
0.5134631
0.5061737
0.4965824
0.48465
0.4711067
0.4578718
0.4451759
0.4360508
0.5602692
0.5571626
0.5484791
0.5370023
0.5226854
0.5067199
0.4912036
0.4773424
0.4676158
0.6062305
0.605236
0.5948734
0.5811089
0.563451
0.5441877
0.5250789
0.5090139
0.4983176
0.6559406
0.6575512
0.6446476
0.6268262
0.6039525
0.5780696
0.5529577
0.5328557
0.5202653
0.7371758
0.7168274
0.70126
0.6796565
0.6493443
0.6162915
0.5811249
0.5550844
0.540296
0.003324653
0.008847136
0.007919482
0.008424077
0.007422329
0.006598913
0.005322606
0.003973198
0.02529409
0.02938555
0.0289545
0.02588945
0.02535544
0.02309206
0.02057755
0.01701319
0.01285805
0.05332906
0.04933806
0.04808639
0.04668711
0.04448718
0.04116649
0.03684634
0.03085897
0.02361986
0.06990681
0.0713709
0.06960069
0.06742176
0.06446346
0.06000638
0.05415728
0.04588675
0.03561774
0.09295142
0.09300719
0.09137794
0.08904034
0.08555816
0.0804453
0.07340886
0.06308237
0.05005104
0.1147429
0.1157563
0.1141843
0.112016
0.1085439
0.1033845
0.09579018
0.08423723
0.06819944
0.1381447
0.1391623
0.1378096
0.1359325
0.1329125
0.1283465
0.1213102
0.1092212
0.09187394
0.1616665
0.1633886
0.162377
0.1614167
0.1595312
0.1571073
0.1521593
0.1432122
0.1233162
0.1855499
0.1878668
0.1872183
0.18721
0.186826
0.1875509
0.1877523
0.1856504
0.1686382
0.2096892
0.2125211
0.2122269
0.2131351
0.2148528
0.2196285
0.2295218
0.244401
0.2423516
0.233995
0.2370178
0.2366017
0.237817
0.2397942
0.2483594
0.260252
0.2991111
0.3791004
0.1989243
0.2581646
0.2609838
0.2596625
0.2590613
0.2581685
0.2612848
0.2638773
0.2837198
0.313077
0.2828299
0.2853641
0.2828636
0.2797359
0.2749394
0.2687702
0.2588819
0.2442417
0.2434127
0.3085059
0.3107503
0.3070724
0.3015982
0.2936516
0.2808788
0.2637122
0.2223036
0.1560591
0.3360733
0.3382014
0.3338113
0.327018
0.3178117
0.3034262
0.2853628
0.2513775
0.2074662
0.3657284
0.3678864
0.362971
0.3555544
0.3456847
0.3318401
0.3139225
0.2860036
0.2575551
0.3978394
0.4001136
0.3948376
0.3870015
0.3770968
0.3633784
0.3486372
0.3279036
0.3126082
0.4325898
0.4350357
0.4293962
0.4213385
0.4113599
0.3986579
0.3857848
0.3708967
0.3588756
0.4700506
0.4725537
0.4663016
0.4575765
0.4468597
0.4339225
0.4210777
0.4073502
0.3973547
0.5107151
0.5132275
0.506147
0.496476
0.484575
0.4709226
0.4576262
0.4447139
0.4356375
0.5546611
0.5569025
0.5484459
0.5368865
0.5226098
0.5065555
0.4909898
0.4770169
0.4671905
0.6031191
0.6050216
0.5948626
0.5810122
0.5634046
0.5440807
0.5249483
0.5087777
0.4980663
0.6560379
0.6571521
0.6444988
0.6265565
0.6037406
0.5777274
0.5526439
0.5325111
0.5199489
0.7163895
0.7166538
0.7011438
0.6794303
0.6493616
0.61608
0.580972
0.5545681
0.539851
0.00295579
0.007863996
0.007605046
0.008320468
0.007321533
0.006575548
0.005335843
0.004014611
0.02455771
0.02948188
0.02963077
0.02622611
0.02565701
0.02326163
0.02084669
0.01729708
0.01313496
0.05324056
0.04970032
0.04825922
0.04685135
0.04461513
0.04126678
0.03696261
0.03095971
0.02371498
0.07072514
0.07178163
0.06980404
0.06761972
0.06459266
0.06008947
0.05424703
0.0459285
0.03569701
0.0939474
0.09316341
0.09147183
0.0891762
0.08564292
0.08049162
0.07346518
0.06305892
0.05016193
0.1160123
0.1157921
0.1142589
0.1120944
0.1085898
0.1033696
0.09580186
0.08406705
0.06831296
0.1395752
0.1390909
0.1378501
0.1359601
0.1329211
0.1282587
0.1212757
0.1089183
0.09229773
0.1634566
0.1632556
0.1624037
0.1613977
0.1594941
0.1569941
0.1520131
0.1424095
0.1236521
0.1878115
0.1877611
0.1872614
0.1871821
0.1867658
0.1873742
0.1876011
0.1844743
0.1695507
0.212213
0.21239
0.2122363
0.2130252
0.2146684
0.2189933
0.2284907
0.2418387
0.2420268
0.2366366
0.2368626
0.2365999
0.2377715
0.2396665
0.2481365
0.2592824
0.2965506
0.3757612
0.1930679
0.2610071
0.2608261
0.259703
0.259104
0.2581597
0.2614484
0.2639258
0.2828542
0.3107178
0.2859402
0.2851913
0.2828991
0.2797349
0.2747365
0.2685792
0.2577935
0.2446183
0.2405336
0.3119539
0.3106239
0.3071975
0.3017371
0.293652
0.2812186
0.2628062
0.225651
0.15984
0.3397865
0.3380593
0.3339311
0.3270314
0.3177149
0.302677
0.2848418
0.2495367
0.2174821
0.3697928
0.3677901
0.3631834
0.3557286
0.3458831
0.3317483
0.3152363
0.2912469
0.2651375
0.4022332
0.4000347
0.3951129
0.3873214
0.3775074
0.3641795
0.3502431
0.3317661
0.3163146
0.4372775
0.4349209
0.4296446
0.4215972
0.4115935
0.3990075
0.3861963
0.3713744
0.3598186
0.4751438
0.4724609
0.4666198
0.4579125
0.4472248
0.4344885
0.4219074
0.4088063
0.3991309
0.5161257
0.5130939
0.50644
0.4967587
0.4848106
0.4712158
0.4579318
0.445129
0.43606
0.5604604
0.5567758
0.5488063
0.5372321
0.5229457
0.5069313
0.4914695
0.4776675
0.4680102
0.6093453
0.6048814
0.5952204
0.5813371
0.5636311
0.5443649
0.5252096
0.5091109
0.4983952
0.6629167
0.6571176
0.6450993
0.6270744
0.6043523
0.5782428
0.5532575
0.5330641
0.5205663
0.7233916
0.7165175
0.7015727
0.6798411
0.6494795
0.6165267
0.5812802
0.5551952
0.5403043
0.00292356
0.007440463
0.00761342
0.008315075
0.007301113
0.006539665
0.005365265
0.004025046
0.02466452
0.02914565
0.02958986
0.02592011
0.02534096
0.02298589
0.02054816
0.0170752
0.0129353
0.05240807
0.04929851
0.04784756
0.04645309
0.04418656
0.04088212
0.03657444
0.0306406
0.02345602
0.06964536
0.07163449
0.06964098
0.0673938
0.06434671
0.05988084
0.05401801
0.0457582
0.03556371
0.09379293
0.09298686
0.0913218
0.08900701
0.08547045
0.08032447
0.07330186
0.06291689
0.05008131
0.1157024
0.1156795
0.1141554
0.1119992
0.1084927
0.1032829
0.09570341
0.08398664
0.0683085
0.1395503
0.139039
0.1377968
0.1359074
0.1328651
0.1282114
0.1212191
0.1087991
0.09240657
0.1633792
0.1632056
0.1623514
0.1613567
0.1594275
0.1569206
0.1517491
0.1421878
0.1239123
0.1877031
0.1876663
0.1872244
0.1871533
0.1867413
0.187408
0.1876114
0.1840537
0.1702612
0.2121756
0.2123121
0.2122169
0.2129789
0.2145588
0.2187659
0.2261743
0.2402804
0.2435448
0.2366937
0.2368185
0.2366093
0.2377528
0.2395887
0.2473036
0.2590307
0.2940566
0.3766087
0.1913662
0.261038
0.260787
0.2597348
0.2591471
0.2582633
0.2615715
0.2645123
0.281284
0.3080516
0.2859128
0.2851254
0.2829049
0.2797299
0.2747251
0.2685196
0.2577175
0.243743
0.2369155
0.3118767
0.3105374
0.3072145
0.3017759
0.2937826
0.2813919
0.2630732
0.2267771
0.1592004
0.3397261
0.3379681
0.3339599
0.3270807
0.317905
0.3030288
0.2856568
0.2513912
0.218996
0.3696159
0.3676135
0.3631619
0.3556961
0.3459436
0.3317577
0.3153192
0.2913578
0.2646589
0.4021006
0.3998878
0.3950855
0.3872661
0.3775094
0.3640379
0.3500998
0.330984
0.3155099
0.4372466
0.4348505
0.4296325
0.4215596
0.4115766
0.3988774
0.3860745
0.3709679
0.3594791
0.4750068
0.4723396
0.4665873
0.4578749
0.447207
0.4343854
0.4217845
0.408448
0.3987135
0.5161371
0.513056
0.5064421
0.4967546
0.4847997
0.4711583
0.4578485
0.444935
0.4358668
0.5605137
0.5567667
0.5488127
0.5372534
0.522958
0.5069284
0.4914336
0.4775818
0.4678707
0.6093777
0.6048314
0.5952012
0.5813267
0.5636007
0.5443361
0.5251332
0.5090203
0.498248
0.662791
0.6569736
0.6450315
0.6270346
0.6043399
0.5782437
0.553223
0.5330579
0.520459
0.7233396
0.7163075
0.7014407
0.6796806
0.6493584
0.61641
0.5810436
0.5549965
0.5399084
0.002881088
0.007280883
0.007576867
0.008420805
0.007466822
0.006688234
0.005458495
0.004122824
0.02456716
0.02909806
0.02950943
0.0259642
0.02545855
0.02312167
0.02067277
0.01714301
0.01300944
0.05240386
0.04930323
0.04783126
0.04644646
0.04418129
0.04091285
0.03662369
0.03068623
0.02349631
0.06980539
0.0716517
0.06965934
0.06743977
0.06443158
0.05996224
0.05409636
0.04581582
0.03561097
0.09379848
0.0930046
0.0913208
0.08901011
0.08546798
0.08032975
0.07331466
0.06293124
0.05009846
0.11575
0.1157063
0.1141764
0.1120253
0.1085234
0.1033197
0.0957364
0.08401947
0.06833835
0.1395604
0.1390416
0.1377998
0.1359066
0.1328619
0.1282109
0.1212207
0.1088007
0.09244775
0.1633271
0.1631898
0.1623332
0.1613541
0.1594226
0.1569238
0.1517462
0.1422193
0.1239789
0.1878183
0.1876807
0.187242
0.187147
0.1867261
0.1873934
0.1875975
0.1839986
0.1703942
0.2121578
0.2122905
0.2122021
0.212963
0.2145304
0.2187165
0.2260661
0.239896
0.2436281
0.2365064
0.2367527
0.2365394
0.2377248
0.2395361
0.2471363
0.2589087
0.2933954
0.3779952
0.2002368
0.2609742
0.2607608
0.2597073
0.259144
0.258258
0.2616262
0.264617
0.2815971
0.3077871
0.2858635
0.2850962
0.282869
0.2796987
0.2746522
0.2684345
0.2574945
0.2433431
0.2363099
0.3119554
0.3105552
0.3072508
0.3017959
0.2938266
0.2815024
0.262677
0.2280148
0.1597615
0.3397292
0.3379864
0.3339588
0.3270372
0.3178658
0.3028496
0.2855617
0.2508496
0.2170674
0.369869
0.367702
0.3632391
0.3556894
0.3459408
0.3316203
0.3152652
0.2908373
0.2655394
0.4022945
0.3999548
0.3951672
0.3872903
0.3775639
0.3641182
0.3502839
0.3314645
0.3158576
0.4371335
0.4348341
0.4296185
0.4215492
0.4115657
0.3988307
0.3860258
0.370722
0.3591757
0.4753093
0.4724066
0.4666671
0.4578819
0.4472269
0.4344181
0.4218773
0.4086506
0.3988928
0.5160979
0.5130543
0.5064416
0.4967697
0.484825
0.4711782
0.4578856
0.444909
0.4358498
0.5601749
0.5566441
0.5486876
0.5371658
0.5228393
0.5068062
0.4913762
0.4775473
0.4679397
0.6092618
0.6048347
0.5952015
0.5814003
0.5637007
0.5444327
0.525297
0.5090522
0.4983645
0.6628556
0.6569169
0.6449929
0.6269233
0.6040995
0.5779333
0.5530375
0.5327981
0.5204302
0.7235312
0.7164812
0.7016318
0.6799237
0.6496074
0.6166615
0.5814674
0.5550819
0.5402506
0.00288001
0.007957978
0.007461558
0.007706793
0.007109717
0.006278534
0.00556632
0.004086094
0.02476628
0.02942162
0.02955173
0.02611147
0.02532796
0.02339337
0.02054025
0.01728495
0.01298088
0.05328512
0.04963028
0.04816864
0.04671443
0.04432636
0.04102209
0.03661415
0.03076936
0.02351266
0.0706619
0.07173081
0.06973838
0.06754819
0.06441747
0.06012347
0.0540809
0.0459028
0.03562222
0.0938025
0.09306137
0.0913938
0.08908656
0.08551295
0.08037451
0.0733206
0.06296336
0.05008598
0.1159223
0.1156827
0.1142159
0.1120314
0.1085095
0.103342
0.09572785
0.08405395
0.06830532
0.1396161
0.1390641
0.1378233
0.1359134
0.1328586
0.1282054
0.1212126
0.1088845
0.09235086
0.16353
0.1633029
0.162368
0.1613828
0.1594353
0.1569684
0.1519439
0.1424341
0.1237563
0.1876255
0.1876169
0.1872175
0.1871257
0.1866978
0.1873316
0.1875371
0.1844472
0.1697971
0.21224
0.2124245
0.2122116
0.2130121
0.2145989
0.2189364
0.2281935
0.241382
0.2420136
0.236828
0.2369993
0.2365545
0.2377635
0.2395407
0.2480144
0.2588609
0.2964886
0.3763497
0.202106
0.2610359
0.2608659
0.2596813
0.2591232
0.2581215
0.2614931
0.2637928
0.2842516
0.307681
0.2858842
0.2851336
0.2828416
0.2796781
0.2745778
0.268399
0.2572588
0.2437081
0.2375016
0.3119593
0.3105677
0.3072046
0.3017472
0.2937055
0.2813842
0.2620547
0.2279585
0.1606188
0.3399228
0.3380168
0.3339841
0.3270011
0.3178104
0.3028156
0.2853213
0.2506621
0.2160057
0.3693708
0.3673281
0.3632054
0.3555851
0.3459649
0.3316861
0.3155073
0.2912178
0.2666935
0.4020497
0.3997766
0.395148
0.3872449
0.3776
0.3642008
0.3504769
0.3318781
0.316371
0.4375597
0.4350864
0.429669
0.4216138
0.4116156
0.3989258
0.3862024
0.370966
0.3596485
0.4747843
0.4722597
0.4666079
0.4578918
0.4472708
0.4345207
0.4220361
0.4088627
0.3991634
0.5162726
0.5132532
0.5064715
0.4968549
0.484851
0.4712566
0.4579756
0.4450516
0.4360157
0.560897
0.5571782
0.548763
0.5373946
0.522962
0.5070521
0.4915793
0.4778122
0.4681455
0.609468
0.6050593
0.5951463
0.5814507
0.5636005
0.5444363
0.52525
0.5091908
0.4984511
0.6629623
0.65708
0.6450385
0.627229
0.604451
0.5785255
0.5534836
0.5333938
0.5207297
0.723562
0.7162525
0.7013723
0.6796985
0.6490813
0.6163322
0.5809518
0.5552692
0.5402288
0.003103939
0.009010641
0.007612654
0.006605816
0.006278402
0.006732406
0.005676961
0.004355502
0.02496158
0.02933433
0.02889837
0.02587173
0.02624199
0.02406867
0.02094258
0.01723111
0.01311538
0.05333789
0.04928742
0.0480396
0.04657116
0.04408858
0.04088214
0.03666263
0.0308015
0.02355287
0.06990111
0.07138896
0.06963391
0.06746504
0.0646225
0.06025591
0.05426044
0.04601558
0.03570024
0.09296098
0.09293332
0.09132728
0.08897281
0.08544286
0.08033967
0.07333163
0.06304175
0.05002776
0.1148478
0.1157456
0.1142043
0.112017
0.1085484
0.1034355
0.09580471
0.08428867
0.06824269
0.1381307
0.1391204
0.1377943
0.1358809
0.1328539
0.1282955
0.1212625
0.1091885
0.09194663
0.1613702
0.1633649
0.1622617
0.1613911
0.159463
0.1570901
0.1520984
0.1432749
0.1233978
0.1864289
0.1878258
0.1872812
0.1871557
0.1867538
0.1875041
0.1876413
0.1855767
0.1686467
0.209775
0.2124861
0.2121881
0.2130822
0.2147471
0.2195177
0.229208
0.2439914
0.2410751
0.2328964
0.2369222
0.2363472
0.2377605
0.2395964
0.2483045
0.2596789
0.2988356
0.375967
0.1925207
0.2579056
0.260961
0.2595708
0.259062
0.2581598
0.2613835
0.263925
0.2830224
0.3064805
0.2826578
0.2852377
0.2827301
0.2796466
0.2746924
0.2686849
0.2579035
0.2447016
0.235184
0.3088616
0.3106603
0.3071863
0.3016201
0.2938012
0.2813632
0.2634218
0.2273251
0.1588305
0.335978
0.3382757
0.3338082
0.3268509
0.3177372
0.3025952
0.2855011
0.2508994
0.2206804
0.3667765
0.367755
0.3632478
0.3554288
0.3457201
0.3313009
0.3146299
0.2903226
0.26335
0.3987992
0.4000114
0.3951116
0.3869758
0.377296
0.3636445
0.349587
0.3302244
0.3144724
0.4315153
0.4350663
0.4292833
0.4213447
0.4113341
0.3985776
0.3856204
0.3703504
0.3585934
0.4719077
0.4725693
0.4665835
0.4575738
0.4469311
0.434056
0.4214499
0.4080951
0.3982802
0.5109138
0.5134049
0.5061759
0.4966293
0.4847004
0.4710842
0.4578086
0.4447735
0.4356961
0.5522626
0.5568014
0.5478994
0.536767
0.5221913
0.5062617
0.49085
0.4770451
0.4675179
0.6023606
0.6051547
0.5947094
0.5813484
0.5637887
0.5445177
0.5255719
0.5089801
0.4985293
0.6561593
0.6568019
0.6441392
0.6262442
0.6025861
0.5765881
0.5518683
0.5317604
0.519864
0.7172512
0.7166604
0.7013608
0.6799386
0.650171
0.6168432
0.5823549
0.5546837
0.540994
0.004244607
0.00365531
0.003150289
0.001190594
0.00652301
0.005584897
0.005820281
0.00422697
0.02561983
0.03038568
0.02923534
0.0270612
0.02562037
0.026144
0.01971605
0.01770633
0.01311038
0.04398934
0.05083851
0.0493579
0.04761466
0.0448697
0.04111402
0.03699514
0.03121495
0.02380858
0.06662081
0.0718283
0.06985434
0.06779005
0.06455162
0.06086428
0.05426927
0.0462873
0.03580076
0.09055457
0.09307414
0.09148507
0.0892295
0.08564921
0.08051487
0.07345984
0.06317118
0.05009568
0.1137715
0.1154334
0.1143887
0.1120669
0.1085967
0.1035637
0.09583972
0.0843594
0.06824307
0.1398343
0.1392078
0.1378845
0.1359357
0.1329094
0.1283328
0.1212627
0.1092104
0.09182003
0.1641511
0.1639445
0.1622939
0.1615089
0.1595103
0.157159
0.1521818
0.1433551
0.1232609
0.1915936
0.1871865
0.1873233
0.1871179
0.1867586
0.1874502
0.1875796
0.1860533
0.1682049
0.2152239
0.2131533
0.2121099
0.2132117
0.2148334
0.2195864
0.2297014
0.2454446
0.2383083
0.2384458
0.2385241
0.2361508
0.2379371
0.2395677
0.2480136
0.259317
0.2999103
0.3778019
0.1928063
0.2652714
0.2614303
0.2594088
0.2590495
0.2578924
0.2607647
0.2628976
0.2835613
0.3073698
0.2935197
0.2853355
0.282673
0.279607
0.2745027
0.2683995
0.2572085
0.2442991
0.2329011
0.316796
0.3110489
0.3070632
0.3015504
0.2934775
0.280982
0.2617961
0.2263241
0.1550192
0.347478
0.3386237
0.3339173
0.3268248
0.3175867
0.3024038
0.2846003
0.2490294
0.2133251
0.3786355
0.3655305
0.3635793
0.3551691
0.3458955
0.3316307
0.3156008
0.2921409
0.2666781
0.4165279
0.399076
0.3952847
0.386912
0.3774912
0.3641128
0.3506471
0.3328272
0.3184392
0.4375615
0.4367469
0.4292978
0.4216466
0.4114957
0.3989601
0.3863193
0.3716804
0.3605645
0.4851612
0.471393
0.4667264
0.4575789
0.4470915
0.4343691
0.4219589
0.4089612
0.3994397
0.5264979
0.5137941
0.5062357
0.4968413
0.4847601
0.4712749
0.4580371
0.445221
0.4361879
0.5573504
0.5597923
0.5477156
0.5374711
0.5224942
0.5068603
0.4913529
0.477675
0.4680394
0.6096085
0.6063615
0.5943869
0.5815983
0.5635028
0.5445082
0.5254263
0.5093388
0.4986561
0.6646874
0.6575803
0.6444995
0.6272906
0.6040105
0.5786398
0.5535367
0.5334917
0.5206958
0.7367231
0.7169092
0.700809
0.6800024
0.6485344
0.6162604
0.5810917
0.5559699
0.5407022
0.001185164
0.001080492
-0.0001930545
0.001988048
0.0004564764
0.0008113801
-0.0003092598
-1.085284e-05
0.0225682
0.03026398
0.03011896
0.02781669
0.02669913
0.02512888
0.02222181
0.01878881
0.01444385
0.0490265
0.04915422
0.0485447
0.04710158
0.04486897
0.04154779
0.03693255
0.03109598
0.02370097
0.05814986
0.07063314
0.0699708
0.06778875
0.06477735
0.06067159
0.05453776
0.04642511
0.03607966
0.1002643
0.09188489
0.09134108
0.08907309
0.08559908
0.08052912
0.0734211
0.06325418
0.05018337
0.1308116
0.1144742
0.1144482
0.1120984
0.1086327
0.1036117
0.09586412
0.08460526
0.06844594
0.1305106
0.1372582
0.1378307
0.1358787
0.1328875
0.1284695
0.1212885
0.1098457
0.09181189
0.1788839
0.1619076
0.1621171
0.1615157
0.1595223
0.1573941
0.1520875
0.1446356
0.1228254
0.2089659
0.1853155
0.1872283
0.1871691
0.1868298
0.1878762
0.1876875
0.1885574
0.166633
0.2329637
0.210202
0.2121689
0.2132266
0.2149815
0.2205979
0.2300228
0.2493262
0.238709
0.268887
0.2348239
0.2361841
0.2377355
0.2395003
0.2475597
0.258984
0.2971199
0.3849491
0.1818079
0.2937092
0.2584238
0.2592931
0.2588454
0.2577894
0.2599556
0.2626294
0.2785094
0.3107629
0.3208001
0.2819522
0.2825282
0.2794219
0.2744872
0.2686192
0.2579514
0.2442817
0.2303333
0.3470441
0.307009
0.306962
0.3011958
0.2935576
0.2806522
0.2643241
0.2232213
0.1484952
0.3757374
0.3349118
0.3336355
0.3266724
0.3174963
0.3022957
0.2852928
0.2488329
0.2073796
0.3793666
0.3624783
0.3635485
0.3550515
0.3455232
0.3313804
0.3137295
0.287639
0.2587558
0.3957852
0.3939296
0.3952482
0.3865322
0.3770619
0.3632411
0.3488546
0.3284734
0.3120223
0.4761571
0.4310942
0.429188
0.4213336
0.4111758
0.3985499
0.3854072
0.3705758
0.3580204
0.5183125
0.4673014
0.4665045
0.4572656
0.4466792
0.433813
0.4212129
0.4077611
0.397875
0.560398
0.5082637
0.5059984
0.4966171
0.4846128
0.4709882
0.4577024
0.444753
0.4356523
0.6135563
0.5522617
0.5474355
0.5367659
0.521546
0.5058517
0.4904582
0.4767746
0.467318
0.6579208
0.599699
0.5942752
0.5816312
0.5641967
0.5445032
0.5257566
0.5086744
0.4984123
0.7133526
0.6498426
0.6432875
0.6261883
0.5996592
0.574495
0.5501164
0.5308356
0.5195103
0.7629583
0.7089363
0.7014322
0.6814038
0.6547913
0.6185493
0.5851629
0.5541444
0.5417564
0.01609268
0.000868449
0.01977979
0.0154616
0.01110354
0.01909621
0.001171716
0.003766042
0.01103675
0.01951522
0.008236672
0.02202481
0.001049984
0.00360353
0.007982267
0.02226779
0.00414211
0.02245516
0.0004241314
0.003668416
0.00420998
0.0243205
0.002053843
0.02368514
3.493196e-05
0.003456767
0.0009614519
0.02630486
-0.0007114554
0.0238703
-0.0004556413
0.003394788
-0.002303008
0.02749686
-0.003301755
0.02389447
-0.0009020202
0.003371108
-0.005061593
0.02815037
-0.005921948
0.02331928
-0.001315581
0.003497413
-0.008474936
0.02766509
-0.008882186
0.02187328
-0.001817657
0.003445911
-0.01152634
0.02670193
-0.002355562
0.02104071
0.03736423
0.02183482
0.02277686
0.04406798
0.0358656
0.04249053
0.05767778
0.04879713
0.04403972
0.06855343
0.05623036
0.0644916
0.07811287
0.07341231
0.06482429
0.09370038
0.07783272
0.08674555
0.09984825
0.09939477
0.08606895
0.1193564
0.1000857
0.1094503
0.1223034
0.1261814
0.1088101
0.145897
0.1230645
0.132662
0.1456521
0.1535988
0.1326073
0.1715072
0.1464353
0.1549806
0.1694459
0.1808049
0.1560449
0.1985812
0.1707872
0.1787773
0.1935938
0.2091233
0.1804235
0.2254834
0.1949189
0.2033186
0.2178219
0.2374436
0.2049683
0.2519421
0.2192585
0.2277982
0.2418261
0.2654661
0.2296631
0.2780193
0.2433833
0.6146219
0.3612631
0.3856136
0.3865479
0.8782314
0.3725796
0.3438359
0.183433
0.2518995
0.2657058
0.2930479
0.2541642
0.3031523
0.2678327
0.3873097
0.2753069
0.2720437
0.3108497
0.3324723
0.2845875
0.2674684
0.2760768
0.2901157
0.3198122
0.2787762
0.3290468
0.2927093
0.2858467
0.2060467
0.1385341
0.2316711
0.2437747
0.1999947
0.1619476
0.3010499
0.3157452
0.3475565
0.3041241
0.3567049
0.3189606
0.1493411
0.1711289
0.1402829
0.1543452
0.09205463
0.1698168
0.1698884
0.07796023
0.08963655
0.3275323
0.3431849
0.3772242
0.3311827
0.3865071
0.3473348
0.3559998
0.3727355
0.4093191
0.3605374
0.4183818
0.3779634
0.3866733
0.4045644
0.4438064
0.3922056
0.4525198
0.4110803
0.4196731
0.4387623
0.4810084
0.426273
0.4889314
0.4466647
0.4550888
0.4754384
0.5206319
0.4625495
0.5280453
0.4850245
0.4930462
0.5147886
0.5630806
0.5013818
0.5704428
0.5265152
0.5337905
0.5571098
0.6089106
0.5430341
0.6163958
0.5713051
0.577697
0.602906
0.6582553
0.5878261
0.6672021
0.6205804
0.6253332
0.6528197
0.7123067
0.63682
0.722845
0.6736701
0.6774915
0.7078839
0.7707635
0.69017
0.7860419
0.7334247
0.001361447
0.0167695
0.0155028
0.0004847547
0.01740134
0.01509854
0.5496455
0.3735064
0.3564892
0.381591
0.9415778
0.3697487
0.3564494
0.1939043
0.0856638
0.0003768899
0.01627123
0.01492431
0.0005370488
0.01623592
0.01447033
0.6038608
0.3716531
0.3451533
0.3770385
0.9574968
0.3702614
0.3619124
0.1953322
0.07905967
0.08926867
0.0005813832
0.01641703
0.01473408
0.0005487848
0.01637556
0.01456091
0.681489
0.3688485
0.3399495
0.3755609
1.001325
0.3683377
0.3611964
0.1991825
0.0005903216
0.01636361
0.01463105
0.0002707049
0.01637518
0.01454383
0.9344715
0.3689507
0.3446322
0.3776831
1.026342
0.3695652
0.3488545
0.2022575
0.0005312115
0.01609681
0.01453322
0.0002408424
0.0163438
0.01460085
1.005622
0.3705907
0.3453287
0.3776175
1.018063
0.3700291
0.3577962
0.1997222
0.000617121
0.01594735
0.01454592
0.0003185451
0.01633737
0.01461719
1.016419
0.3694857
0.3497362
0.3741801
0.7498657
0.3669493
0.3455906
0.1876526
0.000530057
0.01614533
0.01452218
0.0003988299
0.01619629
0.01486156
0.9305717
0.3701717
0.358703
0.3771557
0.6230954
0.3704748
0.3383352
0.1961108
0.0004780842
0.01736945
0.0151387
0.001141862
0.01676429
0.01540422
0.9404061
0.3705687
0.3606942
0.3821101
0.5425917
0.3710586
0.3475199
0.1895013
0.0008674239
0.01965724
0.01537155
0.01575868
0.003824248
0.01098914
0.01957659
0.01106133
0.0188792
0.00380278
0.008019022
0.02221561
0.008006419
0.02053537
-0.001287993
0.004073055
0.02417789
0.007102342
0.005084219
0.02237893
0.0001186719
0.01071369
0.02050914
-0.0001878323
0.002250251
0.002346624
0.02421063
0.004013821
0.007845001
0.01993157
0.0009233072
-0.0002911721
0.02526164
0.004731403
0.009151504
0.01453269
0.0134985
-0.004282375
0.02418862
0.004546771
0.005271097
0.01104375
-0.001944073
-0.009666001
0.02259456
0.02251505
0.04207091
0.03556301
0.02041363
0.0358438
0.04350573
0.06560101
0.05641315
0.04204565
0.06509092
0.05813271
0.06506841
0.09439031
0.07761796
0.07609117
0.06506407
0.07762219
0.08619474
0.1179956
0.1002826
0.08593905
0.09890738
0.1100125
0.1396517
0.123435
0.107157
0.1397074
0.1270582
0.1330768
0.1700726
0.1456335
0.1332301
0.1450964
0.1550676
0.1980641
0.1702818
0.1552217
0.1690076
0.1799134
0.2245887
0.1938629
0.1780423
0.196071
0.2045546
0.2549128
0.219353
0.238382
0.2068352
0.2172992
0.2298531
0.2790851
0.2438033
0.2271335
0.2414493
0.8600855
0.3705719
0.3532911
0.3860704
0.8429538
0.3612794
0.3828882
0.09032887
0.2544976
0.3030401
0.2679511
0.2516217
0.2652161
0.3331494
0.2841157
0.2675861
0.3156711
0.3867306
0.2755684
0.3049723
0.2770598
0.3336539
0.2934264
0.2750656
0.2893412
0.2447157
0.1969018
0.1624853
0.2487916
0.2870791
0.2021434
0.1724585
0.3049424
0.3555729
0.320556
0.3054808
0.3165028
0.3261373
0.3665031
0.3466374
0.3260991
0.34479
0.366136
0.410342
0.3753876
0.3836213
0.3591769
0.3859069
0.3733027
0.396045
0.4281651
0.4110019
0.4237118
0.3907111
0.4063226
0.4208954
0.4921982
0.4470837
0.4202977
0.4373564
0.4575182
0.527244
0.4858656
0.459574
0.4766451
0.5008763
0.5752957
0.524857
0.4927382
0.5132565
0.5405004
0.6163819
0.5703857
0.5325376
0.5562636
0.5841034
0.6672471
0.6216387
0.5766983
0.6016873
0.6317847
0.7185716
0.6744396
0.6229361
0.655607
0.687264
0.7830256
0.7375553
0.6875054
0.7073444
0.006111535
0.006513301
0.008268679
0.0006795159
0.0009794572
0.007911145
0.009010476
-0.004520589
-0.003862655
0.008981095
0.009226779
-0.007933505
-0.009080621
0.009775819
0.009839423
-0.01222198
-0.01251403
0.01020921
0.0102371
-0.01563786
-0.01555221
0.0104343
0.01050809
-0.01836513
-0.01833743
0.01063944
0.01037423
-0.02085497
-0.02110228
0.01065421
0.009831687
-0.02322893
-0.02366325
0.01031171
-0.02564965
-0.02641127
0.02562892
0.02134482
0.02142729
0.02594393
0.0449722
0.04480244
0.04347907
0.04557831
0.06522204
0.06876627
0.06631597
0.06656438
0.08551316
0.09280367
0.08891188
0.08780491
0.106513
0.1176044
0.1123927
0.1098707
0.1286528
0.1431033
0.136564
0.1322355
0.1517903
0.1687066
0.1613488
0.1559498
0.1754936
0.194243
0.1867317
0.179816
0.1992215
0.2199028
0.2122834
0.2041151
0.18509
0.316371
0.3489174
0.2384263
0.1988047
0.302759
0.368551
0.135172
0.2281024
0.2229229
0.2460721
0.2380313
0.2286946
0.1231948
0.2465106
0.2713282
0.263584
0.2533085
0.2702026
0.2968256
0.289703
0.2783983
0.2953061
0.3232926
0.3157794
0.3046581
0.04426282
0.04398615
0.3222235
0.3513205
0.343418
0.3327526
0.3513645
0.3814129
0.3733823
0.3630646
0.383007
0.4136249
0.4056295
0.3957473
0.4173713
0.4484203
0.4405055
0.4310124
0.4545405
0.4856919
0.477788
0.4689117
0.4948823
0.5257822
0.5178878
0.5097024
0.5386902
0.5689246
0.5610679
0.5536772
0.5867004
0.6152859
0.6077546
0.6012541
0.6399785
0.6660736
0.6593285
0.6531924
0.6998462
0.7221177
0.7161406
0.7102995
0.005679657
0.005856358
0.2011865
0.304539
0.3730576
0.2384008
0.2022659
0.3024283
0.3765462
0.2352848
0.2436025
0.1892544
0.2455051
0.1970024
0.1614751
0.2324247
0.2509913
0.1958341
0.1588617
0.1001034
0.1552031
0.180717
0.156842
0.1036585
0.1600674
0.1976654
0.03649783
0.01967504
0.005686444
0.00579675
0.2016826
0.301893
0.379503
0.240694
0.2020935
0.2957698
0.3792081
0.2499263
0.2582041
0.1954367
0.2482244
0.195212
0.1577359
0.2378412
0.2511918
0.1966845
0.1619984
0.1060078
0.1572067
0.1789366
0.1556089
0.1093355
0.1554267
0.177745
0.01690456
0.03755129
0.005543781
0.005570093
0.2026229
0.2951472
0.3806797
0.2413822
0.2032354
0.2911037
0.3827559
0.2568715
0.2626743
0.196378
0.2498551
0.1939286
0.15552
0.2390019
0.2511709