/*--------------------------------*- C++ -*----------------------------------*\
  =========                 |
  \\      /  F ield         | OpenFOAM: The Open Source CFD Toolbox
   \\    /   O peration     | Website:  https://openfoam.org
    \\  /    A nd           | Version:  7
     \\/     M anipulation  |
\*---------------------------------------------------------------------------*/
FoamFile
{
    version     2.0;
    format      ascii;
    class       volScalarField;
    location    "0.1";
    object      Uy;
}
// * * * * * * * * * * * * * * * * * * * * * * * * * * * * * * * * * * * * * //

dimensions      [0 1 -1 0 0 0 0];

internalField   nonuniform List<scalar> 
109929
(
0.3021608
0.3608709
0.379144
0.3948709
0.4050231
0.4125373
0.2300305
0.3081842
0.350817
0.3797702
0.40054
0.4158925
0.1546579
0.2269951
0.27508
0.3115444
0.3381256
0.3583996
0.1265407
0.1936745
0.2432828
0.2810316
0.3106136
0.3338195
0.09712225
0.1539714
0.1978755
0.2347792
0.2653294
0.2902106
0.08222637
0.1331313
0.1744655
0.2102039
0.2400348
0.2652901
0.06855925
0.1128437
0.1498017
0.1827591
0.2114629
0.236644
0.05972385
0.0992639
0.1330378
0.1640114
0.1916155
0.2156541
0.05205753
0.08721296
0.1180758
0.1465894
0.1724902
0.1955464
0.04624537
0.07793596
0.106325
0.1327138
0.1570321
0.1790908
0.04135792
0.07007973
0.09609127
0.1204913
0.1432758
0.1643334
0.03734972
0.06356167
0.08745932
0.1101251
0.1314511
0.15132
0.03392665
0.05793982
0.07998351
0.1010432
0.1209705
0.1397076
0.03100826
0.05308838
0.07359117
0.09301311
0.1116859
0.1293802
0.02846341
0.04886334
0.06795653
0.08584491
0.1033935
0.1201007
0.0262357
0.04514952
0.06276187
0.07946386
0.0959664
0.1117242
0.02425525
0.04180064
0.0582138
0.07382535
0.08932586
0.1041332
0.02246851
0.03871652
0.05416759
0.06873426
0.08330223
0.09721268
0.02085752
0.03595408
0.05037193
0.06417766
0.07780853
0.09086503
0.0193949
0.03346002
0.04684806
0.0600208
0.07275116
0.08503502
0.01806227
0.03119435
0.04364037
0.05613555
0.06805501
0.07965032
0.01683436
0.02911002
0.04073397
0.05252541
0.06369899
0.07462436
0.01385107
0.02718873
0.03806131
0.04926603
0.05960403
0.06988496
0.4490178
0.4204164
0.4263776
0.4302935
0.4329212
0.4346568
0.1762664
0.2771732
0.344398
0.3671054
0.3870731
0.3990737
0.1028044
0.258903
0.318564
0.3602405
0.386901
0.4070779
0.05940348
0.162105
0.2219598
0.2626173
0.2947183
0.3192936
0.04641949
0.1445183
0.201377
0.2472736
0.2821627
0.3101535
0.03412809
0.1066393
0.1564389
0.197014
0.2307561
0.2588935
0.02783826
0.0936302
0.1391073
0.1788805
0.2121299
0.2406134
0.0224312
0.07678033
0.116758
0.1521893
0.1831416
0.2103876
0.01901231
0.06775246
0.1039133
0.1369035
0.1661816
0.1924256
0.01616472
0.05877876
0.09117705
0.1210479
0.1482217
0.1729574
0.01405809
0.05247303
0.08190808
0.1094047
0.1347479
0.1581354
0.01232553
0.04688253
0.0736285
0.09883041
0.12237
0.144329
0.01093837
0.04239333
0.06686389
0.09010619
0.1120191
0.1326442
0.009777289
0.03850611
0.06095646
0.0824134
0.1028347
0.1221635
0.008802228
0.03519086
0.05587946
0.07573826
0.0948172
0.1129227
0.007967968
0.03229505
0.05142659
0.0698516
0.08767739
0.1046453
0.007248597
0.02975533
0.04749911
0.06469003
0.08129094
0.09721371
0.006620248
0.02748709
0.04397103
0.05997275
0.07551955
0.0904712
0.006064664
0.02545126
0.04079299
0.05567316
0.07028202
0.08433152
0.005570725
0.02362287
0.03792665
0.05185419
0.06550271
0.0787237
0.005130446
0.02196242
0.03531169
0.04835956
0.06113012
0.07356981
0.004735491
0.02044831
0.03291367
0.04514444
0.05709282
0.06881111
0.004378341
0.01905452
0.03070828
0.04217866
0.05337911
0.06440364
0.003506
0.01778327
0.02865718
0.03942233
0.04977588
0.06033214
0.4766238
0.4491308
0.4519876
0.4549839
0.452915
0.4523967
0.1812435
0.272693
0.3336921
0.3563571
0.3791599
0.3907457
0.1083721
0.2611106
0.3261915
0.370359
0.3980773
0.4175706
0.06100576
0.1606281
0.2201113
0.2618681
0.2949296
0.3206192
0.04651819
0.145012
0.2019914
0.2480077
0.2843726
0.3117438
0.03274676
0.1058492
0.1556778
0.196214
0.2305489
0.2588343
0.02746553
0.09323447
0.1393971
0.1788475
0.2125757
0.2408795
0.02158177
0.07604135
0.1165126
0.1515192
0.1827816
0.2100629
0.01847731
0.06727338
0.1040442
0.1367184
0.1662261
0.19244
0.01555967
0.05822421
0.09108763
0.1206958
0.1479818
0.1727486
0.01355773
0.05204941
0.08192463
0.1092506
0.1346783
0.1580609
0.01184286
0.04647286
0.07359188
0.09864802
0.1222323
0.1441841
0.01049626
0.04204112
0.06686005
0.0899939
0.1119321
0.1325341
0.009359646
0.03818016
0.06095298
0.08232521
0.1027271
0.1220418
0.008402346
0.03489594
0.0558872
0.07569775
0.09469439
0.1128144
0.007591382
0.03202237
0.0514289
0.06982096
0.08752621
0.1045292
0.006897519
0.02950195
0.04749808
0.06460685
0.08113533
0.0970961
0.006295119
0.02726014
0.04398214
0.05994
0.07539085
0.09037534
0.005763739
0.02524889
0.04081134
0.05572147
0.07019284
0.08426068
0.005293154
0.02343245
0.03793966
0.05187486
0.0654547
0.07866464
0.004872751
0.021782
0.03532328
0.04835839
0.06110807
0.07351542
0.004496554
0.0202762
0.03292884
0.04513175
0.05710167
0.0687547
0.004156282
0.01889506
0.03072724
0.04216001
0.05339579
0.06432983
0.003846019
0.01762381
0.0286929
0.03940828
0.04997024
0.0601927
0.4810028
0.4398956
0.4514988
0.4691794
0.4833256
0.4851966
0.1781451
0.2641453
0.3298369
0.3537166
0.3765323
0.3900474
0.1125079
0.2583103
0.3211858
0.3680039
0.3961409
0.4148606
0.061527
0.1556496
0.2141644
0.2575824
0.2920882
0.3178986
0.04863768
0.1435261
0.2018889
0.2500811
0.2847796
0.3127703
0.03256501
0.1042752
0.1535785
0.193693
0.2276835
0.2559553
0.02768571
0.09370863
0.139815
0.179832
0.2131433
0.2416199
0.02155631
0.07592015
0.1159353
0.1508904
0.1818729
0.2090975
0.01855389
0.06772001
0.1042663
0.1371547
0.1665073
0.192725
0.01558875
0.05843591
0.09102631
0.1206567
0.1478185
0.1725304
0.01360562
0.05236247
0.08206496
0.109449
0.1348114
0.1581722
0.01187311
0.0467081
0.07365937
0.0987357
0.1222626
0.1441895
0.01052253
0.04227235
0.06695699
0.09011575
0.112018
0.1326132
0.009379234
0.03837899
0.06102709
0.08241731
0.1027957
0.122107
0.008426799
0.03507751
0.05595551
0.07578414
0.0947799
0.1128942
0.007612889
0.03218394
0.05148312
0.06989745
0.08762028
0.1046127
0.006913179
0.0296451
0.04753796
0.06467837
0.0812333
0.09718007
0.006303646
0.02738539
0.04401099
0.05998561
0.07547631
0.09044687
0.005767696
0.02536189
0.04083888
0.05574757
0.07025796
0.08431867
0.005293379
0.02353909
0.03796931
0.05190544
0.06550113
0.07871458
0.004870228
0.0218842
0.03535492
0.04839593
0.06114096
0.07355965
0.004490679
0.0203726
0.03295887
0.04516917
0.05712201
0.06879869
0.004147929
0.01898157
0.03075196
0.04219248
0.0534051
0.06438004
0.003836341
0.01769511
0.02870716
0.03942683
0.04993844
0.06026436
0.472034
0.4379242
0.4445058
0.4485826
0.4500414
0.4509357
0.1755736
0.2688347
0.3294985
0.349606
0.375271
0.3848313
0.1116493
0.2548843
0.307369
0.349578
0.3841054
0.404164
0.06157479
0.1541312
0.2097841
0.2519968
0.2863773
0.3116343
0.04854492
0.1405232
0.2004337
0.2471441
0.2835228
0.3116531
0.03210552
0.1034816
0.1526441
0.1925801
0.22658
0.2547159
0.02744973
0.0931115
0.1396134
0.1793269
0.2129835
0.2413914
0.02142721
0.07559079
0.115676
0.1505173
0.1815476
0.2087259
0.01849527
0.06752968
0.1042504
0.1370538
0.1664966
0.1926802
0.01553308
0.05826883
0.09095106
0.1205201
0.1477118
0.1724062
0.01357154
0.05225347
0.08205728
0.1094042
0.134801
0.1581459
0.01184293
0.046605
0.07363637
0.09867716
0.1222258
0.1441382
0.01050104
0.04219014
0.06695222
0.09008271
0.1120056
0.1325865
0.009360328
0.03830362
0.0610215
0.08238424
0.1027792
0.1220774
0.008410729
0.03501091
0.05595455
0.07575833
0.09476858
0.1128715
0.007597733
0.03212244
0.05148228
0.06987277
0.08760769
0.1045895
0.006898403
0.0295886
0.04753726
0.06465363
0.08122077
0.09715868
0.006289217
0.02733525
0.04401306
0.05997076
0.07546538
0.09042721
0.00575406
0.02531775
0.04084419
0.05574288
0.0702514
0.08430276
0.005280271
0.02349798
0.03797552
0.05190161
0.06549923
0.07869781
0.004857787
0.02184569
0.03536217
0.04839036
0.06114264
0.07354077
0.004478808
0.02033538
0.03296803
0.04516271
0.05713206
0.06877477
0.00413645
0.01894691
0.03076316
0.04218456
0.05341811
0.06434738
0.003825586
0.01766231
0.02872438
0.03941652
0.04997864
0.06021842
0.463284
0.4746015
0.4808724
0.4822748
0.4824549
0.4836655
0.1753198
0.2666454
0.3291772
0.3493861
0.3752631
0.3848014
0.1107891
0.2558345
0.3078587
0.3495759
0.3841251
0.4041593
0.06153003
0.1539333
0.2097615
0.2519697
0.2863782
0.3116349
0.04847835
0.1406004
0.2004896
0.2471509
0.2835286
0.3116537
0.03200871
0.1034749
0.1526489
0.1925807
0.2265816
0.2547165
0.02743759
0.09311688
0.1396177
0.1793283
0.2129844
0.2413918
0.02142493
0.07559126
0.115677
0.1505179
0.181548
0.2087261
0.0184942
0.06753009
0.1042508
0.1370541
0.1664968
0.1926803
0.01553275
0.05826895
0.09095127
0.1205202
0.1477119
0.1724062
0.01357046
0.05225352
0.08205724
0.1094041
0.134801
0.1581459
0.01184271
0.046605
0.07363639
0.09867718
0.1222257
0.1441382
0.01050057
0.04219013
0.06695213
0.09008269
0.1120056
0.1325866
0.009359754
0.03830361
0.06102147
0.08238424
0.1027792
0.1220775
0.008410121
0.03501084
0.05595449
0.07575827
0.09476868
0.1128717
0.007597047
0.03212224
0.05148211
0.06987265
0.08760771
0.1045899
0.006897612
0.02958823
0.04753693
0.06465347
0.08122092
0.09715958
0.006288292
0.02733458
0.04401234
0.0599704
0.07546504
0.0904286
0.005752987
0.02531666
0.04084281
0.05574247
0.07025134
0.08430616
0.005278938
0.0234962
0.03797315
0.05190102
0.06549758
0.07870288
0.004856121
0.02184269
0.03535767
0.04838922
0.06113958
0.0735517
0.004476722
0.020331
0.03296037
0.04516176
0.05712322
0.06879211
0.004134008
0.01894024
0.03075012
0.04218199
0.05340218
0.0643771
0.003823095
0.01765502
0.02870515
0.03941796
0.0499423
0.06026823
0.4837558
0.4686864
0.4695639
0.4709236
0.4722277
0.4736005
0.1773329
0.2640541
0.329941
0.3538652
0.3765646
0.3900796
0.1085918
0.2582716
0.3212683
0.3679884
0.3961167
0.4148524
0.06147089
0.1556427
0.2141722
0.2575955
0.2920889
0.3179046
0.04851797
0.1435206
0.2018999
0.2500814
0.284779
0.3127701
0.03244467
0.1042737
0.1535806
0.193694
0.2276837
0.2559554
0.02754177
0.09370805
0.1398171
0.1798323
0.2131436
0.2416197
0.02152088
0.07592024
0.1159359
0.1508905
0.181873
0.2090973
0.01852684
0.06771996
0.1042667
0.1371549
0.1665074
0.192725
0.01557084
0.05843591
0.09102649
0.1206568
0.1478186
0.1725305
0.01359361
0.0523625
0.08206508
0.1094491
0.1348114
0.1581722
0.011866
0.04670834
0.07365954
0.09873582
0.1222627
0.1441895
0.01051958
0.04227246
0.06695712
0.0901158
0.112018
0.1326132
0.009377662
0.03837907
0.06102722
0.08241737
0.1027958
0.1221069
0.008426229
0.03507747
0.05595554
0.07578412
0.09477993
0.1128939
0.007612019
0.03218404
0.05148326
0.0698974
0.08762032
0.1046121
0.006911548
0.02964525
0.04753838
0.06467817
0.08123342
0.09717877
0.006301447
0.02738573
0.04401191
0.0599852
0.07547693
0.09044429
0.005765233
0.02536261
0.04084073
0.0557464
0.07025958
0.08431352
0.005290543
0.02353977
0.037973
0.05190283
0.06550623
0.07870444
0.004866837
0.02188585
0.03536194
0.04839074
0.06114893
0.07353898
0.004486487
0.02037263
0.03297138
0.04515602
0.05714946
0.06876032
0.004142635
0.01898327
0.03077264
0.04217604
0.05344364
0.06430632
0.003831591
0.01768858
0.02874137
0.03937832
0.05004808
0.06013709
0.4776261
0.4678311
0.4669499
0.4587687
0.4590382
0.4606617
0.1796434
0.2727159
0.3337031
0.356321
0.3791644
0.3907359
0.1058877
0.2611323
0.3262032
0.370387
0.3980918
0.4175779
0.06227156
0.1606142
0.220109
0.2618651
0.2949293
0.3206162
0.04790408
0.1450194
0.2019973
0.2480116
0.2843751
0.3117446
0.03296953
0.1058484
0.155679
0.1962148
0.2305496
0.2588342
0.02744153
0.09323577
0.1393982
0.1788484
0.2125763
0.2408799
0.02158424
0.07604143
0.1165129
0.1515195
0.1827818
0.2100629
0.01846847
0.06727334
0.1040444
0.1367186
0.1662263
0.1924401
0.01555843
0.05822409
0.09108788
0.1206959
0.1479819
0.1727486
0.01355869
0.05204926
0.0819246
0.1092506
0.1346785
0.158061
0.01184273
0.04647305
0.07359187
0.09864816
0.1222324
0.1441842
0.0104955
0.04204135
0.06685992
0.08999393
0.1119322
0.1325344
0.009357615
0.03818017
0.06095284
0.08232515
0.1027272
0.122042
0.008407823
0.03489575
0.05588703
0.07569759
0.09469455
0.1128146
0.007595571
0.03202204
0.05142858
0.06982064
0.08752638
0.1045296
0.006896953
0.02950141
0.04749756
0.06460632
0.08113545
0.09709667
0.006289145
0.02725906
0.04398134
0.05993908
0.07539077
0.0903764
0.005754368
0.0252472
0.04080991
0.05572047
0.07019241
0.08426301
0.005280947
0.02342949
0.0379371
0.05187311
0.06545369
0.07866967
0.004858024
0.02177711
0.03531805
0.04835454
0.06110452
0.07352665
0.004478576
0.02026766
0.03291987
0.0451264
0.05709421
0.06878118
0.004136713
0.01888101
0.03070778
0.0421439
0.05337237
0.06437752
0.003825673
0.01760578
0.02866462
0.03938599
0.04990206
0.06030905
0.4598326
0.4644589
0.4672079
0.4681722
0.4684252
0.4689749
0.1798004
0.2771629
0.3444002
0.367099
0.3870666
0.3990671
0.1050179
0.258902
0.3185655
0.3602388
0.3868984
0.4070746
0.06266827
0.1621046
0.22196
0.2626172
0.2947182
0.3192932
0.0468312
0.1445184
0.2013785
0.247274
0.2821627
0.310153
0.03308524
0.1066389
0.1564398
0.1970143
0.2307561
0.258893
0.02723456
0.0936308
0.1391082
0.1788808
0.2121301
0.2406133
0.02156192
0.07678095
0.1167585
0.1521896
0.1831415
0.2103871
0.01833601
0.06775229
0.1039136
0.1369037
0.1661817
0.1924257
0.01547286
0.0587786
0.09117737
0.121048
0.1482217
0.1729573
0.01345073
0.05247322
0.0819083
0.1094048
0.1347479
0.1581354
0.01175036
0.04688329
0.07362861
0.09883061
0.12237
0.144329
0.01040458
0.04239387
0.0668639
0.09010638
0.1120193
0.1326443
0.009275307
0.03850623
0.06095664
0.08241364
0.1028348
0.1221636
0.008331332
0.03519042
0.05587956
0.07573838
0.09481727
0.1129226
0.007525612
0.03229503
0.05142674
0.06985147
0.08767773
0.1046448
0.006831954
0.02975538
0.04749964
0.06468982
0.08129143
0.09721227
0.006228172
0.02748751
0.04397233
0.05997178
0.07552104
0.09046809
0.005695744
0.02545255
0.04079599
0.05567136
0.07028564
0.08432354
0.005226361
0.023624
0.03793223
0.05184768
0.0655135
0.07870731
0.004807407
0.02196517
0.03532374
0.04834963
0.06114672
0.07353012
0.004431151
0.0204464
0.03293568
0.04511182
0.05715366
0.06872563
0.004090938
0.01905544
0.03075081
0.04213582
0.05347086
0.06419875
0.003502451
0.01776135
0.0287296
0.03926343
0.05017333
0.05988118
0.4959162
0.5002873
0.5009631
0.5015547
0.5016278
0.5014716
0.1909143
0.350181
0.3840937
0.4035899
0.4159349
0.4239192
0.4295948
0.1010637
0.2635959
0.3336788
0.3759207
0.4033464
0.4229731
0.4371881
0.05564445
0.1668412
0.2333325
0.2802698
0.3155867
0.341522
0.3612245
0.03831208
0.1341291
0.1998094
0.2495229
0.2874104
0.3167088
0.3396022
0.02688221
0.1002034
0.1552707
0.199909
0.2367392
0.2669132
0.2916037
0.02072347
0.08338527
0.1359884
0.1759668
0.212549
0.2427517
0.2677204
0.01612705
0.06812149
0.1130022
0.1508462
0.1841021
0.2129742
0.2378225
0.01302602
0.05866406
0.0993665
0.1339497
0.1653198
0.1930911
0.2172037
0.01058488
0.05030592
0.0868791
0.1190033
0.1474453
0.173595
0.1967337
0.008738845
0.04421012
0.0774265
0.1072368
0.1334903
0.1581268
0.1802116
0.007248686
0.03906835
0.0694482
0.0967764
0.121038
0.1441456
0.1651463
0.00603709
0.034946
0.06283282
0.08804129
0.1105576
0.1321759
0.1520767
0.00503
0.0315259
0.05720356
0.08046115
0.1013012
0.1215676
0.1403535
0.004181574
0.0287043
0.05234559
0.07408949
0.09300907
0.1121834
0.1299235
0.003462449
0.02629956
0.04811041
0.06848429
0.08556215
0.1037628
0.1205744
0.002845878
0.02421089
0.04440646
0.06314668
0.07901826
0.09626553
0.1121172
0.002315724
0.02235179
0.04121692
0.05772945
0.07345241
0.08956102
0.1044613
0.00184497
0.02067232
0.03820635
0.05357044
0.06841522
0.0834709
0.09748305
0.001442115
0.01915742
0.03547967
0.04977614
0.06394571
0.07792962
0.09107881
0.001075902
0.0177808
0.03300615
0.04632144
0.05983961
0.07286062
0.08522014
0.0007567174
0.01652324
0.0307565
0.04320398
0.05598647
0.06818794
0.07980256
0.0004704217
0.01537033
0.02869482
0.0403659
0.05240406
0.06394765
0.07481654
0.0002122441
0.01422857
0.02678688
0.0377369
0.04915497
0.06007243
0.07036062
0.3307651
0.5031397
0.2366431
0.3929915
0.2763005
0.23163
0.1909772
0.3196087
0.1209257
0.2459789
0.1865781
0.1651521
0.1010714
0.2017148
0.06566234
0.1450965
0.1371356
0.1315075
0.0556406
0.1211241
0.04364878
0.1079798
0.09747762
0.1048393
0.03831146
0.09329439
0.03109416
0.0787303
0.07416619
0.08914751
0.0268797
0.06932567
0.02492587
0.06372092
0.05818427
0.07735178
0.02072602
0.05777913
0.02028896
0.05135935
0.04616779
0.06887427
0.01612641
0.04767959
0.01738816
0.04368411
0.03764801
0.06214743
0.01302708
0.04124168
0.01503178
0.03752645
0.03082581
0.05684557
0.01058537
0.0357795
0.01327046
0.03298217
0.02547176
0.0525105
0.008743041
0.0316698
0.01180744
0.02922379
0.02105881
0.04890044
0.007248771
0.02824549
0.01061922
0.026154
0.01743008
0.04582402
0.006037452
0.02544544
0.009634673
0.02356709
0.01435534
0.04316183
0.005029591
0.02301826
0.00882165
0.02136469
0.01176292
0.04081431
0.004181063
0.02090482
0.008152843
0.01947097
0.009543475
0.03873486
0.003462282
0.01906095
0.007596792
0.01782774
0.007614001
0.03687578
0.002846732
0.01745627
0.007116586
0.01638388
0.005911803
0.03520201
0.002313742
0.01604081
0.006696968
0.01509478
0.004421143
0.03367766
0.001847416
0.0147737
0.006328653
0.01393936
0.00311913
0.03228429
0.001438876
0.0136384
0.006003777
0.01289381
0.002011739
0.03099804
0.001077841
0.012615
0.005713394
0.01194381
0.001060889
0.0298077
0.0007570328
0.01168761
0.005453765
0.01107631
0.0002331739
0.02871172
0.0004706327
0.01084458
0.00521694
0.01027698
-0.0004857593
0.008741518
0.0002141129
0.01007269
0.005014226
0.009571825
0.5783389
0.2421018
0.3490897
0.4761403
0.2307189
0.3732419
0.5991194
0.2337237
0.3789295
0.4779492
0.2284184
0.3788253
0.5985899
0.2322272
0.3806056
0.4790798
0.2270319
0.3776266
0.5961038
0.2293097
0.3736198
0.6004311
0.2307571
0.3958717
0.4855686
0.2280502
0.3766074
0.5965838
0.2295362
0.3792382
0.4788481
0.2282618
0.378192
0.5985485
0.2319564
0.3801766
0.4779662
0.2285028
0.3789562
0.5991265
0.2341818
0.3787925
0.47614
0.2305709
0.3732665
0.578281
0.2421235
0.3489989
0.5031727
0.2366049
0.3929322
0.3308442
0.4834922
0.4278287
0.2016994
0.06565692
0.1450958
0.1865755
0.165154
0.01083758
0.005213074
0.01027477
0.0002116367
0.02868724
0.01006529
0.005007004
0.009559759
-0.000517938
0.008723581
0.4853804
0.3994781
0.3558937
0.3796501
0.4959172
0.4968168
0.4447628
0.4455125
0.3848923
0.4093414
0.5002842
0.4956603
0.4600506
0.4734926
0.4026829
0.4264833
0.5009577
0.4956388
0.4698892
0.4850514
0.4146154
0.4378168
0.5015461
0.4956287
0.4762103
0.4917505
0.4224777
0.4459834
0.5016233
0.4955067
0.4803272
0.4966612
0.4278225
0.5014707
0.4834901
0.2266273
0.2154398
0.2628388
0.2007127
0.1291271
0.1467512
0.1602579
0.1414495
0.07891853
0.09763765
0.0905347
0.1056124
0.05648113
0.07124662
0.07009864
0.08340836
0.04176889
0.05192719
0.04966945
0.06896344
0.03324972
0.04121827
0.04037669
0.05918798
0.02651723
0.03636081
0.0333438
0.05194798
0.02188436
0.03120784
0.02791298
0.04655835
0.01831156
0.02221572
0.02345856
0.04224995
0.01555259
0.01292515
0.02029235
0.03874534
0.01348237
0.007775665
0.0177912
0.0358171
0.01193725
0.005820938
0.01579861
0.03334199
0.01068425
0.004204118
0.01418059
0.0312108
0.009660624
0.002859394
0.0128164
0.02935071
0.008776713
0.001723887
0.01163112
0.02771366
0.007991692
0.0007469804
0.01060686
0.02625837
0.007308839
-0.0001036418
0.009690651
0.02495562
0.006705107
-0.0008485297
0.008876194
0.02378241
0.006190032
-0.001515561
0.008138801
0.02271008
0.005711848
-0.002110667
0.00746981
0.02173537
0.005284549
-0.002647109
0.006870802
0.02083895
0.004889217
-0.003130308
0.006324094
0.0200224
0.004506139
-0.003565252
0.005824186
0.01928524
0.480656
0.5057353
0.4919479
0.5110738
0.4958344
0.5118373
0.4941963
0.5085935
0.5088404
0.4926063
0.5096206
0.4951774
0.5091756
0.4937091
0.5008773
0.4858776
0.4896571
0.5009463
0.4968319
0.444718
0.4454864
0.3559772
0.3797096
0.4956698
0.4600304
0.4734723
0.3849454
0.4093881
0.4956504
0.4698701
0.4850468
0.40272
0.4265195
0.495638
0.4761916
0.4917431
0.4146437
0.437845
0.4955116
0.4803079
0.4966729
0.4224979
0.4459878
0.3195775
0.1209141
0.2459411
0.2763087
0.2316238
0.1211224
0.04364718
0.1079793
0.1371447
0.131494
0.09329528
0.03109359
0.07873498
0.09747818
0.1048462
0.06932942
0.02492487
0.06372049
0.07417052
0.08914175
0.05777737
0.02028676
0.0513541
0.05818201
0.07733779
0.04767548
0.01738571
0.04368388
0.04616457
0.06887169
0.04124356
0.01503075
0.03753009
0.03766159
0.06215539
0.03578196
0.01327012
0.03297884
0.03083004
0.05684289
0.03167238
0.01180565
0.02922232
0.02546882
0.05250959
0.02824255
0.01061836
0.02615084
0.02105055
0.0488904
0.0254441
0.009632394
0.02356728
0.01743384
0.0458242
0.02301908
0.008819677
0.02136701
0.01435905
0.04316097
0.02090701
0.008151943
0.01947239
0.01176548
0.04081739
0.01905991
0.007594699
0.01782552
0.009540694
0.03872673
0.01745566
0.007115341
0.01638813
0.007614861
0.03687839
0.01604156
0.006693718
0.01509071
0.005915303
0.03518903
0.01477118
0.006327113
0.01394385
0.004418509
0.03367873
0.01363781
0.006002288
0.01288954
0.003118679
0.03227083
0.01261196
0.005711285
0.01194495
0.002005131
0.03099078
0.01168558
0.005451423
0.01107781
0.001049761
0.02979654
0.496127
0.4396865
0.5149514
0.4107669
0.3792034
0.2716235
0.325206
0.3422768
0.4894173
0.5028939
0.1874078
0.1791917
0.1808493
0.15526
0.105342
0.1279498
0.1031668
0.1162695
0.06743627
0.100158
0.07487225
0.07701718
0.04902762
0.0803361
0.0539613
0.05549261
0.03778917
0.06868085
0.04351346
0.04060444
0.03055212
0.05958523
0.03552387
0.03182529
0.02527462
0.05315466
0.02984224
0.0264075
0.02142716
0.04785346
0.02553358
0.02246914
0.01855258
0.04362496
0.02248824
0.01848806
0.01617277
0.03942229
0.01991034
0.01508464
0.01422566
0.0346892
0.01770237
0.01293001
0.01257007
0.03021743
0.01586343
0.01076022
0.01122775
0.0265711
0.01431611
0.008730411
0.01010377
0.02415955
0.01297152
0.006739596
0.009115098
0.02218826
0.01179679
0.005033402
0.008250096
0.02084708
0.0107774
0.003525789
0.007498231
0.01981805
0.009857023
0.001980666
0.006842188
0.01898579
0.009028283
0.000495894
0.006263981
0.01839131
0.00826321
-0.001338609
0.005744457
0.01786822
0.007591379
-0.002642251
0.005282712
0.01741748
0.006990433
-0.003753792
0.00485801
0.01698187
0.006447147
-0.004538237
0.004448066
0.007575975
-0.00497953
0.005926752
0.5024731
0.4861655
0.5073091
0.492759
0.5090161
0.4951404
0.5104253
0.5010033
0.4951127
0.5088471
0.4946425
0.5104198
0.4919738
0.5104149
0.4804571
0.5050262
0.4853648
0.400194
0.4961269
0.4397726
0.5149961
0.4111318
0.3785898
0.2716875
0.3251555
0.3424839
0.5308735
0.4706507
0.5250065
0.1291179
0.1467507
0.160237
0.141447
0.004881214
-0.003143465
0.006309509
0.0200114
0.004853929
0.01698038
0.006440717
-0.004587306
0.004496477
-0.003575025
0.005809333
0.01926877
0.004445163
0.01679806
-0.005083927
0.005925292
-1.568317e-05
0.007527436
-1.665505e-05
0.009386797
0.009379607
0.007493149
0.002969328
0.005350989
-0.003977761
0.005312747
0.4991572
0.4565536
0.4467925
0.5176182
0.5203788
0.4571727
0.5257718
0.4639661
0.5243741
0.4670548
0.5280494
0.4681148
0.5255905
0.472673
0.5293354
0.4693475
0.5252546
0.4744964
0.5301804
0.47011
0.524976
0.4755627
0.5308734
0.470655
0.5250054
0.4762832
0.2166752
0.1911539
0.2464317
0.188583
0.1131089
0.1082545
0.1336268
0.1090169
0.06884601
0.0558989
0.07910064
0.07012479
0.05104945
0.03405927
0.05600109
0.05456709
0.03827819
0.02029948
0.03983005
0.04421653
0.03049642
0.01287026
0.0304573
0.0387087
0.0246257
0.008890849
0.02174568
0.03513873
0.02047535
0.005814429
0.01723047
0.03209782
0.01703587
0.003205932
0.01397832
0.03003415
0.01445127
0.00155057
0.01172973
0.02823284
0.01256154
0.0004255258
0.009992807
0.02603493
0.01111579
-0.0005314952
0.008559474
0.02376699
0.009912821
-0.001272195
0.007400819
0.02181725
0.008916907
-0.001783609
0.006450143
0.02016207
0.008061454
-0.002162992
0.005632783
0.01873338
0.007323783
-0.002486433
0.004953618
0.01742856
0.006672812
-0.00271212
0.004361231
0.01620564
0.006097138
-0.002880772
0.003853716
0.0150862
0.00558779
-0.002998251
0.003411919
0.01406479
0.005131982
-0.00307359
0.003022539
0.01314878
0.004723291
-0.00312295
0.002684211
0.01230028
0.004358785
-0.003145231
0.002389403
0.01152964
0.004039661
-0.003149374
0.002133699
0.01082699
0.4786948
0.473923
0.4764208
0.4826906
0.4786286
0.4746861
0.4803327
0.4760416
0.4855154
0.4782241
0.4775511
0.4763752
0.4793636
0.4780609
0.4769107
0.4802974
0.4831552
0.477792
0.5010465
0.4980721
0.5006055
0.4981766
0.2874868
0.2330286
0.2719976
0.2290323
0.4789132
0.4769244
0.1414243
0.1396194
0.1396418
0.1099219
0.08312125
0.09133988
0.08309049
0.05666588
0.05490363
0.06941859
0.05967023
0.02989116
0.03819397
0.05421791
0.04391839
0.01545165
0.02834295
0.04491632
0.03447683
0.007640195
0.02153465
0.03872682
0.02712908
0.002425662
0.01813308
0.03503502
0.02231314
-0.0009997157
0.01499764
0.0308505
0.01899725
-0.003075985
0.01226852
0.02725328
0.01618999
-0.004372811
0.009946838
0.02432133
0.0137619
-0.004949458
0.008155186
0.02215217
0.01183359
-0.005364903
0.00666121
0.02037528
0.01028929
-0.005611244
0.005463401
0.0189861
0.009039122
-0.005872845
0.004522722
0.017719
0.007985131
-0.006036261
0.003731901
0.01650994
0.007111894
-0.005941256
0.003098858
0.01543931
0.00636874
-0.005900451
0.002581754
0.01448037
0.005729778
-0.005863634
0.002159355
0.01358859
0.005181016
-0.005786737
0.001812443
0.01276667
0.004705073
-0.005680395
0.00152536
0.01200289
0.004289691
-0.005544978
0.001286199
0.01129069
0.003928757
-0.00539175
0.001088335
0.01063487
0.003609098
-0.005221749
0.00329757
0.01002892
0.0009122862
-0.005029662
0.4806127
0.4777456
0.4787123
0.4804002
0.4827205
0.4773159
0.4805037
0.478494
0.4750206
0.4820463
0.4816316
0.479344
0.4825648
0.4786642
0.4796554
0.4734909
0.5007853
0.4570666
0.500986
0.4980522
0.5005854
0.498164
0.2875579
0.233132
0.2720526
0.2291915
0.4978732
0.4912366
0.4980045
0.497705
0.1131045
0.1082594
0.1336189
0.1090173
0.1053182
0.1279572
0.1031697
0.1162732
0.00108571
0.01062867
0.003604841
-0.005237572
0.004030942
-0.003155158
0.01082629
0.002124912
0.01000678
0.003287035
0.0009106853
-0.005051605
0.4997271
0.4872354
0.4949305
0.4877671
0.4795338
0.3607626
0.4043067
0.466959
0.4680688
0.4816106
0.5201118
0.4591505
0.5236166
0.4611701
0.5245603
0.4654565
0.5291299
0.4705754
0.5261759
0.4680693
0.5313449
0.4745104
0.5265506
0.4695764
0.5323449
0.4764397
0.5266847
0.4706939
0.5328794
0.4773646
0.1935701
0.1645515
0.1757879
0.1627593
0.1056851
0.1057232
0.1001018
0.08484407
0.06392057
0.07452609
0.06458994
0.04378057
0.04422356
0.05745358
0.04628607
0.02386133
0.03121637
0.04654097
0.03467561
0.0127844
0.0235166
0.03884222
0.0271783
0.006946036
0.02017511
0.0340207
0.02212574
0.001271362
0.01653178
0.03068807
0.01838308
-0.0016407
0.01328105
0.02791199
0.01542308
-0.003789801
0.01070599
0.02535036
0.01316597
-0.005007359
0.008742691
0.02313357
0.01127738
-0.005680394
0.007241162
0.02119466
0.009723841
-0.006050888
0.006049697
0.01951882
0.008460941
-0.006311906
0.005100647
0.01805574
0.007463134
-0.006477534
0.004318715
0.01676857
0.006646415
-0.006559903
0.003688854
0.01559803
0.005973721
-0.00652533
0.003172542
0.01453152
0.005416756
-0.006401394
0.002741266
0.01356176
0.00493902
-0.006232933
0.002379273
0.01266816
0.004534265
-0.006063535
0.002061078
0.01185434
0.004165643
-0.005876213
0.00178014
0.01110658
0.003840442
-0.005684812
0.001533841
0.01042783
0.003544676
-0.005482626
0.00132135
0.009806051
0.003268609
-0.005265881
0.475234
0.4812039
0.479282
0.4783792
0.4770883
0.4771503
0.4779875
0.4774456
0.4774502
0.4771059
0.4800251
0.4800594
0.4778046
0.4793555
0.4832801
0.4777864
0.4712152
0.4781119
0.446861
0.5176188
0.4572344
0.5203897
0.4592322
0.4611994
0.5200838
0.5235795
0.4640545
0.4671189
0.5257473
0.5243771
0.46553
0.4706274
0.5245152
0.5290957
0.4681892
0.4727441
0.5280456
0.5256086
0.4681371
0.4745624
0.5261429
0.5313063
0.4694188
0.4745641
0.5293436
0.5252764
0.4696345
0.4764873
0.5265272
0.5323039
0.4701643
0.4756088
0.530189
0.5249964
0.4706896
0.5328808
0.4773638
0.5266843
0.2154467
0.2627865
0.2007479
0.226603
0.1791969
0.1808284
0.1552428
0.1873863
0.09761776
0.09053326
0.1056144
0.0789292
0.1001657
0.07700332
0.06742137
0.07488045
0.0712414
0.08341744
0.0564996
0.07007389
0.08035116
0.05549031
0.04903073
0.05398937
0.05192768
0.06896939
0.0418031
0.0496746
0.06868014
0.04060553
0.03778984
0.043513
0.04120455
0.05918836
0.03326276
0.04036106
0.03649479
0.05195676
0.02654762
0.03334492
0.05316506
0.02658153
0.02529857
0.02984421
0.03118612
0.04657165
0.02189637
0.02785769
0.04784954
0.02253879
0.02143907
0.02553882
0.02214725
0.04225373
0.01832062
0.02345374
0.04362553
0.01852855
0.01856227
0.02249772
0.01287655
0.03876156
0.01557993
0.0202582
0.03920318
0.01529325
0.01618349
0.01992488
0.007762467
0.03582353
0.01348318
0.01776819
0.03469795
0.01295523
0.01420383
0.01771721
0.005822215
0.03335049
0.01195839
0.01577575
0.03015256
0.01073612
0.01255231
0.01587801
0.004197712
0.03121756
0.01070528
0.01415939
0.02660787
0.008699444
0.01121608
0.01432869
0.002851333
0.02935563
0.009669583
0.01278929
0.02406993
0.006751889
0.01009937
0.01297939
0.001719177
0.02771616
0.008784112
0.01162659
0.0007442568
0.02626401
0.00800451
0.01058455
0.02082032
0.003523964
0.008236291
0.01079148
-0.0001162657
0.02495146
0.00732774
0.00967147
-0.0008542763
0.02378576
0.00672003
0.008850827
0.01894709
0.0004478659
0.006825262
0.009044585
-0.001535129
0.02270489
0.006209911
0.00811521
0.01840096
-0.001557741
0.006252886
0.00825852
-0.002119361
0.021732
0.005724989
0.007446476
0.01784102
-0.002726403
0.005725778
0.007596695
-0.002663839
0.02083245
0.005284609
0.006839007
0.01737515
0.006994593
-0.003751943
0.005271871
0.5005652
0.4987055
0.5012691
0.4976987
0.3250183
0.2878503
0.3553254
0.2698582
0.4715415
0.4781709
0.1332882
0.1363849
0.1520015
0.1299064
0.0768951
0.07479419
0.08583851
0.08181623
0.05275259
0.04003566
0.05639281
0.05803732
0.03888743
0.02345995
0.03898138
0.04587983
0.03054786