/*--------------------------------*- C++ -*----------------------------------*\
  =========                 |
  \\      /  F ield         | OpenFOAM: The Open Source CFD Toolbox
   \\    /   O peration     | Website:  https://openfoam.org
    \\  /    A nd           | Version:  7
     \\/     M anipulation  |
\*---------------------------------------------------------------------------*/
FoamFile
{
    version     2.0;
    format      ascii;
    class       volScalarField;
    location    "0.1";
    object      Uz;
}
// * * * * * * * * * * * * * * * * * * * * * * * * * * * * * * * * * * * * * //

dimensions      [0 1 -1 0 0 0 0];

internalField   nonuniform List<scalar> 
109929
(
-0.003468471
0.007351637
0.008207537
0.006335988
0.005359327
0.00481719
-0.02249326
0.001590142
-0.002611603
-0.003903058
-0.003889612
-0.003856725
-0.01893751
0.008272133
0.005394142
0.002931352
0.00197999
0.001411049
-0.01745854
0.006603581
0.002660873
0.0008357235
0.0003519354
-3.833603e-05
-0.01674845
0.0081731
0.004841023
0.003216257
0.002667614
0.002206059
-0.01632424
0.007743077
0.004092714
0.002519928
0.002037612
0.001549491
-0.01560309
0.008309616
0.00451441
0.003143695
0.002758215
0.002244623
-0.01487659
0.008430124
0.004467945
0.00312609
0.002816072
0.002273443
-0.01435406
0.008539874
0.004632299
0.003302845
0.003024791
0.002526663
-0.01385399
0.008554134
0.004713175
0.003380119
0.003122081
0.002689094
-0.01341777
0.008597359
0.004771569
0.003475584
0.003236144
0.002831942
-0.01298653
0.00861265
0.00482614
0.003548319
0.00331942
0.002926603
-0.01258437
0.008601094
0.004870108
0.003605539
0.003388582
0.003008172
-0.01219342
0.008565738
0.004937067
0.003641499
0.003445266
0.003085581
-0.01181716
0.008504876
0.005102013
0.003649249
0.003484147
0.00316001
-0.01144877
0.008421161
0.005428665
0.003637162
0.003506187
0.003218946
-0.01109415
0.008333743
0.006008574
0.003616391
0.003521504
0.003266972
-0.01075363
0.008248381
0.006030094
0.003684855
0.003541746
0.003305853
-0.01043219
0.0081647
0.005993548
0.003776042
0.003561312
0.003338094
-0.01012593
0.008086081
0.005935953
0.003844849
0.003576688
0.003363448
-0.009840284
0.008006653
0.00587336
0.003882672
0.003586243
0.003381406
-0.00957543
0.007928326
0.00581787
0.003889589
0.00360782
0.003389909
-0.001563045
0.00785358
0.005759629
0.003987072
0.003620487
0.00338814
-0.1121745
-0.03216183
-0.03258744
-0.03269213
-0.03295183
-0.03307685
-0.02136574
-0.03189559
-0.02971945
-0.02682909
-0.02802354
-0.03027776
-0.004158708
0.01276685
0.02317773
0.02874238
0.02747611
0.0287985
-0.003845955
-0.01635036
-0.01065461
-0.01394983
-0.01333844
-0.01345339
-0.001466811
-0.0002610711
0.008609883
0.009990862
0.01142112
0.01206461
-0.00206089
-0.00866331
-0.003176116
-0.004874963
-0.005025873
-0.004790309
-0.001867796
-0.003798674
0.00246438
0.002706265
0.002800892
0.003087565
-0.002195303
-0.005934455
-0.0007012127
-0.001079728
-0.001645534
-0.001717033
-0.002214727
-0.004601514
0.0005983335
0.001139406
0.0005351185
0.0004249651
-0.002315435
-0.004909219
-0.0001717305
0.0003548189
-0.0004243799
-0.0007013609
-0.002347449
-0.004488852
0.0001354947
0.000833966
9.723569e-05
-0.0002253265
-0.002384001
-0.004419482
2.308554e-05
0.0007013723
-4.07522e-05
-0.0004304572
-0.002400153
-0.004236377
9.77434e-05
0.00078975
9.152337e-05
-0.0003128369
-0.002414027
-0.004120923
9.355987e-05
0.00075762
0.0001075263
-0.0003007802
-0.002420268
-0.003994867
0.0001135557
0.0007030076
0.0002081829
-0.0002275099
-0.002420158
-0.003887627
0.0001143764
0.0005657886
0.0003618852
-0.0001497774
-0.002419827
-0.003797433
8.35982e-05
0.0004598727
0.0005553555
-5.474847e-05
-0.00241848
-0.003723012
-2.039024e-05
0.0004224962
0.0007116526
2.866711e-05
-0.002416164
-0.003648184
-6.191212e-05
0.0003053512
0.0008025401
8.894354e-05
-0.002411333
-0.003570239
-7.639844e-05
0.00023713
0.0008401715
0.0001299001
-0.002403549
-0.003488509
-7.175557e-05
0.0002158264
0.000840231
0.0001523737
-0.002391329
-0.003401982
-5.606969e-05
0.0002149539
0.000831072
0.0001637588
-0.00237393
-0.003311122
-3.588249e-05
0.0002187507
0.0008120123
0.0001791745
-0.003620457
-0.003223536
-1.517836e-05
0.000228602
0.0007567414
0.0002270823
-0.03004879
-0.003075902
-0.003648758
-0.003497207
-0.002869468
-0.002663456
-0.004258415
-0.01325507
-0.01958404
-0.01990911
-0.02040621
-0.02045434
-0.002509726
0.0089178
0.00877457
0.01029873
0.01065436
0.01110312
0.0009819331
0.001582485
-0.001903744
-0.002684179
-0.003992715
-0.003779921
0.002573266
0.006553536
0.004003353
0.005190368
0.004440353
0.004109595
0.001863176
0.003283979
-0.00065496
-0.0003832862
-0.001032424
-0.0009109309
0.001875322
0.00436151
0.001419898
0.002467941
0.00191892
0.002065087
0.001631182
0.003184326
-0.0001222934
0.0004271789
-0.0001712511
-1.345978e-05
0.001559154
0.003415319
0.0005109792
0.00117444
0.0006867279
0.000831126
0.001448452
0.003013918
0.0001352537
0.0006097252
0.0001013264
0.0002423331
0.001386169
0.002993717
0.0002587498
0.0007526404
0.00028137
0.0004191555
0.001321879
0.002841053
0.0001758407
0.0006093372
0.0001387337
0.0002680021
0.001271725
0.002766877
0.0001953398
0.0006127266
0.0001549167
0.0002761999
0.001223422
0.00267728
0.0001815506
0.0005711154
0.0001158372
0.0002283118
0.001177638
0.002605926
0.000188163
0.0005690312
9.681353e-05
0.0002130021
0.001133077
0.002536358
0.0001859249
0.0005698858
6.182914e-05
0.0001926342
0.001090094
0.002470406
0.0001804601
0.0005670796
2.748094e-05
0.0001734591
0.00104875
0.002402509
0.0001666937
0.0005136579
-5.783701e-06
0.000151016
0.001010637
0.002347469
0.0001652338
0.0005355733
-2.706812e-05
0.000139174
0.0009738551
0.002293783
0.00016124
0.0005419638
-3.856094e-05
0.0001276895
0.0009384372
0.002242164
0.0001602218
0.0005440972
-3.951453e-05
0.0001169223
0.0009043795
0.002190204
0.0001597322
0.0005383168
-3.929952e-05
0.0001058186
0.0008719252
0.002136525
0.0001629817
0.0005350893
-2.138101e-05
9.196171e-05
0.0008422246
0.002089543
0.0001662135
0.0005222921
-2.057211e-05
7.201038e-05
-0.01315031
0.002235558
0.002429706
0.002582225
0.004415241
0.004678706
-0.002520937
-0.011317
-0.0183673
-0.0196151
-0.01939156
-0.01918325
0.001632244
0.003322007
0.00567382
0.009677401
0.009908821
0.01018945
0.0009013041
-0.001541604
0.001584722
0.001396405
0.0003638106
0.0004466949
0.001651606
0.001732327
0.003721818
0.004680454
0.004904315
0.005125561
0.0009047954
-0.0006049444
-0.0005689191
-0.001010698
-0.0007488464
-0.000905012
0.0008539497
1.249893e-05
0.0009590413
0.00110548
0.001522923
0.001598724
0.0006343266
-0.0008481998
-0.0003821666
-0.0006046014
-0.0003957285
-0.000465384
0.0005767399
-0.0005638665
7.388272e-05
5.347923e-05
0.0002742458
0.0002582748
0.0005214682
-0.0007319494
-0.0002335887
-0.0003352518
-0.0001828748
-0.0002650941
0.0004790785
-0.0006351857
-0.0001096675
-0.0001727681
-1.81917e-05
-9.831957e-05
0.0004470168
-0.0006396647
-0.0001482524
-0.0002318426
-9.583903e-05
-0.0001975524
0.0004162073
-0.0005996391
-0.0001069328
-0.0001885997
-5.156575e-05
-0.0001595674
0.000389463
-0.0005798582
-9.53626e-05
-0.0001848347
-5.000383e-05
-0.0001597465
0.0003656455
-0.0005560405
-7.462605e-05
-0.00016879
-2.538661e-05
-0.0001386506
0.0003444731
-0.000537609
-6.182257e-05
-0.000161778
-1.111959e-06
-0.0001183143
0.0003255966
-0.000521943
-5.24104e-05
-0.0001521074
3.15933e-05
-9.206594e-05
0.0003080941
-0.0005110832
-5.141127e-05
-0.0001473312
6.138573e-05
-6.949308e-05
0.000292042
-0.0005017528
-4.856071e-05
-0.0001518587
8.366023e-05
-5.222796e-05
0.0002775163
-0.0004927732
-4.435809e-05
-0.0001542058
9.844696e-05
-3.994549e-05
0.0002646143
-0.0004831275
-3.754446e-05
-0.0001515258
0.0001087839
-3.071967e-05
0.0002533483
-0.0004730009
-2.91494e-05
-0.0001472754
0.0001149316
-2.581041e-05
0.0002432268
-0.0004639935
-1.956422e-05
-0.000144026
0.0001228619
-1.964547e-05
0.000233536
-0.0004538485
-9.199397e-06
-0.0001407616
0.0001245924
-1.445551e-05
-0.00458226
0.001453935
0.001692962
0.001759998
0.001729125
0.001584722
-0.001797839
-0.002485683
-0.005944296
-0.008768931
-0.009796654
-0.008171132
-3.439995e-05
0.0008130372
-0.0001904227
-0.0006688201
-0.0003604707
4.830895e-05
0.0004687514
0.001668799
0.002742368
0.003715796
0.002791753
0.002731629
0.0007441906
0.001384882
0.001557087
0.002179952
0.00194349
0.002191056
0.0005920522
0.001581878
0.0003985744
0.001102842
0.0003418115
0.0005564968
0.0004596714
0.001363038
0.0005270549
0.001010784
0.0006179004
0.0007798596
0.0003615015
0.001120161
0.0001863668
0.0006134218
0.0001839213
0.000328687
0.000326107
0.00106881
0.0002483553
0.000635941
0.0002880836
0.000413563
0.0002973711
0.0009668588
0.0001475369
0.0004964091
0.0001536519
0.0002740191
0.0002834202
0.0009301615
0.0001544071
0.0004909159
0.0001705777
0.0002845122
0.0002696801
0.0008804004
0.0001219774
0.0004397074
0.0001284086
0.0002385859
0.0002590646
0.0008480039
0.0001145357
0.0004208054
0.0001207835
0.0002276149
0.0002491808
0.0008159789
0.0001017238
0.0003957082
0.0001036041
0.0002064639
0.0002402644
0.0007892809
9.495433e-05
0.0003781275
9.295064e-05
0.0001927039
0.0002320374
0.000764189
8.806372e-05
0.0003613565
8.213702e-05
0.000178579
0.0002244867
0.000741088
8.228731e-05
0.000345382
7.152406e-05
0.0001653331
0.0002174411
0.0007194101
7.608688e-05
0.0003283305
6.047866e-05
0.00015288
0.0002110613
0.0007011385
7.314793e-05
0.0003221623
5.175255e-05
0.0001432622
0.0002051002
0.0006839435
7.045264e-05
0.0003156241
4.43145e-05
0.0001342477
0.0001994907
0.0006674704
6.850653e-05
0.0003089635
3.932642e-05
0.0001266013
0.0001946307
0.0006512884
6.619158e-05
0.0003011042
3.442194e-05
0.0001206598
0.0001899053
0.0006349769
6.470511e-05
0.0002938629
3.341734e-05
0.0001167395
0.0001856795
0.0006201722
6.144783e-05
0.0002846206
2.619011e-05
0.0001128827
0.001277317
-0.01768222
-0.01593284
-0.01308328
-0.01098933
-0.01080934
0.0005215953
0.002242851
0.005604771
0.008702572
0.009778773
0.008157845
0.000631825
-0.0006204357
0.0001903975
0.0006981084
0.0003559982
-4.704599e-05
0.0002752297
-0.001737082
-0.002810097
-0.003720606
-0.002796615
-0.002729723
6.691531e-05
-0.001379386
-0.001565715
-0.002182056
-0.00194559
-0.002191576
1.088524e-05
-0.001587379
-0.0004055176
-0.001104891
-0.0003431578
-0.0005566463
2.015215e-05
-0.001363935
-0.0005288709
-0.001011498
-0.0006182739
-0.000779729
2.763788e-05
-0.00112071
-0.0001873054
-0.0006137182
-0.0001840756
-0.0003285572
2.770272e-05
-0.00106903
-0.0002486209
-0.0006359431
-0.0002879745
-0.0004133927
2.879164e-05
-0.0009670242
-0.0001476986
-0.0004963295
-0.0001535504
-0.0002737963
2.73382e-05
-0.0009302879
-0.0001543859
-0.0004907465
-0.000170376
-0.0002843442
2.560156e-05
-0.0008804849
-0.0001219434
-0.0004394675
-0.0001282167
-0.000238297
2.41833e-05
-0.0008479865
-0.0001144139
-0.0004205607
-0.0001205085
-0.0002273928
2.240441e-05
-0.0008159184
-0.0001016144
-0.0003953868
-0.0001033333
-0.0002060963
2.095063e-05
-0.0007892005
-9.483943e-05
-0.0003779
-9.258906e-05
-0.0001924381
1.935091e-05
-0.0007641947
-8.801142e-05
-0.0003611421
-8.174873e-05
-0.000178212
1.772078e-05
-0.0007411254
-8.221566e-05
-0.0003453274
-7.107307e-05
-0.0001651898
1.632013e-05
-0.0007195269
-7.593105e-05
-0.0003284743
-5.9795e-05
-0.0001528774
1.487375e-05
-0.0007013879
-7.282536e-05
-0.0003227288
-5.038209e-05
-0.000143895
1.34782e-05
-0.0006844294
-6.974533e-05
-0.0003174158
-4.25702e-05
-0.0001363726
1.228871e-05
-0.000668646
-6.697851e-05
-0.0003130713
-3.425576e-05
-0.0001312108
1.145065e-05
-0.0006529809
-6.301526e-05
-0.0003079358
-2.778597e-05
-0.000132728
1.073096e-05
-0.0006400851
-5.867563e-05
-0.0003116587
-1.205947e-05
-0.0001399284
9.569483e-06
-0.0006265507
-5.228542e-05
-0.0003084037
9.166322e-07
-0.0001650733
0.007901397
-0.00333793
-0.002596764
0.001083905
0.004584567
0.005692452
0.001348071
0.01158414
0.01869531
0.01975702
0.01942563
0.01920116
0.0009644031
-0.003500947
-0.005719447
-0.009700846
-0.009909775
-0.01018964
0.0006002603
0.001606607
-0.001534668
-0.001395929
-0.0003614491
-0.0004481719
-0.0003650129
-0.001737473
-0.003717765
-0.004680788
-0.004903349
-0.005124599
-0.0004022881
0.0006093989
0.0005718931
0.001011351
0.0007492125
0.0009053581
-0.0002757098
-1.20544e-05
-0.0009585712
-0.001105116
-0.001522632
-0.001598202
-0.0001849575
0.0008484886
0.0003821706
0.0006047496
0.0003958177
0.0004655736
-0.0001667484
0.0005639576
-7.387753e-05
-5.326133e-05
-0.0002741427
-0.0002579266
-0.0001558394
0.0007318732
0.0002335445
0.0003353767
0.0001829923
0.0002652426
-0.0001541191
0.0006350462
0.0001096271
0.0001729475
1.83077e-05
9.870682e-05
-0.0001552021
0.0006395164
0.0001482376
0.0002320262
9.607792e-05
0.0001977718
-0.00015691
0.0005996378
0.000106803
0.0001888471
5.180663e-05
0.000160068
-0.0001593081
0.0005799067
9.520212e-05
0.0001850123
5.034516e-05
0.0001602062
-0.0001619772
0.0005560639
7.44998e-05
0.000169032
2.575122e-05
0.000139256
-0.0001645431
0.0005375541
6.168195e-05
0.0001619236
1.530342e-06
0.0001188001
-0.0001663962
0.0005218509
5.213946e-05
0.0001521441
-3.107704e-05
9.261899e-05
-0.0001675905
0.0005107917
5.097944e-05
0.0001470602
-6.098226e-05
6.967256e-05
-0.000168452
0.0005012736
4.817593e-05
0.0001512048
-8.347683e-05
5.211096e-05
-0.000169142
0.0004919747
4.388686e-05
0.0001532739
-9.836788e-05
3.906482e-05
-0.0001690644
0.0004817527
3.711603e-05
0.0001503141
-0.0001074235
3.011429e-05
-0.0001680466
0.0004706216
2.809173e-05
0.0001439457
-0.0001137928
2.61872e-05
-0.0001670301
0.0004593341
1.795415e-05
0.0001377212
-0.0001198192
2.861315e-05
-0.000165317
0.000445388
2.214163e-06
0.0001242997
-0.0001306811
3.450916e-05
0.01502306
0.00417925
0.0002195341
-0.0035219
-0.005525639
-0.005888156
0.003872266
0.01319589
0.01954366
0.01986665
0.0203778
0.02043866
0.0009806114
-0.008937381
-0.008770998
-0.01028509
-0.01065098
-0.01109552
-0.0001092018
-0.001588217
0.001914045
0.002684452
0.003992727
0.003780814
-0.00182817
-0.006555468
-0.004001909
-0.005189399
-0.004439728
-0.004108531
-0.0007408124
-0.003284865
0.0006563047
0.0003835408
0.001032893
0.0009113437
-0.0009213642
-0.004361905
-0.001419395
-0.002467727
-0.001918582
-0.0020647
-0.0005338431
-0.003184447
0.0001224093
-0.0004269026
0.000171515
1.368292e-05
-0.0005640756
-0.003415473
-0.0005107842
-0.001174243
-0.0006865043
-0.000831004
-0.000493138
-0.003014167
-0.0001350497
-0.0006094777
-0.0001010313
-0.0002420157
-0.000494878
-0.002993985
-0.0002584248
-0.0007524211
-0.0002811252
-0.0004191357
-0.0004789275
-0.002841187
-0.0001755154
-0.0006090634
-0.0001385354
-0.0002677936
-0.0004738814
-0.002766762
-0.0001950038
-0.0006124805
-0.0001546865
-0.0002761607
-0.0004661078
-0.002677105
-0.0001812255
-0.0005707366
-0.0001155854
-0.0002279776
-0.0004606377
-0.002605738
-0.0001877648
-0.0005686422
-9.650333e-05
-0.0002127964
-0.0004558813
-0.00253645
-0.0001856433
-0.0005694347
-6.150011e-05
-0.0001921868
-0.0004500654
-0.0024703
-0.0001801145
-0.0005667613
-2.696727e-05
-0.000173095
-0.0004419715
-0.002402632
-0.0001662688
-0.0005131282
6.469902e-06
-0.0001507157
-0.0004329259
-0.002347214
-0.0001645608
-0.0005350707
2.874287e-05
-0.0001392787
-0.0004240792
-0.00229333
-0.0001601065
-0.000542156
4.116828e-05
-0.0001293843
-0.0004148304
-0.002241454
-0.0001580484
-0.0005473136
4.567097e-05
-0.0001226302
-0.0004057861
-0.002188519
-0.0001548897
-0.000543426
4.907989e-05
-0.000123259
-0.000397877
-0.002137426
-0.0001533263
-0.000558096
6.07598e-05
-0.000139944
-0.0003920984
-0.002087638
-0.0001509314
-0.0005514787
9.21552e-05
-0.0002122309
0.03002491
0.009226334
0.008559171
0.007094514
0.007530368
0.008467678
0.01876244
0.03191502
0.02975795
0.02684213
0.02802807
0.030274
0.001818866
-0.01277618
-0.02317667
-0.02873958
-0.0274698
-0.02879202
0.0001498738
0.01635849
0.01066035
0.01395308
0.01333996
0.01345413
-0.001248903
0.0002598826
-0.008608949
-0.009991379
-0.01142153
-0.01206569
-0.002104033
0.008664207
0.003176844
0.004875501
0.005026289
0.00479033
-0.001931159
0.003798715
-0.002464784
-0.002705984
-0.002800609
-0.003087538
-0.0023352
0.005934083
0.0007007044
0.001079996
0.001645886
0.001717399
-0.00238432
0.004600942
-0.0005989732
-0.001139193
-0.0005349154
-0.0004246504
-0.002561808
0.004908825
0.0001710521
-0.000354592
0.0004245812
0.0007015504
-0.002657596
0.00448814
-0.0001362892
-0.000833564
-9.685853e-05
0.0002255053
-0.00276311
0.00441842
-2.378002e-05
-0.0007008511
4.137564e-05
0.0004307989
-0.002836757
0.004234967
-9.842102e-05
-0.0007890811
-9.067944e-05
0.0003134689
-0.002899054
0.004119379
-9.436868e-05
-0.000757263
-0.0001066734
0.0003015797
-0.002939521
0.003993275
-0.0001145684
-0.0007030784
-0.0002069717
0.0002287223
-0.002966551
0.003886027
-0.0001156054
-0.0005663526
-0.0003604181
0.0001510666
-0.002978339
0.003795572
-8.537523e-05
-0.0004603606
-0.0005537176
5.586287e-05
-0.002984057
0.003721207
1.806204e-05
-0.0004233917
-0.0007099968
-2.780028e-05
-0.002979713
0.003646124
5.952036e-05
-0.0003058819
-0.0008020335
-8.853006e-05
-0.002968969
0.0035681
7.428336e-05
-0.0002357395
-0.0008405077
-0.0001297257
-0.002948374
0.003486336
6.980209e-05
-0.0002110217
-0.0008419412
-0.000151329
-0.002924259
0.003398944
5.358304e-05
-0.0002058933
-0.0008291174
-0.0001569545
-0.002898355
0.003307142
3.041653e-05
-0.0002009124
-0.0008057398
-0.0001541978
0.003612049
0.003215167
4.132961e-07
-0.0002119229
-0.0007471811
-0.0001158191
0.05020713
0.03937904
0.03405401
0.03141258
0.02983569
0.02894194
0.02175425
-0.00913161
-0.01363081
-0.008457891
-0.005368242
-0.003409548
-0.002885343
0.001286489
-0.01544624
-0.005587912
-0.005472118
-0.006620769
-0.006691344
-0.006397317
-0.005521361
0.003718196
0.006647341
0.008723316
0.005784656
0.00588802
0.005276171
-0.007446746
-0.004857461
-0.0005441352
-0.0008997723
-0.003525827
-0.003867214
-0.004492181
-0.007406897
0.004359162
0.007493155
0.008517697
0.005825682
0.00532536
0.004613294
-0.007401037
0.002249187
0.005069793
0.004995913
0.002713268
0.002205726
0.001324235
-0.007136568
0.005323633
0.008217647
0.008297097
0.00624152
0.005682788
0.004776228
-0.00681718
0.00526171
0.008125954
0.007455614
0.005544152
0.004979239
0.004085899
-0.00635492
0.006377858
0.008917839
0.008518679
0.006773498
0.006219923
0.005383893
-0.005898158
0.006676354
0.009184932
0.008567477
0.00690624
0.00638583
0.005538782
-0.005419815
0.007132945
0.009604861
0.009010413
0.007443674
0.006953497
0.006062448
-0.004940853
0.007382329
0.009873164
0.009219624
0.007715877
0.007252324
0.006387025
-0.004468846
0.007589879
0.01012206
0.009470085
0.008007668
0.007583236
0.006757005
-0.004007392
0.007708322
0.01032157
0.00970528
0.008210598
0.007829064
0.007051799
-0.003549465
0.007775172
0.01051582
0.0101513
0.008358779
0.00803068
0.007304457
-0.003092175
0.007811994
0.01070725
0.01090036
0.008437219
0.008174395
0.007505415
-0.002650898
0.007825281
0.01079244
0.01291652
0.008472897
0.008278993
0.00767815
-0.002219893
0.007842943
0.01091757
0.01306754
0.00851238
0.008388736
0.007827607
-0.001811996
0.007838177
0.0110342
0.01315824
0.008557548
0.008497242
0.00796442
-0.001417983
0.007826248
0.01112843
0.01319777
0.008619111
0.008609024
0.008076241
-0.001048095
0.007799589
0.01119184
0.01317218
0.008693061
0.008727035
0.008200706
-0.0007020216
0.007778302
0.01123309
0.0130772
0.008757369
0.008859032
0.008267035
-0.0003702318
0.01575898
0.01123904
0.0129397
0.00895743
0.009010621
0.008498958
0.03095166
-0.04771005
0.0009381401
0.006414729
0.007623651
-0.01150969
-0.02179189
-0.02080016
-0.01683724
-0.04893115
-0.001132941
-0.03252631
-0.001302005
-0.006679264
0.001466934
-0.01163805
-0.002723547
-0.01550027
0.005521796
-0.02103992
-0.002823045
-0.026957
-0.002512799
-0.01930675
0.007447788
-0.01256119
0.0005381416
-0.0166026
-0.004567327
-0.01778902
0.007410755
-0.01457268
-0.0005506913
-0.01901894
-0.006417981
-0.01827598
0.007398945
-0.01219268
0.0002326332
-0.01553729
-0.006922727
-0.01813243
0.007138871
-0.01158412
-1.148149e-06
-0.01505165
-0.007778585
-0.01829601
0.006822048
-0.01051272
2.786399e-05
-0.01356832
-0.008732119
-0.01852397
0.006355757
-0.009788997
-0.0001577433
-0.01278529
-0.009528888
-0.01872805
0.005895738
-0.009071703
-0.0003112449
-0.01192006
-0.01031892
-0.01892021
0.005415787
-0.008494077
-0.0005207679
-0.01125851
-0.01101553
-0.01906078
0.004945115
-0.00797057
-0.0007593168
-0.01063769
-0.01162008
-0.01913716
0.004473981
-0.007531426
-0.00103197
-0.01009745
-0.01210648
-0.01913809
0.004011824
-0.007161808
-0.001321514
-0.009617138
-0.0124934
-0.019081
0.003549522
-0.00685253
-0.001617524
-0.009191741
-0.01280444
-0.01899772
0.003094118
-0.006576724
-0.001908529
-0.008805433
-0.01305729
-0.01889818
0.002649778
-0.006328821
-0.002192296
-0.008452369
-0.01326785
-0.0187924
0.002219872
-0.006109688
-0.00246815
-0.008130932
-0.01343741
-0.01868171
0.001808298
-0.005904968
-0.002731818
-0.007832064
-0.01357509
-0.01856214
0.00141619
-0.005716111
-0.00297881
-0.007555773
-0.01368408
-0.01843728
0.001045508
-0.005540056
-0.003210934
-0.007300987
-0.01377002
-0.01830597
0.0006948917
-0.005379697
-0.003432418
-0.00706625
-0.01384152
0.007293985
0.0003556657
-0.005237318
-0.003635706
-0.006858471
-0.180131
0.01145605
0.01768141
0.0001865461
0.0006944008
-0.002311913
-0.005176796
-0.0008162291
0.001329814
0.001985004
0.001374777
-0.003422699
0.003823894
-0.002377683
-0.002178543
0.002700342
0.002219786
-0.0004294707
0.01735753
-0.002793659
-0.005084843
-0.08152656
0.002522747
0.0002829317
-0.003494302
-0.002746361
0.003773137
-0.007944876
0.002078914
0.0003819597
-0.002660422
-0.001942143
0.0011984
-0.003321321
0.002340691
0.001775161
-0.001995411
-0.00166062
0.003433019
0.00521999
0.0008004681
-0.001283612
-0.0001819162
-0.0005139809
0.002448251
0.1800998
-0.01140182
-0.01767855
0.04767974
-0.0009736876
-0.006447705
-0.03098393
-0.03767424
-0.02416328
0.006663816
-0.001471001
0.0116416
0.001128269
0.03250396
0.005359571
0.003418258
0.007039598
0.01375873
0.01830892
0.005203641
0.003617115
0.006807881
0.01382477
-0.007353869
0.007370056
0.01104108
0.02487619
0.02634959
-0.05021818
0.003708709
0.02706275
0.03674903
0.02161415
0.02490502
-0.0393627
-0.0003814682
0.04493827
0.04451408
0.02341157
0.02474687
-0.03404482
0.001984419
0.04152598
0.04514454
0.02392822
0.02496078
-0.03141123
0.003930198
0.03955723
0.04596777
0.02404086
0.02510206
-0.02984093
0.004449678
0.0383045
0.04628596
0.02415871
-0.0289399
0.03767783
-0.004070052
-0.004203429
-0.007723017
-0.03383999
-0.002581411
-0.00165243
0.0001835713
-0.04306471
0.0007787757
0.0004138959
-0.001744697
-0.03906779
-0.0009453909
0.001069198
-0.0005406667
-0.0386201
-0.003245795
0.0007154634
-0.00318946
-0.03671481
-0.004921783
0.0001918778
-0.004217111
-0.03558757
-0.004455675
-0.0043524
-0.00522708
-0.03400303
-0.004630774
-0.007418323
-0.00550832
-0.03268632
-0.005313801
-0.0140494
-0.00635719
-0.0313696
-0.005827127
-0.02400725
-0.006898725
-0.03012715
-0.006212557
-0.02782333
-0.00705726
-0.02892647
-0.006456867
-0.02671191
-0.006974235
-0.02774508
-0.006577296
-0.02563709
-0.006859262
-0.02659203
-0.006618378
-0.02455548
-0.006699565
-0.02547109
-0.006607004
-0.0234799
-0.006541688
-0.02438456
-0.00655543
-0.02243681
-0.006368306
-0.02333392
-0.006453151
-0.02142871
-0.006183811
-0.02231634
-0.006308313
-0.02044301
-0.006004023
-0.02133675
-0.006149265
-0.01948606
-0.005832984
-0.02038634
-0.005985534
-0.01855826
-0.00566877
-0.01945925
-0.005821977
-0.01765697
-0.005517867
-0.0185634
-0.005669127
-0.01680894
-0.005382372
-0.01769391
-0.005520813
-0.01599834
-0.005266006
-0.01684812
-0.01611013
-0.03648025
-0.004481859
-0.01159579
-6.815292e-05
-0.006968107
0.009687607
-0.00420667
0.002854589
-0.009535733
0.00517677
-0.002235678
0.01022366
0.0008439274
0.01659692
0.01165438
0.02149899
0.03377997
-0.003696256
-0.02706931
-0.03670676
-0.02489785
-0.02637598
0.000387354
-0.04491682
-0.04449021
-0.02160696
-0.02492454
-0.001979986
-0.04150677
-0.0451395
-0.02342737
-0.0247575
-0.003923519
-0.03954155
-0.04596693
-0.02394046
-0.02496607
-0.004443021
-0.03829984
-0.04628668
-0.02404893
-0.02510693
0.0207385
0.01683345
0.04891877
-0.007641187
0.01150311
0.02103782
0.002824288
0.02695421
0.002722266
0.01549496
0.01255666
-0.0005357417
0.01659663
0.00251352
0.01928247
0.01457294
0.0005475371
0.01901946
0.004565212
0.01778729
0.0121927
-0.0002320217
0.01553484
0.006418204
0.01827046
0.01158383
5.829494e-06
0.01504821
0.006910236
0.01811145
0.01051071
-2.752185e-05
0.01356765
0.007761827
0.01828994
0.009788534
0.0001556408
0.01278857
0.00872929
0.0185225
0.009073925
0.0003070605
0.01192668
0.009529217
0.01872575
0.008497411
0.0005215512
0.01125758
0.01032374
0.0189147
0.007973126
0.0007616555
0.01063626
0.01100339
0.01905373
0.007533676
0.00103366
0.01009564
0.01160842
0.01912995
0.007163289
0.001319347
0.009616478
0.01209682
0.0191371
0.006853354
0.001617674
0.00919011
0.01248954
0.01907608
0.006579125
0.001908996
0.008803446
0.01279616
0.01899528
0.006328467
0.002190031
0.008450468
0.01304942
0.01889561
0.006111048
0.002467178
0.008127799
0.01326084
0.01879097
0.005902856
0.002727169
0.007826434
0.01342901
0.01867853
0.005713817
0.00297801
0.007546122
0.01356653
0.01855985
0.00553037
0.003205977
0.007283162
0.01367357
0.01843819
-0.005802938
0.003178936
-0.001190921
0.004081539
-0.01928748
0.008456622
-0.0147659
-0.00535203
-0.02169833
-0.03403475
-0.01878376
-0.0439351
-0.02282002
-0.03141875
-0.003859272
-0.04031381
-0.004458005
-0.006420635
-0.004029417
-0.03909984
-0.004216199
-0.005025011
-0.00523828
-0.03776242
-0.003929294
-0.001745946
-0.007611332
-0.0369536
-0.005165932
-0.0008164767
-0.007924169
-0.03549714
-0.005493061
-0.0008869369
-0.007676175
-0.03400405
-0.004731416
-0.003338812
-0.007208336
-0.03264668
-0.004568631
-0.004096745
-0.007065391
-0.03128442
-0.004752007
-0.004120345
-0.006882582
-0.02849385
-0.004812621
-0.003980312
-0.00665258
-0.02378645
-0.004747463
-0.004481043
-0.006496996
-0.01865462
-0.00470298
-0.004850305
-0.006371595
-0.01452286
-0.00469901
-0.005223117
-0.00630161
-0.01219157
-0.004729817
-0.006073818
-0.006202832
-0.0103399
-0.004755119
-0.006642075
-0.006094425
-0.009437123
-0.00478985
-0.007061567
-0.006004523
-0.008854526
-0.004791234
-0.00791938
-0.005906931
-0.008465842
-0.004761476
-0.008823142
-0.005825844
-0.008264207
-0.004723231
-0.01071796
-0.00572455
-0.008139759
-0.00468246
-0.0118147
-0.005623649
-0.008078045
-0.004643245
-0.012781
-0.005525185
-0.007946802
-0.004613472
-0.01318753
-0.005410658
0.01828617
-0.01292892
-0.004614324
-0.01628468
-0.0102599
-0.009260002
-0.003201542
-0.004535133
0.003282792
-0.008051497
0.009173001
-0.00586555
0.003258028
-0.0007142599
0.006217193
0.005755364
0.01015995
0.01646536
0.03601802
-0.006859206
-0.01136623
0.005971893
-0.00325245
0.00109074
-0.00430893
0.0196989
-0.008475401
0.01478255
0.005277497
-0.01520519
-0.0109346
0.000784999
0.002563751
0.001646588
-0.0002125713
0.04306821
0.005661404
0.01682763
0.005373266
0.01770286
0.00551997
0.008000558
0.004600982
0.0132867
0.005509241
0.01602395
0.005250057
0.01686139
0.005403478
0.00825793
0.01316078
0.004568213
-6.108721e-05
0.00122059
3.67583e-05
-0.00510209
0.005056924
-0.001295814
0.01830793
-0.005172281
0.01512549
0.005124431
0.006435133
-0.0007161035
0.003332957
-0.01458722
0.003441433
0.0105122
0.01337614
0.007897864
-0.001982764
0.01207446
0.01518128
0.009728653
-0.0004298012
0.008644855
0.01548927
0.01081313
6.816587e-05
0.008689453
0.0153994
0.01111877
-0.0002782797
0.008562195
0.01520186
0.01094277
-0.000782305
0.008507083
-0.01046925
-0.006647897
-0.006111413
-0.01884222
-0.004244954
-0.007763635
0.0140072
-0.01694308
0.007429719
-0.01029718
0.01957103
-0.01884923
0.01302649
-0.01123488
0.02007607
-0.01891713
0.01537148
-0.01329918
0.0208243
-0.01840557
0.01722192
-0.01514344
0.02148689
-0.01767114
0.01780894
-0.01725233
0.021354
-0.01296893
0.01864444
-0.0186319
0.02161058
-0.01375074
0.01869813
-0.01947633
0.02154663
-0.0138512
0.01867413
-0.01958886
0.02115895
-0.01384242
0.0186691
-0.01944992
0.02096609
-0.01425937
0.01849455
-0.01913802
0.0205503
-0.01485097
0.01817637
-0.01884852
0.02001527
-0.01526753
0.01775564
-0.01853387
0.01937132
-0.01545137
0.01717547
-0.01821787
0.01871243
-0.01540832
0.01655352
-0.01790826
0.01799383
-0.01538272
0.01595201
-0.01757337
0.01728153
-0.01538091
0.01535842
-0.01722656
0.01656548
-0.01540919
0.01473466
-0.01688708
0.01586611
-0.01536654
0.01409437
-0.01655856
0.01517861
-0.01528962
0.01345337
-0.01624619
0.0145062
-0.01519938
0.01280674
-0.01595765
0.01384604
-0.01506464
0.0121764
-0.01568036
0.01318077
-0.01495159
0.001062262
0.001767891
-0.002778593
0.003292705
0.0001546124
0.0003730781
0.001085746
0.001405791
0.001332278
0.002950893
0.001358519
0.0005583429
0.0003592958
0.0009077929
0.001361296
-0.0006683684
-0.003158592
0.0006572047
-0.002713147
0.001651229
-0.001427081
0.002189207
-0.007962804
-0.01225042
-0.007975894
-0.008879753
0.001591034
0.0005954166
-0.02718347
-0.02874059
-0.003894189
-0.004676846
-0.007664118
-0.02623183
0.01261467
-0.006568327
0.001219611
-0.02523132
0.01519566
-0.009663694
0.008040666
-0.0236794
0.01782437
-0.01115139
0.01151974
-0.02233766
0.01906394
-0.01200879
0.01393702
-0.02213019
0.02020279
-0.01259146
0.0151713
-0.02223093
0.02093141
-0.01275998
0.01645114
-0.02110558
0.02080353
-0.01306689
0.01718344
-0.01998898
0.02049097
-0.01333753
0.01744857
-0.01898216
0.02032043
-0.01360059
0.0174496
-0.01835955
0.01981791
-0.01383174
0.01729805
-0.01795193
0.01927815
-0.0140622
0.01706555
-0.01759674
0.01867621
-0.01430301
0.01664552
-0.01737643
0.01804307
-0.01443228
0.01620039
-0.01700659
0.01724065
-0.01464204
0.01565078
-0.01676619
0.01652039
-0.0147421
0.0150761
-0.01656373
0.01584648
-0.01484292
0.01448894
-0.01637
0.0151854
-0.01490141
0.01387296
-0.01619121
0.01454291
-0.01485709
0.01325002
-0.01601337
0.01391503
-0.01475977
0.01263114
-0.01582551
0.0132903
-0.01463096
0.01202357
-0.01565234
0.01267687
-0.01449947
0.01209303
-0.01547238
0.01140211
-0.01431136
-0.001087631
0.002258595
-0.003363063
-0.001520409
-0.001655159
-0.001537893
-0.002544243
-0.001652113
0.0002117355
-0.00273909
0.002315142
-0.00445258
0.004324083