/*--------------------------------*- C++ -*----------------------------------*\
  =========                 |
  \\      /  F ield         | OpenFOAM: The Open Source CFD Toolbox
   \\    /   O peration     | Website:  https://openfoam.org
    \\  /    A nd           | Version:  7
     \\/     M anipulation  |
\*---------------------------------------------------------------------------*/
FoamFile
{
    version     2.0;
    format      ascii;
    class       volScalarField;
    location    "0.1";
    object      Uz;
}
// * * * * * * * * * * * * * * * * * * * * * * * * * * * * * * * * * * * * * //

dimensions      [0 1 -1 0 0 0 0];

internalField   nonuniform List<scalar> 
86107
(
4.95448e-05
7.47663e-05
0.0001415814
-0.0001065556
-5.303286e-06
-0.0001201112
-0.0002282561
-0.0002214378
-1.557131e-05
2.197016e-05
0.0006398696
0.0003944338
0.0003835704
0.0003355234
0.0002967825
0.0002282691
-9.274198e-05
-0.0005907604
7.921033e-05
-0.0001907114
-0.0001775399
-0.0002182794
-0.0002348161
-0.0002103475
0.0002165925
-0.0003990756
0.0002973914
1.854497e-06
2.944324e-05
-1.686918e-05
-7.023088e-05
-4.737234e-05
0.000293221
-0.0004673467
0.000275394
-4.287807e-05
-4.178675e-05
-6.644491e-05
-0.0002096899
-7.633084e-05
0.0003906565
-0.0004320117
0.000324417
-1.528824e-06
-3.689676e-05
2.338909e-05
-0.0002454962
6.919963e-05
0.0002543714
-0.0004346536
0.0002888794
-1.359889e-05
-0.0001780452
9.143812e-05
-0.0004450273
0.0004210126
0.0003389003
-0.0004303739
0.000277701
-2.356285e-05
-0.00031445
0.0001480924
-3.357128e-05
-0.001118381
0.0005186002
-0.0004600729
0.000264279
-6.036834e-05
-0.0005540663
0.0007219566
0.00101925
-0.003408495
0.0007336438
-0.0005032451
0.0001827168
-0.0001451403
-0.001184215
0.001257001
-0.0003109599
0.001162189
0.01028586
0.0008942611
-0.0005186018
0.0002768398
-0.0001254103
-0.000616475
0.001074448
0.003845559
0.003929285
0.0009784903
-0.0005343259
0.0002141802
-0.0001310155
-0.001290718
0.0008329965
0.001492557
0.009749641
0.001066249
-0.0005855355
0.0002929494
-0.0002217294
-0.0006769054
0.001842597
0.005053626
0.01220828
0.00113033
-0.0005986428
0.0001730449
-1.762966e-05
-0.001899299
0.005122818
0.002628071
0.01880338
0.001210247
-0.0006929396
0.0002906836
-0.0005441261
-0.001121843
0.001594216
0.008495423
0.004335883
0.001315721
-0.0006592535
0.0004759423
-0.0001120241
-0.0004818986
0.001704628
0.002360414
0.005220366
0.00140945
-0.0007102438
0.0005608828
-0.0002458223
-0.0004187655
-0.0009176368
-0.001232576
-0.001631451
0.001513032
-0.0006943768
0.0007175738
-3.743637e-05
-7.676728e-05
-0.0002508256
-0.0006377363
-0.0007033791
0.001609792
-0.0007091711
0.0008021601
-2.132576e-05
-1.086021e-05
-0.0003030762
-0.0004354348
-0.0008652534
0.001699058
-0.0007242481
0.0008946703
2.416556e-05
0.0001257514
-6.687732e-05
-9.983066e-05
-0.0001937025
0.001804965
-0.0006842888
0.001034234
0.0001773463
0.0002290145
3.077258e-05
-3.340635e-06
-7.334775e-05
0.001825222
-0.0007877484
0.001015219
-9.73249e-05
0.0001974873
-4.457312e-05
9.559138e-05
-5.99899e-06
0.001987325
-0.0004895033
0.001390166
0.0008461037
0.0006174146
0.0006612434
0.0005325395
0.0003904001
-0.00181042
-0.002631758
-0.002462412
-0.003147532
-0.002904456
-0.003990897
-0.005445106
-0.005748128
0.002035024
4.796668e-05
-8.758578e-05
5.681578e-05
-4.911546e-05
1.302113e-05
5.473924e-05
0.0001121175
0.0001451831
0.003978013
0.0001602779
5.959407e-05
0.0003595873
0.0002555699
0.0003474838
0.0002964488
0.000247415
0.000192656
0.003570646
2.98114e-05
-0.0003305944
4.1916e-06
-7.741425e-05
1.695e-05
1.073811e-05
1.111144e-05
1.624141e-05
0.003738977
0.0002165882
-0.0002026312
8.680833e-05
-9.16323e-06
6.210936e-05
4.829114e-05
2.656153e-07
2.986315e-05
0.00407372
0.0001386487
-0.0003644464
-3.980128e-05
-0.0001262334
-6.749565e-05
-4.164561e-05
-0.0001668252
1.685209e-05
0.004362596
0.0002640452
-0.0003387823
-3.21715e-05
-0.000122332
-0.0001057746
-1.360168e-05
-0.0003263654
5.461312e-05
0.003651275
0.0001806926
-0.0004031163
-8.672908e-05
-0.0001473692
-0.0002234529
6.947449e-05
-0.0007296681
0.0004023991
0.004385238
0.0001415703
-0.0004033939
-0.0001328328
-0.000190423
-0.0003440953
0.0001210309
-0.0008881756
0.0009309985
0.005911632
7.225311e-05
-0.0004238237
-0.0001575208
-0.0001711937
-0.0004434881
0.0003928834
-0.001236812
0.0004772804
0.006769847
2.256534e-06
-0.000424523
-0.0003336049
-0.0004425891
-0.001398237
-0.001073225
-0.009669219
0.003008613
0.0155344
0.007737919
-3.043249e-05
-0.0003945286
-0.0002220823
-0.0003103685
-0.0005049026
-0.0007647039
-0.002523782
0.0007903054
0.007921858
-4.987308e-05
-0.0003598067
-0.0002944097
-0.0002926617
-0.001060883
-0.001029144
-0.004404431
0.003479398
0.008381842
-5.601024e-05
-0.0003824503
-0.0002142183
-0.0002839327
-0.0004151766
-0.0007229794
-0.002507864
-0.003094151
0.008682799
-3.920816e-05
-0.0003375345
-0.0003098323
1.566931e-05
-0.001414779
0.001658843
-0.007793164
0.01345051
0.008905523
-1.744163e-05
-0.00041577
-0.0002358047
-0.0003770438
-0.000642489
-0.001793765
-0.00579897
-0.009132589
0.009128766
5.835437e-05
-0.0003799659
-0.0001550471
-5.811869e-05
-0.0002391301
0.0004521925
-0.001406548
0.00566666
0.00927169
0.0001277016
-0.000440356
-0.0001742071
-0.0003088604
-0.0002650799
-0.000646575
-0.0007373465
-0.002119337
0.009374524
0.00024731
-0.0004209421
-0.0001079021
-0.0001758955
-5.496443e-05
2.638697e-05
-5.472733e-05
-0.000389195
0.00943275
0.000351322
-0.0004416586
-0.0001167793
-0.0002521856
-0.0001380352
-0.0002204553
-0.0001641893
-0.0004945822
0.009480424
0.0005087442
-0.0004176871
-8.476282e-05
-0.0002499787
-8.219791e-05
-9.571956e-05
-1.649549e-05
-7.25691e-05
0.00950399
0.0006590244
-0.0003855412
-6.844009e-05
-0.0002131213
-0.000134612
-0.0001377868
-8.655192e-05
-0.0001026893
0.009380503
0.0008246718
-0.000411754
-0.0001511961
-0.0005076008
-0.0002148942
-0.000301722
-0.0001212045
-0.0001553017
-0.005723002
0.001012108
-0.0002448179
-0.0001007819
7.62702e-05
-0.0001898932
2.141777e-05
-6.97152e-05
-4.739017e-05
0.001017115
-0.0006286632
0.001381508
0.0001137131
0.0003620308
0.0003075094
0.0001980127
0.0001574178
-0.0009880142
8.549633e-05
0.001129874
0.001170822
0.001167721
0.001060172
0.00105388
0.001020498
0.0008654754
0.0009606592
-0.001026053
0.000110318
0.0001253045
0.0002093219
0.0002808302
0.0002155532
0.0001402362
9.601763e-05
-0.0008775368
-0.00105287
-3.279179e-05
-1.911701e-05
0.0001563269
0.0001961015
0.0002096321
0.0001951341
0.000189617
6.343414e-05
-0.001199478
-0.0001490864
-0.0001801785
1.027495e-06
1.662808e-05
4.196267e-05
2.869596e-06
5.56548e-05
-0.0004036786
-0.001341759
-0.0002582385
-0.0002673525
-5.902309e-05
-5.007284e-05
9.997371e-06
-6.370721e-05
0.0001258839
-0.0001229764
-0.001316872
-0.0002695214
-0.0002959517
-9.263686e-05
-0.0001100569
-3.102316e-05
-0.0002426201
0.0001074565
-0.0002506941
-0.00131858
-0.0003509466
-0.000333961
-0.0001240838
-0.0001667586
-9.400742e-07
-0.0003461801
0.00056047
-0.0002913682
-0.001412345
-0.0003499716
-0.0003861796
-0.0001869356
-0.000236394
-9.892643e-05
-0.0003199146
0.0007873639
-0.0004027953
-0.001595115
-0.0003186516
-0.0004170003
-0.0001664186
-0.00020214
0.0001864316
-8.561143e-05
0.0006532428
-0.0001668478
-0.001789238
-0.0002732914
-0.0005655316
-0.0004321227
-0.0008501015
-0.001374368
-0.003075246
0.001398887
0.008479787
5.377634e-06
-0.001903792
-0.0001988415
-0.000480303
-0.0002875796
-0.0001045766
-0.0005554231
0.0006705711
0.0005783726
0.0001297772
-0.001986949
-0.0001514152
-0.0005007662
-0.0003006974
-0.0001369615
-0.0006434837
0.001853031
0.001151785
7.831314e-05
-0.002126922
-0.0001733789
-0.0005331572
-0.0004177679
-8.658999e-05
-0.001115648
0.00171111
-0.0008709568
8.314762e-05
-0.002220359
-9.639992e-05
-0.0004353687
-0.0001464675
0.00054097
-0.000257184
0.004401618
-0.005832266
6.620559e-05
-0.002387546
-0.0001680824
-0.000638891
-0.0003954588
-0.0004605621
-0.0004797608
0.001391289
0.0006185094
0.0001311031
-0.00243351
-6.995661e-05
-0.0005106002
-6.794127e-05
9.786499e-05
0.0002979613
0.001309905
0.001006875
0.0001691705
-0.002540454
-0.0001136994
-0.0006342578
-0.0002647879
-0.0003688359
-0.0004731716
-0.0007319557
-0.0003857864
0.0002798049
-0.002551676
-4.417465e-05
-0.0005489749
-8.970579e-05
-0.0001100877
-7.241091e-05
-1.31711e-05
-8.227395e-05
0.0004252936
-0.002601031
-2.739174e-05
-0.0005896064
-0.0001445306
-0.0002377836
-0.000265207
-0.0003519922
-0.0004307067
0.0007011517
-0.00260129
2.374297e-05
-0.0005433115
-7.639143e-05
-0.0001201801
-8.994577e-05
-6.884471e-05
-9.711177e-05
0.0008879341
-0.002663875
5.955453e-05
-0.0005686536
-6.629685e-05
-0.0001800484
-0.0001307862
-0.0001513123
-0.0001564752
0.001443515
-0.002634021
8.149381e-05
-0.0005766234
-0.0001298331
-0.0001429696
-0.0001159537
-8.578571e-05
-9.647832e-05
0.001191099
-0.00278355
0.0001431795
-0.0006682494
-9.463423e-06
-0.0003251784
-0.000116526
-0.0001893585
-8.428463e-05
-0.0001000983
-0.0005394413
-0.0003391103
-0.0001945994
-0.0003243038
-0.0003445194
-0.0004364276
-0.0003455989
8.627674e-05
5.940866e-05
0.0002460064
5.052396e-06
2.621852e-05
-2.909342e-05
-9.546098e-06
-5.685078e-05
-1.648704e-05
0.000372938
-9.047726e-05
7.103618e-05
-2.961578e-05
7.374869e-06
-2.489164e-05
1.242055e-06
-5.232826e-05
-2.135882e-05
0.0006797126
0.0001650426
0.0001722694
4.907522e-05
5.544758e-05
3.732472e-05
4.621627e-05
6.631631e-06
3.745195e-05
0.0007924516
0.0002308791
0.0001587945
4.516189e-05
3.711562e-05
1.278368e-05
2.683162e-05
-3.597217e-05
3.519875e-05
0.0006004298
0.0002166715
9.544933e-05
1.167312e-05
-6.587654e-06
-3.138762e-05
-2.790439e-06
-0.0001083566
9.038369e-05
0.0006559441
0.0002602699
0.000103651
4.999385e-06
-1.987384e-05
-7.026042e-05
-3.163088e-05
-0.0002738563
0.0001175066
0.0005588096
0.0002293215
6.370102e-05
-2.759768e-05
-4.857465e-05
-0.0001320534
-3.611944e-05
-0.0003811189
0.0006242718
0.0006592547
0.0002459264
6.975653e-05
-5.253218e-05
-9.445324e-05
-0.0001830398
-0.0002734867
-0.0002556646
0.0009492043
0.000756723
0.0002284938
7.109401e-05
-6.567508e-05
-7.891355e-05
-0.0001663319
9.437465e-05
-0.0009454119
0.0003584156
0.0009279693
0.0002681587
6.871624e-05
-0.0001720858
-0.0003194686
-0.000888196
-0.001411574
-0.002485008
0.002056936
0.005643456
0.001000983
0.0002832711
8.585881e-05
-0.0001081768
-0.0002456788
-0.0002846043
-0.0007130188
-0.0005997176
0.0003105867
0.001106173
0.000335471
0.0001228728
-0.0001094957
-0.0002654695
-0.00038902
-0.0006942034
-0.0004390912
-0.0005156652
0.0011494
0.000318759
7.978203e-05
-0.0001679463
-0.000504209
-0.0005711643
-0.001756733
-0.0007064852
-0.003015698
0.00129398
0.0004056114
0.0001860706
-2.323367e-05
-0.0002297059
5.22143e-05
-0.0007782491
0.001776109
-0.007871876
0.001360308
0.0003874722
0.0001304742
-0.0002111558
-0.0005396323
-0.0009806563
-0.001981835
-0.003820258
-0.005768724
0.001467213
0.0004582015
0.0002649859
-6.56525e-06
-0.0001001035
-0.0001407668
-0.0003469194
-0.0004549382
4.438691e-05
0.001617779
0.0005173759
0.0002614402
-7.547721e-05
-0.0002599151
-0.0004713315
-0.0008435217
-0.001318099
-0.00163292
0.001813237
0.0006584427
0.0003778499
8.106e-05
-1.624871e-05
-5.83276e-05
-0.000167316
-0.0002305637
-0.0003572306
0.001936473
0.0007189339
0.000413252
8.337893e-05
-4.065878e-05
-0.0001333263
-0.0002822632
-0.0004262371
-0.0006073655
0.002252165
0.0009329406
0.0005221848
0.0002028847
6.992887e-05
5.534024e-05
-2.459975e-05
-2.145553e-05
-8.987472e-05
0.002448662
0.001056532
0.0006002416
0.0002618005
0.0001383404
9.795366e-05
2.232532e-05
-1.564592e-05
-8.195561e-05
0.002769392
0.001237367
0.0006428655
0.0002847109
5.525753e-05
0.0001322801
2.078612e-05
0.000102827
1.658574e-05
0.003065882
0.001385601
0.0008514429
0.0004282862
0.0004159239
0.0003119667
0.0003207022
0.0003015937
0.00020026
-6.29135e-05
0.0001168402
0.0002113362
9.873394e-05
9.9985e-05
0.0001784714
0.0001279912
0.0001298122
4.793325e-05
4.491808e-05
0.0003530672
0.0003292632
0.0004354361
0.0003490664
0.0003629783
0.0002864073
0.0002568082
-4.508554e-05
-0.000215752
2.798545e-05
1.766745e-05
7.048963e-05
3.807991e-05
8.701705e-05
4.672798e-05
6.116728e-05
-0.0001546736
-0.0002427025
3.10187e-06
2.264409e-05
0.0001235018
0.0001245813
0.0001520064
0.0001248391
0.0001268677
-0.0001194975
-0.0003370254
-7.823237e-05
-9.311947e-05
-2.467607e-06
7.203328e-06
4.797173e-05
3.234021e-05
5.172302e-05
-0.0003109982
-0.0004011968
-0.0001388023
-0.000127181
-3.09946e-05
5.512266e-06
4.487824e-05
3.184904e-05
8.120278e-05
-0.0002865188
-0.0004235681
-0.0001633862
-0.0001678008
-8.119284e-05
-4.687406e-05
-1.834981e-05
-3.414931e-05
6.655888e-05
-0.0003431631
-0.000452017
-0.0001928302
-0.0001853668
-8.886893e-05
-4.024887e-05
-6.341614e-06
-3.731834e-05
0.000275967
-0.0004196177
-0.0004907017
-0.0002350968
-0.0002104541
-0.0001328937
-8.768825e-05
-0.0002208376
-0.0001060426
0.0004368663
-0.0003432331
-0.0005318207
-0.0002109331
-0.0002152062
-0.0001008361
1.574977e-05
-2.207532e-05
-0.0004706961
0.0003824842
-0.0004803264
-0.0005888072
-0.0002646699
-0.000260122
-0.0002448915
-0.0002151442
-0.0008998321
-0.0001350448
-0.0006685982
0.00217614
-0.0004786032
-0.000640536
-0.0002658747
-0.0002516938
-0.0002053427
3.159918e-05
-0.0003897613
0.0001679066
0.0002240907
-0.0005203494
-0.0006562917
-0.0002650222
-0.0002271302
-0.0001615267
0.0001161059
-0.0002315529
0.0006325493
-0.0003134668
-0.0005658557
-0.0007448934
-0.0003102218
-0.0003003895
-0.0002963353
-9.937837e-05
-0.0006795466
-0.0007662757
0.0002276065
-0.0005328378
-0.0007373489
-0.0002374924
-0.0001990684
-2.834828e-05
0.0004245797
0.0004266999
0.001533533
0.001357095
-0.0006371291
-0.0008341907
-0.0003129821
-0.0003371625
-0.000205902
2.076177e-05
-5.414036e-06
0.0005481436
0.0007507732
-0.0004785519
-0.000843364
-0.0002177027
-0.0002859215
-5.161308e-05
0.0002086996
0.0003314901
0.0009157964
0.0008634036
-0.0005910957
-0.0009299019
-0.0002939254
-0.0004148643
-0.0002151571
-0.0001207003
-6.962e-05
0.0001327303
0.0002234552
-0.0006438848
-0.0009498093
-0.0002803712
-0.000380536
-0.0001394722
-4.150416e-05
5.570483e-05
0.0002268548
0.0002626635
-0.0004503685
-0.001002096
-0.0002848574
-0.0004923349
-0.0002665799
-0.0002408532
-0.000169446
-0.0001183989
-8.939396e-05
-0.0006853954
-0.001013432
-0.0003225875
-0.0004255718
-0.0001813234
-0.0001314491
-3.570784e-05
-1.374546e-05
1.49425e-05
-0.0007674802
-0.001166075
-0.000455974
-0.0006216366
-0.0004333746
-0.0004122061
-0.0003009149
-0.0002834903
-0.0002065462
-0.0008039512
-0.001095874
-0.0004085287
-0.00044917
-0.0001986596
-0.000156919
-3.138132e-05
-0.0001311158
-6.357276e-05
-0.0008607536
-0.001414702
-0.0006486192
-0.0008780079
-0.0007928209
-0.0008165456
-0.0006160375
-0.0006568916
-0.0004317019
-4.897028e-05
-2.495061e-06
-0.0001171143
0.0001442976
-0.0004916392
4.699784e-05
-0.0003359772
-9.771944e-05
5.663218e-05
7.384755e-05
-0.0001130653
-8.362198e-05
3.916408e-05
-7.098457e-05
3.268881e-05
-0.0001310992
-4.317819e-05
0.0001223881
0.0002636583
7.901944e-05
1.382656e-05
5.648047e-05
-0.0002202651
-1.356212e-05
-0.0001571933
-6.148327e-05
0.0002695441
0.0003055038
0.0001260875
8.232746e-05
6.188339e-05
6.863977e-07
1.788634e-05
-3.894781e-05
-1.241926e-05
0.0001625888
0.0003549818
0.0001390339
0.0001104849
6.745802e-05
-3.399413e-05
-1.747211e-06
-5.005854e-05
-2.76956e-05
0.0003014139
0.0003800694
0.0001905461
0.0001494732
9.515039e-05
3.398914e-05
1.969777e-05
3.684338e-06
-2.99813e-07
0.0002930793
0.0003592482
0.000202685
0.000150114
0.0001007821
3.627059e-05
3.535806e-05
3.535025e-05
-9.590465e-06
0.0003825623
0.0004091719
0.0002222322
0.000162247
9.001274e-05
2.883261e-05
1.508268e-05
4.242265e-05
-0.0001023326
0.0004492935
0.0004575107
0.000221451
0.0001764785
9.073973e-05
5.642511e-05
0.0001757889
0.0001105364
-0.0001983259
0.0003082615
0.0003596378
0.0002133746
0.0001303827
2.167616e-05
-8.368179e-05
-9.558556e-05
0.0003932148
0.0002881742
0.0005175836
0.0005702114
0.0002122815
0.000197239
0.0001037871
8.373884e-05
0.0005649603
-0.0002247557
-0.001217251
0.001900373
0.0004528046
0.0005378823
0.0001579094
0.0001326376
-4.742692e-05
-0.0002438664
-0.000140438
-0.0004483006
0.0003278068
0.0005254048
0.000651887
0.0001627308
0.0001763497
-3.013323e-05
-0.000171541
-0.0002197201
-0.0006435228
-0.0001284639
0.0004354078
0.0005572014
0.000109566
9.67e-05
-0.0001755258
-0.0003705404
-0.0005473522
-0.001055939
-0.000976164
0.0006183368
0.0006950748
0.0001769637
0.00017878
-7.895917e-05
-0.0001390985
-0.0004958575
-4.285732e-05
-0.00203968
0.000645574
0.0006198475
0.0001646127
6.502721e-05
-0.0002094497
-0.0005234838
-0.0009211529
-0.00154922
-0.001569233
0.0003867756
0.0004222066
0.0002535095
0.0001212974
8.930013e-06
-0.0001416163
-0.0003331815
-0.0002832305
-0.0004206899
0.0006058267
0.00052973
0.0002652399
9.971068e-05
-5.415166e-05
-0.000267028
-0.0004781259
-0.0007304378
-0.0008125169
0.0007157545
0.0006817065
0.0003306619
0.0002282274
0.0001077651
-1.884389e-05
-0.0001116082
-0.0001808381
-0.0002472919
0.000403478
0.0004772871
0.0003304932
0.0001723631
6.655421e-05
-7.402779e-05
-0.0001713922
-0.0002736918
-0.0003290059
0.000877613
0.0009186707
0.000406453
0.0003841411
0.000213138
0.0001250408
6.27835e-05
5.894776e-06
-9.007431e-06
0.0008277219
0.0009128655
0.000338809
0.0003778089
0.0001375917
0.0001048646
1.996142e-05
-1.106792e-05
-3.044037e-05
0.0009986838
0.001169585
0.0004193479
0.0005902715
0.0002938964
0.0002940118
0.0002336153
0.0002268963
0.0002402909
0.001023359
0.001080594
0.0004342042
0.0006668533
0.0003525735
0.0004910987
0.0003831139
0.000417053
0.0003362635
0.0001478681
0.0006597325
0.0005523792
7.728123e-07
-0.0004021504
2.274276e-05
1.527936e-05
-1.568447e-05
6.319702e-05
8.381716e-05
-9.873238e-05
0.0002161186
0.000541188
0.0004093096
0.0002892895
0.0001312248
0.0001431152
-0.0003164827
0.0001354931
-3.321075e-05
6.15544e-05
-5.363419e-05
-0.0001814476
-2.705168e-05
-6.716371e-05
-3.08125e-05
-0.0005140865
-4.414993e-05
-5.668252e-05
5.807192e-05
0.0001220975
7.843599e-05
0.0001012106
6.283842e-05
6.038957e-05
-0.0006597486
-0.0001792386
-0.0001026895
-1.716751e-05
7.740789e-06
-3.740788e-05
8.518392e-08
1.482086e-05
-2.886156e-05
-0.0004490783
-0.0001845435
-3.32818e-05
2.23059e-05
6.701906e-05
7.159956e-05
5.886926e-05
0.0001353913
-2.936804e-05
-0.0004578495
-0.0002470514
-5.134369e-05
-4.051464e-06
3.808674e-05
6.129452e-05
4.12589e-05
0.0002641828
-9.685069e-05
-0.0004192248
-0.0002366621
-1.705255e-05
1.260251e-05
5.484672e-05
0.000122598
4.320125e-05
0.0003765794
-0.0005379523
-0.0007207342
-0.0002365869
-0.0001112377
3.117887e-05
5.135238e-05
0.0001517939
0.000229854
0.0002729481
-0.0008866455
9.21017e-05
-0.0002969292
1.580773e-05
3.970436e-06
2.829798e-05
0.0001254553
-0.0001288928
0.001020765
0.0002438399
-0.0009197294
-0.0002681307
-0.000129599
0.0001154928
0.0002018997
0.0007981102
0.001195242
0.00254267
0.003765823
-0.01514346
-0.001032536
-0.0003721345
-0.0001731357
1.753821e-05
5.76747e-05
0.0002080466
0.0003351718
0.0005988574
0.000797594
-0.001310022
-0.0003304097
-0.0002509548
5.387542e-05
0.000133948
0.0003292015
0.000536813
0.0005693849
0.0004851625
-0.001368657
-0.0005030941
-0.0002652237
2.081468e-05
0.0001557235
0.0004475796
0.0005098272
0.001467587
0.0003104096
-0.001233669
-0.0005066263
-0.0002366822
-2.484878e-05
0.0001987304
0.0002410301
0.0007289643
0.0006657747
0.002952583
-0.001653639
-0.0005134521
-0.0003150106
-4.750237e-05
0.0001427254
0.0003306903
0.0006691017
0.001298982
0.001917067
-0.0005889077
-0.0007735805
-0.0001262204
-0.0001522076
0.0001138708
9.220482e-05
0.0003729773
0.0003157222
0.0008000812
-0.001237433
-0.0008120745
-0.0002466841
-0.000222081
1.385117e-05
1.973909e-05
0.0002150495
0.0003550275
0.0005709935
-0.001825256
-0.0009115856
-0.0003266308
-0.0002189304
1.304762e-05
-2.120019e-05
0.0001292153
8.534734e-05
0.0002466
-0.0001224985
-0.001071818
-0.0001997727
-0.0003850626
-0.0001516482
-0.0002208468
-7.781772e-05
-5.431685e-05
8.902813e-05
-0.002007043
-0.00099416
-0.0004346652
-0.0002055159
2.231641e-05
-2.03664e-05
0.0001157623
6.855595e-06
0.0001233875
-0.002544491
-0.001361121
-0.000793912
-0.0005868978
-0.0006053414
-0.0005849486
-0.0004382531
-0.0004132813
-0.0001932368
-0.003214465
-0.001169876
-0.0007047181
-3.696938e-05
0.0002484496
0.0001583673
0.0004438803
6.519954e-06
0.0003254168
-0.003169318
-0.001981877
-0.001357218
-0.0009567534
-0.001670869
-0.001528407
-0.001239893
-0.00116643
-0.0004511679
-0.0001032439
0.000829168
-0.0007256172
0.001598394
-0.001878239
0.001037332
-0.0004117634
-5.843133e-05
2.1461e-05
9.972258e-06
-0.000898749
-0.0008903773
-0.0005900175
-0.0004030761
-0.0001267898
-0.0002767112
-0.0001375008
-0.001098465
0.0009680675
-3.432007e-05
-2.640161e-05
2.354006e-05
-0.0006863949
-4.771879e-05
-0.0002885229
-0.0001334252
0.001018615
0.001091551
0.0001691418
0.0001088562
1.977522e-05
1.520906e-05
-1.177184e-05
-4.384274e-05
-3.118007e-05
3.691972e-05
0.001176519
0.0002003828
0.0001905245
6.514589e-05
-7.180364e-05
-5.248134e-07
-3.298612e-05
-5.241778e-05
-1.197832e-05
0.001103967
0.0003406168
0.00025691
0.0001121344
8.151391e-05
3.744453e-05
8.691796e-05
-6.739784e-05
-6.039481e-05
0.0008461951
0.0004047191
0.0002324451
0.0001203646
8.351814e-05
3.602526e-05
0.0002135236
-9.863948e-05
0.000466893
0.001156654
0.0004314831
0.0002854302
0.0001343929
0.0001456272
3.670451e-06
0.0003188435
-0.0004815152
0.000594816
0.00130116
0.0003395894
0.0003425396
0.0001498164
0.0001838956
5.470391e-05
0.0002644138
-0.0007421836
-0.0005542877
0.0005892905
0.0005230317
0.0002501662
0.0001302148
0.0001251684
-0.0003338402
0.0001593033
0.0002454455
0.0005175132
0.001804274
0.000238372
0.0005010547
0.0003104994
0.0006713831
0.001048723
0.002481766
-0.002419239
0.007764604
0.0002513736
0.001763533
0.0001268099
0.000396704
0.0001347995
8.259826e-05
0.0001572081
-0.000745553
0.001155379
8.883166e-05
0.002109105
-5.492934e-06
0.0004594848
0.0001336517
7.057812e-05
0.000186719
-0.001547092
0.0009788388
-0.0001710333
0.001754362
2.637447e-05
0.0004017943
0.0001294301
0.0001365477
-5.089074e-05
-0.0009722022
0.001596543
0.0005581986
0.002334676
-2.968791e-05
0.000382733
2.540221e-05
-0.000301957
-0.0006555928
-0.002509279
-0.001939918
0.0008419299
0.002096598
9.364732e-05
0.0003615795
4.653365e-05
-0.0001298481
-0.0004707651
-0.001594799
-0.002302915
-0.001283834
0.0004361993
0.0004865199
0.0001268075
9.946366e-05
-0.0001714263
-0.00022502
-0.0009995677
-0.001156041
2.414669e-05
0.001202429
0.0004009969
0.0001920881
7.415127e-05
-7.534045e-05
-8.865028e-05
-0.0003200916
-0.0003762974
0.0006621556
0.001763545
0.0002808991
0.0002979516
0.0001056226
-2.220264e-05
1.536515e-07
-0.0002077632
-0.0001229545
-0.002188727
0.0001276888
0.0006835246
3.771415e-05
2.313488e-05
-0.000114727
-7.225465e-05
-0.0001455302
-7.945989e-05
0.0002248194
0.00210884
0.0002431143
0.000454345
0.000154691
9.816315e-05
0.0001270836
-5.936728e-06
5.968578e-05
-1.330619e-05
0.002236524
-0.0001155564
0.0003093422
-0.0002485489
-0.0001381384
-0.0001536113
-0.000155627
-8.516746e-05
-0.0002306914
0.002931517
-0.0002116347
0.0008534967
0.0002828123
0.0003555964
0.0004366344
0.000247911
0.0003269937
0.0008470279
0.00248566
-0.0002695155
0.0007207737
-0.0002891103
0.0003552684
0.0002308631
0.0002409369
0.0001494176
-0.0002906799
0.002957715
0.005136072
0.006665406
0.0001803448
-0.0007645148
9.030842e-05
-0.0005217404
0.0001834263
1.163634e-05
0.0001405109
-0.0001302001
-0.0003393811
-0.0003489961
0.0001731146
3.509816e-05
0.0001604037
-0.003285642
-0.0001262703
3.035454e-05
-0.0001361593
0.0001140528
-0.0001529669
-1.019874e-05
-0.0001823724
-0.0001437189
-0.00505901
7.809562e-05
0.0003744228
3.502957e-05
9.155893e-05
5.417017e-06
8.97727e-05
5.444947e-05
8.610023e-05
-0.006990942
-0.0001581927
0.0002274032
-1.978929e-05
0.0001198402
-1.198248e-05
4.083524e-05
2.812779e-05
5.77178e-07
-0.009387599
-2.486674e-05
0.0003632717
6.013159e-05
0.0001475094
8.025844e-05
8.069328e-05
0.0001831731
2.023487e-05
-0.01058089
-0.0002849751
0.0004352818
3.093493e-05
0.0001538468
0.0001062241
3.529262e-05
0.0003250792
-4.35957e-05
-0.01078217
-0.0003024752
0.0004063205
4.528089e-05
0.0001469149
0.0002094151
-5.426451e-05
0.0007229446
-0.0003935356
-0.01083459
1.131451e-05
0.0002783487
0.0001252149
0.0001491306
0.0003003444
-0.000147904
0.0008597147
-0.0008564774
-0.006833499
-0.0005452083
0.0003549594
4.326229e-05
0.0001415435
0.0004150506
-0.0003776404
0.001204003
-5.198186e-05
-0.01488387
3.796672e-05
0.000323264
0.0002743252
0.0003467508
0.001166498
0.0009151581
0.008770455
0.001244193
-0.004590851
-0.01763847
-0.0001352642
0.0003055613
0.0001542111
0.0002642863
0.0004830493
0.0008080197
0.002322298
0.002576804
-0.01732204
0.0003542815
0.0001776665
0.0002072621
0.000219897
0.0004930899
0.0008737899
0.002447513
0.001185158
-0.02029469
-0.000129811
0.0002870297
0.0001641156
0.000343409
0.0006895247
0.00174823
0.005258469
0.0003945207
-0.01533756
-0.0004090564
0.0001624903
2.152473e-06
0.0002754018
-0.0001241873
0.001752187
0.00206827
0.01173576
-0.01497668
0.0005592485
0.0002603439
0.0001583514
0.0003043692
0.0004193747
0.001447993
0.004207385
0.00828416
-0.01726988
-0.001648054
0.0006282266
-0.0002047714
0.0002407142
-0.0001029334
0.0003590873
0.0005235489
0.002045485
-0.01885191
-0.001214424
0.0005718782
-0.0001488118
0.000221041
2.290569e-05
0.0001775413
0.000389628
0.0007031873
-0.02101557
-0.0009054569
0.0005842328
-8.845744e-05
0.0002384696
-3.169551e-05
6.200775e-05
-0.0001573314
-9.109428e-06
-0.007212785
-0.002148124
0.000552939
-0.0003056686
0.0001423633
-6.546813e-05
3.162975e-05
-4.21729e-06
7.855253e-05
-0.01777366
-0.0008564261
0.0005170918
6.922952e-05
0.0003854217
0.000149882
0.0002388128
3.518247e-05
9.034311e-05
-0.02319366
-0.001134296
0.0001636407
-0.000149893
-0.0002874906
-0.0002634371
-0.0001949676
-0.0001140735
-3.408252e-07
-0.02308001
-0.0003064995
0.0001260577
0.0006401764
0.001202149
0.0008016258
0.001074985
0.0003488996
0.0006074486
0.007818818
-0.001424924
-0.0007015594
-3.486443e-05
-0.002863287
-0.00238602
-0.001879963
-0.0008365802
-0.0001398253
0.002029514
0.007222857
0.01019554
0.001249337
0.009764374
0.01330771
0.01564998
0.01576488
-0.002297968
-6.844486e-05
-0.0001806243
-0.0003898713
-0.0008045037
-0.000969148
-0.0007039518
-0.0005972997
-0.0004025573
-0.009082509
7.523336e-05
-0.0001014252
-0.0005893256
-0.0005492036
-3.196265e-05
-0.0005469155
-0.0002774433
-0.000330181
-0.01226892
0.0003425024
0.0005494458
-0.0001019421
5.355259e-05
-3.833075e-05
7.014908e-05
9.182562e-05
0.00011991
-0.009779381
-0.0001053325
0.0003655965
-0.0002660007
-4.307432e-05
-5.326366e-06
-3.832896e-05
5.001473e-05
1.253151e-05
-0.01681609
0.000180805
0.0004649494
-0.0002083002
2.694695e-05
2.651205e-05
4.960816e-05
0.0001822449
5.822705e-05
-0.02101834
0.0003073101
0.000447938
-0.0002331596
-4.36086e-06
4.399389e-05
-3.511972e-05
0.0002442315
-8.954262e-05
-0.01244807
-7.772253e-05
0.0004347429
-0.0002482032
1.827802e-05
0.0001831664
-8.313369e-05
0.0004340469
-0.0005012187
-0.01541768
-0.000305771
0.0002797916
-0.0002259152
-1.914862e-06
0.0003007086
-0.0001577759
5.748736e-05
0.001261671
-0.01032989
0.0003813467
0.0003448778
-0.0001818372
7.502634e-05
0.0005894026
-0.0006030252
-0.0008933322
0.0003279602
-0.01210522
-0.0006341529
0.000402993
-0.0001941418
0.0001140192
0.001050174
-0.001365511
-0.0002999249
0.01394917
-0.01381013
-0.01323401
-0.0009163626
0.0004895168
-0.0002773692
0.0001668863
0.0006478595
-0.0009207397
-0.003950908
0.01062581
-0.01299667
-0.0009444812
0.0004161806
-0.0002987113
0.0002020249
0.0006873006
-0.000949132
-0.003517445
0.006684991
-0.01522682
-0.001122255
0.0005325269
-0.0002716396
0.0004071542
0.000979767
-0.001167653
-0.006774049
0.01199117
-0.01239094
-0.001753411
0.0005147494
-0.0004677614
0.0005460812
0.0003223327
-0.0003883111
-0.009966655
-0.008411976
-0.01441403
-0.0006866394
0.0004706601
-0.0002891986
0.0004823716
0.0008982843
0.0007474059
-0.002578374
-0.008725187
-0.02599941
-0.0005751113
0.000653429
-0.0004775035
0.0002741714
0.0002739434
0.0006565992
-0.0007528857
-0.00231054
-0.02316501
-0.0007339262
0.0005748712
-0.0005871552
0.0001390666
0.0002110409
0.0006343882
0.001057876
0.001328489
-0.005835629
-0.001433385
0.0006892186
-0.0006846427
6.86143e-05
-2.380677e-05
0.0002769954
0.0003115484
0.0005996324
-0.0009361219
0.0001089078
0.0005019035
-0.0007742778
-0.0001470564
-0.0002340578
2.898382e-05
0.0001283165
0.0003556125
0.002425647
-0.001194848
0.0006721864
-0.0007680918
0.0001253472
-7.77956e-05
0.0001776552
-1.243313e-05
0.0001438355
0.004064431
-0.001922662
0.0003995921
-0.00134914
-0.0009785687
-0.001061031
-0.0007284058
-0.0006179556
-0.0002423029
0.005274859
-0.001940045
0.0006458639
-0.0005602767
0.001048986
0.0002673048
0.0009294935
-0.0002034257
0.0004678476
0.01509826
-0.002482793
-0.00066789
-0.002409809
-0.004281826
-0.004019042
-0.003296219
-0.002842773
-0.001079293
0.0001305689
0.0006455546
-0.0007216543
2.703636e-05
0.0003092093
0.001858074
-0.002083103
0.005225708
0.0002347774
0.0009894307
0.0006152196
0.002171666
-0.007340567
0.006677066
-0.00241636
0.001260057
0.0005424489
0.003003926
-0.0085961
0.00808829
-0.002206472
0.002209194
-0.0001586516
0.003413528
-0.01078679
0.00865917
-0.002658643
0.002594006
-0.0005217535
0.003580018
-0.01225344
0.0100763
-0.003487092
0.003246359
-0.001085233
0.003665654
-0.01386555
0.0112414
-0.003655027
0.003995855
-0.001825631
0.003775806
-0.01480368
0.01214684
-0.003243783
0.004328911
-0.00222016
0.003829063
-0.01566235
0.01281334
-0.003440573
0.004654237
-0.01633962
-7.094428e-05
-0.001766904
0.002071364
-0.0001938901
-0.005637662
-0.000716862
-0.0005072371
-0.00262066
0.006634003
0.002519664
-0.008470655
-0.001019535
-0.0004060974
-0.003524546
0.007967242
0.002913675
-0.01169153
-0.001980077
-0.0004591504
-0.004036959
0.009510231
0.003628004
-0.01355941
-0.002396131
-0.0003624592
-0.004529342
0.01077981
0.00405159
-0.01552431
-0.0029634
-0.0002928467
-0.004995963
0.01164208
0.004734414
-0.0162623
-0.003012745
0.0005074686
-0.005368788
0.0131234
0.005586457
-0.01740681
-0.003529516
0.001081903
-0.005640963
0.01423141