/*--------------------------------*- C++ -*----------------------------------*\
  =========                 |
  \\      /  F ield         | OpenFOAM: The Open Source CFD Toolbox
   \\    /   O peration     | Website:  https://openfoam.org
    \\  /    A nd           | Version:  7
     \\/     M anipulation  |
\*---------------------------------------------------------------------------*/
FoamFile
{
    version     2.0;
    format      ascii;
    class       volScalarField;
    location    "0.05";
    object      epsilon;
}
// * * * * * * * * * * * * * * * * * * * * * * * * * * * * * * * * * * * * * //

dimensions      [0 2 -3 0 0 0 0];

internalField   nonuniform List<scalar> 
86107
(
0.0009371911
0.0009579479
0.0009648771
0.0009666259
0.0009671738
0.0009673768
0.0009674209
0.0009674011
0.0009579778
0.000999031
0.001012075
0.001015637
0.001016707
0.001017044
0.00101711
0.001017107
0.0009649274
0.001012105
0.001028626
0.001033338
0.001034776
0.001035195
0.001035232
0.001035181
0.0009667233
0.00101574
0.001033428
0.00103869
0.00104031
0.001040722
0.001040645
0.001040456
0.0009673553
0.001016944
0.001035032
0.001040487
0.00104211
0.00104234
0.001041921
0.001041333
0.0009676944
0.00101748
0.001035685
0.001041127
0.001042477
0.001042004
0.001040432
0.001038529
0.0009679313
0.001017777
0.001035964
0.001041221
0.001041863
0.001038631
0.00103257
0.00102648
0.0009681281
0.001017974
0.001036061
0.001040973
0.001040442
0.001032688
0.00100567
0.0009946886
0.0009683113
0.001018136
0.001036094
0.001040595
0.001038722
0.001026718
0.0009939998
0.002138461
0.0009684895
0.00101829
0.001036132
0.001040282
0.001037276
0.001021138
0.0009695224
0.002027243
0.00839765
0.000968673
0.00101847
0.001036246
0.00104022
0.001036673
0.001018637
0.0009648353
0.00201305
0.0009688719
0.001018691
0.001036474
0.001040468
0.001036999
0.001019238
0.0009659931
0.00201791
0.0009690914
0.001018963
0.00103683
0.00104105
0.001038357
0.001023573
0.0009778706
0.002032927
0.0009693344
0.001019284
0.001037291
0.001041887
0.001040383
0.001029826
0.001003228
0.002126997
0.0009695968
0.001019633
0.001037795
0.001042798
0.00104253
0.001035728
0.001012009
0.001006399
0.000969878
0.001019996
0.001038295
0.001043629
0.001044414
0.001041581
0.001036492
0.001031826
0.0009701732
0.001020364
0.001038761
0.001044306
0.001045739
0.001045412
0.001044122
0.001042684
0.0009704823
0.001020731
0.00103919
0.001044844
0.00104656
0.001046846
0.00104651
0.001046086
0.0009708073
0.001021099
0.00103959
0.00104529
0.001047097
0.001047551
0.001047475
0.001047345
0.0009711452
0.001021462
0.001039956
0.001045658
0.001047482
0.001047975
0.001047967
0.001047911
0.0009714938
0.00102181
0.001040273
0.001045938
0.00104773
0.001048205
0.001048192
0.001048143
0.0009718386
0.001022113
0.001040496
0.001046067
0.001047774
0.00104818
0.001048124
0.001048051
0.000972163
0.001022348
0.001040579
0.001045975
0.001047513
0.001047781
0.001047628
0.001047512
0.002031926
0.002059883
0.00207557
0.002079569
0.002080874
0.002081714
0.002082319
0.002082689
0.0020317
0.01138636
0.01138571
0.01138554
0.0113857
0.01138579
0.01138599
0.01138621
0.01138641
0.002059777
0.01138651
0.01138672
0.01138617
0.01138621
0.01138627
0.01138641
0.01138656
0.01138673
0.002075516
0.01138666
0.01138688
0.01138702
0.01138705
0.01138706
0.01138715
0.01138723
0.01138731
0.002079623
0.01138681
0.01138704
0.01138719
0.01138733
0.01138735
0.01138746
0.01138756
0.01138766
0.0020811
0.01138696
0.01138721
0.01138737
0.01138754
0.01138772
0.01138787
0.01138805
0.01138818
0.002082263
0.01138712
0.01138738
0.01138756
0.01138777
0.011388
0.01138822
0.01138857
0.01138888
0.00208337
0.01138728
0.01138754
0.01138774
0.01138798
0.01138829
0.01138862
0.01138931
0.0113899
0.002084458
0.01138742
0.01138768
0.0113879
0.01138816
0.01138854
0.01138882
0.01138976
0.01139264
0.002085536
0.01138755
0.01138781
0.01138801
0.01138826
0.01138866
0.01138815
0.011387
0.01140545
0.002086616
0.01138766
0.0113879
0.01138804
0.01138819
0.01138838
0.01138692
0.01138541
0.01141224
0.006906349
0.002087696
0.01138779
0.01138801
0.01138809
0.01138814
0.01138797
0.01138624
0.0113828
0.0112921
0.002088783
0.01138795
0.01138817
0.01138824
0.01138827
0.01138817
0.01138625
0.01138383
0.01131973
0.002089907
0.01138817
0.0113884
0.0113885
0.01138859
0.01138836
0.01138606
0.01138114
0.01139538
0.0020911
0.01138841
0.01138868
0.01138883
0.01138899
0.0113892
0.01138509
0.0113833
0.01139588
0.002092386
0.01138869
0.01138899
0.01138916
0.01138937
0.01138961
0.01138793
0.01138349
0.0113831
0.002093773
0.011389
0.01138932
0.01138951
0.01138974
0.0113899
0.0113888
0.01138811
0.01138482
0.00209526
0.01138933
0.01138966
0.01138986
0.01139008
0.01139031
0.01139045
0.01139056
0.01139078
0.002096858
0.01138969
0.01139004
0.01139022
0.01139043
0.01139063
0.01139071
0.01139088
0.01139093
0.002098571
0.01139009
0.01139045
0.01139062
0.01139079
0.01139093
0.01139106
0.0113912
0.01139138
0.002100412
0.01139056
0.01139092
0.01139106
0.0113912
0.01139126
0.0113913
0.01139134
0.01139145
0.002102393
0.01139111
0.01139148
0.01139159
0.01139166
0.01139162
0.01139154
0.01139149
0.01139152
0.002104529
0.0113918
0.01139219
0.01139227
0.01139228
0.01139211
0.01139183
0.01139161
0.01139154
0.002107665
0.01139267
0.0113931
0.01139319
0.01139312
0.01139274
0.0113922
0.01139173
0.01139151
0.002049267
0.000976112
0.0009917549
0.0009976624
0.0009991396
0.0009995784
0.0009997413
0.0009998177
0.002048745
0.01138847
0.01137383
0.0113749
0.01137498
0.01137604
0.01137727
0.01137894
0.01138093
0.0009760047
0.01138645
0.01138873
0.01138889
0.011389
0.01138911
0.01138919
0.01138924
0.01138926
0.0009917278
0.01138662
0.01138892
0.01138905
0.01138918
0.0113893
0.0113894
0.01138946
0.01138949
0.0009976678
0.01138677
0.01138907
0.01138923
0.01138937
0.01138952
0.01138964
0.01138974
0.0113898
0.000999219
0.01138693
0.01138924
0.01138941
0.01138959
0.01138976
0.01138994
0.01139011
0.01139024
0.0009997739
0.01138709
0.01138941
0.0113896
0.01138981
0.01139005
0.01139031
0.01139062
0.01139093
0.001000095
0.01138724
0.01138958
0.01138979
0.01139003
0.01139033
0.01139073
0.01139137
0.01139196
0.001000337
0.01138738
0.01138972
0.01138994
0.01139021
0.01139059
0.01139121
0.01139249
0.01139473
0.001000549
0.01138752
0.01138984
0.01139005
0.0113903
0.0113907
0.0113914
0.01139354
0.01140524
0.001000754
0.01138763
0.01138993
0.01139008
0.01139023
0.01139042
0.01139088
0.01139292
0.01141144
0.006911006
0.001000961
0.01138776
0.01139004
0.01139013
0.01139018
0.01139016
0.01139018
0.01139053
0.01129069
0.001001182
0.01138793
0.0113902
0.01139028
0.01139031
0.01139026
0.01139021
0.01139057
0.01132063
0.001001421
0.01138814
0.01139043
0.01139053
0.01139063
0.01139069
0.01139097
0.01139206
0.01139442
0.001001675
0.01138839
0.01139071
0.01139086
0.01139102
0.01139124
0.0113916
0.01139258
0.01139552
0.001001944
0.01138866
0.01139101
0.0113912
0.0113914
0.01139164
0.01139202
0.01139267
0.01139343
0.001002227
0.01138897
0.01139134
0.01139155
0.01139178
0.01139204
0.0113924
0.01139293
0.01139357
0.001002527
0.0113893
0.01139169
0.0113919
0.01139213
0.01139236
0.01139264
0.01139299
0.01139335
0.001002842
0.01138967
0.01139206
0.01139227
0.01139248
0.01139268
0.01139289
0.01139313
0.0113934
0.001003176
0.01139008
0.01139247
0.01139267
0.01139284
0.01139299
0.01139312
0.01139328
0.01139347
0.001003528
0.01139054
0.01139294
0.01139311
0.01139324
0.01139331
0.01139336
0.01139342
0.01139353
0.001003894
0.0113911
0.0113935
0.01139364
0.01139371
0.01139367
0.01139359
0.01139354
0.01139357
0.00100427
0.01139179
0.0113942
0.01139433
0.01139433
0.01139416
0.01139388
0.01139365
0.01139358
0.001004657
0.01139266
0.01139511
0.01139524
0.01139516
0.01139478
0.01139424
0.01139377
0.01139354
0.002062573
0.0009909295
0.001018652
0.0010279
0.001030334
0.001031043
0.001031299
0.001031413
0.002062131
0.01138846
0.01137445
0.01137537
0.01137527
0.01137633
0.0113775
0.01137913
0.01138108
0.0009908097
0.01138648
0.01138872
0.01138888
0.011389
0.0113891
0.01138918
0.01138924
0.01138926
0.001018604
0.01138667
0.01138891
0.01138905
0.01138918
0.0113893
0.01138939
0.01138946
0.01138949
0.001027871
0.01138682
0.01138906
0.01138922
0.01138937
0.01138951
0.01138964
0.01138974
0.0113898
0.001030362
0.01138698
0.01138924
0.01138941
0.01138958
0.01138976
0.01138994
0.0113901
0.01139024
0.001031178
0.01138713
0.0113894
0.0113896
0.01138981
0.01139004
0.01139031
0.01139062
0.01139093
0.001031594
0.01138729
0.01138957
0.01138978
0.01139002
0.01139033
0.01139073
0.01139136
0.01139195
0.00103188
0.01138743
0.01138971
0.01138993
0.0113902
0.01139058
0.0113912
0.01139246
0.01139472
0.001032116
0.01138756
0.01138984
0.01139005
0.0113903
0.0113907
0.01139139
0.01139351
0.01140509
0.001032338
0.01138768
0.01138993
0.01139008
0.01139022
0.01139042
0.01139087
0.01139293
0.0114115
0.006913
0.001032563
0.01138781
0.01139003
0.01139013
0.01139018
0.01139016
0.01139018
0.01139052
0.01129101
0.001032806
0.01138797
0.01139019
0.01139028
0.01139031
0.01139026
0.0113902
0.01139058
0.01132028
0.001033069
0.01138818
0.01139042
0.01139053
0.01139063
0.0113907
0.01139094
0.0113922
0.01139524
0.001033349
0.01138843
0.0113907
0.01139086
0.01139103
0.01139124
0.01139168
0.0113924
0.01139542
0.001033644
0.01138871
0.01139101
0.0113912
0.01139142
0.01139168
0.01139207
0.01139273
0.01139372
0.001033952
0.01138902
0.01139133
0.01139155
0.01139178
0.01139204
0.01139238
0.0113928
0.01139339
0.001034276
0.01138935
0.01139168
0.0113919
0.01139213
0.01139237
0.01139264
0.01139297
0.01139334
0.001034618
0.01138971
0.01139205
0.01139227
0.01139248
0.01139267
0.01139289
0.01139313
0.01139339
0.001034978
0.01139012
0.01139246
0.01139266
0.01139284
0.01139298
0.01139312
0.01139328
0.01139346
0.001035354
0.01139059
0.01139292
0.01139311
0.01139324
0.01139331
0.01139335
0.01139342
0.01139353
0.001035741
0.01139115
0.01139348
0.01139364
0.01139371
0.01139367
0.01139359
0.01139354
0.01139357
0.001036135
0.01139184
0.01139418
0.01139432
0.01139433
0.01139416
0.01139387
0.01139365
0.01139358
0.001036539
0.01139271
0.01139509
0.01139524
0.01139517
0.01139478
0.01139424
0.01139377
0.01139354
0.002065316
0.0009962445
0.001027149
0.001038394
0.001041415
0.001042347
0.001042701
0.001042855
0.002064934
0.01138846
0.01137469
0.01137559
0.01137544
0.01137648
0.01137763
0.01137923
0.01138115
0.000996103
0.01138648
0.01138872
0.01138888
0.01138899
0.0113891
0.01138918
0.01138923
0.01138925
0.001027035
0.01138667
0.0113889
0.01138905
0.01138918
0.0113893
0.01138939
0.01138945
0.01138948
0.001038221
0.01138683
0.01138906
0.01138922
0.01138937
0.01138951
0.01138964
0.01138973
0.0113898
0.001041187
0.01138698
0.01138923
0.0113894
0.01138958
0.01138976
0.01138994
0.0113901
0.01139024
0.001042132
0.01138714
0.0113894
0.01138959
0.0113898
0.01139004
0.01139031
0.01139061
0.01139093
0.001042595
0.01138729
0.01138956
0.01138977
0.01139002
0.01139033
0.01139072
0.01139136
0.01139196
0.001042898
0.01138743
0.0113897
0.01138993
0.0113902
0.01139058
0.0113912
0.01139246
0.01139471
0.001043144
0.01138757
0.01138983
0.01139004
0.01139029
0.01139069
0.01139138
0.01139351
0.01140507
0.001043373
0.01138768
0.01138992
0.01139007
0.01139022
0.01139042
0.01139087
0.01139292
0.01141147
0.006914851
0.001043604
0.01138781
0.01139002
0.01139012
0.01139017
0.01139015
0.01139017
0.01139051
0.01129061
0.00104385
0.01138798
0.01139018
0.01139027
0.01139031
0.01139026
0.01139019
0.01139057
0.01131892
0.001044117
0.01138819
0.01139041
0.01139053
0.01139063
0.01139069
0.01139094
0.01139216
0.01139513
0.001044402
0.01138843
0.01139069
0.01139085
0.01139103
0.01139122
0.01139164
0.01139231
0.01139537
0.001044702
0.01138871
0.01139099
0.01139119
0.01139141
0.01139167
0.01139205
0.0113927
0.01139366
0.001045017
0.01138902
0.01139132
0.01139154
0.01139177
0.01139203
0.01139237
0.01139278
0.01139337
0.001045352
0.01138935
0.01139166
0.01139189
0.01139213
0.01139236
0.01139264
0.01139296
0.01139333
0.001045708
0.01138971
0.01139203
0.01139226
0.01139247
0.01139267
0.01139289
0.01139312
0.01139339
0.001046083
0.01139012
0.01139244
0.01139265
0.01139283
0.01139298
0.01139312
0.01139327
0.01139346
0.001046469
0.01139058
0.0113929
0.0113931
0.01139323
0.01139331
0.01139335
0.01139342
0.01139353
0.001046863
0.01139114
0.01139346
0.01139363
0.0113937
0.01139367
0.01139359
0.01139354
0.01139357
0.001047259
0.01139182
0.01139416
0.01139431
0.01139431
0.01139415
0.01139387
0.01139365
0.01139358
0.001047667
0.01139269
0.01139506
0.01139522
0.01139515
0.01139477
0.01139423
0.01139376
0.01139353
0.002065523
0.0009963017
0.0010274
0.001038998
0.001042515
0.00104395
0.001044635
0.001044915
0.002065159
0.01138846
0.01137473
0.01137559
0.01137542
0.01137643
0.01137762
0.0113792
0.01138114
0.0009960664
0.01138648
0.01138872
0.01138888
0.01138899
0.0113891
0.01138918
0.01138923
0.01138925
0.001026988
0.01138667
0.01138891
0.01138905
0.01138918
0.0113893
0.01138939
0.01138945
0.01138948
0.001038179
0.01138683
0.01138906
0.01138922
0.01138937
0.01138951
0.01138964
0.01138973
0.0113898
0.001041151
0.01138698
0.01138923
0.0113894
0.01138958
0.01138976
0.01138994
0.0113901
0.01139024
0.001042101
0.01138714
0.0113894
0.01138959
0.0113898
0.01139004
0.01139031
0.01139061
0.01139093
0.001042564
0.01138729
0.01138956
0.01138977
0.01139002
0.01139033
0.01139072
0.01139136
0.01139196
0.001042861
0.01138743
0.0113897
0.01138993
0.0113902
0.01139058
0.0113912
0.01139246
0.01139471
0.001043108
0.01138757
0.01138983
0.01139004
0.01139029
0.01139069
0.01139138
0.01139351
0.01140506
0.001043345
0.01138768
0.01138992
0.01139007
0.01139022
0.01139042
0.01139087
0.01139292
0.01141148
0.006915259
0.001043577
0.01138781
0.01139002
0.01139012
0.01139017
0.01139015
0.01139017
0.01139051
0.01129048
0.001043811
0.01138798
0.01139018
0.01139027
0.01139031
0.01139026
0.01139019
0.01139057
0.01131842
0.00104406
0.01138819
0.01139041
0.01139053
0.01139063
0.0113907
0.01139094
0.01139217
0.0113951
0.00104433
0.01138843
0.01139069
0.01139085
0.01139103
0.01139122
0.01139166
0.01139229
0.01139538
0.001044616
0.01138871
0.01139099
0.01139119
0.01139141
0.01139167
0.01139207
0.01139272
0.0113937
0.001044923
0.01138902
0.01139132
0.01139154
0.01139177
0.01139203
0.01139237
0.01139278
0.01139334
0.001045268
0.01138935
0.01139166
0.01139189
0.01139213
0.01139237
0.01139264
0.01139296
0.01139333
0.001045648
0.01138971
0.01139203
0.01139226
0.01139247
0.01139267
0.01139289
0.01139312
0.01139339
0.001046042
0.01139011
0.01139244
0.01139265
0.01139283
0.01139298
0.01139312
0.01139327
0.01139346
0.001046447
0.01139058
0.0113929
0.0113931
0.01139323
0.01139331
0.01139335
0.01139342
0.01139353
0.001046849
0.01139114
0.01139346
0.01139363
0.0113937
0.01139366
0.01139359
0.01139353
0.01139357
0.001047251
0.01139182
0.01139416
0.01139431
0.01139432
0.01139415
0.01139387
0.01139365
0.01139358
0.001047705
0.01139269
0.01139506
0.01139522
0.01139515
0.01139476
0.01139424
0.01139376
0.01139353
0.002064671
0.0009910584
0.001020054
0.001031238
0.001035687
0.001039396
0.001041691
0.001042223
0.002064157
0.01138846
0.01137447
0.01137551
0.01137575
0.01137666
0.01137786
0.01137924
0.01138118
0.0009906319
0.01138648
0.01138872
0.01138888
0.011389
0.0113891
0.01138918
0.01138924
0.01138926
0.00101839
0.01138667
0.01138891
0.01138905
0.01138918
0.0113893
0.01138939
0.01138946
0.01138949
0.001027693
0.01138682
0.01138906
0.01138922
0.01138937
0.01138951
0.01138964
0.01138974
0.0113898
0.001030206
0.01138698
0.01138923
0.01138941
0.01138958
0.01138976
0.01138994
0.0113901
0.01139024
0.001031047
0.01138713
0.0113894
0.0113896
0.01138981
0.01139004
0.01139031
0.01139062
0.01139093
0.001031469
0.01138729
0.01138957
0.01138978
0.01139002
0.01139033
0.01139073
0.01139136
0.01139195
0.001031711
0.01138743
0.01138971
0.01138993
0.0113902
0.01139058
0.0113912
0.01139246
0.01139471
0.001031944
0.01138756
0.01138984
0.01139004
0.0113903
0.0113907
0.01139139
0.01139351
0.01140507
0.001032225
0.01138768
0.01138992
0.01139007
0.01139022
0.01139042
0.01139087
0.01139293
0.01141151
0.006915487
0.001032464
0.01138781
0.01139003
0.01139013
0.01139018
0.01139016
0.01139019
0.01139053
0.01129085
0.001032643
0.01138797
0.01139019
0.01139028
0.01139031
0.01139027
0.01139021
0.01139059
0.01131912
0.00103282
0.01138818
0.01139042
0.01139053
0.01139064
0.01139071
0.01139096
0.0113922
0.01139525
0.001033043
0.01138843
0.0113907
0.01139086
0.01139103
0.01139123
0.01139169
0.01139234
0.01139537
0.00103327
0.01138871
0.011391
0.0113912
0.01139142
0.01139168
0.01139209
0.01139275
0.01139377
0.001033519
0.01138901
0.01139133
0.01139155
0.01139178
0.01139204
0.01139238
0.01139279
0.01139336
0.001033885
0.01138934
0.01139167
0.0113919
0.01139213
0.01139237
0.01139265
0.01139297
0.01139334
0.001034344
0.01138971
0.01139204
0.01139226
0.01139248
0.01139267
0.01139289
0.01139313
0.0113934
0.001034819
0.01139011
0.01139245
0.01139266
0.01139284
0.01139298
0.01139312
0.01139328
0.01139346
0.001035278
0.01139058
0.01139292
0.0113931
0.01139324
0.01139331
0.01139336
0.01139342
0.01139353
0.001035692
0.01139114
0.01139347
0.01139363
0.0113937
0.01139367
0.01139359
0.01139354
0.01139358
0.001036082
0.01139182
0.01139417
0.01139432
0.01139432
0.01139416
0.01139388
0.01139366
0.01139359
0.001036615
0.01139269
0.01139508
0.01139523
0.01139516
0.01139478
0.01139425
0.01139377
0.01139354
0.002055968
0.0009760338
0.0009930023
0.001010505
0.001008764
0.00102589
0.001029308
0.001030009
0.002055394
0.01138847
0.01137381
0.01137505
0.01137593
0.01137705
0.01137774
0.01137909
0.01138104
0.0009752127
0.01138645
0.01138873
0.01138889
0.011389
0.0113891
0.01138919
0.01138924
0.01138926
0.0009909863
0.01138662
0.01138892
0.01138905
0.01138919
0.0113893
0.0113894
0.01138946
0.01138949
0.0009972006
0.01138677
0.01138907
0.01138922
0.01138937
0.01138951
0.01138964
0.01138974
0.0113898
0.000998698
0.01138693
0.01138924
0.01138941
0.01138959
0.01138977
0.01138994
0.01139011
0.01139024
0.0009994105
0.01138709
0.01138941
0.0113896
0.01138981
0.01139005
0.01139031
0.01139062
0.01139093
0.0009997623
0.01138724
0.01138957
0.01138978
0.01139003
0.01139033
0.01139073
0.01139137
0.01139196
0.0009996921
0.01138738
0.01138972
0.01138993
0.0113902
0.01139059
0.01139121
0.01139249
0.01139472
0.0009998428
0.01138751
0.01138984
0.01139005
0.0113903
0.0113907
0.0113914
0.01139354
0.01140518
0.001000426
0.01138763
0.01138993
0.01139007
0.01139023
0.01139043
0.01139089
0.01139292
0.01141141
0.006915635
0.001000745
0.01138776
0.01139004
0.01139013
0.01139018
0.01139016
0.01139019
0.01139053
0.01129005
0.0010007
0.01138793
0.0113902
0.01139027
0.01139031
0.01139027
0.01139021
0.01139059
0.01131875
0.001000581
0.01138813
0.01139043
0.01139053
0.01139063
0.0113907
0.01139096
0.01139219
0.0113951
0.001000804
0.01138838
0.0113907
0.01139085
0.01139103
0.01139122
0.01139167
0.01139236
0.01139542
0.001000754
0.01138866
0.01139101
0.0113912
0.01139141
0.01139167
0.01139207
0.01139275
0.01139367
0.001000709
0.01138896
0.01139133
0.01139154
0.01139178
0.01139204
0.01139238
0.01139282
0.01139343
0.001001132
0.01138929
0.01139168
0.0113919
0.01139213
0.01139237
0.01139265
0.01139298
0.01139336
0.0010019
0.01138966
0.01139205
0.01139227
0.01139248
0.01139268
0.01139289
0.01139313
0.0113934
0.001002692
0.01139006
0.01139245
0.01139266
0.01139283
0.01139298
0.01139312
0.01139328
0.01139346
0.001003354
0.01139053
0.01139293
0.01139311
0.01139324
0.01139331
0.01139336
0.01139342
0.01139353
0.001003783
0.01139108
0.01139349
0.01139363
0.01139369
0.01139366
0.01139358
0.01139353
0.01139357
0.001004081
0.01139177
0.01139419
0.01139434
0.01139434
0.01139416
0.01139389
0.01139365
0.01139359
0.001004516
0.0113926
0.0113951
0.01139524
0.01139511
0.01139473
0.01139425
0.01139377
0.01139354
0.002040762
0.002089349
0.002157983
0.002180163
0.0009923813
0.0009961828
0.0009980082
0.0009983729
0.002040595
0.01138633
0.01138572
0.0113857
0.01138555
0.01137318
0.01137522
0.01137592
0.01137829
0.002086087
0.01138652
0.01138671
0.01138627
0.01138633
0.01138646
0.01138641
0.01138661
0.01138673
0.002153571
0.01138666
0.01138688
0.01138702
0.01138705
0.01138705
0.01138716
0.01138723
0.01138732
0.002166771
0.0113868
0.01138704
0.01138719
0.01138733
0.01138738
0.01138747
0.01138757
0.01138766
0.002169216
0.01138696
0.01138721
0.01138737
0.01138754
0.01138772
0.01138788
0.01138805
0.01138819
0.002171195
0.01138713
0.01138737
0.01138756
0.01138776
0.011388
0.01138822
0.01138857
0.01138888
0.002172695
0.01138727
0.01138753
0.01138774
0.01138798
0.01138828
0.01138862
0.0113893
0.01138989
0.002171139
0.01138742
0.01138768
0.01138789
0.01138816
0.01138854
0.01138881
0.01138975
0.01139263
0.002167489
0.01138756
0.0113878
0.01138801
0.01138826
0.01138865
0.01138814
0.01138696
0.01140506
0.002174946
0.01138765
0.01138789
0.01138804
0.01138819
0.01138838
0.01138681
0.01138502
0.01141164
0.006916593
0.002177861
0.01138778
0.01138801
0.01138809
0.01138814
0.01138796
0.01138623
0.01138261
0.01129294
0.002178066
0.01138795
0.01138817
0.01138824
0.01138828
0.01138799
0.01138617
0.0113831
0.01132085
0.00217513
0.01138817
0.0113884
0.0113885
0.0113886
0.01138847
0.01138644
0.01138115
0.01139641
0.002179427
0.01138838
0.01138869
0.01138882
0.011389
0.01138868
0.01138768
0.01138006
0.01138252
0.002180607
0.01138871
0.01138898
0.01138916
0.01138938
0.01138952
0.01138921
0.01138721
0.01138397
0.002177433
0.01138906
0.01138929
0.01138951
0.01138973
0.01138987
0.01138986
0.01138897
0.01138846
0.002173587
0.01138933
0.01138965
0.01138986
0.01139008
0.01139032
0.01139052
0.0113906
0.01139092
0.002181291
0.0113897
0.01139002
0.01139022
0.01139043
0.01139063
0.01139079
0.01139085
0.01139114
0.002186961
0.01139016
0.01139041
0.01139062
0.01139079
0.01139093
0.01139107
0.01139114
0.01139139
0.002191701
0.01139054
0.0113909
0.01139106
0.01139119
0.01139126
0.01139131
0.01139135
0.01139149
0.00219428
0.01139107
0.01139146
0.01139158
0.01139165
0.01139149
0.01139145
0.01139137
0.01139153
0.002195822
0.01139176
0.01139215
0.01139227
0.01139228
0.01139211
0.01139185
0.01139163
0.01139155
0.002104412
0.01139262
0.01139306
0.01139321
0.01139257
0.01139226
0.01139202
0.0113916
0.01139153
0.004472988
0.004646637
0.004649563
0.002078093
0.002107965
0.00218269
0.002199877
0.002178588
0.004529917
0.0009382084
0.0009587329
0.0009672063
0.0009709782
0.000973965
0.0009739694
0.000974063
0.0009742483
0.004544211
0.0009596834
0.0009997086
0.001012911
0.001017078
0.001018623
0.001019055
0.001019106
0.001019093
0.004499424
0.0009665045
0.00101262
0.001029028
0.001033846
0.001035391
0.001035842
0.001035872
0.0010358
0.004664636
0.0009676579
0.001016105
0.001033657
0.001038914
0.001040553
0.001040971
0.001040886
0.001040684
0.004652456
0.0009685383
0.001017288
0.001035192
0.001040608
0.001042223
0.00104245
0.001042024
0.001041427
0.004607949
0.0009686592
0.001017746
0.001035798
0.001041199
0.001042536
0.001042058
0.001040482
0.001038574
0.004691429
0.0009683277
0.001017947
0.00103604
0.001041268
0.001041901
0.001038663
0.001032598
0.001026504
0.00468447
0.0009693949
0.001018219
0.001036141
0.001041013
0.001040472
0.001032718
0.001005697
0.0009947037
0.004374517
0.0009698875
0.001018386
0.001036171
0.001040634
0.001038757
0.00102677
0.0009940811
0.01106819
0.00469872
0.0009688332
0.001018417
0.001036192
0.001040329
0.001037345
0.001021287
0.0009699087
0.01138747
0.006923871
0.004721829
0.0009688415
0.00101858
0.00103632
0.001040295
0.00103685
0.001019086
0.0009666604
0.01128498
0.004726028
0.0009696468
0.001018952
0.001036606
0.001040613
0.00103741
0.001021072
0.0009702728
0.01129873
0.004614721
0.0009705904
0.001019422
0.00103704
0.001041287
0.001039013
0.00102621
0.0009918182
0.01137174
0.004686302
0.0009715021
0.001019902
0.001037565
0.001042194
0.001041226
0.001032534
0.001002862
0.0009891079
0.002090959
0.0009719857
0.001020351
0.001038101
0.001043096
0.001043367
0.00103917
0.001029383
0.001006304
0.004526484
0.0009722966
0.001020632
0.00103858
0.00104385
0.001044962
0.001043856
0.001039947
0.001034754
0.004432026
0.0009717234
0.00102085
0.001038982
0.001044442
0.001045983
0.001045935
0.001044947
0.001043575
0.004648297
0.0009717921
0.001021116
0.00103933
0.001044914
0.001046635
0.001046973
0.001046716
0.00104633
0.004738022
0.0009715379
0.001021306
0.001039647
0.001045293
0.00104709
0.001047557
0.001047503
0.001047387
0.004801269
0.0009712606
0.001021491
0.001039915
0.001045566
0.001047372
0.001047877
0.001047895
0.001047868
0.004814571
0.0009715045
0.001021734
0.001040099
0.001045677
0.001047425
0.001047921
0.001047968
0.001048
0.0048232
0.0009719554
0.001021902
0.00103997
0.001045245
0.001046831
0.001047326
0.001047508
0.001047685
0.00476557
0.0009723697
0.001021595
0.001038764
0.00104324
0.001044321
0.001044888
0.001045561
0.001046411
0.001904404
0.004708151
0.004709865
0.01138423
0.001916218
0.001970885
0.004533046
0.004648859
0.01137958
0.01137812
0.001983576
0.001990784
0.004652708
0.004663894
0.01138108
0.01137744
0.001992264
0.001993552
0.004665766
0.004672254
0.01138137
0.01137647
0.001993886
0.001994529
0.004673189
0.004677932
0.01138162
0.0113759
0.001994718
0.001995247
0.004678647
0.00468293
0.01138183
0.01137559
0.00199538
0.00199581
0.004683505
0.004687314
0.01138201
0.01137524
0.001995895
0.00199617
0.004687661
0.004690907
0.01137971
0.01137512
0.001996155
0.001996278
0.004690817
0.004692956
0.01137387
0.01137501
0.004692589
0.001916207
0.001970949
0.004533144
0.01135441
0.004648678
0.0113455
0.001983622
0.001990898
0.004652534
0.01135671
0.004663853
0.01134139
0.001992342
0.001993738
0.004665966
0.01135994
0.004672727
0.01133836
0.001994048
0.001994856
0.004674137
0.01136169
0.004679444
0.01133381
0.00199503
0.001995805
0.0046809
0.01136351
0.004685981
0.0113298
0.00199596
0.001996741
0.004687606
0.01136501
0.004692577
0.01132575
0.001996889
0.001997683
0.004694459
0.01136675
0.004699306
0.01132192
0.001997836
0.001998631
0.004701428
0.01136914
0.004706027
0.01131869
0.001998788
0.001999577
0.004708411
0.01137177
0.004712782
0.01131586
0.001999741
0.002000511
0.004715362
0.01137425
0.004719407
0.01131373
0.008544012
0.00200857
0.00860046
0.01139037
0.01038585
0.01138687
0.004256101
0.006925158
0.002000679
0.002001445
0.004722196
0.01137436
0.004725988
0.01131095
0.008595969
0.002015123
0.008581832
0.01128793
0.001902095
0.01133718
0.001921366
0.002001623
0.002002407
0.004729066
0.01137373
0.004732737
0.01130736
0.008750139
0.002012685
0.008455752
0.01129173
0.001905986
0.0113847
0.003916773
0.002002603
0.002003423
0.004736171
0.01137319
0.004739861
0.01130263
0.008124362
0.002093894
0.00435596
0.01137245
0.00354401
0.01137905
0.01140557
0.004293279
0.01141104
0.002003647
0.002004517
0.004743701
0.01137266
0.004747465
0.01129709
0.002004771
0.002005698
0.004751773
0.01137208
0.004755601
0.01129113
0.002005982
0.002006968
0.004760456
0.01137144
0.004764305
0.01128478
0.002007287
0.00200833
0.004769839
0.0113707
0.004773601
0.01127829
0.002008687
0.00200979
0.004779914
0.01136983
0.004783533
0.01127147
0.002010192
0.002011349
0.004790723
0.01136883
0.004794163
0.01126425
0.002011809
0.002013027
0.004802343
0.01136759
0.004805571
0.01125642
0.002013558
0.002014838
0.004814872
0.01136592
0.004817873
0.01124762
0.002015453
0.002016801
0.004828481
0.01136372
0.004831229
0.01123776
0.002017508
0.002018908
0.004843343
0.01136024
0.004845903
0.01122569
0.004513999
0.004514528
0.01138849
0.004609475
0.004609551
0.01138843
0.01061332
0.01140277
0.004294925
0.01141168
0.01040506
0.01140376
0.004326849
0.006917148
0.01141266
0.004611185
0.00461057
0.01138846
0.004616567
0.004615256
0.01138844
0.01059818
0.01140368
0.004327833
0.01141145
0.01042849
0.01140399
0.004329849
0.006915745
0.01140531
0.01140584
0.004616963
0.004616281
0.01138845
0.004619002
0.004617051
0.01138844
0.01047601
0.01140388
0.004329752
0.01141151
0.01042831
0.01140402
0.004330042
0.006915524
0.004618203
0.004617979
0.01138844
0.004619078
0.004617363
0.01138844
0.01043666
0.01140402
0.004329935
0.01141147
0.01043003
0.01140406
0.004330004
0.006915373
0.004618901
0.004617544
0.01138844
0.004618836
0.004617283
0.01138845
0.01043207
0.01140406
0.004330017
0.01141146
0.01043091
0.01140403
0.004329889
0.006915113
0.004618508
0.004617382
0.01138844
0.004616147
0.004616829
0.01138845
0.01042917
0.01140403
0.004329973
0.01141142
0.0104638
0.01140387
0.004329601
0.006913251
0.004616059
0.004615603
0.01138844
0.004612031
0.004609295
0.01138846
0.01042972
0.01140397
0.00432973
0.01141137
0.01053015
0.01140365
0.00432786
0.006911348
0.004610207
0.004607806
0.01138843
0.004499855
0.00451307
0.01138848
0.01041642
0.01140379
0.004327011
0.01141202
0.01061355
0.0114028
0.004297543
0.006905881
0.004682593
0.0047079
0.01138427
0.001907093
0.004638442
0.01137967
0.01137795
0.001923938
0.001973806
0.004655267
0.01138108
0.01137745
0.001984083
0.001992919
0.004523548
0.01138139
0.01137832
0.004853366
0.002005182
0.002036647
0.002123504
0.01137192
0.01135823
0.004534857
0.004525232
0.002062329
0.002072192
0.002173926
0.01136269
0.01135395
0.00454799
0.002071265
0.002072626
0.002194124
0.01136303
0.01135222
0.004912301
0.00206754
0.00206095
0.002187505
0.01136313
0.01135523
0.004574621
0.002072525
0.002072715
0.01135453
0.004603411
0.01134522
0.001918625
0.001983339
0.01135449
0.002064441
0.01133922
0.002022588
0.00454874
0.002046934
0.0113598
0.004655812
0.01133858
0.00485635
0.002032332
0.002006085
0.01136203
0.004670156
0.01133356
0.001996693
0.001999849
0.01136025
0.002098395
0.01132977
0.002019367
0.004933293
0.002035177
0.01136591
0.004686075
0.01132559
0.002020785
0.002001364
0.01136661
0.004693067
0.01132152
0.001997678
0.001998017
0.01136827
0.004447829
0.0113148
0.002000657
0.002017282
0.01137487
0.004670399
0.01131715
0.004866629
0.002026356
0.002008354
0.0113752
0.0047186
0.01131406
0.002000612
0.002000545
0.01039266
0.01138517
0.004260279
0.002028025
0.008619586
0.002012864
0.008647213
0.008365297
0.01137432
0.004724695
0.01131061
0.002000695
0.002001703
0.00191331
0.01133525
0.001944876
0.00202573
0.008658253
0.002040316
0.004168129
0.01137338
0.004682215
0.01130399
0.002003288
0.002013796
0.001930249
0.01138254
0.003822057
0.002049504
0.004230565