/*--------------------------------*- C++ -*----------------------------------*\
  =========                 |
  \\      /  F ield         | OpenFOAM: The Open Source CFD Toolbox
   \\    /   O peration     | Website:  https://openfoam.org
    \\  /    A nd           | Version:  7
     \\/     M anipulation  |
\*---------------------------------------------------------------------------*/
FoamFile
{
    version     2.0;
    format      ascii;
    class       surfaceScalarField;
    location    "0.05";
    object      phi;
}
// * * * * * * * * * * * * * * * * * * * * * * * * * * * * * * * * * * * * * //

dimensions      [0 3 -1 0 0 0 0];

internalField   nonuniform List<scalar> 
260377
(
-0.001475478
0.001467392
1.510179e-06
-0.0001384581
-0.0002502622
-0.0001794747
-0.000240046
0.0001384749
0.0002525569
0.0001808046
0.000242981
-0.00216627
0.001440512
4.298763e-05
-8.862087e-05
-0.0002883176
-0.0001557534
-0.0002600161
-0.002867553
0.001373767
6.121074e-05
-3.402138e-05
-0.0003099796
-0.0001208485
-0.0002688449
-0.003528791
0.001307813
5.794102e-05
9.536615e-06
-0.000338268
-9.424217e-05
-0.0002815424
-0.004146999
0.001206957
5.888773e-05
5.557458e-05
-0.0003579693
-6.172165e-05
-0.0002835195
-0.004699249
0.001079681
5.147674e-05
0.000101049
-0.0003708042
-2.868324e-05
-0.0002804693
-0.005163589
0.0009043778
4.173477e-05
0.000148045
-0.000373644
1.066949e-05
-0.0002668427
0.000690817
3.147825e-05
0.0001948526
-0.0003655409
5.03637e-05
-0.0002471268
-0.005518433
-0.001505
0.002184428
-4.433612e-05
9.595961e-05
0.0002990935
0.0001640024
0.0002732444
-0.002181811
0.002117709
-3.845453e-07
-0.002887446
0.002037429
4.197231e-05
-0.003561832
0.001937497
4.470298e-05
-0.004199754
0.001797464
4.741485e-05
-0.004779856
0.001616228
4.355501e-05
-0.005279346
0.001365835
3.803329e-05
0.001054309
2.922703e-05
-0.005672065
-0.001528543
0.002959825
-6.568785e-05
4.945423e-05
0.0003344641
0.0001399872
0.0002949282
-0.002233484
0.002867647
-4.499784e-05
-0.00296359
0.002767016
5.184732e-07
-0.003673654
0.002642796
4.765897e-06
-0.004358669
0.002471471
1.100877e-05
-0.004996293
0.002243184
1.066852e-05
-0.005561426
0.001921451
9.515826e-06
0.001508385
6.892994e-06
-0.006022395
-0.00157725
0.003756747
-6.669734e-05
1.155473e-05
0.0003808226
0.0001267496
0.0003278989
-0.002304365
0.003646882
-5.211963e-05
-0.003068763
0.003536687
-5.271658e-06
-0.003823925
0.003398821
-8.624918e-07
-0.004572722
0.003213198
7.069896e-06
-0.005292393
0.002955129
7.725456e-06
-0.005957388
0.002579459
6.987595e-06
0.002067685
5.39361e-06
-0.006522081
-0.001626136
0.004586028
-7.144183e-05
-2.686416e-05
0.0004271034
0.000111874
0.0003561842
-0.002384151
0.004466436
-6.153888e-05
-0.003190969
0.004356679
-1.317407e-05
-0.004005533
0.004222431
-9.046864e-06
-0.004838535
0.004047006
-8.053891e-07
-0.00567257
0.003788098
1.065428e-06
-0.006488197
0.003396135
-1.048411e-06
0.002788113
1.334576e-06
-0.007209959
-0.001674517
0.005441219
-7.327951e-05
-6.400023e-05
0.0004743232
9.815516e-05
0.0003841277
-0.002459601
0.005315251
-6.373043e-05
-0.003307613
0.005219604
-1.491291e-05
-0.004184207
0.00510947
-1.044417e-05
-0.005115688
0.004981268
-2.780446e-06
-0.006097351
0.004767104
2.657372e-06
-0.007144639
0.004447602
-4.178278e-06
0.003758113
-3.494431e-07
-0.00811429
-0.001713277
0.006317208
-7.910256e-05
-9.92863e-05
0.0005215539
8.26785e-05
0.0004114453
-0.002520524
0.006188905
-6.640711e-05
-0.00340252
0.006119306
-1.770545e-05
-0.004335255
0.006054593
-1.238723e-05
-0.005365365
0.006018371
-6.993219e-06
-0.006506506
0.005903549
4.695921e-06
-0.007893694
0.005845259
-1.046777e-05
0.005140785
-3.609181e-06
-0.009272757
-0.001726177
0.007198905
-7.954892e-05
-0.0001392263
0.0005668534
6.290884e-05
0.0004334931
-0.002538153
0.007067806
-6.692577e-05
-0.003426828
0.007026729
-1.874684e-05
-0.004384389
0.007023853
-1.169876e-05
-0.005492004
0.007133064
-7.077802e-06
-0.00687165
0.007262844
2.035112e-05
-0.008712424
0.007654019
3.201381e-05
0.002183457
-0.0001191847
0.001125927
0.002222009
0.001847505
-0.01083135
-0.001730216
0.008080709
-7.73904e-05
-0.0001806264
0.0006102167
4.321343e-05
0.0004529986
-0.002533963
0.007939351
-6.779828e-05
-0.003400703
0.007912608
-1.913874e-05
-0.004317607
0.007951622
-1.086469e-05
-0.005367659
0.008187671
-4.554518e-06
-0.006763414
0.008588006
7.059338e-05
-0.002549711
0.009685409
0.0002324708
-0.001584384
-0.002673651
-0.002219528
-0.002902654
0.002529431
6.969063e-06
-0.001704325
0.008946767
-7.270764e-05
-0.0002238653
0.0006491275
1.962915e-05
0.0004660835
-0.002471023
0.008773694
-6.764467e-05
-0.003246991
0.008709417
-2.084126e-05
-0.003983444
0.008699097
-1.102087e-05
-0.004656872
0.008877759
-1.665888e-05
-0.005379115
0.009207231
0.0001030169
-0.002153657
0.01030855
0.0002600695
-0.0006585203
-0.002197559
-0.001252592
0.00339708
8.491897e-05
-0.003520584
-0.0004451113
-0.0007341224
-0.0007150536
-0.0002207841
0.0005343378
-0.00013693
-0.0003363664
-6.104134e-05
-0.001711302
0.009814257
-7.031501e-05
-0.0002628597
0.0006906218
1.969211e-06
0.000484396
-0.002461299
0.009591124
-6.743264e-05
-0.003178027
0.00944379
-1.764507e-05
-0.003783795
0.009312858
-7.993193e-06
-0.004161847
0.009249923
5.888436e-06
-0.004259238
0.009196514
0.000108109
-0.001421318
0.009386582
0.0003184478
-0.000333562
-0.001162864
-0.00073797
-0.003424513
0.002700606
4.313431e-05
-0.0001717537
-0.0003156821
-0.0002019582
-5.115169e-05
-0.001760809
0.01070712
-7.139713e-05
-0.0002970917
0.0007371676
-8.047831e-06
0.0005073171
-0.002528735
0.01042789
-6.88374e-05
-0.003256062
0.01019064
-1.95202e-05
-0.003862164
0.009925279
-6.31817e-06
-0.004226484
0.009623084
-8.841128e-06
-0.004283762
0.009147667
0.0001061259
-0.001280711
0.008567344
0.0002488751
-0.0004804257
-0.001159028
-0.0007932343
-0.002706496
0.002076204
8.970532e-05
-0.0001907951
-0.0002962066
-0.000183738
-6.93837e-05
-0.00186804
0.01165618
-7.464579e-05
-0.000325736
0.0007917361
-1.103465e-05
0.0005386577
-0.002695193
0.01132792
-7.287531e-05
-0.003507257
0.01102079
-1.80894e-05
-0.004245536
0.01066918
-5.61756e-06
-0.004862182
0.01022398
1.575376e-05
-0.005494026
0.009611734
0.0001677781
-0.001686393
0.008631186
0.0004873297
-0.001211436
-0.001664416
-0.001482953
-0.00203701
0.001597174
0.0001082102
-0.0004092244
-0.0003559453
-0.0003077326
-0.0002818647
-0.002012745
0.01268151
-7.992654e-05
-0.0003518744
0.0008529506
-9.269554e-06
0.0005755365
-0.002923419
0.01231614
-7.755431e-05
-0.003843422
0.0119649
-2.411022e-05
-0.004758214
0.01158294
1.028978e-06
-0.005579693
0.01107404
-2.858027e-05
-0.006800393
0.01055848
0.000273951
-0.002089213
0.009671364
0.0003735492
-0.001727119
-0.002224335
-0.002173453
-0.001835388
-0.002072946
0.001637283
0.0001818392
-0.002173759
0.01379099
-8.537695e-05
-0.0003784273
0.0009187414
-5.569471e-06
0.0006149111
-0.003163947
0.01339173
-8.539719e-05
-0.004189121
0.01301316
-2.307535e-05
-0.005195222
0.0126061
-1.706399e-05
-0.006215175
0.01209662
-2.632503e-06
-0.007330478
0.01156155
0.0001122366
-0.00887449
0.01081396
0.0004014147
0.01053253
0.0004269737
-0.001881449
-0.002328345
-0.002412645
-0.002488003
-0.01072355
-0.002351952
0.01499274
-9.054517e-05
-0.0004057908
0.0009890645
2.261699e-07
0.0006572423
-0.003431978
0.01456222
-9.045982e-05
-0.00456264
0.01416539
-2.157288e-05
-0.005695699
0.01374916
-9.991638e-06
-0.006874952
0.01327262
3.251437e-06
-0.008201311
0.01279432
9.358909e-05
-0.009751352
0.01221214
0.0001518605
0.01168444
0.0004030818
-0.01130635
-0.002531169
0.0162874
-9.595314e-05
-0.0004354202
0.001062546
5.660188e-06
0.0006996765
-0.003690444
0.01581939
-9.789588e-05
-0.004898095
0.01539648
-2.343873e-05
-0.006087338
0.01495822
-1.982295e-05
-0.007301544
0.01449282
-5.994148e-06
-0.008557008
0.0140512
-1.417991e-06
-0.009925643
0.01356804
1.274326e-05
0.01318147
1.038627e-05
-0.01143306
-0.002725691
0.01768153
-0.0001015371
-0.0004662158
0.001140281
1.457579e-05
0.0007444623
-0.003969324
0.01716711
-0.0001040925
-0.005255097
0.01670538
-2.312448e-05
-0.006507646
0.01622901
-1.824306e-05
-0.007757833
0.01574567
-2.657391e-06
-0.00900431
0.0152909
6.775129e-06
-0.01029989
0.01485549
8.127312e-06
0.01451703
1.640888e-05
-0.01165185
-0.002938095
0.01918418
-0.000107925
-0.0004977203
0.001223201
2.609755e-05
0.0007917864
-0.004268753
0.01860943
-0.0001116632
-0.005626218
0.01808772
-2.487767e-05
-0.00692101
0.01754534
-2.153676e-05
-0.008175178
0.01700559
-5.755777e-06
-0.009386636
0.01650672
-4.360352e-06
-0.01059321
0.0160632
-1.141138e-06
0.01574244
-8.134301e-06
-0.01181049
-0.00318213
0.02081282
-0.0001156515
-0.0005287247
0.001313064
4.188605e-05
0.0008429172
-0.004613219
0.02016098
-0.0001204524
-0.006051982
0.01955349
-2.700803e-05
-0.007392355
0.01890959
-2.387772e-05
-0.008646622
0.01826567
-5.810603e-06
-0.00980809
0.01767118
-2.990461e-06
-0.01091598
0.01716974
1.353118e-06
0.01682569
5.908113e-07
-0.01199982
-0.003479938
0.02259459
-0.0001252078
-0.0005574085
0.001413224
6.560699e-05
0.0009019562
-0.005034113
0.02184503
-0.0001298825
-0.006571525
0.02111981
-2.889989e-05
-0.007958758
0.02032114
-2.431542e-05
-0.009195836
0.01950953
-6.776833e-06
-0.01027447
0.01875456
-4.737333e-06
-0.0112496
0.01814559
-7.159322e-07
0.01775715
-2.783772e-06
-0.01217827
-0.003833528
0.02456668
-0.0001397826
-0.0005842297
0.001524378
9.516541e-05
0.0009659083
-0.005542197
0.02369987
-0.0001461709
-0.007209919
0.02282601
-3.848271e-05
-0.008669979
0.02181988
-3.867712e-05
-0.009894734
0.02074882
-1.453572e-05
-0.01085956
0.01973312
-1.373331e-05
-0.01164396
0.01893513
-5.140861e-06
0.01848278
-7.906607e-06
-0.01236169
-0.004307638
-0.0001568092
-0.0006042253
0.001654805
0.0001440576
0.001050786
0.02678571
-0.006232017
-0.0001549157
0.02577917
-0.008093469
-3.807572e-05
0.02472554
-0.00964185
-1.911961e-05
0.02338738
-0.01081765
-1.08019e-05
0.02193542
-0.0115885
-4.751607e-06
0.02050872
-0.01210346
-2.009342e-06
0.01945209
-7.414745e-06
0.01891627
-0.01252953
5.770504e-06
3.633676e-05
-0.0002558234
7.556584e-05
-1.497668e-06
-7.101131e-06
6.683987e-06
4.252606e-06
4.91351e-05
3.79522e-05
4.872521e-05
2.365241e-05
0.0003468196
-0.000433454
6.95952e-05
-2.07109e-05
-9.457556e-06
1.455409e-05
9.001204e-06
3.354616e-05
0.0005445367
-0.0006235514
6.452196e-05
-2.908672e-05
-1.86989e-05
1.892114e-05
9.811057e-06
4.365676e-05
0.0007284906
-0.0007973663
5.511449e-05
-4.543612e-05
-2.453288e-05
2.621299e-05
1.386056e-05
5.26802e-05
0.0009006531
-0.0009583683
3.690782e-05
-5.06741e-05
-2.987424e-05
3.12947e-05
1.738085e-05
6.219652e-05
0.001057355
-0.001104654
2.335328e-05
-6.427045e-05
-3.355031e-05
3.758009e-05
2.199006e-05
6.981696e-05
0.001195813
-0.001230638
1.421926e-05
-7.881318e-05
-3.595235e-05
4.146552e-05
2.408877e-05
7.609996e-05
0.001313239
-0.001331089
-3.844777e-06
-8.639011e-05
-3.85897e-05
4.478124e-05
2.579409e-05
-5.87576e-06
-3.641853e-05
-7.619159e-05
0.0002553
2.860037e-06
-6.764469e-06
7.07467e-06
-4.527257e-06
-4.888278e-05
-3.796282e-05
-4.861145e-05
-0.001655266
0.001648499
1.823401e-06
-0.0001795625
-0.0002247984
-0.0001881127
-0.0002233661
0.000181848
0.0002250536
0.0001892066
0.0002261855
-0.00246605
0.001625857
3.837101e-05
-0.0001718664
-0.0002333417
-0.0001814226
-0.0002238257
-0.003243059
0.001552374
5.32735e-05
-0.0001586716
-0.0002343917
-0.0001607435
-0.0002136204
-0.003982214
0.00148002
5.705031e-05
-0.0001432966
-0.0002371695
-0.0001505533
-0.0002089545
-0.004680295
0.001371201
5.6661e-05
-0.0001124589
-0.000232907
-0.0001326894
-0.0001928379
-0.005303887
0.001225741
5.398568e-05
-8.624519e-05
-0.0002266686
-0.0001139341
-0.0001778099
-0.005822876
0.00102571
4.947537e-05
-6.498367e-05
-0.0002098284
-8.633039e-05
-0.0001533179
0.0007822016
3.934776e-05
-2.881121e-05
-0.0001849079
-5.726263e-05
-0.0001244662
-0.006217499
-2.374122e-05
-0.0003452789
-7.263797e-05
0.0004335976
2.512973e-05
-1.45029e-05
8.336704e-06
-1.090294e-05
-0.001699998
0.002493
-3.753098e-05
0.0001787994
0.0002468856
0.0001882644
0.000234743
-0.002540007
0.002464806
6.756566e-07
-0.003355077
0.002373424
3.599222e-05
-0.004140975
0.002260845
4.977645e-05
-0.004881514
0.002100879
5.82748e-05
-0.005556126
0.001888626
5.528235e-05
-0.006138393
0.001597559
4.845178e-05
0.0012325
3.688056e-05
-0.006596345
-3.412828e-05
-0.0005496126
-7.146893e-05
0.0006360721
3.42464e-05
-1.811217e-05
1.725149e-05
-1.424795e-05
-0.001731241
0.003358423
-5.44576e-05
0.0001762837
0.000261407
0.0001784758
0.0002384213
-0.002603946
0.003332471
-3.9958e-05
-0.003451701
0.003223644
-1.945837e-06
-0.004279137
0.003077153
1.589509e-05
-0.005073378
0.002877133
2.899617e-05
-0.005816287
0.002611019
3.118533e-05
-0.006474496
0.002235301
2.998258e-05
0.00175418
2.307052e-05
-0.007012353
-4.489593e-05
-0.0007528333
-6.86136e-05
0.0008351475
4.957602e-05
-2.342139e-05
2.323688e-05
-1.819612e-05
-0.001792229
0.004253148
-6.37019e-05
0.0001760012
0.0002821193
0.0001828733
0.0002535152
-0.00269416
0.004240888
-5.860528e-05
-0.003574338
0.004119819
-2.12688e-05
-0.00445349
0.003957337
-1.894091e-06
-0.005321985
0.003738709
1.398906e-05
-0.006161553
0.003439199
1.911499e-05
-0.006937374
0.00299826
1.985017e-05
0.00240591
1.525024e-05
-0.00759896
-5.499638e-05
-0.0009565375
-6.487313e-05
0.001037757
6.080662e-05
-2.781632e-05
2.896388e-05
-2.330442e-05
-0.001850585
0.005181581
-7.243579e-05
0.0001724584
0.0003029228
0.0001817808
0.0002659853
-0.00278831
0.00519147
-7.439538e-05
-0.003714996
0.005070457
-3.712567e-05
-0.004662208
0.004913059
-1.755675e-05
-0.005627959
0.004703479
1.764524e-07
-0.006599822
0.00440435
7.776895e-06
-0.007550358
0.003938106
9.641993e-06
0.003248651
8.576451e-06
-0.008400341
-6.488846e-05
-0.001167623
-5.793401e-05
0.001246538
6.949119e-05
-3.153569e-05
3.511852e-05
-2.916662e-05
-0.001906293
0.00614285
-7.443868e-05
0.0001657732
0.0003231125
0.0001815622
0.0002757341
-0.002875956
0.006178051
-8.064791e-05
-0.003849757
0.006073186
-4.384132e-05
-0.00486749
0.005944624
-2.427619e-05
-0.005948643
0.005787769
-5.916521e-06
-0.007094866
0.005548874
4.357085e-06
-0.0083078
0.005143499
3.363129e-06
0.004393617
5.452994e-07
-0.00945366
-7.523834e-05
-0.001383779
-4.670402e-05
0.00145995
7.406408e-05
-3.529396e-05
4.144334e-05
-3.444181e-05
-0.001952026
0.007136423
-7.697214e-05
0.0001510052
0.0003400029
0.00018252
0.0002827949
-0.002946274
0.007192649
-8.675737e-05
-0.00396179
0.007119895
-4.88975e-05
-0.00504431
0.007043611
-2.885337e-05
-0.006246313
0.006992509
-9.728851e-06
-0.007604879
0.006906727
5.409289e-06
-0.009218818
0.006749261
-2.29158e-06
0.005993556
-6.855426e-06
-0.01081551
-8.602219e-05
-0.001603941
-4.119014e-05
0.00167876
8.626632e-05
-4.002906e-05
4.678797e-05
-4.063153e-05
-0.001969073
0.008138654
-7.960569e-05
0.00014306
0.0003549464
0.0001800227
0.0002888701
-0.002968291
0.008213337
-8.839517e-05
-0.003992611
0.008176322
-5.085372e-05
-0.005102886
0.008171093
-2.89052e-05
-0.006386288
0.008274984
-6.150457e-06
-0.007968626
0.008487222
2.219406e-05
-0.01003588
0.008821102
2.742433e-05
0.002284915
-9.79733e-05
0.001958865
0.002197331
0.001943241
-0.01244788
-9.645628e-05
-0.001827404
-3.962472e-05
0.001899427
0.000103949
-4.399755e-05
5.1412e-05
-4.73054e-05
-0.001974561
0.009136212
-8.402016e-05
0.0001410184
0.0003723396
0.0001761395
0.0002941357
-0.002967545
0.009227026
-8.850373e-05
-0.003970185
0.009210519
-5.069521e-05
-0.005041458
0.009256151
-2.464908e-05
-0.006291231
0.009511362
8.840865e-06
-0.00779398
0.009987621
7.294374e-05
-0.002763367
0.01097454
0.0001818244
-0.002265137
-0.002651746
-0.002216518
-1.489036e-05
-0.003277856
0.0028031
1.119424e-05
-0.0001062315
-0.002052147
-3.708963e-05
0.002118877
0.0001199867
-4.630447e-05
5.58278e-05
-5.29189e-05
-0.001945734
0.0101136
-8.666337e-05
0.0001360781
0.0003848077
0.0001671732
0.0002942409
-0.00289961
0.01019917
-8.591728e-05
-0.003803295
0.0101439
-5.053268e-05
-0.004673111
0.01013658
-2.163388e-05
-0.005543443
0.01035286
1.217513e-05
-0.006312735
0.01076447
9.546233e-05
-0.002269778
0.01195499
0.0001177089
-0.001303089
-0.002276071
-0.001301895
-1.406968e-06
0.003779446
3.175963e-05
-0.00337541
-0.0005404939
-0.0008184441
-0.0005324213
-0.0008128063
-6.856962e-06
0.000705095
-0.0002343287
-0.0004760131
1.210366e-05
-0.00011508
-0.00227447
-3.469896e-05
0.002336826
0.0001328654
-4.755548e-05
6.04691e-05
-5.835642e-05
-0.001952702
0.01109255
-8.917539e-05
0.0001334547
0.0003979059
0.000163573
0.0002976856
-0.00288804
0.01115121
-8.413442e-05
-0.003716136
0.0110008
-4.645287e-05
-0.004429064
0.01085554
-1.402386e-05
-0.004895429
0.01078775
3.735963e-05
-0.004914169
0.01078041
0.0001109062
-0.001168201
0.01092537
0.0001766852
-0.0007329547
-0.001123444
-0.0007181824
2.64533e-05
-0.003512375
-0.0007883904
0.003101386
4.724769e-06
-0.000124058
-0.002496997
-3.196029e-05
0.002557855
0.0001420979
-4.85421e-05
6.526951e-05
-6.366567e-05
-0.002010221
0.0121028
-9.217708e-05
0.0001317886
0.0004157494
0.0001650513
0.0003081606
-0.002967159
0.01212416
-8.484467e-05
-0.003809205
0.01186989
-4.656033e-05
-0.00451951
0.01156865
-9.120894e-06
-0.004980133
0.01119803
4.150287e-05
-0.00494676
0.01072595
0.0001272117
-0.001095936
0.009655252
0.0001890823
-0.00074292
-0.001088326
-0.0006896682
-2.542161e-05
-0.0005672703
0.002242287
3.040858e-05
-0.002775939
-0.0001330887
-0.002725495
-3.348747e-05
0.002788871
0.0001517547
-4.954903e-05
7.018781e-05
-6.919309e-05
-0.002132301
0.01317584
-9.777417e-05
0.0001388855
0.0004421188
0.0001739962
0.0003273841
-0.003160793
0.01316891
-8.913491e-05
-0.00409458
0.01283208
-4.649262e-05
-0.004950382
0.01242468
-5.845674e-06
-0.005674011
0.01187101
6.640116e-05
-0.006126256
0.01116725
0.0001787288
-0.00162651
0.009623956
0.000361876
-0.001425754
-0.001541341
-0.001375901
-1.520868e-05
-0.001883219
0.001604779
3.040905e-05
-0.0002904819
-0.000397034
-0.0003918026
-0.0002839519
-0.0001420179
-0.002967418
-3.775018e-05
0.003035486
0.0001610113
-5.00279e-05
7.556119e-05
-7.484482e-05
-0.002299282
0.01433477
-0.0001044606
0.0001518816
0.0004737554
0.0001879915
0.0003512605
-0.003428964
0.01431556
-9.452127e-05
-0.004504248
0.01393399
-5.073681e-05
-0.005555779
0.01347671
5.306776e-07
-0.006677681
0.01290536
5.89791e-05
-0.007648261
0.01217258
0.000239194
-0.008935465
0.01091283
0.000371878
0.009369338
0.0006481337
-0.001799936
-0.001955185
-0.001772109
-0.001999242
-0.0001438249
-0.0003666752
3.012273e-05
-0.0002441917
-0.002538933
-0.002829744
-0.002469379
-0.002863839
-0.000151111
-0.003227415
-4.308122e-05
0.003301144
0.0001701058
-5.012677e-05
8.133646e-05
-8.085231e-05
-0.002483209
0.01558848
-0.0001124348
0.0001671691
0.0005077525
0.000204572
0.000377066
-0.003715153
0.01556596
-0.0001038514
-0.004902354
0.01515515
-5.703899e-05
-0.00610277
0.01467524
-1.518449e-05
-0.007361038
0.0141149
4.608893e-05
-0.008686518
0.01347735
0.0001329483
-0.0102514
0.01261008
0.0002690411
0.01169514
0.0002943811
-0.01244461
-0.0001604819
-0.003507689
-4.931897e-05
0.0035874
0.0001793938
-4.962766e-05
8.705069e-05
-8.672702e-05
-0.002683969
0.01694514
-0.0001195502
0.0001846398
0.0005434997
0.0002234067
0.0004047613
-0.004021839
0.01692484
-0.0001114709
-0.005318457
0.01649234
-6.213998e-05
-0.00663541
0.01600083
-1.862772e-05
-0.008012212
0.01546054
3.441675e-05
-0.009466299
0.01491267
0.0001123581
-0.01120227
0.01430462
0.0001932949
0.01376516
0.0003481211
-0.01321732
-0.0001701449
-0.003809251
-5.597407e-05
0.003895049
0.000188307
-4.847553e-05
9.280845e-05
-9.231916e-05
-0.002888524
0.01840653
-0.0001276023
0.0002029464
0.0005798991
0.0002429265
0.0004330146
-0.004324896
0.01838506
-0.0001217458
-0.005707099
0.01792262
-7.151421e-05
-0.007096114
0.01740509
-3.506451e-05
-0.008512409
0.01686454
6.299244e-06
-0.009980536
0.01634173
3.765416e-05
-0.01156422
0.01582269
7.835672e-05
0.0153915
9.539785e-05
-0.01327557
-0.000180091
-0.004133132
-6.34876e-05
0.004225376
0.0001970531
-4.652458e-05
9.888123e-05
-9.807443e-05
-0.003109101
0.01998046
-0.000134719
0.000223111
0.000617486
0.0002645202
0.0004632356
-0.004647785
0.01995043
-0.0001307756
-0.006114086
0.01944368
-7.788588e-05
-0.007566622
0.01888064
-4.125544e-05
-0.009012834
0.01831138
-3.281231e-06
-0.01046621
0.01777814
2.373393e-05
-0.01196996
0.01728574
4.8837e-05
0.01691407
5.7664e-05
-0.0135338
-0.0001902872
-0.004480472
-7.246207e-05
0.004580149
0.000205384
-4.368496e-05
0.0001054716
-0.0001040984
-0.003351315
0.0216774
-0.0001427358
0.0002462158
0.0006578801
0.0002886267
0.0004964601
-0.004997781
0.02162664
-0.0001414067
-0.006544723
0.02105216
-8.641938e-05
-0.008046336
0.0204115
-5.078559e-05
-0.009496494
0.01977195
-1.616453e-05
-0.01090675
0.01918261
1.420355e-06
-0.01230994
0.0186711
1.669491e-05
0.01829926
1.470723e-05
-0.01371797
-0.0002008386
-0.004853991
-8.337232e-05
0.004962075
0.0002138272
-3.9895e-05
0.0001125736
-0.0001103791
-0.003629712
0.02351658
-0.0001514531
0.0002735067
0.0007018396
0.0003169796
0.0005340062
-0.005400137
0.02343032
-0.0001537113
-0.007037882
0.02275866
-9.576189e-05
-0.00859022
0.02199913
-5.916952e-05
-0.01003771
0.02123724
-2.361651e-05
-0.01138738
0.0205357
-6.403724e-06
-0.01267576
0.01995387
6.969707e-06
0.01955391
5.832931e-06
-0.01393566
-0.0002117032
-0.005256248
-9.764096e-05
0.005374848
0.0002220216
-3.49829e-05
0.0001204982
-0.0001167933
-0.00396851
0.02552961
-0.0001618407
0.0003082955
0.0007523423
0.0003521934
0.0005792911
-0.005891043
0.02539186
-0.0001688821
-0.007640599
0.02458753
-0.0001082067
-0.009249573
0.02365345
-6.965925e-05
-0.01067748
0.02269313
-3.475651e-05
-0.01193216
0.02180386
-1.822126e-05
-0.01306694
0.02109451
-6.578995e-06
0.02063865
-8.922807e-06
-0.01414553
-0.000223032
-0.00569248
-0.0001150699
0.005823737
0.0002293824
-2.872691e-05
0.0001294957
-0.0001233055
-0.004374584
0.02775455
-0.0001755769
0.0003499616
0.0008091223
0.0003946186
0.0006317303
-0.006488175
0.0275508
-0.0001915234
-0.008385621
0.02657578
-0.0001292889
-0.01007472
0.02539594
-9.207182e-05
-0.01148984
0.02414664
-5.291689e-05
-0.01261315
0.0229503
-3.686706e-05
-0.01353179
0.02203131
-2.330109e-05
0.02149337
-2.609056e-05
-0.01436833
0.0003037591
-0.0004840437
-0.006316469
-0.0001757885
0.0001536875
-0.0001822277
5.908429e-06
0.006695175
-0.004907353
-0.0001920224
0.0008795088
0.0004073084
0.0004506428
0.0007002663
0.03025939
-0.007282226
-0.000215631
0.02998639
-0.009402818
-0.0001532299
0.02881153
-0.01121923
-0.0001062341
0.02729947
-0.01258232
-7.922041e-05
0.02557815
-0.01348543
-5.942104e-05
0.02390808
-0.01408993
-4.827111e-05
0.02268207
-5.009293e-05
0.02202131
-0.01457519
3.746715e-05
-8.351558e-06
-0.0002396911
7.060035e-05
6.127532e-06
4.799519e-05
3.776778e-05
4.808466e-05
-0.002103164
0.0006972878
-1.025076e-06
3.465516e-05
-9.41122e-05
3.274391e-05
-1.185843e-05
0.0003073851
0.0004116721
0.0003145758
0.0004118405
-0.002714051
0.0006433099
3.126539e-05
8.042037e-05
-0.0001287834
1.961111e-05
-3.493635e-05
-0.003346484
0.0006503677
1.158655e-05
0.0001252569
-0.0001502341
3.177483e-05
-3.631949e-05
-0.003913005
0.0005935673
1.268926e-05
0.0001527725
-0.0001795426
2.94471e-05
-4.24124e-05
-0.00442828
0.0005296342
1.061263e-05
0.0001829792
-0.0001972647
3.379337e-05
-4.447934e-05
-0.004858139
0.0004382347
6.987389e-06
0.0002104255
-0.0002181073
4.057009e-05
-4.825113e-05
0.000330086
4.785507e-06
0.0002327236
-0.0002341767
4.31865e-05
-5.004837e-05
-0.005184695
-3.787179e-05
7.25587e-06
-7.144126e-05
0.0002415659
-5.272164e-06
-4.813529e-05
-3.816787e-05
-4.793341e-05
-0.001577011
0.001566531
1.844256e-06
-0.0001746759
-0.0002102117
-0.0001739034
-0.0002181182
0.000176688
0.0002127884
0.0001774424
0.0002204497
-0.002416475
0.001545882
2.924119e-05
-0.003220073
0.001469673
3.050958e-05
-0.003964574
0.001417527
3.439188e-05
-0.004658177
0.001310379
3.345242e-05
-0.005279189
0.0011725
3.213159e-05
-0.005802535
0.0009818138
2.924259e-05
0.0007475716
2.294649e-05
-0.006203619
-0.0007384402
0.002163281
2.709172e-06
-3.65479e-05
-3.667385e-05
9.612751e-05
7.707803e-06
-0.0003100689
-0.0004158258
-0.0003190948
-0.0004131745
-0.00162095
0.002437424
-2.591452e-05
-0.002480693
0.002404466
1.834848e-06
-0.003330622
0.002337127
1.846734e-05
-0.004127198
0.002231511
3.236862e-05
-0.004872849
0.002074693
3.961182e-05
-0.005550826
0.001866582
3.917799e-05
-0.006132641
0.001577765
3.431585e-05
0.001216823
2.586679e-05
-0.006590879
-0.0007277375
0.002855002
-2.126944e-05
-8.426052e-05
-2.564429e-05
0.000133795
3.339652e-05
-0.001643524
0.003326418
-2.766493e-05
-0.002565111
0.003304508
-1.841217e-05
-0.003444666
0.003215725
-9.892488e-07
-0.004293415
0.003076456
1.970035e-05
-0.005100971
0.002879248
3.199736e-05
-0.005852567
0.002614162
3.520188e-05
-0.00651702
0.002239073
3.312893e-05
0.001757771
2.544665e-05
-0.007060343
-0.000794869
0.003629943
-3.602816e-06
-0.0001305376
-3.905391e-05
0.0001590044
3.411757e-05
-0.001719573
0.004222155
-3.47347e-05
-0.002659193
0.004221881
-3.635747e-05
-0.003574454
0.004133335
-2.361736e-05
-0.004477355
0.00397873
-1.265404e-06
-0.005361632
0.003762163
1.535175e-05
-0.00621251
0.003461584
2.257249e-05
-0.006996563
0.003019653
2.332343e-05
0.002424654
1.809387e-05
-0.007666289
-0.0008126233
0.004418407
-1.229878e-05
-0.0001639701
-4.202355e-05
0.0001953743
4.707816e-05
-0.00177566
0.005153209
-4.045305e-05
-0.002755202
0.005176685
-4.965721e-05
-0.003718021
0.00509864
-3.961029e-05
-0.004689411
0.004950558
-1.799452e-05
-0.005671056
0.004743089
8.961766e-07
-0.006654139
0.004441453
1.099136e-05
-0.007613238
0.003975072
1.332278e-05
0.0032842
1.121725e-05
-0.008475425
-0.0008416216
0.005233619
-9.370183e-06
-0.0001994895
-4.77972e-05
0.000230094
5.297245e-05
-0.001832807
0.006112024
-4.206692e-05
-0.002844827
0.006164154
-5.609688e-05
-0.00385422
0.006112306
-4.811315e-05
-0.004895661
0.005994847
-2.712361e-05
-0.005991053
0.005839882
-7.316851e-06
-0.0071455
0.00559549
4.767426e-06
-0.008364558
0.005193254
4.240219e-06
0.004446691
7.844324e-07
-0.009527288
-0.0008599874
0.006060576
-1.298825e-05
-0.0002334947
-5.078741e-05
0.0002701034
6.01969e-05
-0.001875831
0.00709435
-4.345542e-05
-0.002915976
0.007179193
-6.165127e-05
-0.003965567
0.00716685
-5.38492e-05
-0.00507023
0.007103431
-3.277336e-05
-0.006281299
0.00705278
-1.155867e-05
-0.007637897
0.006953372
4.125326e-06
-0.009234073
0.006790436
-3.297529e-06
0.006044918
-1.256637e-05
-0.01082659
-0.0008658623
0.006896675
-1.288679e-05
-0.0002697535
-5.67303e-05
0.0003035855
6.554901e-05
-0.00189076
0.008084289
-4.464654e-05
-0.002937686
0.008200907
-6.318378e-05
-0.00399626
0.008230335
-5.576404e-05
-0.005127721
0.00823882
-3.283261e-05
-0.006413908
0.008338478
-5.660258e-06
-0.007969491
0.008509701
2.144795e-05
-0.009922892
0.008744851
2.641008e-05
0.002235253
-4.018145e-05
0.001976749
0.002185115
0.001961406
-0.01229429
-0.0008654769
0.007741093
-1.176111e-05
-0.0003099365
-6.423586e-05
0.0003356618
7.133091e-05
-0.001893715
0.009075895
-4.73877e-05
-0.002933755
0.009215271
-6.282765e-05
-0.003971179
0.009272106
-5.504127e-05
-0.00506087
0.009331505
-2.764209e-05
-0.00630278
0.009577685
1.154374e-05
-0.007753196
0.009971657
6.140445e-05
-0.00269646
0.01083196
0.0001075946
-0.00223234
-0.002630354
-0.002206923
-1.484126e-05
-0.003200823
0.002745603
8.855083e-06
-0.000855022
0.008583807
-5.721196e-06
-0.0003503204
-7.298465e-05
0.0003664772
7.485697e-05
-0.001868355
0.01005155
-4.898997e-05
-0.002865045
0.01018646
-6.042012e-05
-0.003805229
0.01021472
-5.296552e-05
-0.004700196
0.01022612
-2.128494e-05
-0.005571415
0.01043755
2.353158e-05
-0.006354036
0.01077416
7.558273e-05
-0.002320859
0.01182559
9.21573e-05
-0.001346389
-0.002319284
-0.001335586
-6.631769e-06
0.003706284
9.592908e-06
-0.003271001
-0.0005624486
-0.0008178409
-0.0005502643
-0.0008285496
-3.246508e-06
0.0007312798
-0.0002410277
-0.0004944711
7.465497e-06
-0.0008605319
0.009433853
-2.056498e-06
-0.0003878615
-8.023979e-05
0.0004008388
7.980415e-05
-0.001875141
0.0110272
-5.021369e-05
-0.002850158
0.01113604
-5.868837e-05
-0.0037124
0.0110794
-4.888936e-05
-0.004442578
0.01095599
-1.371161e-05
-0.004894386
0.01088371
4.30063e-05
-0.004893089
0.01079788
8.588581e-05
-0.001159576
0.01080319
0.000113311
-0.0007573413
-0.00114115
-0.0007492492
-0.003413983
6.856157e-06
-0.000786462
0.003034135
-1.219486e-07
-0.0008853157
0.01030895
7.160927e-08
-0.0004228016
-8.629159e-05
0.0004347734
8.446283e-05
-0.001929636
0.01203062
-5.127642e-05
-0.002925606
0.01210591
-5.87532e-05
-0.003799837
0.01195477
-4.769414e-05
-0.004521568
0.011677
-8.40283e-06
-0.004950706
0.01129823
5.611528e-05
-0.004885167
0.01075566
0.0001038951
-0.001091064
0.009568602
0.000148748
-0.0007219117
-0.001092164
-0.000705099
-9.010517e-06
-0.0005548453
0.002164698
6.626256e-06
-0.002698532
-0.0009358725
0.01123493
-4.769603e-07
-0.000457392
-9.200043e-05
0.0004697955
8.996811e-05
-0.002044748
0.01309618
-5.445695e-05
-0.003114032
0.01314792
-6.185526e-05
-0.004079913
0.0129231
-4.894697e-05
-0.004942889
0.01254213
-7.997646e-06
-0.005634022
0.01198152
7.425148e-05
-0.006075186
0.0112516
0.0001239556
-0.001592157
0.009697076
0.0002470265
-0.001477383
-0.001568167
-0.001451103
-2.778126e-05
-0.001813268
0.001564441
4.725628e-06
-0.0003811063
-0.000273134
-0.000391662
-0.0002743718
-0.001004961
0.0122293
-4.310669e-08
-0.0004940156
-9.777594e-05
0.0005072289
9.519963e-05
-0.002203647
0.01424766
-5.724991e-05
-0.003376964
0.01429126
-6.454258e-05
-0.004484771
0.01402991
-4.973496e-05
-0.005541173
0.01360047
-1.406504e-06
-0.006614647
0.01301473
9.924282e-05
-0.007586024
0.01227369
0.0001884744
-0.008923913
0.01098386
0.0004229793
0.009247928
2.051225e-05
-0.001783517
-0.001854328
-0.001742377
-0.001845003
-0.002344024
-0.002764906
-0.00236109
-0.002848975
-0.001083411
0.01330216
-6.041219e-07
-0.0005329998
-0.0001032671
0.000547144
0.0001002798
-0.002379922
0.01549418
-6.244878e-05
-0.00365926
0.01553868
-7.193502e-05
-0.00488257
0.01525705
-6.087627e-05
-0.006084779
0.01480512
-1.762308e-05
-0.007298711
0.01422399
5.075718e-05
-0.008586167
0.01354931
0.000144787
-0.01014164
0.01254915
0.0002592253
0.01158005
0.0002323287
-0.01241171
-0.001170614
0.01446159
4.11365e-07
-0.0005747753
-0.0001089912