/*--------------------------------*- C++ -*----------------------------------*\
  =========                 |
  \\      /  F ield         | OpenFOAM: The Open Source CFD Toolbox
   \\    /   O peration     | Website:  https://openfoam.org
    \\  /    A nd           | Version:  7
     \\/     M anipulation  |
\*---------------------------------------------------------------------------*/
FoamFile
{
    version     2.0;
    format      ascii;
    class       volScalarField;
    location    "0.07";
    object      k;
}
// * * * * * * * * * * * * * * * * * * * * * * * * * * * * * * * * * * * * * //

dimensions      [0 2 -2 0 0 0 0];

internalField   nonuniform List<scalar> 
105056
(
0.003734445
0.003742411
0.00374212
0.003742301
0.003742346
0.003734136
0.003743569
0.003742916
0.003743402
0.00374323
0.003733342
0.003743661
0.003743067
0.003743536
0.003743233
0.003733103
0.003743659
0.00374309
0.003743587
0.003743277
0.003732964
0.003743716
0.003743124
0.003743503
0.003743274
0.003733062
0.003743767
0.003743155
0.003743449
0.003743274
0.003733096
0.003743815
0.003743177
0.003743409
0.003743274
0.003733107
0.003743833
0.003743185
0.003743429
0.003743281
0.003733119
0.00374383
0.003743188
0.003743467
0.00374329
0.003733155
0.003743831
0.003743188
0.003743507
0.003743299
0.003733151
0.003743839
0.003743198
0.003743518
0.003743306
0.00373313
0.003743848
0.003743204
0.003743527
0.003743308
0.003733142
0.003743863
0.003743215
0.003743512
0.003743305
0.00373316
0.003743875
0.003743223
0.003743502
0.003743304
0.003733132
0.003743867
0.003743225
0.003743481
0.003743302
0.003733149
0.003743905
0.003743234
0.003743454
0.0037433
0.003733128
0.003744057
0.003743269
0.003743399
0.003743297
0.003733093
0.003744033
0.003743296
0.003743354
0.003743295
0.003733126
0.003744024
0.003743305
0.003743344
0.003743294
0.003732958
0.00374421
0.003743335
0.003743315
0.003743292
0.003732954
0.003744235
0.003743352
0.003743311
0.003743291
0.003733006
0.003744069
0.003743324
0.003743311
0.003743289
0.003511288
0.003743896
0.003743279
0.00374331
0.003743287
0.003733668
0.003742332
0.003742001
0.003742173
0.003742234
0.003525123
0.003508185
0.003506466
0.003506363
0.003506311
0.003506303
0.003523548
0.0035072
0.003506492
0.003506311
0.003506287
0.003506279
0.003521489
0.003507043
0.003506474
0.003506293
0.003506284
0.003506277
0.003521685
0.00350715
0.003506466
0.003506299
0.003506285
0.003506279
0.003521615
0.003507146
0.003506468
0.003506304
0.003506286
0.003506279
0.003521578
0.003507116
0.003506478
0.003506307
0.003506286
0.003506279
0.003521565
0.003507087
0.00350648
0.003506304
0.003506285
0.003506278
0.003521575
0.003507062
0.003506479
0.003506301
0.003506285
0.003506278
0.003521566
0.003507045
0.003506479
0.003506299
0.003506285
0.003506278
0.003521481
0.003507048
0.003506479
0.003506298
0.003506285
0.003506278
0.003521494
0.00350705
0.00350648
0.0035063
0.003506285
0.003506278
0.003521473
0.003507066
0.00350648
0.003506302
0.003506285
0.003506278
0.003521424
0.003507082
0.003506482
0.003506306
0.003506285
0.003506278
0.003521191
0.003507118
0.003506482
0.003506308
0.003506285
0.003506278
0.003521129
0.003507121
0.003506482
0.00350631
0.003506285
0.003506278
0.003521226
0.003507132
0.003506483
0.00350631
0.003506285
0.003506278
0.003521075
0.003507183
0.003506482
0.003506314
0.003506285
0.003506278
0.003521054
0.003507182
0.00350648
0.003506313
0.003506285
0.003506278
0.00352107
0.003507178
0.00350648
0.003506312
0.003506285
0.003506278
0.003521029
0.003507228
0.00350648
0.003506311
0.003506285
0.003506278
0.003521608
0.003507212
0.003506476
0.003506309
0.003506285
0.003506278
0.003521767
0.003507183
0.003506473
0.003506304
0.003506285
0.003506278
0.003521661
0.003507103
0.003506472
0.0035063
0.003506285
0.003506277
0.003733365
0.003743614
0.003743049
0.003743301
0.003743231
0.003523232
0.003507221
0.003506474
0.003506311
0.003506287
0.003506277
0.003523216
0.003507219
0.003506332
0.003506344
0.003506268
0.003506269
0.003524052
0.003506923
0.003506446
0.003506312
0.003506264
0.003506261
0.003523857
0.003506792
0.003506444
0.003506295
0.003506266
0.003506265
0.00352348
0.003506748
0.003506549
0.003506278
0.003506273
0.003506261
0.003523322
0.003506754
0.003506536
0.003506275
0.003506282
0.003506262
0.003522957
0.003506785
0.003506526
0.003506275
0.003506284
0.003506262
0.003522881
0.003506811
0.003506519
0.003506275
0.003506286
0.003506263
0.003522838
0.003506836
0.003506516
0.003506276
0.003506287
0.003506263
0.003522777
0.003506853
0.003506515
0.003506276
0.003506289
0.003506263
0.003522795
0.003506864
0.003506514
0.003506276
0.00350629
0.003506262
0.003522828
0.003506871
0.003506518
0.003506275
0.003506292
0.003506262
0.003522865
0.003506879
0.003506524
0.003506275
0.003506293
0.003506262
0.00352281
0.003506884
0.00350653
0.003506275
0.003506294
0.003506262
0.003522895
0.003506889
0.003506535
0.003506275
0.003506295
0.003506262
0.00352299
0.003506895
0.003506541
0.003506275
0.003506295
0.003506262
0.003522921
0.003506884
0.003506547
0.003506275
0.003506295
0.003506262
0.003522912
0.003506887
0.003506546
0.003506275
0.003506295
0.003506262
0.003522929
0.003506888
0.003506544
0.003506275
0.003506294
0.003506262
0.003522871
0.003506884
0.003506545
0.003506276
0.003506293
0.003506262
0.003522859
0.003506869
0.00350654
0.003506275
0.003506292
0.003506262
0.003522868
0.003506866
0.003506535
0.003506276
0.00350629
0.003506262
0.00352349
0.003506914
0.003506522
0.003506275
0.003506289
0.003506262
0.003732292
0.003744286
0.00374331
0.003743607
0.003743322
0.003521215
0.003507008
0.003506468
0.003506292
0.003506285
0.003506275
0.003523513
0.003506874
0.003506434
0.003506322
0.00350627
0.003506264
0.003522893
0.003507178
0.003506308
0.003506347
0.003506269
0.003506266
0.003522443
0.003507078
0.003506375
0.003506296
0.003506276
0.003506266
0.003522057
0.003507203
0.003506306
0.00350635
0.003506277
0.003506268
0.003522247
0.003507156
0.003506307
0.003506359
0.003506278
0.003506272
0.003522236
0.003507103
0.003506307
0.00350636
0.003506279
0.003506273
0.003522228
0.003507047
0.003506308
0.003506366
0.00350628
0.003506274
0.003522204
0.003507013
0.003506309
0.003506369
0.003506281
0.003506275
0.003522189
0.003506989
0.00350631
0.003506373
0.003506282
0.003506275
0.003522174
0.003506974
0.003506313
0.003506378
0.003506283
0.003506276
0.003522157
0.003506972
0.003506316
0.003506383
0.003506283
0.003506276
0.003522123
0.00350698
0.003506319
0.003506388
0.003506284
0.003506277
0.003522086
0.003506985
0.003506321
0.003506391
0.003506283
0.003506277
0.00352206
0.003506988
0.003506323
0.003506397
0.003506284
0.003506278
0.003522031
0.003506995
0.003506324
0.003506399
0.003506284
0.003506278
0.003522036
0.003507003
0.003506324
0.003506402
0.003506284
0.003506278
0.003522093
0.003506999
0.003506323
0.0035064
0.003506283
0.003506278
0.003522157
0.003506989
0.003506322
0.003506398
0.003506283
0.003506278
0.003522224
0.003506983
0.00350632
0.003506395
0.003506283
0.003506277
0.003522246
0.003506975
0.00350632
0.003506392
0.003506283
0.003506277
0.003522297
0.003506969
0.003506319
0.003506389
0.003506281
0.003506276
0.003522236
0.003506943
0.003506318
0.003506383
0.003506281
0.003506276
0.003732147
0.003744204
0.003743271
0.003743645
0.003743343
0.003522523
0.003506972
0.003506459
0.003506294
0.003506283
0.003506275
0.003523484
0.003506768
0.003506425
0.003506301
0.003506266
0.003506266
0.003524663
0.003507035
0.003506359
0.003506284
0.003506272
0.00350626
0.003522022
0.003506971
0.003506323
0.003506385
0.003506283
0.003506276
0.003524835
0.003506811
0.003506322
0.00350631
0.003506273
0.003506265
0.003522699
0.003506637
0.003506318
0.003506287
0.00350627
0.003506264
0.003522607
0.003506648
0.003506317
0.003506288
0.00350627
0.003506263
0.003522604
0.003506665
0.003506318
0.00350629
0.00350627
0.003506264
0.003522557
0.003506676
0.003506318
0.003506291
0.00350627
0.003506263
0.003522509
0.003506681
0.003506319
0.003506293
0.003506271
0.003506263
0.003522479
0.003506683
0.00350632
0.003506294
0.003506271
0.003506263
0.003522559
0.003506683
0.00350632
0.003506291
0.00350627
0.003506263
0.003522688
0.003506682
0.003506321
0.003506283
0.00350627
0.003506262
0.003522825
0.003506679
0.003506321
0.003506281
0.003506269
0.003506262
0.003522978
0.00350668
0.003506322
0.003506281
0.00350627
0.003506262
0.003523063
0.00350668
0.003506322
0.003506281
0.00350627
0.003506262
0.003523023
0.003506676
0.003506322
0.003506279
0.00350627
0.003506262
0.003522924
0.003506672
0.00350632
0.003506278
0.003506269
0.003506262
0.003522835
0.003506671
0.003506319
0.003506277
0.003506269
0.003506262
0.003522755
0.00350667
0.003506318
0.003506277
0.003506268
0.003506261
0.003522639
0.003506667
0.003506317
0.003506274
0.003506268
0.003506261
0.00352244
0.00350666
0.003506315
0.003506274
0.003506266
0.003506261
0.003527835
0.003506605
0.003506318
0.003506271
0.003506267
0.003506261
0.003732263
0.003744072
0.003743193
0.003743285
0.003743325
0.003522736
0.003506965
0.003506463
0.003506297
0.003506283
0.003506275
0.00352342
0.003506761
0.003506428
0.003506302
0.003506266
0.003506266
0.003522038
0.003507039
0.003506359
0.003506284
0.003506273
0.00350626
0.003522773
0.003506959
0.003506322
0.003506384
0.003506282
0.003506276
0.003521977
0.003506782
0.003506322
0.003506306
0.003506272
0.003506264
0.003521729
0.003506627
0.003506318
0.003506285
0.003506269
0.003506263
0.003521632
0.003506646
0.003506316
0.003506287
0.003506269
0.003506263
0.003521574
0.003506666
0.003506318
0.003506291
0.00350627
0.003506264
0.003521595
0.003506675
0.003506318
0.003506291
0.00350627
0.003506263
0.0035217
0.003506675
0.003506318
0.003506291
0.00350627
0.003506263
0.003521827
0.003506671
0.003506318
0.00350629
0.00350627
0.003506262
0.003521947
0.003506667
0.003506317
0.003506285
0.003506269
0.003506262
0.00352206
0.003506661
0.003506316
0.003506278
0.003506269
0.003506262
0.003522156
0.003506655
0.003506315
0.003506274
0.003506267
0.003506261
0.003522249
0.003506653
0.003506314
0.003506272
0.003506267
0.003506261
0.003522309
0.003506649
0.003506313
0.003506271
0.003506266
0.003506261
0.003522315
0.003506644
0.003506313
0.00350627
0.003506266
0.003506261
0.003522259
0.003506643
0.003506312
0.00350627
0.003506266
0.00350626
0.003522189
0.003506648
0.003506312
0.00350627
0.003506266
0.003506261
0.003522131
0.003506649
0.003506312
0.003506271
0.003506266
0.00350626
0.003522034
0.003506652
0.003506312
0.003506272
0.003506266
0.003506261
0.003521927
0.003506653
0.003506314
0.003506278
0.003506267
0.003506261
0.003522523
0.003506589
0.003506307
0.003506263
0.003506263
0.003506259
0.003733162
0.003743976
0.003743189
0.003743263
0.003743295
0.003521109
0.003507012
0.003506471
0.003506291
0.003506286
0.003506275
0.003523003
0.003506856
0.003506439
0.003506322
0.00350627
0.003506263
0.003524569
0.003507171
0.00350631
0.003506346
0.003506269
0.003506266
0.003527072
0.003507085
0.00350637
0.003506294
0.003506274
0.003506265
0.003523877
0.003507208
0.003506301
0.00350635
0.003506276
0.003506268
0.003521927
0.003507157
0.003506303
0.003506356
0.003506276
0.003506272
0.003521755
0.003507098
0.003506302
0.003506358
0.003506277
0.003506272
0.00352173
0.003507039
0.003506302
0.003506364
0.003506279
0.003506274
0.00352172
0.003507006
0.003506303
0.003506368
0.003506279
0.003506274
0.00352171
0.003506988
0.003506305
0.003506372
0.00350628
0.003506275
0.003521698
0.003506974
0.003506307
0.003506376
0.003506281
0.003506275
0.003521692
0.003506972
0.00350631
0.00350638
0.003506281
0.003506276
0.003521691
0.003506975
0.003506312
0.003506385
0.003506282
0.003506277
0.003521682
0.003506983
0.003506314
0.003506387
0.003506282
0.003506277
0.003521678
0.003506981
0.003506316
0.003506391
0.003506282
0.003506277
0.003521682
0.003506988
0.003506316
0.003506393
0.003506282
0.003506278
0.003521681
0.003506992
0.003506317
0.003506394
0.003506282
0.003506278
0.003521671
0.003506995
0.003506316
0.003506395
0.003506282
0.003506278
0.003521653
0.003506988
0.003506314
0.003506393
0.003506282
0.003506277
0.003521643
0.003506976
0.003506314
0.00350639
0.003506281
0.003506277
0.003521637
0.003506965
0.003506314
0.00350639
0.003506282
0.003506277
0.003521632
0.003506965
0.003506312
0.003506382
0.003506281
0.003506276
0.003521578
0.003506961
0.003506315
0.003506382
0.003506281
0.003506278
0.003733728
0.003744328
0.003743132
0.003743392
0.003743309
0.003522337
0.003507191
0.003506487
0.003506312
0.003506289
0.003506277
0.003525844
0.003507218
0.003506344
0.003506342
0.003506268
0.003506268
0.003527096
0.003506909
0.003506457
0.003506309
0.003506264
0.00350626
0.003523296
0.003506773
0.003506457
0.00350629
0.003506266
0.003506264
0.003522597
0.003506731
0.003506555
0.003506271
0.003506274
0.003506259
0.003522168
0.003506739
0.00350654
0.003506269
0.003506281
0.00350626
0.003522132
0.003506773
0.00350653
0.00350627
0.003506282
0.00350626
0.003522104
0.003506801
0.003506521
0.003506269
0.003506284
0.003506261
0.003522089
0.003506825
0.003506516
0.003506269
0.003506285
0.003506261
0.003522079
0.003506843
0.003506516
0.003506269
0.003506286
0.00350626
0.003522095
0.003506857
0.003506515
0.003506269
0.003506287
0.00350626
0.003522105
0.003506867
0.003506516
0.003506268
0.003506289
0.00350626
0.003522148
0.003506868
0.00350652
0.003506267
0.00350629
0.00350626
0.003522141
0.003506881
0.003506525
0.003506267
0.003506291
0.00350626
0.003522175
0.003506879
0.003506529
0.003506267
0.003506291
0.00350626
0.003522161
0.003506892
0.003506533
0.003506267
0.003506292
0.003506259
0.003522212
0.003506881
0.003506537
0.003506267
0.003506292
0.003506259
0.003522228
0.003506883
0.00350654
0.003506267
0.003506292
0.003506259
0.003522231
0.003506875
0.003506542
0.003506268
0.003506291
0.003506259
0.00352224
0.003506846
0.003506535
0.003506268
0.00350629
0.003506259
0.003522173
0.003506884
0.003506535
0.003506267
0.00350629
0.00350626
0.00352215
0.003506882
0.003506532
0.003506268
0.003506287
0.003506259
0.003522118
0.003506897
0.003506513
0.003506267
0.003506286
0.003506259
0.003734198
0.003743944
0.00374261
0.003743216
0.003742926
0.003533953
0.003508172
0.003506465
0.00350636
0.003506311
0.003506302
0.003529183
0.003507184
0.003506491
0.003506306
0.003506287
0.003506277
0.003523041
0.003507022
0.003506473
0.003506287
0.003506284
0.003506276
0.003522113
0.003507126
0.003506464
0.003506293
0.003506285
0.003506277
0.00352215
0.003507118
0.003506467
0.003506299
0.003506286
0.003506277
0.003522114
0.003507093
0.003506477
0.003506301
0.003506285
0.003506277
0.003522093
0.003507061
0.003506479
0.003506296
0.003506284
0.003506277
0.003522077
0.003507041
0.003506477
0.003506293
0.003506284
0.003506276
0.003522073
0.003507031
0.003506476
0.003506291
0.003506284
0.003506276
0.003522071
0.003507026
0.003506478
0.003506291
0.003506284
0.003506276
0.003522157
0.003507044
0.003506478
0.003506292
0.003506284
0.003506276
0.003522146
0.003507055
0.003506478
0.003506295
0.003506285
0.003506276
0.003522497
0.003507076
0.003506479
0.003506298
0.003506285
0.003506276
0.003522139
0.003507072
0.003506479
0.003506299
0.003506284
0.003506276
0.003522629
0.003507115
0.00350648
0.003506302
0.003506285
0.003506276
0.003522265
0.0035071
0.00350648
0.003506302
0.003506285
0.003506276
0.003522245
0.00350715
0.003506481
0.003506305
0.003506285
0.003506277
0.003521994
0.003507147
0.003506479
0.003506304
0.003506285
0.003506276
0.003522573
0.003507194
0.003506478
0.003506304
0.003506284
0.003506276
0.00352254
0.003507223
0.00350647
0.003506302
0.003506284
0.003506276
0.003521972
0.00350715
0.003506475
0.003506298
0.003506285
0.003506276
0.00352197
0.003507147
0.003506473
0.003506295
0.003506284
0.003506276
0.00352199
0.003507093
0.003506471
0.003506296
0.003506285
0.003506277
0.003750817
0.003767365
0.003765229
0.003766424
0.003765849
0.003569039
0.003509811
0.003508989
0.00350834
0.003508495
0.003508397
0.003554868
0.003510902
0.003508765
0.003508052
0.003508294
0.0035082
0.003553065
0.003511211
0.003508816
0.003508066
0.003508272
0.003508157
0.003552831
0.003511346
0.003508858
0.003507999
0.003508257
0.003508144
0.003552825
0.003511314
0.003508886
0.003508023
0.003508264
0.003508137
0.003552819
0.003511239
0.003508903
0.003508036
0.003508259
0.003508133
0.003552813
0.003511261
0.003508898
0.003508053
0.003508259
0.003508132
0.003552805
0.003511257
0.003508891
0.003508056
0.00350826
0.003508132
0.0035528
0.003511258
0.003508883
0.003508057
0.003508263
0.003508135
0.003552796
0.003511258
0.003508874
0.003508058
0.003508265
0.003508137
0.003552808
0.003511315
0.003508868
0.00350806
0.003508267
0.003508138
0.003552807
0.003511357
0.003508864
0.003508062
0.003508268
0.003508138
0.00355282
0.003511351
0.003508862
0.003508063
0.00350827
0.003508136
0.003552804
0.003511381
0.00350886
0.003508064
0.00350827
0.003508134
0.003552814
0.003511372
0.003508854
0.003508064
0.003508269
0.003508132
0.00355281
0.003511391
0.00350885
0.003508067
0.003508269
0.00350813
0.003552809
0.003511306
0.003508841
0.003508081
0.003508269
0.00350813
0.003552806
0.003511413
0.003508826
0.003508084
0.003508272
0.003508128
0.003552884
0.003511371
0.003508804
0.003508083
0.003508264
0.003508119
0.003600677
0.003511397
0.003508816
0.00350808
0.003508266
0.003508117
0.003561863
0.003511529
0.00350881
0.003508085
0.003508273
0.003508128
0.0036032
0.00351134
0.003508803
0.003508084
0.003508268
0.003508118
0.003608858
0.003511365
0.003508829
0.003508066
0.00350827
0.003508116
0.003746219
0.003755403
0.003559027
0.003513327
0.003740391
0.003742764
0.00356879
0.003516116
0.003629273
0.003523239
0.003739782
0.003739649
0.003554661
0.003523821
0.003619011
0.003527059
0.003740827
0.003739263
0.003553043
0.003527365
0.003612771
0.003527731
0.003739963
0.003739232
0.003552809
0.003528485
0.003611856
0.003528356
0.003739917
0.003739245
0.003552804
0.003528947
0.003611619
0.003528745
0.003739819
0.003739268
0.003552797
0.003529087
0.003611318
0.003528947
0.00373974
0.003739305
0.003552793
0.003529179
0.003610057
0.003528825
0.003739715
0.003739357
0.003552788
0.003528769
0.003609023
0.003528282
0.003739762
0.003739402
0.003552786
0.003528541
0.003608465
0.003528344
0.003740025
0.003739378
0.003552795
0.003528566
0.003609108
0.003528223
0.003739786
0.003739394
0.003552784
0.003528325
0.003608606
0.003528111
0.003739791
0.003739379
0.003552785
0.003528246
0.003607458
0.003527929
0.003739731
0.003739383
0.003552783
0.003528256
0.003607287
0.003527839
0.003739852
0.003739452
0.003552802
0.003528354
0.003607919
0.003528052
0.0037395
0.003739358
0.003552799
0.00352845
0.003608593
0.003527723
0.003739741
0.003739343
0.003552797
0.003528097
0.003606915
0.003527649
0.003739494
0.003739643
0.003552802
0.003528331
0.003604282
0.003527019
0.00373931
0.003739554
0.003552802
0.003528092
0.003605651
0.003527243
0.003739481
0.003739315
0.003552783
0.003527599
0.003606299
0.003527287
0.003739368
0.003739709
0.003553409
0.003527845
0.00355885
0.003525489
0.003738759
0.003739343
0.003597893
0.003529004
0.00356034
0.003526898
0.003738884
0.003739697
0.00360381
0.003529131
0.003557688
0.003528167
0.00373917
0.003514971
0.003592206
0.003528759
0.003553453
0.003527468
0.003739917
0.003567208
0.003514611
0.003742641
0.003636793
0.0035219
0.003741182
0.003558278
0.003519593
0.003742078
0.003626136
0.003518711
0.003737538
0.003554415
0.003518632
0.003739864
0.003562315
0.003517923
0.003736341
0.003609484
0.003519528
0.003738624
0.003559792
0.003518749
0.003737142
0.003617065
0.003520712
0.003738525
0.003553132
0.003518582
0.003739327
0.003611385
0.003518325
0.003737927
0.003552942
0.003518033
0.003741724
0.003626793
0.003518601
0.003741228
0.003557311
0.003518745
0.003742286
0.003636317
0.003521705
0.003739819
0.003567868
0.003514656
0.003755911
0.003559008
0.003513308
0.003746191
0.003761491
0.003507138
0.003507677
0.003746425
0.003749995
0.003761681
0.003507502
0.003507115
0.003753469
0.003749977
0.003763227
0.003507154
0.003507221
0.003752057
0.003750328
0.003762928
0.003507189
0.003507141
0.003752573
0.003750216
0.003507157
0.003752312
0.003516152
0.003628925
0.003523251
0.003740454
0.003742732
0.003523822
0.00361883
0.00352705
0.003739801
0.00373969
0.003527338
0.003612764
0.003527687
0.003740673
0.003739259
0.003528519
0.003611922
0.00352834
0.003740038
0.003739224
0.003528944
0.003611978
0.003528751
0.003739891
0.003739253
0.003529068
0.003611536
0.003528867
0.003739847
0.003739283
0.003529202
0.003610065
0.003528656
0.00373974
0.003739315
0.003529021
0.003609041
0.003528293
0.00373975
0.003739387
0.003528839
0.003607892
0.003527976
0.003739544
0.003739409
0.003528472
0.003609578
0.003527929
0.003739422
0.003739374
0.00352804
0.003607657
0.003527911
0.003739809
0.003739347
0.003528507
0.003606994
0.003527341
0.003739641
0.003739325
0.003527893
0.003606342
0.003527469
0.003739614
0.003739221
0.00352595
0.00355361
0.003527579
0.003739244
0.003739701
0.003526024
0.003555135
0.003525983
0.003739892
0.003739885
0.003527387
0.003553328
0.003527519
0.003739426
0.003510758
0.003532658
0.003751172
0.003746453
0.003750004
0.003750502
0.003761493
0.003507141
0.003507682
0.003753465
0.003749977
0.003767407
0.003761804
0.003507502
0.003507113
0.003752056
0.003750341
0.003765317
0.003763248
0.003507152
0.003507221
0.003752583
0.003750221
0.003766513
0.003762946
0.003507189
0.003507142
0.00375232
0.003765924
0.003507158
0.003524994
0.00372802
0.003518302
0.003732774
0.003524225
0.003723593
0.003525663
0.003732579
0.003524904
0.003723637
0.003524536
0.003731735
0.003525808
0.003722123
0.003524841
0.00373138
0.003526544
0.003722045
0.003524579
0.003731052
0.003526683
0.003721748
0.003524546
0.003730802
0.003526699
0.003721095
0.003524541
0.003730772
0.003526435
0.00372065
0.00352485
0.003730799
0.003526614
0.003720166
0.003524886
0.003730559
0.003526698
0.003731995
0.003524503
0.003730393
0.003526566
0.003719481
0.003525114
0.003730556
0.003526381
0.003724207
0.00352529
0.003730215
0.00352625
0.003719178
0.003525563
0.003729953
0.00352669
0.003730736
0.003525034
0.003729675
0.00352646
0.003726919
0.00352516
0.003729902
0.003526879
0.003730957
0.003525201
0.003729336
0.003526263
0.003724363
0.003525293
0.003729367
0.003527089
0.003730042
0.003524617
0.003729308
0.003527015
0.003727676
0.003524854
0.003728813
0.00352661
0.003729479
0.003524789
0.003728974
0.003526131
0.003723986
0.003524996
0.003729148
0.003527524
0.003726856
0.003524757
0.003729368
0.003525337
0.003723295
0.00352615
0.003729578
0.003538422
0.003527694
0.003543266
0.003549808
0.003566199
0.00355941
0.003566031
0.003555089
0.003566077
0.00355637
0.003567402
0.003560501
0.003562901
0.003558252
0.003544899
0.00354225
0.00352348
0.003541679
0.003529287
0.003608095
0.003528366
0.003739703
0.003739344
0.003528372
0.003606982
0.003527723
0.003739777
0.003739356
0.003528333
0.003608512
0.003528318
0.003739838
0.003739471
0.003528573
0.0036077
0.003528081
0.003739596
0.003740095
0.003526645
0.003606151
0.003526839
0.003739369
0.003739681
0.003527422
0.003586719
0.003524838
0.00373889
0.003739285
0.003530653
0.003605001
0.003530233
0.003739042
0.003738985
0.003521768
0.003766244
0.003516553
0.003743649
0.003517373
0.00372503
0.003530679
0.003723912
0.003522251
0.0035412
0.003524046
0.003732937
0.003520915
0.0037288
0.00352397
0.003732043
0.003524451
0.00372098
0.003524795
0.003731555
0.00352498
0.003723291
0.003524779
0.00373128
0.003525711
0.003722291
0.003524643
0.003731039
0.003526309
0.003722
0.003524543
0.003730953
0.003526448
0.003721282
0.003524628
0.003731113
0.003526413
0.003720698
0.003524792
0.003730832
0.003526305
0.003720319
0.003524771
0.003731294
0.003526826
0.003719986
0.003524897
0.003730698
0.003526512
0.003719764
0.003525066
0.003730302
0.003526434
0.003719385
0.003525436
0.003730257
0.003526232
0.003719105
0.003525687
0.003730336
0.003527119
0.003719242
0.003525812
0.003729964
0.003526752
0.003719389
0.003525582
0.003730247
0.003527118
0.00371868
0.003525551
0.003729179
0.003526949
0.003726488
0.003525799
0.003729864
0.003527594
0.003718902
0.003525647
0.003729367
0.003527434
0.00372146
0.003525626
0.003729102
0.003527209
0.003718152
0.003525541
0.003726938
0.003526681
0.003726524
0.003526939
0.003726561
0.003526299
0.003719075
0.003525652
0.003726599
0.003525989
0.003723646
0.003526932
0.003538609
0.003720696
0.003525068
0.003545134
0.003542669
0.003556858
0.003556272
0.00356885
0.003560857
0.003557596
0.003559012
0.003565293
0.003564724
0.003559205
0.003561723
0.003546776
0.003553186
0.003537366
0.003525845
0.00353114
0.003753933
0.003521429
0.003766259
0.00351648
0.00374514
0.003517803
0.003724954
0.003530871
0.003723099
0.003510935
0.003772105
0.003510483
0.003764378
0.003510382
0.003769058
0.00351072
0.003769846
0.003510564
0.003778007
0.003510127
0.003769258
0.003510451
0.003770054
0.00350993
0.003774901
0.00351057
0.003777578
0.003510112
0.003769133
0.003510297
0.003770537
0.003509865
0.003774868
0.003510577
0.003778352
0.003510147
0.003769566
0.003510391
0.003770415
0.003509839
0.003775223
0.003510573
0.003778041
0.00351013
0.003769443
0.003510345
0.003775112
0.003525033
0.003728099
0.003518379
0.003732742
0.003524166
0.003732931
0.003520882
0.003728822
0.003524057
0.003723785
0.003525675
0.003732577
0.00352396
0.003732304
0.003524569
0.003721204
0.003524814
0.003723779
0.003524535
0.003731846
0.003524782
0.003731658
0.003524931
0.003723352
0.00352579
0.003722375
0.003524832
0.003731373
0.003524756
0.003731256
0.003525835
0.003722386
0.003526466
0.003722154
0.003524491
0.003731186
0.003524638
0.003731078
0.003526312
0.00372204
0.003526574
0.00372198
0.003524542
0.003730919
0.00352451
0.003730826
0.003526442
0.003721361
0.003526744
0.003721289
0.003524424
0.003730852
0.00352459
0.003730836
0.003526499
0.003720734
0.0035267
0.003720825
0.00352466
0.003730745
0.003524666
0.003730556
0.00352683
0.003720218
0.003526274
0.003720413
0.003524831
0.003730535
0.003525363
0.003730129
0.003527064
0.003720883
0.003526625
0.003727672
0.003524897
0.003730433
0.003525296
0.003730189
0.003526676
0.003719156
0.00352587
0.003719444
0.003525317
0.003723822
0.003526087
0.003729639
0.003526883
0.003726677
0.003526767
0.003728272
0.003525064
0.003729552
0.003525787
0.003729939
0.003527778
0.003718914
0.003527053
0.003731042
0.003524927
0.003729125
0.003525804
0.003728654
0.003526414
0.003718848
0.003527398
0.00371776
0.003525767
0.003727562
0.003525115
0.003727037
0.00352539
0.003718045
0.003525005
0.003717646
0.003527812
0.003725957
0.003524763
0.003721865
0.003527624
0.0037184
0.003526771
0.003754208
0.003727978
0.00352546
0.003616812
0.003515345
0.003603073
0.003527405
0.003535825
0.003525197
0.003529792
0.003511029
0.003701877
0.003749519
0.00363376
0.003691998
0.003617175
0.003721213
0.003661514
0.003689459
0.003642628
0.003720116
0.003666107
0.003687848
0.003647728
0.003718969
0.003667617
0.003687054
0.003648899
0.003716416
0.003669341
0.003686524
0.003649847
0.003714984
0.003668537
0.003686204
0.003650362
0.003712203
0.003667991
0.003686036
0.003650654
0.003711171
0.003660796
0.003685833
0.003651006
0.003706896
0.003664788
0.003685992
0.003650669
0.003708902
0.003654295
0.003703512
0.003655727
0.003703491
0.003667124
0.003686086
0.003650694
0.003710402
0.003659014
0.003689084
0.003651595
0.003706076
0.003665782
0.003686289
0.003650716
0.00370915
0.003657631
0.00370756
0.003654633
0.003705227
0.003660855
0.003696047
0.003649953
0.003707179
0.003652096
0.003708241
0.003659463
0.003702659
0.003662948
0.003694721
0.003648633
0.00370758
0.003652967
0.003712235
0.003657481
0.00370118
0.003663334
0.003704625
0.003648677
0.00370748
0.003652194
0.003712591
0.003657417
0.003700276
0.003664963
0.003700348
0.003646003
0.003708824
0.003654395
0.003710252
0.003650144
0.003704717
0.003662217
0.003696884
0.003646049
0.003708163
0.003727884
0.003752992
0.003750697
0.003733403
0.003748828
0.003756155
0.003745862
0.003763156
0.003751978
0.003731718
0.003760114
0.003745606
0.00374739
0.003726868
0.003729217
0.003753487
0.003745494
0.003755943
0.003632647
0.003725935
0.003640269
0.003708105
0.003755521
0.003730425
0.003638892
0.003719982
0.003651471
0.003690049
0.003644398
0.003720127
0.003662615
0.003688264
0.003646195
0.003719927
0.003667348
0.003687088
0.003646789
0.003718685
0.003671281
0.003686572
0.003647423
0.003717993
0.003673072
0.003686187
0.003647797
0.003717089
0.003673952
0.003685984
0.003648422
0.003716361
0.003674044
0.003685797
0.003648513
0.003716735
0.003674474
0.003685726
0.003648471
0.003717522
0.003665257
0.003685815
0.00364849
0.003715788
0.003674238
0.003685615
0.003649223
0.003715826
0.003671221
0.003685509
0.003649027
0.003715398
0.003674321
0.003685426
0.003648148
0.003716916
0.003667472
0.003685552
0.003648919
0.003716368
0.003670572
0.00368539
0.003648297
0.003716023
0.003665859
0.003685522
0.003649184
0.003715994
0.00367036
0.003685331
0.003647199
0.003716733
0.003668619
0.003685424
0.003648978
0.003716048
0.003668541
0.003685293
0.003647311
0.003715697
0.00366827
0.003685446
0.003648804
0.003715028
0.003665533
0.003685312
0.003650189
0.003714533
0.003670181
0.00368511
0.003655061
0.003714246
0.003671366
0.00368471
0.003669614
0.00371523
0.00364935
0.003689823
0.003727552
0.003744542
0.003744777
0.003726897
0.003728024
0.003754727
0.003742533
0.003744934
0.00374811
0.003728068
0.003726418
0.00375163
0.003758057
0.003729945
0.00372709
0.003744202
0.003701606
0.003750404
0.003633434
0.003726046
0.00363994
0.003708471
0.003749684
0.003753337
0.003753066
0.00375118
0.003749924
0.003753501
0.003753105
0.003751482
0.003753156
0.003755855
0.003754055
0.003755958
0.00363392
0.003692383
0.003721304
0.003617109
0.003638812
0.003720026
0.003651266
0.003690119
0.003669111
0.003686689
0.00371501
0.003649602
0.003647296
0.003718079
0.003672461
0.003686263
0.003667835
0.003686344
0.003711752
0.003650174
0.003647672
0.003717703
0.003673224
0.003686049
0.003668604
0.003686253
0.00371206
0.003650435
0.003648059
0.003716544
0.003673609
0.003685863
0.003661254
0.003697546
0.003708123
0.003649608
0.003648717
0.003715569
0.003674929
0.003685423
0.003658232
0.003685393
0.003650618
0.00371109
0.003648792
0.003713571
0.003673377
0.003685291
0.003671166