/*--------------------------------*- C++ -*----------------------------------*\
  =========                 |
  \\      /  F ield         | OpenFOAM: The Open Source CFD Toolbox
   \\    /   O peration     | Website:  https://openfoam.org
    \\  /    A nd           | Version:  7
     \\/     M anipulation  |
\*---------------------------------------------------------------------------*/
FoamFile
{
    version     2.0;
    format      ascii;
    class       volScalarField;
    location    "0.07";
    object      nut;
}
// * * * * * * * * * * * * * * * * * * * * * * * * * * * * * * * * * * * * * //

dimensions      [0 2 -1 0 0 0 0];

internalField   nonuniform List<scalar> 
105056
(
0.0006557405
0.0006386632
0.0006371053
0.0006369701
0.0006370336
0.0006378539
0.0006067915
0.000603696
0.0006033979
0.0006034569
0.0006362464
0.0006037513
0.00060025
0.0005998559
0.0005999069
0.0006360505
0.0006033627
0.000599756
0.0005993228
0.0005993715
0.0006360044
0.0006032877
0.0005996463
0.0005991847
0.000599238
0.0006360058
0.0006032695
0.0005996148
0.0005991382
0.0005991937
0.0006360064
0.0006032667
0.0005996044
0.0005991184
0.0005991757
0.0006360069
0.0006032651
0.0005996003
0.0005991152
0.0005991703
0.0006360074
0.0006032635
0.0005995985
0.0005991162
0.0005991682
0.0006360107
0.000603263
0.0005995976
0.0005991188
0.0005991678
0.0006360102
0.0006032636
0.0005995982
0.0005991194
0.0005991679
0.0006360082
0.0006032643
0.0005995987
0.00059912
0.0005991679
0.0006360093
0.0006032655
0.0005995997
0.0005991187
0.0005991675
0.0006360114
0.0006032666
0.0005996004
0.0005991177
0.0005991674
0.0006360083
0.0006032659
0.0005996006
0.000599116
0.0005991674
0.0006360113
0.0006032696
0.0005996017
0.0005991139
0.0005991676
0.0006360096
0.0006032852
0.0005996057
0.0005991092
0.0005991684
0.0006360065
0.0006032846
0.0005996104
0.000599107
0.0005991707
0.0006360108
0.0006032874
0.0005996165
0.0005991124
0.0005991773
0.0006359986
0.0006033165
0.000599636
0.0005991293
0.000599197
0.0006360182
0.0006033629
0.0005996978
0.0005991963
0.0005992648
0.0006361086
0.0006035063
0.0005998957
0.0005994135
0.0005994778
0.0001012646
0.0006038344
0.0006003014
0.0005998492
0.0005999012
0.0005971786
0.0005973509
0.0005973773
0.0005974117
0.0005974296
0.0001008112
0.0001007191
0.0001006944
0.0001006941
0.0001006935
0.0001006933
0.0001007786
0.0001007013
0.0001006958
0.0001006932
0.0001006932
0.000100693
0.0001007472
0.0001006993
0.0001006959
0.0001006931
0.0001006932
0.000100693
0.0001007518
0.0001007016
0.0001006958
0.0001006932
0.0001006932
0.000100693
0.0001007507
0.0001007018
0.0001006959
0.0001006933
0.0001006932
0.000100693
0.00010075
0.0001007014
0.0001006962
0.0001006933
0.0001006932
0.000100693
0.0001007497
0.000100701
0.0001006963
0.0001006933
0.0001006932
0.000100693
0.0001007499
0.0001007006
0.0001006963
0.0001006932
0.0001006932
0.000100693
0.0001007496
0.0001007003
0.0001006964
0.0001006932
0.0001006932
0.000100693
0.0001007479
0.0001007004
0.0001006964
0.0001006932
0.0001006932
0.000100693
0.0001007481
0.0001007005
0.0001006964
0.0001006932
0.0001006932
0.000100693
0.0001007477
0.0001007007
0.0001006964
0.0001006933
0.0001006932
0.000100693
0.0001007467
0.000100701
0.0001006964
0.0001006933
0.0001006932
0.000100693
0.0001007421
0.0001007015
0.0001006964
0.0001006934
0.0001006932
0.000100693
0.000100741
0.0001007016
0.0001006964
0.0001006934
0.0001006932
0.000100693
0.0001007428
0.0001007018
0.0001006964
0.0001006934
0.0001006932
0.000100693
0.0001007396
0.0001007026
0.0001006964
0.0001006934
0.0001006932
0.000100693
0.0001007392
0.0001007026
0.0001006964
0.0001006934
0.0001006932
0.000100693
0.0001007397
0.0001007025
0.0001006963
0.0001006934
0.0001006932
0.000100693
0.0001007387
0.0001007032
0.0001006963
0.0001006934
0.0001006932
0.000100693
0.0001007483
0.000100703
0.0001006962
0.0001006934
0.0001006932
0.000100693
0.0001007512
0.0001007026
0.0001006962
0.0001006933
0.0001006932
0.000100693
0.0001007509
0.0001007013
0.0001006962
0.0001006932
0.0001006932
0.000100693
0.0005982029
0.0005977633
0.0005978273
0.0005979056
0.0005979026
0.0001007736
0.0001007014
0.0001006954
0.0001006933
0.0001006932
0.000100693
0.0001007642
0.0001007007
0.0001006923
0.0001006937
0.0001006929
0.0001006929
0.000100784
0.0001006967
0.0001006952
0.0001006933
0.0001006929
0.0001006928
0.0001007802
0.000100695
0.0001006955
0.0001006931
0.0001006929
0.0001006928
0.0001007749
0.0001006946
0.0001006974
0.0001006929
0.0001006931
0.0001006928
0.0001007725
0.0001006948
0.0001006972
0.0001006928
0.0001006932
0.0001006928
0.000100766
0.0001006954
0.000100697
0.0001006928
0.0001006932
0.0001006928
0.0001007646
0.000100696
0.0001006969
0.0001006928
0.0001006933
0.0001006928
0.0001007638
0.0001006964
0.0001006968
0.0001006928
0.0001006933
0.0001006928
0.0001007626
0.0001006968
0.0001006968
0.0001006928
0.0001006933
0.0001006928
0.0001007629
0.000100697
0.0001006968
0.0001006928
0.0001006933
0.0001006928
0.0001007635
0.0001006972
0.0001006969
0.0001006928
0.0001006934
0.0001006928
0.0001007642
0.0001006973
0.000100697
0.0001006928
0.0001006934
0.0001006928
0.0001007632
0.0001006974
0.0001006971
0.0001006928
0.0001006934
0.0001006928
0.0001007647
0.0001006975
0.0001006972
0.0001006928
0.0001006934
0.0001006928
0.0001007668
0.0001006976
0.0001006973
0.0001006928
0.0001006934
0.0001006928
0.0001007652
0.0001006974
0.0001006974
0.0001006928
0.0001006934
0.0001006928
0.000100765
0.0001006975
0.0001006974
0.0001006928
0.0001006934
0.0001006928
0.0001007653
0.0001006975
0.0001006973
0.0001006928
0.0001006934
0.0001006928
0.0001007639
0.0001006974
0.0001006973
0.0001006928
0.0001006934
0.0001006928
0.0001007634
0.0001006972
0.0001006972
0.0001006928
0.0001006934
0.0001006928
0.0001007637
0.0001006971
0.0001006972
0.0001006928
0.0001006934
0.0001006928
0.0001007752
0.0001006979
0.0001006969
0.0001006928
0.0001006933
0.0001006928
0.0005982416
0.0005980073
0.0005980545
0.000598152
0.0005981239
0.0001007425
0.000100698
0.0001006959
0.0001006931
0.0001006932
0.000100693
0.0001007734
0.0001006956
0.000100695
0.0001006934
0.0001006929
0.0001006928
0.0001007591
0.0001007007
0.0001006922
0.0001006938
0.0001006929
0.0001006929
0.0001007556
0.0001006998
0.0001006938
0.000100693
0.000100693
0.0001006928
0.0001007489
0.0001007021
0.0001006925
0.0001006939
0.000100693
0.0001006929
0.0001007533
0.0001007014
0.0001006924
0.000100694
0.0001006929
0.0001006929
0.0001007538
0.0001007005
0.0001006923
0.0001006941
0.0001006929
0.0001006929
0.0001007539
0.0001006996
0.0001006923
0.0001006941
0.0001006929
0.0001006929
0.0001007537
0.0001006991
0.0001006924
0.0001006942
0.0001006929
0.0001006929
0.0001007535
0.0001006988
0.0001006924
0.0001006942
0.0001006929
0.0001006929
0.0001007533
0.0001006985
0.0001006924
0.0001006943
0.0001006929
0.0001006929
0.000100753
0.0001006985
0.0001006924
0.0001006943
0.0001006929
0.0001006929
0.0001007522
0.0001006986
0.0001006924
0.0001006944
0.0001006929
0.000100693
0.0001007512
0.0001006987
0.0001006924
0.0001006945
0.0001006929
0.000100693
0.0001007505
0.0001006987
0.0001006924
0.0001006945
0.0001006929
0.000100693
0.0001007497
0.0001006987
0.0001006924
0.0001006946
0.0001006929
0.000100693
0.0001007495
0.0001006988
0.0001006924
0.0001006946
0.0001006929
0.000100693
0.0001007506
0.0001006987
0.0001006924
0.0001006946
0.0001006929
0.000100693
0.0001007521
0.0001006986
0.0001006924
0.0001006946
0.0001006929
0.000100693
0.0001007535
0.0001006985
0.0001006924
0.0001006945
0.0001006929
0.000100693
0.0001007541
0.0001006984
0.0001006924
0.0001006945
0.0001006929
0.000100693
0.0001007552
0.0001006983
0.0001006924
0.0001006944
0.0001006929
0.0001006929
0.000100754
0.000100698
0.0001006924
0.0001006943
0.0001006929
0.0001006929
0.0005982588
0.0005980515
0.0005981146
0.0005982232
0.0005981932
0.0001007668
0.0001006979
0.0001006958
0.0001006931
0.0001006932
0.000100693
0.0001007744
0.0001006942
0.0001006951
0.0001006931
0.0001006928
0.0001006928
0.0001007979
0.0001006992
0.0001006936
0.0001006929
0.000100693
0.0001006928
0.0001007467
0.0001006976
0.0001006922
0.0001006943
0.0001006929
0.0001006929
0.0001008015
0.0001006959
0.0001006927
0.0001006933
0.0001006929
0.0001006928
0.0001007623
0.0001006933
0.000100693
0.000100693
0.0001006928
0.0001006928
0.0001007608
0.0001006935
0.000100693
0.000100693
0.0001006928
0.0001006928
0.0001007608
0.0001006937
0.0001006929
0.000100693
0.0001006928
0.0001006928
0.0001007601
0.0001006938
0.0001006929
0.0001006931
0.0001006928
0.0001006928
0.0001007594
0.0001006938
0.0001006929
0.0001006931
0.0001006929
0.0001006928
0.000100759
0.0001006937
0.0001006929
0.0001006931
0.0001006929
0.0001006928
0.0001007605
0.0001006937
0.0001006929
0.000100693
0.0001006929
0.0001006928
0.0001007628
0.0001006936
0.0001006929
0.0001006929
0.0001006929
0.0001006928
0.0001007652
0.0001006935
0.0001006929
0.0001006929
0.0001006929
0.0001006928
0.0001007678
0.0001006935
0.0001006929
0.0001006929
0.0001006929
0.0001006928
0.0001007693
0.0001006934
0.0001006929
0.0001006929
0.0001006929
0.0001006928
0.0001007686
0.0001006934
0.000100693
0.0001006929
0.0001006929
0.0001006928
0.0001007668
0.0001006934
0.000100693
0.0001006929
0.0001006929
0.0001006928
0.0001007652
0.0001006934
0.0001006929
0.0001006928
0.0001006929
0.0001006928
0.0001007638
0.0001006934
0.0001006929
0.0001006929
0.0001006929
0.0001006928
0.0001007617
0.0001006934
0.0001006929
0.0001006928
0.0001006929
0.0001006928
0.0001007583
0.0001006932
0.0001006929
0.0001006928
0.0001006929
0.0001006928
0.0001008511
0.0001006923
0.0001006931
0.0001006928
0.0001006929
0.0001006928
0.0005982624
0.0005980406
0.0005981107
0.0005981922
0.0005981945
0.0001007711
0.0001006977
0.0001006958
0.0001006931
0.0001006932
0.000100693
0.0001007729
0.0001006941
0.0001006951
0.0001006931
0.0001006928
0.0001006928
0.0001007465
0.0001006992
0.0001006936
0.0001006929
0.000100693
0.0001006928
0.0001007635
0.0001006974
0.0001006922
0.0001006943
0.0001006929
0.0001006929
0.000100744
0.0001006953
0.0001006928
0.0001006933
0.0001006929
0.0001006928
0.0001007407
0.000100693
0.000100693
0.000100693
0.0001006928
0.0001006928
0.0001007394
0.0001006933
0.000100693
0.000100693
0.0001006928
0.0001006928
0.0001007381
0.0001006936
0.0001006929
0.000100693
0.0001006928
0.0001006928
0.0001007382
0.0001006936
0.0001006929
0.000100693
0.0001006928
0.0001006928
0.0001007395
0.0001006936
0.0001006929
0.0001006931
0.0001006929
0.0001006928
0.0001007414
0.0001006934
0.0001006929
0.000100693
0.0001006929
0.0001006928
0.000100743
0.0001006933
0.0001006929
0.000100693
0.0001006929
0.0001006928
0.0001007446
0.0001006931
0.0001006929
0.0001006928
0.0001006929
0.0001006928
0.0001007458
0.000100693
0.0001006929
0.0001006928
0.0001006929
0.0001006928
0.000100747
0.000100693
0.0001006929
0.0001006928
0.0001006929
0.0001006928
0.0001007478
0.0001006929
0.0001006929
0.0001006928
0.0001006929
0.0001006928
0.0001007481
0.0001006928
0.0001006929
0.0001006928
0.0001006929
0.0001006928
0.0001007475
0.0001006928
0.0001006929
0.0001006928
0.0001006929
0.0001006928
0.0001007464
0.0001006929
0.0001006929
0.0001006928
0.0001006929
0.0001006928
0.0001007453
0.000100693
0.0001006929
0.0001006928
0.0001006929
0.0001006928
0.0001007437
0.000100693
0.0001006929
0.0001006928
0.0001006929
0.0001006928
0.0001007416
0.0001006931
0.0001006929
0.0001006929
0.0001006929
0.0001006928
0.0001007594
0.000100692
0.000100693
0.0001006928
0.0001006929
0.0001006928
0.0005983416
0.0005980077
0.0005980792
0.0005981573
0.0005981573
0.0001007413
0.000100698
0.0001006959
0.000100693
0.0001006932
0.000100693
0.000100765
0.0001006953
0.000100695
0.0001006934
0.0001006929
0.0001006928
0.000100796
0.0001007005
0.0001006922
0.0001006938
0.0001006929
0.0001006929
0.000100843
0.0001006998
0.0001006937
0.000100693
0.000100693
0.0001006928
0.0001007849
0.0001007021
0.0001006924
0.000100694
0.000100693
0.0001006929
0.000100746
0.0001007014
0.0001006923
0.000100694
0.0001006929
0.0001006929
0.0001007423
0.0001007003
0.0001006922
0.0001006941
0.0001006929
0.0001006929
0.0001007416
0.0001006994
0.0001006923
0.0001006941
0.0001006929
0.0001006929
0.0001007414
0.0001006989
0.0001006923
0.0001006942
0.0001006929
0.0001006929
0.000100741
0.0001006986
0.0001006923
0.0001006942
0.0001006929
0.0001006929
0.0001007408
0.0001006984
0.0001006923
0.0001006943
0.0001006929
0.0001006929
0.0001007407
0.0001006984
0.0001006923
0.0001006943
0.0001006929
0.0001006929
0.0001007408
0.0001006984
0.0001006923
0.0001006944
0.0001006929
0.000100693
0.0001007406
0.0001006985
0.0001006923
0.0001006944
0.0001006929
0.000100693
0.0001007406
0.0001006984
0.0001006923
0.0001006945
0.0001006929
0.000100693
0.0001007408
0.0001006985
0.0001006923
0.0001006945
0.0001006929
0.000100693
0.0001007406
0.0001006985
0.0001006923
0.0001006945
0.0001006929
0.000100693
0.0001007401
0.0001006985
0.0001006923
0.0001006945
0.0001006929
0.000100693
0.0001007395
0.0001006984
0.0001006923
0.0001006945
0.0001006929
0.000100693
0.0001007393
0.0001006983
0.0001006923
0.0001006945
0.0001006929
0.000100693
0.0001007391
0.0001006981
0.0001006923
0.0001006944
0.0001006929
0.000100693
0.0001007382
0.0001006981
0.0001006923
0.0001006944
0.0001006929
0.0001006929
0.0001007374
0.0001006981
0.0001006923
0.0001006943
0.0001006929
0.0001006929
0.0005983095
0.0005978885
0.0005978934
0.0005979782
0.0005979718
0.0001007649
0.000100701
0.0001006955
0.0001006933
0.0001006932
0.000100693
0.0001008162
0.0001007008
0.0001006923
0.0001006937
0.0001006929
0.0001006929
0.0001008428
0.0001006964
0.0001006952
0.0001006933
0.0001006929
0.0001006928
0.000100772
0.0001006946
0.0001006956
0.0001006931
0.0001006929
0.0001006928
0.0001007599
0.0001006942
0.0001006975
0.0001006928
0.0001006931
0.0001006928
0.0001007499
0.0001006945
0.0001006972
0.0001006928
0.0001006932
0.0001006928
0.0001007487
0.0001006951
0.0001006971
0.0001006928
0.0001006932
0.0001006928
0.0001007481
0.0001006957
0.0001006969
0.0001006928
0.0001006933
0.0001006928
0.0001007478
0.0001006961
0.0001006968
0.0001006928
0.0001006933
0.0001006928
0.0001007475
0.0001006965
0.0001006968
0.0001006928
0.0001006933
0.0001006928
0.0001007477
0.0001006967
0.0001006968
0.0001006928
0.0001006933
0.0001006928
0.0001007478
0.0001006969
0.0001006968
0.0001006928
0.0001006934
0.0001006928
0.0001007486
0.0001006969
0.0001006969
0.0001006928
0.0001006934
0.0001006928
0.0001007485
0.0001006972
0.000100697
0.0001006928
0.0001006934
0.0001006928
0.0001007492
0.0001006972
0.0001006971
0.0001006928
0.0001006934
0.0001006928
0.000100749
0.0001006973
0.0001006972
0.0001006928
0.0001006934
0.0001006928
0.0001007501
0.0001006972
0.0001006972
0.0001006928
0.0001006934
0.0001006928
0.0001007505
0.0001006972
0.0001006973
0.0001006928
0.0001006934
0.0001006928
0.0001007503
0.0001006971
0.0001006973
0.0001006928
0.0001006934
0.0001006928
0.0001007503
0.0001006966
0.0001006972
0.0001006928
0.0001006934
0.0001006928
0.0001007492
0.0001006973
0.0001006972
0.0001006928
0.0001006934
0.0001006928
0.0001007487
0.0001006972
0.0001006971
0.0001006928
0.0001006933
0.0001006928
0.0001007478
0.0001006975
0.0001006968
0.0001006928
0.0001006933
0.0001006928
0.0005986563
0.000598679
0.0005986705
0.0005987625
0.0005987441
0.0001009801
0.000100719
0.0001006943
0.0001006941
0.0001006935
0.0001006933
0.0001008756
0.0001007012
0.0001006958
0.0001006932
0.0001006932
0.000100693
0.0001007638
0.0001006991
0.0001006959
0.0001006931
0.0001006932
0.000100693
0.0001007457
0.0001007014
0.0001006957
0.0001006931
0.0001006932
0.000100693
0.0001007466
0.0001007015
0.0001006959
0.0001006933
0.0001006932
0.000100693
0.0001007464
0.0001007012
0.0001006962
0.0001006933
0.0001006932
0.000100693
0.0001007463
0.0001007007
0.0001006963
0.0001006932
0.0001006932
0.000100693
0.0001007456
0.0001007004
0.0001006963
0.0001006932
0.0001006932
0.000100693
0.0001007454
0.0001007002
0.0001006963
0.0001006932
0.0001006932
0.000100693
0.0001007454
0.0001007001
0.0001006963
0.0001006932
0.0001006932
0.000100693
0.000100748
0.0001007005
0.0001006964
0.0001006932
0.0001006932
0.000100693
0.0001007478
0.0001007006
0.0001006964
0.0001006933
0.0001006932
0.000100693
0.0001007547
0.000100701
0.0001006964
0.0001006933
0.0001006932
0.000100693
0.0001007476
0.0001007009
0.0001006964
0.0001006933
0.0001006932
0.000100693
0.0001007571
0.0001007016
0.0001006964
0.0001006934
0.0001006932
0.000100693
0.0001007501
0.0001007015
0.0001006964
0.0001006934
0.0001006932
0.000100693
0.0001007493
0.0001007022
0.0001006964
0.0001006934
0.0001006932
0.000100693
0.000100744
0.0001007021
0.0001006963
0.0001006934
0.0001006932
0.000100693
0.0001007563
0.0001007027
0.0001006963
0.0001006934
0.0001006932
0.000100693
0.0001007555
0.0001007034
0.0001006961
0.0001006934
0.0001006932
0.000100693
0.0001007432
0.0001007021
0.0001006962
0.0001006933
0.0001006932
0.000100693
0.0001007433
0.0001007021
0.0001006962
0.0001006933
0.0001006932
0.000100693
0.0001007434
0.0001007012
0.0001006962
0.0001006933
0.0001006932
0.000100693
0.0002122747
0.0002100414
0.0002099413
0.0002099804
0.0002099636
0.0001013469
0.0001013905
0.0001012003
0.0001010079
0.0001010605
0.0001010318
0.0001009369
0.0001013258
0.0001011178
0.0001008815
0.0001009754
0.0001009475
0.0001009038
0.0001012222
0.0001011462
0.0001008873
0.0001009791
0.0001009449
0.0001008981
0.0001012001
0.0001011581
0.0001008782
0.0001009728
0.0001009402
0.0001008983
0.0001012236
0.0001011684
0.0001008867
0.0001009752
0.0001009377
0.0001008985
0.0001012354
0.0001011762
0.0001008911
0.0001009736
0.0001009364
0.0001008984
0.0001012355
0.0001011758
0.0001008977
0.0001009735
0.0001009362
0.0001008981
0.0001012412
0.0001011752
0.0001008978
0.0001009738
0.0001009364
0.0001008979
0.0001012398
0.000101174
0.0001008962
0.0001009747
0.000100938
0.0001008979
0.000101249
0.0001011719
0.0001008956
0.0001009756
0.0001009389
0.0001008987
0.0001012458
0.0001011702
0.0001008962
0.0001009764
0.0001009394
0.0001008988
0.0001012431
0.0001011692
0.0001008967
0.0001009773
0.0001009394
0.0001008995
0.0001012373
0.0001011692
0.0001008966
0.0001009778
0.000100939
0.0001008987
0.0001012486
0.0001011688
0.0001008985
0.000100978
0.0001009383
0.0001008995
0.0001012426
0.0001011669
0.0001008997
0.0001009778
0.0001009376
0.0001008993
0.0001012382
0.0001011653
0.0001008997
0.000100978
0.0001009372
0.0001008994
0.0001012459
0.0001011621
0.0001008978
0.0001009782
0.0001009374
0.0001008993
0.0001012368
0.0001011562
0.0001008963
0.0001009792
0.0001009368
0.000100901
0.0001012019
0.0001011443
0.0001009106
0.0001009767
0.0001009336
0.0001019403
0.0001011754
0.0001011419
0.0001009065
0.0001009778
0.0001009332
0.0001010778
0.0001012664
0.0001011492
0.0001008914
0.0001009804
0.0001009373
0.0001019785
0.0001012657
0.0001011482
0.000100894
0.0001009782
0.0001009328
0.0001021052
0.0001012566
0.0001011569
0.0001009033
0.0001009768
0.0001009292
0.0003039588
0.0001882141
0.0001008508
0.0001007765
0.0003056612
0.0002942895
0.0001013441
0.0001008332
0.0001025296
0.0001009148
0.0002938701
0.000293622
0.0001009316
0.0001009506
0.0001023726
0.0001010059
0.0002936585
0.0002935727
0.0001009028
0.0001010114
0.0001022375
0.0001010168
0.0002936008
0.0002935659
0.0001008972
0.0001010293
0.0001022039
0.0001010271
0.0002935963
0.0002935653
0.0001008974
0.0001010368
0.0001021843
0.0001010332
0.0002935915
0.0002935656
0.0001008975
0.0001010387
0.0001021707
0.0001010361
0.0002935875
0.000293567
0.0001008975
0.0001010402
0.0001021394
0.0001010346
0.0002935861
0.0002935692
0.0001008975
0.0001010341
0.0001021159
0.0001010264
0.0002935879
0.0002935712
0.0001008975
0.0001010306
0.0001020997
0.0001010278
0.0002935999
0.00029357
0.0001008981
0.0001010312
0.0001021119
0.0001010257
0.0002935882
0.0002935707
0.0001008975
0.0001010274
0.0001021022
0.0001010238
0.0002935888
0.00029357
0.0001008978
0.0001010262
0.0001020771
0.0001010212
0.0002935858
0.0002935702
0.0001008977
0.0001010263
0.0001020723
0.000101021
0.000293592
0.0002935735
0.0001008989
0.0001010279
0.000102081
0.0001010244
0.0002935762
0.0002935692
0.0001008989
0.0001010296
0.0001020948
0.0001010188
0.0002935878
0.0002935685
0.0001008988
0.0001010244
0.000102061
0.0001010186
0.0002935765
0.0002935823
0.0001008992
0.0001010274
0.000102009
0.0001010103
0.0002935686
0.0002935783
0.0001008991
0.0001010236
0.0001020348
0.0001010133
0.0002935762
0.0002935683
0.0001008988
0.0001010165
0.0001020456
0.0001010134
0.0002935716
0.0002935879
0.0001009104
0.0001010201
0.0001010196
0.0001009918
0.0002935464
0.000293577
0.0001018531
0.0001010281
0.0001010483
0.0001010049
0.0002935598
0.0002936305
0.0001019924
0.0001010274
0.000100991
0.0001010254
0.0002936325
0.0001015932
0.0001016871
0.0001010296
0.0001009106
0.0001010145
0.000212254
0.0001013104
0.0001008031
0.0002099559
0.0001026441
0.0001009017
0.0002098961
0.0001010236
0.0001008761
0.000209893
0.0001024746
0.0001008673
0.0002097567
0.0001009362
0.0001008657
0.0002098298
0.0001010939
0.0001008513
0.0002097253
0.0001021215
0.000100868
0.0002097883
0.0001010416
0.0001008661
0.0002097401
0.0001022847
0.000100884
0.0002097835
0.0001009068
0.0001008646
0.0002098161
0.0001021658
0.0001008631
0.0002097816
0.000100905
0.0001008557
0.0002098908
0.000102484
0.0001008647
0.0002098839
0.0001010007
0.0001008627
0.0002099296
0.0001026345
0.0001008991
0.0002122506
0.0001013233
0.0001008037
0.0001882237
0.0001008506
0.0001007765
0.000303958
0.0002098846
0.0001006825
0.0001007039
0.0003059324
0.0002945852
0.0002098287
0.0001007033
0.0001006969
0.0002944477
0.0002940548
0.0002098792
0.000100698
0.0001006983
0.0002941337
0.0002940416
0.0002098704
0.0001006984
0.0001006972
0.0002941386
0.0002940386
0.000100698
0.0002941339
0.0001008335
0.0001025279
0.0001009151
0.0003056649
0.000294289
0.0001009503
0.0001023709
0.0001010057
0.0002938708
0.0002936234
0.0001010105
0.0001022384
0.0001010161
0.000293653
0.0002935737
0.0001010298
0.0001022074
0.0001010269
0.0002936038
0.0002935664
0.0001010363
0.0001021941
0.0001010333
0.0002935964
0.0002935659
0.0001010382
0.0001021786
0.0001010348
0.0002935934
0.0002935652
0.0001010401
0.000102142
0.0001010318
0.0002935866
0.0002935664
0.0001010378
0.0001021209
0.0001010266
0.000293587
0.00029357
0.0001010349
0.0001020854
0.0001010229
0.0002935764
0.0002935706
0.0001010292
0.0001021192
0.0001010212
0.0002935719
0.0002935691
0.0001010227
0.0001020775
0.0001010221
0.0002935882
0.0002935678
0.0001010303
0.0001020648
0.0001010139
0.0002935816
0.0002935667
0.0001010206
0.000102059
0.0001010146
0.0002935807
0.0002935617
0.0001009927
0.0001009158
0.0001010153
0.0002935679
0.0002935919
0.0001009951
0.000100954
0.0001009921
0.0002936049
0.0002936353
0.0001010135
0.0001009085
0.0001010169
0.0002936426
0.0001011334
0.0001018879
0.0001455693
0.0003059329
0.0002945851
0.0002122656
0.000209885
0.0001006826
0.0001007039
0.0002944479
0.0002940551
0.0002100423
0.0002098325
0.0001007033
0.0001006968
0.0002941328
0.0002940406
0.0002099437
0.0002098799
0.000100698
0.0001006983
0.000294138
0.0002940372
0.0002099829
0.0002098713
0.0001006985
0.0001006972
0.0002941334
0.0002099658
0.000100698
0.0001007575
0.000142768
0.0001006349
0.0001426516
0.0001007584
0.0001423744
0.0001007559
0.0001425639
0.0001007774
0.000142369
0.0001007593
0.0001425385
0.000100798
0.0001423365
0.0001007643
0.0001425298
0.0001008163
0.0001423345
0.0001007592
0.0001425229
0.000100819
0.0001423281
0.0001007578
0.000142518
0.0001008184
0.0001423148
0.0001007572
0.0001425175
0.0001008119
0.0001423057
0.0001007644
0.0001425189
0.0001008159
0.0001422958
0.0001007652
0.0001425134
0.0001008174
0.0001425507
0.0001007564
0.0001425107
0.0001008142
0.0001422824
0.0001007707
0.0001425136
0.0001008098
0.0001423819
0.0001007751
0.0001425069
0.0001008068
0.0001422759
0.0001007816
0.0001425017
0.0001008157
0.0001425247
0.0001007665
0.0001424967
0.0001008119
0.0001424397
0.0001007713
0.0001425017
0.0001008191
0.0001425299
0.000100772
0.0001424912
0.0001008078
0.0001423855
0.0001007747
0.0001424909
0.0001008227
0.0001425111
0.0001007415
0.0001424905
0.0001008214
0.0001424587
0.0001007629
0.0001424783
0.0001008145
0.000142498
0.0001007474
0.0001424826
0.0001008046
0.0001423781
0.0001007769
0.0001424808
0.000100835
0.0001424417
0.0001007663
0.000142487
0.0001007892
0.000142365
0.0001007997
0.0001425038
0.0001019503
0.000101516
0.0001016931
0.000102072
0.0001023842
0.0001023373
0.0001024242
0.0001021812
0.0001024282
0.0001021379
0.0001024654
0.0001022191
0.0001024893
0.000102067
0.0001019593
0.0001018263
0.0001014747
0.0001020735
0.0001010423
0.0001020975
0.0001010277
0.0002935848
0.0002935665
0.0001010277
0.000102069
0.0001010181
0.0002935865
0.0002935671
0.0001010269
0.0001020974
0.0001010275
0.0002935884
0.0002935724
0.0001010312
0.00010208
0.0001010247
0.0002935793
0.0002936012
0.0001010037
0.0001020497
0.0001010049
0.0002935686
0.0002935842
0.000101013
0.000101598
0.0001009865
0.0002935485
0.0002935649
0.0001010503
0.0001020219
0.0001010433
0.0002935573
0.0002935578
0.0001010989
0.0001436987
0.000100915
0.0001482482
0.0001006008
0.000142866
0.0001009099
0.0001478521
0.0001014154
0.0001020985
0.0001007405
0.0001425823
0.000100689
0.0001425291
0.0001007456
0.0001425474
0.0001007645
0.000142319
0.0001007641
0.0001425344
0.0001007789
0.0001423613
0.0001007634
0.0001425276
0.000100797
0.00014234
0.0001007598
0.000142523
0.0001008115
0.0001423336
0.0001007567
0.0001425211
0.0001008132
0.0001423189
0.0001007584
0.0001425252
0.0001008117
0.000142307
0.0001007623
0.0001425192
0.000100809
0.0001422992
0.0001007621
0.0001425323
0.0001008199
0.0001422919
0.0001007649
0.0001425166
0.0001008123
0.0001422879
0.0001007691
0.0001425097
0.0001008107
0.0001422805
0.0001007781
0.0001425079
0.0001008057
0.0001422746
0.0001007845
0.0001425118
0.0001008256
0.0001422767
0.0001007875
0.0001425038
0.000100817
0.0001422794
0.0001007815
0.000142511
0.0001008255
0.0001422643
0.0001007804
0.0001424868
0.0001008207
0.0001424306
0.0001007865
0.0001425033
0.0001008332
0.0001422678
0.0001007835
0.0001424918
0.0001008309
0.0001423229
0.000100784
0.0001424867
0.0001008282
0.0001422531
0.0001007697
0.0001424377
0.0001008125
0.0001424321
0.0001008209
0.0001424316
0.0001007975
0.0001422707
0.0001007967
0.0001424358
0.0001007813
0.0001423695
0.0001008176
0.0001014474
0.0001423225
0.000100755
0.0001019275
0.0001018074
0.0001022963
0.0001020764
0.0001024577
0.0001023953
0.0001021497
0.0001023547
0.0001023353
0.000102473
0.0001020951
0.0001023598
0.0001018136
0.000102139
0.0001019163
0.0001014051
0.0001018648
0.0001456178
0.0001010852
0.0001436942
0.000100914
0.0001482778
0.0001006141
0.0001428683
0.000100916
0.0001478323
0.0001008308
0.0001436706
0.0001009011
0.0001432885
0.0001008893
0.0001433024
0.0001008204
0.000143373
0.0001008396
0.0001434841
0.0001009164
0.0001433046
0.0001009119
0.0001433126
0.0001008255
0.0001434196
0.0001008382
0.0001434684
0.0001009236
0.0001432976
0.0001009076
0.0001433225
0.0001008219
0.0001434147
0.0001008404
0.0001434844
0.0001009245
0.0001433068
0.0001009116
0.0001433198
0.0001008236
0.0001434222
0.0001008392
0.0001434777
0.000100924
0.000143304
0.00010091
0.0001434214
0.0001007578
0.0001427711
0.0001006372
0.0001426519
0.0001007433
0.0001425816
0.0001006883
0.0001425306
0.000100755
0.0001423775
0.0001007564
0.0001425637
0.0001007454
0.0001425513
0.0001007674
0.000142324
0.0001007761
0.0001423706
0.0001007591
0.0001425399
0.0001007645
0.0001425358
0.0001007776
0.0001423617
0.0001007981
0.000142341
0.0001007654
0.0001425293
0.0001007632
0.0001425268
0.0001008001
0.0001423414
0.0001008148
0.0001423364
0.0001007573
0.0001425253
0.0001007599
0.0001425234
0.0001008116
0.000142334
0.0001008167
0.0001423324
0.0001007581
0.0001425201
0.0001007561
0.0001425181
0.0001008138
0.00014232
0.0001008195
0.0001423185
0.0001007546
0.0001425186
0.0001007574
0.0001425185
0.0001008139
0.0001423075
0.0001008178
0.0001423092
0.00010076
0.0001425168
0.0001007591
0.0001425122
0.0001008206
0.0001422972
0.0001008073
0.0001423131
0.0001007654
0.000142515
0.000100776
0.0001425061
0.0001008237
0.0001423097
0.0001008145
0.0001424556
0.0001007646
0.0001425113
0.0001007752
0.0001425059
0.000100816
0.0001422747
0.0001008046
0.0001422931
0.0001007775
0.0001423687
0.0001007774
0.0001424996
0.0001008195
0.000142435
0.0001008181
0.0001424684
0.0001007686
0.0001424942
0.0001007863
0.000142503
0.0001008395
0.0001422688
0.0001008221
0.0001425323
0.0001007538
0.0001424845
0.0001007872
0.000142474
0.0001008105
0.0001422681
0.0001008274
0.0001422426
0.0001007881
0.0001424503
0.0001007795
0.0001424413
0.000100781
0.0001422491
0.000100768
0.0001422425
0.0001008334
0.0001424317
0.0001007475
0.0001423457
0.0001008323
0.0001422724
0.0001008109
0.0001463714
0.0001424836
0.000100782
0.0001022742
0.0001016999
0.0001019892
0.0001010136
0.0001011761
0.0001007688
0.0001010356
0.0001011779
0.000182769
0.0001692881
0.0001046688
0.0001478364
0.0001043555
0.0001484384
0.0001050943
0.0001477956
0.0001049387
0.0001484243
0.000105077
0.0001477627
0.0001049417
0.0001484013
0.0001051574
0.0001477467
0.0001049829
0.0001483517
0.0001052058
0.0001477359
0.0001050101
0.0001483239
0.0001052424
0.0001477294
0.000105027
0.0001482694
0.0001052562
0.000147726
0.0001050357
0.0001482492
0.0001052509
0.0001477218
0.0001050535
0.0001481656
0.0001052616
0.0001477251
0.0001050393
0.0001482048
0.0001051022
0.000148082
0.0001050462
0.0001480983
0.0001052711
0.000147727
0.0001050419
0.0001482342
0.0001052411
0.0001477875
0.000105046
0.0001481496
0.0001052773
0.0001477311
0.000105046
0.0001482096
0.0001051417
0.0001481629
0.0001050563
0.0001481327
0.0001052176
0.000147929
0.0001050197
0.0001481709
0.0001050571
0.0001481774
0.0001050868
0.0001480816
0.0001052361
0.0001479019
0.0001049998
0.0001481788
0.0001050516
0.0001482588
0.0001051292
0.0001480528
0.0001052098
0.0001481033
0.0001050067
0.000148177
0.0001050346
0.0001482668
0.0001051309
0.0001480344
0.0001052567
0.0001480163
0.0001049746
0.0001482035
0.0001050977
0.0001482177
0.0001050383
0.0001481226
0.0001052459
0.0001479462
0.0001050108
0.0001481906
0.0001740641
0.0001739031
0.000174732
0.0001736498
0.000174512
0.0001746905
0.0001744455
0.0001746314
0.0001747991
0.0001735357
0.0001745253