/*--------------------------------*- C++ -*----------------------------------*\
  =========                 |
  \\      /  F ield         | OpenFOAM: The Open Source CFD Toolbox
   \\    /   O peration     | Website:  https://openfoam.org
    \\  /    A nd           | Version:  7
     \\/     M anipulation  |
\*---------------------------------------------------------------------------*/
FoamFile
{
    version     2.0;
    format      ascii;
    class       volVectorField;
    location    "0.07";
    object      U;
}
// * * * * * * * * * * * * * * * * * * * * * * * * * * * * * * * * * * * * * //

dimensions      [0 1 -1 0 0 0 0];

internalField   nonuniform List<vector> 
82743
(
(0.7580353 -2.411172 -0.02230065)
(0.5496496 -2.360033 -0.03098398)
(0.4850512 -2.146539 -0.0666302)
(0.4041795 -1.991264 -0.05290004)
(0.3508276 -1.780603 -0.04975207)
(0.2735746 -1.630994 -0.04993454)
(0.2079604 -1.499368 -0.04678219)
(0.1507312 -1.419709 -0.0471822)
(0.1132751 -1.353875 -0.04407503)
(0.8891401 -2.266322 0.01948943)
(0.7178257 -2.219469 0.01786203)
(0.6704305 -2.049219 -0.01254145)
(0.6014292 -1.904569 -0.004008802)
(0.5440112 -1.678958 -0.003075312)
(0.4216659 -1.523955 -0.003083414)
(0.3168721 -1.403472 -0.003328299)
(0.2277262 -1.346826 -0.003240939)
(0.1691619 -1.2944 -0.002745976)
(0.9538299 -2.183294 0.01177597)
(0.824078 -2.151664 0.02252784)
(0.8111802 -2.013823 -0.009066797)
(0.7940035 -1.87079 0.002309877)
(0.7462928 -1.584882 0.005434952)
(0.5622963 -1.408442 0.001970989)
(0.3999421 -1.301104 0.0008683394)
(0.2698954 -1.267309 0.002114348)
(0.197913 -1.247903 0.004081734)
(0.995747 -2.128129 0.02118367)
(0.897148 -2.114637 0.02130492)
(0.9227885 -2.001693 -0.0061354)
(1.016559 -1.862979 0.01052558)
(1.033252 -1.448156 0.0195349)
(0.7403881 -1.187163 0.01342898)
(0.4554153 -1.098902 0.0167372)
(0.2635207 -1.149327 0.01814293)
(0.1877972 -1.163579 0.01918733)
(1.026168 -2.106707 0.008326154)
(0.9353435 -2.113218 0.01537283)
(1.023305 -2.102936 -0.00938421)
(1.269921 -2.040071 0.004331803)
(1.568139 -1.212708 -0.01627399)
(0.9310649 -0.8516582 -0.005510617)
(0.4004089 -0.8289759 0.01634856)
(0.1533604 -1.006401 0.01721616)
(0.09649698 -1.152058 0.03058473)
(1.029113 -2.098432 0.007553449)
(0.9571007 -2.163408 0.02235339)
(1.055115 -2.293847 -0.02276999)
(1.146366 -2.365417 -0.05598984)
(2.319505 -1.316552 -0.05808864)
(1.076561 -0.2052201 -0.04169111)
(0.5117448 -0.3626918 0.03285693)
(-0.1761715 -0.827331 0.03261027)
(0.07038512 -1.095868 0.03566827)
(0.9642666 -2.062351 0.001032052)
(0.7833929 -2.149337 0.02348803)
(0.7580621 -2.312453 -0.03058708)
(0.7069455 -2.558418 -0.04935885)
(0.2386152 -3.583264 -0.01436494)
(-0.01410474 -1.164073 -0.02632093)
(0.9196884 -1.928582 0.001918992)
(0.6711547 -2.000702 0.01876794)
(0.566065 -2.093193 -0.02278286)
(0.3941141 -2.223575 -0.03382153)
(0.05607207 -2.629626 -0.003152258)
(0.06881941 -1.330428 -0.005183364)
(0.8805997 -1.772458 0.001470549)
(0.6129365 -1.821858 0.01596716)
(0.4783148 -1.866199 -0.01188899)
(0.2693651 -1.903136 -0.02401312)
(0.04129837 -2.216728 0.001319671)
(0.0831524 -1.340665 -3.644984e-05)
(0.8664239 -1.590367 0.002745768)
(0.5838442 -1.617526 0.01500879)
(0.4369275 -1.639854 -0.009536905)
(0.243634 -1.651429 -0.02723658)
(0.03102744 -1.90895 -0.002181999)
(0.09164532 -1.415916 0.0006353938)
(0.8609857 -1.404341 0.009187493)
(0.5933657 -1.417399 0.01125332)
(0.4418324 -1.412756 -0.007431591)
(0.2559911 -1.432598 -0.02646692)
(0.01346185 -1.625813 -0.02027486)
(0.1090142 -1.496802 -0.03366492)
(0.8716146 -1.229993 0.01471204)
(0.6401765 -1.219367 0.006506289)
(0.4851016 -1.193547 -0.006376143)
(0.2893962 -1.203342 -0.02884782)
(0.01274024 -1.338398 -0.02847126)
(0.07100692 -1.535333 0.02116505)
(0.9058362 -1.083187 0.007497825)
(0.7127069 -1.039317 0.003888271)
(0.579395 -0.9524118 -0.02025095)
(0.3918466 -0.9460592 -0.03970925)
(0.01976242 -0.989757 -0.03305576)
(0.2103955 -2.016465 -0.002963337)
(0.9334978 -0.9630768 0.01422556)
(0.7525491 -0.9094009 0.01505377)
(0.7159366 -0.7887697 -0.03006271)
(0.5804318 -0.6558531 -0.04826235)
(0.3722722 -0.14961 0.02423274)
(1.059219 -0.02929992 0.001939091)
(1.442176 -0.05634085 -0.003635739)
(2.476138 -0.3049725 -0.01661152)
(1.183222 -1.701482 -0.08504)
(0.9653842 -0.8805253 0.0252122)
(0.8376985 -0.8415069 0.02095227)
(0.8263012 -0.7445729 -0.02066973)
(0.7996803 -0.6536 -0.02653226)
(0.9464496 -0.5363308 -0.01946986)
(1.110001 -0.5350685 -0.008675335)
(1.317003 -0.6922925 -0.02075494)
(1.275765 -1.093258 -0.04148625)
(1.019444 -1.201426 -0.02556653)
(0.9964013 -0.8256865 0.01544519)
(0.8861538 -0.7984455 0.02228758)
(0.9067297 -0.7433358 -0.007080812)
(0.8871263 -0.6689932 -0.008601432)
(0.9673875 -0.6145833 -0.006698261)
(1.050975 -0.6475814 -0.004090368)
(1.157767 -0.7230275 -0.001111735)
(1.123822 -0.953025 -0.001953467)
(0.980793 -1.007515 -0.007868842)
(1.009031 -0.7885071 0.01980335)
(0.9218393 -0.7780407 0.02346818)
(0.9412257 -0.7427279 -0.004023779)
(0.9156871 -0.7119367 -0.001597793)
(0.9725568 -0.6904074 -0.0009157062)
(1.003085 -0.7146297 0.00193733)
(1.049186 -0.7704567 0.004576387)
(1.019636 -0.8910832 0.00325746)
(0.9330877 -0.9358789 0.004543566)
(1.0183 -0.7641371 0.0199493)
(0.9413657 -0.7602974 0.02546533)
(0.9570664 -0.7401261 -0.002636393)
(0.9330476 -0.716345 -0.006147394)
(0.9636189 -0.708584 -0.00497464)
(0.9702157 -0.7305531 -0.002071981)
(0.9850386 -0.7635005 -0.0001998894)
(0.9558831 -0.8342019 -0.0002532542)
(0.8983164 -0.8648613 -0.0001119415)
(0.5139739 -2.770439 -0.04013351)
(0.3190769 -2.467809 -0.01128682)
(0.2397857 -2.23254 -0.01579618)
(0.1682228 -2.006071 -0.0132071)
(0.1417766 -1.820969 -0.0130316)
(0.1077834 -1.650224 -0.01392903)
(0.08147197 -1.529447 -0.01382912)
(0.05743983 -1.436322 -0.01382816)
(0.0422499 -1.372374 -0.01409717)
(0.9117349 -1.192112 -0.1701429)
(0.7236328 -2.423337 0.01073254)
(0.6287527 -2.382419 -5.035696e-05)
(0.4877949 -2.161662 0.01934801)
(0.4237455 -2.000726 0.006343626)
(0.3599551 -1.798809 0.01016688)
(0.2789999 -1.643404 0.00620815)
(0.2130548 -1.515826 0.005568345)
(0.1546181 -1.429734 0.004902309)
(0.1163178 -1.364793 0.004055914)
(0.8500301 -0.9954027 -0.07953114)
(0.858406 -2.265867 0.02494199)
(0.769841 -2.237801 -0.01411245)
(0.6714141 -2.063837 0.00666679)
(0.6145432 -1.920573 -0.002700068)
(0.5505978 -1.693158 0.0005436193)
(0.4254907 -1.536252 -0.002203569)
(0.3209251 -1.414623 -0.002738968)
(0.2278192 -1.35827 -0.003508567)
(0.1691182 -1.302915 -0.00319031)
(0.8826416 -0.9388699 -0.09849356)
(0.911864 -2.18166 0.02396095)
(0.8706001 -2.155796 -0.001020872)
(0.8153896 -2.019339 0.01150922)
(0.8054149 -1.882552 0.002898423)
(0.7535538 -1.59319 0.00427721)
(0.5658484 -1.416377 -0.001174017)
(0.3982289 -1.313918 -0.0004751007)
(0.2690753 -1.272107 -0.00207271)
(0.2029362 -1.259407 -0.0002030323)
(0.8725042 -0.9005122 -0.09291731)
(0.9595704 -2.128147 0.029283)
(0.9542857 -2.114621 -0.005801746)
(0.9491149 -2.015058 0.001456024)
(1.040288 -1.878206 3.863201e-05)
(1.03623 -1.438595 0.0001421398)
(0.7317336 -1.19623 -0.01157883)
(0.4594133 -1.1058 -0.01183988)
(0.2698774 -1.169953 -0.008859406)
(0.1873058 -1.168517 -0.007166059)
(0.8838172 -0.8808867 -0.09948655)
(0.982179 -2.10978 0.02254013)
(1.005116 -2.126334 -0.004937503)
(1.039659 -2.111169 -0.00206359)
(1.290704 -2.022289 0.005732514)
(1.553144 -1.140519 -0.01112934)
(0.9927749 -0.8462619 -0.03167239)
(0.4289061 -0.8090682 -0.02970297)
(0.1489486 -0.9698391 -0.02254315)
(0.1136983 -1.12565 -0.005589259)
(0.8850992 -0.8729408 -0.1005049)
(0.9779743 -2.113943 0.02278099)
(0.9984668 -2.182405 -0.006356031)
(1.048617 -2.32748 0.01595873)
(1.23325 -2.450073 0.003030694)
(2.390606 -1.2287 0.04832911)
(1.338521 -0.3886362 0.02194599)
(0.47955 -0.3038335 -0.02634803)
(-0.1878147 -0.7684338 -0.008772863)
(0.06468529 -1.05294 0.01723041)
(0.8798235 -0.8570393 -0.1028089)
(0.9136225 -2.068964 0.02327205)
(0.8142451 -2.159801 0.003336204)
(0.7569615 -2.353513 0.02818942)
(0.7385072 -2.667174 0.01667571)
(0.3615966 -3.573673 0.02255196)
(0.06317034 -1.271184 0.01798868)
(0.87779 -0.8146388 -0.104244)
(0.8636372 -1.931822 0.03060746)
(0.7085809 -2.009175 0.0004910862)
(0.5502168 -2.102974 0.01548685)
(0.3604265 -2.329823 0.03724701)
(0.08049404 -1.314804 -0.01086942)
(0.8741291 -0.7542591 -0.1073369)
(0.8250126 -1.775743 0.03216878)
(0.6564081 -1.828968 -0.008132852)
(0.4515948 -1.871968 0.03329878)
(0.2468116 -1.965936 0.02067167)
(0.07561595 -1.380967 -0.009267666)
(0.8751286 -0.6880182 -0.1108196)
(0.8119214 -1.598514 0.0327372)
(0.6278378 -1.620888 -0.0007966635)
(0.4124629 -1.639853 0.02523368)
(0.2001935 -1.698036 0.009967065)
(0.0661592 -1.444349 -0.005714515)
(0.8774274 -0.6160474 -0.1144405)
(0.8094306 -1.417848 0.03169772)
(0.6293304 -1.421519 -0.001865388)
(0.4113668 -1.405054 0.03262485)
(0.2059733 -1.450869 0.001470147)
(0.08964146 -1.525131 -0.03247094)
(0.8822899 -0.5448963 -0.1194091)
(0.8231675 -1.24181 0.03070919)
(0.6546433 -1.221372 -0.00617467)
(0.4419392 -1.190957 0.03684756)
(0.2072492 -1.213322 -0.01487179)
(0.1867833 -1.683946 -0.02269997)
(0.8876017 -0.4759464 -0.1202675)
(0.8552244 -1.08238 0.03388803)
(0.6987088 -1.043569 -0.002518376)
(0.5423504 -0.95447 0.02426617)
(0.3489696 -0.8959913 -0.002437354)
(0.4314293 -1.936732 -0.05718552)
(0.8893789 -0.4132402 -0.1171604)
(0.8978521 -0.9596389 0.04093903)
(0.7965064 -0.9184941 -0.006254538)
(0.7118043 -0.7968663 0.02842483)
(0.5968719 -0.6429573 0.004348981)
(0.4607212 -0.192707 -0.02183068)
(1.189361 -0.1054357 0.01996196)
(1.594176 -0.1794048 0.02066659)
(3.198488 -0.5858096 0.0293236)
(1.196325 -1.410278 -0.004806313)
(0.8922526 -0.3678792 -0.1193888)
(0.9288448 -0.8753502 0.0302463)
(0.8825296 -0.8451301 -0.008079078)
(0.8344171 -0.7570214 0.02858159)
(0.8061108 -0.6545127 0.01456392)
(0.9424664 -0.5308444 0.01399119)
(1.120532 -0.5176119 0.01700123)
(1.344433 -0.6953631 0.02248495)
(1.298859 -1.11583 0.0132078)
(1.048257 -1.153383 0.02050027)
(0.8945427 -0.3379461 -0.1183607)
(0.959047 -0.8207554 0.03368121)
(0.9287077 -0.8024119 -0.009896332)
(0.9158017 -0.7529795 0.01770236)
(0.8983626 -0.6845822 0.006851387)
(0.9673703 -0.623162 0.006092275)
(1.0535 -0.6569063 0.002471972)
(1.165537 -0.738661 0.005468718)
(1.121444 -0.9644618 -0.005352904)
(0.975621 -1.042317 -0.001881731)
(0.8954302 -0.3202451 -0.1180777)
(0.9759099 -0.7868755 0.03303409)
(0.9593208 -0.7778223 -0.01231658)
(0.9492592 -0.7469247 0.01874784)
(0.9288149 -0.7176909 0.005774468)
(0.9756699 -0.6929679 0.006509037)
(1.007411 -0.7148359 0.004144525)
(1.053078 -0.7718805 0.005360364)
(1.02561 -0.8930406 0.002673424)
(0.9377857 -0.9361569 0.003510312)
(0.8958769 -0.3074045 -0.1180914)
(0.9869694 -0.7607551 0.03355521)
(0.9762649 -0.7578278 -0.01268434)
(0.974464 -0.7421231 0.01718351)
(0.9515548 -0.721808 0.005014084)
(0.9703799 -0.7127715 0.006773205)
(0.9748947 -0.7339836 0.003283239)
(0.9877286 -0.7671259 0.003049206)
(0.9582784 -0.837476 0.0001210069)
(0.8989482 -0.8720752 0.0008108765)
(0.4705024 -2.731924 -0.01680727)
(0.3087324 -2.391379 -0.01743407)
(0.267111 -2.237315 -0.02466417)
(0.1859717 -2.003525 -0.02830944)
(0.1652995 -1.833253 -0.02375455)
(0.1198152 -1.676989 -0.0233189)
(0.09065396 -1.538553 -0.02115712)
(0.06581357 -1.454267 -0.02128395)
(0.04760641 -1.368003 -0.02023694)
(1.028653 -1.251987 -0.1566112)
(0.6837107 -2.366637 0.04745557)
(0.5688981 -2.319888 -0.006726026)
(0.4936945 -2.080323 0.001294783)
(0.4147165 -1.950166 -0.004798276)
(0.3736037 -1.745284 -0.00381861)
(0.286298 -1.606056 -0.00510287)
(0.2203009 -1.480347 -0.005311604)
(0.1595476 -1.401948 -0.005804569)
(0.1188713 -1.334407 -0.006390951)
(0.8357402 -1.676361 -0.1208049)
(0.8783839 -2.169038 0.07573625)
(0.6597756 -2.213268 -0.02203059)
(0.6660633 -2.049322 0.009370673)
(0.5828273 -1.907561 -0.008381875)
(0.5444875 -1.685729 -0.001436275)
(0.4172543 -1.53136 -0.00476564)
(0.3197693 -1.409452 -0.004748247)
(0.2268849 -1.35459 -0.005328048)
(0.1705679 -1.29856 -0.0051161)
(0.8502939 -1.495723 -0.0648675)
(0.923956 -2.128297 0.07976615)
(0.7901356 -2.141549 -0.01103356)
(0.8134541 -2.00154 0.01930967)
(0.7908595 -1.860642 0.004360697)
(0.7507681 -1.572685 0.00614295)
(0.5610813 -1.40059 0.001774109)
(0.3968906 -1.299338 0.002152052)
(0.2672524 -1.263026 0.001335612)
(0.2012037 -1.245237 0.001907807)
(0.8420748 -1.464979 -0.07530397)
(0.9681744 -2.070724 0.08066686)
(0.8583388 -2.112329 -0.008066277)
(0.9295008 -2.008342 0.0215501)
(1.014395 -1.862854 0.0115788)
(1.029008 -1.436336 0.01132812)
(0.7256429 -1.192173 0.003110087)
(0.4623342 -1.096561 -9.045031e-05)
(0.2661572 -1.162997 0.002739738)
(0.1840545 -1.165901 0.003295035)
(0.9073927 -1.421158 -0.08161414)
(0.9990039 -2.073336 0.07977796)
(0.8964012 -2.119477 0.003264123)
(1.021916 -2.12036 0.01894564)
(1.271557 -2.023366 0.01551912)
(1.548146 -1.154458 0.01540092)
(1.003654 -0.863953 0.006010648)
(0.4429872 -0.8252823 0.00136268)
(0.1499334 -0.981168 0.004438796)
(0.112497 -1.137699 0.008311419)
(0.9129468 -1.435239 -0.08267378)
(0.980292 -2.043251 0.08272841)
(0.9227107 -2.176237 -0.01147076)
(1.034953 -2.350855 0.01573889)
(1.215915 -2.448581 0.01933468)
(2.386985 -1.310849 0.01501004)
(1.456901 -0.4796574 0.02009816)
(0.5093282 -0.3048804 0.0009347378)
(-0.1874197 -0.7673174 0.007258301)
(0.07241258 -1.062695 0.01366806)
(0.8793941 -1.391132 -0.08979585)
(0.9493578 -2.031827 0.07984552)
(0.7240913 -2.170232 -0.01205092)
(0.771057 -2.375998 0.008934254)
(0.7432622 -2.636445 0.03326401)
(0.2810448 -3.696994 0.04531348)
(0.0421937 -1.293732 -0.001495769)
(0.8724251 -1.322628 -0.08736894)
(0.9051814 -1.881753 0.0840247)
(0.6103244 -2.023115 -0.01273594)
(0.5590822 -2.107716 0.00186587)
(0.2858509 -2.268397 0.03443182)
(0.06052616 -1.316089 -0.02613091)
(0.8627693 -1.2228 -0.08971733)
(0.8664504 -1.73685 0.08576464)
(0.5652592 -1.833323 -0.01997117)
(0.4237176 -1.865288 0.02434605)
(0.1301193 -1.997482 -0.0175905)
(0.01398271 -1.40868 0.005381067)
(0.07505654 -1.350239 -0.00526101)
(0.8583002 -1.104548 -0.08683649)
(0.8564248 -1.56081 0.08805225)
(0.5266754 -1.613211 -0.01370012)
(0.4315506 -1.650633 0.01037517)
(0.079369 -1.617268 0.01056919)
(-0.01380571 -1.427217 0.0005227958)
(0.08085376 -1.432499 0.01173917)
(0.8561822 -0.98531 -0.08577446)
(0.855626 -1.375031 0.09070777)
(0.5277261 -1.431044 -0.01031419)
(0.4443264 -1.398512 0.01498533)
(0.1022848 -1.48696 0.03563628)
(-0.02322002 -1.479493 -0.01252379)
(0.1265153 -1.561292 0.01615856)
(0.854126 -0.8681546 -0.08512386)
(0.8649777 -1.197287 0.09231819)
(0.5713151 -1.225675 -0.01111178)
(0.4469112 -1.197555 0.02087919)
(0.2272702 -1.140714 -0.01089687)
(0.2285661 -1.772544 0.0004069613)
(0.8405381 -0.7584706 -0.08191876)
(0.8978685 -1.048297 0.08819646)
(0.6505636 -1.03822 -0.00130382)
(0.5676924 -0.9561774 0.01745169)
(0.3536007 -0.8578471 -0.003899964)
(0.4512397 -1.935656 -0.04664944)
(0.8238141 -0.673563 -0.07546042)
(0.9357947 -0.938138 0.08575101)
(0.7108392 -0.9231217 -0.005552078)
(0.7131165 -0.7879053 0.0173247)
(0.5972119 -0.6421141 0.005020192)
(0.4660136 -0.2532983 -0.005592978)
(1.18071 -0.1079183 0.002708781)
(1.609735 -0.1854808 0.005858298)
(3.30327 -0.8542545 0.03142119)
(1.214502 -1.626377 0.002290445)
(0.8765083 -0.6090039 -0.08283829)
(0.9661398 -0.8561653 0.08140814)
(0.7809461 -0.8405276 -0.007800737)
(0.8251692 -0.746915 0.01852465)
(0.7854731 -0.6669244 -0.003016717)
(0.9525046 -0.5245968 0.0008822488)
(1.121395 -0.5174273 -3.097199e-05)
(1.353313 -0.6986026 0.006020288)
(1.304832 -1.053442 -0.005533171)
(1.036981 -1.193949 0.005303074)
(0.8675542 -0.5757289 -0.0805543)
(0.990319 -0.7991649 0.08117369)
(0.8356596 -0.7993891 -0.006712288)
(0.9072833 -0.7501921 0.01981207)
(0.870498 -0.6731105 0.00283092)
(0.9588047 -0.6119008 0.005316293)
(1.048645 -0.6496147 0.000595004)
(1.155651 -0.7355472 0.003023382)
(1.123819 -0.9614936 -0.009393927)
(0.9911603 -1.026178 0.005343629)
(0.8714358 -0.5467591 -0.08201542)
(1.003776 -0.7649612 0.08185309)
(0.8683267 -0.7782268 -0.0007621628)
(0.9371642 -0.7449833 0.02131631)
(0.8975335 -0.7166096 3.645897e-05)
(0.9695766 -0.6889291 0.006413923)
(0.9995802 -0.710699 0.002300404)
(1.050047 -0.7707885 0.002806388)
(1.021357 -0.8839422 0.000345029)
(0.9345156 -0.9392327 -0.0002370455)
(0.8786214 -0.5253408 -0.08388452)
(1.01167 -0.7399087 0.08116791)
(0.8871568 -0.7594634 -0.003392352)
(0.952067 -0.7431414 0.01735153)
(0.9163719 -0.7181686 -7.401132e-06)
(0.9585779 -0.7093326 0.006922044)
(0.9655331 -0.7289353 0.003215654)
(0.9829003 -0.764065 0.003231155)
(0.9557177 -0.8351916 -8.261614e-05)
(0.8995695 -0.8679017 0.001582936)
(0.4666597 -2.726036 0.004688008)
(0.3020367 -2.504498 0.01908703)
(0.2578685 -2.214074 0.02542673)
(0.1880632 -2.051005 0.03092937)
(0.1563757 -1.831596 0.02737711)
(0.1156487 -1.681652 0.02573705)
(0.08740449 -1.543219 0.02448885)
(0.06310996 -1.449588 0.02180385)
(0.04685075 -1.370837 0.02164909)
(1.058015 -1.249938 -0.08380088)
(0.7408716 -2.357492 -0.005707979)
(0.5743026 -2.324021 -0.004170357)
(0.4975667 -2.126016 0.006269294)
(0.4205874 -1.98824 0.01047355)
(0.3679763 -1.778803 0.009854026)
(0.2842348 -1.633742 0.008859424)
(0.2173631 -1.505999 0.009157108)
(0.1580409 -1.424 0.007822028)
(0.1184397 -1.355072 0.008883801)
(0.8197027 -1.663071 -0.03729125)
(0.9202126 -2.179293 -0.007067467)
(0.6943228 -2.213307 -0.01421056)
(0.6881593 -2.06063 0.005789586)
(0.5936287 -1.922317 0.001809706)
(0.5481771 -1.694425 0.004655921)
(0.418167 -1.539401 0.002399969)
(0.3202383 -1.417615 0.002519338)
(0.2266784 -1.359551 0.001912012)
(0.1696246 -1.303629 0.002481689)
(0.8476853 -1.481668 -0.02740489)
(0.935098 -2.143643 -0.001046583)
(0.8206772 -2.147818 -0.01468649)
(0.8206045 -2.010575 0.0009592631)
(0.8016975 -1.87162 0.0009605424)
(0.7558456 -1.583034 0.002224533)
(0.5626943 -1.410878 -0.0004339891)
(0.3974933 -1.311179 -0.0005257892)
(0.2687414 -1.26988 -0.0008313493)
(0.2027275 -1.25419 0.001331825)
(0.8940293 -1.469103 -0.03199861)
(0.9973464 -2.0787 0.0005865577)
(0.8943222 -2.11417 -0.01481456)
(0.9443821 -2.012504 -0.000137089)
(1.03041 -1.873537 0.002074624)
(1.03351 -1.433076 0.002749547)
(0.7241539 -1.197375 -0.001584651)
(0.461563 -1.105404 -0.004325646)
(0.2667169 -1.169722 -0.00166889)
(0.1848608 -1.168677 -0.0006654073)
(0.8850958 -1.418176 -0.02383431)
(1.008095 -2.068503 -0.0007069499)
(0.9312394 -2.116224 -0.01204292)
(1.034262 -2.114104 -0.001679107)
(1.278899 -2.016348 0.002793886)
(1.542261 -1.117899 0.00389763)
(1.016493 -0.8543209 -0.004777427)
(0.4433266 -0.8241271 -0.01034382)
(0.1433802 -0.9762322 -0.00435763)
(0.1142358 -1.13616 -0.0006871931)
(0.8983657 -1.418799 -0.02429746)
(1.006619 -2.060905 -0.001137335)
(0.9430218 -2.170877 -0.01174137)
(1.044003 -2.338743 0.001275403)
(1.232476 -2.43545 0.008318819)
(2.392335 -1.17494 0.02568058)
(1.483567 -0.4874059 0.001990156)
(0.5133304 -0.2874465 -0.002258908)
(-0.1830196 -0.7544682 -0.0001742754)
(0.07386504 -1.062646 -0.0006147818)
(0.870249 -1.380368 -0.02450001)
(0.9608977 -2.022817 -0.003499769)
(0.7407562 -2.161017 -0.00978607)
(0.7777064 -2.373019 0.001944847)
(0.7324284 -2.623422 0.01058724)
(0.4232261 -3.601516 0.01416265)
(0.03178478 -1.303857 -0.0008606558)
(0.8597152 -1.308501 -0.02284216)
(0.9187421 -1.88054 0.001056575)
(0.6344442 -2.024518 -0.0108069)
(0.5676617 -2.100554 0.002579769)
(0.2691072 -2.284138 0.00768606)
(0.04329357 -1.323469 -0.009287776)
(0.8522251 -1.210962 -0.02226227)
(0.8799993 -1.735989 0.001671645)
(0.5965023 -1.833107 -0.01220825)
(0.4248504 -1.858351 0.01261476)
(0.1651529 -2.010425 0.007368173)
(0.02742656 -1.416582 0.008903818)
(0.0588283 -1.335907 -0.005870427)
(0.8464587 -1.092782 -0.02180782)
(0.8696226 -1.566136 0.001707763)
(0.5553498 -1.613403 -0.01088869)
(0.4318481 -1.657887 0.006738233)
(0.08545992 -1.604929 0.0058618)
(-0.04725081 -1.449328 0.00122195)
(0.09829353 -1.426851 0.001455563)
(0.8464035 -0.9753006 -0.01958536)
(0.8684973 -1.384669 0.0001756671)
(0.5569539 -1.435878 -0.01014892)
(0.4506797 -1.389206 0.007609121)
(0.09159271 -1.491857 0.01231586)
(-0.06584517 -1.467125 0.0003036911)
(0.1594498 -1.584796 0.00292833)
(0.8515736 -0.8565741 -0.01897012)
(0.8758633 -1.215178 -0.003747742)
(0.5879429 -1.231182 -0.01486697)
(0.4375049 -1.187591 0.01056184)
(0.2557113 -1.120241 -0.0005248026)
(0.2308197 -1.791794 0.01042076)
(0.8594214 -0.7502883 -0.01631381)
(0.9043914 -1.053306 -0.007211872)
(0.6191354 -1.042656 -0.01335269)
(0.5595609 -0.9590129 0.007224037)
(0.3533808 -0.8463451 -0.0004058531)
(0.5084377 -1.927982 -0.01693179)
(0.8759172 -0.6662915 -0.02272819)
(0.9386587 -0.9237647 0.000902274)
(0.7259813 -0.9139278 -0.01474905)
(0.7126001 -0.7953748 0.003907673)
(0.5960692 -0.639592 0.004227456)
(0.4720912 -0.2427804 0.001726138)
(1.181064 -0.1060477 0.002136129)
(1.618598 -0.1841357 0.004282487)
(3.301799 -0.8957218 -0.007040902)
(1.203081 -1.60987 0.006394525)
(0.8850101 -0.6055357 -0.0248599)
(0.967428 -0.8464163 0.0005583397)
(0.8111909 -0.8370554 -0.01422378)
(0.8299847 -0.7535568 0.004617983)
(0.7882477 -0.6710274 0.003875507)
(0.9550096 -0.5273499 0.004543423)
(1.125961 -0.5185727 0.004738383)
(1.350517 -0.7003689 0.008422367)
(1.308112 -1.054182 0.002021288)
(1.042541 -1.1998 0.008917267)
(0.8931974 -0.5666625 -0.02254035)
(0.9918248 -0.7921661 -0.0004497803)
(0.8644273 -0.7965816 -0.01381465)
(0.9148427 -0.7508947 0.001910677)
(0.8760916 -0.6792693 0.0003001432)
(0.9620328 -0.6174277 0.002626457)
(1.051142 -0.654244 0.0008455316)
(1.155754 -0.7412489 0.00249653)
(1.123147 -0.9607124 -0.0008865473)
(0.9879845 -1.033527 0.0004524464)
(0.8929263 -0.5387908 -0.02854818)
(1.00568 -0.7577672 0.002127949)
(0.8933265 -0.7738406 -0.01499141)
(0.9483062 -0.74242 0.003393744)
(0.9049303 -0.7215493 0.0002749987)
(0.9744638 -0.6923589 0.003008928)
(1.003199 -0.7123639 0.002178501)
(1.051439 -0.7724042 0.003278066)
(1.022425 -0.8836107 0.00160711)
(0.9350809 -0.9417388 0.00291581)
(0.8929039 -0.5191104 -0.02515068)
(1.015596 -0.7345529 0.001763424)
(0.9123644 -0.7542364 -0.01429205)
(0.9729724 -0.7365796 0.003266418)
(0.9256384 -0.7231453 -0.002048874)
(0.9635942 -0.7140435 0.002079092)
(0.9684051 -0.7317083 0.001352524)
(0.9845053 -0.7666748 0.001773575)
(0.9566411 -0.8368695 0.0002609218)
(0.8995355 -0.8708268 0.000996033)
(0.4677891 -2.678947 -0.002472748)
(0.3079039 -2.407522 -0.003664095)
(0.2748236 -2.232163 -0.0020137)
(0.1888052 -2.050895 -0.001922118)
(0.1623997 -1.847296 -0.001264395)
(0.1174692 -1.699379 -0.001762433)
(0.08926306 -1.559713 -0.001376326)
(0.06429547 -1.467676 -0.001618974)
(0.04790184 -1.388181 -0.001325328)
(1.02158 -1.340732 -0.02300664)
(0.7227727 -2.335729 0.006450365)
(0.5760418 -2.334718 -0.007165365)
(0.5032838 -2.109859 0.002509095)
(0.4132594 -1.972591 0.0003561209)
(0.3685384 -1.765369 0.0004545641)
(0.282049 -1.624464 -0.001806087)
(0.2164125 -1.497819 -0.001265961)
(0.1571567 -1.417749 -0.002251559)
(0.1180225 -1.349437 -0.001689529)
(0.8526465 -1.641906 -0.01898886)
(0.9175669 -2.160655 0.01222928)
(0.6656148 -2.201275 -0.006145135)
(0.6765047 -2.050868 0.005724455)
(0.5775698 -1.91946 0.0008783518)
(0.5440507 -1.693811 0.001281071)
(0.4132385 -1.541328 -0.001732004)
(0.3180864 -1.419095 -0.001182859)
(0.2255916 -1.362479 -0.002425835)
(0.1697412 -1.305655 -0.001733515)
(0.8658392 -1.471627 -0.007430442)
(0.9495133 -2.117994 0.01544161)
(0.7981112 -2.144352 -0.008598049)
(0.8250369 -2.006304 0.008447755)
(0.7936415 -1.865179 0.0003354702)
(0.7520479 -1.576842 0.0003900943)
(0.5590458 -1.405857 -0.001028427)
(0.396559 -1.306091 -0.0004433118)
(0.2680436 -1.267679 -0.001347133)
(0.2021544 -1.24949 -0.0005540643)
(0.8639208 -1.434595 -0.00911719)
(0.9985557 -2.066239 0.01266483)
(0.8661999 -2.113351 -0.006826291)
(0.9370752 -2.012647 0.01024185)
(1.016484 -1.866026 0.005727346)
(1.027822 -1.432467 0.001484808)
(0.7182801 -1.200549 0.0009093851)
(0.4607585 -1.106947 0.0005417106)
(0.2651816 -1.171446 -0.000552637)
(0.1815846 -1.167037 0.0001861826)
(0.9374998 -1.387362 -0.008015426)
(1.026005 -2.065865 0.01821473)
(0.9047262 -2.119798 -0.00231298)
(1.028349 -2.118721 0.01086281)
(1.271178 -2.017731 0.00702365)
(1.541719 -1.122392 -0.00145756)
(1.01171 -0.8568931 0.00282635)
(0.4428738 -0.8254711 -0.0001537037)
(0.1403857 -0.97634 -0.0001827294)
(0.1069167 -1.135693 0.0006166355)
(0.9408402 -1.410864 -0.008959674)
(1.013115 -2.02839 0.01450848)
(0.9309497 -2.170373 -0.004906205)
(1.043631 -2.345648 0.008783363)
(1.220735 -2.437633 0.006721416)
(2.38979 -1.194972 0.007844355)
(1.487633 -0.4950326 0.004072597)
(0.5080428 -0.2931543 -0.0002628171)
(-0.1875031 -0.7542522 -0.0003061864)
(0.07304688 -1.066843 -0.0006654175)
(0.9040068 -1.367461 -0.009935964)
(0.9783479 -2.021332 0.01612097)
(0.7270848 -2.1615 -0.006223612)
(0.7862776 -2.375405 0.008241936)
(0.7223851 -2.622283 0.006213536)
(0.3699992 -3.630276 0.0255832)
(0.02979913 -1.306843 -0.0004016706)
(0.898928 -1.299985 -0.009449564)
(0.9343192 -1.869146 0.01994282)
(0.6184436 -2.024834 -0.006620371)
(0.5705819 -2.098249 0.006703648)
(0.2536871 -2.287655 0.002234154)
(0.0445706 -1.325169 -0.001388015)
(0.8902966 -1.20323 -0.01007961)
(0.8943492 -1.732636 0.01910134)
(0.5798958 -1.829423 -0.007819601)
(0.4259735 -1.854475 0.00874406)
(0.1571843 -2.003693 -0.0008711014)
(0.02495448 -1.404734 0.001566645)
(0.06159043 -1.338332 0.0003706846)
(0.8856656 -1.084784 -0.009834535)
(0.8828498 -1.561293 0.02083656)
(0.537901 -1.608456 -0.006619208)
(0.4361961 -1.660202 0.008077257)
(0.08273765 -1.59281 0.001040469)
(-0.03894005 -1.439803 0.004796817)
(0.1070404 -1.426426 0.0004485073)
(0.8856771 -0.9685802 -0.007987412)
(0.8823202 -1.378837 0.0232723)
(0.5365924 -1.432664 -0.002776974)
(0.4561201 -1.388869 0.008442193)
(0.08727149 -1.486534 0.003370849)
(-0.05067599 -1.457652 0.007864857)
(0.1707349 -1.593706 0.0008286142)
(0.8887308 -0.8556346 -0.0105844)
(0.8900505 -1.201435 0.02549546)
(0.5751993 -1.226391 -0.001394188)
(0.4385904 -1.194755 0.006656194)
(0.2631258 -1.105607 0.001647331)
(0.2257285 -1.793308 0.006739529)
(0.8794974 -0.7560364 -0.01066635)
(0.9219821 -1.039821 0.03217687)
(0.6455231 -1.036198 0.001591972)
(0.5706733 -0.9611244 0.001335054)
(0.3530773 -0.8454373 -0.0006318642)
(0.5250671 -1.927613 -0.004139668)
(0.8515891 -0.6605878 -0.01043846)
(0.9674048 -0.9317827 0.02570727)
(0.7257699 -0.9260653 -0.0007286675)
(0.717797 -0.7883766 0.005276414)
(0.5917569 -0.6346428 0.001238247)
(0.466073 -0.2405805 -0.001483623)
(1.180712 -0.106401 0.0007843516)
(1.619347 -0.1849827 0.001611743)
(3.309429 -0.9006304 -0.01277727)
(1.201374 -1.617687 0.003856464)
(0.8893728 -0.5994637 -0.01436707)
(0.993223 -0.854488 0.0274298)
(0.7889096 -0.8383952 -0.002853963)
(0.8301502 -0.74946 0.009148462)
(0.7854447 -0.6721853 0.001313673)
(0.9562012 -0.5242571 0.0009594303)
(1.125125 -0.5177541 3.617031e-05)
(1.349973 -0.7008742 0.0008423718)
(1.308021 -1.056712 -0.0002070499)
(1.041988 -1.193675 0.001642803)
(0.9003044 -0.5674291 -0.01605056)
(1.01604 -0.7905756 0.02548942)
(0.8432444 -0.8023978 -0.005825343)
(0.9133356 -0.7523342 0.008020044)
(0.8665513 -0.6748071 0.003582266)
(0.9588657 -0.6130269 0.003592439)
(1.048443 -0.6517341 0.001496192)
(1.153948 -0.7400992 0.001427334)
(1.121663 -0.9599669 -0.0004241691)
(0.9891443 -1.033666 0.0002864234)
(0.8710261 -0.542331 -0.009123115)
(1.030013 -0.7609839 0.02635914)
(0.8713347 -0.7782979 -0.003180065)
(0.9386127 -0.7453621 0.007134977)
(0.8926475 -0.7191682 0.004255495)
(0.9704496 -0.689769 0.004193312)
(0.9996532 -0.7100309 0.002046059)
(1.049825 -0.7713384 0.001327212)
(1.021107 -0.8822476 0.0004012089)
(0.9347679 -0.9406119 0.0004042774)
(0.901347 -0.5152877 -0.01120744)
(1.037573 -0.7345649 0.02327943)
(0.8922034 -0.7580157 -0.008351844)
(0.95624 -0.742523 0.005060345)
(0.9125905 -0.7209662 0.006145787)
(0.9572844 -0.7121087 0.005258689)
(0.9637857 -0.7292779 0.003275452)
(0.9817974 -0.7653599 0.001987721)
(0.9550337 -0.8358136 0.0007260994)
(0.8991231 -0.8699249 0.0006367902)
(0.4714597 -2.673479 0.001211664)
(0.3016217 -2.472688 0.00193042)
(0.2671212 -2.222084 0.002219097)
(0.1885759 -2.063837 0.001619084)
(0.1571335 -1.841877 0.001545706)
(0.1154842 -1.693759 0.001292085)
(0.08729024 -1.554137 0.001000839)
(0.06299526 -1.461144 0.001287001)
(0.04689017 -1.381632 0.0009179907)
(0.9753487 -1.386328 -0.02980363)
(0.7100537 -2.348806 -9.350586e-05)
(0.5643809 -2.339006 -0.0001321746)
(0.4908726 -2.115475 0.002315766)
(0.4137781 -1.980778 0.0008009279)
(0.3649877 -1.77227 0.001764769)
(0.281912 -1.630535 0.001083578)
(0.2163458 -1.50304 0.001243221)
(0.1571516 -1.422249 0.001300723)
(0.1182623 -1.353254 0.001302654)
(0.8433421 -1.629973 -0.003624305)
(0.924598 -2.174688 -0.004475686)
(0.6724302 -2.205608 -0.002869791)
(0.6780489 -2.051989 -0.000838339)
(0.5810519 -1.919629 -0.00180231)
(0.5435535 -1.693704 -0.0005924886)
(0.4143416 -1.538534 -0.001175463)
(0.3187865 -1.416441 -0.0005360861)
(0.2256536 -1.358178 -0.0005421128)
(0.1694657 -1.301949 -0.0003551308)
(0.8796156 -1.457964 -0.005127258)
(0.9526881 -2.133418 -0.007120067)
(0.8088492 -2.149692 -0.005169428)
(0.8242839 -2.007539 -0.002640363)
(0.7990511 -1.863079 -0.001111433)
(0.7558776 -1.581378 -0.001943052)
(0.5616296 -1.409059 -0.001660059)
(0.3974924 -1.308717 -0.001571694)
(0.268366 -1.268116 -0.0008299619)
(0.2031348 -1.251288 -0.001040499)
(0.924649 -1.453915 -0.008575251)
(1.010596 -2.072777 -0.009393783)
(0.8756453 -2.114148 -0.005086721)
(0.9370327 -2.010948 -0.001489751)
(1.023288 -1.870148 -0.001302919)
(1.031893 -1.44163 -0.003628921)
(0.7229372 -1.197229 -0.002455915)
(0.4620667 -1.105128 -0.002668945)
(0.2656374 -1.169988 -0.001515515)
(0.1822969 -1.165293 -0.001754293)
(0.9178427 -1.40396 -0.008750262)
(1.017602 -2.059824 -0.01101622)
(0.9023981 -2.114805 -0.004925016)
(1.024919 -2.117433 -0.001541004)
(1.265196 -2.010127 -0.002252012)
(1.53549 -1.14287 -0.005498111)
(1.010333 -0.8571463 -0.00380575)
(0.4432623 -0.8233715 -0.002616568)
(0.139949 -0.9755824 -0.001174959)
(0.1071721 -1.135877 -0.001145982)
(0.9293037 -1.410663 -0.00835774)