/*--------------------------------*- C++ -*----------------------------------*\
  =========                 |
  \\      /  F ield         | OpenFOAM: The Open Source CFD Toolbox
   \\    /   O peration     | Website:  https://openfoam.org
    \\  /    A nd           | Version:  7
     \\/     M anipulation  |
\*---------------------------------------------------------------------------*/
FoamFile
{
    version     2.0;
    format      ascii;
    class       volVectorField;
    location    "0.1";
    object      C;
}
// * * * * * * * * * * * * * * * * * * * * * * * * * * * * * * * * * * * * * //

dimensions      [0 1 0 0 0 0 0];

internalField   nonuniform List<vector> 
77997
(
(0.4512448 0.2570004 0.04441811)
(0.6502078 0.2552496 0.04223845)
(0.8499486 0.2548512 0.04208045)
(1.049951 0.2547928 0.04202395)
(1.249959 0.2547873 0.04201247)
(1.44996 0.2547864 0.04201125)
(1.64996 0.2547864 0.04201148)
(1.849961 0.2547869 0.04201236)
(2.04996 0.2547873 0.04201291)
(0.2569967 0.4512405 0.04441911)
(0.4987731 0.4989103 0.09495723)
(0.6993471 0.4985833 0.09283358)
(0.8995992 0.4983115 0.09209665)
(1.099855 0.4982061 0.09192235)
(1.299957 0.4981835 0.09188177)
(1.499989 0.4981772 0.09187424)
(1.699998 0.4981694 0.09187839)
(1.9 0.4981638 0.09188527)
(0.2552501 0.6502136 0.04224423)
(0.4983434 0.6999181 0.09298958)
(0.6990485 0.7000685 0.0910005)
(0.8993501 0.7002008 0.09029453)
(1.099755 0.7002704 0.09012858)
(1.299926 0.7003137 0.09009181)
(1.499981 0.7003254 0.09008573)
(1.699997 0.7003159 0.09009019)
(1.9 0.7003051 0.09009603)
(0.2548674 0.8499718 0.04213552)
(0.4981216 0.9006923 0.09301191)
(0.6989946 0.9012812 0.09136521)
(0.899356 0.9017092 0.09079148)
(1.099762 0.902005 0.09066571)
(1.29993 0.902138 0.09063978)
(1.499983 0.902175 0.09063648)
(1.699998 0.9021666 0.09064251)
(1.900001 0.9021519 0.09064965)
(0.2548315 1.049536 0.04228846)
(0.4979955 1.101502 0.09486793)
(0.6992378 1.102233 0.09432075)
(0.8996125 1.10282 0.09396672)
(1.099865 1.103154 0.09388426)
(1.299964 1.103286 0.09385982)
(1.499993 1.103318 0.09385395)
(1.700001 1.103297 0.0938621)
(1.900002 1.10327 0.09387315)
(0.2561678 1.248135 0.04268786)
(0.4489643 1.250004 0.04384538)
(0.648394 1.247396 0.04294102)
(0.8488239 1.247383 0.04279944)
(1.048953 1.247419 0.04278304)
(1.248983 1.24743 0.0427807)
(1.448991 1.247447 0.04277953)
(1.648995 1.247415 0.04278385)
(1.848992 1.247386 0.0427929)
(2.048992 1.247384 0.04279946)
(0.2295879 1.422939 0.0206654)
(0.4233668 1.428908 0.02018477)
(0.6243324 1.429252 0.02013182)
(0.824426 1.429155 0.02012694)
(1.02444 1.429098 0.02012527)
(1.224448 1.429011 0.02012346)
(1.424453 1.429129 0.02012939)
(1.624451 1.429007 0.02011998)
(1.824439 1.428974 0.02008105)
(2.024449 1.428983 0.02012467)
(0.4244924 1.619941 0.02311765)
(0.6249594 1.619846 0.02304334)
(0.8249861 1.619834 0.02303733)
(1.02499 1.619832 0.02303702)
(1.22499 1.619832 0.02303696)
(1.42499 1.619832 0.02303706)
(1.62499 1.619832 0.0230372)
(1.82499 1.619834 0.02303797)
(2.02499 1.619842 0.0230423)
(0.49926 1.898564 0.09829094)
(0.6997071 1.898016 0.09628054)
(0.8997313 1.897687 0.09558473)
(1.099893 1.897502 0.09541329)
(1.299964 1.897433 0.09536792)
(1.49999 1.897426 0.09535811)
(1.699997 1.897459 0.0953628)
(1.899997 1.897524 0.09537291)
(2.1 1.897566 0.09538089)
(0.4995917 2.099365 0.09573633)
(0.6995673 2.098801 0.09187835)
(0.8994995 2.098484 0.09072109)
(1.099782 2.098274 0.09041452)
(1.29992 2.098184 0.09032756)
(1.499972 2.098168 0.09030451)
(1.699991 2.098193 0.09030724)
(1.899997 2.09823 0.09031904)
(2.099998 2.098245 0.09032817)
(0.4995357 2.299563 0.09495421)
(0.6994909 2.299129 0.0905529)
(0.8993719 2.298849 0.08911518)
(1.099711 2.298689 0.08871759)
(1.299888 2.298615 0.08859867)
(1.499957 2.2986 0.08856451)
(1.699984 2.298618 0.08856563)
(1.899995 2.298644 0.0885797)
(2.099997 2.298652 0.08859113)
(0.499451 2.49979 0.09476155)
(0.699403 2.499563 0.09018853)
(0.8993069 2.499396 0.08865066)
(1.099672 2.499291 0.08820376)
(1.299867 2.499239 0.08806337)
(1.499946 2.499227 0.08802102)
(1.699979 2.499239 0.08802075)
(1.899992 2.499258 0.08803664)
(2.099996 2.499263 0.08805029)
(0.4994133 2.699902 0.09470572)
(0.6993597 2.699789 0.09007602)
(0.8992744 2.699697 0.08849878)
(1.099651 2.699634 0.0880278)
(1.299854 2.6996 0.08787457)
(1.499939 2.699591 0.0878267)
(1.699975 2.699599 0.08782541)
(1.89999 2.699611 0.08784264)
(2.099995 2.699614 0.08785776)
(0.4993995 2.899952 0.09468533)
(0.6993419 2.899894 0.09003398)
(0.8992592 2.899844 0.08843942)
(1.099639 2.899807 0.08795645)
(1.299847 2.899785 0.08779631)
(1.499934 2.899779 0.08774524)
(1.699972 2.899783 0.08774323)
(1.899989 2.89979 0.08776114)
(2.099994 2.899792 0.08777704)
(0.4993941 3.099975 0.09467709)
(0.6993345 3.099945 0.09001679)
(0.899252 3.099918 0.08841443)
(1.099634 3.099896 0.08792567)
(1.299842 3.099883 0.08776178)
(1.499931 3.099878 0.08770895)
(1.69997 3.09988 0.08770647)
(1.899987 3.099884 0.08772477)
(2.099993 3.099885 0.08774107)
(0.4993918 3.299987 0.09467351)
(0.6993313 3.299971 0.09000929)
(0.8992486 3.299956 0.08840331)
(1.099631 3.299943 0.08791173)
(1.29984 3.299935 0.08774596)
(1.49993 3.299932 0.08769238)
(1.699969 3.299933 0.08768991)
(1.899987 3.299935 0.08770846)
(2.099992 3.299935 0.08772477)
(0.499391 3.499993 0.09467179)
(0.6993297 3.499984 0.09000586)
(0.8992469 3.499975 0.08839828)
(1.099629 3.499968 0.08790541)
(1.299839 3.499963 0.08773884)
(1.499928 3.499961 0.08768501)
(1.699968 3.499961 0.08768253)
(1.899986 3.499962 0.08770123)
(2.099992 3.499962 0.08771752)
(0.4993904 3.699996 0.09467106)
(0.6993291 3.699991 0.09000426)
(0.899246 3.699986 0.08839591)
(1.099628 3.699982 0.08790246)
(1.299838 3.699979 0.08773557)
(1.499928 3.699978 0.08768172)
(1.699968 3.699978 0.08767943)
(1.899986 3.699978 0.08769821)
(2.099992 3.699978 0.08771451)
(0.4993903 3.899998 0.09467075)
(0.6993288 3.899995 0.09000352)
(0.8992457 3.899992 0.0883948)
(1.099628 3.89999 0.08790111)
(1.299837 3.899988 0.08773411)
(1.499928 3.899987 0.08768033)
(1.699968 3.899987 0.08767819)
(1.899986 3.899987 0.0876971)
(2.099991 3.899987 0.08771346)
(0.4993902 4.099999 0.0946705)
(0.6993288 4.099997 0.09000318)
(0.8992456 4.099996 0.08839431)
(1.099628 4.099994 0.08790055)
(1.299837 4.099993 0.08773357)
(1.499928 4.099993 0.08767992)
(1.699968 4.099993 0.0876779)
(1.899986 4.099993 0.08769699)
(2.099991 4.099993 0.08771332)
(0.4993902 4.299999 0.09467053)
(0.6993289 4.299998 0.09000312)
(0.8992458 4.299998 0.0883942)
(1.099628 4.299997 0.08790047)
(1.299838 4.299996 0.08773355)
(1.499928 4.299996 0.08768004)
(1.699968 4.299996 0.08767822)
(1.899986 4.299996 0.08769741)
(2.099991 4.299996 0.08771383)
(0.4993905 4.5 0.09467077)
(0.6993293 4.499999 0.09000365)
(0.8992464 4.499999 0.08839494)
(1.099629 4.499999 0.08790139)
(1.299838 4.499998 0.08773468)
(1.499928 4.499998 0.08768126)
(1.699968 4.499998 0.08767956)
(1.899986 4.499998 0.08769891)
(2.099992 4.499998 0.08771548)
(0.4993911 4.7 0.09467166)
(0.6993303 4.7 0.09000546)
(0.8992475 4.7 0.08839753)
(1.09963 4.7 0.08790458)
(1.299839 4.7 0.08773827)
(1.499929 4.7 0.08768517)
(1.699969 4.7 0.0876837)
(1.899986 4.7 0.08770318)
(2.099992 4.7 0.08771983)
(0.4993924 4.900001 0.09467395)
(0.6993325 4.900001 0.09000993)
(0.8992499 4.900001 0.0884039)
(1.099632 4.900001 0.08791239)
(1.299841 4.900002 0.08774712)
(1.49993 4.900002 0.08769447)
(1.69997 4.900002 0.08769313)
(1.899987 4.900002 0.08771252)
(2.099992 4.900002 0.08772931)
(0.4516905 0.2581631 0.2456706)
(0.7012616 0.3071043 0.2916596)
(0.9003446 0.3056891 0.2909929)
(1.099979 0.3052659 0.2907463)
(1.29998 0.3052004 0.2906315)
(1.499993 0.3051899 0.2905983)
(1.699997 0.3051811 0.2905955)
(1.899999 0.3051749 0.2906009)
(0.2581583 0.4516845 0.2456748)
(0.4992603 0.4998846 0.2905452)
(0.6993927 0.498456 0.2874818)
(0.8996696 0.4974285 0.2861976)
(1.099863 0.4972295 0.2857712)
(1.299952 0.497241 0.28564)
(1.499984 0.497248 0.2856097)
(1.699994 0.497226 0.2856154)
(1.899999 0.4972054 0.2856292)
(0.3070413 0.7017336 0.2918784)
(0.4972602 0.7017999 0.2878605)
(0.6985873 0.7031891 0.2853588)
(0.899412 0.7042513 0.2841997)
(1.099783 0.7049226 0.2838367)
(1.29993 0.7052552 0.283732)
(1.499981 0.7053543 0.2837147)
(1.699997 0.7053332 0.2837299)
(1.900002 0.7052959 0.2837486)
(0.3061265 0.901211 0.2917249)
(0.4966862 0.9057371 0.2881143)
(0.698613 0.9111661 0.2865053)
(0.8994859 0.9147091 0.2857626)
(1.099824 0.9164446 0.2855511)
(1.299951 0.9171566 0.2854897)
(1.499994 0.9173678 0.2854838)
(1.700006 0.9173651 0.2855048)
(1.900006 0.9173226 0.2855282)
(0.3073929 1.1004 0.2927859)
(0.4993005 1.113413 0.2921582)
(0.6997819 1.125315 0.2925103)
(0.8999417 1.130728 0.2924646)
(1.099972 1.13297 0.2924512)
(1.300002 1.133743 0.2924084)
(1.500017 1.133951 0.2923921)
(1.700017 1.133949 0.2924106)
(1.90001 1.133904 0.2924403)
(0.2578184 1.247107 0.2459901)
(0.507717 1.325995 0.3043107)
(0.7060571 1.342866 0.3093321)
(0.9007018 1.348468 0.3118263)
(1.100063 1.349831 0.3119958)
(1.300027 1.350157 0.3119015)
(1.500032 1.350227 0.3118503)
(1.700027 1.350222 0.3118439)
(1.900013 1.350198 0.3118637)
(0.4475558 1.456034 0.2478634)
(0.6496514 1.460915 0.2460875)
(0.8501427 1.461724 0.2449699)
(1.050137 1.461895 0.2449777)
(1.250109 1.461918 0.2449736)
(1.450092 1.461922 0.2449762)
(1.650084 1.461921 0.2449581)
(1.850078 1.461917 0.2449502)
(2.050075 1.461909 0.2449797)
(0.4533981 1.632529 0.2532597)
(0.6504475 1.626024 0.2539852)
(0.8500799 1.625204 0.2544173)
(1.050035 1.625074 0.2544655)
(1.250012 1.625052 0.2544764)
(1.449999 1.625051 0.2544831)
(1.649995 1.62507 0.2544892)
(1.849996 1.625125 0.2544987)
(2.049992 1.625204 0.2545131)
(0.2585452 1.85027 0.251674)
(0.500311 1.889671 0.2953321)
(0.6994484 1.883723 0.2925751)
(0.8996502 1.881493 0.2914782)
(1.099833 1.88071 0.2911005)
(1.299929 1.880451 0.2909723)
(1.499971 1.880419 0.2909437)
(1.699986 1.880528 0.2909651)
(1.899987 1.880712 0.2910132)
(2.099995 1.880808 0.2910508)
(0.2581754 2.049872 0.2521825)
(0.4993548 2.096176 0.2920743)
(0.6987926 2.092686 0.2868395)
(0.8992536 2.090634 0.2846855)
(1.099611 2.089678 0.2839175)
(1.299811 2.089298 0.2836467)
(1.49991 2.089222 0.2835722)
(1.699958 2.089308 0.2835874)
(1.899978 2.089437 0.2836375)
(2.099989 2.08948 0.2836751)
(0.2580959 2.249934 0.2521734)
(0.4988242 2.298308 0.2908201)
(0.6982899 2.296541 0.2843582)
(0.8989332 2.295251 0.2814874)
(1.099422 2.294516 0.280407)
(1.299703 2.294181 0.2800072)
(1.499851 2.294106 0.2798868)
(1.699926 2.294175 0.2798953)
(1.899964 2.294277 0.2799541)
(2.099982 2.294303 0.280001)
(0.2580805 2.449968 0.2521578)
(0.4986011 2.499191 0.2903835)
(0.698027 2.498283 0.2834493)
(0.8987346 2.497534 0.280237)
(1.099292 2.497047 0.2789694)
(1.299623 2.496802 0.2784799)
(1.499803 2.496742 0.2783236)
(1.699899 2.496792 0.2783256)
(1.89995 2.496868 0.2783917)
(2.099974 2.496885 0.2784476)
(0.2580759 2.649982 0.2521532)
(0.4985068 2.699594 0.2902211)
(0.6979002 2.699117 0.2831)
(0.8986246 2.698693 0.2797324)
(1.099211 2.698393 0.2783648)
(1.299569 2.69823 0.2778203)
(1.499769 2.698185 0.2776396)
(1.699879 2.698217 0.277636)
(1.899938 2.698268 0.2777065)
(2.099968 2.698278 0.2777686)
(0.2580741 2.849989 0.2521516)
(0.4984658 2.89979 0.2901557)
(0.69784 2.899535 0.2829568)
(0.8985665 2.899296 0.2795184)
(1.099164 2.899118 0.2781003)
(1.299536 2.899014 0.2775249)
(1.499747 2.898982 0.2773294)
(1.699865 2.898999 0.277322)
(1.89993 2.899029 0.2773946)
(2.099962 2.899034 0.2774597)
(0.2580734 3.049992 0.252151)
(0.4984471 3.099888 0.2901279)
(0.6978113 3.09975 0.2828951)
(0.8985363 3.099616 0.2794244)
(1.099138 3.099512 0.2779814)
(1.299515 3.099448 0.2773901)
(1.499733 3.099425 0.2771866)
(1.699856 3.099432 0.2771769)
(1.899924 3.099449 0.2772503)
(2.099958 3.09945 0.2773166)
(0.2580731 3.249993 0.2521508)
(0.4984384 3.29994 0.2901157)
(0.6977972 3.299864 0.2828678)
(0.8985208 3.299789 0.279382)
(1.099124 3.299728 0.2779272)
(1.299504 3.299689 0.2773285)
(1.499725 3.299674 0.2771214)
(1.69985 3.299676 0.2771109)
(1.89992 3.299684 0.2771848)
(2.099955 3.299684 0.2772509)
(0.258073 3.449994 0.2521507)
(0.4984342 3.499967 0.2901102)
(0.6977903 3.499925 0.2828553)
(0.8985129 3.499883 0.2793627)
(1.099116 3.499848 0.2779027)
(1.299498 3.499825 0.2773007)
(1.49972 3.499814 0.2770926)
(1.699847 3.499814 0.2770824)
(1.899917 3.499818 0.2771568)
(2.099953 3.499817 0.2772225)
(0.2580729 3.649994 0.2521506)
(0.4984321 3.699982 0.2901076)
(0.697787 3.699959 0.2828496)
(0.8985088 3.699935 0.2793539)
(1.099112 3.699914 0.2778916)
(1.299494 3.699901 0.2772887)
(1.499717 3.699894 0.2770808)
(1.699845 3.699893 0.2770714)
(1.899916 3.699894 0.2771463)
(2.099951 3.699893 0.2772115)
(0.2580729 3.849995 0.2521506)
(0.4984312 3.89999 0.2901063)
(0.6977855 3.899977 0.2828469)
(0.898507 3.899963 0.2793498)
(1.099111 3.899952 0.2778866)
(1.299493 3.899944 0.2772838)
(1.499716 3.899939 0.2770764)
(1.699844 3.899938 0.277068)
(1.899915 3.899939 0.2771437)
(2.099951 3.899938 0.2772086)
(0.2580729 4.049995 0.2521506)
(0.4984309 4.099994 0.2901057)
(0.6977851 4.099987 0.2828455)
(0.8985066 4.099979 0.2793477)
(1.09911 4.099973 0.2778843)
(1.299493 4.099968 0.2772816)
(1.499716 4.099965 0.277075)
(1.699844 4.099964 0.2770677)
(1.899915 4.099964 0.2771438)
(2.099951 4.099964 0.2772088)
(0.2580728 4.249995 0.2521506)
(0.498431 4.299997 0.2901055)
(0.6977857 4.299993 0.2828451)
(0.8985075 4.299988 0.2793472)
(1.099111 4.299984 0.2778837)
(1.299493 4.299982 0.2772814)
(1.499717 4.29998 0.2770755)
(1.699845 4.29998 0.277069)
(1.899915 4.29998 0.277146)
(2.099951 4.299979 0.2772116)
(0.2580729 4.449995 0.2521506)
(0.498432 4.499998 0.2901062)
(0.6977876 4.499996 0.2828466)
(0.89851 4.499994 0.2793494)
(1.099114 4.499992 0.2778867)
(1.299496 4.49999 0.2772851)
(1.499718 4.499989 0.2770799)
(1.699846 4.499989 0.2770745)
(1.899916 4.499989 0.2771523)
(2.099951 4.499988 0.2772187)
(0.2580729 4.649995 0.2521506)
(0.4984341 4.7 0.2901091)
(0.6977919 4.699999 0.2828528)
(0.8985152 4.699997 0.2793587)
(1.099119 4.699996 0.2778984)
(1.2995 4.699996 0.2772986)
(1.499722 4.699995 0.2770947)
(1.699848 4.699995 0.2770901)
(1.899918 4.699995 0.2771689)
(2.099952 4.699995 0.2772364)
(0.3503396 4.950054 0.2470106)
(0.4984389 4.900001 0.2901171)
(0.6978006 4.900001 0.2828692)
(0.8985254 4.900001 0.2793828)
(1.099129 4.900001 0.2779284)
(1.299508 4.9 0.2773324)
(1.499728 4.9 0.277131)
(1.699852 4.9 0.2771275)
(1.89992 4.9 0.2772068)
(2.099954 4.900001 0.277275)
(0.4523098 0.2583915 0.4489705)
(0.7024866 0.3071519 0.4967874)
(0.9007874 0.3048566 0.4957048)
(1.100027 0.3042347 0.4953481)
(1.299983 0.3041352 0.4951881)
(1.499993 0.3041204 0.4951373)
(1.699996 0.3041055 0.4951281)
(1.899999 0.3040941 0.4951297)
(0.2583829 0.4523343 0.4489811)
(0.4999713 0.5012386 0.4963078)
(0.6998597 0.5002642 0.4941173)
(0.8998815 0.4990566 0.4928283)
(1.099938 0.4988863 0.4923025)
(1.299975 0.4989777 0.4921156)
(1.499989 0.4990133 0.492066)
(1.699994 0.4989746 0.4920681)
(1.899999 0.4989326 0.4920811)
(0.3069514 0.7033705 0.4970696)
(0.4977948 0.7045912 0.4945561)
(0.6991206 0.7085849 0.4925507)
(0.8997209 0.7115589 0.4914803)
(1.099919 0.713338 0.4910737)
(1.299982 0.7141675 0.4909345)
(1.499999 0.7144221 0.4909076)
(1.700003 0.7143966 0.4909273)
(1.900006 0.7143267 0.4909525)
(0.305378 0.9023252 0.4965701)
(0.4971068 0.9114118 0.4946747)
(0.6993445 0.9236042 0.4935909)
(0.8998961 0.9321656 0.4930711)
(1.100016 0.9363123 0.4928608)
(1.300032 0.9379828 0.4927871)
(1.500032 0.9384908 0.4927777)
(1.700026 0.9385189 0.4928042)
(1.900018 0.9384513 0.4928339)
(0.3073642 1.1008 0.4976395)
(0.5007723 1.124634 0.4971202)
(0.7009011 1.148378 0.4973651)
(0.9005167 1.160694 0.4974671)
(1.100183 1.165765 0.4975209)
(1.300087 1.167498 0.4974762)
(1.500065 1.16798 0.4974459)
(1.700049 1.168029 0.4974537)
(1.90003 1.167988 0.497474)
(0.2570347 1.244118 0.4479817)
(0.5132901 1.342953 0.5053284)
(0.7149347 1.373514 0.5138705)
(0.9026282 1.384193 0.5153311)
(1.100338 1.387418 0.5157678)
(1.300099 1.388235 0.515717)
(1.500079 1.388415 0.5156453)
(1.700057 1.388433 0.5156284)
(1.900034 1.388419 0.5156359)
(0.4456732 1.460656 0.4497377)
(0.4543324 1.62618 0.4504263)
(0.7014115 1.67091 0.5009608)
(0.9004646 1.668211 0.5018824)
(1.100069 1.667312 0.5020558)
(1.300041 1.667088 0.5020501)
(1.500034 1.667057 0.5020459)
(1.700027 1.667106 0.502052)
(1.900018 1.667188 0.5020614)
(0.3088114 1.898321 0.5010681)
(0.4994569 1.883968 0.4984044)
(0.6992336 1.874315 0.4966468)
(0.8995452 1.86945 0.4957577)
(1.099764 1.867594 0.4953808)
(1.299892 1.866963 0.4952282)
(1.499956 1.866838 0.4951914)
(1.699981 1.866949 0.495221)
(1.899988 1.867129 0.4952819)
(0.3068541 2.098941 0.5018632)
(0.497491 2.092979 0.4968065)
(0.6982261 2.086245 0.4933078)
(0.8988847 2.081732 0.4912208)
(1.099382 2.079547 0.4902635)
(1.299672 2.07867 0.4898814)
(1.49983 2.078465 0.4897716)
(1.699913 2.078592 0.4898007)
(1.899953 2.078793 0.4898862)
(2.099974 2.078841 0.4899499)
(0.306174 2.299309 0.5019034)
(0.4964101 2.296679 0.4958428)
(0.697312 2.293054 0.4911336)
(0.8982805 2.290063 0.4880995)
(1.099008 2.288285 0.4866239)
(1.299446 2.287478 0.4860103)
(1.499696 2.287274 0.4858156)
(1.699835 2.287396 0.4858339)
(1.899913 2.287585 0.4859408)
(2.099955 2.287619 0.4860285)
(0.305992 2.499646 0.5018293)
(0.4959746 2.498345 0.4953915)
(0.6967887 2.496432 0.4900783)
(0.8978585 2.494685 0.4864728)
(1.098727 2.493504 0.4846259)
(1.299266 2.492905 0.4838305)
(1.499584 2.492742 0.4835622)
(1.699768 2.492837 0.4835665)
(1.899875 2.492989 0.4836882)
(2.099937 2.493011 0.4837953)
(0.3059338 2.699822 0.5017878)
(0.4957935 2.699147 0.4951899)
(0.6965352 2.698118 0.4896092)
(0.8976208 2.69712 0.485733)
(1.098547 2.696392 0.483686)
(1.299143 2.695992 0.4827761)
(1.499504 2.695874 0.4824557)
(1.699719 2.695937 0.4824466)
(1.899846 2.696042 0.4825753)
(2.09992 2.696055 0.4826941)
(0.3059103 2.899907 0.50177)
(0.4957136 2.899549 0.4951005)
(0.6964121 2.89899 0.4893997)
(0.8974933 2.898424 0.4853967)
(1.098441 2.89799 0.483249)
(1.299065 2.897737 0.4822761)
(1.499451 2.897655 0.4819237)
(1.699684 2.897688 0.481904)
(1.899824 2.897753 0.4820344)
(2.099906 2.897759 0.4821583)
(0.3058999 3.099951 0.5017621)
(0.4956765 3.099758 0.4950604)
(0.6963518 3.099451 0.4893053)
(0.8974261 3.099131 0.4852433)
(1.098381 3.098877 0.4830469)
(1.299018 3.098721 0.4820421)
(1.499418 3.098664 0.481673)
(1.699662 3.098679 0.4816471)
(1.899809 3.098714 0.481777)
(2.099896 3.098715 0.4819013)
(0.305895 3.299973 0.5017587)
(0.4956587 3.299868 0.4950425)
(0.6963217 3.299699 0.4892628)
(0.8973909 3.299518 0.4851738)
(1.098348 3.29937 0.4829549)
(1.298991 3.299276 0.4819357)
(1.499398 3.299238 0.4815597)
(1.699648 3.299241 0.481532)
(1.899799 3.299259 0.4816613)
(2.099888 3.299257 0.4817837)
(0.3058925 3.499985 0.5017572)
(0.4956499 3.499928 0.4950345)
(0.6963064 3.499834 0.4892436)
(0.8973728 3.499732 0.4851425)
(1.09833 3.499646 0.4829141)
(1.298976 3.49959 0.48189)
(1.499386 3.499564 0.481513)
(1.699639 3.499564 0.4814866)
(1.899793 3.499571 0.4816163)
(2.099883 3.499568 0.4817363)
(0.3058913 3.699992 0.5017566)
(0.4956456 3.69996 0.4950308)
(0.6962989 3.699907 0.4892348)
(0.8973634 3.69985 0.4851285)
(1.098321 3.699801 0.4828967)
(1.298968 3.699767 0.481872)
(1.49938 3.699751 0.4814969)
(1.699635 3.699749 0.4814733)
(1.899789 3.699752 0.4816044)
(2.09988 3.699748 0.4817225)
(0.3058908 3.899996 0.5017562)
(0.4956435 3.899978 0.4950289)
(0.6962956 3.899948 0.4892305)
(0.8973592 3.899916 0.4851219)
(1.098317 3.899887 0.482889)
(1.298964 3.899868 0.4818652)
(1.499377 3.899857 0.481493)
(1.699632 3.899855 0.4814726)
(1.899787 3.899856 0.4816054)
(2.099878 3.899853 0.4817226)
(0.3058906 4.099997 0.501756)
(0.495643 4.099988 0.4950277)
(0.6962947 4.099971 0.4892278)
(0.8973583 4.099952 0.4851179)
(1.098316 4.099936 0.4828847)
(1.298964 4.099924 0.4818622)
(1.499377 4.099918 0.4814923)
(1.699632 4.099916 0.4814748)
(1.899787 4.099916 0.4816098)
(2.099877 4.099914 0.4817274)
(0.3058907 4.299999 0.5017559)
(0.4956435 4.299993 0.495027)
(0.6962961 4.299984 0.489226)
(0.8973603 4.299973 0.4851151)
(1.098318 4.299963 0.4828816)
(1.298966 4.299956 0.4818599)
(1.499378 4.299953 0.4814921)
(1.699634 4.299951 0.4814774)
(1.899788 4.299951 0.4816151)
(2.099878 4.29995 0.4817339)
(0.3058911 4.499999 0.501756)
(0.4956454 4.499996 0.4950272)
(0.6963002 4.499991 0.4892262)
(0.897366 4.499984 0.4851155)
(1.098324 4.499979 0.4828825)
(1.298971 4.499975 0.4818616)
(1.499383 4.499972 0.4814961)
(1.699637 4.499972 0.4814843)
(1.89979 4.499972 0.481625)
(2.099879 4.499971 0.4817465)
(0.3058921 4.7 0.5017566)
(0.4956498 4.699998 0.4950304)
(0.6963092 4.699995 0.4892332)
(0.8973778 4.699991 0.4851258)
(1.098336 4.699988 0.4828958)
(1.298982 4.699985 0.4818777)
(1.499392 4.699984 0.4815152)
(1.699643 4.699984 0.4815068)
(1.899795 4.699984 0.4816511)
(2.099882 4.699984 0.4817764)
(0.3058943 4.9 0.5017589)
(0.4956588 4.9 0.495041)
(0.6963269 4.899998 0.4892558)
(0.8974001 4.899996 0.48516)
(1.098358 4.899993 0.4829391)
(1.299 4.899992 0.4819277)
(1.499406 4.899991 0.48157)
(1.699654 4.899992 0.4815657)
(1.899801 4.899992 0.4817136)
(2.099886 4.899993 0.4818431)
(0.4523231 0.2583791 0.6497693)
(0.702727 0.3070729 0.6987036)
(0.9009816 0.304687 0.6979788)
(1.100055 0.3039863 0.6976793)
(1.299987 0.3038874 0.6975662)
(1.499993 0.303876 0.6975303)
(1.699995 0.3038574 0.6975234)
(1.899999 0.3038417 0.6975243)
(0.2583608 0.4523668 0.6497781)
(0.5000552 0.5018265 0.6986816)
(0.7000077 0.5013651 0.6975846)
(0.9000055 0.5004259 0.6968229)
(1.100002 0.5004659 0.6964637)
(1.300002 0.5006828 0.696323)
(1.499998 0.5007597 0.6962836)
(1.699996 0.5007122 0.6962851)
(1.900001 0.5006535 0.6962959)
(0.3067347 0.7039046 0.6988885)
(0.497811 0.7064734 0.6978716)
(0.6994345 0.7126911 0.6968425)
(0.8999889 0.7175636 0.6961913)
(1.100061 0.7204851 0.6958974)
(1.300046 0.7218175 0.6957865)
(1.500026 0.7222332 0.6957646)
(1.700014 0.7222125 0.6957819)
(1.900012 0.7221161 0.6958046)
(0.3051431 0.9030442 0.6985729)
(0.4971751 0.9151445 0.6979056)
(0.6998031 0.9323672 0.6973478)
(0.9002249 0.9451642 0.6970224)
(1.100199 0.9514663 0.6968718)
(1.300119 0.9540068 0.6968142)
(1.500075 0.9547898 0.696807)
(1.700049 0.954853 0.6968293)
(1.900031 0.9547669 0.696854)
(0.3071418 1.101424 0.6990895)
(0.5011182 1.129975 0.6989347)
(0.7014263 1.160582 0.6990624)
(0.9009469 1.178196 0.699225)
(1.10036 1.185562 0.6993139)
(1.300161 1.188091 0.6993093)
(1.500108 1.188802 0.6992969)
(1.700078 1.188891 0.6993041)
(1.900047 1.188847 0.6993179)
(0.2568983 1.244117 0.6487163)
(0.5157958 1.348561 0.7004513)
(0.7164759 1.384174 0.7022415)
(0.9038003 1.395694 0.7033474)
(1.100533 1.399962 0.7036013)
(1.300142 1.401086 0.7035924)
(1.500117 1.401339 0.7035518)
(1.700087 1.401372 0.7035381)
(1.900052 1.401362 0.7035404)
(0.4445593 1.46145 0.6501546)
(0.4547473 1.625369 0.6500811)
(0.7024399 1.668242 0.700265)
(0.900849 1.664103 0.7005521)
(1.10012 1.662792 0.7006931)
(1.300066 1.662441 0.7006974)
(1.500053 1.662371 0.7006964)
(1.700035 1.662393 0.7007029)
(1.900017 1.662435 0.7007117)
(0.3074688 1.89878 0.7002922)
(0.4981474 1.88183 0.699332)
(0.6988069 1.8695 0.6986122)
(0.8993841 1.862473 0.6981123)
(1.099692 1.859681 0.6978484)
(1.299863 1.858704 0.6977289)
(1.499946 1.858469 0.6976963)
(1.699981 1.85854 0.6977152)
(1.899989 1.858677 0.6977569)
(0.3044625 2.098791 0.700485)
(0.4951153 2.091067 0.6985961)
(0.6971974 2.081968 0.6970062)
(0.8983931 2.075324 0.69574)
(1.09914 2.071938 0.6950193)
(1.299542 2.070554 0.6946993)
(1.49976 2.070192 0.6946)
(1.699875 2.070311 0.6946252)
(1.899932 2.070528 0.6947059)
(0.303492 2.299032 0.7005299)
(0.4934975 2.29551 0.6980604)
(0.6958767 2.29029 0.6957422)
(0.8975256 2.285598 0.6937558)
(1.09857 2.282645 0.6925443)
(1.299198 2.281284 0.6919776)
(1.49955 2.280913 0.6917889)
(1.699749 2.281051 0.6918075)
(1.899863 2.28129 0.6919216)
(2.099929 2.281308 0.6920262)
(0.303224 2.49948 0.7004764)
(0.4928527 2.497682 0.6977557)
(0.6950952 2.494844 0.6949959)
(0.8968813 2.492043 0.6924933)
(1.098122 2.490026 0.6908751)
(1.298909 2.488976 0.6900818)
(1.499368 2.488673 0.6898012)
(1.699637 2.488791 0.6897999)
(1.899799 2.488998 0.6899318)
(2.099898 2.489008 0.6900639)
(0.3031398 2.699733 0.7004407)
(0.4925874 2.698779 0.6976007)
(0.694716 2.697227 0.6946211)
(0.8965011 2.695626 0.6918423)
(1.097824 2.694399 0.6899694)
(1.298706 2.693707 0.6890146)
(1.499234 2.693491 0.6886631)
(1.699552 2.693573 0.6886396)
(1.899748 2.693721 0.6887766)
(2.09987 2.693724 0.6889231)
(0.3031065 2.89986 0.7004238)
(0.4924706 2.899347 0.6975261)
(0.6945315 2.898493 0.6944414)
(0.8963012 2.897584 0.6915334)
(1.097651 2.896858 0.6895399)
(1.298578 2.896425 0.6885023)
(1.499147 2.89628 0.6881079)
(1.699495 2.896325 0.6880666)
(1.899711 2.896418 0.6882002)
(2.099848 2.896416 0.6883498)
(0.3030918 3.099925 0.7004161)
(0.4924164 3.099647 0.6974913)
(0.6944405 3.099175 0.6943574)
(0.8961962 3.09866 0.6913894)
(1.097555 3.098236 0.6893398)
(1.298503 3.097972 0.6882629)
(1.499092 3.097874 0.6878468)
(1.699458 3.097894 0.6877949)
(1.899686 3.097946 0.6879228)
(2.09983 3.097941 0.6880682)
(0.3030848 3.29996 0.7004127)
(0.4923902 3.299807 0.6974752)
(0.6943948 3.299545 0.6943189)
(0.8961411 3.299254 0.6913239)
(1.097502 3.299008 0.6892502)
(1.298459 3.298849 0.6881579)
(1.49906 3.298784 0.6877352)
(1.699434 3.298789 0.6876806)
(1.899669 3.298816 0.6878049)
(2.099818 3.298809 0.687943)
(0.3030815 3.499978 0.7004112)
(0.492377 3.499894 0.697468)
(0.6943714 3.499748 0.6943016)
(0.8961124 3.499584 0.6912955)
(1.097473 3.499441 0.6892133)
(1.298435 3.499346 0.6881184)
(1.499041 3.499304 0.6876984)
(1.69942 3.499303 0.6876475)
(1.899659 3.499314 0.6877716)
(2.099809 3.499308 0.6879027)
(0.3030798 3.699988 0.7004106)
(0.4923705 3.699941 0.6974646)
(0.6943598 3.69986 0.6942939)
(0.8960976 3.699767 0.6912836)
(1.097458 3.699685 0.6891999)
(1.298422 3.699628 0.688108)
(1.499031 3.699601 0.6876952)
(1.699413 3.699598 0.6876516)
(1.899652 3.699602 0.6877782)
(2.099803 3.699596 0.6879041)
(0.303079 3.899993 0.7004102)
(0.4923676 3.899967 0.6974627)
(0.6943547 3.899922 0.6942897)
(0.8960913 3.899869 0.6912775)
(1.097452 3.899822 0.6891945)
(1.298416 3.899788 0.6881069)
(1.499026 3.899771 0.6877018)
(1.699409 3.899767 0.6876663)
(1.899649 3.899769 0.6877972)
(2.0998 3.899764 0.6879205)
(0.3030787 4.099996 0.7004099)
(0.4923669 4.099982 0.697461)
(0.6943537 4.099956 0.6942855)
(0.8960902 4.099926 0.6912715)
(1.097451 4.099898 0.6891886)
(1.298415 4.099879 0.6881043)
(1.499026 4.099868 0.6877056)
(1.699408 4.099865 0.6876773)
(1.899648 4.099865 0.687813)
(2.099799 4.099862 0.6879367)
(0.3030789 4.299998 0.7004095)
(0.4923679 4.29999 0.697459)
(0.6943561 4.299975 0.6942803)
(0.8960935 4.299957 0.691263)
(1.097455 4.299941 0.6891785)
(1.298419 4.29993 0.6880957)
(1.499029 4.299923 0.6877016)
(1.699411 4.299921 0.6876799)
(1.89965 4.299921 0.6878213)
(2.0998 4.299918 0.687948)
(0.3030796 4.499999 0.7004091)
(0.4923707 4.499994 0.6974567)
(0.6943624 4.499986 0.6942741)
(0.8961026 4.499975 0.6912519)
(1.097464 4.499965 0.6891642)
(1.298428 4.499957 0.6880816)
(1.499037 4.499953 0.6876913)
(1.699417 4.499952 0.6876765)
(1.899654 4.499952 0.6878254)
(2.099802 4.499951 0.6879584)
(0.303081 4.7 0.7004094)
(0.4923772 4.699997 0.6974559)
(0.6943759 4.699991 0.6942703)
(0.8961208 4.699984 0.6912439)
(1.097484 4.699977 0.6891531)
(1.298445 4.699972 0.6880706)
(1.499051 4.699969 0.6876847)
(1.699427 4.699969 0.6876782)
(1.899662 4.69997 0.6878372)
(2.099807 4.69997 0.6879801)
(0.3030838 4.9 0.7004107)
(0.4923896 4.899999 0.6974601)
(0.6944014 4.899994 0.6942765)
(0.8961542 4.899987 0.6912504)
(1.097518 4.899982 0.6891604)
(1.298475 4.899978 0.6880807)
(1.499074 4.899977 0.6877017)
(1.699445 4.899978 0.6877064)
(1.899673 4.899979 0.6878783)
(2.099814 4.89998 0.688034)
(0.452317 0.2583814 0.8499448)
(0.702731 0.3071402 0.899573)
(0.9010054 0.304786 0.8992796)
(1.100065 0.3041008 0.8991421)
(1.29999 0.3040132 0.8990866)
(1.499994 0.3040061 0.8990692)
(1.699995 0.3039856 0.8990662)
(1.899998 0.3039664 0.8990674)
(0.258356 0.452358 0.8499488)
(0.5000815 0.5021099 0.8995805)
(0.7000617 0.5020205 0.8991604)
(0.9000646 0.5013675 0.8988383)
(1.100039 0.5015948 0.8986687)
(1.30002 0.5019073 0.8985965)
(1.500005 0.5020152 0.8985753)
(1.699998 0.5019636 0.8985769)
(1.900002 0.5018926 0.898585)
(0.3067133 0.7040534 0.899658)
(0.4978647 0.7073556 0.899291)
(0.69959 0.7147298 0.8989013)
(0.9001339 0.7206699 0.8986362)
(1.100146 0.7242565 0.8984995)
(1.300089 0.7258911 0.8984429)
(1.500045 0.7264059 0.8984312)
(1.700022 0.7263894 0.8984415)
(1.900016 0.7262751 0.8984569)
(0.3051246 0.9033687 0.8995417)
(0.4972772 0.9167691 0.8992941)
(0.7000048 0.9361717 0.8990926)
(0.9003957 0.950921 0.8989822)
(1.100303 0.9583198 0.8989256)
(1.300171 0.9613264 0.8989038)
(1.500101 0.9622605 0.8989042)
(1.700064 0.9623426 0.8989177)
(1.900039 0.9622435 0.8989333)
(0.3071152 1.101759 0.8997156)
(0.5012772 1.132022 0.8996235)
(0.7016967 1.165185 0.8996318)
(0.9011836 1.18489 0.8996723)
(1.100464 1.193312 0.8996992)
(1.300206 1.196233 0.8997035)
(1.500133 1.197059 0.8997053)
(1.700093 1.197167 0.8997125)
(1.900056 1.197119 0.8997211)
(0.2568847 1.244179 0.8489206)
(0.5160406 1.349852 0.8999654)
(0.7170184 1.387222 0.9001576)
(0.9041204 1.399716 0.9003134)
(1.100619 1.404426 0.9003743)
(1.300166 1.405691 0.9003798)
(1.500137 1.405976 0.9003762)
(1.700102 1.406015 0.9003764)
(1.900062 1.406003 0.9003791)
(0.4445764 1.461619 0.8501232)
(0.45478 1.625244 0.8500258)
(0.7026365 1.667405 0.8999964)
(0.9010232 1.662881 0.9000034)
(1.100147 1.661362 0.9000112)
(1.30008 1.660952 0.900013)
(1.500064 1.660863 0.9000122)
(1.700039 1.660875 0.9000131)
(1.900018 1.660906 0.9000156)
(0.3070029 1.898839 0.8999817)
(0.4976666 1.881172 0.8998172)
(0.6985745 1.86787 0.8996211)
(0.8992775 1.859999 0.8994673)
(1.099644 1.856782 0.8993758)
(1.299843 1.855629 0.8993292)
(1.499939 1.855331 0.899313)
(1.699978 1.85538 0.8993194)
(1.899987 1.855497 0.8993411)
(0.3037423 2.098784 0.8999578)
(0.4942138 2.090303 0.8995992)
(0.6966185 2.080173 0.8991522)