/*--------------------------------*- C++ -*----------------------------------*\
  =========                 |
  \\      /  F ield         | OpenFOAM: The Open Source CFD Toolbox
   \\    /   O peration     | Website:  https://openfoam.org
    \\  /    A nd           | Version:  7
     \\/     M anipulation  |
\*---------------------------------------------------------------------------*/
FoamFile
{
    version     2.0;
    format      ascii;
    class       volScalarField;
    location    "0.1";
    object      Cx;
}
// * * * * * * * * * * * * * * * * * * * * * * * * * * * * * * * * * * * * * //

dimensions      [0 1 0 0 0 0 0];

internalField   nonuniform List<scalar> 
77997
(
0.4512448
0.6502078
0.8499486
1.049951
1.249959
1.44996
1.64996
1.849961
2.04996
0.2569967
0.4987731
0.6993471
0.8995992
1.099855
1.299957
1.499989
1.699998
1.9
0.2552501
0.4983434
0.6990485
0.8993501
1.099755
1.299926
1.499981
1.699997
1.9
0.2548674
0.4981216
0.6989946
0.899356
1.099762
1.29993
1.499983
1.699998
1.900001
0.2548315
0.4979955
0.6992378
0.8996125
1.099865
1.299964
1.499993
1.700001
1.900002
0.2561678
0.4489643
0.648394
0.8488239
1.048953
1.248983
1.448991
1.648995
1.848992
2.048992
0.2295879
0.4233668
0.6243324
0.824426
1.02444
1.224448
1.424453
1.624451
1.824439
2.024449
0.4244924
0.6249594
0.8249861
1.02499
1.22499
1.42499
1.62499
1.82499
2.02499
0.49926
0.6997071
0.8997313
1.099893
1.299964
1.49999
1.699997
1.899997
2.1
0.4995917
0.6995673
0.8994995
1.099782
1.29992
1.499972
1.699991
1.899997
2.099998
0.4995357
0.6994909
0.8993719
1.099711
1.299888
1.499957
1.699984
1.899995
2.099997
0.499451
0.699403
0.8993069
1.099672
1.299867
1.499946
1.699979
1.899992
2.099996
0.4994133
0.6993597
0.8992744
1.099651
1.299854
1.499939
1.699975
1.89999
2.099995
0.4993995
0.6993419
0.8992592
1.099639
1.299847
1.499934
1.699972
1.899989
2.099994
0.4993941
0.6993345
0.899252
1.099634
1.299842
1.499931
1.69997
1.899987
2.099993
0.4993918
0.6993313
0.8992486
1.099631
1.29984
1.49993
1.699969
1.899987
2.099992
0.499391
0.6993297
0.8992469
1.099629
1.299839
1.499928
1.699968
1.899986
2.099992
0.4993904
0.6993291
0.899246
1.099628
1.299838
1.499928
1.699968
1.899986
2.099992
0.4993903
0.6993288
0.8992457
1.099628
1.299837
1.499928
1.699968
1.899986
2.099991
0.4993902
0.6993288
0.8992456
1.099628
1.299837
1.499928
1.699968
1.899986
2.099991
0.4993902
0.6993289
0.8992458
1.099628
1.299838
1.499928
1.699968
1.899986
2.099991
0.4993905
0.6993293
0.8992464
1.099629
1.299838
1.499928
1.699968
1.899986
2.099992
0.4993911
0.6993303
0.8992475
1.09963
1.299839
1.499929
1.699969
1.899986
2.099992
0.4993924
0.6993325
0.8992499
1.099632
1.299841
1.49993
1.69997
1.899987
2.099992
0.4516905
0.7012616
0.9003446
1.099979
1.29998
1.499993
1.699997
1.899999
0.2581583
0.4992603
0.6993927
0.8996696
1.099863
1.299952
1.499984
1.699994
1.899999
0.3070413
0.4972602
0.6985873
0.899412
1.099783
1.29993
1.499981
1.699997
1.900002
0.3061265
0.4966862
0.698613
0.8994859
1.099824
1.299951
1.499994
1.700006
1.900006
0.3073929
0.4993005
0.6997819
0.8999417
1.099972
1.300002
1.500017
1.700017
1.90001
0.2578184
0.507717
0.7060571
0.9007018
1.100063
1.300027
1.500032
1.700027
1.900013
0.4475558
0.6496514
0.8501427
1.050137
1.250109
1.450092
1.650084
1.850078
2.050075
0.4533981
0.6504475
0.8500799
1.050035
1.250012
1.449999
1.649995
1.849996
2.049992
0.2585452
0.500311
0.6994484
0.8996502
1.099833
1.299929
1.499971
1.699986
1.899987
2.099995
0.2581754
0.4993548
0.6987926
0.8992536
1.099611
1.299811
1.49991
1.699958
1.899978
2.099989
0.2580959
0.4988242
0.6982899
0.8989332
1.099422
1.299703
1.499851
1.699926
1.899964
2.099982
0.2580805
0.4986011
0.698027
0.8987346
1.099292
1.299623
1.499803
1.699899
1.89995
2.099974
0.2580759
0.4985068
0.6979002
0.8986246
1.099211
1.299569
1.499769
1.699879
1.899938
2.099968
0.2580741
0.4984658
0.69784
0.8985665
1.099164
1.299536
1.499747
1.699865
1.89993
2.099962
0.2580734
0.4984471
0.6978113
0.8985363
1.099138
1.299515
1.499733
1.699856
1.899924
2.099958
0.2580731
0.4984384
0.6977972
0.8985208
1.099124
1.299504
1.499725
1.69985
1.89992
2.099955
0.258073
0.4984342
0.6977903
0.8985129
1.099116
1.299498
1.49972
1.699847
1.899917
2.099953
0.2580729
0.4984321
0.697787
0.8985088
1.099112
1.299494
1.499717
1.699845
1.899916
2.099951
0.2580729
0.4984312
0.6977855
0.898507
1.099111
1.299493
1.499716
1.699844
1.899915
2.099951
0.2580729
0.4984309
0.6977851
0.8985066
1.09911
1.299493
1.499716
1.699844
1.899915
2.099951
0.2580728
0.498431
0.6977857
0.8985075
1.099111
1.299493
1.499717
1.699845
1.899915
2.099951
0.2580729
0.498432
0.6977876
0.89851
1.099114
1.299496
1.499718
1.699846
1.899916
2.099951
0.2580729
0.4984341
0.6977919
0.8985152
1.099119
1.2995
1.499722
1.699848
1.899918
2.099952
0.3503396
0.4984389
0.6978006
0.8985254
1.099129
1.299508
1.499728
1.699852
1.89992
2.099954
0.4523098
0.7024866
0.9007874
1.100027
1.299983
1.499993
1.699996
1.899999
0.2583829
0.4999713
0.6998597
0.8998815
1.099938
1.299975
1.499989
1.699994
1.899999
0.3069514
0.4977948
0.6991206
0.8997209
1.099919
1.299982
1.499999
1.700003
1.900006
0.305378
0.4971068
0.6993445
0.8998961
1.100016
1.300032
1.500032
1.700026
1.900018
0.3073642
0.5007723
0.7009011
0.9005167
1.100183
1.300087
1.500065
1.700049
1.90003
0.2570347
0.5132901
0.7149347
0.9026282
1.100338
1.300099
1.500079
1.700057
1.900034
0.4456732
0.4543324
0.7014115
0.9004646
1.100069
1.300041
1.500034
1.700027
1.900018
0.3088114
0.4994569
0.6992336
0.8995452
1.099764
1.299892
1.499956
1.699981
1.899988
0.3068541
0.497491
0.6982261
0.8988847
1.099382
1.299672
1.49983
1.699913
1.899953
2.099974
0.306174
0.4964101
0.697312
0.8982805
1.099008
1.299446
1.499696
1.699835
1.899913
2.099955
0.305992
0.4959746
0.6967887
0.8978585
1.098727
1.299266
1.499584
1.699768
1.899875
2.099937
0.3059338
0.4957935
0.6965352
0.8976208
1.098547
1.299143
1.499504
1.699719
1.899846
2.09992
0.3059103
0.4957136
0.6964121
0.8974933
1.098441
1.299065
1.499451
1.699684
1.899824
2.099906
0.3058999
0.4956765
0.6963518
0.8974261
1.098381
1.299018
1.499418
1.699662
1.899809
2.099896
0.305895
0.4956587
0.6963217
0.8973909
1.098348
1.298991
1.499398
1.699648
1.899799
2.099888
0.3058925
0.4956499
0.6963064
0.8973728
1.09833
1.298976
1.499386
1.699639
1.899793
2.099883
0.3058913
0.4956456
0.6962989
0.8973634
1.098321
1.298968
1.49938
1.699635
1.899789
2.09988
0.3058908
0.4956435
0.6962956
0.8973592
1.098317
1.298964
1.499377
1.699632
1.899787
2.099878
0.3058906
0.495643
0.6962947
0.8973583
1.098316
1.298964
1.499377
1.699632
1.899787
2.099877
0.3058907
0.4956435
0.6962961
0.8973603
1.098318
1.298966
1.499378
1.699634
1.899788
2.099878
0.3058911
0.4956454
0.6963002
0.897366
1.098324
1.298971
1.499383
1.699637
1.89979
2.099879
0.3058921
0.4956498
0.6963092
0.8973778
1.098336
1.298982
1.499392
1.699643
1.899795
2.099882
0.3058943
0.4956588
0.6963269
0.8974001
1.098358
1.299
1.499406
1.699654
1.899801
2.099886
0.4523231
0.702727
0.9009816
1.100055
1.299987
1.499993
1.699995
1.899999
0.2583608
0.5000552
0.7000077
0.9000055
1.100002
1.300002
1.499998
1.699996
1.900001
0.3067347
0.497811
0.6994345
0.8999889
1.100061
1.300046
1.500026
1.700014
1.900012
0.3051431
0.4971751
0.6998031
0.9002249
1.100199
1.300119
1.500075
1.700049
1.900031
0.3071418
0.5011182
0.7014263
0.9009469
1.10036
1.300161
1.500108
1.700078
1.900047
0.2568983
0.5157958
0.7164759
0.9038003
1.100533
1.300142
1.500117
1.700087
1.900052
0.4445593
0.4547473
0.7024399
0.900849
1.10012
1.300066
1.500053
1.700035
1.900017
0.3074688
0.4981474
0.6988069
0.8993841
1.099692
1.299863
1.499946
1.699981
1.899989
0.3044625
0.4951153
0.6971974
0.8983931
1.09914
1.299542
1.49976
1.699875
1.899932
0.303492
0.4934975
0.6958767
0.8975256
1.09857
1.299198
1.49955
1.699749
1.899863
2.099929
0.303224
0.4928527
0.6950952
0.8968813
1.098122
1.298909
1.499368
1.699637
1.899799
2.099898
0.3031398
0.4925874
0.694716
0.8965011
1.097824
1.298706
1.499234
1.699552
1.899748
2.09987
0.3031065
0.4924706
0.6945315
0.8963012
1.097651
1.298578
1.499147
1.699495
1.899711
2.099848
0.3030918
0.4924164
0.6944405
0.8961962
1.097555
1.298503
1.499092
1.699458
1.899686
2.09983
0.3030848
0.4923902
0.6943948
0.8961411
1.097502
1.298459
1.49906
1.699434
1.899669
2.099818
0.3030815
0.492377
0.6943714
0.8961124
1.097473
1.298435
1.499041
1.69942
1.899659
2.099809
0.3030798
0.4923705
0.6943598
0.8960976
1.097458
1.298422
1.499031
1.699413
1.899652
2.099803
0.303079
0.4923676
0.6943547
0.8960913
1.097452
1.298416
1.499026
1.699409
1.899649
2.0998
0.3030787
0.4923669
0.6943537
0.8960902
1.097451
1.298415
1.499026
1.699408
1.899648
2.099799
0.3030789
0.4923679
0.6943561
0.8960935
1.097455
1.298419
1.499029
1.699411
1.89965
2.0998
0.3030796
0.4923707
0.6943624
0.8961026
1.097464
1.298428
1.499037
1.699417
1.899654
2.099802
0.303081
0.4923772
0.6943759
0.8961208
1.097484
1.298445
1.499051
1.699427
1.899662
2.099807
0.3030838
0.4923896
0.6944014
0.8961542
1.097518
1.298475
1.499074
1.699445
1.899673
2.099814
0.452317
0.702731
0.9010054
1.100065
1.29999
1.499994
1.699995
1.899998
0.258356
0.5000815
0.7000617
0.9000646
1.100039
1.30002
1.500005
1.699998
1.900002
0.3067133
0.4978647
0.69959
0.9001339
1.100146
1.300089
1.500045
1.700022
1.900016
0.3051246
0.4972772
0.7000048
0.9003957
1.100303
1.300171
1.500101
1.700064
1.900039
0.3071152
0.5012772
0.7016967
0.9011836
1.100464
1.300206
1.500133
1.700093
1.900056
0.2568847
0.5160406
0.7170184
0.9041204
1.100619
1.300166
1.500137
1.700102
1.900062
0.4445764
0.45478
0.7026365
0.9010232
1.100147
1.30008
1.500064
1.700039
1.900018
0.3070029
0.4976666
0.6985745
0.8992775
1.099644
1.299843
1.499939
1.699978
1.899987
0.3037423
0.4942138
0.6966185
0.8980699
1.098984
1.299464
1.499719
1.699853
1.89992
0.3026123
0.4923579
0.6950574
0.8970312
1.098287
1.299046
1.499465
1.6997
1.899835
0.3023029
0.4916116
0.694126
0.896261
1.097756
1.298687
1.499237
1.699558
1.899753
2.099876
0.3022063
0.4913032
0.6936722
0.8957883
1.097388
1.29843
1.499067
1.699448
1.899687
2.099841
0.302168
0.4911668
0.6934505
0.895541
1.097169
1.298266
1.498954
1.699374
1.899639
2.099811
0.3021509
0.4911027
0.6933405
0.8954115
1.097048
1.298171
1.498885
1.699327
1.899607
2.099789
0.3021426
0.4910715
0.6932847
0.8953432
1.096982
1.298116
1.498843
1.699296
1.899585
2.099773
0.3021386
0.4910553
0.6932561
0.8953073
1.096946
1.298085
1.498819
1.699278
1.899571
2.099761
0.3021364
0.4910473
0.6932416
0.8952891
1.096928
1.298069
1.498807
1.699268
1.899562
2.099754
0.3021355
0.4910441
0.6932357
0.8952814
1.09692
1.298062
1.498801
1.699264
1.899558
2.09975
0.3021355
0.4910438
0.6932354
0.8952808
1.096919
1.298061
1.498801
1.699264
1.899557
2.099748
0.302136
0.4910457
0.6932391
0.895286
1.096925
1.298067
1.498806
1.699267
1.899559
2.099749
0.3021368
0.4910496
0.6932477
0.895298
1.096938
1.298079
1.498816
1.699275
1.899565
2.099752
0.3021385
0.4910572
0.6932644
0.8953209
1.096962
1.298101
1.498834
1.699289
1.899575
2.099758
0.3021417
0.4910716
0.6932944
0.8953614
1.097004
1.298139
1.498865
1.699312
1.89959
2.099767
0.4523109
0.7027144
0.9009939
1.100064
1.299992
1.499995
1.699995
1.900005
0.2583573
0.5001264
0.7001025
0.9000919
1.100054
1.300028
1.500008
1.699999
1.900002
0.3067881
0.4979976
0.6997003
0.9001964
1.100177
1.300103
1.500051
1.700024
1.900018
0.3052288
0.4974584
0.7001419
0.9004677
1.100336
1.300185
1.500107
1.700066
1.90004
0.3071898
0.501396
0.7017826
0.9012257
1.100482
1.300213
1.500135
1.700095
1.900056
0.2568879
0.5160683
0.7170379
0.9041279
1.100621
1.300166
1.500136
1.700101
1.900061
0.4445819
0.4547812
0.7026349
0.901022
1.100146
1.30008
1.500064
1.70004
1.900018
0.3070031
0.4976671
0.6985754
0.8992784
1.099645
1.299844
1.499939
1.699977
1.899987
0.3037434
0.494217
0.6966231
0.8980738
1.098986
1.299465
1.49972
1.699853
1.89992
0.3026147
0.4923648
0.6950666
0.8970391
1.098293
1.29905
1.499467
1.699701
1.899835
0.3023073
0.4916232
0.6941405
0.8962729
1.097765
1.298693
1.49924
1.69956
1.899754
0.3022121
0.4913179
0.6936896
0.8958024
1.097398
1.298436
1.499071
1.699452
1.899689
0.3021734
0.4911809
0.6934674
0.8955545
1.097179
1.298273
1.498959
1.699378
1.899642
2.099812
0.3021556
0.4911151
0.6933552
0.8954232
1.097057
1.298177
1.498889
1.69933
1.899609
2.09979
0.302147
0.4910824
0.6932975
0.8953533
1.096989
1.298121
1.498847
1.699299
1.899587
2.099773
0.3021419
0.4910642
0.6932667
0.8953157
1.096953
1.298089
1.498823
1.69928
1.899572
2.099762
0.302139
0.4910547
0.6932509
0.8952969
1.096934
1.298073
1.498809
1.69927
1.899563
2.099754
0.3021384
0.4910519
0.6932456
0.8952896
1.096926
1.298066
1.498804
1.699265
1.899559
2.09975
0.3021394
0.491054
0.6932476
0.8952907
1.096926
1.298066
1.498804
1.699265
1.899558
2.099748
0.3021408
0.4910581
0.6932541
0.8952983
1.096934
1.298072
1.498809
1.699269
1.89956
2.099749
0.3021417
0.4910629
0.6932649
0.8953131
1.096949
1.298087
1.49882
1.699277
1.899566
2.099752
0.3021434
0.4910713
0.6932838
0.895339
1.096977
1.298112
1.498841
1.699293
1.899576
2.099758
0.3021467
0.4910858
0.6933151
0.8953814
1.097022
1.298153
1.498875
1.699318
1.899593
2.099768
0.4523235
0.7025143
0.900833
1.10005
1.299994
1.499997
1.699994
1.900017
0.2583707
0.5002579
0.7001499
0.9000918
1.100049
1.300026
1.500009
1.699998
1.900001
0.3072185
0.4984294
0.6998462
0.9001979
1.100156
1.300088
1.500043
1.70002
1.900016
0.3057521
0.4980203
0.7003212
0.9004685
1.100303
1.300161
1.500092
1.700056
1.900035
0.3076262
0.5016784
0.7017561
0.9010914
1.100418
1.300183
1.500116
1.700081
1.900048
0.2569313
0.515932
0.7165558
0.903829
1.100541
1.300143
1.500117
1.700086
1.900052
0.4445601
0.4547733
0.7024341
0.900845
1.100118
1.300067
1.500055
1.700037
1.900018
0.3074699
0.4981497
0.6988109
0.8993879
1.099695
1.299863
1.499944
1.699978
1.899987
0.3044667
0.4951273
0.6972124
0.8984054
1.099148
1.299546
1.499761
1.699873
1.89993
0.3035022
0.493524
0.6959083
0.8975507
1.098587
1.299207
1.499555
1.699751
1.899863
0.3032451
0.4929008
0.6951469
0.8969201
1.098147
1.298924
1.499377
1.699642
1.899801
0.3031688
0.4926505
0.6947792
0.8965471
1.097853
1.298723
1.499246
1.69956
1.899752
0.3031325
0.4925287
0.6945902
0.8963442
1.097679
1.298596
1.499159
1.699503
1.899716
0.3031138
0.492466
0.6944903
0.896233
1.097579
1.298519
1.499104
1.699466
1.899691
2.099831
0.3031057
0.4924354
0.6944381
0.8961722
1.097522
1.298472
1.499069
1.699441
1.899673
2.099819
0.3030972
0.4924122
0.6944066
0.8961381
1.09749
1.298446
1.499049
1.699426
1.899662
2.09981
0.3030911
0.4923981
0.6943896
0.8961206
1.097474
1.298432
1.499037
1.699417
1.899655
2.099804
0.3030912
0.4923973
0.6943866
0.8961156
1.097468
1.298426
1.499032
1.699412
1.899651
2.099801
0.303097
0.4924078
0.6943945
0.89612
1.09747
1.298427
1.499032
1.699412
1.89965
2.099799
0.3031024
0.4924194
0.694407
0.8961313
1.097479
1.298434
1.499037
1.699415
1.899651
2.0998
0.3031022
0.4924244
0.6944208
0.8961493
1.097496
1.298447
1.499047
1.699422
1.899656
2.099802
0.3031027
0.492432
0.6944434
0.8961789
1.097526
1.298472
1.499066
1.699436
1.899664
2.099807
0.3031059
0.4924467
0.6944772
0.8962223
1.09757
1.298512
1.499099
1.69946
1.89968
2.099815
0.4520579
0.7014647
0.9004457
1.100014
1.300008
1.500007
1.699987
1.900007
0.2585527
0.5005486
0.7001296
0.9000325
1.100025
1.30002
1.50001
1.699996
1.899999
0.308485
0.4995952
0.6999848
0.9000947
1.100079
1.300047
1.500024
1.700012
1.900011
0.307762
0.49956
0.7004474
0.9003399
1.100191
1.300097
1.500056
1.700035
1.900023
0.3088704
0.5024256
0.7016279
0.900793
1.100286
1.300122
1.500077
1.700053
1.900032
0.2573214
0.5136968
0.7151328
0.9026927
1.100357
1.300103
1.500081
1.700058
1.900034
0.444909
0.4545345
0.7014037
0.9004776
1.100078
1.300032
1.50002
1.700032
1.90002
0.3088152
0.499465
0.6992459
0.8995604
1.099772
1.29989
1.499944
1.699971
1.899981
0.3068628
0.4975167
0.6982547
0.8989072
1.099395
1.299677
1.499829
1.699907
1.899948
0.306203
0.4964732
0.6973752
0.8983232
1.099032
1.299459
1.499702
1.699836
1.89991
0.3060736
0.4961158
0.6969031
0.8979265
1.098763
1.299286
1.499596
1.699774
1.899875
0.3060621
0.4960009
0.6966786
0.8977002
1.098588
1.299166
1.499518
1.699726
1.899847
0.3060106
0.4958854
0.6965349
0.8975631
1.098479
1.299087
1.499466
1.699693
1.899827
0.3059801
0.4958152
0.6964496
0.8974822
1.098413
1.299038
1.499432
1.699671
1.899812
0.3059879
0.4958054
0.696408
0.8974375
1.098374
1.299008
1.49941
1.699656
1.899802
2.099887
0.3059527
0.4957501
0.6963734
0.8974102
1.098352
1.29899
1.499396
1.699646
1.899796
2.099882
0.3059277
0.4957132
0.6963523
0.8973957
1.09834
1.29898
1.499388
1.69964
1.899791
2.099879
0.3059323
0.4957186
0.6963529
0.8973938
1.098336
1.298976
1.499384
1.699637
1.899789
2.099878
0.3059635
0.495763
0.6963737
0.8974022
1.09834
1.298977
1.499384
1.699636
1.899788
2.099877
0.3059951
0.4958104
0.6963987
0.8974174
1.09835
1.298983
1.499387
1.699637
1.899789
2.099877
0.305976
0.4957969
0.6964166
0.8974394
1.098367
1.298995
1.499395
1.699642
1.899791
2.099878
0.3059667
0.4957985
0.6964507
0.8974773
1.098396
1.299016
1.499409
1.69965
1.899795
2.09988
0.3059658
0.4958201
0.6965071
0.8975297
1.098438
1.299049
1.499435
1.699669
1.899805
2.099884
0.451663
0.651989
0.8489182
1.048968
1.249004
1.449164
1.648818
1.848982
2.049127
0.2588554
0.5002789
0.6997848
0.8998827
1.100007
1.300009
1.50001
1.699994
1.900001
0.2578546
0.5001856
0.6996632
0.8998554
1.099967
1.299993
1.499998
1.700006
1.900008
0.2565674
0.5005977
0.6999894
0.9000075
1.100019
1.300015
1.500013
1.700012
1.900009
0.2568089
0.5021646
0.7007846
0.9002991
1.100101
1.300035
1.500026
1.700016
1.900009
0.2576445
0.5084799
0.7063511
0.9008094
1.100113
1.300013
1.500034
1.70001
1.900007
0.4468059
0.6572653
0.8505521
1.049382
1.249256
1.449232
1.649216
1.849205
2.0492
0.4540519
0.6522514
0.8494878
1.049123
1.249167
1.448744
1.648993
1.848992
2.049
0.2579447
0.5003467
0.6994684
0.8996907
1.099851
1.299918
1.499934
1.699947
1.899963
0.2565021
0.4993937
0.6988292
0.8992776
1.099623
1.299817
1.499909
1.699949
1.899971
0.2563018
0.4989451
0.6983847
0.8989826
1.099446
1.299716
1.499857
1.699926
1.89996
0.2563358
0.4989881
0.6982264
0.8988211
1.099329
1.299641
1.499813
1.699903
1.899947
0.2564914
0.4991372
0.6981501
0.8987234
1.099253
1.299589
1.49978
1.699884
1.899937
0.2564804
0.4988705
0.6980225
0.8986429
1.099199
1.299554
1.499758
1.699871
1.899929
0.2563334
0.49873
0.6979387
0.8985902
1.099165
1.299531
1.499744
1.699862
1.899924
0.2564953
0.4988594
0.6979122
0.8985633
1.099145
1.299517
1.499734
1.699856
1.899921
0.2563639
0.498663
0.6978746
0.8985458
1.099133
1.299508
1.499728
1.699852
1.899919
2.09995
0.2562929
0.4985739
0.6978507
0.8985363
1.099127
1.299503
1.499724
1.699849
1.899917
2.09995
0.2562977
0.4986001
0.6978546
0.8985365
1.099125
1.299501
1.499721
1.699847
1.899916
2.09995
0.2563355
0.498728
0.6978877
0.8985458
1.099128
1.299501
1.49972
1.699846
1.899916
2.09995
0.2564896
0.4989083
0.6979256
0.8985615
1.099136
1.299505
1.499722
1.699846
1.899915
2.099949
0.2564102
0.4987693
0.6979483
0.8985857
1.099151
1.299513
1.499725
1.699847
1.899914
2.099949
0.2563456
0.4988101
0.6980159
0.8986356
1.099179
1.299528
1.499731
1.699848
1.899913
2.099948
0.256251
0.4989542
0.6981592
0.8987117
1.099221
1.299553
1.499746
1.699854
1.899913
2.099945
0.4502025
0.6498558
0.823433
1.024422
1.224684
1.424861
1.623353
1.824729
2.024208
0.2340737
0.4993384
0.69984
0.8998822
1.099942
1.299939
1.49991
1.700058
1.900023
0.2335857
0.4999913
0.699921
0.8997148
1.099887
1.299953
1.499971
1.70001
1.900009
0.2336235
0.5008584
0.7001536
0.8997851
1.099913
1.29997
1.49999
1.700002
1.900004
0.2583733
0.5010084
0.7001673
0.8999192
1.099972
1.299978
1.499998
1.699998
1.9
0.2583475
0.4491643
0.6499321
0.8501377
1.050168
1.250182
1.450193
1.65019
1.850192
2.050186
0.4482758
0.6497407
0.8500152
1.0501
1.250031
1.449993
1.649975
1.850034
2.050014
0.4508454
0.6499333
0.8501331
1.050109
1.252945
1.446832
1.650007
1.824685
2.024769
0.2335969
0.4992907
0.6997188
0.8998057
1.09991
1.299951
1.499917
1.699961
1.899995
0.2335556
0.4996267
0.6995973
0.8995129
1.099784
1.299928
1.499974
1.699985
1.899993
0.2335479
0.4996988
0.6995865
0.8994093
1.099724
1.299897
1.499964
1.699985
1.899993
0.2336173
0.5002012
0.6996319
0.8993846
1.099697
1.299877
1.499951
1.69998
1.89999
0.2345588
0.5003118
0.6996112
0.8993577
1.099678
1.299865
1.499944
1.699977
1.899989
0.2331157
0.4997263
0.6994751
0.8993101
1.099659
1.299855
1.499939
1.699974
1.899988
0.233605
0.499562
0.6994012
0.8992788
1.099645
1.299849
1.499936
1.699973
1.899987
0.233197
0.4996643
0.6993833
0.8992659
1.099638
1.299845
1.499933
1.699972
1.899987
0.2338596
0.4995867
0.699368
0.8992593
1.099635
1.299843
1.499932
1.699971
1.899986
0.2336906
0.4995318
0.6993602
0.8992563
1.099633
1.299841
1.49993
1.69997
1.899986
2.09999
0.2338408
0.499572
0.6993627
0.8992568
1.099632
1.29984
1.49993
1.699969
1.899986
2.099991
0.2337495
0.4996869
0.6993774
0.8992611
1.099634
1.29984
1.499929
1.699969
1.899986
2.099991
0.2343783
0.4997281
0.6993976
0.89927
1.099638
1.299842
1.499929
1.699968
1.899985
2.099991
0.2342495
0.4996484
0.6994301
0.8992911
1.099648
1.299845
1.499929
1.699966
1.899983
2.09999
0.2339936
0.4999222
0.6995453
0.8993459
1.099671
1.299853
1.499928
1.699962
1.899979
2.099987
0.2337941
0.5006425
0.6997819
0.8993902
1.099665
1.299868
1.499973
1.700007
1.900002
2.099988
0.3775241
0.2295951
0.3501338
0.3788745
0.2333588
0.3480477
0.3501743
0.2556447
0.3514023
0.2570721
0.347608
0.2549589
0.3458361
0.3510262
0.2550177
0.3508102
0.2550695
0.3446447
0.2538988
0.3439301
0.3506956
0.2548481
0.3505519
0.2536498
0.3436394
0.2536769
0.3437564
0.3502254
0.2550548
0.3480487
0.25398
0.3440746
0.2553758
0.345195
0.3500077
0.2565456
0.3482179
0.2556192
0.3469637
0.2321218
0.3480287
0.3737351
0.3876595
0.2284452
0.3458006
0.3781931
0.5753745
0.4120981
0.5878042
0.4481969
0.5491903
0.4279585
0.5757263
0.7755228
0.6121896
0.7878071
0.649741
0.7499094
0.6244838
0.7756637
0.975545
0.8121921
0.9878075
0.8500141
0.9500099
0.8244389
0.9756313
1.175552
1.012192
1.187808
1.050033
1.150004
1.024412
1.175616
1.375559
1.212192
1.387808
1.250025
1.349997
1.2244
1.37561
1.575555
1.412192
1.587808
1.45002
1.549992
1.424396
1.575608
1.775561
1.612192
1.787808
1.650019
1.749988
1.624394
1.775607
1.975551
1.812192
1.987808
1.850019
1.949988
1.824393
1.975608
2.012193
2.050014
2.024394
0.3738679
0.3477968
0.3795832
0.2335273
0.3483934
0.3464658
0.3488826
0.2335977
0.3484139
0.2335585
0.3480656
0.3491768
0.3493016
0.2335555
0.3479599
0.2335459
0.3478547
0.3492918
0.3492877
0.2335456
0.3478338
0.2335437
0.3477988
0.3492828
0.3492783
0.2335438
0.3477954
0.2335431
0.3477824
0.3492771
0.3492759
0.2335432
0.3477825
0.2335429
0.3477772
0.3492756
0.3492753
0.233543
0.3477778
0.2335429
0.3477755
0.3492753
0.3492752
0.2335429
0.347776
0.2335428
0.3477749
0.3492752
0.3492753
0.2335429
0.3477752
0.2335429
0.3477747
0.3492753
0.3492753
0.2335428
0.3477748
0.2335429
0.3477746
0.3492753
0.3492753
0.2335428
0.3477747
0.2335429
0.3477745
0.3492753
0.3492753
0.2335429
0.3477746
0.2335429
0.3477745
0.3492753
0.3492753
0.2335429
0.3477745
0.2335429
0.3477745
0.3492753
0.3492753
0.2335429
0.3477746
0.2335429
0.3477746
0.3492753
0.3492753
0.2335429
0.3477746
0.2335429
0.3477746
0.3492753
0.3492753
0.2335429
0.3477747
0.2335429
0.3477748
0.3492754
0.3492754
0.2335429
0.347775
0.2335429
0.3477753
0.378961
0.2335821
0.3492088
0.3790191
0.2337013
0.3495267
0.345055
0.3737996
0.344605
0.3737166
0.3790385
0.2336993
0.3496008
0.3790287
0.2337019
0.349609
0.3443783
0.3737107
0.3442705
0.3737525
0.3790338
0.2337
0.3496096
0.3790381
0.2337016
0.3496078
0.3442293
0.373762
0.344229
0.3737853
0.3790429
0.2336992
0.3496048
0.3790312
0.2337024
0.3496024
0.3442353
0.3737874
0.3442376
0.3737922
0.3790277
0.2337017
0.3496031
0.3790381
0.2337014
0.3496102
0.3442377
0.3737921
0.3442357
0.3737874
0.3790482
0.2336978
0.3496072
0.3790488
0.2337016
0.3496309
0.344231
0.3737852
0.3442353
0.3737617
0.3790351
0.2337054
0.3496492
0.378972
0.2337294
0.3496775
0.3442832
0.3737513
0.3443982
0.3737071
0.378969
0.2337358
0.3496498
0.3788057
0.2341539
0.3493417
0.3446162
0.3737125
0.3448909
0.3739706
0.378502
0.2333094
0.347363
0.3764314
0.3478687
0.5503696
0.4488147
0.549352
0.4503158
0.550983
0.9758691
0.8500663
0.9499017
0.8249956
0.8491049
0.9509966
1.17572
1.050097
1.150013
1.049015
1.150917
1.550186
1.450036
1.549955
1.574928
1.448879
1.550916
1.775667
1.650065
1.74998
1.624904
1.649238
1.750986
2.05005
2.049098
0.3482911
0.2335957
0.3481993
0.3465132
0.3489482
0.3481265
0.2335938
0.3482398
0.3492851
0.3495926
0.3488868
0.2342057
0.3504005
0.3504913
0.2308411
0.3530898
0.350744
0.258395
0.3505999
0.2330545
0.3549666
0.232916
0.3523826
0.3500001
0.2302326
0.3480363
0.2307764
0.3515519
0.34692
0.3452082
0.3783557
0.3735154
0.3876609
0.5493726
0.4282704
0.5755606
0.4231434
0.575794
0.4120823
0.5878113
0.7498494
0.6246604
0.7754989
0.6244151
0.7754762
0.6121813
0.7878148
0.9500718
0.8246328
0.9689724
0.824501
0.9759719
0.8121837
0.9872164
1.149993
1.176545
1.024791
1.175522
1.024889
1.175969
1.349925
1.223471
1.224468
1.375215
1.224031
1.375112
1.550092
1.431054
1.575414
1.423993
1.575873
1.412784
1.587816
1.749949
1.62456
1.77519
1.624456
1.776008
1.612185
1.787817
1.94996
1.82416
1.975457
1.824572
1.975508
1.812182
1.987808
2.024387
2.024491
2.012192
0.3796684
0.233525
0.3483197
0.373818
0.3477287
0.3484161
0.2335585
0.3480666
0.3464534
0.3488816
0.3479679
0.233547
0.3478746
0.3491804
0.3493161
0.3478966
0.2335798
0.3480148
0.349342
0.3494864
0.3486302
0.2343867
0.3499622
0.3502084
0.230392
0.3522343
0.3504509
0.2318734
0.3501692
0.2303887
0.3522678
0.3505384
0.3491606
0.2336472
0.3481917
0.3497036
0.3493903
0.3480234
0.2342416
0.348486
0.3493361
0.3494045
0.3495473
0.2342482
0.3490991
0.3497712
0.3495864
0.3484798
0.2338467
0.3486799
0.3496116
0.3500076
0.3482353
0.2336887
0.3482305
0.3495856
0.3495859
0.3486524
0.2336413
0.3483693
0.3500099
0.3496615
0.3487683
0.2342108
0.3493039
0.3499781
0.3503023
0.3494461
0.2332099
0.3496096
0.3498414
0.3497982
0.3485739
0.2337564
0.3484422
0.3494468
0.3496474
0.3492633
0.2340181
0.349425
0.3504099
0.350607
0.349221
0.234201
0.3502954
0.3507809
0.2316669
0.3532568
0.2670786
0.2690474
0.268062
0.272467
0.2290091
0.2697836
0.2699215
0.2660079
0.2671335
0.2662487
0.2669545
0.5749626
0.4501086
0.5509496
0.4285331
0.5752961
0.4488765
0.5494607
0.7750043
0.6489056
0.7508914
0.6248101
0.7752853
0.649709
0.7498645
0.9750095
0.8489464
0.9509667
0.8248094
0.9752637
0.849935
0.9499692
1.17501
1.048988
1.150991
1.024789
1.175247
1.049994
1.149991
1.37501
1.249001
1.350996
1.224775
1.375239
1.250007
1.349994
1.57501
1.449003
1.550997
1.424769
1.575236
1.450009
1.549994
1.77501
1.649004
1.750997
1.624766
1.775236
1.65001
1.749995
1.97501
1.849005
1.950997
1.824766
1.975237
1.850009
1.949991
2.049005
2.024767
2.050007
0.2654145
0.26656
0.2654998
0.26667
0.2653565
0.2670604
0.2653799
0.2671048
0.2653475
0.2670818
0.2653622
0.2671089
0.2653456
0.2670795
0.2653584
0.2671079
0.2653452
0.2670789
0.2653574
0.2671078
0.265345
0.2670789
0.2653572
0.2671077
0.265345
0.2670789
0.265357
0.2671077
0.265345
0.2670789
0.2653571
0.2671077
0.265345
0.2670789
0.265357
0.2671077
0.265345
0.2670789
0.265357
0.2671077
0.265345
0.2670789
0.265357
0.2671077
0.265345
0.2670789
0.265357
0.2671077
0.265345
0.2670789
0.265357
0.2671077
0.265345
0.2670789
0.265357
0.2671077
0.265345
0.2670789
0.265357
0.2671077
0.265345
0.2670789
0.2653571
0.2671077
0.2675863
0.2675578
0.349504
0.2306701
0.3484816
0.2572022
0.3499091
0.2302686
0.3484897
0.2663573
0.2667559
0.2667912
0.2657173
0.3804029
0.2584212
0.3504536
0.3820593
0.2572109
0.3504923
0.2675733
0.2675718
0.3499822
0.2302596
0.3485579
0.2569242
0.349916
0.2302543
0.3485926
0.2662397
0.2654483
0.2662401
0.2654422
0.3820268
0.2577471
0.3502354
0.3819965
0.2567016
0.349782
0.267579
0.2675896
0.3499136
0.2302539
0.348613
0.2568881
0.3498914
0.2302536
0.3486229
0.2662504
0.2654375
0.2662463
0.2654409
0.3819948
0.2564534
0.3495736
0.3820027
0.2563198
0.3494274
0.2675766
0.2675946
0.3498966
0.2302536
0.348628
0.2568856
0.349895
0.2302536
0.3486298
0.266253
0.2654399
0.266252
0.2654423
0.3820037
0.2562952
0.3493848
0.3820076
0.2562824
0.3493617
0.2675577
0.2675651
0.3499067
0.2302536
0.3486331
0.2569033
0.3499385
0.230254
0.34864
0.2662525
0.2654405
0.2662524
0.2654423
0.3820076
0.2562824
0.3493617
0.3820037
0.2562952
0.3493847
0.2676004
0.2676043
0.3499965
0.2302544
0.3486531
0.2570705
0.3501567
0.2302582
0.3486809
0.2662504
0.265441
0.2662519
0.2654422
0.3820024
0.2563198
0.349427
0.3819938
0.2564531
0.3495728
0.2676046
0.2676011
0.3503881
0.2302633
0.3487247
0.2583488
0.3508208
0.2302843
0.3487801
0.2662409
0.2654441
0.266245
0.2654481
0.3819944
0.2567013
0.34978
0.3820216
0.2577465
0.3502325
0.2675836
0.2675668
0.3510141
0.2302862
0.3487602
0.2585984
0.3510842
0.2302799
0.3486837
0.266255
0.2654657
0.2662424
0.2654881
0.3820541
0.25721
0.3504922
0.3805355
0.2584141
0.3504754
0.2668715
0.2673825
0.7500075
0.6498065
0.7497042
0.6249813
0.648973
0.7508872
1.375565
1.249959
1.350054
1.248946
1.351019
1.975252
1.849952
1.950044
1.848815
1.951191
0.9498257
0.8500232
0.9500038
0.8489527
0.9509876
0.8499697
0.9500593
1.149831
1.050042
1.149986
1.048986
1.150999
1.050063
1.149981
0.2655687
0.2656344
0.2662907
0.265865
0.5500481
0.4490252
0.5494839
0.4244606
0.5749587
0.4500964
0.5509501
0.7500036
0.6497015
0.7498799
0.6249578
0.775004
0.6488939
0.7508993
1.975237
1.85
1.950008
1.824995
1.975019
1.849036
1.951018
2.050011
2.02499
2.049007
0.267392
0.2675057
0.2860605
0.2839364
0.3111982
0.3875803
0.3106574
0.2667001
0.2293012
0.2689479
0.2701171
0.2673748
0.2799458
0.2820894
0.4877894
0.4122071
0.4876895
0.5121792
0.5877021
0.5122788
0.6878064
0.612292
0.6877058
0.7121919
0.7877068
0.7122959
0.8878072
0.8122967
0.8877064
0.9121926
0.987706
0.9122963
1.087807
1.012296
1.087705
1.112193
1.187705
1.112295
1.287807
1.212295
1.287705
1.312193
1.387705
1.312295
1.487807
1.412295
1.487705
1.512193
1.587705
1.512295
1.687807
1.612295
1.687705
1.712193
1.787705
1.712295
1.887807
1.812295
1.887705
1.912193
1.987706
1.912295
2.087807
2.012295
2.087706
0.2657993
0.2666293
0.2655651