/*--------------------------------*- C++ -*----------------------------------*\
  =========                 |
  \\      /  F ield         | OpenFOAM: The Open Source CFD Toolbox
   \\    /   O peration     | Website:  https://openfoam.org
    \\  /    A nd           | Version:  7
     \\/     M anipulation  |
\*---------------------------------------------------------------------------*/
FoamFile
{
    version     2.0;
    format      ascii;
    class       volScalarField;
    location    "0.1";
    object      Cy;
}
// * * * * * * * * * * * * * * * * * * * * * * * * * * * * * * * * * * * * * //

dimensions      [0 1 0 0 0 0 0];

internalField   nonuniform List<scalar> 
77997
(
0.2570004
0.2552496
0.2548512
0.2547928
0.2547873
0.2547864
0.2547864
0.2547869
0.2547873
0.4512405
0.4989103
0.4985833
0.4983115
0.4982061
0.4981835
0.4981772
0.4981694
0.4981638
0.6502136
0.6999181
0.7000685
0.7002008
0.7002704
0.7003137
0.7003254
0.7003159
0.7003051
0.8499718
0.9006923
0.9012812
0.9017092
0.902005
0.902138
0.902175
0.9021666
0.9021519
1.049536
1.101502
1.102233
1.10282
1.103154
1.103286
1.103318
1.103297
1.10327
1.248135
1.250004
1.247396
1.247383
1.247419
1.24743
1.247447
1.247415
1.247386
1.247384
1.422939
1.428908
1.429252
1.429155
1.429098
1.429011
1.429129
1.429007
1.428974
1.428983
1.619941
1.619846
1.619834
1.619832
1.619832
1.619832
1.619832
1.619834
1.619842
1.898564
1.898016
1.897687
1.897502
1.897433
1.897426
1.897459
1.897524
1.897566
2.099365
2.098801
2.098484
2.098274
2.098184
2.098168
2.098193
2.09823
2.098245
2.299563
2.299129
2.298849
2.298689
2.298615
2.2986
2.298618
2.298644
2.298652
2.49979
2.499563
2.499396
2.499291
2.499239
2.499227
2.499239
2.499258
2.499263
2.699902
2.699789
2.699697
2.699634
2.6996
2.699591
2.699599
2.699611
2.699614
2.899952
2.899894
2.899844
2.899807
2.899785
2.899779
2.899783
2.89979
2.899792
3.099975
3.099945
3.099918
3.099896
3.099883
3.099878
3.09988
3.099884
3.099885
3.299987
3.299971
3.299956
3.299943
3.299935
3.299932
3.299933
3.299935
3.299935
3.499993
3.499984
3.499975
3.499968
3.499963
3.499961
3.499961
3.499962
3.499962
3.699996
3.699991
3.699986
3.699982
3.699979
3.699978
3.699978
3.699978
3.699978
3.899998
3.899995
3.899992
3.89999
3.899988
3.899987
3.899987
3.899987
3.899987
4.099999
4.099997
4.099996
4.099994
4.099993
4.099993
4.099993
4.099993
4.099993
4.299999
4.299998
4.299998
4.299997
4.299996
4.299996
4.299996
4.299996
4.299996
4.5
4.499999
4.499999
4.499999
4.499998
4.499998
4.499998
4.499998
4.499998
4.7
4.7
4.7
4.7
4.7
4.7
4.7
4.7
4.7
4.900001
4.900001
4.900001
4.900001
4.900002
4.900002
4.900002
4.900002
4.900002
0.2581631
0.3071043
0.3056891
0.3052659
0.3052004
0.3051899
0.3051811
0.3051749
0.4516845
0.4998846
0.498456
0.4974285
0.4972295
0.497241
0.497248
0.497226
0.4972054
0.7017336
0.7017999
0.7031891
0.7042513
0.7049226
0.7052552
0.7053543
0.7053332
0.7052959
0.901211
0.9057371
0.9111661
0.9147091
0.9164446
0.9171566
0.9173678
0.9173651
0.9173226
1.1004
1.113413
1.125315
1.130728
1.13297
1.133743
1.133951
1.133949
1.133904
1.247107
1.325995
1.342866
1.348468
1.349831
1.350157
1.350227
1.350222
1.350198
1.456034
1.460915
1.461724
1.461895
1.461918
1.461922
1.461921
1.461917
1.461909
1.632529
1.626024
1.625204
1.625074
1.625052
1.625051
1.62507
1.625125
1.625204
1.85027
1.889671
1.883723
1.881493
1.88071
1.880451
1.880419
1.880528
1.880712
1.880808
2.049872
2.096176
2.092686
2.090634
2.089678
2.089298
2.089222
2.089308
2.089437
2.08948
2.249934
2.298308
2.296541
2.295251
2.294516
2.294181
2.294106
2.294175
2.294277
2.294303
2.449968
2.499191
2.498283
2.497534
2.497047
2.496802
2.496742
2.496792
2.496868
2.496885
2.649982
2.699594
2.699117
2.698693
2.698393
2.69823
2.698185
2.698217
2.698268
2.698278
2.849989
2.89979
2.899535
2.899296
2.899118
2.899014
2.898982
2.898999
2.899029
2.899034
3.049992
3.099888
3.09975
3.099616
3.099512
3.099448
3.099425
3.099432
3.099449
3.09945
3.249993
3.29994
3.299864
3.299789
3.299728
3.299689
3.299674
3.299676
3.299684
3.299684
3.449994
3.499967
3.499925
3.499883
3.499848
3.499825
3.499814
3.499814
3.499818
3.499817
3.649994
3.699982
3.699959
3.699935
3.699914
3.699901
3.699894
3.699893
3.699894
3.699893
3.849995
3.89999
3.899977
3.899963
3.899952
3.899944
3.899939
3.899938
3.899939
3.899938
4.049995
4.099994
4.099987
4.099979
4.099973
4.099968
4.099965
4.099964
4.099964
4.099964
4.249995
4.299997
4.299993
4.299988
4.299984
4.299982
4.29998
4.29998
4.29998
4.299979
4.449995
4.499998
4.499996
4.499994
4.499992
4.49999
4.499989
4.499989
4.499989
4.499988
4.649995
4.7
4.699999
4.699997
4.699996
4.699996
4.699995
4.699995
4.699995
4.699995
4.950054
4.900001
4.900001
4.900001
4.900001
4.9
4.9
4.9
4.9
4.900001
0.2583915
0.3071519
0.3048566
0.3042347
0.3041352
0.3041204
0.3041055
0.3040941
0.4523343
0.5012386
0.5002642
0.4990566
0.4988863
0.4989777
0.4990133
0.4989746
0.4989326
0.7033705
0.7045912
0.7085849
0.7115589
0.713338
0.7141675
0.7144221
0.7143966
0.7143267
0.9023252
0.9114118
0.9236042
0.9321656
0.9363123
0.9379828
0.9384908
0.9385189
0.9384513
1.1008
1.124634
1.148378
1.160694
1.165765
1.167498
1.16798
1.168029
1.167988
1.244118
1.342953
1.373514
1.384193
1.387418
1.388235
1.388415
1.388433
1.388419
1.460656
1.62618
1.67091
1.668211
1.667312
1.667088
1.667057
1.667106
1.667188
1.898321
1.883968
1.874315
1.86945
1.867594
1.866963
1.866838
1.866949
1.867129
2.098941
2.092979
2.086245
2.081732
2.079547
2.07867
2.078465
2.078592
2.078793
2.078841
2.299309
2.296679
2.293054
2.290063
2.288285
2.287478
2.287274
2.287396
2.287585
2.287619
2.499646
2.498345
2.496432
2.494685
2.493504
2.492905
2.492742
2.492837
2.492989
2.493011
2.699822
2.699147
2.698118
2.69712
2.696392
2.695992
2.695874
2.695937
2.696042
2.696055
2.899907
2.899549
2.89899
2.898424
2.89799
2.897737
2.897655
2.897688
2.897753
2.897759
3.099951
3.099758
3.099451
3.099131
3.098877
3.098721
3.098664
3.098679
3.098714
3.098715
3.299973
3.299868
3.299699
3.299518
3.29937
3.299276
3.299238
3.299241
3.299259
3.299257
3.499985
3.499928
3.499834
3.499732
3.499646
3.49959
3.499564
3.499564
3.499571
3.499568
3.699992
3.69996
3.699907
3.69985
3.699801
3.699767
3.699751
3.699749
3.699752
3.699748
3.899996
3.899978
3.899948
3.899916
3.899887
3.899868
3.899857
3.899855
3.899856
3.899853
4.099997
4.099988
4.099971
4.099952
4.099936
4.099924
4.099918
4.099916
4.099916
4.099914
4.299999
4.299993
4.299984
4.299973
4.299963
4.299956
4.299953
4.299951
4.299951
4.29995
4.499999
4.499996
4.499991
4.499984
4.499979
4.499975
4.499972
4.499972
4.499972
4.499971
4.7
4.699998
4.699995
4.699991
4.699988
4.699985
4.699984
4.699984
4.699984
4.699984
4.9
4.9
4.899998
4.899996
4.899993
4.899992
4.899991
4.899992
4.899992
4.899993
0.2583791
0.3070729
0.304687
0.3039863
0.3038874
0.303876
0.3038574
0.3038417
0.4523668
0.5018265
0.5013651
0.5004259
0.5004659
0.5006828
0.5007597
0.5007122
0.5006535
0.7039046
0.7064734
0.7126911
0.7175636
0.7204851
0.7218175
0.7222332
0.7222125
0.7221161
0.9030442
0.9151445
0.9323672
0.9451642
0.9514663
0.9540068
0.9547898
0.954853
0.9547669
1.101424
1.129975
1.160582
1.178196
1.185562
1.188091
1.188802
1.188891
1.188847
1.244117
1.348561
1.384174
1.395694
1.399962
1.401086
1.401339
1.401372
1.401362
1.46145
1.625369
1.668242
1.664103
1.662792
1.662441
1.662371
1.662393
1.662435
1.89878
1.88183
1.8695
1.862473
1.859681
1.858704
1.858469
1.85854
1.858677
2.098791
2.091067
2.081968
2.075324
2.071938
2.070554
2.070192
2.070311
2.070528
2.299032
2.29551
2.29029
2.285598
2.282645
2.281284
2.280913
2.281051
2.28129
2.281308
2.49948
2.497682
2.494844
2.492043
2.490026
2.488976
2.488673
2.488791
2.488998
2.489008
2.699733
2.698779
2.697227
2.695626
2.694399
2.693707
2.693491
2.693573
2.693721
2.693724
2.89986
2.899347
2.898493
2.897584
2.896858
2.896425
2.89628
2.896325
2.896418
2.896416
3.099925
3.099647
3.099175
3.09866
3.098236
3.097972
3.097874
3.097894
3.097946
3.097941
3.29996
3.299807
3.299545
3.299254
3.299008
3.298849
3.298784
3.298789
3.298816
3.298809
3.499978
3.499894
3.499748
3.499584
3.499441
3.499346
3.499304
3.499303
3.499314
3.499308
3.699988
3.699941
3.69986
3.699767
3.699685
3.699628
3.699601
3.699598
3.699602
3.699596
3.899993
3.899967
3.899922
3.899869
3.899822
3.899788
3.899771
3.899767
3.899769
3.899764
4.099996
4.099982
4.099956
4.099926
4.099898
4.099879
4.099868
4.099865
4.099865
4.099862
4.299998
4.29999
4.299975
4.299957
4.299941
4.29993
4.299923
4.299921
4.299921
4.299918
4.499999
4.499994
4.499986
4.499975
4.499965
4.499957
4.499953
4.499952
4.499952
4.499951
4.7
4.699997
4.699991
4.699984
4.699977
4.699972
4.699969
4.699969
4.69997
4.69997
4.9
4.899999
4.899994
4.899987
4.899982
4.899978
4.899977
4.899978
4.899979
4.89998
0.2583814
0.3071402
0.304786
0.3041008
0.3040132
0.3040061
0.3039856
0.3039664
0.452358
0.5021099
0.5020205
0.5013675
0.5015948
0.5019073
0.5020152
0.5019636
0.5018926
0.7040534
0.7073556
0.7147298
0.7206699
0.7242565
0.7258911
0.7264059
0.7263894
0.7262751
0.9033687
0.9167691
0.9361717
0.950921
0.9583198
0.9613264
0.9622605
0.9623426
0.9622435
1.101759
1.132022
1.165185
1.18489
1.193312
1.196233
1.197059
1.197167
1.197119
1.244179
1.349852
1.387222
1.399716
1.404426
1.405691
1.405976
1.406015
1.406003
1.461619
1.625244
1.667405
1.662881
1.661362
1.660952
1.660863
1.660875
1.660906
1.898839
1.881172
1.86787
1.859999
1.856782
1.855629
1.855331
1.85538
1.855497
2.098784
2.090303
2.080173
2.072476
2.068408
2.066719
2.066252
2.066349
2.066556
2.298927
2.294957
2.288922
2.283247
2.279523
2.277766
2.277266
2.27739
2.277634
2.499406
2.497338
2.493988
2.490525
2.487906
2.486498
2.486075
2.486188
2.48641
2.486393
2.699691
2.698579
2.696727
2.694748
2.693165
2.692238
2.691935
2.692017
2.692181
2.692163
2.899837
2.899234
2.89821
2.897087
2.896163
2.895598
2.8954
2.895448
2.895552
2.895535
3.099913
3.099584
3.099016
3.09838
3.097843
3.097503
3.097374
3.097395
3.097455
3.09744
3.299953
3.299772
3.299457
3.299097
3.298786
3.298583
3.298499
3.298505
3.298535
3.298522
3.499974
3.499874
3.499699
3.499496
3.499316
3.499195
3.499141
3.499139
3.499153
3.499143
3.699986
3.69993
3.699832
3.699717
3.699614
3.699542
3.699508
3.699503
3.699509
3.699501
3.899992
3.899961
3.899906
3.899841
3.899781
3.899739
3.899717
3.899713
3.899714
3.899708
4.099996
4.099978
4.099947
4.09991
4.099875
4.09985
4.099837
4.099833
4.099833
4.099829
4.299998
4.299988
4.29997
4.299948
4.299928
4.299912
4.299904
4.299901
4.299901
4.299898
4.499999
4.499993
4.499983
4.499969
4.499955
4.499945
4.49994
4.499939
4.499939
4.499938
4.7
4.699996
4.699989
4.699978
4.699967
4.69996
4.699957
4.699957
4.699959
4.699959
4.9
4.899998
4.899991
4.89998
4.89997
4.899963
4.899961
4.899963
4.899967
4.899969
0.258384
0.3072341
0.3049437
0.30429
0.304213
0.3042078
0.3041868
0.3041606
0.4523641
0.5021652
0.5021998
0.5016682
0.5019576
0.5022937
0.5024081
0.5023546
0.5022733
0.7040419
0.7074092
0.714892
0.720936
0.7245837
0.7262446
0.7267672
0.726748
0.7266221
0.9033761
0.9168086
0.9362674
0.9510684
0.9584996
0.9615217
0.9624603
0.9625396
0.9624328
1.101783
1.132052
1.165229
1.184942
1.193371
1.196297
1.197123
1.19723
1.197178
1.244192
1.349861
1.387233
1.399726
1.404436
1.405702
1.405986
1.406025
1.406013
1.461634
1.625231
1.6674
1.662873
1.661353
1.660942
1.660854
1.660866
1.660896
1.898838
1.881166
1.867855
1.859978
1.856758
1.855603
1.855304
1.855351
1.855461
2.098783
2.090297
2.080158
2.072455
2.068384
2.066692
2.066219
2.066306
2.066497
2.298926
2.294953
2.288913
2.283234
2.279508
2.277748
2.277239
2.277348
2.27757
2.499406
2.497336
2.493984
2.490519
2.4879
2.486491
2.486061
2.48616
2.486359
2.699691
2.698578
2.696726
2.694747
2.693165
2.692238
2.691933
2.692005
2.692152
2.899837
2.899233
2.89821
2.897087
2.896165
2.895602
2.895405
2.895448
2.895542
2.895512
3.099913
3.099584
3.099016
3.098381
3.097846
3.097508
3.097381
3.097401
3.097456
3.097433
3.299953
3.299772
3.299457
3.299098
3.298789
3.298587
3.298505
3.298511
3.29854
3.298523
3.499974
3.499875
3.499699
3.499496
3.499318
3.499198
3.499145
3.499144
3.499158
3.499145
3.699986
3.699931
3.699833
3.699718
3.699615
3.699544
3.69951
3.699506
3.699512
3.699503
3.899992
3.899962
3.899906
3.899841
3.899782
3.89974
3.899719
3.899715
3.899716
3.899709
4.099996
4.099978
4.099947
4.09991
4.099876
4.099851
4.099838
4.099834
4.099834
4.099829
4.299998
4.299988
4.29997
4.299949
4.299928
4.299913
4.299905
4.299902
4.299902
4.299899
4.499999
4.499994
4.499983
4.499968
4.499955
4.499945
4.49994
4.499939
4.499939
4.499938
4.7
4.699997
4.699988
4.699977
4.699965
4.699958
4.699955
4.699955
4.699958
4.699959
4.900001
4.899998
4.899989
4.899976
4.899962
4.899954
4.899953
4.899957
4.899963
4.899967
0.2584048
0.3076272
0.3055466
0.3050106
0.3049453
0.3049401
0.3049196
0.3048823
0.4523484
0.5020545
0.5021355
0.5016968
0.5019644
0.5022547
0.5023512
0.5022985
0.5022072
0.7037002
0.706644
0.7132528
0.7184792
0.7215938
0.7230042
0.7234439
0.723416
0.723285
0.9030661
0.9152622
0.9326624
0.9456178
0.9520162
0.9546013
0.955396
0.9554503
0.9553408
1.101667
1.130074
1.160711
1.178342
1.185731
1.188274
1.188984
1.189066
1.189011
1.244184
1.348596
1.384204
1.395719
1.399989
1.401114
1.401365
1.401397
1.401383
1.461578
1.625274
1.668211
1.664059
1.662745
1.662393
1.662326
1.662356
1.662404
1.898774
1.8818
1.869435
1.862382
1.859581
1.858602
1.858368
1.858446
1.858579
2.098787
2.091042
2.081914
2.07525
2.071856
2.070466
2.070094
2.070195
2.070378
2.299031
2.295498
2.290262
2.285559
2.282601
2.281234
2.280846
2.28095
2.281136
2.499481
2.497677
2.494832
2.492027
2.49001
2.488957
2.488641
2.488726
2.48888
2.699732
2.698776
2.697223
2.695623
2.694398
2.693707
2.693486
2.693546
2.693655
2.899858
2.899346
2.898493
2.897586
2.896863
2.896435
2.89629
2.896326
2.896396
3.099926
3.099646
3.099175
3.098663
3.098242
3.097983
3.09789
3.097908
3.097948
3.097925
3.29996
3.299808
3.299546
3.299257
3.299013
3.298858
3.298798
3.298804
3.298826
3.298809
3.499978
3.499895
3.499749
3.499585
3.499445
3.499352
3.499314
3.499313
3.499324
3.499312
3.699988
3.699942
3.699861
3.699768
3.699687
3.699632
3.699607
3.699604
3.699608
3.6996
3.899994
3.899967
3.899922
3.89987
3.899823
3.89979
3.899774
3.899771
3.899772
3.899766
4.099997
4.099981
4.099956
4.099926
4.0999
4.09988
4.09987
4.099867
4.099867
4.099863
4.299998
4.299991
4.299976
4.299959
4.299943
4.299931
4.299925
4.299923
4.299922
4.29992
4.5
4.499997
4.499987
4.499976
4.499965
4.499958
4.499954
4.499953
4.499953
4.499952
4.700002
4.7
4.699992
4.699981
4.699973
4.699967
4.699965
4.699967
4.699969
4.69997
4.900004
4.900002
4.899991
4.899977
4.899965
4.899957
4.899957
4.899964
4.899972
4.899977
0.2585841
0.3088024
0.3076997
0.307348
0.3072812
0.3072806
0.3072594
0.3072173
0.4520757
0.5018099
0.5023217
0.5023328
0.5025921
0.5027754
0.5028374
0.5027966
0.5027021
0.7023044
0.7048566
0.7096488
0.7132363
0.7153027
0.716239
0.7165352
0.7165042
0.7163814
0.9022453
0.9115753
0.9240465
0.9328368
0.9371246
0.938858
0.9393809
0.9393933
0.9392881
1.101758
1.124768
1.148531
1.160865
1.165984
1.167739
1.168211
1.168237
1.168169
1.244687
1.342987
1.373528
1.384199
1.387437
1.388258
1.388428
1.388434
1.38841
1.461209
1.62563
1.670757
1.668002
1.66708
1.666858
1.666858
1.666981
1.667125
1.8983
1.883853
1.874085
1.869152
1.867272
1.866642
1.866547
1.866734
1.866981
2.098931
2.09292
2.086127
2.081584
2.079395
2.078515
2.078304
2.078431
2.078617
2.299312
2.296659
2.293007
2.290006
2.288228
2.287417
2.287196
2.287286
2.287427
2.499659
2.498337
2.496414
2.494666
2.493487
2.492886
2.492711
2.492775
2.492876
2.699818
2.699138
2.698112
2.697116
2.696391
2.695994
2.695871
2.695914
2.695982
2.899895
2.899551
2.898991
2.898427
2.897996
2.897747
2.897666
2.897691
2.897734
3.099955
3.099754
3.09945
3.099134
3.098883
3.098732
3.098679
3.098692
3.098717
3.299973
3.29987
3.299701
3.299521
3.299375
3.299284
3.29925
3.299255
3.299269
3.299258
3.499983
3.499933
3.499836
3.499734
3.499649
3.499595
3.499572
3.499572
3.499579
3.499572
3.699993
3.699962
3.699909
3.699851
3.699802
3.699769
3.699754
3.699752
3.699755
3.69975
3.899997
3.899976
3.899948
3.899916
3.899888
3.899869
3.899859
3.899857
3.899857
3.899854
4.100002
4.099983
4.099969
4.099953
4.099938
4.099926
4.09992
4.099917
4.099917
4.099914
4.3
4.299994
4.299985
4.299975
4.299966
4.29996
4.299956
4.299954
4.299953
4.299951
4.499998
4.500005
4.499996
4.499989
4.499983
4.49998
4.499977
4.499976
4.499974
4.499973
4.700011
4.700008
4.699999
4.699993
4.69999
4.699987
4.699986
4.699986
4.699987
4.699986
4.900037
4.900017
4.899999
4.899988
4.89998
4.899974
4.899975
4.899982
4.899989
4.899993
0.2587886
0.2578696
0.2567383
0.2567027
0.2565238
0.256477
0.2564737
0.2564979
0.256386
0.4515801
0.5010619
0.5017314
0.5020749
0.5021533
0.5021403
0.5022315
0.5022264
0.5021404
0.652216
0.7021461
0.7044248
0.7060219
0.7068976
0.7073149
0.7074952
0.7074869
0.7073818
0.8495292
0.9056603
0.9115028
0.9152724
0.9171472
0.9179217
0.9181469
0.9181208
0.9180282
1.048918
1.113223
1.125142
1.130625
1.133012
1.133821
1.133956
1.133877
1.133753
1.246191
1.325729
1.342542
1.348154
1.349681
1.350025
1.34998
1.349901
1.349787
1.45872
1.477241
1.477977
1.478253
1.478286
1.478273
1.478269
1.478258
1.478253
1.627532
1.619273
1.617058
1.616621
1.616554
1.616624
1.616896
1.617166
1.617281
1.851936
1.889294
1.883101
1.880778
1.87999
1.879734
1.879735
1.880064
1.880554
2.048983
2.096087
2.092524
2.090464
2.089539
2.08916
2.089058
2.089158
2.089313
2.248903
2.298281
2.296494
2.29521
2.294489
2.294155
2.29406
2.294109
2.294186
2.448961
2.499163
2.498262
2.497522
2.497044
2.4968
2.496729
2.496762
2.496809
2.648981
2.699567
2.699115
2.698694
2.698396
2.698235
2.698186
2.698208
2.698239
2.84895
2.89983
2.899546
2.8993
2.899122
2.899021
2.898989
2.899002
2.899021
3.04899
3.099864
3.099748
3.099618
3.099516
3.099454
3.099433
3.09944
3.099451
3.24901
3.299951
3.299868
3.299791
3.299731
3.299693
3.299679
3.299682
3.299688
3.448988
3.499988
3.49993
3.499884
3.499849
3.499826
3.499817
3.499817
3.49982
3.499818
3.648992
3.699985
3.69996
3.699935
3.699915
3.699901
3.699894
3.699893
3.699894
3.699892
3.848992
3.899985
3.899975
3.899963
3.899952
3.899943
3.899939
3.899938
3.899937
3.899936
4.048995
4.09997
4.099982
4.099979
4.099974
4.099969
4.099966
4.099965
4.099964
4.099962
4.249019
4.299994
4.299993
4.299991
4.299989
4.299987
4.299985
4.299983
4.299981
4.29998
4.448978
4.500026
4.500004
4.500001
4.500001
4.500001
4.499999
4.499996
4.499994
4.499991
4.649003
4.700009
4.700002
4.700007
4.700012
4.700014
4.700012
4.700008
4.700004
4.7
4.951329
4.900028
4.900002
4.900009
4.900013
4.900013
4.900012
4.900012
4.900011
4.900008
0.2583878
0.2581666
0.2349984
0.2319455
0.2340902
0.2338691
0.23426
0.2340915
0.2337804
0.4260281
0.5002354
0.5009795
0.5009296
0.5006223
0.5008046
0.5014357
0.5014259
0.5012983
0.6245096
0.7004155
0.7009709
0.7013236
0.7014681
0.7016109
0.7017863
0.7018231
0.7017238
0.8246382
0.9004875
0.9014074
0.9019906
0.9023894
0.9025753
0.9026285
0.902599
0.9025306
1.050357
1.100859
1.101662
1.10234
1.102964
1.103136
1.102989
1.102858
1.102691
1.249132
1.253544
1.256604
1.257618
1.25853
1.258913
1.258502
1.258309
1.257952
1.257817
1.45313
1.454735
1.454754
1.45539
1.4557
1.455132
1.45518
1.454788
1.454724
1.643069
1.639354
1.638863
1.6329
1.635377
1.635242
1.639082
1.611187
1.610688
1.82458
1.898379
1.897688
1.897402
1.897507
1.89744
1.897158
1.897257
1.89751
2.024452
2.09932
2.09873
2.098467
2.098349
2.098261
2.098158
2.098147
2.098195
2.224457
2.29953
2.299112
2.298858
2.298728
2.298655
2.298613
2.298609
2.298624
2.4246
2.499682
2.499543
2.499398
2.499303
2.499253
2.499233
2.499237
2.499246
2.624447
2.699985
2.699804
2.699702
2.699639
2.699605
2.699594
2.699599
2.699606
2.823974
2.899999
2.899906
2.899848
2.899809
2.899788
2.899782
2.899785
2.899789
3.024464
3.099961
3.099946
3.099919
3.099897
3.099884
3.09988
3.099882
3.099885
3.224944
3.299992
3.299973
3.299956
3.299944
3.299936
3.299933
3.299933
3.299935
3.424534
3.499995
3.499985
3.499976
3.499968
3.499963
3.499961
3.499961
3.499962
3.624246
3.699997
3.699991
3.699986
3.699982
3.699979
3.699977
3.699977
3.699977
3.699977
3.824604
3.899997
3.899994
3.899992
3.89999
3.899988
3.899986
3.899986
3.899986
3.899986
4.024697
4.09998
4.099995
4.099995
4.099995
4.099994
4.099993
4.099992
4.099992
4.099991
4.224518
4.300011
4.299999
4.299999
4.3
4.3
4.299999
4.299998
4.299996
4.299996
4.424188
4.5
4.500002
4.500005
4.500008
4.500009
4.500008
4.500005
4.500002
4.5
4.624687
4.699975
4.699995
4.700013
4.700025
4.700029
4.700027
4.700019
4.700011
4.700005
4.824381
4.899851
4.89995
4.899976
4.900001
4.900016
4.900005
4.899988
4.899992
4.900004
0.2295997
0.3775144
0.3501427
0.2333659
0.3788235
0.348048
0.4509847
0.5505714
0.5509124
0.4508947
0.4488117
0.5530867
0.5492609
0.6485481
0.7502091
0.7508613
0.651794
0.6494664
0.7517793
0.7500413
0.8488245
0.9500088
0.9510018
0.8491094
0.8500825
0.9510112
0.9506303
1.048538
1.149129
1.148881
1.048337
1.050715
1.148138
1.151455
1.248471
1.34854
1.35316
1.247215
1.252283
1.374513
1.354719
1.42865
1.583068
1.425231
1.452419
1.584419
1.42923
1.583073
1.58306
1.453969
1.45488
1.581235
1.580838
1.4292
1.583062
1.583062
1.455433
1.455674
1.580815
1.580795
1.429142
1.583062
1.583062
1.455777
1.455817
1.580795
1.580793
1.429011
1.583062
1.583062
1.455834
1.455839
1.580793
1.580793
1.429092
1.583062
1.583062
1.455843
1.455846
1.580793
1.580793
1.429033
1.583062
1.583062
1.455846
1.455845
1.580793
1.580793
1.428976
1.583062
1.583062
1.455841
1.455845
1.580793
1.580794
1.42898
1.583062
1.583062
1.455838
1.455824
1.580795
1.580801
1.583063
1.455821
1.580803
1.619997
1.751554
1.618042
1.776045
1.747374
1.851386
1.951411
1.82458
1.848472
1.975525
1.949254
2.049113
2.150944
2.024452
2.049599
2.175528
2.149747
2.248993
2.350954
2.224457
2.249871
2.375532
2.349882
2.449007
2.550969
2.424461
2.449961
2.575534
2.549932
2.649016
2.750974
2.624463
2.649997
2.775535
2.749953
2.84902
2.950976
2.824463
2.850013
2.975535
2.949962
3.049021
3.150977
3.024464
3.05002
3.175536
3.149967
3.249022
3.350977
3.224464
3.250024
3.375536
3.349969
3.449022
3.550977
3.424464
3.450026
3.575536
3.549971
3.649022
3.750978
3.624464
3.650027
3.775536
3.749971
3.849022
3.950978
3.824464
3.850027
3.975536
3.949972
4.049022
4.150978
4.024464
4.050028
4.175536
4.149972
4.249022
4.350978
4.224464
4.250028
4.375536
4.349972
4.449022
4.550978
4.424464
4.450028
4.575536
4.549972
4.649022
4.750978
4.624464
4.650028
4.775536
4.749972
4.849022
4.950978
4.824464
4.850028
4.975536
4.949972
0.2335862
0.3789204
0.3492067
0.2337013
0.3790017
0.3495309
1.452824
1.581252
1.453469
1.580874
0.2336986
0.3790282
0.3496156
0.2336968
0.3790409
0.3496379
1.453947
1.580851
1.454167
1.580831
0.2336976
0.3790442
0.3496491
0.2336966
0.3790357
0.3496501
1.454264
1.580831
1.454305
1.580829
0.2336992
0.3790292
0.3496524
0.2336958
0.3790369
0.3496532
1.454321
1.580829
1.454327
1.580829
0.2336966
0.3790414
0.3496588
0.2336979
0.3790358
0.3496619
1.454327
1.580829
1.454321
1.580829
0.2337021
0.3790249
0.349676
0.2337106
0.3789961
0.3496775
1.454305
1.580829
1.454264
1.580831
0.2337122
0.3789988
0.3497074
0.2337263
0.3789886
0.3497293
1.454165
1.580831
1.45394
1.58085
0.2337284
0.3789823
0.3497163
0.2337653
0.3771539
0.3495302
1.453443
1.580872
1.452669
1.581278
0.2337011
0.3775712
0.3488927
0.2303872
0.3509208
0.2581667
0.3496872
0.3498597
0.3490343
0.3514059
0.2333096
0.3510365
0.3501938
0.2293946
0.3518785
0.3503183
0.2340131
0.3500015
0.3492246
0.3499468
0.349802
0.2581349
0.349896
0.3503089
0.2325659
0.3517569
0.3538061
0.2338278
0.3503767
0.3496319
0.2306434
0.3529577
0.3512936
0.3489946
0.3504366
0.4493173
0.5755804
0.5497294
0.4509653
0.551224
0.6499518
0.7755832
0.7500808
0.6490467
0.750933
0.8501834
0.9767779
0.9503467
0.8489043
0.9752143
0.9505915
1.050693
1.149901
1.150934
1.025876
1.048433
1.174343
1.148508
1.251681
1.374134
1.353992
1.225112
1.247987
1.351384
1.451611
1.584925
1.425681
1.583578
1.454122
1.582124
1.581818
1.426011
1.426183
1.583583
1.583572
1.454788
1.5818
1.581781
1.426711
1.425257
1.583573
1.583576
1.454992
1.581751
1.577489
1.425009
1.42634
1.583578
1.58514
1.455698
1.580927
1.426678
1.428765
1.585991
1.591202
1.455425
1.580927
1.428766
1.426702
1.591202
1.585991
1.45514
1.57749
1.581751
1.426441
1.42621
1.58514
1.583578
1.455011
1.581782
1.581647
1.426721
1.425707
1.583576
1.583571
1.454751
1.581367
1.580837
1.424492
1.424875
1.583569
1.58307
1.580812
1.424861
1.583065
1.618986
1.776051
1.747649
1.62134
1.751849
1.848439
1.975525
1.949234
1.851416
1.951414
2.049586
2.175528
2.149743
2.049113
2.150944
2.249871
2.375552
2.34988
2.248996
2.350948
2.449901
2.57559
2.549835
2.448908
2.574341
2.550776
2.649995
2.775515
2.749926
2.625654
2.649219
2.751061
2.850191
2.975532
2.950002
2.849064
2.950977
3.050008
3.175816
3.149866
3.04902
3.150967
3.249938
3.375263
3.350139
3.248994
3.351027
3.45002
3.575405
3.549978
3.448967
3.550987
3.650082
3.775759
3.74992
3.64908
3.750921
3.850029
3.975533
3.950001
3.849016
3.951022
4.049933
4.175393
4.149974
4.04892
4.151033
4.249922
4.375056
4.350061
4.249034
4.351007
4.450126
4.57579
4.549928
4.449031
4.55092
4.649963
4.775348
4.750052
4.64895
4.751052
4.850046
4.976765
4.94993
4.848987
4.976294
4.950735
0.2670462
0.2691505
1.477675
1.426554
1.425254
1.429686
1.476688
1.67316
1.62075
1.620565
1.674754
1.619845
1.750374
1.752714
1.614337
1.610897
1.744475
1.742306
1.619834
1.752919
1.752998
1.610761
1.610616
1.741298
1.740856
1.619832
1.752968
1.752952
1.610607
1.610587
1.740672
1.740569
1.619832
1.752941
1.752934
1.610586
1.610582
1.740526
1.740498
1.619832
1.752931
1.75293
1.610582
1.610581
1.740488
1.740482
1.619832
1.752931
1.752932
1.610582
1.610583
1.740485
1.740495
1.619833
1.752937
1.752946
1.610585
1.610595
1.740516
1.740552
1.619839
1.752961
1.752984
1.610603
1.610643
1.740613
1.740697
1.753005
1.610659
1.740772
1.874903
1.824759
1.824794
1.875783
2.074981
2.024381
2.024965
2.075454
2.274994
2.224365
2.224988
2.275453
2.474997
2.424369
2.424994
2.475455
2.674999
2.624369
2.624996
2.675455
2.874999
2.82437
2.824997
2.875455
3.074999
3.02437
3.024998
3.075455
3.275
3.22437
3.224998
3.275455
3.475
3.42437
3.424998
3.475455
3.675
3.62437
3.624998
3.675455
3.875
3.82437
3.824998
3.875455
4.075
4.02437
4.024998
4.075455
4.275
4.22437
4.224998
4.275455
4.475
4.42437
4.424998
4.475455
4.675
4.62437
4.624998
4.675455
4.875
4.82437
4.824998
4.875455
0.2675422
0.2675185
1.252916
1.375073
1.355584
1.244415
1.254496
1.373908
1.356774
1.477251
1.42816
1.477287
1.428203
1.614439
1.750965
1.745179
1.611084
1.753807
1.743342
0.2675682
0.2675665
1.255321
1.373906
1.357664
1.24407
1.256054
1.373934
1.358198
1.477285
1.428312
1.477281
1.428341
1.610952
1.752799
1.742255
1.610808
1.75543
1.741777
0.2675991
0.2675978
1.256376
1.373934
1.358454
1.244161
1.256653
1.37394
1.358591
1.477293
1.428383
1.477292
1.428385
1.6108
1.755817
1.741591
1.61078
1.75598
1.741493
0.2675558
0.2675693
1.256754
1.37394
1.358645
1.244193
1.256821
1.373941
1.35867
1.477294
1.428398
1.477294
1.428394
1.610779
1.755982
1.741455
1.610776
1.755988
1.741434
0.2676009
0.2675794
1.256819
1.373941
1.358669
1.244193
1.256757
1.373941
1.358645
1.477294
1.4284
1.477295
1.428394
1.610776
1.755988
1.741434
1.610779
1.755982
1.741453
0.267539
0.2675761
1.256649
1.37394
1.358589
1.244325
1.256377
1.373935
1.358452
1.477293
1.428396
1.477294
1.428389
1.61078
1.755979
1.74149
1.610798
1.755815
1.741584
0.2675756
0.2675507
1.256015
1.373941
1.358182
1.247287
1.255194
1.373964
1.357622
1.477287
1.428375
1.477291
1.428353
1.610807
1.755427
1.74176
1.610943
1.752792
1.742215
0.2675878
0.2676139
1.254184
1.373952
1.356666
1.248613
1.252588
1.373972
1.355337
1.477263
1.428282
1.477276
1.428212
1.611069
1.753795
1.743252
1.614517
1.750962
1.745017
0.2675878
0.2675172
0.2583608
0.3502182
0.3504951
0.2295274
0.3521337
0.3519838
0.2340338
0.3496356
0.3498232
0.3505297
0.350888
0.2340656
0.3502642
0.3501338
0.352527
0.3523788
1.258074
1.359274
1.359685
1.245861
1.246139
1.350935
1.351457
1.258857
1.360345
1.360787
1.246616
1.246974
1.352656
1.353464
1.476576
1.428041
1.477074
1.427965
1.640115
1.743802
1.740717
1.621351
1.621276
1.750798
1.75307
1.639122
1.739414
1.738866
1.621277
1.621277
1.753256
1.75335
1.610732
1.740783
1.740817
1.621158
1.619912
1.753282
1.753095
1.740785
1.619855
1.753023
0.2673117
0.2674397
1.583315
1.582912
1.583191
1.584567
1.583822
1.477087
1.424297
1.428458
1.428863
1.477381
1.584553
1.583784
1.583059
1.584571
1.584502
1.583061
1.584476
1.584497
1.583061
1.584475
1.584471
1.583061
1.58447
1.584471
1.583061
1.58447
1.584469
1.583061
1.584469
1.584469
1.583061
1.584469
1.584469
1.583061
1.584469
1.584469
1.583061
1.584469
1.584469
1.583061
1.584469
1.584469
1.583061
1.584469
1.584469
1.583061
1.584469
1.584469
1.583061
1.584469
1.584469
1.583061
1.58447
1.584469
1.583061
1.58447
1.584471
1.583061
1.584474
1.584471
1.583062
1.584474
1.584476
1.724185
1.775945
1.774664
1.725421
1.924929
1.975661
1.974963
1.92475
2.124985
2.175625
2.174992
2.124542
2.324995
2.375629
2.374999
2.324543
2.524998
2.57563
2.575001
2.524544
2.725
2.77563
2.775002
2.724545
2.925
2.97563
2.975002
2.924545
3.125
3.17563
3.175002
3.124545
3.325
3.37563
3.375002
3.324545
3.525
3.57563
3.575002
3.524545
3.725
3.77563
3.775002
3.724545
3.925
3.97563
3.975002
3.924545
4.125
4.17563
4.175002
4.124545
4.325
4.37563
4.375002
4.324545
4.525
4.57563
4.575002
4.524545
4.725
4.77563
4.775002
4.724545
4.925
4.97563
4.924545
4.975002
0.2675547
0.2675614
1.584555
1.584502
1.477262
1.428287
1.42822
1.477275
1.584479
1.584497
0.2675751
0.2675998
1.584478
1.584474
1.477288
1.428377
1.428355
1.477291
1.584473
1.584473
0.2675842
0.2675907
1.584472
1.584472
1.477293
1.428397
1.428389
1.477294
1.584472
1.584472
0.2675661
0.2675661
1.584472
1.584472
1.477294
1.4284
1.428394
1.477295
1.584472
1.584472
0.2675817
0.2675859
1.584472
1.584472
1.477294
1.428398
1.428394
1.477295
1.584472
1.584472
0.2675127
0.2675245
1.584472
1.584472
1.477293
1.428383
1.428385
1.477292
1.584472
1.584472
0.2676055
0.2675995
1.584472
1.584473
1.477285
1.428309
1.428338
1.477281
1.584478
1.584474
0.2675772
0.2675507