/*--------------------------------*- C++ -*----------------------------------*\
  =========                 |
  \\      /  F ield         | OpenFOAM: The Open Source CFD Toolbox
   \\    /   O peration     | Website:  https://openfoam.org
    \\  /    A nd           | Version:  7
     \\/     M anipulation  |
\*---------------------------------------------------------------------------*/
FoamFile
{
    version     2.0;
    format      ascii;
    class       volScalarField;
    location    "0.1";
    object      Cz;
}
// * * * * * * * * * * * * * * * * * * * * * * * * * * * * * * * * * * * * * //

dimensions      [0 1 0 0 0 0 0];

internalField   nonuniform List<scalar> 
77997
(
0.04441811
0.04223845
0.04208045
0.04202395
0.04201247
0.04201125
0.04201148
0.04201236
0.04201291
0.04441911
0.09495723
0.09283358
0.09209665
0.09192235
0.09188177
0.09187424
0.09187839
0.09188527
0.04224423
0.09298958
0.0910005
0.09029453
0.09012858
0.09009181
0.09008573
0.09009019
0.09009603
0.04213552
0.09301191
0.09136521
0.09079148
0.09066571
0.09063978
0.09063648
0.09064251
0.09064965
0.04228846
0.09486793
0.09432075
0.09396672
0.09388426
0.09385982
0.09385395
0.0938621
0.09387315
0.04268786
0.04384538
0.04294102
0.04279944
0.04278304
0.0427807
0.04277953
0.04278385
0.0427929
0.04279946
0.0206654
0.02018477
0.02013182
0.02012694
0.02012527
0.02012346
0.02012939
0.02011998
0.02008105
0.02012467
0.02311765
0.02304334
0.02303733
0.02303702
0.02303696
0.02303706
0.0230372
0.02303797
0.0230423
0.09829094
0.09628054
0.09558473
0.09541329
0.09536792
0.09535811
0.0953628
0.09537291
0.09538089
0.09573633
0.09187835
0.09072109
0.09041452
0.09032756
0.09030451
0.09030724
0.09031904
0.09032817
0.09495421
0.0905529
0.08911518
0.08871759
0.08859867
0.08856451
0.08856563
0.0885797
0.08859113
0.09476155
0.09018853
0.08865066
0.08820376
0.08806337
0.08802102
0.08802075
0.08803664
0.08805029
0.09470572
0.09007602
0.08849878
0.0880278
0.08787457
0.0878267
0.08782541
0.08784264
0.08785776
0.09468533
0.09003398
0.08843942
0.08795645
0.08779631
0.08774524
0.08774323
0.08776114
0.08777704
0.09467709
0.09001679
0.08841443
0.08792567
0.08776178
0.08770895
0.08770647
0.08772477
0.08774107
0.09467351
0.09000929
0.08840331
0.08791173
0.08774596
0.08769238
0.08768991
0.08770846
0.08772477
0.09467179
0.09000586
0.08839828
0.08790541
0.08773884
0.08768501
0.08768253
0.08770123
0.08771752
0.09467106
0.09000426
0.08839591
0.08790246
0.08773557
0.08768172
0.08767943
0.08769821
0.08771451
0.09467075
0.09000352
0.0883948
0.08790111
0.08773411
0.08768033
0.08767819
0.0876971
0.08771346
0.0946705
0.09000318
0.08839431
0.08790055
0.08773357
0.08767992
0.0876779
0.08769699
0.08771332
0.09467053
0.09000312
0.0883942
0.08790047
0.08773355
0.08768004
0.08767822
0.08769741
0.08771383
0.09467077
0.09000365
0.08839494
0.08790139
0.08773468
0.08768126
0.08767956
0.08769891
0.08771548
0.09467166
0.09000546
0.08839753
0.08790458
0.08773827
0.08768517
0.0876837
0.08770318
0.08771983
0.09467395
0.09000993
0.0884039
0.08791239
0.08774712
0.08769447
0.08769313
0.08771252
0.08772931
0.2456706
0.2916596
0.2909929
0.2907463
0.2906315
0.2905983
0.2905955
0.2906009
0.2456748
0.2905452
0.2874818
0.2861976
0.2857712
0.28564
0.2856097
0.2856154
0.2856292
0.2918784
0.2878605
0.2853588
0.2841997
0.2838367
0.283732
0.2837147
0.2837299
0.2837486
0.2917249
0.2881143
0.2865053
0.2857626
0.2855511
0.2854897
0.2854838
0.2855048
0.2855282
0.2927859
0.2921582
0.2925103
0.2924646
0.2924512
0.2924084
0.2923921
0.2924106
0.2924403
0.2459901
0.3043107
0.3093321
0.3118263
0.3119958
0.3119015
0.3118503
0.3118439
0.3118637
0.2478634
0.2460875
0.2449699
0.2449777
0.2449736
0.2449762
0.2449581
0.2449502
0.2449797
0.2532597
0.2539852
0.2544173
0.2544655
0.2544764
0.2544831
0.2544892
0.2544987
0.2545131
0.251674
0.2953321
0.2925751
0.2914782
0.2911005
0.2909723
0.2909437
0.2909651
0.2910132
0.2910508
0.2521825
0.2920743
0.2868395
0.2846855
0.2839175
0.2836467
0.2835722
0.2835874
0.2836375
0.2836751
0.2521734
0.2908201
0.2843582
0.2814874
0.280407
0.2800072
0.2798868
0.2798953
0.2799541
0.280001
0.2521578
0.2903835
0.2834493
0.280237
0.2789694
0.2784799
0.2783236
0.2783256
0.2783917
0.2784476
0.2521532
0.2902211
0.2831
0.2797324
0.2783648
0.2778203
0.2776396
0.277636
0.2777065
0.2777686
0.2521516
0.2901557
0.2829568
0.2795184
0.2781003
0.2775249
0.2773294
0.277322
0.2773946
0.2774597
0.252151
0.2901279
0.2828951
0.2794244
0.2779814
0.2773901
0.2771866
0.2771769
0.2772503
0.2773166
0.2521508
0.2901157
0.2828678
0.279382
0.2779272
0.2773285
0.2771214
0.2771109
0.2771848
0.2772509
0.2521507
0.2901102
0.2828553
0.2793627
0.2779027
0.2773007
0.2770926
0.2770824
0.2771568
0.2772225
0.2521506
0.2901076
0.2828496
0.2793539
0.2778916
0.2772887
0.2770808
0.2770714
0.2771463
0.2772115
0.2521506
0.2901063
0.2828469
0.2793498
0.2778866
0.2772838
0.2770764
0.277068
0.2771437
0.2772086
0.2521506
0.2901057
0.2828455
0.2793477
0.2778843
0.2772816
0.277075
0.2770677
0.2771438
0.2772088
0.2521506
0.2901055
0.2828451
0.2793472
0.2778837
0.2772814
0.2770755
0.277069
0.277146
0.2772116
0.2521506
0.2901062
0.2828466
0.2793494
0.2778867
0.2772851
0.2770799
0.2770745
0.2771523
0.2772187
0.2521506
0.2901091
0.2828528
0.2793587
0.2778984
0.2772986
0.2770947
0.2770901
0.2771689
0.2772364
0.2470106
0.2901171
0.2828692
0.2793828
0.2779284
0.2773324
0.277131
0.2771275
0.2772068
0.277275
0.4489705
0.4967874
0.4957048
0.4953481
0.4951881
0.4951373
0.4951281
0.4951297
0.4489811
0.4963078
0.4941173
0.4928283
0.4923025
0.4921156
0.492066
0.4920681
0.4920811
0.4970696
0.4945561
0.4925507
0.4914803
0.4910737
0.4909345
0.4909076
0.4909273
0.4909525
0.4965701
0.4946747
0.4935909
0.4930711
0.4928608
0.4927871
0.4927777
0.4928042
0.4928339
0.4976395
0.4971202
0.4973651
0.4974671
0.4975209
0.4974762
0.4974459
0.4974537
0.497474
0.4479817
0.5053284
0.5138705
0.5153311
0.5157678
0.515717
0.5156453
0.5156284
0.5156359
0.4497377
0.4504263
0.5009608
0.5018824
0.5020558
0.5020501
0.5020459
0.502052
0.5020614
0.5010681
0.4984044
0.4966468
0.4957577
0.4953808
0.4952282
0.4951914
0.495221
0.4952819
0.5018632
0.4968065
0.4933078
0.4912208
0.4902635
0.4898814
0.4897716
0.4898007
0.4898862
0.4899499
0.5019034
0.4958428
0.4911336
0.4880995
0.4866239
0.4860103
0.4858156
0.4858339
0.4859408
0.4860285
0.5018293
0.4953915
0.4900783
0.4864728
0.4846259
0.4838305
0.4835622
0.4835665
0.4836882
0.4837953
0.5017878
0.4951899
0.4896092
0.485733
0.483686
0.4827761
0.4824557
0.4824466
0.4825753
0.4826941
0.50177
0.4951005
0.4893997
0.4853967
0.483249
0.4822761
0.4819237
0.481904
0.4820344
0.4821583
0.5017621
0.4950604
0.4893053
0.4852433
0.4830469
0.4820421
0.481673
0.4816471
0.481777
0.4819013
0.5017587
0.4950425
0.4892628
0.4851738
0.4829549
0.4819357
0.4815597
0.481532
0.4816613
0.4817837
0.5017572
0.4950345
0.4892436
0.4851425
0.4829141
0.48189
0.481513
0.4814866
0.4816163
0.4817363
0.5017566
0.4950308
0.4892348
0.4851285
0.4828967
0.481872
0.4814969
0.4814733
0.4816044
0.4817225
0.5017562
0.4950289
0.4892305
0.4851219
0.482889
0.4818652
0.481493
0.4814726
0.4816054
0.4817226
0.501756
0.4950277
0.4892278
0.4851179
0.4828847
0.4818622
0.4814923
0.4814748
0.4816098
0.4817274
0.5017559
0.495027
0.489226
0.4851151
0.4828816
0.4818599
0.4814921
0.4814774
0.4816151
0.4817339
0.501756
0.4950272
0.4892262
0.4851155
0.4828825
0.4818616
0.4814961
0.4814843
0.481625
0.4817465
0.5017566
0.4950304
0.4892332
0.4851258
0.4828958
0.4818777
0.4815152
0.4815068
0.4816511
0.4817764
0.5017589
0.495041
0.4892558
0.48516
0.4829391
0.4819277
0.48157
0.4815657
0.4817136
0.4818431
0.6497693
0.6987036
0.6979788
0.6976793
0.6975662
0.6975303
0.6975234
0.6975243
0.6497781
0.6986816
0.6975846
0.6968229
0.6964637
0.696323
0.6962836
0.6962851
0.6962959
0.6988885
0.6978716
0.6968425
0.6961913
0.6958974
0.6957865
0.6957646
0.6957819
0.6958046
0.6985729
0.6979056
0.6973478
0.6970224
0.6968718
0.6968142
0.696807
0.6968293
0.696854
0.6990895
0.6989347
0.6990624
0.699225
0.6993139
0.6993093
0.6992969
0.6993041
0.6993179
0.6487163
0.7004513
0.7022415
0.7033474
0.7036013
0.7035924
0.7035518
0.7035381
0.7035404
0.6501546
0.6500811
0.700265
0.7005521
0.7006931
0.7006974
0.7006964
0.7007029
0.7007117
0.7002922
0.699332
0.6986122
0.6981123
0.6978484
0.6977289
0.6976963
0.6977152
0.6977569
0.700485
0.6985961
0.6970062
0.69574
0.6950193
0.6946993
0.6946
0.6946252
0.6947059
0.7005299
0.6980604
0.6957422
0.6937558
0.6925443
0.6919776
0.6917889
0.6918075
0.6919216
0.6920262
0.7004764
0.6977557
0.6949959
0.6924933
0.6908751
0.6900818
0.6898012
0.6897999
0.6899318
0.6900639
0.7004407
0.6976007
0.6946211
0.6918423
0.6899694
0.6890146
0.6886631
0.6886396
0.6887766
0.6889231
0.7004238
0.6975261
0.6944414
0.6915334
0.6895399
0.6885023
0.6881079
0.6880666
0.6882002
0.6883498
0.7004161
0.6974913
0.6943574
0.6913894
0.6893398
0.6882629
0.6878468
0.6877949
0.6879228
0.6880682
0.7004127
0.6974752
0.6943189
0.6913239
0.6892502
0.6881579
0.6877352
0.6876806
0.6878049
0.687943
0.7004112
0.697468
0.6943016
0.6912955
0.6892133
0.6881184
0.6876984
0.6876475
0.6877716
0.6879027
0.7004106
0.6974646
0.6942939
0.6912836
0.6891999
0.688108
0.6876952
0.6876516
0.6877782
0.6879041
0.7004102
0.6974627
0.6942897
0.6912775
0.6891945
0.6881069
0.6877018
0.6876663
0.6877972
0.6879205
0.7004099
0.697461
0.6942855
0.6912715
0.6891886
0.6881043
0.6877056
0.6876773
0.687813
0.6879367
0.7004095
0.697459
0.6942803
0.691263
0.6891785
0.6880957
0.6877016
0.6876799
0.6878213
0.687948
0.7004091
0.6974567
0.6942741
0.6912519
0.6891642
0.6880816
0.6876913
0.6876765
0.6878254
0.6879584
0.7004094
0.6974559
0.6942703
0.6912439
0.6891531
0.6880706
0.6876847
0.6876782
0.6878372
0.6879801
0.7004107
0.6974601
0.6942765
0.6912504
0.6891604
0.6880807
0.6877017
0.6877064
0.6878783
0.688034
0.8499448
0.899573
0.8992796
0.8991421
0.8990866
0.8990692
0.8990662
0.8990674
0.8499488
0.8995805
0.8991604
0.8988383
0.8986687
0.8985965
0.8985753
0.8985769
0.898585
0.899658
0.899291
0.8989013
0.8986362
0.8984995
0.8984429
0.8984312
0.8984415
0.8984569
0.8995417
0.8992941
0.8990926
0.8989822
0.8989256
0.8989038
0.8989042
0.8989177
0.8989333
0.8997156
0.8996235
0.8996318
0.8996723
0.8996992
0.8997035
0.8997053
0.8997125
0.8997211
0.8489206
0.8999654
0.9001576
0.9003134
0.9003743
0.9003798
0.9003762
0.9003764
0.9003791
0.8501232
0.8500258
0.8999964
0.9000034
0.9000112
0.900013
0.9000122
0.9000131
0.9000156
0.8999817
0.8998172
0.8996211
0.8994673
0.8993758
0.8993292
0.899313
0.8993194
0.8993411
0.8999578
0.8995992
0.8991522
0.8987599
0.8985078
0.8983782
0.8983305
0.8983409
0.8983905
0.8999342
0.8994287
0.8987484
0.8980883
0.8976162
0.8973598
0.8972616
0.897266
0.8973399
0.8999153
0.8993234
0.8984873
0.8976196
0.8969575
0.8965805
0.896423
0.8964093
0.8964941
0.8966163
0.8999024
0.8992656
0.8983445
0.8973563
0.8965641
0.8960945
0.8958871
0.8958477
0.8959268
0.8960598
0.8998955
0.8992357
0.8982718
0.8972252
0.8963667
0.8958433
0.895602
0.8955397
0.8956048
0.8957334
0.8998921
0.8992208
0.8982366
0.8971637
0.8962776
0.8957323
0.8954757
0.8953995
0.8954496
0.8955644
0.8998907
0.8992139
0.8982208
0.8971377
0.8962435
0.895695
0.8954387
0.8953604
0.8954007
0.8954985
0.8998898
0.8992108
0.8982144
0.897129
0.8962366
0.8956959
0.8954512
0.8953816
0.8954194
0.895502
0.8998896
0.8992094
0.8982117
0.8971272
0.8962405
0.8957117
0.8954841
0.8954292
0.8954711
0.895543
0.8998894
0.8992081
0.8982092
0.8971252
0.8962432
0.8957261
0.8955149
0.8954763
0.8955258
0.8955922
0.8998889
0.899206
0.8982041
0.8971177
0.896237
0.8957273
0.895529
0.8955049
0.8955639
0.8956299
0.8998883
0.8992021
0.8981936
0.8970998
0.8962148
0.8957069
0.8955174
0.8955058
0.895576
0.8956474
0.8998874
0.8991958
0.898176
0.8970677
0.8961707
0.8956586
0.8954749
0.8954765
0.8955617
0.895645
0.8998865
0.8991871
0.8981497
0.8970176
0.8960994
0.8955773
0.8953988
0.8954179
0.8955257
0.8956293
0.8998859
0.8991767
0.8981156
0.8969499
0.8960004
0.8954629
0.8952916
0.8953368
0.8954777
0.8956122
1.049988
1.099917
1.099826
1.099773
1.099752
1.099749
1.099749
1.099758
1.04999
1.100011
1.100025
1.100006
1.09998
1.099965
1.099961
1.099962
1.099969
1.09994
1.100038
1.100148
1.100212
1.100228
1.100229
1.100229
1.100232
1.10024
1.099901
1.100016
1.100142
1.100235
1.100276
1.10029
1.100296
1.100299
1.100304
1.099938
1.099969
1.099993
1.100007
1.100006
1.100014
1.100022
1.100025
1.100026
1.048977
1.099948
1.099782
1.099657
1.099613
1.099616
1.099624
1.099627
1.099627
1.050056
1.049981
1.100031
1.10004
1.100037
1.100033
1.100027
1.100017
1.100011
1.100021
1.100194
1.100404
1.100568
1.100658
1.100693
1.100693
1.100682
1.10068
1.100045
1.100409
1.100861
1.101249
1.101482
1.101577
1.101592
1.101581
1.101589
1.100069
1.100576
1.101248
1.101882
1.102305
1.10249
1.102524
1.10251
1.102523
1.100089
1.100678
1.101493
1.102313
1.10289
1.103151
1.103196
1.103168
1.103176
1.100101
1.100731
1.101622
1.102544
1.103223
1.103533
1.103577
1.103528
1.103518
1.100105
1.100754
1.101682
1.102653
1.103381
1.103718
1.103756
1.103684
1.103648
1.103728
1.100106
1.100764
1.10171
1.102705
1.103457
1.103809
1.103847
1.103761
1.103699
1.103754
1.100106
1.100769
1.101724
1.102733
1.103503
1.103872
1.103921
1.103833
1.103754
1.103781
1.100107
1.100771
1.101731
1.102751
1.103537
1.103928
1.103999
1.103925
1.10384
1.103843
1.100106
1.100772
1.101735
1.102763
1.103564
1.103978
1.104076
1.104024
1.103945
1.103931
1.100106
1.100771
1.101736
1.102767
1.103578
1.104012
1.104137
1.104109
1.104041
1.104018
1.100106
1.100769
1.10173
1.102759
1.103573
1.104018
1.104164
1.104159
1.104104
1.10408
1.100106
1.100764
1.101715
1.102732
1.103538
1.103985
1.104144
1.104159
1.104121
1.104105
1.100105
1.100754
1.101684
1.102674
1.103457
1.103894
1.104062
1.104097
1.104084
1.104086
1.100104
1.100738
1.101631
1.102569
1.103303
1.103716
1.10389
1.103957
1.103983
1.10402
1.100105
1.100712
1.101543
1.102393
1.103043
1.103411
1.103595
1.103714
1.103807
1.103901
1.250006
1.299753
1.299452
1.299294
1.299283
1.299295
1.299301
1.299321
1.250006
1.300464
1.300948
1.301196
1.301279
1.30131
1.301326
1.301329
1.301336
1.299729
1.30085
1.301695
1.302185
1.302368
1.302426
1.302442
1.302439
1.302442
1.299554
1.300776
1.301515
1.301966
1.302152
1.302218
1.302236
1.30223
1.302226
1.299674
1.300252
1.300358
1.300357
1.300332
1.30036
1.300383
1.300385
1.30038
1.248964
1.29935
1.297643
1.296596
1.29637
1.296389
1.296433
1.296448
1.296447
1.249988
1.249943
1.299778
1.29951
1.299378
1.299371
1.299358
1.299337
1.299321
1.299712
1.300689
1.301429
1.301947
1.302217
1.302324
1.302331
1.302298
1.30227
1.29952
1.301419
1.303018
1.304285
1.304991
1.305277
1.305339
1.305307
1.305276
1.299479
1.301954
1.304264
1.306227
1.307393
1.307893
1.308019
1.307987
1.307951
1.299542
1.302263
1.304998
1.307453
1.308993
1.309682
1.30986
1.309822
1.309773
1.29958
1.302415
1.305361
1.308075
1.309845
1.310661
1.310868
1.310814
1.310739
1.299587
1.302477
1.305527
1.308364
1.310241
1.311117
1.311336
1.311261
1.311153
1.299588
1.302502
1.305602
1.308499
1.31043
1.31134
1.311567
1.311477
1.31134
1.311344
1.29959
1.302514
1.305637
1.308566
1.31053
1.311467
1.31171
1.311618
1.31146
1.311432
1.299589
1.302519
1.305654
1.308602
1.310591
1.311556
1.311825
1.311747
1.311582
1.311526
1.299588
1.302521
1.305663
1.308623
1.310632
1.311625
1.311924
1.311872
1.311711
1.311635
1.299588
1.302522
1.305666
1.308632
1.310654
1.311669
1.311999
1.311974
1.311825
1.311739
1.29959
1.302521
1.305661
1.308624
1.310651
1.31168
1.312033
1.312034
1.311901
1.311813
1.299591
1.302516
1.305643
1.308592
1.310609
1.311641
1.31201
1.312034
1.311921
1.311841
1.299591
1.302506
1.305605
1.308517
1.310502
1.311522
1.311902
1.311953
1.31187
1.311813
1.299596
1.302491
1.305532
1.308365
1.31028
1.311265
1.311657
1.311753
1.311727
1.311715
1.299615
1.302468
1.305397
1.308078
1.309856
1.310774
1.311187
1.311372
1.311452
1.311526
1.449817
1.499235
1.498272
1.498017
1.498011
1.498077
1.498098
1.498092
1.449788
1.50155
1.502887
1.503404
1.503551
1.503624
1.503684
1.503697
1.503689
1.49904
1.502647
1.50513
1.506254
1.506606
1.506716
1.50675
1.506748
1.506745
1.498367
1.502487
1.50469
1.505682
1.506028
1.506139
1.506164
1.50615
1.506135
1.49917
1.501031
1.501686
1.501976
1.502057
1.502142
1.502178
1.502171
1.502152
1.448378
1.494111
1.485866
1.484539
1.484163
1.484229
1.484294
1.484306
1.484293
1.450109
1.449755
1.499101
1.498242
1.498131
1.498132
1.498064
1.497997
1.497976
1.49894
1.501637
1.503432
1.504368
1.504785
1.504925
1.5049
1.504819
1.504749
1.498144
1.503218
1.506731
1.508829
1.509785
1.510139
1.510205
1.510154
1.510101
1.498124
1.504192
1.508887
1.5119
1.513342
1.513904
1.514045
1.514012
1.513961
1.498262
1.504672
1.509939
1.513498
1.515285
1.516003
1.516195
1.51616
1.516097
1.498325
1.504869
1.510399
1.514218
1.516188
1.516997
1.517214
1.517167
1.517083
1.498282
1.504925
1.510591
1.514539
1.516602
1.51746
1.517687
1.517624
1.517513
1.498263
1.504943
1.510673
1.514683
1.516796
1.517683
1.517917
1.517842
1.517706
1.498275
1.504948
1.51071
1.514753
1.516895
1.517804
1.518052
1.517975
1.51782
1.517778
1.498257
1.504958
1.510728
1.514789
1.516952
1.517885
1.518153
1.518086
1.517925
1.517859
1.498248
1.504961
1.510737
1.514809
1.516989
1.517944
1.518237
1.51819
1.518032
1.517949
1.49825
1.504962
1.510741
1.514818
1.517009
1.517983
1.5183
1.518276
1.518128
1.518036
1.498261
1.50496
1.510737
1.514813
1.517008
1.517993
1.51833
1.518327
1.518192
1.518098
1.49828
1.504953
1.510722
1.514786
1.516972
1.517959
1.51831
1.518326
1.518208
1.518122
1.498269
1.504954
1.510689
1.514714
1.516871
1.517847
1.518208
1.518251
1.518162
1.518097
1.498293
1.504964
1.51062
1.514554
1.516637
1.517579
1.517957
1.518052
1.518025
1.518006
1.498427
1.505008
1.510476
1.514211
1.516125
1.516988
1.517404
1.517626
1.517739
1.517821
1.649981
1.648303
1.64462
1.644077
1.643925
1.644119
1.644207
1.64414
1.644169
1.649474
1.705298
1.707898
1.708566
1.708718
1.708839
1.708985
1.709019
1.708971
1.647396
1.707584
1.712154
1.713686
1.714097
1.71422
1.714262
1.714264
1.714254
1.644362
1.707496
1.711758
1.713208
1.713604
1.713711
1.713726
1.713706
1.713685
1.645493
1.704633
1.706355
1.706939
1.707156
1.707244
1.707222
1.70717
1.707107
1.647708
1.694262
1.689944
1.687613
1.687747
1.687869
1.68774
1.687665
1.687508
1.650772
1.65229
1.652007
1.651704
1.651851
1.65167
1.651599
1.651429
1.651359
1.648898
1.646307
1.643088
1.643475
1.64346
1.643163
1.642549
1.642582
1.642558
1.647376
1.704736
1.707532
1.708721
1.709219
1.709339
1.709233
1.709111
1.709014
1.644022
1.707947
1.71319
1.71536
1.716142
1.716397
1.716431
1.716392
1.716355
1.643872
1.70923
1.715663
1.718518
1.719582
1.719955
1.720044
1.720025
1.719994
1.64401
1.709745
1.716583
1.719758
1.720991
1.721441
1.721557
1.721539
1.721502
1.644187
1.709871
1.716926
1.720255
1.721579
1.722073
1.722202
1.722177
1.722128
1.644054
1.709866
1.71705
1.72046
1.721833
1.722351
1.722485
1.722451
1.722388
1.643918
1.70987
1.7171
1.720548
1.721947
1.72248
1.722618
1.722578
1.722501
1.644029
1.70984
1.71712
1.720589
1.722004
1.722549
1.722693
1.722652
1.722565
1.643931
1.709876
1.717134
1.720609
1.722037
1.722593
1.722748
1.722711
1.722621
1.722581
1.643892
1.709885
1.717141
1.72062
1.722057
1.722625
1.722793
1.722766
1.722677
1.722629
1.643894
1.709883
1.717143
1.720625
1.722068
1.722646
1.722826
1.722812
1.722728
1.722675
1.643907
1.709873
1.717141
1.720625
1.722068
1.722652
1.722842
1.722839
1.722762
1.722708
1.644014
1.709843
1.717131
1.72061
1.722048
1.722633
1.722831
1.722839
1.722772
1.722721
1.643961
1.709878
1.717114
1.720567
1.721987
1.722565
1.72277
1.722795
1.722745
1.722708
1.64393
1.709919
1.717078
1.720458
1.721825
1.722379
1.722598
1.722664
1.722661
1.722656
1.644542
1.710092
1.716984
1.720176
1.721387
1.721868
1.722133
1.722332
1.722464
1.722543
1.851741
1.85167
1.824614
1.822656
1.821762
1.822807
1.824514
1.823154
1.821979
1.822371
1.902386
1.904474
1.905002
1.905047
1.905088
1.905142
1.905174
1.905132
1.820587
1.904209
1.90786
1.908834
1.90904
1.90909
1.909109
1.909111
1.909106
1.821128
1.904322
1.907874
1.908846
1.909058
1.909102
1.909107
1.909099
1.90909
1.853265
1.902944
1.905115
1.905773
1.905966
1.906008
1.905977
1.905949
1.905911
1.852918
1.858383
1.860487
1.860806
1.861141
1.861295
1.861076
1.861
1.86081
1.860732
1.851802
1.852811
1.851964
1.853598
1.854398
1.852714
1.853026
1.851888
1.851638
1.845379
1.844188
1.84456
1.84797
1.847432
1.847116
1.844284
1.817705
1.817676
1.820673
1.90165
1.903635
1.904387
1.90459
1.904633
1.90461
1.904583
1.904633
1.820534
1.904258
1.90811
1.909273
1.909588
1.909671
1.90968
1.909676
1.909675
1.820537
1.905077
1.909455
1.910885
1.911278
1.911391
1.911416
1.911413
1.911407
1.821076
1.905357
1.909836
1.911353
1.911789
1.911919
1.911951
1.911947
1.911938
1.823751
1.905454
1.909952
1.911506
1.911961
1.912102
1.912137
1.912131
1.912119
1.822083
1.905383
1.909983
1.911562
1.91203
1.912176
1.912212
1.912204
1.912189
1.820561
1.905356
1.909993
1.911584
1.91206
1.912209
1.912246
1.912237
1.912218
1.822064
1.905397
1.909999
1.911594
1.912074
1.912227
1.912265
1.912255
1.912234
1.820925
1.905363
1.91
1.911598
1.912082
1.912237
1.912278
1.91227
1.912247
1.821217
1.905353
1.910001
1.9116
1.912087
1.912245
1.91229
1.912283
1.912261
1.912249
1.821639
1.905361
1.910002
1.911602
1.912089
1.912251
1.912298
1.912294
1.912273
1.91226
1.821268
1.905383
1.910005
1.911603
1.91209
1.912252
1.912302
1.912301
1.912282
1.912268
1.821804
1.905411
1.910005
1.911601
1.912085
1.912247
1.912299
1.912301
1.912284
1.912271
1.821157
1.905375
1.91
1.911589
1.912068
1.912228
1.912282
1.912289
1.912277
1.912268
1.821722
1.905418
1.909991
1.911555
1.912017
1.912168
1.912227
1.91225
1.912253
1.912254
1.821811
1.905505
1.909947
1.911429
1.911828
1.911952
1.912029
1.912109
1.912176
1.912219
0.01968994
0.0196885
0.04419674
0.1716486
0.171646
0.1425961
0.04410187
0.04316853
0.04153558
0.14245
0.1389504
0.1420356
0.1359205
0.04059202
0.04205604
0.04019872
0.138895
0.1337191
0.1406135
0.1327377
0.04010326
0.04218849
0.04024907
0.1407962
0.13241
0.1408888
0.1326698
0.04061986
0.04253721
0.04205936
0.1409199
0.1332891
0.1394053
0.1350489
0.04236758
0.04538644
0.04549518
0.1420088
0.1380031
0.1719809
0.1421884
0.02022821
0.01026117
0.1731461
0.1463661
0.178645
0.02013715
0.01025688
0.01025735
0.1458564
0.145592
0.1742856
0.174205
0.02013123
0.0102578
0.01025748
0.1453938
0.1452929
0.174201
0.1742475
0.0201315
0.01025744
0.0102575
0.1452584
0.1452449
0.1742582
0.1742837
0.02012355
0.01025755
0.01025759
0.1452496
0.1452425
0.1742863
0.1742941
0.02012416
0.01025759
0.0102576
0.1452421
0.1452496
0.1742946
0.1742977
0.02012319
0.0102576
0.01025761
0.1452459
0.1452447
0.1742979
0.1742991
0.0200807
0.01025761
0.01025761
0.1452208
0.1451957
0.1742992
0.1742997
0.02012191
0.01025761
0.01025773
0.1451987
0.1452278
0.1742999
0.1743016
0.0102578
0.145249
0.1743023
0.02321712
0.04739454
0.180159
0.1790811
0.1465884
0.04750832
0.0462035
0.1793279
0.1454326
0.179462
0.1445848
0.04590858
0.0457503
0.1794662
0.1442957
0.1794667
0.1440655
0.04572053
0.04570268
0.1794663
0.1440093
0.1794645
0.1439531
0.04569917
0.04569662
0.1794644
0.1439442
0.179464
0.1439272
0.0456959
0.04569504
0.1794641
0.143926
0.1794639
0.1439194
0.04569489
0.04569449
0.1794639
0.1439195
0.1794639
0.1439166
0.0456944
0.04569423
0.1794638
0.143917
0.1794638
0.1439156
0.04569426
0.04569419
0.1794638
0.1439158
0.1794638
0.1439151
0.04569413
0.04569412
0.1794637
0.1439153
0.1794638
0.143915
0.04569415
0.0456941
0.1794637
0.1439151
0.1794638
0.1439149
0.0456941
0.04569409
0.1794638
0.143915
0.1794638
0.1439149
0.04569409
0.04569409
0.1794638
0.1439149
0.1794638
0.1439149
0.04569409
0.04569409
0.1794638
0.1439149
0.1794638
0.1439149
0.04569409
0.04569411
0.1794638
0.1439149
0.1794638
0.143915
0.04569413
0.04569417
0.1794638
0.1439151
0.1794638
0.1439153
0.04569422
0.04569434
0.1794638
0.1439156
0.1794638
0.1439162
0.2220366
0.2220346
0.2462136
0.3750543
0.3750544
0.34815
0.248586
0.2280747
0.3493488
0.3757377
0.4241657
0.4241652
0.4490904
0.5754694
0.57547
0.5495478
0.4497956
0.4244997
0.5499299
0.5756683
0.6244228
0.6244242
0.6497706
0.7755219
0.7755241
0.749883
0.6500183
0.6244488
0.7500091
0.7756293
0.824458
0.8244601
0.8499392
0.9755328
0.9755306
0.9499717
0.8500272
0.8244157
0.949993
0.9756061
1.024466
1.024465
1.049989
1.175533
1.175535
1.150006
1.050006
1.024395
1.149971
1.175586
1.224465
1.224469
1.250023
1.375531
1.375527
1.350047
1.249985
1.224372
1.349965
1.375558
1.424459
1.424453
1.450094
1.575529
1.575494
1.550201
1.450024
1.424341
1.55008
1.575522
1.624503
1.624429
1.650475
1.776295
1.773845
1.751302
1.650322
1.624286
1.7506
1.772075
1.826006
1.821983
1.853861
1.978844
1.95275
1.851391
1.855557
1.856117
1.953398
1.954575
1.822465
1.856274
1.856239
1.97731
1.954745
1.954336
1.821384
1.856186
1.85611
1.954228
1.954351
1.851448
1.856796
1.857307
1.978709
1.954968
1.955385
1.822485
1.857132
1.856836
1.978895
1.955206
1.95483
1.856494
1.954596
1.854796
1.820586
1.855446
1.952573
1.953812
1.855744
1.820702
1.855989
1.954099
1.954272
1.856393
1.824973
1.856969
1.954524
1.978979
1.955065
1.857536
1.854036
1.857152
1.978956
1.955333
1.97879
1.954309
1.856152
1.825215
1.854106
1.97896
1.954536
1.952165
1.851659
1.822843
1.978159
1.990249
1.85237
1.827123
1.827049
1.978427
1.978747
1.990256
1.990261
1.85224
1.827057
1.827065
1.979135
1.978181
1.990262
1.990268
1.852434
1.827149
1.829678
1.978072
1.97868
1.990273
1.991679
1.854386
1.830087
1.97889
1.979825
1.979579
1.979952
1.85366
1.830087
1.979811
1.978905
1.979952
1.979579
1.852827
1.82966
1.827097
1.978721
1.978773
1.991679
1.990273
1.852363
1.826995
1.826978
1.97916
1.978481
1.990268
1.990259
1.851707
1.827075
1.825967
1.977877
1.978021
1.990256
1.989748
1.825726
1.978008
1.989745
1.819879
1.82092
1.853415
1.977149
1.952733
1.854568
1.820538
1.855419
1.952513
1.9538
1.855705
1.820535
1.855942
1.954092
1.954251
1.856018
1.820675
1.856158
1.954286
1.954337
1.856448
1.823703
1.856876
1.954553
1.978783
1.95503
1.856914
1.822787
1.856587
1.978768
1.955006
1.954465
1.856259
1.820587
1.85614
1.954289
1.954307
1.856107
1.821158
1.856149
1.954304
1.954297
1.856233
1.821195
1.856177
1.954263
1.954275
1.856123
1.821642
1.856069
1.954367
1.954497
1.856106
1.821216
1.856106
1.954377
1.954377
1.856067
1.820998
1.856115
1.954499
1.954392
1.856105
1.82183
1.856088
1.954482
1.954574
1.856193
1.822064
1.856244
1.954342
1.954267
1.856158
1.821242
1.856127
1.954302
1.954381
1.856107
1.821866
1.856215
1.954614
1.954658
1.85663
1.824982
1.857355
1.954679
1.929817
1.955273
0.07161051
0.02287614
0.07239871
0.020398
0.06878396
0.06713816
0.02257228
0.07230033
0.02410796
0.07288336
0.02306671
0.02305331
0.04702904
0.04567249
0.1807991
0.1823355
0.1453126
0.1445571
0.02303789
0.04535252
0.04518498
0.1823004
0.182283
0.1442271
0.1439927
0.02303706
0.0451476
0.04512952
0.1822852
0.1823012
0.1439147
0.1438631
0.02303698
0.04512485
0.04512329
0.1823037
0.1823124
0.1438514
0.14384
0.02303701
0.04512266
0.04512263
0.1823133
0.1823173
0.1438391
0.1438369
0.02303714
0.04512288
0.0451237
0.1823177
0.1823197
0.1438388
0.1438413
0.02303759
0.04512522
0.04512788
0.18232
0.1823224
0.1438469
0.1438559
0.02304087
0.04513217
0.04513857
0.1823237
0.182333
0.1438708
0.143892
0.04514478
0.1823369
0.1439139
0.07187875
0.02274538
0.07196026
0.02262719
0.07178326
0.02251957
0.07180067
0.02245701
0.07176901
0.0225011
0.07177343
0.02244988
0.07176709
0.02250081
0.07176961
0.02244955
0.07176664
0.02250075
0.07176872
0.02244947
0.07176648
0.02250067
0.07176843
0.02244943
0.07176642
0.02250068
0.0717683
0.02244938
0.0717664
0.02250067
0.07176833
0.02244936
0.07176638
0.02250067
0.07176825
0.02244936
0.07176638
0.02250066
0.07176825
0.02244936
0.07176638
0.02250067
0.07176825
0.02244936
0.07176637
0.02250067
0.07176825
0.02244936
0.07176638
0.02250066
0.07176825
0.02244936
0.07176637
0.02250067
0.07176825
0.02244936
0.07176638
0.02250066
0.07176826
0.02244936
0.07176641
0.02250067
0.07176827
0.02244937
0.2746696
0.2244378
0.2432564
0.223721
0.2464027
0.3490684
0.3466084
0.3747627
0.3485356
0.2752743
0.224085
0.2241361
0.2744927
0.2287183
0.2510908
0.2491754
0.3753217
0.3529952
0.3496539
0.4749514
0.4249202
0.4485466
0.4248375
0.4494474
0.5504836
0.5490599
0.5749803
0.5497413
0.475489
0.4249192
0.4244664
0.4749482
0.4248315
0.4517957
0.4497811
0.5752941
0.5516773
0.5499451
0.6749967
0.6249868
0.6497616
0.6249639
0.6499207
0.7508756
0.7496122
0.7750074
0.7499276
0.6755056
0.6250024
0.624502
0.6749884
0.624819
0.6491855
0.6499314
0.7752638
0.7510475
0.7500056
0.8749964
0.8250001
0.8500711
0.8249822
0.8500036
0.950978
0.949758
0.9750123
0.9499601
0.8755038
0.8250106
0.824502
0.8749918
0.82479
0.8489903
0.84997
0.9752367
0.9510185
0.9500204
1.075
1.025
1.05016
1.024986
1.050015
1.150994
1.149812
1.175013
1.14996
1.0755
1.02501
1.024499
1.07499
1.024765
1.048982
1.049982
1.175212
1.15101
1.150033
1.275008
1.225005
1.250197
1.224986
1.25001
1.350815
1.349889
1.375015
1.34996
1.275497
1.225007
1.224495
1.274988
1.224739
1.248953
1.249999
1.37519
1.350816
1.350076
1.475008
1.425001
1.450315
1.424981
1.450026
1.548341
1.550315
1.574987
1.550082
1.4755
1.425006
1.424495
1.474994
1.424718
1.448325
1.450066
1.575195
1.548207
1.550235
1.67504
1.62502
1.651288
1.624983
1.650485
1.750874
1.752919
1.775231
1.751591
1.675548
1.62504
1.624519
1.675088
1.624709
1.647008
1.650368
1.771318
1.74891
1.750866
1.876165
1.825448
1.850901
1.856281
1.856457
1.977507
1.954828
1.954946
1.822294
1.856068
1.85625
1.954606
1.954717
1.82302
1.85693
1.856849
1.955058
1.955022
1.86095
1.856155
1.856413
1.95695
1.957008
1.953577
1.95377
1.861279
1.856994
1.8574
1.957087
1.957147
1.954129
1.954431
1.875175
1.825563
1.824623
1.876312
1.844145
1.854613
1.855248
1.977278
1.977364
1.953229
1.954602
1.844298
1.855547
1.855797
1.977373
1.977389
1.954932
1.955113
1.817691
1.856158
1.856131
1.977334
1.976961
1.955001
1.954896
1.856102
1.976955
1.954862
0.1232898
0.1740472
0.01030526
0.08765436
0.01027956
0.08439546
0.08620386
0.1235193
0.1195614
0.172807
0.120261
0.1747401
0.1877593
0.1125759
0.01025893
0.08439079
0.08437618
0.01025772
0.08437302
0.08437684
0.01025776
0.08437236
0.08437101
0.0102576