/*--------------------------------*- C++ -*----------------------------------*\
  =========                 |
  \\      /  F ield         | OpenFOAM: The Open Source CFD Toolbox
   \\    /   O peration     | Website:  https://openfoam.org
    \\  /    A nd           | Version:  7
     \\/     M anipulation  |
\*---------------------------------------------------------------------------*/
FoamFile
{
    version     2.0;
    format      ascii;
    class       volScalarField;
    location    "0.1";
    object      Ux;
}
// * * * * * * * * * * * * * * * * * * * * * * * * * * * * * * * * * * * * * //

dimensions      [0 1 -1 0 0 0 0];

internalField   nonuniform List<scalar> 
109978
(
0.4702065
0.4734973
0.4557944
0.4465899
0.4346279
0.4227424
0.4671956
0.4804847
0.4606949
0.4534568
0.4398428
0.4281257
0.4599999
0.4824371
0.4611789
0.4545384
0.4402675
0.4286104
0.4641497
0.4821371
0.460917
0.4542799
0.4399732
0.4282135
0.4662553
0.4827462
0.4608082
0.4536247
0.4392579
0.4273209
0.4683378
0.4831441
0.4608396
0.453151
0.4386414
0.4266175
0.4699295
0.4835709
0.4610084
0.4527083
0.438169
0.4261429
0.4730665
0.4837957
0.461115
0.4523047
0.4376885
0.4256375
0.4764942
0.4842673
0.4613379
0.4519866
0.4372207
0.42513
0.4791479
0.4851563
0.4614266
0.4517063
0.4368568
0.424698
0.4810434
0.4868275
0.461357
0.451216
0.4361426
0.4238407
0.4822483
0.487284
0.4609464
0.4507016
0.4354936
0.42314
0.4831592
0.4873891
0.460606
0.450291
0.4348987
0.4224258
0.4838915
0.487386
0.4602803
0.449858
0.4342594
0.4216425
0.4844235
0.4872881
0.4599042
0.4493709
0.4335509
0.4207663
0.4848054
0.487124
0.4594543
0.4488072
0.4327485
0.4197843
0.4850621
0.486906
0.4589188
0.4481583
0.4318418
0.4186849
0.4852484
0.4866185
0.4582914
0.4474136
0.4308151
0.4174565
0.4853846
0.4863103
0.457576
0.446572
0.4296596
0.4160865
0.4853203
0.4859252
0.4567651
0.4456273
0.4283697
0.4145655
0.4852284
0.4855007
0.4558673
0.4445766
0.4269313
0.4128746
0.4850438
0.4850403
0.4548825
0.4434092
0.4253366
0.411002
0.4554261
0.48463
0.453824
0.4421155
0.4235732
0.4089249
0.4669787
0.4723221
0.4558624
0.4464821
0.434463
0.4227123
0.4627468
0.4373673
0.4826587
0.4404914
0.4486356
0.43062
0.498211
0.4203349
0.4898349
0.4368745
0.4547982
0.4299997
0.5078293
0.4111945
0.4789333
0.4308797
0.4454814
0.4269757
0.5008371
0.4099531
0.4770997
0.4296459
0.4426554
0.4259826
0.493647
0.4142762
0.4779361
0.4303979
0.4434997
0.4262181
0.4867821
0.422197
0.4805169
0.4324301
0.4449767
0.4265889
0.4800883
0.4280326
0.4808074
0.4349075
0.4461885
0.4271998
0.4748458
0.434813
0.4815531
0.4374184
0.4479874
0.4276757
0.4735149
0.4372302
0.4809616
0.4388279
0.4488518
0.4279051
0.4716664
0.4409614
0.4814936
0.4402788
0.4492142
0.4276673
0.4707724
0.4418444
0.4819178
0.4407706
0.449043
0.4272542
0.4704682
0.4434003
0.4828554
0.4410736
0.4490212
0.4267335
0.4697841
0.4436914
0.4828043
0.4404963
0.4488066
0.426032
0.4689898
0.4449428
0.4831159
0.4402378
0.4482001
0.4252609
0.4683528
0.4453698
0.4831077
0.4396556
0.4478782
0.4244742
0.4678904
0.4457216
0.4830978
0.439042
0.4472904
0.4235563
0.4674368
0.4457368
0.4829107
0.4382169
0.4467528
0.4225497
0.4668894
0.446223
0.4828457
0.4372737
0.446174
0.4214286
0.4663071
0.4460115
0.4827607
0.4361858
0.4453875
0.4201571
0.4659122
0.4455946
0.4826672
0.4351358
0.4444868
0.4187328
0.4656773
0.4459454
0.4825353
0.4340593
0.4434305
0.417132
0.4654098
0.4464308
0.4824367
0.4329474
0.4423052
0.4153717
0.4358461
0.4467994
0.4823848
0.4317583
0.4411379
0.4134415
0.4683562
0.4979476
0.4679338
0.4561651
0.4431426
0.4316857
0.4923279
0.416182
0.4870096
0.4358592
0.4545767
0.4297714
0.3889131
0.4296606
0.5113769
0.4518411
0.4615078
0.4338112
0.3438194
0.4391191
0.5076184
0.4419611
0.4568373
0.4287968
0.4223372
0.4462133
0.5074054
0.4505832
0.4598753
0.4334909
0.4494229
0.4481347
0.5071469
0.4471069
0.4566918
0.4294971
0.4636831
0.4493889
0.5045743
0.4491455
0.4565082
0.4315232
0.4664015
0.4492759
0.5006001
0.4480644
0.4550762
0.4298839
0.4725996
0.450118
0.4964773
0.445879
0.4532156
0.4297349
0.4776199
0.4530564
0.4932031
0.4455883
0.4517265
0.4296401
0.475969
0.4538067
0.4914362
0.4457435
0.4521957
0.4305076
0.476946
0.4486955
0.4903092
0.4452236
0.4525066
0.4296664
0.4773876
0.4482976
0.4892433
0.4454867
0.4520746
0.4290141
0.474975
0.447384
0.4896858
0.4458156
0.4514339
0.4285489
0.4748373
0.4450739
0.4898149
0.4461794
0.4514723
0.428
0.4751027
0.4477728
0.4911698
0.4457997
0.4505634
0.4272171
0.4748713
0.4462625
0.4911251
0.4450676
0.4499359
0.426339
0.4743434
0.4470106
0.4916819
0.4441705
0.4493487
0.4254494
0.4740784
0.4458849
0.4917368
0.4433526
0.4487453
0.4243495
0.47438
0.4461968
0.4920413
0.4428049
0.4481083
0.4231241
0.4747713
0.4470644
0.4926764
0.4424504
0.4475593
0.4217781
0.4739755
0.4458072
0.4930664
0.4415305
0.44698
0.4201275
0.4733596
0.4440078
0.4930704
0.4400366
0.4458347
0.4182297
0.472643
0.4421818
0.4929168
0.4382427
0.4443171
0.4161385
0.449302
0.5009571
0.4690675
0.4623979
0.4442302
0.4318462
0.5330615
0.4086873
0.4760396
0.4280659
0.4466935
0.4267103
0.2404143
0.4542985
0.5286423
0.4553675
0.465438
0.4339412
0.4968506
0.4544465
0.510617
0.4472262
0.4482738
0.4274582
0.4785304
0.4536819
0.5046678
0.4470783
0.4574298
0.429868
0.481486
0.4473115
0.5006994
0.4433205
0.4532745
0.4273375
0.4815629
0.4434818
0.495777
0.4407196
0.4514095
0.4275299
0.4819422
0.4430535
0.4935353
0.4416474
0.4506486
0.4271844
0.4872187
0.4489452
0.4922735
0.444089
0.4502417
0.427809
0.4900886
0.4548943
0.4925721
0.4460464
0.4491567
0.4276678
0.4873844
0.4551998
0.4890026
0.4436831
0.4459939
0.4265449
0.4861487
0.4582945
0.4880188
0.4432201
0.446713
0.426088
0.4848274
0.4571016
0.4882478
0.4430223
0.4477353
0.425897
0.4823174
0.4511781
0.4858151
0.4412634
0.4464122
0.4244834
0.4825181
0.4543981
0.4844877
0.4394735
0.445951
0.4235376
0.4824218
0.4532543
0.4843993
0.439869
0.4453509
0.4228585
0.4820718
0.4531506
0.4844339
0.4391428
0.4446254
0.4218319
0.4815576
0.4510813
0.4845826
0.4392417
0.4433174
0.4208758
0.481364
0.4509618
0.4849307
0.439197
0.4423399
0.4197454
0.481413
0.4502156
0.4852195
0.4386563
0.4416792
0.418501
0.4814863
0.4500482
0.4859517
0.4380411
0.4416659
0.4171846
0.4818604
0.4491696
0.4854384
0.4365155
0.4409354
0.4155796
0.4815441
0.4483154
0.4849401
0.4351045
0.4399541
0.4137883
0.481001
0.4469077
0.4847091
0.4338133
0.4388878
0.411778
0.443354
0.4984599
0.4718092
0.4623084
0.444827
0.4330544
0.5396074
0.4016612
0.4743522
0.4269008
0.4415059
0.4250344
0.3251437
0.4519102
0.5225386
0.4533811
0.4638614
0.436164
0.4746975
0.4746259
0.5156053
0.4542461
0.4565851
0.4292382
0.4726946
0.4527946
0.5009721
0.4492318
0.4549382
0.4340265
0.4817741
0.4405171
0.4906187
0.4407868
0.4497356
0.4269987
0.4889496
0.4419016
0.4882529
0.4436367
0.4494802
0.4301386
0.4900242
0.4424507
0.4908606
0.4449867
0.4504759
0.4316101
0.4920034
0.4442739
0.4902193
0.445907
0.4499148
0.4301114
0.4941443
0.4508365
0.4911329
0.4479443
0.4505474
0.4300563
0.4904126
0.4533869
0.4887544
0.446326
0.4488554
0.428659
0.4892757
0.4543184
0.4846718
0.44434
0.447083
0.4275832
0.4876458
0.4579746
0.4853692
0.4455694
0.4472853
0.4281291
0.4854792
0.464111
0.49156
0.4500177
0.4510836
0.4299303
0.4847578
0.4574521
0.4894825
0.4467358
0.4485302
0.4266925
0.4840576
0.4572634
0.4898808
0.4472342
0.4494604
0.4262359
0.4836586
0.4560357
0.4879977
0.4449824
0.4469852
0.424572
0.4832544
0.4570918
0.4889434
0.4459161
0.4477152
0.4241225
0.4828276
0.4547706
0.4882745
0.4437256
0.4467165
0.4222725
0.4824974
0.4529407
0.4869697
0.4425506
0.4456409
0.420907
0.482244
0.4497796
0.4855945
0.4411597
0.4444384
0.4192951
0.480072
0.4482827
0.4850876
0.4392059
0.4434457
0.4175451
0.4784315
0.4447966
0.482815
0.4363015
0.4415374
0.4152915
0.476427
0.4436897
0.4813914
0.4345644
0.4399591
0.413163
0.442726
0.4919481
0.4684531
0.4562235
0.444508
0.4321724
0.53769
0.4013937
0.4745163
0.4269536
0.4419871
0.4251576
0.2956277
0.4510977
0.5235618
0.4536672
0.4639062
0.4363609
0.5055748
0.4755376
0.5164924
0.4549061
0.4574023
0.4293714
0.4883639
0.4505074
0.5003513
0.4488816
0.454909
0.4342439
0.4910011
0.440655
0.4914078
0.4411506
0.4501524
0.4270792
0.4944376
0.4421757
0.4883352
0.4439213
0.4495597
0.4302187
0.4963484
0.4424759
0.4910003
0.4450248
0.4505363
0.4316254
0.4977071
0.4441106
0.4904319
0.4459035
0.4499185
0.4300821
0.4993448
0.4509521
0.4913463
0.4479891
0.4505583
0.430069
0.4954281
0.4535847
0.4888092
0.4463805
0.4488669
0.4286288
0.4954597
0.4544349
0.4846254
0.4443791
0.4470851
0.4275761
0.493962
0.458134
0.4854754
0.4456047
0.4473746
0.4280888
0.4909724
0.4644701
0.4918113
0.4500401
0.4511993
0.4299624
0.4844471
0.4561056
0.4895398
0.4465409
0.4484836
0.4266708
0.4830087
0.4571781
0.490253
0.4472504
0.449716
0.426127
0.4817671
0.4540826
0.487427
0.4445297
0.4468347
0.424523
0.4808886
0.4572153
0.4892716
0.4459632
0.4478894
0.4238432
0.479455
0.4525156
0.4883
0.4434052
0.4466357
0.4222165
0.4779963
0.4508947
0.4860305
0.4422925
0.4452661
0.420747
0.4768997
0.4532467
0.4862226
0.441771
0.4445282
0.4193376
0.4754834
0.4478214
0.485075
0.4388964
0.4431522
0.4174401
0.4762804
0.4446242
0.4829487
0.4363883
0.4412242
0.4151878
0.4759467
0.4433592
0.4814845
0.4347768
0.4395742
0.4131043
0.4560016
0.492643
0.4670077
0.4563707
0.4433786
0.4325741
0.5316592
0.4089632
0.4753
0.428265
0.4458167
0.4266189
0.3585621
0.4538608
0.5280195
0.455205
0.4653534
0.433674
0.4849903
0.4555401
0.5107059
0.4473342
0.4477439
0.4274479
0.4719506
0.456093
0.504598
0.4473288
0.4575698
0.4298208
0.4874921
0.4490916
0.5009993
0.4434327
0.4531657
0.4273721
0.4914103
0.4439385
0.4959521
0.4408572
0.4514269
0.4275691
0.4957603
0.4435457
0.4935569
0.4417539
0.4506993
0.4272099
0.497747
0.4498285
0.4924027
0.4442133
0.4503396
0.4278252
0.4984517
0.4559804
0.4927174
0.4461175
0.4492109
0.4276953
0.4949647
0.4560138
0.4891216
0.4436847
0.4460232
0.4265574
0.4941798
0.459024
0.4880643
0.4433278
0.4468135
0.4261326
0.4900355
0.4577805
0.4882888
0.4430871
0.447815
0.4259182
0.488408
0.4514862
0.4858794
0.4412788
0.4464476
0.4245067
0.4862595
0.4548684
0.4845206
0.4395053
0.4461384
0.423582
0.4844221
0.4541565
0.4844949
0.439963
0.4454833
0.422897
0.4828981
0.4532745
0.4844988
0.4390884
0.4449427
0.4218333
0.4815962
0.4521236
0.4847428
0.4393412
0.4435667
0.4208955
0.4803324
0.4512553
0.4850253
0.439156
0.442639
0.4197675
0.4776862
0.4506861
0.4858472
0.4389598
0.4422572
0.4185912
0.4755692
0.4490432
0.4860877
0.4379551
0.4418924
0.4172326
0.4754011
0.4487961
0.4854508
0.436542
0.441161
0.4157161
0.4742788
0.4482643
0.4848705
0.4352455
0.440236
0.4139556
0.4733692
0.4469179
0.4847302
0.4339079
0.439033
0.41207
0.4580506
0.4909029
0.466343
0.4635607
0.4454014
0.4344378
0.507813
0.4154965
0.4869567
0.4351685
0.4544192
0.4296744
0.3642114
0.4294668
0.5114388
0.4517464
0.4614806
0.4338694
0.4504579
0.4392014
0.5077248
0.4419141
0.4568011
0.428773
0.4623855
0.444689
0.5075608
0.4505018
0.4597928
0.4335551
0.4707743
0.4472668
0.507293
0.4470624
0.456729
0.4295233
0.4775929
0.4490446
0.5046838
0.4490874
0.4564738
0.4315339
0.4819976
0.4492757
0.5006659
0.4480814
0.4550765
0.4299123
0.4850293
0.4501027
0.4965633
0.4459132
0.4531995
0.4297573
0.4864392
0.4530285
0.4932856
0.4456363
0.4517341
0.4296561
0.4822341
0.4537926
0.4914994
0.4457944
0.4522497
0.4305337
0.4809817
0.448496
0.4904074
0.4452702
0.4525267
0.4296689
0.4809333
0.4479704
0.4893144
0.4455159
0.4521027
0.4290267
0.4825449
0.4471201
0.48977
0.4458411
0.4514819
0.4285673
0.4801892
0.4450547
0.4897437
0.4462233
0.4515031
0.4280084
0.4785543
0.4477379
0.4912172
0.4458665
0.4505797
0.427233
0.4772439
0.4462626
0.4910474
0.4451457
0.4499142
0.4263439
0.4765925
0.4470303
0.4917173
0.444278
0.4493785
0.4254481
0.4756568
0.4460657
0.4917099
0.4434509
0.4487165
0.4243501
0.4746016
0.4476785
0.4921611
0.4430076
0.4481059
0.4231353
0.4726022
0.4476369
0.4926541
0.4425237
0.4475896
0.4217594
0.4714553
0.4460461
0.4930082
0.441573
0.4468072
0.4200791
0.470389
0.4440154
0.4930184
0.44001
0.4457355
0.4181693
0.4692509
0.4420839
0.4927517
0.4383454
0.4437038
0.4159256
0.4681449
0.5031806
0.4636202
0.4622969
0.4430034
0.4310091
0.4675338
0.4380125
0.4833577
0.440423
0.4487682
0.4305887
0.4078895
0.4202117
0.4896655
0.4369918
0.4547946
0.4300136
0.407342
0.4113514
0.4788958
0.4309331
0.4454606
0.4269706
0.416174
0.4100853
0.477081
0.4296523
0.4426908
0.4259846
0.4303076
0.4142985
0.4779318
0.4304087
0.4435205
0.4262272
0.4367379
0.4221348
0.4804929
0.4324243
0.445001
0.426601
0.4442037
0.4279564
0.4808105
0.4349059
0.4462001
0.4272151
0.452679
0.4347683
0.4815747
0.4374265
0.4479882
0.4276947
0.4573309
0.437201
0.48097
0.4388391
0.4488378
0.4279254
0.456467
0.4409457
0.4814977
0.4402947
0.4492088
0.4276873
0.4583577
0.4418133
0.4819049
0.4407771
0.4490385
0.4272744
0.4593949
0.4433992
0.4828693
0.4410937
0.4490323
0.4267542
0.4592149
0.4436656
0.4827865
0.4405062
0.4488048
0.4260512
0.4595968
0.4449903
0.4831219
0.4402596
0.4481849
0.4252805
0.4603757
0.4453998
0.4831083
0.4396831
0.4478774
0.4244974
0.4607645
0.4457939
0.4831028
0.4390719
0.4472663
0.4235796
0.4610407
0.4457939
0.4829391
0.4382614
0.4467525
0.4225774
0.4613491
0.4462304
0.4828575
0.4373054
0.4461332
0.4214565
0.4614954
0.4454918
0.4827297
0.4361755
0.4453598
0.4201909
0.4614143
0.4455311
0.4826315
0.4351203
0.4444102
0.418772
0.4612576
0.4458214
0.4824953
0.434035
0.4432726
0.4171801
0.4610042
0.4463102
0.4824143
0.4329253
0.442121
0.4154442
0.4358478
0.4467111
0.4824154
0.4317894
0.4405794
0.4135577
0.5173559
0.5471245
0.5237642
0.5187143
0.5008156
0.4879351
0.5095631
0.4903261
0.5052323
0.4617629
0.4622549
0.4432138
0.4321028
0.4990048
0.4719785
0.5080656
0.4639324
0.4651314
0.4455475
0.4343059
0.4917712
0.4617441
0.5090756
0.4647828
0.4653207
0.4464879
0.4340919
0.4940388
0.4607393
0.5102074
0.4626196
0.4662652
0.4468757
0.4342812
0.4961215
0.4619593
0.5105829
0.4614617
0.4682447
0.4457959
0.4342881
0.4976075
0.4636072
0.5101935
0.4603077
0.4672487
0.4448246
0.4335214
0.4963564
0.4670852
0.509507
0.4597836
0.4659689
0.4439688
0.432749
0.4929221
0.4700565
0.5090967
0.4597105
0.464737
0.4428059
0.4317228
0.4933311
0.4709969
0.5084081
0.4601516
0.4636485
0.4417514
0.43072
0.4933859
0.4709548
0.5081933
0.4605207
0.4627263
0.4406798
0.4297163
0.4933929
0.4701823
0.5087685
0.4608026
0.4619968
0.4397246
0.4288405
0.4936483
0.4701369
0.508819
0.4605748
0.4613621
0.4388621
0.4280357
0.4939273
0.470222
0.5087949
0.4602
0.460855
0.4381141
0.4272408
0.4939127
0.4697385
0.508942
0.4597506
0.4603062
0.4374284
0.4264119
0.4937758
0.4690852
0.5088753
0.4593528
0.4598167
0.4366679
0.4254873
0.4938135
0.4686658
0.5087816
0.4588549
0.4592659
0.4358242
0.4244645
0.4939244
0.4682883
0.5086337
0.4582874
0.4586706
0.4348512
0.4233331
0.4940364
0.4678817
0.5084772
0.4575817
0.4579953
0.4337501
0.4220752
0.494029
0.4676938
0.5083399
0.4567607
0.4572337
0.4325137
0.420688
0.4940392
0.4676197
0.5082796
0.4558902
0.4563728
0.4311593
0.4191687
0.4941213
0.4675045
0.5083203
0.4549829
0.4554214
0.4296648
0.4174887
0.4941988
0.4673058
0.5083939
0.4540303
0.4543604
0.4280435
0.4156419
0.4942523
0.4467665
0.5084971
0.4529034
0.4531294
0.4262751
0.4136509
0.5075849
0.5092851
0.4354104
0.5236971
0.4882862
0.4887941
0.5095688
0.5116672
0.5036196
0.5249869
0.4988609
0.4773823
0.4990386
0.5088103
0.4411256
0.508406
0.495984
0.476842
0.4917899
0.5039421
0.4495773
0.5093568
0.4937512
0.4745095
0.4940602
0.5054819
0.45719
0.5097993
0.4923724
0.4725422
0.4961331
0.5062433
0.4669337
0.5091628
0.4916586
0.4704219
0.4976063
0.507331
0.479169
0.5103853
0.4895645
0.4675096
0.4963479
0.5111974
0.4983552
0.5155133
0.4883935
0.465531
0.4929226
0.5130304
0.4986431
0.5134367
0.4880821
0.4638645
0.493312
0.5120664
0.4989814
0.5104777
0.4901896
0.4631712
0.4933758
0.5112684
0.4985309
0.509622
0.493285
0.4631409
0.4933841
0.5115358
0.4980321
0.5098022
0.4947526
0.4634458
0.4936258
0.512005
0.4975399
0.5097525
0.4954831
0.4635377
0.4939082
0.5121373
0.4977602
0.5087788
0.4964266
0.4635586
0.4939042
0.5116227
0.4979743
0.5075851
0.4973725
0.4631086
0.4937831
0.5113377
0.4981058
0.5066716
0.4978164
0.4626103
0.493816
0.5113526
0.4981575
0.5060277
0.4979557
0.4620286
0.4939304
0.5113033
0.4982572
0.5054122
0.4978845
0.4615122
0.4940384
0.5111941
0.4983962
0.5048683
0.4977208
0.4609925
0.494046
0.5112169
0.4984983
0.5044734
0.4973076
0.460419
0.4940438
0.5112608
0.498531
0.504182
0.4966804
0.4595906
0.4941199
0.5112316
0.4986548
0.5037181
0.4958
0.4587826
0.494196
0.511177
0.4988427
0.5031706
0.4946509
0.4852738
0.4942489
0.5111717
0.4989994
0.5026277
0.4860795
0.4928838
0.5017621
0.4910983
0.4914488
0.5416518
0.5027005
0.4434041
0.5109802
0.484276
0.4843035
0.5119146
0.4712537
0.4222007
0.5175983
0.4804105
0.4794448
0.5117374
0.4555094
0.4194231
0.5170632
0.4776897
0.4170773
0.5206265
0.4585396
0.4796995
0.5365792
0.4804504
0.4179579
0.5094366
0.4735699
0.4818146
0.5167053
0.4865486
0.421263
0.5174234
0.4820766
0.4846395
0.5107947
0.5009825
0.4418493
0.5117982
0.4932476
0.4910225
0.5405578
0.4850824
0.4921228
0.5024871
0.5120537
0.4353762
0.5238117
0.5080143
0.5231554
0.5099491
0.4900534
0.5113415
0.5189648
0.5122468
0.4878968
0.4703269
0.5333447
0.5023932
0.5083886
0.4634658
0.4572864
0.5097175
0.4929386
0.4875183
0.4531961
0.4437416
0.5002761
0.4777871
0.4809308
0.4391075
0.430701
0.4844438
0.4647434
0.4266851
0.4709812
0.5117438
0.5035212
0.5250541
0.4885201
0.4888137
0.5088302
0.4411287
0.5083489
0.4989074
0.4773809
0.50396
0.4495724
0.5093193
0.4959483
0.4768624
0.5062316
0.4669296
0.5091695
0.4923517
0.4725564
0.5073363
0.4791437
0.5103783
0.491662
0.4704488
0.5112077
0.4983584
0.515498
0.4895789
0.4675314
0.5130412
0.4986346
0.5134327
0.4884444
0.4655626
0.5120589
0.4989755
0.5104581
0.4881292
0.4638391
0.5112619
0.4985367
0.5096058
0.490197
0.4631649
0.5115278
0.498045
0.5097705
0.4933112
0.463117
0.5119882
0.4975646
0.5097221
0.494742
0.4634363
0.5116019
0.49798
0.507575
0.4964342
0.4635515
0.5113254
0.4981057
0.5066612
0.4973733
0.4631025
0.5113278
0.498157
0.5060182
0.4978169
0.4626058
0.5112827
0.4982554
0.5054088
0.4979539
0.4620216
0.511178
0.4983914
0.5048798
0.4978876
0.4615097
0.5112681
0.4984388
0.5045438
0.4977151
0.4609891
0.511303
0.4985148
0.5042125
0.4973226
0.4604175
0.5112607
0.4986455
0.5037464
0.4966914
0.459594
0.5111906
0.4988369
0.5032043
0.4958061
0.4588004
0.5111542
0.4989981
0.5026666
0.4946484
0.4852836
0.5257569
0.4451577
0.5354318
0.4430866
0.5258491
0.3926621
0.5547114
0.4534547
0.5435105
0.4254043
0.5551222
0.4649633
0.5420003
0.4401969
0.5515354
0.4808759
0.5390817
0.4547167
0.5485896
0.4937192
0.5356463
0.4624144
0.5493286
0.5008672
0.5359864
0.4662158
0.5474949
0.5012305
0.5342152
0.4724332
0.54616
0.5011057
0.5363624
0.4730256
0.5460315
0.4997071
0.5394286
0.4724322
0.5416817
0.499909
0.5466205
0.4722745
0.5399147
0.4989517
0.5476459
0.4720655
0.5392419
0.497735
0.5479388
0.4722201
0.5384545
0.4964744
0.547942
0.4723671
0.5372747
0.4950146
0.5476073
0.4729332
0.5364101
0.4934945
0.5467216
0.4734428
0.5355388
0.4920237
0.5457022
0.4733563
0.5347238
0.4904112
0.5447295
0.4740391
0.5340315
0.4889191
0.5437857
0.4745269
0.5334114
0.4875423
0.5428854
0.4749266
0.5328558
0.486399
0.5419854
0.4752816
0.5323764
0.4855244
0.5410287
0.4756431
0.5318399
0.4849833
0.5402432
0.4760832
0.5312254
0.4846174
0.5397146
0.4765403
0.5194136
0.5190406
0.5428201
0.5405264
0.5435283
0.5519126
0.5412963
0.5452115
0.5469269
0.5420597
0.5526121
0.5443108
0.5477956
0.5456387
0.5193537
0.5249099
0.525519
0.5226429
0.5054473
0.4571861
0.5097841
0.4936631
0.4745313
0.5121239
0.4977758
0.5087596
0.4954849
0.4635317
0.5191597
0.4029155
0.5373349
0.4307811
0.5243755
0.5212375
0.5492833
0.4241373
0.5426476
0.428314
0.5452115
0.4332847
0.5563723
0.4631512
0.5421319
0.4457024
0.5526327
0.475755
0.5375256
0.4570271
0.5489463
0.4882973
0.5364637
0.4630061
0.5491581
0.5007849
0.5363091
0.4690158
0.5482749
0.5037834
0.5339192
0.4723676
0.5467668
0.5043804
0.5365361
0.4721204
0.5420845
0.5017916
0.5432474
0.4719669
0.5358905
0.5000647
0.5475428
0.4707328
0.5346737
0.5000625
0.5477015
0.4706239
0.534432
0.4988927
0.547721
0.4706326
0.5339776
0.4976636
0.5476073
0.4707637
0.533038
0.4961167
0.5467871
0.4708885
0.5318411
0.4945479
0.5457744
0.4710085
0.5308621
0.4928776
0.5447566
0.4708565
0.53012
0.4911084
0.5437472
0.4710477
0.5295778
0.48966
0.5428571
0.471399
0.5291344
0.4882178
0.5420202
0.4717526
0.5286814
0.4869257
0.5412268
0.4720602
0.5282856
0.4857954
0.5405203
0.472576
0.5279673
0.4848902
0.5398285
0.4729685
0.5275359
0.4842542
0.5391788
0.5003467
0.483775
0.5269818
0.5188027
0.5322785
0.5495773
0.546271
0.5528571
0.5478205
0.5469992
0.5445338
0.550603
0.5519239
0.5479198
0.5531678
0.5403865
0.5356749
0.5209125
0.5157844
0.5265177
0.4594108
0.4808753
0.5093481
0.4878156
0.4559345
0.5191243
0.4040995
0.5375325
0.4358599
0.4813962
0.5218132
0.4790959
0.5061497
0.4739841
0.5050877
0.4856468
0.5092748
0.4785049
0.520063
0.4881111
0.5041182
0.4705573
0.4953535
0.4712006
0.5089742
0.4608329
0.5062809
0.4692125
0.4900129
0.4565461
0.4848161
0.461892
0.4954802
0.4517776
0.4964152
0.4614278
0.4789497
0.4464085
0.470731
0.4465353
0.4837395
0.437209
0.4817956
0.4459341
0.4639262
0.4323719
0.4580812
0.4346368
0.4692566
0.4246239
0.4692381
0.4336293
0.5351692
0.4431304
0.5257035
0.3926292
0.5492053
0.4241112
0.5426682
0.4285078
0.5547212
0.4534865
0.5435076
0.4254058
0.5451862
0.4333003
0.5563705
0.4631518
0.5551392
0.4649602
0.542009
0.4402224
0.5421333
0.4457291
0.5526001
0.4757624
0.5485815
0.4937341
0.5356249
0.4624176
0.5364633
0.4629982
0.5491426
0.5007839
0.5493212
0.500864
0.535965
0.4662197
0.5362995
0.4690262
0.5482748
0.5037885
0.547495
0.5012366
0.5342049
0.4724251
0.5339115
0.4723423
0.5467839
0.504386
0.5416051
0.4999576
0.5466932
0.4723201
0.5475474
0.4707169
0.5346645
0.5000771
0.5392088
0.4977991
0.5479656
0.4722764
0.5477244
0.4706392
0.5339573
0.4976863
0.5372568
0.4950292
0.5476017
0.4729425
0.5467848
0.4708876
0.5318394
0.4945478
0.5364138
0.4934893
0.5467277
0.4734395
0.5457765
0.4710009
0.5308594
0.4928708
0.5355423
0.4920099
0.5456998
0.4733576
0.5447598
0.4708608
0.5301286
0.4911128
0.5347226
0.4904154
0.5447387
0.4740375
0.5437438
0.4710475
0.5295678
0.4896583
0.5340389
0.4889141
0.5437792
0.4745395
0.5328653
0.4864302
0.542001
0.4753034
0.5412309
0.47207
0.528294
0.4858141
0.53238
0.4855349
0.541037
0.4756602
0.5405255
0.4725892
0.5279652
0.4849131
0.5318351
0.4849991
0.5402465
0.4761097
0.5398271
0.4730014
0.5275274
0.484287
0.5312116
0.4846418
0.5397107
0.4765724
0.5391651
0.4987222
0.4838064
0.5269683
0.432208
0.5227576
0.5108346
0.5188724
0.5165625
0.5231145
0.5097663
0.4900284
0.5115303
0.4781985
0.5172364
0.473837
0.5152411
0.5224684
0.5104023
0.5270872
0.5190807
0.4766197
0.5261029
0.5106579
0.5076721
0.4735214
0.4731176
0.5158584
0.5250278
0.5161645
0.4814012
0.5094683
0.4883259
0.4489686
0.5184458
0.5140932
0.4783525
0.5002667
0.4937013
0.4975589
0.472315
0.5131569
0.4960674
0.5068368
0.5110541
0.4719732
0.5057171
0.5145262
0.5211213
0.4747405
0.5037985
0.478936
0.4345286
0.5233424
0.4803041
0.471161
0.4888088
0.4690899
0.5013193
0.45459
0.5038702
0.4790612
0.4840724
0.4729177
0.4723094
0.4928792
0.4613006
0.4562692
0.465775
0.456325
0.4646914
0.4600509
0.4582525
0.4690504
0.4504757
0.4461397
0.4456026
0.4557165
0.4557285
0.451069
0.4490644
0.4600094
0.4380335
0.4335914
0.4427834
0.4336129
0.4411487
0.4368896
0.4349789
0.446292
0.4286669
0.4248094
0.4228409
0.4336908
0.5061431
0.4798668
0.433534
0.5023506
0.4987795
0.4411454
0.5045538
0.4816009
0.5051083
0.4856111
0.4417158
0.4992883
0.5007986
0.4502913
0.5055013
0.4881486
0.5045569
0.4900965
0.4536913
0.4972687
0.4993602
0.462375
0.5046363
0.4935892
0.5027099
0.4964634
0.4966412
0.4734681
0.4980409
0.4768939
0.5034372
0.4986986
0.5032195
0.4968682
0.477665
0.4971693
0.4979207
0.4824163
0.5007543
0.4972038
0.5462448
0.5011135
0.5363564
0.4729804
0.5399715
0.4989459
0.5476477
0.4720876
0.547737
0.4706852
0.5344134
0.4989009
0.4983481
0.4979154
0.4894491
0.4976304
0.497953
0.4894025
0.4975959
0.4971137
0.4982203
0.497943
0.4897078
0.4976685
0.4979053
0.4894524
0.4974953
0.4971312
0.4981624
0.4979146
0.4897928
0.4977304
0.4980865
0.4978563
0.4898593
0.4977715
0.5428554
0.4714639
0.5291745
0.488236
0.5334662
0.487606
0.5429203
0.4750045
0.542057
0.4717897
0.5287008
0.4870251
0.4979171
0.4977894
0.48996
0.4977786
0.4978129
0.4977736
0.490015
0.4977663
0.436838
0.5082129
0.4313778
0.5351401
0.4971684
0.4529737
0.5096013
0.5048164
0.5077741
0.4709167
0.4759451
0.510412
0.4814531
0.5166952
0.4699679
0.511377
0.498244
0.4707523
0.5091152
0.4693115
0.5022645
0.4727618
0.5280852
0.4847013
0.5071665
0.4813154
0.4678293
0.5097401
0.4809211
0.5391399
0.4549839
0.5515321
0.4570233
0.5489215
0.4883892
0.5374964
0.4964833
0.5479203
0.4724188
0.5384813
0.4690217
0.5115653
0.5107212
0.479301
0.5205216
0.4745354
0.5162344
0.4749455
0.5243401
0.5096835
0.4757029
0.5107036
0.4776254
0.5148047
0.4769399
0.5112443
0.48667
0.5126066
0.5075299
0.469162
0.4387873
0.5087035
0.536567
0.4319633
0.5001609
0.4790141
0.4923328
0.4982113
0.4790671
0.4646165
0.4678151
0.4769203
0.4739356
0.4627633
0.466839
0.4725116
0.4662015
0.4629408
0.4709614
0.4608611
0.4583965
0.4510188
0.4532126
0.4589334
0.4557646
0.4513678
0.4499531
0.4588131
0.4343685
0.4277647
0.4301522
0.4343508
0.430281
0.4276394
0.4343537
0.4258706
0.4218621
0.4181975
0.5016049
0.4352139
0.4829
0.5065689
0.5071091
0.4815366
0.5000712
0.4357493
0.4998353
0.4439448
0.4858108
0.5057637
0.5050454
0.4877323
0.4974592
0.4467337
0.4995118
0.4566947
0.4908772
0.5048672
0.5041363
0.4923184
0.4972092
0.4598153
0.4976669
0.4748594
0.4979978
0.5040586
0.5029823
0.4971651
0.4972089
0.4759892
0.501629
0.4973371
0.4977019
0.482014
0.4980956
0.4893581
0.4978278
0.4981944
0.4988575
0.498058
0.4973311
0.489649
0.4979476
0.4894588
0.4978346
0.4980933
0.4988115
0.4980661
0.4972725
0.4897308
0.4978232
0.4895166
0.4978195
0.4980466
0.4987758
0.4979677
0.4973324
0.4898031
0.4976858
0.4895606
0.4977571
0.4980092
0.4976348
0.4896321
0.4976978
0.49809
0.4986952
0.497833
0.4975303
0.4899446
0.497684
0.4896731
0.4976922
0.4982414
0.494275
0.4920318
0.494274
0.5113129
0.511268
0.4920622
0.5022866
0.5391503
0.5048464
0.5391434
0.5219237
0.4793345
0.4814745
0.5060513
0.5333707
0.5025691
0.5471498
0.5142875
0.4877797
0.4703266
0.5099794
0.4930862
0.5246489
0.5085566
0.463492
0.4573671
0.5004292
0.4778841
0.5188762
0.487538
0.4532822
0.4437636
0.4845527
0.4647849
0.5008775
0.4809465
0.4391563
0.4307314
0.4710268
0.4879609
0.4267233
0.5062905
0.4798732
0.5021902
0.4335063
0.5051087
0.4856211
0.4992926
0.4417198
0.5045625
0.4901015
0.4972755
0.4536897
0.5033889
0.4936756
0.4969436
0.4649302
0.502709
0.4964656
0.496644
0.4734717
0.5032186
0.4968683
0.4971684
0.4776664
0.5020033
0.4971698
0.4981049
0.4806445
0.5015973
0.4974972
0.4977882
0.4832048
0.5000561
0.4975926
0.4978742
0.4852153
0.4992003
0.4974568
0.4975898
0.4866606
0.4989659
0.4975614
0.4974989
0.48726
0.4987797
0.4976721
0.4975091
0.4878744
0.4985889
0.4977806
0.497582
0.4884476
0.4984429
0.4978545
0.4976211
0.4889349
0.4983466
0.497916
0.4976318
0.4894505
0.4982194
0.4979426
0.4976698
0.4897076
0.4981619
0.4979159
0.4977303
0.4897929
0.4980878
0.4978569
0.497774
0.4898586
0.4980244
0.4978173
0.4977833
0.4899096
0.4979167
0.4977909
0.4977787
0.4899595
0.4978133
0.4977746
0.4977629
0.4900137
0.4977269
0.4977374
0.4977232
0.4900628
0.4976422
0.4976998
0.4976777
0.4901046
0.4818353
0.4712971
0.4895117
0.4669983
0.5010024
0.4530048
0.5039482
0.4814737
0.4987824
0.4411805
0.5045445
0.4815768
0.5008079
0.4502918
0.5054934
0.4881578
0.4993555
0.462401
0.5046432
0.4935793
0.4983193
0.4717021
0.5041903
0.4970529
0.4980419
0.4768956
0.5034301
0.4986988
0.4982148
0.4798846
0.5020513
0.4978611
0.4979215
0.4824184
0.5007511
0.497206
0.498119
0.4843982
0.5000583
0.4971607
0.4974591
0.486282
0.4985277
0.4966547
0.4977968
0.4868687
0.4982658
0.496941
0.4979238
0.4874994
0.4980735
0.4970096
0.4979176
0.4881116
0.4979219
0.4969921
0.4978567
0.4885816
0.4977708
0.4969838
0.4979279
0.489085
0.4976723
0.4970524
0.4979505
0.4894028
0.497593
0.4971151
0.4979008
0.4894528
0.4974918
0.4971331
0.4977687
0.4894974
0.4974167
0.4970949
0.4976786
0.4895262
0.4974147
0.4970752
0.4976351
0.4895584
0.4974567
0.4970657
0.4976546
0.4895943
0.4975484
0.4970875
0.497704
0.4896337
0.4976644
0.4971209
0.4977316
0.4896809
0.4977149
0.4971509
0.4977676
0.4897343
0.4978067
0.4971852
0.4687147
0.4691625
0.4757805
0.4611401
0.4801713
0.4769176
0.4738765
0.4837117
0.424583
0.4216103
0.429726
0.4215291
0.5365508
0.4721417
0.5420749
0.5017975
0.5460568
0.4997642
0.5395342
0.4724258
0.5433294
0.4719588
0.5358754
0.5000952
0.4991717
0.4974301
0.4866739
0.4975681
0.4977938
0.4868707
0.4982629
0.496936
0.4975574
0.487259
0.4974902
0.4989526
0.4874964
0.498064
0.4969847
0.4979132
0.4987543
0.4976389
0.4878822
0.4975039
0.4979097
0.4881104
0.4979179
0.4969868
0.4984415
0.4978532
0.4976119
0.4889366
0.4979288
0.4890834
0.4976749
0.4970492
0.4977676
0.4894977
0.4974157
0.4970932
0.4895569
0.4974453
0.4970516
0.497625
0.4897411
0.4977706
0.4977991
0.4971976
0.5015687
0.4352384
0.5066035
0.4828419
0.4998421
0.4439507
0.5057573
0.4858139
0.4995134
0.4566922
0.5048627
0.4908829
0.4985191
0.4671822
0.5041327
0.4952955
0.4976686
0.4748612
0.5040533
0.497998
0.4979848
0.4784788
0.5031077
0.4983708
0.4977954
0.4811839
0.5017736
0.497478
0.4980166
0.4834244
0.5006058
0.4970719
0.4975858
0.4854313
0.4988063
0.4971395
0.4976013
0.486539
0.498657
0.496862
0.4973901
0.4871699
0.4985141
0.4969874
0.4975847
0.4878144
0.4984493
0.4972265
0.4978323
0.4883447
0.4983094
0.4974553
0.4981251
0.4888273
0.4982918
0.497774
0.4980934
0.4893583
0.4981916
0.4978308
0.4979454
0.4894589
0.498091
0.497836
0.4978203
0.489517
0.4980444
0.4978196
0.4976856
0.4895595
0.4980099
0.4977557
0.4976206
0.4895941
0.4980241
0.4977091
0.4976328
0.4896315
0.4980885
0.4976963
0.4976802
0.4896724
0.49824
0.4976977
0.4977128
0.4897135
0.4983554
0.4976945
0.4976921
0.4897611
0.4983991
0.4976924
0.4936363
0.4969394
0.5033748
0.4647846
0.4717011
0.5041932
0.4983153
0.497046