/*--------------------------------*- C++ -*----------------------------------*\
  =========                 |
  \\      /  F ield         | OpenFOAM: The Open Source CFD Toolbox
   \\    /   O peration     | Website:  https://openfoam.org
    \\  /    A nd           | Version:  7
     \\/     M anipulation  |
\*---------------------------------------------------------------------------*/
FoamFile
{
    version     2.0;
    format      ascii;
    class       volScalarField;
    location    "0.1";
    object      Ux;
}
// * * * * * * * * * * * * * * * * * * * * * * * * * * * * * * * * * * * * * //

dimensions      [0 1 -1 0 0 0 0];

internalField   nonuniform List<scalar> 
77997
(
-2.677608e-07
-5.587864e-07
-1.113928e-06
-1.904468e-06
-2.943357e-06
-4.489642e-06
-6.950457e-06
-1.068e-05
-1.659445e-05
-2.409033e-08
-3.139384e-07
-5.912159e-07
-1.010591e-06
-1.619926e-06
-2.569411e-06
-4.013621e-06
-6.250528e-06
-9.73461e-06
-2.779409e-08
-2.013745e-07
-3.479664e-07
-5.860629e-07
-9.305036e-07
-1.472026e-06
-2.309422e-06
-3.57561e-06
-5.591004e-06
2.90175e-08
3.51869e-08
3.308283e-08
6.432548e-08
1.251911e-07
1.942522e-07
3.612542e-07
6.999348e-07
1.24523e-06
1.781431e-08
1.751493e-07
3.354064e-07
5.588802e-07
9.084242e-07
1.461018e-06
2.334156e-06
3.721025e-06
5.913461e-06
3.458318e-08
1.983869e-07
3.579069e-07
6.837248e-07
1.11128e-06
1.900802e-06
3.025599e-06
4.908506e-06
7.86619e-06
1.246888e-05
-8.2848e-08
2.846518e-07
4.976258e-07
9.798164e-07
1.606698e-06
2.827181e-06
4.357705e-06
6.882684e-06
1.109897e-05
1.708158e-05
-0.02078397
-0.02290102
-0.02175625
-0.02261237
-0.02424956
-0.02613451
-0.02826974
-0.03065861
-0.03339243
-0.02133818
-0.01588002
-0.01774485
-0.0191557
-0.02294089
-0.02699615
-0.03186003
-0.03719845
-0.04330728
-0.01178509
-0.01610721
-0.02164493
-0.0278401
-0.03399969
-0.04108651
-0.04848203
-0.05673304
-0.06570493
-0.01796352
-0.02166195
-0.02948257
-0.03679846
-0.04521689
-0.05421943
-0.06399885
-0.07467076
-0.08634143
-0.01424739
-0.02413505
-0.03394163
-0.04437417
-0.05489013
-0.0662752
-0.07828403
-0.09132809
-0.1054511
-0.01692332
-0.02837844
-0.04007157
-0.05219728
-0.06469976
-0.07795849
-0.09201187
-0.1071249
-0.1234621
-0.0181678
-0.03156839
-0.04508289
-0.05915073
-0.07349359
-0.08863981
-0.1045775
-0.1216052
-0.1399078
-0.02027322
-0.03511939
-0.05019293
-0.06579899
-0.08178554
-0.09853893
-0.1161581
-0.1348623
-0.1548847
-0.02188504
-0.03813762
-0.0547234
-0.07178728
-0.08926426
-0.1074802
-0.1265817
-0.1467459
-0.1682299
-0.02360058
-0.04104023
-0.0589567
-0.07727291
-0.09606357
-0.1155471
-0.1359321
-0.1573405
-0.1800449
-0.025063
-0.04359527
-0.06272063
-0.08216259
-0.1021143
-0.1227062
-0.144192
-0.1666475
-0.1903515
-0.02647709
-0.04590446
-0.06609905
-0.08650886
-0.1074679
-0.1290063
-0.1514218
-0.1747429
-0.1992473
-0.0276754
-0.04791987
-0.06904834
-0.09030283
-0.112131
-0.1344752
-0.1576674
-0.181693
-0.2068246
-0.02877483
-0.04966864
-0.07161256
-0.09357628
-0.1161432
-0.1391605
-0.1629926
-0.1875811
-0.2131917
-0.02971687
-0.05113547
-0.07378672
-0.09634415
-0.1195361
-0.1431147
-0.1674707
-0.192504
-0.2184694
-0.03046066
-0.05237249
-0.07558394
-0.09863766
-0.1223442
-0.1463836
-0.171162
-0.196543
-0.2227635
-0.03114989
-0.0533031
-0.07702963
-0.1004612
-0.1246015
-0.1490238
-0.1741544
-0.1998111
-0.2262137
-2.658299e-07
-7.856945e-07
-1.234675e-06
-2.014248e-06
-3.171412e-06
-4.974115e-06
-7.777866e-06
-1.215449e-05
-4.874644e-08
-3.233849e-07
-6.088152e-07
-1.049998e-06
-1.675751e-06
-2.642463e-06
-4.127505e-06
-6.441776e-06
-1.005035e-05
-6.307636e-08
-1.973723e-07
-3.254932e-07
-5.545141e-07
-8.841391e-07
-1.383256e-06
-2.154278e-06
-3.350616e-06
-5.227101e-06
2.242264e-08
2.517012e-08
4.376031e-08
7.579017e-08
1.471115e-07
3.055397e-07
5.497532e-07
9.093691e-07
1.541413e-06
4.578284e-08
1.710845e-07
4.03174e-07
6.681622e-07
1.082078e-06
1.752279e-06
2.802357e-06
4.441546e-06
7.022591e-06
3.581642e-08
3.637274e-07
6.359158e-07
1.045624e-06
1.699197e-06
2.764203e-06
4.447902e-06
7.040927e-06
1.129773e-05
2.95916e-07
6.057141e-07
9.426108e-07
1.483808e-06
2.393205e-06
3.798042e-06
6.134084e-06
9.866427e-06
1.562986e-05
-0.02295961
-0.006438708
-0.002018882
-0.005516876
-0.006246277
-0.007849392
-0.009079344
-0.01052182
-0.01197422
-0.002972441
-0.01787609
-0.008917589
-0.01541591
-0.01721981
-0.02167703
-0.02563737
-0.03045521
-0.03548577
-0.04118602
-0.005639236
-0.007213278
-0.0147744
-0.01945894
-0.02688841
-0.03288858
-0.04012877
-0.04736201
-0.05547813
-0.06421868
-0.002793893
-0.01199613
-0.0210653
-0.0280515
-0.03596612
-0.04431638
-0.05332823
-0.06308668
-0.07370115
-0.08527593
-0.002185083
-0.01384525
-0.02386326
-0.03357795
-0.04429042
-0.05475339
-0.06622578
-0.07819443
-0.09122817
-0.1052965
-0.007231074
-0.01417399
-0.02858243
-0.03950451
-0.05203246
-0.06444048
-0.07778312
-0.09184769
-0.1069904
-0.1233383
-0.003054779
-0.01917845
-0.03175154
-0.04510725
-0.05923566
-0.07352178
-0.08873376
-0.1046785
-0.1217422
-0.1400639
-0.004705855
-0.01959592
-0.03547305
-0.05006227
-0.06584237
-0.08174632
-0.09856226
-0.1161935
-0.1349342
-0.1549873
-0.003939222
-0.0222509
-0.03848453
-0.05476479
-0.07190372
-0.08931467
-0.1075907
-0.1267032
-0.1469028
-0.1684115
-0.004401648
-0.02349542
-0.04144662
-0.05895265
-0.07738485
-0.09609563
-0.1156357
-0.1360301
-0.1574719
-0.1802029
-0.004432745
-0.02507903
-0.04403741
-0.06273843
-0.08229564
-0.1021621
-0.1228106
-0.1443058
-0.1667925
-0.1905214
-0.0046168
-0.02629139
-0.04639925
-0.06609184
-0.08664639
-0.1075093
-0.1291048
-0.1515279
-0.1748774
-0.1994049
-0.004818501
-0.02726741
-0.04846893
-0.06901761
-0.090448
-0.1121696
-0.1345734
-0.157771
-0.1818238
-0.2069756
-0.004944989
-0.02825434
-0.05026347
-0.07156371
-0.09372712
-0.1161767
-0.1392547
-0.1630894
-0.1877034
-0.2133328
-0.004975114
-0.02916448
-0.05175437
-0.07372165
-0.09649807
-0.1195654
-0.1432071
-0.1675641
-0.1926206
-0.2186036
-0.005700034
-0.02914814
-0.05308888
-0.07546756
-0.09879944
-0.1223674
-0.1464719
-0.1712477
-0.1966509
-0.2228875
0.006815201
-0.03059397
-0.05400385
-0.07696011
-0.1006263
-0.1246268
-0.1491146
-0.1742405
-0.1999165
-0.2263334
-2.572747e-07
-7.6742e-07
-1.225187e-06
-2.006973e-06
-3.18025e-06
-5.022453e-06
-7.868399e-06
-1.234778e-05
-4.487757e-08
-3.035042e-07
-5.806438e-07
-1.013599e-06
-1.623208e-06
-2.571842e-06
-4.039991e-06
-6.318112e-06
-9.897966e-06
-3.793069e-08
-1.78355e-07
-2.865718e-07
-4.998121e-07
-7.961873e-07
-1.255387e-06
-1.978413e-06
-3.086052e-06
-4.854271e-06
1.798171e-08
4.222525e-08
8.958804e-08
1.725766e-07
3.02412e-07
5.118787e-07
8.340527e-07
1.3594e-06
2.168414e-06
4.740494e-08
2.254769e-07
4.814543e-07
8.013806e-07
1.296711e-06
2.072557e-06
3.271232e-06
5.167971e-06
8.110442e-06
2.914278e-09
3.251393e-07
6.676353e-07
1.108141e-06
1.779847e-06
2.855546e-06
4.514117e-06
7.156559e-06
1.125298e-05
2.388047e-07
-0.02079216
-0.01845856
0.002913212
-0.00744577
-0.006376341
-0.009612848
-0.01108575
-0.01328673
-0.02537674
-0.003047782
-0.007536347
-0.01165319
-0.0148118
-0.02051053
-0.02451069
-0.02953939
-0.03453797
-0.006535508
-0.01777104
-0.01973879
-0.0205753
-0.02759374
-0.03213957
-0.03949612
-0.04636677
-0.05450075
-0.06316884
-0.004048714
-0.01103298
-0.01984371
-0.02734338
-0.03541593
-0.04395825
-0.0530013
-0.0627587
-0.07335432
-0.08490451
-0.004451532
-0.01538591
-0.024764
-0.03415546
-0.04450261
-0.05465266
-0.06602417
-0.0778747
-0.09089735
-0.1049498
-0.005005855
-0.01599264
-0.02773972
-0.03956613
-0.05178517
-0.06433892
-0.07763835
-0.09171433
-0.1068606
-0.1232128
-0.006022009
-0.01872994
-0.03174671
-0.04522332
-0.05918319
-0.07349652
-0.08864059
-0.1045789
-0.1216374
-0.1399616
-0.00653757
-0.02034153
-0.03504127
-0.05013584
-0.0656711
-0.08171352
-0.09848591
-0.1161405
-0.1348816
-0.1549395
-0.007149506
-0.02225859
-0.03831045
-0.05482387
-0.07178614
-0.08929568
-0.1075268
-0.1266591
-0.1468607
-0.1683753
-0.007634645
-0.02383697
-0.04120357
-0.0590015
-0.07724402
-0.09607016
-0.1155775
-0.1359983
-0.1574464
-0.1801817
-0.008119403
-0.02535476
-0.04385308
-0.06279308
-0.08217146
-0.1021409
-0.1227574
-0.1442769
-0.1667705
-0.1905048
-0.008558287
-0.02670245
-0.04620178
-0.06615311
-0.08651993
-0.107484
-0.129052
-0.1514989
-0.1748574
-0.1993912
-0.008940841
-0.02789574
-0.04826637
-0.06909942
-0.09032535
-0.1121439
-0.1345227
-0.1577419
-0.1818048
-0.2069639
-0.009278149
-0.02893143
-0.05005494
-0.07164744
-0.0936054
-0.1161474
-0.139203
-0.1630567
-0.1876829
-0.2133184
-0.009546517
-0.02978556
-0.05155899
-0.07379784
-0.09637674
-0.1195305
-0.1431543
-0.167529
-0.1926005
-0.218589
-0.009795525
-0.03055711
-0.05281805
-0.07558793
-0.09867762
-0.1223313
-0.1464169
-0.1712078
-0.1966263
-0.2228693
-0.009967035
-0.03105472
-0.05379093
-0.07699041
-0.1005025
-0.124576
-0.1490529
-0.1741976
-0.1998916
-0.2263166
-2.569459e-07
-7.386993e-07
-1.184883e-06
-1.962617e-06
-3.107601e-06
-4.923478e-06
-7.730591e-06
-1.215618e-05
-4.762919e-08
-2.82599e-07
-5.656895e-07
-9.780845e-07
-1.58596e-06
-2.51249e-06
-3.965606e-06
-6.22401e-06
-9.77898e-06
-3.855609e-08
-1.63333e-07
-2.539026e-07
-4.412888e-07
-7.074738e-07
-1.11689e-06
-1.772597e-06
-2.784027e-06
-4.410505e-06
3.347439e-08
6.390147e-08
1.309445e-07
2.580322e-07
4.279239e-07
7.199188e-07
1.139171e-06
1.80681e-06
2.845233e-06
4.185437e-08
2.42279e-07
5.322754e-07
8.956684e-07
1.431353e-06
2.277329e-06
3.570176e-06
5.602946e-06
8.760996e-06
3.027204e-08
3.959684e-07
7.135963e-07
1.193102e-06
1.881966e-06
3.029884e-06
4.764121e-06
7.498772e-06
1.180024e-05
1.768831e-07
-0.01538713
-0.01291935
0.007102074
-0.005540814
-0.005229543
-0.008262818
-0.009867619
-0.01185587
-0.03312524
-0.00104339
-0.01110242
-0.01044595
-0.01412287
-0.01994973
-0.02355552
-0.02874146
-0.03358902
-0.004339491
-0.01223945
-0.01822462
-0.0180804
-0.02629052
-0.03101049
-0.03860242
-0.04549395
-0.05357835
-0.002265799
-0.009828508
-0.01955664
-0.02653855
-0.03463036
-0.04308981
-0.05209584
-0.06186175
-0.07241853
-0.08394057
-0.003379743
-0.01383299
-0.02397183
-0.03332805
-0.04402891
-0.05409282
-0.06555223
-0.07737356
-0.09040049
-0.104417
-0.004338378
-0.01528767
-0.02737973
-0.03903359
-0.05153158
-0.06398939
-0.07733847
-0.09138656
-0.1065424
-0.1228799
-0.005311043
-0.01789843
-0.03141458
-0.04481639
-0.05900402
-0.07326927
-0.08847759
-0.1043934
-0.1214641
-0.139775
-0.006018221
-0.01979757
-0.03485151
-0.04985165
-0.06556676
-0.08155823
-0.09838831
-0.1160279
-0.1347803
-0.1548313
-0.006663136
-0.02171262
-0.03817498
-0.05461609
-0.07173323
-0.0891941
-0.1074755
-0.1265925
-0.146803
-0.1683093
-0.007222447
-0.02337871
-0.04112193
-0.05884288
-0.07722484
-0.09599855
-0.1155537
-0.1359598
-0.1574144
-0.1801437
-0.007700654
-0.02488175
-0.04379637
-0.0626652
-0.0821771
-0.1020921
-0.1227548
-0.1442578
-0.1667568
-0.1904831
-0.008130993
-0.0262216
-0.046165
-0.06604209
-0.08654352
-0.107449
-0.1290631
-0.1514912
-0.1748552
-0.1993812
-0.008475484
-0.02736655
-0.04823386
-0.06898971
-0.09036283
-0.112122
-0.1345487
-0.1577492
-0.1818156
-0.2069652
-0.008800617
-0.02839491
-0.05003842
-0.07155236
-0.09366132
-0.1161343
-0.1392394
-0.1630699
-0.1877
-0.213325
-0.009062602
-0.02923935
-0.05153559
-0.07368844
-0.09643929
-0.1195309
-0.1432145
-0.1675662
-0.1926381
-0.2186132
-0.009244846
-0.02993146
-0.05280988
-0.07550047
-0.09876765
-0.1223385
-0.1464832
-0.1712385
-0.1966611
-0.2228905
-0.00946803
-0.03051555
-0.05374909
-0.07686631
-0.1005784
-0.1246022
-0.1491712
-0.1742787
-0.1999655
-0.2263711
-2.378612e-07
-6.992815e-07
-1.148558e-06
-1.898547e-06
-3.035398e-06
-4.836088e-06
-7.617682e-06
-1.205574e-05
-3.651562e-08
-2.666047e-07
-5.239659e-07
-9.390381e-07
-1.519362e-06
-2.431973e-06
-3.865964e-06
-6.08307e-06
-9.632467e-06
-1.720666e-08
-1.404202e-07
-2.064423e-07
-3.830184e-07
-6.231086e-07
-1.002992e-06
-1.624448e-06
-2.583045e-06
-4.151661e-06
4.405185e-08
6.380957e-08
1.689539e-07
3.202535e-07
5.214359e-07
8.474156e-07
1.311515e-06
2.055453e-06
3.163683e-06
3.210204e-08
2.819168e-07
6.026419e-07
9.651327e-07
1.543021e-06
2.425338e-06
3.76771e-06
5.88311e-06
9.12127e-06
3.015042e-08
4.97759e-07
7.447619e-07
1.263351e-06
1.955148e-06
3.120682e-06
4.874048e-06
7.664979e-06
1.19512e-05
1.954145e-07
-0.01454775
-0.016519
0.007666665
-0.006146428
-0.004748695
-0.008645166
-0.009931506
-0.01215085
-0.03262455
0.002552349
-0.01009532
-0.009278772
-0.01318313
-0.01916551
-0.02322627
-0.02840029
-0.03331283
-0.005362941
-0.01409481
-0.01967455
-0.01907051
-0.02662839
-0.0307737
-0.03839681
-0.04509646
-0.05322464
-0.001868996
-0.008972252
-0.01928417
-0.02632043
-0.03416821
-0.0426579
-0.05182206
-0.0616301
-0.07221456
-0.003661932
-0.01431701
-0.02427809
-0.033486
-0.04400294
-0.05381352
-0.06530492
-0.07708933
-0.09013066
-0.1041394
-0.004586347
-0.01530347
-0.02719699
-0.03889695
-0.05131276
-0.0637866
-0.07715932
-0.09124251
-0.1064128
-0.1227456
-0.005531161
-0.01806629
-0.03141752
-0.04482731
-0.05891215
-0.07319235
-0.0883763
-0.1042965
-0.1213695
-0.1396791
-0.006278671
-0.0198949
-0.03473005
-0.04982128
-0.06545531
-0.08150577
-0.09832656
-0.1159816
-0.1347384
-0.154785
-0.006926519
-0.02186791
-0.03810618
-0.05461902
-0.07166713
-0.08917211
-0.1074354
-0.1265594
-0.1467686
-0.1682759
-0.007408084
-0.02344101
-0.0410002
-0.05880669
-0.07714633
-0.09597671
-0.115519
-0.1359374
-0.1573924
-0.1801246
-0.007939401
-0.02501219
-0.04369457
-0.06264736
-0.08211254
-0.1020806
-0.1227261
-0.144239
-0.1667379
-0.1904683
-0.008397497
-0.02637001
-0.04605364
-0.06602321
-0.08647768
-0.1074383
-0.1290343
-0.1514719
-0.1748363
-0.1993665
-0.008774467
-0.02756776
-0.04814173
-0.06897747
-0.09030173
-0.1121126
-0.1345201
-0.157728
-0.1817968
-0.2069506
-0.009103637
-0.02858528
-0.04993705
-0.07154659
-0.09360067
-0.1161258
-0.1392081
-0.1630399
-0.1876735
-0.2133028
-0.009346358
-0.02942849
-0.05145306
-0.0736828
-0.09637723
-0.1195153
-0.1431739
-0.1675282
-0.1926054
-0.2185877
-0.009625629
-0.03020105
-0.05273512
-0.07552216
-0.09870599
-0.1223258
-0.146439
-0.1711867
-0.1966165
-0.2228533
-0.009812748
-0.03075173
-0.05369347
-0.07689958
-0.100517
-0.1245679
-0.1490905
-0.1742022
-0.1999065
-0.2263248
-2.210146e-07
-6.713166e-07
-1.077742e-06
-1.83507e-06
-2.93366e-06
-4.703292e-06
-7.439812e-06
-1.179193e-05
-3.225449e-08
-2.318722e-07
-4.96039e-07
-8.686556e-07
-1.450831e-06
-2.328745e-06
-3.728455e-06
-5.902604e-06
-9.376632e-06
-1.772187e-08
-1.150886e-07
-1.742563e-07
-3.269208e-07
-5.543502e-07
-9.068646e-07
-1.495339e-06
-2.401207e-06
-3.902986e-06
2.343287e-08
1.108249e-07
2.066958e-07
3.758678e-07
5.885953e-07
9.403623e-07
1.425868e-06
2.200242e-06
3.327474e-06
5.699133e-08
3.086739e-07
6.230858e-07
1.029536e-06
1.605798e-06
2.521967e-06
3.886124e-06
6.050832e-06
9.367679e-06
1.924718e-08
4.871619e-07
7.854838e-07
1.314059e-06
2.020452e-06
3.227126e-06
4.983783e-06
7.78732e-06
1.206597e-05
3.259881e-07
-0.01412441
-0.01616996
0.00772101
-0.005991963
-0.004846949
-0.0086866
-0.01019224
-0.01235023
-0.03263299
0.002514753
-0.01034037
-0.009348715
-0.01322476
-0.01914342
-0.02311924
-0.02832317
-0.03323599
-0.00541008
-0.01407753
-0.01964474
-0.01905364
-0.02659583
-0.03080039
-0.03840391
-0.04514578
-0.05325679
-0.001852224
-0.008945863
-0.01928803
-0.02631179
-0.03415729
-0.04263683
-0.05178582
-0.06161248
-0.07219723
-0.003784002
-0.01442554
-0.02429208
-0.03350193
-0.04399521
-0.05380967
-0.06529297
-0.07708121
-0.09012124
-0.004412774
-0.01513419
-0.02714935
-0.03883506
-0.05129419
-0.06376731
-0.07714858
-0.09124123
-0.10641
-0.005434979
-0.01797586
-0.03138673
-0.0447903
-0.05890003
-0.07317785
-0.08836715
-0.1042889
-0.1213643
-0.1396754
-0.006262655
-0.01988207
-0.03472055
-0.04980144
-0.06544736
-0.08149744
-0.09832394
-0.115982
-0.13474
-0.1547864
-0.006831147
-0.02177111
-0.03807406
-0.05457958
-0.0716543
-0.08916029
-0.1074333
-0.1265597
-0.1467711
-0.1682793
-0.00742151
-0.0234533
-0.04098257
-0.05879181
-0.07713888
-0.09597265
-0.1155229
-0.1359422
-0.1573992
-0.1801313
-0.00787862
-0.02493227
-0.0436454
-0.06260782
-0.08209744
-0.1020757
-0.122735
-0.1442502
-0.1667508
-0.19048
-0.008387635
-0.026347
-0.04602417
-0.0660031
-0.08647448
-0.1074406
-0.1290504
-0.1514874
-0.1748533
-0.1993814
-0.008655815
-0.02741411
-0.04805949
-0.06892358
-0.09028913
-0.1121191
-0.134556
-0.1577643
-0.1818333
-0.2069821
-0.009122956
-0.02862868
-0.04992806
-0.07153927
-0.09362499
-0.1161472
-0.1392551
-0.1630772
-0.1877119
-0.2133358
-0.009284392
-0.02935948
-0.05135065
-0.07359373
-0.09637781
-0.1195528
-0.1432873
-0.1676359
-0.1927006
-0.2186704
-0.009622353
-0.03027449
-0.05271052
-0.07552009
-0.09879655
-0.1223724
-0.146547
-0.1712493
-0.1966853
-0.2229118
-0.009548591
-0.03048141
-0.05341493
-0.07659228
-0.1005048
-0.124662
-0.1493974
-0.1744788
-0.2001209
-0.2265142
-2.067413e-07
-6.178407e-07
-1.04525e-06
-1.743041e-06
-2.842032e-06
-4.583913e-06
-7.266208e-06
-1.164302e-05
-1.928508e-08
-2.433242e-07
-4.532928e-07
-8.237789e-07
-1.380327e-06
-2.229376e-06
-3.624615e-06
-5.748247e-06
-9.201514e-06
-1.964003e-08
-8.483843e-08
-1.325276e-07
-2.810597e-07
-4.909129e-07
-8.376045e-07
-1.419985e-06
-2.316016e-06
-3.852873e-06
9.18919e-08
1.159872e-07
2.421475e-07
4.270642e-07
6.423658e-07
1.012084e-06
1.528669e-06
2.344847e-06
3.571779e-06
3.478864e-08
3.388388e-07
6.965319e-07
1.07069e-06
1.677948e-06
2.593478e-06
3.96453e-06
6.138486e-06
9.358488e-06
6.64999e-08
5.699633e-07
8.237962e-07
1.387661e-06
2.11694e-06
3.339291e-06
5.195494e-06
8.138155e-06
1.26864e-05
3.328806e-07
-0.01399125
-0.01325849
0.007400502
-0.005571079
-0.005121672
-0.008413328
-0.009737328
-0.0116739
-0.0327734
-0.0005006958
-0.01056264
-0.01004422
-0.01391919
-0.01975843
-0.02363396
-0.02914686
-0.03393567
-0.004145249
-0.01208365
-0.01818591
-0.01799756
-0.02626134
-0.03096438
-0.03857306
-0.04544027
-0.05352461
-0.001964198
-0.009480923
-0.01933661
-0.02631353
-0.0345405
-0.04303646
-0.0521408
-0.06197572
-0.07250292
-0.003033458
-0.01327081
-0.023825
-0.03330651
-0.04399189
-0.05408723
-0.06553531
-0.07736088
-0.09038358
-0.004801185
-0.01573546
-0.02733504
-0.03903257
-0.05150676
-0.06398256
-0.07734814
-0.09141177
-0.1065621
-0.00527299
-0.01800837
-0.03153603
-0.04482385
-0.05902113
-0.07327522
-0.08847859
-0.1043935
-0.1214643
-0.006355378
-0.02005602
-0.03489871
-0.04995069
-0.0655781
-0.08158037
-0.09839735
-0.1160395
-0.1347906
-0.1548403
-0.007130631
-0.02216905
-0.03823977
-0.05470218
-0.07174485
-0.08920963
-0.1074787
-0.1265968
-0.1468065
-0.1683169
-0.006732433
-0.02290798
-0.04108495
-0.05875691
-0.07720343
-0.09598568
-0.1155467
-0.1359603
-0.157417
-0.1801521
-0.007662875
-0.0248152
-0.04375499
-0.0626373
-0.08215201
-0.1020855
-0.1227468
-0.144258
-0.1667588
-0.1904929
-0.00831022
-0.02623607
-0.04607094
-0.06606131
-0.08651344
-0.1074487
-0.1290512
-0.1514861
-0.1748522
-0.199385
-0.00861623
-0.027535
-0.04825138
-0.06897607
-0.09034485
-0.1121228
-0.1345456
-0.1577541
-0.1818204
-0.2069782
-0.008871045
-0.02829498
-0.04999584
-0.07162589
-0.09366469
-0.1161537
-0.139231
-0.1630476
-0.1876812
-0.2133165
-0.008791026
-0.02900679
-0.0515948
-0.07366088
-0.09644173
-0.1195454
-0.1432158
-0.1675685
-0.1926385
-0.2186327
-0.009490132
-0.02996522
-0.05286128
-0.07572905
-0.09882406
-0.1223908
-0.1464681
-0.1711503
-0.1965913
-0.2228461
-0.00979964
-0.03063607
-0.05375505
-0.07699852
-0.1005625
-0.1246046
-0.1491526
-0.1742465
-0.1999383
-0.2263987
-1.845211e-07
-5.881861e-07
-9.605229e-07
-1.671216e-06
-2.668841e-06
-4.401519e-06
-7.041473e-06
-1.128723e-05
-1.292947e-08
-1.840193e-07
-4.211492e-07
-7.506442e-07
-1.293537e-06
-2.095474e-06
-3.442212e-06
-5.492451e-06
-8.842307e-06
-1.514947e-08
-8.545409e-08
-1.14801e-07
-2.482418e-07
-4.62049e-07
-8.104984e-07
-1.382302e-06
-2.294271e-06
-3.816208e-06
7.718587e-08
1.245364e-07
2.732731e-07
4.236017e-07
6.374721e-07
9.712143e-07
1.416097e-06
2.147615e-06
3.109335e-06
7.426536e-08
3.288725e-07
6.675222e-07
1.06639e-06
1.646052e-06
2.551433e-06
3.902491e-06
6.010104e-06
9.255023e-06
4.449371e-08
5.804624e-07
8.353284e-07
1.397664e-06
2.152959e-06
3.370444e-06
5.127747e-06
7.979864e-06
1.215755e-05
3.936326e-07
-0.01794954
-0.01679797
0.003407056
-0.00705303
-0.006734517
-0.01025039
-0.01232203
-0.01437849
-0.02485829
-0.002821433
-0.007569053
-0.01156134
-0.01477768
-0.02045249
-0.02444671
-0.02957804
-0.0345445
-0.006643103
-0.01776466
-0.01960152
-0.02059539
-0.02750877
-0.03218418
-0.03947917
-0.04640194
-0.05453162
-0.003506506
-0.01042754
-0.01953393
-0.02706125
-0.03532478
-0.04390427
-0.05304505
-0.06291342
-0.07346012
-0.004732103
-0.01628391
-0.02473586
-0.03434082
-0.0444547
-0.05465192
-0.06595893
-0.07782695
-0.09085427
-0.004304149
-0.01492407
-0.02755058
-0.03928481
-0.05173241
-0.06429435
-0.077667
-0.09177851
-0.10692
-0.005645022
-0.01822031
-0.03171423
-0.04512668
-0.05917372
-0.07346713
-0.08862149
-0.1045635
-0.1216338
-0.007113367
-0.02074291
-0.03511621
-0.05017904
-0.06567218
-0.08171649
-0.09849926
-0.1161659
-0.1349103
-0.007157765
-0.02199505
-0.03830968
-0.05472661
-0.07176333
-0.08926952
-0.1075194
-0.1266618
-0.1468702
-0.168392
-0.007428623
-0.02391614
-0.04112662
-0.05893837
-0.07720619
-0.09605262
-0.1155763
-0.1360107
-0.1574632
-0.1802047
-0.007626495
-0.02489234
-0.04364752
-0.06264082
-0.08209884
-0.102114
-0.1227604
-0.1442987
-0.166796
-0.190537
-0.008723787
-0.02667866
-0.04607953
-0.06612476
-0.08647755
-0.1074872
-0.1290684
-0.151523
-0.1748847
-0.1994224
-0.007983961
-0.0267785
-0.04795539
-0.06889549
-0.09024933
-0.1121536
-0.1345881
-0.1578228
-0.1818819
-0.2070392
-0.009871775
-0.02936473
-0.0500755
-0.07171813
-0.09367576
-0.1162116
-0.1392943
-0.1631068
-0.1877368
-0.2133699
-0.009139924
-0.02948998
-0.05129692
-0.07352137
-0.09633891
-0.1196395
-0.1434482
-0.16781
-0.1928174
-0.2187908
-0.01022702
-0.03122067
-0.05293758
-0.07582286
-0.09904079
-0.1225084
-0.1466419
-0.1712174
-0.1966844
-0.2229383
-0.008514427
-0.02951822
-0.0528994
-0.07586227
-0.1003264
-0.1249482
-0.1500327
-0.1750766
-0.2004666
-0.2268604
-1.752781e-07
-3.641187e-07
-8.149135e-07
-1.375284e-06
-2.302515e-06
-3.716038e-06
-6.164324e-06
-9.723466e-06
-1.548031e-05
-2.4131e-08
-2.321373e-07
-4.136702e-07
-7.383932e-07
-1.259461e-06
-2.089279e-06
-3.37217e-06
-5.473084e-06
-8.825913e-06
1.010114e-07
-4.195519e-08
-1.055968e-07
-2.329484e-07
-4.594824e-07
-8.288165e-07
-1.449344e-06
-2.409101e-06
-4.101418e-06
1.566064e-07
1.694637e-07
2.61172e-07
4.093848e-07
5.839281e-07
8.698854e-07
1.308195e-06
1.971463e-06
3.00143e-06
1.606918e-07
3.447445e-07
6.513711e-07
1.026033e-06
1.603389e-06
2.444644e-06
3.632887e-06
5.585852e-06
8.176463e-06
1.523604e-07
5.268345e-07
8.504529e-07
1.433219e-06
2.124724e-06
3.299718e-06
5.288619e-06
8.381737e-06
1.324708e-05
3.437049e-07
6.679885e-07
1.345591e-06
2.115984e-06
3.814913e-06
6.440913e-06
9.849063e-06
1.636052e-05
2.907836e-05
-0.01893983
-0.007428066
-0.002864855
-0.008155504
-0.01197558
-0.01738631
-0.01313585
-0.008276096
-0.01590938
-0.02077251
-0.0158997
-0.008171382
-0.01473104
-0.01685619
-0.02207974
-0.02633024
-0.03138837
-0.03612414
-0.0204819
-0.006919299
-0.01440387
-0.01937568
-0.0267344
-0.03293894
-0.04013836
-0.04741757
-0.05556569
-0.007072618
-0.008783024
-0.02070046
-0.02732131
-0.03584434
-0.04423918
-0.053502
-0.06340796
-0.07391694
-0.002809057
-0.01804248
-0.02279593
-0.03407987
-0.04417219
-0.05481373
-0.066202
-0.07820673
-0.09122817
-0.001303363
-0.01493611
-0.02793839
-0.03933541
-0.05193856
-0.06440414
-0.07783383
-0.09194159
-0.1070729
-0.003846274
-0.01388288
-0.03290369
-0.04464083
-0.05931566
-0.07349296
-0.08873831
-0.1046848
-0.1217564
-0.00481768
-0.02377743
-0.03537356
-0.05059158
-0.06584715
-0.08181634
-0.09858687
-0.1162323
-0.1349694
-0.001356003
-0.02563807
-0.03821716
-0.05503322
-0.07187629
-0.08933228
-0.1075888
-0.126713
-0.1469177
-0.005400159
-0.01828591
-0.04199571
-0.05842468
-0.07736609
-0.09604296
-0.1156274
-0.1360374
-0.1574867
-0.1802257
-0.003744128
-0.02373322
-0.04385451
-0.06251437
-0.08220727
-0.1021282
-0.1227976
-0.1443175
-0.16681
-0.1905506
-0.0009331083
-0.02892685
-0.04549455
-0.06634871
-0.0865157
-0.1075302
-0.129092
-0.151536
-0.1748871
-0.1994265
-0.003667014
-0.02577027
-0.04863186
-0.06876204
-0.09039957
-0.1121648
-0.1345991
-0.1578198
-0.1818672
-0.2070326
-0.005997209
-0.03030479
-0.04972816
-0.07197311
-0.09372086
-0.116262
-0.1392802
-0.1630778
-0.1876986
-0.2133439
-0.006302228
-0.02525534
-0.05261973
-0.07324618
-0.09653788
-0.1196147
-0.1433403
-0.167697
-0.1927152
-0.2187301
-0.004957016
-0.03439942
-0.05241885
-0.0765816
-0.09900444
-0.1225797
-0.1465054
-0.1710301
-0.1965127
-0.2228236
0.003342111
-0.03172487
-0.05310668
-0.07710317
-0.1004626
-0.1247551
-0.1493635
-0.1744584
-0.1999898
-0.2265973
-1.785391e-07
-3.905266e-07
-7.308072e-07
-1.303198e-06
-2.324607e-06
-4.168598e-06
-5.397936e-06
-9.599186e-06
-1.647731e-05
3.170564e-08
-1.971287e-07
-3.767539e-07
-6.86202e-07
-1.187754e-06
-1.954023e-06
-3.24419e-06
-5.20002e-06
-8.393986e-06
8.708642e-08
-6.280844e-08
-8.76557e-08
-2.420199e-07
-4.674328e-07
-8.481996e-07
-1.491136e-06
-2.487682e-06
-4.194163e-06
1.907506e-07
1.510972e-07
2.896204e-07
3.967719e-07
5.720653e-07
8.299603e-07
1.23664e-06
1.849208e-06
2.753966e-06
9.409005e-08
3.210815e-07
5.971628e-07
9.27446e-07
1.406838e-06
2.137747e-06
3.214759e-06
4.928163e-06
7.40684e-06
6.561517e-08
4.25659e-07
8.956871e-07
1.368992e-06
2.030377e-06
2.974489e-06
4.63476e-06
7.131426e-06
1.117447e-05
1.693204e-05
3.353386e-07
6.464751e-07
1.25051e-06
1.866532e-06
2.856356e-06
4.551267e-06
7.174946e-06
1.148867e-05
1.815337e-05
-0.007547094
-0.003273455
0.00380391
0.005065027
-0.05187473
0.004789303
-0.01307652
0.008836176
-0.01179506
-0.01179074
-0.01525646
-0.01262734
-0.0163876
-0.01841735
-0.02288454
-0.0272006
-0.03496334
-0.04053285
-0.01106445
-0.01462973
-0.01718417
-0.02237486
-0.02800957
-0.03395985
-0.04046148
-0.04752927
-0.05600547
-0.01344818
-0.01439711
-0.02057026
-0.02858932
-0.03658484
-0.04510741
-0.05446126
-0.06470277
-0.07524034
-0.01565099
-0.01835087
-0.02409753
-0.03470913
-0.04437349
-0.05495731
-0.06616023
-0.0781959
-0.09126745
-0.02328607
-0.01421193
-0.02835316
-0.03949537
-0.05213421
-0.06461028
-0.07801344
-0.09214688
-0.1072451
-0.03653427
-0.01796642
-0.03176073
-0.04503419
-0.05917818
-0.07348945
-0.08863582
-0.1045794
-0.1216165
-0.01511114
-0.0229581
-0.03515491
-0.05051068
-0.06580254
-0.0818198
-0.098557
-0.1161969
-0.1348998
0.001415367
-0.01980191
-0.03808063
-0.05444778
-0.07175392
-0.08922878
-0.107477
-0.1265895
-0.1467647
-0.01515293
-0.02282174
-0.04109084
-0.05878602
-0.07721472
-0.09603464
-0.1155373
-0.1359413
-0.1573581
-0.01578471
-0.02430877
-0.04322496
-0.06249978
-0.08204755
-0.1020814
-0.1227032
-0.1442155
-0.1666775
-0.1903908
-0.0189105
-0.02679566
-0.04519511
-0.06614559
-0.08637137
-0.1074735
-0.1289995
-0.1514331
-0.1747605
-0.1992764
-0.01608448
-0.02830231
-0.04733248
-0.06900984
-0.09017914
-0.1121807
-0.1345561
-0.1577745
-0.1817824
-0.206918
-0.0173326
-0.02873476
-0.04927328
-0.0717478
-0.09361725
-0.1162233
-0.1392162
-0.1629804
-0.1875894
-0.2132178
-0.01376735
-0.02920907
-0.05093657
-0.07337641
-0.09625893
-0.1197649
-0.1435619
-0.1678933
-0.1927772
-0.218742
-0.02006447
-0.03198549
-0.05257243
-0.07628031
-0.09930295
-0.1226715
-0.146496
-0.1708207
-0.1963792
-0.222733
-0.01835267
-0.0312881
-0.05227991
-0.07500148
-0.09968657
-0.1256048
-0.15096
-0.1758974
-0.2006239
-0.2271396
-2.101744e-07
-2.524918e-08
-1.866838e-07
-1.198476e-07
1.518478e-08
-1.9458e-07
-1.534027e-07
-1.734922e-08
-1.295631e-07
-4.555652e-08
-1.581851e-07
4.770102e-09
-1.5615e-07
-9.51358e-08
-2.600887e-08
-1.067563e-07
-6.711398e-09
-1.112538e-07
-1.060237e-08
-1.173416e-07
3.749388e-08
3.816641e-09
3.008543e-08
-2.232374e-09
3.932325e-08
1.168874e-08
3.966673e-09
9.196077e-08
-4.683553e-09
8.117845e-08
1.495341e-08
9.699895e-08
1.046324e-08
7.378979e-08
1.488074e-07
2.695923e-08
1.963662e-07
-5.912555e-09
1.415816e-07
-3.316359e-08
1.707465e-07
2.205389e-07
0.007401478
5.460444e-08
1.851863e-07
-0.008894288
4.37864e-07
-0.01317754
0.004705919
1.756474e-07
3.127739e-07
0.00431205
0.004312861
1.030973e-06
-0.01519801
0.006445861
4.754963e-07
8.301636e-07
-0.007370688
0.003843347
1.373765e-06
-0.01446895
0.006026186
7.970487e-07
1.251782e-06
-0.005330621
0.001804772
2.436268e-06
-0.01521356
0.004988496
1.333203e-06
2.028318e-06
-0.006914801
0.0007741624
3.945364e-06
-0.01635113
0.003889243
2.19179e-06
3.221536e-06
-0.007488367
-0.0003335666
5.820373e-06
-0.01764388
0.002736914
3.521571e-06
5.168434e-06
-0.00824728
-0.001415221
9.468189e-06
-0.01911562
0.001498585
5.800833e-06
8.206656e-06
-0.008890651
-0.002650076
1.607413e-05
-0.0207301
0.0001539686
9.321196e-06
1.336575e-05
-0.009740168
-0.00403167
-0.0225901
1.465435e-05
-0.01081239
0.0105583
-0.02311944
-0.001901006
-0.005965981
-0.02105117
-0.04237784
0.03558871
-0.01218095
-0.05901111
0.002048167
0.03107254
-0.04103245
0.03367051
-0.01049347
-0.04773193
0.005667352
0.03825071
-0.04585181
0.02800745
-0.01410956
-0.05477031
0.004553246
0.03342779
-0.04049811
0.02790696
-0.01302216
-0.04996947
0.00486678
0.03515621
-0.04124497
0.02578724
-0.01284258
-0.0520812
0.005254712
0.03297569
-0.04125777
0.0249897
-0.01341826
-0.05137681
0.004802332
0.03286776
-0.04159535
0.02363883
-0.01323372
-0.05262887
0.004922415
0.03138353
-0.04183325
0.02272674
-0.01361136
-0.05289337
0.004794093
0.03068743
-0.04199962
0.02167252
-0.01374526
-0.05343467
0.004773166
0.02958903
-0.04200688
0.02074031
-0.01392395
-0.05373339
0.004823782
0.02868303
-0.04196402
0.01978667
-0.01407825
-0.05401479
0.004924127
0.02771455
-0.04174624
0.01887377
-0.01418459
-0.05416748
0.005095338
0.02679893
-0.04147723
0.01797158
-0.01426412
-0.05421627
0.005330581
0.02588309
-0.04108382
0.01709005
-0.01430012
-0.05415779
0.005459621
0.02503972
-0.04046716
0.01615554
-0.01410492
-0.05398851
0.005790802
0.02413078
-0.03997335
0.01526853
-0.01415146
-0.05364641
0.005937696
0.02330035
-1.962547e-07
-4.245685e-09
-1.705393e-07
-1.807271e-07