/*--------------------------------*- C++ -*----------------------------------*\
  =========                 |
  \\      /  F ield         | OpenFOAM: The Open Source CFD Toolbox
   \\    /   O peration     | Website:  https://openfoam.org
    \\  /    A nd           | Version:  7
     \\/     M anipulation  |
\*---------------------------------------------------------------------------*/
FoamFile
{
    version     2.0;
    format      ascii;
    class       volScalarField;
    location    "0.1";
    object      Uy;
}
// * * * * * * * * * * * * * * * * * * * * * * * * * * * * * * * * * * * * * //

dimensions      [0 1 -1 0 0 0 0];

internalField   nonuniform List<scalar> 
77997
(
6.907341e-08
1.370772e-07
1.097343e-07
1.730918e-07
2.847833e-07
4.488207e-07
7.385778e-07
1.142445e-06
1.620849e-06
3.22749e-07
4.406186e-07
6.072885e-07
8.848762e-07
1.334839e-06
2.075855e-06
3.233761e-06
5.085402e-06
7.931898e-06
4.796207e-07
6.222393e-07
8.404959e-07
1.257992e-06
1.914135e-06
2.992366e-06
4.679832e-06
7.374673e-06
1.163361e-05
5.956774e-07
6.367075e-07
8.834503e-07
1.31748e-06
2.024197e-06
3.194533e-06
4.95683e-06
7.775188e-06
1.221353e-05
5.145133e-07
5.43578e-07
7.494205e-07
1.107507e-06
1.69982e-06
2.655735e-06
4.214979e-06
6.685384e-06
1.063771e-05
4.128e-07
3.396104e-07
4.499757e-07
6.467603e-07
9.715251e-07
1.550928e-06
2.380797e-06
3.802412e-06
6.07549e-06
9.811454e-06
2.384226e-08
-1.481737e-08
1.25381e-07
5.37451e-08
3.008478e-07
-5.065072e-08
7.138147e-08
1.403667e-07
3.815988e-07
1.033023e-06
-0.7001651
-0.7192997
-0.731292
-0.7408387
-0.7520617
-0.7654748
-0.7814101
-0.8000718
-0.8217655
-0.6904623
-0.7015152
-0.7078071
-0.7168002
-0.7272513
-0.7401569
-0.7553042
-0.7731427
-0.793765
-0.6726062
-0.6806937
-0.6842982
-0.6918038
-0.7012366
-0.7133048
-0.7276411
-0.7445076
-0.7639735
-0.6740949
-0.6832455
-0.6885195
-0.6956307
-0.7051836
-0.7167439
-0.7306382
-0.7468208
-0.765517
-0.6619136
-0.6715133
-0.6752872
-0.6819854
-0.6906308
-0.7014904
-0.714477
-0.7296329
-0.7470888
-0.6535045
-0.6628343
-0.6676157
-0.6739326
-0.682351
-0.6924909
-0.7046709
-0.7187759
-0.7349818
-0.6401922
-0.6492902
-0.6535164
-0.6594127
-0.6671208
-0.6764955
-0.6876889
-0.7006248
-0.7154118
-0.6270684
-0.6358991
-0.6400776
-0.6455467
-0.6527241
-0.6613218
-0.6715606
-0.6833197
-0.6966933
-0.6115118
-0.6199109
-0.6237033
-0.6286898
-0.6351914
-0.6429798
-0.6522038
-0.6627561
-0.6746836
-0.5951559
-0.6032023
-0.6066965
-0.6112149
-0.6170856
-0.6240785
-0.6323172
-0.6416942
-0.6522229
-0.5772927
-0.5849143
-0.588041
-0.5920722
-0.5972909
-0.6034898
-0.6107568
-0.6189866
-0.6281643
-0.558526
-0.5657415
-0.5685239
-0.5720838
-0.5766766
-0.5821124
-0.5884523
-0.5955948
-0.6035027
-0.5387407
-0.5455267
-0.5479589
-0.5510536
-0.5550372
-0.5597395
-0.5651977
-0.5713162
-0.5780404
-0.5181896
-0.5245283
-0.5266323
-0.5292785
-0.5326826
-0.5366926
-0.5413277
-0.5465008
-0.5521424
-0.4969081
-0.5028445
-0.5046062
-0.5068258
-0.5096747
-0.5130345
-0.5169021
-0.5212075
-0.5258661
-0.4750746
-0.4805554
-0.4820027
-0.4838047
-0.486125
-0.4888752
-0.4920373
-0.4955616
-0.4993459
-0.4527859
-0.4578203
-0.4589495
-0.4603543
-0.4621653
-0.4643495
-0.4668576
-0.4696837
-0.4726929
5.27472e-08
1.981446e-07
2.833833e-07
4.337907e-07
6.69987e-07
1.035933e-06
1.630596e-06
2.540992e-06
3.247078e-07
4.260573e-07
5.92212e-07
8.265179e-07
1.27581e-06
1.967212e-06
3.078211e-06
4.805818e-06
7.53073e-06
5.857029e-07
6.326803e-07
8.504451e-07
1.266194e-06
1.928575e-06
3.004961e-06
4.736286e-06
7.45574e-06
1.17301e-05
5.282891e-07
6.399911e-07
8.808777e-07
1.322366e-06
2.022556e-06
3.159635e-06
4.95086e-06
7.788502e-06
1.222536e-05
4.914888e-07
5.465172e-07
7.272834e-07
1.057009e-06
1.609479e-06
2.491511e-06
3.876543e-06
6.082887e-06
9.535594e-06
2.354725e-07
2.162568e-07
2.735468e-07
4.308088e-07
6.442857e-07
1.009195e-06
1.60691e-06
2.544436e-06
3.940466e-06
-4.830224e-09
-1.787706e-07
-1.00182e-08
-3.805194e-08
-5.955519e-08
-5.359668e-08
-1.177967e-07
-2.767126e-07
-2.204276e-07
-0.6390286
-0.6691998
-0.682039
-0.6876929
-0.6989177
-0.7113751
-0.7265191
-0.7443478
-0.7649895
-0.584453
-0.6929119
-0.7038785
-0.7120049
-0.7215202
-0.7319312
-0.7450181
-0.7603364
-0.7784158
-0.7992825
-0.5957357
-0.6847538
-0.6916939
-0.6946146
-0.7031832
-0.7128939
-0.7253957
-0.739993
-0.7571412
-0.7769294
-0.5717499
-0.6844646
-0.6866068
-0.6931311
-0.7003132
-0.7101368
-0.7217965
-0.7358063
-0.7520861
-0.7709202
-0.5720312
-0.6711717
-0.6740458
-0.6782658
-0.6852609
-0.6940244
-0.7050117
-0.7180632
-0.7332982
-0.7508462
-0.5765271
-0.6619845
-0.6642947
-0.6695209
-0.6759238
-0.6844491
-0.6946342
-0.706855
-0.7209817
-0.7372245
-0.5472888
-0.6483554
-0.6500521
-0.6546247
-0.660596
-0.6683779
-0.6777925
-0.6890132
-0.7019662
-0.7167806
-0.5445454
-0.6348808
-0.6368471
-0.6410701
-0.6465895
-0.6538011
-0.6624106
-0.6726563
-0.6844106
-0.6977836
-0.5265747
-0.619055
-0.6204787
-0.6243739
-0.6293903
-0.6359168
-0.6437159
-0.6529461
-0.6634968
-0.6754261
-0.5152045
-0.6024033
-0.6038613
-0.6073337
-0.611883
-0.6177635
-0.6247583
-0.6329969
-0.6423645
-0.6528857
-0.5005906
-0.5842253
-0.5854443
-0.5885501
-0.5926097
-0.5978285
-0.6040286
-0.611292
-0.6195118
-0.62868
-0.4859096
-0.5651589
-0.5662767
-0.5689944
-0.5725818
-0.5771695
-0.5826031
-0.588939
-0.5960707
-0.6039682
-0.4705585
-0.5450558
-0.5460016
-0.5483703
-0.551492
-0.5554668
-0.5601668
-0.5656187
-0.5717267
-0.5784394
-0.4545335
-0.524243
-0.5249496
-0.527004
-0.5296721
-0.5330674
-0.5370753
-0.5417055
-0.5468689
-0.5525014
-0.4368747
-0.5026208
-0.5032735
-0.504944
-0.5071888
-0.5100263
-0.5133837
-0.5172449
-0.5215403
-0.5261892
-0.422804
-0.4805354
-0.4808774
-0.4823005
-0.4841195
-0.4864331
-0.4891821
-0.492342
-0.4958584
-0.4996373
-0.3840579
-0.458047
-0.4580575
-0.4592328
-0.4606527
-0.4624621
-0.4646439
-0.4671466
-0.469962
-0.472963
4.453572e-08
1.931972e-07
2.783824e-07
4.503477e-07
6.864244e-07
1.086932e-06
1.707917e-06
2.696254e-06
3.353764e-07
4.298066e-07
5.971399e-07
8.371719e-07
1.294206e-06
2.002418e-06
3.144599e-06
4.924658e-06
7.733474e-06
6.035413e-07
6.323696e-07
8.447401e-07
1.266464e-06
1.935051e-06
3.021737e-06
4.737892e-06
7.446671e-06
1.170594e-05
5.258523e-07
6.496184e-07
8.966354e-07
1.326662e-06
2.03684e-06
3.165945e-06
4.968889e-06
7.792735e-06
1.225033e-05
5.099693e-07
5.333618e-07
6.859794e-07
9.721363e-07
1.469339e-06
2.274473e-06
3.562586e-06
5.571032e-06
8.76275e-06
2.711325e-07
2.046612e-07
2.334088e-07
3.475673e-07
5.197833e-07
8.132228e-07
1.283611e-06
2.050935e-06
3.265473e-06
-9.802114e-09
-0.663541
-0.7066833
-0.7049212
-0.7203375
-0.7296434
-0.7429719
-0.7583256
-0.7766695
-0.6895659
-0.7002708
-0.6784872
-0.6922564
-0.6982262
-0.7097818
-0.7223148
-0.7373533
-0.7549005
-0.6674839
-0.6844507
-0.6911647
-0.6951673
-0.7047707
-0.7145234
-0.7272329
-0.7418348
-0.7590819
-0.7789517
-0.6731318
-0.684152
-0.6821832
-0.6887816
-0.6946084
-0.704589
-0.7159908
-0.7299861
-0.7461529
-0.7648944
-0.6591085
-0.6701975
-0.6733198
-0.6784247
-0.6855232
-0.694458
-0.7055035
-0.7186
-0.733853
-0.7514328
-0.6511824
-0.6619517
-0.6634184
-0.6686074
-0.6746117
-0.6831442
-0.6932166
-0.7054254
-0.7195092
-0.7357366
-0.6376209
-0.6477325
-0.6499681
-0.6546108
-0.6606632
-0.6684924
-0.6779209
-0.689149
-0.7021009
-0.7169242
-0.6250757
-0.6347974
-0.636552
-0.6408327
-0.6462824
-0.653494
-0.6620816
-0.6723222
-0.6840653
-0.6974391
-0.6094544
-0.6187515
-0.6204635
-0.6243347
-0.6294086
-0.6359482
-0.6437602
-0.6529908
-0.6635398
-0.675469
-0.5933495
-0.6023048
-0.6037714
-0.6072547
-0.6118164
-0.6176907
-0.6246906
-0.6329234
-0.64229
-0.6528099
-0.5755223
-0.5841191
-0.5854083
-0.5885204
-0.5926115
-0.5978337
-0.6040454
-0.6113089
-0.6195301
-0.6286989
-0.5569084
-0.5651328
-0.5662187
-0.5689616
-0.5725675
-0.5771521
-0.5825952
-0.5889284
-0.5960613
-0.6039581
-0.5372469
-0.5450741
-0.5459696
-0.5483557
-0.5514966
-0.5554703
-0.5601784
-0.5656296
-0.5717375
-0.5784501
-0.5168419
-0.5242554
-0.524953
-0.5269926
-0.5296783
-0.5330679
-0.5370812
-0.5417093
-0.5468722
-0.5525044
-0.495678
-0.5027163
-0.5032398
-0.504945
-0.5072029
-0.5100349
-0.5133971
-0.5172552
-0.5215484
-0.5261971
-0.4740053
-0.4805961
-0.4809337
-0.4823096
-0.4841409
-0.4864455
-0.4891924
-0.4923482
-0.4958608
-0.4996392
-0.4518917
-0.4580142
-0.4581855
-0.4592352
-0.460673
-0.4624612
-0.4646481
-0.4671452
-0.4699604
-0.4729617
3.100691e-08
1.839271e-07
2.753122e-07
4.303975e-07
6.726247e-07
1.043001e-06
1.653307e-06
2.583208e-06
3.301094e-07
4.331648e-07
5.996432e-07
8.475535e-07
1.302385e-06
2.029554e-06
3.170131e-06
4.982306e-06
7.800292e-06
6.173194e-07
6.374651e-07
8.557974e-07
1.28439e-06
1.959984e-06
3.061755e-06
4.801728e-06
7.543614e-06
1.185053e-05
5.143913e-07
6.449185e-07
8.832153e-07
1.319933e-06
2.017652e-06
3.142165e-06
4.919294e-06
7.716246e-06
1.210348e-05
5.121612e-07
5.463176e-07
6.761344e-07
9.712154e-07
1.431894e-06
2.221636e-06
3.455226e-06
5.415662e-06
8.478304e-06
2.700127e-07
1.599096e-07
2.177392e-07
3.480183e-07
4.976392e-07
7.796597e-07
1.206655e-06
1.914821e-06
3.016652e-06
-7.01664e-08
-0.6651189
-0.6995183
-0.6900305
-0.7095932
-0.7148774
-0.7288473
-0.7433475
-0.7615312
-0.6963687
-0.7015299
-0.6848673
-0.6998423
-0.7067822
-0.7182494
-0.7311167
-0.7462775
-0.7641228
-0.6735422
-0.6843749
-0.6893756
-0.692621
-0.7023003
-0.7114546
-0.7244081
-0.7388691
-0.7561784
-0.6779399
-0.6840107
-0.6833518
-0.6912474
-0.6973277
-0.7076035
-0.7192053
-0.733332
-0.7496425
-0.7685327
-0.6660262
-0.6694713
-0.6733434
-0.6789112
-0.6861717
-0.695069
-0.7062254
-0.7193387
-0.7346562
-0.7522902
-0.6581558
-0.6613746
-0.6638073
-0.6694932
-0.6756815
-0.6843311
-0.6944796
-0.7067483
-0.7208809
-0.7371695
-0.6447355
-0.647039
-0.6500629
-0.6549835
-0.6611445
-0.6690539
-0.6785279
-0.6897889
-0.7027664
-0.7176251
-0.6319435
-0.6340885
-0.6366527
-0.6411258
-0.6466718
-0.6539597
-0.6625829
-0.6728495
-0.6846117
-0.6980103
-0.6162598
-0.6180224
-0.6204773
-0.6244675
-0.6296102
-0.6362052
-0.6440477
-0.6533016
-0.663863
-0.6758129
-0.5999569
-0.6015804
-0.6037657
-0.6073193
-0.611929
-0.6178453
-0.6248665
-0.6331225
-0.642498
-0.6530358
-0.5819919
-0.5834046
-0.5853809
-0.5885284
-0.5926596
-0.5979102
-0.6041428
-0.6114222
-0.6196542
-0.6288342
-0.5631745
-0.5644313
-0.5661762
-0.5689283
-0.5725637
-0.5771701
-0.5826309
-0.5889814
-0.5961247
-0.6040346
-0.5432748
-0.5443844
-0.545917
-0.5483036
-0.5514772
-0.5554657
-0.560192
-0.5656558
-0.5717725
-0.5784955
-0.5225718
-0.5235667
-0.5248726
-0.526903
-0.5296101
-0.5330146
-0.5370467
-0.5416975
-0.5468725
-0.5525211
-0.5012415
-0.5020666
-0.5031799
-0.5048696
-0.5071649
-0.5100056
-0.5133871
-0.5172568
-0.5215551
-0.5262148
-0.4792077
-0.4799574
-0.4808379
-0.4821899
-0.4840347
-0.4863467
-0.48912
-0.4923134
-0.4958365
-0.499642
-0.4567272
-0.4574257
-0.4581405
-0.4591722
-0.4606672
-0.4624584
-0.4646622
-0.4671728
-0.4699773
-0.4729915
4.764023e-08
1.89179e-07
2.664693e-07
4.391192e-07
6.599255e-07
1.055829e-06
1.646215e-06
2.612989e-06
3.322631e-07
4.327169e-07
6.077531e-07
8.372056e-07
1.32714e-06
2.024852e-06
3.214822e-06
5.000336e-06
7.875717e-06
5.972732e-07
6.457579e-07
8.473768e-07
1.284595e-06
1.960878e-06
3.062377e-06
4.804961e-06
7.545592e-06
1.184928e-05
5.187198e-07
6.331234e-07
8.852787e-07
1.32041e-06
2.016554e-06
3.148173e-06
4.921011e-06
7.724114e-06
1.210878e-05
5.287047e-07
5.532725e-07
6.587943e-07
9.488184e-07
1.412242e-06
2.177135e-06
3.405691e-06
5.321319e-06
8.369777e-06
2.397855e-07
1.007856e-07
1.870166e-07
3.23477e-07
4.669748e-07
7.264971e-07
1.142843e-06
1.794316e-06
2.848839e-06
-6.289719e-08
-0.6673288
-0.7066364
-0.7000723
-0.7193725
-0.7274855
-0.7407061
-0.7558331
-0.774044
-0.6957493
-0.7017657
-0.6831798
-0.6990088
-0.7045239
-0.716748
-0.7293819
-0.7446564
-0.7624488
-0.6717825
-0.6843583
-0.6901313
-0.6936707
-0.703369
-0.7129533
-0.7258172
-0.7403671
-0.7576064
-0.6778287
-0.6836227
-0.6816354
-0.6896864
-0.6950564
-0.7052473
-0.716686
-0.7307938
-0.7470577
-0.6647882
-0.6690171
-0.6729752
-0.6788442
-0.6862836
-0.695306
-0.7064871
-0.7196518
-0.7349753
-0.7526293
-0.6578969
-0.6611278
-0.6632483
-0.6690319
-0.6751994
-0.6839462
-0.6940551
-0.7063438
-0.7204745
-0.7367807
-0.644501
-0.6468417
-0.649931
-0.6549628
-0.6612435
-0.6692583
-0.6787661
-0.6900499
-0.7030322
-0.7179047
-0.6317909
-0.6339936
-0.6364881
-0.6410042
-0.646558
-0.6538861
-0.6625115
-0.6727837
-0.6845436
-0.697954
-0.6162814
-0.617978
-0.6204736
-0.624469
-0.6296501
-0.6362756
-0.6441339
-0.6533919
-0.6639564
-0.6759101
-0.5999693
-0.6015686
-0.6037478
-0.6072954
-0.6119136
-0.6178393
-0.6248663
-0.633119
-0.6424951
-0.6530337
-0.5818959
-0.5833788
-0.585357
-0.5885299
-0.5926756
-0.5979403
-0.6041805
-0.6114612
-0.6196916
-0.6288736
-0.5631047
-0.5644113
-0.5661646
-0.5689277
-0.5725705
-0.5771837
-0.5826479
-0.5889975
-0.5961386
-0.6040481
-0.5432469
-0.5443844
-0.54592
-0.548322
-0.5515045
-0.5554997
-0.5602293
-0.5656903
-0.5718013
-0.5785217
-0.5226165
-0.5235875
-0.5248961
-0.5269382
-0.5296479
-0.5330562
-0.5370847
-0.5417292
-0.546895
-0.5525397
-0.5011902
-0.5020787
-0.5031937
-0.5049159
-0.5072137
-0.5100598
-0.5134402
-0.5173018
-0.5215877
-0.5262406
-0.4792099
-0.4800097
-0.4808762
-0.482275
-0.484123
-0.486443
-0.4891938
-0.4923656
-0.4958695
-0.4996627
-0.4567498
-0.4574025
-0.4581674
-0.4592151
-0.4607069
-0.4624883
-0.4647039
-0.4671949
-0.4699937
-0.4730009
4.655861e-08
1.90593e-07
2.750551e-07
4.334148e-07
6.741568e-07
1.050996e-06
1.664022e-06
2.608073e-06
3.529569e-07
4.451683e-07
5.971931e-07
8.655422e-07
1.299793e-06
2.060123e-06
3.18137e-06
5.031834e-06
7.844242e-06
6.120514e-07
6.369536e-07
8.581285e-07
1.286328e-06
1.956811e-06
3.06378e-06
4.792995e-06
7.528908e-06
1.181015e-05
5.114679e-07
6.333213e-07
8.861184e-07
1.310784e-06
2.026119e-06
3.13485e-06
4.933885e-06
7.705781e-06
1.21159e-05
5.097354e-07
5.534845e-07
6.489881e-07
9.659603e-07
1.397535e-06
2.193566e-06
3.391324e-06
5.336668e-06
8.334256e-06
2.226364e-07
8.888672e-08
1.881487e-07
3.321802e-07
4.620309e-07
7.584515e-07
1.145547e-06
1.796443e-06
2.800259e-06
-6.47007e-08
-0.6676227
-0.7062647
-0.6993979
-0.7188009
-0.7268104
-0.7402686
-0.7555163
-0.7738385
-0.6956925
-0.7018374
-0.6834722
-0.6992344
-0.7049973
-0.7171141
-0.7297574
-0.7449313
-0.7625588
-0.6718189
-0.6843617
-0.6900997
-0.6935505
-0.7032576
-0.7127772
-0.7257021
-0.7402591
-0.7575432
-0.6777572
-0.6836109
-0.681694
-0.6897295
-0.6951472
-0.7053201
-0.7167664
-0.730855
-0.747094
-0.6650228
-0.6691126
-0.6730906
-0.6788859
-0.6863391
-0.6953354
-0.7065317
-0.7197002
-0.735031
-0.6581749
-0.6611937
-0.6633298
-0.6690491
-0.6752239
-0.6839554
-0.6940675
-0.7063549
-0.7204877
-0.6443452
-0.6468281
-0.6499165
-0.6549888
-0.6612754
-0.6692957
-0.6788101
-0.6900963
-0.7030835
-0.7179615
-0.6317926
-0.6339947
-0.6364877
-0.6410038
-0.6465552
-0.6538833
-0.6625108
-0.6727857
-0.6845516
-0.6979678
-0.6162591
-0.6179902
-0.6204755
-0.6244768
-0.6296581
-0.6362844
-0.644146
-0.6534068
-0.6639745
-0.6759336
-0.5999263
-0.601562
-0.6037205
-0.6072727
-0.6118872
-0.617815
-0.6248462
-0.6331059
-0.6424868
-0.6530329
-0.581904
-0.5833641
-0.5853383
-0.5885032
-0.592653
-0.5979169
-0.6041621
-0.6114475
-0.6196822
-0.6288705
-0.5631142
-0.5643662
-0.5661016
-0.5688479
-0.5724922
-0.577106
-0.5825824
-0.5889495
-0.5961009
-0.6040256
-0.543105
-0.544272
-0.5458449
-0.5482342
-0.5514445
-0.5554405
-0.5601837
-0.5656556
-0.5717721
-0.5785056
-0.5223869
-0.5234045
-0.5247347
-0.5267309
-0.5294432
-0.5328601
-0.5369158
-0.5416195
-0.5468056
-0.5524947
-0.5010621
-0.5019327
-0.5031057
-0.5047689
-0.5071437
-0.5099813
-0.5133891
-0.5172715
-0.5215494
-0.5262301
-0.4792189
-0.4798248
-0.4806862
-0.4819007
-0.4837025
-0.4860501
-0.4888448
-0.4921825
-0.4957045
-0.4996061
-0.4568619
-0.4572969
-0.4581811
-0.4590136
-0.4607061
-0.462463
-0.4647055
-0.4672467
-0.4699757
-0.4730437
5.716738e-08
1.900339e-07
2.673427e-07
4.399617e-07
6.446584e-07
1.04578e-06
1.62321e-06
2.590484e-06
3.523914e-07
4.222647e-07
6.167515e-07
8.381178e-07
1.341167e-06
2.019624e-06
3.220646e-06
4.981761e-06
7.853526e-06
5.791531e-07
6.5264e-07
8.546228e-07
1.295432e-06
1.976447e-06
3.084001e-06
4.851713e-06
7.617483e-06
1.196806e-05
5.105001e-07
6.237689e-07
8.686911e-07
1.335773e-06
2.01879e-06
3.189354e-06
4.961476e-06
7.816385e-06
1.222478e-05
5.373287e-07
5.67252e-07
6.634171e-07
9.606469e-07
1.435173e-06
2.216102e-06
3.490093e-06
5.459465e-06
8.616172e-06
2.138081e-07
9.126049e-08
1.965747e-07
3.368742e-07
5.060191e-07
7.62199e-07
1.224609e-06
1.945012e-06
3.153967e-06
-1.339048e-07
-0.6683934
-0.6994808
-0.6909165
-0.710131
-0.7159347
-0.7302652
-0.7447173
-0.7617908
-0.696653
-0.7015805
-0.6844016
-0.6996436
-0.7063892
-0.7180031
-0.7307538
-0.7458938
-0.7640147
-0.6736856
-0.6845896
-0.689726
-0.6931369
-0.7027972
-0.7120428
-0.7250266
-0.739395
-0.7564664
-0.6782136
-0.6841368
-0.6832323
-0.6912545
-0.6972783
-0.7075862
-0.7191904
-0.73331
-0.7496456
-0.6653015
-0.6695061
-0.6733512
-0.6791123
-0.6864024
-0.6953347
-0.7065086
-0.719587
-0.7348701
-0.657491
-0.6610415
-0.6638002
-0.6694524
-0.6756972
-0.6843405
-0.6945
-0.7067707
-0.7209161
-0.6448992
-0.6470241
-0.6500489
-0.6550604
-0.6612348
-0.6691686
-0.6786481
-0.6899048
-0.7028832
-0.6315548
-0.6341848
-0.6365776
-0.6411561
-0.646683
-0.6539807
-0.6626026
-0.6728717
-0.6846396
-0.6980485
-0.6171828
-0.6181896
-0.6207562
-0.624565
-0.6297064
-0.6362746
-0.6441095
-0.6533567
-0.6639171
-0.6758692
-0.6006157
-0.6017506
-0.6039274
-0.6073787
-0.6119659
-0.6178664
-0.624878
-0.6331303
-0.6425062
-0.6530477
-0.5814678
-0.5835133
-0.5852886
-0.5885776
-0.5926803
-0.5979488
-0.6041739
-0.6114533
-0.619678
-0.6288615
-0.5629164
-0.5643631
-0.5661473
-0.5689164
-0.5725414
-0.5771614
-0.582614
-0.5889787
-0.5961163
-0.604037
-0.5433586
-0.5443533
-0.5458944
-0.5483219
-0.5515119
-0.5555154
-0.5602418
-0.5657028
-0.5717996
-0.5785237
-0.5229547
-0.523515
-0.5248634
-0.5268808
-0.5295709
-0.5330058
-0.5370167
-0.541694
-0.5468446
-0.5525192
-0.5010465
-0.5020133
-0.5031212
-0.5049341
-0.5072668
-0.5101319
-0.5135207
-0.5173704
-0.5216104
-0.5262685
-0.478782
-0.4801444
-0.4807096
-0.4823023
-0.4840613
-0.4864283
-0.4891263
-0.4923565
-0.4958028
-0.4996509
-0.4559807
-0.4570374
-0.4581971
-0.4592565
-0.4608859
-0.4626128
-0.4649051
-0.4673429
-0.4700391
-0.4730579
5.596108e-08
2.026415e-07
2.715169e-07
4.346971e-07
6.771618e-07
1.077053e-06
1.684792e-06
2.713185e-06
3.71573e-07
4.477153e-07
5.871172e-07
8.611257e-07
1.282409e-06
2.04175e-06
3.173681e-06
4.996019e-06
7.80435e-06
6.08961e-07
6.274047e-07
8.470781e-07
1.279649e-06
1.93109e-06
3.050184e-06
4.772647e-06
7.48771e-06
1.17473e-05
5.222682e-07
6.20521e-07
8.982068e-07
1.31e-06
2.055955e-06
3.172675e-06
5.03357e-06
7.857322e-06
1.23972e-05
4.638249e-07
5.725156e-07
6.441155e-07
9.934305e-07
1.463238e-06
2.345345e-06
3.629312e-06
5.691299e-06
8.902701e-06
1.977734e-07
8.486129e-08
1.965289e-07
3.890465e-07
5.40397e-07
9.1091e-07
1.372707e-06
2.204092e-06
3.477962e-06
-1.595332e-07
-0.6683514
-0.7033964
-0.7007003
-0.7162444
-0.7254149
-0.7385432
-0.7544728
-0.7749059
-0.6895536
-0.7007792
-0.680287
-0.6944401
-0.7007413
-0.712244
-0.7245355
-0.7391165
-0.7556495
-0.6680942
-0.6849505
-0.6913783
-0.6952599
-0.7047722
-0.714493
-0.7272737
-0.7418802
-0.7591706
-0.6722321
-0.6840558
-0.6820893
-0.6888746
-0.69472
-0.7047092
-0.7161129
-0.7300894
-0.7461921
-0.6598745
-0.6704821
-0.6738186
-0.6788205
-0.6860012
-0.6948993
-0.7059788
-0.7190206
-0.7342191
-0.6531242
-0.6619116
-0.6637512
-0.6685504
-0.6746312
-0.6830952
-0.6931891
-0.7053999
-0.7195024
-0.6364242
-0.6476409
-0.6497989
-0.654781
-0.6608466
-0.6687316
-0.6781697
-0.6893896
-0.7023231
-0.6249361
-0.6347996
-0.6365556
-0.6408441
-0.6462812
-0.6534847
-0.6620735
-0.6723178
-0.684072
-0.6099131
-0.6190377
-0.6206754
-0.6244683
-0.629522
-0.6360491
-0.6438568
-0.6530845
-0.6636297
-0.675563
-0.5936797
-0.6025156
-0.6037994
-0.6072741
-0.6117834
-0.6176613
-0.6246561
-0.6329051
-0.6422782
-0.6528151
-0.5756549
-0.5841921
-0.5853647
-0.5885302
-0.5926005
-0.5978358
-0.6040482
-0.6113217
-0.6195412
-0.6287222
-0.5574405
-0.5650998
-0.5660833
-0.5687975
-0.5723683
-0.5769771
-0.5824371
-0.5888271
-0.5959766
-0.6039188
-0.5368622
-0.5447712
-0.545791
-0.5481862
-0.5514175
-0.5554052
-0.5601425
-0.5656158
-0.5717097
-0.578451
-0.5157214
-0.5237204
-0.5244797
-0.5264506
-0.529078
-0.5325354
-0.5365988
-0.5414423
-0.5466331
-0.5524054
-0.4954089
-0.5022526
-0.5029977
-0.5046189
-0.5071441
-0.5099907
-0.5134338
-0.5173096
-0.5215176
-0.5262355
-0.4746687
-0.4801986
-0.4803394
-0.4811977
-0.4825872
-0.4851302
-0.4879633
-0.4918101
-0.4953182
-0.4994918
-0.4528546
-0.4572827
-0.4582809
-0.4584519
-0.460881
-0.4625721
-0.4649489
-0.4674206
-0.469901
-0.4731294
7.309019e-08
1.368069e-07
1.296864e-07
1.705183e-07
2.593826e-07
4.762362e-07
8.023159e-07
1.111139e-06
1.520405e-06
3.447077e-07
4.15831e-07
5.933563e-07
8.622251e-07
1.30956e-06
2.035475e-06
3.273437e-06
5.013172e-06
7.931087e-06
5.040701e-07
6.198835e-07
8.55917e-07
1.281609e-06
1.963121e-06
3.054811e-06
4.823651e-06
7.593741e-06
1.197785e-05
6.623409e-07
6.194284e-07
8.71195e-07
1.352421e-06
2.050017e-06
3.282309e-06
5.119364e-06
8.060417e-06
1.26294e-05
6.000668e-07
5.49527e-07
7.085723e-07
1.046217e-06
1.611986e-06
2.468753e-06
3.914398e-06
6.182655e-06
9.841892e-06
3.364998e-07
2.046069e-07
2.782699e-07
4.063818e-07
6.708925e-07
1.217724e-06
1.932242e-06
3.153181e-06
5.260543e-06
-1.371153e-07
-2.743039e-08
2.486364e-08
2.09514e-07
5.960495e-08
-1.784565e-07
-2.401106e-07
-1.417274e-07
-3.318553e-06
-0.6593039
-0.6926826
-0.7040669
-0.7139889
-0.7235737
-0.7364184
-0.7479226
-0.7656272
-0.7850934
-0.6365396
-0.6935017
-0.7046799
-0.7126944
-0.7224795
-0.7329459
-0.7458534
-0.7610091
-0.7789137
-0.6251052
-0.6856841
-0.692799
-0.6958168
-0.704353
-0.7139161
-0.7264492
-0.7405554
-0.7574775
-0.6023938
-0.6855984
-0.686231
-0.6934346
-0.7005019
-0.710404
-0.7220491
-0.7360351
-0.752219
-0.5583672
-0.6720623
-0.6740674
-0.6788906
-0.6858901
-0.6946645
-0.7056815
-0.7185847
-0.7337323
-0.5772528
-0.6596385
-0.6654559
-0.6693137
-0.6760396
-0.684434
-0.6946514
-0.7068578
-0.7209887
-0.5560575
-0.6479016
-0.6495406
-0.6548
-0.6607638
-0.6686511
-0.6780753
-0.689272
-0.7022061
-0.551084
-0.6364676
-0.6360032
-0.6411976
-0.6465439
-0.6538163
-0.6624172
-0.6726705
-0.6844278
-0.5458858
-0.6187306
-0.6218067
-0.6245253
-0.6296444
-0.6360597
-0.6438513
-0.6530624
-0.6636037
-0.5075345
-0.6023407
-0.6044395
-0.6074049
-0.6119339
-0.6177724
-0.624753
-0.632999
-0.6423654
-0.6528982
-0.5045892
-0.5858511
-0.5845986
-0.5887273
-0.5925793
-0.5978866
-0.6040682
-0.6113413
-0.6195486
-0.6287237
-0.5039738
-0.5646299
-0.566217
-0.5688513
-0.5724451
-0.5770667
-0.5824979
-0.5888845
-0.5960154
-0.6039507
-0.469074
-0.5446761
-0.545829
-0.5483017
-0.5515023
-0.555513
-0.5602275
-0.5656838
-0.5717516
-0.5784788
-0.4788521
-0.5233536
-0.5248865
-0.5266868
-0.5293345
-0.5328169
-0.5367967
-0.5415809
-0.5467078
-0.5524521
-0.4383366
-0.5025705
-0.5027605
-0.5050038
-0.5073872
-0.5102921
-0.5136925
-0.5174925
-0.5216284
-0.5262983
-0.4350751
-0.4825717
-0.4798362
-0.4824115
-0.4836229
-0.4862462
-0.4887483
-0.4922909
-0.4955645
-0.4995989
-0.4323952
-0.4557021
-0.4589856
-0.4596551
-0.4618485
-0.4633883
-0.4658938
-0.467998
-0.4701831
-0.4732113
7.857905e-08
1.172034e-07
1.205479e-07
-1.295871e-08
8.294239e-08
-7.591345e-08
5.436723e-07
2.351999e-07
1.909546e-07
2.699271e-07
3.897527e-07
6.04299e-07
8.820306e-07
1.321631e-06
2.046094e-06
3.205282e-06
5.039156e-06
7.950022e-06
5.603197e-07
6.157909e-07
8.386181e-07
1.258618e-06
1.923576e-06
3.020943e-06
4.762761e-06
7.516556e-06
1.184143e-05
6.249279e-07
6.176863e-07
8.658272e-07
1.315272e-06
2.033777e-06
3.190254e-06
5.01944e-06
7.897212e-06
1.244475e-05
5.324756e-07
5.80777e-07
7.254613e-07
1.134567e-06
1.765623e-06
2.775335e-06
4.408397e-06
7.035989e-06
1.115737e-05
3.195808e-07
2.953883e-07
3.805797e-07
6.852975e-07
1.029326e-06
1.673634e-06
2.674467e-06
4.347062e-06
7.129283e-06
1.171896e-05
-8.188303e-08
3.690522e-08
2.062493e-08
9.900831e-08
2.882091e-07
5.078295e-07
9.220624e-07
1.654777e-06
2.251945e-06
-0.6568257
-0.6640538
-0.669461
-0.6776577
-0.6927685
-0.7023613
-0.7171083
-0.7633642
-0.7652724
-0.6715994
-0.6871174
-0.6957754
-0.7012004
-0.7098173
-0.7195021
-0.7336386
-0.7509934
-0.7724217
-0.6821745
-0.6754421
-0.6849619
-0.6895105
-0.6967886
-0.7064258
-0.7186183
-0.73186
-0.7460495
-0.6869583
-0.6736386
-0.6816365
-0.6870215
-0.6939141
-0.7034324
-0.7152553
-0.7295869
-0.7462329
-0.6714177
-0.6617921
-0.6724541
-0.6765179
-0.683332
-0.6919833
-0.7028775
-0.7156197
-0.7303948
-0.6314197
-0.6525211
-0.6635289
-0.6672771
-0.6737828
-0.6820609
-0.6922682
-0.7044935
-0.71865
-0.6347426
-0.6402887
-0.6486979
-0.6538532
-0.6596859
-0.6675195
-0.6768958
-0.6880551
-0.7009298
-0.6393191
-0.6273834
-0.6361158
-0.640126
-0.6455574
-0.6527081
-0.6613058
-0.6715474
-0.6833116
-0.631992
-0.6119503
-0.6206066
-0.6239194
-0.6288938
-0.6353473
-0.6431223
-0.6523341
-0.6628719
-0.6108293
-0.5955654
-0.6031192
-0.6067665
-0.6111858
-0.6170745
-0.624053
-0.6323098
-0.6416868
-0.5954914
-0.5779315
-0.5846982
-0.588154
-0.5920647
-0.5973251
-0.6035152
-0.6107955
-0.6190144
-0.6282041
-0.5667904
-0.5586956
-0.5653063
-0.5683591
-0.5718233
-0.576496
-0.5819351
-0.5883577
-0.5955056
-0.60347
-0.5520094
-0.5384667
-0.5453783
-0.5477582
-0.5510041
-0.5550183
-0.5597623
-0.5652379
-0.5713124
-0.5780699
-0.5518715
-0.5172869
-0.5241396
-0.5259486
-0.5284594
-0.5320116
-0.5360536
-0.5410348
-0.5461989
-0.5520426
-0.5320728
-0.4958684
-0.5024015
-0.5041613
-0.5069405
-0.5098952
-0.5133914
-0.5171832
-0.5212404
-0.5259827
-0.4844272
-0.4746162
-0.4792317
-0.48024
-0.4804007
-0.4835343
-0.4864112
-0.4912881
-0.4946747
-0.499163
-0.4658788
-0.4504154
-0.4581776
-0.4574151
-0.4620718
-0.4640767
-0.466839
-0.4681362
-0.4696799
-0.4730442
1.602427e-08
3.249406e-07
2.889168e-07
5.315861e-08
3.755664e-07
2.632532e-07
2.498121e-07
4.776175e-07
5.356022e-07
3.562082e-07
2.429743e-07
4.91867e-07
4.924176e-07
5.058435e-07
6.020681e-07
6.219805e-07
4.913225e-07
4.939576e-07
5.66179e-07
5.742864e-07
6.256215e-07
4.802436e-07
5.3004e-07
5.966934e-07
5.896076e-07
5.017524e-07
5.176497e-07
5.544073e-07
3.577613e-07
3.649492e-07
5.156807e-07
5.267873e-07
3.589492e-07
3.689498e-07
3.835842e-07
1.139992e-07
1.544031e-07
3.666321e-07
3.348255e-07
2.571134e-07
1.285096e-07
7.494627e-08
-0.718257
1.428773e-07
6.552338e-08
-0.6865122
9.955233e-08
-0.7165376
-0.715738
4.553323e-08
6.083728e-08
-0.6887738
-0.6836129
1.128072e-07
-0.7228487
-0.7310912
2.300775e-08
6.847472e-08
-0.692554
-0.695641
6.315623e-07
-0.7376887
-0.7413224
1.254398e-07
1.357374e-07
-0.6993592
-0.7007836
6.887644e-07
-0.7480477
-0.7514038
1.361252e-07
1.66898e-07
-0.7068868
-0.7100948
1.043141e-06
-0.7594176
-0.7631959
2.399993e-07
3.039255e-07
-0.7172197
-0.7213034
1.861281e-06
-0.7727613
-0.7776345
3.943764e-07
4.909011e-07
-0.729955
-0.735216
2.553701e-06
-0.7887711
-0.7945321
6.912321e-07
8.638845e-07
-0.7452814
-0.7515345
3.836194e-06
-0.8076219
-0.8143698
1.027374e-06
1.62097e-06
-0.7633683
-0.770633
-0.8297348
1.843047e-06
-0.7844485
-0.7008803
-0.6945493
-0.6870644
-0.7016316
-0.6959895
-0.6454203
-0.6453586
-0.6709091
-0.675274
-0.7200984
-0.6811666
-0.6177081
-0.6123563
-0.6809879
-0.6632949
-0.7334779
-0.6781315
-0.6056011
-0.586784
-0.6863206
-0.663869
-0.7243468
-0.6572855
-0.5812089
-0.5753158
-0.6777892
-0.6499147
-0.7156795
-0.6457636
-0.5679762
-0.5611541
-0.6681586
-0.6389547
-0.7024403
-0.6312075
-0.555733
-0.5482417
-0.6552232
-0.6252271
-0.6897641
-0.6184479
-0.5420347
-0.5341009
-0.6428689
-0.6117574
-0.6747966
-0.6035631
-0.5280054
-0.5194403
-0.6281302
-0.5966547
-0.6589527
-0.58787
-0.5126829
-0.5036516
-0.6128471
-0.5803564
-0.6413143
-0.5709456
-0.496451
-0.4870532
-0.5958737
-0.5630211
-0.6227339
-0.5530559
-0.4795085
-0.4696528
-0.5781787
-0.5447892
-0.6029486
-0.5343445
-0.4617264
-0.4516288
-0.5594379
-0.5257495
-0.5821771
-0.514887
-0.4435012
-0.4330516
-0.53988
-0.505983
-0.5605785
-0.4948031
-0.4247793
-0.4139587
-0.5196834
-0.4856451
-0.5378727
-0.474126
-0.4052945
-0.3944737
-0.4984896
-0.46465
-0.5145183
-0.4529157
-0.3860431
-0.3749047
-0.4767786
-0.4434094
-0.490728
-0.431402
1.188758e-08
2.327658e-07
2.194446e-07
3.273999e-08
2.517921e-07
2.266935e-07
4.627683e-08
-0.6978972
2.164937e-08
-0.6823955
6.571593e-09
1.812028e-07
2.075916e-07
2.430869e-08
2.13311e-07
2.224155e-07
4.213459e-08
-0.6873833
6.114432e-08
-0.688399
2.037353e-08
2.314447e-07
1.966495e-07
1.233467e-08
1.960675e-07
2.267302e-07
6.601562e-08
-0.6874932
6.532184e-08
-0.6896491
3.204164e-08
2.18963e-07
2.359056e-07
1.889796e-08
1.743858e-07
2.266145e-07
5.548297e-08
-0.689585
6.852907e-08
-0.6892375
2.322378e-08
2.546433e-07
2.641227e-07
3.565169e-08
1.620954e-07
2.673514e-07
3.517245e-08
-0.6891053
5.941687e-08
-0.6893198
1.431034e-08
2.484983e-07
2.315658e-07
2.68664e-08
1.519307e-07
2.024603e-07
2.301629e-08
-0.6895596
5.737451e-08
-0.6870756
3.151976e-08
1.946744e-07
2.171559e-07
2.753734e-08
1.861445e-07
2.409367e-07
1.709696e-08
-0.6881119
6.141449e-08
-0.6861755
2.573456e-08
2.011521e-07
2.211592e-07
4.142883e-08
2.091254e-07
2.681961e-07
6.455483e-09
-0.6835092
3.043433e-08
-0.6961853
2.908429e-08
2.519987e-07
2.168829e-07
-3.567262e-08
2.874416e-07
6.822036e-08
2.064432e-07
2.393764e-07
1.957804e-07
2.825967e-07
1.851985e-07
3.526532e-07
6.34652e-07
2.783871e-07
3.233996e-07
6.465752e-07
1.609042e-07
4.612344e-07
9.713682e-07
4.37849e-07
9.564675e-07
4.921433e-07
1.060425e-06
2.204348e-06
4.58533e-07
1.011512e-06
2.484985e-06
5.609635e-07
1.682043e-06
3.781237e-06
-5.017244e-07
1.469842e-06
3.717041e-06
3.782599e-06
3.269365e-06
2.605905e-07
4.737723e-07
4.186194e-07
2.50842e-07
6.227592e-07
4.609397e-07
5.8579e-07
5.039112e-07
4.809232e-07
6.664284e-07
5.270572e-07
7.147736e-07
5.53375e-07
5.990803e-07
8.228482e-07
4.369719e-07
5.377885e-07
3.931205e-07
4.514404e-07
3.890898e-07
5.384223e-07