/*--------------------------------*- C++ -*----------------------------------*\
  =========                 |
  \\      /  F ield         | OpenFOAM: The Open Source CFD Toolbox
   \\    /   O peration     | Website:  https://openfoam.org
    \\  /    A nd           | Version:  7
     \\/     M anipulation  |
\*---------------------------------------------------------------------------*/
FoamFile
{
    version     2.0;
    format      ascii;
    class       volScalarField;
    location    "0.1";
    object      Uy;
}
// * * * * * * * * * * * * * * * * * * * * * * * * * * * * * * * * * * * * * //

dimensions      [0 1 -1 0 0 0 0];

internalField   nonuniform List<scalar> 
109978
(
0.04117349
0.02364342
0.02035269
0.02195
0.01976645
0.02050439
0.02830885
0.02446844
0.02333295
0.02400216
0.02432635
0.02448177
0.0361324
0.03832941
0.03745209
0.03782497
0.0379295
0.03792822
0.05014418
0.05138671
0.05120627
0.05057094
0.05055242
0.05039888
0.06331584
0.06424636
0.06373168
0.06318218
0.06304236
0.06273816
0.07577614
0.0766953
0.07594837
0.07553741
0.07524533
0.07486913
0.08714956
0.08884501
0.08815072
0.08789047
0.08754142
0.08712404
0.09881039
0.1009958
0.1003803
0.1001924
0.09983948
0.09939289
0.1107581
0.1133263
0.1128068
0.1125725
0.1122121
0.1117622
0.1235115
0.125927
0.1253953
0.125111
0.124737
0.124246
0.1366681
0.13885
0.1381319
0.1377068
0.1373058
0.136762
0.1497601
0.1519049
0.1509206
0.1504611
0.1500082
0.1494122
0.1628417
0.1650097
0.1638513
0.1633395
0.1628465
0.1622076
0.1761258
0.1781462
0.1769541
0.1764072
0.1758617
0.1751534
0.1896159
0.1915274
0.1902655
0.1896706
0.1890581
0.1882584
0.2032877
0.2051382
0.2037991
0.2031273
0.2024293
0.2015235
0.2171277
0.2189682
0.2175404
0.216781
0.2159879
0.2149651
0.2311833
0.2330028
0.2315
0.2306444
0.229744
0.2285944
0.2454276
0.2472663
0.2456851
0.2447326
0.2437168
0.24243
0.2598602
0.2617362
0.2601066
0.2590638
0.2579263
0.2564888
0.2746091
0.2764767
0.274796
0.2736619
0.2723917
0.2707895
0.28971
0.291559
0.2897933
0.2885497
0.2871352
0.285353
0.3141349
0.3071103
0.3051452
0.3037592
0.3021848
0.3001998
0.01249887
-0.0007002601
-0.0006327363
0.00070115
0.0004832669
0.000678361
-0.04495321
0.001229451
0.04698182
0.01195179
0.02356425
0.01878919
-0.0043837
0.01194615
0.04111723
0.02734552
0.03309778
0.03076896
0.009881568
0.03674492
0.04656781
0.04314123
0.04333995
0.04480596
0.01599463
0.05650975
0.05410767
0.05454701
0.05406
0.05400944
0.02249583
0.07146049
0.06534023
0.0671563
0.06631499
0.06630627
0.02914153
0.08407992
0.07638248
0.07943772
0.07824795
0.07805729
0.03417278
0.09571387
0.08812354
0.09219948
0.09045143
0.09036927
0.04034621
0.1069784
0.1005569
0.1045728
0.1027181
0.1026224
0.04757055
0.1187761
0.1138801
0.1169571
0.1153089
0.1153878
0.05591553
0.1317778
0.1273042
0.12914
0.1280591
0.1279489
0.06216032
0.1437657
0.140504
0.1415856
0.1408204
0.1405105
0.06994828
0.1562409
0.1537863
0.1542519
0.1537765
0.1534171
0.08129557
0.1689092
0.1669797
0.1672366
0.1668032
0.1664963
0.0901384
0.1819839
0.1802026
0.1802489
0.1798086
0.1795876
0.09771792
0.1951354
0.1935846
0.1935932
0.1930972
0.1927841
0.104457
0.2084943
0.2071951
0.2070809
0.2065534
0.2060896
0.1120712
0.2220943
0.2209639
0.2208061
0.2202192
0.2195765
0.1195723
0.2358825
0.2350009
0.234812
0.2341331
0.2332926
0.1265158
0.2497357
0.2492321
0.2490542
0.2482886
0.2472372
0.1339697
0.2637674
0.2636574
0.2634887
0.262716
0.2614694
0.142489
0.2782298
0.2783361
0.2781564
0.2773913
0.2759849
0.1510173
0.2931606
0.2933607
0.2931016
0.2923169
0.2907601
0.1691404
0.3084781
0.3087647
0.3084254
0.3075734
0.3058452
0.006145039
-0.001857028
-0.003844527
-0.001320787
-0.002645171
-0.002260938
-0.1091265
-0.01233952
0.04946968
0.005431527
0.02487609
0.01545084
0.002600675
0.01459576
0.03404404
0.02181981
0.02905723
0.02825191
0.004525272
0.02841817
0.05138407
0.04274643
0.04477302
0.04293763
0.01556184
0.05658117
0.05808924
0.05431136
0.05330569
0.05391678
0.02087006
0.07379964
0.06834023
0.06818962
0.06684436
0.06801156
0.03334138
0.09007431
0.07914945
0.0808675
0.07815819
0.07874553
0.04172591
0.1013883
0.09035341
0.0937204
0.09112386
0.09197665
0.04937086
0.1099274
0.1022823
0.1059865
0.1032793
0.1038457
0.05308056
0.1217504
0.1149425
0.1181999
0.1156504
0.1161151
0.05682698
0.1333566
0.1285952
0.1305859
0.1283887
0.1281652
0.05839844
0.1457933
0.141902
0.1427332
0.1409081
0.1406434
0.06568072
0.1588167
0.1550574
0.1549633
0.1533515
0.1532936
0.09577005
0.1704416
0.1688581
0.1676847
0.1661466
0.1661287
0.100396
0.1833155
0.1814294
0.1804533
0.179412
0.1792534
0.1053203
0.197725
0.1949878
0.1935991
0.1928092
0.1925613
0.1100959
0.2116073
0.2086749
0.2071258
0.2063365
0.2059352
0.1194078
0.2256189
0.222725
0.2208004
0.220049
0.2194877
0.127711
0.2396552
0.2368969
0.2347163
0.2340119
0.2332743
0.1322836
0.2540267
0.2511854
0.2488271
0.2482192
0.2472551
0.1381187
0.2684099
0.2658952
0.2632426
0.2627695
0.2614861
0.1504993
0.2824287
0.280893
0.2780117
0.277712
0.2761367
0.1596233
0.2968759
0.2959345
0.293044
0.2927986
0.2910774
0.1678349
0.3117612
0.3112628
0.3084101
0.308136
0.3063068
0.005015639
-0.006526231
-0.007269394
-0.003577826
-0.002421422
-0.002186133
-0.1041862
-0.0201691
0.03817068
0.001699876
0.02023769
0.01535714
-0.005290357
0.01579401
0.02955621
0.01831315
0.02763774
0.0286604
-0.05290842
0.03806934
0.04623651
0.04646995
0.04263426
0.04443136
0.01127826
0.0537184
0.05665246
0.05710907
0.05486388
0.0541938
0.03773027
0.06922509
0.06865632
0.07094435
0.06753853
0.06853609
0.05763673
0.08441417
0.07982289
0.08209683
0.07884927
0.07883893
0.07442061
0.09747241
0.09063306
0.09341664
0.09076966
0.09135195
0.06531925
0.1093177
0.1010894
0.1046239
0.1026261
0.1037462
0.0614713
0.120259
0.1135485
0.1167745
0.1154564
0.1168276
0.06127786
0.1334195
0.1268397
0.130026
0.1281915
0.1287003
0.07228807
0.1481613
0.1406846
0.1428154
0.140723
0.1406542
0.07711565
0.1600537
0.1553547
0.1554415
0.1536243
0.153559
0.08625788
0.1721837
0.1681973
0.1682333
0.1664719
0.1665717
0.09230349
0.1859479
0.1813887
0.1807148
0.1793264
0.1791079
0.09817928
0.1987847
0.1954732
0.1932531
0.1922942
0.1924935
0.1057864
0.212832
0.2093613
0.2064687
0.2056248
0.2060643
0.1147132
0.2266983
0.2233677
0.2198711
0.2190945
0.219568
0.1233119
0.2407266
0.2371188
0.2338936
0.2330534
0.2332744
0.1301825
0.2541714
0.250998
0.2482523
0.2472115
0.2469485
0.1347722
0.2685752
0.2653963
0.2628749
0.2617454
0.2611582
0.1450415
0.2835048
0.2803498
0.2777791
0.2765266
0.2757588
0.1540856
0.2982183
0.295556
0.2926813
0.2914659
0.2905871
0.1620821
0.3131043
0.3110881
0.3078797
0.3067088
0.3057272
0.005210235
-0.009934324
-0.007608931
-0.004790222
-0.002448523
-0.002256262
-0.09642935
-0.01665492
0.03477333
0.002291126
0.01441189
0.01490963
0.00691745
0.009461749
0.02062413
0.02015961
0.02553131
0.02809384
-0.0243319
0.04022667
0.04665475
0.04451778
0.04344641
0.0442353
0.01854572
0.05398167
0.0576273
0.05776655
0.05631657
0.05437874
0.02669633
0.06957348
0.07006165
0.07157362
0.06782809
0.06865497
0.03871627
0.08691057
0.08148733
0.08175369
0.07899223
0.07912091
0.04269312
0.09953595
0.0920619
0.09344435
0.0899316
0.09111532
0.04852523
0.109854
0.1026332
0.1054229
0.1022727
0.1034686
0.05373846
0.1206681
0.114226
0.1177356
0.1151582
0.1159337
0.05921256
0.1322651
0.1274222
0.1307517
0.1284374
0.1285916
0.08059544
0.1447513
0.1408804
0.1428572
0.1406935
0.140586
0.09144615
0.1583967
0.1541585
0.1540799
0.1529306
0.1526019
0.08612257
0.1700594
0.1686287
0.1668496
0.1661058
0.1653608
0.08742396
0.1833456
0.1817214
0.1803845
0.179223
0.1791647
0.0954513
0.1977881
0.1952219
0.1930677
0.1927087
0.1922032
0.1031117
0.2114588
0.2082357
0.2066284
0.2058582
0.2057282
0.1115158
0.2255851
0.2223896
0.2199977
0.2196075
0.2190921
0.1178609
0.2388622
0.236383
0.2344539
0.2335342
0.2330159
0.1237208
0.2527846
0.2504696
0.2487077
0.2476502
0.2469772
0.1311439
0.2667499
0.2646758
0.2631356
0.2622962
0.2612036
0.1435975
0.2808113
0.2794838
0.2779585
0.2773367
0.2758064
0.1535436
0.2952491
0.2942379
0.2929542
0.2922769
0.290728
0.1609323
0.3100664
0.3094726
0.308015
0.30756
0.3058545
-0.0007252235
-0.007600065
-0.006117543
-0.001220975
-0.002638292
-0.001520499
-0.1102519
-0.01742038
0.03550935
0.001852847
0.01492228
0.01461506
-0.0003263111
0.009073094
0.02075877
0.02018103
0.02552246
0.02815637
-0.08444023
0.03965719
0.04709748
0.04475713
0.04364266
0.04421751
-0.00801042
0.05423584
0.05745851
0.05770699
0.0563323
0.05438055
0.02339916
0.06965848
0.070024
0.07156903
0.06780961
0.0686499
0.03241612
0.08695812
0.08158914
0.0817682
0.07899579
0.07914801
0.05189489
0.09952227
0.09215861
0.09345205
0.0899342
0.09114185
0.07316348
0.1097572
0.1026779
0.1054574
0.1022743
0.1034831
0.08248097
0.1206561
0.1142564
0.1177758
0.115165
0.1159302
0.07897726
0.1323005
0.1275032
0.1307978
0.128446
0.1286044
0.07147981
0.1447745
0.1409067
0.1428854
0.1406971
0.1405784
0.07560276
0.158438
0.1541702
0.1540894
0.1529345
0.1525993
0.08396266
0.17001
0.1687309
0.1668819
0.1661397
0.1653516
0.09443013
0.1833668
0.1816478
0.1804393
0.1792305
0.179172
0.1002122
0.1977209
0.1951884
0.1931039
0.1927527
0.1922533
0.1072271
0.2113032
0.2080147
0.2067193
0.2058514
0.2057381
0.1144991
0.2254765
0.2223771
0.2199286
0.2196257
0.2191872
0.1236418
0.2389229
0.2363452
0.2345335
0.2335449
0.2330731
0.1330604
0.2527642
0.2500702
0.248629
0.2475951
0.247047
0.1409288
0.2674582
0.2648805
0.2630385
0.2623297
0.2612374
0.1479205
0.2807531
0.2797581
0.2780139
0.277342
0.2759466
0.1541112
0.2951693
0.2944029
0.2929105
0.292233
0.2908491
0.1616523
0.3099414
0.3095392
0.3079993
0.307593
0.3059647
0.005819594
-0.006840932
-0.006114502
-0.0008731219
-0.002930627
-0.0007678934
-0.1133203
-0.02088567
0.03759207
0.002074357
0.01942242
0.01541584
-0.01089226
0.01527992
0.02929093
0.01823897
0.02756937
0.02853307
0.02897244
0.03705018
0.04616905
0.04649753
0.04255755
0.04439927
0.01438568
0.05358622
0.05658502
0.05711436
0.05482364
0.05416545
0.01483765
0.0691499
0.06873128
0.07092491
0.06752302
0.06850141
-0.006328646
0.08442299
0.07986504
0.08213888
0.07884703
0.07882497
0.03182017
0.09752744
0.09062323
0.09342862
0.09076421
0.09133784
0.06670234
0.1094652
0.1009811
0.10461
0.1026266
0.1037433
0.08211994
0.1203829
0.1135043
0.1167869
0.1154654
0.116821
0.07285723
0.1335763
0.1268165
0.1300822
0.1281962
0.1286878
0.05501119
0.1483317
0.1407167
0.1428397
0.1407309
0.1406366
0.06822079
0.1601728
0.1554016
0.1554612
0.1536336
0.1535512
0.08205586
0.1722425
0.1682485
0.1682621
0.1664811
0.1665507
0.09383801
0.1859985
0.1813764
0.1807317
0.179344
0.1790779
0.1015597
0.1988496
0.1954583
0.1932627
0.1923092
0.192455
0.1086866
0.2127894
0.2093383
0.2065055
0.2056584
0.2060262
0.1158435
0.22673
0.2234143
0.219867
0.2191168
0.2195421
0.12523
0.2402228
0.2370927
0.2339281
0.2330837
0.233223
0.1406412
0.2540798
0.2511018
0.2482253
0.2473042
0.2469494
0.1443703
0.2690209
0.2655695
0.2629309
0.261812
0.2611463
0.1458783
0.2836278
0.2803763
0.2777631
0.2765377
0.2757022
0.1528168
0.2982922
0.2955524
0.2926361
0.2914458
0.2904103
0.1613335
0.3131249
0.3110551
0.3078634
0.3066554
0.3056133
0.006356641
-0.004561237
-0.005230257
-0.001978515
-0.002942566
-0.001307823
-0.1365416
-0.0125461
0.04931085
0.005572562
0.0249841
0.01543404
-0.02947619
0.01434692
0.03350427
0.02157021
0.02895364
0.02829006
0.05076741
0.02831691
0.05139989
0.04273658
0.04474161
0.04292698
0.02994734
0.05659306
0.0580278
0.05426788
0.05325475
0.0539036
0.02440275
0.07367198
0.06823326
0.06815865
0.06684141
0.06799554
0.01356652
0.09000378
0.07901855
0.08084583
0.07815682
0.0787401
0.01017302
0.1014073
0.09024877
0.09369658
0.09111821
0.09197089
0.05439344
0.1098918
0.1022471
0.1059643
0.1032758
0.1038455
0.07266133
0.1217671
0.1149202
0.1181928
0.115649
0.1161094
0.07471644
0.1333324
0.1285971
0.1305911
0.1283882
0.128162
0.07431616
0.1457792
0.1419171
0.1427453
0.140911
0.1406464
0.08088486
0.1587806
0.1550719
0.1549698
0.1533593
0.1532955
0.08047164
0.1704085
0.1688482
0.1676992
0.1661602
0.1661337
0.09307985
0.1833265
0.1813746
0.1804499
0.1794182
0.1792599
0.1021565
0.1977264
0.194958
0.1935768
0.1928103
0.1925745
0.1097126
0.2116131
0.208609
0.2071131
0.2063285
0.2059402
0.116642
0.2256463
0.222682
0.2207848
0.220055
0.2195084
0.1246539
0.2397282
0.236794
0.2347144
0.2340114
0.2333008
0.1324808
0.2543828
0.2512392
0.248833
0.2482302
0.247291
0.1442891
0.2684521
0.2660499
0.2632573
0.2628466
0.2615874
0.1483004
0.2824786
0.2809799
0.278033
0.2777294
0.2762306
0.1547553
0.2969078
0.2960068
0.293028
0.2929461
0.291318
0.162674
0.3118099
0.3112671
0.3084494
0.3080992
0.3063988
0.006277323
-0.005494665
-0.004706038
-0.00235876
-0.002156
-0.001746399
-0.1103045
0.0007064911
0.04842242
0.01200955
0.02370737
0.01879497
-0.0363836
0.01170194
0.0409308
0.02733634
0.03305022
0.03076253
0.0098785
0.03660618
0.04660506
0.04313315
0.04333365
0.04478158
0.02141181
0.05644141
0.05408981
0.05451514
0.05405532
0.05397342
0.03037372
0.07143566
0.06532456
0.06712264
0.06630721
0.06627688
0.03501835
0.0840476
0.07637206
0.07942008
0.07824068
0.07803925
0.03803829
0.09568543
0.08810947
0.09217679
0.09044448
0.09035707
0.05227538
0.1069585
0.1005415
0.1045554
0.1027115
0.1026168
0.07522378
0.1187638
0.1138714
0.1169518
0.1153037
0.1153819
0.06717918
0.1317678
0.1272997
0.1291399
0.1280551
0.127942
0.07137191
0.14376
0.1405032
0.1415892
0.1408171
0.1405039
0.07978944
0.1562413
0.1537871
0.1542517
0.1537748
0.1534122
0.08623695
0.1689064
0.1669718
0.1672389
0.1667995
0.1664945
0.09467468
0.1819893
0.1801993
0.1802462
0.1798001
0.1795832
0.1030199
0.1951415
0.1935845
0.1935897
0.1930907
0.1927809
0.1105863
0.2085089
0.2071983
0.2070741
0.2065392
0.2060801
0.1178531
0.2221099
0.2209835
0.2207981
0.2202086
0.2195722
0.1255486
0.2358784
0.2350254
0.2347952
0.2341033
0.2332767
0.1341027
0.2496921
0.2492377
0.2490359
0.2482546
0.2472344
0.1411853
0.2637958
0.2636583
0.2634282
0.2626291
0.2614275
0.1491716
0.2782579
0.2783462
0.2780855
0.2772566
0.2759802
0.1574992
0.2932004
0.2933469
0.2928764
0.2919913
0.290542
0.1691882
0.3085589
0.3087689
0.3082272
0.307048
0.3057618
0.01518642
-0.002543363
0.002216259
-0.0002508304
-0.000160426
0.001191098
0.03427348
0.008281995
0.02662028
0.02008472
0.02282004
0.02154964
0.02154044
-0.08389303
0.02902705
0.02929348
0.02820164
0.02933795
0.02921323
0.02958967
0.02390937
0.04011985
0.03913668
0.03750269
0.03995952
0.03997394
0.04089415
0.03000055
0.05301699
0.05200255
0.04977846
0.05126547
0.05102535
0.05100659
0.03035577
0.06416889
0.06542953
0.06445475
0.06427507
0.06412665
0.0636197
0.02915696
0.07554094
0.07814232
0.07781229
0.07678934
0.07620681
0.07545695
0.0246347
0.08643265
0.08916743
0.09058793
0.08934749
0.08868148
0.08794508
0.006445747
0.1007329
0.1010343
0.1024787
0.1017362
0.1008718
0.1000774
0.007590669
0.1130927
0.1133224
0.114275
0.113872
0.1132025
0.1125142
0.009229058
0.1251621
0.1261604
0.1265776
0.1263393
0.1255848
0.1249398
0.01057192
0.1383982
0.1395978
0.1391875
0.138973
0.1381646
0.1375172
0.0122778
0.1518973
0.1525677
0.1520066
0.1516655
0.1508097
0.1501781
0.01411668
0.16486
0.1653963
0.1646823
0.1644835
0.1636584
0.1630296
0.01527221
0.177821
0.1784209
0.1776896
0.1774952
0.1767078
0.1760397
0.01650465
0.1913144
0.1916779
0.1909527
0.1908225
0.1899739
0.1892086
0.01811201
0.2051011
0.2053291
0.2045373
0.2043472
0.2033985
0.2025269
0.01974529
0.2190532
0.2192092
0.2183266
0.2180942
0.2170102
0.2160222
0.02120835
0.2331671
0.2333503
0.2323512
0.2320466
0.2308245
0.22971
0.02240456
0.2475072
0.2476988
0.2465503
0.2462069
0.2448478
0.243604
0.02379415
0.2619295
0.2622116
0.2610274
0.2606015
0.2591189
0.2577288
0.02513841
0.2766301
0.2769834
0.2757702
0.2752741
0.2736696
0.2721037
0.02651289
0.29173
0.2921388
0.2908826
0.2902711
0.2885924
0.2868017
0.02795015
0.3132631
0.3077835
0.3063611
0.3056057
0.3039228
0.3018831
-0.004351904
-0.0364811
-0.001208629
0.005194191
0.004929707
0.02067277
0.03413589
0.02214603
0.06716994
0.01816398
0.02815273
0.02475807
-0.08377334
0.03696997
-0.0007171418
0.03795539
0.05391673
0.037579
0.02404485
0.04074048
-0.0003920566
0.04416126
0.0696953
0.0509512
0.03005025
0.04978513
0.001672456
0.0538012
0.08293704
0.06473023
0.03042747
0.05935197
0.00388405
0.06542217
0.09583816
0.07845016
0.02917689
0.06941631
0.00491471
0.07672241
0.1069689
0.09065726
0.02463569
0.07964117
0.01102937
0.08912677
0.119036
0.1028503
0.006460095
0.09409893
0.01331696
0.1027898
0.1308173
0.1155422
0.007602165
0.1076742
0.01550815
0.1157011
0.1428588
0.1294851
0.00923584
0.1207214
0.01703422
0.1280883
0.15621
0.1439929
0.01056987
0.1340293
0.01932755
0.1407967
0.1695537
0.1579427
0.01228276
0.1465829
0.02148851
0.1534758
0.1824967
0.1720101
0.01413586
0.1587228
0.02279396
0.16615
0.195695
0.1860935
0.01529744
0.1712778
0.02412058
0.1789831
0.2093878
0.2003433
0.01651723
0.1842505
0.02550143
0.1919556
0.2232247
0.2146732
0.0181064
0.197367
0.02695134
0.2051404
0.2370996
0.2291461
0.0197388
0.2106249
0.02824786
0.2184819
0.2512168
0.2437599
0.02120134
0.223954
0.02942845
0.2318745
0.265493
0.2585406
0.02241309
0.2374508
0.03071008
0.2453509
0.2799622
0.273541
0.02368534
0.2511165
0.03202389
0.2591926
0.2946766
0.2888109
0.02508742
0.26505
0.03335644
0.2733985
0.3096141
0.3044215
0.02647778
0.2793784
0.0347047
0.2879553
0.324836
0.2974803
0.02792336
0.2942215
0.03619115
0.3028659
-0.02441177
-9.183559e-05
0.03032799
-0.01550563
-0.0194967
-0.001830502
-0.01245456
-0.002648052
0.03165474
-0.01057826
-0.03278649
0.03947709
-0.02103615
-0.0006869682
0.03351977
-0.01244497
-0.03168492
0.04697698
-0.02201779
-0.0005659891
0.03370574
-0.01255542
-0.0005639841
0.04650776
-0.02192338
-0.02952004
0.01727703
-0.01556313
-0.0005139065
0.05186812
-0.01729357
-0.03225879
0.03827936
-0.01745689
-0.0006954807
0.03520655
-0.01319689
-0.03065963
0.04397454
-0.01520915
-0.002473237
0.0282879
-0.01377425
-0.02012589
0.000950451
-0.02401917
-0.0001629546
0.03090959
-0.03590703
-0.001204922
0.004473668
-0.004316428
-0.003374641
0.009495141
-0.01382576
0.01267105
-0.02975125
-0.002853612
0.02555228
0.007421518
0.01313368
-0.008457399
-0.00194367
0.01903873
-0.0009018207
0.01455409
-0.0164874
-0.001870948
0.02001863
0.004044402
0.01551296
-0.01288836
-0.0001934344
0.01900468
0.00229425
0.01463813
-0.01512129
0.01944846
0.01479425
0.02217541
0.06700907
0.01803966
0.00493119
0.02024128
0.03680779
-0.0007231632
0.03784127
0.02803783
0.02467347
0.0405759
-0.0004035437
0.04407742
0.05380332
0.03745446
0.05926204
0.00388284
0.06536813
0.0828643
0.06468356
0.06936392
0.004917275
0.07668817
0.09579225
0.07841215
0.07961137
0.01101597
0.08909404
0.1069409
0.09061692
0.09407166
0.01329692
0.1027499
0.1190281
0.1028459
0.1076419
0.01549251
0.1156888
0.130806
0.1155304
0.12072
0.01701594
0.1280852
0.1428321
0.1294752
0.1340185
0.01930054
0.1407844
0.1562166
0.1440014
0.1466019
0.02145128
0.1534728
0.1695389
0.1579297
0.1712829
0.0241067
0.1789907
0.1956807
0.1860955
0.1842532
0.02550494
0.191961
0.2093908
0.2003546
0.1973714
0.02696128
0.2051534
0.2232345
0.2146905
0.2106334
0.02826424
0.2185007
0.2371176
0.2291651
0.2239628
0.02944499
0.2318776
0.2512371
0.2437827
0.2374637
0.03082005
0.2453885
0.2655177
0.2585614
0.2511554
0.03206637
0.259234
0.2799887
0.273584
0.2650926
0.03338454
0.2734503
0.2947223
0.2888651
0.2794313
0.03472145
0.2880228
0.3096708
0.3044981
0.2942915
0.03620417
0.302951
0.3249061
0.2975093
0.01101516
-0.00414804
0.01659867
0.01868657
-0.002374981
0.01131093
0.01133581
0.02083145
0.03072249
0.009232049
0.02333244
0.03393279
0.01575182
0.01804936
0.02929182
0.04638925
0.02406252
0.02690397
0.03625859
0.05540677
0.02881282
0.03790669
0.04122854
0.06343585
0.03540492
0.04937474
0.04805802
0.07431072
0.044191
0.06445651
0.05696893
0.08916437
0.05562973
0.07799891
0.06684378
0.1023109
0.06830011
0.0914911
0.07718768
0.1154314
0.0778777
0.1051293
0.08587814
0.1276584
0.08601238
0.1172751
0.09455605
0.1393201
0.09440346
0.1291677
0.1031908
0.1508452
0.1030827
0.1408951
0.1111966
0.1623935
0.1115584
0.1527083
0.1193786
0.1742355
0.1200824
0.1646526
0.1273226
0.1856037
0.1286809
0.1760954
0.1354012
0.1971064
0.1372089
0.1878276
0.1435656
0.208742
0.1456167
0.1996625
0.1516686
0.2204282
0.1539876
0.2116597
0.1598293
0.2324268
0.1624668
0.2238629
0.1683098
0.2447659
0.1710057
0.2363818
0.1770273
0.2573625
0.1799669
0.2491138
0.1859372
0.2702362
0.1892324
0.2622829
-0.0007487967
-0.01128823
-0.03020035
-0.0006600464
-0.02641404
0.02312493
-0.01605932
0.01983634
-0.0009653977
-0.01198904
0.02224136
-0.02166888
0.01480472
-0.02867328
-0.009043598
-0.02341184
0.0002814868
0.01389797
0.04966891
0.001655101
0.05371029
0.06965344
0.05087237
0.1587089
0.02276242
0.1661439
0.1824969
0.1719996
0.01822552
0.0001739489
-0.001577971
-0.008700866
0.0004999772
0.01653674
0.003107862
0.00519265
-0.007889258
0.01716811
0.01200436
0.01558262
0.02052456
0.02643704
0.02008349
0.02872614
0.0288876
0.03900164
0.0244652
0.03802487
0.0353395
0.04593292
0.030655
0.04820067
0.04217031
0.05714837
0.03960613
0.06165353
0.04632568
0.0641561
0.04791834
0.07519155
0.05425015
0.07966691
0.05674438
0.08914776
0.06381731
0.09204326
0.06610206
0.1035794
0.07647094
0.1033948
0.07826523
0.1163149
0.08467486
0.1153728
0.08697515
0.1283324
0.09376018
0.1267557
0.09549681
0.1400057
0.1027463
0.1380969
0.1039217
0.1516965
0.1109537
0.1491171
0.112276
0.1637436
0.1191397
0.1600753
0.1210052
0.1757439
0.1275944
0.1711301
0.1296617
0.1876165
0.1358647
0.1821255
0.1382156
0.1994957
0.1441348
0.1936553
0.1466253
0.2113785
0.1523253
0.2052834
0.1549974
0.223346
0.16055
0.2169459
0.1634106
0.2355259
0.168974
0.2288433
0.1719114
0.2479742
0.1775136
0.2412835
0.1804665
0.2607556
0.1860874
0.2540901
0.1891592
0.1150039
0.2672785
0.194846
-0.00979925
-0.01816263
0.01251545
-0.03266119
0.02076473
-0.01642938
-0.009640401
0.01410401
-0.0216901
0.02048888
-0.03265623
0.02270247
-0.03453986
0.002911256
-0.001666803
-0.01030443
0.01160765
0.001136111
-0.02536025
-0.02390751
-0.02122785
0.009268056
0.01677983
0.0007789336
-0.001411061
-0.007637424
0.01134213
-0.01670896
0.02201897
0.0006262541
0.01772116
-0.01231444
-0.009626857
-0.002895149
0.007198852
-0.005901064
0.01867199
-0.003593737
0.01856512
-0.009099074
-0.001549006
-0.003172589
0.005079058
-0.004795209
0.01989343
-0.007207826
0.01654011
-0.01010159
-0.005803157
-0.006799023
0.005886027
-0.004515446
0.0189897
-0.006866201
0.01758044
-0.01032629
-0.003739711
-0.005313276
0.004590444
-0.004115251
0.01927897
-0.007603097
0.0170984
-0.01164993
-0.004291199
-0.00565947
0.00449257
-0.003936045
0.01962184
0.01667516
0.01895768
-0.002511138
0.0113866
0.003152763
0.005118241
-0.007975181
0.01731825
0.01127523
0.02068695
0.03065064
0.009121524
0.01191745
0.01547077
0.02044183
0.02628952
0.02324728
0.03380364
0.01564099
0.01793376
0.01998631
0.02869557
0.0287772
0.03889559
0.03622622
0.0552888
0.02872451
0.03784651
0.03059609
0.0481487
0.04214335
0.05706086
0.04121422
0.06336518
0.03535013
0.04932581
0.0395703
0.06162287
0.04631166
0.0640921
0.04804999
0.07426967
0.04414849
0.06443149
0.04790724
0.07517192
0.05424937
0.07963792
0.07709682
0.1154594
0.07781168
0.1051278
0.07825769
0.1163272
0.08466149
0.1153734
0.09445588
0.1393394
0.09438207
0.1291799
0.09547849
0.1400005
0.1027138
0.1381161
0.1111657
0.1623946
0.1115446
0.1527111
0.1122797
0.1637391
0.1191335
0.1600732
0.1193748
0.1742327
0.1200863
0.164654
0.121008
0.1757488
0.1275962
0.1711312
0.1273332
0.1856095
0.1286829
0.1761056
0.129667
0.1876282
0.1358783
0.1821361
0.1354069
0.1971209
0.137214
0.1878407
0.1382156
0.1995059
0.144144
0.1936683
0.1435887
0.2087513
0.1456224
0.1996785
0.1598502
0.2324592
0.1624764
0.2239091
0.1634322
0.2355679
0.169014
0.2288868
0.1683546
0.2448133
0.1710386
0.2364435
0.1719483
0.2480206
0.1775546
0.241337
0.1770665
0.2574133
0.1800049
0.2491789
0.1805052
0.260817
0.1861309
0.2541491
0.185961
0.2702968
0.1892757
0.2623554
0.1891687
0.1254676
0.2673538
0.1948365
0.002084308
0.01861674
0.01304726
-0.02960736
0.01418479
-0.00336315
0.009605489
-0.01392189
0.00151589
0.00313063
-0.01335953
0.00155226
-0.001826304
-0.003830183
0.001495433
-0.0069015
0.0001926655
-1.05408e-07
9.221982e-05
-0.0001894199
0.0001026105
5.605045e-05
-0.0007012015
-0.01468519
-0.0001171666
0.005534275
-0.02562207
-0.02414184
-0.02094293
0.00921418
0.0004422048
0.003218207
0.003531057
-0.001054516
0.00293092
-0.006515638
-0.0008299703
-0.005493949
-0.001627862
-0.002283172
-0.0009413681
-0.0008827871
-0.002498285
0.0003245194
-0.01894253
-0.001856052
0.00439189
-0.00218329
0.002911867
0.008176487
0.006013635
-7.227509e-07
0.002379127
0.00576767
0.001310543
-0.007094779
0.001375507
-0.01755629
0.00594333
0.0003737776
0.001311565
0.00567577
0.00288261
-0.0007301301
-0.001590318
0.002550166
0.004790708
0.0007701746
0.002119341
0.00134908
0.003027807
-0.001154512
0.001681509
-0.001932101
0.004992928
0.0007981318
0.002364106
0.00105247
0.002882691
-0.001087259
-0.002017738
0.002251482
0.004915197
0.0007302476
0.002070153
0.001048731
0.004735759
0.0007200935
0.001975862
0.0006952244
-0.0006880315
-0.03166064
-0.0003823862
-0.00245007
-0.0007902434
0.0007436192
-0.0002267252
0.0006839929
0.0008330888
0.0003521876
0.000793556
-0.0005360817
-0.0001581178
0.001760872
-0.001411066
0.00834942
0.0006580446
0.005697032
0.002026734
-0.0007172073
0.0001941011
0.002821822
0.0004499238
0.007308174
0.0002572039
0.002334064
0.0009105604
0.002755826
0.000844428
0.002773924
0.002155549
0.002544821
0.0004541104
0.001781952
0.002834276
0.0008744713
0.002163923
0.003490351
0.003079726
0.0034406
0.05698295
0.08912617
0.05566708
0.07802404
0.08594353
0.1276504
0.08603837
0.1173196
0.08698299
0.1283914
0.09373964
0.1267629
0.005809018
0.008544884
0.00751667
0.008129313
0.005718751
0.00794657
0.009624088
0.006513995
0.006226532
0.009038275
0.008068881
0.008563657
0.006127731
0.008491328
0.01012418
0.007074606
0.006704445
0.009603416
0.008591211
0.009031722
0.007191468
0.01011968
0.009106207
0.009470308
0.1466657
0.2114227
0.1524178
0.2052918
0.1516796
0.2204739
0.1540306
0.2117003
0.1550039
0.2233595
0.1605084
0.2170089
0.008121044
0.01113021
0.01014257
0.01031975
0.008653309
0.01170277
0.01068603
0.01082662
-0.0008504661
0.03555044
-0.02067522
0.03456633
0.04204587
-0.009167348
0.002924704
-0.01560715
-0.005733203
9.358115e-06
-0.002252502
-0.003501606
0.00203014
-0.001932912
-0.0003381186
-0.0009651015
5.053996e-05
-0.001178955
0.0009416934
-1.37097e-05
-0.0003122165
0.00153173
-0.01449939
0.002482802
-0.0003454522
-0.003707324
0.0003838161
0.000510453
0.04637525
0.0239654
0.02657225
0.02923759
0.03793603
0.03528907
0.04562826
0.02437084
0.1508311
0.1030983
0.1409272
0.103226
-4.090969e-05
-0.001108422
-0.001616559
-0.003848137
-0.008152517
-0.001182755
-0.0063575
-0.001939187
-0.002038988
0.001351838
-0.002028215
-0.000710711
0.002441846
-0.0005749568
-0.0004210864
-0.01235869
-0.004608086
-0.003264116
-0.00680662
0.0005103664
0.002429531
0.03365534
0.02894824
-0.01491726
0.04160096
-0.001089756
-0.004432387
0.002496171
0.005017131
-0.001118573
0.002234788
0.003181257
0.005405281
0.0004281681
0.00346002
0.003925149
0.004888474
0.001092605
0.005152149
0.001603547
0.004591781
0.0001570603
0.003323782
0.002519083
0.003596974
0.001014314
0.0009890696
0.003756188
0.004637826
6.178047e-05
0.003335372
0.001828838
0.003549318
0.001100934
0.003589779
0.001138767
0.004535504
0.003250503
-0.002075114
0.0001730812
-0.01055135
0.00293068
-0.00299133
-0.003358062
-0.000491311
0.0003180775
-0.000760612
0.00108435
0.004164758
-0.002751653
0.0008041473
0.003930219
-0.001267955
0.001400532
0.0001865379
0.002345083
0.008496449
-0.0007256472
0.0009841119
0.005250806
-0.000599465
0.002550383
0.0003114408
0.002729115
0.002483564
0.000836973
0.0003828572
0.001522274
0.0006873638
0.002737819
0.001986369
0.002721217
0.001580501
0.003368273
0.005837945
0.007662777
0.006604444
0.007792131
0.005310878
0.007091899
0.006376716
0.007845948
0.006263041
0.008222444
0.007074254
0.008213585
0.005718262
0.00760806
0.00676538
0.008348234
0.00669273
0.008783893
0.007651342
0.008667331
0.00613828
0.008189031
0.00719039
0.00884561
0.00713371
0.009336657
0.008234804
0.009083082
0.008025856
0.01045182
0.009411955
0.009969206
0.0074409
0.009875706
0.00856089
0.01035221
0.008524521
0.01100977
0.01001835
0.01043217
0.02953108
0.3083285
0.02950631
0.3095248
0.309606
0.3083631
0.1199553
0.1985784
0.1258704
0.1986445
-0.01695227
0.02187891
0.01125883
0.0007765141
0.01329771
-0.008449867
-0.002595528
-0.002266794
0.02516121
0.007278071
0.01461454
-0.01640551
0.002465787
-0.001971779
0.01894826
-0.0009062607
0.01556321
-0.01288199
-0.0002163754
-0.00187209
0.020011
0.004047507
0.01463659
-0.01509139
-0.0001704813
-0.0002073763
0.01901651
0.002274263
0.0148003
0.001186587
0.01945625
-0.0008158696
-0.02987776
-0.002823176
-0.0003590667
0.0008731034
0.0003737327
-0.0005089384
0.0007939922
0.0006981555
0.005747713
-0.0006736876
0.002027399
0.0008211298
0.00425253
0.0001107481
0.00283469
0.0002776455
0.002363253
0.0009345659
0.002755703
0.0004659762
0.001797768
0.000889226
0.002834165
0.0009525767
0.002570177
0.002026517
0.003174371
0.001935419
0.003003723
0.002372575
0.003510436
0.002511119
0.00426534
0.003837271
0.00406561
0.003241142
0.004809664
0.004886667
0.004514465
0.003994823
0.005676072
0.005585033
0.005030806
0.004581559
0.006501338
0.006336575
0.005629232
0.004984977
0.007219381
0.00701961
0.006241854
0.005303587
0.007897075
0.007627883
0.00687743
0.005809468
0.008544282
0.008128853
0.007516744
0.00622141
0.009032025
0.00855845
0.008069097
0.006695898
0.009595039
0.009022869
0.008590327
0.007188975
0.01011063
0.009464238
0.009106099
0.007657155
0.0106238
0.009881311
0.009615491
0.008103025
0.01111556
0.01029726
0.01014094
0.008633361
0.01168366
0.01080795
0.01068375
0.009180757
0.0122857
0.0113621
0.01125317
0.009716062
0.01292859
0.01194848
0.01184457
0.005930362
-0.0001885754
0.002567433
0.005035923
0.0001658204
-0.007070627
0.0007024476
-0.0155806
-0.0007690337
0.0007492988
-0.0001862734
0.0007789287
-9.682603e-05
0.001761615
-0.001343282
0.00840726
0.0002147033
0.002823981