/*--------------------------------*- C++ -*----------------------------------*\
  =========                 |
  \\      /  F ield         | OpenFOAM: The Open Source CFD Toolbox
   \\    /   O peration     | Website:  https://openfoam.org
    \\  /    A nd           | Version:  7
     \\/     M anipulation  |
\*---------------------------------------------------------------------------*/
FoamFile
{
    version     2.0;
    format      ascii;
    class       volScalarField;
    location    "0.1";
    object      Uz;
}
// * * * * * * * * * * * * * * * * * * * * * * * * * * * * * * * * * * * * * //

dimensions      [0 1 -1 0 0 0 0];

internalField   nonuniform List<scalar> 
109978
(
-0.0005436919
-0.003287772
-0.002540035
-0.001874981
-0.001929752
-0.001756478
0.004087742
-0.00509734
-0.005364677
-0.003339991
-0.003713349
-0.003394017
0.002440268
-0.004665293
-0.005544131
-0.003223483
-0.003541116
-0.003288682
0.002641066
-0.004408393
-0.006335753
-0.003480981
-0.004004941
-0.003665698
0.002403582
-0.004260212
-0.006366321
-0.0037185
-0.0048324
-0.003973714
0.003456279
-0.003928
-0.006252775
-0.00381697
-0.004939601
-0.0041435
0.003331197
-0.003468941
-0.00633062
-0.003949766
-0.00501467
-0.004313704
0.002631038
-0.003266945
-0.006545108
-0.004089329
-0.005098478
-0.004475178
0.002276701
-0.0031164
-0.006737048
-0.004226537
-0.00520212
-0.004634019
0.002035248
-0.0027121
-0.00688234
-0.004398001
-0.005323198
-0.00479063
0.001576181
-0.001663298
-0.006934995
-0.004568232
-0.005456975
-0.004943139
0.001515266
-0.001471356
-0.006999197
-0.004728326
-0.005621132
-0.005108748
0.001542625
-0.001597273
-0.007113342
-0.004905998
-0.005785102
-0.005269483
0.001573396
-0.001760205
-0.007271149
-0.005070465
-0.005940973
-0.005421566
0.001577115
-0.001925277
-0.007427859
-0.005224299
-0.006082949
-0.005564825
0.001502145
-0.002085965
-0.007576848
-0.005366579
-0.006216987
-0.005698166
0.00136375
-0.002255636
-0.007716247
-0.005497506
-0.006339574
-0.00582239
0.001220848
-0.002412424
-0.007844432
-0.005616225
-0.006452344
-0.005936742
0.001090426
-0.002561735
-0.007965843
-0.005722122
-0.006555002
-0.006039758
0.0009886336
-0.002719309
-0.00808528
-0.005817303
-0.006649448
-0.006133413
0.000857127
-0.002861487
-0.008202677
-0.005903111
-0.006734844
-0.006216041
0.0006865877
-0.00304266
-0.008305752
-0.005977341
-0.006813486
-0.006290128
0.002587754
-0.003334623
-0.008388766
-0.006043897
-0.006887696
-0.006357615
0.01134737
0.008383798
0.01238573
0.01144851
0.009880814
0.01078277
-0.04341238
-0.01915995
0.02610667
-0.005970685
0.005180274
0.000776991
-0.08982516
-0.03860179
0.03080633
-0.01487892
0.004596979
-0.00339128
-0.093062
-0.04101202
0.01899942
-0.01361423
0.001684601
-0.0009032984
-0.08306187
-0.03687186
0.01570865
-0.01433706
-0.001494594
-0.002836007
-0.07287682
-0.03385299
0.01635753
-0.01367776
-0.0001634733
-0.001729028
-0.06530647
-0.03093825
0.02055002
-0.01323445
0.0008845231
-0.002081465
-0.0594314
-0.02559048
0.02000779
-0.01190916
0.001848854
-0.001514342
-0.05105058
-0.02329655
0.01976017
-0.01053963
0.003179687
-0.001385014
-0.04261074
-0.02226542
0.01745712
-0.009744486
0.00368172
-0.001152615
-0.03953618
-0.02392588
0.01742152
-0.008446959
0.004204128
-0.001266528
-0.03667551
-0.0232536
0.01757111
-0.007824668
0.004362421
-0.001362905
-0.03482359
-0.02262748
0.01914612
-0.007374864
0.004561121
-0.001528128
-0.03396541
-0.02297364
0.01925207
-0.007774333
0.004558183
-0.001666251
-0.03256928
-0.02533111
0.01997861
-0.007823275
0.004138209
-0.001776086
-0.03134941
-0.02665001
0.01978789
-0.008160785
0.004234546
-0.001788944
-0.03035632
-0.02761403
0.01996413
-0.008272312
0.00422491
-0.00182372
-0.02948128
-0.02837345
0.01983396
-0.008518858
0.004372635
-0.001877499
-0.02869402
-0.02924331
0.02022608
-0.008794824
0.004581939
-0.001942993
-0.02791483
-0.02952397
0.02060322
-0.00909618
0.004745408
-0.002016994
-0.02708954
-0.02983549
0.02105242
-0.009302387
0.004946041
-0.002122938
-0.02652891
-0.03098387
0.02153356
-0.00944849
0.005194514
-0.002222531
-0.02618283
-0.03243607
0.02211646
-0.009552947
0.005529903
-0.002266118
-0.03359314
-0.03396193
0.02280755
-0.009669635
0.00597181
-0.002284996
0.003204751
0.001592243
0.001098185
0.0003436385
0.001188353
0.001858284
-0.002310899
-0.02379661
0.007239578
-0.003434386
0.003504602
0.0007043646
-0.04597471
-0.01098374
0.001172194
-0.01162298
-0.003911947
-0.002923807
-0.01213559
-0.01761944
-0.001821625
-0.01200864
-0.002325466
-0.001762861
0.002301892
-0.01541292
-0.002690719
-0.009828451
-0.002257694
-0.002841452
0.0008356633
-0.01604264
-0.001309614
-0.009616888
-0.0006524533
-0.003056218
-0.0003160755
-0.01526327
0.001079206
-0.008258357
-0.0003778278
-0.002301014
-0.003084129
-0.01530397
0.002914074
-0.007493666
-0.0003164649
-0.001982343
-0.004896357
-0.01369197
0.003400113
-0.006968067
-0.0004622904
-0.001221126
-0.005048099
-0.01273635
0.002594554
-0.006771986
-0.0008482433
-0.0005687418
-0.005196762
-0.01346253
0.002151462
-0.006027154
-0.0001411634
0.000445795
-0.002778399
-0.01361933
0.001571688
-0.005345648
0.0004400007
0.00030106
0.0006749724
-0.01458721
0.001641706
-0.004923201
0.0006326288
1.335905e-05
0.001975946
-0.01489609
0.002831004
-0.004689475
0.0007776064
0.0001194648
0.004509471
-0.0146355
0.002921987
-0.004300117
0.001173817
0.0002265392
0.005748338
-0.01537532
0.003729487
-0.004364903
0.0009617581
0.0004967653
0.00640434
-0.01590138
0.004149333
-0.004265191
0.001025128
0.0007035027
0.007204325
-0.01636598
0.004977995
-0.004472443
0.0009104003
0.0007557691
0.007608346
-0.01650353
0.005647892
-0.004575956
0.0007875246
0.0009060563
0.007933249
-0.01716966
0.006338913
-0.004465602
0.0007357158
0.0008731715
0.009490543
-0.01858829
0.006791878
-0.004257304
0.0007917671
0.0007811976
0.009968096
-0.0191323
0.007422112
-0.003966393
0.00103088
0.000754261
0.009594567
-0.01942621
0.008038445
-0.003774388
0.001245977
0.0007753507
0.009065871
-0.01985303
0.008708781
-0.003693723
0.001374442
0.0008063072
0.0008820198
0.0002941211
-0.004479795
0.0004877677
9.381555e-05
0.0004486792
0.004831852
-0.01583409
0.003029551
-0.001617145
0.0008406789
0.002743688
-0.002898874
-0.01446254
0.005521551
-0.006060042
0.00357614
-0.0002895644
0.002306421
-0.007016277
-0.0008386436
-0.004747376
-0.00225205
0.0004792486
0.002399142
-0.01486597
0.002622378
-0.002295075
0.0008770851
0.0005894513
0.001787937
-0.01336627
0.005569154
-0.0007863381
0.0003506059
0.001407712
0.0004641114
-0.01051711
0.006396693
-0.00098656
0.001401714
0.001192995
-0.002018078
-0.0107046
0.00567702
-0.0008843097
0.001345521
0.0007795028
-0.002141436
-0.01053625
0.006951321
-0.0008987895
0.000876129
0.0007897481
-0.001265763
-0.007968564
0.005995057
-0.001430164
0.00027904
0.0004988368
-0.0005427737
-0.005778625
0.004941448
-0.001616369
-0.0001210298
0.0007673751
0.001057927
-0.008415002
0.003606906
-0.002176472
0.0003884317
0.001044064
0.003652423
-0.009830401
0.003028561
-0.002511397
0.0008676027
0.0007527127
0.006288158
-0.009952724
0.002650647
-0.002578508
0.0005061831
0.0003097511
0.009075713
-0.01359411
0.003168894
-0.002739104
0.0007357022
0.0006268406
0.01001288
-0.01373201
0.003491339
-0.002161842
0.0007203898
0.000531773
0.01022944
-0.01489511
0.003637406
-0.001842094
0.0007549
0.0007265375
0.01043551
-0.01440728
0.003678329
-0.001525756
0.0004160666
0.000672428
0.01037876
-0.01534192
0.00402857
-0.00115953
0.0004266986
0.0007494688
0.01084037
-0.01653879
0.004470388
-0.0008432411
0.0006732597
0.0008421398
0.01189785
-0.01748596
0.004858617
-0.0004587863
0.001143727
0.0009512752
0.01247945
-0.01845571
0.00493455
-0.0003199195
0.001595215
0.001039551
0.01216433
-0.02002554
0.005263792
6.059734e-05
0.002003321
0.001162112
0.01179652
-0.02122773
0.005580474
0.0003939245
0.002284303
0.001199723
-0.007213117
0.001782198
0.002417067
-0.0005280283
-0.000647927
0.0001097394
0.001810572
-0.003998743
-0.0001453695
-0.0009695705
-0.0005294228
2.715876e-05
-0.02737153
-0.004493451
-0.001058987
-0.000825047
0.0008305037
-0.0002826678
-0.001629929
0.003412604
-0.00103563
-0.002266886
-0.001294709
-0.002646212
0.002103928
0.002788201
-0.001037423
-0.0009158156
-0.0009234452
-0.0004347391
-0.002991232
0.0001548573
-0.0009501292
-0.001057553
-0.0007874471
-0.000404479
-0.003920225
-0.00183605
-0.0005216215
-0.0002735512
-0.0007899836
-9.482107e-05
-0.001447487
-0.001327316
0.0003279011
-0.0006229729
-0.0003823559
-0.0001978161
-0.001817107
-0.001103978
0.0007575047
-0.0009738483
-0.000483217
-0.0001940839
-0.001912117
-0.0005849816
0.0007192835
-0.0006967986
-0.0005478705
-0.0004404822
-0.001769764
-0.0005327947
0.0004222486
-0.0005761689
-0.0005869519
-0.0008830214
-0.0009728386
-0.001342924
-0.0001159235
-0.0003545532
-0.0005065545
-0.0006115725
0.0006284346
-0.001590409
-0.0009677356
-0.0002939858
-0.0008880285
-0.0006420524
0.006289415
-0.001235984
-0.000892391
-0.0008705253
-0.001385922
-0.0005909827
0.009435144
0.0005325825
-0.0005323941
-0.0004333801
-0.001824538
-0.000707306
0.009551253
-0.0006839878
-0.0005149758
-0.0009197701
-0.001769517
-0.001421598
0.008901397
-0.000587928
-0.0007423615
-0.0007957843
-0.001837038
-0.0009534343
0.008890097
-0.001672421
-0.0003316479
-0.0005905001
-0.001629832
-0.001494899
0.008517901
-0.001529356
-0.0001034648
-0.0004750581
-0.001330878
-0.00129636
0.007686806
-0.001457269
4.967434e-05
-0.0001581379
-0.001075025
-0.001341796
0.005879631
-0.0008153593
2.7285e-05
-1.884989e-05
-0.0008784298
-0.001169019
0.006076854
-0.001100662
0.0006243436
0.0001858923
-0.0006359021
-0.0009679832
0.006178836
-0.0007994032
0.0006892708
0.0004838739
-0.0003976853
-0.0007288867
0.0066553
-0.001667798
0.000865944
0.0008276073
-0.0001614481
-0.0004990784
0.001752519
-6.144892e-05
0.001518874
9.095015e-05
0.0006491103
0.0004058918
-4.444065e-05
0.004975658
0.0001531469
0.0009568135
0.0004836177
-3.734685e-05
0.004574807
0.004138909
0.001163098
0.0008026449
-0.0008242587
0.0002837583
-0.005552865
-0.003436996
0.0007808872
0.002175784
0.001245285
0.002643379
-0.004636132
-0.003671684
0.001107455
0.0009442446
0.000920619
0.0004267002
0.0008203775
-0.0002398294
0.0007528921
0.0009906273
0.0007321707
0.0003925713
0.003344269
0.001576332
0.00036314
0.0002436815
0.0007619172
4.438742e-05
0.005772928
0.001166025
-0.0005174574
0.0005888133
0.0003709927
0.0001526275
0.006663833
0.0009251956
-0.001010774
0.0008969811
0.0004724721
0.0001498212
0.006023223
0.0004434458
-0.0009872986
0.0005969569
0.0005289761
0.0004042134
0.005157892
0.0004334706
-0.0006380986
0.0004727824
0.0005746201
0.0008500398
0.005065359
0.001195981
1.742919e-05
0.0002686453
0.000496243
0.000558589
0.005089787
0.001461929
0.0008660196
0.0002237027
0.0008785776
0.0005938458
0.002300767
0.0009918157
0.000646571
0.0008286881
0.001364286
0.0005850331
-0.005420897
-0.0009905324
0.0005015286
0.0004337258
0.001829515
0.0006621857
-0.008407561
0.0005056035
0.0003022843
0.0008942864
0.001734648
0.001365176
-0.009810598
-0.0001899488
0.0010814
0.0008604363
0.001853023
0.0008990472
-0.01097413
0.00135021
0.0001332895
0.0005450731
0.001593368
0.001428137
-0.0115802
0.000634153
0.0001786613
0.0004958119
0.001335274
0.001226663
-0.01236945
0.0004378973
0.0004216663
0.0001655013
0.001076833
0.001271313
-0.01356297
0.001953509
-0.0004400287
-5.978568e-05
0.0008333631
0.001122624
-0.01445184
0.001048989
-0.000725371
-0.0001843015
0.0006669682
0.000907625
-0.01314033
0.0008059627
-0.0007891969
-0.0005034753
0.0004337533
0.0007271724
-0.01156545
0.001644914
-0.0008111805
-0.0008327984
0.0002001944
0.0003956098
0.0003366746
0.0002038047
-0.0002416278
0.0004572328
0.001037242
0.0001187186
-0.007735164
0.0158104
-0.002394577
0.001892844
-0.0004496403
-0.002504214
-0.006981494
0.01535902
-0.005247888
0.00617032
-0.003386794
0.0003847932
-0.003152045
0.007799584
0.0008135935
0.004744281
0.002289888
-0.0003759958
-0.004814786
0.01647973
-0.002749253
0.002199658
-0.000855743
-0.0005661727
-0.004995423
0.01432645
-0.005868459
0.0008014908
-0.0002957335
-0.001389833
-0.00362546
0.01086842
-0.006538468
0.000976528
-0.001386384
-0.001184449
-0.0007809607
0.01102911
-0.005634455
0.0008753042
-0.001343951
-0.0007872828
0.001241776
0.01106697
-0.007108286
0.0008813528
-0.0008900025
-0.0007957409
0.002005627
0.008508887
-0.00612495
0.001433702
-0.0002904626
-0.0005165357
0.002351028
0.006203836
-0.005012468
0.001653684
0.0001115869
-0.0007858171
0.002021899
0.008780744
-0.003532599
0.00214473
-0.0004149197
-0.001060791
-0.00300839
0.0102126
-0.002954375
0.002501672
-0.0008915204
-0.0007582785
-0.007367364
0.0100891
-0.002625874
0.002587846
-0.0005241433
-0.0003234163
-0.008115287
0.01392693
-0.003220292
0.002713027
-0.0008050603
-0.0006597958
-0.008560191
0.01422013
-0.003460697
0.002133741
-0.0007667299
-0.0005450456
-0.008370646
0.01538099
-0.003696319
0.001848928
-0.0008611036
-0.0007746949
-0.008576481
0.01508804
-0.003643019
0.001485342
-0.0004874492
-0.0006979215
-0.008289791
0.01614507
-0.004075502
0.001208175
-0.0005171579
-0.0007829559
-0.00786983
0.01740309
-0.004624455
0.0007407753
-0.0008075153
-0.0008986131
-0.007746579
0.01675116
-0.004701313
0.0006086164
-0.001168574
-0.0009763834
-0.007505519
0.01805966
-0.004945376
0.0003253383
-0.001653883
-0.001050786
-0.009096137
0.0198797
-0.005254767
2.283426e-05
-0.002001281
-0.001171342
-0.01089741
0.02120803
-0.005628431
-0.000355441
-0.002211903
-0.001066713
0.00753771
0.002271688
-0.0008720933
0.0005903281
-0.0007866625
-0.002106191
0.004491051
0.02347646
-0.007064346
0.003501182
-0.003556677
-0.0008276747
0.03990859
0.01039322
-0.001615156
0.0115228
0.003745933
0.002760943
-0.02243007
0.01746089
0.001950924
0.01208712
0.002335862
0.001668187
-0.008213091
0.01495621
0.002888032
0.009892406
0.002276023
0.002777346
0.001035194
0.01581255
0.001518164
0.009726199
0.0006701148
0.0030547
0.003186647
0.01511622
-0.0009355679
0.008336789
0.0004093672
0.00229223
0.003745912
0.01530068
-0.002815635
0.007532529
0.0003395572
0.001982461
0.002355228
0.0136726
-0.003273224
0.006998945
0.0004812259
0.001224339
0.001625518
0.01271807
-0.00247552
0.006788146
0.0008554652
0.0005742317
0.0004153068
0.01344832
-0.002049876
0.006036935
0.0001329542
-0.0004467884
-0.00309173
0.01359909
-0.001494421
0.00535079
-0.0004364957
-0.0002927895
-0.006383484
0.01455098
-0.001572661
0.004918365
-0.0006391506
-3.763233e-06
-0.00810079
0.01486204
-0.002786977
0.00468048
-0.0007929577
-0.0001049336
-0.007309803
0.01464125
-0.00289802
0.004272128
-0.001191259
-0.0002024731
-0.007225771
0.01538257
-0.003677149
0.004341991
-0.0009718248
-0.0004690083
-0.007017477
0.0159092
-0.004119056
0.004214859
-0.001041744
-0.0006580284
-0.007099289
0.01641057
-0.004910276
0.004437303
-0.0009211647
-0.0006879969
-0.007271312
0.01656497
-0.005642589
0.004517828
-0.0007917844
-0.0008331006
-0.007484111
0.01797219
-0.006229219
0.004457755
-0.0006957448
-0.0007699931
-0.007990541
0.01889808
-0.006858501
0.00419853
-0.0007654307
-0.0006874292
-0.008776773
0.01923697
-0.007472752
0.003862502
-0.001006077
-0.000655827
-0.00991658
0.0194996
-0.008120019
0.003677031
-0.001238506
-0.0006572984
-0.01088043
0.01989223
-0.008767287
0.003507644
-0.001433778
-0.0007785162
-0.004966516
-0.00100145
0.0004053425
-0.003027154
-0.003211799
-0.003581469
0.02039077
0.01948772
-0.02775286
0.005738906
-0.005371588
-0.00076924
0.08492111
0.03892764
-0.03071957
0.01499089
-0.004519374
0.003434845
0.07089956
0.0412097
-0.01901258
0.01358866
-0.001657918
0.0009496485
0.04332052
0.0370144
-0.01568626
0.01434764
0.001454083
0.002852198
0.03037841
0.03389252
-0.01636605
0.01369619
0.0001494775
0.001748986
0.02159052
0.03093072
-0.02052821
0.0132583
-0.0008991837
0.002089145
0.01645364
0.0255551
-0.02001924
0.01192506
-0.001847187
0.001520532
0.01343506
0.02328246
-0.01979796
0.0105538
-0.003166304
0.00138502
0.008663121
0.0222541
-0.01747697
0.009763893
-0.003658143
0.001150311
0.007592364
0.02393491
-0.01742754
0.00845655
-0.004190374
0.001267657
0.005859258
0.0232631
-0.01753859
0.007844783
-0.004351118
0.001362214
0.004610376
0.02265143
-0.01916387
0.007368247
-0.004569604
0.001528534
0.003354156
0.02298222
-0.01919633
0.007786218
-0.004553531
0.001665739
0.002364504
0.02538755
-0.01996583
0.007814296
-0.004122705
0.001771631
0.001820873
0.02669523
-0.01977232
0.00815868
-0.004229526
0.001781432
0.001705753
0.02765977
-0.01996514
0.008269066
-0.00419685
0.001805171
0.001695096
0.028416
-0.01991764
0.008505243
-0.004365429
0.00186317
0.00151249
0.02923123
-0.02030592
0.008780885
-0.004538149
0.001915991
0.001272451
0.02919456
-0.02056339
0.009100241
-0.004717477
0.001982982
0.001490112
0.02971918
-0.02101894
0.009303028
-0.004861335
0.002071085
0.001642048
0.03083854
-0.02151713
0.009406425
-0.005048875
0.002135293
0.00165736
0.0323084
-0.02206435
0.009446603
-0.00527135
0.002192532
0.03362035
0.0339065
-0.02284608
0.009419486
-0.005337837
0.002241251
-0.02467837
-0.02109959
-0.00502597
-0.01738868
-0.01551608
-0.01484397
0.002986337
-0.02512221
-0.03218185
-0.01298268
-0.02235634
-0.01757301
-0.0182172
0.02423518
-0.02813526
-0.02426157
-0.0009161795
-0.0184421
-0.009917195
-0.01389173
0.01719853
-0.0240509
-0.02963116
-0.0006951964
-0.02316067
-0.01228238
-0.0155896
0.01209098
-0.02154166
-0.03143111
-0.002520838
-0.02281814
-0.01246164
-0.01538982
0.008436772
-0.01876367
-0.0323055
-0.004649374
-0.02285312
-0.01467988
-0.01581765
0.004440725
-0.01787314
-0.0319765
-0.005872403
-0.02251753
-0.01437294
-0.01557081
0.0007585119
-0.01741726
-0.03076265
-0.007752647
-0.0223031
-0.01451842
-0.01591451
-0.002826063
-0.01770883
-0.02898142
-0.009383492
-0.02198397
-0.01458363
-0.01601971
-0.003801737
-0.01814212
-0.02805577
-0.01092542
-0.02186544
-0.01491221
-0.01626222
-0.001595156
-0.01880538
-0.02784118
-0.01212596
-0.02201369
-0.01543909
-0.01659826
-0.00220153
-0.01773379
-0.02879807
-0.01316109
-0.02231821
-0.01605448
-0.01703693
-0.002946117
-0.01811947
-0.02908504
-0.0138481
-0.02252597
-0.01645556
-0.01742722
-0.003582285
-0.01834812
-0.02963399
-0.01422939
-0.02288868
-0.0168784
-0.01785357
-0.004252593
-0.01895722
-0.03009914
-0.01452123
-0.0232696
-0.0172949
-0.01828149
-0.004783651
-0.01965623
-0.03054799
-0.01482371
-0.02362129
-0.0177324
-0.01869893
-0.00530437
-0.02021326
-0.03106546
-0.01516681
-0.02400203
-0.01813684
-0.01909128
-0.005687614
-0.02092297
-0.03159697
-0.01548271
-0.0243475
-0.01851945
-0.01946343
-0.005885497
-0.02174985
-0.03210829
-0.01577026
-0.02469034
-0.01887948
-0.01980992
-0.005840216
-0.02236604
-0.03269025
-0.01602436
-0.02502231
-0.01920519
-0.02014276
-0.005716782
-0.02282126
-0.03321829
-0.01624014
-0.02535274
-0.01950175
-0.0204673
-0.005426787
-0.0231813
-0.03371015
-0.01643163
-0.02564813
-0.019751
-0.02076381
-0.005114403
-0.0235613
-0.0341957
-0.01658937
-0.02592763
-0.02001159
-0.02106035
-0.004899882
-0.002414486
-0.0346672
-0.01665154
-0.02603693
-0.0200015
-0.02125289
0.0184272
-0.01527951
0.0004079477
-0.004709796
0.03361682
0.03458878
-0.00301826
0.01142278
-0.02920996
0.00859915
0.03992433
0.01278484
-0.02410562
0.02619984
0.001895671
0.02661606
0.0363766
0.01397575
-0.01712119
0.03420944
0.002210277
0.03223361
0.03657121
0.01324536
-0.01205111
0.0330787
0.003109125
0.03246199
0.0357679
0.0128556
-0.008402018
0.03091791
0.004136147
0.03281286
0.03463076
0.01359347
-0.004416467
0.03050618
0.005004563
0.03425194
0.03411319
0.01480718
-0.0007426019
0.03087509
-0.01024253
0.03359066
0.0333953
0.01595623
0.002837885
0.03135535
-0.01252101
0.03534012
0.03132487
0.01796657
0.003820025
0.03254222
-0.01822336
0.03661905
0.02885671
0.01844154
0.001598085
0.03488644
-0.01987518
0.03627859
0.02787359
0.0186854
0.002207386
0.03592933
-0.02231149
0.03629616
0.02714213
0.01914602
0.002938955
0.0369757
-0.02511786
0.03605564
0.02635257
0.01953598
0.003567672
0.03765703
-0.02559368
0.03451579
0.02588122
0.02010349
0.004243329
0.03853353
-0.02560098
0.03397028
0.02575107
0.02093562
0.004793138
0.03961325
-0.02591048
0.03424758
0.0256619
0.0217436
0.005302426
0.04026151
-0.02631623
0.03456095
0.02553325
0.02243825
0.005684105
0.04117356
-0.02648629
0.03463929
0.0255432
0.02302763
0.005875406
0.0422971
-0.02655338
0.03465077
0.02557496
0.02353199
0.005888499
0.04328948
-0.02696982
0.03465314
0.02567893
0.0239312
0.005767318
0.04398446
-0.02761992
0.03438055
0.02590877
0.02423961
0.005434929
0.04455235
-0.02789886
0.03397088
0.02623355
0.02455922
0.005114899
0.04498187
-0.02804637
0.03359487
0.02671288
0.008567852
0.004902113
0.04545873
-0.0281854
0.03340575
-0.008240659
0.009157129
-0.003417126
-0.01313725
-0.09402563
0.001341772
0.0192532
-0.004065839
0.01019066
-0.02147085
-0.03234711
-0.004724925
0.006217611
0.0003454683
-0.002276998
-0.03114011
0.009274392
-0.006339652
-0.003366682
-0.0005093745
-0.01010142
-0.02584882
7.265556e-05
-0.000299581
0.0002572539
0.05289936
-0.001534419
-0.01661953
-0.0001286956
0.01460856
0.01569827
-0.004587006
0.001945241
-0.007426739
-0.0003441881
0.008246198
0.01829814
0.03476251
0.002331465
-0.01892278
0.003844895
-0.008295552
0.009267015
0.09597493
-0.002630578
0.003042116
-0.009810833
0.003604978
0.01130683
-0.0005339635
0.004763591
-0.01858303
0.04045273
0.00346768
0.02703154
-0.0277108
0.005911948
0.02334293
-0.01508465
0.003047536
-0.004165948
-0.0003017968
0.03318376
-0.009194711
0.01137326
-0.002026782
0.002665439
0.02566778
-0.01102806
0.004989307
-0.003220617
0.0007027318
0.02988868
-0.01051305
0.006468353
-0.002474243
0.001167539
-0.01109826
-0.002658156
-0.01120608
0.02928958
-0.008583485
-0.03351222
-0.03454043
-0.02626268
-0.001895688
-0.02652877
-0.03976056
-0.01277234
-0.0343695
-0.002210569
-0.03229071
-0.03638781
-0.01392543
-0.03089046
-0.004135943
-0.03281219
-0.03576448
-0.01285172
-0.03048112
-0.005003737
-0.03422583
-0.0346196
-0.01359005
-0.03086615
0.01023797
-0.03356921
-0.03411023
-0.01480544
-0.03138881
0.01250239
-0.03533242
-0.03341027
-0.01596847
-0.03253587
0.01820686
-0.03658361
-0.03132008
-0.01799238
-0.0348715
0.01985416
-0.03625247
-0.02885082
-0.0184528
-0.03593427
0.02225593
-0.03626712
-0.02787791
-0.01869577
-0.03697557
0.02501699
-0.03603946
-0.02714132
-0.01915904
-0.03854751
0.02557715
-0.03396438
-0.02588171
-0.02010842
-0.03961659
0.02590719
-0.03424832
-0.0257536
-0.02093956
-0.04026801
0.02631777
-0.03456553
-0.02566415
-0.02174761
-0.04116742
0.02649312
-0.03465251
-0.02553839
-0.0224461
-0.04231914
0.02660381
-0.03467801
-0.02554877
-0.02304289
-0.04330913
0.02725721
-0.03467719
-0.02559576
-0.02355241
-0.04402069
0.02770345
-0.0343639
-0.02568383
-0.02394408
-0.04457407
0.0279483
-0.03394252
-0.02591164
-0.02425039
-0.04498434
0.02809247
-0.03356097
-0.02623243
-0.02457142
-0.04544327
0.0282346
-0.03337106
-0.02671657
-0.008544879
0.04329153
0.0282158
-0.007087099
0.006361694
0.01791291
-0.0004248865
0.01513374
0.005598423
0.001881843
0.003170072
0.01311172
0.01122347
-0.001660497
0.00596423
0.01161223
0.01516741
0.004080693
0.00893221
0.01152292
0.01676603
0.009256442
0.01017538
0.007993254
0.01615412
0.01250881
0.01099926
0.007136203
0.01578202
0.01804996
0.0120445
0.008032078
0.01740143
0.02058892
0.01261877
0.006561196
0.01654959
0.01835135
0.01250292
0.002160656
0.01538373
0.01317391
0.01167817
0.0003004618
0.01398402
0.0101149
0.01144066
-0.0007099321
0.01336891
0.008210953
0.0114633
-0.001597347
0.01300041
0.006681068
0.01150453
-0.002105992
0.01255876
0.005806614
0.01109983
-0.002052409
0.01210056
0.005752013
0.01047548
-0.001774818
0.01165617
0.006423615
0.01036207
-0.001629089
0.01134161
0.00702259
0.008550218
-0.001397426
0.01116355
0.007487733
0.007266823
-0.001173061
0.01107899
0.00780181
0.006980421
-0.001030831
0.0109621
0.007954637
0.007027342
-0.0009475273
0.01074851
0.008128125
0.007161883
-0.000856195
0.01060079
0.008510497
0.007331543
-0.0006790057
0.01058206
0.009142517
0.007431954
0.004732859
0.003972164
0.01559803
0.002951047
0.001224279
0.005007449
-0.01810014
-0.001208742
-0.003314019
-0.01056582
8.141764e-06
0.003711357
-0.003587728
-0.009910058
-0.0002774749
-0.02079377
-0.006985224
-0.008426094
-0.03312812
-0.003109063
-0.03249322
-0.0366444
-0.01319347
-0.03765029
0.0255303
-0.03449419
-0.02635583
-0.01954537
0.0653779
-0.00813296
0.005250502
0.02386532
0.004263213
0.01331535
0.01109158
-0.0005440919
0.007020836
0.00200603
-0.007203758
0.00408377
0.01462405
0.008958692
-0.001151719
0.0083154
0.0131578
0.01204581
0.003326927
0.01029806
0.01289867
0.0144873
0.006404933
0.01066168
0.009412788
0.01540919
0.007985025
0.013039
0.007873337
0.01549647
0.01600111
0.01274877
0.005530284
0.01762631
0.01578328
0.01306878
0.004613014
0.01586813
0.01569137
0.01102209
-0.008009878
0.01425995
0.01096406
0.009899907
-0.008523918
0.01304897
0.008924103
0.00975899
-0.01002309
0.01244139
0.007332887
0.009634415
-0.01142301
0.01197136
0.006286764
0.008465984
-0.01194694
0.01161741
0.005826326
0.007038133
-0.01204611
0.01131749
0.006241574
0.007186718
-0.01184836
0.01126834
0.006755133
0.007247901
-0.01182127
0.01106128
0.007342402
0.007260766
-0.01167417
0.01080303
0.007916475
0.007379139
-0.01142603
0.0106212
0.008430119
0.007489515
-0.01127245
0.01047154
0.008856529
0.007571117
-0.01122671
0.01034527
0.009208744
0.007725977
-0.01117867
0.01029192
0.009553824
0.007879878
-0.01100039
0.01032556
0.009936313
-0.009925888
0.01037582
-0.0107407
0.002201315
0.02169446
-0.002747462
0.01092917
0.009303208
0.0009752094
0.004831692
-0.005419011
0.01721385
0.008035538
-0.004934843
-0.008852883
-0.01525231
-0.0006566382
-0.008303393
0.002800688
-0.04352828
-0.03989238
-0.01233603
0.008834367
0.00608171
-0.01356585
-0.06543793
0.007325028
-0.005051381
-0.02819569
0.00158966
0.004846785
-0.01513328
0.0001043221
-0.008141055
0.003658928
0.01923963
-0.0006365796
-0.002328822
-0.0009988785
-0.01411736
0.000225453
-0.01419531
0.00130919
0.01102939
-0.001324124
0.002586922
-0.0014373
-0.01472528
0.001508429
-0.009961018
0.002268839
0.01539642
-0.0002958169
-0.0002065954
-0.001195372
-0.01410551
0.0008248833
-0.01332513
0.001488444
0.0109376
-0.00126004
0.002133026
-0.001762096
-0.01554425
0.0009645433
-0.01159546
0.001948702
0.01290371
-0.001078179
0.002653177
-0.001776668
-0.01525056
0.007068458
-0.006352204
-0.01796081
0.0005114124
-0.01110916
0.000596593
-0.006936658
-0.002063335
-0.01513508
-0.005614874
-0.00185849
-0.003180327
0.007195945
-0.004100229
-0.01465391
-0.008942899
-0.01311361
-0.0112102
0.001678317
-0.005975125
0.001167882
-0.008359448
-0.01315882
-0.01204017
-0.01151569
-0.01677453
-0.009216598
-0.0101803
-0.006384461
-0.01064765
-0.009422343
-0.01540669
-0.007993372
-0.01615325
-0.01249736
-0.01099968
-0.00797206
-0.01305271
-0.00786822
-0.01549411
-0.007132178
-0.0157862
-0.01802718
-0.0120463
-0.01598073
-0.0127557
-0.005523876
-0.01762695
-0.002098309
-0.01556682
-0.01320731
-0.01168208
-0.01096247
-0.009865571
0.008509231
-0.01302519
0.0007167385
-0.01351961
-0.008258868
-0.01147024
-0.007346405
-0.009621861
0.01138824
-0.01195126
0.002093686
-0.01256082
-0.005821357
-0.01110746
-0.005833556
-0.007026001
0.01205057
-0.0113134
0.002056297
-0.01210249
-0.005749187
-0.01048202
-0.006239385
-0.007185242
0.01185453
-0.01126903
0.001782667
-0.01165372
-0.006416657
-0.01037151
-0.006745169
-0.007245734
0.01183435
-0.01106039
0.001632483
-0.01134378
-0.007010128
-0.008566853
-0.007341176
-0.007260361
0.01167431
-0.01080578
0.00140259
-0.01115852
-0.007485287
-0.007251554
0.001045437
-0.01094585
-0.007944461
-0.007020577
-0.008853829
-0.007569884
0.01125142
-0.01034576
0.0009544096
-0.0107489
-0.008120472
-0.007160194
-0.009207905
-0.007729703
0.01119139
-0.01029891
0.0008586893
-0.01060163
-0.008499979
-0.00733327
-0.009555396
-0.007889303
0.01100709
-0.01033377
0.0006810605
-0.01059128
-0.009131364
-0.007450546
-0.009929696
-0.01034047
-0.01039865
0.01077091
-0.001408995
-0.03835064
0.02740552
-0.005988237
0.02112895
-0.04056781
-0.003539765
-0.02715978
-0.01475044
-4.807552e-05
0.005912934
-0.0001653562
-0.02751596
0.008058981
-0.0149014
0.001479609
0.01308341
-0.0001701465
-0.005194415
0.02225915
0.02884904
0.0009749857
0.001471551
-0.009424784
-0.04014805
0.03013513
0.01205307
-0.008871252
-0.005616439
0.007097577
0.03595756
-0.02365009
-0.00338626
0.002435468
-0.005494211
0.01202893
-0.0002653772
0.02634786
-0.004139363
-0.009366832
0.007471849
0.0002363119
0.01772297
-0.008084394
-0.006479758
-0.0004370984
0.007836163
0.001209423
0.002417634
0.03629898
-0.001503804
0.003339261
0.006641885
-0.000711398
-0.005232526
-0.01051104
-0.03165135
-0.02453338
0.0006684694
0.002974958
0.00315225
0.001627741
0.0001225372
0.0004895625
0.007918492
0.0008131638
-0.001164538
-3.430145e-05
0.0005689523
0.002288174
-0.0004165838
0.0001163712
0.0003253545
0.008294622
-0.00126679
-0.0005531354
0.0001325213
0.002350915
-3.947497e-05
0.0004120022
0.007947759
0.0005357396
-0.001478143
7.279674e-05
0.0007358979
0.001458792
-0.001486091
8.02703e-05
0.0008174108
0.001183459
-0.0398529
-0.02266419
-0.002619585
-0.009087272
-0.005552141
-0.004381647
-0.03124289
-0.02257467
-0.02932822
-0.01999891
-0.003517101
-0.004452284
-0.003122299
-0.00441005
-0.0234628
-0.01839551
-0.0191609
-0.01426522
-0.004499122
-0.002648133
0.0004237114
-0.004380239
-0.01480422
-0.01080409
-0.008427554
-0.001030439
0.001019544
-0.002659615
0.002592751
-0.001917632
-0.01223917
-0.0009746629
-0.009942157
0.0004841397
-0.001906907
0.000838756
0.0003783307
-0.001156885
-0.006758175
0.001818179
-0.008058543
-0.01738045
-0.02058828
-0.0127835
-0.0003081624
-0.01395832
-0.01012314
-0.01154906
-0.008960432
-0.009839491
0.009951479
-0.01259336
-0.00933185
0.001446797
-0.001752544
-0.001924405
-0.001164129
-0.001127553
-0.002729161
0.001102344
-0.008912327
0.001238762
-0.001623346
-0.00182229
-0.0009463126
-0.001161171
-0.002511652
0.0008255196
-0.008613266
0.000938768
-0.001567978
-0.001770175
-0.008269878
0.0006309317
-0.001558931
-0.001720687
-0.007913924
-0.007448857
0.01143005
-0.01059268
0.001142144
-0.01120748
-0.00784031
-0.007061492
-0.008469371
-0.007478398
0.01131856
-0.01061197
-0.00771396
9.572208e-05
-0.001639667
-0.001650061
-0.007450044
-8.820007e-05
-0.001636951
-0.001578637
0.0004902693