/*--------------------------------*- C++ -*----------------------------------*\
  =========                 |
  \\      /  F ield         | OpenFOAM: The Open Source CFD Toolbox
   \\    /   O peration     | Website:  https://openfoam.org
    \\  /    A nd           | Version:  7
     \\/     M anipulation  |
\*---------------------------------------------------------------------------*/
FoamFile
{
    version     2.0;
    format      ascii;
    class       volScalarField;
    location    "0.1";
    object      Uz;
}
// * * * * * * * * * * * * * * * * * * * * * * * * * * * * * * * * * * * * * //

dimensions      [0 1 -1 0 0 0 0];

internalField   nonuniform List<scalar> 
77997
(
1.537618e-08
4.645485e-08
2.122162e-08
1.730553e-08
5.956589e-08
1.07468e-07
1.885168e-07
2.855945e-07
2.904435e-07
1.766664e-08
2.598722e-08
4.482747e-08
5.093121e-08
5.721709e-08
7.41109e-08
1.0784e-07
1.551758e-07
2.185298e-07
-3.000039e-09
1.561706e-08
4.158566e-08
4.659093e-08
7.06455e-08
8.182386e-08
1.385426e-07
2.018295e-07
3.059559e-07
2.828504e-08
4.155231e-08
2.18907e-08
2.72585e-08
6.033534e-08
1.017187e-07
-1.799492e-08
-6.867482e-08
-1.577546e-07
1.514492e-08
1.461148e-08
1.227304e-08
7.826299e-09
4.379069e-09
-5.568573e-09
-1.807775e-08
-4.441426e-08
-1.147484e-07
1.149039e-08
1.028341e-08
-1.613837e-08
-4.854082e-08
-8.298074e-08
-1.870234e-07
-2.133949e-07
-3.310591e-07
-5.593519e-07
-9.050298e-07
-2.759661e-08
2.58238e-08
-2.588839e-08
1.376162e-08
-6.465517e-08
1.427093e-07
1.312104e-07
1.026723e-07
-1.379282e-08
-4.563886e-08
-0.02746632
-0.03121841
-0.03023342
-0.03007502
-0.0302593
-0.03049889
-0.0307726
-0.0310638
-0.03132582
-0.02022576
-0.02848262
-0.03074884
-0.03053543
-0.03085774
-0.03107372
-0.03142692
-0.03174003
-0.03216767
-0.0004931356
-0.002770525
-0.001944779
-0.002115255
-0.001811713
-0.00176923
-0.001637723
-0.001567318
-0.001500788
0.000881262
0.001034296
0.001772966
0.001847526
0.002003762
0.002105336
0.002192594
0.002275607
0.002349695
0.0002533258
0.0004145907
0.000945846
0.0008964791
0.001033078
0.001042206
0.001104625
0.001147082
0.00120029
0.0004399599
-1.543151e-06
0.0006932848
0.0005999481
0.0007069945
0.0007112617
0.0007510745
0.0007764742
0.0008041855
1.889464e-05
0.0001327601
0.0004079603
0.0003143118
0.0003766191
0.0003610526
0.000390454
0.0003970128
0.0004140745
2.652274e-05
-0.0001268699
0.0002955382
0.0001797145
0.0002365486
0.0002168226
0.000234132
0.0002342384
0.0002435007
-0.0001097037
-6.15538e-05
0.0002519371
0.0001295945
0.0001694447
0.000138123
0.0001497278
0.0001435938
0.0001494156
-0.0001585785
-0.0001564552
0.000211388
7.992695e-05
0.0001153426
8.424243e-05
9.184942e-05
8.577046e-05
8.965853e-05
-0.0001834573
-0.0001619323
0.0002144898
7.020223e-05
0.0001044893
6.613273e-05
7.171584e-05
6.266925e-05
6.389982e-05
-0.0001923305
-0.000209976
0.0002113024
5.442257e-05
8.909428e-05
4.762492e-05
5.131545e-05
4.186032e-05
4.111761e-05
-0.0001716459
-0.0002425378
0.0002255493
5.401296e-05
9.03818e-05
4.507569e-05
4.666914e-05
3.573572e-05
3.40777e-05
-0.0001649029
-0.0002708667
0.0002355222
4.995895e-05
8.871225e-05
4.057172e-05
4.18088e-05
2.99518e-05
2.661732e-05
-0.0001665045
-0.0002814404
0.0002551343
5.825693e-05
9.919736e-05
4.751982e-05
4.587348e-05
3.161615e-05
2.559883e-05
-9.381653e-05
-0.0003446552
0.0002655075
5.098057e-05
9.642942e-05
4.204756e-05
4.071216e-05
2.670477e-05
2.119598e-05
-0.000120253
-0.000274844
0.0002921853
7.272062e-05
0.0001156407
5.721188e-05
5.040653e-05
3.343503e-05
2.301646e-05
8.224743e-08
7.83763e-08
1.273926e-07
1.146471e-07
1.475573e-07
1.706836e-07
2.345764e-07
2.400282e-07
3.151849e-08
5.79821e-08
7.515803e-08
8.005525e-08
8.02935e-08
8.625995e-08
9.063544e-08
7.863695e-08
5.016637e-08
6.923844e-08
6.735046e-08
8.387144e-08
1.077001e-07
1.305438e-07
1.698856e-07
2.244271e-07
3.030718e-07
4.020015e-07
9.016787e-08
7.034332e-08
7.45929e-08
8.086413e-08
8.828652e-08
9.592352e-08
1.183353e-07
1.054879e-07
5.658507e-08
7.905225e-08
7.864115e-08
9.92904e-08
1.275979e-07
1.789837e-07
2.504183e-07
3.407422e-07
4.399693e-07
6.258991e-07
8.196737e-08
1.352583e-07
1.458843e-07
1.82562e-07
2.134547e-07
2.752107e-07
3.519221e-07
4.345991e-07
5.422227e-07
1.22018e-07
-1.534048e-07
3.736828e-07
5.628684e-07
6.162769e-07
8.890844e-07
1.099316e-06
1.082156e-06
2.157933e-06
-0.02068967
-0.01690903
-0.01109795
-0.0108323
-0.01020912
-0.01032541
-0.01043781
-0.01067629
-0.01091362
-0.009983176
0.001743784
0.002508199
0.00379923
0.005808674
0.00616049
0.006794979
0.006978142
0.007154597
0.007258522
-0.01494864
0.0004662796
-0.004620014
-0.003373941
-0.00530797
-0.004955953
-0.005381747
-0.005327468
-0.00548559
-0.005573121
-0.00897326
-8.686837e-05
0.0004105267
0.001576738
0.001860788
0.002116583
0.002248262
0.002339856
0.002390298
0.0024562
-0.01082038
0.0001929111
-0.0005410754
-0.0004548662
-0.0008919838
-0.0008286
-0.0009538921
-0.0009326166
-0.0009927951
-0.001006216
-0.01745436
5.067229e-05
0.0002470275
0.0004526879
0.0005164759
0.000603808
0.0006226686
0.0006555851
0.000657627
0.0006794091
-0.009047493
0.0004413748
0.0002620546
7.895111e-05
-2.721213e-05
-3.783188e-05
-8.142689e-05
-8.044853e-05
-0.0001048652
-0.0001045863
-0.01222887
0.0004075288
0.0003582802
0.0002171361
0.0002045262
0.0002131375
0.0002029935
0.0002163431
0.0002075811
0.0002150909
-0.009701875
0.0006230052
0.0004161425
0.000180132
0.0001092791
8.183176e-05
5.870633e-05
5.462916e-05
4.39307e-05
4.3187e-05
-0.01022199
0.0006760382
0.0004164003
0.0002074032
0.0001318049
0.0001177494
9.439925e-05
9.914523e-05
8.870558e-05
9.08473e-05
-0.009768627
0.0008038991
0.0004412479
0.0002238662
0.0001133747
9.228355e-05
6.069685e-05
6.102673e-05
4.977457e-05
4.939603e-05
-0.009690276
0.0008831847
0.0004358686
0.000240617
0.0001076033
9.289675e-05
5.715065e-05
6.053689e-05
4.853599e-05
4.928184e-05
-0.0097351
0.0009759488
0.0004435978
0.0002635906
0.0001042569
9.260347e-05
4.970582e-05
5.277351e-05
3.896787e-05
3.746092e-05
-0.009744093
0.001044608
0.0004282495
0.000274854
9.198996e-05
8.553639e-05
3.89664e-05
4.271626e-05
3.001571e-05
2.951299e-05
-0.009354563
0.001118529
0.0004200336
0.0002991977
9.525003e-05
9.551647e-05
4.312535e-05
4.596949e-05
3.153631e-05
2.826393e-05
-0.01101067
0.001166208
0.0003993953
0.0003017062
7.650016e-05
8.28821e-05
2.64525e-05
3.197945e-05
2.044835e-05
1.822588e-05
0.0009506864
0.001226291
0.0003800986
0.0003261638
8.795346e-05
0.0001001774
4.341499e-05
4.50839e-05
3.201302e-05
2.42777e-05
9.201789e-08
1.332623e-07
1.540179e-07
2.016226e-07
2.325492e-07
3.038574e-07
3.44128e-07
4.477752e-07
7.425021e-08
1.084023e-07
1.326311e-07
1.524141e-07
1.972896e-07
2.287501e-07
3.035297e-07
3.531897e-07
4.628808e-07
1.031266e-07
1.048629e-07
1.320445e-07
1.569595e-07
2.000621e-07
2.482259e-07
3.23917e-07
4.01816e-07
5.306119e-07
1.098078e-07
1.166189e-07
1.316224e-07
1.575547e-07
2.038093e-07
2.467018e-07
3.0797e-07
3.483524e-07
4.3897e-07
1.088441e-07
1.174579e-07
1.567198e-07
2.01068e-07
2.75413e-07
3.593018e-07
4.939397e-07
6.578353e-07
9.210948e-07
8.219996e-08
1.527687e-07
1.44165e-07
1.919433e-07
2.422387e-07
3.188553e-07
4.116854e-07
4.850772e-07
6.283617e-07
1.474345e-07
-0.007698064
-0.01637639
-0.008141366
-0.0123727
-0.01067675
-0.01116924
-0.0111699
-0.01149571
-0.01990569
-0.0001558541
-0.001957043
-0.002475964
-0.001583082
-0.002480656
-0.002021146
-0.002303671
-0.002339704
0.001180546
-0.001178129
-0.005799319
-0.004742345
-0.007068234
-0.006774856
-0.007193268
-0.007178178
-0.007373464
-0.007503254
-0.005653878
-0.002153638
-0.001677115
-0.001061329
-0.000945881
-0.0009708997
-0.0008528588
-0.0008226474
-0.0007936877
-0.0007881978
0.0007792384
-0.0003854833
-0.001072852
-0.0007749332
-0.001237471
-0.001179172
-0.001347629
-0.001318305
-0.001368618
-0.001370797
0.0003249103
-0.0008852128
-8.126552e-05
-6.152278e-06
0.0001107657
0.0001685538
0.0001928435
0.0002351886
0.0002436847
0.0002629545
0.0004743345
-0.0001312783
-0.0001670192
-6.147223e-05
-0.0001041319
-8.266508e-05
-0.0001223763
-0.0001064969
-0.0001262018
-0.0001218062
0.000750609
-0.0002531449
0.0001362207
9.591494e-05
0.0001861448
0.0002087679
0.000214558
0.0002344681
0.0002294207
0.0002391624
0.0009095852
2.796313e-05
9.93552e-05
7.211795e-05
0.000103407
9.958715e-05
8.6066e-05
9.360679e-05
7.926993e-05
8.262255e-05
0.001072736
5.970291e-05
0.0001697026
0.0001110439
0.000149026
0.0001474342
0.0001384841
0.0001465268
0.0001353947
0.0001370945
0.001268296
0.0001563443
0.0001814916
0.0001159221
0.0001276314
0.0001155716
9.566714e-05
9.774717e-05
8.256063e-05
7.900998e-05
0.001474265
0.0001925012
0.0002085144
0.0001336187
0.0001325474
0.0001208384
9.579043e-05
9.740936e-05
8.15988e-05
7.690563e-05
0.001767583
0.0002318691
0.0002470803
0.0001629474
0.0001467118
0.0001308596
9.737684e-05
9.192093e-05
7.11866e-05
6.143419e-05
0.001952539
0.0002665505
0.0002611639
0.0001795148
0.0001424795
0.0001288036
8.854302e-05
8.347495e-05
6.38573e-05
5.27141e-05
0.0020222
0.0003426988
0.0002949808
0.000237655
0.0001933085
0.0001771365
0.0001288455
0.0001098741
8.294247e-05
6.00913e-05
0.002808698
0.0002917796
0.0003307287
0.0002390322
0.0001641252
0.0001535338
9.636922e-05
8.410832e-05
6.383195e-05
4.366534e-05
0.002050537
0.0004131038
0.000313316
0.0003306943
0.0002666955
0.0002583442
0.0001929677
0.0001462611
0.0001147731
6.872635e-05
1.263349e-07
1.442008e-07
1.919933e-07
2.206825e-07
2.998281e-07
3.637562e-07
4.838037e-07
6.088176e-07
1.136432e-07
1.296116e-07
1.3996e-07
1.803095e-07
2.074639e-07
2.714612e-07
3.257015e-07
4.109213e-07
5.067193e-07
1.142762e-07
1.156488e-07
1.526015e-07
1.838048e-07
2.407475e-07
3.002177e-07
3.970944e-07
5.000071e-07
6.574994e-07
1.307448e-07
1.416724e-07
1.43266e-07
2.034047e-07
2.392219e-07
3.230319e-07
4.093998e-07
5.375109e-07
6.930679e-07
1.089739e-07
9.777895e-08
1.540103e-07
2.080456e-07
2.74857e-07
3.74286e-07
4.948583e-07
6.635024e-07
8.789942e-07
1.193582e-07
2.217688e-07
1.40829e-07
2.25943e-07
2.661725e-07
3.591733e-07
4.632818e-07
6.081225e-07
8.023882e-07
1.507273e-07
0.000948568
0.006342297
0.01050416
0.01088211
0.01171582
0.01200576
0.01239336
0.01279462
-0.005062408
0.001171989
0.0005066587
0.001933306
0.002468591
0.00248363
0.002727809
0.002740212
0.002793502
-0.003512714
0.0005363472
-0.0001716212
0.001892752
0.0009640311
0.001319258
0.001211103
0.001356125
0.001377181
-0.001926189
-0.0002784505
-0.0004135472
0.0001268663
-3.312871e-05
-8.772234e-05
-5.504633e-05
-1.671234e-05
-1.120662e-05
-4.276623e-06
-0.0008322807
0.0001007537
-0.0002644199
0.0002030027
-4.703588e-05
5.011128e-05
-3.789658e-05
2.38714e-05
1.302028e-05
3.623998e-05
-0.0002192364
0.0001104255
1.734096e-05
0.00032163
0.0003370841
0.0004180656
0.0004214735
0.0004570016
0.0004691441
0.0004932127
-0.0001832373
0.0002501026
6.779184e-05
0.0002530502
0.0001980126
0.0002619344
0.0002427712
0.0002717173
0.0002674855
0.0002823439
0.0001195286
0.00029364
0.0001640463
0.0002672173
0.0002515734
0.0003157738
0.0003141858
0.0003411198
0.0003394347
0.0003504114
0.0001847129
0.0003631573
0.0001736471
0.0002112923
0.0001642972
0.0002017862
0.0001845001
0.0001988458
0.0001891039
0.0001932915
0.0001873328
0.0003681871
0.0001635653
0.0001934144
0.0001496233
0.0001870677
0.0001709686
0.0001818582
0.0001734167
0.0001741366
0.0002746552
0.0004230003
0.0001857082
0.0001827606
0.0001203176
0.0001440513
0.0001196644
0.0001234899
0.000111852
0.0001089045
0.0003103976
0.000445568
0.0001940333
0.0001768229
0.000107244
0.0001264609
9.946446e-05
0.0001020831
9.137756e-05
8.673463e-05
0.0003545098
0.0005043498
0.0002154993
0.0001956125
0.0001149423
0.0001280614
9.411444e-05
9.052712e-05
7.667646e-05
6.670276e-05
0.0003575607
0.0005208108
0.0002210041
0.0001900147
9.530199e-05
0.0001053752
6.681328e-05
6.4766e-05
5.445231e-05
4.582709e-05
0.0003896395
0.0005788822
0.0002493485
0.0002267285
0.0001322274
0.0001361616
9.604934e-05
8.163154e-05
6.816963e-05
4.842454e-05
0.0004069275
0.0005925229
0.0002530143
0.0002059549
8.52771e-05
8.990557e-05
4.098141e-05
3.664569e-05
3.409433e-05
2.026786e-05
0.0005041715
0.0006327217
0.000294294
0.0002527206
0.0001506684
0.0001509742
0.0001089341
8.152162e-05
7.624729e-05
4.210148e-05
1.345137e-07
1.627298e-07
1.961376e-07
2.731717e-07
3.228243e-07
4.425227e-07
5.401077e-07
7.294581e-07
1.172919e-07
1.253483e-07
1.659123e-07
1.936701e-07
2.726464e-07
3.226075e-07
4.460478e-07
5.435329e-07
7.423206e-07
1.131373e-07
1.357866e-07
1.586001e-07
2.129628e-07
2.634718e-07
3.468749e-07
4.405002e-07
5.714174e-07
7.4072e-07
1.357095e-07
1.244388e-07
1.690546e-07
1.962534e-07
2.718328e-07
3.27491e-07
4.422083e-07
5.345519e-07
7.108558e-07
1.085151e-07
1.19374e-07
1.65956e-07
2.110093e-07
2.89484e-07
3.633416e-07
4.975833e-07
6.235849e-07
8.570984e-07
1.008073e-07
1.607479e-07
1.431661e-07
2.021795e-07
2.570176e-07
3.337676e-07
4.553297e-07
5.494054e-07
6.989058e-07
1.130458e-07
-0.001394103
-0.002713261
-0.00108704
-0.002490697
-0.001711126
-0.002130806
-0.002069356
-0.002351729
-0.003064061
-0.0003739115
0.00058189
0.001746728
0.001907305
0.002440066
0.002413543
0.002563249
0.002542904
-0.0001937545
-0.0006152555
-0.001772946
-0.00174208
-0.00231336
-0.002412607
-0.002591988
-0.002656326
-0.00279595
-0.001149759
-0.0005911704
-0.0003034696
-7.500117e-05
8.976763e-06
-6.136807e-05
-8.777816e-05
-6.831431e-05
-9.026245e-05
4.033988e-05
-0.0003230385
-0.0006035047
-0.0007359511
-0.001049987
-0.001281113
-0.001449191
-0.001483397
-0.00153824
-0.001577515
-0.0001748438
-0.0002661133
-0.0001159693
-0.0001358797
-0.0001224126
-0.0001737665
-0.000205092
-0.0001979442
-0.000200987
-0.0002057672
3.810629e-05
-0.0001297475
-0.0001270037
-0.0002066686
-0.0002145952
-0.0002342897
-0.0002637682
-0.0002694084
-0.0002792127
-0.0002859139
0.0002271302
-5.227975e-05
6.766033e-05
-2.865147e-05
2.395881e-05
2.323139e-05
3.130307e-05
3.417684e-05
3.209039e-05
3.040178e-05
0.0001819585
-3.73969e-05
3.934519e-05
-5.40354e-05
-2.389149e-05
-3.261525e-05
-2.774239e-05
-2.941347e-05
-3.220904e-05
-3.701803e-05
0.0002358509
-2.2595e-05
7.728493e-05
-1.262593e-05
2.591292e-05
2.341184e-05
3.488791e-05
3.779071e-05
3.512922e-05
3.181119e-05
0.0002195722
-2.182056e-05
7.832368e-05
-7.19998e-06
2.75416e-05
2.259718e-05
3.199336e-05
3.046325e-05
2.463264e-05
1.648324e-05
0.0003304105
1.364218e-05
0.0001129913
9.054888e-06
3.868452e-05
3.243857e-05
4.15571e-05
4.088711e-05
3.585855e-05
2.830944e-05
0.0002890056
3.583138e-05
0.000139897
5.924745e-05
8.870617e-05
8.161052e-05
8.36964e-05
6.978234e-05
5.796008e-05
3.878658e-05
0.0005096884
0.0001205993
0.0001828285
7.484301e-05
7.132403e-05
6.683704e-05
6.249086e-05
5.306844e-05
4.935512e-05
3.087372e-05
0.0004837574
0.0001879702
0.0002615514
0.0002085225
0.0002276953
0.0002133453
0.0001988359
0.0001411589
0.0001225334
6.883863e-05
0.0007010222
0.0002519844
0.0002588859
0.0001893812
0.000109963
0.0001120346
8.374454e-05
5.689095e-05
6.84562e-05
2.6285e-05
0.0004776053
0.0003124683
0.0003942164
0.0004693134
0.0005222889
0.0004849924
0.0004540017
0.0002684374
0.0002533587
0.0001099008
1.191451e-07
1.475276e-07
1.998886e-07
2.514047e-07
3.484538e-07
4.437904e-07
5.995148e-07
7.921623e-07
9.54583e-08
1.234274e-07
1.558259e-07
1.972104e-07
2.528964e-07
3.338858e-07
4.339052e-07
5.766135e-07
7.720915e-07
1.039086e-07
1.205303e-07
1.592625e-07
1.963451e-07
2.663257e-07
3.395782e-07
4.515526e-07
5.770141e-07
7.715171e-07
9.296459e-08
1.252706e-07
1.452345e-07
2.02846e-07
2.637572e-07
3.474328e-07
4.697209e-07
6.309159e-07
8.641526e-07
1.023822e-07
1.318839e-07
1.364494e-07
2.044013e-07
2.510448e-07
3.586897e-07
4.52104e-07
6.113989e-07
7.90675e-07
7.620658e-08
1.287616e-07
1.4181e-07
2.067488e-07
2.6747e-07
3.639458e-07
4.863311e-07
7.01055e-07
1.002036e-06
7.983411e-09
-0.0008495294
0.002779483
0.001371946
0.002859719
0.002123868
0.002516635
0.002295919
0.002604335
0.003198272
0.0008772722
4.435862e-05
-0.0008015005
-0.0009104549
-0.001390678
-0.001234254
-0.001554229
-0.001785602
9.288227e-05
0.0006733178
0.001886261
0.001883333
0.002517807
0.002602747
0.002795448
0.0028138
0.002930326
0.001099421
0.0008390761
0.0006099615
0.0005481803
0.0005362594
0.0006244977
0.0006794356
0.0005924626
0.0005581352
-0.0003626314
0.0002652444
0.0007434412
0.0008190566
0.00118963
0.001399026
0.001579538
0.001589408
0.00163313
0.0006222304
0.0004031297
0.0003105402
0.0003694803
0.0003917249
0.0004557862
0.0004980744
0.0004691008
0.0004555741
4.812522e-05
0.0003184608
0.0001875603
0.000307334
0.0003081414
0.0003309641
0.0003598029
0.0003577624
0.0003635096
0.0003644986
0.0002187833
0.0002181367
0.0001606897
0.0001696592
0.000135438
0.0001240829
0.0001211055
0.0001097617
0.000107135
0.0001019085
0.0002780073
0.0001333507
8.426987e-05
0.0001222615
0.0001058402
0.0001098889
0.0001077464
0.0001056748
0.0001080111
0.0001058483
-0.0007037478
2.63798e-06
-0.0001198694
5.207548e-05
3.502335e-05
5.007775e-05
4.716042e-05
4.350577e-05
4.540791e-05
4.204034e-05
-0.0003601644
-3.691972e-05
-7.863585e-05
4.02573e-05
4.118605e-05
5.110681e-05
4.887269e-05
4.317405e-05
4.622128e-05
4.186713e-05
-0.0002855553
-0.0001183358
-4.923623e-05
1.273847e-05
2.86848e-05
2.808265e-05
2.718496e-05
2.001956e-05
2.683525e-05
2.092056e-05
-0.0001870571
8.952774e-06
-5.324765e-05
5.530785e-05
6.80013e-05
6.220035e-05
6.148765e-05
4.000398e-05
4.493582e-05
2.931454e-05
-0.0004086686
-8.148381e-05
-1.459331e-05
2.63739e-05
3.51763e-05
1.721377e-05
1.443311e-05
1.150292e-06
1.822327e-05
7.00125e-06
-0.0005393022
8.099016e-05
-2.153456e-05
0.000110278
0.0001345776
9.949011e-05
0.000108505
5.803752e-05
7.724376e-05
3.499423e-05
-0.00028546
-3.052221e-05
6.879597e-05
2.114786e-05
4.741562e-06
-3.834084e-05
-5.150678e-05
-6.207843e-05
-5.074007e-06
-2.575843e-05
-0.0001053122
-3.101074e-05
0.0001388195
9.281338e-05
0.0001894832
0.000114288
0.0001609747
5.476173e-05
0.0001271478
3.576849e-05
9.973203e-08
1.390421e-07
1.873153e-07
2.543075e-07
3.35098e-07
4.162879e-07
5.948147e-07
7.493395e-07
7.907206e-08
1.025673e-07
1.412056e-07
1.818527e-07
2.590484e-07
3.465295e-07
4.56567e-07
6.356952e-07
8.841773e-07
9.941383e-08
1.153313e-07
1.363965e-07
1.834408e-07
2.371113e-07
3.207483e-07
4.123768e-07
5.621549e-07
7.234475e-07
1.004338e-07
8.246264e-08
1.244103e-07
1.652127e-07
2.195212e-07
3.083708e-07
4.071308e-07
5.490234e-07
7.480428e-07
9.932868e-08
8.47142e-08
1.3661e-07
1.520847e-07
2.138981e-07
2.704805e-07
3.639609e-07
4.956027e-07
6.642666e-07
-8.969337e-08
4.09795e-08
1.009444e-07
1.573516e-07
1.994978e-07
3.408106e-07
4.723616e-07
6.31711e-07
8.802965e-07
3.842855e-08
-0.0003885109
-0.004604776
-0.008621673
-0.008744253
-0.009621891
-0.01017945
-0.01093887
-0.01214895
0.005382288
-0.0003613362
0.0002465935
-0.0009229185
-0.001521711
-0.001448829
-0.001694186
-0.001848624
-0.002037925
0.0036134
-0.0006048691
0.0003245489
-0.001873107
-0.000878241
-0.001287092
-0.001142809
-0.001293115
-0.001361314
0.00170533
0.0005484764
0.0007980893
0.0004517951
0.0006716957
0.0007612358
0.0007489448
0.0006403392
0.000554569
0.001860834
-0.0001384971
0.000508554
-0.0001623828
0.0001247355
-7.449298e-06
9.218898e-05
2.626725e-05
4.01706e-05
-0.0005445549
9.544585e-06
3.527262e-05
-6.277515e-05
-6.05299e-05
-0.0001133285
-0.0001106539
-0.000167896
-0.0002002736
-0.0002786737
-0.0001787696
-6.577626e-05
-0.0001817648
-0.000139692
-0.0001983599
-0.000181841
-0.0002118266
-0.0002066095
0.0004731833
-7.88952e-05
4.054717e-05
-0.0001194933
-0.0001025247
-0.0001721344
-0.0001716907
-0.0002054099
-0.000210799
-0.0002285298
-0.0003428664
-0.0002954108
-0.0001802222
-0.0001626003
-0.0001156657
-0.0001439558
-0.0001249652
-0.0001398568
-0.000132724
-0.0001410961
-0.000150885
-0.0003990346
-0.0001601595
-0.0001640683
-9.401498e-05
-0.0001233208
-9.985277e-05
-0.0001129875
-0.000104449
-0.0001119074
-0.0007168279
-0.000576195
-0.0002507394
-0.0001779284
-7.173128e-05
-8.347969e-05
-5.037169e-05
-6.182831e-05
-5.233869e-05
-6.109226e-05
-0.0002412992
-0.0005496225
-0.0001586413
-0.0001777503
-5.649939e-05
-8.390992e-05
-4.256897e-05
-5.503581e-05
-3.871589e-05
-4.583775e-05
-0.001301019
-0.0006606802
-0.0002185557
-0.0001174117
3.230386e-05
1.364565e-05
5.166055e-05
1.335045e-05
2.172517e-05
-3.933387e-06
0.0001756472
-0.0004188709
-6.667795e-05
-9.768675e-05
-3.320569e-06
-4.377712e-05
-1.214354e-05
-3.195907e-05
3.171133e-07
-2.134269e-05
-0.0003947537
-0.0003814416
2.38574e-05
0.0001354212
0.0003490647
0.0002690448
0.0003030832
0.0001420993
0.0001517006
5.2812e-05
0.0005285072
-0.0001939032
6.798854e-05
8.633206e-05
-2.081841e-06
-3.425059e-05
-4.975695e-05
-7.005865e-05
2.392854e-05
-3.968299e-05
-0.001055305
-0.000228249
0.0003314536
0.000775444
0.001290587
0.001045427
0.001049797
0.0004538924
0.0004846894
0.0001356145
4.722635e-08
1.317113e-07
1.269717e-07
2.418139e-07
2.995574e-07
4.58555e-07
5.962175e-07
8.660592e-07
6.304078e-08
7.274692e-08
1.006563e-07
1.218873e-07
1.852551e-07
2.424034e-07
3.300219e-07
4.448548e-07
5.962465e-07
4.568215e-08
9.3437e-08
1.073981e-07
1.373977e-07
1.922698e-07
2.430542e-07
3.289174e-07
4.198906e-07
5.612322e-07
-3.093917e-08
5.259369e-08
1.069773e-07
1.157285e-07
1.947235e-07
2.443936e-07
3.60165e-07
5.053232e-07
7.407181e-07
4.443228e-08
8.842687e-08
8.710072e-08
1.115985e-07
1.502979e-07
2.199949e-07
3.008401e-07
3.647743e-07
4.869037e-07
-1.388607e-08
-3.563993e-08
7.880862e-08
1.032662e-07
1.709367e-07
1.899591e-07
2.732973e-07
4.557049e-07
7.871796e-07
4.072257e-09
-0.001250523
0.01416661
0.006364954
0.01132483
0.009427895
0.009161356
0.008637243
0.01120975
0.01951302
0.001420595
0.003186411
0.003923488
0.003072862
0.003776187
0.003379163
0.003159923
0.002884916
-0.001858259
0.001110735
0.006143382
0.00488407
0.007325852
0.006945658
0.007466193
0.007443032
0.00756331
0.005126828
0.002580631
0.001779466
0.00163178
0.001553563
0.001585549
0.00150443
0.001346361
0.001268804
-0.004524342
-0.0005182958
0.001727389
0.0007521671
0.001350363
0.0012157
0.00139883
0.001376025
0.001428816
0.003447108
0.0004506012
0.0001523855
0.0001928431
0.0001286655
9.622018e-05
8.174205e-05
1.734894e-05
-5.288901e-06
-0.0004134792
0.00121011
-0.000269721
0.0001779565
0.0001167327
0.000134698
0.0001737657
0.0001592441
0.0001799607
0.001124405
0.000222209
0.0004357286
1.622572e-05
-1.984581e-05
-9.024636e-05
-9.114619e-05
-0.0001242423
-0.0001248254
0.002582761
-0.0003446894
0.0001270907
-6.054117e-05
-4.461761e-05
-5.45861e-05
-3.552889e-05
-4.609624e-05
-3.530322e-05
-4.187836e-05
-0.005454672
0.0005523744
-0.0005568121
-5.135447e-05
-0.0001244565
-9.210419e-05
-7.567312e-05
-8.749594e-05
-7.773131e-05
-8.554813e-05
-0.002239799
-0.0003129668
-0.0003256246
-0.0001191618
-8.393381e-05
-6.065488e-05
-3.005499e-05
-4.031807e-05
-2.846801e-05
-3.659592e-05
-0.0006262706
-0.001003834
9.563642e-05
-0.0001829478
-5.259858e-05
-7.447567e-05
-3.357267e-05
-4.836266e-05
-2.897529e-05
-3.871342e-05
-0.000137619
-4.675759e-05
-0.0003385888
-5.207372e-05
-5.394112e-06
3.832272e-06
4.496646e-05
9.607065e-06
2.394038e-05
-2.597295e-06
-0.002401905
-0.0006743369
0.0001910714
-0.0001237865
-1.794983e-05
-6.145204e-05
-2.24869e-05
-4.163612e-05
-3.831628e-06
-2.257948e-05
-0.004167506
0.0007916668
-0.000332078
0.0001311836
0.0001875418
0.0001473168
0.000208115
8.389607e-05
0.0001229742
3.714367e-05
-0.00231536
-0.0008456636
0.0005596144
-0.0001554634
-0.0001169836
-0.0002126229
-0.0001972597
-0.0001743367
-3.398744e-05
-6.590726e-05
-0.0008142094
-0.001014257
0.0004573023
-6.264512e-06
0.0005104003
0.0002425385
0.000473656
9.448449e-05
0.0003071443
6.086215e-05
6.438446e-08
1.690326e-07
1.35769e-07
1.808513e-07
3.209119e-07
4.843463e-07
7.560975e-07
1.06705e-06
1.651809e-06
7.405684e-08
4.782083e-08
5.455489e-08
9.428668e-08
1.178984e-07
2.019292e-07
2.495421e-07
4.249519e-07
5.939071e-07
1.05499e-07
1.732466e-08
6.23673e-08
6.96058e-08
1.10884e-07
1.418899e-07
2.054375e-07
2.486222e-07
3.499972e-07
5.447416e-08
3.241704e-08
4.857232e-08
9.673504e-08
1.285197e-07
2.044804e-07
2.985711e-07
5.135408e-07
7.51507e-07
2.361077e-08
7.807126e-08
4.461809e-08
6.098055e-08
3.928952e-08
8.856642e-08
1.13591e-07
1.796351e-07
2.380767e-07
-1.49007e-07
-3.235176e-08
7.990601e-08
2.234941e-08
7.068847e-08
3.063038e-07
3.923676e-07
6.32349e-07
1.044027e-06
-1.532648e-08
3.938566e-07
5.254049e-08
-9.340211e-08
-4.286916e-07
-7.180986e-07
-8.765314e-07
-1.095771e-06
-2.454134e-06
0.00487893
0.03711242
0.02476041
0.02645889
0.02531235
0.02750444
0.02661094
0.01660707
0.01197793
0.02181125
0.0003497726
0.0009275108
0.0008277982
-0.001607723
-0.001680784
-0.001983433
-0.002754461
-0.005176521
0.02107747
-0.001317826
0.00317348
0.00130713
0.003126466
0.002644088
0.003316623
0.003818454
0.004693815
0.02213825
0.0005159437
0.0002463195
-0.0003404922
-0.0006128721
-0.0008075914
-0.0009424203
-0.001276212
-0.001710528
0.02160771
-0.000588728
0.0008713652
0.0001257317
0.0006655763
0.0005092157
0.0006876313
0.0007402619
0.0008786584
0.01997094
0.0005411746
-0.0002914207
-0.0001368741
-0.0002721605
-0.0003149818
-0.0003417544
-0.0004121129
-0.0004666996
0.02312189
-0.0001844602
-0.0001759165
-7.295449e-05
2.957451e-05
2.594184e-05
7.444446e-05
7.859106e-05
0.0001091686
0.02173489
-0.0003573851
2.456586e-05
-0.0001190124
-8.615886e-05
-0.0001296846
-0.0001227613
-0.0001457086
-0.0001449874
0.01539493
-0.0005518473
-0.0006180766
-0.0001717259
-0.0001045493
-6.711553e-05
-4.009714e-05
-3.865579e-05
-2.642219e-05
0.02193344
-0.0006115124
-0.0004621558
-0.0002110256
-0.0001094246
-9.946364e-05
-6.806358e-05
-7.544783e-05
-6.374309e-05
-7.040837e-05
0.0207419
-0.001005307
-0.0004966797
-0.0002656219
-0.0001033239
-8.642295e-05
-4.168777e-05
-4.623046e-05
-3.172509e-05
-3.611879e-05
0.01451632
-0.00155378
-0.0003575152
-0.0003467017
-9.701102e-05
-0.0001110564
-5.35477e-05
-6.048023e-05
-3.865807e-05
-4.346747e-05
0.02243042
-0.001283224
-0.0001659371
-0.0002901514
-1.471262e-05
-5.879812e-05
3.123223e-06
-2.917976e-05
-5.298725e-06
-2.245491e-05
0.01154806
-0.001512908
-0.000407991
-0.0003590198
-0.0001139414
-0.0001531734
-8.571647e-05
-9.86076e-05
-4.296828e-05
-5.067407e-05
0.02257052
-0.0009660754
-0.0001615426
-0.0001319177
0.0002964222
0.0001522811
0.0002348058
2.127355e-05
8.055512e-05
-1.933237e-06
0.01372908
-0.001062702
-0.0001548873
-0.0003091236
-0.0002868201
-0.0004452527
-0.0004176637
-0.0003168855
-9.665677e-05
-0.0001177965
-0.01704123
-0.0006157602
0.0007222302
0.0006958954
0.002129457
0.001400621
0.001410015
0.0003635111
0.0005125898
5.409097e-05
3.205307e-08
9.296576e-08
1.739084e-07
3.45996e-07
5.023615e-07
8.157907e-07
2.089211e-06
1.986951e-06
2.847553e-06
2.873254e-08
3.454496e-09
2.686634e-08
8.664582e-09
4.311746e-08
1.847441e-08
5.730998e-08
4.982032e-08
9.23915e-08
-1.0932e-07
1.889397e-08
1.694946e-08
1.890076e-08
1.742053e-08
3.002875e-08
2.91083e-08
4.114062e-08
3.424457e-08
-9.471258e-08
-9.515665e-09
3.858444e-08
3.503621e-08
8.397217e-08
1.154323e-07
1.891907e-07
2.736115e-07
4.25475e-07
-1.782815e-07
2.286712e-08
3.507684e-08
2.562833e-08
6.831097e-08
4.400511e-08
1.051099e-07
1.781853e-07
3.407355e-07
-1.551726e-07
-2.576253e-07
-3.737018e-07
-3.129213e-07
-5.511105e-07
-7.934171e-07
-1.203336e-06
-1.878065e-06
-3.130715e-06
-5.209994e-06
-2.657584e-07
-9.964841e-10
-3.338583e-07
-4.191815e-07
-6.756098e-07
-1.053794e-06
-1.727643e-06
-2.860711e-06
-6.128029e-06
0.03213898
0.02240826
0.01783184
-0.01448157
-0.006229989
0.009230861
0.01835949
0.01229154
0.003978904
0.02019012
0.02262958
0.03163522
0.03456073
0.03512947
0.03529155
0.03517385
0.03483922
0.03287225
0.01510065
0.0005200216
0.002452965
0.001330244
0.001362412
0.000976707
0.001121108
0.001207832
0.001254932
0.02798851
-0.0008991923
-0.0002006416
-0.0008985086
-0.0009081094
-0.001025027
-0.001109955
-0.001327314
-0.001744774
0.03602414
0.001816989
-0.0004903428
-0.00125701
-0.001258795
-0.00144638
-0.001422008
-0.001409546
-0.001336829
0.0201967
-0.0003793851
-0.0002767944
-0.0004180271
-0.0004430553
-0.0004825424
-0.0005076044
-0.0005610141
-0.0006311268
0.07041877
-0.001924229
0.0002526489
-0.0005341412
-0.0003443247
-0.0004371679
-0.0004103194
-0.0004295841
-0.0004259402
0.03197595
0.0002537223
-7.24987e-05
-0.000241492
-0.000165274
-0.0001889383
-0.0001721362
-0.0001895704
-0.000198339
0.004154135
0.0002059899
-0.000563781
-0.0002601114
-0.0001909458
-0.0001711744
-0.0001394567
-0.00014401
-0.0001402687
0.03535082
-0.0001616452
0.0005569385
-0.0002289308
-2.799683e-05
-9.373779e-05
-5.920615e-05
-7.16363e-05
-6.926599e-05
0.03291602
3.660736e-05
0.0001740272
-0.0002187836
-4.294666e-05
-7.396139e-05
-3.559525e-05
-4.730951e-05
-4.318815e-05
-4.978552e-05
0.03824573
0.0002573049
-2.151382e-06
-0.0001845301
-2.736385e-05
-4.848508e-05
-1.119384e-05
-2.341381e-05
-1.670546e-05
-2.456791e-05
0.02685717
-0.0009370721
0.0005980826
-0.0002002623
0.0001061106
2.837549e-05
6.757646e-05
2.635082e-05
2.424793e-05
5.590483e-07
0.05021702
0.0005091663
2.785499e-05
-9.648797e-05
2.829396e-05
1.222084e-05
2.751221e-05
8.892856e-06
2.09971e-05
-1.55442e-06
0.02465027
-0.0005339928
0.001007604
0.0001871397
0.0006512827
0.0004711084
0.0004675802
0.0002301247
0.0001899877
6.92512e-05
0.0392074
0.001923765
9.688885e-05
0.0004597501
-1.464085e-05
3.08361e-05
-5.546432e-05
4.084068e-05
8.02612e-05
-2.120728e-06
0.03065537
0.002021678
0.001106108
0.001529583
0.002767657
0.002069859
0.002061326
0.0007014979
0.0007193475
0.0002095889
-2.069406e-08
2.58668e-08
1.364606e-08
7.887351e-08
-3.72657e-09
1.885379e-08
9.075397e-09
1.020367e-08
-1.519904e-08
1.287596e-08
-1.828286e-08
5.126286e-09
2.238076e-08
-2.386802e-08
-4.252429e-09
-1.231204e-08
2.39517e-08
6.970543e-08
4.481581e-08
5.991472e-08
3.721438e-08
4.250162e-09
1.502049e-08
4.01337e-09
2.263292e-08
4.334209e-08
3.283113e-08
2.071651e-08
-3.656332e-09
7.066166e-09
2.347238e-08
2.709427e-08
3.657539e-08
2.292497e-08
-1.799602e-08
1.80744e-08
9.742457e-10
9.597582e-08
4.306578e-08
2.034202e-07
7.754818e-08
2.092939e-08
-0.01505309
1.010154e-07
4.665641e-08
-0.01177774
1.755652e-08
-0.01676284
-0.02081102
1.237361e-07
3.270794e-09
-0.05670892
-0.05631685
9.642652e-08
-0.0208589
-0.0194868