/*--------------------------------*- C++ -*----------------------------------*\
  =========                 |
  \\      /  F ield         | OpenFOAM: The Open Source CFD Toolbox
   \\    /   O peration     | Website:  https://openfoam.org
    \\  /    A nd           | Version:  7
     \\/     M anipulation  |
\*---------------------------------------------------------------------------*/
FoamFile
{
    version     2.0;
    format      ascii;
    class       volScalarField;
    location    "0.08";
    object      epsilon;
}
// * * * * * * * * * * * * * * * * * * * * * * * * * * * * * * * * * * * * * //

dimensions      [0 2 -3 0 0 0 0];

internalField   nonuniform List<scalar> 
105056
(
0.001891766
0.001944368
0.001949443
0.001950403
0.001950745
0.001944276
0.002045361
0.002055934
0.002057594
0.002057877
0.001949367
0.00205596
0.002067965
0.0020699
0.002070131
0.001950398
0.002057773
0.002070098
0.002072127
0.002072317
0.001951027
0.002058582
0.002070983
0.002073025
0.002073185
0.001951571
0.002059203
0.002071629
0.002073657
0.002073783
0.001952097
0.002059783
0.002072224
0.002074231
0.002074328
0.00195262
0.002060371
0.002072807
0.00207479
0.002074858
0.001953152
0.002060966
0.002073393
0.002075356
0.0020754
0.001953687
0.002061571
0.002073977
0.002075932
0.002075953
0.00195423
0.002062184
0.002074577
0.002076518
0.00207652
0.001954779
0.002062802
0.002075179
0.002077114
0.002077099
0.001955331
0.002063427
0.002075788
0.002077719
0.00207769
0.001955889
0.00206406
0.002076411
0.002078332
0.002078293
0.001956451
0.002064701
0.002077041
0.002078964
0.002078904
0.001957016
0.00206535
0.002077683
0.002079587
0.002079527
0.001957586
0.002066004
0.002078339
0.002080216
0.002080158
0.001958161
0.002066663
0.002078997
0.002080855
0.002080804
0.001958741
0.002067321
0.002079651
0.002081491
0.002081436
0.001959318
0.002067956
0.002080276
0.002082093
0.002082019
0.001959855
0.002068488
0.002080761
0.002082539
0.002082448
0.001960197
0.002068641
0.002080775
0.00208248
0.002082389
0.01077436
0.002068174
0.002080082
0.002081679
0.002081623
0.002073187
0.002076063
0.002076481
0.002077014
0.002077574
0.002073437
0.01079097
0.01079102
0.0107911
0.01079118
0.01079126
0.002076163
0.01079108
0.01079113
0.01079121
0.01079129
0.01079137
0.002076587
0.0107912
0.01079125
0.01079132
0.0107914
0.01079148
0.00207713
0.01079132
0.01079136
0.01079144
0.01079152
0.0107916
0.002077733
0.01079143
0.01079148
0.01079156
0.01079163
0.01079171
0.002078347
0.01079155
0.0107916
0.01079168
0.01079175
0.01079183
0.002078965
0.01079167
0.01079172
0.01079179
0.01079187
0.01079195
0.002079581
0.01079179
0.01079184
0.01079191
0.01079199
0.01079207
0.002080199
0.01079191
0.01079196
0.01079204
0.01079211
0.01079219
0.002080814
0.01079203
0.01079208
0.01079216
0.01079223
0.01079231
0.002081442
0.01079216
0.0107922
0.01079228
0.01079236
0.01079243
0.002082074
0.01079228
0.01079232
0.0107924
0.01079248
0.01079256
0.002082711
0.0107924
0.01079245
0.01079253
0.01079261
0.01079268
0.002083352
0.01079253
0.01079258
0.01079266
0.01079273
0.01079281
0.002083998
0.01079266
0.0107927
0.01079278
0.01079286
0.01079294
0.002084648
0.01079279
0.01079283
0.01079291
0.01079299
0.01079307
0.002085305
0.01079292
0.01079296
0.01079304
0.01079312
0.0107932
0.002085967
0.01079305
0.01079309
0.01079318
0.01079326
0.01079334
0.002086638
0.01079318
0.01079323
0.01079331
0.01079339
0.01079347
0.002087316
0.01079332
0.01079336
0.01079345
0.01079353
0.01079361
0.002088001
0.01079346
0.0107935
0.01079358
0.01079367
0.01079375
0.002088676
0.0107936
0.01079363
0.01079372
0.01079381
0.01079389
0.002089013
0.01079372
0.01079377
0.01079386
0.01079395
0.01079403
0.00206971
0.002075143
0.002075381
0.002075816
0.002076423
0.002069912
0.01079097
0.01079101
0.01079109
0.01079117
0.01079124
0.002075228
0.01079107
0.01079112
0.0107912
0.01079128
0.01079136
0.002075464
0.01079118
0.01079123
0.01079131
0.01079139
0.01079147
0.002075886
0.0107913
0.01079135
0.01079143
0.0107915
0.01079158
0.002076469
0.01079141
0.01079147
0.01079154
0.01079162
0.01079169
0.002077082
0.01079153
0.01079158
0.01079166
0.01079173
0.01079181
0.002077701
0.01079165
0.0107917
0.01079177
0.01079185
0.01079193
0.002078323
0.01079176
0.01079181
0.01079189
0.01079197
0.01079204
0.00207895
0.01079188
0.01079193
0.01079201
0.01079209
0.01079216
0.00207958
0.010792
0.01079205
0.01079213
0.01079221
0.01079228
0.002080215
0.01079212
0.01079217
0.01079225
0.01079233
0.0107924
0.002080855
0.01079224
0.01079229
0.01079237
0.01079245
0.01079253
0.002081502
0.01079236
0.01079242
0.01079249
0.01079257
0.01079265
0.002082155
0.01079248
0.01079254
0.01079262
0.0107927
0.01079277
0.002082816
0.01079261
0.01079266
0.01079274
0.01079282
0.0107929
0.002083482
0.01079274
0.01079279
0.01079287
0.01079295
0.01079303
0.002084152
0.01079286
0.01079292
0.010793
0.01079308
0.01079316
0.002084832
0.01079299
0.01079305
0.01079313
0.01079321
0.01079329
0.002085519
0.01079312
0.01079318
0.01079326
0.01079334
0.01079342
0.002086216
0.01079326
0.01079331
0.0107934
0.01079348
0.01079356
0.002086928
0.01079339
0.01079344
0.01079353
0.01079361
0.0107937
0.002087669
0.01079352
0.01079358
0.01079367
0.01079375
0.01079384
0.002088422
0.01079366
0.01079372
0.0107938
0.01079389
0.01079397
0.002069251
0.002074523
0.002074689
0.002075075
0.002075697
0.002069442
0.01079097
0.01079101
0.01079109
0.01079116
0.01079124
0.002074608
0.01079107
0.01079112
0.0107912
0.01079128
0.01079136
0.002074767
0.01079118
0.01079123
0.01079131
0.01079139
0.01079147
0.002075132
0.0107913
0.01079135
0.01079143
0.0107915
0.01079158
0.002075689
0.01079141
0.01079147
0.01079154
0.01079162
0.01079169
0.002076296
0.01079153
0.01079158
0.01079166
0.01079173
0.01079181
0.002076917
0.01079165
0.0107917
0.01079177
0.01079185
0.01079193
0.002077542
0.01079176
0.01079181
0.01079189
0.01079197
0.01079204
0.002078169
0.01079188
0.01079193
0.01079201
0.01079209
0.01079216
0.002078799
0.010792
0.01079205
0.01079213
0.01079221
0.01079228
0.00207943
0.01079212
0.01079217
0.01079225
0.01079233
0.0107924
0.002080071
0.01079224
0.01079229
0.01079237
0.01079245
0.01079253
0.002080719
0.01079236
0.01079242
0.01079249
0.01079257
0.01079265
0.002081373
0.01079248
0.01079254
0.01079262
0.0107927
0.01079277
0.002082032
0.01079261
0.01079266
0.01079274
0.01079282
0.0107929
0.0020827
0.01079273
0.01079279
0.01079287
0.01079295
0.01079303
0.002083366
0.01079286
0.01079292
0.010793
0.01079308
0.01079316
0.00208405
0.01079299
0.01079305
0.01079313
0.01079321
0.01079329
0.002084737
0.01079312
0.01079318
0.01079326
0.01079334
0.01079342
0.00208544
0.01079325
0.01079331
0.01079339
0.01079348
0.01079356
0.002086163
0.01079339
0.01079344
0.01079353
0.01079361
0.0107937
0.002086942
0.01079352
0.01079358
0.01079367
0.01079375
0.01079383
0.002087789
0.01079366
0.01079372
0.0107938
0.01079389
0.01079397
0.002069147
0.002074344
0.002074473
0.002074842
0.002075464
0.002069365
0.01079097
0.01079101
0.01079108
0.01079116
0.01079124
0.002074433
0.01079107
0.01079112
0.0107912
0.01079128
0.01079135
0.002074553
0.01079118
0.01079123
0.01079131
0.01079139
0.01079147
0.002074894
0.0107913
0.01079135
0.01079143
0.0107915
0.01079158
0.00207544
0.01079141
0.01079147
0.01079154
0.01079162
0.01079169
0.002076041
0.01079153
0.01079158
0.01079166
0.01079173
0.01079181
0.002076661
0.01079165
0.0107917
0.01079177
0.01079185
0.01079193
0.002077281
0.01079176
0.01079181
0.01079189
0.01079197
0.01079204
0.002077908
0.01079188
0.01079193
0.01079201
0.01079209
0.01079216
0.002078537
0.010792
0.01079205
0.01079213
0.01079221
0.01079228
0.002079169
0.01079212
0.01079217
0.01079225
0.01079233
0.0107924
0.00207981
0.01079224
0.01079229
0.01079237
0.01079245
0.01079253
0.002080457
0.01079236
0.01079241
0.01079249
0.01079257
0.01079265
0.002081112
0.01079248
0.01079254
0.01079262
0.0107927
0.01079277
0.002081769
0.01079261
0.01079266
0.01079274
0.01079282
0.0107929
0.002082438
0.01079273
0.01079279
0.01079287
0.01079295
0.01079303
0.0020831
0.01079286
0.01079292
0.010793
0.01079308
0.01079316
0.002083781
0.01079299
0.01079305
0.01079313
0.01079321
0.01079329
0.002084472
0.01079312
0.01079318
0.01079326
0.01079334
0.01079342
0.00208517
0.01079325
0.01079331
0.01079339
0.01079348
0.01079356
0.002085896
0.01079339
0.01079344
0.01079353
0.01079361
0.0107937
0.00208669
0.01079352
0.01079358
0.01079366
0.01079375
0.01079383
0.002087572
0.01079366
0.01079372
0.0107938
0.01079389
0.01079397
0.002069172
0.002074338
0.002074462
0.002074834
0.002075455
0.00206935
0.01079097
0.01079101
0.01079108
0.01079116
0.01079124
0.002074423
0.01079107
0.01079112
0.0107912
0.01079128
0.01079135
0.002074544
0.01079118
0.01079123
0.01079131
0.01079139
0.01079147
0.002074884
0.0107913
0.01079135
0.01079143
0.0107915
0.01079158
0.002075427
0.01079141
0.01079147
0.01079154
0.01079162
0.01079169
0.002076029
0.01079153
0.01079158
0.01079166
0.01079173
0.01079181
0.002076648
0.01079165
0.0107917
0.01079177
0.01079185
0.01079193
0.002077269
0.01079176
0.01079181
0.01079189
0.01079197
0.01079204
0.002077897
0.01079188
0.01079193
0.01079201
0.01079209
0.01079216
0.002078524
0.010792
0.01079205
0.01079213
0.01079221
0.01079228
0.002079155
0.01079212
0.01079217
0.01079225
0.01079233
0.0107924
0.002079795
0.01079224
0.01079229
0.01079237
0.01079245
0.01079253
0.00208044
0.01079236
0.01079241
0.01079249
0.01079257
0.01079265
0.002081095
0.01079248
0.01079254
0.01079262
0.0107927
0.01079277
0.002081751
0.01079261
0.01079266
0.01079274
0.01079282
0.0107929
0.002082418
0.01079273
0.01079279
0.01079287
0.01079295
0.01079303
0.002083087
0.01079286
0.01079292
0.010793
0.01079308
0.01079316
0.002083766
0.01079299
0.01079305
0.01079313
0.01079321
0.01079329
0.002084454
0.01079312
0.01079318
0.01079326
0.01079334
0.01079342
0.002085154
0.01079325
0.01079331
0.01079339
0.01079348
0.01079356
0.002085882
0.01079339
0.01079344
0.01079353
0.01079361
0.0107937
0.002086678
0.01079352
0.01079358
0.01079367
0.01079375
0.01079384
0.00208756
0.01079366
0.01079372
0.0107938
0.01079389
0.01079398
0.002069176
0.00207442
0.002074571
0.002074948
0.002075575
0.002069387
0.01079097
0.01079101
0.01079109
0.01079116
0.01079124
0.002074504
0.01079107
0.01079112
0.0107912
0.01079128
0.01079136
0.002074649
0.01079118
0.01079123
0.01079131
0.01079139
0.01079147
0.002075006
0.0107913
0.01079135
0.01079143
0.0107915
0.01079158
0.002075558
0.01079141
0.01079147
0.01079154
0.01079162
0.01079169
0.002076162
0.01079153
0.01079158
0.01079166
0.01079173
0.01079181
0.002076782
0.01079165
0.0107917
0.01079177
0.01079185
0.01079193
0.002077406
0.01079176
0.01079181
0.01079189
0.01079197
0.01079204
0.002078035
0.01079188
0.01079193
0.01079201
0.01079209
0.01079216
0.002078662
0.010792
0.01079205
0.01079213
0.01079221
0.01079228
0.002079293
0.01079212
0.01079217
0.01079225
0.01079233
0.0107924
0.002079934
0.01079224
0.01079229
0.01079237
0.01079245
0.01079253
0.002080581
0.01079236
0.01079242
0.0107925
0.01079257
0.01079265
0.002081236
0.01079248
0.01079254
0.01079262
0.0107927
0.01079277
0.002081894
0.01079261
0.01079267
0.01079275
0.01079282
0.0107929
0.002082561
0.01079273
0.01079279
0.01079287
0.01079295
0.01079303
0.002083233
0.01079286
0.01079292
0.010793
0.01079308
0.01079316
0.002083912
0.01079299
0.01079305
0.01079313
0.01079321
0.01079329
0.0020846
0.01079312
0.01079318
0.01079326
0.01079334
0.01079343
0.002085299
0.01079325
0.01079331
0.0107934
0.01079348
0.01079356
0.002086022
0.01079339
0.01079345
0.01079353
0.01079362
0.0107937
0.00208681
0.01079352
0.01079358
0.01079367
0.01079375
0.01079384
0.002087679
0.01079366
0.01079372
0.01079381
0.01079389
0.01079398
0.002069453
0.002074931
0.002075178
0.002075595
0.002076213
0.002069653
0.01079097
0.01079101
0.01079109
0.01079117
0.01079124
0.002075018
0.01079107
0.01079112
0.0107912
0.01079128
0.01079136
0.002075253
0.01079118
0.01079123
0.01079131
0.01079139
0.01079147
0.002075658
0.0107913
0.01079135
0.01079143
0.0107915
0.01079158
0.002076234
0.01079141
0.01079147
0.01079154
0.01079162
0.01079169
0.002076851
0.01079153
0.01079158
0.01079166
0.01079173
0.01079181
0.002077471
0.01079165
0.0107917
0.01079177
0.01079185
0.01079193
0.002078097
0.01079177
0.01079181
0.01079189
0.01079197
0.01079204
0.002078725
0.01079188
0.01079193
0.01079201
0.01079209
0.01079216
0.002079356
0.010792
0.01079205
0.01079213
0.01079221
0.01079228
0.002079992
0.01079212
0.01079217
0.01079225
0.01079233
0.0107924
0.002080635
0.01079224
0.01079229
0.01079237
0.01079245
0.01079253
0.002081284
0.01079236
0.01079242
0.01079249
0.01079257
0.01079265
0.002081939
0.01079249
0.01079254
0.01079262
0.0107927
0.01079277
0.002082599
0.01079261
0.01079267
0.01079274
0.01079282
0.0107929
0.002083266
0.01079274
0.01079279
0.01079287
0.01079295
0.01079303
0.002083935
0.01079286
0.01079292
0.010793
0.01079308
0.01079316
0.002084613
0.01079299
0.01079305
0.01079313
0.01079321
0.01079329
0.002085304
0.01079312
0.01079318
0.01079326
0.01079334
0.01079343
0.002086001
0.01079326
0.01079331
0.0107934
0.01079348
0.01079356
0.002086719
0.01079339
0.01079345
0.01079353
0.01079362
0.0107937
0.002087482
0.01079353
0.01079358
0.01079367
0.01079375
0.01079384
0.002088294
0.01079366
0.01079372
0.01079381
0.01079389
0.01079398
0.002068423
0.002072136
0.002072375
0.002072863
0.002073447
0.002068594
0.01079097
0.01079102
0.0107911
0.01079118
0.01079126
0.002072218
0.01079108
0.01079113
0.01079121
0.01079129
0.01079137
0.002072457
0.0107912
0.01079124
0.01079132
0.0107914
0.01079148
0.00207294
0.01079131
0.01079136
0.01079144
0.01079151
0.01079159
0.002073534
0.01079143
0.01079148
0.01079156
0.01079163
0.01079171
0.00207414
0.01079155
0.0107916
0.01079167
0.01079175
0.01079183
0.00207475
0.01079167
0.01079172
0.01079179
0.01079187
0.01079194
0.002075366
0.01079179
0.01079183
0.01079191
0.01079199
0.01079206
0.002075986
0.01079191
0.01079196
0.01079203
0.01079211
0.01079219
0.002076611
0.01079203
0.01079208
0.01079216
0.01079223
0.01079231
0.002077243
0.01079216
0.0107922
0.01079228
0.01079235
0.01079243
0.00207788
0.01079228
0.01079232
0.0107924
0.01079248
0.01079256
0.00207852
0.0107924
0.01079245
0.01079253
0.01079261
0.01079268
0.002079161
0.01079253
0.01079257
0.01079265
0.01079273
0.01079281
0.002079811
0.01079266
0.0107927
0.01079278
0.01079286
0.01079294
0.002080469
0.01079279
0.01079283
0.01079291
0.01079299
0.01079307
0.002081132
0.01079292
0.01079296
0.01079304
0.01079312
0.0107932
0.002081799
0.01079305
0.01079309
0.01079317
0.01079326
0.01079334
0.002082472
0.01079318
0.01079322
0.01079331
0.01079339
0.01079347
0.002083155
0.01079332
0.01079336
0.01079344
0.01079353
0.01079361
0.002083846
0.01079346
0.01079349
0.01079358
0.01079366
0.01079375
0.002084547
0.01079359
0.01079363
0.01079372
0.0107938
0.01079389
0.002089015
0.01079373
0.01079377
0.01079386
0.01079394
0.01079403
0.005647979
0.005725038
0.005732806
0.005739491
0.005746066
0.005648357
0.01078495
0.01078495
0.01078443
0.01078405
0.01078362
0.005725496
0.01078532
0.01078574
0.01078514
0.01078494
0.01078478
0.005733325
0.01078553
0.01078599
0.01078614
0.01078586
0.0107857
0.005740176
0.01078575
0.01078621
0.0107864
0.01078656
0.01078632
0.005746926
0.01078598
0.01078644
0.01078663
0.01078684
0.010787
0.005753715
0.01078621
0.01078666
0.01078685
0.01078706
0.01078728
0.005760453
0.01078643
0.01078689
0.01078708
0.01078729
0.0107875
0.005767187
0.01078666
0.01078712
0.01078731
0.01078752
0.01078773
0.00577386
0.01078688
0.01078736
0.01078754
0.01078775
0.01078797
0.005780521
0.01078711
0.01078759
0.01078778
0.01078799
0.0107882
0.005787237
0.01078733
0.01078782
0.01078801
0.01078822
0.01078843
0.005794046
0.01078756
0.01078806
0.01078824
0.01078845
0.01078866
0.00580088
0.01078779
0.0107883
0.01078848
0.01078869
0.0107889
0.005807746
0.01078801
0.01078853
0.01078872
0.01078892
0.01078914
0.005814713
0.01078824
0.01078877
0.01078896
0.01078916
0.01078938
0.005821817
0.01078847
0.01078901
0.0107892
0.01078941
0.01078962
0.005828946
0.0107887
0.01078925
0.01078944
0.01078965
0.01078986
0.005836096
0.01078893
0.0107895
0.01078969
0.0107899
0.0107901
0.005843271
0.01078916
0.01078974
0.01078994
0.01079015
0.01079035
0.005850482
0.0107894
0.01078999
0.01079018
0.0107904
0.01079061
0.00585782
0.01078963
0.01079024
0.01079043
0.01079065
0.01079086
0.005865159
0.0107899
0.01079049
0.01079068
0.01079091
0.01079112
0.005872207
0.00195961
0.01079079
0.01079098
0.01079121
0.01079141
0.004006885
0.006329294
0.006330313
0.01079103
0.003982165
0.004134721
0.005647921
0.00572344
0.01079108
0.01079119
0.004138041
0.004144927
0.00572499
0.005731591
0.01079123
0.01079137
0.004144279
0.00414829
0.005732678
0.005738152
0.01079139
0.01079155
0.004147478
0.004151261
0.005739346
0.00574461
0.01079156
0.01079172
0.004150392
0.005745886
0.01079172
0.005638451
0.005639563
0.01079098
0.005699429
0.005700428
0.01079098
0.005699716
0.005700683
0.01079097
0.005700549
0.005701097
0.01079097
0.00570034
0.0057011
0.01079097
0.005700427
0.005700933
0.01079097
0.00570015
0.005701054
0.01079097
0.005700457
0.00570081
0.01079097
0.005700405
0.005700859
0.01079097
0.005700449
0.005700865
0.01079097
0.005700276
0.005701003
0.01079097
0.005700029
0.00570122
0.01079097
0.005700292
0.005701166
0.01079097
0.005700086
0.005700373
0.01079097
0.005699779
0.005700027
0.01079098
0.005638513
0.005639576
0.01079098
0.006329327
0.006330217
0.01079102
0.004006871
0.005731567
0.01079131
0.01079137
0.004138125
0.00414493
0.005738171
0.01079133
0.01079155
0.004144274
0.004148267
0.005744624
0.0107915
0.01079172
0.004147471
0.00415124
0.01079167
0.004150388
0.01079113
0.005723197
0.01079129
0.003982008
0.00413456
0.01079136
0.005731292
0.01079153
0.004137949
0.004144793
0.01079159
0.005737743
0.01079178
0.004144197
0.004148202
0.01079183
0.005744243
0.01079203
0.00414746
0.004151332
0.01079207
0.005750807
0.01079227
0.004150539
0.00415447
0.01079231
0.005757472
0.01079252
0.004153656
0.004157637
0.01079255
0.005764156
0.01079277
0.004156802
0.004160816
0.01079279
0.005770854
0.01079302
0.004159964
0.004163983
0.01079304
0.005777613
0.01079328
0.00416307
0.004167106
0.01079329
0.005784351
0.01079354
0.00416615
0.004170256
0.01079354
0.005791198
0.01079379
0.004169228
0.004173441
0.01079458
0.005819118
0.01079485
0.00418178
0.004186482
0.01079483
0.005826273
0.01079512
0.004184958
0.004189809
0.0107951
0.005833494
0.01079539
0.004188184
0.004193187
0.01079537
0.005840812
0.01079567
0.004191438
0.004196582
0.01079564
0.005848155
0.01079595
0.004194723
0.004199998
0.01079677
0.005876233
0.0107971
0.004207234
0.01076728
0.01078161
0.008033267
0.0107879
0.008160815
0.0107877
0.008180735
0.003982022
0.004134571
0.005648341
0.01079114
0.005723275
0.01079129
0.004137943
0.00414479
0.00572546
0.01079137
0.005731401
0.01079153
0.004144208
0.004148219
0.005733306
0.0107916
0.005737882
0.01079178
0.004147449
0.004151347
0.005740143
0.01079183
0.005744419
0.01079203
0.00415055
0.004154474
0.005746893
0.01079207
0.005751024
0.01079227
0.004153653
0.004157623
0.005753678
0.01079231
0.005757719
0.01079252
0.004156779
0.004160802
0.005760426
0.01079255
0.005764405
0.01079277
0.004159942
0.004163971
0.005767144
0.0107928
0.005771135
0.01079302
0.00416305
0.004167095
0.005773818
0.01079304
0.005777901
0.01079328
0.004166129
0.004170242
0.005780475
0.01079329
0.005784669
0.01079354
0.004169217
0.004173426
0.005787202
0.01079355
0.005791496
0.0107938
0.004172314
0.004176648
0.005793998
0.0107938
0.005798422
0.01079406
0.004175421
0.00417988
0.005800821
0.01079406
0.00580537
0.01079432
0.004178564
0.00418315
0.00580771
0.01079432
0.005812411
0.01079458
0.004181735
0.004186463
0.005814694
0.01079458
0.005819502
0.01079485
0.004184934
0.004189797
0.005821777
0.01079484
0.005826678
0.01079512
0.004188156
0.004193172
0.005828887
0.01079511
0.005833902
0.01079539
0.004191411
0.004196564
0.005836041
0.01079538
0.005841223
0.01079567
0.004194697
0.0042
0.005843215
0.01079565
0.005848579
0.01079595
0.004198012
0.004203451
0.005850445
0.01079592
0.005856039
0.01079623
0.004201342
0.004206885
0.005857752
0.0107962
0.005863542
0.01079652
0.004204617
0.0042099
0.005865135
0.01079648
0.005870989
0.0107968
0.004207226
0.01076734
0.005872222
0.01079676
0.005876229
0.01079706
0.01078156
0.01078156
0.01078155
0.01078155
0.01078157
0.01078152
0.01078159
0.01078151
0.01078158
0.01078153
0.01078157
0.01078153
0.01078154
0.01078153
0.01078158
0.01078153
0.01078169
0.01078157
0.005723404
0.01079101
0.01079118
0.003982156
0.004134736
0.01079379
0.005798093
0.01079405
0.004172328
0.004176622
0.01079405
0.005805015
0.01079432
0.004175437
0.004179899
0.0107943
0.005812016
0.01079355
0.004178597
0.004182982
0.01079592
0.005855617
0.01079623
0.004198024
0.004203438
0.01079619
0.005863105
0.01079651
0.00420134
0.004206905
0.01079644
0.00587052
0.01079519
0.004204637
0.004209705
0.01078752
0.008154648
0.01078756
0.007892089
0.01078624
0.008153909
0.01078579
0.007892163
0.01078166
0.01078153
0.0107876
0.008193164
0.01078795
0.008180487
0.01078156
0.01078151
0.01078153
0.01078149
0.01078155
0.01078147
0.01078152
0.01078152
0.01078153
0.01078147
0.01078152
0.01078148
0.01078151
0.01078149
0.01078155
0.01078154
0.01078158
0.008032943
0.01078752
0.008154656
0.01078758
0.00789178
0.01078624
0.008153987
0.01078579
0.007892221
0.01078837
0.008191109
0.01078754
0.008199709
0.01078742
0.008209009
0.01078831
0.008197818
0.01078874
0.008207284
0.01078702
0.008214456
0.01078722
0.008223797
0.01078863
0.008212636
0.01078908
0.008222178
0.01078677
0.008228528
0.01078705
0.008238335
0.01078893
0.00822695
0.01078943
0.008236614
0.01078655
0.008242343
0.01078693
0.008240826
0.01078581
0.008160728
0.01078639
0.008179731
0.01078688
0.008191967
0.01078571
0.008180582
0.01078596
0.008191883
0.01078679
0.008198498
0.01078717
0.008207667
0.0107857
0.008198264
0.01078605
0.00820805
0.01078696
0.008213142
0.01078749
0.008222474
0.01078564
0.00821357
0.01078607
0.008223253
0.01078711
0.008227349
0.01078781
0.00823726
0.01078561
0.008228291
0.0107861
0.00823815
0.01078729
0.008241524
0.01078814
0.008251903
0.0107856
0.008242731
0.01078615
0.008252858
0.01078747
0.008255795
0.01078847
0.008266493
0.01078561
0.008257281
0.01078619
0.008267414
0.01078772
0.00827011
0.0107888
0.008281186
0.01078564
0.008271718
0.01078623
0.008281993
0.01078805
0.008284543
0.01078912
0.008295938
0.01078568
0.008286129
0.01078947
0.008310885
0.01078574
0.008300533
0.01078639
0.008311459
0.0107888
0.008313632
0.01078979
0.008325884
0.01078584
0.008314867
0.01078653
0.008326161
0.01078908
0.00832834
0.01079014
0.008340967
0.01078598
0.008329307
0.01078728
0.008384591
0.01079027
0.008387616
0.01078753
0.008400282
0.01079055
0.008403713
0.01079198
0.008418211
0.01078678
0.008402468
0.01078778
0.008415254
0.01079083
0.008419188
0.01079237
0.008434058
0.01078699
0.008417357
0.01078805
0.008430347
0.01079114
0.008434822
0.01079276
0.008450071
0.01078724
0.008432351
0.01078834
0.008445548
0.01079144
0.008450601
0.01079316
0.008466185
0.0107876
0.008447471
0.01079486
0.008324082
0.008508082
0.01078882
0.006473136
0.006557531
0.006791328
0.006801409
0.006790038
0.006798379
0.00676813
0.006768213
0.006787352
0.006770946
0.006779539
0.00678854
0.006771316
0.006765196
0.006776992
0.006789679
0.006772088
0.006771925
0.006792296
0.006776169
0.006802543
0.006804474
0.006789865
0.006798231
0.006776053
0.006774003
0.006769741
0.006765099
0.006788891
0.006794806
0.006782728
0.006769789
0.006803196
0.006799765
0.006784178
0.00678349
0.006784982
0.006773952
0.006478059
0.006557715
0.007364045
0.007414694
0.007373723
0.007407563
0.007365917
0.007415328
0.007374598
0.007409518
0.007398126
0.007437533
0.007399678
0.007435619
0.007402095
0.007438263
0.007439476
0.007400734
0.007381755
0.007417139
0.00741974
0.007377986
0.007388548
0.007427375
0.007425538
0.007389858
0.007392283
0.007428159
0.007429733
0.007390341
0.007408413
0.007448089
0.007445718
0.007410759
0.007418349
0.007458462
0.007455797
0.007421227
0.007421807
0.007459425
0.007459971
0.007421193
0.007428325
0.007468875
0.007431707
0.007465946
0.007431627
0.00746988
0.007470055
0.007431423
0.007438327
0.007479337
0.007476129
0.007442195
0.007441501
0.007480296
0.00748017
0.007441656
0.007448399
0.007489834
0.007452707
0.007486342
0.01078501
0.008296679
0.01078842
0.008297939
0.007468827
0.007511059
0.007506983
0.007473926
0.007471566
0.00751182
0.007510875
0.007472852
0.007479159
0.007521803
0.007517426
0.007484621
0.00748173
0.007522468
0.007521246
0.007483387
0.00748957
0.007532621
0.007495429
0.007527947
0.007524043
0.007567443
0.007528503
0.007564276
0.01079154
0.008401008
0.01078437
0.008386879
0.007533859
0.007576869
0.007574423
0.007537128
0.007576511
0.007622663
0.007584789
0.007616002
0.01078649
0.008506238
0.01079266
0.008512755
0.007619731
0.00766888
0.007661579
0.007628488
0.006837752
0.007282265
0.007168089
0.007083457
0.006841911
0.007290841
0.007187553
0.007085803
0.006630172
0.006726089
0.006780618
0.006785542
0.0067809
0.006788766
0.006773772
0.006774699
0.006797439
0.006798127
0.006785079
0.006784911
0.006787863
0.006799286
0.0067751
0.006772567
0.006783757
0.006784833
0.0068007
0.006792494
0.0081605
0.01078757
0.008179902
0.01078772
0.008192305
0.01078818
0.008179664
0.01078757
0.008340852
0.01079103
0.00834324
0.01078667
0.008356565
0.008344219
0.01079051
0.01078607
0.008355927
0.008358158
0.01078688
0.01078968
0.008370738
0.008358301
0.01079084
0.01078619
0.008369659
0.008373146
0.01078703
0.01078998
0.008384733
0.01078431
0.008372925
0.01078915
0.0084608
0.0107945
0.008465771
0.01078857
0.008482549
0.008461931
0.01079358
0.01078778
0.008476624
0.008483037
0.01078895
0.01079211
0.008498107
0.00847814
0.01079398
0.01078802
0.008490885
0.008498063
0.01078914
0.01079243
0.008512738
0.01078518
0.008492647
0.01079116
0.006789971
0.006763115
0.006779817
0.006785428
0.006787607
0.006794578
0.006782458
0.006783371
0.006780906
0.006789874
0.006784396
0.006778068
0.006803965
0.006802879
0.006775243
0.006774705
0.006785364
0.006778514
0.006645504
0.006756237
0.006841525
0.007279948
0.007081066
0.007168171
0.006844016
0.00729234
0.007087044
0.007188532
0.007343854
0.007358013
0.007292079
0.007393109
0.007347531
0.007366221
0.007301518
0.007397471
0.007402474
0.007442047
0.00744026
0.007403861
0.00738294
0.007421819
0.007420408
0.007383944
0.007387201
0.007422521
0.007424382
0.007384623
0.007393176
0.007432092
0.007430422
0.007394339
0.00740316
0.007442315
0.007440581
0.007404564
0.007406754
0.007443367
0.00744445
0.007405011
0.007413019
0.007452555
0.007450626
0.007414701
0.007416491
0.007453502
0.007454419
0.007415073
0.007422874
0.007462813
0.007460609
0.007424938
0.007426243
0.007463872
0.007425164
0.007464432
0.007432816
0.007473131
0.007470714
0.007435219
0.007436007
0.007474274
0.007474464
0.007435262
0.007442799
0.007483482
0.007480847
0.007445497
0.00744584
0.007484618
0.007445383
0.007484541
0.007465728
0.007505471
0.007504866
0.007465805
0.007473041
0.007514906
0.007511638
0.007476615
0.007475808
0.007515921
0.007515154
0.007476035
0.007483256
0.007525517
0.007522033
0.007487098
0.007485961
0.007526483
0.007486382
0.007525511
0.007535821
0.00757995
0.007575585
0.007540855
0.007568766
0.007613924
0.007609156
0.007574356
0.007570954
0.007614337
0.007572594
0.007612067
0.007614636
0.007660811
0.007617922
0.007657466
0.005876635
0.01079705
0.01079135
0.01079155
0.005876633
0.01079705
0.008316189
0.01079615
0.007616862
0.00766734
0.007662989
0.007623473
0.008160602
0.01078657
0.01078578
0.008179687
0.01078596
0.008191943
0.01078681
0.008198482
0.01078605
0.008208085
0.01078698
0.008213091
0.01078607
0.008223293
0.01078714
0.008227308
0.0107861
0.008238188
0.01078732
0.008241501
0.01078615
0.008252903
0.01078749
0.008255787
0.01078619
0.008267495
0.01078774
0.008270088
0.01078623
0.008282052
0.01078807
0.00828453
0.0107863
0.008296742
0.01078845
0.008299012
0.01078639
0.008311504
0.01078881
0.008313626
0.01078653
0.008326231
0.01078911
0.008328308
0.01078669
0.008340901
0.01078941
0.008343141
0.01078688
0.008355638
0.0107897
0.008358063
0.01078708
0.008370446
0.01078999
0.008373138
0.0107873
0.008385338
0.01079027
0.008388351
0.01078753
0.008400278
0.01079056
0.008403705
0.01078778
0.008415294
0.01079084
0.008419192
0.01078804
0.008430393
0.01079115
0.008434829
0.01078833
0.008445616
0.01079146
0.008450607
0.01078863
0.008460866
0.01079178
0.008466528
0.01078897
0.008476239
0.0107921
0.008482577
0.01078931
0.008491664
0.01079243
0.008498772
0.01078954
0.008507059
0.01079277
0.008514478
0.007365859
0.007415359
0.007374586
0.007409357
0.007407822
0.007447735
0.007409849
0.007445656
0.00741182
0.007448446
0.007449372
0.007410961
0.007417494
0.007457883
0.007419989
0.00745561
0.007398523
0.007437743
0.007435608
0.007400333
0.007401871
0.00743865
0.007439504
0.007400731
0.007411598
0.007448994
0.007449481
0.007410969
0.007554077
0.007599458
0.007561774
0.007593231
0.007555425
0.007599235
0.007596435
0.007559184
0.007565226
0.007610558
0.007606414
0.007570326
0.01078687
0.008191601
0.01078542
0.008180557
0.01078716
0.008207121
0.01078527
0.008198318
0.01078748
0.008221842
0.01078508
0.008213566
0.01078781
0.008236528
0.0107849
0.008228249
0.01078813
0.008251077
0.01078476
0.008242694
0.01078846
0.008265592
0.01078464
0.008257256
0.01078879
0.008280186
0.01078453
0.008271708
0.0107891
0.008294858
0.01078444
0.008286113
0.01078943
0.008309724
0.01078436
0.008300453
0.01078976
0.00832465
0.01078432
0.008314851
0.0107901
0.008339655
0.01078429
0.008329301
0.01079044
0.008354787
0.01078428
0.008343752
0.0107908
0.008370057
0.01078429
0.00835828
0.01079116
0.008385458
0.01078432
0.008372894
0.01079153
0.008400986
0.01078437
0.008387633
0.01079191
0.008416663
0.01078444
0.008402432
0.01079229
0.008432491
0.01078451
0.008417339
0.01079267
0.008448475
0.01078462
0.008432344
0.01079306
0.008464575
0.01078473
0.008447463
0.01079346
0.008480838
0.01078487
0.008462672
0.01079386
0.008497225
0.01078502
0.008478007
0.01079427
0.008513641
0.0107852
0.008493427
0.01078884
0.008528405
0.01079157
0.008507985
0.007416958
0.007419741
0.007377831
0.007381376
0.007542889
0.007537064
0.007497902
0.007505537
0.007543406