/*--------------------------------*- C++ -*----------------------------------*\
  =========                 |
  \\      /  F ield         | OpenFOAM: The Open Source CFD Toolbox
   \\    /   O peration     | Website:  https://openfoam.org
    \\  /    A nd           | Version:  7
     \\/     M anipulation  |
\*---------------------------------------------------------------------------*/
FoamFile
{
    version     2.0;
    format      ascii;
    class       volScalarField;
    location    "0.08";
    object      nut;
}
// * * * * * * * * * * * * * * * * * * * * * * * * * * * * * * * * * * * * * //

dimensions      [0 2 -1 0 0 0 0];

internalField   nonuniform List<scalar> 
73374
(
0.0002774781
0.001339928
0.001314466
0.001305961
0.001303818
0.00130325
0.001303055
0.001302986
0.001302995
0.001303058
0.001303199
0.0002797225
0.001306927
0.001259938
0.001245451
0.001241584
0.001240437
0.001240138
0.001240036
0.00124004
0.001240179
0.001240445
0.0002796255
0.001296103
0.001243168
0.001225146
0.001220086
0.001218508
0.00121802
0.001217822
0.001217825
0.001218016
0.001218366
0.000279467
0.001293269
0.001238414
0.001219192
0.001213532
0.001211681
0.00121103
0.001210799
0.00121081
0.001211022
0.001211421
0.0002792905
0.001292365
0.001236907
0.001217237
0.001211302
0.001209279
0.001208529
0.001208257
0.001208259
0.001208473
0.001208889
0.0002790794
0.001291916
0.001236239
0.001216364
0.001210285
0.001208185
0.001207367
0.001207076
0.001207067
0.001207274
0.00120769
0.0002788738
0.001291656
0.00123589
0.001215932
0.001209791
0.001207649
0.001206809
0.001206509
0.001206501
0.00120671
0.001207124
0.0002786671
0.001291458
0.001235654
0.001215662
0.001209496
0.001207345
0.001206501
0.00120622
0.001206238
0.00120647
0.001206902
0.0002784646
0.001291294
0.001235475
0.001215474
0.00120931
0.001207178
0.001206374
0.001206166
0.001206286
0.001206627
0.001207138
0.0002782645
0.001291144
0.001235326
0.001215333
0.00120919
0.001207115
0.001206422
0.001206416
0.001206845
0.001207528
0.001208301
0.0002780669
0.001291005
0.001235196
0.001215227
0.001209139
0.001207183
0.001206809
0.001207517
0.001209029
0.001210953
0.001212677
0.0002778717
0.001290876
0.001235085
0.001215157
0.001209158
0.001207415
0.001207748
0.001211261
0.001217171
0.001222798
0.001228172
0.0002776782
0.001290753
0.001234991
0.00121512
0.001209245
0.001207833
0.001209244
0.001217135
0.001244951
0.001252202
0.001278097
0.0002774848
0.001290641
0.001234921
0.00121512
0.001209388
0.001208347
0.001210944
0.001222435
0.001251111
0.0005671083
0.0005853172
0.0002772879
0.001290545
0.001234881
0.001215158
0.00120956
0.001208812
0.001212316
0.001227088
0.001274473
0.0005846514
0.0002859449
0.0002770822
0.001290473
0.001234886
0.001215248
0.001209756
0.001209181
0.001213146
0.001229701
0.001277442
0.0005897225
0.0002960694
0.0002768635
0.001290434
0.001234932
0.001215378
0.001209969
0.001209482
0.001213609
0.001230389
0.001277838
0.0005900658
0.0002966393
0.0002766263
0.001290416
0.001234977
0.001215489
0.00121013
0.001209663
0.001213766
0.001230609
0.00127923
0.0005909135
0.0002974487
0.0002763684
0.001290369
0.00123493
0.001215455
0.001210082
0.00120951
0.00121323
0.001228312
0.001276577
0.0005901884
0.0002983321
0.00027609
0.0005785904
0.0006185955
0.0001010107
0.0001007232
0.0001016924
0.0001010254
0.0001009603
0.000100881
0.0001008578
0.0001008768
0.0001009057
0.0001009333
0.0006132809
0.0001007955
0.0001013485
0.0001014989
0.0001017083
0.0001017174
0.0001015687
0.0001016391
0.0001016813
0.0001016795
0.0001016753
0.001294975
0.0001011668
0.0001010556
0.0001010218
0.0001010512
0.0001010267
0.0001010048
0.0001009925
0.0001009987
0.0001009894
0.0001009711
0.001277698
0.0001010516
0.0001007954
0.0001008468
0.0001008727
0.0001008706
0.0001008876
0.0001008842
0.0001008734
0.0001008585
0.0001008451
0.001270786
0.0001009157
0.0001007096
0.0001006909
0.0001006874
0.0001006756
0.0001006917
0.0001006847
0.0001006806
0.0001006789
0.0001006784
0.001269089
0.0001009507
0.0001006979
0.0001006861
0.0001006891
0.0001006845
0.0001006911
0.0001006867
0.0001006838
0.0001006816
0.00010068
0.001268581
0.0001009444
0.0001006794
0.0001006637
0.0001006646
0.0001006586
0.0001006616
0.0001006596
0.0001006592
0.0001006591
0.0001006593
0.001268302
0.0001009527
0.0001006785
0.000100663
0.0001006641
0.0001006611
0.0001006618
0.0001006614
0.0001006609
0.0001006607
0.0001006613
0.001268105
0.0001009488
0.0001006758
0.0001006594
0.0001006598
0.0001006567
0.0001006579
0.0001006567
0.0001006573
0.0001006574
0.0001006586
0.001267937
0.0001009465
0.0001006749
0.0001006592
0.0001006597
0.0001006566
0.0001006572
0.0001006567
0.000100657
0.0001006579
0.0001006592
0.001267782
0.0001009417
0.0001006737
0.0001006579
0.0001006581
0.0001006545
0.0001006545
0.0001006549
0.000100656
0.000100658
0.0001006607
0.001267632
0.0001009374
0.0001006728
0.0001006574
0.0001006579
0.0001006549
0.0001006545
0.0001006552
0.0001006556
0.0001006579
0.000100664
0.001267487
0.0001009343
0.0001006722
0.0001006562
0.0001006567
0.000100653
0.0001006531
0.0001006537
0.0001006553
0.0001006612
0.0001006701
0.001267346
0.0001009339
0.0001006716
0.0001006564
0.0001006573
0.0001006544
0.0001006525
0.0001006529
0.0001006576
0.0001006616
0.0001006989
0.00126721
0.0001009375
0.0001006715
0.0001006547
0.0001006577
0.000100652
0.0001006599
0.0001006523
0.0001006522
0.0001006471
0.0001006482
0.001267084
0.0001009475
0.0001006716
0.0001006548
0.0001006562
0.0001006519
0.0001006518
0.0001006516
0.0001006549
0.0001006262
0.0001007662
0.001266969
0.0001009642
0.0001006726
0.0001006546
0.000100657
0.0001006525
0.0001006597
0.0001006535
0.0001006588
0.0001006422
0.0001009198
0.001266863
0.0001009875
0.0001006742
0.0001006553
0.0001006573
0.0001006537
0.0001006569
0.0001006561
0.0001006645
0.0001006416
0.000100704
0.001266748
0.0001010155
0.0001006768
0.0001006568
0.0001006601
0.0001006555
0.000100666
0.0001006617
0.0001006815
0.0001006898
0.000102056
0.001266591
0.0001010464
0.00010068
0.0001006592
0.0001006622
0.0001006577
0.0001006688
0.0001006686
0.0001006844
0.0001007183
0.0001009653
0.0001007996
0.000100944
0.000100745
0.0001007629
0.0001007415
0.0001007257
0.0001007219
0.0001007212
0.0001007023
0.0001007312
0.0001007026
0.0006081413
0.0001006458
0.0001006516
0.0001006089
0.0001005908
0.0001006025
0.0001005966
0.0001005999
0.0001006029
0.0001005901
0.0001005941
0.001272823
0.0001010357
0.0001006231
0.0001006234
0.0001006267
0.0001006173
0.0001006197
0.0001006174
0.0001006175
0.000100621
0.0001006196
0.001240201
0.0001012109
0.0001006206
0.0001006186
0.000100619
0.0001006193
0.000100619
0.0001006196
0.0001006194
0.0001006194
0.0001006196
0.001229317
0.0001009033
0.0001006196
0.0001006186
0.0001006191
0.000100619
0.0001006193
0.0001006192
0.0001006194
0.0001006199
0.0001006201
0.00122654
0.0001009213
0.0001006197
0.000100619
0.0001006192
0.0001006193
0.0001006195
0.0001006196
0.0001006198
0.0001006201
0.0001006205
0.001225719
0.0001008936
0.0001006202
0.0001006196
0.0001006197
0.0001006199
0.0001006202
0.0001006204
0.0001006207
0.0001006212
0.0001006217
0.001225339
0.0001008979
0.00010062
0.0001006194
0.0001006195
0.0001006197
0.00010062
0.0001006204
0.0001006208
0.0001006215
0.0001006223
0.001225106
0.0001008929
0.0001006199
0.0001006194
0.0001006195
0.0001006198
0.0001006201
0.0001006206
0.0001006213
0.0001006222
0.0001006234
0.001224928
0.0001008898
0.0001006198
0.0001006193
0.0001006194
0.0001006196
0.00010062
0.0001006206
0.0001006215
0.0001006228
0.0001006248
0.001224766
0.0001008854
0.0001006196
0.0001006191
0.0001006192
0.0001006194
0.0001006198
0.0001006205
0.0001006217
0.0001006237
0.0001006263
0.001224611
0.0001008819
0.0001006194
0.0001006189
0.0001006189
0.0001006191
0.0001006194
0.00010062
0.0001006216
0.0001006238
0.0001006297
0.001224455
0.0001008783
0.0001006192
0.0001006186
0.0001006186
0.0001006186
0.0001006188
0.0001006196
0.0001006214
0.0001006269
0.0001006341
0.001224307
0.0001008784
0.0001006191
0.0001006184
0.0001006182
0.0001006181
0.000100618
0.0001006186
0.0001006216
0.0001006257
0.0001006597
0.00122417
0.0001008815
0.000100619
0.0001006183
0.000100618
0.0001006176
0.0001006172
0.0001006177
0.000100618
0.0001006397
0.0001006385
0.001224052
0.000100891
0.0001006191
0.0001006184
0.000100618
0.0001006177
0.0001006174
0.0001006172
0.0001006199
0.0001006227
0.0001007267
0.001223959
0.0001009064
0.0001006195
0.0001006187
0.0001006185
0.0001006183
0.0001006182
0.000100619
0.0001006224
0.0001006416
0.0001009176
0.001223887
0.000100928
0.00010062
0.0001006192
0.0001006193
0.0001006195
0.0001006202
0.0001006212
0.0001006291
0.0001006367
0.0001007044
0.001223815
0.0001009534
0.0001006207
0.00010062
0.0001006204
0.0001006213
0.0001006232
0.0001006272
0.0001006449
0.0001006898
0.0001028852
0.001223696
0.000100981
0.0001006216
0.000100621
0.0001006217
0.0001006236
0.0001006259
0.0001006347
0.0001006488
0.0001007174
0.0001009697
0.0001007763
0.0001012668
0.0001007496
0.0001007662
0.0001007134
0.0001007901
0.0001007013
0.0001007269
0.0001007139
0.0001007022
0.0001007129
0.0006072646
0.0001006646
0.000100622
0.000100628
0.000100618
0.0001006264
0.000100609
0.0001006004
0.0001006018
0.0001005959
0.0001005949
0.001264494
0.0001010599
0.0001006413
0.0001006205
0.0001006138
0.0001006156
0.0001006151
0.0001006187
0.000100617
0.0001006166
0.0001006177
0.001227904
0.0001012401
0.0001006204
0.0001006177
0.0001006195
0.0001006188
0.0001006194
0.000100619
0.0001006191
0.0001006193
0.0001006192
0.001214666
0.000100889
0.0001006198
0.0001006193
0.0001006196
0.0001006196
0.0001006201
0.0001006196
0.0001006195
0.0001006194
0.0001006199
0.001211244
0.0001009182
0.0001006194
0.0001006186
0.0001006186
0.0001006187
0.0001006189
0.000100619
0.0001006194
0.00010062
0.0001006203
0.001210199
0.0001008877
0.0001006202
0.0001006197
0.0001006199
0.00010062
0.0001006203
0.0001006205
0.0001006208
0.0001006212
0.0001006217
0.001209737
0.0001008922
0.00010062
0.0001006195
0.0001006197
0.0001006198
0.0001006202
0.0001006204
0.0001006209
0.0001006215
0.0001006224
0.001209481
0.0001008871
0.0001006199
0.0001006194
0.0001006197
0.0001006199
0.0001006202
0.0001006206
0.0001006213
0.0001006223
0.0001006234
0.001209309
0.0001008851
0.0001006198
0.0001006193
0.0001006194
0.0001006197
0.00010062
0.0001006206
0.0001006215
0.0001006228
0.0001006247
0.001209148
0.00010088
0.0001006196
0.0001006191
0.0001006192
0.0001006195
0.0001006198
0.0001006205
0.0001006216
0.0001006237
0.0001006263
0.001208973
0.000100876
0.0001006194
0.0001006189
0.0001006189
0.0001006191
0.0001006194
0.00010062
0.0001006215
0.0001006237
0.0001006295
0.001208783
0.0001008726
0.0001006192
0.0001006186
0.0001006186
0.0001006186
0.0001006188
0.0001006195
0.0001006212
0.0001006266
0.000100634
0.001208603
0.0001008736
0.0001006191
0.0001006184
0.0001006183
0.0001006181
0.0001006181
0.0001006185
0.0001006218
0.0001006261
0.0001006594
0.001208448
0.0001008768
0.000100619
0.0001006183
0.000100618
0.0001006176
0.0001006173
0.0001006177
0.0001006183
0.0001006434
0.0001006396
0.001208329
0.0001008863
0.0001006191
0.0001006183
0.000100618
0.0001006177
0.0001006173
0.0001006172
0.0001006198
0.0001006245
0.0001007282
0.001208253
0.0001009013
0.0001006195
0.0001006187
0.0001006185
0.0001006183
0.0001006182
0.0001006189
0.0001006225
0.0001006411
0.0001009331
0.001208214
0.0001009224
0.00010062
0.0001006192
0.0001006193
0.0001006195
0.0001006202
0.0001006211
0.0001006292
0.0001006369
0.0001007028
0.001208183
0.0001009473
0.0001006207
0.00010062
0.0001006204
0.0001006213
0.0001006232
0.000100627
0.000100645
0.0001006905
0.0001028392
0.001208101
0.0001009745
0.0001006215
0.0001006209
0.0001006217
0.0001006235
0.0001006259
0.0001006346
0.000100649
0.0001007188
0.0001009706
0.000100777
0.0001014036
0.0001007358
0.000100761
0.0001007666
0.0001006966
0.0001007142
0.0001007118
0.0001007024
0.0001007097
0.0001006967
0.0006071989
0.0001006602
0.0001005973
0.0001006307
0.0001006213
0.0001005907
0.0001005886
0.0001005914
0.0001005889
0.0001005863
0.0001005868
0.001262796
0.0001010759
0.0001006405
0.000100617
0.0001006173
0.0001006214
0.0001006201
0.0001006183
0.0001006195
0.0001006198
0.0001006187
0.001225262
0.0001012802
0.0001006214
0.0001006174
0.0001006185
0.0001006188
0.0001006187
0.0001006184
0.0001006187
0.0001006186
0.0001006191
0.001211438
0.000100902
0.0001006196
0.0001006197
0.0001006185
0.0001006197
0.0001006187
0.0001006199
0.00010062
0.0001006197
0.0001006196
0.001207704
0.0001009311
0.0001006197
0.0001006185
0.0001006189
0.0001006189
0.0001006191
0.0001006192
0.0001006194
0.0001006195
0.0001006203
0.001206482
0.0001008877
0.0001006201
0.0001006198
0.0001006197
0.00010062
0.00010062
0.0001006205
0.0001006209
0.0001006212
0.0001006216
0.001205933
0.0001008937
0.0001006199
0.0001006195
0.0001006194
0.0001006198
0.0001006199
0.0001006204
0.000100621
0.0001006216
0.0001006222
0.001205717
0.0001008903
0.0001006199
0.0001006195
0.0001006195
0.0001006198
0.0001006201
0.0001006206
0.0001006213
0.0001006222
0.0001006234
0.001205629
0.0001008852
0.0001006197
0.0001006192
0.0001006194
0.0001006196
0.00010062
0.0001006206
0.0001006215
0.0001006228
0.0001006247
0.001205496
0.0001008815
0.0001006196
0.0001006191
0.0001006192
0.0001006194
0.0001006198
0.0001006205
0.0001006216
0.0001006237
0.0001006263
0.001205264
0.0001008808
0.0001006194
0.0001006189
0.0001006189
0.0001006191
0.0001006194
0.00010062
0.0001006215
0.0001006237
0.0001006295
0.00120495
0.0001008718
0.0001006192
0.0001006186
0.0001006186
0.0001006186
0.0001006188
0.0001006195
0.0001006211
0.0001006266
0.0001006341
0.001204649
0.0001008755
0.0001006191
0.0001006184
0.0001006182
0.0001006181
0.0001006181
0.0001006186
0.0001006216
0.0001006259
0.0001006587
0.001204428
0.0001008765
0.000100619
0.0001006183
0.000100618
0.0001006176
0.0001006172
0.0001006177
0.0001006181
0.0001006428
0.0001006377
0.001204281
0.0001008869
0.0001006191
0.0001006183
0.000100618
0.0001006177
0.0001006173
0.0001006172
0.0001006199
0.0001006244
0.0001007275
0.00120421
0.0001009018
0.0001006194
0.0001006187
0.0001006185
0.0001006183
0.0001006182
0.0001006189
0.0001006225
0.0001006404
0.0001009265
0.001204198
0.0001009232
0.00010062
0.0001006192
0.0001006193
0.0001006195
0.0001006202
0.0001006211
0.000100629
0.0001006361
0.0001007026
0.001204203
0.0001009481
0.0001006207
0.00010062
0.0001006204
0.0001006213
0.0001006232
0.0001006269
0.0001006448
0.0001006902
0.0001028968
0.001204154
0.0001009757
0.0001006215
0.0001006209
0.0001006217
0.0001006235
0.0001006259
0.0001006345
0.0001006489
0.0001007148
0.0001009727
0.0001007762
0.0001015415
0.0001007308
0.0001008002
0.0001006979
0.000100705
0.0001006994
0.0001007299
0.0001007205
0.0001006984
0.0001006938
0.000607168
0.0001006704
0.0001005902
0.0001006276
0.0001006023
0.0001005854
0.0001005953
0.0001005974
0.0001005867
0.0001005903
0.0001005851
0.001263915
0.0001010332
0.0001006383
0.0001006172
0.0001006321
0.0001006184
0.0001006247
0.0001006175
0.0001006181
0.0001006184
0.0001006226
0.001226969
0.0001012859
0.0001006214
0.0001006189
0.0001006196
0.0001006186
0.0001006192
0.0001006185
0.0001006184
0.0001006188
0.0001006195
0.001213242
0.0001009018
0.0001006207
0.0001006183
0.0001006218
0.0001006186
0.0001006216
0.0001006189
0.0001006191
0.0001006193
0.0001006208
0.001209222
0.0001009253
0.0001006193
0.0001006187
0.0001006191
0.0001006191
0.0001006197
0.0001006193
0.0001006193
0.0001006199
0.0001006205
0.001207585
0.000100887
0.0001006203
0.0001006194
0.00010062
0.00010062
0.0001006205
0.0001006203
0.0001006206
0.000100621
0.0001006218
0.001206862
0.0001008927
0.00010062
0.0001006193
0.0001006197
0.0001006197
0.0001006202
0.0001006202
0.0001006208
0.0001006213
0.0001006224
0.00120685
0.0001008883
0.0001006199
0.0001006193
0.0001006196
0.0001006198
0.0001006202
0.0001006205
0.0001006212
0.0001006222
0.0001006234
0.00120711
0.0001008887
0.0001006197
0.0001006193
0.0001006194
0.0001006196
0.00010062
0.0001006205
0.0001006214
0.0001006227
0.0001006248
0.001207114
0.0001008809
0.0001006196
0.0001006191
0.0001006192
0.0001006194
0.0001006198
0.0001006205
0.0001006216
0.0001006237
0.0001006263
0.001206676
0.0001008774
0.0001006194
0.0001006188
0.0001006189
0.0001006191
0.0001006194
0.00010062
0.0001006215
0.0001006237
0.0001006296
0.001205867
0.0001008728
0.0001006192
0.0001006186
0.0001006186
0.0001006186
0.0001006188
0.0001006195
0.0001006211
0.0001006267
0.0001006341
0.001205009
0.0001008771
0.0001006191
0.0001006184
0.0001006183
0.0001006181
0.0001006181
0.0001006186
0.0001006216
0.0001006259
0.0001006588
0.001204421
0.0001008775
0.000100619
0.0001006183
0.000100618
0.0001006176
0.0001006172
0.0001006177
0.000100618
0.0001006427
0.0001006376
0.001204138
0.0001008871
0.0001006191
0.0001006183
0.000100618
0.0001006177
0.0001006173
0.0001006172
0.0001006197
0.0001006243
0.0001007277
0.001204059
0.0001009016
0.0001006194
0.0001006187
0.0001006185
0.0001006183
0.0001006183
0.0001006189
0.0001006228
0.0001006407
0.0001009293
0.001204078
0.0001009228
0.00010062
0.0001006192
0.0001006193
0.0001006195
0.0001006202
0.0001006212
0.0001006289
0.0001006376
0.0001007016
0.001204126
0.0001009479
0.0001006207
0.00010062
0.0001006204
0.0001006213
0.0001006232
0.0001006267
0.0001006448
0.0001006844
0.0001028581
0.001204102
0.0001009753
0.0001006215
0.0001006209
0.0001006217
0.0001006235
0.0001006259
0.0001006344
0.0001006492
0.0001007136
0.0001009715
0.001203944
0.0001007742
0.0001014328
0.0001007459
0.0001007231
0.0001007612
0.0001006961
0.0001007166
0.0001007005
0.0001006927
0.0001007113
0.0001007038
0.0006074115
0.0001006712
0.0001005914
0.0001006303
0.0001006185
0.0001005893
0.0001005888
0.0001005928
0.0001005891
0.0001005997
0.0001005992
0.001271031
0.0001010006
0.0001006391
0.0001006173
0.0001006186
0.0001006222
0.0001006197
0.0001006177
0.0001006181
0.0001006171
0.000100616
0.001237526
0.0001012612
0.0001006217
0.0001006177
0.0001006183
0.000100619
0.0001006189
0.0001006187
0.0001006188
0.0001006188
0.0001006193
0.001224507
0.0001009126
0.0001006194
0.0001006198
0.000100619
0.0001006198
0.0001006187
0.0001006198
0.0001006194
0.0001006204
0.0001006195
0.0012192
0.0001009893
0.0001006197
0.0001006185
0.000100619
0.0001006188
0.000100619
0.000100619
0.0001006196
0.0001006199
0.0001006203
0.001216368
0.0001009308
0.0001006204
0.0001006197
0.0001006198
0.00010062
0.0001006201
0.0001006205
0.0001006208
0.0001006213
0.0001006218
0.001214898
0.0001008968
0.00010062
0.0001006195
0.0001006195
0.0001006199
0.00010062
0.0001006205
0.000100621
0.0001006217
0.0001006223
0.001215845
0.0001008709
0.0001006198
0.0001006195
0.0001006195
0.0001006199
0.0001006201
0.0001006206
0.0001006213
0.0001006223
0.0001006234
0.001217286
0.0001008436
0.0001006197
0.0001006193
0.0001006194
0.0001006197
0.00010062
0.0001006206
0.0001006215
0.0001006228
0.0001006247
0.001217639
0.0001008785
0.0001006196
0.0001006191
0.0001006192
0.0001006195
0.0001006198
0.0001006205
0.0001006216
0.0001006237
0.0001006263
0.001216648
0.0001009308
0.0001006195
0.0001006188
0.0001006189
0.0001006191
0.0001006194
0.00010062
0.0001006215
0.0001006237
0.0001006295
0.001214323
0.0001008979
0.0001006194
0.0001006186
0.0001006186
0.0001006186
0.0001006188
0.0001006195
0.0001006211
0.0001006266
0.0001006341
0.001210738
0.0001008956
0.0001006192
0.0001006184
0.0001006183
0.0001006181
0.0001006181
0.0001006185
0.0001006218
0.0001006261
0.0001006594
0.001208288
0.0001008721
0.000100619
0.0001006183
0.000100618
0.0001006176
0.0001006173
0.0001006177
0.0001006182
0.0001006432
0.0001006384
0.001207701
0.0001008849
0.0001006191
0.0001006184
0.000100618
0.0001006177
0.0001006173
0.0001006172
0.0001006197
0.0001006247
0.0001007274
0.001207618
0.0001008987
0.0001006194
0.0001006187
0.0001006185
0.0001006183
0.0001006182
0.000100619
0.0001006225
0.0001006427
0.000100919
0.001207755
0.0001009216
0.00010062
0.0001006192
0.0001006193
0.0001006195
0.0001006202
0.0001006213
0.0001006285
0.0001006406
0.0001007132
0.001207924
0.000100946
0.0001006207
0.00010062
0.0001006204
0.0001006213
0.0001006233
0.0001006266
0.0001006458
0.0001006788
0.0001032333
0.001207909
0.000100976
0.0001006215
0.000100621
0.0001006217
0.0001006236
0.000100626
0.0001006348
0.0001006496
0.0001007162
0.0001010627
0.001207734
0.0001010014
0.0001006223
0.0001006217
0.0001007788
0.0001013081
0.0001007386
0.0001008369
0.0001007523
0.0001007534
0.0001007186
0.0001006948
0.0001007527
0.0001007271
0.0001007086
0.0006100524
0.0001006665
0.0001006184
0.0001006418
0.0001006271
0.0001006177
0.0001006101
0.0001006081
0.0001006059
0.0001006002
0.0001005986
0.001290964
0.0001008486
0.0001006375
0.0001006153
0.0001006149
0.00010062
0.0001006174
0.0001006193
0.000100617
0.0001006189
0.0001006206
0.001271807
0.0001011546
0.0001006199
0.000100618
0.000100619
0.0001006187
0.0001006191
0.000100619
0.0001006193
0.0001006192
0.0001006196
0.001261409
0.0001008998
0.0001006198
0.0001006201
0.0001006187
0.0001006187
0.0001006192
0.0001006194
0.0001006192
0.0001006196
0.0001006208
0.00124442
0.0001010443
0.0001006204
0.0001006184
0.0001006189
0.000100619
0.0001006192
0.0001006196
0.0001006197
0.00010062
0.0001006206
0.001248825
0.0001010266
0.000100621
0.0001006197
0.0001006199
0.0001006198
0.0001006202
0.0001006204
0.0001006207
0.0001006212
0.0001006217
0.001232571
0.0001009124
0.0001006201
0.0001006195
0.0001006195
0.0001006197
0.00010062
0.0001006203
0.0001006208
0.0001006214
0.0001006223
0.001249084
0.0001007798
0.0001006194
0.0001006195
0.0001006195
0.0001006197
0.0001006201
0.0001006206
0.0001006212
0.0001006222
0.0001006234
0.001243698
0.0001007883
0.0001006191
0.0001006194
0.0001006194
0.0001006196
0.00010062
0.0001006206
0.0001006215
0.0001006228
0.0001006247
0.001255659
0.0001008614
0.0001006196
0.0001006192
0.0001006192
0.0001006194
0.0001006198
0.0001006205
0.0001006217
0.0001006236
0.0001006263
0.001242381
0.0001009874
0.00010062
0.0001006188
0.000100619
0.0001006191
0.0001006194
0.00010062
0.0001006216
0.0001006238
0.0001006297
0.001246721
0.0001009917
0.0001006198
0.0001006185
0.0001006187
0.0001006186
0.0001006188
0.0001006196
0.0001006214
0.0001006269
0.0001006341
0.001226702
0.0001009138
0.0001006193
0.0001006184
0.0001006182
0.0001006181
0.000100618
0.0001006186
0.0001006215
0.0001006258
0.0001006597
0.001222829
0.0001008867
0.000100619
0.0001006183
0.000100618
0.0001006176
0.0001006172
0.0001006176
0.0001006181
0.0001006395
0.0001006389
0.001221881
0.0001008918
0.0001006191
0.0001006183
0.000100618
0.0001006177
0.0001006173
0.0001006172
0.0001006198
0.0001006232
0.0001007246
0.001221786
0.0001009023
0.0001006194
0.0001006187
0.0001006185
0.0001006183
0.0001006182
0.0001006192
0.0001006221
0.0001006434
0.0001009182
0.001222247
0.0001009226
0.00010062
0.0001006192
0.0001006193
0.0001006194
0.0001006203
0.0001006211
0.0001006285
0.0001006422
0.0001007156
0.001222764
0.0001009517
0.0001006207
0.00010062
0.0001006204
0.0001006213
0.0001006232
0.0001006266
0.0001006465
0.0001006793
0.0001033973
0.001222831
0.0001009807
0.0001006216
0.000100621
0.0001006217
0.0001006236
0.0001006259
0.0001006351
0.0001006492
0.0001007125
0.0001010605
0.001222752
0.0001010018
0.0001006224
0.0001006217
0.0001006226
0.0001006246
0.0001007664
0.0001012283
0.0001007516
0.0001007857
0.0001007448
0.0001007017
0.0001006989
0.0001007026
0.0001007819
0.0001007481
0.0001012271
0.000614625
0.0001011203
0.0001019577
0.0001025686
0.0001026766
0.0001027061
0.0001026924
0.0001025491
0.0001024083
0.0001019991
0.0001019472
0.000602854
0.0001008253
0.0001009351
0.0001010356
0.0001010397
0.0001010024
0.0001010197
0.0001009872
0.0001009961
0.0001009281
0.0001009469
0.0005843719
0.0001007125
0.0001008248
0.0001008731
0.0001008741
0.0001008575
0.0001008558
0.0001008447
0.000100856
0.0001008222
0.0001008477
0.0005797044
0.0001006877
0.0001007002
0.0001007105
0.0001007141
0.0001007095
0.000100705
0.000100701
0.0001007014
0.0001007062
0.0001007054
0.0005747915
0.0001006608
0.0001006982
0.0001006812
0.0001006998
0.0001006958
0.0001006942
0.000100689
0.0001006864
0.00010069
0.000100684
0.001265763
0.0001009682
0.0001006943
0.0001006572
0.0001006655
0.0001006617
0.0001006609
0.0001006581
0.0001006582
0.0001006588
0.0001006584
0.001266127
0.0001009298
0.0001006792
0.0001006565
0.00010066
0.0001006584
0.000100658
0.0001006565
0.0001006569
0.0001006576
0.0001006571
0.001269144
0.0001009061
0.0001006576
0.0001006594
0.0001006559
0.000100655
0.0001006551
0.0001006553
0.0001006559
0.0001006568
0.0001006579
0.0005723457
0.0001007045
0.0001006697
0.0001006572
0.0001006578
0.0001006545
0.0001006547
0.000100655
0.0001006558
0.0001006571
0.000100659
0.0005765275
0.0001006971
0.0001006741
0.0001006588
0.0001006573
0.0001006539
0.0001006542
0.0001006548
0.0001006559
0.000100658
0.0001006606
0.0005736875
0.000100658
0.0001006714
0.0001006535
0.0001006571
0.0001006534
0.0001006537
0.0001006543
0.0001006556
0.0001006578
0.000100664
0.001264857
0.0001009203
0.0001006978
0.0001006532
0.0001006585
0.0001006529
0.0001006531
0.0001006537
0.0001006553
0.0001006612
0.0001006701
0.001262843
0.0001009973
0.0001006767
0.0001006529
0.0001006577
0.0001006539
0.0001006525
0.0001006529
0.0001006576
0.0001006616
0.0001006989
0.001260546
0.000100933
0.000100676
0.0001006547
0.000100658
0.0001006519
0.0001006592
0.0001006522
0.0001006523
0.0001006473
0.0001006366
0.001259068
0.000100948
0.0001006719
0.0001006543
0.0001006561
0.0001006519
0.0001006518
0.0001006516
0.0001006551
0.0001006217
0.0001007469
0.001258882
0.0001009646
0.0001006767
0.0001006553
0.0001006567
0.0001006525
0.0001006567
0.0001006536
0.0001007289
0.0001006398
0.0001009187
0.001259973
0.0001009743
0.0001006774
0.0001006549
0.0001006567
0.0001006537
0.0001006545
0.0001006567
0.000100667
0.0001006774
0.0001007378
0.001260658
0.0001010052
0.0001006777
0.000100657
0.0001006603
0.0001006555
0.0001006713
0.0001006618
0.00010068
0.0001007027
0.0001021357
0.001262085
0.0001010547
0.0001006859
0.000100658
0.0001006615
0.0001006577
0.0001006672
0.0001006684
0.0001006854
0.0001007091
0.0001010098
0.00126339
0.0001010714
0.0001006891
0.0001006605
0.0001006656
0.000100659
0.000100686
0.0001006682
0.0001007547
0.0001010177
0.0001010066
0.0001010056
0.0001010806
0.0001012842
0.0001012042
0.0001009596
0.0001010912
0.0001013597
0.0001008585
0.0002769209
0.00133908
0.001308017
0.001298896
0.001296455
0.001296118
0.001297331
0.00129884
0.001298234
0.001298979
0.001299613
0.0002725283
0.001313829
0.001260209
0.00124427
0.001239996
0.001238624
0.00123851
0.00123863
0.001238651
0.001238971
0.001239366
0.0002794433
0.001305021
0.001245237
0.001225503
0.001219965
0.001218213
0.001217647
0.001217525
0.001217547
0.001217764
0.001218063
0.0002696369
0.001303417
0.00124095
0.001219888
0.001213696
0.001211639
0.001210909
0.001210689
0.001210716
0.001210974
0.001211359
0.0005910815
0.001302443
0.001239505
0.001218091
0.001211626
0.001209404
0.001208558
0.001208289
0.001208327
0.001208626
0.001209066
0.0005848797
0.00130077
0.001238682
0.001217237
0.001210648
0.001208348
0.001207453
0.001207165
0.001207215
0.001207536
0.001208042
0.0005704506
0.001299479
0.001238273
0.001216815
0.001210183
0.001207844
0.001206933
0.001206644
0.001206713
0.001207062
0.00120762
0.0005806723
0.001298437
0.001238049
0.001216555
0.0012099
0.001207554
0.001206644
0.001206376
0.001206481
0.001206867
0.001207479
0.0005858392
0.001300475
0.001238086
0.001216411
0.001209726
0.001207394
0.001206523
0.001206327
0.00120653
0.001207027
0.001207731
0.0002701018
0.00130126
0.001238095
0.001216291
0.001209604
0.001207326
0.001206562
0.001206562
0.001207063
0.001207883
0.001208836
0.0005919266
0.001300724
0.00123772
0.001216124
0.001209534
0.001207383
0.001206936
0.001207636
0.001209197
0.001211219
0.001213074
0.0005840729
0.001298249
0.001237137
0.001215934
0.001209513
0.001207592
0.001207849
0.001211341
0.001217268
0.00122293
0.001228346
0.0005707389
0.001295852
0.001236649
0.00121579
0.001209554
0.00120798
0.00120931
0.001217153
0.00124495
0.001252133
0.001277858
0.0005743057
0.001295616
0.001236515
0.001215747
0.001209665
0.001208457
0.001210905
0.001222205
0.001250792
0.0001193779
0.0001147351
0.0005671239
0.001297269
0.001236638
0.001215785
0.001209803
0.001208871
0.001212098
0.001225513
0.001271951
0.0001020589
0.0001008258
0.0005658472
0.001297284
0.001236627
0.001215836
0.00120996
0.00120918
0.001212805
0.001227941
0.001262676
0.0001028199
0.0001010643
0.0005688089
0.001295455
0.001236429
0.001215894
0.001210153
0.00120948
0.001213253
0.001229766
0.001288497
0.001308553
0.0001019137
0.0005778983
0.001294007
0.001236335
0.001215992
0.00121038
0.001209788
0.001213568
0.001229032
0.001264908
0.000128159
0.0001016562
0.0005738097
0.001293905
0.00123613
0.001216023
0.001210501
0.00120988
0.001213382
0.00122713
0.001274739
0.0001086259
0.0001010616
0.0005764933
0.001292402
0.001235665
0.001215841
0.001210335
0.001209503
0.001212246
0.001223767
0.001252904
0.0001105045
0.0001013774
0.000258592
0.0006485637
0.0001017559
0.0002709588
0.0001017682
0.0006524631
0.0006361311
0.0001013341
0.0001016454
0.0001029268
0.0001034293
0.000632581
0.0006305277
0.0001020621
0.0001015055
0.0001031421
0.0001032611
0.0006302303
0.0006300598
0.0001024644
0.0001013244
0.0001032802
0.0001028691
0.0006300613
0.0006299673
0.0001016981
0.0001012436
0.0001030495
0.0001028976
0.0006300084
0.0006298602
0.0001018618
0.0001014245
0.0001029255
0.0001026948
0.0006300502
0.0006298852
0.000102079
0.000101674
0.0001028583
0.0001026714
0.0006301429
0.0006298953
0.000102301
0.0001018599
0.000102826
0.0001025869
0.0006301758
0.0006298993
0.0001022208
0.000101969
0.0001028015
0.0001024903
0.0006302018
0.0006299222
0.0001021878
0.0001020091
0.0001027959
0.0001024581
0.0006302461
0.0006299633
0.0001021351
0.0001020395
0.0001027746
0.0001024558
0.000636521
0.0002793263
0.0006143481
0.0006122946
0.0001020149
0.0005989582
0.0001013221
0.0006082498
0.0002791095
0.000605169
0.0006071382
0.0001018307
0.0005930405
0.0001019308
0.0006045038
0.0002790062
0.0006039462
0.0005898205
0.000101685
0.0005878773
0.000101829
0.0006039347
0.0002788416
0.0006036674
0.0005876296
0.0001017443
0.0005872137
0.0001015091
0.0006036814