/*--------------------------------*- C++ -*----------------------------------*\
  =========                 |
  \\      /  F ield         | OpenFOAM: The Open Source CFD Toolbox
   \\    /   O peration     | Website:  https://openfoam.org
    \\  /    A nd           | Version:  7
     \\/     M anipulation  |
\*---------------------------------------------------------------------------*/
FoamFile
{
    version     2.0;
    format      ascii;
    class       volScalarField;
    location    "0.08";
    object      p;
}
// * * * * * * * * * * * * * * * * * * * * * * * * * * * * * * * * * * * * * //

dimensions      [0 2 -2 0 0 0 0];

internalField   nonuniform List<scalar> 
73374
(
1.544659
1.550424
1.560446
1.535403
1.523354
1.498819
1.488025
1.454828
1.426082
1.409264
1.398196
1.546314
1.579864
1.57799
1.608141
1.60702
1.653483
1.63683
1.646555
1.669489
1.644652
1.630439
1.523394
1.475869
1.488296
1.452806
1.4468
1.42504
1.417381
1.411101
1.400182
1.389643
1.377424
1.520814
1.552199
1.559018
1.570649
1.571681
1.564123
1.546915
1.541736
1.522112
1.511184
1.491303
1.516953
1.502143
1.499301
1.493203
1.486872
1.478658
1.466524
1.464308
1.45151
1.4435
1.430682
1.514347
1.526477
1.526192
1.533005
1.531868
1.527573
1.522414
1.515957
1.506813
1.496894
1.482582
1.511828
1.50942
1.506923
1.506702
1.506263
1.501217
1.499347
1.494077
1.488657
1.480916
1.469417
1.507528
1.509673
1.507606
1.510129
1.513827
1.511165
1.513319
1.510463
1.507792
1.502038
1.490901
1.502839
1.501459
1.501141
1.502453
1.504032
1.504621
1.508013
1.508882
1.513
1.51128
1.505919
1.496998
1.49599
1.496305
1.498123
1.500781
1.502583
1.507926
1.511084
1.517762
1.521356
1.516288
1.490532
1.487685
1.488263
1.48962
1.493595
1.496065
1.506295
1.512086
1.533849
1.54085
1.571958
1.482106
1.47816
1.478749
1.479689
1.483786
1.486407
1.497334
1.505468
1.530753
1.546734
1.580932
1.472548
1.467393
1.467837
1.467146
1.472548
1.471819
1.488288
1.492624
1.532948
1.557931
1.64862
1.461654
1.454963
1.454773
1.452686
1.455968
1.454019
1.467128
1.472178
1.518907
1.535812
1.629578
1.449885
1.441821
1.441515
1.435793
1.439498
1.426785
1.443481
1.417023
1.475454
1.447906
1.489216
1.437749
1.42854
1.426774
1.419261
1.416636
1.402525
1.397407
1.377349
1.364946
1.357412
1.339723
1.425855
1.41604
1.413897
1.40324
1.400213
1.377942
1.372793
1.335826
1.319019
1.299752
1.245932
1.414856
1.405032
1.401411
1.389797
1.381803
1.358014
1.339741
1.297076
1.257806
1.226937
1.126444
1.404634
1.395364
1.391214
1.377669
1.369632
1.339787
1.32158
1.260794
1.211083
1.134586
0.9897597
1.395444
1.130692
0.8999281
1.739625
1.670776
1.639196
1.617565
1.595045
1.58404
1.578734
1.593794
1.586803
1.579968
1.50371
1.442991
1.488047
1.379678
1.368017
1.369046
1.363681
1.367045
1.364659
1.349207
1.358551
1.513043
1.496162
1.544731
1.55303
1.577549
1.537352
1.579683
1.53638
1.53607
1.524404
1.538972
1.515369
1.47794
1.476921
1.442662
1.429337
1.417948
1.411511
1.407727
1.408679
1.39801
1.397507
1.52469
1.53307
1.545271
1.544422
1.544253
1.539806
1.540103
1.532572
1.523768
1.509883
1.49712
1.510466
1.502436
1.495256
1.481959
1.471521
1.467484
1.459395
1.456804
1.450746
1.441203
1.431312
1.521831
1.525533
1.527518
1.53218
1.53357
1.531854
1.526739
1.520958
1.513007
1.500887
1.48805
1.512459
1.511284
1.509058
1.510614
1.511324
1.508877
1.503719
1.496841
1.490176
1.480802
1.470084
1.510734
1.511415
1.512223
1.515253
1.517743
1.517564
1.517153
1.51497
1.511373
1.505268
1.494147
1.503602
1.502289
1.502472
1.503654
1.504323
1.506198
1.509592
1.510066
1.514179
1.512316
1.507586
1.497525
1.497278
1.49752
1.499807
1.50165
1.504971
1.509083
1.514414
1.51844
1.526774
1.519442
1.489198
1.488469
1.488718
1.490037
1.493578
1.495921
1.505556
1.510104
1.535207
1.540305
1.56995
1.479561
1.478964
1.479089
1.48048
1.48358
1.488129
1.496411
1.510731
1.530067
1.555321
1.578279
1.468947
1.467902
1.468054
1.467233
1.472177
1.47097
1.487329
1.4895
1.533354
1.552301
1.673312
1.456778
1.455659
1.45487
1.453338
1.454996
1.455705
1.464524
1.480876
1.521127
1.591037
1.627015
1.444511
1.442684
1.441762
1.436224
1.439321
1.426427
1.444151
1.413184
1.487862
1.421148
1.426754
1.43169
1.429646
1.426892
1.419927
1.415554
1.403505
1.392184
1.381586
1.335224
1.336496
1.374933
1.419837
1.417361
1.414162
1.404052
1.399731
1.378906
1.370915
1.336989
1.309933
1.2632
1.25012
1.408861
1.406431
1.401636
1.390704
1.380882
1.359275
1.335904
1.299358
1.239509
1.156229
1.117318
1.399215
1.396793
1.391624
1.378989
1.369416
1.342356
1.321655
1.266259
1.212297
1.141261
0.8646026
0.8522265
1.671333
1.755779
1.742191
1.728448
1.743694
1.734301
1.726789
1.880523
1.760172
1.802229
1.531939
1.503621
1.453727
1.41039
1.390366
1.36138
1.355612
1.338203
1.199657
1.249723
1.200215
1.539427
1.576377
1.639394
1.660251
1.682423
1.707666
1.711574
1.735605
1.729789
1.732656
1.701716
1.507024
1.487978
1.459619
1.430289
1.405515
1.394733
1.379868
1.39448
1.369783
1.371535
1.339707
1.550708
1.557436
1.580771
1.592145
1.598146
1.602657
1.587805
1.57754
1.546008
1.53494
1.507407
1.505751
1.504427
1.488677
1.482456
1.48458
1.473414
1.460339
1.451115
1.436404
1.429216
1.416502
1.525401
1.531991
1.53007
1.530959
1.53736
1.528377
1.527349
1.521691
1.510184
1.503102
1.485203
1.507509
1.511016
1.502585
1.503321
1.500772
1.497012
1.493558
1.490471
1.484453
1.48143
1.465878
1.506617
1.511897
1.50502
1.511975
1.509149
1.510894
1.5108
1.510989
1.507176
1.503684
1.491232
1.500135
1.501304
1.499324
1.501574
1.501525
1.503116
1.506257
1.507643
1.511899
1.511403
1.506196
1.49467
1.496382
1.495508
1.498093
1.499427
1.502274
1.506825
1.51189
1.517248
1.522524
1.515871
1.487042
1.487821
1.488085
1.489158
1.492972
1.49468
1.504976
1.509352
1.536594
1.541979
1.576073
1.477103
1.4781
1.478526
1.47967
1.483373
1.486822
1.497414
1.507033
1.53231
1.550342
1.582218
1.467371
1.467463
1.468217
1.466779
1.47278
1.470006
1.490013
1.489748
1.536022
1.55899
1.669264
1.454924
1.454909
1.454763
1.452669
1.455341
1.453961
1.46502
1.475877
1.521831
1.579457
1.633425
1.443427
1.44236
1.442123
1.435903
1.439979
1.425621
1.444492
1.410514
1.483868
1.401772
1.421589
1.430845
1.429288
1.42716
1.419444
1.416017
1.401797
1.393167
1.374055
1.338266
1.29817
1.391663
1.419582
1.417282
1.414751
1.403848
1.400597
1.378264
1.372751
1.336037
1.318198
1.260105
1.250128
1.40896
1.406399
1.402195
1.390351
1.381437
1.357749
1.336827
1.294253
1.241577
1.136943
1.118687
1.399944
1.397058
1.392443
1.378938
1.370335
1.342274
1.323118
1.266092
1.214179
1.134926
0.8523453
0.8487672
1.660238
1.718066
1.672333
1.994212
1.66919
1.935215
1.67667
1.693124
1.786995
1.645407
1.520597
1.393975
1.394784
1.281104
1.169758
1.311653
1.166961
1.322042
1.320599
1.215896
1.312428
1.534715
1.547411
1.611609
1.652496
1.664298
1.689295
1.687667
1.736189
1.707461
1.718518
1.674527
1.497176
1.463339
1.44212
1.406791
1.36691
1.366352
1.339246
1.358539
1.353737
1.354152
1.33383
1.539133
1.544354
1.563565
1.582569
1.575116
1.5944
1.562951
1.569976
1.550614
1.538418
1.516679
1.500125
1.496637
1.479318
1.484595
1.456266
1.465764
1.443892
1.454274
1.437383
1.429999
1.418367
1.527255
1.532948
1.531792
1.541227
1.536404
1.544063
1.535546
1.53155
1.522067
1.509369
1.495963
1.508674
1.50943
1.505986
1.510815
1.513288
1.510783
1.509124
1.497934
1.493797
1.479261
1.470718
1.51005
1.513001
1.51419
1.518123
1.520306
1.521328
1.521244
1.517955
1.515002
1.507151
1.497293
1.502268
1.502553
1.502207
1.503952
1.504475
1.506512
1.510323
1.510103
1.515222
1.512454
1.508895
1.495964
1.497238
1.497602
1.500114
1.502252
1.506128
1.510047
1.515625
1.519454
1.527188
1.521323
1.4878
1.488226
1.488607
1.489946
1.493511
1.495701
1.505154
1.509435
1.535595
1.541193
1.568056
1.478161
1.478686
1.478827
1.480666
1.483292
1.488701
1.496093
1.511192
1.530358
1.55401
1.575984
1.467827
1.467674
1.46797
1.467114
1.471975
1.47036
1.486789
1.487859
1.532647
1.550106
1.683241
1.455833
1.455499
1.454592
1.453509
1.454348
1.45568
1.463745
1.479109
1.524015
1.592295
1.636406
1.443963
1.442731
1.441877
1.436348
1.439171
1.425879
1.443706
1.410023
1.488117
1.406051
1.413804
1.4313
1.429728
1.426778
1.420112
1.414583
1.402914
1.389054
1.376465
1.326885
1.294736
1.406298
1.419849
1.417651
1.414452
1.404492
1.399568
1.379156
1.370354
1.336315
1.309791
1.261092
1.245781
1.409118
1.406769
1.40184
1.391081
1.380179
1.359137
1.33366
1.296262
1.235966
1.137177
1.115108
1.399892
1.397338
1.392213
1.379808
1.369726
1.343693
1.322465
1.26863
1.214507
1.135791
0.8496074
0.8421935
1.638252
1.735997
2.000434
1.780996
2.071101
1.698831
1.803592
1.955283
1.625903
1.850583
1.515758
1.38391
1.436898
1.173669
1.403153
1.114217
1.306468
1.250144
1.130189
1.311225
1.168127
1.564502
1.566074
1.657916
1.677474
1.72167
1.733253
1.750845
1.77747
1.759883
1.721359
1.70218
1.494472
1.456903
1.450538
1.384624
1.389318
1.371231
1.352607
1.36957
1.339837
1.337308
1.319307
1.560722
1.549587
1.589667
1.593052
1.605662
1.597454
1.583165
1.569965
1.533774
1.527259
1.509331
1.499884
1.495502
1.485673
1.467128
1.472471
1.452029
1.444366
1.434208
1.421022
1.413785
1.407842
1.525559
1.5363
1.534508
1.539525
1.547238
1.541363
1.524407
1.527355
1.510778
1.503624
1.486463
1.50619
1.514021
1.501085
1.516653
1.498224
1.500187
1.489035
1.492885
1.482263
1.482371
1.462642
1.50784
1.514618
1.504005
1.518057
1.50664
1.518345
1.508992
1.514971
1.507803
1.505564
1.492277
1.501722
1.502343
1.499243
1.502256
1.500522
1.504304
1.50488
1.508645
1.512198
1.51227
1.506608
1.49551
1.497025
1.495407
1.499089
1.498852
1.504468
1.506539
1.514428
1.517821
1.524939
1.518076
1.489155
1.488849
1.488792
1.48963
1.492696
1.494519
1.503912
1.508034
1.535765
1.541125
1.570964
1.476569
1.478155
1.477829
1.480172
1.482583
1.487974
1.495869
1.509925
1.530925
1.55141
1.576164
1.468773
1.468124
1.468629
1.467066
1.472257
1.469719
1.487247
1.486315
1.532934
1.549543
1.685869
1.453762
1.454542
1.453557
1.452922
1.45419
1.454835
1.464072
1.477234
1.523625
1.590024
1.638771
1.44391
1.442803
1.442109
1.436252
1.439498
1.425333
1.443775
1.408129
1.485344
1.402978
1.413658
1.430609
1.429265
1.426551
1.419757
1.414784
1.402131
1.38979
1.373089
1.329129
1.289531
1.395622
1.420039
1.417739
1.414782
1.404463
1.400092
1.378898
1.371682
1.335437
1.316574
1.253327
1.244153
1.409195
1.406751
1.402104
1.391
1.380635
1.358809
1.334585
1.295537
1.23803
1.137412
1.118106
1.400441
1.39762
1.39275
1.379887
1.370321
1.343752
1.323301
1.268664
1.215379
1.13292
0.8501378
0.8402289
1.608751
1.7277
1.743965
2.102594
1.651465
2.019633
1.666102
1.715634
1.716996
1.595739
1.513471
1.384402
1.38253
1.215509
1.061977
1.365805
1.067602
1.335083
1.250394
1.299963
1.287167
1.551668
1.554788
1.648993
1.695615
1.732539
1.74395
1.751605
1.749842
1.758495
1.702167
1.705087
1.483756
1.445236
1.429386
1.367832
1.364037
1.352235
1.323605
1.343874
1.34322
1.335767
1.320741
1.554936
1.55137
1.583674
1.58834
1.584808
1.584604
1.565789
1.572267
1.548138
1.541564
1.520606
1.49532
1.491074
1.477109
1.47952
1.462865
1.455152
1.463986
1.453335
1.433797
1.429787
1.421123
1.528646
1.537661
1.53294
1.54505
1.548671
1.544916
1.544629
1.533916
1.527515
1.508417
1.500241
1.506961
1.507781
1.505107
1.504798
1.522458
1.501229
1.51953
1.493034
1.499466
1.477396
1.474783
1.505871
1.507106
1.511135
1.505886
1.521269
1.514721
1.523738
1.514227
1.516156
1.505329
1.498178
1.503008
1.50234
1.501565
1.501651
1.504703
1.504488
1.510182
1.508972
1.517441
1.511855
1.509124
1.493519
1.495198
1.496274
1.497807
1.501809
1.503571
1.509899
1.514578
1.519606
1.525191
1.519417
1.487645
1.487783
1.48856
1.489156
1.493463
1.494663
1.504712
1.508115
1.536518
1.541361
1.57216
1.477604
1.477867
1.478472
1.48015
1.483062
1.488151
1.496163
1.510117
1.53114
1.551574
1.576953
1.467747
1.467435
1.468042
1.466874
1.472083
1.469843
1.487153
1.486452
1.533495
1.5503
1.68437
1.455946
1.455384
1.454562
1.453405
1.454276
1.455194
1.463883
1.477065
1.523583
1.587159
1.638049
1.44423
1.442737
1.442194
1.436305
1.439291
1.425334
1.443426
1.407507
1.485832
1.403821
1.413262
1.431528
1.429758
1.426895
1.420148
1.414615
1.402675
1.38912
1.374033
1.327476
1.285678
1.401409
1.420158
1.417618
1.414706
1.404402
1.399578
1.378496
1.370569
1.333138
1.315786
1.242781
1.241975
1.409593
1.406849
1.402186
1.391148
1.380634
1.359296
1.335034
1.297109
1.241051
1.143125
1.117765
1.40019
1.397221
1.392515
1.379593
1.369837
1.343058
1.322076
1.266535
1.212812
1.131229
0.8500908
1.392437
0.8406154
1.611745
1.738767
2.054057
1.790375
2.101999
1.747977
1.767152
1.927231
1.61169
1.818563
1.526011
1.381914
1.420133
1.135961
1.409758
1.107935
1.336534
1.318104
1.169299
1.303471
1.171227
1.572154
1.57089
1.669997
1.692387
1.739754
1.742186
1.7664
1.755881
1.752982
1.667494
1.705781
1.50087
1.452802
1.448955
1.373167
1.38623
1.35586
1.356116
1.354714
1.346836
1.338875
1.337399
1.55544
1.550871
1.590106
1.574859
1.603865
1.583034
1.583904
1.554284
1.535877
1.531436
1.500982
1.501825
1.492744
1.486719
1.463429
1.470927
1.442046
1.449618
1.42472
1.420639
1.413849
1.401454
1.521592
1.538381
1.537314
1.540651
1.553423
1.535242
1.536456
1.528975
1.513348
1.508323
1.487488
1.511358
1.516261
1.502824
1.515934
1.501806
1.508797
1.491501
1.509004
1.482096
1.485481
1.461442
1.511195
1.515761
1.510326
1.518698
1.510056
1.518537
1.512524
1.518595
1.509634
1.508597
1.493646
1.508002
1.508359
1.5027
1.505294
1.502851
1.50667
1.506939
1.513458
1.513218
1.514481
1.507018
1.498089
1.49699
1.496892
1.500367
1.500115
1.505552
1.50743
1.51678
1.518948
1.528067
1.519926
1.494616
1.490707
1.491489
1.491003
1.494035
1.495658
1.505025
1.510037
1.535306
1.541331
1.568686
1.473346
1.478625
1.476771
1.480887
1.482318
1.488625
1.495726
1.511194
1.530188
1.554741
1.576819
1.471574
1.468987
1.470132
1.467833
1.472534
1.470572
1.48706
1.488154
1.532705
1.550895
1.680863
1.447769
1.453727
1.450735
1.453089
1.453093
1.455617
1.463092
1.479148
1.522828
1.590871
1.637985
1.443067
1.443132
1.441961
1.436734
1.438988
1.425907
1.44299
1.409182
1.48745
1.402765
1.409755
1.428962
1.428642
1.425419
1.419934
1.414291
1.403348
1.389752
1.37765
1.327527
1.29406
1.38646
1.419558
1.417512
1.414432
1.404521
1.399233
1.378651
1.369803
1.332564
1.311848
1.237869
1.238298
1.408249
1.406353
1.401727
1.391339
1.380761
1.36065
1.336276
1.301855
1.245348
1.159773
1.09335
1.39994
1.397212
1.392513
1.379708
1.369574
1.343192
1.321329
1.265894
1.210317
1.131508
0.8235266
1.393468
1.390129
1.384468
1.372751
0.8447406
1.609203
1.686917
1.697683
1.879349
1.671875
1.73336
1.655085
1.645073
1.651324
1.696013
1.526468
1.404199
1.411812
1.289718
1.229358
1.318043
1.27639
1.359238
1.337579
1.375869
1.286844
1.551437
1.563
1.639414
1.672501
1.706784
1.702827
1.742907
1.705141
1.719421
1.675121
1.706703
1.489359
1.453872
1.430441
1.379609
1.361176
1.35211
1.337343
1.342911
1.343356
1.348496
1.336891
1.541278
1.556386
1.583715
1.590859
1.583794
1.576192
1.55835
1.558674
1.542071
1.53901
1.519018
1.499013
1.489095
1.476473
1.476009
1.463407
1.453205
1.451491
1.450873
1.441893
1.432915
1.420764
1.520655
1.534471
1.528651
1.542722
1.547955
1.543908
1.538169
1.530523
1.522111
1.511094
1.497939
1.506794
1.508124
1.500489
1.508289
1.502801
1.499728
1.497227
1.491774
1.485042
1.476794
1.468415
1.503713
1.512572
1.504379
1.515049
1.511451
1.510857
1.517267
1.515469
1.512892
1.505914
1.495423
1.513774
1.506498
1.503121
1.504004
1.504243
1.504775
1.509212
1.509847
1.515858
1.512846
1.507092
1.486688
1.493459
1.494249
1.498042
1.500168
1.502926
1.50844
1.513241
1.518679
1.523666
1.516529
1.491685
1.487195
1.489244
1.489281
1.493833
1.495285
1.505787
1.510217
1.536775
1.54229
1.576143
1.474526
1.47718
1.478207
1.479902
1.483109
1.487253
1.497269
1.507489
1.531793
1.550833
1.581839
1.466679
1.466985
1.468181
1.466772
1.472759
1.470342
1.489731
1.490125
1.53609
1.559821
1.667617
1.457753
1.455236
1.454887
1.45312
1.454685
1.454421
1.46407
1.475673
1.520033
1.578376
1.629281
1.444704
1.442239
1.442756
1.436114
1.439464
1.425737
1.442756
1.409324
1.481152
1.409057
1.410802
1.432186
1.429172
1.427457
1.419858
1.415835
1.402493
1.393363
1.374349
1.337619
1.296007
1.382208
1.421576
1.416628
1.415093
1.403646
1.399507
1.377404
1.370048
1.330137
1.316303
1.240303
1.241081
1.41126
1.406334
1.402897
1.390787
1.382195
1.359635
1.340183
1.300446
1.25581
1.158396
1.096389
1.401002
1.395926
1.392741
1.378136
1.369632
1.340554
1.320715
1.261782
1.208717
1.133281
0.8122139
1.392255
1.388135
1.384636
1.371264
1.360769
1.338721
0.8534317
1.645052
1.771582
1.874556
1.74548
1.926449
1.744648
1.744759
1.739915
2.203074
1.695098
1.530399
1.45807
1.473171
1.281678
1.380466
1.248628
1.362491
1.305586
1.342222
1.292009
1.342306
1.560068
1.546598
1.666802
1.665238
1.72095
1.721114
1.752396
1.695118
1.713141
1.564824
1.613376
1.511118
1.469606
1.455572
1.391698
1.386924
1.361687
1.353849
1.356106
1.361796
1.357138
1.347486
1.530711
1.560513
1.581678
1.588217
1.602128
1.579989
1.581706
1.563652
1.552933
1.534034
1.522004
1.499324
1.497601
1.483401
1.476386
1.47768
1.450907
1.459619
1.442636
1.438522
1.420442
1.414227
1.518712
1.535002
1.531575
1.538774
1.544331
1.529969
1.533808
1.524567
1.516626
1.506806
1.493451
1.513339
1.51678
1.50981
1.512416
1.510871
1.501808
1.498868
1.499631
1.488066
1.480402
1.465166
1.50079
1.5115
1.511848
1.516174
1.517259
1.516183
1.516534
1.517152
1.512314
1.508541
1.495023
1.512576
1.523467
1.506577
1.509093
1.505022
1.507401
1.509839
1.513035
1.514096
1.514602
1.506995
1.487517
1.490473
1.498457
1.499341
1.501584
1.505237
1.508878
1.515982
1.518949
1.528454
1.519432
1.474796
1.490949
1.494849
1.491199
1.49569
1.496649
1.506331
1.51107
1.535626
1.540959
1.570427
1.46543
1.477224
1.476222
1.481147
1.482389
1.488499
1.496251
1.510667
1.52966
1.55657
1.578981
1.479143
1.467766
1.472343
1.467687
1.473366
1.471339
1.487976
1.490134
1.533058
1.554011
1.670377
1.445992
1.452823
1.447441
1.453183
1.452765
1.455824
1.463233
1.480724
1.517897
1.591189
1.633696
1.443873
1.442974
1.441543
1.436784
1.43889
1.426625
1.442385
1.412166
1.483028
1.410808
1.403801
1.42946
1.427665
1.425101
1.419791
1.415099
1.404062
1.393531
1.381614
1.339484
1.326731
1.374469
1.415905
1.415736
1.414094
1.403761
1.398973
1.378118
1.369264
1.331424
1.312602
1.23787
1.243729
1.404588
1.40484
1.401547
1.39103
1.381957
1.361959
1.340453
1.308761
1.252348
1.186522
1.110118
1.395016
1.394823
1.39191
1.378235
1.369071
1.341248
1.319727
1.263166
1.208275
1.128795
0.8367992
1.395872
1.388505
1.385312
1.371886
1.36106
1.341432
1.317108
1.297733
0.8658504
1.723097
1.753243
1.765284
1.762412
1.729031
1.696649
1.683475
1.670505
1.736522
1.912785
1.546996
1.496392
1.464374
1.406314
1.366256
1.34182
1.358947
1.373917
1.377321
1.401162
1.383754
1.539739
1.566054
1.604604
1.64787
1.667983
1.682959
1.707195
1.658439
1.6703
1.576637
1.632231
1.509128
1.461863
1.44972
1.402159
1.381288
1.366589
1.353345
1.347547
1.356816
1.368406
1.351453
1.507779
1.564865
1.573299
1.591807
1.595613
1.580088
1.569675
1.556618
1.551258
1.536915
1.522206
1.4857
1.489248
1.487217
1.486384
1.480107
1.459722
1.460787
1.451988
1.446446
1.428603
1.419124
1.47862
1.532014
1.528268
1.537904
1.542089
1.535588
1.530279
1.523804
1.517006
1.506153
1.493413
1.467501
1.507613
1.503905
1.508052
1.505258
1.501564
1.4984
1.496318
1.487792
1.479813
1.466566
1.458875
1.510124
1.508242
1.51394
1.513716
1.513211
1.513419
1.514323
1.510495
1.505502
1.49355
1.457247
1.506339
1.504914
1.505127
1.505006
1.506008
1.508726
1.51098
1.513919
1.512936
1.505497
1.504366
1.491907
1.497676
1.4981
1.501057
1.503299
1.508297
1.512604
1.518381
1.523169
1.516253
1.466683
1.481158
1.493523
1.489066
1.495454
1.496567
1.506939
1.512804
1.53428
1.541146
1.572327
1.448148
1.474771
1.479789
1.479495
1.483284
1.486712
1.497112
1.505629
1.530693
1.547548
1.581214
1.431015
1.461464
1.474162
1.466215
1.473939
1.472055
1.488255
1.492715
1.533143
1.557805
1.647085
1.415982
1.453111
1.453868
1.452714
1.454843
1.453974
1.46631
1.469916
1.517858
1.52381
1.617791
1.408396
1.44067
1.444264
1.435893
1.439327
1.42687
1.441553
1.415475
1.472533
1.439822
1.449218
1.398931
1.423856
1.428553
1.419025
1.416826
1.402647
1.398901
1.374136
1.366598
1.354703
1.343734
1.391848
1.410742
1.416646
1.402387
1.399309
1.377346
1.368737
1.333005
1.311317
1.244361
1.248701
1.3956
1.402348
1.40383
1.390096
1.383548
1.361059
1.346426
1.309937
1.283996
1.213136
1.09593
1.37443
1.390457
1.39411
1.376129
1.369425
1.337303
1.318762
1.256483
1.194562
1.106
0.8780625
1.355978
1.379859
1.387615
1.36935
1.361967
1.338119
1.319121
1.283475
1.256439
1.105307
0.937061
1.564002
1.643653
1.618577
1.582131
1.637918
1.516044
1.537293
1.632167
1.702054
1.500377
1.539256
1.533978
1.549949
1.677672
1.696618
1.548898
1.518215
1.538492
1.580284
1.702439
1.756761
1.5317
1.531522
1.543186
1.562821
1.661466
1.841292
1.534461
1.546048
1.530214
1.553749
1.623766
1.871575
1.52771
1.547191
1.512563
1.536765
1.621367
1.844602
1.525553
1.53781
1.492692
1.531293
1.600017
1.798234
1.510648
1.52538
1.474156
1.530099
1.580201
1.744283
1.496057
1.524658
1.45732
1.517694
1.561709
1.711738
1.484034
1.513308
1.441191
1.502013
1.548331
1.684294
1.470123
1.498756
1.439427
1.569986
1.59747
1.502299
1.489661
1.568323
1.593553
1.483905
1.558843
1.542739
1.49358
1.524176
1.614849
1.533926
1.467124
1.54665
1.571602
1.474764
1.501906
1.5371
1.531946
1.480854
1.552288
1.57169
1.484383
1.539742
1.57585
1.5384
1.469541
1.541672
1.560578
1.47144
1.520135
1.54457
1.529929
1.475117
1.544204
1.564081
1.475432
1.5197
1.557179
1.523383
1.470185
1.537977
1.556155
1.469005
1.507421
1.54197
1.518645
1.46793
1.534647
1.551544
1.465914
1.503838
1.539634
1.513451
1.462879
1.528889
1.54394
1.460762
1.496635
1.531709
1.506721
1.457901
1.52307
1.53638
1.455371
1.490069
1.525
1.499184
1.451385
1.515395
1.526954
1.448512
1.481523
1.516565
1.489823
1.443142
1.506433
1.515988
1.440942
1.471617
1.507391
1.478896
1.433745
1.496425
1.503826
1.432437
1.460392
1.49764
1.466008
1.422854
1.485038
1.490409
1.421838
1.447763
1.48568
1.453188
1.411464
1.47306
1.476615
1.410815
1.435178
1.473279
1.44056
1.859893
1.37057
1.450421
1.83098
1.369223
1.399869
1.460929
1.462502
1.399519
1.422674
1.460607
1.428224
1.27597
1.346072
1.302227
1.389054
1.449489
1.44916
1.388831
1.411044
1.447986
1.416694
1.157308
1.229581
1.199647
1.379582
1.438952
1.436533
1.379422
1.400558
1.436365
1.406157
0.9851275
1.087517
0.9989905
1.371766
1.429279
1.424688
1.371491
1.39147
1.426001
1.397316
0.9210375
0.4577075
0.865056
0.8025831
0.3217441
1.364942
1.365442
1.384096
1.653042
1.558465
1.626835
1.796931
1.577029
1.581865
1.836877
1.382575
1.408556
1.840342
1.379883
0.7842765
0.3075264
0.8525851
0.7912942
0.2808267
1.690422
1.583328
1.652372
1.754967
1.603451
1.629311
1.836318
1.387958
1.41508
1.836193
1.37589
0.7810058
0.2906072
0.8504622
0.7817748
0.2875431
1.741311
1.606202
1.686706
1.783042
1.603724
1.631362
1.839131
1.384534
1.410996
1.840878
1.375632
0.7784896
0.2893853
0.8467964
0.7755303
0.2848577
1.76095
1.599207
1.687839
1.84507
1.604284
1.658828
1.84127
1.382736
1.411176
1.842546
1.37153
0.7792139
0.2751181
0.8516792
0.7747859
0.2785183
1.780757
1.608902
1.682047
1.783391
1.601408
1.682665
1.842241
1.380511
1.409928
1.839972
1.368967
0.7812829
0.2693988
0.8368124
0.7733871
0.2833552
1.761831
1.61392
1.673223
1.769954
1.606922
1.700366
1.839066
1.374678
1.410047
1.83728
1.376968
0.7799146
0.2866228
0.8083506
0.7795735
0.291058
1.759041
1.612401
1.63522
1.738294
1.601886
1.681745
1.834284
1.37234
1.415539
1.832432
1.379122
0.7850211
0.2970126
0.8270049
0.7873751
0.2824735
1.735721
1.604768
1.643608
1.683496
1.578953
1.632195
1.835878
1.37225
1.422154
1.829389
1.372052
0.7947178
0.2850492
0.8660325
0.7933419
0.3058791
1.662053
1.599404
1.657409
1.71961
1.619333
1.684791
1.449389
1.537786
1.618647
1.517925
1.547619
1.763182
1.550566
1.569031
1.754736
1.547182
1.576975
1.744423
1.575852
1.518515
1.729117
1.599544
1.681652
1.760441
1.555285
1.474015
1.564057
1.682031
1.617469
1.475464
1.487545
1.610369
1.460454
1.524874
1.598049
1.491036
1.506529
1.471904
1.515944
1.486001
1.550522
1.598484
1.464741
1.586873
1.522331
1.532157
1.55744
1.499232
1.546987
1.563094
1.471508
1.512554
1.553795
1.509397
1.467091
1.545578
1.492994
1.51187
1.543087
1.477891
1.575775
1.503242
1.555815
1.538536
1.465813
1.560089
1.492712
1.551896
1.531508
1.461355
1.557881
1.475906
1.534346
1.548799
1.451892
1.573434
1.465479
1.494666
1.51408
1.460279
1.547778
1.465207
1.500973
1.515526
1.447673
1.526175
1.474018
1.510419
1.508032
1.439411
1.50596
1.821193
1.365069
1.485246
1.847336
1.350025
1.215733
1.233708
1.210576
1.032265
1.118611
1.010132
0.8103689
0.3362839
1.012034
0.92892
0.4645991
1.590376
1.562339
1.654771
1.580589
1.612048
1.587345
1.685114
1.613447
1.660055
1.572217
1.661423
1.616665
1.653552
1.587052
1.64388
1.605253
1.615212
1.612309
1.665132
1.585365
1.600397
1.623492
1.651115
1.578705
1.624049
1.615434
1.633196
1.542408
1.596936
1.597172
1.607172
1.523018
1.580299
1.570538
1.584442
1.508491
1.565741
1.548083
1.566842
1.491204
1.549364
1.531145
1.601795
1.523364
1.54395
1.554998
1.53129
1.59915
1.567261
1.570415
1.546658
1.523371
1.541645
1.528566
1.544328
1.54335
1.569859
1.519508
1.516112
1.516455
1.495595
1.536738
1.538579
1.561393
1.514352
1.519471
1.513569
1.494739
1.53601
1.535604
1.559325
1.509842
1.51064
1.508823
1.487968
1.529252
1.528394
1.556298
1.507153
1.511362
1.506444
1.486102
1.528297
1.52772
1.550303
1.504292
1.505261
1.503281
1.483022
1.521963
1.521756
1.54478
1.500119
1.501072
1.499081
1.479942
1.517145
1.517335
1.538624
1.495271
1.496162
1.494328
1.475961
1.511167
1.51157
1.53169
1.489712
1.491085
1.488705
1.471492
1.504745
1.505384
1.523699
1.483298
1.485274
1.482339
1.466647
1.497252
1.498012
1.514237
1.474789
1.477472
1.47401
1.458926
1.488507
1.489183
1.503661
1.465183
1.468278
1.464628
1.450268
1.478936
1.479422
1.491851
1.454294
1.457569
1.45395
1.440464
1.468116
1.468518
1.672697
1.668405
1.707033
1.616872
1.654053
1.689537
1.72394
1.479499
1.442571
1.446228
1.442402
1.429886
1.456696
1.457052
1.467007
1.430475
1.434683
1.430507
1.418953
1.445076
1.445404
1.455216
1.418564
1.423788
1.418972
1.40839
1.433981
1.434449
1.444296
1.407551
1.413906
1.408766
1.398569
1.423857
1.424351
1.434357
1.398075
1.405088
1.398927
1.390637
1.41462
1.41527
1.425266
1.389578
1.397393
1.390562
1.383676
1.406655
1.407024
1.587601
1.556454
1.657741
1.699147
1.718851
1.63588
1.662566
1.709335
1.725807
0.949823
1.122426
0.9554448
1.594067
1.56545
1.659921
1.711406
1.722198
1.631067
1.656931
1.714184
1.723849
0.9484372
1.11978
0.9497635
1.610018
1.587015
1.661983
1.719301
1.727272
1.639135
1.665829
1.719469
1.727
0.9473693
1.116738
0.94463
1.612814
1.58439
1.665347
1.719785
1.7283
1.638253
1.666029
1.719248
1.726769
0.9539812
1.118888
0.9546516
1.59675
1.604472
1.665328
1.719072
1.726616
1.637476
1.664336
1.718061
1.726557
0.9682232
1.106255
1.076932
1.006835
1.588584
1.618157
1.664654
1.717752
1.725738
1.634663
1.660553
1.717383
1.72544
1.081979
1.026485
1.093983
1.085522
1.037266
1.58263
1.612862
1.655432
1.711342
1.722129
1.631482
1.657971
1.707708
1.719766
1.088479
1.041897
1.096618
1.084137
1.027396
1.578957
1.607102
1.6609
1.704954
1.723292
1.625634
1.655413
1.695067
1.715978
1.09655
1.03156
1.124093
0.9793664
1.570914
1.590268
1.710905
1.547103
1.504977
1.701538
1.659805
1.575414
1.711165
1.674046
1.560061
1.525557
1.571133
1.659048
1.675338
1.561514
1.54083
1.531447
1.624615
1.662597
1.5633
1.567652
1.529109
1.586498
1.482869
1.526658
1.533121
1.462187
1.560008
1.504231
1.560582
1.541057
1.470681
1.546858
1.47765
1.483338
1.492656
1.430893
1.475746
1.500242
1.4654
1.510312
1.467951
1.468063
1.420688
1.482781
1.653923
1.686842
1.721087
1.630997
1.671755
1.667537
1.704418
1.452106
1.473273
1.46331
1.410603
1.475671
1.434563
1.451278
1.448137
1.401205
1.469686
1.286997
1.305651
1.296773
1.429405
1.447074
1.445709
1.383969
1.452126
1.447059
1.412775
1.417697
1.430938
1.376234
1.433853
1.40517
1.41836
1.422656
1.372477
1.420407
1.3948
1.392477
1.365564
1.599209
1.595202
1.633239
1.589509
1.630083
1.544017
1.625859
1.59296
1.562892
1.637623
1.543159
1.584354
1.622248
1.583855
1.67405
1.58503
1.657419
1.559501
1.676158
1.609256
1.625731
1.612107
1.632557
1.610035
1.621696
1.623578
1.661334
1.598935
1.613956
1.632612
1.669685
1.577647
1.622112
1.625735
1.658276
1.548929
1.60469
1.600585
1.635762
1.517174
1.58523
1.585128
1.610679
1.500589
1.565966
1.567336
1.590945
1.481809
1.548607
1.546784
1.570156
1.461352
1.59905
1.565462
1.553176
1.560468
1.577981
1.553413
1.575876
1.580505
1.548252
1.542377
1.537652
1.557727
1.528151
1.560708
1.5705
1.528708
1.527475
1.524964
1.542694
1.515345
1.547072
1.569397
1.534632
1.530068
1.528783
1.546363
1.516829
1.549202
1.561557
1.519031
1.51999
1.518544
1.535266
1.505637
1.539405
1.56068
1.520996
1.521191
1.520022
1.536507
1.506564
1.539155
1.553623
1.511418
1.51606
1.514085
1.5293
1.502174
1.532936
1.548166
1.506676
1.512807
1.510877
1.524994
1.49934
1.528027
1.540865
1.499465
1.507688
1.505676
1.518343
1.494746
1.521394
1.533076
1.492858
1.502187
1.500282
1.511483
1.489816
1.5143
1.523564
1.485245
1.494726
1.493011
1.503057
1.482887
1.505576
1.51277
1.476282
1.486008
1.484617
1.493493
1.474851
1.495517
1.501067
1.466386
1.476229
1.475281
1.483201
1.46592
1.484589
1.48805
1.455183
1.46523
1.464593
1.471547
1.455804
1.472566
1.4745
1.44345
1.453611
1.453227
1.459243
1.444932
1.460076
1.628929
1.452635
1.828326
1.403537
1.51199
1.15968
1.263481
1.232862
1.342947
1.588559
1.828381
1.368862
1.383506
1.727638
1.460769
1.43164
1.442005
1.441755
1.446591
1.433953
1.447558
1.297333
1.281434
1.253865
1.287512
1.263416
1.263968
1.280569
1.286343
1.447651
1.420428
1.430965
1.430758
1.434342
1.423245
1.435571
1.217082
1.247547
1.222418
1.206757
1.173492
1.136217
1.1509
1.195432
1.435657
1.41029
1.421
1.420511
1.423001
1.41364
1.424552
1.041464
1.115049
1.09511
1.030623
0.9665776
0.8250009
0.7828924
1.003636
1.424346
1.401204
1.411876
1.411202
1.412847
1.404992
1.414536
-0.2432601
0.7622066
-1.180132
0.6016545
-1.296343
-0.3059609
-0.2685473
0.6008531
-1.512341
0.6226825
-1.40542
-0.3075348