/*--------------------------------*- C++ -*----------------------------------*\
  =========                 |
  \\      /  F ield         | OpenFOAM: The Open Source CFD Toolbox
   \\    /   O peration     | Website:  https://openfoam.org
    \\  /    A nd           | Version:  7
     \\/     M anipulation  |
\*---------------------------------------------------------------------------*/
FoamFile
{
    version     2.0;
    format      ascii;
    class       volVectorField;
    location    "0.1";
    object      C;
}
// * * * * * * * * * * * * * * * * * * * * * * * * * * * * * * * * * * * * * //

dimensions      [0 1 0 0 0 0 0];

internalField   nonuniform List<vector> 
78470
(
(0.4257394 0.2330876 0.02105191)
(0.6249925 0.2335462 0.02083337)
(0.8249667 0.2335303 0.02086491)
(1.024969 0.2335279 0.02086675)
(1.224969 0.2335272 0.02086787)
(1.424969 0.2335269 0.02086809)
(1.624969 0.2335267 0.02086808)
(1.824969 0.2335268 0.02086823)
(2.024969 0.2335271 0.02086929)
(0.4991115 0.5015071 0.09738066)
(0.6997088 0.5024001 0.09489673)
(0.8997339 0.5023091 0.09412186)
(1.099888 0.502179 0.09393218)
(1.299959 0.5021263 0.0938786)
(1.499986 0.50211 0.09386393)
(1.699996 0.5021067 0.09386675)
(1.900001 0.5021076 0.09387912)
(2.1 0.502111 0.09388899)
(0.499544 0.7003377 0.09549911)
(0.6995723 0.7005662 0.09147606)
(0.8995059 0.7005556 0.09026217)
(1.099783 0.7004626 0.08993721)
(1.299919 0.7004116 0.08984309)
(1.499971 0.7003926 0.08981664)
(1.699991 0.7003889 0.08981796)
(1.899998 0.700391 0.0898308)
(2.100001 0.7003929 0.08984476)
(0.4995294 0.8999327 0.09488227)
(0.6995003 0.8998627 0.09041746)
(0.8993794 0.899786 0.08894962)
(1.099715 0.8997287 0.08853938)
(1.299889 0.8996958 0.08841511)
(1.499958 0.8996824 0.08837879)
(1.699986 0.8996801 0.08837934)
(1.899997 0.8996831 0.08839442)
(2.100001 0.8996865 0.08840928)
(0.4994497 1.099949 0.09473684)
(0.6994091 1.099896 0.09013813)
(0.8993125 1.099849 0.08858488)
(1.099676 1.099816 0.08813027)
(1.29987 1.099796 0.08798667)
(1.499949 1.099788 0.08794343)
(1.699982 1.099788 0.08794369)
(1.899995 1.099791 0.08796136)
(2.100001 1.099795 0.08797892)
(0.4994128 1.299977 0.09469647)
(0.699363 1.299951 0.09005634)
(0.8992781 1.299928 0.08847188)
(1.099654 1.299911 0.08799735)
(1.299858 1.2999 0.08784335)
(1.499943 1.299896 0.08779635)
(1.699979 1.299898 0.0877969)
(1.899995 1.299902 0.08781689)
(2.100001 1.299907 0.08783698)
(0.4993994 1.499989 0.09468218)
(0.6993443 1.499977 0.09002733)
(0.8992627 1.499966 0.0884307)
(1.099644 1.499958 0.08794775)
(1.299852 1.499954 0.08778953)
(1.49994 1.499954 0.08774175)
(1.699978 1.499958 0.08774379)
(1.899995 1.499965 0.08776623)
(2.100002 1.499972 0.08778868)
(0.4993947 1.699995 0.09467707)
(0.6993372 1.69999 0.09001719)
(0.899257 1.699986 0.08841672)
(1.099641 1.699983 0.08793198)
(1.299852 1.699984 0.08777436)
(1.499942 1.699989 0.08772954)
(1.699981 1.699999 0.0877357)
(1.899998 1.700012 0.08776212)
(2.100004 1.700026 0.08778764)
(0.4993934 1.899998 0.09467581)
(0.6993359 1.899996 0.09001546)
(0.8992572 1.899996 0.08841595)
(1.099644 1.899998 0.08793476)
(1.299858 1.900005 0.08778425)
(1.499951 1.900019 0.08774966)
(1.699991 1.900041 0.08776706)
(1.900006 1.900072 0.08780299)
(2.100009 1.900106 0.08783466)
(0.499394 2.1 0.09467695)
(0.6993382 2.1 0.09001895)
(0.8992629 2.100003 0.0884249)
(1.099655 2.10001 0.08795496)
(1.299875 2.100027 0.08782463)
(1.499974 2.100057 0.08782041)
(1.700015 2.10011 0.08787135)
(1.900025 2.100187 0.08793329)
(2.10002 2.100273 0.08797966)
(0.499396 2.300001 0.09467974)
(0.699344 2.300003 0.09002719)
(0.8992751 2.300009 0.08844496)
(1.099668 2.300014 0.08800482)
(1.299877 2.30002 0.08793804)
(1.499969 2.300062 0.08803372)
(1.700019 2.300175 0.08819547)
(1.900043 2.300361 0.08834176)
(2.100037 2.300572 0.08843117)
(0.4993995 2.500001 0.09468414)
(0.6993539 2.500005 0.09004032)
(0.8992958 2.500013 0.08847875)
(1.099684 2.5 0.088102)
(1.299681 2.49978 0.08827197)
(1.499491 2.499561 0.0887558)
(1.699585 2.499686 0.08927679)
(1.899916 2.499999 0.08973593)
(2.100063 2.50043 0.08998112)
(0.4994046 2.700002 0.0946898)
(0.699368 2.700005 0.09005746)
(0.8993265 2.700015 0.08852613)
(1.099726 2.699981 0.08824778)
(1.299479 2.699444 0.0888021)
(1.497734 2.697566 0.09115399)
(1.697966 2.698758 0.09215746)
(1.900127 2.699039 0.09424734)
(2.100142 2.700813 0.0946214)
(0.499411 2.900002 0.0946958)
(0.699386 2.900005 0.0900756)
(0.8993652 2.900012 0.08857716)
(1.0998 2.899973 0.08840381)
(1.29954 2.899423 0.08929807)
(1.499047 2.897478 0.09209438)
(1.645294 2.844922 0.04271352)
(1.849341 2.844687 0.04487236)
(2.049068 2.848548 0.04459495)
(0.4994185 3.100002 0.09470132)
(0.6994067 3.100004 0.09009109)
(0.8994075 3.100009 0.08861755)
(1.099866 3.099984 0.08852046)
(1.299489 3.099729 0.08969442)
(1.498497 3.099523 0.09398861)
(1.645227 3.048594 0.04465707)
(1.81711 3.011323 0.01034755)
(0.4994268 3.300002 0.09470601)
(0.6994304 3.300005 0.09010307)
(0.8994553 3.30001 0.08864491)
(1.099929 3.300011 0.08858821)
(1.29939 3.299991 0.08990088)
(1.498132 3.299938 0.09420207)
(1.645275 3.248979 0.04481587)
(1.818794 3.212218 0.01019957)
(0.4994353 3.500002 0.09470982)
(0.6994562 3.500005 0.09011231)
(0.8995138 3.500012 0.08866564)
(1.100044 3.500031 0.0886361)
(1.299591 3.500075 0.08999797)
(1.498353 3.500129 0.09433302)
(1.645202 3.449044 0.04483773)
(1.818787 3.412221 0.0102049)
(0.4994415 3.700001 0.09471227)
(0.6994759 3.700002 0.09011827)
(0.8995626 3.700006 0.08867965)
(1.100161 3.700017 0.08866971)
(1.299873 3.700045 0.09007852)
(1.498965 3.700086 0.09454606)
(1.645387 3.649049 0.0448824)
(1.818787 3.612223 0.01020754)
(0.4994427 3.899999 0.09471279)
(0.6994791 3.899998 0.09011942)
(0.8995697 3.899995 0.08868166)
(1.100176 3.899986 0.08867311)
(1.299905 3.899964 0.09008398)
(1.499014 3.899928 0.09455061)
(1.645449 3.84901 0.04489166)
(1.818787 3.812222 0.01020821)
(0.4994387 4.099998 0.09471178)
(0.6994655 4.099995 0.09011637)
(0.8995336 4.099988 0.08867254)
(1.100087 4.099971 0.0886477)
(1.299695 4.099934 0.09001946)
(1.498572 4.099897 0.09437362)
(1.645335 4.048988 0.04485827)
(1.818787 4.012222 0.01020684)
(0.4994323 4.299998 0.09471047)
(0.6994439 4.299995 0.09011187)
(0.8994826 4.299989 0.08865868)
(1.099989 4.299986 0.08860953)
(1.299542 4.300004 0.08994034)
(1.498576 4.30006 0.09432189)
(1.645357 4.249019 0.04482426)
(1.818789 4.212223 0.0102011)
(0.4994262 4.499999 0.09471057)
(0.6994229 4.499996 0.09010809)
(0.8994347 4.499989 0.08864158)
(1.099915 4.500006 0.08855087)
(1.299593 4.500238 0.08973312)
(1.49868 4.500362 0.09404034)
(1.645402 4.449103 0.04482415)
(1.818791 4.412233 0.01019922)
(1.64499 4.650893 0.04339874)
(1.825954 4.624758 0.02251476)
(2.024994 4.621327 0.02266863)
(0.4516636 0.2587957 0.2485889)
(0.7013295 0.3084302 0.2970737)
(0.9003735 0.3070642 0.2974365)
(1.099974 0.3065752 0.2974636)
(1.29997 0.3064679 0.2974166)
(1.499988 0.3064445 0.2973977)
(1.699995 0.3064397 0.2973986)
(1.899998 0.3064401 0.2974105)
(2.100001 0.3064425 0.2974209)
(0.2590642 0.4507901 0.2508044)
(0.5001016 0.5002122 0.2939911)
(0.6996432 0.4989071 0.2904862)
(0.8996997 0.4975111 0.2891753)
(1.099822 0.496938 0.288725)
(1.299908 0.4967423 0.2885647)
(1.499955 0.4966809 0.2885174)
(1.69998 0.4966681 0.2885226)
(1.899992 0.4966737 0.2885527)
(2.1 0.4966801 0.2885806)
(0.2584687 0.6504389 0.2516826)
(0.4995305 0.6997241 0.2915768)
(0.6989442 0.6991028 0.2859523)
(0.8993227 0.6983968 0.2836366)
(1.099631 0.6979882 0.2828081)
(1.299811 0.6978004 0.2825104)
(1.499907 0.6977286 0.2824206)
(1.699957 0.6977132 0.2824252)
(1.899984 0.6977218 0.2824696)
(2.099998 0.6977332 0.2825134)
(0.2581532 0.8500225 0.2521353)
(0.4989123 0.8997823 0.2906502)
(0.6983814 0.8994708 0.2840086)
(0.8989856 0.8991263 0.281038)
(1.099447 0.8988853 0.2799129)
(1.299714 0.8987532 0.2794931)
(1.499857 0.8986971 0.2793626)
(1.699933 0.8986867 0.2793656)
(1.899974 0.8986982 0.279424)
(2.099998 0.8987125 0.2794809)
(0.2580871 1.049989 0.2521588)
(0.498625 1.099866 0.2903214)
(0.698069 1.099703 0.2833074)
(0.8987665 1.099527 0.2800413)
(1.099313 1.099392 0.2787463)
(1.299638 1.09931 0.2782449)
(1.499816 1.099274 0.2780849)
(1.699913 1.09927 0.2780871)
(1.899966 1.099284 0.2781575)
(2.099998 1.0993 0.2782273)
(0.2580769 1.249993 0.2521531)
(0.4985112 1.299926 0.2901977)
(0.697918 1.299839 0.2830438)
(0.898644 1.299748 0.2796517)
(1.09923 1.299675 0.2782723)
(1.299587 1.299629 0.2777257)
(1.499788 1.299611 0.2775491)
(1.699899 1.299616 0.2775526)
(1.899961 1.299633 0.2776329)
(2.099999 1.299653 0.2777133)
(0.2580743 1.449994 0.2521516)
(0.4984666 1.499961 0.2901491)
(0.6978504 1.499916 0.2829406)
(0.8985829 1.499869 0.2794968)
(1.099186 1.499833 0.278081)
(1.299561 1.499813 0.2775159)
(1.499775 1.499811 0.2773354)
(1.699895 1.499826 0.2773447)
(1.899962 1.499853 0.2774349)
(2.100002 1.499885 0.2775247)
(0.2580735 1.649994 0.2521512)
(0.4984497 1.699981 0.2901308)
(0.6978232 1.699958 0.2829028)
(0.8985582 1.699937 0.2794424)
(1.09917 1.699924 0.2780184)
(1.299556 1.699923 0.2774555)
(1.499779 1.699939 0.2772863)
(1.699903 1.699972 0.2773117)
(1.899971 1.700022 0.2774174)
(2.10001 1.700081 0.2775194)
(0.2580733 1.849995 0.252151)
(0.4984449 1.899992 0.2901269)
(0.697817 1.899982 0.2828968)
(0.8985567 1.899976 0.2794401)
(1.099178 1.899979 0.2780307)
(1.299574 1.899996 0.2774955)
(1.499805 1.900035 0.2773657)
(1.699933 1.900103 0.2774335)
(1.899997 1.900203 0.2775735)
(2.100027 1.900325 0.2776979)
(0.2580732 2.049995 0.2521511)
(0.4984466 2.099998 0.2901311)
(0.697824 2.099996 0.2829112)
(0.8985742 2.1 0.2794773)
(1.09921 2.100015 0.278112)
(1.299623 2.100051 0.2776519)
(1.499868 2.100123 0.277628)
(1.699999 2.100255 0.2778095)
(1.900052 2.100465 0.2780366)
(2.100061 2.100728 0.2782097)
(0.2580733 2.249995 0.2521513)
(0.4984533 2.300001 0.290142)
(0.697843 2.300004 0.2829442)
(0.8986123 2.300013 0.2795569)
(1.099275 2.300037 0.278286)
(1.299719 2.300089 0.2780035)
(1.499994 2.300202 0.2782609)
(1.700137 2.300441 0.278763)
(1.900168 2.300888 0.2792244)
(2.100129 2.301472 0.2795039)
(0.2580735 2.449995 0.2521516)
(0.4984648 2.500003 0.2901587)
(0.6978748 2.500007 0.2829951)
(0.898675 2.500018 0.2796853)
(1.099382 2.500041 0.2785912)
(1.299886 2.50009 0.2787034)
(1.500233 2.500211 0.2797141)
(1.700425 2.500573 0.281156)
(1.900419 2.501527 0.2822573)
(2.100254 2.502876 0.2827392)
(0.2580739 2.649995 0.252152)
(0.4984818 2.700003 0.2901793)
(0.6979211 2.700007 0.2830598)
(0.8987662 2.700014 0.2798563)
(1.099542 2.700022 0.2790351)
(1.300151 2.700023 0.279882)
(1.500705 2.700014 0.2827618)
(1.701002 2.700087 0.2867335)
(1.900955 2.70206 0.2891095)
(2.100439 2.705551 0.2896216)
(0.2580744 2.849995 0.2521524)
(0.4985044 2.900004 0.290201)
(0.6979828 2.900007 0.2831269)
(0.8988864 2.900008 0.2800344)
(1.09975 2.899993 0.279509)
(1.300512 2.899914 0.2812025)
(1.501546 2.8996 0.2865285)
(1.65173 2.849311 0.2405793)
(1.851283 2.850467 0.2455661)
(2.050323 2.857055 0.2456748)
(0.258075 3.049995 0.2521528)
(0.4985331 3.100005 0.2902208)
(0.6980614 3.10001 0.2831845)
(0.8990368 3.100012 0.2801776)
(1.099983 3.099994 0.2798554)
(1.300784 3.099876 0.282049)
(1.501922 3.099384 0.2883617)
(1.654283 3.048669 0.2445071)
(1.818029 3.008326 0.2122174)
(0.2580758 3.249995 0.2521531)
(0.498568 3.300007 0.2902372)
(0.6981618 3.300017 0.2832292)
(0.89924 3.300035 0.2802789)
(1.100313 3.300059 0.2800634)
(1.301082 3.300055 0.2824117)
(1.500328 3.299808 0.2885462)
(1.650224 3.249546 0.2446218)
(1.829195 3.252491 0.2523239)
(0.2580767 3.449995 0.2521534)
(0.4986056 3.500008 0.2902503)
(0.6982784 3.500021 0.2832644)
(0.899515 3.500054 0.2803609)
(1.100916 3.500143 0.2802482)
(1.302364 3.500393 0.2828324)
(1.502505 3.500981 0.289394)
(1.648835 3.450407 0.2449403)
(1.826226 3.450249 0.2514322)
(0.2580774 3.649995 0.2521536)
(0.4986337 3.700004 0.2902586)
(0.6983698 3.70001 0.2832871)
(0.8997507 3.700029 0.2804174)
(1.101512 3.70008 0.2803928)
(1.303938 3.70023 0.2832344)
(1.506921 3.700582 0.2905407)
(1.654297 3.650579 0.2461262)
(1.829126 3.649951 0.2495856)
(0.2580777 3.849995 0.2521536)
(0.4986391 3.899997 0.2902604)
(0.6983847 3.899991 0.2832912)
(0.8997828 3.899975 0.2804247)
(1.101579 3.899932 0.2804045)
(1.304072 3.899803 0.2832513)
(1.507134 3.899488 0.2905482)
(1.655714 3.84977 0.2463705)
(1.829495 3.850144 0.2486567)
(0.2580774 4.049995 0.2521536)
(0.4986208 4.099992 0.2902567)
(0.6983202 4.099979 0.2832788)
(0.899605 4.099946 0.2803858)
(1.10111 4.099864 0.2802885)
(1.302793 4.099639 0.2828996)
(1.503478 4.099161 0.2894903)
(1.652293 4.049244 0.2455657)
(1.827895 4.050145 0.2507079)
(0.2580769 4.249995 0.2521535)
(0.4985915 4.299992 0.2902523)
(0.6982222 4.29998 0.2832614)
(0.899363 4.299957 0.2803302)
(1.100574 4.299925 0.2801393)
(1.301698 4.299922 0.2825371)
(1.502392 4.300196 0.288858)
(1.651531 4.249971 0.2448571)
(1.829462 4.247343 0.2523501)
(0.2580764 4.449995 0.2521538)
(0.4985644 4.499994 0.2902524)
(0.6981323 4.499984 0.283247)
(0.8991602 4.49997 0.2802687)
(1.100206 4.499961 0.2799691)
(1.301236 4.499998 0.2821854)
(1.502962 4.500218 0.2885126)
(1.655354 4.45049 0.2448636)
(1.834677 4.425519 0.2247572)
(0.2580766 4.649995 0.2521553)
(1.652692 4.65053 0.2427399)
(1.826704 4.626584 0.2240302)
(2.057519 4.642088 0.2521024)
(0.4522983 0.2584109 0.4497001)
(0.7024182 0.3068075 0.4988467)
(0.900733 0.3043354 0.4985975)
(1.09998 0.3035609 0.4985416)
(1.299953 0.3033742 0.4984765)
(1.499978 0.3033306 0.4984513)
(1.69999 0.3033208 0.4984504)
(1.899997 0.3033213 0.4984595)
(2.099999 0.3033228 0.4984691)
(0.2586943 0.4517826 0.4503629)
(0.5002029 0.4997892 0.4978239)
(0.6997777 0.4972395 0.4956292)
(0.8996726 0.4947315 0.4943846)
(1.099754 0.4936665 0.4938448)
(1.299852 0.4932947 0.4936269)
(1.499919 0.4931745 0.4935577)
(1.699959 0.4931464 0.4935613)
(1.899982 0.4931522 0.4935962)
(2.099997 0.4931625 0.4936298)
(0.308083 0.7013438 0.5008099)
(0.4985457 0.6995624 0.4964255)
(0.6986893 0.6982766 0.4926247)
(0.8990822 0.6968953 0.4903402)
(1.099438 0.6960696 0.4892977)
(1.299675 0.6956873 0.4888707)
(1.499821 0.6955384 0.4887331)
(1.699907 0.6955042 0.4887398)
(1.899958 0.6955194 0.4888081)
(2.099993 0.6955414 0.4888733)
(0.3066042 0.9003701 0.5016745)
(0.4968334 0.8996267 0.4956753)
(0.6975763 0.8989942 0.4907802)
(0.8984198 0.8982571 0.4875967)
(1.099072 0.8977191 0.4860503)
(1.299472 0.8974275 0.4854044)
(1.49971 0.8973028 0.4851916)
(1.699848 0.8972777 0.4851969)
(1.899932 0.897301 0.4852958)
(2.099989 0.8973307 0.4853923)
(0.3060684 1.099963 0.5018115)
(0.4960945 1.099755 0.4953286)
(0.6969046 1.099431 0.489925)
(0.8979372 1.09905 0.4862392)
(1.098777 1.098742 0.4843476)
(1.299301 1.098555 0.4835345)
(1.499613 1.098472 0.4832608)
(1.699798 1.098462 0.4832638)
(1.89991 1.098492 0.4833869)
(2.099987 1.098526 0.48351)
(0.3059428 1.299961 0.5017889)
(0.4958207 1.299857 0.4951699)
(0.696579 1.299682 0.4895528)
(0.8976648 1.29948 0.4856425)
(1.098588 1.299312 0.4835792)
(1.299184 1.299206 0.4826707)
(1.499547 1.299163 0.4823617)
(1.699764 1.299171 0.4823661)
(1.899897 1.29921 0.4825079)
(2.099988 1.299255 0.4826516)
(0.3059104 1.499981 0.5017713)
(0.4957194 1.499922 0.4951001)
(0.6964336 1.499827 0.4893939)
(0.8975282 1.499722 0.4853891)
(1.098488 1.499636 0.4832521)
(1.299121 1.499588 0.4823041)
(1.499514 1.499581 0.4819856)
(1.699752 1.499613 0.4819999)
(1.899897 1.499672 0.4821599)
(2.099995 1.499743 0.482321)
(0.3058999 1.699991 0.5017646)
(0.4956822 1.69996 0.4950723)
(0.6963752 1.699911 0.4893332)
(0.8974722 1.699861 0.4852974)
(1.09845 1.699826 0.4831431)
(1.299107 1.69982 0.4821979)
(1.499519 1.69985 0.4818991)
(1.699768 1.699919 0.4819416)
(1.899916 1.700025 0.482129)
(2.100011 1.700155 0.4823113)
(0.3058968 1.899996 0.501763)
(0.4956711 1.899981 0.4950661)
(0.6963605 1.899959 0.4893241)
(0.8974665 1.899942 0.4852957)
(1.098463 1.899941 0.4831677)
(1.299142 1.89997 0.4822724)
(1.499571 1.900044 0.482043)
(1.699826 1.900178 0.4821581)
(1.899967 1.900382 0.4824032)
(2.100046 1.900639 0.4826222)
(0.3058968 2.099999 0.5017639)
(0.4956732 2.099993 0.4950734)
(0.6963728 2.099987 0.4893501)
(0.8975003 2.099989 0.4853638)
(1.098528 2.10001 0.4833157)
(1.299239 2.10007 0.4825507)
(1.499693 2.100198 0.4824969)
(1.699952 2.100442 0.4827941)
(1.900072 2.100843 0.4831749)
(2.100113 2.101368 0.4834686)
(0.3058988 2.3 0.5017668)
(0.4956848 2.299999 0.4950914)
(0.696408 2.3 0.4894069)
(0.8975752 2.300011 0.4855048)
(1.098656 2.300043 0.4836198)
(1.299427 2.300121 0.4831398)
(1.49993 2.300304 0.4835017)
(1.7002 2.300709 0.4842481)
(1.900278 2.301497 0.4849471)
(2.100238 2.302591 0.4853857)
(0.3059027 2.500001 0.5017708)
(0.4957058 2.500002 0.4951179)
(0.6964686 2.500005 0.489493)
(0.8976993 2.500013 0.4857249)
(1.098868 2.500035 0.4841224)
(1.299753 2.500096 0.4842016)
(1.500363 2.500269 0.4854781)
(1.700632 2.500787 0.4872055)
(1.900635 2.502242 0.4885014)
(2.100426 2.504484 0.489111)
(0.3059089 2.700001 0.5017756)
(0.4957384 2.700003 0.4951499)
(0.6965587 2.700004 0.4895989)
(0.8978814 2.700001 0.4860048)
(1.099181 2.699987 0.4847972)
(1.300254 2.699946 0.4857594)
(1.50105 2.69982 0.4886601)
(1.7014 2.699929 0.4921655)
(1.901196 2.702571 0.49412)
(2.100577 2.707181 0.4946593)
(0.3059176 2.900002 0.5017806)
(0.4957838 2.900005 0.4951823)
(0.6966831 2.900006 0.4897063)
(0.8981289 2.899995 0.4862874)
(1.099597 2.899941 0.4854803)
(1.300897 2.899755 0.4873269)
(1.502129 2.899272 0.4919242)
(1.652676 2.848942 0.4453043)
(1.851597 2.850669 0.4482521)
(2.050475 2.858179 0.4486986)
(0.3059288 3.100003 0.5017853)
(0.4958435 3.100009 0.4952109)
(0.6968489 3.100017 0.4897974)
(0.898459 3.100018 0.4865132)
(1.100115 3.099976 0.48598)
(1.30148 3.099779 0.4883161)
(1.502682 3.099167 0.4934807)
(1.655095 3.04831 0.4476394)
(1.818074 3.008323 0.412404)
(0.3059424 3.300004 0.5017896)
(0.4959183 3.300014 0.4952346)
(0.6970684 3.300036 0.4898688)
(0.8989327 3.300077 0.4866776)
(1.100935 3.300142 0.4862981)
(1.302437 3.300193 0.48882)
(1.501579 3.299892 0.4939972)
(1.693386 3.298615 0.4983949)
(1.825285 3.251937 0.450303)
(0.3059567 3.500004 0.5017932)
(0.4960005 3.500016 0.4952529)
(0.6973288 3.500046 0.4899252)
(0.8995866 3.500126 0.4868149)
(1.102442 3.500342 0.4866079)
(1.305762 3.500916 0.4894417)
(1.50835 3.502349 0.4951175)
(1.710858 3.515505 0.5029054)
(1.820689 3.449099 0.4507899)
(0.3059674 3.700002 0.5017954)
(0.4960625 3.700007 0.495264)
(0.6975342 3.700023 0.489961)
(0.9001464 3.700066 0.4869101)
(1.103908 3.700191 0.4868571)
(1.309576 3.700524 0.4899989)
(1.518175 3.701301 0.4961523)
(1.731243 3.710819 0.5066746)
(0.3059699 3.899999 0.5017957)
(0.4960751 3.899994 0.4952656)
(0.6975673 3.899979 0.4899659)
(0.900218 3.89994 0.4869202)
(1.104055 3.899832 0.4868743)
(1.309857 3.899536 0.490022)
(1.51858 3.898801 0.4961662)
(1.731482 3.889294 0.506651)
(0.3059639 4.099997 0.5017947)
(0.4960356 4.099984 0.4952601)
(0.697421 4.099951 0.4899443)
(0.8997855 4.099872 0.4868512)
(1.102864 4.099668 0.4866692)
(1.306673 4.099148 0.4895438)
(1.510062 4.097824 0.4952806)
(1.712866 4.08497 0.5028221)
(1.835662 4.052344 0.4582147)
(0.3059535 4.299996 0.5017936)
(0.495971 4.299983 0.4952539)
(0.6972 4.299953 0.4899146)
(0.8992012 4.299899 0.4867554)
(1.101485 4.299814 0.4864149)
(1.303633 4.299728 0.48899)
(1.503846 4.300071 0.4941288)
(1.650356 4.249811 0.4482466)
(1.826402 4.248235 0.4503422)
(0.3059438 4.499997 0.5017947)
(0.4959104 4.499986 0.4952539)
(0.6970011 4.499965 0.4898903)
(0.898728 4.499937 0.4866556)
(1.100579 4.499923 0.4861575)
(1.30231 4.500003 0.4884965)
(1.504049 4.500357 0.4935768)
(1.656378 4.450613 0.4479979)
(1.834596 4.425484 0.4249213)
(1.653869 4.650789 0.4466881)
(1.826857 4.626611 0.424671)
(2.059092 4.639028 0.450095)
(0.4523129 0.2583456 0.6499309)
(0.702579 0.3062032 0.6994327)
(0.9008643 0.3034418 0.6991453)
(1.099973 0.3024978 0.6990261)
(1.299939 0.302267 0.6989764)
(1.499971 0.3022115 0.6989589)
(1.699987 0.3021987 0.6989586)
(1.899995 0.3021994 0.6989653)
(2.099999 0.3022024 0.6989718)
(0.2583957 0.4522692 0.6500037)
(0.4997087 0.49953 0.6991615)
(0.6995406 0.4963895 0.6981775)
(0.8995512 0.4933464 0.6974707)
(1.099676 0.4920055 0.6970983)
(1.299801 0.4915197 0.6969307)
(1.499888 0.4913576 0.696874)
(1.699941 0.4913179 0.6968765)
(1.899974 0.4913245 0.6969048)
(2.099995 0.4913383 0.6969317)
(0.3066721 0.7023453 0.7001275)
(0.4969375 0.6993977 0.6984389)
(0.6979614 0.6976421 0.696666)
(0.898722 0.6957909 0.6952699)
(1.09923 0.6946496 0.6944873)
(1.299548 0.6941085 0.6941307)
(1.499742 0.6938935 0.6940087)
(1.699861 0.6938415 0.6940132)
(1.899934 0.6938607 0.6940737)
(2.099987 0.6938904 0.6941318)
(0.3041531 0.9006946 0.7003605)
(0.4942311 0.8994993 0.6979778)
(0.6962997 0.8985984 0.6955385)
(0.8977434 0.8975372 0.6934361)
(1.098676 0.8967321 0.6921661)
(1.299239 0.8962842 0.6915792)
(1.499569 0.8960921 0.6913774)
(1.699766 0.8960516 0.6913804)
(1.899889 0.8960848 0.6914739)
(2.099978 0.896128 0.6915661)
(0.3033544 1.099961 0.700464)
(0.4930561 1.099664 0.6977287)
(0.6952714 1.099195 0.6949083)
(0.8969928 1.098616 0.6923322)
(1.098197 1.098122 0.6906661)
(1.298962 1.097814 0.6898626)
(1.499412 1.09768 0.6895853)
(1.699681 1.097662 0.689584)
(1.89985 1.097707 0.6897043)
(2.099973 1.09776 0.6898265)
(0.3031562 1.299943 0.7004468)
(0.4926271 1.299801 0.697602)
(0.694773 1.299543 0.6946038)
(0.8965595 1.299234 0.6917996)
(1.097883 1.298963 0.6899151)
(1.298769 1.298788 0.688972)
(1.499301 1.298717 0.6886465)
(1.699623 1.298728 0.6886443)
(1.899826 1.298787 0.6887848)
(2.099974 1.298858 0.6889299)
(0.3031063 1.499972 0.7004296)
(0.4924742 1.49989 0.697541)
(0.6945542 1.499748 0.6944641)
(0.8963465 1.499585 0.6915649)
(1.097719 1.499445 0.6895937)
(1.298665 1.499363 0.6885984)
(1.499246 1.499349 0.6882589)
(1.699601 1.499397 0.688266)
(1.899825 1.499489 0.6884254)
(2.099984 1.499599 0.6885888)
(0.303091 1.699987 0.7004221)
(0.4924205 1.699942 0.6975146)
(0.6944681 1.699868 0.6944081)
(0.8962601 1.699788 0.6914787)
(1.097658 1.699729 0.6894879)
(1.29864 1.699714 0.688493)
(1.499251 1.699756 0.6881734)
(1.699624 1.69986 0.6882096)
(1.899853 1.700023 0.6883968)
(2.100009 1.700224 0.6885816)
(0.3030866 1.899994 0.7004201)
(0.4924045 1.899972 0.6975084)
(0.694446 1.899937 0.6943998)
(0.8962498 1.899907 0.6914792)
(1.097677 1.8999 0.6895171)
(1.298691 1.899938 0.6885755)
(1.499328 1.900043 0.6883291)
(1.69971 1.900241 0.6884407)
(1.899929 1.900549 0.6886863)
(2.100061 1.900941 0.6889073)
(0.303086 2.099998 0.7004216)
(0.492406 2.099989 0.6975162)
(0.6944608 2.099977 0.6944261)
(0.8962969 2.099974 0.6915497)
(1.097772 2.099999 0.689674)
(1.298838 2.10008 0.6888729)
(1.499512 2.100261 0.6888147)
(1.699897 2.100613 0.6891167)
(1.900085 2.101203 0.6894972)
(2.100161 2.101989 0.6897888)
(0.3030876 2.299999 0.7004254)
(0.4924188 2.299997 0.6975346)
(0.6945067 2.299996 0.6944828)
(0.8964037 2.300004 0.6916935)
(1.097965 2.300041 0.6899939)
(1.299127 2.300146 0.6895064)
(1.499859 2.300389 0.6898683)
(1.700234 2.300933 0.6905586)
(1.900358 2.302013 0.6911783)
(2.100327 2.303566 0.6915658)
(0.3030919 2.5 0.7004306)
(0.4924452 2.500001 0.6975608)
(0.6945889 2.500001 0.694566)
(0.8965837 2.500005 0.6919138)
(1.098292 2.500027 0.6905199)
(1.299595 2.500074 0.6905668)
(1.500418 2.500253 0.6916389)
(1.700789 2.500936 0.6929449)
(1.900774 2.502822 0.6938643)
(2.100541 2.505748 0.6943124)
(0.3030999 2.700001 0.7004355)
(0.4924896 2.700002 0.6975897)
(0.694716 2.7 0.6946643)
(0.8968528 2.699988 0.6921837)
(1.098771 2.699953 0.6911867)
(1.30026 2.699857 0.6919182)
(1.501297 2.699771 0.6939079)
(1.701646 2.700101 0.6960252)
(1.901313 2.703093 0.6971564)
(2.100665 2.708365 0.6975102)
(0.3031122 2.900002 0.7004399)
(0.492554 2.900006 0.697618)
(0.6948966 2.900005 0.6947607)
(0.897227 2.899984 0.6924449)
(1.099403 2.899897 0.6918042)
(1.301141 2.899661 0.6931245)
(1.502628 2.899192 0.6959106)
(1.653066 2.84893 0.6476788)
(1.851717 2.850785 0.6492013)
(2.050545 2.858675 0.6495109)
(0.3031276 3.100003 0.7004445)
(0.4926388 3.100012 0.6976439)
(0.6951419 3.100024 0.6948426)
(0.8977415 3.100029 0.6926501)
(1.100241 3.099982 0.6922348)
(1.302133 3.099765 0.6938512)
(1.503582 3.099179 0.6968223)
(1.655558 3.048294 0.6488915)
(1.81809 3.008329 0.6124616)
(0.303146 3.300005 0.7004497)
(0.4927447 3.30002 0.6976667)
(0.6954701 3.300055 0.6949074)
(0.8984943 3.300125 0.6928001)
(1.101623 3.300247 0.6925138)
(1.303924 3.300361 0.6942365)
(1.503586 3.300099 0.6971154)
(1.694202 3.298804 0.6993152)
(1.824985 3.252334 0.6500643)
(0.3031656 3.500005 0.7004544)
(0.492862 3.500022 0.6976849)
(0.6958618 3.50007 0.6949579)
(0.8995356 3.5002 0.6929269)
(1.10407 3.500531 0.6927728)
(1.309158 3.501352 0.69463)
(1.513782 3.503262 0.697662)
(1.716267 3.51901 0.7003932)
(1.820982 3.448242 0.6505985)
(0.3031812 3.700003 0.7004569)
(0.4929529 3.700011 0.6976948)
(0.6961727 3.700034 0.694988)
(0.9004244 3.700104 0.6930139)
(1.10639 3.700291 0.6929699)
(1.314881 3.700757 0.6949619)
(1.527184 3.701802 0.6981827)
(1.740226 3.712981 0.7021118)
(0.3031863 3.899999 0.7004563)
(0.4929749 3.899991 0.6976937)
(0.6962253 3.899967 0.6949882)
(0.9005335 3.899903 0.6930187)
(1.106608 3.899738 0.6929803)
(1.315272 3.899312 0.6949751)
(1.527704 3.8983 0.6981939)
(1.740513 3.887111 0.7021089)
(0.3031795 4.099996 0.7004537)
(0.4929222 4.099977 0.6976844)
(0.696007 4.099925 0.6949632)
(0.8998362 4.099793 0.6929468)
(1.104692 4.099477 0.692813)
(1.310428 4.098727 0.6946854)
(1.51601 4.096947 0.6977398)
(1.718484 4.081468 0.7004461)
(1.836055 4.052026 0.6510604)
(0.3031656 4.299995 0.7004511)
(0.4928314 4.299975 0.6976738)
(0.6956743 4.299928 0.6949301)
(0.8988959 4.299836 0.69285)
(1.102412 4.299678 0.6925958)
(1.305502 4.299508 0.6943373)
(1.505793 4.2998 0.6972647)
(1.651604 4.24973 0.6494694)
(1.826479 4.24805 0.6501679)
(0.3031517 4.499996 0.7004503)
(0.4927436 4.499979 0.6976679)
(0.6953749 4.499946 0.6949004)
(0.8981444 4.499899 0.6927498)
(1.100901 4.49987 0.6923651)
(1.303182 4.499957 0.6939767)
(1.504943 4.500339 0.6969223)
(1.656789 4.450585 0.6491315)
(1.834601 4.425448 0.6249697)
(1.654258 4.650774 0.648456)
(1.826893 4.626587 0.6248598)
(2.059543 4.638578 0.6499702)
(0.452304 0.2583273 0.8499828)
(0.7025524 0.3060804 0.8998342)
(0.9008554 0.3032526 0.8997313)
(1.099964 0.3022717 0.8996819)
(1.299932 0.3020259 0.8996606)
(1.499967 0.3019659 0.8996536)
(1.699985 0.3019519 0.8996533)
(1.899994 0.3019529 0.8996562)
(2.099999 0.3019563 0.8996591)
(0.2583429 0.4522979 0.8499875)
(0.4994897 0.499438 0.8997664)
(0.6993713 0.4961483 0.8994677)
(0.8994558 0.49295 0.8992233)
(1.099622 0.4915179 0.8990792)
(1.29977 0.4909891 0.8990093)
(1.49987 0.4908099 0.8989841)
(1.699931 0.4907657 0.8989838)
(1.899968 0.4907732 0.8989952)
(2.099994 0.4907889 0.8990063)
(0.3061666 0.7025305 0.8999351)
(0.4962985 0.6993196 0.8995571)
(0.697505 0.6973873 0.8990258)
(0.898463 0.6953382 0.8985516)
(1.099091 0.6940544 0.898251)
(1.299469 0.6934392 0.8981013)
(1.499696 0.6931925 0.898046)
(1.699834 0.6931322 0.8980448)
(1.899921 0.6931541 0.8980687)
(2.099984 0.6931881 0.8980924)
(0.3033919 0.9008378 0.8999304)
(0.4931873 0.8994353 0.8994262)
(0.695525 0.8984075 0.898695)
(0.8972763 0.897183 0.8979727)
(1.098415 0.8962402 0.8974706)
(1.299094 0.8957063 0.8972149)
(1.499485 0.8954763 0.8971213)
(1.699717 0.8954265 0.8971175)
(1.899864 0.8954645 0.8971545)
(2.099972 0.8955146 0.8971923)
(0.3024397 1.099961 0.8999309)
(0.4918079 1.099617 0.899354)
(0.6942881 1.099074 0.8984997)
(0.8963589 1.098387 0.8975944)
(1.097828 1.097797 0.8969091)
(1.298747 1.097425 0.8965415)
(1.499288 1.097258 0.8964082)
(1.699609 1.097235 0.8964006)
(1.899813 1.097288 0.896449)
(2.099964 1.097351 0.8964998)
(0.3022096 1.299934 0.8999237)
(0.4913099 1.29977 0.8993102)
(0.6936971 1.299469 0.8983954)
(0.895829 1.299099 0.8973998)
(1.097442 1.298766 0.89661)
(1.2985 1.298546 0.8961701)
(1.499146 1.298454 0.8960111)
(1.699533 1.298465 0.8960016)
(1.89978 1.298538 0.8960583)
(2.099965 1.298623 0.8961187)
(0.3021581 1.499968 0.8999127)
(0.4911455 1.499872 0.8992802)
(0.6934493 1.499704 0.8983392)
(0.895576 1.499507 0.8973105)
(1.097241 1.499335 0.8964843)
(1.298369 1.499231 0.8960208)
(1.499075 1.499211 0.8958552)
(1.699504 1.499268 0.895849)
(1.899777 1.49938 0.8959133)
(2.099977 1.499516 0.8959811)
(0.3021457 1.699985 0.8999051)
(0.491095 1.699932 0.8992621)
(0.6933584 1.699843 0.8983115)
(0.8954772 1.699746 0.8972756)
(1.097168 1.699671 0.8964453)
(1.298337 1.699649 0.8959842)
(1.49908 1.699697 0.8958284)
(1.699531 1.699822 0.8958353)
(1.899811 1.700021 0.8959116)
(2.100008 1.700267 0.895988)
(0.3021424 1.899993 0.8999023)
(0.4910809 1.899967 0.8992565)
(0.6933362 1.899925 0.8983063)
(0.8954662 1.899885 0.8972771)
(1.09719 1.899873 0.8964626)
(1.298399 1.899914 0.8960274)
(1.499173 1.900036 0.8959054)
(1.699636 1.900273 0.8959465)
(1.899905 1.900647 0.8960483)
(2.100072 1.901128 0.8961407)
(0.3021402 2.099997 0.8999047)
(0.4910789 2.099986 0.899263)
(0.6933499 2.099971 0.8983211)
(0.8955191 2.099963 0.8973112)
(1.097303 2.099988 0.8965366)
(1.298578 2.100074 0.8961668)
(1.499394 2.100277 0.8961318)
(1.699858 2.100686 0.8962606)
(1.900091 2.101389 0.8964209)
(2.100191 2.102342 0.8965407)
(0.3021377 2.299998 0.8999103)
(0.4910835 2.299996 0.8992786)
(0.6933938 2.299993 0.8983532)
(0.8956392 2.299998 0.8973792)
(1.097536 2.300031 0.8966857)
(1.298918 2.300121 0.8964613)
(1.4998 2.300384 0.8966174)
(1.700255 2.301025 0.8968955)
(1.900401 2.302295 0.8971319)
(2.100375 2.304113 0.8972779)
(0.3021375 2.5 0.8999163)
(0.4911023 2.5 0.8992965)
(0.693479 2.499999 0.8983951)
(0.8958459 2.499997 0.8974796)
(1.09792 2.499999 0.8969293)
(1.299478 2.500039 0.896929)
(1.500456 2.500287 0.8973316)
(1.700865 2.501098 0.8977863)
(1.900836 2.503174 0.8981006)
(2.100592 2.506402 0.8982573)
(0.3021454 2.700001 0.8999178)
(0.4911499 2.700002 0.8993091)
(0.6936243 2.699998 0.8984377)
(0.8961657 2.69998 0.8975966)
(1.09848 2.69992 0.8972225)
(1.300288 2.699827 0.8974637)
(1.501431 2.699797 0.8981106)
(1.701741 2.7002 0.8987809)
(1.901358 2.703315 0.8991421)
(2.100694 2.708827 0.8992602)
(0.3021608 2.900002 0.8999166)
(0.4912267 2.900006 0.8993176)