/*--------------------------------*- C++ -*----------------------------------*\
  =========                 |
  \\      /  F ield         | OpenFOAM: The Open Source CFD Toolbox
   \\    /   O peration     | Website:  https://openfoam.org
    \\  /    A nd           | Version:  7
     \\/     M anipulation  |
\*---------------------------------------------------------------------------*/
FoamFile
{
    version     2.0;
    format      ascii;
    class       volScalarField;
    location    "0.1";
    object      Cx;
}
// * * * * * * * * * * * * * * * * * * * * * * * * * * * * * * * * * * * * * //

dimensions      [0 1 0 0 0 0 0];

internalField   nonuniform List<scalar> 
78470
(
0.4257394
0.6249925
0.8249667
1.024969
1.224969
1.424969
1.624969
1.824969
2.024969
0.4991115
0.6997088
0.8997339
1.099888
1.299959
1.499986
1.699996
1.900001
2.1
0.499544
0.6995723
0.8995059
1.099783
1.299919
1.499971
1.699991
1.899998
2.100001
0.4995294
0.6995003
0.8993794
1.099715
1.299889
1.499958
1.699986
1.899997
2.100001
0.4994497
0.6994091
0.8993125
1.099676
1.29987
1.499949
1.699982
1.899995
2.100001
0.4994128
0.699363
0.8992781
1.099654
1.299858
1.499943
1.699979
1.899995
2.100001
0.4993994
0.6993443
0.8992627
1.099644
1.299852
1.49994
1.699978
1.899995
2.100002
0.4993947
0.6993372
0.899257
1.099641
1.299852
1.499942
1.699981
1.899998
2.100004
0.4993934
0.6993359
0.8992572
1.099644
1.299858
1.499951
1.699991
1.900006
2.100009
0.499394
0.6993382
0.8992629
1.099655
1.299875
1.499974
1.700015
1.900025
2.10002
0.499396
0.699344
0.8992751
1.099668
1.299877
1.499969
1.700019
1.900043
2.100037
0.4993995
0.6993539
0.8992958
1.099684
1.299681
1.499491
1.699585
1.899916
2.100063
0.4994046
0.699368
0.8993265
1.099726
1.299479
1.497734
1.697966
1.900127
2.100142
0.499411
0.699386
0.8993652
1.0998
1.29954
1.499047
1.645294
1.849341
2.049068
0.4994185
0.6994067
0.8994075
1.099866
1.299489
1.498497
1.645227
1.81711
0.4994268
0.6994304
0.8994553
1.099929
1.29939
1.498132
1.645275
1.818794
0.4994353
0.6994562
0.8995138
1.100044
1.299591
1.498353
1.645202
1.818787
0.4994415
0.6994759
0.8995626
1.100161
1.299873
1.498965
1.645387
1.818787
0.4994427
0.6994791
0.8995697
1.100176
1.299905
1.499014
1.645449
1.818787
0.4994387
0.6994655
0.8995336
1.100087
1.299695
1.498572
1.645335
1.818787
0.4994323
0.6994439
0.8994826
1.099989
1.299542
1.498576
1.645357
1.818789
0.4994262
0.6994229
0.8994347
1.099915
1.299593
1.49868
1.645402
1.818791
1.64499
1.825954
2.024994
0.4516636
0.7013295
0.9003735
1.099974
1.29997
1.499988
1.699995
1.899998
2.100001
0.2590642
0.5001016
0.6996432
0.8996997
1.099822
1.299908
1.499955
1.69998
1.899992
2.1
0.2584687
0.4995305
0.6989442
0.8993227
1.099631
1.299811
1.499907
1.699957
1.899984
2.099998
0.2581532
0.4989123
0.6983814
0.8989856
1.099447
1.299714
1.499857
1.699933
1.899974
2.099998
0.2580871
0.498625
0.698069
0.8987665
1.099313
1.299638
1.499816
1.699913
1.899966
2.099998
0.2580769
0.4985112
0.697918
0.898644
1.09923
1.299587
1.499788
1.699899
1.899961
2.099999
0.2580743
0.4984666
0.6978504
0.8985829
1.099186
1.299561
1.499775
1.699895
1.899962
2.100002
0.2580735
0.4984497
0.6978232
0.8985582
1.09917
1.299556
1.499779
1.699903
1.899971
2.10001
0.2580733
0.4984449
0.697817
0.8985567
1.099178
1.299574
1.499805
1.699933
1.899997
2.100027
0.2580732
0.4984466
0.697824
0.8985742
1.09921
1.299623
1.499868
1.699999
1.900052
2.100061
0.2580733
0.4984533
0.697843
0.8986123
1.099275
1.299719
1.499994
1.700137
1.900168
2.100129
0.2580735
0.4984648
0.6978748
0.898675
1.099382
1.299886
1.500233
1.700425
1.900419
2.100254
0.2580739
0.4984818
0.6979211
0.8987662
1.099542
1.300151
1.500705
1.701002
1.900955
2.100439
0.2580744
0.4985044
0.6979828
0.8988864
1.09975
1.300512
1.501546
1.65173
1.851283
2.050323
0.258075
0.4985331
0.6980614
0.8990368
1.099983
1.300784
1.501922
1.654283
1.818029
0.2580758
0.498568
0.6981618
0.89924
1.100313
1.301082
1.500328
1.650224
1.829195
0.2580767
0.4986056
0.6982784
0.899515
1.100916
1.302364
1.502505
1.648835
1.826226
0.2580774
0.4986337
0.6983698
0.8997507
1.101512
1.303938
1.506921
1.654297
1.829126
0.2580777
0.4986391
0.6983847
0.8997828
1.101579
1.304072
1.507134
1.655714
1.829495
0.2580774
0.4986208
0.6983202
0.899605
1.10111
1.302793
1.503478
1.652293
1.827895
0.2580769
0.4985915
0.6982222
0.899363
1.100574
1.301698
1.502392
1.651531
1.829462
0.2580764
0.4985644
0.6981323
0.8991602
1.100206
1.301236
1.502962
1.655354
1.834677
0.2580766
1.652692
1.826704
2.057519
0.4522983
0.7024182
0.900733
1.09998
1.299953
1.499978
1.69999
1.899997
2.099999
0.2586943
0.5002029
0.6997777
0.8996726
1.099754
1.299852
1.499919
1.699959
1.899982
2.099997
0.308083
0.4985457
0.6986893
0.8990822
1.099438
1.299675
1.499821
1.699907
1.899958
2.099993
0.3066042
0.4968334
0.6975763
0.8984198
1.099072
1.299472
1.49971
1.699848
1.899932
2.099989
0.3060684
0.4960945
0.6969046
0.8979372
1.098777
1.299301
1.499613
1.699798
1.89991
2.099987
0.3059428
0.4958207
0.696579
0.8976648
1.098588
1.299184
1.499547
1.699764
1.899897
2.099988
0.3059104
0.4957194
0.6964336
0.8975282
1.098488
1.299121
1.499514
1.699752
1.899897
2.099995
0.3058999
0.4956822
0.6963752
0.8974722
1.09845
1.299107
1.499519
1.699768
1.899916
2.100011
0.3058968
0.4956711
0.6963605
0.8974665
1.098463
1.299142
1.499571
1.699826
1.899967
2.100046
0.3058968
0.4956732
0.6963728
0.8975003
1.098528
1.299239
1.499693
1.699952
1.900072
2.100113
0.3058988
0.4956848
0.696408
0.8975752
1.098656
1.299427
1.49993
1.7002
1.900278
2.100238
0.3059027
0.4957058
0.6964686
0.8976993
1.098868
1.299753
1.500363
1.700632
1.900635
2.100426
0.3059089
0.4957384
0.6965587
0.8978814
1.099181
1.300254
1.50105
1.7014
1.901196
2.100577
0.3059176
0.4957838
0.6966831
0.8981289
1.099597
1.300897
1.502129
1.652676
1.851597
2.050475
0.3059288
0.4958435
0.6968489
0.898459
1.100115
1.30148
1.502682
1.655095
1.818074
0.3059424
0.4959183
0.6970684
0.8989327
1.100935
1.302437
1.501579
1.693386
1.825285
0.3059567
0.4960005
0.6973288
0.8995866
1.102442
1.305762
1.50835
1.710858
1.820689
0.3059674
0.4960625
0.6975342
0.9001464
1.103908
1.309576
1.518175
1.731243
0.3059699
0.4960751
0.6975673
0.900218
1.104055
1.309857
1.51858
1.731482
0.3059639
0.4960356
0.697421
0.8997855
1.102864
1.306673
1.510062
1.712866
1.835662
0.3059535
0.495971
0.6972
0.8992012
1.101485
1.303633
1.503846
1.650356
1.826402
0.3059438
0.4959104
0.6970011
0.898728
1.100579
1.30231
1.504049
1.656378
1.834596
1.653869
1.826857
2.059092
0.4523129
0.702579
0.9008643
1.099973
1.299939
1.499971
1.699987
1.899995
2.099999
0.2583957
0.4997087
0.6995406
0.8995512
1.099676
1.299801
1.499888
1.699941
1.899974
2.099995
0.3066721
0.4969375
0.6979614
0.898722
1.09923
1.299548
1.499742
1.699861
1.899934
2.099987
0.3041531
0.4942311
0.6962997
0.8977434
1.098676
1.299239
1.499569
1.699766
1.899889
2.099978
0.3033544
0.4930561
0.6952714
0.8969928
1.098197
1.298962
1.499412
1.699681
1.89985
2.099973
0.3031562
0.4926271
0.694773
0.8965595
1.097883
1.298769
1.499301
1.699623
1.899826
2.099974
0.3031063
0.4924742
0.6945542
0.8963465
1.097719
1.298665
1.499246
1.699601
1.899825
2.099984
0.303091
0.4924205
0.6944681
0.8962601
1.097658
1.29864
1.499251
1.699624
1.899853
2.100009
0.3030866
0.4924045
0.694446
0.8962498
1.097677
1.298691
1.499328
1.69971
1.899929
2.100061
0.303086
0.492406
0.6944608
0.8962969
1.097772
1.298838
1.499512
1.699897
1.900085
2.100161
0.3030876
0.4924188
0.6945067
0.8964037
1.097965
1.299127
1.499859
1.700234
1.900358
2.100327
0.3030919
0.4924452
0.6945889
0.8965837
1.098292
1.299595
1.500418
1.700789
1.900774
2.100541
0.3030999
0.4924896
0.694716
0.8968528
1.098771
1.30026
1.501297
1.701646
1.901313
2.100665
0.3031122
0.492554
0.6948966
0.897227
1.099403
1.301141
1.502628
1.653066
1.851717
2.050545
0.3031276
0.4926388
0.6951419
0.8977415
1.100241
1.302133
1.503582
1.655558
1.81809
0.303146
0.4927447
0.6954701
0.8984943
1.101623
1.303924
1.503586
1.694202
1.824985
0.3031656
0.492862
0.6958618
0.8995356
1.10407
1.309158
1.513782
1.716267
1.820982
0.3031812
0.4929529
0.6961727
0.9004244
1.10639
1.314881
1.527184
1.740226
0.3031863
0.4929749
0.6962253
0.9005335
1.106608
1.315272
1.527704
1.740513
0.3031795
0.4929222
0.696007
0.8998362
1.104692
1.310428
1.51601
1.718484
1.836055
0.3031656
0.4928314
0.6956743
0.8988959
1.102412
1.305502
1.505793
1.651604
1.826479
0.3031517
0.4927436
0.6953749
0.8981444
1.100901
1.303182
1.504943
1.656789
1.834601
1.654258
1.826893
2.059543
0.452304
0.7025524
0.9008554
1.099964
1.299932
1.499967
1.699985
1.899994
2.099999
0.2583429
0.4994897
0.6993713
0.8994558
1.099622
1.29977
1.49987
1.699931
1.899968
2.099994
0.3061666
0.4962985
0.697505
0.898463
1.099091
1.299469
1.499696
1.699834
1.899921
2.099984
0.3033919
0.4931873
0.695525
0.8972763
1.098415
1.299094
1.499485
1.699717
1.899864
2.099972
0.3024397
0.4918079
0.6942881
0.8963589
1.097828
1.298747
1.499288
1.699609
1.899813
2.099964
0.3022096
0.4913099
0.6936971
0.895829
1.097442
1.2985
1.499146
1.699533
1.89978
2.099965
0.3021581
0.4911455
0.6934493
0.895576
1.097241
1.298369
1.499075
1.699504
1.899777
2.099977
0.3021457
0.491095
0.6933584
0.8954772
1.097168
1.298337
1.49908
1.699531
1.899811
2.100008
0.3021424
0.4910809
0.6933362
0.8954662
1.09719
1.298399
1.499173
1.699636
1.899905
2.100072
0.3021402
0.4910789
0.6933499
0.8955191
1.097303
1.298578
1.499394
1.699858
1.900091
2.100191
0.3021377
0.4910835
0.6933938
0.8956392
1.097536
1.298918
1.4998
1.700255
1.900401
2.100375
0.3021375
0.4911023
0.693479
0.8958459
1.09792
1.299478
1.500456
1.700865
1.900836
2.100592
0.3021454
0.4911499
0.6936243
0.8961657
1.09848
1.300288
1.501431
1.701741
1.901358
2.100694
0.3021608
0.4912267
0.6938383
0.8966196
1.099239
1.30134
1.502843
1.653221
1.851765
2.050579
0.3021769
0.4913212
0.6941257
0.8972463
1.100278
1.302584
1.50398
1.655733
1.818096
0.3021921
0.4914324
0.6945067
0.8981645
1.102009
1.304867
1.504504
1.69462
1.824994
0.3022101
0.4915599
0.6949658
0.8994338
1.104994
1.310976
1.51585
1.717573
1.821149
0.302229
0.4916693
0.6953387
0.900518
1.107779
1.317489
1.530397
1.742624
0.3022415
0.4917104
0.6954149
0.9006532
1.10803
1.317915
1.530939
1.742914
0.3022421
0.4916682
0.6951716
0.8998031
1.105707
1.312346
1.518116
1.719769
1.836302
0.3022319
0.4915754
0.6947868
0.898654
1.102908
1.30654
1.506626
1.652232
1.826532
0.3022179
0.4914781
0.6944355
0.8977375
1.101035
1.303692
1.505319
1.656991
1.834606
1.654396
1.826906
2.059582
0.4522976
0.7025349
0.9008389
1.09996
1.299933
1.499967
1.699985
1.899994
2.099999
0.2583368
0.4994687
0.6993466
0.899444
1.099618
1.299769
1.49987
1.699931
1.899969
2.099994
0.3061147
0.4962213
0.6974427
0.8984323
1.099079
1.299465
1.499696
1.699834
1.899921
2.099984
0.3033105
0.4930459
0.6954199
0.8972253
1.098396
1.299088
1.499484
1.699717
1.899864
2.099973
0.3023466
0.4916382
0.6941675
0.8963015
1.097808
1.298742
1.499288
1.699609
1.899813
2.099966
0.302132
0.4911764
0.6936034
0.8957861
1.097429
1.298498
1.499147
1.699534
1.899782
2.099967
0.3021117
0.4910791
0.6934027
0.8955572
1.097238
1.298371
1.499078
1.699506
1.899779
2.09998
0.302127
0.4910765
0.6933474
0.895477
1.097173
1.298342
1.499084
1.699534
1.899814
2.100012
0.3021351
0.491078
0.693338
0.8954732
1.097198
1.298406
1.499178
1.699639
1.899908
2.100076
0.3021227
0.4910641
0.6933439
0.8955228
1.097311
1.298585
1.499399
1.699862
1.900094
2.100196
0.3021005
0.4910303
0.6933614
0.8956307
1.097539
1.298925
1.499806
1.700259
1.900404
2.100379
0.3020852
0.4910031
0.6934155
0.8958226
1.097919
1.299484
1.500461
1.700869
1.900839
2.100595
0.3020864
0.4910408
0.6935497
0.8961355
1.098477
1.300295
1.501437
1.701745
1.90136
2.100696
0.3020978
0.4911355
0.6937675
0.8965884
1.099236
1.30135
1.502852
1.653266
1.851781
2.05059
0.3021037
0.4912149
0.6940399
0.8972075
1.100277
1.3026
1.503993
1.655774
1.818098
0.3020955
0.4912687
0.6943826
0.8981096
1.102006
1.304889
1.504526
1.694628
1.824997
0.3020889
0.4913497
0.6948124
0.8993667
1.104988
1.310997
1.515872
1.717581
1.821169
0.3021101
0.4914651
0.6951919
0.900453
1.107766
1.317497
1.530404
1.742626
0.302155
0.491565
0.6953101
0.9006037
1.108009
1.317896
1.530917
1.742903
0.3021949
0.4915993
0.6951205
0.8997729
1.105674
1.312287
1.518036
1.719721
1.836319
0.3022137
0.491558
0.6947733
0.8986377
1.102866
1.306451
1.5065
1.652281
1.826534
0.302216
0.4914813
0.6944389
0.8977303
1.101
1.303614
1.505221
1.656987
1.834607
1.654398
1.826907
2.059585
0.4523098
0.7023549
0.9006966
1.099962
1.299943
1.499972
1.699987
1.899996
2.100001
0.2583467
0.4996272
0.6994511
0.8995127
1.099666
1.2998
1.499888
1.699941
1.899974
2.099997
0.3063509
0.4966343
0.697764
0.8986377
1.099202
1.299541
1.499742
1.699861
1.899935
2.099989
0.3037317
0.493633
0.6959603
0.8976076
1.098634
1.299229
1.499568
1.699766
1.89989
2.09998
0.302863
0.4923155
0.6948778
0.8968442
1.098156
1.298955
1.499413
1.699683
1.899852
2.099976
0.3027496
0.4920625
0.6944795
0.8964573
1.097861
1.298769
1.499306
1.699627
1.89983
2.099979
0.3028348
0.4922242
0.6944284
0.8963147
1.097724
1.298676
1.499255
1.699607
1.89983
2.099991
0.3029809
0.492374
0.6944581
0.8962785
1.097683
1.298658
1.499263
1.699632
1.89986
2.100017
0.3030755
0.492415
0.6944734
0.8962865
1.097708
1.298713
1.499342
1.699719
1.899936
2.100071
0.3029789
0.4923691
0.6944629
0.8963252
1.097803
1.298861
1.499527
1.699907
1.900093
2.100171
0.3028464
0.4922116
0.6944208
0.8963987
1.097987
1.299149
1.499874
1.700245
1.900366
2.100338
0.3028502
0.4920105
0.6943898
0.8965356
1.098302
1.299616
1.500436
1.7008
1.900782
2.10055
0.3028379
0.4920239
0.6944837
0.8967853
1.098776
1.300286
1.50132
1.701659
1.901319
2.100669
0.3027289
0.4922193
0.6946952
0.8971605
1.099414
1.301181
1.502659
1.653225
1.851771
2.050584
0.3027093
0.4922509
0.6948935
0.8976551
1.10026
1.302199
1.503635
1.655711
1.818098
0.3026749
0.4920743
0.6950799
0.8983606
1.101645
1.304019
1.503678
1.694238
1.824991
0.3024986
0.4919674
0.6953659
0.8993676
1.104086
1.309257
1.513882
1.716305
1.821115
0.302524
0.4920828
0.6957019
0.9002649
1.106388
1.314937
1.527234
1.740242
0.302751
0.4923735
0.6959057
0.9004212
1.106576
1.315235
1.527639
1.740471
0.3029072
0.4926696
0.695875
0.8997791
1.104616
1.310245
1.515668
1.718216
1.836252
0.3030584
0.4927919
0.6956623
0.8988735
1.102304
1.305202
1.50518
1.65159
1.826457
0.3031554
0.4927711
0.6954065
0.8981413
1.100807
1.302924
1.5045
1.656612
1.834598
1.65423
1.826895
2.059574
0.4520474
0.7013524
0.9003624
1.09996
1.299973
1.49998
1.699986
1.900001
2.100023
0.2585178
0.5000366
0.6996129
0.8996168
1.099745
1.299855
1.499922
1.699958
1.899984
2.100006
0.3068394
0.4979707
0.6984199
0.8989965
1.099417
1.299673
1.499822
1.699907
1.899958
2.099994
0.3058022
0.4953656
0.6970864
0.8982924
1.099048
1.299472
1.499712
1.69985
1.899933
2.099991
0.304116
0.4941802
0.6963318
0.8978126
1.098764
1.299307
1.499619
1.699801
1.899912
2.09999
0.3051793
0.4944338
0.6962078
0.8976132
1.098603
1.299201
1.499557
1.69977
1.899901
2.099993
0.304774
0.495294
0.6963565
0.8975653
1.09853
1.299148
1.499529
1.69976
1.899902
2.100001
0.3058211
0.4957134
0.6964632
0.8975579
1.098507
1.299138
1.499536
1.699777
1.899923
2.10002
0.305959
0.4957989
0.6964882
0.8975653
1.098525
1.299176
1.499589
1.699836
1.899974
2.100055
0.3058138
0.4957064
0.6964706
0.8975949
1.098591
1.299275
1.499712
1.699963
1.90008
2.100124
0.3047982
0.4953194
0.696379
0.8976406
1.098715
1.299466
1.499953
1.700212
1.900286
2.100249
0.3054052
0.4945634
0.6962326
0.8977117
1.098918
1.299795
1.500391
1.700649
1.900644
2.100435
0.305386
0.4945449
0.6962679
0.8978663
1.099228
1.300309
1.501093
1.701423
1.901205
2.100581
0.3046358
0.4952209
0.6964801
0.898117
1.099658
1.300986
1.502201
1.653045
1.851721
2.050552
0.3045905
0.4951797
0.6965677
0.8984226
1.100204
1.301641
1.502832
1.655481
1.818094
0.3050602
0.4943078
0.696518
0.8988393
1.101053
1.302692
1.501882
1.69353
1.825025
0.3037008
0.4937662
0.6965982
0.8994616
1.10257
1.306052
1.508711
1.711022
1.820842
0.3037441
0.493905
0.6968701
0.9000451
1.10401
1.309782
1.518405
1.731343
0.3051691
0.4946441
0.6971841
0.900183
1.104098
1.309881
1.518534
1.731424
0.3048379
0.4956316
0.6973636
0.8998143
1.102824
1.306424
1.509313
1.711945
1.835604
0.3058868
0.4960292
0.6973077
0.8992516
1.101377
1.303158
1.502159
1.648901
1.825489
0.3060126
0.4960488
0.697132
0.8987781
1.100479
1.301908
1.502947
1.654885
1.83393
1.653742
1.826844
2.059354
0.4515677
0.6522254
0.8492202
1.048873
1.249015
1.449153
1.648821
1.848994
2.049121
0.2588309
0.5000383
0.6995506
0.8996898
1.099825
1.299915
1.499969
1.699975
1.899993
2.100012
0.2575585
0.4992626
0.6988808
0.8993341
1.099643
1.299817
1.499912
1.699959
1.89998
2.099993
0.3069696
0.49774
0.698276
0.8990288
1.099481
1.29973
1.499863
1.699935
1.899973
2.099996
0.3067757
0.4971596
0.6980242
0.8988666
1.099374
1.299665
1.499826
1.699916
1.899967
2.099999
0.306835
0.4977094
0.6980813
0.8988112
1.099314
1.299622
1.499801
1.699904
1.899964
2.100001
0.2557349
0.4986549
0.6981793
0.8987804
1.099276
1.299598
1.49979
1.699901
1.899965
2.100006
0.2561623
0.4988884
0.6981562
0.8987366
1.099253
1.299591
1.499793
1.69991
1.899976
2.100015
0.2564151
0.4989653
0.6981149
0.8987174
1.099255
1.299608
1.49982
1.699939
1.900001
2.100032
0.2562803
0.4988398
0.698151
0.8987546
1.099296
1.299661
1.499884
1.700006
1.900057
2.100067
0.2560073
0.4986624
0.6981914
0.8988214
1.099374
1.299764
1.500015
1.700146
1.900173
2.100135
0.3069488
0.497823
0.6981115
0.8988729
1.099486
1.299939
1.500262
1.70044
1.900423
2.100259
0.306938
0.4976925
0.6980644
0.8989299
1.099645
1.300222
1.500758
1.701033
1.900959
2.10044
0.2557844
0.49843
0.6981237
0.8990253
1.099869
1.30064
1.501668
1.652486
1.851571
2.050484
0.2559047
0.4983316
0.6980991
0.8991536
1.100152
1.301054
1.502274
1.654987
1.818086
0.3066158
0.4971855
0.6980106
0.899349
1.100561
1.30157
1.501156
1.649069
1.825939
0.3064779
0.496762
0.6980912
0.8996549
1.101214
1.302962
1.50359
1.648467
1.820792
0.3066393
0.4970631
0.698335
0.8999396
1.101778
1.304396
1.507664
1.661806
1.837315
0.3068564
0.4978714
0.6985977
0.9000121
1.101758
1.30426
1.507329
1.664171
1.837393
0.2557584
0.4989365
0.698736
0.8998404
1.101186
1.302687
1.502875
1.655248
1.829783
0.2561962
0.4991596
0.6986398
0.8995533
1.100567
1.301368
1.500726
1.646586
1.819985
0.2563704
0.4990682
0.6984418
0.8992945
1.100181
1.300949
1.501905
1.652921
1.830268
0.2563203
1.652976
1.826754
2.058951
0.4263041
0.6242511
0.849994
1.024222
1.224754
1.424811
1.623208
1.824747
2.024333
0.2340843
0.4993532
0.6997281
0.8998218
1.099871
1.299925
1.499994
1.700023
1.899983
2.099901
0.2339048
0.5000678
0.6997702
0.8996048
1.099811
1.299921
1.499973
1.699995
1.89999
2.099976
0.2570832
0.5009136
0.7000067
0.8995819
1.099782
1.299907
1.499963
1.699987
1.899993
2.099994
0.2566868
0.5018443
0.7002318
0.8996223
1.099777
1.299899
1.499956
1.699983
1.899995
2.1
0.2570193
0.502125
0.7003063
0.8996267
1.099768
1.299891
1.499952
1.699981
1.899995
2.100002
0.2572356
0.5016478
0.7001355
0.8995597
1.099743
1.299882
1.499949
1.699981
1.899996
2.100003
0.2338364
0.5004636
0.6998146
0.8994561
1.099712
1.299874
1.499949
1.699984
1.899999
2.100006
0.2346894
0.5002134
0.6996512
0.899407
1.099701
1.299877
1.499957
1.699993
1.900007
2.100011
0.2337494
0.5003915
0.6998069
0.8994597
1.099725
1.299898
1.49998
1.700017
1.900026
2.100021
0.2578365
0.5016305
0.7001257
0.8995678
1.099767
1.299908
1.499979
1.700022
1.900042
2.100038
0.2579947
0.5020682
0.7002688
0.8996342
1.099798
1.29972
1.499507
1.699591
1.899915
2.100063
0.2569333
0.5015733
0.7001318
0.8996241
1.099837
1.299534
1.497771
1.697988
1.90012
2.100138
0.2566574
0.5006185
0.6999157
0.8995948
1.099918
1.299654
1.499166
1.651148
1.851135
2.050256
0.2339468
0.5004887
0.6998093
0.8996157
1.10004
1.299789
1.499042
1.653747
1.818053
0.2569634
0.5003785
0.6998931
0.8997175
1.100213
1.30002
1.4998
1.653837
1.832189
0.2562588
0.5013782
0.7001691
0.8998744
1.100405
1.30041
1.500782
1.654715
1.830439
0.2567587
0.5020425
0.7004286
0.8999886
1.100488
1.300497
1.500545
1.655423
1.830772
0.257033
0.5022657
0.7005171
0.8999943
1.100409
1.300205
1.499577
1.654291
1.830671
0.2573413
0.5020298
0.7004066
0.899897
1.100234
1.299786
1.498651
1.652588
1.830442
0.2341989
0.5010375
0.7001123
0.8997401
1.10007
1.299523
1.498384
1.651872
1.830218
0.2340845
0.5006
0.6998291
0.8995957
1.099961
1.29956
1.498577
1.653266
1.833774
0.2337535
1.651636
1.826603
2.025183
0.3749284
0.3477063
0.3786369
0.233308
0.3473772
0.5750464
0.4502225
0.5509755
0.4508536
0.5529218
0.4487988
0.5494068
0.7750353
0.6488915
0.750896
0.6517715
0.7516521
0.6496589
0.7498536
0.9750305
0.8489332
0.9509706
0.8491823
0.9510324
0.8498993
0.949954
1.175031
1.048976
1.150996
1.048993
1.151006
1.049963
1.149983
1.375031
1.24899
1.351003
1.248986
1.351009
1.249986
1.349994
1.575031
1.448994
1.551004
1.448988
1.55101
1.449995
1.549998
1.775031
1.648995
1.751005
1.648989
1.751011
1.649998
1.75
1.975031
1.848996
1.951006
1.848989
1.95101
1.849999
1.950001
2.048996
2.048989
2.049999
0.3464012
0.3488806
0.2340725
0.3482297
0.2335932
0.348133
0.3491784
0.3493066
0.2335818
0.3480073
0.2335555
0.3479097
0.3492942
0.3492898
0.2335518
0.3478554
0.2335448
0.3478171
0.3492837
0.3492789
0.2335444
0.3478001
0.2335434
0.3477876
0.3492775
0.3492761
0.2335433
0.347783
0.2335431
0.347779
0.3492757
0.3492754
0.233543
0.3477777
0.2335429
0.3477762
0.3492753
0.3492753
0.2335429
0.347776
0.2335429
0.3477754
0.3492753
0.3492752
0.2335429
0.3477753
0.2335429
0.3477753
0.3492752
0.3492752
0.2335429
0.3477753
0.2335429
0.3477754
0.3492752
0.3492752
0.2335429
0.3477756
0.2335429
0.3477759
0.3492752
0.3492753
0.2335429
0.3477762
0.233543
0.3477767
0.3492754
0.3492755
0.233543
0.3477771
0.233543
0.3477779
0.3492756
0.3492757
0.233543
0.3477784
0.2335431
0.3477793
1.951261
1.827846
1.975496
1.851102
1.950573
1.828191
1.978153
0.3492758
0.349276
0.2335431
0.34778
0.2335432
0.3477811
1.818793
1.81804
1.833783
0.3492761
0.3492762
0.2335432
0.3477819
0.2335432
0.3477832
1.818787
1.832046
1.830132
0.3492763
0.3492765
0.2335433
0.3477839
0.2335433
0.3477851
1.818787
1.8301
1.830396
0.3492766
0.3492766
0.2335433
0.3477857
0.2335434
0.3477863
1.818787
1.830463
1.830577
0.3492766
0.3492766
0.2335434
0.3477864
0.2335434
0.3477861
1.818787
1.830578
1.830476
0.3492766
0.3492765
0.2335433
0.3477858
0.2335433
0.3477849
1.818788
1.83042
1.83033
0.3492764
0.3492764
0.2335433
0.3477844
0.2335432
0.3477835
1.8188
1.830713
1.83434
0.3492764
0.3492764
0.2335432
0.3477832
0.2335432
0.3477827
1.814596
1.987816
1.83469
1.81534
1.975655
2.012197
2.026064
0.3492766
0.2335432
0.3477833
0.3788874
0.2341519
0.349357
0.3790233
0.233735
0.3496672
1.950827
1.828242
1.978469
1.851558
1.950821
1.828321
1.978638
1.832052
1.818083
1.830154
1.815345
1.975573
1.834607
1.81546
1.975463
0.3790314
0.2337285
0.3496774
0.3790328
0.2337043
0.3496233
1.950922
1.828322
1.978645
1.851715
1.950904
1.828346
1.978696
1.830085
1.818094
1.830071
1.815454
1.97547
1.834603
1.815478
1.975487
0.3790358
0.2336994
0.3495884
0.3790384
0.2336998
0.3495855
1.950955
1.828346
1.978708
1.851769
1.950944
1.828356
1.978727
1.830068
1.818098
1.830077
1.815475
1.975491
1.834607
1.815483
1.975499
0.379042
0.2336981
0.3495803
0.3790302
0.233701
0.3495733
1.950965
1.828355
1.978728
1.851781
1.950961
1.828358
1.978729
1.830076
1.818098
1.830079
1.815482
1.9755
1.834607
1.815483
1.975501
0.3790267
0.2337
0.3495702
0.3790376
0.2336986
0.3495689
1.950961
1.828358
1.978729
1.851767
1.950965
1.828355
1.978728
1.830079
1.818096
1.830076
1.815483
1.975501
1.834601
1.815476
1.9755
0.3790459
0.2336976
0.349583
0.3790468
0.2337013
0.3496018
1.950945
1.828356
1.978726
1.85172
1.950957
1.828347
1.978708
1.830077
1.81809
1.830069
1.815476
1.975498
1.834397
1.815439
1.975491
0.3790323
0.2337067
0.349635
0.3789669
0.2337271
0.3496508
1.830072
1.818076
1.83009
1.815433
1.975487
1.830563
1.815334
1.975471
0.3789571
0.2337343
0.3496296
0.3772119
0.2341567
0.349323
1.830162
1.818039
1.832079
1.815337
1.975465
1.832015
1.81528
1.975537
0.3778772
0.2333159
0.3474116
0.3480579
0.5752243
0.4486887
0.5496665
0.4501673
0.5511434
0.7768092
0.6498443
0.749806
0.6489917
0.7507092
0.9749
0.849954
0.94998
0.8243176
0.8489584
0.9511444
1.175823
1.050014
1.1499
1.04904
1.150876
1.375482
1.249959
1.350014
1.248804
1.351151
1.549966
1.450037
1.549971
1.575681
1.448923
1.550995
1.775788
1.650075
1.749929
1.649197
1.750915
2.050039
2.049018
0.3483723
0.2337299
0.3485922
0.3466108
0.3492773
0.349193
0.2565873
0.3485762
0.3503328
0.3508722
0.3484683
0.2564698
0.3490192
0.3520804
0.2329353
0.3546329
0.3496872
0.2568169
0.3499951
0.2332808
0.3560993
0.233518
0.3565475
0.3502183
0.2579896
0.3504774
0.2335293
0.3566636
0.2335226
0.3566258
0.3503911
0.2578454
0.3500858
0.2334626
0.3562149
0.230818
0.3547491
0.3494416
0.2340837
0.3492258
0.3516812
0.3504085
0.3507472
0.234072
0.3498875
0.3517182
0.3508296
0.3487047
0.2338191
0.3493359
0.3500464
0.3516406
0.3500641
0.2572367
0.3503877
0.2308181
0.3547425
0.2334623
0.3562069
0.3504793
0.257046
0.3502287
0.2335217
0.3566005
0.2335023
0.3565641
0.3499522
0.2575403
0.3495521
0.2334429
0.3561515
0.2307606
0.3547737
0.3491021
0.2337714
0.3493698
0.3522525
0.3512846
1.950584
1.828207
1.978168
1.849355
1.951299
1.827964
1.98891
2.050857
2.049106
2.025488
0.3498022
0.2565614
0.3489502
0.35247
0.3525099
1.833863
1.817511
1.820669
0.3480323
0.2560125
0.3479774
0.3513695
0.3521138
1.830457
1.833355
1.833505
0.3488416
0.2566206
0.3495438
0.2307345
0.3546515
0.2334344
0.3560873
1.830728
1.833608
1.833556
0.3498912
0.2568418
0.3500846
0.2334949
0.3565388
0.2335278
0.3566727
1.830697
1.833358
1.820268
0.350275
0.2580206
0.3505792
0.2335333
0.3567205
0.2335414
0.356723
1.830525
1.820081
1.81972
0.3506517
0.2581751
0.3507471
0.2335218
0.3565415
0.2330956
0.3558211
1.83017
1.819526
1.820136
0.3504701
0.2338214
0.3495545
0.2308599
0.353498
0.3514064
1.832077
1.832602
1.819276
0.3501142
0.2340504
0.3499263
0.3525262
0.3523196
1.815299
1.975486
1.819584
1.81535
1.987816
2.026043
2.012194
0.3486217
0.3502258
0.2660491
0.2681836
0.2654291
0.2666203
0.2654987
0.2666936
0.2653612
0.2670612
0.2653838
0.2671055
0.2653489
0.2670819
0.2653634
0.2671092
0.2653459
0.2670795
0.2653587
0.2671079
0.2653452
0.267079
0.2653575
0.2671078
0.2653451
0.2670789
0.2653571
0.2671077
0.265345
0.2670788
0.2653571
0.2671077
0.265345
0.2670789
0.265357
0.2671077
0.265345
0.2670789
0.265357
0.2671077
0.265345
0.2670788
0.265357
0.2671077
0.265345
0.2670788
0.2653571
0.2671077
0.265345
0.2670788
0.2653571
0.2671077
0.2653451
0.2670788
0.2653571
0.2671077
1.749667
1.645229
1.776171
1.65108
1.751172
1.651933
1.752421
2.025115
2.050245
2.050856
0.2653451
0.2670788
0.2653572
0.2671077
1.77836
1.645369
1.779639
1.653406
1.781396
1.653174
1.757245
1.818624
1.817869
1.832467
0.2653452
0.2670789
0.2653572
0.2671077
1.779642
1.645192
1.779621
1.652086
1.755435
1.651393
1.754448
1.81879
1.833056
1.832987
0.2653452
0.2670788
0.2653573
0.2671077
1.779621
1.645289
1.779629
1.651474
1.754386
1.652178
1.754865
1.818787
1.832934
1.832934
0.2653453
0.2670789
0.2653574
0.2671077
1.779632
1.645444
1.779638
1.652966
1.755388
1.653383
1.755642
1.818787
1.832954
1.832957
0.2653453
0.2670788
0.2653574
0.2671077
1.779638
1.645406
1.779634
1.653415
1.755657
1.653086
1.755449
1.818787
1.832963
1.83296
0.2653453
0.2670789
0.2653574
0.2671077
1.779631
1.645297
1.779632
1.652478
1.755039
1.652123
1.754872
1.818787
1.832952
1.832945
0.2653452
0.2670788
0.2653573
0.2671077
1.779639
1.645462
1.779675
1.65261
1.755711
1.653601
1.757694
1.818795
1.832998
1.83307
0.2653452
0.2670789
0.2653573
0.2671077
1.779627
1.644987
1.776874
1.654008
1.758405
1.653235
1.779535
1.818528
1.833243
1.832942
0.2653453
0.2670789
0.2653574
0.2671078
1.975015
1.826613
1.974738
2.054322
0.2675855
0.2675248
1.751757
1.652824
1.753012
1.65243
1.752096
1.653548
1.75335
1.781609
1.653114
1.756143
1.654856
1.78178
1.652991
1.755377
1.833087
1.818077
1.833041
1.759341
1.654517
1.779812
1.656167
1.759573
1.655412
1.780126
2.025382
2.024625
1.974777
1.826846
1.974817
0.2675751
0.2675733
1.752375
1.65382
1.7535
1.653019
1.752481
1.654116
1.753612
1.781793
1.65337
1.755451
1.655441
1.781856
1.654073
1.755795
1.833002
1.818089
1.833005
1.833366
1.826425
1.833368
1.759641
1.655694
1.780151
1.656676
1.759714
1.655971
1.780208
2.024636
2.024678
1.974828
1.826891
1.974842
0.2675832
0.2675941
1.752586
1.654204
1.753665
1.653215
1.752619
1.654327
1.753707
1.781863
1.654317
1.755908
1.6557
1.781887
1.654536
1.755974
1.833014
1.818097
1.833016
1.759756
1.656046
1.780213
1.656946
1.759799
1.656164
1.780233
2.024689
2.02471
1.974847
1.826905
1.974855
0.2675757
0.2675937
1.752657
1.654353
1.753724
1.653264
1.752664
1.654387
1.753735
1.781889
1.654602
1.755999
1.655772
1.781895
1.654661
1.756015
1.833019
1.818099
1.83302
1.833373
1.826538
1.833374
1.759817
1.656185
1.780234
1.657023
1.759825
1.656209
1.780237
2.024713
2.024718
1.974857
1.826908
1.974859
0.267557
0.267564
1.781895
1.654664
1.756016
1.655739
1.781889
1.654611
1.756002
1.83302
1.818098
1.83302
1.759811
1.656184
1.780235
1.656858
1.759766
1.656098
1.780215
2.024718
2.024713
1.974859
1.826898
1.974856
0.2675978
0.2676018
1.781888
1.654554
1.755979
1.65558
1.781866
1.65435
1.755919
1.833019
1.818095
1.833018
1.833363
1.826192
1.833048
1.759658
1.655961
1.780202
1.656003
1.7593
1.655624
1.780094
2.02471
2.024689
1.974854
1.82686
1.974845
0.2675996
0.2675976
1.950907
1.828347
1.978697
1.851606
1.950925
1.828325
1.978646
1.78186
1.654138
1.755815
1.655168
1.781805
1.653503
1.755497
1.833013
1.818085
1.83301
1.757907
1.655166
1.780023
1.653474
1.755931
1.654518
1.779749
2.024678
2.024639
1.974839
1.826768
1.974824
0.2675823
0.2675664
1.950825
1.828324
1.978641
1.851304
1.950837
1.828251
1.978473
1.781796
1.653255
1.755476
1.65451
1.781655
1.65361
1.756363
1.833007
1.818068
1.833018
1.755257
1.654161
1.779701
1.652969
1.755885
1.653655
1.779558
2.02463
2.02539
1.974814
1.826655
1.974769
0.2669828
0.2673748
1.975271
1.849968
1.950036
1.848813
1.951187
1.781469
1.654027
1.757813
1.645583
1.778798
1.646472
1.781501
1.833135
1.817906
1.833001
1.757218
1.654934
1.756726
1.648195
1.757716
1.648074