/*--------------------------------*- C++ -*----------------------------------*\
  =========                 |
  \\      /  F ield         | OpenFOAM: The Open Source CFD Toolbox
   \\    /   O peration     | Website:  https://openfoam.org
    \\  /    A nd           | Version:  7
     \\/     M anipulation  |
\*---------------------------------------------------------------------------*/
FoamFile
{
    version     2.0;
    format      ascii;
    class       volScalarField;
    location    "0.1";
    object      Cy;
}
// * * * * * * * * * * * * * * * * * * * * * * * * * * * * * * * * * * * * * //

dimensions      [0 1 0 0 0 0 0];

internalField   nonuniform List<scalar> 
78470
(
0.2330876
0.2335462
0.2335303
0.2335279
0.2335272
0.2335269
0.2335267
0.2335268
0.2335271
0.5015071
0.5024001
0.5023091
0.502179
0.5021263
0.50211
0.5021067
0.5021076
0.502111
0.7003377
0.7005662
0.7005556
0.7004626
0.7004116
0.7003926
0.7003889
0.700391
0.7003929
0.8999327
0.8998627
0.899786
0.8997287
0.8996958
0.8996824
0.8996801
0.8996831
0.8996865
1.099949
1.099896
1.099849
1.099816
1.099796
1.099788
1.099788
1.099791
1.099795
1.299977
1.299951
1.299928
1.299911
1.2999
1.299896
1.299898
1.299902
1.299907
1.499989
1.499977
1.499966
1.499958
1.499954
1.499954
1.499958
1.499965
1.499972
1.699995
1.69999
1.699986
1.699983
1.699984
1.699989
1.699999
1.700012
1.700026
1.899998
1.899996
1.899996
1.899998
1.900005
1.900019
1.900041
1.900072
1.900106
2.1
2.1
2.100003
2.10001
2.100027
2.100057
2.10011
2.100187
2.100273
2.300001
2.300003
2.300009
2.300014
2.30002
2.300062
2.300175
2.300361
2.300572
2.500001
2.500005
2.500013
2.5
2.49978
2.499561
2.499686
2.499999
2.50043
2.700002
2.700005
2.700015
2.699981
2.699444
2.697566
2.698758
2.699039
2.700813
2.900002
2.900005
2.900012
2.899973
2.899423
2.897478
2.844922
2.844687
2.848548
3.100002
3.100004
3.100009
3.099984
3.099729
3.099523
3.048594
3.011323
3.300002
3.300005
3.30001
3.300011
3.299991
3.299938
3.248979
3.212218
3.500002
3.500005
3.500012
3.500031
3.500075
3.500129
3.449044
3.412221
3.700001
3.700002
3.700006
3.700017
3.700045
3.700086
3.649049
3.612223
3.899999
3.899998
3.899995
3.899986
3.899964
3.899928
3.84901
3.812222
4.099998
4.099995
4.099988
4.099971
4.099934
4.099897
4.048988
4.012222
4.299998
4.299995
4.299989
4.299986
4.300004
4.30006
4.249019
4.212223
4.499999
4.499996
4.499989
4.500006
4.500238
4.500362
4.449103
4.412233
4.650893
4.624758
4.621327
0.2587957
0.3084302
0.3070642
0.3065752
0.3064679
0.3064445
0.3064397
0.3064401
0.3064425
0.4507901
0.5002122
0.4989071
0.4975111
0.496938
0.4967423
0.4966809
0.4966681
0.4966737
0.4966801
0.6504389
0.6997241
0.6991028
0.6983968
0.6979882
0.6978004
0.6977286
0.6977132
0.6977218
0.6977332
0.8500225
0.8997823
0.8994708
0.8991263
0.8988853
0.8987532
0.8986971
0.8986867
0.8986982
0.8987125
1.049989
1.099866
1.099703
1.099527
1.099392
1.09931
1.099274
1.09927
1.099284
1.0993
1.249993
1.299926
1.299839
1.299748
1.299675
1.299629
1.299611
1.299616
1.299633
1.299653
1.449994
1.499961
1.499916
1.499869
1.499833
1.499813
1.499811
1.499826
1.499853
1.499885
1.649994
1.699981
1.699958
1.699937
1.699924
1.699923
1.699939
1.699972
1.700022
1.700081
1.849995
1.899992
1.899982
1.899976
1.899979
1.899996
1.900035
1.900103
1.900203
1.900325
2.049995
2.099998
2.099996
2.1
2.100015
2.100051
2.100123
2.100255
2.100465
2.100728
2.249995
2.300001
2.300004
2.300013
2.300037
2.300089
2.300202
2.300441
2.300888
2.301472
2.449995
2.500003
2.500007
2.500018
2.500041
2.50009
2.500211
2.500573
2.501527
2.502876
2.649995
2.700003
2.700007
2.700014
2.700022
2.700023
2.700014
2.700087
2.70206
2.705551
2.849995
2.900004
2.900007
2.900008
2.899993
2.899914
2.8996
2.849311
2.850467
2.857055
3.049995
3.100005
3.10001
3.100012
3.099994
3.099876
3.099384
3.048669
3.008326
3.249995
3.300007
3.300017
3.300035
3.300059
3.300055
3.299808
3.249546
3.252491
3.449995
3.500008
3.500021
3.500054
3.500143
3.500393
3.500981
3.450407
3.450249
3.649995
3.700004
3.70001
3.700029
3.70008
3.70023
3.700582
3.650579
3.649951
3.849995
3.899997
3.899991
3.899975
3.899932
3.899803
3.899488
3.84977
3.850144
4.049995
4.099992
4.099979
4.099946
4.099864
4.099639
4.099161
4.049244
4.050145
4.249995
4.299992
4.29998
4.299957
4.299925
4.299922
4.300196
4.249971
4.247343
4.449995
4.499994
4.499984
4.49997
4.499961
4.499998
4.500218
4.45049
4.425519
4.649995
4.65053
4.626584
4.642088
0.2584109
0.3068075
0.3043354
0.3035609
0.3033742
0.3033306
0.3033208
0.3033213
0.3033228
0.4517826
0.4997892
0.4972395
0.4947315
0.4936665
0.4932947
0.4931745
0.4931464
0.4931522
0.4931625
0.7013438
0.6995624
0.6982766
0.6968953
0.6960696
0.6956873
0.6955384
0.6955042
0.6955194
0.6955414
0.9003701
0.8996267
0.8989942
0.8982571
0.8977191
0.8974275
0.8973028
0.8972777
0.897301
0.8973307
1.099963
1.099755
1.099431
1.09905
1.098742
1.098555
1.098472
1.098462
1.098492
1.098526
1.299961
1.299857
1.299682
1.29948
1.299312
1.299206
1.299163
1.299171
1.29921
1.299255
1.499981
1.499922
1.499827
1.499722
1.499636
1.499588
1.499581
1.499613
1.499672
1.499743
1.699991
1.69996
1.699911
1.699861
1.699826
1.69982
1.69985
1.699919
1.700025
1.700155
1.899996
1.899981
1.899959
1.899942
1.899941
1.89997
1.900044
1.900178
1.900382
1.900639
2.099999
2.099993
2.099987
2.099989
2.10001
2.10007
2.100198
2.100442
2.100843
2.101368
2.3
2.299999
2.3
2.300011
2.300043
2.300121
2.300304
2.300709
2.301497
2.302591
2.500001
2.500002
2.500005
2.500013
2.500035
2.500096
2.500269
2.500787
2.502242
2.504484
2.700001
2.700003
2.700004
2.700001
2.699987
2.699946
2.69982
2.699929
2.702571
2.707181
2.900002
2.900005
2.900006
2.899995
2.899941
2.899755
2.899272
2.848942
2.850669
2.858179
3.100003
3.100009
3.100017
3.100018
3.099976
3.099779
3.099167
3.04831
3.008323
3.300004
3.300014
3.300036
3.300077
3.300142
3.300193
3.299892
3.298615
3.251937
3.500004
3.500016
3.500046
3.500126
3.500342
3.500916
3.502349
3.515505
3.449099
3.700002
3.700007
3.700023
3.700066
3.700191
3.700524
3.701301
3.710819
3.899999
3.899994
3.899979
3.89994
3.899832
3.899536
3.898801
3.889294
4.099997
4.099984
4.099951
4.099872
4.099668
4.099148
4.097824
4.08497
4.052344
4.299996
4.299983
4.299953
4.299899
4.299814
4.299728
4.300071
4.249811
4.248235
4.499997
4.499986
4.499965
4.499937
4.499923
4.500003
4.500357
4.450613
4.425484
4.650789
4.626611
4.639028
0.2583456
0.3062032
0.3034418
0.3024978
0.302267
0.3022115
0.3021987
0.3021994
0.3022024
0.4522692
0.49953
0.4963895
0.4933464
0.4920055
0.4915197
0.4913576
0.4913179
0.4913245
0.4913383
0.7023453
0.6993977
0.6976421
0.6957909
0.6946496
0.6941085
0.6938935
0.6938415
0.6938607
0.6938904
0.9006946
0.8994993
0.8985984
0.8975372
0.8967321
0.8962842
0.8960921
0.8960516
0.8960848
0.896128
1.099961
1.099664
1.099195
1.098616
1.098122
1.097814
1.09768
1.097662
1.097707
1.09776
1.299943
1.299801
1.299543
1.299234
1.298963
1.298788
1.298717
1.298728
1.298787
1.298858
1.499972
1.49989
1.499748
1.499585
1.499445
1.499363
1.499349
1.499397
1.499489
1.499599
1.699987
1.699942
1.699868
1.699788
1.699729
1.699714
1.699756
1.69986
1.700023
1.700224
1.899994
1.899972
1.899937
1.899907
1.8999
1.899938
1.900043
1.900241
1.900549
1.900941
2.099998
2.099989
2.099977
2.099974
2.099999
2.10008
2.100261
2.100613
2.101203
2.101989
2.299999
2.299997
2.299996
2.300004
2.300041
2.300146
2.300389
2.300933
2.302013
2.303566
2.5
2.500001
2.500001
2.500005
2.500027
2.500074
2.500253
2.500936
2.502822
2.505748
2.700001
2.700002
2.7
2.699988
2.699953
2.699857
2.699771
2.700101
2.703093
2.708365
2.900002
2.900006
2.900005
2.899984
2.899897
2.899661
2.899192
2.84893
2.850785
2.858675
3.100003
3.100012
3.100024
3.100029
3.099982
3.099765
3.099179
3.048294
3.008329
3.300005
3.30002
3.300055
3.300125
3.300247
3.300361
3.300099
3.298804
3.252334
3.500005
3.500022
3.50007
3.5002
3.500531
3.501352
3.503262
3.51901
3.448242
3.700003
3.700011
3.700034
3.700104
3.700291
3.700757
3.701802
3.712981
3.899999
3.899991
3.899967
3.899903
3.899738
3.899312
3.8983
3.887111
4.099996
4.099977
4.099925
4.099793
4.099477
4.098727
4.096947
4.081468
4.052026
4.299995
4.299975
4.299928
4.299836
4.299678
4.299508
4.2998
4.24973
4.24805
4.499996
4.499979
4.499946
4.499899
4.49987
4.499957
4.500339
4.450585
4.425448
4.650774
4.626587
4.638578
0.2583273
0.3060804
0.3032526
0.3022717
0.3020259
0.3019659
0.3019519
0.3019529
0.3019563
0.4522979
0.499438
0.4961483
0.49295
0.4915179
0.4909891
0.4908099
0.4907657
0.4907732
0.4907889
0.7025305
0.6993196
0.6973873
0.6953382
0.6940544
0.6934392
0.6931925
0.6931322
0.6931541
0.6931881
0.9008378
0.8994353
0.8984075
0.897183
0.8962402
0.8957063
0.8954763
0.8954265
0.8954645
0.8955146
1.099961
1.099617
1.099074
1.098387
1.097797
1.097425
1.097258
1.097235
1.097288
1.097351
1.299934
1.29977
1.299469
1.299099
1.298766
1.298546
1.298454
1.298465
1.298538
1.298623
1.499968
1.499872
1.499704
1.499507
1.499335
1.499231
1.499211
1.499268
1.49938
1.499516
1.699985
1.699932
1.699843
1.699746
1.699671
1.699649
1.699697
1.699822
1.700021
1.700267
1.899993
1.899967
1.899925
1.899885
1.899873
1.899914
1.900036
1.900273
1.900647
1.901128
2.099997
2.099986
2.099971
2.099963
2.099988
2.100074
2.100277
2.100686
2.101389
2.102342
2.299998
2.299996
2.299993
2.299998
2.300031
2.300121
2.300384
2.301025
2.302295
2.304113
2.5
2.5
2.499999
2.499997
2.499999
2.500039
2.500287
2.501098
2.503174
2.506402
2.700001
2.700002
2.699998
2.69998
2.69992
2.699827
2.699797
2.7002
2.703315
2.708827
2.900002
2.900006
2.900005
2.899981
2.899878
2.899638
2.899189
2.848966
2.850842
2.858855
3.100003
3.100014
3.10003
3.100039
3.099993
3.099776
3.099193
3.048312
3.008331
3.300005
3.300025
3.300067
3.300157
3.300312
3.300449
3.300213
3.298861
3.252426
3.500006
3.500027
3.500083
3.500245
3.500638
3.501529
3.503546
3.519431
3.44844
3.700004
3.700013
3.700039
3.700126
3.700342
3.700852
3.701968
3.713314
3.9
3.899989
3.899959
3.899879
3.899685
3.899213
3.898122
3.886755
4.099996
4.099972
4.099909
4.099744
4.099367
4.098546
4.096654
4.081066
4.051299
4.299995
4.29997
4.299912
4.299795
4.299597
4.299404
4.299702
4.249626
4.247929
4.499995
4.499975
4.499933
4.499873
4.499831
4.499918
4.50031
4.450559
4.425444
4.650747
4.626576
4.638484
0.258328
0.3061612
0.303385
0.3024313
0.302196
0.3021386
0.3021253
0.3021269
0.3021306
0.452302
0.4994805
0.4962823
0.4931702
0.4917851
0.4912767
0.4911051
0.4910637
0.4910728
0.491089
0.7025684
0.6993615
0.6974943
0.6955111
0.6942697
0.6936762
0.6934389
0.6933825
0.6934063
0.6934414
0.9008857
0.8994594
0.8984634
0.8972756
0.8963609
0.8958429
0.8956207
0.8955743
0.8956137
0.8956642
1.099963
1.099626
1.099096
1.098426
1.097852
1.097489
1.097328
1.097307
1.09736
1.097424
1.299889
1.29977
1.299473
1.299112
1.298787
1.298572
1.298484
1.298496
1.298569
1.298654
1.499916
1.499869
1.499703
1.49951
1.499343
1.499242
1.499223
1.49928
1.499392
1.499527
1.699956
1.699931
1.699842
1.699746
1.699674
1.699653
1.699701
1.699826
1.700024
1.70027
1.899993
1.899967
1.899925
1.899886
1.899874
1.899915
1.900036
1.900272
1.900644
1.901124
2.100026
2.099988
2.099972
2.099964
2.099987
2.100073
2.100275
2.100682
2.101383
2.102334
2.300043
2.3
2.299996
2.299999
2.30003
2.30012
2.300381
2.30102
2.302286
2.304101
2.500021
2.500002
2.500001
2.499998
2.499998
2.500037
2.500283
2.501091
2.503165
2.50639
2.699985
2.699998
2.699996
2.69998
2.699919
2.699825
2.699794
2.700196
2.703311
2.70882
2.899985
2.900003
2.900004
2.899981
2.899877
2.899636
2.899187
2.84899
2.850859
2.858889
3.100026
3.100016
3.100032
3.10004
3.099993
3.099775
3.099192
3.048323
3.008332
3.300052
3.300029
3.300071
3.300158
3.300312
3.300447
3.30021
3.298858
3.252439
3.500032
3.500029
3.500085
3.500245
3.500636
3.501525
3.50354
3.519425
3.448475
3.699981
3.700012
3.700037
3.700123
3.700339
3.700847
3.70196
3.713302
3.899946
3.899985
3.899954
3.899875
3.899681
3.899207
3.898113
3.886743
4.099945
4.099968
4.099904
4.09974
4.099364
4.098541
4.096647
4.081066
4.051209
4.299966
4.299968
4.29991
4.299793
4.299596
4.299403
4.299704
4.249612
4.2479
4.499988
4.499974
4.499933
4.499873
4.499832
4.49992
4.500311
4.450559
4.425443
4.650744
4.626572
4.638473
0.2583521
0.3066824
0.3041672
0.3033716
0.3031778
0.3031309
0.3031205
0.303124
0.3031283
0.4522995
0.4997069
0.4969544
0.494265
0.4930993
0.4926825
0.4925441
0.4925134
0.4925271
0.4925448
0.7027973
0.69954
0.6979876
0.6963436
0.6953299
0.6948527
0.6946656
0.6946253
0.6946524
0.6946876
0.9012768
0.8995797
0.8987528
0.897785
0.8970515
0.8966454
0.8964745
0.8964436
0.8964825
0.896529
1.099968
1.099685
1.099246
1.098707
1.098249
1.097965
1.097843
1.097832
1.097879
1.097934
1.299372
1.299781
1.299545
1.299261
1.29901
1.298848
1.298783
1.298797
1.298858
1.298928
1.499386
1.499867
1.499739
1.49959
1.499461
1.499386
1.499374
1.499423
1.499515
1.499625
1.699735
1.699934
1.699863
1.699789
1.699734
1.699722
1.699764
1.699867
1.700029
1.700228
1.899994
1.899972
1.899938
1.899907
1.899901
1.899939
1.900042
1.900238
1.900542
1.90093
2.100251
2.099998
2.099983
2.099976
2.099999
2.100077
2.100254
2.100601
2.101183
2.101962
2.30056
2.300019
2.300008
2.300008
2.30004
2.30014
2.300379
2.300913
2.301983
2.303525
2.500323
2.500017
2.500009
2.500007
2.500025
2.500068
2.50024
2.500915
2.502788
2.505701
2.699693
2.699982
2.699992
2.699986
2.699951
2.699851
2.699761
2.700086
2.703073
2.708336
2.89969
2.899988
2.899998
2.899983
2.899895
2.899656
2.899185
2.848996
2.850845
2.858818
3.100333
3.100027
3.100034
3.100033
3.099982
3.099762
3.099174
3.048323
3.008332
3.300581
3.300049
3.300071
3.300131
3.300247
3.300357
3.300094
3.298794
3.252391
3.500258
3.500035
3.500076
3.5002
3.500526
3.501342
3.503244
3.518988
3.448347
3.699761
3.700004
3.700026
3.700097
3.700281
3.700742
3.701778
3.712944
3.899403
3.899964
3.899948
3.899891
3.899727
3.899296
3.898276
3.887078
4.099412
4.099953
4.099908
4.099784
4.099468
4.09871
4.096914
4.081492
4.05137
4.299743
4.299966
4.29992
4.299832
4.299677
4.299507
4.299808
4.249698
4.248008
4.499973
4.499977
4.499944
4.4999
4.499875
4.49997
4.500363
4.450592
4.425439
4.650767
4.626575
4.638511
0.2585471
0.308141
0.3066667
0.3061324
0.3060308
0.3060079
0.305994
0.3060097
0.3060106
0.4520753
0.5002068
0.4986334
0.4969473
0.4962328
0.4959975
0.4959144
0.4959005
0.4959335
0.4959597
0.7035572
0.6997954
0.6987746
0.6976951
0.6970503
0.6967622
0.6966548
0.6966385
0.6966743
0.696719
0.9026559
0.8997812
0.8991537
0.8985022
0.8980423
0.8978018
0.8977045
0.8976937
0.8977297
0.8977718
1.099988
1.09977
1.099461
1.099115
1.098842
1.098681
1.098613
1.098611
1.098647
1.098686
1.297736
1.299756
1.299655
1.29949
1.299342
1.29925
1.299214
1.299226
1.299267
1.299313
1.497626
1.499839
1.4998
1.499721
1.499646
1.499603
1.499599
1.499632
1.499691
1.499762
1.699669
1.699935
1.699901
1.69986
1.699829
1.699825
1.699854
1.699922
1.700027
1.700154
1.899993
1.899981
1.899959
1.899942
1.899941
1.89997
1.90004
1.90017
1.900369
1.90062
2.100325
2.100018
2.099995
2.099989
2.100008
2.100065
2.100188
2.100422
2.100812
2.101325
2.302337
2.300076
2.300024
2.300015
2.30004
2.300113
2.300286
2.300676
2.301441
2.302511
2.501828
2.500079
2.500026
2.500017
2.500032
2.500086
2.500246
2.500743
2.502162
2.504368
2.698146
2.699912
2.699983
2.699998
2.699983
2.699937
2.6998
2.699895
2.702509
2.707083
2.897969
2.899939
2.89999
2.899993
2.89994
2.89975
2.899259
2.84901
2.850784
2.85852
3.10203
3.10007
3.100039
3.100024
3.099978
3.099778
3.099161
3.048331
3.008332
3.302256
3.300129
3.300073
3.300086
3.300143
3.300192
3.299892
3.298598
3.252215
3.500419
3.500048
3.500056
3.500125
3.500336
3.500903
3.502323
3.515467
3.448424
3.699629
3.699988
3.700008
3.700056
3.700179
3.700502
3.701265
3.710763
3.897752
3.899889
3.899939
3.899925
3.899819
3.899513
3.898764
3.889252
4.097651
4.099905
4.099921
4.099861
4.099657
4.099119
4.097715
4.084947
4.05204
4.299671
4.299961
4.299945
4.299899
4.299815
4.299725
4.300069
4.249859
4.250467
4.49997
4.499981
4.499967
4.499944
4.499936
4.500036
4.500481
4.450737
4.425363
4.650811
4.626579
4.638777
0.2589906
0.25789
0.2565649
0.2562941
0.2563672
0.256343
0.2563071
0.2563705
0.256329
0.451589
0.50041
0.4998844
0.4992589
0.4989726
0.4990292
0.4989863
0.4989438
0.4990583
0.4991345
0.6531142
0.6996959
0.6991271
0.6986033
0.6983203
0.6982297
0.6982063
0.6982051
0.6982513
0.6983382
0.9006659
0.8998601
0.899405
0.8990897
0.8988948
0.8988044
0.8987744
0.8987775
0.8988086
0.8988526
1.100029
1.099833
1.099651
1.099489
1.099372
1.099308
1.099284
1.099288
1.09931
1.099335
1.299558
1.299786
1.299797
1.299729
1.299665
1.299627
1.299614
1.299621
1.299641
1.299664
1.446579
1.49989
1.499901
1.499866
1.499832
1.499813
1.499813
1.499828
1.499855
1.499887
1.648469
1.699941
1.699959
1.69994
1.699925
1.699923
1.699938
1.69997
1.700018
1.700075
1.848986
1.899997
1.899983
1.899976
1.899978
1.899994
1.900031
1.900094
1.900189
1.900305
2.049143
2.100029
2.099991
2.099995
2.100011
2.100046
2.100113
2.100235
2.100429
2.100677
2.250025
2.300066
2.300011
2.30001
2.300032
2.300081
2.300183
2.300399
2.300808
2.301355
2.500275
2.500114
2.500026
2.50002
2.500038
2.50008
2.500183
2.500504
2.501379
2.502646
2.69953
2.699884
2.699999
2.700015
2.70002
2.700013
2.699985
2.700014
2.701873
2.705208
2.846449
2.899939
2.900001
2.90001
2.899994
2.89991
2.899581
2.849154
2.850629
2.857757
3.049651
3.100063
3.10003
3.100018
3.099997
3.099881
3.09939
3.048463
3.008329
3.300567
3.300157
3.300039
3.300037
3.300061
3.300065
3.299836
3.249501
3.251355
3.500267
3.500016
3.500013
3.500047
3.500137
3.500384
3.500962
3.451008
3.449975
3.69988
3.699984
3.699994
3.700018
3.700069
3.700204
3.700526
3.651427
3.656733
3.89958
3.899868
3.899961
3.899966
3.899922
3.899781
3.899444
3.849621
3.846999
4.046587
4.099928
4.099967
4.099945
4.099858
4.099615
4.099056
4.04821
4.044606
4.24847
4.299971
4.299989
4.299966
4.29993
4.299919
4.300162
4.249832
4.246192
4.448982
4.499997
4.499998
4.499985
4.49998
4.500039
4.500379
4.450896
4.429749
4.648976
4.650792
4.626593
4.639853
0.2351709
0.2339408
0.2577607
0.2335915
0.2340546
0.2338766
0.2338842
0.2340613
0.2338204
0.4260208
0.4998578
0.5002804
0.5004444
0.5000935
0.5006085
0.5006546
0.5003763
0.5006611
0.5009453
0.6251151
0.6997489
0.6997796
0.6997739
0.6997021
0.6997324
0.6997678
0.6997653
0.6998073
0.6999608
0.8519446
0.8996086
0.8995351
0.8994666
0.8994231
0.8994166
0.8994237
0.8994299
0.8994526
0.8995012
1.049067
1.099842
1.099784
1.09974
1.099713
1.099702
1.099701
1.099705
1.099716
1.099732
1.248576
1.299973
1.299931
1.299901
1.299883
1.299874
1.299872
1.299875
1.299881
1.299889
1.447137
1.500124
1.500016
1.499973
1.499955
1.499948
1.499948
1.499952
1.499959
1.499966
1.623044
1.70009
1.700028
1.699996
1.699985
1.699983
1.699987
1.699996
1.700008
1.700021
1.82484
1.900017
1.899996
1.899995
1.899998
1.900004
1.900016
1.900036
1.900062
1.900092
2.024343
2.09988
2.099958
2.09999
2.100006
2.100024
2.100051
2.100095
2.100157
2.10023
2.250896
2.299861
2.299959
2.299995
2.300009
2.300015
2.300049
2.300138
2.30028
2.300447
2.451613
2.500004
2.500005
2.500012
2.499998
2.499773
2.499537
2.499611
2.499805
2.500108
2.648556
2.700113
2.700038
2.700025
2.699983
2.699438
2.697539
2.698659
2.698641
2.699954
2.846773
2.90008
2.900033
2.900022
2.899977
2.899425
2.897464
2.849765
2.850503
2.855109
3.024929
3.099996
3.100005
3.100011
3.099988
3.09975
3.099625
3.049317
3.008355
3.251561
3.299939
3.299982
3.300003
3.300014
3.300027
3.300158
3.249831
3.225701
3.449259
3.49988
3.499966
3.499999
3.500026
3.50007
3.500121
3.450155
3.424553
3.648992
3.699981
3.699988
3.699998
3.700007
3.700003
3.699858
3.650159
3.624717
3.848579
3.900006
3.9
3.899994
3.899981
3.899939
3.899825
3.849978
3.824577
4.047183
4.10009
4.100027
4.099998
4.099972
4.099925
4.09988
4.049822
4.024448
4.223201
4.300114
4.300035
4.300005
4.299993
4.300005
4.300051
4.250028
4.224459
4.424729
4.500035
4.500021
4.500006
4.500022
4.500259
4.500407
4.450437
4.423644
4.624176
4.650218
4.626448
4.628082
0.2308317
0.3515784
0.23376
0.3775673
0.3492921
0.2335194
0.35292
0.3561589
0.2587171
0.2576106
0.3510148
0.3510346
0.2335347
0.3566471
0.3567721
0.2582302
0.2572091
0.3508553
0.3504567
0.2335282
0.3567458
0.356724
0.2569666
0.2568336
0.3502495
0.3500969
0.2335274
0.3567129
0.3567044
0.256808
0.2567933
0.3500456
0.3500107
0.2335269
0.3567021
0.3567002
0.2567903
0.2567889
0.3500011
0.3499928
0.2335268
0.3566999
0.3566996
0.2567883
0.2567882
0.3499911
0.3499891
0.2335268
0.3566997
0.3567
0.2567881
0.2567883
0.3499894
0.3499897
0.233527
0.3567001
0.3566999
0.2567884
0.2567882
0.3499905
0.3499914
0.3566991
0.2567877
0.3499923
0.4516105
0.5515376
0.4260307
0.4497046
0.5755812
0.5498789
0.6491889
0.7509832
0.6245088
0.6499626
0.7755502
0.7499411
0.8490179
0.9509681
0.824471
0.8499973
0.9755354
0.9499565
1.049016
1.150974
1.024463
1.050013
1.175536
1.149965
1.24902
1.350977
1.224464
1.250021
1.375536
1.349969
1.449022
1.550977
1.424464
1.450025
1.575536
1.549971
1.649022
1.750978
1.624464
1.650026
1.775536
1.749972
1.849022
1.950978
1.824464
1.850027
1.975536
1.949972
2.049022
2.150978
2.024464
2.050028
2.175536
2.149972
2.249022
2.350978
2.224464
2.250028
2.375536
2.349973
2.449022
2.550978
2.424464
2.450028
2.575536
2.549973
2.649022
2.750978
2.624464
2.650027
2.775536
2.749973
2.849022
2.950978
2.824464
2.850027
2.975536
2.949973
2.846736
2.974282
2.977226
2.85075
2.853672
2.972347
2.978357
3.049022
3.150978
3.024464
3.050027
3.175536
3.149973
3.18777
3.008364
3.176582
3.249022
3.350978
3.224464
3.250027
3.375536
3.349973
3.387777
3.22573
3.375575
3.449022
3.550978
3.424464
3.450027
3.575536
3.549974
3.587779
3.424573
3.575569
3.649022
3.750978
3.624464
3.650027
3.775536
3.749974
3.787778
3.624695
3.775461
3.849022
3.950978
3.824464
3.850026
3.975536
3.949973
3.987777
3.824566
3.975349
4.049022
4.150978
4.024464
4.050026
4.175536
4.149973
4.187779
4.024482
4.174952
4.249022
4.350978
4.224464
4.250026
4.375536
4.349973
4.387784
4.223526
4.375067
4.449022
4.550978
4.424464
4.450027
4.575536
4.549973
4.587589
4.583521
4.425497
4.590215
4.587005
4.583571
4.589645
4.649023
4.624464
4.650027
0.2337642
0.3771464
0.3495974
0.2337093
0.3789566
0.3496206
2.853942
2.972267
2.978459
2.850677
2.854408
2.972255
2.978574
3.173816
3.00833
3.170504
4.590269
4.586915
4.425513
4.590294
4.586793
0.233704
0.3789662
0.3495987
0.2336993
0.3790177
0.3495932
2.854516
2.972248
2.978576
2.850794
2.854707
2.972258
2.9786
3.17053
3.008332
3.170594
4.590303
4.586785
4.425455
4.590291
4.58678
0.2337007
0.3790255
0.3495873
0.2336934
0.379031
0.3495582
2.854743
2.972255
2.978602
2.850847
2.854826
2.97226
2.978611
3.170606
3.008332
3.170622
4.590295
4.586779
4.425445
4.590289
4.586777
0.233695
0.3790245
0.3495449
0.2336908
0.3790328
0.3495411
2.854834
2.972259
2.978611
2.85086
2.854856
2.972261
2.978612
3.170625
3.008332
3.170627
4.590291
4.586777
4.425444
4.590289
4.586777
0.2336919
0.3790372
0.3495475
0.2336946
0.3790313
0.3495627
2.854855
2.972261
2.978612
2.85084
2.854832
2.972259
2.978611
3.170627
3.008331
3.170625
4.590289
4.586777
4.42544
4.590291
4.586777
0.2336964
0.3790219
0.3495662
0.2337055
0.3789943
0.3495857
2.854824
2.97226
2.978611
2.85078
2.854737
2.972255
2.978602
3.170622
3.008328
3.170605
4.590289
4.586778
4.425442
4.590287
4.58678
0.233706
0.378998
0.3496219
0.233734
0.3789871
0.349699
3.170592
3.008322
3.170528
4.59028
4.58678
4.429188
4.590273
4.586787
0.233749
0.3789814
0.3497517
0.2343992
0.3771497
0.3496464
3.1705
3.00832
3.1738
4.590263
4.586795
4.426432
4.59025
4.586837
0.2337652
0.3775585
0.3483219
0.3486878
0.2344243
0.3511195
0.3507223
0.3489874
0.3509125
0.2338942
0.3491568
0.3492615
0.3500794
0.3511578
0.2336719
0.3494741
0.3490966
0.2303176
0.3527172
0.3511504
0.233758
0.3483893
0.3487139
0.3499061
0.350323
0.2340847
0.3499789
0.3502312
0.3523764
0.3526949
0.257826
0.3498264
0.3496358
0.230331
0.3520514
0.352934
0.2337792
0.3492433
0.3489822
0.3513101
0.3506439
0.34955
0.3513933
0.4491366
0.5759271
0.5495014
0.4504773
0.5509812
0.6497353
0.7528706
0.7499843
0.6488783
0.7508631
0.8498938
0.9516554
0.9499414
0.848838
0.9756857
0.9508649
1.049963
1.150983
1.149989
1.025059
1.048953
1.175032
1.150998
1.249993
1.348384
1.350031
1.224961
1.248995
1.374987
1.351015
1.450027
1.549103
1.549912
1.424922
1.449031
1.574848
1.551117
1.650053
1.775853
1.749843
1.649219
1.750908
1.849873
1.975164
1.950195
1.848844
1.951184
2.050065
2.176953
2.149931
2.049024
2.150774
2.250083
2.352862
2.349968
2.225151
2.248881
2.375078
2.350968
2.449964
2.551381
2.549996
2.425013
2.448982
2.575035
2.551004
2.650005
2.748097
2.750046
2.624948
2.649018
2.775187
2.751111
2.849938
2.975283
2.949973
2.849128
2.951012
2.853119
2.972325
2.978276
2.84431
2.845693
2.974186
2.990058
2.952173
2.846692
2.976777
3.050002
3.152553
3.150083
3.048814
3.151109
3.176552
3.011451
3.188177
3.249972
3.351722
3.349994
3.249013
3.350898
3.37555
3.22542
3.375836
3.44997
3.551059
3.55
3.424785
3.448897
3.575044
3.550986
3.575585
3.424373
3.57565
3.649999
3.75098
3.750005
3.624972
3.648994
3.775031
3.751006
3.775475
3.624224
3.787717
3.850005
3.948389
3.950039
3.82496
3.849
3.974989
3.951017
3.975317
3.812325
3.987724
4.05003
4.149322
4.149889
4.024933
4.049018
4.174109
4.151043
4.175453
4.012375
4.188258
4.250076
4.375666
4.349964
4.224788
4.249266
4.350983
4.3744
4.225343
4.3878
4.449963
4.575246
4.55003
4.448813
4.551188
4.590203
4.586733
4.412324
4.587707
4.583078
4.589056
4.583071
4.650085
4.649116
0.2675419
0.2694811
0.4748825
0.424591
0.4246782
0.4757285
0.6749927
0.6243832
0.624981
0.6754561
0.8749978
0.8243665
0.8249942
0.8754535
1.074999
1.024369
1.024997
1.075455
1.274999
1.22437
1.224997
1.275455
1.475
1.42437
1.424998
1.475455
1.675
1.62437
1.624998
1.675455
1.875
1.82437
1.824998
1.875455
2.075
2.02437
2.024998
2.075455
2.275
2.22437
2.224998
2.275455
2.475
2.42437
2.424998
2.475455
2.675
2.62437
2.624998
2.675455
2.875
2.82437
2.824998
2.875455
2.844619
2.949001
2.973916
2.849818
2.849809
2.949469
2.948531
2.978032
2.85612
2.95278
3.075
3.02437
3.024998
3.075455
3.02417
3.150839
3.174966
3.049352
3.022283
3.14944
3.149253
3.087684
3.008947
3.073872
3.275
3.22437
3.224998
3.275455
3.224974
3.350981
3.375006
3.249832
3.249832
3.349979
3.35002
3.287776
3.224929
3.274967
3.475
3.42437
3.424998
3.475455
3.424991
3.551014
3.575013
3.450173
3.450078
3.550197
3.550127
3.487778
3.42499
3.475006
3.675
3.62437
3.624998
3.675455
3.624996
3.750994
3.77501
3.65022
3.650137
3.750056
3.750056
3.687779
3.62502
3.675022
3.875
3.82437
3.824998
3.875455
3.824991
3.950955
3.975005
3.84997
3.849969
3.949806
3.949888
3.887777
3.824997
3.874994
4.075
4.02437
4.024998
4.075455
4.024989
4.150959
4.175009
4.049825
4.049888
4.149855
4.149914
4.087778
4.024992
4.075005
4.275
4.22437
4.224998
4.275455
4.224993
4.351015
4.375028
4.250055
4.250012
4.350156
4.350239
4.287779
4.22501
4.275009
4.475
4.42437
4.424998
4.475455
4.425035
4.551289
4.575304
4.450328
4.450556
4.550329
4.576716
4.487814
4.425249
4.475485
4.675
4.62437
4.624998
4.675455
4.621149
4.626468
4.627268
4.648027
0.2675479
0.2675353
2.849267
2.948951
2.947846
2.849186
2.849243
2.948573
2.947723
3.022096
3.149108
3.148769
3.048477
3.021996
3.148821
3.148673
3.073493
3.008327
3.073463
4.450809
4.550851
4.576889
4.450663
4.450846
4.55096
4.576989
4.588993
4.58864
4.627241
4.62661
4.626926
0.2675669
0.2675654
2.849131
2.948501
2.947685
2.849022
2.849206
2.948424
2.947692
3.021986
3.148778
3.148611
3.048336
3.02199
3.148749
3.148537
3.073497
3.008331
3.073508
4.376103
4.248121
4.376035
4.450818
4.551069
4.576999
4.45064
4.450801
4.551012
4.576989
4.588621
4.588624
4.626892
4.626588
4.626838
0.2675922
0.2675905
2.849171
2.948439
2.947691
2.849
2.849222
2.94842
2.947702
3.021988
3.148791
3.148537
3.048325
3.021992
3.148779
3.148541
3.07352
3.008332
3.073521
4.450785
4.551033
4.57699
4.450587
4.450778
4.55099
4.576982
4.588624
4.588621
4.626833
4.626576
4.626816
0.2675527
0.2675662
2.84921
2.948434
2.947703
2.84899
2.849227
2.948431
2.947707
3.021991
3.148801
3.148546
3.048323
3.021992
3.148798
3.148548
3.073522
3.008332
3.073522
4.376012
4.247905
4.376009
4.450772
4.550995
4.576982
4.450559
4.45077
4.55098
4.576979
4.588621
4.588621
4.626815
4.626572
4.626811
0.2675975
0.2675761
3.021992
3.148798
3.148547
3.048311
3.021991
3.1488
3.148546
3.073522
3.008331
3.073522
4.450769
4.55098
4.576979
4.45056
4.450767
4.550992
4.576981
4.588621
4.588621
4.626811
4.626575
4.626815
0.2675379
0.2675746
3.021992
3.148776
3.148539
3.048291
3.021987
3.148787
3.148536
3.073522
3.00833
3.073521
4.376009
4.248551
4.376156
4.450765
4.550985
4.57698
4.450611
4.450766
4.551025
4.576978
4.588621
4.588624
4.626817
4.626582
4.626834
0.2675779
0.2675508
2.854695
2.972258
2.9786
2.850647
2.854486
2.972247
2.978574
3.021989
3.148743
3.148534
3.048302
3.021984
3.148772
3.148605
3.073518
3.008326
3.073514
4.45091
4.551012
4.576972
4.450809
4.451166
4.551082
4.576972
4.588624
4.588624
4.626841
4.626594
4.626905
0.267592
0.2676153
2.854332
2.972253
2.978572
2.850352
2.853732
2.972254
2.978426
3.021993
3.14881
3.14866
3.048645
3.022084
3.149092
3.148743
3.07348
3.008315
3.073462
4.451254
4.550984
4.576962
4.450685
4.451165
4.550879
4.576875
4.588644
4.588863
4.626945
4.626564
4.627011
0.267015
0.2673874
0.2340845
0.350024
0.350138
0.3524188
0.3525474
3.022262
3.149431
3.149199
3.048581
3.024586
3.150976
3.17533
3.07353
3.008572
3.073542
3.650154
3.750042
3.750052
3.648018
3.649773
3.749873
3.77447
3.850026
3.949803
3.949867
3.848888
3.825463
3.950944
3.974581
4.049896
4.149853
4.149951
4.048986
4.0254
4.150973
4.175445
4.250003
4.350149
4.350203
4.249021
4.22533
4.351011
4.375037
4.450717
4.550349
4.576715
4.449134
4.425541
4.551291
4.574909
4.626462
4.624967
4.620073
4.619996
0.3223713
0.3753924
0.3741277
0.323903
0.2675431
0.2675024
0.524942
0.57566
0.5749795
0.524736
0.724994
0.7756266
0.7749991
0.7245434
0.9249985
0.9756294
0.9750012
0.9245433
1.125
1.17563
1.175002
1.124544
1.325
1.37563
1.375002
1.324545
1.525
1.57563
1.575002
1.524545
1.725
1.77563
1.775002
1.724545
1.925
1.97563
1.975002
1.924545
2.125
2.17563
2.175002
2.124545
2.325
2.37563
2.375002
2.324545
2.525
2.57563
2.575002
2.524545
2.725
2.77563
2.775002
2.724545
2.925
2.97563
2.975002