/*--------------------------------*- C++ -*----------------------------------*\
  =========                 |
  \\      /  F ield         | OpenFOAM: The Open Source CFD Toolbox
   \\    /   O peration     | Website:  https://openfoam.org
    \\  /    A nd           | Version:  7
     \\/     M anipulation  |
\*---------------------------------------------------------------------------*/
FoamFile
{
    version     2.0;
    format      ascii;
    class       volScalarField;
    location    "0.1";
    object      Cz;
}
// * * * * * * * * * * * * * * * * * * * * * * * * * * * * * * * * * * * * * //

dimensions      [0 1 0 0 0 0 0];

internalField   nonuniform List<scalar> 
105127
(
0.04524169
0.04259968
0.04220196
0.04215871
0.04215537
0.04616428
0.04346305
0.04317419
0.04313962
0.04314282
0.04636417
0.04389868
0.04364201
0.04360985
0.04361591
0.04636907
0.04391575
0.04365803
0.04362401
0.04363063
0.04636694
0.04391088
0.04365029
0.04361466
0.04362093
0.04636611
0.04390863
0.04364677
0.04361032
0.04361638
0.0463658
0.04390778
0.04364538
0.04360846
0.04361445
0.0463657
0.04390749
0.04364488
0.04360783
0.0436137
0.04636566
0.04390736
0.04364467
0.04360755
0.04361338
0.04636565
0.04390731
0.04364458
0.04360744
0.04361325
0.04636564
0.04390729
0.04364454
0.04360739
0.0436132
0.04636564
0.04390729
0.04364453
0.04360737
0.04361318
0.04636564
0.04390728
0.04364453
0.04360737
0.04361318
0.04636564
0.04390728
0.04364453
0.04360737
0.04361318
0.04636564
0.04390728
0.04364453
0.04360737
0.04361318
0.04636564
0.04390729
0.04364454
0.04360738
0.04361319
0.04636564
0.04390729
0.04364455
0.04360739
0.04361321
0.04636564
0.0439073
0.04364457
0.04360743
0.04361326
0.04636565
0.04390732
0.0436446
0.04360749
0.04361336
0.04636567
0.04390737
0.04364468
0.04360761
0.04361354
0.04636571
0.04390749
0.04364488
0.04360783
0.04361379
0.04636587
0.04390788
0.04364543
0.04360833
0.0436139
0.0463666
0.04390959
0.04364766
0.04361039
0.04361471
0.1423371
0.1383802
0.137623
0.04361986
0.04362243
0.2458258
0.2420042
0.2411509
0.2410261
0.241019
0.2513135
0.2943978
0.2916321
0.29083
0.2906491
0.2906658
0.2520337
0.2941532
0.2910585
0.2899986
0.2897125
0.2897116
0.2520454
0.2940702
0.2907966
0.2895783
0.289216
0.2891939
0.2520447
0.2940301
0.2906812
0.2893907
0.2889848
0.2889458
0.2520443
0.2940115
0.2906308
0.2893087
0.2888813
0.2888318
0.2520441
0.2940037
0.2906098
0.2892741
0.2888368
0.288782
0.2520441
0.2940004
0.2906012
0.28926
0.2888184
0.2887609
0.252044
0.2939991
0.2905977
0.2892542
0.2888107
0.2887522
0.252044
0.2939987
0.2905964
0.289252
0.2888078
0.2887487
0.252044
0.2939984
0.2905959
0.2892511
0.2888066
0.2887474
0.252044
0.2939984
0.2905957
0.2892508
0.2888062
0.2887468
0.252044
0.2939984
0.2905957
0.2892508
0.288806
0.2887467
0.252044
0.2939984
0.2905957
0.2892508
0.2888062
0.2887467
0.252044
0.2939984
0.2905958
0.2892509
0.2888063
0.2887471
0.252044
0.2939985
0.2905959
0.2892511
0.2888067
0.2887475
0.252044
0.2939985
0.2905961
0.2892516
0.2888074
0.2887487
0.252044
0.2939987
0.2905966
0.2892525
0.2888088
0.288751
0.252044
0.2939991
0.2905976
0.2892542
0.2888118
0.2887556
0.252044
0.2939999
0.2905998
0.289258
0.2888172
0.2887637
0.2520441
0.2940021
0.290605
0.2892659
0.2888275
0.2887771
0.2520442
0.2940078
0.2906179
0.2892843
0.2888482
0.2887989
0.2520446
0.2940239
0.2906509
0.2893284
0.2888951
0.2888425
0.3505214
0.2940673
0.2907284
0.289427
0.2889989
0.2889392
0.4492512
0.4482223
0.4479187
0.4478636
0.4478611
0.4499324
0.4981999
0.4966503
0.4959527
0.4957341
0.4957148
0.4499368
0.4976999
0.4954156
0.4941935
0.4937483
0.4936652
0.4499336
0.49748
0.494804
0.4932138
0.492572
0.4924237
0.4499308
0.4973891
0.4945497
0.4927777
0.4920122
0.4918127
0.4499296
0.4973511
0.4944453
0.4925985
0.4917754
0.4915459
0.4499291
0.4973351
0.4944023
0.4925246
0.4916766
0.4914323
0.4499289
0.4973287
0.4943847
0.4924944
0.491636
0.4913851
0.4499288
0.4973261
0.4943778
0.4924825
0.4916196
0.4913657
0.4499287
0.497325
0.494375
0.4924778
0.4916131
0.491358
0.4499287
0.4973248
0.4943742
0.4924761
0.4916107
0.4913551
0.4499287
0.4973246
0.4943738
0.4924755
0.4916099
0.4913542
0.4499287
0.4973246
0.4943737
0.4924754
0.4916099
0.491354
0.4499287
0.4973246
0.4943738
0.4924755
0.4916099
0.4913544
0.4499287
0.4973247
0.494374
0.4924758
0.4916103
0.4913549
0.4499287
0.4973248
0.4943743
0.4924763
0.4916113
0.4913563
0.4499287
0.497325
0.4943748
0.4924774
0.4916131
0.491359
0.4499287
0.4973254
0.4943758
0.4924794
0.4916165
0.4913644
0.4499287
0.4973261
0.494378
0.4924835
0.4916231
0.4913748
0.4499288
0.4973278
0.4943825
0.4924915
0.4916354
0.4913932
0.4499289
0.4973318
0.4943926
0.4925079
0.4916581
0.491424
0.4499291
0.4973414
0.4944153
0.4925424
0.4917007
0.4914745
0.4499298
0.4973632
0.4944636
0.4926118
0.4917808
0.4915594
0.4499343
0.4974067
0.4945509
0.4927318
0.4919147
0.4916933
0.6498994
0.6497408
0.649681
0.6496663
0.649666
0.6499773
0.6994312
0.6988237
0.6984658
0.6983225
0.698297
0.6499635
0.6990963
0.6980013
0.6972492
0.6969074
0.6968167
0.6499575
0.6989196
0.6975119
0.6964218
0.6958648
0.695695
0.6499546
0.6988384
0.6972796
0.6959902
0.6952664
0.6950179
0.6499533
0.6988034
0.6971813
0.6958082
0.6950012
0.6947016
0.6499528
0.6987891
0.6971412
0.6957351
0.6948959
0.6945754
0.6499525
0.6987834
0.6971254
0.6957063
0.6948546
0.6945256
0.6499525
0.6987813
0.6971196
0.6956956
0.6948391
0.6945065
0.6499524
0.6987806
0.6971175
0.6956917
0.6948334
0.6944996
0.6499524
0.6987803
0.6971169
0.6956905
0.6948316
0.6944972
0.6499524
0.6987804
0.6971169
0.6956903
0.6948312
0.6944967
0.6499524
0.6987803
0.6971169
0.6956904
0.6948313
0.694497
0.6499524
0.6987804
0.697117
0.6956906
0.6948318
0.6944974
0.6499524
0.6987805
0.6971173
0.695691
0.6948324
0.6944984
0.6499524
0.6987807
0.6971176
0.6956918
0.6948337
0.6945002
0.6499524
0.6987809
0.6971183
0.6956931
0.6948359
0.6945038
0.6499524
0.6987813
0.6971194
0.6956955
0.6948402
0.6945107
0.6499524
0.698782
0.6971216
0.6956999
0.694848
0.6945234
0.6499525
0.6987836
0.6971261
0.6957083
0.6948618
0.6945451
0.6499525
0.6987872
0.6971353
0.6957244
0.6948859
0.6945798
0.6499528
0.6987951
0.6971548
0.6957555
0.6949273
0.6946325
0.6499533
0.6988114
0.6971925
0.6958126
0.6949971
0.6947111
0.6499561
0.6988398
0.6972533
0.6959004
0.6950984
0.6948159
0.849987
0.8499663
0.8499555
0.8499516
0.8499514
0.8499943
0.8998517
0.8996758
0.8995567
0.8995025
0.8994899
0.8499891
0.8997369
0.8993947
0.8991339
0.899
0.8989581
0.8499862
0.8996772
0.8992315
0.8988488
0.8986239
0.8985438
0.8499847
0.899652
0.8991569
0.8986975
0.8983929
0.8982689
0.8499841
0.8996428
0.8991291
0.8986387
0.8982929
0.8981393
0.8499838
0.8996401
0.8991207
0.8986203
0.898262
0.8980988
0.8499838
0.8996399
0.8991191
0.8986162
0.898254
0.8980877
0.8499837
0.89964
0.8991195
0.8986163
0.8982533
0.8980859
0.8499837
0.8996404
0.8991203
0.8986174
0.8982544
0.8980868
0.8499837
0.8996407
0.899121
0.8986185
0.8982555
0.8980883
0.8499837
0.8996408
0.8991214
0.8986191
0.8982565
0.8980894
0.8499837
0.899641
0.8991218
0.8986198
0.8982573
0.8980904
0.8499837
0.8996411
0.899122
0.8986203
0.8982579
0.8980913
0.8499837
0.8996412
0.8991223
0.8986207
0.8982587
0.8980925
0.8499837
0.8996413
0.8991226
0.8986214
0.8982599
0.8980942
0.8499837
0.8996415
0.8991231
0.8986224
0.8982618
0.8980972
0.8499838
0.8996417
0.8991238
0.8986241
0.898265
0.8981028
0.8499838
0.899642
0.8991249
0.8986267
0.8982703
0.8981124
0.8499838
0.8996426
0.8991269
0.898631
0.8982786
0.8981273
0.8499838
0.899644
0.8991304
0.8986375
0.8982903
0.8981476
0.8499839
0.8996468
0.8991369
0.8986481
0.898306
0.8981715
0.8499842
0.899652
0.8991486
0.8986645
0.8983248
0.8981944
0.8499853
0.8996605
0.8991648
0.8986841
0.8983418
0.8982075
1.05
1.049999
1.049999
1.049999
1.049999
1.05
1.100071
1.100156
1.100214
1.10024
1.100248
1.050002
1.100172
1.100391
1.100553
1.100635
1.10066
1.050003
1.100253
1.100598
1.100888
1.101055
1.101113
1.050004
1.100304
1.100732
1.101126
1.101384
1.101486
1.050004
1.100331
1.100804
1.101254
1.10157
1.101707
1.050005
1.100345
1.100841
1.101317
1.101658
1.10181
1.050005
1.100351
1.100859
1.101349
1.1017
1.10186
1.050005
1.100355
1.100868
1.101364
1.101721
1.101884
1.050005
1.100357
1.100872
1.101371
1.101731
1.101896
1.050005
1.100357
1.100874
1.101375
1.101736
1.101902
1.050005
1.100358
1.100876
1.101377
1.101739
1.101906
1.050005
1.100358
1.100876
1.101378
1.10174
1.101907
1.050005
1.100358
1.100876
1.101378
1.101741
1.101908
1.050005
1.100358
1.100877
1.101379
1.101742
1.10191
1.050005
1.100359
1.100877
1.101379
1.101743
1.101911
1.050005
1.100359
1.100877
1.10138
1.101744
1.101913
1.050005
1.100358
1.100877
1.10138
1.101745
1.101915
1.050005
1.100358
1.100877
1.10138
1.101746
1.101919
1.050005
1.100357
1.100875
1.101378
1.101745
1.101921
1.050005
1.100356
1.100871
1.101372
1.101738
1.101917
1.050005
1.100353
1.100862
1.101356
1.101717
1.101897
1.050005
1.100346
1.100844
1.101322
1.101669
1.101841
1.050004
1.100334
1.100812
1.101262
1.101578
1.10173
1.250005
1.250016
1.250021
1.250024
1.250024
1.250007
1.300346
1.300727
1.300959
1.301058
1.301079
1.250016
1.300733
1.301617
1.302222
1.302497
1.302572
1.250022
1.300983
1.302256
1.303234
1.303729
1.303879
1.250026
1.30111
1.302595
1.303816
1.304496
1.304727
1.250028
1.30117
1.302752
1.304087
1.304868
1.305154
1.250028
1.301197
1.302823
1.304209
1.305033
1.305344
1.250029
1.301209
1.302855
1.304263
1.305106
1.30543
1.250029
1.301214
1.30287
1.304288
1.305139
1.305469
1.250029
1.301217
1.302876
1.304299
1.305155
1.305487
1.250029
1.301218
1.30288
1.304304
1.305162
1.305495
1.250029
1.301219
1.302881
1.304307
1.305165
1.305499
1.250029
1.301219
1.302882
1.304308
1.305167
1.305501
1.250029
1.301219
1.302882
1.304309
1.305168
1.305503
1.250029
1.301219
1.302882
1.304309
1.305168
1.305503
1.250029
1.301219
1.302883
1.304309
1.305169
1.305504
1.250029
1.301219
1.302883
1.304309
1.305169
1.305505
1.250029
1.301219
1.302882
1.304309
1.305169
1.305505
1.250029
1.301218
1.30288
1.304307
1.305166
1.305503
1.250029
1.301217
1.302877
1.304301
1.305159
1.305496
1.250029
1.301213
1.302867
1.304285
1.305139
1.305476
1.250029
1.301205
1.302847
1.304249
1.305092
1.305423
1.250028
1.301189
1.302805
1.304178
1.304994
1.305309
1.250027
1.30116
1.302733
1.304053
1.304815
1.305097
1.450024
1.450051
1.450064
1.450068
1.450068
1.450021
1.501046
1.501942
1.502363
1.502504
1.502519
1.45005
1.501946
1.503851
1.504856
1.505223
1.505293
1.450064
1.502382
1.504886
1.506355
1.506942
1.507076
1.45007
1.502556
1.505321
1.507032
1.507765
1.507953
1.450073
1.502625
1.505498
1.507315
1.50812
1.508341
1.450074
1.502654
1.505571
1.507434
1.508272
1.508511
1.450074
1.502666
1.505602
1.507485
1.508338
1.508585
1.450074
1.502671
1.505616
1.507507
1.508366
1.508618
1.450074
1.502673
1.505621
1.507517
1.508379
1.508634
1.450074
1.502674
1.505624
1.507521
1.508385
1.50864
1.450075
1.502675
1.505626
1.507523
1.508388
1.508643
1.450075
1.502675
1.505626
1.507524
1.508389
1.508645
1.450075
1.502676
1.505627
1.507525
1.50839
1.508646
1.450075
1.502676
1.505626
1.507525
1.50839
1.508646
1.450075
1.502676
1.505626
1.507525
1.50839
1.508647
1.450075
1.502676
1.505626
1.507525
1.50839
1.508647
1.450075
1.502675
1.505626
1.507524
1.508389
1.508646
1.450074
1.502674
1.505624
1.507521
1.508386
1.508643
1.450074
1.502673
1.50562
1.507515
1.508378
1.508634
1.450074
1.502669
1.505611
1.507499
1.508358
1.508613
1.450074
1.502661
1.505589
1.507463
1.508311
1.508559
1.450074
1.502642
1.505542
1.507386
1.508208
1.50844
1.450071
1.502604
1.505455
1.507241
1.508004
1.508195
1.649727
1.649459
1.649474
1.649479
1.649478
1.649728
1.703805
1.705369
1.7058
1.7059
1.705884
1.64946
1.705371
1.708065
1.708945
1.709178
1.709176
1.649474
1.705811
1.708962
1.710108
1.710442
1.710461
1.649481
1.705936
1.709243
1.710504
1.710896
1.710931
1.649483
1.705977
1.709341
1.710651
1.711071
1.711118
1.649484
1.705992
1.709379
1.710708
1.711142
1.711195
1.649484
1.705998
1.709394
1.710732
1.711171
1.711228
1.649485
1.706
1.7094
1.710742
1.711184
1.711242
1.649485
1.706001
1.709402
1.710746
1.71119
1.711248
1.649485
1.706001
1.709404
1.710748
1.711192
1.711251
1.649485
1.706002
1.709405
1.710749
1.711193
1.711252
1.649485
1.706002
1.709405
1.710749
1.711194
1.711253
1.649485
1.706002
1.709405
1.710749
1.711194
1.711253
1.649485
1.706002
1.709405
1.710749
1.711194
1.711253
1.649485
1.706002
1.709405
1.710749
1.711194
1.711253
1.649485
1.706002
1.709405
1.710749
1.711194
1.711253
1.649485
1.706002
1.709405
1.710749
1.711193
1.711253
1.649485
1.706001
1.709404
1.710748
1.711192
1.711252
1.649485
1.706001
1.709402
1.710745
1.711188
1.711247
1.649485
1.705999
1.709397
1.710737
1.711178
1.711237
1.649484
1.705994
1.709385
1.710719
1.711155
1.71121
1.649484
1.705982
1.709358
1.710676
1.711098
1.711145
1.649481
1.705953
1.709297
1.71058
1.710963
1.710978
1.823456
1.821565
1.821562
1.821563
1.821563
1.823457
1.855333
1.857336
1.857636
1.857678
1.857666
1.821565
1.857336
1.86093
1.861541
1.861636
1.861619
1.821562
1.857637
1.861544
1.862266
1.862392
1.862374
1.821563
1.857685
1.861652
1.862409
1.86255
1.862533
1.821563
1.857694
1.861677
1.862446
1.862593
1.862577
1.821563
1.857697
1.861685
1.862458
1.862608
1.862593
1.821563
1.857698
1.861687
1.862462
1.862613
1.862599
1.821563
1.857698
1.861689
1.862464
1.862616
1.862602
1.821563
1.857698
1.861689
1.862465
1.862617
1.862603
1.821563
1.857698
1.861689
1.862465
1.862617
1.862603
1.821563
1.857698
1.861689
1.862465
1.862617
1.862604
1.821563
1.857698
1.861689
1.862465
1.862617
1.862604
1.821563
1.857698
1.861689
1.862465
1.862617
1.862604
1.821563
1.857698
1.861689
1.862465
1.862617
1.862604
1.821563
1.857698
1.861689
1.862465
1.862617
1.862604
1.821563
1.857698
1.861689
1.862465
1.862617
1.862604
1.821563
1.857698
1.861689
1.862465
1.862617
1.862604
1.821563
1.857698
1.861689
1.862465
1.862617
1.862604
1.821563
1.857698
1.861689
1.862465
1.862616
1.862603
1.821563
1.857698
1.861688
1.862464
1.862615
1.862602
1.821563
1.857698
1.861687
1.862462
1.862613
1.862599
1.821563
1.857696
1.861683
1.862455
1.862603
1.862588
1.821563
1.85768
1.861649
1.862405
1.862532
1.86249
0.0205499
0.02122772
0.1725898
0.1775964
0.1461655
0.021327
0.02138079
0.1765256
0.1458091
0.178424
0.1458215
0.02138005
0.02138125
0.1784306
0.145839
0.1784367
0.1458434
0.02138107
0.02138095
0.1784369
0.1458435
0.178437
0.1458427
0.02138093
0.02138086
0.1784371
0.1458419
0.178437
0.1458413
0.02138086
0.02138084
0.178437
0.1458409
0.178437
0.1458407
0.02138084
0.02138083
0.178437
0.1458405
0.178437
0.1458404
0.02138083
0.02138083
0.178437
0.1458403
0.178437
0.1458403
0.02138082
0.02138082
0.178437
0.1458403
0.178437
0.1458403
0.02138082
0.02138082
0.178437
0.1458402
0.178437
0.1458402
0.02138082
0.02138082
0.178437
0.1458402
0.178437
0.1458402
0.02138082
0.02138082
0.178437
0.1458402
0.178437
0.1458402
0.02138082
0.02138082
0.178437
0.1458402
0.178437
0.1458402
0.02138082
0.02138082
0.178437
0.1458402
0.178437
0.1458402
0.02138082
0.02138082
0.178437
0.1458402
0.178437
0.1458402
0.02138082
0.02138082
0.178437
0.1458402
0.178437
0.1458402
0.02138082
0.02138082
0.178437
0.1458402
0.178437
0.1458402
0.02138082
0.02138082
0.178437
0.1458402
0.178437
0.1458402
0.02138082
0.02138083
0.178437
0.1458402
0.178437
0.1458403
0.02138082
0.02138083
0.178437
0.1458403
0.178437
0.1458403
0.02138083
0.02138084
0.178437
0.1458403
0.178437
0.1458404
0.02138084
0.02138087
0.1784371
0.1458406
0.178437
0.1458409
0.02138089
0.02138107
0.1784371
0.1458417
0.1784372
0.1458434
0.0213812
0.07085732
0.1784372
0.1458473
0.1784378
0.1458555
0.2228014
0.2270472
0.2481649
0.3751611
0.3754743
0.3491789
0.4243456
0.4245204
0.4496266
0.5754445
0.5754709
0.5498309
0.624512
0.6245258
0.649924
0.775467
0.7754747
0.7499654
0.8245235
0.8245301
0.8499846
0.9754744
0.9754701
0.9499942
1.024527
1.024528
1.05
1.17547
1.175475
1.150005
1.224523
1.224533
1.250012
1.375476
1.37547
1.350023
1.424533
1.424524
1.450045
1.575472
1.575469
1.550098
1.624517
1.624518
1.650236
1.772928
1.772935
1.750716
1.822385
1.822387
1.852186
1.977884
1.82157
1.853346
1.853851
1.977742
1.978578
1.821563
1.854138
1.854149
1.978617
1.978618
1.821563
1.854152
1.854151
1.978619
1.978619
1.853347
1.82157
1.853852
1.977742
1.978578
1.854041
1.821562
1.854111
1.978599
1.978616
1.854139
1.821563
1.85415
1.978617
1.978619
1.854155
1.821563
1.854157
1.978619
1.978619
1.854158
1.821563
1.854159
1.978619
1.978619
1.854159
1.821563
1.854159
1.978619
1.978619
1.85416
1.821563
1.85416
1.978619
1.978619
1.85416
1.821563
1.85416
1.978619
1.978619
1.85416
1.821563
1.85416
1.978619
1.978619
1.85416
1.821563
1.85416
1.978619
1.978619
1.85416
1.821563
1.85416
1.978619
1.978619
1.85416
1.821563
1.85416
1.978619
1.978619
1.85416
1.821563
1.85416
1.978619
1.978619
1.85416
1.821563
1.85416
1.978619
1.978619
1.85416
1.821563
1.85416
1.978619
1.978619
1.85416
1.821563
1.85416
1.978619
1.978619
1.85416
1.821563
1.85416
1.978619
1.978619
1.85416
1.821563
1.85416
1.978619
1.978619
1.85416
1.821563
1.85416
1.978619
1.978619
1.85416
1.821563
1.85416
1.978619
1.978619
1.854156
1.821563
1.854152
1.978619
1.931046
0.07300257
0.01037463
0.07263812
0.01039123
0.07262999
0.01039259
0.07264606
0.01039214
0.07264585
0.01039225
0.07264615
0.01039223
0.07264618
0.01039223
0.0726461
0.01039221
0.07264613
0.01039221
0.07264607
0.01039221
0.07264608
0.01039221
0.07264606
0.01039221
0.07264606
0.01039221
0.07264605
0.01039221
0.07264605
0.01039221
0.07264605
0.01039221
0.07264606
0.01039221
0.07264605
0.01039221
0.07264605
0.01039221
0.07264605
0.01039221
0.07264605
0.01039221
0.07264605
0.01039221
0.07264605
0.01039221
0.07264605
0.01039221
0.07264605
0.01039221
0.07264605
0.01039221
0.07264605
0.01039221
0.07264605
0.01039221
0.07264605
0.01039221
0.07264605
0.01039221
0.07264605
0.01039221
0.07264605
0.01039221
0.07264605
0.01039221
0.07264605
0.01039221
0.07264605
0.01039221
0.07264605
0.01039221
0.07264605
0.01039221
0.07264605
0.01039221
0.07264606
0.01039221
0.07264605
0.01039221
0.07264606
0.01039221
0.07264607
0.01039221
0.07264606
0.01039221
0.07264611
0.01039221
0.07264609
0.01039221
0.07264643
0.01039222
0.07264628
0.01039223
0.2749201
0.2248603
0.4749875
0.4249763
0.6750042
0.6249966
0.8749995
0.8250022
1.075001
1.025
1.275007
1.225005
1.475005
1.424998
1.675006
1.625004
1.875366
1.825075
1.821562
1.854041
1.854111
1.978599
1.978617
1.821562
1.854147
1.854137
1.978618
1.978617
1.854159
1.821563
1.854159
1.978619
1.978619
1.854159
1.821563
1.854158
1.978619
1.978619
0.07272593
0.01039534
0.0726384
0.01039117
0.124296
0.1747271
0.0726431
0.01039233
0.07264507
0.01039177
0.07264618
0.01039223
0.07264617
0.01039222
0.07264613
0.01039223
0.07264612
0.01039224
0.07264609
0.01039221
0.07264608
0.01039221
0.07264607
0.01039221
0.07264606
0.01039221
0.07264606
0.01039221
0.07264605
0.01039221
0.07264605
0.01039221
0.07264606
0.01039221
0.07264605
0.01039221
0.07264605
0.01039221
0.07264605
0.01039221
0.07264605
0.01039221
0.07264605
0.01039221
0.07264605
0.01039221
0.07264605
0.01039221
0.07264605
0.01039221
0.07264605
0.01039221
0.07264605
0.01039221
0.07264605
0.01039221
0.07264605
0.01039221
0.07264605
0.01039221
0.07264605
0.01039221
0.07264605
0.01039221
0.07264605
0.01039221
0.07264605
0.01039221
0.07264605
0.01039221
0.07264605
0.01039221
0.07264605
0.01039221
0.07264605
0.01039221
0.07264606
0.01039221
0.07264605
0.01039221
0.07264606
0.01039221
0.07264606
0.01039221
0.07264606
0.01039221
0.07264607
0.01039221
0.07264608
0.01039221
0.07264614
0.01039222
0.0726462
0.01039221
0.0726467
0.03412901
0.01039224
0.07264721
0.3249561
0.3749765
0.5249898
0.5749903
0.724998
0.7749961
0.9249992
0.9750031
1.124998
1.175
1.325
1.374997
1.525007
1.575004
1.725005
1.775016
1.926615
1.989415
1.927354
1.989607
1.927355
1.989608
1.927353
1.989608
1.927354
1.989608
1.927349
1.989607
1.927346
1.989608
1.927351
1.989608
1.927352
1.989608
1.927353
1.989608
1.927353
1.989608
1.927353
1.989608
1.927354
1.989608
1.927354
1.989608
1.927354
1.989608
1.927354
1.989608
1.927354
1.989608
1.927356
1.989608
1.927354
1.989607
1.927354
1.989607
1.927356
1.989608
1.927354
1.989608
1.927354
1.989608
1.927354
1.989608
1.927354
1.989608
1.927354
1.989608
1.927354
1.989608
1.927354
1.989608
1.927354
1.989608
1.927354
1.989608
1.927354
1.989608
1.927354
1.989608
1.927354
1.989608
1.927354
1.989608
1.927354
1.989608
1.927354
1.989608
1.927354
1.989608
1.927354
1.989608
1.927354
1.989608
1.927354
1.989608
1.927354
1.989608
1.927354
1.989608
1.927354
1.989608
1.927354
1.989608
1.927354
1.989608
1.927354
1.989608
1.927354
1.989608
1.927354
1.989608
1.927354
1.989608
1.927354
1.989607
1.927356
1.989608
1.927354
1.989608
1.927354
1.989608
1.927354
1.989608
1.927354
1.989608
1.927354
1.989608
1.927354
1.989608
1.927354
1.989608
1.927354
1.989608
1.927354
1.989608
1.927354
1.989608
1.927354
1.989608
1.927354
1.989608
1.927354
1.989608
1.927354
1.989608
1.927354
1.989608
1.927354
1.989608
1.927354
1.989608
1.927354
1.989608
1.927354
1.989608
1.927354
1.989608
1.927354
1.989608
1.927354
1.989608
1.927354
1.989608
1.927354
1.989608
1.927353
1.989362
1.989608
1.927352
1.821562
0.07085991
0.1784382
0.1458715
1.854143
1.931044
0.07264968
0.03412905
0.01039253
0.07264807
1.927352
1.989362
1.989608
1.927351
0.03511959
0.01020254
0.2374817
0.2124941
0.4374814
0.4124936
0.6375068
0.6124935
0.8375152
0.8125112
1.037498
1.012484
1.237512
1.2125
1.437495
1.412481
1.63751
1.61249
1.837513
1.812509
0.1624982
0.1875075
0.3625181
0.387506
0.5624974
0.5875043
0.7624905
0.7875003
0.9625159
0.9875004
1.162493
1.187491
1.362496
1.387491
1.562513
1.587494
1.762493
1.787488
1.964859
1.989807
1.926945
1.989575
1.927175
1.98921
1.926945
1.989575
1.927173
1.98921
1.927306
1.989586
1.927266
1.989602
1.927328
1.989606
1.927342
1.989603
1.927356
1.989608
1.927354
1.989607
1.927356
1.989607
1.927356
1.989607
1.927306
1.989586
1.927265
1.989602
1.927326
1.989607
1.927338
1.989604
1.964813
1.989165
1.989165
1.964815
1.964814
1.989165
1.964815
1.989165
1.964814
1.989165
1.989165
1.964815
1.927356
1.989607
1.927356
1.989607
1.964814
1.989165
1.964815
1.989165
1.964814
1.989165
1.989165
1.964815
1.964814
1.989165
1.964815
1.989165
1.964814
1.989165
1.989165
1.964815
1.964814
1.989165
1.964815
1.989165
1.964814
1.989165
1.989165
1.964815
1.964814
1.989165
1.964815
1.989165
1.964814
1.989165
1.989165
1.964815
1.964814
1.989165
1.964815
1.989165
1.964814
1.989165
1.989165
1.964815
1.964814
1.989165
1.989165
1.964815
1.927354
1.989607
1.927356
1.989608
1.964814
1.989165
1.964815
1.989165
1.964814
1.989165
1.989165
1.964815
1.964814
1.989165
1.989165
1.964815
1.964814
1.989165
1.964815
1.989165
1.964814
1.989165
1.989165
1.964815
1.927354
1.989608
1.927354
1.989608
1.964814
1.989165
1.989165
1.964815
1.964814
1.989165
1.964815
1.989165
1.927354
1.989607
1.927356
1.989608
0.03505256
0.01084822
0.03513351
0.01089151
0.06169208
0.08715061
0.262497
0.2875097
0.4624993
0.4875166
0.662496
0.687502
0.8625022
0.8874925
1.06251
1.08749
1.262516
1.287507
1.462501
1.4875
1.662505
1.687486
1.862521
1.887583
1.989606
1.927349
1.989606
1.927352
1.989607
1.927355
1.989606
1.927354
1.989607
1.927356
1.989607
1.927356
1.989607
1.927355
1.989607
1.927355
1.989608
1.927354
1.989607
1.927356
1.989607
1.989607
1.927356
1.927356
1.989607
1.989607
1.927356
1.927356
1.989607
1.927356
1.989607
1.927356
0.1374582
0.1123792
0.337502
0.3124891
0.5374856
0.512501
0.7374926
0.712512
0.9374996
0.9124806
1.137514
1.112501
1.3375
1.312502
1.537504
1.512499
1.737514
1.7125
1.938252
1.912792
1.964813
1.989165
1.989165
1.964815
1.964813
1.989165
1.964815
1.989165
1.964814
1.989165
1.989165
1.964815
1.964814
1.989165
1.964815
1.989165
1.964814
1.989165
1.989165
1.964815
1.964814
1.989165
1.964815
1.989165
1.964814
1.989165
1.989165
1.964815
1.964814
1.989165
1.964815
1.989165
1.964814
1.989165
1.964815
1.989165
1.964814
1.989165
1.989165
1.964815
1.964814
1.989165
1.964815
1.989165
1.964814
1.989165
1.989165
1.964815
1.964814
1.989165
1.964815
1.989165
1.964814
1.989165
1.989165
1.964815
1.964814
1.989165
1.964815
1.989165
1.964814
1.989165
1.989165
1.964815
1.964814
1.989165
1.989165
1.964815
1.964814
1.989165
1.964815
1.989165
1.989165
1.989162
1.964826
1.964823
1.989165
1.989161
1.964823
1.96482
1.989166
1.989165
1.964817
1.964819
1.989165
1.989165
1.964813
1.964813
1.964813
1.989165
1.964813
1.989165
1.964814
1.989165
1.964815
1.989165
1.989165
1.989165
1.964815
1.964814
1.989165
1.989165
1.964813
1.964813
1.989165
1.989165
1.964816
1.964818
1.989165
1.964815
1.989165
1.964815
1.964814
1.989165
1.989165
1.964815
1.964814
1.989165
1.989165
1.964815
1.964813
1.989165
1.989165
1.964813
1.964814
1.989165
1.989165
1.964815
1.989165
1.964813
1.989165
1.964813
1.964813
1.989165
1.989165
1.964813
1.964814
1.989165
1.964815
1.989165
1.964814
1.989165
1.989165
1.964815
1.964814
1.989165
1.964815
1.989165
1.964814
1.989165
1.989165
1.964815
1.964814
1.989165
1.964815
1.989165
1.989165
1.989165
1.964813
1.964813
1.989165
1.964816
1.964815
1.989165
1.989165
1.989165
1.964813
1.964813
1.989165
1.964813
1.989165
1.964813
1.989165
1.989165
1.964813
1.964813
1.989165
1.964815
1.964814
1.989165
1.989165
1.989165
1.964813
1.964813
1.989165
1.989165
1.964813
1.964813
1.989165
1.989165
1.964813
1.964813
1.964922
1.989128
1.989081
1.964838
1.965035
1.989165
1.989189
1.964892
1.964814
1.989165
1.989165
1.964815
1.964814
1.989165
1.989165
1.964815
1.964814
1.989165
1.989165
1.964815
1.964813
1.989165
1.989165
1.964813
1.964814
1.989165
1.989165
1.964815
1.964814
1.989165
1.989165
1.964815
1.964814
1.989165
1.964815
1.989165
1.964814
1.989165
1.989165
1.964815
1.964814
1.989165
1.964815
1.989165
1.964814
1.989165
1.964815
1.989165
1.964814
1.989165
1.964815
1.989165
1.964814
1.989165
1.964815
1.989165
1.989165
1.964816
1.964815
1.989165
1.964814
1.989165
1.989165
1.964815
1.989142
1.964827
1.989153
1.964828
1.989152
1.96484
1.989155
1.964827
1.989165
1.989165
1.964816
1.964815
1.989165
1.989165
1.964813
1.964814
1.989165
1.989165
1.964813
1.964813
1.989165
1.989165
1.964813
1.964813
1.989165
1.989165
1.964815
1.964815
1.989165
1.989165
1.964815
1.964815
1.989165
1.964813
1.989165
1.964813
1.989165
1.964815
1.989165
1.964814
1.989165
1.989165
1.964815
1.964814
1.989165
1.989165
1.964813
1.964813
1.989165
1.989165
1.964813
1.964813
1.989165
1.989165
1.964813
1.964813
1.989165
1.989165
1.964813
1.964813
1.989165
1.989165
1.964813
1.964813
1.989165
1.989165
1.964813
1.964813
0.03518318
0.01083286
0.03517844
0.01083368
0.03518631
0.01083522
0.03518503
0.01083505
0.03518631
0.01083518
0.03518504
0.01083502
0.03518632
0.01083518
0.03518504
0.01083502
0.03518632
0.01083518
0.03518504
0.01083502
0.03518632
0.01083518
0.03518503
0.01083502
0.03518632
0.01083518
0.03518503
0.01083502
0.03518632
0.01083518
0.03518503
0.01083502
0.03518632
0.01083518
0.03518503
0.01083502
0.03518632
0.01083518
0.03518503
0.01083502
0.03518632
0.01083518
0.03518503
0.01083502
0.03518632
0.01083518
0.03518503
0.01083502
0.03518632
0.01083518
0.03518503
0.01083502
0.03518632
0.01083518
0.03518503
0.01083502
0.03518632
0.01083518
0.03518503
0.01083502
0.03518632
0.01083518
0.03518503
0.01083502
0.03518632
0.01083518
0.03518503
0.01083502
0.03518632
0.01083518
0.03518503
0.01083502
0.03518632
0.01083518
0.03518503
0.01083502
0.03518632
0.01083518
0.03518503
0.01083502
0.03518632
0.01083518
0.03518503
0.01083502
0.03518632
0.01083518
0.03518504
0.01083502
0.03518632
0.01083518
0.03518504
0.01083502
0.03516791
0.01083194
0.03517329
0.01083157
0.03518631
0.01083524
0.03518503
0.01083509
0.03518631
0.01083518
0.03518504
0.01083502
0.03518632
0.01083518
0.03518504
0.01083502
0.03518632
0.01083518
0.03518504
0.01083502
0.03518632
0.01083518
0.03518504
0.01083502
0.03518632
0.01083518
0.03518504
0.01083502
0.03518632
0.01083518
0.03518504
0.01083502
0.03518632
0.01083518
0.03518504
0.01083502
0.03518632
0.01083518
0.03518504
0.01083502
0.03518632
0.01083518
0.03518504
0.01083502
0.03518632
0.01083518
0.03518504
0.01083502
0.03518632
0.01083518
0.03518504
0.01083502
0.03518632
0.01083518
0.03518504
0.01083502
0.03518632
0.01083518
0.03518504
0.01083502
0.03518632
0.01083518
0.03518504
0.01083502
0.03518632
0.01083518
0.03518504
0.01083502
0.03518632
0.01083518
0.03518504
0.01083502
0.03518632
0.01083518
0.03518504
0.01083502
0.03518632
0.01083518
0.03518504
0.01083502
0.03518632
0.01083518
0.03518504
0.01083502
0.03518632
0.01083518
0.03518504
0.01083502
0.03518632
0.01083518
0.03518504
0.01083502
0.03518504
0.01083519
0.03518632
0.01083502
1.964814
1.989165
1.989165
1.964815
1.964814
1.989165
1.964815
1.989165
1.964814
1.989165
1.989165
1.964815
1.989165
1.964815
1.964814
1.989165
0.03518459
0.01083498
0.0351843
0.01083443
0.03518631
0.01083519
0.03518503
0.01083504
0.03518632
0.01083518
0.03518504
0.01083502
0.03518632
0.01083518
0.03518504
0.01083502
0.03518632
0.01083518
0.03518504
0.01083502
0.03518632
0.01083518
0.03518503
0.01083502
0.03518632
0.01083518
0.03518503
0.01083502
0.03518632
0.01083518
0.03518503
0.01083502
0.03518632
0.01083518
0.03518503
0.01083502
0.03518632
0.01083518
0.03518503
0.01083502
0.03518632
0.01083518
0.03518503
0.01083502
0.03518632
0.01083518
0.03518503
0.01083502
0.03518632
0.01083518
0.03518503
0.01083502
0.03518632
0.01083518
0.03518503
0.01083502
0.03518632
0.01083518
0.03518503
0.01083502
0.03518632
0.01083518
0.03518503
0.01083502
0.03518632
0.01083518
0.03518503
0.01083502
0.03518632
0.01083518
0.03518503
0.01083502
0.03518632
0.01083518
0.03518503
0.01083502
0.03518632
0.01083518
0.03518503
0.01083502
0.03518632
0.01083518
0.03518504
0.01083502
0.03518632
0.01083518
0.03518504
0.01083502
0.03518632
0.01083518
0.03518504
0.01083502
0.03516055
0.01083871
0.03515177
0.01083366
0.03518624
0.01083515
0.03518478
0.01083506
0.03518631
0.01083519
0.03518504
0.01083502
0.03518632
0.01083518
0.03518504
0.01083502
0.03518632
0.01083518
0.03518504
0.01083502
0.03518632
0.01083518
0.03518504
0.01083502
0.03518632
0.01083518
0.03518503
0.01083502
0.03518632
0.01083518
0.03518503
0.01083502
0.03518632
0.01083518
0.03518503
0.01083502
0.03518632
0.01083518
0.03518503
0.01083502
0.03518632
0.01083518
0.03518503