/*--------------------------------*- C++ -*----------------------------------*\
  =========                 |
  \\      /  F ield         | OpenFOAM: The Open Source CFD Toolbox
   \\    /   O peration     | Website:  https://openfoam.org
    \\  /    A nd           | Version:  7
     \\/     M anipulation  |
\*---------------------------------------------------------------------------*/
FoamFile
{
    version     2.0;
    format      ascii;
    class       volScalarField;
    location    "0.1";
    object      Cz;
}
// * * * * * * * * * * * * * * * * * * * * * * * * * * * * * * * * * * * * * //

dimensions      [0 1 0 0 0 0 0];

internalField   nonuniform List<scalar> 
78470
(
0.02105191
0.02083337
0.02086491
0.02086675
0.02086787
0.02086809
0.02086808
0.02086823
0.02086929
0.09738066
0.09489673
0.09412186
0.09393218
0.0938786
0.09386393
0.09386675
0.09387912
0.09388899
0.09549911
0.09147606
0.09026217
0.08993721
0.08984309
0.08981664
0.08981796
0.0898308
0.08984476
0.09488227
0.09041746
0.08894962
0.08853938
0.08841511
0.08837879
0.08837934
0.08839442
0.08840928
0.09473684
0.09013813
0.08858488
0.08813027
0.08798667
0.08794343
0.08794369
0.08796136
0.08797892
0.09469647
0.09005634
0.08847188
0.08799735
0.08784335
0.08779635
0.0877969
0.08781689
0.08783698
0.09468218
0.09002733
0.0884307
0.08794775
0.08778953
0.08774175
0.08774379
0.08776623
0.08778868
0.09467707
0.09001719
0.08841672
0.08793198
0.08777436
0.08772954
0.0877357
0.08776212
0.08778764
0.09467581
0.09001546
0.08841595
0.08793476
0.08778425
0.08774966
0.08776706
0.08780299
0.08783466
0.09467695
0.09001895
0.0884249
0.08795496
0.08782463
0.08782041
0.08787135
0.08793329
0.08797966
0.09467974
0.09002719
0.08844496
0.08800482
0.08793804
0.08803372
0.08819547
0.08834176
0.08843117
0.09468414
0.09004032
0.08847875
0.088102
0.08827197
0.0887558
0.08927679
0.08973593
0.08998112
0.0946898
0.09005746
0.08852613
0.08824778
0.0888021
0.09115399
0.09215746
0.09424734
0.0946214
0.0946958
0.0900756
0.08857716
0.08840381
0.08929807
0.09209438
0.04271352
0.04487236
0.04459495
0.09470132
0.09009109
0.08861755
0.08852046
0.08969442
0.09398861
0.04465707
0.01034755
0.09470601
0.09010307
0.08864491
0.08858821
0.08990088
0.09420207
0.04481587
0.01019957
0.09470982
0.09011231
0.08866564
0.0886361
0.08999797
0.09433302
0.04483773
0.0102049
0.09471227
0.09011827
0.08867965
0.08866971
0.09007852
0.09454606
0.0448824
0.01020754
0.09471279
0.09011942
0.08868166
0.08867311
0.09008398
0.09455061
0.04489166
0.01020821
0.09471178
0.09011637
0.08867254
0.0886477
0.09001946
0.09437362
0.04485827
0.01020684
0.09471047
0.09011187
0.08865868
0.08860953
0.08994034
0.09432189
0.04482426
0.0102011
0.09471057
0.09010809
0.08864158
0.08855087
0.08973312
0.09404034
0.04482415
0.01019922
0.04339874
0.02251476
0.02266863
0.2485889
0.2970737
0.2974365
0.2974636
0.2974166
0.2973977
0.2973986
0.2974105
0.2974209
0.2508044
0.2939911
0.2904862
0.2891753
0.288725
0.2885647
0.2885174
0.2885226
0.2885527
0.2885806
0.2516826
0.2915768
0.2859523
0.2836366
0.2828081
0.2825104
0.2824206
0.2824252
0.2824696
0.2825134
0.2521353
0.2906502
0.2840086
0.281038
0.2799129
0.2794931
0.2793626
0.2793656
0.279424
0.2794809
0.2521588
0.2903214
0.2833074
0.2800413
0.2787463
0.2782449
0.2780849
0.2780871
0.2781575
0.2782273
0.2521531
0.2901977
0.2830438
0.2796517
0.2782723
0.2777257
0.2775491
0.2775526
0.2776329
0.2777133
0.2521516
0.2901491
0.2829406
0.2794968
0.278081
0.2775159
0.2773354
0.2773447
0.2774349
0.2775247
0.2521512
0.2901308
0.2829028
0.2794424
0.2780184
0.2774555
0.2772863
0.2773117
0.2774174
0.2775194
0.252151
0.2901269
0.2828968
0.2794401
0.2780307
0.2774955
0.2773657
0.2774335
0.2775735
0.2776979
0.2521511
0.2901311
0.2829112
0.2794773
0.278112
0.2776519
0.277628
0.2778095
0.2780366
0.2782097
0.2521513
0.290142
0.2829442
0.2795569
0.278286
0.2780035
0.2782609
0.278763
0.2792244
0.2795039
0.2521516
0.2901587
0.2829951
0.2796853
0.2785912
0.2787034
0.2797141
0.281156
0.2822573
0.2827392
0.252152
0.2901793
0.2830598
0.2798563
0.2790351
0.279882
0.2827618
0.2867335
0.2891095
0.2896216
0.2521524
0.290201
0.2831269
0.2800344
0.279509
0.2812025
0.2865285
0.2405793
0.2455661
0.2456748
0.2521528
0.2902208
0.2831845
0.2801776
0.2798554
0.282049
0.2883617
0.2445071
0.2122174
0.2521531
0.2902372
0.2832292
0.2802789
0.2800634
0.2824117
0.2885462
0.2446218
0.2523239
0.2521534
0.2902503
0.2832644
0.2803609
0.2802482
0.2828324
0.289394
0.2449403
0.2514322
0.2521536
0.2902586
0.2832871
0.2804174
0.2803928
0.2832344
0.2905407
0.2461262
0.2495856
0.2521536
0.2902604
0.2832912
0.2804247
0.2804045
0.2832513
0.2905482
0.2463705
0.2486567
0.2521536
0.2902567
0.2832788
0.2803858
0.2802885
0.2828996
0.2894903
0.2455657
0.2507079
0.2521535
0.2902523
0.2832614
0.2803302
0.2801393
0.2825371
0.288858
0.2448571
0.2523501
0.2521538
0.2902524
0.283247
0.2802687
0.2799691
0.2821854
0.2885126
0.2448636
0.2247572
0.2521553
0.2427399
0.2240302
0.2521024
0.4497001
0.4988467
0.4985975
0.4985416
0.4984765
0.4984513
0.4984504
0.4984595
0.4984691
0.4503629
0.4978239
0.4956292
0.4943846
0.4938448
0.4936269
0.4935577
0.4935613
0.4935962
0.4936298
0.5008099
0.4964255
0.4926247
0.4903402
0.4892977
0.4888707
0.4887331
0.4887398
0.4888081
0.4888733
0.5016745
0.4956753
0.4907802
0.4875967
0.4860503
0.4854044
0.4851916
0.4851969
0.4852958
0.4853923
0.5018115
0.4953286
0.489925
0.4862392
0.4843476
0.4835345
0.4832608
0.4832638
0.4833869
0.48351
0.5017889
0.4951699
0.4895528
0.4856425
0.4835792
0.4826707
0.4823617
0.4823661
0.4825079
0.4826516
0.5017713
0.4951001
0.4893939
0.4853891
0.4832521
0.4823041
0.4819856
0.4819999
0.4821599
0.482321
0.5017646
0.4950723
0.4893332
0.4852974
0.4831431
0.4821979
0.4818991
0.4819416
0.482129
0.4823113
0.501763
0.4950661
0.4893241
0.4852957
0.4831677
0.4822724
0.482043
0.4821581
0.4824032
0.4826222
0.5017639
0.4950734
0.4893501
0.4853638
0.4833157
0.4825507
0.4824969
0.4827941
0.4831749
0.4834686
0.5017668
0.4950914
0.4894069
0.4855048
0.4836198
0.4831398
0.4835017
0.4842481
0.4849471
0.4853857
0.5017708
0.4951179
0.489493
0.4857249
0.4841224
0.4842016
0.4854781
0.4872055
0.4885014
0.489111
0.5017756
0.4951499
0.4895989
0.4860048
0.4847972
0.4857594
0.4886601
0.4921655
0.49412
0.4946593
0.5017806
0.4951823
0.4897063
0.4862874
0.4854803
0.4873269
0.4919242
0.4453043
0.4482521
0.4486986
0.5017853
0.4952109
0.4897974
0.4865132
0.48598
0.4883161
0.4934807
0.4476394
0.412404
0.5017896
0.4952346
0.4898688
0.4866776
0.4862981
0.48882
0.4939972
0.4983949
0.450303
0.5017932
0.4952529
0.4899252
0.4868149
0.4866079
0.4894417
0.4951175
0.5029054
0.4507899
0.5017954
0.495264
0.489961
0.4869101
0.4868571
0.4899989
0.4961523
0.5066746
0.5017957
0.4952656
0.4899659
0.4869202
0.4868743
0.490022
0.4961662
0.506651
0.5017947
0.4952601
0.4899443
0.4868512
0.4866692
0.4895438
0.4952806
0.5028221
0.4582147
0.5017936
0.4952539
0.4899146
0.4867554
0.4864149
0.48899
0.4941288
0.4482466
0.4503422
0.5017947
0.4952539
0.4898903
0.4866556
0.4861575
0.4884965
0.4935768
0.4479979
0.4249213
0.4466881
0.424671
0.450095
0.6499309
0.6994327
0.6991453
0.6990261
0.6989764
0.6989589
0.6989586
0.6989653
0.6989718
0.6500037
0.6991615
0.6981775
0.6974707
0.6970983
0.6969307
0.696874
0.6968765
0.6969048
0.6969317
0.7001275
0.6984389
0.696666
0.6952699
0.6944873
0.6941307
0.6940087
0.6940132
0.6940737
0.6941318
0.7003605
0.6979778
0.6955385
0.6934361
0.6921661
0.6915792
0.6913774
0.6913804
0.6914739
0.6915661
0.700464
0.6977287
0.6949083
0.6923322
0.6906661
0.6898626
0.6895853
0.689584
0.6897043
0.6898265
0.7004468
0.697602
0.6946038
0.6917996
0.6899151
0.688972
0.6886465
0.6886443
0.6887848
0.6889299
0.7004296
0.697541
0.6944641
0.6915649
0.6895937
0.6885984
0.6882589
0.688266
0.6884254
0.6885888
0.7004221
0.6975146
0.6944081
0.6914787
0.6894879
0.688493
0.6881734
0.6882096
0.6883968
0.6885816
0.7004201
0.6975084
0.6943998
0.6914792
0.6895171
0.6885755
0.6883291
0.6884407
0.6886863
0.6889073
0.7004216
0.6975162
0.6944261
0.6915497
0.689674
0.6888729
0.6888147
0.6891167
0.6894972
0.6897888
0.7004254
0.6975346
0.6944828
0.6916935
0.6899939
0.6895064
0.6898683
0.6905586
0.6911783
0.6915658
0.7004306
0.6975608
0.694566
0.6919138
0.6905199
0.6905668
0.6916389
0.6929449
0.6938643
0.6943124
0.7004355
0.6975897
0.6946643
0.6921837
0.6911867
0.6919182
0.6939079
0.6960252
0.6971564
0.6975102
0.7004399
0.697618
0.6947607
0.6924449
0.6918042
0.6931245
0.6959106
0.6476788
0.6492013
0.6495109
0.7004445
0.6976439
0.6948426
0.6926501
0.6922348
0.6938512
0.6968223
0.6488915
0.6124616
0.7004497
0.6976667
0.6949074
0.6928001
0.6925138
0.6942365
0.6971154
0.6993152
0.6500643
0.7004544
0.6976849
0.6949579
0.6929269
0.6927728
0.69463
0.697662
0.7003932
0.6505985
0.7004569
0.6976948
0.694988
0.6930139
0.6929699
0.6949619
0.6981827
0.7021118
0.7004563
0.6976937
0.6949882
0.6930187
0.6929803
0.6949751
0.6981939
0.7021089
0.7004537
0.6976844
0.6949632
0.6929468
0.692813
0.6946854
0.6977398
0.7004461
0.6510604
0.7004511
0.6976738
0.6949301
0.69285
0.6925958
0.6943373
0.6972647
0.6494694
0.6501679
0.7004503
0.6976679
0.6949004
0.6927498
0.6923651
0.6939767
0.6969223
0.6491315
0.6249697
0.648456
0.6248598
0.6499702
0.8499828
0.8998342
0.8997313
0.8996819
0.8996606
0.8996536
0.8996533
0.8996562
0.8996591
0.8499875
0.8997664
0.8994677
0.8992233
0.8990792
0.8990093
0.8989841
0.8989838
0.8989952
0.8990063
0.8999351
0.8995571
0.8990258
0.8985516
0.898251
0.8981013
0.898046
0.8980448
0.8980687
0.8980924
0.8999304
0.8994262
0.898695
0.8979727
0.8974706
0.8972149
0.8971213
0.8971175
0.8971545
0.8971923
0.8999309
0.899354
0.8984997
0.8975944
0.8969091
0.8965415
0.8964082
0.8964006
0.896449
0.8964998
0.8999237
0.8993102
0.8983954
0.8973998
0.89661
0.8961701
0.8960111
0.8960016
0.8960583
0.8961187
0.8999127
0.8992802
0.8983392
0.8973105
0.8964843
0.8960208
0.8958552
0.895849
0.8959133
0.8959811
0.8999051
0.8992621
0.8983115
0.8972756
0.8964453
0.8959842
0.8958284
0.8958353
0.8959116
0.895988
0.8999023
0.8992565
0.8983063
0.8972771
0.8964626
0.8960274
0.8959054
0.8959465
0.8960483
0.8961407
0.8999047
0.899263
0.8983211
0.8973112
0.8965366
0.8961668
0.8961318
0.8962606
0.8964209
0.8965407
0.8999103
0.8992786
0.8983532
0.8973792
0.8966857
0.8964613
0.8966174
0.8968955
0.8971319
0.8972779
0.8999163
0.8992965
0.8983951
0.8974796
0.8969293
0.896929
0.8973316
0.8977863
0.8981006
0.8982573
0.8999178
0.8993091
0.8984377
0.8975966
0.8972225
0.8974637
0.8981106
0.8987809
0.8991421
0.8992602
0.8999166
0.8993176
0.8984758
0.8977042
0.8974728
0.8979014
0.8987596
0.8491106
0.8497032
0.8498292
0.8999184
0.8993296
0.8985113
0.8977887
0.8976403
0.8981617
0.8990563
0.8495864
0.8124879
0.8999251
0.8993472
0.8985456
0.8978541
0.8977496
0.8983062
0.8991599
0.8998102
0.8500434
0.8999332
0.8993639
0.8985737
0.897907
0.8978402
0.8984376
0.8993145
0.8999765
0.8503527
0.8999366
0.8993698
0.8985854
0.8979369
0.8979001
0.8985378
0.8994568
0.9002006
0.8999324
0.8993606
0.8985741
0.8979273
0.8978937
0.8985355
0.8994576
0.9002003
0.8999235
0.8993408
0.8985441
0.8978812
0.8978239
0.8984351
0.8993286
0.8999955
0.849542
0.8999152
0.8993193
0.8985065
0.8978187
0.8977266
0.8983027
0.8991918
0.84995
0.8500863
0.8999096
0.8993012
0.8984683
0.8977458
0.8976056
0.8981424
0.8990621
0.8496867
0.82498
0.8494128
0.8249468
0.849994
1.050001
1.100054
1.100057
1.100057
1.100062
1.100065
1.100064
1.100063
1.100064
1.050001
1.1002
1.100399
1.100533
1.100607
1.100643
1.100654
1.10065
1.10064
1.100634
1.100118
1.100458
1.100892
1.101231
1.101431
1.101523
1.101552
1.101543
1.10152
1.1015
1.100175
1.100684
1.101347
1.101937
1.102321
1.102503
1.102559
1.102548
1.102509
1.102472
1.100206
1.100826
1.101642
1.102436
1.103008
1.103298
1.103389
1.103377
1.103323
1.10327
1.100212
1.100876
1.10178
1.102695
1.103393
1.103764
1.103881
1.103869
1.103804
1.103738
1.100195
1.100866
1.10182
1.102801
1.103561
1.10397
1.104098
1.104084
1.104008
1.103933
1.100162
1.100843
1.10182
1.102833
1.103619
1.104037
1.104161
1.104134
1.104045
1.10396
1.100144
1.100833
1.101814
1.102833
1.103613
1.104012
1.104105
1.104044
1.103928
1.103825
1.100161
1.100841
1.101816
1.102813
1.103553
1.103885
1.103891
1.103741
1.103566
1.103433
1.100183
1.100865
1.10182
1.10277
1.103419
1.103601
1.103412
1.103112
1.102859
1.102699
1.100182
1.100884
1.101812
1.102694
1.10319
1.10314
1.102701
1.102223
1.101892
1.101722
1.100184
1.100874
1.101778
1.102587
1.102904
1.102608
1.101922
1.101228
1.100855
1.100728
1.1002
1.100846
1.101734
1.102484
1.10266
1.102175
1.101273
1.050256
1.050086
1.050039
1.100205
1.10084
1.10171
1.102412
1.102505
1.101925
1.100982
1.050118
1.012506
1.100215
1.100866
1.101714
1.102373
1.102412
1.101794
1.100893
1.100207
1.050006
1.100247
1.100897
1.101723
1.10234
1.102331
1.101669
1.100745
1.100047
1.050106
1.100257
1.100902
1.101714
1.102305
1.102261
1.101559
1.100596
1.099822
1.100228
1.100872
1.101682
1.102275
1.102235
1.101537
1.10058
1.099816
1.100189
1.100819
1.101634
1.102253
1.10225
1.101597
1.100688
1.100021
1.049065
1.100149
1.100767
1.101582
1.102226
1.102266
1.101666
1.100791
1.050257
1.049992
1.100113
1.100724
1.101527
1.102184
1.102265
1.101722
1.100862
1.050083
1.024985
1.050121
1.025005
1.050008
1.250012
1.299877
1.299653
1.299554
1.299576
1.29959
1.299588
1.299585
1.299591
1.250021
1.30075
1.301512
1.30201
1.302274
1.302401
1.302444
1.302436
1.30241
1.302395
1.300267
1.301619
1.303203
1.304396
1.305051
1.305346
1.305441
1.305428
1.305368
1.305316
1.300249
1.302303
1.304566
1.306464
1.307594
1.308105
1.308272
1.308255
1.30816
1.30807
1.300291
1.302697
1.305347
1.30773
1.309258
1.309983
1.310221
1.310205
1.31008
1.309956
1.300239
1.302804
1.30568
1.308329
1.310098
1.310971
1.311258
1.311242
1.311094
1.310945
1.300105
1.302744
1.305769
1.30857
1.310457
1.311396
1.311702
1.311677
1.311508
1.311338
1.299863
1.302663
1.305765
1.308642
1.310576
1.311528
1.311819
1.311765
1.311567
1.311374
1.299686
1.302629
1.305749
1.308637
1.310555
1.311461
1.311681
1.311552
1.311294
1.311063
1.299857
1.302656
1.305749
1.308583
1.310411
1.311174
1.311205
1.310884
1.310489
1.310186
1.300065
1.302736
1.305755
1.308472
1.310108
1.310551
1.310158
1.309446
1.308809
1.308406
1.29997
1.30281
1.305732
1.308283
1.309598
1.309498
1.308391
1.307061
1.306122
1.305655
1.299968
1.302776
1.30564
1.308023
1.30894
1.308152
1.306124
1.303982
1.302833
1.302461
1.30022
1.30267
1.305515
1.30776
1.308329
1.306954
1.304125
1.251483
1.250499
1.250269
1.300234
1.302647
1.305445
1.307569
1.307913
1.306243
1.303227
1.250698
1.212524
1.300225
1.302738
1.305448
1.307454
1.307657
1.305882
1.302964
1.30072
1.249975
1.300568
1.30284
1.305466
1.307358
1.307412
1.3055
1.302433
1.299659
1.249852
1.300605
1.302862
1.305449
1.307269
1.307206
1.305154
1.301897
1.297937
1.300286
1.302774
1.305385
1.307221
1.307161
1.305109
1.301858
1.297922
1.300093
1.302622
1.305294
1.307215
1.307271
1.305352
1.302271
1.299592
1.248439
1.299833
1.302488
1.305204
1.307214
1.307408
1.305633
1.30268
1.25061
1.249906
1.299613
1.302397
1.305121
1.307193
1.307514
1.305887
1.302981
1.250535
1.225
1.250905
1.225067
1.250023
1.449808
1.499271
1.498426
1.498284
1.498354
1.498374
1.498354
1.498359
1.49841
1.449824
1.50188
1.503519
1.504372
1.504745
1.504924
1.504987
1.504967
1.504933
1.504941
1.500372
1.503717
1.507158
1.509167
1.51007
1.510442
1.51056
1.510544
1.510477
1.510426
1.498905
1.505099
1.509423
1.512307
1.513709
1.51429
1.514475
1.514459
1.51436
1.514267
1.500247
1.505802
1.510494
1.513853
1.515596
1.516341
1.516584
1.516568
1.516442
1.516318
1.498985
1.505864
1.510881
1.514511
1.516444
1.517291
1.51757
1.517552
1.517405
1.517258
1.499883
1.505507
1.510932
1.514756
1.516798
1.517697
1.517989
1.517962
1.517795
1.51763
1.498644
1.505249
1.510883
1.514821
1.516913
1.517821
1.518097
1.518042
1.517847
1.517659
1.49845
1.50516
1.510849
1.514812
1.516892
1.517756
1.517965
1.517837
1.517583
1.517357
1.498625
1.505235
1.510863
1.514762
1.516754
1.517485
1.517518
1.517206
1.516813
1.516509
1.49984
1.505488
1.510914
1.51466
1.516466
1.516904
1.516517
1.515752
1.515036
1.51458
1.498512
1.505834
1.510931
1.514475
1.515978
1.515849
1.514544
1.512793
1.511469
1.510827
1.498435
1.505758
1.51082
1.514201
1.51531
1.514299
1.511367
1.507834
1.505843
1.505246
1.499797
1.505351
1.510639
1.513908
1.514634
1.512745
1.508115
1.453248
1.451136
1.45069
1.499767
1.505306
1.510553
1.513694
1.514152
1.511787
1.506601
1.451594
1.412552
1.498777
1.505691
1.510594
1.513571
1.513863
1.51133
1.506176
1.501731
1.449991
1.50067
1.50599
1.510652
1.513472
1.513572
1.510732
1.505101
1.497269
1.449838
1.500809
1.506064
1.510647
1.513381
1.513314
1.51015
1.504011
1.493446
1.499068
1.505851
1.510556
1.51333
1.513263
1.510079
1.503921
1.493405
1.499897
1.505388
1.510413
1.513323
1.513419
1.510511
1.504728
1.497165
1.445467
1.498638
1.505073
1.510278
1.513326
1.513606
1.511011
1.505778
1.451245
1.448771
1.498373
1.504898
1.51017
1.513312
1.513751
1.511403
1.506323
1.451242
1.425121
1.452155
1.425172
1.449936
1.649651
1.647659
1.644267
1.644096
1.644161
1.644256
1.644172
1.644168
1.6443
1.649497
1.705469
1.708441
1.709499
1.709835
1.710011
1.710087
1.710049
1.710012
1.710077
1.648038
1.708611
1.713856
1.715976
1.71672
1.716994
1.717077
1.717065
1.717022
1.716999
1.699897
1.710248
1.716178
1.718906
1.719939
1.720324
1.72044
1.720432
1.720374
1.720321
1.701642
1.710975
1.717049
1.720032
1.721227
1.72169
1.721834
1.721825
1.721754
1.721684
1.700888
1.711064
1.717333
1.72046
1.721748
1.722258
1.722418
1.722408
1.722325
1.722243
1.646688
1.710705
1.717347
1.720605
1.721952
1.722488
1.722654
1.722638
1.722544
1.722453
1.64467
1.710292
1.717276
1.720638
1.722016
1.722556
1.722713
1.722682
1.722572
1.722467
1.644266
1.710124
1.717237
1.72063
1.722004
1.72252
1.722639
1.722565
1.72242
1.722292
1.644292
1.710273
1.717264
1.720605
1.721929
1.722368
1.72238
1.72219
1.721956
1.721777
1.645306
1.710687
1.717339
1.720554
1.721764
1.72202
1.721748
1.721235
1.72076
1.720465
1.700593
1.711037
1.717372
1.72045
1.721467
1.721324
1.720296
1.718835
1.717699
1.717174
1.700211
1.710916
1.717294
1.72028
1.721027
1.720151
1.717253
1.713253
1.710785
1.710119
1.645995
1.71047
1.717155
1.720091
1.720558
1.718845
1.713509
1.656626
1.652589
1.651986
1.645047
1.710387
1.71709
1.719953
1.720226
1.718039
1.711779
1.653533
1.612615
1.699589
1.710724
1.717124
1.719878
1.720044
1.717749
1.711851
1.653598
1.647945
1.701662
1.71106
1.717174
1.719822
1.719876
1.717371
1.711168
1.653046
1.647091
1.702093
1.7112
1.717186
1.719771
1.719724
1.71693
1.709844
1.650111
1.649126
1.700969
1.71107
1.71714
1.719743
1.719688
1.71685
1.709615
1.649406
1.649538
1.646734
1.710657
1.717036
1.719737
1.719778
1.717177
1.710649
1.651039
1.640747
1.644748
1.710226
1.716919
1.719736
1.719893
1.71753
1.711384
1.653013
1.647469
1.644214
1.709986
1.716827
1.719725
1.719993
1.717803
1.711588
1.653181
1.624975
1.64402
1.654794
1.625411
1.649894
1.825212
1.821923
1.85082
1.821166
1.823034
1.82348
1.823516
1.823061
1.822496
1.822363
1.902526
1.904594
1.905229
1.905386
1.905474
1.905505
1.905485
1.90547
1.905519
1.821945
1.904658
1.908457
1.909587
1.909885
1.909977
1.910003
1.909999
1.909988
1.909984
1.849377
1.905615
1.909671
1.911034
1.911414
1.911528
1.911561
1.911559
1.911545
1.911532
1.85014
1.905947
1.910014
1.911444
1.911864
1.911995
1.912034
1.912032
1.912014
1.911997
1.850653
1.905992
1.910104
1.91157
1.912011
1.912153
1.912195
1.912193
1.912172
1.912152
1.85171
1.905747
1.910095
1.911607
1.912064
1.912213
1.912256
1.912252
1.912229
1.912206
1.824029
1.905606
1.910063
1.911613
1.91208
1.91223
1.912271
1.912263
1.912236
1.91221
1.823646
1.905585
1.910048
1.91161
1.912077
1.912221
1.912252
1.912233
1.912196
1.912163
1.821404
1.905573
1.910057
1.911605
1.912058
1.912181
1.912182
1.912129
1.912065
1.912017
1.852567
1.905738
1.910093
1.911595
1.912012
1.912069
1.911969
1.911804
1.911653
1.911558
1.853191
1.905979
1.910117
1.91157
1.911917
1.911736
1.911247
1.910719
1.910241
1.909971
1.850252
1.905916
1.910094
1.911522
1.911772
1.911207
1.90885
1.907835
1.905663
1.905139
1.847968
1.905698
1.910044
1.911466
1.911616
1.910717
1.907921
1.862345
1.857188
1.856908
1.823608
1.905624
1.910022
1.911425
1.911503
1.910344
1.906125
1.858219
1.812861
1.848579
1.905817
1.91004
1.911406
1.911446
1.910182
1.906161
1.858887
1.826932
1.849191
1.905955
1.910062
1.911394
1.911405
1.910112
1.906209
1.859907
1.830757
1.850505
1.906044
1.910072
1.911383
1.911368
1.910006
1.905806
1.859049
1.830358
1.85069
1.906004
1.910059
1.911377
1.911357
1.909962
1.905584
1.857918
1.829481
1.851834
1.905752
1.910017
1.911373
1.911376
1.910014
1.905704
1.857954
1.829392
1.825037
1.905589
1.90997
1.911369
1.911406
1.910093
1.905823
1.858265
1.829801
1.823167
1.90546
1.909935
1.911364
1.911443
1.910275
1.906047
1.858106
1.823666
1.821929
1.859897
1.826416
1.825765
0.02105791
0.04704421
0.1736954
0.1780135
0.1458646
0.0208632
0.04603955
0.04445342
0.1458468
0.1478576
0.1433438
0.1418959
0.02085706
0.04402056
0.04380504
0.1463722
0.1488637
0.1409692
0.1404791
0.02086624
0.04375006
0.04372371
0.1492116
0.1493567
0.1403153
0.140226
0.02086777
0.04371504
0.04371076
0.1493546
0.1493563
0.1401963
0.1401722
0.02086809
0.0437088
0.04370778
0.1493532
0.1493508
0.1401652
0.140158
0.02086809
0.04370739
0.04370762
0.1493503
0.1493502
0.140157
0.1401565
0.02086814
0.04370829
0.04370997
0.1493509
0.1493525
0.1401591
0.140164
0.02086893
0.04371305
0.04371794
0.1493553
0.1493603
0.140172
0.1401834
0.0437231
0.1493658
0.1401935
0.04736317
0.04616332
0.1776257
0.1450747
0.1794127
0.1444836
0.0458944
0.04574606
0.1794154
0.1442294
0.179449
0.1440528
0.0457179
0.04570187
0.1794561
0.1439919
0.1794639
0.1439511
0.04569821
0.04569635
0.1794639
0.1439379
0.1794637
0.1439269
0.04569555
0.045695
0.1794638
0.1439234
0.1794638
0.1439195
0.04569472
0.04569449
0.1794638
0.1439185
0.1794638
0.143917
0.04569443
0.04569434
0.1794638
0.1439167
0.1794638
0.1439163
0.04569431
0.04569432
0.1794638
0.1439162
0.1794638
0.1439162
0.04569434
0.04569438
0.1794638
0.1439163
0.1794638
0.1439166
0.04569443
0.04569451
0.1794638
0.1439168
0.1794638
0.1439174
0.04569459
0.0456947
0.1794639
0.1439177
0.1794639
0.1439185
0.04569479
0.04569492
0.1794639
0.143919
0.1794639
0.1439198
0.04569501
0.04569514
0.179464
0.1439203
0.179464
0.1439211
0.04502313
0.02276607
0.02241296
0.1426864
0.1429886
0.1741111
0.1743508
0.04569523
0.04569534
0.179464
0.1439216
0.179464
0.1439223
0.01019995
0.1871534
0.1765436
0.04569542
0.04569552
0.179464
0.1439227
0.1794641
0.1439233
0.01020436
0.1737804
0.1705496
0.04569558
0.04569565
0.1794641
0.1439236
0.1794641
0.143924
0.01020736
0.1705954
0.1708085
0.0456957
0.04569572
0.1794641
0.1439242
0.1794641
0.1439244
0.01020815
0.1708522
0.1709581
0.04569573
0.04569573
0.1794641
0.1439245
0.1794641
0.1439244
0.01020711
0.1709547
0.1708302
0.04569571
0.04569568
0.1794641
0.1439244
0.1794641
0.1439241
0.01020221
0.170777
0.1705896
0.04569568
0.0456957
0.1794641
0.1439242
0.1794641
0.1439242
0.01019804
0.1710888
0.1747552
0.0456958
0.04569606
0.1794641
0.1439247
0.1794642
0.1439257
0.01024713
0.009877392
0.1745908
0.1869745
0.1748196
0.009767925
0.1745159
0.0456966
0.1794643
0.143928
0.2234496
0.2261513
0.2484654
0.3754109
0.375568
0.3493797
0.2460765
0.2243968
0.2238171
0.3473643
0.3478991
0.3747424
0.3754397
0.2256385
0.3873865
0.375466
0.2120812
0.224851
0.3749418
0.3873292
0.3749731
0.4243979
0.4245012
0.4497179
0.57552
0.5755439
0.5498576
0.4486926
0.4247925
0.4244795
0.5488552
0.5492084
0.5748871
0.5755196
0.4244295
0.5874485
0.5754519
0.4123728
0.4249983
0.5749963
0.5874182
0.5749973
0.6244572
0.6244711
0.6499252
0.7755295
0.7755332
0.7499575
0.6494516
0.624908
0.624502
0.7495002
0.7496782
0.7749514
0.7755089
0.6244817
0.787476
0.7754871
0.6124546
0.6250131
0.7750106
0.7874571
0.7749951
0.8244641
0.8244664
0.84998
0.9755343
0.9755323
0.9499917
0.8497989
0.8249648
0.8244948
0.9499148
0.9499516
0.9749942
0.9755069
0.8245042
0.9874943
0.9754921
0.8124917
0.8250094
0.9750152
0.9874818
0.9749924
1.024467
1.024466
1.050005
1.175533
1.175536
1.150016
1.050048
1.025006
1.024493
1.150297
1.1502
1.175036
1.175506
1.024508
1.187512
1.175497
1.012516
1.025007
1.175024
1.187507
1.17499
1.224466
1.22447
1.250035
1.375529
1.375527
1.350056
1.250318
1.225049
1.224492
1.350796
1.35054
1.375092
1.375497
1.224515
1.387539
1.375523
1.212541
1.225004
1.375106
1.38755
1.374986
1.424457
1.424453
1.450101
1.575505
1.575494
1.550191
1.424555
1.587597
1.575587
1.412586
1.425001
1.576472
1.587634
1.574998
1.62445
1.624428
1.650418
1.774345
1.773835
1.751101
1.624559
1.787791
1.774536
1.612673
1.625023
1.774433
1.787943
1.775017
1.823561
1.821969
1.853466
1.952376
1.822903
1.855006
1.85584
1.953086
1.954416
1.823493
1.85616
1.856654
1.954346
1.954826
1.822133
1.857038
1.856757
1.978778
1.955169
1.954859
1.821946
1.856402
1.856531
1.95445
1.954583
1.823584
1.856961
1.857131
1.955051
1.955153
1.850961
1.857171
1.857259
1.978789
1.955143
1.955249
1.822082
1.856889
1.856701
1.954918
1.954672
1.856919
1.95484
1.854726
1.821341
1.855526
1.952534
1.953898
1.855977
1.846228
1.856677
1.954477
1.954907
1.857812
1.849282
1.858854
1.955407
1.978777
1.955872
1.859443
1.850399
1.859651
1.97903
1.956166
1.97913
1.956245
1.859644
1.853234
1.859387
1.979141
1.956246
1.979161
1.95619
1.858779
1.85258
1.858101
1.979122
1.95604
1.979018
1.95565
1.85717
1.822472
1.856722
1.954993
1.954644
1.856576
1.822377
1.856584
1.954952
1.954747
1.856596
1.823988
1.857118
1.954501
1.954976
1.858084
1.851695
1.858765
1.979018
1.955647
1.979122
1.956037
1.859355
1.8505
1.859559
1.979161
1.956183
1.979131
1.956221
1.859394
1.851879
1.858763
1.979109
1.956157
1.978936
1.955842
1.857635
1.823068
1.857081
1.955383
1.954972
1.856587
1.825872
1.825046
1.955046
1.954729
1.977248
1.990071
1.852359
1.954851
1.977117
1.857294
1.848457
1.857522
1.955197
1.95539
1.823857
1.989802
1.990455
1.857687
1.846998
1.85822
1.955321
1.955551
1.830762
1.977407
1.97933
1.859036
1.850247
1.859514
1.978905
1.955906
1.979098
1.956188
1.830501
1.979421
1.979384
1.859706
1.850502
1.859748
1.979121
1.956257
1.979133
1.956269
1.829584
1.979218
1.990158
1.859687
1.853262
1.859421
1.979141
1.956256
1.979173
1.9562
1.82944
1.990144
1.990104
1.858866
1.853213
1.858349
1.979145
1.95608
1.978973
1.955851
1.829671
1.990054
1.990416
1.857535
1.822511
1.857012
1.97899
1.955326
1.954868
1.826422
1.976878
1.989918
1.857039
1.82302
1.856922
1.95508
1.955036
1.813061
1.824124
1.990058
1.989926
1.989735
1.823973
1.989738
1.856471
1.954564
0.07250238
0.02342395
0.07186881
0.02274321
0.07192502
0.0226249
0.07178316
0.02251954
0.07179789
0.022457
0.07176907
0.02250114
0.07177288
0.02244982
0.07176705
0.02250076
0.07176938
0.02244953
0.07176662
0.02250074
0.07176859
0.02244942
0.07176647
0.0225007
0.07176838
0.02244939
0.07176643
0.02250068
0.07176831
0.02244938
0.07176642
0.02250067
0.0717683
0.02244937
0.07176643
0.02250067
0.07176831
0.02244937
0.07176645
0.02250068
0.07176832
0.02244938
0.07176649
0.02250069
0.07176835
0.02244939
0.07176654
0.0225007
0.07176841
0.02244941
0.07176658
0.02250072
0.07176846
0.02244942
0.04353484
0.04344741
0.02212581
0.1376595
0.1405688
0.1402875
0.1446502
0.02159967
0.1422722
0.1462241
0.07176663
0.02250074
0.07176851
0.02244943
0.02258791
0.04483221
0.0228095
0.1418993
0.1734125
0.1420723
0.1465683
0.01023401
0.08624112
0.07334706
0.07176667
0.02250075
0.07176855
0.02244945
0.02280048
0.04482005
0.02280694
0.141947
0.1462144
0.1419086
0.1462263
0.01020066
0.07327853
0.0732586
0.07176671
0.02250076
0.07176859
0.02244945
0.02281048
0.04486208
0.02281842
0.1420096
0.1463295
0.1421979
0.1464402
0.01020592
0.07331047
0.0733278
0.07176672
0.02250076
0.07176862
0.02244945
0.02281991
0.04489249
0.02282254
0.1423739
0.1465184
0.1424601
0.1465551
0.01020758
0.07336032
0.07336735
0.07176673
0.02250076
0.07176863
0.02244946
0.02282243
0.04487995
0.02281875
0.1424582
0.1465496
0.1423701
0.1464995
0.01020759
0.07337423
0.07337036
0.07176672
0.02250076
0.07176863
0.02244945
0.02281641
0.04483495
0.02280438
0.1422011
0.1464008
0.1420484
0.1462694
0.01020507
0.07334169
0.07332347
0.07176671
0.02250075
0.07176861
0.02244945
0.0227996
0.04482752
0.02279891
0.1420279
0.1462176
0.1421364
0.146419
0.01019779
0.07326196
0.07326733
0.07176676
0.02250076
0.07176863
0.02244945
0.02281028
0.0446073
0.02248286
0.142177
0.1466551
0.1418266
0.173232
0.01022397
0.07329006
0.07333434
0.07176707
0.02250078
0.07176882
0.02244951
0.02279097
0.1735995
0.1740883
0.1516081
0.2749049
0.2248145
0.2434322
0.2429238
0.2466138
0.3433827
0.3457066
0.3453005
0.3478618
0.2238947
0.244744
0.2482048
0.3465339
0.3745129
0.3467771
0.3489686
0.2247737
0.2873254
0.2748455
0.2482725
0.2444523
0.2237534
0.3469373
0.3490371
0.3465325
0.3744605
0.2246815
0.3749558
0.2244697
0.3745869
0.3748146
0.474988
0.4249782
0.4470563
0.4467277
0.4485602
0.5467627
0.5479898
0.5477899
0.5490266
0.4245969
0.4478598
0.4492412
0.5484313
0.574788
0.5486084
0.5495497
0.4249135
0.4874261
0.4749373
0.4249004
0.5501271
0.5750144
0.4494019
0.4476762
0.4245628
0.5487287
0.5496209
0.5484816
0.5747724
0.4250459
0.5749951
0.4248866
0.5748265
0.5749336
0.6750034
0.624997
0.6486002
0.6484265
0.6493279
0.7485263
0.7490965
0.7490167
0.7495701
0.6248193
0.6489918
0.6497054
0.7493142
0.7749133
0.7494082
0.7498244
0.6249684
0.6874652
0.6749807
0.6497528
0.6489468
0.6248095
0.749471
0.7498463
0.7493479
0.7749065
0.6250641
0.7749801
0.6249754
0.7749271
0.7749664
0.8749978
0.8250023
0.8494786
0.8494033
0.8497511
0.9497539
0.9498384
0.9498413
0.9499251
0.8249286
0.8496239
0.8498974
0.9498908
0.9749946
0.9499178
0.9499728
0.8249875
0.8874858
0.874996
0.8249702
0.9500079
0.975029
0.8499137
0.8496078
0.8249255
0.9499077
0.9499723
0.9498805
0.9749897
0.8250464
0.9749659
0.8250014
0.9749887
0.9749816
1.075001
1.025001
1.025006
1.050094
1.05003
1.150423
1.175073
1.150389
1.150107
1.024999
1.087503
1.075007
1.050028
1.050092
1.025005
1.150309
1.150093
1.150368
1.175071
1.025034
1.174953
1.025016
1.175047
1.174996
1.275008
1.225006
1.225088
1.250609
1.250181
1.351124
1.375183
1.351033
1.350304
1.225011
1.287523
1.27502
1.224985
1.349753
1.375025
1.25018
1.250635
1.225092
1.350872