/*--------------------------------*- C++ -*----------------------------------*\
  =========                 |
  \\      /  F ield         | OpenFOAM: The Open Source CFD Toolbox
   \\    /   O peration     | Website:  https://openfoam.org
    \\  /    A nd           | Version:  7
     \\/     M anipulation  |
\*---------------------------------------------------------------------------*/
FoamFile
{
    version     2.0;
    format      ascii;
    class       volScalarField;
    location    "0.1";
    object      epsilon;
}
// * * * * * * * * * * * * * * * * * * * * * * * * * * * * * * * * * * * * * //

dimensions      [0 2 -3 0 0 0 0];

internalField   nonuniform List<scalar> 
78470
(
0.004897898
0.004883414
0.004884881
0.004891006
0.004896039
0.004899165
0.004902638
0.004906159
0.00491016
0.0009466454
0.0009758795
0.0009839886
0.000985968
0.0009867805
0.0009870492
0.0009871715
0.0009871755
0.0009872316
0.0009663595
0.001012526
0.001026605
0.001030292
0.001031579
0.001032009
0.001032151
0.001032131
0.001032109
0.0009726345
0.001024713
0.001042001
0.001046729
0.001048465
0.001048967
0.001049107
0.00104902
0.001048928
0.0009740609
0.001027982
0.00104624
0.00105159
0.001053543
0.001054182
0.001054328
0.001054194
0.001054011
0.0009743904
0.001028985
0.001047667
0.001053232
0.001055363
0.001056017
0.001056174
0.001055988
0.001055713
0.000974438
0.001029319
0.001048142
0.001053834
0.001056022
0.001056742
0.001056919
0.001056731
0.001056435
0.0009745255
0.001029457
0.001048327
0.001054013
0.001056266
0.001057006
0.001057219
0.001057058
0.001056759
0.0009745224
0.001029456
0.00104835
0.001053995
0.001056194
0.001056895
0.001057122
0.001057009
0.001056743
0.0009743828
0.001029287
0.00104815
0.001053648
0.001055698
0.001056159
0.001056234
0.001056061
0.001055784
0.0009743268
0.0010291
0.001047747
0.001052873
0.001054205
0.001053634
0.001052775
0.001052058
0.001051456
0.000974245
0.001028723
0.001047037
0.001051304
0.001049832
0.001044825
0.001040572
0.001036842
0.001034456
0.0009741322
0.001028115
0.001045936
0.00104886
0.001042872
0.001016584
0.001005897
0.0009860815
0.0009845644
0.0009739748
0.001027542
0.001044612
0.001045966
0.001035414
0.001005263
0.002199515
0.002147508
0.002141716
0.0009737359
0.00102685
0.00104325
0.001043211
0.001028489
0.0009808415
0.002085998
0.01057686
0.0009732975
0.001026271
0.001042062
0.001041122
0.001023866
0.0009749435
0.002049312
0.009190192
0.0009730354
0.001025868
0.00104144
0.001039613
0.001021561
0.0009717329
0.002030824
0.008553339
0.0009729803
0.001025608
0.001041346
0.001039161
0.001020731
0.0009697654
0.00202401
0.008288335
0.0009730516
0.001025965
0.001041912
0.001040084
0.001022013
0.0009716513
0.002034207
0.008769022
0.0009733144
0.001026588
0.001043051
0.001041952
0.001024993
0.0009765168
0.002052934
0.009269961
0.0009736847
0.001027559
0.001044574
0.001044481
0.001028806
0.0009810093
0.002078014
0.009897673
0.0009740819
0.001028506
0.001046274
0.001047463
0.001034481
0.0009887293
0.002106795
0.01092026
0.00220082
0.006971584
0.004587644
0.00208016
0.0009783021
0.0009985972
0.001003776
0.001004986
0.001005386
0.001005577
0.001005719
0.001005854
0.01079756
0.01041429
0.01039954
0.01041581
0.01042177
0.01042217
0.01042227
0.01042236
0.01042249
0.01042268
0.01082033
0.01036282
0.01038155
0.01041118
0.01042306
0.01042391
0.0104258
0.01042608
0.01042628
0.0104265
0.01086178
0.01035449
0.01038229
0.0104035
0.01042216
0.01042337
0.01042554
0.01042588
0.01042633
0.01042644
0.01088012
0.01034235
0.01037959
0.01039783
0.01042212
0.01042255
0.01042583
0.01042589
0.01042632
0.01042633
0.01088224
0.01033473
0.01038099
0.0103971
0.01042191
0.01042265
0.01042586
0.01042598
0.01042633
0.01042618
0.01088742
0.01033215
0.01038229
0.010396
0.01042176
0.01042307
0.01042629
0.01042624
0.01042636
0.01042633
0.01089212
0.01032695
0.01038089
0.01039563
0.01042134
0.01042364
0.01042666
0.01042671
0.01042692
0.01042696
0.01089502
0.0103268
0.01038505
0.01039643
0.01042121
0.01042365
0.01042723
0.01042731
0.01042778
0.01042804
0.01089404
0.01033067
0.01038592
0.01039719
0.01042151
0.01042451
0.01042825
0.01042943
0.01043016
0.01043034
0.01089291
0.0103336
0.01038685
0.0103967
0.01042211
0.01042599
0.01043024
0.01043201
0.01043461
0.0104333
0.01088918
0.01033706
0.01038458
0.01039732
0.01042343
0.01042961
0.01043423
0.01044225
0.01044463
0.01044122
0.01088579
0.01033673
0.01038757
0.01039909
0.01042672
0.01043405
0.01044533
0.01046944
0.01048954
0.01043133
0.01087269
0.01033607
0.01038924
0.01040017
0.01043067
0.01044244
0.01047767
0.01051114
0.01128555
0.0104607
0.01088901
0.01033685
0.01038854
0.01040466
0.01043454
0.01044765
0.01048914
0.0107549
0.0168246
0.01083995
0.01035275
0.01039311
0.01040674
0.01043489
0.01044665
0.0104749
0.01054953
0.003269393
0.01079883
0.01035897
0.01039529
0.0104128
0.01043643
0.01044551
0.01046545
0.01050409
0.002897534
0.01077889
0.0103542
0.01039707
0.01041871
0.01043857
0.01044748
0.01046506
0.01049111
0.003181386
0.01077825
0.01035091
0.01040055
0.01042424
0.01044051
0.01045053
0.01047305
0.01049614
0.003274108
0.01078964
0.01034168
0.01039919
0.01042658
0.01044256
0.01045604
0.01048744
0.01051691
0.003145561
0.01080262
0.01034241
0.01039928
0.01042492
0.01044471
0.01046463
0.01051504
0.01061503
0.003429974
0.01081068
0.01034527
0.01039896
0.01042401
0.01044557
0.01047092
0.01054256
0.01075281
0.004407345
0.0108153
0.01071838
0.02154444
0.01152781
0.00209907
0.0009961407
0.001029203
0.001038012
0.001040343
0.001040984
0.001041262
0.001041412
0.001041573
0.01077657
0.0104469
0.01041959
0.010398
0.01042392
0.01042571
0.01042592
0.01042604
0.01042619
0.01042639
0.0105894
0.01045137
0.01043282
0.01043001
0.01042955
0.01042957
0.01042962
0.01042971
0.01042984
0.01043002
0.01059593
0.01044487
0.01043164
0.01043003
0.0104296
0.0104297
0.01042971
0.01042979
0.01042986
0.01042998
0.0105877
0.01043965
0.01043143
0.01043001
0.01042964
0.01042984
0.01042984
0.01042986
0.01042987
0.01042988
0.01058722
0.01043957
0.01043164
0.01043005
0.0104299
0.01043004
0.01043002
0.01043002
0.01042994
0.01042985
0.01058586
0.01043958
0.01043265
0.01043023
0.01043024
0.01043023
0.01043024
0.01043026
0.01043017
0.01043002
0.01059001
0.01044185
0.01043206
0.01043047
0.01043044
0.01043045
0.01043061
0.01043075
0.01043069
0.01043055
0.010587
0.01044267
0.01043296
0.01043044
0.01043066
0.0104308
0.01043112
0.0104316
0.01043177
0.01043174
0.0105907
0.01044358
0.01043328
0.01043058
0.01043095
0.01043142
0.01043201
0.01043335
0.01043396
0.01043392
0.01058662
0.01044006
0.01043341
0.01043078
0.01043133
0.01043262
0.01043396
0.01043698
0.01043838
0.01043747
0.01058862
0.01044376
0.01043327
0.01043119
0.01043191
0.01043409
0.01043832
0.01044583
0.01044894
0.01044473
0.01058898
0.01044078
0.01043331
0.01043152
0.01043306
0.01043821
0.01044896
0.01047219
0.01049451
0.01045051
0.01058608
0.01044145
0.01043488
0.01043193
0.01043536
0.01044622
0.01047885
0.01050674
0.0112687
0.0104528
0.01058789
0.01044623
0.01043522
0.01043208
0.0104393
0.01045185
0.01049043
0.0107634
0.01678146
0.01059387
0.01044406
0.01043106
0.01043151
0.01044026
0.0104519
0.01047832
0.01053889
0.002868391
0.01059075
0.0104492
0.01043187
0.01043275
0.01044171
0.01044743
0.01047156
0.0104968
0.002466497
0.01059114
0.01044455
0.01043188
0.0104332
0.01044298
0.01044906
0.01046648
0.0007246082
0.0105873
0.01044222
0.01043646
0.0104371
0.01044494
0.01045397
0.01046516
0.0007277122
0.01059044
0.01044031
0.01043434
0.01043736
0.01044747
0.01046152
0.01048465
0.009773157
0.004157569
0.01059341
0.01044187
0.01043701
0.01043774
0.01045039
0.0104662
0.01052181
0.01050716
0.00308005
0.01060008
0.0104431
0.01043682
0.0104392
0.01045024
0.01047404
0.01054522
0.01075565
0.004387105
0.0107064
0.02151917
0.01164407
0.002102526
0.001002578
0.00103961
0.001050635
0.001053551
0.001054357
0.001054684
0.001054836
0.001054986
0.01080943
0.01045245
0.01041217
0.01039471
0.01042369
0.0104257
0.01042594
0.01042606
0.01042621
0.01042642
0.01060746
0.01044537
0.0104333
0.0104301
0.01042951
0.01042954
0.01042961
0.01042972
0.01042985
0.01043002
0.01059443
0.01044807
0.01043152
0.01042963
0.01042958
0.01042961
0.0104297
0.01042979
0.01042987
0.01042998
0.01061272
0.01044393
0.01043086
0.01042971
0.01042965
0.01042978
0.0104298
0.01042986
0.01042987
0.01042989
0.01061211
0.01044836
0.01043095
0.01043005
0.01042984
0.01042988
0.01042995
0.01042999
0.01042993
0.01042985
0.0105979
0.01045197
0.01043095
0.01043126
0.01042999
0.0104301
0.01043012
0.01043021
0.01043014
0.01043001
0.01061476
0.01044642
0.01043067
0.01043168
0.01043011
0.01043061
0.0104305
0.01043071
0.01043065
0.01043052
0.01060984
0.0104454
0.01043064
0.01043175
0.01043029
0.01043104
0.01043122
0.01043161
0.01043177
0.01043175
0.01061612
0.01044539
0.01043098
0.01043186
0.01043058
0.01043166
0.01043234
0.01043348
0.01043398
0.01043394
0.01060182
0.01044987
0.01043104
0.01043212
0.01043096
0.01043268
0.01043441
0.01043698
0.01043833
0.01043763
0.01060603
0.01044621
0.0104316
0.01043193
0.0104315
0.01043406
0.01043794
0.01044579
0.01044915
0.01044484
0.0105949
0.01044703
0.0104316
0.01043171
0.01043278
0.01043826
0.01044867
0.01047256
0.01049451
0.01045092
0.01061816
0.0104477
0.01043064
0.01043209
0.0104349
0.01044593
0.01047848
0.01050492
0.01126869
0.01044104
0.01061604
0.01044579
0.01043188
0.01043151
0.0104379
0.01045162
0.01048985
0.01075842
0.01676909
0.010597
0.01044595
0.01043041
0.01043102
0.01044021
0.01045359
0.01048044
0.01053834
0.002841681
0.01060919
0.0104457
0.01043282
0.01043242
0.0104431
0.01044857
0.0104737
0.01049898
0.002486513
0.01060317
0.01044554
0.01043255
0.01043266
0.01044367
0.01044912
0.0104679
0.0007799908
0.01059929
0.01044266
0.01043432
0.01043649
0.01044463
0.01045415
0.01046494
0.0007840639
0.01059792
0.01044306
0.01043446
0.01043736
0.01044708
0.0104617
0.01048493
0.009758389
0.004215246
0.01060091
0.01044366
0.01043651
0.010438
0.01045056
0.01046636
0.0105248
0.01050189
0.003089825
0.010608
0.01044572
0.01043603
0.01043924
0.01045011
0.01047407
0.01054618
0.01075982
0.004391154
0.01070614
0.02158787
0.01163808
0.002104516
0.001003979
0.001041851
0.001053351
0.001056451
0.001057323
0.001057677
0.001057828
0.001057974
0.01083328
0.01045111
0.01041394
0.01039058
0.01042339
0.01042565
0.01042591
0.01042605
0.0104262
0.01042641
0.01059088
0.0104413
0.01043291
0.01042961
0.01042933
0.01042948
0.01042959
0.0104297
0.01042984
0.01043002
0.0106252
0.0104465
0.01043114
0.01042962
0.01042954
0.01042957
0.01042969
0.01042977
0.01042985
0.01042997
0.01059466
0.01044419
0.01043012
0.01043029
0.01042966
0.01042977
0.01042978
0.01042984
0.01042986
0.01042988
0.01061378
0.01044725
0.01043106
0.01043069
0.01042987
0.01043
0.01042996
0.01042999
0.01042992
0.01042984
0.01061498
0.01044359
0.01043137
0.01043081
0.01043007
0.01043031
0.01043021
0.01043027
0.01043017
0.01043001
0.01059943
0.01044396
0.01043181
0.0104304
0.01043045
0.01043041
0.01043059
0.01043076
0.0104307
0.01043055
0.01061583
0.010443
0.01043196
0.01043052
0.01043064
0.01043075
0.01043105
0.01043157
0.01043177
0.01043176
0.01059872
0.01044671
0.0104323
0.01043067
0.01043089
0.01043122
0.01043186
0.01043329
0.01043392
0.01043391
0.0106123
0.01044813
0.01043231
0.01043127
0.01043132
0.01043248
0.01043408
0.01043676
0.01043822
0.01043755
0.01061094
0.01044403
0.01043236
0.01043143
0.01043183
0.01043415
0.01043762
0.01044562
0.01044887
0.01044441
0.0106081
0.01044402
0.01043301
0.0104313
0.01043294
0.01043814
0.01044869
0.01047261
0.01049438
0.01045079
0.01062984
0.01044439
0.01043308
0.01043181
0.01043579
0.01044607
0.0104788
0.01050524
0.01126919
0.01044047
0.01060561
0.01044952
0.01043348
0.01043201
0.0104397
0.0104523
0.01049051
0.0107591
0.01676901
0.01062575
0.01044187
0.01043033
0.01043095
0.01043998
0.01045167
0.01047887
0.01053895
0.002842555
0.01059888
0.01044231
0.01043321
0.01043153
0.01044176
0.01044763
0.01047284
0.01049908
0.002497282
0.01060101
0.01044062
0.01043191
0.0104313
0.01044344
0.01044959
0.01046768
0.0007962534
0.01059555
0.01044249
0.01043379
0.01043573
0.01044405
0.01045365
0.01046432
0.0008005149
0.01060033
0.01044331
0.01043662
0.01043815
0.01044747
0.01046173
0.01048483
0.009758382
0.004287888
0.0105995
0.01044191
0.01043778
0.01043867
0.01045177
0.01046685
0.01052495
0.01050368
0.003099013
0.01060947
0.01044377
0.01043603
0.01043861
0.01045037
0.01047409
0.01054616
0.01076128
0.00439368
0.01070572
0.02161978
0.01162747
0.002104603
0.001003071
0.001040278
0.001051404
0.001054393
0.00105522
0.001055564
0.001055708
0.001055851
0.0108664
0.01045158
0.01041291
0.0103908
0.0104233
0.01042563
0.01042591
0.01042604
0.0104262
0.01042641
0.01058531
0.01043993
0.01043329
0.01042938
0.01042951
0.0104295
0.01042958
0.0104297
0.01042984
0.01043002
0.01059294
0.01044468
0.01042998
0.01042984
0.01042955
0.01042957
0.01042969
0.01042978
0.01042986
0.01042997
0.01060119
0.01044561
0.01043097
0.01043093
0.0104297
0.0104299
0.01042985
0.01042987
0.01042986
0.01042988
0.01062615
0.0104434
0.01043192
0.01043061
0.01043008
0.01043009
0.01043004
0.01043006
0.01042995
0.01042985
0.01060309
0.01044819
0.01043214
0.01043034
0.01043035
0.0104302
0.01043025
0.01043028
0.01043017
0.01043003
0.01060753
0.01044791
0.01043216
0.0104307
0.01043038
0.01043046
0.01043057
0.01043073
0.01043066
0.01043053
0.0105988
0.0104463
0.01043206
0.01043055
0.01043059
0.01043072
0.01043107
0.01043157
0.01043175
0.01043175
0.01061529
0.01044818
0.01043259
0.0104307
0.01043089
0.01043116
0.01043192
0.01043331
0.01043389
0.01043389
0.0106185
0.01045069
0.01043337
0.01043094
0.01043127
0.01043234
0.01043382
0.01043667
0.01043815
0.01043753
0.01060187
0.01044952
0.01043321
0.01043133
0.01043238
0.01043399
0.01043789
0.01044547
0.01044863
0.01044441
0.01059776
0.01044248
0.01043219
0.01043109
0.01043273
0.01043801
0.01044897
0.01047269
0.01049431
0.01045085
0.01060192
0.01044779
0.01043356
0.01043082
0.01043625
0.01044572
0.01047794
0.01050424
0.01126824
0.01043979
0.01065628
0.010455
0.01043569
0.01043283
0.0104417
0.01045391
0.01049237
0.01075948
0.01677118
0.01060277
0.01044206
0.01043271
0.01043221
0.01044066
0.01045034
0.01047977
0.01053899
0.00284254
0.01059643
0.01043983
0.01043063
0.01043154
0.01044074
0.01044778
0.01047251
0.01049856
0.002498791
0.01059774
0.01044156
0.01043397
0.01043184
0.01044321
0.0104495
0.01046748
0.0007962595
0.01059655
0.01044184
0.0104337
0.01043487
0.01044449
0.01045374
0.01046447
0.0008004263
0.01059564
0.01044255
0.01043553
0.0104377
0.01044713
0.01046152
0.0104847
0.009759056
0.004282814
0.01059967
0.01044177
0.01043809
0.01043888
0.01045185
0.01046702
0.01052506
0.01050364
0.003098091
0.0106074
0.01044323
0.01043596
0.01043868
0.01045044
0.01047409
0.01054612
0.01076173
0.004392878
0.0107053
0.0216254
0.01162987
0.002103323
0.0009974667
0.001031252
0.001040258
0.001042724
0.001043354
0.001043644
0.001043751
0.001043878
0.01082118
0.01045204
0.01042105
0.01039599
0.01042378
0.01042565
0.0104259
0.01042603
0.01042618
0.01042639
0.01059787
0.01044495
0.01043275
0.01042962
0.01042973
0.01042953
0.01042962
0.01042972
0.01042985
0.01043003
0.01062915
0.01045375
0.01043178
0.01043106
0.01042958
0.0104297
0.01042969
0.01042978
0.01042986
0.01042997
0.01059361
0.01044393
0.01043125
0.01042997
0.01042993
0.01042983
0.01042984
0.01042986
0.01042988
0.01042989
0.01061005
0.01045378
0.01043138
0.01043109
0.01042976
0.01043002
0.01042991
0.01042997
0.01042991
0.01042983
0.01062688
0.01045095
0.01043154
0.01043138
0.01042998
0.01043027
0.01043017
0.01043023
0.01043013
0.01043
0.01060057
0.01045155
0.0104311
0.01043171
0.01043006
0.0104306
0.0104306
0.01043073
0.01043065
0.01043049
0.0106199
0.01044658
0.01043106
0.01043175
0.01043034
0.01043101
0.01043113
0.01043158
0.01043173
0.01043172
0.01061526
0.0104474
0.01043105
0.01043174
0.01043059
0.0104317
0.01043229
0.01043341
0.01043391
0.01043386
0.01061202
0.01044803
0.01043148
0.01043151
0.01043087
0.01043256
0.01043435
0.01043687
0.01043823
0.01043755
0.01060694
0.010452
0.01043276
0.01043172
0.01043163
0.0104341
0.01043811
0.01044578
0.01044901
0.01044473
0.01059273
0.01044302
0.01043132
0.01043145
0.0104328
0.01043832
0.01044881
0.01047262
0.01049459
0.01045101
0.01062363
0.01044432
0.0104307
0.01043156
0.01043517
0.01044573
0.01047867
0.01050526
0.01126756
0.01043883
0.01064494
0.01045214
0.01043133
0.01043063
0.01043667
0.01045052
0.01048877
0.01075557
0.01676082
0.01060101
0.01044559
0.0104366
0.01043075
0.01044433
0.0104551
0.0104818
0.01053937
0.00284472
0.01060724
0.01043862
0.01043417
0.01043437
0.01044316
0.01044717
0.01047335
0.01049847
0.002495956
0.01059817
0.01044228
0.01043184
0.01043319
0.01044197
0.01044897
0.01046785
0.000780096
0.01059367
0.01044153
0.01043836
0.0104354
0.01044519
0.01045475
0.01046522
0.0007837847
0.01059402
0.01044465
0.01043476
0.01043738
0.0104469
0.01046145
0.01048456
0.00975798
0.004281253
0.01060226
0.01044446
0.01043637
0.01043814
0.01045086
0.01046632
0.01052433
0.01049846
0.003092956
0.01060744
0.0104458
0.01043613
0.01043908
0.01045022
0.01047376
0.01054598
0.01076406
0.004392433
0.01070502
0.02162985
0.01163038
0.002093718
0.00098131
0.001003006
0.001008501
0.001009791
0.001010143
0.001010465
0.001010408
0.001010572
0.01082009
0.01045165
0.01042818
0.01040373
0.01042422
0.01042562
0.01042582
0.01042595
0.0104261
0.0104263
0.01059748
0.01044275
0.01043377
0.01043012
0.01042951
0.01042958
0.0104296
0.01042971
0.01042985
0.01043002
0.01058153
0.01044152
0.01043216
0.01042981
0.01042965
0.01042962
0.01042971
0.01042978
0.01042986
0.01042997
0.01062232
0.01044924
0.01043121
0.01043132
0.01042968
0.01042989
0.01042985
0.01042987
0.01042987
0.01042988
0.01058294
0.01044648
0.01043086
0.01043151
0.01042995
0.0104302
0.01043007
0.01043005
0.01042995
0.01042985
0.01061034
0.01044404
0.01043484
0.01043103
0.01043025
0.01043033
0.01043029
0.0104303
0.01043017
0.01043002
0.01059009
0.01044275
0.01043411
0.01043068
0.01043051
0.01043048
0.01043061
0.01043075
0.01043067
0.01043053
0.01059092
0.01044694
0.01043313
0.01043083
0.01043064
0.01043083
0.01043111
0.01043159
0.01043173
0.0104317
0.01059384
0.01044473
0.01043427
0.0104308
0.01043097
0.01043136
0.01043197
0.0104333
0.01043388
0.01043383
0.01061739
0.01044337
0.01043596
0.01043176
0.01043164
0.0104325
0.010434
0.01043687
0.01043824
0.01043737
0.01058259
0.01044429
0.01043045
0.01043197
0.01043196
0.01043443
0.01043834
0.01044591
0.01044885
0.01044459
0.01059658
0.01044131
0.0104304
0.01043122
0.01043264
0.01043802
0.01044869
0.01047225
0.01049451
0.01045045
0.01060424
0.0104433
0.01043149
0.01043175
0.01043476
0.01044598
0.01047875
0.01050656
0.01126596
0.01044921
0.01059556
0.01044379
0.01043882
0.01043248
0.01043992
0.01045163
0.01049049
0.01075898
0.01674672
0.01062745
0.01044518
0.01043125
0.01043143
0.01043892
0.01044932
0.01047833
0.01053929
0.002848239
0.01059426
0.01043921
0.01043395
0.01043079
0.0104436
0.0104498
0.01047224
0.01049781
0.002477908
0.01061067
0.01043791
0.01043328
0.01043452
0.01044307
0.01044849
0.0104666
0.0007251925
0.01060081
0.01044442
0.01043482
0.01043554
0.01044431
0.01045361
0.0104654
0.0007273473
0.01060615
0.0104453
0.01043529
0.01043735
0.01044697
0.01046156
0.01048317
0.009775889
0.004164378
0.01059395
0.01044325
0.01043834
0.01043882
0.01045079
0.01046622
0.01051881
0.01049029
0.002990314
0.0105983
0.01044347
0.01043685
0.01043915
0.01045042
0.01047304
0.01054548
0.01077072
0.004252043
0.01070114
0.02155368
0.01162411
0.002071188
0.002151473
0.002223049
0.002238574
0.0022364
0.002237841
0.002241419
0.002238181
0.002241127
0.01086345
0.01038581
0.01039331
0.0104231
0.01042506
0.01042537
0.01042548
0.01042625
0.01042608
0.01042331
0.01077346
0.01035087
0.01038871
0.0104112
0.01042278
0.01042391
0.0104259
0.01042616
0.01042634
0.01042654
0.0106082
0.01026383
0.01037911
0.01040139
0.0104226
0.01042413
0.01042569
0.01042618
0.01042634
0.01042606
0.01061076
0.01025863
0.01038029
0.01039744
0.01042161
0.01042324
0.01042606
0.0104263
0.01042634
0.0104263
0.01060183
0.01025107
0.01038194
0.01039435
0.0104201
0.01042281
0.01042611
0.01042638
0.01042638
0.01042607
0.01077279
0.01032582
0.01039746
0.01040427
0.01042273
0.01042323
0.01042579
0.01042577
0.0104262
0.0104261
0.01077061
0.01032496
0.01038643
0.01039719
0.01041976
0.01042235
0.01042626
0.0104264
0.01042662
0.01042667
0.01076773
0.01032024
0.01038174
0.01039751
0.01042003
0.01042293
0.01042691
0.01042682
0.01042736
0.01042764
0.01077123
0.01031766
0.01038769
0.01039865
0.01042154
0.01042442
0.01042823
0.01042944
0.01042988
0.01043023
0.01080331
0.01031627
0.01039616
0.0104034
0.01042342
0.01042658
0.01043023
0.01043186
0.01043409
0.01043267
0.01061571
0.0102491
0.010384
0.01039577
0.01042472
0.01043005
0.01043405
0.01044223
0.01044427
0.01044104
0.01059879
0.01025298
0.01038201
0.01039684
0.01042735
0.01043421
0.01044512
0.01046923
0.01049044
0.01043118
0.0107922
0.01030604
0.01039148
0.01040077
0.01043058
0.01044226
0.01047765
0.01050902
0.01127582
0.01047376
0.01078881
0.01032032
0.0103995
0.01040825
0.01043464
0.01044825
0.01048866
0.01075727
0.01668472
0.0105994
0.01024353
0.01038875
0.01039937
0.01043544
0.01044903
0.01047607
0.01054819
0.002934739
0.01061107
0.0102377
0.01038696
0.0104104
0.01043729
0.01044396
0.01046612
0.01050476
0.002471651
0.01059375
0.01025929
0.01039612
0.01040867
0.01043907
0.01044662
0.01046553
0.01049313
0.004439435
0.01061131
0.01027385
0.01040122
0.01041437
0.01044126
0.01044948
0.01047363
0.01050309
0.004580113
0.01077198
0.01032185
0.01040609
0.01042272
0.01044306
0.01045541
0.01048718
0.01046964
0.00334691
0.01086381
0.01033462
0.01040399
0.01042398
0.01044523
0.01046431
0.01051044
0.01062239
0.002513495
0.01082657
0.01034272
0.01040231
0.01042476
0.01044633
0.0104699
0.01054425
0.01070274
0.003649413
0.01083103
0.01071135
0.02122215
0.01151742
0.004619114
0.004958876
0.002141281
0.005062199
0.004949643
0.005011143
0.004961077
0.004944741
0.005035902
0.01110246
0.0009454087
0.0009705265
0.0009772208
0.0009786896
0.0009799361
0.0009803181
0.0009802447
0.0009802511
0.0009809361
0.01135767
0.0009671461
0.001011862
0.001025034
0.00102819
0.001029588
0.001029932
0.001030023
0.001030018
0.001030116
0.01077915
0.0009771478
0.001025741
0.001041865
0.00104597
0.001047694
0.001048167
0.001048321
0.001048256
0.001048205
0.01077677
0.0009802548
0.001029591
0.001046719
0.001051348
0.001053263
0.00105383
0.00105402
0.001053878
0.001053709
0.01077148
0.0009810077
0.00103065
0.001048268
0.001053142
0.001055205
0.001055828
0.001056012
0.001055823
0.00105556
0.0108389
0.000977772
0.001030627
0.001048788
0.001053961
0.001056165
0.001056751
0.001056889
0.001056669
0.001056362
0.01107572
0.0009773657
0.001030663
0.001048966
0.001054245
0.00105637
0.00105701
0.0010572
0.001057012
0.001056704
0.01106847
0.0009771726
0.001030431
0.001048894
0.001054211
0.001056338
0.00105694
0.001057134
0.001056982
0.001056696
0.01109515
0.0009768778
0.001030328
0.001048549
0.001053786
0.001055732
0.001056149
0.001056205
0.001056011
0.001055712
0.01085954
0.0009775069
0.001030335
0.001048272
0.001053001
0.001054328
0.00105363
0.001052755
0.001051954
0.001051275
0.01080334
0.0009806184
0.001030253
0.00104752
0.001051318
0.00104981
0.00104476
0.001040484
0.001036513
0.001033837
0.01080298
0.0009796885
0.001029666
0.0010465
0.001048845
0.001042933
0.001016571
0.00100581
0.0009851155
0.0009819969
0.01084632
0.0009775427
0.00102919
0.001045413
0.001046144
0.00103562
0.001005389
0.008310793
0.01123702
0.01047678
0.01108139
0.0009762975
0.001027901
0.001043809
0.001043293
0.001028845
0.0009819598
0.009096924
0.01682848
0.01082169
0.0009788597
0.001027673
0.001042742
0.001041162
0.001024657
0.0009786699
0.009471821
0.003666167
0.0108026
0.0009797815
0.001027433
0.001042084
0.001039873
0.00102271
0.0009774333
0.009649099
0.003351201
0.01079321
0.0009803622
0.001027705
0.001042035
0.001039395
0.001021625
0.0009733656
0.009750205
0.003366473
0.01081141
0.0009799476
0.001028004
0.001042534
0.001040252
0.001022485
0.0009729994
0.009750293
0.0034163
0.01086552
0.0009772772
0.0010284
0.001043455
0.001042155
0.001025326
0.0009773303
0.009660835
0.003447153
0.0110907
0.0009766126
0.001028791
0.001044944
0.001044657
0.001029184
0.0009825377
0.009467933
0.003498873
0.01115168
0.0009757184
0.001029109
0.001046312
0.00104738
0.001034563
0.0009896019
0.009097543
0.0042324
0.0112237
0.008024993
0.02182705
0.01328352
0.005231859
0.001971718
0.004929832
0.01117796
0.01041613
0.004855935
0.002037968
0.002109201
0.002084515
0.002166853
0.01035682
0.01038302
0.004851891
0.002130129
0.002139899
0.00213308
0.002184003
0.01031796
0.01025497
0.00485918
0.002145653
0.00214552
0.002200501
0.002206943
0.01034615
0.01030987
0.004864031
0.002149424
0.002147949
0.002212041
0.002210591
0.01034488
0.01032495
0.00486793
0.002150805
0.002148751
0.002213947
0.002211775
0.01034902
0.01033356
0.004871143
0.002151535
0.002149423
0.002214814
0.002212456
0.0103467
0.01033008
0.004874632
0.002152149
0.00214993
0.002215498
0.002213135
0.01034601
0.01032956
0.004878365
0.002152586
0.002150237
0.002216188
0.002213865
0.01034466
0.01032645
0.002152861
0.00221701
0.01034272
0.001952326
0.002006084
0.01108743
0.01027681
0.0111823
0.01030949
0.002019824
0.002026108
0.01111732
0.01031462
0.01119886
0.0103084
0.002028206
0.00202928
0.01112065
0.01034017
0.0112193
0.01031646
0.002029648
0.002030454
0.01112088
0.01034718
0.01123816
0.01032861
0.002030876
0.002031241
0.01112004
0.01034954
0.01125059
0.01033949
0.002031068
0.00203146
0.01111996
0.01035312
0.01126052
0.01033506
0.002031218
0.002031479
0.01111681
0.01035063
0.01125868
0.01033411
0.002031357
0.002031474
0.01111244
0.01034693
0.01125703
0.01033642
0.002031256
0.002030452
0.01110994
0.01034296
0.01125234
0.01033487
0.002030832
0.002031242
0.01110998
0.01034426
0.01124952
0.01032689
0.002030811
0.002030987
0.01110884
0.01034856
0.01124307
0.01033629
0.002030175
0.002029362
0.01111329
0.01037116
0.011235
0.010356
0.002030765
0.002030768
0.01112192
0.01036547
0.01121061
0.01036061
0.002134991
0.004848292
0.004562322
0.01123831
0.01070497
0.01142603
0.004443764
0.002031611
0.00202916
0.0111249
0.0103528
0.0111152
0.01035908
0.0093622
0.01681349
0.003975533
0.002028897
0.002029577
0.01121347
0.01033985
0.0110981
0.01035037
0.008603483
0.003645032
0.003327937
0.002030166
0.002028118
0.01115176
0.01032197
0.0111462
0.01032519
0.008304561
0.00331052
0.003312928
0.002028464
0.002026898
0.01117294
0.01030643
0.01116507
0.01032192
0.008704907
0.003328875
0.003387963
0.00202959
0.002027468
0.01117818
0.01030115
0.01116691
0.01032449
0.009141424
0.003404141
0.003429398
0.002031578
0.002028493
0.01117999
0.0103093
0.01118417
0.01033267
0.009690815
0.003443966
0.003477058
0.002033376
0.00202969
0.01119446
0.0103123
0.01119708
0.01033792
0.01055659
0.003557724
0.004272413
0.002035052
0.002030651
0.011205
0.01031369
0.01120215
0.01034122
0.01191037
0.00945935
0.004433095
0.03961895
0.006519743
0.009756584
0.005549596
0.002035946
0.01120885
0.01031306
0.004946498
0.01109986
0.01053182
0.00496716
0.01111062
0.01056428
0.01076798
0.01143643
0.004469152
0.0112798
0.010768
0.01138946
0.004494402
0.003690277
0.01670018
0.003430968
0.0381731
0.006586534
0.004386424
0.03890063
0.006622603
0.004974225
0.01111155
0.01056164
0.004977818
0.01111134
0.01058314
0.01075003
0.011411
0.004490539
0.01126772
0.01075267
0.01139961
0.004495893
0.003424879
0.0167659
0.003421269
0.03844163
0.006630235
0.004391688
0.03905484
0.006629419
0.004976636
0.01112211
0.01058579
0.004982747
0.01112207
0.01058862
0.01075135
0.01140656
0.004496674
0.01126851
0.01075216
0.01140003
0.004497992
0.003422523
0.01677743
0.003422921
0.03893242
0.006656659
0.004393564
0.0391391
0.006639316
0.004986925
0.01113077
0.01060522
0.004985652
0.0111463
0.01059596
0.01075158
0.01140527
0.004498622
0.01126975
0.01075208
0.01140137
0.004498941
0.003423898
0.01677332
0.003423874
0.03911527
0.00665999
0.004392841
0.03918907
0.0066547
0.004991023
0.01112908
0.01061943
0.004985946
0.01113299
0.01060547
0.01075149
0.01140773
0.004498696
0.01126712
0.01075089
0.01140382
0.004498685
0.003424442
0.01676659
0.003424137
0.03917563
0.006658851
0.004392237
0.03915105
0.006660329
0.004988995
0.01112163
0.01060018
0.004985851
0.01112338
0.01059066
0.01075178
0.01140193
0.004497761
0.01126741
0.01075095
0.01140025
0.004496376
0.003423372
0.016755
0.003422874
0.03915294
0.006641604
0.004347643
0.03892509
0.006658309
0.004982571
0.01112386
0.01059527
0.004970184
0.01111186
0.01057212
0.003421658
0.01676087
0.00342552
0.03895117
0.006632945
0.003702662
0.03721665
0.006620955
0.004965722
0.011116
0.01057535
0.00477437
0.01110135
0.01054475
0.003431922
0.01681668
0.003694208
0.03732356
0.006599978
0.003915841
0.03629798
0.006596415
0.004935248
0.01117964
0.01043941
0.001947568
0.004805165
0.01035574
0.01036926
0.00200058
0.002053998
0.004936342
0.01039219
0.01023971
0.002050289
0.002072875
0.005003378
0.01034525
0.01032961
0.00540775
0.002091391
0.00207301
0.005003954
0.01039661
0.01027659
0.002056121
0.00206144
0.004921251
0.01035024
0.0103148
0.002086273
0.00208859
0.0021362
0.01038504
0.01032167
0.005330455
0.002090286
0.002094614
0.004986871
0.01038956
0.01029183
0.002080031
0.002067722
0.01040352
0.002077539
0.01027679
0.01124753
0.01033493
0.001949223
0.002010699
0.01031676
0.01087436
0.01026926
0.00204269
0.002060712
0.01050922
0.01078541
0.01044542
0.002097613
0.004424521
0.00210306
0.01047951
0.01077231
0.01047297
0.004440192
0.002121759
0.004494729
0.002125462
0.01049545
0.01078884
0.01050962
0.004459778
0.002125112
0.004512463
0.00212324
0.01042386
0.01082974
0.01037203
0.004488492
0.002118013
0.004428396
0.002094636
0.01035745
0.01113098
0.01035163
0.002072147
0.002049307
0.01036828
0.01119608
0.01034676
0.002063914
0.002059771
0.01032866
0.01114489
0.01033561
0.002040267
0.002069724
0.01036286
0.01084963
0.01044967
0.004435602
0.002094035
0.004491605
0.002115435
0.01051314
0.01077266
0.01049356
0.004467271
0.002121491
0.004503519
0.002123322
0.01047601
0.01078688
0.01048353
0.004483522
0.002120245
0.004414451
0.002103768
0.01035023
0.01114117
0.01035269
0.002093122
0.002070003
0.01072246