/*--------------------------------*- C++ -*----------------------------------*\
  =========                 |
  \\      /  F ield         | OpenFOAM: The Open Source CFD Toolbox
   \\    /   O peration     | Website:  https://openfoam.org
    \\  /    A nd           | Version:  7
     \\/     M anipulation  |
\*---------------------------------------------------------------------------*/
FoamFile
{
    version     2.0;
    format      ascii;
    class       volScalarField;
    location    "0.1";
    object      epsilon;
}
// * * * * * * * * * * * * * * * * * * * * * * * * * * * * * * * * * * * * * //

dimensions      [0 2 -3 0 0 0 0];

internalField   nonuniform List<scalar> 
105127
(
0.002053865
0.002186007
0.00220133
0.002199551
0.002196612
0.002039045
0.002159665
0.002167675
0.002163986
0.002159341
0.002023337
0.002133937
0.00214225
0.002139837
0.002136063
0.002014301
0.002125826
0.002135518
0.002134224
0.002131079
0.002008278
0.0021208
0.00213163
0.002131106
0.002128644
0.002003134
0.002115845
0.002127216
0.002127274
0.002125251
0.001998929
0.002111696
0.002123462
0.002124001
0.002122302
0.001995286
0.002107958
0.002119929
0.002120717
0.002119316
0.001992136
0.002104685
0.002116809
0.002117797
0.002116659
0.001989347
0.002101748
0.002113966
0.002115096
0.0021141
0.001986864
0.002099111
0.002111396
0.002112626
0.002111748
0.00198463
0.002096735
0.002109049
0.002110354
0.002109568
0.001982607
0.002094574
0.002106902
0.002108269
0.002107552
0.001980763
0.002092594
0.002104925
0.002106345
0.002105683
0.001979081
0.002090768
0.002103114
0.002104563
0.00210394
0.001977582
0.002089085
0.002101434
0.002102908
0.002102316
0.001976213
0.002087527
0.002099869
0.002101368
0.002100803
0.001974944
0.00208608
0.002098405
0.002099933
0.002099392
0.001973763
0.002084731
0.002097054
0.002098601
0.002098071
0.001972663
0.002083471
0.002095789
0.00209736
0.00209683
0.001971636
0.002082292
0.002094599
0.002096191
0.002095663
0.001970672
0.002081177
0.002093466
0.002095082
0.002094574
0.001969746
0.002080071
0.002092326
0.002093963
0.002093524
0.01042414
0.01042379
0.01042396
0.002092552
0.002092213
0.01122491
0.01099929
0.0109891
0.01094007
0.01089562
0.01049676
0.0104584
0.01045922
0.01044683
0.01044306
0.01044058
0.01048748
0.01045074
0.01044416
0.01044055
0.01043848
0.01043699
0.01046293
0.01044329
0.01044165
0.01043965
0.01043827
0.010437
0.01045744
0.01043931
0.01043774
0.01043653
0.01043564
0.01043483
0.01045252
0.01043602
0.01043569
0.01043511
0.01043461
0.01043405
0.01044987
0.01043408
0.01043381
0.01043346
0.01043314
0.01043278
0.01044752
0.01043245
0.01043243
0.01043229
0.01043214
0.0104319
0.01044571
0.01043127
0.01043129
0.01043123
0.01043116
0.01043102
0.01044413
0.01043028
0.01043035
0.01043036
0.01043035
0.01043028
0.01044277
0.01042947
0.01042956
0.0104296
0.01042963
0.0104296
0.01044157
0.01042878
0.01042887
0.01042893
0.01042899
0.01042899
0.01044051
0.01042818
0.01042828
0.01042835
0.01042842
0.01042844
0.01043955
0.01042766
0.01042775
0.01042783
0.0104279
0.01042794
0.01043868
0.01042719
0.01042728
0.01042736
0.01042744
0.01042749
0.01043789
0.01042677
0.01042685
0.01042693
0.01042702
0.01042707
0.01043716
0.01042639
0.01042647
0.01042655
0.01042663
0.01042669
0.01043649
0.01042604
0.01042612
0.0104262
0.01042628
0.01042634
0.01043587
0.01042573
0.0104258
0.01042587
0.01042595
0.01042601
0.01043529
0.01042544
0.0104255
0.01042558
0.01042565
0.01042571
0.01043475
0.01042517
0.01042523
0.0104253
0.01042537
0.01042543
0.01043425
0.01042492
0.01042498
0.01042504
0.01042511
0.01042517
0.01043379
0.01042469
0.01042474
0.0104248
0.01042487
0.01042492
0.01043234
0.01042448
0.01042452
0.01042458
0.01042464
0.0104247
0.01123727
0.01095593
0.01095202
0.01091075
0.01087267
0.01048764
0.01045672
0.01045777
0.01044674
0.01044304
0.01044048
0.01048144
0.01045014
0.01044421
0.01044058
0.01043826
0.01043671
0.01045729
0.01044256
0.01044174
0.01043997
0.01043837
0.01043701
0.0104521
0.010439
0.01043767
0.01043649
0.01043553
0.01043473
0.01044845
0.01043576
0.01043565
0.01043509
0.01043455
0.01043394
0.0104461
0.01043391
0.01043378
0.01043343
0.01043304
0.01043267
0.01044428
0.01043231
0.01043241
0.01043225
0.01043205
0.0104318
0.01044276
0.01043115
0.01043127
0.01043118
0.01043106
0.01043091
0.01044147
0.01043017
0.01043033
0.01043031
0.01043026
0.01043018
0.01044033
0.01042937
0.01042953
0.01042954
0.01042953
0.01042949
0.01043931
0.01042869
0.01042884
0.01042888
0.0104289
0.01042889
0.0104384
0.0104281
0.01042825
0.01042829
0.01042833
0.01042834
0.01043757
0.01042758
0.01042772
0.01042777
0.01042781
0.01042784
0.01043681
0.01042711
0.01042724
0.0104273
0.01042735
0.01042739
0.01043611
0.0104267
0.01042682
0.01042688
0.01042693
0.01042697
0.01043546
0.01042632
0.01042643
0.01042649
0.01042654
0.01042659
0.01043486
0.01042598
0.01042608
0.01042614
0.01042619
0.01042624
0.01043431
0.01042566
0.01042576
0.01042581
0.01042587
0.01042592
0.01043379
0.01042537
0.01042547
0.01042551
0.01042557
0.01042561
0.01043331
0.01042511
0.01042519
0.01042524
0.01042529
0.01042533
0.01043286
0.01042486
0.01042494
0.01042498
0.01042503
0.01042507
0.01043243
0.01042463
0.0104247
0.01042474
0.01042479
0.01042483
0.01043199
0.01042442
0.01042448
0.01042452
0.01042456
0.01042461
0.01124859
0.0109514
0.01094363
0.01090738
0.01087443
0.01048534
0.01045554
0.01045797
0.01044676
0.01044296
0.01044036
0.01048485
0.01044979
0.01044391
0.01044043
0.01043807
0.01043647
0.01045705
0.0104425
0.0104413
0.01043948
0.01043807
0.0104367
0.01045343
0.01043885
0.0104375
0.0104364
0.01043545
0.01043465
0.01044879
0.01043559
0.0104355
0.01043507
0.01043451
0.01043392
0.01044654
0.01043385
0.01043373
0.01043341
0.01043302
0.01043264
0.01044452
0.01043223
0.01043235
0.01043224
0.01043204
0.0104318
0.01044297
0.01043109
0.01043122
0.01043117
0.01043106
0.01043091
0.01044161
0.01043011
0.01043028
0.0104303
0.01043026
0.01043017
0.01044044
0.01042931
0.01042949
0.01042954
0.01042954
0.01042949
0.0104394
0.01042863
0.0104288
0.01042887
0.0104289
0.01042889
0.01043847
0.01042803
0.01042821
0.01042829
0.01042833
0.01042834
0.01043763
0.01042751
0.01042768
0.01042777
0.01042782
0.01042784
0.01043686
0.01042705
0.01042721
0.0104273
0.01042735
0.01042739
0.01043615
0.01042664
0.01042678
0.01042687
0.01042693
0.01042698
0.0104355
0.01042626
0.0104264
0.01042649
0.01042655
0.01042659
0.0104349
0.01042592
0.01042605
0.01042613
0.0104262
0.01042624
0.01043434
0.01042561
0.01042573
0.01042581
0.01042587
0.01042592
0.01043381
0.01042532
0.01042543
0.01042551
0.01042557
0.01042562
0.01043333
0.01042505
0.01042516
0.01042523
0.01042529
0.01042534
0.01043287
0.01042481
0.01042491
0.01042498
0.01042503
0.01042508
0.01043245
0.01042458
0.01042468
0.01042474
0.01042479
0.01042483
0.01043201
0.01042437
0.01042446
0.01042452
0.01042457
0.01042461
0.01120603
0.01095029
0.01094061
0.01090576
0.01087347
0.01048454
0.01045564
0.01045783
0.01044682
0.01044284
0.01044024
0.01048324
0.0104498
0.0104437
0.0104403
0.01043814
0.01043647
0.010457
0.01044235
0.01044105
0.01043904
0.01043766
0.01043649
0.01045346
0.01043866
0.01043738
0.01043629
0.01043539
0.01043461
0.01044865
0.01043542
0.01043544
0.01043499
0.01043446
0.01043391
0.01044646
0.01043376
0.01043367
0.01043336
0.01043301
0.01043263
0.01044446
0.01043214
0.01043228
0.0104322
0.01043203
0.01043179
0.01044291
0.01043101
0.01043116
0.01043114
0.01043105
0.01043091
0.01044156
0.01043004
0.01043022
0.01043027
0.01043025
0.01043017
0.0104404
0.01042925
0.01042943
0.01042951
0.01042953
0.01042949
0.01043936
0.01042856
0.01042875
0.01042885
0.01042889
0.01042889
0.01043843
0.01042798
0.01042816
0.01042826
0.01042832
0.01042834
0.01043759
0.01042746
0.01042763
0.01042774
0.01042781
0.01042784
0.01043682
0.010427
0.01042716
0.01042727
0.01042735
0.01042739
0.01043612
0.01042659
0.01042674
0.01042685
0.01042693
0.01042698
0.01043547
0.01042621
0.01042636
0.01042646
0.01042654
0.01042659
0.01043487
0.01042587
0.01042601
0.01042611
0.01042619
0.01042624
0.01043431
0.01042556
0.01042569
0.01042579
0.01042586
0.01042592
0.01043379
0.01042528
0.0104254
0.01042549
0.01042556
0.01042562
0.0104333
0.01042501
0.01042513
0.01042522
0.01042529
0.01042534
0.01043285
0.01042477
0.01042488
0.01042496
0.01042503
0.01042508
0.01043242
0.01042454
0.01042464
0.01042472
0.01042479
0.01042483
0.01043199
0.01042433
0.01042443
0.0104245
0.01042456
0.01042461
0.01122148
0.01093884
0.01093769
0.01090184
0.01086726
0.01048459
0.01045555
0.01045804
0.01044672
0.0104429
0.0104403
0.01048159
0.01044963
0.01044393
0.01044047
0.01043815
0.0104365
0.01045699
0.01044235
0.01044107
0.01043934
0.01043795
0.01043663
0.01045373
0.0104387
0.01043745
0.01043638
0.01043546
0.01043465
0.01044868
0.01043544
0.01043545
0.01043502
0.0104345
0.01043391
0.01044649
0.01043377
0.01043368
0.01043337
0.01043301
0.01043264
0.01044448
0.01043215
0.01043229
0.0104322
0.01043203
0.0104318
0.01044293
0.01043101
0.01043116
0.01043114
0.01043105
0.01043091
0.01044158
0.01043004
0.01043022
0.01043027
0.01043025
0.01043018
0.01044041
0.01042925
0.01042943
0.01042951
0.01042953
0.01042949
0.01043937
0.01042856
0.01042875
0.01042885
0.01042889
0.01042889
0.01043844
0.01042798
0.01042816
0.01042826
0.01042832
0.01042834
0.0104376
0.01042746
0.01042763
0.01042774
0.01042781
0.01042784
0.01043683
0.010427
0.01042716
0.01042727
0.01042735
0.01042739
0.01043613
0.01042659
0.01042674
0.01042685
0.01042693
0.01042698
0.01043547
0.01042621
0.01042636
0.01042646
0.01042654
0.01042659
0.01043487
0.01042587
0.01042601
0.01042611
0.01042619
0.01042624
0.01043431
0.01042556
0.01042569
0.01042579
0.01042586
0.01042592
0.01043379
0.01042528
0.0104254
0.01042549
0.01042556
0.01042562
0.0104333
0.01042501
0.01042513
0.01042522
0.01042529
0.01042534
0.01043285
0.01042477
0.01042488
0.01042496
0.01042503
0.01042508
0.01043243
0.01042454
0.01042464
0.01042472
0.01042479
0.01042484
0.01043199
0.01042433
0.01042443
0.0104245
0.01042456
0.01042461
0.01124131
0.01093695
0.010937
0.01090511
0.01087211
0.01048588
0.01045606
0.01045796
0.01044671
0.01044301
0.01044041
0.01048004
0.01044967
0.01044414
0.01044055
0.01043819
0.01043659
0.01045712
0.01044253
0.01044142
0.01043963
0.01043822
0.01043683
0.01045372
0.01043889
0.01043756
0.01043644
0.01043549
0.01043469
0.01044876
0.01043559
0.0104355
0.01043505
0.01043449
0.01043391
0.01044655
0.01043384
0.01043371
0.01043339
0.01043301
0.01043264
0.01044452
0.01043222
0.01043233
0.01043222
0.01043203
0.01043179
0.01044297
0.01043107
0.0104312
0.01043116
0.01043105
0.0104309
0.01044162
0.01043009
0.01043026
0.01043029
0.01043025
0.01043017
0.01044045
0.0104293
0.01042947
0.01042952
0.01042953
0.01042949
0.01043941
0.01042861
0.01042879
0.01042886
0.01042889
0.01042889
0.01043848
0.01042802
0.01042819
0.01042828
0.01042832
0.01042834
0.01043763
0.0104275
0.01042766
0.01042775
0.01042781
0.01042784
0.01043686
0.01042704
0.01042719
0.01042729
0.01042735
0.01042739
0.01043615
0.01042662
0.01042677
0.01042686
0.01042693
0.01042697
0.0104355
0.01042625
0.01042639
0.01042648
0.01042654
0.01042659
0.0104349
0.01042591
0.01042604
0.01042612
0.01042619
0.01042624
0.01043434
0.0104256
0.01042572
0.0104258
0.01042587
0.01042592
0.01043382
0.01042531
0.01042542
0.0104255
0.01042556
0.01042562
0.01043333
0.01042504
0.01042515
0.01042523
0.01042529
0.01042534
0.01043288
0.0104248
0.0104249
0.01042497
0.01042503
0.01042508
0.01043245
0.01042457
0.01042467
0.01042473
0.01042479
0.01042483
0.01043201
0.01042436
0.01042445
0.01042451
0.01042456
0.01042461
0.01122973
0.01094421
0.01093867
0.01090942
0.01087632
0.01048775
0.01045776
0.01045702
0.01044679
0.01044296
0.01044043
0.01047816
0.0104499
0.01044426
0.01044084
0.01043851
0.01043691
0.01045745
0.01044279
0.01044179
0.01043991
0.01043832
0.01043696
0.010454
0.01043904
0.0104377
0.01043654
0.01043558
0.01043478
0.01044882
0.01043577
0.01043563
0.01043506
0.01043454
0.01043393
0.01044654
0.01043389
0.01043376
0.01043342
0.01043305
0.01043268
0.01044453
0.01043228
0.01043238
0.01043223
0.01043204
0.0104318
0.01044297
0.01043112
0.01043123
0.01043117
0.01043106
0.01043092
0.01044162
0.01043014
0.01043029
0.01043029
0.01043025
0.01043017
0.01044046
0.01042935
0.0104295
0.01042952
0.01042953
0.01042949
0.01043942
0.01042866
0.01042881
0.01042886
0.01042889
0.01042889
0.01043849
0.01042807
0.01042822
0.01042827
0.01042832
0.01042834
0.01043765
0.01042755
0.01042769
0.01042775
0.01042781
0.01042784
0.01043688
0.01042709
0.01042722
0.01042728
0.01042734
0.01042739
0.01043617
0.01042667
0.01042679
0.01042686
0.01042692
0.01042697
0.01043552
0.0104263
0.01042641
0.01042647
0.01042654
0.01042659
0.01043492
0.01042595
0.01042606
0.01042612
0.01042619
0.01042624
0.01043435
0.01042564
0.01042574
0.0104258
0.01042586
0.01042591
0.01043383
0.01042535
0.01042544
0.0104255
0.01042556
0.01042561
0.01043334
0.01042509
0.01042517
0.01042522
0.01042528
0.01042533
0.01043289
0.01042484
0.01042492
0.01042497
0.01042502
0.01042507
0.01043246
0.01042461
0.01042468
0.01042473
0.01042478
0.01042483
0.01043201
0.0104244
0.01042446
0.01042451
0.01042456
0.01042461
0.01115682
0.01096707
0.01095494
0.01091694
0.01087949
0.01049304
0.01046124
0.01045669
0.01044702
0.01044322
0.01044079
0.010478
0.01045026
0.01044449
0.01044086
0.01043875
0.01043722
0.01045897
0.01044329
0.01044159
0.0104396
0.01043819
0.01043689
0.01045493
0.01043922
0.01043778
0.01043658
0.01043568
0.01043485
0.01045002
0.01043593
0.01043563
0.01043507
0.01043458
0.01043402
0.01044761
0.01043399
0.01043377
0.01043345
0.01043314
0.01043278
0.01044548
0.01043237
0.01043238
0.01043226
0.01043212
0.0104319
0.01044382
0.01043119
0.01043125
0.01043121
0.01043115
0.01043102
0.01044239
0.01043021
0.01043031
0.01043034
0.01043034
0.01043028
0.01044116
0.0104294
0.01042952
0.01042958
0.01042962
0.01042959
0.01044006
0.01042871
0.01042883
0.01042892
0.01042898
0.01042899
0.01043909
0.01042812
0.01042824
0.01042833
0.01042841
0.01042844
0.01043821
0.0104276
0.01042771
0.01042781
0.0104279
0.01042794
0.0104374
0.01042713
0.01042724
0.01042734
0.01042743
0.01042749
0.01043667
0.01042671
0.01042682
0.01042692
0.01042701
0.01042707
0.01043599
0.01042634
0.01042644
0.01042654
0.01042663
0.01042669
0.01043536
0.01042599
0.01042609
0.01042619
0.01042627
0.01042634
0.01043478
0.01042568
0.01042577
0.01042586
0.01042595
0.01042601
0.01043424
0.01042539
0.01042547
0.01042556
0.01042565
0.01042571
0.01043374
0.01042512
0.0104252
0.01042529
0.01042537
0.01042543
0.01043327
0.01042488
0.01042495
0.01042503
0.01042511
0.01042516
0.01043283
0.01042465
0.01042471
0.01042479
0.01042486
0.01042492
0.01043234
0.01042444
0.0104245
0.01042457
0.01042464
0.01042469
0.01574382
0.01421605
0.0135399
0.01309877
0.01278389
0.01060875
0.0104844
0.01044577
0.01043404
0.01043247
0.01043182
0.01055932
0.01047531
0.01045989
0.0104522
0.0104479
0.01044544
0.01052194
0.01045546
0.01045092
0.01044753
0.01044543
0.01044463
0.01051127
0.01044989
0.01044577
0.01044351
0.01044173
0.01044122
0.01050299
0.01044379
0.01044177
0.01044073
0.01044003
0.01044003
0.0104975
0.01044074
0.01043893
0.01043827
0.01043793
0.01043818
0.01049285
0.01043794
0.01043663
0.01043627
0.01043615
0.01043657
0.01048905
0.01043594
0.01043485
0.01043462
0.0104346
0.01043512
0.01048574
0.01043424
0.01043334
0.0104332
0.01043326
0.01043382
0.01048284
0.01043284
0.01043205
0.01043197
0.01043209
0.01043266
0.01048025
0.01043162
0.01043094
0.0104309
0.01043104
0.01043161
0.0104779
0.01043057
0.01042996
0.01042995
0.01043011
0.01043067
0.01047575
0.01042963
0.01042909
0.01042909
0.01042926
0.01042981
0.01047377
0.01042879
0.01042829
0.01042833
0.01042849
0.01042903
0.01047194
0.01042803
0.01042757
0.01042764
0.01042779
0.0104283
0.01047024
0.01042734
0.01042692
0.01042701
0.01042714
0.01042764
0.01046865
0.01042671
0.01042632
0.01042638
0.01042654
0.01042702
0.01046717
0.01042613
0.01042576
0.01042583
0.01042599
0.01042644
0.01046578
0.01042559
0.01042524
0.01042531
0.01042548
0.01042591
0.01046447
0.01042509
0.01042477
0.01042483
0.01042501
0.01042541
0.01046325
0.01042463
0.01042432
0.01042439
0.01042457
0.01042495
0.0104621
0.0104242
0.01042391
0.01042397
0.01042415
0.01042452
0.01046103
0.01042393
0.01042363
0.01042366
0.01042395
0.0104244
0.004537518
0.004570025
0.0187021
0.01067535
0.0106457
0.004544004
0.004518306
0.01057475
0.01051041
0.01056647
0.01050922
0.004491983
0.004478031
0.01055047
0.01048746
0.01052834
0.01047303
0.004455132
0.00444853
0.01051669
0.01046344
0.01051325
0.0104607
0.004425873
0.004422798
0.01050684
0.01045618
0.01050433
0.01045308
0.004403486
0.004402169
0.01049874
0.01045
0.01049816
0.01044887
0.00438429
0.004384234
0.01049345
0.01044679
0.01049335
0.0104457
0.004368141
0.004368799
0.01048895
0.01044402
0.01048939
0.01044338
0.004353972
0.004355144
0.01048529
0.01044205
0.01048599
0.01044152
0.004341488
0.004343003
0.01048211
0.01044039
0.01048302
0.01043999
0.004330314
0.004332078
0.01047932
0.01043903
0.01048036
0.01043869
0.004320238
0.004322177
0.01047683
0.01043785
0.01047796
0.01043756
0.004311075
0.004313136
0.01047457
0.01043682
0.01047577
0.01043657
0.004302688
0.004304839
0.01047252
0.01043591
0.01047376
0.01043569
0.00429498
0.004297179
0.01047062
0.0104351
0.01047189
0.01043489
0.004287875
0.00429008
0.01046887
0.01043436
0.01047016
0.01043417
0.004281285
0.004283486
0.01046724
0.01043369
0.01046855
0.01043352
0.004275153
0.004277342
0.01046573
0.01043308
0.01046705
0.01043291
0.004269439
0.004271608
0.01046431
0.01043252
0.01046564
0.01043236
0.004264102
0.004266251
0.01046298
0.010432
0.01046432
0.01043185
0.004259115
0.004261236
0.01046174
0.01043152
0.01046309
0.01043137
0.004254447
0.004256533
0.01046057
0.01043107
0.01046193
0.01043093
0.004250065
0.004252089
0.01045947
0.01043066
0.01046084
0.01043052
0.004246021
0.01026209
0.01046096
0.01043027
0.01045979
0.01042677
0.01893455
0.01064873
0.01062883
0.0172247
0.01063791
0.01063545
0.01883871
0.01063648
0.01064201
0.01721548
0.01063607
0.01063906
0.01890856
0.01063669
0.01064441
0.01727931
0.0106389
0.01064297
0.0188344
0.01063466
0.01063945
0.01877632
0.01064329
0.01065529
0.0172824
0.01063278
0.01063909
0.01887495
0.01063923
0.01064263
0.0172972
0.01063408
0.01064276
0.01887397
0.0106392
0.01064315
0.01737084
0.01063016
0.0106399
0.01876846
0.0106364
0.01063958
0.0175519
0.01062357
0.01062493
0.01857878
0.0106509
0.01061842
0.01646667
0.01067289
0.01063386
0.004448106
0.01423542
0.0105995
0.01055613
0.004402953
0.004559401
0.0130105
0.01052723
0.01051519
0.004510963
0.004504152
0.01268499
0.01051482
0.01050459
0.00448453
0.004482631
0.0105062
0.01056663
0.01050475
0.004339131
0.004507212
0.01048037
0.01052755
0.01047222
0.004483352
0.0044763
0.01045591
0.01051304
0.01046024
0.004453971
0.004448485
0.01044907
0.01050426
0.01045298
0.004425545
0.004422801
0.01044333
0.01049812
0.01044881
0.004403229
0.004402207
0.01044046
0.01049331
0.01044566
0.004384166
0.004384253
0.01043801
0.01048935
0.01044335
0.004368035
0.004368808
0.01043633
0.01048595
0.01044149
0.004353904
0.00435515
0.01043492
0.01048298
0.01043997
0.004341449
0.004343005
0.01043379
0.01048032
0.01043867
0.004330302
0.004332079
0.01043282
0.01047792
0.01043755
0.004320248
0.004322176
0.01043198
0.01047573
0.01043656
0.004311104
0.004313133
0.01043125
0.01047372
0.01043567
0.004302735
0.004304849
0.0104306
0.01047185
0.01043488
0.004295055
0.004297178
0.01043002
0.01047012
0.01043416
0.004287947
0.004290078
0.01042949
0.01046851
0.01043351
0.004281367
0.004283485
0.01042901
0.01046701
0.01043291
0.004275244
0.004277341
0.01042857
0.0104656
0.01043235
0.004269538
0.004271609
0.01042817
0.01046429
0.01043184
0.004264209
0.004266254
0.0104278
0.01046305
0.01043137
0.00425923
0.004261244
0.01043036
0.0104598
0.01042676
0.004246104
0.008740179
0.01272897
0.01017985
0.01034051
0.009990295
0.0103399
0.009964397
0.01034891
0.009824356
0.01035295
0.009770438
0.01036131
0.009666535
0.01035785
0.009630033
0.01037699
0.009541633
0.01037374
0.009516205
0.01038773
0.009442024
0.01038412
0.009423869
0.01039646
0.009355224
0.01039328
0.009341853
0.01040325
0.009278872
0.01040029
0.009270008
0.01040845
0.009212852
0.01040582
0.009207458
0.01041253
0.00915361
0.01041013
0.009152059
0.01041582
0.009101562
0.01041366
0.009102355
0.0104185
0.009055911
0.01041653
0.009057392
0.0104207
0.009014987
0.01041889
0.009016439
0.0104225
0.008977473
0.01042083
0.008978893
0.01042398
0.008942972
0.01042242
0.008944271
0.01042519
0.008911124
0.01042372
0.008912233
0.01042619
0.008881572
0.0104248
0.008882486
0.010427
0.008854069
0.01042569
0.008854788
0.01042766
0.008828416
0.01042642
0.008828942
0.01042818
0.008804442
0.01042701
0.008804782
0.0104286
0.008782016
0.01042749
0.008782193
0.01042893
0.00876112
0.01042787
0.008761137
0.01042919
0.00874155
0.01042817
0.008741508
0.01042938
0.008723245
0.01042841
0.008723054
0.01319529
0.01309648
0.01319766
0.01308486
0.01320966
0.01309265
0.01324098
0.01316055
0.01315153
0.01324488
0.0131142
0.01322591
0.01313262
0.01322739
0.01314175
0.0132179
0.01295983
0.01307104
0.01347914
0.01054584
0.01052295
0.004545276
0.004532734
0.01243802
0.01050697
0.01049746
0.004463303
0.004464517
0.01042745
0.0104619
0.01043092
0.004254576
0.004256575
0.01042713
0.01046081
0.01043051
0.004250231
0.004252128
0.01073142
0.009989645
0.01045268
0.01006116
0.01311322
0.01291918
0.01034228
0.009876328
0.01032205
0.009920953
0.01034955
0.009717139
0.01034468
0.00975144
0.01036187
0.009589976
0.0103629
0.009613198
0.01037682
0.009484377
0.01037694
0.009501513
0.0103879
0.009395158
0.01038773
0.009409509
0.0103966
0.009316552
0.01039596
0.009327548
0.01040325
0.009248343
0.01040249
0.009256694
0.01040847
0.009188495
0.0104076
0.00919496
0.01041259
0.009135375
0.01041169
0.009140508
0.01041589
0.009087997
0.01041498
0.009091753
0.01041853
0.00904505
0.01041765
0.00904724
0.01042066
0.009005938
0.01041982
0.009006679
0.0104224
0.008969765
0.01042159
0.008969497
0.01042381
0.008936146
0.01042303
0.008935001
0.01042496
0.00890497
0.01042418
0.008903282
0.01042592
0.008875813
0.0104251
0.008873923
0.0104267
0.008848613
0.01042588
0.008846512
0.01042734
0.008823165
0.01042655
0.008820986
0.01042785
0.008799318
0.01042711
0.008797057
0.01042826
0.008777011
0.01042756
0.008774827
0.01042858
0.008756251
0.01042791
0.008754183
0.01042884
0.008736868
0.01042819
0.008734968
0.01042902
0.0100459
0.008716925
0.01042299
0.01309976
0.01318159
0.01318522
0.01323336
0.01313642
0.01323568
0.01308938
0.01314169
0.01323915
0.01312775
0.01323648
0.01312267
0.01320706
0.01308627
0.01323741
0.01309727
0.01313238
0.01047105
0.0113911
0.009879101
0.01143044
0.009850101
0.01137827
0.009794885
0.01140254
0.009823567
0.01034995
0.009811386
0.01035472
0.009758488
0.01034485
0.009717306
0.01034499
0.009747166
0.01036159
0.009665733
0.01035747
0.009629337
0.01036139
0.009590307
0.01036284
0.009612603
0.01037693
0.009542298
0.01037272
0.009516486
0.01037675
0.009484647
0.01037695
0.009501618
0.01038772
0.009442694
0.01038349
0.009423174
0.01039643
0.009354461
0.01039325
0.009342047
0.01039659
0.009316702
0.01039598
0.009327749
0.01040323
0.009279352
0.01039984
0.009270165
0.01040324
0.009248451
0.01040251
0.009256863
0.01040843
0.009213191
0.01040543
0.009207578
0.01040847
0.009188573
0.01040763
0.009195075
0.01041252
0.009153886
0.01040979
0.009152152
0.01041259
0.009135427
0.01041171
0.009140596
0.01041581
0.009101763
0.01041335
0.009102426
0.01041589
0.009088034
0.01041501
0.009091818
0.01041849
0.009056062
0.01041626
0.009057453
0.01041853
0.009045074
0.01041768
0.009047295
0.01042069
0.009015105
0.01041865
0.009016491
0.01042066
0.009005963
0.01041985
0.009006718
0.01042249
0.008977559
0.0104206
0.008978928
0.01042397
0.008942192
0.01042241
0.008944297
0.01042381
0.008936173
0.01042306
0.008935018
0.01042519
0.008911175
0.01042353
0.008912264
0.01042496
0.008904999
0.01042421
0.008903306
0.01042618
0.008881617
0.01042462
0.008882519
0.01042592
0.008875839
0.01042513
0.008873953
0.010427
0.008854101
0.01042552
0.008854816
0.0104267
0.008848642
0.01042591
0.008846538
0.01042765
0.008828441
0.01042626
0.008828969
0.01042734
0.0088232
0.01042658
0.008821011
0.01042818
0.008804469
0.01042687
0.008804815
0.0104286
0.008782052
0.01042748
0.008782225
0.01042826
0.008777071
0.01042759
0.008774853
0.01042911
0.008499473
0.008717177
0.01042845
0.01045994
0.01026562
0.01045993
0.0104299
0.0104299
0.00876547
0.0104295
0.01005145
0.008705457
0.01042305
0.01042857
0.00848922
0.008705897
0.01042849
0.02098619
0.009686539
0.02177802
0.0218293
0.02191007
0.02230245
0.02210634
0.02188779
0.02219053
0.02190924
0.02225641
0.0220053
0.02199652
0.02191294
0.02183536
0.0218945
0.02175362
0.02184633
0.02186196
0.02127363
0.0215563
0.02220538
0.02211546
0.02188321
0.021843
0.02190316
0.02209161
0.02188407
0.02205793
0.0219364
0.02183939
0.0223246
0.02247845
0.02226479
0.02248823
0.02199654
0.02186903
0.02164907
0.02289051
0.009657097
0.01238093
0.01037662
0.01226414
0.01017433
0.01085505
0.01008897
0.01065723
0.009785785
0.01197061
0.01032812
0.01202934
0.01022473
0.01185551
0.01010773
0.01182251
0.01019438
0.01124357
0.009749544
0.01127806
0.009732784
0.01124204
0.009692416
0.01127465
0.00970703
0.01034527
0.009987569
0.01040537
0.009919028
0.010332
0.009871802
0.0103271
0.009898886
0.009871261
0.009548
0.009536107
0.009844145
0.009921686
0.009424707
0.009897889
0.009402087
0.009974828
0.009346514
0.009341857
0.009941703
0.01038789
0.009394429
0.01038772
0.009408737
0.01018977
0.008946217
0.01017601
0.00893593
0.01020654
0.008910701
0.008904334
0.01018568
0.01022479
0.008873053
0.01021215
0.008866036
0.01023765
0.00884375
0.008836423
0.01021943
0.01027654
0.008755272
0.01026681
0.008749406
0.01028539
0.008733222
0.008726261
0.01027095
0.01029618
0.008705765
0.01028756
0.008700596
0.01030378
0.008686275
0.008679852
0.01029056
0.0103128
0.00866116
0.01030516
0.008656583
0.01031941
0.008643716
0.008637877
0.01030721
0.0103328
0.008604963
0.008599753
0.01032176
0.0104224
0.008968908
0.0104216
0.008969485
0.0103589
0.008519179
0.01035356
0.008516135
0.01036285
0.008507063
0.00850379
0.01035387
0.01037687
0.008453787
0.008451015
0.01036925
0.01037987
0.008439434
0.01037549
0.00843697
0.01038258
0.008429922
0.008427385
0.01037523
0.01042785
0.008799347
0.01042711
0.008797089
0.01038756
0.00840773
0.008405368
0.01038092
0.01038984
0.008395183
0.01038592
0.00839305
0.01042935
0.008722594
0.01042842
0.008723167
0.01386629
0.01013541
0.01035515
0.01001964
0.02141023
0.0218038
0.02184341
0.0217001
0.02206043
0.02183874
0.0218478
0.02187468
0.02203436
0.02201313
0.02208189
0.02202002
0.0223035
0.0223895
0.0219338
0.02206809
0.02227009
0.02198719
0.02188437
0.02180874
0.01006111
0.01164668
0.01000146
0.01160595
0.009937254
0.01157581
0.009973549
0.01156487
0.009646598
0.01117291
0.009640463
0.01113597
0.009609578
0.01117533
0.009614242
0.0111352
0.008761149
0.01042778
0.008760464
0.0104288
0.008755554
0.008753546
0.01042858
0.01042795
0.008740826
0.008740855
0.01042918
0.01042805
0.008736195
0.01042832
0.008734354
0.0104288
0.02256294
0.02156423
0.02175019
0.02187182
0.02189392
0.02190355
0.02191731
0.02199732
0.02216656
0.02227006
0.02210223
0.02196655
0.02197891
0.02195883
0.02186609
0.02183582
0.02164333
0.02187293
0.0214163
0.02214322
0.009860735
0.009513193
0.009491426
0.009850088
0.009912532
0.009450636
0.009866503
0.009441661
0.01017009
0.008983805
0.008969026
0.01015701
0.01018669
0.0089524
0.01015992
0.008948033
0.01020897
0.008904753
0.008894126
0.01019672
0.0102215
0.008878995
0.01019828
0.008871949
0.01024038
0.008836809
0.008829141
0.01022897
0.01025018
0.008815469
0.01022989
0.008808466
0.01027401
0.008759633
0.01025649
0.008753209
0.01030551
0.008679416
0.008674826
0.01029698
0.01031111
0.008664905
0.01029693
0.008659939
0.01033399
0.008599262
0.0085955
0.01032688
0.01035819
0.008522873
0.01034858
0.008519222
0.01037727
0.008450028
0.00844733
0.01037256
0.01037949
0.008442758
0.01037158
0.008439778
0.01038288
0.008426468
0.008423853
0.01037848
0.01038778
0.008404512
0.008402027
0.01038364
0.01038956
0.008398256
0.01038265
0.00839565
0.008723559
0.008726545
0.01748734
0.01738936
0.009965601
0.009980437
0.009586663
0.009528888
0.008697432
0.00868827
0.01567019
0.01629441
0.008660705
0.008652798
0.01481847
0.0151109
0.01335017
0.008610815
0.01373874
0.008610061
0.0132274
0.00860816
0.0135166
0.008596034
0.008590761
0.00859141
0.01323496
0.01290378
0.008592555
0.008579603
0.01283638
0.01310547
0.009852979
0.009797903
0.009743916
0.009721598
0.009648362
0.00976806
0.009628687
0.009794237
0.01009121
0.009135345
0.009117297
0.01007433
0.01012159
0.009080804
0.009081728
0.01009377
0.01016971
0.008987838
0.008987043
0.01014709
0.010327
0.008620699
0.008616654
0.01032004
0.008584058
0.01033328
0.008581636
0.0103391
0.01034435
0.008569826
0.008565276
0.01033408
0.01034976
0.008550019
0.01034399
0.00854693
0.01035424
0.00853705
0.008533202
0.01034455
0.01036685
0.008490579
0.01036189
0.008487746
0.01037034
0.008479406
0.008476454
0.01036198
0.0103738
0.008464046
0.01036904
0.008461428
0.008349897
0.008348991
0.01039906
0.01039356
0.008338632
0.01040191
0.01040048
0.008337445
0.008640128
0.008637445
0.01405628
0.01454179
0.008629671
0.014119
0.008619034
0.01381813
0.00857623
0.008578232
0.01258591
0.01288594
0.008386998
0.01038554
0.01039168
0.008384864
0.008375606
0.008374563
0.01039394
0.01039024
0.008367944
0.0083669
0.01039574
0.01038964
0.008357014
0.008356059
0.01039751
0.01039386
0.02028569
0.008769228
0.008753417
0.0198735
0.0153578
0.01025519
0.01011641
0.01134832
0.0134125
0.008613616
0.008604297
0.01361797
0.01005834
0.009187966
0.009167036
0.01004372
0.01008714
0.009145109
0.009141694
0.01005047
0.01012046
0.009076681
0.00905822
0.0101072
0.0102664
0.008777695
0.008771939
0.01025555
0.01028745
0.008725778
0.008720785
0.01027805
0.01029414
0.008709753
0.01027824
0.008704086
0.0103453
0.008564297
0.008561022
0.01033878
0.01034887
0.008553824
0.01033827
0.008550117
0.01036628
0.008494168
0.01035735
0.008490686
0.01037333
0.008467526
0.01036503
0.008464284
0.01040036
0.008341962
0.01039491
0.008339656
0.008331909