/*--------------------------------*- C++ -*----------------------------------*\
  =========                 |
  \\      /  F ield         | OpenFOAM: The Open Source CFD Toolbox
   \\    /   O peration     | Website:  https://openfoam.org
    \\  /    A nd           | Version:  7
     \\/     M anipulation  |
\*---------------------------------------------------------------------------*/
FoamFile
{
    version     2.0;
    format      ascii;
    class       volScalarField;
    location    "0.1";
    object      k;
}
// * * * * * * * * * * * * * * * * * * * * * * * * * * * * * * * * * * * * * //

dimensions      [0 2 -2 0 0 0 0];

internalField   nonuniform List<scalar> 
78470
(
0.003893836
0.003906478
0.003908
0.003911272
0.003914026
0.003915714
0.003917589
0.003919511
0.003921767
0.003753903
0.003765944
0.003766103
0.003766079
0.00376673
0.003767027
0.003767423
0.003767771
0.003768187
0.003756752
0.003766301
0.003767447
0.003767392
0.003767909
0.003768222
0.003768611
0.00376893
0.003769273
0.003756733
0.003767131
0.003768056
0.003767811
0.003768457
0.003768631
0.003768988
0.003769214
0.003769421
0.003756556
0.003767364
0.003767933
0.003767816
0.00376839
0.003768683
0.003769048
0.003769235
0.003769303
0.003756329
0.003767538
0.003768154
0.003767945
0.003768638
0.00376885
0.00376925
0.00376938
0.0037693
0.003756065
0.003767539
0.003768123
0.003767966
0.003768666
0.003769016
0.003769504
0.003769703
0.003769642
0.003756157
0.003767599
0.00376817
0.003767939
0.003768813
0.003769299
0.003769995
0.003770375
0.003770396
0.003756112
0.003767546
0.003768208
0.003767978
0.00376893
0.003769617
0.003770676
0.003771451
0.003771729
0.003755774
0.003767223
0.003767978
0.003767722
0.003768902
0.003769895
0.003771566
0.003772954
0.003773631
0.003755705
0.003766992
0.003767573
0.00376729
0.003768584
0.003769975
0.003772596
0.003775103
0.003776229
0.003755614
0.003766431
0.003766814
0.003766294
0.003767639
0.00376939
0.003773945
0.003777908
0.003778989
0.003755476
0.003765405
0.003765492
0.003764568
0.003765938
0.003767485
0.003768383
0.003774854
0.003781185
0.003755236
0.0037645
0.003763726
0.003762016
0.003761821
0.003765089
0.003802676
0.00386962
0.003845938
0.003754757
0.00376322
0.00376155
0.003758659
0.003755996
0.003754256
0.003780794
0.004215123
0.003753729
0.003762119
0.003759438
0.003755498
0.003750371
0.00374466
0.003744572
0.003795916
0.003753144
0.003761376
0.003758502
0.003753159
0.003747375
0.003739809
0.003722867
0.003616861
0.003753072
0.003760895
0.003758674
0.003753021
0.003747583
0.003740403
0.003716946
0.00354171
0.003753278
0.003761815
0.00376012
0.003755389
0.003750942
0.003745474
0.003730218
0.003680063
0.003753941
0.003763284
0.003762653
0.003759242
0.003756542
0.003753436
0.003751633
0.003820897
0.003754874
0.003765575
0.003765987
0.003764341
0.003763791
0.003763758
0.003780759
0.003992769
0.003755915
0.003767828
0.00376966
0.003769951
0.003771971
0.003776192
0.003816171
0.004267131
0.003845516
0.005385513
0.004073292
0.003764818
0.003751606
0.003767048
0.00376674
0.003766846
0.003767211
0.003767566
0.003767937
0.003768348
0.003481672
0.003414461
0.003413649
0.003412741
0.003412466
0.003412446
0.003412453
0.003412469
0.003412491
0.003412524
0.00348855
0.003417068
0.003414257
0.003412952
0.003412399
0.003412357
0.003412298
0.003412303
0.003412318
0.003412345
0.003502855
0.003417713
0.003414392
0.003413259
0.003412449
0.003412394
0.003412321
0.00341232
0.003412313
0.00341233
0.003508389
0.003418944
0.003414458
0.003413513
0.00341247
0.003412449
0.003412331
0.00341233
0.003412312
0.003412314
0.003509054
0.003419056
0.003414388
0.00341357
0.003412502
0.003412474
0.003412353
0.00341235
0.003412323
0.003412317
0.003510496
0.003419165
0.003414332
0.003413617
0.003412534
0.003412493
0.003412376
0.003412386
0.003412371
0.003412358
0.003511756
0.0034188
0.003414333
0.003413619
0.00341258
0.003412528
0.003412431
0.003412468
0.00341247
0.00341247
0.003512469
0.003418746
0.003414157
0.003413609
0.003412626
0.00341261
0.003412527
0.003412631
0.003412692
0.003412719
0.003512177
0.003418599
0.003414144
0.003413602
0.003412665
0.003412685
0.003412705
0.003412949
0.003413117
0.003413184
0.003511849
0.003418821
0.003414134
0.003413656
0.003412742
0.003412833
0.003413052
0.00341367
0.003414042
0.003413863
0.003510898
0.003418674
0.003414249
0.003413708
0.003412866
0.003413042
0.003413824
0.003415512
0.0034162
0.00341554
0.003510041
0.003419259
0.003414241
0.003413847
0.003413074
0.003413892
0.003416246
0.003420818
0.00342456
0.003417429
0.003506337
0.00341897
0.003414297
0.003414148
0.003413779
0.003415811
0.003423565
0.003428529
0.003607002
0.003438538
0.003511109
0.003418583
0.003414558
0.003414522
0.003414679
0.003417178
0.003426418
0.003484723
0.005496786
0.003495948
0.003419579
0.003414916
0.003414853
0.003414834
0.003417183
0.003423584
0.003438524
0.003731466
0.003482248
0.003418413
0.003414827
0.003414979
0.003415108
0.003416993
0.003421626
0.003429393
0.003681621
0.003476687
0.003418565
0.003414909
0.003415108
0.003415474
0.003417373
0.003421506
0.003426457
0.003669221
0.00347704
0.003418268
0.003414879
0.003415161
0.003415787
0.003417966
0.003423198
0.00342701
0.003707967
0.003480118
0.003417977
0.003414857
0.003415118
0.003416142
0.003419089
0.003426316
0.00343102
0.003749059
0.00348341
0.003417452
0.003414664
0.003415062
0.003416567
0.003420923
0.003432354
0.003452688
0.003830077
0.003485377
0.00341791
0.003414755
0.003415053
0.003416703
0.003422204
0.003438192
0.003479643
0.003940268
0.003486525
0.003469359
0.006706101
0.003714116
0.003765762
0.003753347
0.003767914
0.003767587
0.003767973
0.003768291
0.003768695
0.003769078
0.003769519
0.003476127
0.003414587
0.003412895
0.003413408
0.003412356
0.003412254
0.003412267
0.003412287
0.003412312
0.003412347
0.003440871
0.003415954
0.003412603
0.003412218
0.003412101
0.003412111
0.003412115
0.00341213
0.003412149
0.003412178
0.003442247
0.003414228
0.003412375
0.003412213
0.003412099
0.003412126
0.003412122
0.003412136
0.003412146
0.003412164
0.003440289
0.003412885
0.003412431
0.003412199
0.003412101
0.003412144
0.003412141
0.003412144
0.003412143
0.003412146
0.003440119
0.003412859
0.003412481
0.003412183
0.003412145
0.003412172
0.003412164
0.003412167
0.003412154
0.003412145
0.00343979
0.003412847
0.003412712
0.003412206
0.003412205
0.003412195
0.003412196
0.003412207
0.003412198
0.003412188
0.003440774
0.003413341
0.003412543
0.003412242
0.003412234
0.003412225
0.003412254
0.003412293
0.003412301
0.003412306
0.00344003
0.003413553
0.003412736
0.003412216
0.003412266
0.003412279
0.003412337
0.003412449
0.003412514
0.00341256
0.003440938
0.003413676
0.00341282
0.003412243
0.003412311
0.003412388
0.003412491
0.00341278
0.003412953
0.003413018
0.003439992
0.003412887
0.00341288
0.003412297
0.003412378
0.003412622
0.003412861
0.003413494
0.003413858
0.003413771
0.003440391
0.00341386
0.00341281
0.003412382
0.003412499
0.003412915
0.003413725
0.003415288
0.003416068
0.003415356
0.003440578
0.003413109
0.00341289
0.003412498
0.003412762
0.003413801
0.003416017
0.003420643
0.003423779
0.003416679
0.003439792
0.003413387
0.003413302
0.003412643
0.003413318
0.0034156
0.003422709
0.003427272
0.003602553
0.003439517
0.003440109
0.003414658
0.00341339
0.00341275
0.003414338
0.003417088
0.00342561
0.003486754
0.005491175
0.003441754
0.003413987
0.00341243
0.003412683
0.003414704
0.003417382
0.003423335
0.003437892
0.003731706
0.003440812
0.003415409
0.003412479
0.003412935
0.003415071
0.003416462
0.003422039
0.003430268
0.003690849
0.003440955
0.003414222
0.00341253
0.003412996
0.003415301
0.003416776
0.003421918
0.003727484
0.003440037
0.00341357
0.003413586
0.003413825
0.003415668
0.003417792
0.003421497
0.00373353
0.003440785
0.003413043
0.003413086
0.003413808
0.003416141
0.003419378
0.003424611
0.003451432
0.003673872
0.003441491
0.003413335
0.003413627
0.003413854
0.003416667
0.003420239
0.003432759
0.003445888
0.003822864
0.003443083
0.00341352
0.003413544
0.0034141
0.003416528
0.003421773
0.003437592
0.003480462
0.003937711
0.003466926
0.006694313
0.00374577
0.003766192
0.003753062
0.003768138
0.003767863
0.003768251
0.003768591
0.003769013
0.003769403
0.003769854
0.003486924
0.003415342
0.003413187
0.003413506
0.003412365
0.00341225
0.003412266
0.003412287
0.003412312
0.003412348
0.003445137
0.003413928
0.003412817
0.003412241
0.003412095
0.003412107
0.003412112
0.00341213
0.00341215
0.003412178
0.003440959
0.003415196
0.003412351
0.003412105
0.0034121
0.003412106
0.003412118
0.003412135
0.003412147
0.003412164
0.003445394
0.003413874
0.003412204
0.003412118
0.003412105
0.00341213
0.00341213
0.003412142
0.003412143
0.003412147
0.003445311
0.003414849
0.003412111
0.003412176
0.003412135
0.003412138
0.003412152
0.003412162
0.003412154
0.003412145
0.003441701
0.003415985
0.003412081
0.003412439
0.003412159
0.003412173
0.003412175
0.003412197
0.003412192
0.003412186
0.00344601
0.00341424
0.003412067
0.003412525
0.003412169
0.003412271
0.003412241
0.003412285
0.003412293
0.003412299
0.003444813
0.003414017
0.003412086
0.003412533
0.003412194
0.003412339
0.003412367
0.003412451
0.003412512
0.00341256
0.003446324
0.003413947
0.003412163
0.003412546
0.003412242
0.003412445
0.003412572
0.003412807
0.003412955
0.003413017
0.003442731
0.003415363
0.003412117
0.003412605
0.003412307
0.003412633
0.003412963
0.003413494
0.003413842
0.0034138
0.00344386
0.003414236
0.003412323
0.003412555
0.003412415
0.003412901
0.003413641
0.003415281
0.003416114
0.003415372
0.003441001
0.003414909
0.003412362
0.00341253
0.003412704
0.003413812
0.003415957
0.003420717
0.003423741
0.0034168
0.003446686
0.003414637
0.003412165
0.003412669
0.00341323
0.003415526
0.003422638
0.003426872
0.003602739
0.003439412
0.003446311
0.003414123
0.003412542
0.003412618
0.003414018
0.003417031
0.003425492
0.003485553
0.005488015
0.003441525
0.003414703
0.0034122
0.003412558
0.00341469
0.003417778
0.003423842
0.003437818
0.003731767
0.003444674
0.003414178
0.003412779
0.003412847
0.003415377
0.003416736
0.003422549
0.003430784
0.003690869
0.003443162
0.003414247
0.003412672
0.003412879
0.003415459
0.003416812
0.003422177
0.003726546
0.00344237
0.003413394
0.0034131
0.003413683
0.003415607
0.003417849
0.00342138
0.003733564
0.003441932
0.003413553
0.00341308
0.00341381
0.003416054
0.003419433
0.003424671
0.003451383
0.00366213
0.00344268
0.0034136
0.00341348
0.003413898
0.003416718
0.003420286
0.00343346
0.003445393
0.003824541
0.003444347
0.003414001
0.003413324
0.003414083
0.003416516
0.003421787
0.003437826
0.003481489
0.003939695
0.003466886
0.006707828
0.003746384
0.003767552
0.003753215
0.003768216
0.003767903
0.003768265
0.003768623
0.003769071
0.003769467
0.003769919
0.003495269
0.00341513
0.003413131
0.003413675
0.003412374
0.003412246
0.003412263
0.003412286
0.003412312
0.003412348
0.003441077
0.003413002
0.003412788
0.003412154
0.003412062
0.003412099
0.00341211
0.003412128
0.003412148
0.003412177
0.003448503
0.003414248
0.003412242
0.003412125
0.003412095
0.003412097
0.003412118
0.003412132
0.003412144
0.003412163
0.003440905
0.003414235
0.003412037
0.003412267
0.00341211
0.003412132
0.003412127
0.003412139
0.003412141
0.003412145
0.00344565
0.003414599
0.003412181
0.003412316
0.003412136
0.003412164
0.003412152
0.003412161
0.003412152
0.003412143
0.003446005
0.00341354
0.003412313
0.003412316
0.003412156
0.003412214
0.003412189
0.003412209
0.003412198
0.003412187
0.003442062
0.00341407
0.003412433
0.003412183
0.003412223
0.003412213
0.003412248
0.003412294
0.003412301
0.003412305
0.0034462
0.003413357
0.003412474
0.003412213
0.003412248
0.003412264
0.00341232
0.003412438
0.00341251
0.003412563
0.003441876
0.003414668
0.003412497
0.003412228
0.003412288
0.003412345
0.003412456
0.003412764
0.003412942
0.003413009
0.003445357
0.003414603
0.003412478
0.003412371
0.00341237
0.003412595
0.003412889
0.003413443
0.003413816
0.00341378
0.003445014
0.003413561
0.003412543
0.003412435
0.00341248
0.003412931
0.003413573
0.003415241
0.00341605
0.003415272
0.003444336
0.003413797
0.003412765
0.003412425
0.003412732
0.003413792
0.003415968
0.003420732
0.003423711
0.00341676
0.003449697
0.003413483
0.003412815
0.003412595
0.003413418
0.003415582
0.003422719
0.003426947
0.003602778
0.003439432
0.003443571
0.00341535
0.003412932
0.003412723
0.003414436
0.003417205
0.003425646
0.003485702
0.005487439
0.00344871
0.003413025
0.003412273
0.003412562
0.003414651
0.003417348
0.003423483
0.003437962
0.003731768
0.003442087
0.003413434
0.003412911
0.003412675
0.003415075
0.003416527
0.003422365
0.003430802
0.003690065
0.003442607
0.003413027
0.003412609
0.003412597
0.003415395
0.003416928
0.003422129
0.003726329
0.00344131
0.003413385
0.00341299
0.003413522
0.003415486
0.003417746
0.003421228
0.003733457
0.003442394
0.003413522
0.003413565
0.003414021
0.003416142
0.003419448
0.00342465
0.003451082
0.003675782
0.00344226
0.003413072
0.003413793
0.003414075
0.003416992
0.003420413
0.00343349
0.003445712
0.003827797
0.003444632
0.003413408
0.003413336
0.003413964
0.003416573
0.003421804
0.003437824
0.003481791
0.003940674
0.003466789
0.006713808
0.003743685
0.003767695
0.003753152
0.003768151
0.003767806
0.003768232
0.003768563
0.003769013
0.003769408
0.003769862
0.003505253
0.003415279
0.00341313
0.003413678
0.003412355
0.003412244
0.003412263
0.003412285
0.003412311
0.003412348
0.003439707
0.003412727
0.003412879
0.003412094
0.003412104
0.0034121
0.003412106
0.003412127
0.003412148
0.003412177
0.003440553
0.003414301
0.003412007
0.003412178
0.003412096
0.0034121
0.003412119
0.003412133
0.003412145
0.003412164
0.003442619
0.003414307
0.00341218
0.003412387
0.00341211
0.003412156
0.003412141
0.003412145
0.003412141
0.003412145
0.003448708
0.003413365
0.00341248
0.003412274
0.003412169
0.00341218
0.003412166
0.003412174
0.003412157
0.003412145
0.003442813
0.003415078
0.003412434
0.003412172
0.003412213
0.003412185
0.003412194
0.003412208
0.003412199
0.003412191
0.003444207
0.003414598
0.003412418
0.003412251
0.003412209
0.003412226
0.003412245
0.003412288
0.003412294
0.003412302
0.003441874
0.003414472
0.003412452
0.003412202
0.003412238
0.003412257
0.003412323
0.00341244
0.003412508
0.003412561
0.003446101
0.003414458
0.003412524
0.003412218
0.003412283
0.003412326
0.003412467
0.003412768
0.003412935
0.003413006
0.003446672
0.003415259
0.003412683
0.003412269
0.003412351
0.003412557
0.003412827
0.003413424
0.003413802
0.003413776
0.003442545
0.003415341
0.003412703
0.003412384
0.003412587
0.003412892
0.003413632
0.00341521
0.003415994
0.003415271
0.003441906
0.003413402
0.003412574
0.003412375
0.003412682
0.003413761
0.003416031
0.003420757
0.003423702
0.003416776
0.003442473
0.003415009
0.003412888
0.00341233
0.003413506
0.003415513
0.003422512
0.003426728
0.003602497
0.00343931
0.003455886
0.003415845
0.003413353
0.003412866
0.003414899
0.003417588
0.003426066
0.003485783
0.005489682
0.003443206
0.003413192
0.003412834
0.003412843
0.003414818
0.003417041
0.003423686
0.003437971
0.003731514
0.003441436
0.003413009
0.003412329
0.00341268
0.003414851
0.003416554
0.003422301
0.003430683
0.003690184
0.003441867
0.003413161
0.00341309
0.003412715
0.00341535
0.003416906
0.003422083
0.003726309
0.003441505
0.003413245
0.003412976
0.003413322
0.003415583
0.003417766
0.003421262
0.003733432
0.003441279
0.003413351
0.003413324
0.003413914
0.003416069
0.003419399
0.00342462
0.003450959
0.003670666
0.003442284
0.003413015
0.003413867
0.003414116
0.003417012
0.003420452
0.003433517
0.003445676
0.003826813
0.003444142
0.003413267
0.003413322
0.003413977
0.00341659
0.003421806
0.003437816
0.003481899
0.003940074
0.003466707
0.006714769
0.003744532
0.003767538
0.003753286
0.00376822
0.003767688
0.003768174
0.003768368
0.003768781
0.003769141
0.003769576
0.003491288
0.003415282
0.003412963
0.003413457
0.003412364
0.003412248
0.003412265
0.003412288
0.003412313
0.003412348
0.003442778
0.00341378
0.003412691
0.003412106
0.003412142
0.003412101
0.003412113
0.003412131
0.003412151
0.00341218
0.003449419
0.003416123
0.003412222
0.003412422
0.003412098
0.003412128
0.003412119
0.003412135
0.003412146
0.003412163
0.003440779
0.003414057
0.003412315
0.003412128
0.00341215
0.003412134
0.003412137
0.003412142
0.003412144
0.003412147
0.003444804
0.003416146
0.003412126
0.003412396
0.003412118
0.003412171
0.003412145
0.003412157
0.003412149
0.003412142
0.003448949
0.003415032
0.003412171
0.003412427
0.003412149
0.003412204
0.003412186
0.003412201
0.003412192
0.003412184
0.003442532
0.003415593
0.003412078
0.0034125
0.003412154
0.003412262
0.003412259
0.00341229
0.003412293
0.003412294
0.003447375
0.00341395
0.003412131
0.003412489
0.0034122
0.003412326
0.003412346
0.003412445
0.003412506
0.003412556
0.003446232
0.003414208
0.003412117
0.003412491
0.00341224
0.003412453
0.003412563
0.003412796
0.003412942
0.003413003
0.003445345
0.003414479
0.003412201
0.003412427
0.003412284
0.003412611
0.003412954
0.003413473
0.00341382
0.003413786
0.003444022
0.003415722
0.003412517
0.003412474
0.003412444
0.003412921
0.003413688
0.003415283
0.003416083
0.003415348
0.003440639
0.003413738
0.003412365
0.003412457
0.003412714
0.003413831
0.003415998
0.003420732
0.003423764
0.003416819
0.003448352
0.003413313
0.003412213
0.003412532
0.003413285
0.003415493
0.003422682
0.003426945
0.003602434
0.003439078
0.003453403
0.003415135
0.003412261
0.003412407
0.003413737
0.00341678
0.003425256
0.003484879
0.005487584
0.003442516
0.003414471
0.003413635
0.003412462
0.003415598
0.003418131
0.00342415
0.003438057
0.003733965
0.003444405
0.003412311
0.003413151
0.003413306
0.003415421
0.003416428
0.003422469
0.003430666
0.003691111
0.003441956
0.003413439
0.003412554
0.003413001
0.003415074
0.003416768
0.003422178
0.003726544
0.003440978
0.003413115
0.003414031
0.003413436
0.00341572
0.003417992
0.003421444
0.003733572
0.003440953
0.00341386
0.003413122
0.003413805
0.003416016
0.003419381
0.003424586
0.003451326
0.003677836
0.003442979
0.003413693
0.003413427
0.003413913
0.003416793
0.003420283
0.003433355
0.003444527
0.003829118
0.003444217
0.003413957
0.003413339
0.003414035
0.003416537
0.003421725
0.003437784
0.003482531
0.003940816
0.003466648
0.006717496
0.003744698
0.003767117
0.003751583
0.003767336
0.003766451
0.003766886
0.003767141
0.003767569
0.00376786
0.003768299
0.003492026
0.003415734
0.003412673
0.003413107
0.003412334
0.003412256
0.003412272
0.003412294
0.003412319
0.003412353
0.00344276
0.003413369
0.003412947
0.003412233
0.003412081
0.003412111
0.00341211
0.003412128
0.00341215
0.00341218
0.003438652
0.003413875
0.00341261
0.003412129
0.00341211
0.003412105
0.003412121
0.003412134
0.003412146
0.003412164
0.003447998
0.003415582
0.00341215
0.003412466
0.00341211
0.003412153
0.003412142
0.003412145
0.003412142
0.003412146
0.003438896
0.003415208
0.003412163
0.00341249
0.003412154
0.003412199
0.00341217
0.003412172
0.003412155
0.003412144
0.00344572
0.003413191
0.003413172
0.003412345
0.00341219
0.003412207
0.003412202
0.003412213
0.003412199
0.003412189
0.003441008
0.003413334
0.003412992
0.003412234
0.003412235
0.003412219
0.003412251
0.003412291
0.003412297
0.003412302
0.003441158
0.003414391
0.003412719
0.003412256
0.003412251
0.003412277
0.003412332
0.003412444
0.003412505
0.003412552
0.00344183
0.00341381
0.003413013
0.00341225
0.003412307
0.003412368
0.003412482
0.00341277
0.003412938
0.003412999
0.003447364
0.003413116
0.003413443
0.003412511
0.003412437
0.003412591
0.003412872
0.003413472
0.003413829
0.00341375
0.003438787
0.003414806
0.003412103
0.003412564
0.003412524
0.003412993
0.003413739
0.003415314
0.003416052
0.003415328
0.003442427
0.003413634
0.003412119
0.003412393
0.003412669
0.003413759
0.003415969
0.003420656
0.003423785
0.003416654
0.003444066
0.003413564
0.003412443
0.003412568
0.003413199
0.003415553
0.003422709
0.003427212
0.003601892
0.003439347
0.003441931
0.003413607
0.003414241
0.003412838
0.003414482
0.003417055
0.003425626
0.003485686
0.005483402
0.003449976
0.003414281
0.003412372
0.003412658
0.003414418
0.003416798
0.003423351
0.003437992
0.003734427
0.003441123
0.003413423
0.003413094
0.003412478
0.003415461
0.003417013
0.003422212
0.003430495
0.00369184
0.003445335
0.003412465
0.003412934
0.003413288
0.003415344
0.003416662
0.003421947
0.003727526
0.003443416
0.003414062
0.003413168
0.003413466
0.003415511
0.003417713
0.003421553
0.003733442
0.003444397
0.003413874
0.003413261
0.003413797
0.003416021
0.003419402
0.003424286
0.00345223
0.00368485
0.00344159
0.003413551
0.003413928
0.003414071
0.003416768
0.003420256
0.003432085
0.003441648
0.003822172
0.003442673
0.003413526
0.003413552
0.003414067
0.003416575
0.003421567
0.00343765
0.00348428
0.00393197
0.003465863
0.006704633
0.003742386
0.003764921
0.003799196
0.003803986
0.003805345
0.003807354
0.003807534
0.003809452
0.003809619
0.003810468
0.003503694
0.003416462
0.003413868
0.003412369
0.003412343
0.003412304
0.003412336
0.003412352
0.00341237
0.003412497
0.003476054
0.003420513
0.003414225
0.003412927
0.003412431
0.003412352
0.003412291
0.003412298
0.003412317
0.003412352
0.003445179
0.003419953
0.003414603
0.003413328
0.003412416
0.003412376
0.003412306
0.003412306
0.003412312
0.003412344
0.003445677
0.003422206
0.003414632
0.003413547
0.003412516
0.003412427
0.003412322
0.003412313
0.003412312
0.003412316
0.00344358
0.003420192
0.003415029
0.003413691
0.003412613
0.003412476
0.003412344
0.003412333
0.00341232
0.00341232
0.003471385
0.003423507
0.003414028
0.003413322
0.003412511
0.003412489
0.003412397
0.003412407
0.003412377
0.003412366
0.003471306
0.00341959
0.003414435
0.003413589
0.003412643
0.003412581
0.003412449
0.003412482
0.00341248
0.003412476
0.003470784
0.003419534
0.003414405
0.003413568
0.003412691
0.003412633
0.003412531
0.003412645
0.0034127
0.003412727
0.003471522
0.00341976
0.003414292
0.00341353
0.003412675
0.003412686
0.0034127
0.003412935
0.003413108
0.003413165
0.003482809
0.003423175
0.003414088
0.003413319
0.003412724
0.003412792
0.003413044
0.003413664
0.00341403
0.003413865
0.003447074
0.003420032
0.003415376
0.003413643
0.003412887
0.003413031
0.003413784
0.003415516
0.00341616
0.003415502
0.003442798
0.003420562
0.003414563
0.003413829
0.003413011
0.003413923
0.003416211
0.003420775
0.00342449
0.003417409
0.003477982
0.00342383
0.003414723
0.00341428
0.003413792
0.003415779
0.003423585
0.003426853
0.00360445
0.003439859
0.003475801
0.003424632
0.003415172
0.003414251
0.003414648
0.00341732
0.003426332
0.003484351
0.005461676
0.003443124
0.003420726
0.003416157
0.003413954
0.00341515
0.003417746
0.003423876
0.00343782
0.003737086
0.003445895
0.00342022
0.003414663
0.003414046
0.003415293
0.00341665
0.003421801
0.003429188
0.003688981
0.003441555
0.003420092
0.003415671
0.003413761
0.003415646
0.003417191
0.003421628
0.003428835
0.003638191
0.003446025
0.003418776
0.00341563
0.003413926
0.003416023
0.003417742
0.003423341
0.003430359
0.003706241
0.003471294
0.003419626
0.003415047
0.003414816
0.003416301
0.003418967
0.003426269
0.003419868
0.003736826
0.003498539
0.003418719
0.003414746
0.003415132
0.003416715
0.003420865
0.003431333
0.003454556
0.003787352
0.003487549
0.003418207
0.003414808
0.003415004
0.003416871
0.003421984
0.003438622
0.003468438
0.003915378
0.003488692
0.00346612
0.006634332
0.00371506
0.003871539
0.003898868
0.003778694
0.003905908
0.003909199
0.003918005
0.003892661
0.003907303
0.003923482
0.003550022
0.003753038
0.003765564
0.003766024
0.003765639
0.003766506
0.003766663
0.003767001
0.003767435
0.003767904
0.003608945
0.003754623
0.003766491
0.003767806
0.003767214
0.003768082
0.003768196
0.003768546
0.003768838
0.003769203
0.003474151
0.003755137
0.00376723
0.003768184
0.003767315
0.003768212
0.003768419
0.003768851
0.003769112
0.003769365
0.003478488
0.003754231
0.003767039
0.003768248
0.0037674
0.00376823
0.003768484
0.003769004
0.003769178
0.003769271
0.00347714
0.003754975
0.003767115
0.00376839
0.00376748
0.003768352
0.00376863
0.003769153
0.003769292
0.003769247
0.003493564
0.003753199
0.003767298
0.003768592
0.003767921
0.003768945
0.003769098
0.00376955
0.003769693
0.003769621
0.003524165
0.003755939
0.00376833
0.003768881
0.00376817
0.003768954
0.003769296
0.003769985
0.003770326
0.003770345
0.003524189
0.00375601
0.003768172
0.003768791
0.003768169
0.003769134
0.003769681
0.003770709
0.003771419
0.003771678
0.003533788
0.003755569
0.003767667
0.003768099
0.003767678
0.003768816
0.003769803
0.003771485
0.003772867
0.003773548
0.00350058
0.003752751
0.003766643
0.003767681
0.003767117
0.003768669
0.003769886
0.00377256
0.003775007
0.003776115
0.003485624
0.003754336
0.003765778
0.003766583
0.003765786
0.003767351
0.003769152
0.003773847
0.003777748
0.003778806
0.003486101
0.003753623
0.003764956
0.003765469
0.003763966
0.003765814
0.003767336
0.003768382
0.003774784
0.003780965
0.003491744
0.003753926
0.003765217
0.003764448
0.003761882
0.003761885
0.003764991
0.003508002
0.003602733
0.003442465
0.003523428
0.003752673
0.003762623
0.003761692
0.003758167
0.003755786
0.003754072
0.003546312
0.005500557
0.003486888
0.003754137
0.003761552
0.003759631
0.003754617
0.003749984
0.003744549
0.00347907
0.00373431
0.003484127
0.003752812
0.003760329
0.003758363
0.003752619
0.003747128
0.003740031
0.003462659
0.003678951
0.003481244
0.003751904
0.003760724
0.003758551
0.003752505
0.00374743
0.003740332
0.003454447
0.003659301
0.003486623
0.003751928
0.003761839
0.003759966
0.00375493
0.003750824
0.003745365
0.003455554
0.003705511
0.003499653
0.003751802
0.003763998
0.003762335
0.003759054
0.003756426
0.003753466
0.003465368
0.003750108
0.003526558
0.003754445
0.003766324
0.003766095
0.003764328
0.003763779
0.003763797
0.003493555
0.003809629
0.003557912
0.003755596
0.003768103
0.003769596
0.003769914
0.003771949
0.003776081
0.0035588
0.003937241
0.003580641
0.003568906
0.006783153
0.00396241
0.003884967
0.003769596
0.003859155
0.003560488
0.003430058
0.003891461
0.003799581
0.003797713
0.003765576
0.003800996
0.003420221
0.003417632
0.003890104
0.003798004
0.003797074
0.003797138
0.003797218
0.003420772
0.003423198
0.003894204
0.003800795
0.003799037
0.003802068
0.00380153
0.003419877
0.003421299
0.003896883
0.003803254
0.003801207
0.00380597
0.003803362
0.003419906
0.00342079
0.003899017
0.003804565
0.003802
0.00380713
0.003804484
0.003419496
0.003420158
0.003900754
0.003805361
0.0038028
0.003808031
0.003805239
0.003419408
0.003420243
0.003902662
0.003806154
0.003803549
0.003808819
0.003806044
0.003419408
0.003420264
0.003904764
0.003806963
0.003804389
0.003809642
0.00380689
0.003419503
0.003420491
0.003807888
0.003810559
0.003419651
0.003761686
0.003765542
0.003543686
0.00342752
0.003561934
0.003442077
0.003768027
0.003767708
0.003550246
0.003440661
0.003570841
0.003439305
0.003768773
0.003769233
0.003550062
0.003443038
0.003577237
0.003437636
0.003769487
0.003770406
0.003549857
0.003443115
0.003582919
0.003438153
0.003770894
0.003771327
0.003549308
0.003442879
0.003586794
0.003438636
0.003771087
0.00377157
0.003549132
0.003441069
0.003590363
0.003436897
0.003771263
0.003771579
0.003548201
0.003440619
0.003590806
0.003436213
0.003771429
0.003771576
0.003546305
0.003439218
0.003590597
0.003434352
0.003771304
0.003770287
0.003545228
0.003438016
0.003588936
0.003433549
0.003770772
0.003771302
0.003545105
0.003436832
0.003588416
0.003434273
0.003770758
0.003771002
0.003544874
0.003437865
0.003586044
0.00343674
0.003769973
0.003768964
0.003546805
0.003439739
0.003581638
0.003437865
0.003770723
0.003770712
0.003550535
0.003440162
0.003574381
0.003442004
0.003862868
0.004242756
0.004051323
0.003603443
0.003487945
0.004132499
0.003862011
0.003771817
0.003768722
0.003553211
0.003441275
0.003550848
0.003438822
0.003844301
0.005499857
0.003772562
0.00376841
0.00376926
0.003573806
0.003436841
0.003539286
0.003432477
0.003631284
0.00373414
0.003690215
0.003770002
0.003767441
0.003556677
0.003429819
0.003554195
0.003429839
0.003546355
0.003679987
0.00365453
0.003767873
0.003765894
0.003570287
0.003429053
0.003564958
0.00342701
0.003661475
0.003660274
0.003693404
0.003769274
0.003766614
0.003569727
0.003429773
0.003566379
0.00342684
0.003784731
0.003705385
0.003733578
0.003771786
0.003767906
0.003568917
0.00343029
0.003572149
0.003427135
0.003936406
0.003749833
0.003782772
0.003774044
0.003769417
0.00357291
0.003430297
0.003576911
0.003427525
0.004170293
0.003804887
0.003897267
0.00377617
0.003770647
0.003575845
0.003430423
0.003578489
0.003428259
0.004536725
0.004043457
0.003954167
0.009978734
0.004006734
0.004111783
0.003993524
0.003777333
0.003576939
0.003430574
0.003868767
0.003551593
0.003431046
0.003872247
0.003536673
0.003439049
0.003494914
0.004125065
0.003864513
0.003605437
0.003494799
0.00411151
0.003865203
0.003765276
0.005464935
0.003765504
0.009468615
0.004020369
0.003935967
0.009845
0.004013951
0.003875276
0.003551314
0.003439491
0.003876456
0.003537876
0.003444367
0.003490178
0.004116429
0.003862782
0.003602344
0.00349087
0.004114769
0.003862939
0.003767349
0.005487634
0.00376602
0.009639409
0.004015563
0.003939789
0.009868564
0.004014405
0.003876136
0.003553431
0.003444972
0.00387824
0.003541064
0.00344557
0.003490588
0.00411537
0.003863093
0.003602696
0.003490792
0.004114824
0.003862802
0.003767227
0.005490642
0.003766642
0.009810651
0.004025917
0.003940514
0.009882087
0.004018174
0.003880759
0.003554013
0.003449558
0.003879435
0.00354901
0.003445821
0.003490645
0.004115148
0.003863172
0.003602941
0.003490786
0.004115135
0.003863214
0.003767484
0.005490346
0.003767215
0.009862198
0.004027067
0.003939995
0.009887759
0.004024565
0.003882461
0.003550475
0.003453343
0.00388007
0.00354201
0.003449604
0.003490609
0.004116019
0.003863072
0.003602274
0.003490476
0.004115688
0.003863211
0.003767633
0.005488885
0.003767608
0.009881793
0.00402659
0.003940357
0.009871525
0.004027251
0.00388197
0.003539788
0.003448335
0.003881589
0.003554428
0.003445984
0.003490658
0.004114619
0.003862669
0.003602458
0.003490486
0.004114575
0.003862964
0.003766964
0.005485983
0.003767395
0.009885551
0.004019187
0.003937116
0.009826058
0.004026671
0.003879858