/*--------------------------------*- C++ -*----------------------------------*\
  =========                 |
  \\      /  F ield         | OpenFOAM: The Open Source CFD Toolbox
   \\    /   O peration     | Website:  https://openfoam.org
    \\  /    A nd           | Version:  7
     \\/     M anipulation  |
\*---------------------------------------------------------------------------*/
FoamFile
{
    version     2.0;
    format      ascii;
    class       volScalarField;
    location    "0.1";
    object      nut;
}
// * * * * * * * * * * * * * * * * * * * * * * * * * * * * * * * * * * * * * //

dimensions      [0 2 -1 0 0 0 0];

internalField   nonuniform List<scalar> 
78470
(
0.0002786044
0.0002812482
0.0002813829
0.0002815013
0.0002816081
0.0002816711
0.0002817413
0.0002818153
0.00028191
0.001339743
0.001307959
0.001297289
0.001294669
0.001294049
0.001293901
0.001294013
0.001294247
0.001294459
0.001314404
0.001260858
0.001244324
0.001239835
0.001238628
0.001238317
0.001238403
0.001238636
0.001238888
0.001305911
0.001246413
0.001226335
0.001220637
0.001219034
0.001218563
0.001218632
0.001218878
0.001219119
0.001303875
0.001242602
0.001221286
0.001214998
0.001213116
0.001212568
0.001212635
0.00121291
0.001213164
0.001303277
0.001241506
0.001219766
0.001213187
0.001211182
0.001210569
0.001210645
0.001210942
0.001211206
0.00130303
0.001241104
0.001219193
0.001212507
0.001210445
0.001209844
0.001209955
0.001210298
0.001210598
0.001302977
0.001240977
0.001219009
0.001212283
0.001210259
0.001209723
0.001209927
0.001210356
0.001210711
0.00130295
0.001240943
0.001219006
0.00121233
0.001210417
0.001210055
0.001210475
0.001211102
0.001211586
0.001302902
0.001240934
0.00121909
0.001212564
0.001210968
0.001211077
0.001212065
0.001213155
0.00121391
0.001302929
0.001241008
0.001219297
0.001213178
0.001212478
0.001214031
0.001216711
0.001219159
0.001220585
0.001302976
0.001241093
0.001219632
0.001214346
0.001216918
0.001223886
0.00123186
0.00123889
0.001242458
0.00130303
0.00124115
0.001220059
0.001216061
0.001223934
0.001256616
0.001270572
0.001300559
0.001306936
0.001303074
0.001241245
0.001220459
0.001217773
0.001230056
0.001269151
0.00059169
0.0006275444
0.0006215631
0.001303062
0.001241237
0.001220641
0.001218811
0.001234506
0.001293277
0.0006167292
0.0001511842
0.001302935
0.00124121
0.00122066
0.001219203
0.001236368
0.001294458
0.0006157986
0.0001411078
0.00130288
0.001241207
0.001220781
0.001219452
0.001237178
0.001295372
0.0006142216
0.0001376482
0.001302904
0.001241205
0.001221003
0.001219893
0.001238323
0.001298412
0.0006143307
0.0001362076
0.001302951
0.001241381
0.001221279
0.001220348
0.001238987
0.001299408
0.0006156245
0.0001389959
0.00130306
0.001241596
0.001221589
0.001220662
0.001239077
0.001298437
0.0006170329
0.0001417409
0.001303212
0.001241934
0.001221971
0.001221011
0.001239253
0.001299609
0.0006190874
0.0001449632
0.001303402
0.001242275
0.001222366
0.001221167
0.001237818
0.001297995
0.0006221226
0.0001500657
0.0006047379
0.0003744253
0.0003254946
0.0006132448
0.001294804
0.001278953
0.001272146
0.001270686
0.001270427
0.001270425
0.001270496
0.001270603
0.0001010398
0.0001007528
0.0001008477
0.0001006367
0.0001005629
0.0001005578
0.0001005573
0.0001005574
0.0001005574
0.0001005574
0.0001012259
0.0001014079
0.0001010585
0.0001006938
0.0001005464
0.0001005358
0.0001005141
0.0001005117
0.0001005106
0.0001005102
0.0001016684
0.0001015278
0.0001010593
0.0001007863
0.0001005581
0.0001005432
0.000100518
0.0001005146
0.0001005099
0.0001005099
0.0001018179
0.0001017202
0.0001010895
0.0001008563
0.0001005598
0.0001005544
0.0001005158
0.0001005152
0.00010051
0.00010051
0.0001018367
0.0001018019
0.0001010716
0.0001008667
0.0001005636
0.0001005548
0.0001005168
0.0001005154
0.0001005105
0.0001005115
0.0001018719
0.0001018338
0.0001010557
0.0001008802
0.000100567
0.0001005519
0.000100514
0.0001005151
0.000100513
0.0001005125
0.0001019011
0.0001018633
0.0001010694
0.0001008838
0.0001005737
0.0001005485
0.0001005137
0.0001005153
0.0001005135
0.0001005131
0.0001019153
0.0001018615
0.0001010185
0.0001008755
0.0001005778
0.0001005532
0.0001005138
0.0001005192
0.0001005182
0.0001005173
0.0001019076
0.0001018147
0.0001010093
0.0001008678
0.0001005772
0.0001005493
0.0001005145
0.0001005175
0.0001005203
0.0001005226
0.0001018991
0.000101799
0.0001009996
0.0001008757
0.0001005758
0.0001005438
0.0001005157
0.0001005351
0.000100532
0.000100534
0.0001018788
0.0001017562
0.0001010285
0.0001008728
0.0001005704
0.0001005212
0.0001005227
0.0001005449
0.0001005625
0.0001005564
0.0001018608
0.0001017942
0.0001009989
0.0001008638
0.000100551
0.0001005285
0.0001005585
0.0001005956
0.0001006226
0.0001007632
0.0001017683
0.0001017836
0.000100986
0.0001008711
0.0001005544
0.0001005607
0.0001006781
0.0001006488
0.0001037559
0.0001017254
0.0001018926
0.0001017528
0.0001010083
0.0001008497
0.0001005702
0.000100591
0.0001007357
0.0001016185
0.0001616276
0.0001014718
0.0001016558
0.000100985
0.0001008491
0.0001005758
0.0001006009
0.0001007058
0.000100868
0.0003832961
0.0001010614
0.0001015255
0.0001009585
0.0001007978
0.0001005772
0.0001006008
0.0001006815
0.0001007671
0.0004210097
0.0001009252
0.0001015813
0.0001009461
0.0001007483
0.0001005781
0.0001006041
0.0001006781
0.0001007191
0.0003808674
0.0001009517
0.0001015958
0.0001009106
0.000100698
0.0001005779
0.0001006097
0.0001007009
0.0001007033
0.0003779385
0.0001010238
0.0001016692
0.0001009225
0.0001006728
0.000100579
0.0001006228
0.000100746
0.0001007398
0.0004021508
0.0001010933
0.0001016308
0.0001009102
0.0001006855
0.0001005833
0.000100648
0.000100836
0.0001010732
0.0003849166
0.0001011321
0.00010163
0.0001009187
0.0001006938
0.0001005831
0.0001006629
0.0001009152
0.000101342
0.0003170422
0.0001011555
0.0001010676
0.0001878657
0.0001076978
0.0006080249
0.001272797
0.001241491
0.001230741
0.001228235
0.001227686
0.001227621
0.001227694
0.001227791
0.0001009144
0.0001004457
0.0001006092
0.0001008484
0.0001005357
0.0001005124
0.0001005111
0.0001005112
0.0001005112
0.0001005113
0.0001006255
0.0001004832
0.0001004644
0.0001004689
0.0001004664
0.0001004668
0.0001004665
0.0001004665
0.0001004664
0.0001004664
0.000100644
0.0001004441
0.0001004624
0.0001004684
0.0001004658
0.0001004664
0.0001004661
0.0001004661
0.000100466
0.000100466
0.0001006076
0.0001004153
0.0001004677
0.0001004677
0.0001004655
0.0001004662
0.0001004659
0.0001004659
0.0001004657
0.0001004658
0.0001006021
0.0001004146
0.0001004686
0.0001004664
0.0001004656
0.0001004658
0.0001004655
0.0001004657
0.0001004657
0.0001004661
0.0001005959
0.0001004137
0.0001004725
0.000100466
0.0001004659
0.0001004654
0.0001004653
0.0001004657
0.0001004661
0.000100467
0.000100614
0.0001004209
0.0001004682
0.0001004658
0.0001004656
0.000100465
0.0001004652
0.0001004661
0.0001004671
0.0001004688
0.0001005991
0.0001004256
0.0001004709
0.0001004645
0.0001004654
0.0001004648
0.0001004652
0.000100467
0.0001004693
0.0001004723
0.000100617
0.0001004241
0.0001004728
0.0001004648
0.0001004652
0.0001004652
0.0001004656
0.0001004697
0.0001004741
0.0001004783
0.0001006005
0.0001004115
0.000100475
0.0001004661
0.0001004655
0.0001004675
0.0001004686
0.0001004768
0.0001004848
0.0001004884
0.0001006048
0.0001004332
0.0001004723
0.0001004671
0.0001004671
0.0001004706
0.0001004775
0.0001004973
0.0001005133
0.0001005118
0.0001006123
0.0001004176
0.0001004766
0.0001004708
0.0001004715
0.0001004831
0.00010051
0.0001005589
0.0001005291
0.0001005341
0.0001005939
0.0001004275
0.0001004858
0.0001004754
0.0001004821
0.0001005119
0.0001006165
0.0001006171
0.0001036548
0.0001018603
0.0001005953
0.0001004563
0.0001004876
0.0001004802
0.0001005042
0.0001005453
0.0001006758
0.0001016566
0.0001617124
0.0001006347
0.0001004377
0.0001004712
0.0001004818
0.0001005165
0.0001005621
0.0001006582
0.0001009327
0.0004369371
0.0001006091
0.000100472
0.0001004663
0.0001004847
0.0001005242
0.0001005509
0.0001006471
0.0001008885
0.0004970665
0.0001006139
0.0001004468
0.0001004692
0.0001004839
0.0001005254
0.0001005538
0.0001006888
0.001725722
0.0001005967
0.0001004309
0.0001004873
0.0001004951
0.0001005282
0.0001005663
0.0001006767
0.00172394
0.0001006106
0.0001004183
0.0001004783
0.0001004917
0.0001005317
0.000100587
0.0001006726
0.0001096999
0.0002921804
0.0001006237
0.0001004205
0.0001004844
0.0001004907
0.0001005345
0.0001005927
0.000100795
0.0001017091
0.0004270338
0.0001006534
0.0001004195
0.0001004813
0.0001004911
0.0001005278
0.0001006076
0.0001008546
0.0001013631
0.0003180916
0.0001010388
0.0001874257
0.0001084476
0.0006071642
0.001264433
0.001229209
0.001216132
0.001213017
0.001212308
0.001212204
0.00121228
0.001212397
0.0001012336
0.0001004368
0.0001006982
0.0001008861
0.0001005383
0.0001005123
0.0001005109
0.0001005109
0.000100511
0.0001005111
0.0001007034
0.0001004216
0.0001004724
0.0001004693
0.0001004664
0.0001004668
0.0001004665
0.0001004664
0.0001004664
0.0001004664
0.0001005828
0.0001004703
0.0001004621
0.0001004659
0.000100466
0.0001004661
0.0001004659
0.0001004661
0.000100466
0.000100466
0.0001006685
0.0001004324
0.0001004598
0.0001004659
0.0001004656
0.0001004659
0.0001004657
0.0001004658
0.0001004658
0.0001004658
0.0001006694
0.0001004471
0.0001004535
0.000100466
0.0001004655
0.0001004653
0.0001004655
0.0001004657
0.0001004658
0.0001004661
0.0001005933
0.0001004792
0.0001004516
0.0001004698
0.0001004655
0.0001004653
0.0001004652
0.0001004657
0.0001004661
0.0001004669
0.0001006852
0.0001004299
0.0001004536
0.0001004708
0.000100465
0.0001004661
0.0001004654
0.000100466
0.000100467
0.0001004687
0.0001006618
0.0001004266
0.000100455
0.0001004706
0.0001004648
0.0001004661
0.000100466
0.0001004671
0.0001004692
0.0001004723
0.0001006906
0.0001004226
0.0001004563
0.0001004703
0.0001004648
0.0001004663
0.0001004672
0.0001004701
0.000100474
0.0001004781
0.0001006163
0.0001004628
0.0001004529
0.0001004713
0.0001004649
0.0001004675
0.0001004703
0.0001004768
0.0001004843
0.0001004886
0.0001006423
0.0001004317
0.0001004597
0.0001004702
0.000100466
0.00010047
0.0001004762
0.0001004972
0.000100514
0.0001005117
0.0001005808
0.0001004634
0.000100462
0.0001004709
0.0001004708
0.0001004832
0.0001005093
0.0001005597
0.0001005269
0.0001005373
0.0001006923
0.0001004409
0.0001004596
0.0001004754
0.0001004813
0.0001005103
0.0001006158
0.000100611
0.0001036657
0.0001019688
0.0001006906
0.0001004291
0.0001004699
0.0001004779
0.0001004988
0.0001005441
0.0001006745
0.0001016337
0.0001616455
0.0001005916
0.0001004617
0.0001004639
0.0001004791
0.0001005162
0.0001005692
0.0001006678
0.0001009337
0.0004410584
0.0001006599
0.0001004332
0.0001004748
0.0001004826
0.0001005287
0.0001005561
0.0001006565
0.0001008979
0.0004930705
0.0001006287
0.0001004387
0.0001004711
0.0001004822
0.0001005281
0.0001005553
0.0001006904
0.001602382
0.0001006191
0.0001004163
0.0001004792
0.0001004927
0.0001005276
0.0001005679
0.0001006719
0.001600067
0.0001006066
0.0001004218
0.0001004767
0.0001004918
0.0001005303
0.0001005886
0.0001006734
0.0001098628
0.0002863434
0.0001006219
0.0001004188
0.0001004805
0.0001004908
0.0001005359
0.0001005939
0.0001008074
0.0001017308
0.0004260565
0.0001006521
0.0001004226
0.000100476
0.0001004898
0.0001005283
0.0001006081
0.0001008591
0.0001013836
0.0003181186
0.0001010389
0.0001875843
0.000108539
0.000607028
0.001262772
0.001226615
0.001213022
0.001209695
0.001208927
0.00120881
0.001208892
0.001209015
0.0001014948
0.0001004372
0.0001006777
0.0001009363
0.0001005419
0.0001005125
0.0001005109
0.000100511
0.000100511
0.0001005111
0.0001006234
0.0001004063
0.0001004745
0.0001004689
0.0001004662
0.0001004669
0.0001004665
0.0001004665
0.0001004664
0.0001004664
0.0001007319
0.0001004296
0.0001004593
0.000100467
0.0001004661
0.000100466
0.000100466
0.0001004661
0.000100466
0.000100466
0.0001005774
0.0001004511
0.0001004571
0.000100469
0.0001004658
0.000100466
0.0001004657
0.0001004658
0.0001004658
0.0001004658
0.0001006734
0.0001004431
0.0001004565
0.0001004681
0.0001004654
0.0001004657
0.0001004655
0.0001004657
0.0001004658
0.000100466
0.0001006828
0.0001004159
0.0001004614
0.0001004669
0.0001004646
0.0001004657
0.0001004652
0.0001004657
0.0001004661
0.0001004669
0.0001005999
0.0001004436
0.0001004642
0.000100463
0.0001004649
0.0001004647
0.000100465
0.0001004661
0.0001004671
0.0001004688
0.0001006861
0.0001004108
0.0001004651
0.0001004636
0.0001004645
0.0001004644
0.0001004648
0.0001004668
0.0001004691
0.0001004723
0.0001005958
0.0001004523
0.0001004632
0.000100463
0.0001004645
0.0001004646
0.000100465
0.0001004693
0.0001004738
0.0001004779
0.0001006703
0.0001004349
0.000100462
0.0001004657
0.0001004652
0.0001004672
0.0001004692
0.000100476
0.0001004838
0.0001004882
0.0001006632
0.0001004129
0.0001004653
0.0001004679
0.0001004667
0.0001004709
0.0001004753
0.0001004965
0.0001005129
0.0001005099
0.0001006505
0.0001004269
0.0001004722
0.0001004686
0.0001004708
0.0001004832
0.0001005098
0.0001005601
0.0001005264
0.0001005362
0.0001007576
0.0001004049
0.0001004744
0.0001004737
0.0001004838
0.0001005123
0.0001006175
0.0001006123
0.0001036633
0.0001019755
0.0001006295
0.0001004654
0.0001004775
0.0001004793
0.0001005061
0.0001005479
0.0001006772
0.0001016358
0.0001616124
0.0001007387
0.0001004022
0.0001004689
0.00010048
0.000100516
0.0001005623
0.0001006618
0.0001009362
0.0004409232
0.0001006065
0.000100422
0.0001004788
0.0001004811
0.0001005238
0.0001005529
0.0001006539
0.000100898
0.0004907304
0.0001006167
0.0001004143
0.0001004736
0.0001004787
0.0001005266
0.0001005576
0.0001006896
0.001569473
0.0001005927
0.0001004174
0.0001004779
0.0001004906
0.000100526
0.0001005667
0.000100669
0.001567095
0.0001006107
0.0001004176
0.0001004845
0.0001004966
0.0001005318
0.0001005891
0.0001006731
0.0001098438
0.000283595
0.0001006107
0.0001004046
0.0001004867
0.0001004948
0.0001005404
0.0001005967
0.0001008078
0.0001017323
0.0004255171
0.0001006548
0.0001004065
0.0001004767
0.0001004888
0.0001005292
0.0001006089
0.0001008592
0.0001013874
0.0003180937
0.0001010372
0.0001876416
0.0001084815
0.0006070488
0.001263873
0.001228429
0.001215206
0.001212035
0.001211298
0.001211192
0.001211281
0.001211409
0.0001017644
0.0001004415
0.0001006876
0.0001009342
0.0001005415
0.0001005125
0.000100511
0.000100511
0.000100511
0.0001005111
0.0001005962
0.0001004033
0.0001004762
0.0001004676
0.0001004669
0.0001004668
0.0001004664
0.0001004664
0.0001004664
0.0001004664
0.0001005733
0.0001004502
0.0001004567
0.0001004681
0.000100466
0.0001004661
0.000100466
0.0001004661
0.000100466
0.000100466
0.0001006157
0.0001004416
0.0001004573
0.0001004699
0.0001004654
0.0001004663
0.0001004658
0.0001004659
0.0001004657
0.0001004658
0.0001007347
0.0001004075
0.0001004659
0.0001004664
0.0001004653
0.0001004658
0.0001004655
0.0001004657
0.0001004658
0.000100466
0.000100609
0.0001004623
0.0001004611
0.0001004629
0.0001004653
0.000100465
0.0001004651
0.0001004657
0.0001004661
0.000100467
0.0001006484
0.0001004367
0.0001004599
0.0001004641
0.0001004647
0.0001004649
0.000100465
0.000100466
0.000100467
0.0001004687
0.0001005949
0.0001004448
0.0001004629
0.0001004626
0.0001004644
0.0001004643
0.0001004648
0.0001004668
0.0001004691
0.0001004723
0.0001006855
0.0001004258
0.000100462
0.0001004621
0.0001004642
0.0001004641
0.0001004651
0.0001004694
0.0001004737
0.0001004779
0.0001006884
0.0001004488
0.0001004638
0.0001004629
0.0001004645
0.0001004664
0.000100468
0.0001004757
0.0001004837
0.0001004881
0.0001006049
0.0001004649
0.0001004666
0.0001004658
0.0001004677
0.0001004702
0.0001004762
0.0001004961
0.0001005119
0.0001005099
0.0001006066
0.0001004185
0.0001004688
0.0001004677
0.0001004699
0.0001004826
0.0001005108
0.0001005608
0.0001005265
0.0001005365
0.0001006002
0.0001004619
0.000100474
0.0001004676
0.0001004846
0.0001005115
0.0001006136
0.0001006091
0.0001036559
0.0001019749
0.0001008686
0.0001004419
0.000100481
0.0001004798
0.0001005141
0.0001005549
0.0001006839
0.0001016371
0.0001617236
0.000100635
0.0001004102
0.0001004791
0.0001004844
0.0001005194
0.0001005571
0.000100665
0.0001009364
0.0004408654
0.0001005917
0.0001004209
0.0001004694
0.0001004813
0.0001005205
0.0001005531
0.0001006533
0.000100896
0.0004904657
0.0001006045
0.0001004132
0.000100482
0.0001004804
0.0001005261
0.0001005572
0.0001006889
0.001569443
0.0001005946
0.0001004154
0.0001004779
0.000100487
0.0001005275
0.000100567
0.0001006695
0.001567248
0.0001005901
0.0001004148
0.0001004808
0.0001004946
0.0001005307
0.0001005883
0.0001006726
0.0001098283
0.0002831412
0.0001006106
0.0001004026
0.0001004881
0.0001004952
0.0001005408
0.0001005973
0.0001008083
0.0001017306
0.0004254248
0.0001006458
0.0001004034
0.0001004765
0.0001004889
0.0001005295
0.000100609
0.0001008591
0.0001013895
0.000318055
0.0001010364
0.0001876465
0.0001085082
0.0006073678
0.001271064
0.001239225
0.00122815
0.001225561
0.001224947
0.001224875
0.001224984
0.001225118
0.000101377
0.0001004373
0.0001005991
0.0001008708
0.0001005375
0.0001005126
0.0001005112
0.0001005113
0.0001005113
0.0001005114
0.0001006566
0.000100417
0.0001004703
0.000100466
0.000100467
0.0001004666
0.0001004664
0.0001004665
0.0001004664
0.0001004664
0.0001007478
0.0001004702
0.000100452
0.0001004707
0.0001004659
0.0001004665
0.0001004661
0.0001004661
0.000100466
0.000100466
0.0001005801
0.0001004431
0.0001004626
0.000100464
0.0001004656
0.0001004656
0.0001004657
0.0001004658
0.0001004658
0.0001004658
0.0001006593
0.0001004713
0.0001004503
0.0001004688
0.0001004653
0.000100466
0.0001004655
0.0001004657
0.0001004658
0.000100466
0.0001007419
0.0001004329
0.0001004513
0.000100468
0.0001004651
0.0001004655
0.0001004654
0.0001004657
0.0001004661
0.0001004669
0.0001006165
0.0001004602
0.0001004501
0.0001004691
0.0001004646
0.0001004657
0.0001004656
0.0001004661
0.0001004671
0.0001004687
0.0001007161
0.0001004114
0.0001004536
0.0001004681
0.0001004645
0.0001004655
0.0001004656
0.000100467
0.0001004692
0.0001004723
0.0001006934
0.0001004186
0.0001004528
0.0001004683
0.0001004646
0.0001004664
0.0001004672
0.0001004701
0.0001004739
0.0001004779
0.0001006723
0.0001004285
0.0001004537
0.0001004667
0.0001004645
0.0001004674
0.0001004704
0.0001004767
0.000100484
0.0001004885
0.0001006432
0.0001004635
0.0001004599
0.0001004675
0.0001004665
0.0001004708
0.0001004773
0.0001004975
0.0001005135
0.0001005114
0.0001005803
0.0001004331
0.0001004649
0.000100469
0.0001004712
0.0001004838
0.0001005103
0.00010056
0.0001005275
0.0001005375
0.0001007379
0.0001003956
0.0001004619
0.0001004724
0.000100482
0.0001005103
0.0001006165
0.000100612
0.0001036585
0.0001019706
0.0001008309
0.0001004276
0.0001004586
0.000100474
0.0001004942
0.00010054
0.0001006709
0.0001016213
0.0001616998
0.0001006114
0.0001004515
0.0001004888
0.000100476
0.0001005299
0.0001005754
0.0001006728
0.0001009379
0.0004411065
0.0001006627
0.0001003914
0.0001004837
0.0001004909
0.0001005308
0.0001005515
0.0001006551
0.0001008958
0.0004912696
0.0001006056
0.0001004227
0.000100471
0.0001004843
0.0001005218
0.0001005541
0.0001006909
0.001602164
0.0001005912
0.0001004107
0.0001004952
0.0001004886
0.0001005289
0.0001005706
0.000100673
0.001600644
0.0001005864
0.0001004246
0.0001004763
0.0001004913
0.0001005298
0.0001005878
0.000100672
0.0001098638
0.0002843521
0.0001006266
0.0001004166
0.0001004788
0.0001004903
0.0001005374
0.0001005941
0.0001008058
0.0001017129
0.0004266446
0.0001006499
0.0001004192
0.0001004758
0.0001004884
0.0001005285
0.0001006074
0.0001008586
0.0001014043
0.000318207
0.0001010356
0.0001877603
0.0001085131
0.0006100178
0.001290819
0.001273526
0.001265991
0.001264667
0.001264397
0.001264281
0.001264548
0.001264637
0.00010143
0.0001004676
0.0001005133
0.0001007751
0.0001005315
0.0001005134
0.0001005124
0.0001005124
0.0001005124
0.0001005125
0.0001006592
0.000100414
0.0001004756
0.0001004686
0.0001004656
0.0001004667
0.0001004664
0.0001004664
0.0001004664
0.0001004664
0.0001005705
0.0001004556
0.0001004712
0.0001004655
0.0001004659
0.0001004659
0.000100466
0.0001004661
0.000100466
0.000100466
0.0001007296
0.0001004818
0.0001004533
0.0001004708
0.0001004656
0.0001004662
0.0001004659
0.0001004658
0.0001004658
0.0001004658
0.0001005713
0.0001004863
0.0001004574
0.0001004704
0.0001004656
0.0001004659
0.0001004655
0.0001004657
0.0001004658
0.000100466
0.0001007101
0.0001003911
0.0001004785
0.0001004664
0.0001004649
0.0001004651
0.0001004652
0.0001004657
0.0001004661
0.000100467
0.0001006269
0.0001004119
0.0001004749
0.0001004633
0.000100465
0.0001004644
0.000100465
0.000100466
0.0001004671
0.0001004688
0.0001006278
0.0001004338
0.0001004683
0.0001004632
0.0001004646
0.0001004644
0.000100465
0.0001004669
0.0001004692
0.0001004722
0.0001006394
0.0001004209
0.0001004746
0.000100463
0.0001004649
0.0001004647
0.0001004655
0.0001004696
0.0001004739
0.0001004781
0.0001007393
0.0001003931
0.0001004837
0.0001004692
0.000100466
0.0001004668
0.0001004689
0.0001004766
0.0001004844
0.0001004882
0.0001005683
0.0001004837
0.0001004578
0.0001004703
0.000100468
0.0001004718
0.0001004782
0.000100498
0.0001005132
0.0001005115
0.0001006483
0.0001004435
0.0001004592
0.0001004675
0.0001004701
0.0001004824
0.0001005098
0.000100559
0.0001005294
0.0001005332
0.0001006713
0.0001004201
0.0001004678
0.0001004727
0.0001004808
0.0001005115
0.0001006174
0.0001006152
0.000103642
0.0001018851
0.0001006289
0.0001004179
0.0001005032
0.0001004815
0.0001005067
0.0001005454
0.0001006762
0.0001016361
0.0001615894
0.0001007965
0.0001004442
0.0001004659
0.0001004811
0.0001005126
0.0001005526
0.0001006592
0.0001009348
0.0004406705
0.0001005941
0.0001004512
0.0001004825
0.0001004766
0.0001005289
0.0001005606
0.0001006506
0.0001008922
0.0004950432
0.0001006845
0.0001004073
0.0001004795
0.0001004884
0.0001005271
0.0001005525
0.0001006894
0.001724371
0.0001006659
0.0001004387
0.0001004784
0.0001004891
0.000100525
0.0001005651
0.0001006777
0.001724723
0.0001006726
0.0001004192
0.0001004794
0.0001004911
0.0001005295
0.000100588
0.0001006677
0.00010972
0.0002934485
0.0001006243
0.0001004198
0.0001004893
0.0001004931
0.0001005367
0.0001005935
0.0001007841
0.000101622
0.0004396896
0.0001006463
0.0001004162
0.0001004815
0.0001004897
0.0001005288
0.0001006051
0.0001008555
0.0001014434
0.000327239
0.0001010265
0.000187703
0.0001084376
0.0006159348
0.0006037956
0.0005858297
0.0005821825
0.0005833637
0.0005830434
0.0005826991
0.0005835933
0.0005830859
0.0001017015
0.0001011475
0.0001009211
0.0001005444
0.0001005239
0.0001005186
0.0001005195
0.000100513
0.0001005157
0.0001005499
0.0001009393
0.0001017298
0.0001009869
0.0001006921
0.0001005511
0.0001005355
0.0001005127
0.0001005106
0.0001005101
0.0001005102
0.0001006989
0.0001025589
0.0001011027
0.0001008108
0.0001005519
0.0001005348
0.0001005156
0.0001005109
0.0001005098
0.0001005142
0.0001007036
0.000102746
0.000101093
0.0001008621
0.0001005674
0.0001005464
0.0001005131
0.0001005102
0.0001005097
0.0001005104
0.0001006659
0.0001027009
0.0001011004
0.0001009005
0.0001005877
0.0001005535
0.0001005138
0.0001005105
0.0001005098
0.0001005128
0.0001006746
0.0001021551
0.0001008904
0.0001007826
0.0001005562
0.0001005501
0.0001005201
0.0001005209
0.0001005149
0.0001005152
0.0001006903
0.0001019301
0.0001010215
0.000100867
0.0001005927
0.0001005641
0.0001005186
0.0001005191
0.000100517
0.0001005162
0.000100687
0.0001019734
0.0001010654
0.0001008626
0.0001005929
0.0001005615
0.0001005172
0.0001005247
0.0001005227
0.0001005217
0.0001006972
0.0001020123
0.0001010008
0.0001008493
0.0001005774
0.0001005503
0.0001005144
0.0001005166
0.0001005225
0.0001005224
0.000101052
0.0001022299
0.0001009065
0.0001007909
0.0001005622
0.0001005357
0.0001005154
0.0001005361
0.0001005362
0.0001005402
0.0001007384
0.0001027111
0.0001011009
0.000100884
0.0001005593
0.0001005163
0.0001005221
0.0001005453
0.0001005636
0.000100556
0.0001006489
0.000102704
0.0001010722
0.0001008845
0.0001005412
0.0001005288
0.0001005585
0.0001005951
0.0001006099
0.0001007635
0.0001008758
0.0001023706
0.0001009895
0.000100873
0.000100556
0.0001005605
0.0001006794
0.0001005707
0.0001036985
0.0001016767
0.0001007811
0.0001022768
0.0001009381
0.0001007989
0.0001005673
0.0001005936
0.0001007352
0.0001015744
0.0001609072
0.0001006623
0.0001028086
0.0001011009
0.0001008674
0.0001005892
0.0001006111
0.0001007117
0.0001008396
0.0004282913
0.0001007135
0.0001028367
0.0001010299
0.0001007659
0.0001005798
0.0001005954
0.0001006854
0.0001007486
0.000495528
0.0001006241
0.0001026126
0.0001010004
0.0001007659
0.0001005835
0.0001006017
0.0001006809
0.0001008395
0.0002683402
0.0001007188
0.0001023883
0.0001009485
0.0001007205
0.0001005845
0.0001006065
0.0001007038
0.0001008334
0.0002699192
0.0001006769
0.0001019629
0.0001008668
0.0001006923
0.0001005835
0.0001006216
0.0001007457
0.0001005378
0.000375495
0.000101399
0.0001017829
0.0001008694
0.0001006987
0.0001005871
0.0001006476
0.0001008202
0.0001011125
0.0005136127
0.0001011095
0.0001016727
0.0001008893
0.0001006836
0.0001005857
0.0001006598
0.0001009242
0.0001011615
0.0003780654
0.0001011343
0.0001009451
0.0001866584
0.0001078498
0.0002920459
0.0002758902
0.0006001396
0.000271236
0.0002778717
0.0002756994
0.0002748906
0.0002778773
0.0002751114
0.0001021611
0.001340876
0.001314907
0.001306219
0.001303992
0.001302933
0.001302534
0.001302865
0.001303157
0.001302571
0.000103208
0.001311847
0.001261814
0.001246468
0.001242252
0.001241137
0.001240797
0.001240919
0.001241117
0.001241239
0.0001007756
0.001298775
0.001245229
0.001226578
0.001221201
0.001219772
0.001219356
0.001219457
0.0012197
0.001219924
0.0001010497
0.001294033
0.001240446
0.001220932
0.001215009
0.001213334
0.001212845
0.001212961
0.001213236
0.001213491
0.0001010209
0.001293553
0.001239222
0.00121922
0.001212991
0.001211179
0.001210644
0.001210768
0.001211075
0.001211347
0.0001013433
0.001296606
0.00123937
0.001218745
0.001212332
0.001210459
0.001209887
0.001210019
0.001210362
0.001210668
0.0001009213
0.00129904
0.001240005
0.001218725
0.001212165
0.00121023
0.001209717
0.001209942
0.001210376
0.001210741
0.0001009888
0.001299346
0.001240181
0.001218752
0.001212203
0.001210382
0.001210044
0.001210483
0.001211112
0.001211607
0.0001012955
0.001299433
0.001239972
0.001218704
0.001212377
0.001210874
0.00121103
0.001212045
0.001213157
0.001213939
0.0001015573
0.001296648
0.00123929
0.001218756
0.001212919
0.001212391
0.001213978
0.001216711
0.001219218
0.001220721
0.0001012151
0.001293626
0.00123882
0.00121892
0.001214002
0.001216757
0.001223808
0.001231901
0.001239179
0.001243082
0.0001012463
0.001294362
0.001238985
0.001219386
0.001215689
0.001223781
0.001256532
0.001270681
0.001301786
0.0013102
0.0001011684
0.001297413
0.00123973
0.001219992
0.001217479
0.001229853
0.001268926
0.0001332661
0.0001039575
0.0001018014
0.0001008275
0.0012982
0.001239575
0.001220079
0.001218396
0.001233941
0.001291677
0.0001244234
0.000161812
0.0001011169
0.001295813
0.001239145
0.00121999
0.001218584
0.00123516
0.001289452
0.0001150099
0.0003423348
0.0001011351
0.00129368
0.001238627
0.001219937
0.001218797
0.001235626
0.00128797
0.0001118343
0.0003634881
0.0001010558
0.001292288
0.00123856
0.001220116
0.001219283
0.001237138
0.001293561
0.0001101504
0.000357984
0.0001011976
0.001292852
0.001238934
0.00122045
0.001219853
0.001238337
0.001297532
0.00011022
0.0003617284
0.0001014476
0.001296297
0.001239879
0.00122091
0.001220302
0.001238598
0.001297377
0.0001118733
0.0003671719
0.0001009219
0.001299008
0.00124094
0.001221608
0.001220798
0.00123879
0.001297615
0.0001160172
0.0003733188
0.0001021627
0.001300995
0.001241729
0.00122228
0.00122124
0.001237706
0.001296775
0.0001252926
0.00032964
0.0001028083
0.000142846
0.000189719
0.0001063771
0.0002596338
0.0006486157
0.0002718911
0.0001020702
0.0001016574
0.0002806694
0.0006375535
0.0006154159
0.0006122097
0.0006000781
0.0001016541
0.000101244
0.0002807074
0.0006094632
0.0006063837
0.0006083424
0.000594183
0.0001020697
0.0001028424
0.0002808775
0.000605943
0.0006054202
0.0005912355
0.0005893432
0.0001017384
0.0001021812
0.0002809835
0.0006056633
0.0006054266
0.0005893594
0.0005889377
0.0001017525
0.0001020017
0.0002810661
0.0006056915
0.0006054533
0.000589211
0.0005889697
0.0001016875
0.000101879
0.000281131
0.0006057392
0.0006055185
0.000589259
0.0005890222
0.0001017051
0.0001019185
0.0002812048
0.000605819
0.0006056144
0.0005893208
0.0005890907
0.0001017118
0.0001019248
0.0002812923
0.0006059533
0.0006057956
0.000589392
0.0005891582
0.0001017307
0.0001019691
0.0006061707
0.0005894571
0.0001017586
0.0006523118
0.0006361336
0.0001019347
0.0001028831
0.0001021135
0.0001034299
0.0006326407
0.0006305717
0.0001020374
0.0001032935
0.0001024731
0.0001032744
0.0006302754
0.0006300954
0.0001019962
0.0001031807
0.0001026531
0.0001030936
0.0006300665
0.0006301236
0.0001019824
0.0001031154
0.0001028067
0.0001030033
0.0006301555
0.0006301868
0.0001019585
0.0001030778
0.0001029153
0.0001029238
0.0006301605
0.0006302002
0.0001019492
0.0001029338
0.0001030292
0.0001028638
0.0006301728
0.0006301973
0.0001019245
0.0001029316
0.0001030716
0.0001028323
0.000630185
0.000630198
0.0001018557
0.0001028846
0.0001030747
0.000102698
0.0006301747
0.0006300843
0.0001018167
0.0001028521
0.0001030223
0.0001026653
0.0006301283
0.0006301783
0.0001018093
0.0001027684
0.0001030182
0.000102788
0.0006301304
0.0006301573
0.0001018065
0.0001027875
0.000102941
0.0001028421
0.0006300654
0.0006299803
0.0001018766
0.0001026754
0.0001027621
0.0001027137
0.0006301329
0.0006301282
0.0001020118
0.000102757
0.0001025688
0.0001029153
0.0006290226
0.0003341565
0.0003237802
0.0001039865
0.0001022813
0.0001345156
0.0003020776
0.0006302358
0.000629962
0.0001021383
0.0001029493
0.0001020914
0.0001027403
0.000142069
0.0001619152
0.0003221958
0.0006299392
0.0006300126
0.0001025096
0.0001028128
0.0001015839
0.0001024476
0.0001379395
0.0003442884
0.0003682738
0.0006300779
0.0006298572
0.0001020911
0.0001025705
0.0001019995
0.0001025396
0.0001362982
0.0003681618
0.0003628221
0.0006298943
0.000629719
0.0001026789
0.0001026792
0.0001024448
0.000102403
0.0001386087
0.0003622199
0.0003623745
0.0006300131
0.0006297828
0.0001025986
0.0001027751
0.0001025096
0.0001023674
0.0001410259
0.0003629958
0.0003658265