/*--------------------------------*- C++ -*----------------------------------*\
  =========                 |
  \\      /  F ield         | OpenFOAM: The Open Source CFD Toolbox
   \\    /   O peration     | Website:  https://openfoam.org
    \\  /    A nd           | Version:  7
     \\/     M anipulation  |
\*---------------------------------------------------------------------------*/
FoamFile
{
    version     2.0;
    format      ascii;
    class       volScalarField;
    location    "0.1";
    object      p;
}
// * * * * * * * * * * * * * * * * * * * * * * * * * * * * * * * * * * * * * //

dimensions      [0 2 -2 0 0 0 0];

internalField   nonuniform List<scalar> 
105127
(
0.4164639
0.2701819
0.2723474
0.287277
0.3021073
0.2210692
0.2208325
0.2419971
0.2648105
0.280872
0.151703
0.1804336
0.2112926
0.2375418
0.2476896
0.1150309
0.162333
0.207357
0.2329462
0.2537433
0.0935628
0.1324915
0.1680118
0.1878784
0.2083226
0.08166746
0.1240266
0.1673102
0.1939062
0.2177782
0.06841943
0.1069792
0.143979
0.1693689
0.1922139
0.06152092
0.1026136
0.1404974
0.1669865
0.1898394
0.05391445
0.09314306
0.1282315
0.1536581
0.1761486
0.04931185
0.08768616
0.1225525
0.1477212
0.1698652
0.04494695
0.08196072
0.1152517
0.1396067
0.1611619
0.04158153
0.0775813
0.1101912
0.1336811
0.1545967
0.03866898
0.07343532
0.1052951
0.1277945
0.1480473
0.03622439
0.06981414
0.1011621
0.1228304
0.1423911
0.03403912
0.06656152
0.09716585
0.1184457
0.1372788
0.03217672
0.06372264
0.0932687
0.1147093
0.1328058
0.03060876
0.0611314
0.09023931
0.1111898
0.1287267
0.029294
0.05864935
0.09009806
0.1082986
0.1249563
0.02822158
0.05693485
0.08703424
0.1055664
0.1214759
0.02741866
0.05535381
0.08410795
0.1029095
0.1181809
0.02676645
0.05383522
0.08194677
0.09989119
0.1149576
0.02616263
0.05239028
0.0803128
0.0966389
0.1118143
0.0255303
0.05096966
0.07884734
0.09338203
0.1088739
0.014148
0.03706098
0.06608408
0.09042292
0.1062806
0.4575002
0.2589699
0.2554883
0.2634349
0.2813164
0.1011263
0.184289
0.2027995
0.2466533
0.2613652
0.2814696
0.05394156
0.1267571
0.1376417
0.1511354
0.1645004
0.1752111
0.02586521
0.134216
0.1679873
0.2190694
0.2384226
0.2629084
0.0235705
0.08859967
0.1142049
0.1439609
0.159178
0.176925
0.01747387
0.09379407
0.1295083
0.1758043
0.2015945
0.2291866
0.01580541
0.06911805
0.09773988
0.1322017
0.1542253
0.1768514
0.0135194
0.07043779
0.1019923
0.1406805
0.1671174
0.1939959
0.0119884
0.05830701
0.08582454
0.1188212
0.1435668
0.168164
0.01070974
0.05646551
0.08380416
0.1166837
0.1422006
0.1676154
0.00972488
0.05053538
0.07539607
0.1058038
0.1302089
0.1546072
0.008989244
0.04792611
0.07158373
0.1010271
0.1249386
0.1490561
0.008445742
0.04457923
0.06659621
0.09465529
0.11761
0.1410103
0.008157531
0.04219228
0.06299792
0.0901024
0.112156
0.1350103
0.00767117
0.03992266
0.05951914
0.08587129
0.106493
0.1290019
0.007321225
0.03807014
0.05656397
0.08262758
0.1013808
0.1237144
0.007055292
0.03641807
0.05381688
0.0796512
0.09672304
0.1188049
0.006830631
0.03488384
0.05144533
0.07628266
0.09263103
0.1142462
0.00663326
0.03353377
0.04917016
0.07343876
0.08907582
0.110171
0.006456423
0.03228764
0.04702067
0.07064627
0.08587152
0.1063881
0.006313274
0.03121442
0.04514485
0.06821997
0.08300554
0.1028699
0.006210214
0.03031424
0.04349581
0.06599908
0.0802979
0.09954967
0.006120134
0.02963534
0.04210294
0.06400336
0.07801012
0.0963966
0.003426541
0.02879034
0.0407388
0.06202107
0.07571868
0.09338126
0.4847329
0.3202694
0.3103691
0.2873175
0.2956913
0.1671232
0.1860259
0.1805323
0.2322653
0.2514311
0.2752812
0.0775354
0.1470868
0.1503352
0.1729719
0.1829633
0.1929611
0.03572026
0.1343846
0.164189
0.2143364
0.2385244
0.2628545
0.03109587
0.09147606
0.1190521
0.1482454
0.1672963
0.1858231
0.01980936
0.09061593
0.1296185
0.1731539
0.201244
0.2267314
0.01756242
0.06657423
0.09960336
0.1310233
0.1549329
0.1765856
0.01455879
0.06700402
0.102824
0.1396559
0.1667682
0.1911868
0.01298986
0.05464501
0.08603355
0.1178135
0.1424259
0.1652196
0.01172997
0.05321485
0.08417445
0.1169039
0.1419482
0.1652003
0.01082832
0.04722138
0.0754969
0.1057807
0.1295032
0.1518927
0.01006962
0.04493082
0.07196327
0.1015111
0.1247809
0.1467795
0.00945292
0.04163222
0.06693745
0.09496332
0.1173834
0.138707
0.008924218
0.03941972
0.06348566
0.09041595
0.1122625
0.1330187
0.00845739
0.03719802
0.06003199
0.08568066
0.1070998
0.1271899
0.008048923
0.03535013
0.0571367
0.08153957
0.1028336
0.1222349
0.007708991
0.03365811
0.05445542
0.07772782
0.09893907
0.117581
0.007421371
0.03214547
0.05200949
0.07444039
0.09538152
0.1133276
0.007153243
0.03077882
0.04986511
0.07138271
0.09202085
0.1093607
0.006897983
0.02954447
0.04793485
0.0686359
0.08885515
0.1056693
0.006655418
0.0284447
0.0462069
0.06616552
0.08585836
0.1022279
0.006426946
0.02747558
0.04465244
0.06391578
0.08303457
0.09903035
0.006217336
0.02663783
0.04325175
0.0618601
0.08032836
0.09609164
0.00694274
0.02584202
0.0419422
0.05996099
0.07770742
0.09342798
0.4886811
0.3714882
0.3445779
0.3363069
0.3330041
0.1771851
0.2134578
0.2080391
0.2504672
0.2636301
0.2869456
0.07063623
0.1340973
0.133385
0.1497306
0.1606559
0.1663761
0.03152014
0.1424341
0.1719153
0.2302435
0.2518866
0.2785436
0.02725262
0.08453545
0.1085595
0.1343558
0.1501948
0.1670973
0.01768827
0.09633131
0.1343747
0.1834539
0.21043
0.238103
0.01485143
0.06524286
0.09493602
0.1258761
0.1473879
0.1695726
0.01289912
0.07080392
0.1051751
0.1442794
0.1709127
0.1971835
0.01134523
0.05562878
0.0849974
0.1163349
0.1402198
0.1641062
0.01042147
0.05561801
0.08555533
0.1182853
0.1432889
0.1680568
0.00946855
0.04865684
0.07580359
0.1053748
0.1289337
0.1526107
0.00880424
0.04656801
0.07284793
0.1017654
0.1250044
0.1484084
0.008171675
0.04295306
0.06754008
0.09482742
0.1171081
0.1397677
0.007661477
0.04069838
0.06416367
0.0904245
0.112023
0.1341181
0.007205064
0.03837063
0.06062624
0.08574996
0.1065425
0.1280105
0.006812096
0.0364762
0.05770463
0.08187126
0.1019242
0.1228196
0.006463933
0.03474624
0.05500717
0.07828183
0.09758515
0.1179139
0.006151852
0.03319992
0.05258491
0.07498846
0.09366739
0.1134464
0.005872015
0.03182125
0.05039572
0.07205056
0.09009505
0.1093438
0.005617484
0.03056445
0.0483961
0.06933861
0.08682537
0.1055583
0.005385867
0.02943058
0.04659269
0.06687782
0.083831
0.1020576
0.005174837
0.02839704
0.0449521
0.06460751
0.08106068
0.09880235
0.004983849
0.02746246
0.04346947
0.06253065
0.07853422
0.09576768
0.004290014
0.02658634
0.04209768
0.06057788
0.07615201
0.09291686
0.540866
0.3829233
0.3504479
0.3482213
0.3345777
0.1776065
0.1923441
0.1930239
0.2534679
0.263662
0.2924868
0.07794827
0.1390813
0.132009
0.1487849
0.1592331
0.1657022
0.03245078
0.138521
0.1684647
0.2279949
0.2526883
0.2789783
0.02622584
0.08442731
0.1082905
0.1338638
0.1502133
0.1666241
0.01740251
0.09445963
0.1341674
0.1812017
0.209958
0.2369037
0.01443705
0.06391988
0.0949504
0.1244333
0.1468794
0.1682522
0.01261445
0.06948601
0.1055644
0.1431479
0.1707634
0.1961202
0.01106046
0.05428106
0.08504334
0.1150839
0.1395598
0.1626622
0.01018097
0.05456642
0.0859206
0.1175788
0.1431889
0.1671288
0.009200292
0.04757723
0.07600508
0.1045198
0.1285709
0.1514761
0.008539545
0.04565431
0.07320682
0.1011677
0.1249085
0.1475537
0.007893055
0.04205666
0.06785848
0.09418692
0.1169563
0.13888
0.00737713
0.03987419
0.06453662
0.08986987
0.1119783
0.133367
0.006911014
0.03757084
0.06099406
0.08519299
0.1065538
0.1273084
0.006509971
0.03570263
0.05808324
0.08132289
0.1020364
0.1222118
0.00615403
0.03398334
0.05538232
0.07771661
0.09780136
0.1173868
0.00583809
0.03245861
0.05297362
0.07448692
0.09398964
0.1130102
0.005555969
0.03108544
0.05079369
0.07154467
0.09047779
0.1089621
0.005301842
0.02984348
0.0488134
0.06886011
0.08724891
0.1052327
0.005072806
0.02872352
0.0470124
0.06641547
0.0842571
0.1017818
0.004865313
0.02770517
0.04536864
0.06417497
0.0815003
0.09860371
0.004678144
0.02678243
0.04385179
0.06213159
0.07889851
0.09566224
0.003853967
0.0259243
0.0424603
0.06023227
0.07652594
0.09297214
0.5581299
0.2547637
0.2717376
0.2774561
0.2924464
0.1816329
0.2040887
0.2003561
0.250462
0.2622624
0.2854195
0.08738091
0.1356691
0.1361497
0.1515884
0.1647801
0.1698562
0.03347955
0.1415915
0.1722696
0.230358
0.2529076
0.2796046
0.02561415
0.08454036
0.1093909
0.1347583
0.1514392
0.1680577
0.01708571
0.09519555
0.1349637
0.1827843
0.2112071
0.238199
0.01420828
0.06414148
0.09527743
0.1249528
0.1473511
0.1688306
0.01242743
0.06972242
0.1058312
0.1437039
0.1713536
0.1967595
0.01088512
0.0543843
0.08517558
0.1153241
0.1398154
0.1629786
0.0100171
0.05464507
0.08602081
0.1177624
0.1434029
0.1673786
0.00904533
0.04761819
0.07606141
0.104618
0.1286845
0.1516192
0.008391614
0.04567878
0.07324201
0.1012272
0.1249822
0.1476435
0.007749772
0.04207044
0.06787859
0.09421932
0.1169971
0.1389325
0.00723936
0.03988099
0.06454698
0.08988756
0.1120027
0.1333958
0.006777861
0.03757409
0.06099906
0.08520192
0.106563
0.1273235
0.006378965
0.03570377
0.05808484
0.08132636
0.1020398
0.1222167
0.006024238
0.0339835
0.05538225
0.0777165
0.09780069
0.1173851
0.00570907
0.03245801
0.05297228
0.07448352
0.09398635
0.1130017
0.005427431
0.03108384
0.05079154
0.07153697
0.09047392
0.1089465
0.005173891
0.02983974
0.04881024
0.06884347
0.08724251
0.1052
0.004945122
0.02871455
0.04700702
0.06638137
0.08425348
0.1017237
0.004737629
0.02768905
0.04536233
0.06411433
0.08148993
0.09849174
0.004549768
0.02674704
0.04384059
0.06200762
0.07890679
0.09545702
0.003876829
0.02587859
0.04245332
0.06006397
0.07652066
0.09262971
0.5082277
0.2468071
0.2616522
0.2804453
0.2997846
0.1863167
0.210389
0.205051
0.249153
0.2648929
0.289427
0.1001208
0.1314606
0.1335274
0.1499624
0.1618959
0.1677268
0.03492556
0.1409764
0.1710889
0.225934
0.2484967
0.2743326
0.02665599
0.08398217
0.1084946
0.134613
0.1507526
0.1675855
0.01722889
0.09544218
0.1333488
0.1813043
0.2082434
0.2359034
0.01440115
0.06507831
0.09483496
0.1256131
0.1470118
0.1692916
0.01260925
0.07039926
0.1046699
0.1434357
0.1699645
0.1961927
0.01102868
0.05554482
0.08488696
0.1161301
0.1399848
0.1638406
0.01013015
0.05547135
0.08535389
0.1179802
0.1429367
0.1676614
0.009155107
0.04860916
0.07573381
0.105263
0.1287988
0.1524491
0.008490083
0.04651761
0.07277489
0.1016578
0.1248771
0.1482605
0.007843352
0.04293111
0.06750529
0.09477146
0.117046
0.1396926
0.00732528
0.04068175
0.0641383
0.09038964
0.1119771
0.1340669
0.006858572
0.0383626
0.06061351
0.08573342
0.1065231
0.1279871
0.006455755
0.03647154
0.05769686
0.08186225
0.101912
0.1228076
0.006098507
0.03474466
0.05500328
0.07828026
0.09757999
0.1179137
0.005780888
0.03320062
0.05258303
0.07499412
0.09366707
0.1134593
0.005498135
0.03182516
0.05039345
0.07206636
0.0900926
0.1093711
0.00524348
0.03057253
0.04839321
0.069371
0.08682757
0.1056177
0.005014184
0.02944907
0.0465807
0.06694146
0.0838076
0.1021592
0.0048064
0.02842828
0.04493787
0.06472036
0.08106023
0.09900009
0.004618786
0.02752789
0.04340992
0.06273918
0.07841148
0.09608082
0.003951899
0.02668501
0.04204777
0.06091198
0.0761348
0.09351024
0.4832568
0.2322476
0.2516782
0.2769747
0.2995466
0.176516
0.1887458
0.1871776
0.2321264
0.2450967
0.2694612
0.09970272
0.1413502
0.1470674
0.1715516
0.1820241
0.1908609
0.03462225
0.1339147
0.1638709
0.2138748
0.2368775
0.262398
0.02545741
0.09055144
0.1185268
0.1480103
0.1671652
0.1854602
0.01666627
0.09037256
0.1289441
0.1726726
0.2007185
0.226412
0.01430643
0.06648368
0.09950471
0.1310651
0.1551659
0.176688
0.0122678
0.06691673
0.1025936
0.1395034
0.1666461
0.1911173
0.01083792
0.05464537
0.0860066
0.1178487
0.1424738
0.1652718
0.009834662
0.05318896
0.0841089
0.1168557
0.1419068
0.1651769
0.008876788
0.04722499
0.07548523
0.1057931
0.1295113
0.1519051
0.008176369
0.04492253
0.07194402
0.1014939
0.1247631
0.1467716
0.007535295
0.04163098
0.06693258
0.09496428
0.1173789
0.1387096
0.00700263
0.03941448
0.06347576
0.09040251
0.1122502
0.1330106
0.006534562
0.03719455
0.06002539
0.08567218
0.1070926
0.127197
0.006131723
0.03534702
0.05713066
0.08153247
0.1028241
0.1222264
0.005778996
0.0336564
0.05445114
0.07772329
0.09893111
0.1175731
0.005471208
0.03214474
0.05200633
0.0744373
0.09537437
0.1133199
0.005201721
0.03077838
0.04986148
0.07137762
0.09201401
0.1093495
0.004962425
0.02954313
0.04793019
0.06862423
0.08884668
0.1056456
0.004748064
0.02843852
0.04619278
0.06613392
0.08584102
0.1021668
0.004555783
0.02746453
0.04463436
0.06386075
0.08301021
0.09890443
0.004383749
0.02660381
0.04319401
0.0617188
0.08029519
0.09577271
0.003948748
0.02581803
0.04188533
0.05975755
0.07769057
0.09281961
0.4259614
0.2233964
0.24193
0.2611538
0.2814347
0.1196196
0.1821477
0.196602
0.232904
0.2507031
0.2704486
0.06853126
0.1213424
0.1311564
0.1518751
0.1637965
0.1743891
0.02789216
0.131447
0.1644549
0.2137369
0.2349189
0.2597002
0.02207638
0.08736028
0.1125414
0.1430205
0.1585973
0.176279
0.01494261
0.0926726
0.1280863
0.1737954
0.1994994
0.2270814
0.01267357
0.06888156
0.09742486
0.1319415
0.154074
0.1767636
0.01085707
0.06999019
0.10135
0.139807
0.1661764
0.1929896
0.009398617
0.05823148
0.08570424
0.1186643
0.1433931
0.1679952
0.00846532
0.05630325
0.08356269
0.1163644
0.1418295
0.1672114
0.007573092
0.05049145
0.07532081
0.1056972
0.1300845
0.154474
0.006937454
0.04787026
0.07149604
0.1009119
0.1248003
0.1488982
0.006380919
0.04455602
0.06655641
0.09460458
0.1175455
0.1409323
0.005956824
0.04217258
0.06296601
0.09006156
0.1121049
0.1349497
0.005571755
0.03991224
0.05950214
0.08585027
0.1064638
0.1289569
0.005257451
0.03806345
0.05655249
0.08261705
0.1013646
0.1236979
0.004983196
0.03641531
0.05381052
0.07965001
0.09671546
0.1188042
0.004740571
0.03488394
0.05144195
0.07628993
0.09263021
0.1142618
0.004536503
0.03353865
0.0491662
0.07346012
0.08907057
0.1102081
0.004355354
0.03229777
0.04701416
0.07068993
0.0858738
0.1064725
0.004203409
0.03123827
0.04512036
0.06831052
0.08295624
0.1030259
0.004086934
0.03034968
0.04346344
0.06617273
0.08029012
0.09990015
0.003999055
0.02971743
0.04194729
0.06432604
0.07765779
0.09702251
0.003435634
0.02899665
0.04057686
0.06267944
0.07557364
0.09480347
0.2113994
0.2360398
0.2577525
0.2770057
0.292059
0.02415711
0.1522896
0.1974902
0.2269916
0.2482161
0.2657698
0.01180086
0.1179954
0.1556764
0.183176
0.2040208
0.2198331
0.007637223
0.1044315
0.1499914
0.1880123
0.2161081
0.240816
0.005235737
0.08559111
0.1294944
0.163029
0.1898327
0.2116096
0.004879759
0.07680185
0.1224159
0.1609271
0.1888378
0.2135443
0.004124084
0.06632913
0.1089676
0.1446558
0.1719243
0.1958391
0.003621294
0.05959822
0.1029453
0.1394732
0.1664886
0.1890644
0.00313661
0.05258194
0.09310302
0.1284642
0.1549966
0.1776146
0.002807813
0.04808865
0.08728755
0.1221908
0.1486107
0.1707498
0.002511066
0.04408867
0.08132581
0.1150665
0.1409486
0.1625887
0.002312956
0.04133009
0.07677809
0.1101553
0.1351458
0.1560552
0.002175053
0.03880303
0.07259425
0.105329
0.1294015
0.1496489
0.002015476
0.03665298
0.06900083
0.1012583
0.1245342
0.1440764
0.00193972
0.03481039
0.06580173
0.09726784
0.1202488
0.1390538
0.001879335
0.03326555
0.06307728
0.09328051
0.1166101
0.1347015
0.001810789
0.03194611
0.06069304
0.09015834
0.1131733
0.1307629
0.001744478
0.03080388
0.05827476
0.08824531
0.1103153
0.127012
0.001684691
0.02987849
0.05663661
0.08550721
0.1071627
0.123501
0.001626087
0.0291085
0.055298
0.08288336
0.1040997
0.1201617
0.001576697
0.02841902
0.05408193
0.08054962
0.1010843
0.1169179
0.001525289
0.02773859
0.05290848
0.07845967
0.09815246
0.1137485
0.001475328
0.02704571
0.05173412
0.07643266
0.09524175
0.1106411
0.001447389
0.01419184
0.03728137
0.06560876
0.1009915
0.1123266
0.656891
0.1601973
0.254495
0.0422653
0.1629993
0.2194525
0.1494095
0.03330913
0.1131695
0.01837996
0.08407967
0.1561495
0.1226652
0.01179446
0.07780467
0.009285487
0.0625424
0.1121528
0.09983831
0.008150803
0.06428186
0.006112203
0.04806612
0.09354839
0.09326125
0.005458838
0.04735938
0.004721355
0.03887351
0.08068841
0.07845086
0.004954163
0.03950741
0.004125922
0.0326922
0.07093734
0.07017031
0.004148758
0.03276635
0.003343499
0.02700729
0.06095085
0.06244566
0.003636783
0.02918923
0.002944225
0.02371555
0.05372882
0.05684728
0.003149217
0.02634481
0.00258884
0.02046207
0.04843491
0.05209837
0.002815902
0.02464046
0.002461783
0.01840797
0.04398573
0.04784805
0.002515805
0.02300159
0.00236083
0.01659783
0.04000334
0.04389811
0.002316148
0.02172033
0.002317529
0.01533562
0.03628426
0.04025645
0.002176434
0.02047666
0.002226412
0.01424552
0.03292654
0.03686516
0.002014171
0.01925829
0.002139828
0.01336884
0.03000088
0.03391226
0.001942383
0.01822866
0.00207883
0.01267543
0.02747695
0.03151425
0.001880234
0.01737169
0.002035375
0.01208475
0.02532201
0.02947097
0.001811101
0.01655905
0.001986583
0.01153986
0.02346284
0.02774382
0.001744625
0.01579518
0.0019334
0.0110642
0.02187461
0.02629528
0.001684757
0.01511678
0.001861959
0.01068496
0.02054037
0.02505533
0.001626061
0.01450331
0.001818318
0.01035886
0.01938836
0.02388762
0.001576663
0.01389761
0.001756155
0.01001818
0.01833858
0.02272633
0.001525989
0.01327923
0.001647765
0.009644878
0.01734207
0.02160819
0.001475703
0.01270012
0.001564804
0.009324915
0.01642831
0.009289946
0.001446571
0.01224311
0.001546091
0.009148574
0.2650083
0.02258396
0.1478223
0.5616656
0.02377478
0.1759821
0.2109605
0.0258269
0.1736663
0.5942838
0.02679564
0.1936216
0.2206799
0.03018363
0.1890008
0.5810691
0.02811819
0.1983393
0.2382576
0.02983268
0.1814823
0.2840366
0.02813588
0.2256904
0.5071941
0.02857186
0.1845407
0.2295817
0.0297641
0.1987671
0.5980187
0.02743626
0.1917599
0.2197402
0.02834287
0.1866467
0.602868
0.02495886
0.1821239
0.2077408
0.02454699
0.1608099
0.5687535
0.01945309
0.1594126
0.2372315
0.01678659
0.1325876
0.1389745
0.02282648
0.1176571
0.1230103
0.1804134
0.1383405
0.1687342
0.1357692
0.1848713
0.2382856
0.217906
0.2223338
0.2224099
0.2387239
0.2558335
0.2481998
0.2401788
0.2477461
0.2566989
0.09636988
0.01485112
0.08342638
0.1081679
0.1148276
0.06930601
0.008353674
0.06545852
0.1191094
0.1485946
0.05854985
0.005984953
0.04836575
0.1063519
0.1002871
0.0450627
0.004638868
0.03854401
0.09194038
0.09317638
0.03852267
0.004085488
0.03245077
0.08004599
0.07849551
0.03247221
0.003327295
0.02682878
0.07058614
0.07017135
0.02902183
0.002931073
0.02360654
0.06084924
0.06244186
0.02626766
0.002580628
0.02039769
0.05367959
0.05683418
0.02458389
0.002456068
0.01836574
0.04839588
0.05209
0.0229702
0.002358074
0.01657453
0.04396862
0.04784674
0.02169931
0.002315552
0.01531947
0.03999785
0.04389639
0.02046478
0.002226084
0.01423527
0.0362813
0.04025494
0.01925298
0.002137393
0.01336142
0.03292599
0.03685831
0.01822367
0.002077587
0.01266792
0.02999753
0.03390551
0.01736619
0.002034696
0.01207839
0.02747132
0.03151119
0.01655433
0.001985943
0.01153477
0.02532
0.02946839
0.01579121
0.001933149
0.01106048
0.02346136
0.02774231
0.01511309
0.001861665
0.01068254
0.02187478
0.02629503
0.0145005
0.001818274
0.01035826
0.02054159
0.02505642
0.01389765
0.001756435
0.010019
0.01939189
0.02388987
0.01224509
0.001546102
0.009171957
0.01645249
0.005261517
-0.01732348
0.03841935
0.03933445
0.1714069
0.06404733
0.1341318
0.03966884
0.1029524
0.04193908
0.1184992
0.03359317
0.09512211
0.03531371
0.1059948
0.02712079
0.08529571
0.03136889
0.09666887
0.02392495
0.07735689
0.02796058
0.0873517
0.01920922
0.07090438
0.023894
0.08047235
0.01429887
0.06019761
0.01971368
0.07218936
0.01080085
0.05423592
0.01713616
0.06676331
0.00935316
0.05382565
0.01531007
0.06256615
0.008124714
0.06146426
0.01230119
0.05881512
0.007283662
0.06337013
0.009836582
0.0545965
0.006555209
0.0582227
0.008698725
0.05114196
0.00602074
0.05326146
0.007818231
0.04817427
0.005686164
0.04903036
0.007192114
0.04570355
0.0053253
0.04584327
0.006753198
0.04365628
0.005020494
0.04311442
0.006491867
0.04180362
0.004782087
0.04083645
0.0062913
0.04023144
0.004676291
0.03885746
0.006170176
0.03895261
0.004519562
0.03715556
0.005995012
0.03847729
0.00434182
0.03567264
0.00578262
0.037761
0.004175416
0.03421535
0.005627557
0.0368782
0.004024083
0.03283838
0.005477974
0.03574365
0.003854114
0.03164796
0.005328369
0.03462503
0.01763681
0.02335474
0.02849837
0.03591648
0.03005841
0.04253805
0.03369063
0.04488228
0.04107241
0.02805099
0.04049534
0.03584239
0.03140826
0.03332057
0.01012516
0.02664853
0.02936628
0.02171867
0.2148989
0.1847161
0.198851
0.188728
0.2156268
0.2714858
0.2682585
0.2559204
0.2670751
0.2721644
0.01328355
0.001646767
0.009650804
0.0183471
0.02272607
0.01270595
0.0015631
0.009337982
0.01735607
0.02161961
0.05121087
0.1357
0.03483275
0.1765005
-0.01023896
0.0002107166
0.04761632
0.122471
0.04736107
0.1021868
0.03620199
0.1138781
0.03513354
0.1056029
0.03270321
0.1025116
0.03091685
0.09313871
0.02711953
0.09183503
0.0245281
0.08280432
0.02342242
0.08575218
0.0212308
0.07468626
0.01930159
0.07500649
0.0173694
0.06736532
0.01636549
0.06775194
0.01370209
0.06149005
0.01434074
0.06373034
0.01103108
0.05642991
0.01248121
0.06505814
0.009157129
0.05237989
0.01080837
0.06310761
0.007734437
0.04883953
0.009734729
0.05592483
0.006951876
0.04540539
0.00889789
0.04888588
0.006467587
0.04248904
0.008270447
0.04326264
0.005959985
0.03995838
0.00791866
0.03940553
0.005578886
0.03792075
0.007644088
0.03631376
0.00535571
0.03609147
0.007385123
0.03386464
0.005279303
0.03441363
0.007122109
0.03176381
0.005264591
0.03315369
0.006905546
0.02996474
0.005231372
0.03234938
0.006424148
0.02854212
0.005021622
0.03320258
0.005990764
0.02729053
0.00484012
0.03376793
0.005615316
0.02614351
0.004660994
0.03408174
0.005355524
0.02511904
0.00449531
0.03386781
0.005145126
0.002760643
0.03358301
0.004327819
0.03335336
0.0222367
0.04535348
0.02979241
0.04735598
0.02874794
0.02521649
0.02532857
0.02584193
0.04310916
0.03319661
0.03376179
0.02387008
0.02036127
0.02623215
0.03565706
-0.01445051
0.06109479
0.2291446
0.2279671
0.2276041
0.2281771
0.2431313
0.2357395
0.2371921
0.2422551
0.03355237
0.09594447
0.04297729
0.1190371
0.03861281
0.1149717
0.03160991
0.1018734
0.03056016
0.09486624
0.03468852
0.1062168
0.03249126
0.1015566
0.03018612
0.0924993
0.02667924
0.08419459
0.03101273
0.09647887
0.02694314
0.09160745
0.0242415
0.08258454
0.02359035
0.07709535
0.0277484
0.08723149
0.01905972
0.07072715
0.0237529
0.08050444
0.01927409
0.07509014
0.01735064
0.06737477
0.01428037
0.06030298
0.01967985
0.07224621
0.01633614
0.06778482
0.0136937
0.06149467
0.01077099
0.05421573
0.01710608
0.06678779
0.01430828
0.0636923
0.01101973
0.05640917
0.009318192
0.05372546
0.01528526
0.06259051
0.0124596
0.06503424
0.009144347
0.05237189
0.008102994
0.06138756
0.01229522
0.05885811
0.01079095
0.06317744
0.007720942
0.04886566
0.007268886
0.06340532
0.009824658
0.05460574
0.009724765
0.0559603
0.006936305
0.04540304
0.006545071
0.05824122
0.008689489
0.05114314
0.008889447
0.04888009
0.006458269
0.04248722
0.006004525
0.0532589
0.007806839
0.04818253
0.005665841
0.04912106
0.007132781
0.04568136
0.007902916
0.03938668
0.005568397
0.03791856
0.005319807
0.04583171
0.006744713
0.04365568
0.007638063
0.0363051
0.005350946
0.0360918
0.005017016
0.04310915
0.006487665
0.041803
0.007381067
0.03385908
0.005275621
0.03441145
0.004779652
0.0408328
0.006288707
0.04023211
0.007119199
0.03175929
0.005262434
0.03315435
0.004675344
0.03885505
0.006168433
0.03895935
0.006904143
0.02995948
0.00523047
0.03236175
0.004519351
0.03715265
0.005994019
0.03848214
0.00433873
0.03567533
0.00577978
0.03780783
0.005976541
0.02727631
0.004834563
0.03386352
0.005106938
0.005325777
0.03403548
0.004341368
0.001443701
0.01158312
0.001442477
0.0120154
0.01202061
0.006533408
0.003700461
0.001828101
0.03334269
0.005214954
0.003734216
0.006330733
0.03340216
0.005224883
0.08044661
0.1190365
0.1641474
0.1354879
0.1719523
0.1465098
0.1592683
0.181435
0.1623625
0.1837912
0.1527049
0.1665792
0.1757773
0.1766454
0.1704537
0.1721962
0.1542695
0.1584646
0.1426385
0.1623167
0.1394757
0.1205236
0.1694786
0.1771693
0.1866311
0.1825284
0.1595813
0.1845701
0.1546076
0.1702918
0.1635975
0.1448959
0.1464996
0.15456
0.1168605
0.1407522
0.170434
0.1780671
0.09167688
0.1511156
0.1021044
0.1066137
0.08623031
0.07861527
0.05062737
0.06397685
0.02975853
0.05988821
0.1495168
0.1349806
0.1429955
0.1493817
0.17128
0.1748231
0.1779612
0.1731967
0.2495923
0.2505925
0.2510469
0.2491564
0.2643356
0.2542953
0.2551849
0.2619739
0.048833
0.08136044
0.05122452
0.1217309
0.04888604
0.1217377
0.04289581
0.1222196
0.008449499
0.02298278
0.02663055
0.01627202
0.002969439
0.01670488
0.004982632
0.009254427
0.004456857
0.01406898
0.01716005
0.01127303
0.02322265
0.08547763
0.02104987
0.07446377
0.00361677
0.01099958
0.00447023
0.005288877
0.003379539
0.01155849
0.01071979
0.006656674
0.003292968
0.01272221
0.004839037
0.005326027
0.003606398
0.01321215
0.01225094
0.005991477
0.002755182
0.01150221
0.004180005
0.005616896
0.00333147
0.01288317
0.0101984
0.004389626
0.002598044
0.01052549
0.003975225
0.005741373
0.003318294
0.01270641
0.01000625
0.004052063
0.002568632
0.009135224
0.003854335
0.005847386
0.003218416
0.01202955
0.01005556
0.00379518
0.003102317
0.01154671
0.01003082
0.003571572
0.008267884
0.04342395
0.005936128
0.0399621
0.002479515
0.008253595
0.003655232
0.006790159
0.002781105
0.01073955
0.009334858
0.003074523
0.002710677
0.0103464
0.009086996
0.002858628
0.002422249
0.008457327
0.003202174
0.007379238
0.00268279
0.01020045
0.009002277
0.002801013
0.006423748
0.02854023
0.005021641
0.03320888
0.002667529
0.01006246
0.008917417
0.002753075
0.002396842
0.008601405
0.002961454
0.007440891
0.003851788
0.03165961
0.005309072
0.03481373
0.06814632
0.04167432
0.0278209
0.06460753
0.135155
0.1023368
0.1648719
0.1766384
0.1698669
0.1814144
0.1824893
0.1845327
0.1780964
0.1668546
0.1605925
0.181729
0.1645963
0.159266
0.1528452
0.1526239
0.1168988
0.1489416
0.175735
0.1541956
0.1956853
0.1937085
0.1961684
0.1998129
0.2110563
0.2128324
0.214934
0.2148841
0.2678017
0.2689165
0.2654705
0.2652371
0.2692516
0.2696058
0.2773264
0.2802959
0.03421225
0.005614359
0.0368774
0.004156571
0.02609897
0.03403721
0.005574482
0.004625109
0.03282154
0.0358004
0.004001532
0.00544164
0.02511711
0.004470261
0.03398135
0.005305562
0.1167719
0.1367083
0.1781084
0.1693524
0.1778619
0.1804505
0.173205
0.16649
0.1602273
0.1593046
0.1403099
0.1735928
0.16039
0.1775981
0.143445
0.1710667
0.1734617
0.1454994
0.1563073
0.1120883
0.008223195
0.02357495
0.01425472
0.0076432
0.00321027
0.0155176
0.01252031
0.01639257
0.005437706
0.01010348
0.006741237
0.003624694
0.001898675
0.008220627
0.006271465
0.00794595
0.004245824
0.01067705
0.006873779
0.003969269
0.002153579
0.01012453
0.00571234
0.008951802
0.003892828
0.01197689
0.007237154
0.00391037
0.002137141
0.01111227
0.005118655
0.01007409
0.002076402
0.01058336
0.004552492
0.01054926
0.003495747
0.01149842
0.007688613
0.003140395
0.001871634
0.01031134
0.003675024
0.009834693
0.003382895
0.01086302
0.007458347
0.003140994
0.002003677
0.009729031
0.003326269
0.009547254
0.002973305
0.01007917
0.007645335
0.003010978
0.002184352
0.009511031
0.003099694
0.009073049
0.002901894
0.01000356
0.007714948
0.002913559
0.002844591
0.009903937
0.00774272
0.002808791
0.002210214
0.009485825
0.002795868
0.00855574
0.1218889
0.1087386
0.109033
0.1231415
0.05033937
0.04232994
0.03331333
0.03048975
0.139897
0.1483927
0.1514731
0.1423693
0.1914749
0.1910423
0.1892482
0.1927864
0.2365461
0.2361893
0.2346364
0.2353551
0.2503634
0.2480441
0.2497627
0.2526131
0.2588684
0.2570538
0.2574052
0.2589032
0.2659496
0.2710186
0.2687827
0.2676669
0.04876254
0.0515071
0.02954707
0.03491226
0.02828973
0.01103819
0.01859756
0.009480619
0.00274998
0.01067202
0.005496162
0.002831162
0.00279984
0.009972871
0.01181455
0.008185804
0.002728336
0.01011245
0.01091812
0.007534837
0.002528102
0.008375607
0.005996727
0.003826419
0.0084057
0.003846744
0.00624373
0.002498892
0.00297515
0.01130231
0.009703183
0.003413295
0.002479298
0.008394321
0.003765484
0.006437029
0.002856994
0.01101589
0.009592829
0.003217793
0.002449902
0.008288316
0.003485507
0.006972872
0.002732544
0.01052512
0.009156716
0.002957975
0.002421038
0.008371804
0.003321748
0.007195157
0.009661753
0.008634662
0.002573906
0.002585284
0.008667658
0.002638668
0.002361312
0.007373239
0.2026317
0.203352
0.2051029
0.2023029
0.2243908
0.2260005
0.2278839
0.2255545
0.2763449
0.2740986
0.2763582
0.2748688
0.009928418
0.002707753
0.002663825
0.008889531
0.008636275
0.007389337
0.002401024
0.002859481
0.009797783
0.00872247
0.002626144
0.002658663
0.008684639
0.007377834
0.002390754
0.002754304
-0.04106761
0.0743752
-0.04224118
0.06429006
0.07529859
0.06986182
0.06934166
0.06490538
0.2408896
0.2393287
0.2430611
0.2411842
0.005682844
0.01320712
0.007732619
0.003858546
0.001058027
0.009731065
0.009757873
0.007852353
0.005595827
0.01105291
0.007073762
0.003525403
0.00369838
0.01250631
0.007342372
0.003570669
0.003516588
0.01200499
0.007536253
0.00321838
0.00190077
0.01053889
0.004088677
0.01046383
0.003325024
0.01061984
0.007377119
0.003175486
0.001928271
0.009883639
0.003293936
0.009395042
0.002071555
0.009632198
0.003314279
0.009536817
0.002134254
0.00956831
0.0032211
0.009327435
0.002245969
0.009246451
0.002477251
0.008152547
0.009485788
0.002488595
0.002509142
0.008568191
0.002623699
0.009445813
0.007853212
0.002400777
0.07961121
0.07829856
0.09757463
0.09782148
0.0528501
0.04821884
0.04403265
0.03737815
0.1650993
0.160494
0.1622925
0.1679589
0.1771188
0.1793586
0.1812825
0.1779986
0.2598072
0.2643914
0.2623487
0.2618008
0.2679845
0.2650166
0.26704
0.2668959
0.04854983
0.03392815
0.02431572
0.02145226
0.03322372
0.031869
0.01232513
0.02308996
0.008638947
0.006983064
0.008618351
0.001497552
0.01005692
0.003289831
0.009441407
0.001871352
0.009546609
0.007743218
0.002472495
0.002687277
0.2114751
0.213528
0.2117638
0.2132649
0.2214853
0.2204126
0.2214519
0.2201101
0.2759026
0.281102
0.2790284
0.277898
0.2836914
0.2803725
0.2823257
0.2825597
0.009682326
0.007774219
0.00274422
0.002584272
0.009333504
0.008277696
0.002238598
0.00258489
0.01914036
0.04947709
0.03486192
0.03360517
0.00903669
0.02222665
0.01578528
0.02615205
0.005030736
0.01399871
0.01128742
0.0175545
0.003656303
0.01122583
0.009096347
0.01395211