/*--------------------------------*- C++ -*----------------------------------*\
  =========                 |
  \\      /  F ield         | OpenFOAM: The Open Source CFD Toolbox
   \\    /   O peration     | Website:  https://openfoam.org
    \\  /    A nd           | Version:  7
     \\/     M anipulation  |
\*---------------------------------------------------------------------------*/
FoamFile
{
    version     2.0;
    format      ascii;
    class       volVectorField;
    location    "0.1";
    object      U;
}
// * * * * * * * * * * * * * * * * * * * * * * * * * * * * * * * * * * * * * //

dimensions      [0 1 -1 0 0 0 0];

internalField   nonuniform List<vector> 
78470
(
(1.028641 -0.05710672 -0.001388672)
(1.116308 -0.003634496 -0.005156014)
(1.12309 -0.005391466 -0.001573493)
(1.134965 -0.003789432 -0.001315576)
(1.146859 -0.00294523 -0.001684238)
(1.153178 -0.002377936 -0.001112906)
(1.161 -0.002524756 -0.001232013)
(1.16811 -0.002567271 -0.001205898)
(1.177129 -0.002871103 -0.001358804)
(1.047153 0.03218374 0.001787041)
(1.002257 -0.02091401 0.01211186)
(1.018393 -0.006989307 -0.004226666)
(1.016511 -0.01578339 -0.001579505)
(1.034165 -0.006624833 -0.002072876)
(1.0386 -0.009274931 -0.001236433)
(1.048767 -0.009673156 -0.0006829102)
(1.056471 -0.01251469 -0.000543275)
(1.066605 -0.01532685 -0.000452702)
(1.067468 0.001565018 -0.0007328693)
(1.026637 -0.02619746 0.0248769)
(1.034382 -0.01945294 0.006442613)
(1.027642 -0.02425724 0.002725019)
(1.040422 -0.02064317 0.0004335344)
(1.044797 -0.02143512 -0.0006796193)
(1.054304 -0.02190021 -0.0001883303)
(1.060989 -0.02485469 9.668802e-05)
(1.069089 -0.02921035 0.0003770531)
(1.071423 -0.00783864 0.01852274)
(1.038455 -0.03642445 0.03123397)
(1.040254 -0.02543387 0.01044412)
(1.027721 -0.03075874 0.002619739)
(1.043023 -0.02686508 -8.042338e-05)
(1.044362 -0.02801141 -0.00082968)
(1.052962 -0.02795891 -0.0002210635)
(1.057193 -0.03053013 -0.0001127748)
(1.0619 -0.03472673 0.0001784231)
(1.072626 -0.02242017 0.02378515)
(1.038382 -0.04021973 0.03083303)
(1.035297 -0.03499279 0.01208437)
(1.025682 -0.03760357 0.0004346738)
(1.038954 -0.03608324 0.0006801003)
(1.041657 -0.03597714 -0.001845866)
(1.050441 -0.03458718 -0.0005002695)
(1.053696 -0.03545426 -0.0005298972)
(1.055115 -0.03783015 -3.39232e-05)
(1.074278 -0.03620269 0.03441933)
(1.041815 -0.05171679 0.03797806)
(1.038156 -0.0445562 0.01268625)
(1.025771 -0.04641067 0.001250234)
(1.043366 -0.04490615 0.0007526962)
(1.044065 -0.04371059 -0.001186418)
(1.053472 -0.04054692 -0.0001966165)
(1.05531 -0.03634631 4.967949e-05)
(1.052974 -0.03360327 0.0002474684)
(1.073801 -0.04451301 0.04102651)
(1.035689 -0.05464955 0.03354575)
(1.03767 -0.05350509 0.01131863)
(1.027138 -0.0549629 -8.34899e-05)
(1.043519 -0.05344703 0.001459967)
(1.046991 -0.05126591 -0.001112326)
(1.058125 -0.04614503 0.0001483423)
(1.060725 -0.03750155 0.0004922692)
(1.059942 -0.02723779 0.0004520535)
(1.080758 -0.05285121 0.04429717)
(1.041154 -0.06740034 0.04491013)
(1.038606 -0.06396389 0.01345402)
(1.022599 -0.06673045 0.001851116)
(1.044202 -0.06513657 0.0005606927)
(1.051734 -0.06230662 -0.0003218149)
(1.067756 -0.05429406 0.0007419074)
(1.074597 -0.04052226 0.0009290602)
(1.074323 -0.01875883 0.0004877681)
(1.083957 -0.06361171 0.04308203)
(1.038685 -0.06770261 0.02721845)
(1.043102 -0.07048376 0.01047091)
(1.026128 -0.07749552 0.001568609)
(1.04883 -0.07905834 0.002084373)
(1.057833 -0.07775058 0.001039796)
(1.082109 -0.0694508 0.001549914)
(1.098114 -0.04721354 0.001469156)
(1.102837 -0.01395074 0.0008963743)
(1.072893 -0.06782109 0.03725125)
(1.029582 -0.07193863 0.02331081)
(1.037198 -0.07762811 0.009923013)
(1.017506 -0.09132615 0.003400675)
(1.045512 -0.09701483 0.001485391)
(1.061414 -0.1004674 0.002381618)
(1.100396 -0.09493877 0.001762699)
(1.131061 -0.0659137 0.001640241)
(1.144314 -0.01098829 0.000385766)
(1.074329 -0.06551129 0.04252824)
(1.026648 -0.07330592 0.02617523)
(1.028709 -0.08363302 0.01039936)
(1.009457 -0.1056582 0.002623018)
(1.03803 -0.1206984 0.002093936)
(1.060153 -0.1355697 0.0005405468)
(1.121284 -0.141342 0.002707588)
(1.181447 -0.09303895 0.001919304)
(1.2045 -0.02206257 0.001272032)
(1.069647 -0.06048947 0.03670815)
(1.017281 -0.06892771 0.03968257)
(1.009547 -0.08659677 0.01221361)
(0.9837127 -0.1212181 0.005046863)
(1.012736 -0.1482737 0.001014074)
(1.04643 -0.1901394 -0.001606495)
(1.14614 -0.217223 -0.005583742)
(1.244388 -0.1584275 -0.0007596236)
(1.272335 -0.02277319 -0.003069063)
(1.060164 -0.04563937 0.04623037)
(0.9945863 -0.06258286 0.02806958)
(0.9831576 -0.08333813 0.007701972)
(0.9474059 -0.1301706 0.003015129)
(0.9785515 -0.1808019 0.002913946)
(1.009762 -0.26568 -0.007792379)
(1.136847 -0.339716 -0.007393615)
(1.359463 -0.2096039 -0.01458932)
(1.394384 -0.05141911 0.002961709)
(1.048322 -0.0228623 0.04177676)
(0.9785465 -0.03621824 0.03510485)
(0.9460978 -0.06665656 0.01025495)
(0.8894891 -0.136763 0.004994235)
(0.8849888 -0.2143991 0.002271166)
(0.910786 -0.3530031 -0.01342506)
(0.9742307 -0.497138 -0.02618374)
(1.377096 -0.6016459 -0.03021227)
(1.527515 -0.01636797 -0.03612673)
(1.039839 0.008701506 0.03632218)
(0.9515008 -0.001734828 0.03578773)
(0.8976311 -0.02820637 0.00439221)
(0.8380112 -0.08481486 0.001799696)
(0.7592117 -0.1968295 0.009490685)
(0.6703814 -0.3485401 -0.02092164)
(0.6994037 -0.5654346 -0.04065926)
(0.4836189 -1.420337 -0.03660324)
(1.021913 0.05203222 0.02407858)
(0.9304796 0.05497861 0.02646438)
(0.8620774 0.02221533 0.006254692)
(0.7801689 -0.01985437 0.001751502)
(0.6631775 -0.06783388 0.006484276)
(0.5116983 -0.1652708 -0.01706556)
(0.4025786 -0.3212805 -0.02351173)
(0.1075323 -0.5255204 -0.008969111)
(1.004868 0.1185535 0.01120588)
(0.9040211 0.1241768 0.02395137)
(0.8288112 0.1018437 0.002045477)
(0.7079305 0.08923843 0.0009404316)
(0.5961484 0.06482428 0.002782497)
(0.4286063 0.01975736 -0.01184438)
(0.2882104 -0.08383228 -0.01247847)
(0.068934 -0.1727068 -0.004053349)
(0.994453 0.1853044 0.01045415)
(0.8816454 0.1969955 0.02315786)
(0.8166962 0.1941397 -0.0001303768)
(0.6851442 0.2009598 0.0004935032)
(0.5751455 0.2082597 -0.0003434208)
(0.4018926 0.2037571 -0.009253192)
(0.2249188 0.1359835 -0.01235408)
(0.0326219 0.1042037 -0.003161495)
(0.9873613 0.246867 0.007261806)
(0.8831596 0.2679391 0.02082678)
(0.8250232 0.2846637 -0.002327614)
(0.7046319 0.3157617 -0.0009923615)
(0.5954973 0.3517998 -0.001219825)
(0.4221125 0.3931011 -0.01209346)
(0.2224042 0.3540864 -0.01308078)
(0.05062352 0.3626137 -0.003235638)
(0.9942341 0.3041466 0.01545408)
(0.8955621 0.3306516 0.02332388)
(0.85471 0.3666944 -0.002272064)
(0.7499932 0.4202859 -0.0005327735)
(0.6558977 0.4957473 -0.002991253)
(0.4949055 0.5860565 -0.01478278)
(0.2625802 0.5853913 -0.01211936)
(0.07332627 0.6126518 -0.004711385)
(1.007845 0.3460593 0.01372069)
(0.9314169 0.3763272 0.02417989)
(0.9080295 0.4283751 -0.0004099491)
(0.8296357 0.5061085 -0.000209004)
(0.760528 0.6219494 -0.0005854122)
(0.6290437 0.7835771 -0.02388636)
(0.3820871 0.8489746 -0.01856284)
(0.08941897 0.9192927 -0.001921431)
(1.030965 0.3706754 0.01169194)
(0.9743302 0.4031234 0.02337751)
(0.9816855 0.4641171 -2.345481e-06)
(0.943098 0.5582663 0.000808564)
(0.931955 0.6980089 -0.0009710307)
(0.912286 0.9181172 -0.02774317)
(0.6900333 1.10192 -0.02792954)
(0.1918116 1.455853 -0.005592611)
(1.282763 1.029257 -0.04377929)
(2.259889 2.120625 -0.05149727)
(1.340629 -0.1558075 -0.2440023)
(1.053703 0.01174718 -0.03718712)
(1.041132 -0.002969943 0.0112719)
(1.014264 0.008228453 0.002708399)
(1.027458 -0.004460822 0.002500181)
(1.032402 -0.003349744 0.005722165)
(1.040354 -0.005268371 0.004379021)
(1.048795 -0.004576247 0.004528615)
(1.058004 -0.005285461 0.003995168)
(1.069237 -0.006073106 0.004317328)
(0.9158227 -0.06830879 -0.06162555)
(0.9599744 0.01447388 0.004166623)
(1.010738 -0.03818456 0.006015716)
(1.024116 -0.01400203 -0.003300035)
(1.033178 -0.01917668 -0.004657707)
(1.04515 -0.01242066 -0.001381546)
(1.049987 -0.01353553 -0.000683513)
(1.059346 -0.01324144 0.0005031853)
(1.067231 -0.01548247 0.0004717028)
(1.077306 -0.01848522 0.0002651007)
(0.9699616 -0.009718163 -0.2145789)
(1.020278 -0.01526173 0.03560858)
(1.040673 -0.03663247 0.01246918)
(1.036079 -0.01503757 0.01456526)
(1.033326 -0.02501754 -0.0005895372)
(1.046167 -0.01898286 0.004089133)
(1.047968 -0.02163087 0.002727299)
(1.056557 -0.02175188 0.002335031)
(1.062641 -0.02474201 0.001805506)
(1.070374 -0.02894437 0.001168553)
(0.9587131 -0.002566195 -0.2904749)
(1.007986 -0.01557777 0.02151316)
(1.01655 -0.03705236 0.001568129)
(1.035433 -0.0210255 0.02034725)
(1.026754 -0.03110255 0.000292707)
(1.045178 -0.02753362 0.004081974)
(1.045069 -0.02867927 0.002523649)
(1.054891 -0.02863343 0.001922416)
(1.058592 -0.03108029 0.0007743007)
(1.0634 -0.03504926 0.0005966773)
(0.953596 -0.008085661 -0.3233201)
(1.007273 -0.03817249 0.03531321)
(1.019299 -0.04614128 0.002335195)
(1.038548 -0.0348556 0.02753027)
(1.026323 -0.03879926 0.001107716)
(1.047021 -0.03504507 0.005258875)
(1.045433 -0.03609447 0.003226704)
(1.054852 -0.03516374 0.002498204)
(1.056257 -0.03540371 0.001096129)
(1.057445 -0.03743877 0.0007368004)
(0.952874 -0.005671385 -0.3406598)
(1.006563 -0.04381119 0.03069472)
(1.020815 -0.04894464 -0.005088726)
(1.042433 -0.0422765 0.02822466)
(1.026008 -0.04674315 0.0003381212)
(1.04794 -0.04364006 0.004549372)
(1.046743 -0.04278573 0.002694852)
(1.055649 -0.03966047 0.00209766)
(1.057499 -0.03586796 0.0008113747)
(1.055324 -0.03310008 0.0006729747)
(0.952791 -0.008214106 -0.3509556)
(1.012076 -0.05513234 0.02836792)
(1.020763 -0.05607633 -0.008274907)
(1.042762 -0.05516839 0.02864357)
(1.025428 -0.05633257 0.001307938)
(1.046246 -0.05419006 0.003188281)
(1.047874 -0.0497533 0.0009736592)
(1.059702 -0.04565763 0.001425224)
(1.062774 -0.03706521 0.001151213)
(1.063083 -0.02641203 0.0005414071)
(0.950285 -0.007225654 -0.3463749)
(1.0046 -0.06244654 0.02860086)
(1.021963 -0.05896449 -0.0110187)
(1.041821 -0.06313072 0.03010928)
(1.02673 -0.06669008 0.002626063)
(1.048059 -0.06504441 0.002934288)
(1.05175 -0.06067755 -0.0002619643)
(1.068093 -0.05348698 0.0008518336)
(1.076223 -0.03959817 0.0005267919)
(1.076919 -0.01757322 -4.78179e-05)
(0.9518598 -0.01067721 -0.3455767)
(1.011718 -0.06071817 0.02962704)
(1.022685 -0.05984738 -0.008238589)
(1.037247 -0.06909616 0.02787198)
(1.024037 -0.07670346 0.002947977)
(1.045981 -0.07926769 0.003192265)
(1.058073 -0.07615456 -0.001687458)
(1.080591 -0.06992951 0.0008342336)
(1.099087 -0.04635761 0.0008230186)
(1.105648 -0.0136842 2.603135e-05)
(0.9505462 -0.01068769 -0.339197)
(1.007323 -0.05976098 0.03134649)
(1.016251 -0.0720748 -0.007908833)
(1.030236 -0.07773344 0.02716744)
(1.017425 -0.08995619 0.001974717)
(1.041044 -0.09681583 0.003183695)
(1.060042 -0.1004516 -0.001999)
(1.098414 -0.09296438 0.0002259999)
(1.132086 -0.06515012 -1.985937e-07)
(1.147639 -0.009548937 -0.00122601)
(0.9500455 -0.01263916 -0.3434499)
(1.006589 -0.06131452 0.02085799)
(1.005745 -0.07918179 -0.009858865)
(1.019745 -0.08480231 0.02885218)
(1.004317 -0.1029315 0.002827414)
(1.033719 -0.1198119 0.003506279)
(1.061993 -0.1354397 -0.0009706627)
(1.117835 -0.142336 0.001936457)
(1.180624 -0.09237156 9.725988e-05)
(1.209541 -0.02400305 0.0002294275)
(0.9523148 -0.0117018 -0.3444368)
(0.9937662 -0.05656076 0.02161435)
(0.9941486 -0.07640016 -0.01143091)
(1.000892 -0.08941355 0.03106141)
(0.9798605 -0.1184631 0.001428329)
(1.017901 -0.1506645 0.004095149)
(1.045041 -0.1883295 0.001867881)
(1.137777 -0.2065886 0.0001934808)
(1.244053 -0.1600351 0.003425995)
(1.279406 -0.02290776 -0.002978835)
(0.9577738 -0.01122372 -0.3498874)
(0.9930008 -0.04343557 0.01630998)
(0.9751619 -0.05963588 -0.01035124)
(0.9742065 -0.08455278 0.0344462)
(0.9408043 -0.1296919 0.001318636)
(0.9785519 -0.1822386 0.005734917)
(1.016162 -0.25711 0.004466774)
(1.133788 -0.3548522 0.01634107)
(1.373348 -0.220913 0.005544919)
(1.413154 -0.06938846 0.00593021)
(0.9623574 -0.005889804 -0.3391878)
(0.9778494 -0.02782061 0.02178666)
(0.9515944 -0.04283727 -0.01280342)
(0.9333308 -0.07656487 0.03395753)
(0.8843513 -0.1346561 -0.000546509)
(0.8969682 -0.219537 0.00427836)
(0.9084986 -0.3597803 0.01081938)
(0.9796 -0.541738 0.0008122299)
(1.354343 -0.6881684 0.0007962414)
(1.523413 -0.01169234 -0.00574612)
(0.9548452 0.006517384 -0.3105327)
(0.9495211 0.01313103 0.02656936)
(0.9274399 -0.008438485 -0.00991461)
(0.8859136 -0.04010323 0.03633991)
(0.7938896 -0.09731262 0.00385221)
(0.7458535 -0.1959907 0.008313609)
(0.6673521 -0.3289019 0.002842378)
(0.6906272 -0.621184 -0.009447532)
(0.5611145 -1.493925 0.006601511)
(0.9508211 0.02054629 -0.2495784)
(0.9653259 0.05891498 0.01842429)
(0.8997144 0.05162143 -0.005696385)
(0.8462082 0.02354102 0.03560237)
(0.727144 -0.01476007 0.003814863)
(0.6478406 -0.07358517 0.003310701)
(0.5037785 -0.1666673 -0.005500842)
(0.3919383 -0.3207232 -0.002963299)
(0.07108604 -0.4549155 0.0056965)
(0.9425547 0.04370228 -0.1522162)
(0.9509093 0.111524 0.01430955)
(0.888743 0.1204442 -0.006403343)
(0.820198 0.1005741 0.03022544)
(0.6978185 0.08508217 0.002682529)
(0.5939375 0.05742071 0.00860023)
(0.4290465 0.01386227 -0.003437074)
(0.277462 -0.07767492 -0.001300656)
(0.04384072 -0.1266939 0.007674056)
(0.937157 0.06692294 -0.1017493)
(0.9482033 0.1762906 0.03261594)
(0.8855164 0.1922538 -0.003896596)
(0.8145817 0.1915001 0.02574177)
(0.6848569 0.1995483 0.003252094)
(0.577075 0.2046428 0.003367775)
(0.3928517 0.2030168 0.002120861)
(0.2184495 0.1475567 0.002082261)
(0.0272045 0.131789 0.01788351)
(0.9354766 0.07977616 -0.07023762)
(0.9556155 0.2451188 0.03638462)
(0.902422 0.265004 -0.006221248)
(0.8270182 0.2810613 0.01814233)
(0.7073102 0.3132982 0.001035767)
(0.5950834 0.3506951 0.004615867)
(0.4177353 0.3928137 0.004226657)
(0.2228945 0.3715236 0.008617932)
(0.03072553 0.3733219 0.018889)
(0.9399111 0.09040244 -0.05945862)
(0.9638013 0.3023609 0.03850015)
(0.9235251 0.3284641 -0.006269533)
(0.8631517 0.3648534 0.01439314)
(0.7547242 0.4184082 4.755394e-05)
(0.6561786 0.4938886 -0.003046242)
(0.4888336 0.5881071 0.008767056)
(0.2669739 0.5996757 0.02376485)
(0.03378462 0.6452993 -0.001213071)
(0.940542 0.1013117 -0.05679321)
(0.9718007 0.3508785 0.03361704)
(0.9526998 0.3780661 -0.01122188)
(0.9131828 0.4291724 0.01436529)
(0.8363527 0.507627 -0.0003942077)
(0.7617762 0.6232931 0.005007218)
(0.6342727 0.7964181 0.002628202)
(0.3933999 0.8864294 0.003925793)
(0.08446956 1.063806 0.01110822)
(0.9407328 0.1028997 -0.05589952)
(0.9946556 0.3749305 0.03350239)
(0.9903374 0.4041166 -0.0128615)
(0.9881511 0.4645176 0.01466961)
(0.9488638 0.5600718 0.002847179)
(0.9441198 0.6993804 0.005216088)
(0.9128557 0.9387148 0.01617731)
(0.7103034 1.21108 0.00519905)
(0.1246905 1.611027 0.04487203)
(0.9414196 0.1031693 -0.05524565)
(1.354044 1.11974 -0.002816554)
(2.211938 2.07247 0.04836997)
(2.059756 -0.08372768 0.04389863)
(1.070457 -0.003245734 -0.01158968)
(1.056593 0.003701365 0.0001625419)
(1.025474 0.0190526 0.009433773)
(1.030784 -0.0002921023 0.0003904114)
(1.041062 -0.002421909 0.001816504)
(1.047381 -0.005221806 0.0008865682)
(1.057337 -0.004048419 0.0007413701)
(1.066238 -0.004542998 0.0002402368)
(1.077829 -0.005455992 3.092045e-05)
(0.9622319 -0.121072 0.001878378)
(0.994016 0.06361311 0.006907648)
(1.014965 -0.04191483 -0.01632666)
(1.032782 0.00465107 0.002389469)
(1.030933 -0.01580563 -0.003903234)
(1.046442 -0.007277561 0.0004979241)
(1.047674 -0.009257842 0.0001539321)
(1.056587 -0.01053391 0.0007942419)
(1.065197 -0.01308082 0.0006495493)
(1.075612 -0.01667959 0.000322052)
(0.9180937 -0.1088092 -0.1157378)
(1.029527 0.04055779 0.05855394)
(0.9791928 -0.02409429 0.009536119)
(1.029747 0.004243309 0.02576745)
(1.014727 -0.02120856 0.002223871)
(1.034278 -0.01715229 0.003739272)
(1.040926 -0.01912916 0.002219835)
(1.051914 -0.01970828 0.001833188)
(1.060215 -0.02392305 0.001420727)
(1.068921 -0.0283462 0.0007577695)
(0.9486641 -0.05512127 -0.186647)
(1.030395 0.01183267 0.1248455)
(0.9648017 -0.04505436 0.008435412)
(1.035536 -0.01574806 0.03158759)
(1.012034 -0.03225698 -0.0001320216)
(1.037908 -0.02707821 0.003233049)
(1.039428 -0.02734525 0.001726156)
(1.052325 -0.02771833 0.001478884)
(1.056632 -0.03019873 0.0006133746)
(1.062397 -0.03463579 0.0003418998)
(0.9954492 -0.03959818 -0.2059454)
(1.057771 -0.01729138 0.1295164)
(0.9564408 -0.04816847 0.01606019)
(1.034236 -0.02826899 0.03615349)
(1.007636 -0.03718869 0.003210642)
(1.029335 -0.03556994 0.003383879)
(1.034979 -0.03603044 0.002138481)
(1.048551 -0.03390448 0.001737442)
(1.052933 -0.03521086 0.000980996)
(1.055725 -0.03743398 0.0005674576)
(1.018178 -0.02774218 -0.1982318)
(1.061343 -0.0262343 0.1276906)
(0.9576676 -0.05641576 0.007693872)
(1.039792 -0.04201534 0.03814947)
(1.01163 -0.04586766 0.006105634)
(1.0379 -0.04499582 0.005669183)
(1.038665 -0.04626102 0.0009070792)
(1.052975 -0.04134809 0.001532001)
(1.05512 -0.03717108 0.0003586037)
(1.054304 -0.03379375 -0.0001151897)
(1.019253 -0.02257784 -0.2386502)
(1.072733 -0.03249184 0.1388412)
(0.9511823 -0.05687408 0.02318975)
(1.040578 -0.05237554 0.04021366)
(1.017093 -0.05379007 0.01128186)
(1.044973 -0.05369191 0.00828604)
(1.044418 -0.05390399 0.002029296)
(1.057301 -0.04741725 0.001701842)
(1.061017 -0.03827728 0.000291194)
(1.062267 -0.0272437 4.838875e-06)
(1.04878 -0.02168926 -0.187789)
(1.07096 -0.04068179 0.1167033)
(0.9501209 -0.06245634 0.008402778)
(1.033092 -0.06482595 0.03383356)
(1.011599 -0.06489201 0.008661257)
(1.048212 -0.06501409 0.007307197)
(1.04933 -0.06470915 0.003038289)
(1.069277 -0.05533542 0.00199084)
(1.076143 -0.04183989 0.0005452113)
(1.07697 -0.01887593 -0.0003179616)
(1.045893 -0.0177559 -0.2278995)
(1.079616 -0.05248986 0.10752)
(0.9520047 -0.06514778 0.02510284)
(1.035997 -0.07276315 0.03707001)
(1.010102 -0.07660406 0.009578811)
(1.054038 -0.07932466 0.007774833)
(1.056456 -0.07938486 0.005374348)
(1.081042 -0.07199196 0.002844674)
(1.098851 -0.04753804 0.0006548419)
(1.105221 -0.01470715 -0.0004979776)
(1.054441 -0.02029223 -0.1894122)
(1.070422 -0.05765223 0.105144)
(0.9469017 -0.0708156 0.02733565)
(1.030691 -0.07846988 0.03683586)
(1.00257 -0.08763166 0.008737321)
(1.052688 -0.09627351 0.007736554)
(1.060186 -0.1007002 0.003556047)
(1.1003 -0.09399415 0.002051086)
(1.132173 -0.06726295 -0.0002503305)
(1.14922 -0.01094454 -0.001534726)
(1.025851 -0.01298016 -0.2372641)
(1.062058 -0.06542233 0.1312832)
(0.9306601 -0.07591401 0.02300734)
(1.01982 -0.08512693 0.03872278)
(0.9877873 -0.1028956 0.006646872)
(1.038062 -0.1212069 0.00724914)
(1.055374 -0.1332171 0.003475436)
(1.116306 -0.1436247 0.001690978)
(1.177902 -0.09683101 -0.0007649445)
(1.208581 -0.02671778 -0.0006108919)
(1.04104 -0.01818827 -0.2123897)
(1.05008 -0.04856879 0.1224491)
(0.9214831 -0.06823504 0.01029803)
(1.002698 -0.08708038 0.03926071)
(0.9662467 -0.114831 0.006337897)
(1.008202 -0.147105 0.005305383)
(1.037303 -0.1903617 0.0006612549)
(1.137611 -0.2102928 -0.001387597)
(1.236191 -0.1692361 0.0005191653)
(1.280261 -0.02380453 -0.002620819)
(1.013378 -0.01418733 -0.2591004)
(1.040364 -0.04438778 0.1494973)
(0.8937286 -0.06676748 0.01041822)
(0.9757373 -0.086983 0.04391626)
(0.9266596 -0.1229434 0.004961187)
(0.9748036 -0.1789479 0.005124076)
(1.004163 -0.2583624 -0.001227106)
(1.134746 -0.3552614 0.002569408)
(1.375437 -0.2176913 -0.001481177)
(1.405993 -0.0791546 0.0009531706)
(1.039812 -0.003019957 -0.2548856)
(1.046967 -0.02840141 0.1491174)
(0.8832774 -0.04432605 0.02089162)
(0.9379129 -0.06885991 0.04857385)
(0.868204 -0.1308906 0.0001009931)
(0.8880256 -0.2153807 0.002895567)
(0.9084601 -0.3633019 -0.003829714)
(0.9787126 -0.5360212 -0.002204603)
(1.348037 -0.6739872 -0.002435025)
(1.517487 -0.01552335 -0.004180133)
(1.032339 0.0373356 -0.2134789)
(1.027779 0.02503243 0.1221574)
(0.8626484 0.004670271 0.002774215)
(0.884997 -0.0245513 0.04815705)
(0.818845 -0.08774187 0.0102819)
(0.7543021 -0.2032322 -0.001439585)
(0.6763232 -0.332903 -0.008688929)
(0.7129752 -0.6090353 0.005063816)
(0.5703993 -1.49758 -0.0008061461)
(0.9945329 0.06132979 -0.2475269)
(0.9988842 0.05869774 0.1588328)
(0.8104176 0.05968503 0.003372171)
(0.8416444 0.02208576 0.04796976)
(0.7430876 -0.01913271 0.005481821)
(0.6469426 -0.0670784 -0.009694403)
(0.4807624 -0.1645774 -0.01730293)
(0.3009621 -0.2750345 -0.01042595)
(0.09617228 -0.4489906 -0.01525417)
(0.9791316 0.08070625 -0.1758936)
(0.9841482 0.1261429 0.1131634)
(0.8193177 0.1257065 0.006807079)
(0.820636 0.09482378 0.03585255)
(0.6848535 0.08708072 -0.0005273165)
(0.5860921 0.06458587 0.001276376)
(0.4245671 0.01554717 -0.01483832)
(0.1851526 -0.0040054 0.009001572)
(0.04352825 -0.1313843 -0.003145559)
(0.8923916 0.1062396 -0.1332724)
(0.9850388 0.1715876 0.09070019)
(0.8034107 0.1960515 0.001802486)
(0.8114391 0.1836078 0.02889309)
(0.6589045 0.1984853 -0.001536582)
(0.5707124 0.2043394 0.0006867766)
(0.3752024 0.2177654 -0.004760588)
(0.1540056 0.2209084 0.01066715)
(0.9197588 0.1686998 -0.1091144)
(0.9964341 0.2329792 0.05882594)
(0.8367801 0.2684214 0.004669875)
(0.832426 0.2726124 0.02791594)
(0.6802331 0.3115126 -0.00124642)
(0.5927617 0.3456811 0.002418602)
(0.3878383 0.4030959 0.0004328896)
(0.1975016 0.4138491 0.01956937)
(0.9055943 0.1737265 -0.1032748)
(1.005871 0.2855873 0.0590572)
(0.8529128 0.3352067 0.001117656)
(0.8698183 0.3613515 0.02797324)
(0.7260913 0.4170889 0.001215783)
(0.6572745 0.4945769 -0.004279095)
(0.4324624 0.5826999 0.001565366)
(0.2559059 0.6710219 -0.007432995)
(0.02989234 0.3161227 0.02929684)
(0.9293155 0.2089715 -0.08613787)
(1.005325 0.3276988 0.05570011)
(0.8813771 0.3831936 -8.168056e-05)
(0.9114865 0.4247126 0.02518325)
(0.8169423 0.5059885 -0.001124478)
(0.7540289 0.6333718 0.001649467)
(0.6197295 0.7899474 -0.005551761)
(0.3767055 0.8970616 -0.009179465)
(0.158193 1.070681 -0.009811307)
(0.9299456 0.2015427 -0.09951766)
(1.02678 0.3570362 0.06878144)
(0.923163 0.4103924 -0.002855399)
(0.9819898 0.4584571 0.02523045)
(0.9314429 0.558488 0.001675858)
(0.9384415 0.7040258 0.004907726)
(0.9140821 0.9393522 0.0009779039)
(0.7361445 1.206795 0.005168934)
(0.08531633 1.59692 0.002655091)
(1.371232 1.111696 0.003868159)
(2.229905 2.058214 0.01860263)
(2.067365 -0.1004982 0.002354419)
(1.080397 -0.003192386 -0.01003403)
(1.049755 0.01102063 -0.001767745)
(1.022393 0.02095553 0.003592408)
(1.03058 -0.003014597 -0.0007156815)
(1.038607 -0.004128914 0.0009053083)
(1.047102 -0.006883439 0.00144434)
(1.057084 -0.004960306 0.001341113)
(1.066382 -0.005157222 0.001158)
(1.078107 -0.006087424 0.001081333)
(0.9802256 -0.1854613 0.001500407)
(1.044681 0.07443439 0.006963252)
(1.027339 -0.03808075 -0.004734977)
(1.039281 0.004452374 0.002352561)
(1.032644 -0.01581242 -0.001616977)
(1.046845 -0.007108992 0.0003000183)
(1.048062 -0.01032914 -0.0002604131)
(1.056291 -0.0109016 0.0006200111)
(1.065233 -0.01384135 0.0007418798)
(1.075858 -0.01745608 0.0005554212)
(0.8927916 -0.2083502 -0.04125171)
(1.030821 0.1236382 0.01486269)
(0.9658581 -0.007310407 -0.003053655)
(1.026932 0.01934883 0.008460299)
(1.011502 -0.02011415 -0.0007045113)
(1.035454 -0.01638823 0.001589492)
(1.039819 -0.01958382 0.0004136311)
(1.051854 -0.02006571 0.0008133113)
(1.060226 -0.02443937 0.0008958828)
(1.069171 -0.02873784 0.0005702799)
(0.6681788 -0.09119371 -0.07934514)
(1.002421 0.05937202 0.05991269)
(0.9242067 -0.03459022 0.005062479)
(1.033786 -0.008499934 0.01659421)
(1.012875 -0.02987008 0.002332389)
(1.037571 -0.0270113 0.00162705)
(1.039758 -0.02874844 8.873013e-05)
(1.053139 -0.02863877 0.0003871891)
(1.057126 -0.03088759 7.852677e-05)
(1.06287 -0.03511643 0.0002488929)
(0.7653379 -0.02029813 -0.1512468)
(1.037034 -0.002889312 0.1143745)
(0.9256673 -0.0476156 0.0128745)
(1.035005 -0.02632367 0.01942056)
(1.010795 -0.0361733 0.004051602)
(1.038489 -0.03433599 0.001895804)
(1.038261 -0.0373149 -0.001686142)
(1.051238 -0.03444219 3.812568e-05)
(1.053485 -0.03567897 9.15437e-05)
(1.056237 -0.03797737 2.601767e-05)
(0.8406452 -0.03948694 -0.163638)
(1.042763 0.00449119 0.1069072)
(0.9238128 -0.04681852 0.004743182)
(1.033644 -0.03738091 0.01602825)
(1.01232 -0.04385802 0.002850716)
(1.049038 -0.04293074 0.002631587)
(1.043703 -0.04234924 0.001487582)
(1.055385 -0.03999438 0.001023308)
(1.057435 -0.03562288 0.0004333805)
(1.055099 -0.03366202 9.079402e-05)
(0.7602737 -0.001736389 -0.1558291)
(1.032445 -0.03156576 0.106709)
(0.8967678 -0.05459423 0.0007770939)
(1.014111 -0.05411292 0.005812007)
(0.9966451 -0.05529207 -0.001958496)
(1.039958 -0.05084174 0.001290187)
(1.042282 -0.0494705 0.0009830755)
(1.05819 -0.04531221 0.0009484082)
(1.061491 -0.03740144 0.0004774007)
(1.06298 -0.02688133 -2.706045e-05)
(0.8468662 0.01033554 -0.2190295)
(1.02806 -0.04164003 0.1553195)
(0.9145943 -0.06505038 0.01051473)
(1.022403 -0.06448286 0.008938301)
(0.9958313 -0.06492848 -0.007303616)
(1.038772 -0.06332227 -0.001211805)
(1.042812 -0.05940501 -0.0007074854)
(1.065363 -0.05221644 0.0004022892)
(1.074024 -0.0397499 4.048854e-05)
(1.076176 -0.01807286 -0.0004033789)
(0.7991647 -0.006422226 -0.1918282)
(1.033768 -0.03970779 0.1371758)
(0.8991994 -0.06768888 0.01211884)
(1.003269 -0.07202125 0.002860623)
(0.987815 -0.07549633 -0.01104078)
(1.024447 -0.0783931 -0.005262454)
(1.044362 -0.07499984 -0.0003278628)
(1.075197 -0.07106395 0.0004373098)
(1.095681 -0.04745644 9.705911e-05)
(1.103831 -0.01501864 -0.0005827357)
(0.8553778 -0.01814256 -0.2242746)
(1.02158 -0.03935606 0.1630629)
(0.9012714 -0.06899333 0.01221461)
(1.001978 -0.07870107 0.003923169)
(0.9832327 -0.08769643 -0.0115986)
(1.024197 -0.09563186 -0.005236527)
(1.046973 -0.09996806 -0.0001603646)
(1.094125 -0.09334907 0.0006997508)
(1.128648 -0.06716662 -0.0002718112)
(1.148065 -0.01141674 -0.001147265)
(0.7697788 -0.009425377 -0.1488384)
(1.024055 -0.04190879 0.1077674)
(0.8755516 -0.06865869 5.85699e-05)
(0.9868314 -0.08589523 0.001247048)
(0.9659382 -0.1031369 -0.008569516)
(1.013277 -0.120417 -0.003959889)
(1.04789 -0.1370561 0.001067847)
(1.112078 -0.1461646 0.001344238)
(1.174169 -0.0981924 4.653287e-05)
(1.206248 -0.02897537 -0.000470254)
(0.9054929 -0.02862036 -0.1658808)
(1.048832 -0.0417324 0.1195715)
(0.8790819 -0.06869842 0.003285642)
(0.9833433 -0.08974324 0.007867517)
(0.9462713 -0.1166032 -0.003513471)
(1.002916 -0.1507339 -0.0006382876)
(1.031208 -0.1936401 -0.0001729643)
(1.133433 -0.2082127 0.000203368)
(1.231023 -0.1687841 0.0003930658)
(1.278494 -0.02487512 -0.001224726)
(0.6850341 -0.01032081 -0.1176994)
(1.036166 -0.01413486 0.124566)
(0.8488554 -0.0539855 0.001655536)
(0.9608493 -0.08679083 0.007224995)
(0.9176788 -0.122338 -0.001988722)
(0.972759 -0.1813666 0.002687221)
(1.004284 -0.2594103 0.001403088)
(1.132447 -0.3564326 0.004574309)
(1.374011 -0.2188089 0.00108619)
(1.403174 -0.08494661 0.003758024)
(0.7781896 0.01532643 -0.1916699)
(1.025726 -0.02366836 0.1034031)
(0.8261653 -0.03027364 0.001053702)
(0.9240331 -0.07318755 0.005956624)
(0.8508966 -0.1336874 -0.005377918)
(0.8846914 -0.2184655 0.0006768216)
(0.9064841 -0.3670384 0.0007850071)
(0.9822071 -0.5329771 -0.000480191)
(1.344093 -0.6745746 0.0006853606)
(1.510663 -0.01743749 -0.0003778301)
(0.8450197 0.02992404 -0.2094256)
(1.00811 0.001737066 0.109924)
(0.8339784 -0.002061514 0.002167563)
(0.8835698 -0.03068943 0.01366109)
(0.8201472 -0.08723202 9.314866e-05)
(0.7599017 -0.2080088 0.004278849)
(0.6765912 -0.3406174 0.001204196)
(0.7133653 -0.617365 0.0009219157)
(0.558962 -1.494767 0.00049457)
(0.706845 0.04366573 -0.1160079)
(0.9983257 0.02754711 0.1225858)
(0.8056252 0.0547377 0.006672446)
(0.849914 0.01659613 0.01667398)
(0.7709688 -0.02157605 0.001931229)
(0.6593455 -0.06949223 0.0002454615)
(0.4890578 -0.1664622 -0.002236969)
(0.2966438 -0.2786196 -0.000420434)
(0.09051249 -0.4434262 -0.0002779879)
(0.8586067 0.136736 -0.08808671)
(0.9778101 0.0602019 0.05267613)
(0.8181301 0.1206387 -0.001322146)
(0.8336046 0.08552595 0.01468527)
(0.6925068 0.08806214 -0.000214494)
(0.5900703 0.06712806 0.003874772)
(0.422057 0.0151781 -0.0004483844)
(0.1736904 -0.00182175 0.003525472)
(0.03478848 -0.1346428 0.004760776)
(0.8703447 0.1344993 -0.08342591)
(0.9918444 0.1431006 0.04876659)
(0.8149233 0.1927318 0.002661977)
(0.8240626 0.17922 0.01230159)
(0.6624837 0.2019053 -0.0001306849)
(0.5735795 0.2058134 0.001269812)
(0.3700614 0.2208098 0.003277575)
(0.1474124 0.2187381 0.003869682)
(0.9174604 0.1791795 -0.0313147)
(0.9811866 0.2081127 0.009955225)
(0.8311431 0.2698206 -0.0006045302)
(0.8326421 0.2705269 0.00891845)
(0.6803103 0.3146542 0.0007207054)
(0.5934779 0.3474281 0.003384553)
(0.3785755 0.404404 0.004874158)
(0.1991547 0.4179688 0.00344141)
(0.8915478 0.1638181 -0.03364729)
(0.9988999 0.2689196 0.009851823)
(0.8470519 0.3349536 -0.005060401)
(0.8673932 0.3586426 0.003951288)
(0.7264822 0.4181899 0.00085603)
(0.6566821 0.4966032 0.00150732)
(0.4272888 0.582803 0.00290612)
(0.2470839 0.6747704 0.002084544)
(0.05386437 0.297806 -0.003461654)
(0.9251321 0.2044638 -0.01527615)
(0.9993959 0.3233218 0.01477969)
(0.8869638 0.3853683 -0.01048449)
(0.9131454 0.4252806 -0.003047195)
(0.8203555 0.5059455 -0.003726646)
(0.7562268 0.6344641 0.0001253153)
(0.6193292 0.7908723 0.002338064)
(0.3755195 0.904858 -0.00207411)
(0.1608917 1.058084 0.0002654597)
(0.8773959 0.1638961 -0.02353127)
(1.024841 0.3544358 0.01439007)
(0.9249958 0.4089254 -0.009814918)
(0.9861842 0.4603151 -0.001836005)
(0.9364848 0.5586637 -6.201492e-05)
(0.9438015 0.7035888 0.002077541)
(0.9184875 0.9394104 0.004620521)
(0.7344399 1.209734 0.002163696)
(0.08569009 1.619116 -0.004060779)
(1.371066 1.107634 0.001962603)
(2.23151 2.060481 0.007784785)
(2.08023 -0.09694111 -0.000760471)
(1.099336 -0.002984991 -0.006666879)
(1.054594 0.01039388 -0.003563725)
(1.024769 0.02283513 0.002187034)
(1.029674 -0.0005567274 0.0006130708)
(1.036742 -0.003418667 0.0009981248)
(1.045889 -0.007611692 0.0007078866)
(1.056632 -0.004836142 0.0005282664)
(1.065912 -0.004864386 0.0002086903)
(1.077747 -0.00587714 -0.0002328144)
(0.9745953 -0.2886494 -0.003239582)
(1.012022 0.09074538 0.009949953)
(1.012976 -0.03980337 0.006312973)