/*--------------------------------*- C++ -*----------------------------------*\
  =========                 |
  \\      /  F ield         | OpenFOAM: The Open Source CFD Toolbox
   \\    /   O peration     | Website:  https://openfoam.org
    \\  /    A nd           | Version:  7
     \\/     M anipulation  |
\*---------------------------------------------------------------------------*/
FoamFile
{
    version     2.0;
    format      ascii;
    class       volScalarField;
    location    "0.1";
    object      Ux;
}
// * * * * * * * * * * * * * * * * * * * * * * * * * * * * * * * * * * * * * //

dimensions      [0 1 -1 0 0 0 0];

internalField   nonuniform List<scalar> 
105127
(
-0.6741656
-0.5426187
-0.4781008
-0.4373495
-0.4062062
-1.126904
-1.022473
-0.9375926
-0.8667748
-0.8080468
-1.064863
-0.9915728
-0.9198484
-0.8568604
-0.8030332
-0.976615
-0.9249762
-0.8737959
-0.8267485
-0.7813431
-0.9017149
-0.8728325
-0.8350258
-0.7946475
-0.7567304
-0.8412414
-0.8218003
-0.7936515
-0.7612627
-0.7295283
-0.7883271
-0.7753905
-0.754025
-0.7286339
-0.7020297
-0.7437723
-0.734389
-0.7176291
-0.6967028
-0.6745944
-0.7042194
-0.6972607
-0.6840668
-0.6668007
-0.6485849
-0.6693861
-0.6639167
-0.6533849
-0.6388278
-0.6232247
-0.6381217
-0.6336657
-0.6251471
-0.6126821
-0.5993164
-0.6099664
-0.606309
-0.5991782
-0.5883828
-0.5768204
-0.5843773
-0.5813109
-0.5752395
-0.56581
-0.5556967
-0.5609901
-0.5583449
-0.5530986
-0.5448048
-0.5358826
-0.5395216
-0.5371432
-0.5326884
-0.5252502
-0.5172562
-0.5197419
-0.5175392
-0.5136978
-0.5070442
-0.4997611
-0.5014448
-0.4993122
-0.4960032
-0.4900526
-0.4833577
-0.4844551
-0.4823159
-0.4795706
-0.4740932
-0.4679758
-0.4686409
-0.4662854
-0.4641604
-0.4592424
-0.4535502
-0.4539041
-0.4514262
-0.4494925
-0.4453717
-0.439996
-0.4401581
-0.4376342
-0.4355908
-0.4323102
-0.4272498
-0.4273214
-0.4247912
-0.4225375
-0.4200332
-0.4152723
-0.415324
-0.4128043
-0.4104474
-0.4084845
-0.4040639
-0.3847927
-0.3935389
-0.3971194
-0.3976412
-0.3936182
-0.7101836
-0.5705241
-0.5094858
-0.4684765
-0.4359796
-1.313246
-1.132745
-1.008119
-0.9227676
-0.852925
-0.7958709
-1.113429
-1.021459
-0.9456771
-0.8858914
-0.8298286
-0.7811396
-1.017873
-0.9695862
-0.90704
-0.8598921
-0.8088459
-0.765349
-0.9163082
-0.8879016
-0.8495588
-0.8163664
-0.7780618
-0.7423406
-0.8520544
-0.8395311
-0.8067677
-0.7806945
-0.7474471
-0.7166161
-0.7928187
-0.7836705
-0.7607938
-0.7416531
-0.7155765
-0.690219
-0.746308
-0.7421735
-0.7228428
-0.7078601
-0.6859049
-0.6643313
-0.704708
-0.7018786
-0.6865631
-0.6751414
-0.6571837
-0.6390937
-0.6689734
-0.6677553
-0.6546312
-0.6456283
-0.6304496
-0.6150074
-0.6369152
-0.6363122
-0.6251501
-0.6180831
-0.605233
-0.5920463
-0.6082488
-0.6082266
-0.5984157
-0.5927912
-0.5817316
-0.5703667
-0.582247
-0.5825274
-0.5738302
-0.5693414
-0.5597367
-0.5498823
-0.5585901
-0.5590769
-0.5512417
-0.5476339
-0.5392031
-0.5305978
-0.5369122
-0.5375134
-0.5303939
-0.5274586
-0.5199966
-0.512445
-0.5169048
-0.5176256
-0.5111065
-0.5086889
-0.5020276
-0.4953802
-0.4984129
-0.4992125
-0.4932013
-0.4911995
-0.485212
-0.479333
-0.4812717
-0.4821166
-0.4764969
-0.4748906
-0.4695131
-0.464236
-0.4653474
-0.4662357
-0.4610029
-0.4596433
-0.4547251
-0.450022
-0.4505207
-0.4514333
-0.4465298
-0.4453928
-0.4408681
-0.4366399
-0.4366943
-0.4376226
-0.4330031
-0.43206
-0.4278656
-0.4240343
-0.4237825
-0.4247189
-0.4203445
-0.4195699
-0.4156655
-0.4121695
-0.4117105
-0.412658
-0.4084992
-0.4078783
-0.4042039
-0.4009849
-0.4024259
-0.4013702
-0.3974019
-0.3968986
-0.3934447
-0.3904812
-0.733183
-0.5840778
-0.5176691
-0.4771655
-0.4434309
-1.285031
-1.13848
-1.015977
-0.9342924
-0.8606456
-0.8023175
-1.109881
-1.020684
-0.9487207
-0.8883042
-0.8334703
-0.7840865
-1.027556
-0.9735169
-0.9133328
-0.8610991
-0.8100204
-0.7648917
-0.9125526
-0.8873174
-0.8537761
-0.8168937
-0.780191
-0.742669
-0.8584802
-0.8401853
-0.8114645
-0.7812265
-0.7489024
-0.716657
-0.79533
-0.7835695
-0.7649458
-0.741897
-0.716967
-0.6906452
-0.7501895
-0.7425051
-0.7271649
-0.7081166
-0.6869649
-0.6644473
-0.7072637
-0.701943
-0.6906453
-0.6753271
-0.6581363
-0.6392691
-0.6714237
-0.6679532
-0.658697
-0.6458801
-0.631271
-0.6150662
-0.6387533
-0.6364577
-0.6290621
-0.618317
-0.6059991
-0.5921061
-0.6097838
-0.6084132
-0.6022457
-0.5930491
-0.5824501
-0.5703701
-0.583444
-0.5827089
-0.5775497
-0.5696026
-0.560432
-0.5498624
-0.5595222
-0.5592646
-0.5548686
-0.5479122
-0.5398911
-0.5305504
-0.5376112
-0.5376873
-0.5339125
-0.52777
-0.5206971
-0.5123745
-0.5174723
-0.517787
-0.5145145
-0.5090521
-0.5027603
-0.4952728
-0.4988811
-0.4993621
-0.4965112
-0.4916242
-0.4859746
-0.4791833
-0.4816622
-0.4822569
-0.4797632
-0.4753708
-0.4702554
-0.4640514
-0.4656773
-0.4663503
-0.4641469
-0.4601744
-0.4555248
-0.4498205
-0.4508087
-0.4515307
-0.4495731
-0.4459505
-0.4417023
-0.4364368
-0.4369565
-0.4377051
-0.4359577
-0.4326236
-0.428722
-0.4238453
-0.4240342
-0.4247905
-0.4232244
-0.420133
-0.4165335
-0.4120009
-0.4119662
-0.4127158
-0.4113061
-0.4084201
-0.4050898
-0.4008586
-0.4010491
-0.4014183
-0.4001445
-0.3974363
-0.3943542
-0.3903901
-0.7359735
-0.5847915
-0.5216867
-0.4785207
-0.4427584
-1.318228
-1.140989
-1.017766
-0.9308945
-0.8596247
-0.8010783
-1.11584
-1.014904
-0.9444001
-0.8844782
-0.8299841
-0.7805628
-1.03713
-0.971405
-0.9108872
-0.8608373
-0.8086162
-0.7638647
-0.9256731
-0.8826946
-0.8505269
-0.8161906
-0.778551
-0.7422942
-0.864608
-0.8401633
-0.8112997
-0.7817289
-0.748295
-0.7165603
-0.8026786
-0.782342
-0.7634548
-0.741544
-0.7162488
-0.6904606
-0.7560316
-0.7423922
-0.7263678
-0.7082716
-0.6865784
-0.6643832
-0.7131381
-0.7014865
-0.6895416
-0.6752691
-0.6577454
-0.639202
-0.6767497
-0.6677903
-0.6577706
-0.6459347
-0.6310041
-0.6150731
-0.6438844
-0.6362355
-0.6280955
-0.6183312
-0.605751
-0.5921297
-0.6146183
-0.608263
-0.6013305
-0.5930883
-0.5822468
-0.5704326
-0.5880565
-0.5825638
-0.5766446
-0.569635
-0.5602412
-0.549946
-0.5639016
-0.5591465
-0.5539868
-0.5479459
-0.5397085
-0.5306551
-0.541773
-0.5375896
-0.5330482
-0.5277932
-0.5205108
-0.512494
-0.5214222
-0.5177139
-0.5136695
-0.5090551
-0.502562
-0.495411
-0.5026304
-0.499314
-0.4956797
-0.4915953
-0.4857619
-0.4793401
-0.4852248
-0.4822376
-0.4789433
-0.4753038
-0.4700286
-0.4642236
-0.4690637
-0.466358
-0.4633535
-0.4600785
-0.4552715
-0.4499996
-0.4540254
-0.4515611
-0.448802
-0.4458364
-0.4414295
-0.4366152
-0.4400088
-0.437754
-0.4352045
-0.4325015
-0.428438
-0.4240181
-0.4269267
-0.4248549
-0.4224848
-0.4200074
-0.4162422
-0.4121633
-0.4147052
-0.4127951
-0.4105795
-0.4082967
-0.4047883
-0.4010058
-0.4022254
-0.4015118
-0.3994294
-0.3973161
-0.3940352
-0.3905136
-0.724536
-0.5842993
-0.5219626
-0.4783071
-0.4428443
-1.309417
-1.148684
-1.023323
-0.9338749
-0.8602364
-0.8015433
-1.109579
-1.012282
-0.9437195
-0.8847148
-0.8292487
-0.7794867
-1.035771
-0.9696075
-0.9079857
-0.8589565
-0.8091617
-0.7642027
-0.9238984
-0.881618
-0.8508327
-0.8155093
-0.7789863
-0.7425536
-0.8625881
-0.8399776
-0.8116709
-0.7813726
-0.7488238
-0.7167066
-0.8012334
-0.7818744
-0.7636952
-0.7413267
-0.7165043
-0.6904464
-0.7549165
-0.7421358
-0.7267498
-0.7081636
-0.6868733
-0.6643916
-0.7121364
-0.70117
-0.6898804
-0.6751731
-0.6580032
-0.6392174
-0.6758904
-0.667554
-0.6581522
-0.6458827
-0.6312601
-0.6150854
-0.6430953
-0.6359951
-0.6284604
-0.6182814
-0.6059952
-0.5921434
-0.6139
-0.6080515
-0.6017021
-0.5930535
-0.5824861
-0.5704439
-0.5873878
-0.58236
-0.5770085
-0.5696043
-0.5604738
-0.5499553
-0.5632776
-0.5589553
-0.5543473
-0.5479219
-0.5399372
-0.5306625
-0.541188
-0.5374058
-0.5334028
-0.5277748
-0.5207354
-0.5125003
-0.5208712
-0.517538
-0.5140191
-0.5090427
-0.5027831
-0.4954154
-0.5021096
-0.499145
-0.4960246
-0.4915891
-0.4859795
-0.4793428
-0.4847311
-0.4820754
-0.4792854
-0.4753038
-0.4702419
-0.4642247
-0.4685934
-0.4661991
-0.4636854
-0.4600854
-0.4554884
-0.4500008
-0.453576
-0.4514052
-0.4491256
-0.4458489
-0.4416496
-0.4366182
-0.4395788
-0.4376
-0.4355202
-0.432517
-0.428661
-0.4240242
-0.4265145
-0.4247023
-0.4227951
-0.4200267
-0.4164702
-0.412178
-0.4143098
-0.4126419
-0.4108854
-0.4083135
-0.4050213
-0.4010265
-0.4017677
-0.4013568
-0.3997325
-0.3973361
-0.3942816
-0.3905572
-0.7187607
-0.5852872
-0.5225481
-0.4793292
-0.4459778
-1.310549
-1.141283
-1.018433
-0.9305763
-0.8598628
-0.801736
-1.105738
-1.014707
-0.9449491
-0.8850367
-0.8304668
-0.7809537
-1.037304
-0.9710893
-0.9107983
-0.861089
-0.809434
-0.7646356
-0.9254271
-0.8819984
-0.8512607
-0.8159376
-0.7790219
-0.7419613
-0.86353
-0.8402142
-0.8119941
-0.7817135
-0.7487231
-0.7164236
-0.8020313
-0.7820089
-0.7638223
-0.7414534
-0.7165341
-0.6904429
-0.7556241
-0.7422189
-0.7268327
-0.7082469
-0.6868863
-0.6643825
-0.7127579
-0.7012168
-0.6899208
-0.6752109
-0.6580194
-0.6392265
-0.67646
-0.6675813
-0.6581755
-0.6459049
-0.63127
-0.6150914
-0.6436225
-0.6360106
-0.6284734
-0.6182931
-0.6060022
-0.5921488
-0.6143937
-0.6080602
-0.6017094
-0.5930599
-0.5824902
-0.5704474
-0.587853
-0.5823649
-0.5770127
-0.5696081
-0.5604762
-0.5499572
-0.5637177
-0.5589579
-0.5543498
-0.547924
-0.5399385
-0.5306636
-0.5416049
-0.5374073
-0.5334042
-0.5277758
-0.520736
-0.5125008
-0.5212679
-0.5175388
-0.5140199
-0.5090432
-0.5027831
-0.4954153
-0.5024882
-0.4991455
-0.496025
-0.4915891
-0.485979
-0.4793422
-0.4850935
-0.4820761
-0.4792855
-0.4753034
-0.4702406
-0.4642232
-0.4689414
-0.4662
-0.4636852
-0.4600843
-0.4554859
-0.4499981
-0.4539107
-0.4514067
-0.4491249
-0.445847
-0.4416449
-0.4366131
-0.4399016
-0.437603
-0.4355189
-0.4325148
-0.4286529
-0.4240163
-0.4268267
-0.424708
-0.4227925
-0.4200236
-0.4164548
-0.4121614
-0.4146132
-0.4126521
-0.4108808
-0.408313
-0.404996
-0.401005
-0.4018648
-0.4013755
-0.3997268
-0.3973365
-0.3942351
-0.3905049
-0.7316911
-0.5901137
-0.5243807
-0.479233
-0.4445469
-1.305104
-1.132234
-1.014011
-0.9293082
-0.8586829
-0.8007657
-1.099067
-1.016886
-0.9452656
-0.8851135
-0.8307994
-0.7816384
-1.038176
-0.9728343
-0.9120072
-0.8615003
-0.8093846
-0.7645668
-0.9268664
-0.8832464
-0.8507324
-0.8158593
-0.7781041
-0.741732
-0.8647978
-0.8401027
-0.8111852
-0.7814235
-0.7481324
-0.7163785
-0.8030786
-0.782413
-0.7634488
-0.7414739
-0.7161999
-0.6903934
-0.756427
-0.7423464
-0.7263313
-0.7082123
-0.6865444
-0.664346
-0.7135684
-0.7014918
-0.6895347
-0.6752494
-0.6577282
-0.6391812
-0.677205
-0.6677774
-0.6577609
-0.6459207
-0.6309935
-0.6150611
-0.6443591
-0.6362351
-0.6280934
-0.6183261
-0.6057458
-0.5921225
-0.6151071
-0.6082605
-0.6013291
-0.5930854
-0.5822443
-0.5704292
-0.5885534
-0.5825641
-0.5766451
-0.569634
-0.5602402
-0.5499444
-0.5644037
-0.559147
-0.5539874
-0.5479454
-0.5397083
-0.5306547
-0.5422775
-0.5375905
-0.533049
-0.5277934
-0.5205111
-0.5124939
-0.5219274
-0.5177148
-0.5136705
-0.5090555
-0.5025625
-0.4954112
-0.5031351
-0.4993147
-0.4956807
-0.4915957
-0.4857628
-0.4793408
-0.4857282
-0.4822381
-0.4789446
-0.4753045
-0.4700302
-0.4642251
-0.4695651
-0.4663579
-0.4633552
-0.4600791
-0.4552742
-0.4500019
-0.4545241
-0.4515602
-0.448805
-0.4458379
-0.4414356
-0.4366211
-0.4405049
-0.4377509
-0.4352095
-0.4325005
-0.4284474
-0.4240256
-0.4274196
-0.4248476
-0.4224932
-0.4200076
-0.4162638
-0.4121892
-0.4151967
-0.4127813
-0.4105973
-0.4082827
-0.4048199
-0.4010335
-0.4025057
-0.4014863
-0.3994548
-0.3973006
-0.3941081
-0.3906188
-0.7309893
-0.5912324
-0.5270428
-0.4785861
-0.4433012
-1.295001
-1.131553
-1.013986
-0.9322183
-0.8597903
-0.8013076
-1.101594
-1.022611
-0.9506744
-0.8888603
-0.8333479
-0.784015
-1.037155
-0.9734533
-0.91347
-0.8616585
-0.8106439
-0.7656893
-0.9300498
-0.8881326
-0.8539243
-0.8166866
-0.779777
-0.7422464
-0.8646962
-0.8402699
-0.8114464
-0.7812475
-0.7488347
-0.716571
-0.8033515
-0.7837686
-0.7650315
-0.7419184
-0.7169129
-0.6905642
-0.7561904
-0.7425592
-0.7271972
-0.7081481
-0.6869691
-0.6644427
-0.7134186
-0.7020035
-0.6906821
-0.6753487
-0.6581374
-0.6392602
-0.6769538
-0.6679783
-0.6587152
-0.6458948
-0.6312782
-0.6150701
-0.6441462
-0.6364773
-0.6290768
-0.6183278
-0.6060046
-0.5921087
-0.6148921
-0.6084233
-0.6022541
-0.5930555
-0.5824541
-0.5703733
-0.5883586
-0.5827161
-0.5775558
-0.5696071
-0.5604349
-0.5498642
-0.5642216
-0.5592688
-0.5548723
-0.5479148
-0.539893
-0.5305518
-0.5421057
-0.5376902
-0.5339153
-0.5277716
-0.5206984
-0.5123752
-0.5217611
-0.5177891
-0.5145167
-0.5090529
-0.5027605
-0.4952728
-0.502971
-0.4993638
-0.4965127
-0.4916244
-0.4859743
-0.4791828
-0.4855626
-0.4822585
-0.4797645
-0.4753705
-0.470254
-0.4640498
-0.469395
-0.4663517
-0.4641477
-0.4601731
-0.4555222
-0.4498182
-0.4543488
-0.4515329
-0.4495737
-0.4459487
-0.4416978
-0.4364317
-0.4403242
-0.4377085
-0.4359578
-0.4326203
-0.4287129
-0.4238375
-0.4272346
-0.424797
-0.4232238
-0.4201284
-0.4165151
-0.4119811
-0.4150064
-0.4127256
-0.4113047
-0.4084147
-0.4050498
-0.4008278
-0.4019837
-0.4014402
-0.4001487
-0.3974342
-0.3942746
-0.3903005
-0.7421903
-0.591368
-0.5265986
-0.4816003
-0.4464112
-1.308981
-1.118455
-1.004215
-0.9205533
-0.8517623
-0.7948169
-1.114952
-1.024311
-0.9472498
-0.8874348
-0.8307369
-0.7816738
-1.037578
-0.9691991
-0.9075047
-0.8603184
-0.8091494
-0.765546
-0.9316092
-0.8885826
-0.8499367
-0.816541
-0.7779139
-0.742134
-0.8675596
-0.8392828
-0.806772
-0.7806654
-0.7474186
-0.7165669
-0.8064055
-0.7838152
-0.7608686
-0.7416801
-0.7155531
-0.6901639
-0.7587645
-0.7421208
-0.7228385
-0.7078501
-0.6858957
-0.6643129
-0.7159331
-0.7019124
-0.686585
-0.6751494
-0.6571803
-0.6390804
-0.6792345
-0.6677519
-0.654636
-0.6456274
-0.6304492
-0.6150034
-0.6463009
-0.6363235
-0.6251594
-0.6180857
-0.6052337
-0.5920442
-0.6169067
-0.6082316
-0.5984212
-0.5927922
-0.5817322
-0.5703661
-0.5902681
-0.5825343
-0.5738356
-0.5693425
-0.5597375
-0.5498824
-0.5660274
-0.5590827
-0.5512461
-0.5476344
-0.5392039
-0.530598
-0.5438218
-0.5375191
-0.5303977
-0.5274588
-0.5199971
-0.5124451
-0.5233945
-0.5176305
-0.5111095
-0.508689
-0.5020283
-0.4953806
-0.5045285
-0.4992169
-0.4932036
-0.4911997
-0.4852135
-0.4793333
-0.4870498
-0.4821207
-0.4764998
-0.4748909
-0.4695153
-0.4642372
-0.4708209
-0.466239
-0.4610069
-0.4596427
-0.454728
-0.4500244
-0.4557181
-0.4514344
-0.4465352
-0.4453928
-0.4408752
-0.436649
-0.4416399
-0.4376208
-0.4330131
-0.4320553
-0.4278774
-0.4240459
-0.4284977
-0.4247087
-0.4203603
-0.4195658
-0.4156994
-0.4122196
-0.4162181
-0.4126359
-0.4085352
-0.4078362
-0.404262
-0.4010486
-0.4024123
-0.4013201
-0.3974481
-0.3968424
-0.3936244
-0.3907913
-0.1226279
-0.1106606
-0.09770042
-0.08884583
-0.08218726
-1.373026
-1.164118
-1.034666
-0.9446375
-0.8744702
-0.8149889
-1.181424
-1.070669
-0.9832637
-0.9159342
-0.8581077
-0.8059663
-1.053458
-0.986376
-0.9290522
-0.8793433
-0.8305473
-0.7849889
-0.9540759
-0.9085227
-0.8711535
-0.8360579
-0.7978539
-0.7598226
-0.8812554
-0.8461648
-0.8188585
-0.7951337
-0.7647598
-0.7329606
-0.8207067
-0.7904617
-0.7731313
-0.7553036
-0.7317736
-0.7053783
-0.7704812
-0.7441558
-0.7292728
-0.7188601
-0.7003187
-0.6782326
-0.72731
-0.7030418
-0.6921
-0.6852707
-0.6705628
-0.6519599
-0.6897268
-0.6668712
-0.6586811
-0.6545671
-0.6425545
-0.6268604
-0.6564418
-0.6343776
-0.6284138
-0.6262246
-0.6164248
-0.6031346
-0.6266683
-0.6051488
-0.6009205
-0.6000877
-0.5921007
-0.5808312
-0.5998012
-0.57863
-0.5757681
-0.5759923
-0.5694371
-0.5597027
-0.5753635
-0.5544576
-0.5526663
-0.5537179
-0.5482909
-0.5398434
-0.5530035
-0.5323043
-0.5313824
-0.533084
-0.528582
-0.5211989
-0.5324111
-0.5119059
-0.511679
-0.513861
-0.5102341
-0.5036882
-0.5133813
-0.4930436
-0.4933852
-0.4958482
-0.4930998
-0.4872222
-0.495737
-0.4755483
-0.4764105
-0.4778267
-0.4768166
-0.4716973
-0.479343
-0.4592878
-0.460561
-0.4623844
-0.4618178
-0.4571519
-0.4640824
-0.4441543
-0.4457532
-0.4479201
-0.4477244
-0.4434878
-0.4498586
-0.4300502
-0.4319566
-0.4344106
-0.4344672
-0.4306443
-0.4365861
-0.4168948
-0.4190974
-0.4217951
-0.4220094
-0.4185801
-0.4241894
-0.4046257
-0.4070946
-0.4100179
-0.4103362
-0.4072
-0.4125836
-0.3848165
-0.3935969
-0.3972291
-0.3955328
-0.3931349
-0.1177031
-1.153253
-0.2537659
-1.389832
-1.200777
-1.155048
-1.146993
-1.405403
-1.272145
-1.263336
-1.199418
-1.076287
-1.049964
-1.193767
-1.124496
-1.097294
-1.069654
-0.9885721
-0.9686164
-1.058064
-1.022771
-0.9952424
-0.9805665
-0.9017315
-0.8923131
-0.9551987
-0.932976
-0.9098832
-0.8997523
-0.8384977
-0.8363921
-0.8814922
-0.8670761
-0.8464959
-0.8389641
-0.7811481
-0.7838957
-0.820717
-0.809643
-0.7912496
-0.7847226
-0.735095
-0.7397303
-0.7704668
-0.7626023
-0.7456796
-0.7400924
-0.6936266
-0.7000565
-0.7272898
-0.720844
-0.7055233
-0.7004257
-0.6574701
-0.6650918
-0.6897104
-0.6846462
-0.6705382
-0.6658781
-0.6252252
-0.6336316
-0.6564299
-0.6522799
-0.6392165
-0.6348783
-0.5963817
-0.60525
-0.6266606
-0.623262
-0.6111082
-0.6070022
-0.5702766
-0.5794057
-0.5997965
-0.5969387
-0.5856255
-0.5816421
-0.5464977
-0.5557754
-0.5753602
-0.5729202
-0.5623808
-0.5584864
-0.524755
-0.5340435
-0.5530002
-0.5508814
-0.5410316
-0.5372277
-0.5048043
-0.51401
-0.5324106
-0.5305843
-0.5213331
-0.5176188
-0.4863817
-0.4954525
-0.5133813
-0.5118177
-0.5030895
-0.4994546
-0.4693158
-0.4782262
-0.4957372
-0.4944064
-0.4861484
-0.4825868
-0.4534753
-0.46221
-0.4793432
-0.4782208
-0.4703971
-0.4669103
-0.4387311
-0.4472954
-0.4640826
-0.4631494
-0.4557227
-0.452318
-0.4250093
-0.4333853
-0.4498576
-0.4490929
-0.4420333
-0.4387133
-0.4122094
-0.4203899
-0.436579
-0.4359679
-0.4292511
-0.4260109
-0.4002572
-0.4082357
-0.4241722
-0.4237016
-0.4173159
-0.4141374
-0.3890813
-0.3897329
-0.4125691
-0.4122299
-0.4061446
-0.4030327
-0.2444101
-1.38846
-1.206896
-0.1495791
-1.388354
-1.199247
-0.2611253
-1.391239
-1.195475
-0.1494713
-1.392615
-1.199737
-0.2680869
-1.39793
-1.193699
-0.1513057
-1.39407
-1.197276
-0.2611277
-1.397706
-1.19923
-0.2483109
-1.390918
-1.165575
-0.1626455
-1.391247
-1.198546
-0.2628385
-1.39858
-1.195524
-0.1501704
-1.393512
-1.20034
-0.2678762
-1.398748
-1.198882
-0.1507572
-1.393473
-1.201135
-0.2668233
-1.397346
-1.200977
-0.1555934
-1.397442
-1.205679
-0.2872754
-1.400763
-1.210874
-0.1104847
-1.43365
-1.261264
-1.265186
-0.1012763
-1.135521
-1.083596
-1.219316
-1.116726
-0.08213747
-0.9156224
-0.8791015
-0.9779048
-0.9239791
-0.07549555
-0.8433347
-0.8132699
-0.8991401
-0.8581708
-1.260109
-1.263397
-1.208663
-1.196096
-1.151412
-1.11976
-1.098099
-1.072914
-1.074618
-1.035042
-1.020015
-0.9948246
-0.9814836
-0.9857527
-0.9691237
-0.9325217
-0.9099124
-0.9001702
-0.901655
-0.892402
-0.8669358
-0.846455
-0.8390126
-0.8384099
-0.8363918
-0.8096993
-0.7912918
-0.7847994
-0.7813442
-0.7839263
-0.7626058
-0.7456915
-0.7401058
-0.7351199
-0.7397599
-0.7208708
-0.7055424
-0.7004467
-0.6936557
-0.7000744
-0.6846588
-0.6705471
-0.6658875
-0.6574847
-0.6651073
-0.6522913
-0.639224
-0.634886
-0.6252353
-0.6336414
-0.6232691
-0.6111117
-0.6070056
-0.5963854
-0.6052522
-0.5969437
-0.5856283
-0.5816436
-0.5702761
-0.5794034
-0.5729238
-0.5623854
-0.5584891
-0.546494
-0.5557718
-0.5508862
-0.5410325
-0.5372276
-0.5247653
-0.534039
-0.5305858
-0.5213328
-0.5176178
-0.5047975
-0.5140022
-0.5118187
-0.5030888
-0.4994535
-0.4863744
-0.4954446
-0.4944078
-0.4861477
-0.4825862
-0.4693076
-0.4782172
-0.4782226
-0.4703968
-0.4669105
-0.4534678
-0.4622021
-0.4631509
-0.4557232
-0.4523198
-0.4387257
-0.4472905
-0.4490953
-0.4420374
-0.4387187
-0.4250085
-0.4333865
-0.4122446
-0.4061709
-0.4030518
-0.3891702
-0.4208634
-0.904611
-1.034252
-1.307928
-1.250635
-1.34853
-1.242409
-1.143026
-1.141215
-1.166205
-1.100344
-1.020881
-1.024862
-1.037636
-0.9945517
-0.9249313
-0.9333287
-0.9347867
-0.9116932
-0.8554981
-0.8647384
-0.8631476
-0.847923
-0.7974975
-0.8064917
-0.8034783
-0.7934517
-0.7494047
-0.7576098
-0.7556358
-0.7469268
-0.7074126
-0.7149287
-0.7135266
-0.7065165
-0.6709433
-0.6753991
-0.6767837
-0.6709586
-0.6386102
-0.6392939
-0.644124
-0.6392471
-0.6096662
-0.6092758
-0.6148745
-0.6107187
-0.5834724
-0.5836491
-0.5884812
-0.584869
-0.5595815
-0.5602471
-0.5644937
-0.5612886
-0.5376893
-0.5387788
-0.5425484
-0.539642
-0.5175433
-0.5190174
-0.5223787
-0.5197085
-0.4989577
-0.5007415
-0.5037756
-0.5012797
-0.4817679
-0.4837841
-0.4865524
-0.4841828
-0.4658261
-0.4680221
-0.4705612
-0.4682896
-0.4510074
-0.4533391
-0.4556848
-0.4534793
-0.4372083
-0.4396385
-0.4418223
-0.4396684
-0.4243389
-0.4268377
-0.4288867
-0.4267676
-0.4123238
-0.4148668
-0.4168019
-0.4147083
-0.4010901
-0.4036705
-0.4054925
-0.4034187
-0.864815
-0.8861909
-0.8739576
-0.8881042
-0.8791539
-0.8969985
-0.8751214
-0.8932899
-0.8922608
-0.8760255
-0.8958315
-0.8778244
-0.8852097
-0.8768077
-0.8643998
-0.8665915
-0.9190146
-0.8717759
-0.09102941
-1.00835
-0.9673833
-1.081187
-1.006296
-0.07034452
-0.7844424
-0.7591353
-0.8358667
-0.803278
-0.4359747
-0.4292721
-0.4260242
-0.4122183
-0.4204165
-0.4237147
-0.4173465
-0.4141564
-0.4003004
-0.4083009
-1.284527
-1.239692
-1.321023
-1.1909
-0.8688453
-0.8833261
-1.224731
-1.183715
-1.239473
-1.206214
-1.102456
-1.065737
-1.084642
-1.087744
-0.9980489
-0.9711088
-0.9843561
-0.9886509
-0.9117273
-0.8954434
-0.8973883
-0.9099821
-0.8458204
-0.8333904
-0.8329823
-0.8465672
-0.7899646
-0.781079
-0.7786815
-0.7926631
-0.7438066
-0.7360206
-0.7327053
-0.7464112
-0.7029566
-0.6968327
-0.6926166
-0.7063593
-0.6673694
-0.6623277
-0.6575728
-0.6712971
-0.6356683
-0.6320883
-0.6263501
-0.6399235
-0.6072404
-0.6057562
-0.5983363
-0.611467
-0.5815143
-0.5822805
-0.5729832
-0.58557
-0.5581014
-0.5605859
-0.5498871
-0.5618779
-0.5366516
-0.540068
-0.5287373
-0.5398683
-0.5169004
-0.5209806
-0.5092782
-0.5196723
-0.4986557
-0.5028369
-0.4913316
-0.5010152
-0.4817464
-0.4858257
-0.474699
-0.4834769
-0.4660436
-0.4698953
-0.4592329
-0.4671377
-0.4514291
-0.4549547
-0.4448345
-0.4515437
-0.4378083
-0.4409685
-0.4314304
-0.4373147
-0.4250986
-0.4278994
-0.4189312
-0.4241346
-0.4132194
-0.4157142
-0.4072532
-0.4120009
-0.4021035
-0.4086522
-0.400712
-0.3963256
-0.8772563
-0.8725084
-0.882344
-0.8726622
-0.8953519
-0.8775396
-0.9028323
-0.8980964
-0.8772761
-0.8966081
-0.8775533
-0.8945712
-0.8728918
-0.8879066
-0.8558095
-0.8841776
-0.8701884
-1.276459
-0.5656797
-0.8257225
-0.587849
-0.7918477
-0.5588
-0.7626951
-0.5512326
-0.787365
-1.121965
-1.126957
-1.142088
-1.086817
-1.102631
-1.064809
-1.08131
-1.086971
-1.013764
-1.022195
-1.031437
-0.9932887
-0.9954419
-0.9715337
-0.9825262
-0.9885529
-0.9243229
-0.9330139
-0.9338111
-0.9117645
-0.9113125
-0.8956253
-0.8972456
-0.9100134
-0.85521
-0.8646591
-0.8628105
-0.8479981
-0.7975435
-0.8065065
-0.8035156
-0.79354
-0.7899465
-0.7811779
-0.7787226
-0.792734
-0.7494147
-0.7576643
-0.7556747
-0.7469902
-0.743824
-0.7360864
-0.7327315
-0.7464725
-0.707435
-0.7149597
-0.7135571
-0.7065626
-0.7029812
-0.6968763
-0.6926418
-0.7063933
-0.6709562
-0.6754735
-0.6767997
-0.6709898
-0.667385
-0.6623561
-0.6575881
-0.6713217
-0.6386191
-0.6393383
-0.6441352
-0.6392688
-0.635679
-0.6320892
-0.6263597
-0.6399388
-0.6096698
-0.6092866
-0.6148789
-0.6107325
-0.6072456
-0.6057494
-0.59834
-0.6114785
-0.5834712
-0.5836551
-0.5884816
-0.5848781
-0.5815148
-0.5822868
-0.5729835
-0.5855713
-0.5595753
-0.5602499
-0.564491
-0.561291
-0.5376937
-0.538805
-0.5425431
-0.5396376
-0.5366465
-0.5400813
-0.528736
-0.5398573
-0.5175362
-0.5190162
-0.5223739
-0.5197088
-0.5168944
-0.5209864
-0.5092738
-0.5196682
-0.4989495
-0.5007403
-0.5037701
-0.5012793
-0.4986499
-0.5028383
-0.4913267
-0.5010159
-0.4817585
-0.4837828
-0.486546
-0.4841816
-0.4817391
-0.4858258
-0.474694
-0.4834751
-0.4658174
-0.4680209
-0.4705549
-0.468288
-0.4660365
-0.4698973
-0.4592284
-0.4671314
-0.4510001
-0.4533396
-0.4556796
-0.4534783
-0.4372057
-0.4396425
-0.4418206
-0.43967
-0.437808
-0.4409956
-0.431433
-0.4372901
-0.4021688
-0.4026585
-0.4006725
-0.3963979
-0.4017332
-0.3872765
-0.4017173
-0.4015
-0.4015313
-0.4170769
-0.3905804
-0.4040309
-0.3928458
-0.3949053
-0.3906787
-0.3973735
-0.392971
-0.394982
-0.1991277
-0.2222388
-0.1344589
-0.1544519
-0.1313175
-0.1637432
-0.1534068
-0.1286189
-0.1571171
-0.1286607
-0.1595252
-0.1376159
-0.1353377
-0.1322257
-0.1363746
-0.1350795
-0.1408072
-0.1496108
-0.1801314
-0.1420944
-0.1439677
-0.1787981
-0.1549723
-0.1307262
-0.1303592
-0.1462118
-0.1604531
-0.1336579
-0.1440649
-0.1358079
-0.1264305
-0.1705421
-0.1600197
-0.1511778
-0.1789585
-0.1475595
-0.1497379
-0.1283025
-0.2249272
-0.2114657
-0.9045299
-1.101789
-0.8006158
-1.216334
-1.344756
-1.348333
-1.391177
-1.353671
-0.7251038
-1.079897
-0.7795246
-0.9959564
-0.7013213
-0.9288053
-0.6746069
-0.9885297
-0.5203058
-0.7552606
-0.5388415
-0.7297287
-0.5148765
-0.7077666
-0.5110063
-0.7256935
-1.283734
-1.263926
-1.307769
-1.203918
-1.238555
-1.18146
-1.228245
-1.186869
-1.153836
-1.188954
-1.180951
-1.208802
-1.094579
-1.124964
-1.106979
-1.103839
-1.034717
-1.064987
-1.061333
-1.082865
-0.8456489
-0.8334905
-0.8328968
-0.8465639
-0.7913168
-0.805768
-0.7970098
-0.7937103
-0.7696408
-0.7715267
-0.7691147
-0.7823326
-0.7452773
-0.753041
-0.7497611
-0.7485249
-0.7284506
-0.727542
-0.7214058
-0.7358196
-0.6689653
-0.6765588
-0.6710851
-0.6715956
-0.656512
-0.6570535
-0.6512192
-0.6581981
-0.637087
-0.644177
-0.6385008
-0.6394197
-0.6261129
-0.6264189
-0.6210433
-0.6267708
-0.6085992
-0.614596
-0.609329
-0.6104589
-0.5986596
-0.5983576
-0.5932781
-0.5986196
-0.5736015
-0.5727721
-0.5682146
-0.5730103
-0.5580966
-0.5604831
-0.5498698
-0.5618444
-0.516711
-0.519568
-0.5163519
-0.5174493
-0.5098605
-0.5083949
-0.5064272
-0.5083809
-0.4748046
-0.473648
-0.4721497
-0.4731993
-0.4643176
-0.4665882
-0.4636149
-0.4650083
-0.4590743
-0.4581577
-0.4568386
-0.4574863
-0.4514245
-0.4549577
-0.4448324
-0.4515434
-0.4444096
-0.4437677
-0.4426137
-0.4428674
-0.435156
-0.4373701
-0.4342901
-0.4363492
-0.4011623
-0.4037407
-0.4055237
-0.403471
-0.8842849
-1.28148
-1.290293
-0.9789682
-0.1443316
-0.1743315
-0.1449867
-0.1270292
-0.1516556
-0.1284942
-0.1351983
-0.1331605
-0.130114
-0.1393564
-0.1495463
-0.1340915
-0.1509344
-0.1541953
-0.1407559
-0.1530423
-0.1769886
-0.14132
-0.1363925
-0.1641952
-0.9209758
-0.6539628
-0.8723723
-0.6264847
-0.8329868
-0.6022558
-0.8679415
-0.6169919
-0.6997749
-0.5002168
-0.6792621
-0.4835024
-0.6622102
-0.476903
-0.6752256
-0.4789221
-0.4268458
-0.4288923
-0.4267779
-0.4243332
-0.4279784
-0.424191
-0.4251052
-0.4189366
-0.4149129
-0.4147281
-0.4123449
-0.4168129
-0.4157897
-0.4072865
-0.4120285
-0.4132449
-0.1894741
-0.1583877
-0.1297586
-0.1420501
-0.1388522
-0.1345814
-0.1285423
-0.1455371
-0.1390399
-0.1507031
-0.1638168
-0.1357788
-0.1389039
-0.1288331
-0.1484223
-0.1402588
-0.1318347
-0.1671427
-0.1517259
-0.1977328
-1.14835
-1.174277
-1.153603
-1.151399
-1.099521
-1.133489
-1.14644
-1.124949
-0.8151926
-0.8332283
-0.8128177
-0.8170967
-0.7931107
-0.8028496
-0.8152884
-0.803362
-0.7668378
-0.777271
-0.7651908
-0.7682234
-0.7501787
-0.752203
-0.7655405
-0.7492612
-0.7243022
-0.7287627
-0.7229446
-0.7250797
-0.7107411
-0.7098783
-0.7219355
-0.7048762
-0.674902
-0.674121
-0.6838594
-0.6678135
-0.6227705
-0.6226429
-0.6215197
-0.6222692
-0.6138817
-0.6113417
-0.6195331
-0.6071435
-0.5705373
-0.5698428
-0.569127
-0.5693002
-0.520716
-0.5189991
-0.5219072
-0.5156644
-0.4723434
-0.4719404
-0.4715856
-0.4703417
-0.4677031
-0.4670658
-0.4675525
-0.464524
-0.456732
-0.4566228
-0.4562426
-0.4547328
-0.4421776
-0.4423645
-0.4420563
-0.4402255
-0.4381539
-0.4382701
-0.4375464
-0.4364462
-0.06898002
-0.06822905
-0.06244419
-0.06359389
-1.411244
-1.4296
-1.467959
-1.46353
-0.06404362
-0.05995976
-0.05343716
-0.05916107
-0.04882465
-0.04499691
-0.04376409
-0.04453803
-0.03488128
-0.03805527
-0.03773283
-0.0399933
-0.03129708
-0.03738847
-0.03399689
-0.03583133
-0.03473172
-0.03602313
-0.03434635
-0.03131432
-0.03431237
-0.03301464
-0.02825593
-0.03120753
-1.345019
-1.302383
-1.335498
-1.399694
-1.260035
-1.24398
-1.242506
-1.233327
-0.9101779
-0.9362861
-0.9143864
-0.9184269
-0.8705024
-0.8867821
-0.8925971
-0.9018361
-0.8128131
-0.8230627
-0.829535
-0.836752
-0.5826558
-0.5874521
-0.5841169
-0.5830151
-0.5624582
-0.5589384
-0.5598505
-0.5588497
-0.5506502
-0.5493834
-0.5460231
-0.5496223
-0.5369359
-0.5399372
-0.5367397
-0.5379714
-0.5294496
-0.528074
-0.5253134
-0.5281508
-0.4979449
-0.5005664
-0.4974515
-0.4986793
-0.4916964
-0.4903351
-0.4887216
-0.4901151
-0.4805264
-0.4829116
-0.4799143
-0.4812044
-0.4062276
-0.405561
-0.4061106
-0.404636
-0.4008355
-0.3973759
-0.3983741
-0.4005735
-0.04412079
-0.04622937
-0.04031727
-0.04341947
-0.04171132
-0.037971
-0.03942869
-0.03570501
-0.0320384
-0.03304351
-0.02863845
-0.03184014
-0.430377
-0.4292352
-0.4307468
-0.4292979
-0.424302
-0.4236011
-0.422036
-0.4211355
-0.4178593
-0.4170538
-0.4180056
-0.4164974
-0.4121156
-0.4116776
-0.4097949
-0.4088634
-0.07930519
-0.09119065
-0.08682695
-0.09480659
-0.8920467
-1.387665
-0.9514594
-1.397356
-0.03374332
-0.03817834
-0.0371744
-0.03447227
-0.9445624
-0.968708
-0.9434672
-0.947199
-0.910345
-0.9331597
-0.9317369
-0.9449186
-0.8740698
-0.8951739
-0.871521
-0.8762096
-0.6865672
-0.6875198
-0.6855658
-0.6869046
-0.6529384
-0.6531681
-0.6518966
-0.6528422
-0.6425654
-0.6410023
-0.6501171
-0.635629
-0.5476748
-0.5467957
-0.5463975
-0.5461465
-0.5411975
-0.5388855
-0.5431941
-0.5360159
-0.5017454
-0.5004069
-0.5023609
-0.4970876
-0.4841119
-0.4831289
-0.4842705
-0.4801565
-0.4009178
-0.4020314
-0.4000892
-0.4007404
-0.3954595
-0.3935834
-0.3950075
-0.39478
-0.3930771
-0.3944387
-0.3941372
-0.3914539
-0.07690621
-0.07412154
-0.07505359
-0.06903961
-1.442314
-1.48502
-1.43397
-1.489386
-0.05512207
-0.05600527
-0.05056571
-0.04952435
-0.05067743
-0.05134176
-0.04448706
-0.04705163
-0.03435944
-0.03400366
-0.03007701
-0.03091353
-0.03330026
-0.03355741
-0.02880562
-0.03134953
-1.298093
-1.30834
-1.311185
-1.306244
-1.277758
-1.249695
-1.241224
-1.28977
-0.8628164
-0.8745658
-0.8628471
-0.8461665
-0.5606084
-0.5665375
-0.5576889
-0.563406
-0.4051741
-0.4050629
-0.402415
-0.4041004
-0.04363992
-0.04150608
-0.03902501
-0.03933548
-0.04007342
-0.04188038
-0.03628551
-0.03846775
-0.03160355
-0.03149629
-0.02735674
-0.02831705
-0.03095517
-0.03094596
-0.02646823
-0.02896889
-0.4166805
-0.4164722
-0.4159301
-0.414138