/*--------------------------------*- C++ -*----------------------------------*\
  =========                 |
  \\      /  F ield         | OpenFOAM: The Open Source CFD Toolbox
   \\    /   O peration     | Website:  https://openfoam.org
    \\  /    A nd           | Version:  7
     \\/     M anipulation  |
\*---------------------------------------------------------------------------*/
FoamFile
{
    version     2.0;
    format      ascii;
    class       volScalarField;
    location    "0.1";
    object      Ux;
}
// * * * * * * * * * * * * * * * * * * * * * * * * * * * * * * * * * * * * * //

dimensions      [0 1 -1 0 0 0 0];

internalField   nonuniform List<scalar> 
78470
(
1.028641
1.116308
1.12309
1.134965
1.146859
1.153178
1.161
1.16811
1.177129
1.047153
1.002257
1.018393
1.016511
1.034165
1.0386
1.048767
1.056471
1.066605
1.067468
1.026637
1.034382
1.027642
1.040422
1.044797
1.054304
1.060989
1.069089
1.071423
1.038455
1.040254
1.027721
1.043023
1.044362
1.052962
1.057193
1.0619
1.072626
1.038382
1.035297
1.025682
1.038954
1.041657
1.050441
1.053696
1.055115
1.074278
1.041815
1.038156
1.025771
1.043366
1.044065
1.053472
1.05531
1.052974
1.073801
1.035689
1.03767
1.027138
1.043519
1.046991
1.058125
1.060725
1.059942
1.080758
1.041154
1.038606
1.022599
1.044202
1.051734
1.067756
1.074597
1.074323
1.083957
1.038685
1.043102
1.026128
1.04883
1.057833
1.082109
1.098114
1.102837
1.072893
1.029582
1.037198
1.017506
1.045512
1.061414
1.100396
1.131061
1.144314
1.074329
1.026648
1.028709
1.009457
1.03803
1.060153
1.121284
1.181447
1.2045
1.069647
1.017281
1.009547
0.9837127
1.012736
1.04643
1.14614
1.244388
1.272335
1.060164
0.9945863
0.9831576
0.9474059
0.9785515
1.009762
1.136847
1.359463
1.394384
1.048322
0.9785465
0.9460978
0.8894891
0.8849888
0.910786
0.9742307
1.377096
1.527515
1.039839
0.9515008
0.8976311
0.8380112
0.7592117
0.6703814
0.6994037
0.4836189
1.021913
0.9304796
0.8620774
0.7801689
0.6631775
0.5116983
0.4025786
0.1075323
1.004868
0.9040211
0.8288112
0.7079305
0.5961484
0.4286063
0.2882104
0.068934
0.994453
0.8816454
0.8166962
0.6851442
0.5751455
0.4018926
0.2249188
0.0326219
0.9873613
0.8831596
0.8250232
0.7046319
0.5954973
0.4221125
0.2224042
0.05062352
0.9942341
0.8955621
0.85471
0.7499932
0.6558977
0.4949055
0.2625802
0.07332627
1.007845
0.9314169
0.9080295
0.8296357
0.760528
0.6290437
0.3820871
0.08941897
1.030965
0.9743302
0.9816855
0.943098
0.931955
0.912286
0.6900333
0.1918116
1.282763
2.259889
1.340629
1.053703
1.041132
1.014264
1.027458
1.032402
1.040354
1.048795
1.058004
1.069237
0.9158227
0.9599744
1.010738
1.024116
1.033178
1.04515
1.049987
1.059346
1.067231
1.077306
0.9699616
1.020278
1.040673
1.036079
1.033326
1.046167
1.047968
1.056557
1.062641
1.070374
0.9587131
1.007986
1.01655
1.035433
1.026754
1.045178
1.045069
1.054891
1.058592
1.0634
0.953596
1.007273
1.019299
1.038548
1.026323
1.047021
1.045433
1.054852
1.056257
1.057445
0.952874
1.006563
1.020815
1.042433
1.026008
1.04794
1.046743
1.055649
1.057499
1.055324
0.952791
1.012076
1.020763
1.042762
1.025428
1.046246
1.047874
1.059702
1.062774
1.063083
0.950285
1.0046
1.021963
1.041821
1.02673
1.048059
1.05175
1.068093
1.076223
1.076919
0.9518598
1.011718
1.022685
1.037247
1.024037
1.045981
1.058073
1.080591
1.099087
1.105648
0.9505462
1.007323
1.016251
1.030236
1.017425
1.041044
1.060042
1.098414
1.132086
1.147639
0.9500455
1.006589
1.005745
1.019745
1.004317
1.033719
1.061993
1.117835
1.180624
1.209541
0.9523148
0.9937662
0.9941486
1.000892
0.9798605
1.017901
1.045041
1.137777
1.244053
1.279406
0.9577738
0.9930008
0.9751619
0.9742065
0.9408043
0.9785519
1.016162
1.133788
1.373348
1.413154
0.9623574
0.9778494
0.9515944
0.9333308
0.8843513
0.8969682
0.9084986
0.9796
1.354343
1.523413
0.9548452
0.9495211
0.9274399
0.8859136
0.7938896
0.7458535
0.6673521
0.6906272
0.5611145
0.9508211
0.9653259
0.8997144
0.8462082
0.727144
0.6478406
0.5037785
0.3919383
0.07108604
0.9425547
0.9509093
0.888743
0.820198
0.6978185
0.5939375
0.4290465
0.277462
0.04384072
0.937157
0.9482033
0.8855164
0.8145817
0.6848569
0.577075
0.3928517
0.2184495
0.0272045
0.9354766
0.9556155
0.902422
0.8270182
0.7073102
0.5950834
0.4177353
0.2228945
0.03072553
0.9399111
0.9638013
0.9235251
0.8631517
0.7547242
0.6561786
0.4888336
0.2669739
0.03378462
0.940542
0.9718007
0.9526998
0.9131828
0.8363527
0.7617762
0.6342727
0.3933999
0.08446956
0.9407328
0.9946556
0.9903374
0.9881511
0.9488638
0.9441198
0.9128557
0.7103034
0.1246905
0.9414196
1.354044
2.211938
2.059756
1.070457
1.056593
1.025474
1.030784
1.041062
1.047381
1.057337
1.066238
1.077829
0.9622319
0.994016
1.014965
1.032782
1.030933
1.046442
1.047674
1.056587
1.065197
1.075612
0.9180937
1.029527
0.9791928
1.029747
1.014727
1.034278
1.040926
1.051914
1.060215
1.068921
0.9486641
1.030395
0.9648017
1.035536
1.012034
1.037908
1.039428
1.052325
1.056632
1.062397
0.9954492
1.057771
0.9564408
1.034236
1.007636
1.029335
1.034979
1.048551
1.052933
1.055725
1.018178
1.061343
0.9576676
1.039792
1.01163
1.0379
1.038665
1.052975
1.05512
1.054304
1.019253
1.072733
0.9511823
1.040578
1.017093
1.044973
1.044418
1.057301
1.061017
1.062267
1.04878
1.07096
0.9501209
1.033092
1.011599
1.048212
1.04933
1.069277
1.076143
1.07697
1.045893
1.079616
0.9520047
1.035997
1.010102
1.054038
1.056456
1.081042
1.098851
1.105221
1.054441
1.070422
0.9469017
1.030691
1.00257
1.052688
1.060186
1.1003
1.132173
1.14922
1.025851
1.062058
0.9306601
1.01982
0.9877873
1.038062
1.055374
1.116306
1.177902
1.208581
1.04104
1.05008
0.9214831
1.002698
0.9662467
1.008202
1.037303
1.137611
1.236191
1.280261
1.013378
1.040364
0.8937286
0.9757373
0.9266596
0.9748036
1.004163
1.134746
1.375437
1.405993
1.039812
1.046967
0.8832774
0.9379129
0.868204
0.8880256
0.9084601
0.9787126
1.348037
1.517487
1.032339
1.027779
0.8626484
0.884997
0.818845
0.7543021
0.6763232
0.7129752
0.5703993
0.9945329
0.9988842
0.8104176
0.8416444
0.7430876
0.6469426
0.4807624
0.3009621
0.09617228
0.9791316
0.9841482
0.8193177
0.820636
0.6848535
0.5860921
0.4245671
0.1851526
0.04352825
0.8923916
0.9850388
0.8034107
0.8114391
0.6589045
0.5707124
0.3752024
0.1540056
0.9197588
0.9964341
0.8367801
0.832426
0.6802331
0.5927617
0.3878383
0.1975016
0.9055943
1.005871
0.8529128
0.8698183
0.7260913
0.6572745
0.4324624
0.2559059
0.02989234
0.9293155
1.005325
0.8813771
0.9114865
0.8169423
0.7540289
0.6197295
0.3767055
0.158193
0.9299456
1.02678
0.923163
0.9819898
0.9314429
0.9384415
0.9140821
0.7361445
0.08531633
1.371232
2.229905
2.067365
1.080397
1.049755
1.022393
1.03058
1.038607
1.047102
1.057084
1.066382
1.078107
0.9802256
1.044681
1.027339
1.039281
1.032644
1.046845
1.048062
1.056291
1.065233
1.075858
0.8927916
1.030821
0.9658581
1.026932
1.011502
1.035454
1.039819
1.051854
1.060226
1.069171
0.6681788
1.002421
0.9242067
1.033786
1.012875
1.037571
1.039758
1.053139
1.057126
1.06287
0.7653379
1.037034
0.9256673
1.035005
1.010795
1.038489
1.038261
1.051238
1.053485
1.056237
0.8406452
1.042763
0.9238128
1.033644
1.01232
1.049038
1.043703
1.055385
1.057435
1.055099
0.7602737
1.032445
0.8967678
1.014111
0.9966451
1.039958
1.042282
1.05819
1.061491
1.06298
0.8468662
1.02806
0.9145943
1.022403
0.9958313
1.038772
1.042812
1.065363
1.074024
1.076176
0.7991647
1.033768
0.8991994
1.003269
0.987815
1.024447
1.044362
1.075197
1.095681
1.103831
0.8553778
1.02158
0.9012714
1.001978
0.9832327
1.024197
1.046973
1.094125
1.128648
1.148065
0.7697788
1.024055
0.8755516
0.9868314
0.9659382
1.013277
1.04789
1.112078
1.174169
1.206248
0.9054929
1.048832
0.8790819
0.9833433
0.9462713
1.002916
1.031208
1.133433
1.231023
1.278494
0.6850341
1.036166
0.8488554
0.9608493
0.9176788
0.972759
1.004284
1.132447
1.374011
1.403174
0.7781896
1.025726
0.8261653
0.9240331
0.8508966
0.8846914
0.9064841
0.9822071
1.344093
1.510663
0.8450197
1.00811
0.8339784
0.8835698
0.8201472
0.7599017
0.6765912
0.7133653
0.558962
0.706845
0.9983257
0.8056252
0.849914
0.7709688
0.6593455
0.4890578
0.2966438
0.09051249
0.8586067
0.9778101
0.8181301
0.8336046
0.6925068
0.5900703
0.422057
0.1736904
0.03478848
0.8703447
0.9918444
0.8149233
0.8240626
0.6624837
0.5735795
0.3700614
0.1474124
0.9174604
0.9811866
0.8311431
0.8326421
0.6803103
0.5934779
0.3785755
0.1991547
0.8915478
0.9988999
0.8470519
0.8673932
0.7264822
0.6566821
0.4272888
0.2470839
0.05386437
0.9251321
0.9993959
0.8869638
0.9131454
0.8203555
0.7562268
0.6193292
0.3755195
0.1608917
0.8773959
1.024841
0.9249958
0.9861842
0.9364848
0.9438015
0.9184875
0.7344399
0.08569009
1.371066
2.23151
2.08023
1.099336
1.054594
1.024769
1.029674
1.036742
1.045889
1.056632
1.065912
1.077747
0.9745953
1.012022
1.012976
1.035313
1.028605
1.048307
1.046469
1.054923
1.064273
1.075349
0.9780117
1.060548
0.9695851
1.030977
1.009499
1.029037
1.03748
1.050072
1.059128
1.068351
0.7756333
1.017456
0.9206007
1.034036
1.013475
1.043583
1.040103
1.053862
1.056277
1.062254
0.6628556
1.021116
0.9116148
1.015724
1.004987
1.034983
1.036315
1.047731
1.05206
1.055495
0.7996068
1.058095
0.9417034
1.028334
1.006629
1.039387
1.038042
1.052657
1.054457
1.053848
0.8259623
1.076318
0.955208
1.038478
1.006888
1.039459
1.039691
1.055008
1.059345
1.060954
0.6148685
1.06054
0.9650473
1.061991
1.020004
1.052065
1.050143
1.069152
1.075311
1.076347
0.7585986
1.077373
0.9843726
1.072935
1.027128
1.054518
1.055737
1.078881
1.09673
1.103892
0.6005193
1.057902
0.9801278
1.067444
1.024371
1.052942
1.059011
1.098445
1.130124
1.148573
0.8243025
1.065891
0.9562918
1.039158
0.9989029
1.03017
1.054328
1.113949
1.174283
1.205958
0.8702107
1.068588
0.9274706
1.011173
0.9626603
1.011242
1.034755
1.136248
1.23096
1.276687
0.7581113
1.065416
0.9120984
0.9804929
0.9239371
0.9743521
1.006926
1.133116
1.375478
1.400511
0.7843967
1.040657
0.8850585
0.9607114
0.8654407
0.8944763
0.9070403
0.9845804
1.345228
1.509553
0.7130327
1.01223
0.8543845
0.9005217
0.8167473
0.7562091
0.6746254
0.7127224
0.5566911
0.7507586
1.015101
0.8061379
0.8443163
0.7481378
0.6483972
0.4870089
0.2992866
0.09225422
0.9142921
1.008627
0.8232242
0.8272651
0.6885711
0.585565
0.4220777
0.1752621
0.03606309
0.8137925
0.9903874
0.8017725
0.8199474
0.6626346
0.5710291
0.3674716
0.147957
0.9540937
0.9916144
0.8209346
0.8272039
0.6720328
0.5892496
0.3754242
0.1992209
0.9069045
1.02472
0.8535685
0.8661751
0.7170047
0.6527474
0.4232503
0.2399946
-0.03473763
0.9553786
1.042305
0.9163305
0.9325763
0.8233111
0.7571033
0.618275
0.3716534
0.1544125
0.9175209
1.05676
0.9399874
0.9917121
0.9340844
0.9431473
0.9177573
0.7358455
0.08697295
1.373646
2.234969
2.093888
1.093278
1.053084
1.024135
1.02891
1.037598
1.045766
1.056373
1.065616
1.077486
0.966631
0.9954181
1.000969
1.033248
1.025197
1.045563
1.046088
1.05492
1.063761
1.075122
0.9640971
1.063432
0.9741276
1.033568
1.010854
1.033865
1.038193
1.049306
1.058833
1.06793
0.6935271
1.013497
0.8908947
1.018356
1.00092
1.037587
1.038684
1.05336
1.056043
1.062206
0.8681488
1.072166
0.9281447
1.02049
1.00014
1.028097
1.032063
1.047442
1.051562
1.05524
0.7288846
1.072643
0.9648142
1.04563
1.010849
1.040362
1.037973
1.053228
1.056874
1.054697
0.5072417
1.051549
0.9879699
1.075597
1.030787
1.056799
1.05157
1.061586
1.064822
1.061592
0.8189941
1.069503
0.9812823
1.064708
1.023773
1.054048
1.05049
1.069878
1.074889
1.076383
0.5670156
1.055528
0.9747282
1.066988
1.024727
1.058514
1.058717
1.08195
1.09759
1.10455
0.8028743
1.086269
0.9923153
1.072156
1.026456
1.060532
1.060906
1.100741
1.130651
1.148583
0.7454408
1.082759
0.981379
1.062502
1.009821
1.044745
1.059032
1.116197
1.175337
1.205999
0.5590738
1.052763
0.9524114
1.041459
0.9861361
1.02723
1.040081
1.143143
1.234352
1.277573
0.8986542
1.050915
0.9298828
0.9988041
0.9285855
0.9708272
1.005248
1.133443
1.375606
1.400893
0.4498222
1.022377
0.939312
1.00863
0.9074786
0.9118255
0.9163439
0.9932221
1.345482
1.508884
0.7057543
1.019369
0.87661
0.916755
0.8444304
0.7665186
0.680648
0.7168523
0.5550685
0.951367
1.059992
0.8276686
0.849979
0.7355556
0.6493646
0.4947369
0.2992681
0.09323739
0.7831137
1.004568
0.787395
0.8113867
0.6824737
0.5822366
0.4189205
0.1753462
0.03312188
0.9328261
0.9939112
0.8102137
0.8173749
0.6604316
0.5695118
0.365806
0.147412
0.9084886
1.000686
0.8241467
0.8318076
0.6746245
0.5902784
0.3764055
0.1994956
0.9423208
0.999356
0.8505978
0.8598747
0.7147317
0.6508357
0.4222368
0.236364
-0.02557161
0.9574656
1.043139
0.9180259
0.9304536
0.8227843
0.7573549
0.6186321
0.3706129
0.1559477
0.9631467
1.045977
0.9469817
0.9905701
0.9344077
0.9424264
0.9177059
0.7361023
0.08808571
1.373587
2.23567
2.096087
1.095075
1.057233
1.031671
1.033357
1.044502
1.047874
1.058349
1.066767
1.078354
0.9901725
1.025806
1.021836
1.037449
1.03075
1.046923
1.047706
1.057124
1.065293
1.075838
0.9594296
1.054615
0.9711238
1.032683
1.012653
1.039893
1.042065
1.0544
1.060497
1.069456
0.774111
1.012435
0.9248826
1.029553
1.00684
1.029284
1.034283
1.048
1.054951
1.06118
0.5681734
1.027402
0.9431986
1.057372
1.025502
1.056952
1.048007
1.0567
1.056262
1.057257
0.8565764
1.039438
0.9278088
1.027083
1.000986
1.032284
1.034299
1.049771
1.052739
1.053228
0.8371887
1.045398
0.9321267
1.028555
1.004069
1.038984
1.039882
1.057347
1.059596
1.062777
0.7758917
1.032277
0.9012684
1.005409
0.9892816
1.025717
1.037733
1.062574
1.071557
1.074594
0.84327
1.025883
0.9218787
1.022599
0.9990175
1.040048
1.048397
1.077426
1.095595
1.103231
0.8833811
1.031511
0.9055433
0.9952348
0.9793252
1.020795
1.045355
1.092007
1.127031
1.146604
0.8588011
1.031815
0.9138016
0.9980322
0.970961
1.01229
1.047021
1.110283
1.171576
1.204512
0.8615215
1.021091
0.9061387
0.9925747
0.9501476
1.000718
1.028251
1.130267
1.22697
1.275094
0.6631068
1.010211
0.8734661
0.9552828
0.9082743
0.9665158
1.004864
1.13096
1.373096
1.400756
0.8712918
1.035513
0.8493533
0.9252036
0.8464001
0.887426
0.9033152
0.9838894
1.344045
1.505772
0.8495096
1.016117
0.8439443
0.8950367
0.8022569
0.7556966
0.6704861
0.7061393
0.5553601
0.557119
1.008531
0.8591721
0.9039376
0.7934806
0.6666766
0.4929519
0.2978573
0.08569834
0.8862162
1.002524
0.8293892
0.8357176
0.6714869
0.588403
0.4165743
0.173091
0.032798
0.8233219
0.9745068
0.7781423
0.8079262
0.6529475
0.5744872
0.3680593
0.1477105
0.941176
0.9931209
0.834615
0.8397996
0.684817
0.5961893
0.377492
0.1996855
0.9224085
1.003248
0.8512305
0.8653246
0.7225815
0.6565272
0.4263461
0.2498922
-0.02951024
0.9401119
1.006592
0.8891781
0.916198
0.8196448
0.7577466
0.6198974
0.3704186
0.1532601
0.8719959
1.025688
0.9283666
0.9872157
0.9365165
0.942692
0.9183659
0.7308701
0.0888334
1.370735
2.234678
2.084499
1.087134
1.050063
1.022083
1.021456
1.033764
1.039792
1.047694
1.0562
1.068144
0.9803114
0.9987901
1.008719
1.029679
1.024937
1.044939
1.046519
1.056973
1.06503
1.076355
0.9326306
1.037388
0.975711
1.028338
1.010594
1.034653
1.039289
1.049748
1.059023
1.068065
0.7124789
1.010065
0.9298299
1.034833
1.009565
1.035082
1.03838
1.05221
1.055828
1.061804
0.7673369
0.9934505
0.9117503
1.018495
0.9976719
1.022145
1.031336
1.046826
1.051398
1.054937
0.6981307
1.0098
0.9130081
1.014541
0.999075
1.035435
1.037266
1.051897
1.055045
1.053696
1.070124
1.112044
0.9561521
1.035105
1.009385
1.042784
1.04352
1.058938
1.063319
1.060963
1.054746
1.102356
0.9635206
1.04439
1.019897
1.057377
1.052238
1.069916
1.075254
1.075962
1.081918
1.098118
0.9582184
1.034587
1.007631
1.049049
1.055436
1.082617
1.098293
1.104693
1.091161
1.102939
0.9591384
1.032776
1.008324
1.055212
1.059275
1.099249
1.130464
1.147428
1.053935
1.079294
0.9323261
1.004678
0.9820053
1.041313
1.054136
1.114723
1.175442
1.206371
0.7069061
0.9831791
0.866406
0.9702637
0.9448522
0.9991641
1.031199
1.135211
1.232911
1.276871
0.865007
0.992472
0.8731652
0.9616697
0.9183722
0.9738323
1.001722
1.133062
1.373486
1.403076
0.9070852
1.046923
0.8703706
0.925374
0.8598739
0.8831254
0.9037832
0.9831489
1.34376
1.505137
1.067008
1.07979
0.8685476
0.8884462
0.831689
0.7583311
0.6779524
0.7168447
0.561132
0.8714584
0.9913457
0.8035223
0.8339439
0.7141024
0.6491836
0.4861955
0.3023059
0.090008
0.6280741
0.9733176
0.8164874
0.8423271
0.7137112
0.5926982
0.4277661
0.1872632
0.03819941
0.8646075
0.9361266
0.7952457
0.8092627
0.6485374
0.5686049
0.3698235
0.1534247
0.9305957
0.9778502
0.8176129
0.8273255
0.6779129
0.5943432
0.3888398
0.1976171
0.9575737
0.9905917
0.8414521
0.857391
0.7200188
0.6561679
0.4279433
0.2705191
-0.01652546
0.9426223
1.018293
0.8927895
0.9157149
0.8165711
0.7585235
0.6188015
0.3757581
0.1121143
0.9180084
1.031959
0.9289798
0.981913
0.931281
0.9346922
0.9150494
0.7214795
0.07646005
1.369407
2.238198
2.087041
1.075703
1.059587
1.095003
1.097652
1.120578
1.116598
1.133483
1.140162
1.14727
0.9654703
0.9753877
1.025248
1.029595
1.028877
1.048336
1.046595
1.058822
1.068474
1.078399
0.898115
1.0113
1.020759
1.040423
1.027291
1.047212
1.0458
1.056885
1.060872
1.069345
0.9290367
1.052733
0.9899274
1.046239
1.018917
1.041047
1.040301
1.049975
1.056308
1.061918
0.9158522
1.036534
0.976436
1.049085
1.023134
1.050505
1.047168
1.055644
1.056173
1.057332
0.9656575
1.066665
0.9874437
1.055337
1.026097
1.049677
1.045763
1.053924
1.055217
1.05396
0.8169417
1.046549
1.020356
1.053062
1.025914
1.046779
1.046555
1.059473
1.061764
1.062609
0.7498318
1.014997
1.020118
1.043442
1.022318
1.042661
1.049403
1.0665
1.074207
1.075072
0.7476142
1.011201
1.021652
1.046168
1.02528
1.051207
1.058536
1.081309
1.098046
1.104208
0.7655688
1.024383
1.024543
1.03711
1.01819
1.040417
1.058655
1.096328
1.129568
1.144965
0.9193732
1.029924
0.9995095
1.028481
1.005145
1.032667
1.05919
1.116325
1.177461
1.206454
0.939849
1.048383
0.9618615
1.022867
0.9811307
1.020882
1.043024
1.137771
1.241304
1.275548
0.864611
1.008077
0.9201732
0.9886399
0.9401577
0.9824526
1.015354
1.133343
1.371001
1.409468
0.9496267
1.058774
0.952335
0.9625375
0.8800115
0.9035257
0.9075157
0.97618
1.343088
1.508382
0.738274
1.013132
0.9151901
0.9022274
0.8060032
0.7577075
0.6664308
0.6893383
0.5804185
0.8529605
0.9788805
0.8333363
0.8636962
0.7840094
0.6671219
0.513348
0.3914524
0.07274715
0.8947294
0.9715022
0.8372076
0.8337595
0.6875361
0.5997231
0.4327477
0.2924584
0.05101499
0.8964432
0.9778965
0.8440852
0.827845
0.6789866
0.5833102
0.3908132
0.2313607
0.02199691
0.9036684
0.9849013
0.854205
0.8407171
0.6991622
0.5996069
0.4146404
0.2167985
0.01848239
0.7513504
0.9408356
0.8906553
0.8608374
0.7445765
0.6554361
0.4879423
0.2193393
-0.02188837
0.941658
0.9735371
0.9491777
0.9165738
0.8318727
0.766455
0.6294719
0.3891898
0.1207195
0.9627525
1.001176
0.9922077
0.9879054
0.947499
0.9391404
0.9127448
0.6885764
0.09775232
0.9509039
1.349357
2.214733
2.030864
1.059236
1.091601
1.088316
1.100824
1.151187
1.161265
1.105484
1.133537
1.178567
0.997251
1.031077
0.9962901
1.01784
1.012644
1.036122
1.035675
1.048198
1.054691
1.067326
1.006144
1.074713
1.02255
1.040129
1.024316
1.044626
1.045667
1.053245
1.060211
1.06838
0.9454043
1.103856
1.019988
1.040514
1.018154
1.03749
1.03917
1.050031
1.05471
1.060839
0.9372197
1.094569
1.020444
1.034925
1.014186
1.031229
1.03578
1.049246
1.052338
1.054538
0.9259131
1.113118
1.026912
1.0389
1.017703
1.034758
1.038634
1.050543
1.052681
1.051397
0.9152913
1.056166
1.017596
1.040167
1.023177
1.045877
1.0483
1.059095
1.060485
1.059427
0.9480202
1.083807
1.044399
1.051776
1.032462
1.04989
1.052248
1.06753
1.072892
1.07263
0.9365058
1.087833
1.042789
1.050165
1.027646
1.049992
1.058598
1.082539
1.097034
1.101487
0.9756955
1.081048
1.032327
1.037472
1.020206
1.044946
1.059476
1.097619
1.128234
1.141307
0.9719455
1.047978
1.004579
1.021164
1.000179
1.036263
1.05769
1.119817
1.178226
1.201382
0.9590611
1.110045
0.9994029
1.002633
0.9748561
1.008811
1.040399
1.145087
1.24023
1.267108
0.9626822
1.077868
0.9753282
0.9759044
0.9286168
0.9740238
1.006113
1.135975
1.356445
1.3897
0.9592688
1.082652
0.9801286
0.9603631
0.8861237
0.888604
0.9081662
1.004912
1.362825
1.505624
0.9428755
1.045828
0.9285856
0.8978478
0.8215602
0.7555523
0.664359
0.7424032
0.5443619
0.94568
1.069044
0.9031597
0.8534181
0.7522607
0.65379
0.5058829
0.4144267
0.1102445
0.9475797
1.055843
0.8734918
0.8218059
0.6957638
0.5931943
0.4343477
0.3111688
0.04579806
0.9495363
1.019646
0.8626085
0.8115316
0.6722071
0.5726019
0.3978397
0.2513789
0.01456937
0.9447075
1.018571
0.8680743
0.8223732
0.6929833
0.5945345
0.4181449
0.2498057
0.02443274
0.9434187
0.9750163
0.8913494
0.8494793
0.7436742
0.654247
0.4927203
0.295943
0.05630708
0.9460764
1.004191
0.9412191
0.9134863
0.8301072
0.7633924
0.627506
0.4370969
0.08605489
0.9994697
1.02797
0.978091
0.9797708
0.9420901
0.9309166
0.9102457
0.7533521
0.1867609
1.002871
1.390418
2.198811
1.955375
0.9470423
1.061481
1.009628
0.9990463
0.9794716
1.06676
1.06305
1.064995
1.068506
1.047189
1.014805
1.003721
1.078962
1.055051
1.06338
1.038361
1.0543
1.015819
1.022437
1.09822
1.073543
1.079686
1.069666
1.082751
1.030439
1.028998
1.108051
1.094102
1.097293
1.100705
1.10203
1.03419
1.041223
1.118473
1.107102
1.106958
1.112999
1.112831
1.045809
1.044855
1.125092
1.114914
1.11437
1.121435
1.12028
1.048764
1.052641
1.133065
1.122258
1.121916
1.128743
1.128068
1.056976
1.059597
1.141526
1.129773
1.130024
1.136351
1.136205
1.064235
1.069248
1.138331
1.14471
1.075068
1.03817
1.058543
0.9965384
0.9865136
1.002963
1.003475
1.062593
1.060787
0.9909353
1.016132
1.001117
1.013122
1.072066
1.077411
0.9846798
1.045408
1.003009
1.0338
1.080046
1.086573
0.9822883
1.062796
1.005264
1.047507
1.094567
1.086649
0.9810354
1.073849
1.007151
1.055552
1.096316
1.0863
0.9803896
1.079556
1.009611
1.060951
1.097022
1.088789
0.9796084
1.085579
1.010259
1.066183
1.098688
1.089266
0.9788909
1.084872
1.009968
1.070559
1.098989
1.083409
0.9786515
1.082414
1.008423
1.070837
1.091512
1.091769
0.978738
1.084487
1.010618
1.066532
1.090317
1.091541
0.9789145
1.077711
1.011021
1.061352
1.08977
1.082782
0.9801023
1.072874
1.008009
1.06289
1.088322
1.086061
0.9817357
1.067367
1.010131
1.057012
1.717982
1.365016
0.5748769
1.365916
1.737242
1.4141
0.448446
1.093302
1.072118
0.9802637
1.05663
0.9866466
1.048484
0.124205
0.5432353
0.1077412
1.071944
1.070027
1.005921
1.04883
0.9836519
1.04463
0.06483486
0.1122164
0.04071369
1.078133
1.064436
1.008995
1.026897
0.985226
1.012711
0.06371302
0.05613547
0.04763553
1.064143
1.042767
1.007259
1.016112
0.9920359
1.003663
0.07237655
0.02200841
0.06769948
1.054443
1.027822
1.00551
1.021234
0.9944388
1.00018
0.07891263
0.02564109
0.08284301
1.058847
1.024287
1.003453
1.028452
0.9949313
1.003188
0.08755909
0.05102778
0.0944711
1.058509
1.025381
1.003008
1.033429
0.9946774
1.004726
0.1908473
0.08473069
0.1716808
1.06938
1.030928
1.002606
1.0398
0.9944129
1.008936
1.619326
-0.8302711
0.1954142
1.869623
0.3152377
-0.3900295
0.7822496
1.073686
1.002475
1.045378
1.016225
1.011362
0.9996411
1.035128
0.9925596
1.030562
1.744089
1.435025
0.4616751
1.343334
1.731912
1.445588
0.4642414
0.04342882
0.5804374
0.0153652
1.906641
0.6559812
0.09506109
1.953817
0.6778813
1.038737
1.011525
1.027547
1.042695
0.9875374
1.045309
1.736846
1.4408
0.4586265
1.345073
1.731781
1.435197
0.4582928
0.04097339
0.562528
0.04344359
1.957878
0.6535633
0.08808989
1.966669
0.6619933
1.046658
1.008291
1.053856
1.050819
0.9908927
1.057579
1.733757
1.432476
0.4590924
1.343813
1.732418
1.432111
0.457912
0.0442268
0.5568999
0.04384197
1.966708
0.7438308
0.08703994
1.972002
0.6788375
1.059658
1.009796
1.069873
1.058847
1.022388
1.073277
1.73462
1.432347
0.4600951
1.345656
1.734875
1.43122
0.4601267
0.04564924
0.5552403
0.04294366
1.972184
0.7572372
0.0883097
1.974553
0.7147656
1.062669
1.000218
1.074685
1.063314
1.022321
1.07313
1.734143
1.43038
0.4598599
1.345259
1.734049
1.429575
0.460665
0.0476689
0.5546884
0.04802213
1.974853
0.7597278
0.08814694
1.972452
0.7594666
1.070952
0.9859655
1.062813
1.066269
1.008684
1.063753
1.731624
1.429533
0.4578757
1.343944
1.732736
1.430413
0.4586075
0.04355313
0.557249
0.04389116
1.971898
0.6875214
0.07530915
1.962809
0.7488332
1.06071
0.9855075
1.058428
1.049751
1.010979
1.044502
0.04397134
0.5695644
0.04130612
1.966648
0.6759283
0.08255782
1.915902
0.6530234
1.045301
0.9899671
1.042273
1.008438
1.011768
1.026937
0.01560455
0.560153
0.04229027
1.922937
0.6144116
0.1066588
1.896751
0.5711455
1.01325
0.9978354
0.9944895
1.073126
1.061447
1.018076
1.009779
1.077589
1.054093
1.076001
1.014889
1.031768
1.04138
1.04828
1.069621
1.037149
1.032554
1.07941
1.057174
1.053826
1.123007
1.035242
1.042215
1.052934
1.050369
1.133094
1.045046
1.041373
1.061326
1.061459
1.1086
1.051064
1.05027
1.044326
1.064022
1.069443
1.089299
1.059143
1.074436
1.082705
1.079413
1.074874
1.088525
0.9930858
0.9743088
1.044999
1.05324
1.059381
1.01953
1.008394
1.153424
1.079209
1.062755
1.079838
0.9399453
1.138042
1.148983
0.9857473
1.061263
1.146122
0.9466213
1.15153
0.9288157
1.075333
0.9801423
1.088434
1.164925
0.9591749
1.17364
0.9234685
1.093631
0.9918568
1.127772
1.122293
0.9703344
1.134637
0.9796249
1.112967
0.9525556
1.053097
1.099737
1.009163
1.073374
1.139057
1.102034
1.079756
1.004422
1.059884
1.078474
1.111361
1.110404
0.9491784
1.071747
1.105174
1.111263
1.153219
0.9138405
1.114032
0.9566192
1.04729
0.9787758
1.112056
1.186349
0.9236763
1.168854
0.9262574
1.107124
0.9908594
1.111447
1.144395
0.9510519
1.123854
0.9800058
1.099405
0.9527595
1.069486
1.154978
1.008391
1.088096
1.108163
1.117968
1.733147
1.414592
0.4484972
1.3742
1.719396
1.361472
0.2839727
1.16452
1.51951
0.9175864
1.102216
0.9419468
1.137325
1.114421
1.08552
0.1069079
0.4114273
0.05575934
1.091738
0.9552489
1.105527
1.141977
1.119527
0.03833851
0.05766814
0.02624328
1.129038
0.9515188
1.126407
0.9559691
1.097541
0.9969259
1.090382
0.04385102
0.04265984
0.03427303
1.104638
0.9322795
1.085633
0.9945139
1.118254
0.9932712
1.072221
0.06518363
0.01531028
0.06782078
1.094422
0.9431212
1.081441
0.9902143
1.114582
0.9912048
1.050756
0.08314199
0.04246841
0.07073126
1.084038
0.9572377
1.061883
0.9879341
1.077373
0.9906954
1.057795
0.09570137
0.06596026
0.07819273
1.046207
1.013964
1.020986
0.9965308
1.094597
1.044771
0.1607571
0.06450766
0.1406346
1.069189
1.003069
1.021403
1.069159
1.016341
1.848956
0.3293589
0.1411955
1.514204
-0.9149349
0.6118644
-0.4624679
1.057699
1.067341
0.997224
1.001023
1.014559
1.054041
1.029028
1.031804
1.015237
1.053904
1.006355
1.023872
1.015465
1.053546
1.003921
1.023127
1.013699
1.051614
1.002888
1.027877
1.0139
1.048785
1.00518
1.030733
1.010702
1.046405
1.006362
1.02793
1.002597
1.042885
1.020318
1.041208
1.002011
1.034594
1.029695
1.039249
1.016557
1.034922
1.022897
1.028665
1.010555
1.035501
1.020233
1.023529
1.00535
1.03247
1.027522
1.032981
1.007902
1.040935
1.012657
1.016623
1.01518
1.056463
1.005089
1.011277
1.095542
0.8904994
1.092882
1.006314
1.085018
0.9607096
1.040483
0.8317693
1.510909
1.160797
1.023979
1.057094
1.008123
1.032041
0.5718337
0.4647484
0.2212281
0.7436132
0.5856343
0.5000696
0.2938646
0.226951
0.4627284
0.1917007
1.005554
1.018529
1.019542
1.040835
0.1854594
0.318707
0.1147644
0.4143671
0.2056512
0.3378982
0.1637972
0.0842322
0.08128242
0.05961734
1.027449
1.037256
1.024202
1.02906
0.1139312
0.2844445
0.1114544
0.3034511
0.1279747
0.2871065
0.131215
0.0514498
0.0483912
0.04254073
1.017144
1.045079
1.025427
1.023047
0.07554606
0.2834865
0.1088569
0.2483609
0.1023285
0.280393
0.1153381
0.05872984
0.03048897
0.03476611
1.02299
1.049642
1.014487
1.017167
0.07716219
0.3133911
0.1181784
0.2494689
0.1038544
0.3071404
0.1238801
0.06379228
0.0284878
0.03315992
1.020986
1.051406
1.013169
1.013393
0.1020643
0.3853648
0.1481589
0.2948968
0.1296048
0.3786423
0.1627193
0.06619249
0.04287373
0.04183781
1.019412
1.051631
1.012443
1.013756
0.1595129
0.5836458
0.283008
0.4375681
0.2071422
0.5760735
0.2879561
0.1132256
0.06950744
0.07839767
1.018067
1.051888
1.01237
1.014731
0.3741745
1.038411
1.23588
0.7605219
0.5292852
1.08604
1.307045
0.4117857
0.1467855
0.1921632
1.017183
1.052225
1.01231
1.01553
1.512794
2.188852
1.935065
2.051225
1.022239
1.038608
1.075982
0.930514
1.052429
0.9670701
1.067907
0.9306327
1.047147
0.5961086
0.4484215
0.3104684
0.6882944
0.6106513
0.4396572
0.3199054
0.2117554
0.5776333
0.1879142
0.5770741
1.043407
1.343551
0.704466
0.5802319
1.054401
1.368303
0.7372152
0.7712395
1.924843
2.229384
1.952351
1.018368
1.041477
1.077632
0.9442768
1.056988
0.9853284
1.074142
0.9451438
1.052969
0.6058875
0.4462793
0.3410369
0.7149371
0.5931322
0.4460434
0.3393345
0.1854152
0.5725205
0.1888234
0.05792126
0.1467891
0.05983079
0.5958058
1.073416
1.379782
0.7306347
0.593647
1.07331
1.37819
0.8252699
0.8492097
1.945557
2.233633
1.952049
1.030765
1.041692
1.072332
0.9444848
1.051201
0.9796316
1.072215
0.9455473
1.052184
0.5852664
0.4414876
0.333921
0.7126788
0.5814552
0.4406507
0.3344919
0.190622
0.5582512
0.190646
0.5970723
1.072683
1.379672
0.7329505
0.5974866
1.073219
1.381127
0.7906105
0.8568553
1.931167
2.234357
1.944731
1.027904
1.039298
1.074485
0.9464524
1.053515
0.9867923
1.073964
0.9470374
1.052599
0.5815029
0.4406491
0.3352096
0.712803
0.5788947
0.4410434
0.3350204
0.1925342
0.5560009
0.1923782
0.06101294
0.1640569
0.06466777
0.5990389
1.074833
1.382715
0.7372192
0.5989519
1.075198
1.382927
0.8125111
0.8574979
1.933731
2.235208
1.93912
1.032639
1.044043
0.5790598
0.4442453
0.3352378
0.715472
0.5793635
0.4432157
0.3353534
0.1935995
0.5538141
0.1940248
0.5989622
1.075437
1.383173
0.7368704
0.5989079
1.075178
1.382929
0.8244813
0.8148308
1.932233
2.234758
1.931586
1.040517
1.031234
0.5794752
0.4381393
0.3338808
0.7069434
0.5837794
0.4387459
0.3331895
0.1917758
0.5557595
0.191376
0.06170535
0.1517087
0.04328817
0.5972059
1.072751
1.380694
0.7304526
0.5953455
1.069951
1.376208
0.8604724
0.7938309
1.942043
2.231736
1.928772
1.045604
1.0213
1.729683
1.433973
0.4570862
1.34684
1.734491
1.438333
0.4578925
0.5916265
0.4472036
0.3390004
0.7136487
0.6051985
0.4470389
0.3403952
0.1921484
0.5635625
0.1929253
0.5975764
1.074311
1.37842
0.7239947
0.5998312
1.063542
1.36856
0.8542211
0.7619872
1.948669
2.217153
1.980948
1.044491
1.026786
1.729544
1.444835
0.4637251
1.353204
1.741576
1.43269
0.4634284
0.6114621
0.4413129
0.3197311
0.6905385
0.5950471
0.4494038
0.3088036
0.184339
0.5740818
0.1820875
0.5993882
1.049979
1.365241
0.6998742
0.5880626
1.04186
1.350682
0.8100996
0.6521078
1.983592