/*--------------------------------*- C++ -*----------------------------------*\
  =========                 |
  \\      /  F ield         | OpenFOAM: The Open Source CFD Toolbox
   \\    /   O peration     | Website:  https://openfoam.org
    \\  /    A nd           | Version:  7
     \\/     M anipulation  |
\*---------------------------------------------------------------------------*/
FoamFile
{
    version     2.0;
    format      ascii;
    class       volScalarField;
    location    "0.1";
    object      Uy;
}
// * * * * * * * * * * * * * * * * * * * * * * * * * * * * * * * * * * * * * //

dimensions      [0 1 -1 0 0 0 0];

internalField   nonuniform List<scalar> 
105127
(
0.4567653
0.4688467
0.4745799
0.4737289
0.4738352
0.271641
0.3390791
0.3597184
0.3729998
0.3831331
0.2328135
0.3190588
0.3628647
0.388707
0.4089182
0.1535189
0.2253638
0.2731462
0.3101204
0.3360256
0.1268032
0.1936179
0.2432021
0.2809232
0.3104411
0.09689494
0.1536585
0.1973994
0.2342162
0.2647827
0.08227109
0.1331842
0.1745308
0.2102525
0.2400442
0.06850043
0.1127536
0.1496906
0.1826419
0.2113363
0.05972594
0.09925698
0.1330273
0.1640025
0.1916074
0.05204498
0.0871838
0.1180397
0.1465513
0.1724536
0.04624932
0.07792662
0.1063003
0.1327004
0.1570203
0.0413596
0.07006
0.09607415
0.120476
0.1432621
0.03735303
0.06355048
0.08745188
0.1101105
0.1314435
0.03393095
0.0579298
0.07997309
0.1010335
0.1209645
0.03101376
0.05307972
0.0735826
0.09300798
0.1116817
0.02846907
0.04885581
0.06794676
0.08584078
0.1033918
0.02624236
0.0451437
0.06274804
0.07946184
0.09596468
0.02426242
0.04179473
0.05820854
0.07382694
0.0893201
0.02247472
0.03870974
0.05415976
0.06873083
0.08330083
0.0208639
0.0359481
0.05036241
0.06417244
0.07780416
0.01940095
0.03345614
0.04683828
0.06001162
0.0727451
0.01806931
0.03119237
0.04363325
0.05612866
0.06805409
0.01684283
0.02911198
0.04072867
0.0525267
0.06369982
0.01385458
0.0261859
0.03709386
0.04927385
0.05961136
0.4751402
0.4888217
0.4832867
0.4801076
0.4803565
0.1735271
0.2647323
0.3311148
0.3521244
0.3729835
0.384337
0.1058408
0.2624565
0.3207783
0.3619049
0.3885841
0.4102174
0.06068134
0.1605596
0.2198544
0.2598114
0.2921371
0.3175657
0.04668877
0.1459996
0.2024921
0.2483003
0.2830053
0.3112133
0.0341079
0.1062923
0.1559321
0.1963358
0.2300447
0.2582864
0.02788248
0.0939264
0.1393534
0.1791585
0.212386
0.2409065
0.02241449
0.07668684
0.1166226
0.1520172
0.1829542
0.2102169
0.01901517
0.06779909
0.1039481
0.13695
0.1662223
0.1924755
0.01615885
0.0587543
0.09113998
0.1210036
0.1481717
0.1729122
0.01405678
0.05247614
0.08190473
0.1094018
0.1347439
0.158134
0.01232337
0.04687535
0.07361512
0.09881441
0.1223515
0.1443093
0.01093666
0.04239066
0.06685883
0.09009791
0.1120102
0.1326347
0.009776127
0.03850243
0.06095134
0.08240386
0.1028255
0.122153
0.008801192
0.03518847
0.05587598
0.07573132
0.0948111
0.1129165
0.007966851
0.03229324
0.05142358
0.06984708
0.08767249
0.1046396
0.007247875
0.02975392
0.04749671
0.06468631
0.08128619
0.09720694
0.006619466
0.02748582
0.04396894
0.05997006
0.0755157
0.09046492
0.006064055
0.02545085
0.04079149
0.05567264
0.07027805
0.08432576
0.005569924
0.02362313
0.03792621
0.05185401
0.06549976
0.07871945
0.005129219
0.02196321
0.03531237
0.04836013
0.06112857
0.07356546
0.004734213
0.02044702
0.03291501
0.04514364
0.05709107
0.06880687
0.00437714
0.01905734
0.03071024
0.04217802
0.05337794
0.06440001
0.003559528
0.01776767
0.02865458
0.03942166
0.04977248
0.06033062
0.4817955
0.4391816
0.44735
0.4810199
0.4823595
0.1795078
0.2704364
0.3283991
0.352792
0.3744918
0.3867435
0.1086306
0.2582804
0.3261846
0.3710279
0.3991626
0.4181248
0.06076084
0.1579844
0.2166699
0.2592158
0.2929882
0.3196838
0.04648132
0.1446136
0.2020837
0.2483078
0.2847586
0.3122582
0.03260059
0.1053188
0.1550338
0.1956154
0.2300477
0.2585251
0.02744786
0.0931517
0.1394028
0.1788708
0.2126023
0.240939
0.0215444
0.07590788
0.116351
0.1513469
0.1826303
0.2099476
0.01847211
0.06724246
0.1040175
0.1366882
0.1661968
0.1924173
0.01554959
0.0581863
0.09103795
0.1206395
0.1479272
0.1726988
0.01355423
0.05203636
0.08190595
0.1092278
0.1346538
0.1580377
0.01183983
0.04646065
0.0735742
0.09862695
0.1222095
0.144163
0.01049457
0.04203502
0.0668501
0.08998164
0.1119179
0.1325197
0.009358146
0.03817556
0.06094515
0.08231583
0.1027154
0.1220297
0.008401428
0.0348931
0.05588197
0.07569138
0.09468555
0.1128033
0.007590692
0.03202042
0.05142488
0.06981586
0.08751901
0.1045205
0.006896936
0.02950061
0.0474951
0.06460343
0.08112991
0.09709194
0.00629446
0.02725935
0.04397957
0.05993694
0.07538623
0.09037182
0.005763293
0.02524831
0.04080935
0.05571938
0.07019036
0.08425848
0.005292931
0.02343216
0.03793836
0.0518731
0.06545192
0.07866214
0.004872605
0.02178246
0.03532263
0.04835772
0.06110661
0.073514
0.004495044
0.02027698
0.03292859
0.04513184
0.05709989
0.06875274
0.004153913
0.01889615
0.03072715
0.04215946
0.05339502
0.06432859
0.003546074
0.01762229
0.02869232
0.03940745
0.04996963
0.06018966
0.4838646
0.4413984
0.4445237
0.447849
0.4492566
0.1759457
0.2635378
0.3254299
0.3483002
0.3716896
0.3841219
0.1154979
0.2594393
0.3156808
0.3635776
0.3932306
0.4123558
0.06159819
0.1546723
0.2112381
0.2545234
0.2894347
0.3154431
0.0487118
0.1435138
0.20117
0.2499991
0.2851457
0.3133658
0.03246696
0.1039046
0.152924
0.193096
0.2271214
0.2555027
0.02769309
0.09377338
0.139788
0.179921
0.2132935
0.2418046
0.02152815
0.07582816
0.1157862
0.1507563
0.1817435
0.2090014
0.01855335
0.06773729
0.1042697
0.1371829
0.1665439
0.1927693
0.01558149
0.05841458
0.09099254
0.1206267
0.1477901
0.1725112
0.01360413
0.05236292
0.08206141
0.1094498
0.1348129
0.1581759
0.01187109
0.04670175
0.0736492
0.09872563
0.1222528
0.1441809
0.01052144
0.04226981
0.06695248
0.09011083
0.1120125
0.1326074
0.009378231
0.03837575
0.06102218
0.08241123
0.1027893
0.1221
0.008426247
0.03507512
0.05595183
0.07577921
0.0947745
0.1128879
0.007612483
0.0321818
0.05147979
0.06989283
0.08761489
0.1046064
0.006912819
0.02964316
0.04753514
0.06467474
0.08122943
0.09717519
0.006303254
0.02738349
0.04400839
0.05998193
0.07547166
0.09044165
0.005767331
0.02536021
0.04083661
0.05574479
0.07025535
0.08431536
0.005292985
0.02353723
0.0379675
0.05190366
0.06549825
0.07871025
0.00486982
0.02188266
0.03535372
0.04839434
0.06113964
0.07355782
0.004489892
0.02037153
0.03295903
0.04516948
0.05712123
0.06879614
0.004146747
0.01898426
0.03075371
0.04219299
0.05340497
0.06437933
0.00354228
0.01770067
0.02870968
0.03942798
0.04993783
0.06026385
0.4653725
0.4394174
0.4447052
0.4495955
0.4558248
0.1745162
0.2694397
0.3270619
0.350079
0.3724674
0.3848283
0.1140018
0.2571662
0.3098566
0.349228
0.3818478
0.4052409
0.06137299
0.1537099
0.2090443
0.251059
0.2846497
0.3108537
0.04851807
0.1405384
0.2007843
0.2470869
0.2829492
0.3117226
0.03201142
0.1032053
0.1523008
0.1921826
0.2261232
0.2544684
0.02744722
0.09308913
0.1396369
0.1792817
0.2128649
0.241352
0.02140483
0.0754993
0.1155596
0.1503809
0.1814088
0.2086294
0.0184908
0.06750974
0.1042288
0.1370179
0.1664485
0.1926398
0.01552628
0.05823999
0.09091263
0.1204733
0.1476636
0.1723646
0.01356906
0.05224246
0.08204146
0.1093835
0.134777
0.1581218
0.01184079
0.04659468
0.07362151
0.09865868
0.1222058
0.1441185
0.0104997
0.04218457
0.06694364
0.09007165
0.1119926
0.132573
0.009359427
0.03829902
0.06101465
0.08237538
0.1027689
0.1220664
0.008410204
0.03500783
0.05594971
0.07575184
0.09476036
0.1128628
0.007597392
0.03211993
0.05147824
0.06986731
0.08760105
0.1045826
0.006898085
0.02958649
0.04753403
0.06464969
0.08121571
0.09715294
0.006288853
0.02733339
0.04401
0.05996649
0.07546011
0.0904228
0.005753736
0.02531599
0.0408415
0.05573991
0.07024763
0.08429889
0.005279992
0.02349615
0.0379732
0.05189912
0.065496
0.07869492
0.004857363
0.02184433
0.0353608
0.04838903
0.0611408
0.07353959
0.004478027
0.02033538
0.03296844
0.04516306
0.05713164
0.06877445
0.004135434
0.01895035
0.03076585
0.04218598
0.05341869
0.06434711
0.003542388
0.01766809
0.02872762
0.03941797
0.04997934
0.06021738
0.4620224
0.472522
0.4809342
0.4829603
0.4842674
0.1745649
0.2663963
0.3282994
0.3504679
0.3743497
0.3865877
0.1119963
0.2566358
0.3127665
0.3589685
0.3900741
0.4103302
0.06129589
0.1537241
0.2099833
0.2531483
0.2880522
0.3135426
0.04857358
0.1410602
0.2013651
0.2490205
0.2850981
0.3128173
0.03197489
0.1034172
0.1526092
0.1927148
0.2267538
0.2549637
0.02745943
0.0932558
0.1398244
0.1797136
0.2133535
0.2416994
0.02141634
0.07557691
0.1156647
0.150546
0.1815937
0.2087976
0.01849753
0.06756023
0.1042921
0.1371272
0.1665741
0.1927519
0.01553001
0.05826598
0.0909481
0.1205266
0.1477239
0.1724255
0.01357011
0.05225776
0.08206243
0.1094146
0.1348132
0.1581588
0.01184197
0.04660312
0.07363358
0.09867575
0.1222257
0.14414
0.01049996
0.04218912
0.06695024
0.09008093
0.1120036
0.1325851
0.009359273
0.03830156
0.06101849
0.08238065
0.1027754
0.1220736
0.008409907
0.0350091
0.05595176
0.07575481
0.09476408
0.1128669
0.007596916
0.03212051
0.05147935
0.069869
0.08760322
0.1045853
0.006897411
0.02958658
0.04753442
0.06465042
0.08121705
0.09715511
0.006288022
0.02733301
0.04400984
0.0599668
0.07546107
0.09042522
0.005752751
0.02531502
0.0408405
0.05573989
0.07024808
0.0843025
0.0052788
0.02349449
0.03797095
0.05189866
0.06549508
0.07870023
0.004855983
0.0218415
0.03535641
0.04838812
0.06113769
0.07354936
0.00447656
0.02033109
0.03296074
0.04516254
0.05712287
0.06879137
0.0041336
0.01894367
0.03075261
0.04218347
0.05340237
0.0643761
0.003542885
0.01766106
0.02870844
0.03941971
0.04994272
0.0602687
0.4840689
0.4690553
0.4699685
0.4715753
0.4732381
0.1773681
0.2643158
0.3301877
0.3525545
0.3758675
0.3881865
0.108764
0.258304
0.32032
0.3673086
0.3964862
0.4154421
0.06137092
0.1553265
0.2136011
0.2565549
0.2911844
0.3169006
0.04853099
0.1434805
0.201757
0.2498953
0.2847639
0.3129346
0.0324174
0.1041389
0.1533718
0.1933954
0.2274026
0.2556939
0.02754498
0.09368939
0.1397866
0.1797821
0.2130958
0.2415945
0.02151219
0.07587166
0.115866
0.150799
0.181773
0.2090163
0.01852608
0.06770874
0.1042482
0.1371295
0.1664764
0.1926915
0.01556804
0.05841979
0.09100308
0.1206272
0.147787
0.172501
0.01359257
0.05235577
0.08205411
0.1094349
0.1347943
0.1581528
0.0118652
0.04670175
0.07364991
0.09872356
0.1222491
0.144175
0.01051895
0.04226849
0.06695116
0.09010778
0.1120085
0.1326017
0.009377037
0.03837591
0.06102238
0.08241042
0.1027881
0.1220985
0.008425913
0.03507516
0.05595199
0.07577927
0.09477422
0.1128869
0.007611777
0.0321821
0.05148026
0.06989296
0.08761511
0.1046061
0.006911403
0.02964354
0.04753574
0.06467493
0.08122981
0.09717425
0.006301229
0.02738394
0.0440094
0.05998172
0.07547266
0.09043961
0.005764972
0.0253608
0.04083849
0.05574371
0.07025669
0.08431049
0.005290279
0.02353782
0.0379711
0.05190095
0.06550395
0.07870145
0.004866834
0.02188392
0.0353605
0.04838931
0.06114735
0.07353716
0.004486664
0.02037117
0.03297116
0.04515607
0.05714931
0.06875948
0.004142765
0.0189852
0.03077417
0.04217666
0.05344363
0.06430676
0.003541008
0.01769444
0.02874394
0.03938004
0.05004846
0.06013991
0.4776579
0.4680647
0.4674981
0.4585406
0.4581277
0.1796251
0.2726646
0.3338336
0.3580074
0.3792503
0.3911293
0.1059354
0.2611418
0.3261878
0.3695836
0.3973074
0.4168561
0.0622284
0.1606171
0.2200985
0.261844
0.2945141
0.3202253
0.04794004
0.1451485
0.2021724
0.2482443
0.2845262
0.3119636
0.03295948
0.1058406
0.1556709
0.1962166
0.2305017
0.258811
0.02745165
0.09328643
0.1394689
0.1789543
0.2126781
0.2409848
0.02158134
0.07604065
0.1165151
0.1515308
0.1828007
0.2100834
0.01846999
0.0672866
0.1040615
0.1367464
0.1662567
0.1924726
0.01555765
0.05822483
0.09108754
0.1207002
0.1479887
0.1727565
0.01355884
0.05205234
0.0819262
0.1092539
0.1346822
0.1580666
0.01184249
0.04647249
0.07359041
0.09864776
0.122232
0.1441864
0.01049497
0.0420409
0.0668583
0.08999228
0.11193
0.1325325
0.009356991
0.03817954
0.06095077
0.08232264
0.1027235
0.1220388
0.008407353
0.034895
0.05588506
0.07569542
0.0946908
0.1128085
0.007595192
0.03202141
0.05142679
0.06981802
0.08752232
0.1045243
0.006896607
0.02950089
0.04749602
0.06460449
0.08113261
0.0970952
0.006288906
0.02725896
0.04397989
0.05993776
0.0753881
0.09037437
0.00575427
0.02524715
0.04080847
0.05571868
0.07019099
0.08426213
0.005280739
0.02342975
0.03793626
0.05187251
0.06545298
0.0786686
0.004858073
0.02177816
0.03531763
0.04835425
0.06110362
0.07352559
0.004478332
0.02026958
0.03291986
0.04512739
0.05709396
0.06877985
0.004135645
0.01888301
0.03070772
0.04214397
0.05337021
0.06437473
0.003549147
0.01760511
0.02866394
0.03938614
0.04990348
0.06030576
0.4598609
0.4645142
0.4672813
0.4682023
0.4685337
0.1798149
0.2772454
0.344498
0.3671028
0.3870978
0.3989876
0.1050816
0.2588476
0.318413
0.3603015
0.3868916
0.4070878
0.06265981
0.1620326
0.2218754
0.2624691
0.2945122
0.3190494
0.04682591
0.1445123
0.201347
0.2472284
0.282109
0.310124
0.03307466
0.1065968
0.1563733
0.1969157
0.2306352
0.258775
0.02723748
0.09362353
0.1390929
0.1788607
0.2121027
0.24059
0.0215591
0.07676186
0.1167316
0.1521526
0.1830999
0.2103448
0.0183355
0.06774655
0.1039051
0.1368893
0.1661635
0.1924039
0.01547173
0.05877165
0.09116605
0.1210333
0.148205
0.1729429
0.01345059
0.05246986
0.08190056
0.1093949
0.134737
0.1581242
0.01175
0.04687991
0.0736222
0.09882244
0.1223604
0.1443176
0.01040378
0.04239095
0.06686011
0.09009956
0.1120121
0.132636
0.009274495
0.0385041
0.06095403
0.08240732
0.102829
0.1221565
0.008331197
0.03518904
0.05587771
0.07573373
0.09481326
0.1129189
0.007525455
0.03229402
0.05142541
0.06984959
0.08767438
0.1046412
0.006831512
0.02975461
0.04749796
0.0646872
0.08128783
0.09720731
0.006227655
0.02748636
0.04397064
0.05996983
0.07551842
0.09046322
0.005695796
0.02545147
0.0407946
0.05567017
0.07028197
0.08431958
0.005226368
0.02362354
0.03793204
0.05184826
0.06551106
0.07870455
0.00480758
0.02196558
0.03532451
0.04834997
0.06114521
0.07352736
0.004432243
0.02044543
0.03293729
0.04511129
0.05715245
0.06872317
0.004091931
0.01905738
0.03075368
0.0421357
0.05347032
0.06419746
0.003554877
0.0177464
0.02872876
0.03926302
0.05016924
0.05988069
0.4958852
0.5002802
0.5009718
0.5015753
0.5016448
0.1908788
0.3501819
0.3840598
0.4035623
0.4160329
0.4239349
0.1010694
0.2636479
0.3337062
0.3758671
0.4032986
0.4229378
0.05562738
0.1668364
0.233332
0.2802673
0.3155488
0.3414223
0.03831277
0.1341526
0.1998797
0.2495984
0.2874612
0.3167295
0.02687596
0.1001979
0.1552161
0.1998806
0.2367147
0.26688
0.02072853
0.08339412
0.136005
0.1759681
0.2125534
0.2427507
0.01612378
0.06811405
0.112994
0.1508277
0.1840977
0.2129652
0.01302657
0.0586633
0.09935103
0.1339609
0.1653213
0.1930882
0.01058476
0.05030323
0.08687105
0.1190049
0.1474458
0.1735887
0.008742498
0.04420894
0.07742058
0.1072343
0.1334932
0.158121
0.007247874
0.03906662
0.06944113
0.09677394
0.1210376
0.1441427
0.0060363
0.03494599
0.06282772
0.08804075
0.1105586
0.1321706
0.005028038
0.03152648
0.05719987
0.08045941
0.1013033
0.1215643
0.004181589
0.02870451
0.05234284
0.07409088
0.09300709
0.1121773
0.003460967
0.0263
0.04810856
0.06847797
0.08556273
0.1037579
0.002845421
0.02421115
0.04440555
0.06312859
0.07902317
0.09626356
0.002312833
0.02235292
0.04121706
0.05772233
0.07345426
0.0895568
0.001846867
0.02067369
0.03820266
0.05356279
0.06841808
0.08347178
0.00143799
0.01915981
0.03547555
0.04977035
0.06394378
0.07793133
0.0010767
0.0177852
0.0330029
0.04631416
0.05982988
0.07285938
0.0007529731
0.01653409
0.03075364
0.04319312
0.05596983
0.06817699
0.0004692281
0.01538784
0.02868953
0.0403477
0.05238489
0.06392597
0.0002179993
0.01382747
0.02618293
0.03721404
0.04752824
0.05826284
0.4421994
0.3884457
0.6166091
0.2505409
0.4343286
0.265553
0.2654486
0.1977432
0.2938034
0.1263724
0.2629704
0.200526
0.1754496
0.1044559
0.1946931
0.0674784
0.1534274
0.1370301
0.1309643
0.05645718
0.1200407
0.04401271
0.1112869
0.09694358
0.1047111
0.03846564
0.09320101
0.03111878
0.07940378
0.07412259
0.0890743
0.02688039
0.06924168
0.0249552
0.06395404
0.05814457
0.07730667
0.02073796
0.05781269
0.02027153
0.05136064
0.04614007
0.06885486
0.01611035
0.04765027
0.01738215
0.04369348
0.03763715
0.06213719
0.0130209
0.0412368
0.01502224
0.0375146
0.03081217
0.05684357
0.01057834
0.03576552
0.01326498
0.03297698
0.02546385
0.0525173
0.008739153
0.03166306
0.01180176
0.0292177
0.02105824
0.04890567
0.007245292
0.0282385
0.01061489
0.02615093
0.01742979
0.04582871
0.006034769
0.02544036
0.009631376
0.02356552
0.01435621
0.04316675
0.005027509
0.0230149
0.008819232
0.02136398
0.01176454
0.04081903
0.004179175
0.02090262
0.00815195
0.01947122
0.009546414
0.0387398
0.003460837
0.01905979
0.007595711
0.01782841
0.007618553
0.03688203
0.002845389
0.01745499
0.007115702
0.016384
0.005917555
0.03520687
0.00231288
0.01603949
0.00669592
0.01509616
0.00442442
0.03368234
0.001847105
0.01477321
0.006327928
0.01393876
0.003121996
0.03228848
0.00143835
0.01363809
0.006003138
0.01289341
0.002012199
0.03100269
0.001077488
0.01261544
0.005712731
0.01194325
0.001060503
0.0298109
0.0007568012
0.01168845
0.005453515
0.0110773
0.0002248956
0.02870221
0.0004708889
0.01084651
0.005219561
0.01028591
-0.0005068717
0.008790625
0.0002160133
0.01007812
0.005004165
0.009554687
0.597354
0.2368109
0.3690113
0.4781998
0.2305896
0.3818188
0.5975801
0.2308786
0.3799909
0.4781576
0.2261407
0.3782633
0.5980669
0.2327581
0.3819834
0.4795137
0.2265944
0.3786315
0.594587
0.2278068
0.3710207
0.6037961
0.2337481
0.4000028
0.4932
0.2269771
0.3747583
0.5966683
0.2296523
0.3796352
0.4788613
0.2283126
0.3781853
0.5985274
0.2319931
0.3801564
0.4779637
0.2285161
0.3789757
0.5991417
0.2342034
0.3788507
0.4761406
0.2305835
0.3732846
0.578276
0.2421322
0.3489587
0.5031465
0.2365352
0.3929123
0.330699
0.4968184
0.4446906
0.4454694
0.3558615
0.3796789
0.495665
0.4698826
0.4850459
0.4026811
0.4264626
0.4956524
0.4762027
0.4917573
0.4146295
0.4378144
0.3195479
0.1209165
0.245968
0.2762328
0.2316402
0.2017208
0.06565285
0.1450803
0.1865524
0.1651332
0.1211219
0.04364942
0.1079962
0.1371838
0.1315694
0.09330314
0.03109017
0.07871978
0.09750033
0.1048009
0.06931446
0.02492268
0.06372738
0.07419058
0.08917714
0.05778257
0.02028563
0.05136048
0.05820251
0.07736561
0.04767536
0.01738436
0.04368565
0.04617576
0.06889386
0.04123973
0.01502794
0.03752691
0.03764869
0.06216042
0.03577666
0.0132672
0.03298303
0.0308274
0.05686045
0.03166827
0.01180372
0.02922384
0.02547389
0.05252892
0.0282437
0.0106159
0.02615474
0.02106743
0.04891246
0.0254434
0.009631969
0.0235675
0.01743569
0.04583234
0.02301553
0.008818443
0.02136831
0.01436122
0.04316665
0.02090557
0.008151683
0.01947162
0.01177546
0.04081986
0.01906054
0.007595125
0.01782834
0.009548209
0.03873951
0.01745543
0.007114973
0.01638369
0.007619324
0.0368806
0.01603955
0.006695139
0.0150958
0.005917494
0.03520474
0.01477275
0.006327021
0.0139385
0.00442415
0.03367989
0.01363683
0.006001724
0.01289184
0.003120812
0.03228361
0.01261306
0.00571086
0.01193604
0.002008058
0.03099338
0.01007491
0.004998103
0.009542075
-0.0005349428
0.01292227
0.5264033
0.4501006
0.228596
0.2021359
0.2747917
0.233905
0.1344617
0.1517534
0.1652565
0.1470204
0.08072517
0.09785589
0.09187905
0.1067074
0.05693441
0.07163115
0.0709477
0.08364882
0.04181017
0.05190436
0.04958845
0.06896227
0.03324759
0.04127013
0.04041653
0.05916892
0.02649312
0.03642167
0.03330474
0.05193043
0.02187039
0.03120416
0.02790299
0.04654789
0.01830076
0.02218601
0.02344817
0.04224218
0.01554588
0.01291715
0.02028995
0.03874071
0.01347741
0.00777398
0.01778971
0.03581556
0.01193129
0.005821843
0.01579332
0.03334143
0.01067758
0.004206789
0.01417288
0.03121039
0.009653835
0.002862983
0.0128077
0.02935108
0.008768517
0.001726706
0.01162429
0.02771481
0.007984465
0.0007494638
0.01060105
0.02626052
0.00730097
-0.0001008232
0.009686083
0.02495884
0.0066974
-0.0008458525
0.008872663
0.02378505
0.006182859
-0.00151229
0.008136922
0.02271363
0.005706549
-0.002108076
0.007468186
0.02173819
0.005278709
-0.002645288
0.006866707
0.02084072
0.004882492
-0.003134091
0.006318454
0.02001805
0.004524195
-0.003576881
0.005827601
0.01926205
0.4905501
0.5022025
0.4948287
0.5098708
0.496442
0.5129435
0.4943051
0.5071439
0.5068178
0.4929559
0.5096762
0.4953136
0.5092152
0.4937434
0.5008919
0.4858976
0.4894107
0.5003866
0.495658
0.460006
0.473452
0.3849035
0.4093458
0.4955286
0.4803281
0.4966965
0.4225046
0.4459973
0.01168172
0.005450193
0.01107616
0.001052119
0.02980016
0.01084057
0.005215737
0.01029073
0.0002108374
0.02868446
0.4230517
0.2620853
0.3542913
0.325422
0.484651
0.512259
0.1860622
0.1872819
0.1820057
0.1992605
0.1134945
0.1273343
0.1037621
0.1140323
0.07021967
0.1006833
0.07596334
0.07749244
0.04938606
0.08028753
0.05396734
0.05564462
0.03786376
0.06869095
0.04356499
0.040623
0.03057766
0.05955886
0.03549334
0.03190899
0.02526423
0.05314719
0.02983538
0.02642685
0.02141111
0.04784648
0.02552394
0.02244355
0.0185402
0.04362316
0.0224855
0.01845126
0.01615976
0.03945135
0.01990358
0.01495837
0.01422276
0.03472318
0.01769949
0.01291069
0.01257021
0.03027031
0.01586215
0.01076541
0.01123103
0.0266622
0.01431647
0.008750887
0.01010618
0.02419645
0.01297391
0.006772946
0.009119346
0.02221173
0.0118015
0.005088951
0.00825487
0.0208602
0.0107829
0.003598362
0.007501578
0.01981866
0.00986353
0.002082749
0.006844721
0.01898611
0.009034894
0.0006246526
0.006266617
0.01838747
0.008269435
-0.001197012
0.005746724
0.01787766
0.007595027
-0.002542507
0.005280934
0.01741774
0.006990062
-0.003670691
0.004857231
0.01696349
0.006453413
-0.004486411
0.004483237
0.007607425
-0.005151824
0.005964232
0.5048805
0.4915904
0.5035824
0.4963415
0.5095016
0.4957229
0.5124747
0.5033302
0.4951041
0.5091352
0.4946764
0.5104699
0.4919972
0.5104423
0.4804509
0.5049695
0.4851186
0.3998971
0.5280557
0.4680996
0.5256091
0.4726807
0.526173
0.4681089
0.5313504
0.4745154
0.1291394
0.1467316
0.1602676
0.1414379
0.1053291
0.1279461
0.1031618
0.1162738
0.07893052
0.09766232
0.09052432
0.1056101
0.06742363
0.1001691
0.07488403
0.07705338
0.05649889
0.07126319
0.07011709
0.08341506
0.04901533
0.08035067
0.05395784
0.05550855
0.04177817
0.05193952
0.04964336
0.06897963
0.03325705
0.04124683
0.04039517
0.05919618
0.03052763
0.05959578
0.03552908
0.03180326
0.02650858
0.03636405
0.03335061
0.05195417
0.02525222
0.05316317
0.02985266
0.02635046
0.02188378
0.03121599
0.02793244
0.0465626
0.02141499
0.04786479
0.0255343
0.02240141
0.018309
0.02227132
0.0234675
0.04225398
0.01854336
0.04363571
0.02248949
0.01843501
0.01555198
0.01296596
0.02029935
0.0387487
0.0161638
0.03948473
0.01990882
0.01492632
0.01347969
0.007780878
0.01779621
0.03582182
0.01422706
0.03474738
0.0177026
0.01291266
0.01193299
0.005826374
0.01579646
0.03334598
0.01257192
0.03027192
0.01586564
0.01077063
0.01068337
0.004210646
0.01417632
0.03121477
0.009655537
0.002859627
0.01279644
0.0293467
0.01010545
0.0241844
0.01297348
0.006750107
0.00876971
0.00172592
0.01162695
0.02771602
0.009118652
0.02220557
0.011801
0.005087924
0.007984327
0.0007488956
0.01060314
0.0262614
0.0082533
0.0208566
0.01078184
0.003600373
0.007301489
-0.0001017859
0.009687952
0.02495891
0.007499665
0.01981591
0.009862189
0.002081724
0.006697911
-0.0008468479
0.008874626
0.02378426
0.006842641
0.01898155
0.009033537
0.0006180155
0.006181443
-0.001514033
0.008138432
0.02271224
0.005706923
-0.002111054
0.007467208
0.02173391
0.005739937
0.01786117
0.007592569
-0.00257792
0.00447698
0.01716088
-0.005334288
0.00595815
-1.386382e-05
0.007548348
-1.423655e-05
0.00937212
0.00936259
0.01152997
0.004192787
0.003001436
0.01855577
0.00536278
0.00417444
-0.006012295
0.01851093
0.005326902
0.4978268
0.4683152
0.4772535
0.4794284
0.4751945
0.4815392
0.4791455
0.4742785
0.4819687
0.4753402
0.4835788
0.4781646
0.4775385
0.4763301
0.479406
0.4780371
0.476894
0.4802811
0.4831789
0.4785399
0.4765324
0.4840353
0.4834035
0.4766048
0.475838
0.4808316
0.4827178
0.4776615
0.4803435
0.4785595
0.4750398
0.4819643
0.4815357
0.4793164
0.4825494
0.478634
0.47898
0.4733506
0.5003281
0.4569974
0.4960499
0.4396555
0.5149593
0.4108281
0.3786675
0.2716063
0.3251211
0.3422438
0.5203905
0.4467529
0.5175898
0.4572382
0.5200878
0.459223
0.5235893
0.4612077
0.5293359
0.4694159
0.5252787
0.4745689
0.5265213
0.4696533
0.5323129
0.4764932
0.226527
0.2153669
0.262734
0.200683
0.1873608
0.1791941
0.1808304
0.1552127
0.1131153
0.1082701
0.1090283
0.1336036
0.08313101
0.09134905
0.08312073
0.0566509
0.06886141
0.05592201
0.07013927
0.07909588
0.03778974
0.06870225
0.04354218
0.04064807
0.02153501
0.03872537
0.02714299
0.002432246
0.02463255
0.008897839
0.03515113
0.02174386
0.01811442
0.03501805
0.02232799
-0.0009853935
0.02048062
0.005820698
0.03210605
0.0172274
0.01226105
0.0272534
0.01619245
-0.004361697
0.01445679
0.001555117
0.02823262
0.01172671
0.009934727
0.02431782
0.01376229
-0.004930723
0.01256394
0.0004303128
0.02604152
0.009990089
0.008156974
0.02215413
0.01183746
-0.005371523
0.01111823
-0.0005255955
0.02377818
0.00855662
0.009914371
-0.001266504
0.02182661
0.007396828
0.01122628
0.02679981
0.01432799
0.008727189
0.003737778
0.01650833
0.007114639
-0.005943443
0.007320677
-0.002483612
0.01743672
0.004950335
0.006095055
-0.002878967
0.01509309
0.003851473
0.002160778
0.01358787
0.005184138
-0.005786292
0.005586278
-0.002996924
0.0140709
0.003409616
0.006263389
0.0183822
0.008267357
-0.001200392
0.005129117
-0.003073697
0.01315335
0.003019017
0.0015236
0.0120029
0.004288051
-0.005549269
0.004520748
-0.003607531
0.005792832
0.0192344
0.5225714
0.4249152
0.5026203
0.491049
0.4663807
0.4801283
0.4811767
0.4761219
0.4827806
0.4767114
0.4764797
0.4775429
0.4766545
0.478057
0.4787111
0.4762311
0.4798718
0.4800048
0.4777215
0.4793199
0.4832759
0.4777517
0.4713214
0.476821
0.4640409
0.5243878
0.4671202
0.5257574
0.4654694
0.5291003
0.4706239
0.5245315
0.4702137
0.5250155
0.4756353
0.5301898
0.4707663
0.5328424
0.4774212
0.5266621
-0.002646724
0.006857829
0.02083904
0.005282755
0.01737198
-0.003667944
0.005259395
0.006996496
-0.003154676
0.02000546
0.004886587
0.006286076
0.01693348
0.006451894
-0.004559096
0.00483349
0.4853215
0.4803033
0.4747715
0.4801907
0.4781767
0.4779316
0.4753004
0.4790156
0.4786932
0.4790707
0.4842789
0.4771767
0.4788023
0.4771957
0.4783066
0.4779757
0.4752214
0.4821835
0.466324
0.4807093
0.1056872
0.1057262
0.08483912
0.1001055
0.07690313
0.07480982
0.08582042
0.08182386
0.02358911
0.03881943
0.006965191
0.02719923
0.02493384
0.008212214
0.02108889
0.03511256
0.02018728
0.03402695
0.001270272
0.02213836
0.02128394
0.004726082
0.0160831
0.031953
0.0165386
0.03068066
-0.001639789
0.01839404
0.01836178
0.002481597
0.0126524
0.0288526
0.01592066
0.0009113635
0.01033269
0.02630013
0.008742799
0.02313851
-0.005687557
0.01128677
0.01225245
-0.001229201
0.00725919
0.02261676
0.006047407
0.01952557
-0.006317206
0.008467485
0.007917731
-0.003113961
0.004152915
0.01705603
0.002737956
0.0135666
-0.006238728
0.004936165
0.005913246
-0.003701962
0.002859531
0.01402572
0.002375808
0.01267301
-0.006069217
0.004532173
0.002057739
0.01185546
-0.005884594
0.004165116
0.004916126
-0.003846417
0.002256659
0.01244957
0.4980657
0.4981617
0.5010458
0.5006085
0.233115
0.2290459
0.2875882
0.2720942
0.4964072
0.4968275
0.497706
0.4984136
0.4972393
0.4922912
0.4968565
0.4984602
0.4975612
0.4915665
0.4980164
0.4975065
0.4961417
0.4972886
0.4979968
0.4920082
0.4914425
0.4976063
0.4980393
0.4977026
0.4972055
0.4918624
0.4963026
0.497838
0.1912399
0.1885899
0.2166942
0.2465073
0.1396295
0.139641
0.1098988
0.1414257
0.03819456
0.05420081
0.01546134
0.04392263
0.0382555
0.02031268
0.04421946
0.03981222
0.03051873
0.01288245
0.0388136
0.03045982
0.006668235
0.0203746
-0.005615849
0.01029341
0.01901191
0.00903055
-0.005879363
0.005455174
0.008939891
-0.001774196
0.02024974
0.006448736
0.004527333
0.01771515
0.007986648
-0.006042278
0.008058485
-0.002161167
0.01874056
0.005628833
0.003105338
0.01543768
0.00637102
-0.005898207
0.006671172
-0.002709929
0.01621317
0.004359575
0.002585808
0.0144787
0.005732249
-0.00586145
-0.003181682
0.01082138
0.00403222
0.002124316
0.0099909
0.003311472
0.0009219172
-0.005093669
0.4928913
0.4971564
0.4974339
0.498114
0.4972932
0.4980759
0.4921272
0.4961664
0.4913326
0.4976615
0.4978163
0.4980004
-0.003114811
0.002679882
0.004709836
0.01230889
0.01127238
-0.005395713
0.001277836
0.003916538
-0.003159533
0.0115433
0.004353525
0.002384819
0.01061157
-0.005243958
0.001076695
0.003597683
0.4991784
0.4877824
0.4882088
0.4949795
0.4799854
0.3616754
0.4679967
0.4040083
0.4979683
0.497481
0.4919593
0.4990296
0.04424127
0.05745686
0.02386858
0.04629602
0.03889324
0.02347988
0.04589005
0.03898813
0.03118291
0.04652199
0.01278782
0.03466321
0.01328483
0.0279114
-0.003795624
0.01543508
0.01070795
0.02534894
-0.005021656
0.01317986
0.0139444
-0.0003367738
0.00864548
0.02413753
0.005113627
0.01803948
-0.006552215
0.00746132
0.008770439
-0.002824329
0.004739251
0.01834143
0.007175572
-0.003362738
0.003653996
0.0159223
0.00650273
-0.003568267
0.003230009
0.0149348
0.003845788
-0.003854741
0.001605093
0.01038253
-0.003158383
0.00188955
0.003728028
0.01016244
0.001120696
0.009220876
-0.005117036
0.003023702
0.4987153
0.5012624
0.4976422
0.5005639
0.288096
0.3550686
0.2700869
0.3250084
0.497153
0.4963935
0.4989495
0.4993404
0.4952183
0.4962007
0.496821
0.4981121
0.4975854
0.4918269
0.4977815
0.4988214
0.491578
0.4972637
0.4974605
0.4985323
0.1645636
0.1627191
0.193574
0.1758141
0.1363905
0.129889
0.1332936
0.1519898
0.01383855
0.02832744
0.03924018
0.03056307
-0.002417303
0.005411629
0.01963725
0.009746928
0.009771545
-0.00533497
0.003280998
0.001324539
0.4972634
0.4920374
0.4984035
0.4991871
0.4918468
0.4972364
0.4969991
0.4982756
0.4976593
0.4917013
0.4976634
0.498618
0.4914428
0.4973568
0.4975643
0.4984817
0.01041499
-0.005500104
0.001523853
0.00353458
-0.003863939
0.0110287
0.004153117
0.001793549
0.1834161
0.1852346
0.2180255
0.1897965
0.110912
0.1065784
0.1329006
0.1071394
0.06896357
0.05679819
0.07945949
0.07013745
0.05134533
0.03448569
0.05637344
0.05468914
0.03828011
0.02031354
0.03981463
0.04415215
0.03050367
0.01288228
0.03046887
0.03871365
0.02461469
0.008888709
0.02171854
0.03514342
0.02047125
0.005810573
0.01722012