/*--------------------------------*- C++ -*----------------------------------*\
  =========                 |
  \\      /  F ield         | OpenFOAM: The Open Source CFD Toolbox
   \\    /   O peration     | Website:  https://openfoam.org
    \\  /    A nd           | Version:  7
     \\/     M anipulation  |
\*---------------------------------------------------------------------------*/
FoamFile
{
    version     2.0;
    format      ascii;
    class       volScalarField;
    location    "0.1";
    object      Uy;
}
// * * * * * * * * * * * * * * * * * * * * * * * * * * * * * * * * * * * * * //

dimensions      [0 1 -1 0 0 0 0];

internalField   nonuniform List<scalar> 
78470
(
-0.05710672
-0.003634496
-0.005391466
-0.003789432
-0.00294523
-0.002377936
-0.002524756
-0.002567271
-0.002871103
0.03218374
-0.02091401
-0.006989307
-0.01578339
-0.006624833
-0.009274931
-0.009673156
-0.01251469
-0.01532685
0.001565018
-0.02619746
-0.01945294
-0.02425724
-0.02064317
-0.02143512
-0.02190021
-0.02485469
-0.02921035
-0.00783864
-0.03642445
-0.02543387
-0.03075874
-0.02686508
-0.02801141
-0.02795891
-0.03053013
-0.03472673
-0.02242017
-0.04021973
-0.03499279
-0.03760357
-0.03608324
-0.03597714
-0.03458718
-0.03545426
-0.03783015
-0.03620269
-0.05171679
-0.0445562
-0.04641067
-0.04490615
-0.04371059
-0.04054692
-0.03634631
-0.03360327
-0.04451301
-0.05464955
-0.05350509
-0.0549629
-0.05344703
-0.05126591
-0.04614503
-0.03750155
-0.02723779
-0.05285121
-0.06740034
-0.06396389
-0.06673045
-0.06513657
-0.06230662
-0.05429406
-0.04052226
-0.01875883
-0.06361171
-0.06770261
-0.07048376
-0.07749552
-0.07905834
-0.07775058
-0.0694508
-0.04721354
-0.01395074
-0.06782109
-0.07193863
-0.07762811
-0.09132615
-0.09701483
-0.1004674
-0.09493877
-0.0659137
-0.01098829
-0.06551129
-0.07330592
-0.08363302
-0.1056582
-0.1206984
-0.1355697
-0.141342
-0.09303895
-0.02206257
-0.06048947
-0.06892771
-0.08659677
-0.1212181
-0.1482737
-0.1901394
-0.217223
-0.1584275
-0.02277319
-0.04563937
-0.06258286
-0.08333813
-0.1301706
-0.1808019
-0.26568
-0.339716
-0.2096039
-0.05141911
-0.0228623
-0.03621824
-0.06665656
-0.136763
-0.2143991
-0.3530031
-0.497138
-0.6016459
-0.01636797
0.008701506
-0.001734828
-0.02820637
-0.08481486
-0.1968295
-0.3485401
-0.5654346
-1.420337
0.05203222
0.05497861
0.02221533
-0.01985437
-0.06783388
-0.1652708
-0.3212805
-0.5255204
0.1185535
0.1241768
0.1018437
0.08923843
0.06482428
0.01975736
-0.08383228
-0.1727068
0.1853044
0.1969955
0.1941397
0.2009598
0.2082597
0.2037571
0.1359835
0.1042037
0.246867
0.2679391
0.2846637
0.3157617
0.3517998
0.3931011
0.3540864
0.3626137
0.3041466
0.3306516
0.3666944
0.4202859
0.4957473
0.5860565
0.5853913
0.6126518
0.3460593
0.3763272
0.4283751
0.5061085
0.6219494
0.7835771
0.8489746
0.9192927
0.3706754
0.4031234
0.4641171
0.5582663
0.6980089
0.9181172
1.10192
1.455853
1.029257
2.120625
-0.1558075
0.01174718
-0.002969943
0.008228453
-0.004460822
-0.003349744
-0.005268371
-0.004576247
-0.005285461
-0.006073106
-0.06830879
0.01447388
-0.03818456
-0.01400203
-0.01917668
-0.01242066
-0.01353553
-0.01324144
-0.01548247
-0.01848522
-0.009718163
-0.01526173
-0.03663247
-0.01503757
-0.02501754
-0.01898286
-0.02163087
-0.02175188
-0.02474201
-0.02894437
-0.002566195
-0.01557777
-0.03705236
-0.0210255
-0.03110255
-0.02753362
-0.02867927
-0.02863343
-0.03108029
-0.03504926
-0.008085661
-0.03817249
-0.04614128
-0.0348556
-0.03879926
-0.03504507
-0.03609447
-0.03516374
-0.03540371
-0.03743877
-0.005671385
-0.04381119
-0.04894464
-0.0422765
-0.04674315
-0.04364006
-0.04278573
-0.03966047
-0.03586796
-0.03310008
-0.008214106
-0.05513234
-0.05607633
-0.05516839
-0.05633257
-0.05419006
-0.0497533
-0.04565763
-0.03706521
-0.02641203
-0.007225654
-0.06244654
-0.05896449
-0.06313072
-0.06669008
-0.06504441
-0.06067755
-0.05348698
-0.03959817
-0.01757322
-0.01067721
-0.06071817
-0.05984738
-0.06909616
-0.07670346
-0.07926769
-0.07615456
-0.06992951
-0.04635761
-0.0136842
-0.01068769
-0.05976098
-0.0720748
-0.07773344
-0.08995619
-0.09681583
-0.1004516
-0.09296438
-0.06515012
-0.009548937
-0.01263916
-0.06131452
-0.07918179
-0.08480231
-0.1029315
-0.1198119
-0.1354397
-0.142336
-0.09237156
-0.02400305
-0.0117018
-0.05656076
-0.07640016
-0.08941355
-0.1184631
-0.1506645
-0.1883295
-0.2065886
-0.1600351
-0.02290776
-0.01122372
-0.04343557
-0.05963588
-0.08455278
-0.1296919
-0.1822386
-0.25711
-0.3548522
-0.220913
-0.06938846
-0.005889804
-0.02782061
-0.04283727
-0.07656487
-0.1346561
-0.219537
-0.3597803
-0.541738
-0.6881684
-0.01169234
0.006517384
0.01313103
-0.008438485
-0.04010323
-0.09731262
-0.1959907
-0.3289019
-0.621184
-1.493925
0.02054629
0.05891498
0.05162143
0.02354102
-0.01476007
-0.07358517
-0.1666673
-0.3207232
-0.4549155
0.04370228
0.111524
0.1204442
0.1005741
0.08508217
0.05742071
0.01386227
-0.07767492
-0.1266939
0.06692294
0.1762906
0.1922538
0.1915001
0.1995483
0.2046428
0.2030168
0.1475567
0.131789
0.07977616
0.2451188
0.265004
0.2810613
0.3132982
0.3506951
0.3928137
0.3715236
0.3733219
0.09040244
0.3023609
0.3284641
0.3648534
0.4184082
0.4938886
0.5881071
0.5996757
0.6452993
0.1013117
0.3508785
0.3780661
0.4291724
0.507627
0.6232931
0.7964181
0.8864294
1.063806
0.1028997
0.3749305
0.4041166
0.4645176
0.5600718
0.6993804
0.9387148
1.21108
1.611027
0.1031693
1.11974
2.07247
-0.08372768
-0.003245734
0.003701365
0.0190526
-0.0002921023
-0.002421909
-0.005221806
-0.004048419
-0.004542998
-0.005455992
-0.121072
0.06361311
-0.04191483
0.00465107
-0.01580563
-0.007277561
-0.009257842
-0.01053391
-0.01308082
-0.01667959
-0.1088092
0.04055779
-0.02409429
0.004243309
-0.02120856
-0.01715229
-0.01912916
-0.01970828
-0.02392305
-0.0283462
-0.05512127
0.01183267
-0.04505436
-0.01574806
-0.03225698
-0.02707821
-0.02734525
-0.02771833
-0.03019873
-0.03463579
-0.03959818
-0.01729138
-0.04816847
-0.02826899
-0.03718869
-0.03556994
-0.03603044
-0.03390448
-0.03521086
-0.03743398
-0.02774218
-0.0262343
-0.05641576
-0.04201534
-0.04586766
-0.04499582
-0.04626102
-0.04134809
-0.03717108
-0.03379375
-0.02257784
-0.03249184
-0.05687408
-0.05237554
-0.05379007
-0.05369191
-0.05390399
-0.04741725
-0.03827728
-0.0272437
-0.02168926
-0.04068179
-0.06245634
-0.06482595
-0.06489201
-0.06501409
-0.06470915
-0.05533542
-0.04183989
-0.01887593
-0.0177559
-0.05248986
-0.06514778
-0.07276315
-0.07660406
-0.07932466
-0.07938486
-0.07199196
-0.04753804
-0.01470715
-0.02029223
-0.05765223
-0.0708156
-0.07846988
-0.08763166
-0.09627351
-0.1007002
-0.09399415
-0.06726295
-0.01094454
-0.01298016
-0.06542233
-0.07591401
-0.08512693
-0.1028956
-0.1212069
-0.1332171
-0.1436247
-0.09683101
-0.02671778
-0.01818827
-0.04856879
-0.06823504
-0.08708038
-0.114831
-0.147105
-0.1903617
-0.2102928
-0.1692361
-0.02380453
-0.01418733
-0.04438778
-0.06676748
-0.086983
-0.1229434
-0.1789479
-0.2583624
-0.3552614
-0.2176913
-0.0791546
-0.003019957
-0.02840141
-0.04432605
-0.06885991
-0.1308906
-0.2153807
-0.3633019
-0.5360212
-0.6739872
-0.01552335
0.0373356
0.02503243
0.004670271
-0.0245513
-0.08774187
-0.2032322
-0.332903
-0.6090353
-1.49758
0.06132979
0.05869774
0.05968503
0.02208576
-0.01913271
-0.0670784
-0.1645774
-0.2750345
-0.4489906
0.08070625
0.1261429
0.1257065
0.09482378
0.08708072
0.06458587
0.01554717
-0.0040054
-0.1313843
0.1062396
0.1715876
0.1960515
0.1836078
0.1984853
0.2043394
0.2177654
0.2209084
0.1686998
0.2329792
0.2684214
0.2726124
0.3115126
0.3456811
0.4030959
0.4138491
0.1737265
0.2855873
0.3352067
0.3613515
0.4170889
0.4945769
0.5826999
0.6710219
0.3161227
0.2089715
0.3276988
0.3831936
0.4247126
0.5059885
0.6333718
0.7899474
0.8970616
1.070681
0.2015427
0.3570362
0.4103924
0.4584571
0.558488
0.7040258
0.9393522
1.206795
1.59692
1.111696
2.058214
-0.1004982
-0.003192386
0.01102063
0.02095553
-0.003014597
-0.004128914
-0.006883439
-0.004960306
-0.005157222
-0.006087424
-0.1854613
0.07443439
-0.03808075
0.004452374
-0.01581242
-0.007108992
-0.01032914
-0.0109016
-0.01384135
-0.01745608
-0.2083502
0.1236382
-0.007310407
0.01934883
-0.02011415
-0.01638823
-0.01958382
-0.02006571
-0.02443937
-0.02873784
-0.09119371
0.05937202
-0.03459022
-0.008499934
-0.02987008
-0.0270113
-0.02874844
-0.02863877
-0.03088759
-0.03511643
-0.02029813
-0.002889312
-0.0476156
-0.02632367
-0.0361733
-0.03433599
-0.0373149
-0.03444219
-0.03567897
-0.03797737
-0.03948694
0.00449119
-0.04681852
-0.03738091
-0.04385802
-0.04293074
-0.04234924
-0.03999438
-0.03562288
-0.03366202
-0.001736389
-0.03156576
-0.05459423
-0.05411292
-0.05529207
-0.05084174
-0.0494705
-0.04531221
-0.03740144
-0.02688133
0.01033554
-0.04164003
-0.06505038
-0.06448286
-0.06492848
-0.06332227
-0.05940501
-0.05221644
-0.0397499
-0.01807286
-0.006422226
-0.03970779
-0.06768888
-0.07202125
-0.07549633
-0.0783931
-0.07499984
-0.07106395
-0.04745644
-0.01501864
-0.01814256
-0.03935606
-0.06899333
-0.07870107
-0.08769643
-0.09563186
-0.09996806
-0.09334907
-0.06716662
-0.01141674
-0.009425377
-0.04190879
-0.06865869
-0.08589523
-0.1031369
-0.120417
-0.1370561
-0.1461646
-0.0981924
-0.02897537
-0.02862036
-0.0417324
-0.06869842
-0.08974324
-0.1166032
-0.1507339
-0.1936401
-0.2082127
-0.1687841
-0.02487512
-0.01032081
-0.01413486
-0.0539855
-0.08679083
-0.122338
-0.1813666
-0.2594103
-0.3564326
-0.2188089
-0.08494661
0.01532643
-0.02366836
-0.03027364
-0.07318755
-0.1336874
-0.2184655
-0.3670384
-0.5329771
-0.6745746
-0.01743749
0.02992404
0.001737066
-0.002061514
-0.03068943
-0.08723202
-0.2080088
-0.3406174
-0.617365
-1.494767
0.04366573
0.02754711
0.0547377
0.01659613
-0.02157605
-0.06949223
-0.1664622
-0.2786196
-0.4434262
0.136736
0.0602019
0.1206387
0.08552595
0.08806214
0.06712806
0.0151781
-0.00182175
-0.1346428
0.1344993
0.1431006
0.1927318
0.17922
0.2019053
0.2058134
0.2208098
0.2187381
0.1791795
0.2081127
0.2698206
0.2705269
0.3146542
0.3474281
0.404404
0.4179688
0.1638181
0.2689196
0.3349536
0.3586426
0.4181899
0.4966032
0.582803
0.6747704
0.297806
0.2044638
0.3233218
0.3853683
0.4252806
0.5059455
0.6344641
0.7908723
0.904858
1.058084
0.1638961
0.3544358
0.4089254
0.4603151
0.5586637
0.7035888
0.9394104
1.209734
1.619116
1.107634
2.060481
-0.09694111
-0.002984991
0.01039388
0.02283513
-0.0005567274
-0.003418667
-0.007611692
-0.004836142
-0.004864386
-0.00587714
-0.2886494
0.09074538
-0.03980337
0.008992821
-0.01600049
-0.006249345
-0.008157423
-0.01013869
-0.01314593
-0.01708858
-0.2267761
0.1086598
-0.01541832
0.02078973
-0.01869384
-0.01668503
-0.01907203
-0.01948491
-0.02434101
-0.02852995
-0.1721604
0.115647
-0.02889253
-0.003682266
-0.02560319
-0.02579735
-0.02900266
-0.02867245
-0.03006083
-0.03477751
-0.05039909
0.03500662
-0.04871971
-0.03511917
-0.03829989
-0.03503386
-0.03552413
-0.0338467
-0.03534074
-0.03770488
-0.000207979
0.01109717
-0.053321
-0.05037348
-0.05193354
-0.04576877
-0.04385051
-0.04021282
-0.03675734
-0.03386189
-0.06027213
0.03642357
-0.04078194
-0.05700809
-0.06205557
-0.05619312
-0.05472003
-0.04819693
-0.03862927
-0.02772353
-0.02155095
-0.007192556
-0.0532252
-0.06729426
-0.07094187
-0.06836189
-0.06515165
-0.05560721
-0.04182297
-0.01928645
-0.01587655
-0.0338595
-0.06380095
-0.07385224
-0.07905088
-0.0798386
-0.07839871
-0.07281434
-0.04824057
-0.01554057
0.002299484
-0.07484459
-0.07734597
-0.08008344
-0.08769288
-0.09382001
-0.09834963
-0.0933326
-0.06771182
-0.01222249
0.05092912
-0.09923544
-0.07715445
-0.08295338
-0.09986491
-0.1144062
-0.1323866
-0.1447686
-0.09923571
-0.02894661
-0.02644932
-0.05077243
-0.07141104
-0.08754877
-0.1118697
-0.1449492
-0.1902374
-0.2069035
-0.1697327
-0.02522615
-0.02556278
-0.03219494
-0.05909724
-0.08430658
-0.1260203
-0.1791957
-0.2591178
-0.3565935
-0.2178272
-0.0820167
0.02173742
-0.01873326
-0.03299512
-0.06399775
-0.1347547
-0.2180099
-0.365361
-0.5326624
-0.6731917
-0.01439329
0.01036458
-0.0201766
-0.007756313
-0.02418968
-0.08730069
-0.2057894
-0.3406869
-0.6189845
-1.494418
0.09197091
-0.008926207
0.0473388
0.01922622
-0.01822537
-0.06917517
-0.1666722
-0.2781411
-0.4430061
0.1411693
0.06903704
0.1212409
0.09111782
0.08836448
0.06340044
0.01265535
0.0009724198
-0.1296443
0.1172397
0.1166267
0.1958203
0.1793131
0.1989777
0.2037139
0.2228577
0.2206432
0.2219303
0.1969649
0.2626682
0.264012
0.3136403
0.3477257
0.4042902
0.4186051
0.1662205
0.2738812
0.3334041
0.3494398
0.4126304
0.4949483
0.5825066
0.6706988
0.4328634
0.2155996
0.320886
0.381987
0.4213138
0.5047249
0.6357909
0.7917172
0.9072355
1.103093
0.1703702
0.3447781
0.4082202
0.4542913
0.5578831
0.70453
0.9403128
1.210483
1.629271
1.106123
2.060881
-0.09552859
0.0006217732
0.01565423
0.02573761
-2.062472e-06
-0.002630217
-0.007276877
-0.00491486
-0.005009751
-0.005977883
-0.331961
0.09414897
-0.04150753
0.003792749
-0.01748333
-0.006888657
-0.009227649
-0.01051054
-0.01294463
-0.01702386
-0.2540349
0.1337336
-0.01400661
0.02397371
-0.01684513
-0.01472329
-0.0188004
-0.01929586
-0.02453183
-0.02875037
-0.131993
0.07639583
-0.04139866
-0.01351846
-0.03058725
-0.02683703
-0.02688176
-0.02805636
-0.02926683
-0.0349059
-0.07679336
0.04102079
-0.04991633
-0.03909105
-0.04253288
-0.03832285
-0.03742174
-0.03405289
-0.0358164
-0.03843505
-0.1083883
0.08645606
-0.02933217
-0.04999853
-0.05316683
-0.04941801
-0.04966339
-0.04372729
-0.03698951
-0.03515388
-0.003789944
-0.04449033
-0.05766162
-0.05888587
-0.05950707
-0.05557277
-0.05398792
-0.04844257
-0.03963218
-0.02776448
-0.009253192
-0.02494313
-0.06147708
-0.06419457
-0.06730675
-0.0653509
-0.06413881
-0.05518335
-0.0407195
-0.01870951
-0.002723279
-0.05599748
-0.06928012
-0.07542744
-0.07946671
-0.08084732
-0.07979663
-0.07236242
-0.04842849
-0.01611423
0.03973995
-0.08141126
-0.07617837
-0.08088317
-0.08955079
-0.09472772
-0.1000155
-0.09347232
-0.06727573
-0.01256415
-0.07274033
-0.006651312
-0.05810011
-0.08167528
-0.1031192
-0.118117
-0.1338603
-0.1449972
-0.09856418
-0.03003048
-0.007896739
-0.05207379
-0.06704644
-0.0844095
-0.1147686
-0.1446046
-0.1871455
-0.204914
-0.1669818
-0.02703776
-0.02758832
-0.0271773
-0.05221331
-0.08315863
-0.1334286
-0.177078
-0.2576537
-0.3565595
-0.2162791
-0.08171846
-0.000938063
-0.02295455
-0.04472494
-0.05910805
-0.1277117
-0.2218822
-0.3681424
-0.5318582
-0.6727983
-0.01486236
0.1504522
-0.1194579
-0.03321718
-0.03233749
-0.08286491
-0.1913652
-0.3349791
-0.6218391
-1.493839
0.1130208
0.01797301
0.05023274
0.02395008
-0.01379384
-0.06371355
-0.1642185
-0.2781406
-0.4420994
0.1008193
0.05411968
0.1289032
0.09344752
0.08928973
0.06102577
0.01649886
0.002335314
-0.1306045
0.2075412
0.1196596
0.1941738
0.1737832
0.196975
0.206145
0.2235294
0.219484
0.1623475
0.2001405
0.2669799
0.2653519
0.3136132
0.3466825
0.4046129
0.4178257
0.2174228
0.2699074
0.3299056
0.3459321
0.4131951
0.4960417
0.5835773
0.6696674
0.4140716
0.2137916
0.3229659
0.3793892
0.4185565
0.501855
0.6344699
0.7913804
0.9080792
1.089706
0.2068817
0.3497652
0.4095351
0.4539707
0.5569731
0.7042233
0.9397812
1.210114
1.625538
1.10605
2.06028
-0.09827002
-0.003127528
0.003454964
0.01928986
-0.00246934
-0.001847566
-0.004020345
-0.003946519
-0.004418705
-0.005802386
-0.2942911
0.08242902
-0.03550623
0.008530197
-0.01582019
-0.007373769
-0.01149251
-0.0113908
-0.0142297
-0.01769522
-0.2139996
0.09913349
-0.02233524
0.01693458
-0.02222634
-0.01483481
-0.01604521
-0.01871275
-0.02306225
-0.02818425
-0.1780119
0.1280743
-0.02347799
-0.008010253
-0.03158741
-0.02966426
-0.03176879
-0.02885778
-0.0319149
-0.03571686
-0.01894051
-0.01366851
-0.05147767
-0.02870784
-0.03580076
-0.03286198
-0.03402355
-0.03445442
-0.03486533
-0.03758124
0.06554573
-0.06007379
-0.06325619
-0.047384
-0.04479095
-0.04355518
-0.04047035
-0.0378515
-0.03563559
-0.03344101
-0.005344642
-0.02909075
-0.0578424
-0.05518026
-0.05446133
-0.05291388
-0.05082992
-0.04590978
-0.03812111
-0.02768305
0.005324416
-0.04237425
-0.06266454
-0.06442309
-0.06463432
-0.06455501
-0.06150714
-0.05375955
-0.04060905
-0.01904141
0.02038072
-0.05490968
-0.06649786
-0.07330538
-0.07637702
-0.07807857
-0.07698667
-0.07138897
-0.04823604
-0.01617293
-0.02118996
-0.04186807
-0.06912793
-0.08018262
-0.08793374
-0.09583511
-0.0984121
-0.09302827
-0.06711256
-0.01204167
-0.02719903
-0.05209655
-0.07389441
-0.08643719
-0.1051653
-0.1197451
-0.137392
-0.1463613
-0.1001879
-0.0299034
-0.07497138
0.001416596
-0.0608527
-0.08732892
-0.1139422
-0.1474418
-0.193077
-0.208161
-0.1699909
-0.02683878
-0.006361603
-0.04518965
-0.06168646
-0.08809508
-0.1240804
-0.1799684
-0.2617098
-0.3578857
-0.2198767
-0.0860425
0.06557494
-0.0404316
-0.04055384
-0.06848335
-0.1382245
-0.2228145
-0.3676967
-0.5327784
-0.6740853
-0.0185475
-0.06675343
0.06413546
0.01949025
-0.02887127
-0.09835094
-0.2170485
-0.3490166
-0.6174532
-1.492256
0.01747064
0.04476742
0.04862778
0.01680862
-0.02159388
-0.06952029
-0.1656519
-0.278134
-0.458228
0.1619387
0.01421976
0.1141004
0.09518766
0.1014456
0.07144241
0.01640773
-0.0005568799
-0.1407332
0.1212386
0.1052961
0.1979546
0.1866094
0.2008074
0.1999573
0.2204965
0.2194183
0.2318132
0.1823278
0.265972
0.2644103
0.3138242
0.3470674
0.4058432
0.4190187
0.1871001
0.2599381
0.3369047
0.3551871
0.418306
0.4958287
0.5839531
0.6757395
0.44614
0.201376
0.335113
0.3877137
0.4218024
0.5042529
0.6328398
0.7892865
0.9077413
1.112918
0.163131
0.3525288
0.413203
0.459138
0.5584246
0.7026964
0.9372582
1.206403
1.631891
1.105834
2.061535
-0.09748291
-0.004019821
-0.0007044657
0.01476752
-0.004598673
-0.001131447
-0.004949087
-0.004143808
-0.004446105
-0.005804889
-0.285026
0.06530022
-0.03493532
0.005328895
-0.01707273
-0.006739031
-0.008960998
-0.01038319
-0.01305028
-0.01654796
-0.1830966
0.1257695
-0.0173999
0.01076925
-0.02423401
-0.0174739
-0.01883081
-0.01924623
-0.02407903
-0.02822244
-0.08386451
0.02114873
-0.03294269
-0.009569705
-0.03111594
-0.02625602
-0.02544969
-0.02747234
-0.0308173
-0.03529704
-0.05779608
0.01337191
-0.05118066
-0.0328584
-0.0361903
-0.03494938
-0.0368496
-0.03373835
-0.0358762
-0.03813366
0.04084355
-0.06702287
-0.0656018
-0.05310306
-0.04787627
-0.04719752
-0.04768492
-0.04300186
-0.0380689
-0.0355096
0.06371104
-0.09774829
-0.07619349
-0.06394291
-0.05870199
-0.0571602
-0.056711
-0.04874345
-0.03980788
-0.02819389
0.007672758
-0.05295805
-0.06264644
-0.06643062
-0.06533504
-0.06663161
-0.0647486
-0.05637698
-0.04181374
-0.01912476
-0.02557883
-0.0512773
-0.06476415
-0.07243954
-0.07609993
-0.07875394
-0.07897138
-0.07156733
-0.04826466
-0.0160002
-0.03679484
-0.05593853
-0.06823271
-0.0751262
-0.0846063
-0.09648561
-0.1023019
-0.09455733
-0.06727466
-0.01193218
-0.1425674
0.009666935
-0.04922374
-0.0745845
-0.09883271
-0.1164842
-0.1324428
-0.1432347
-0.09818052
-0.0281384
-0.05329048
-0.02228314
-0.060244
-0.08416656
-0.1159942
-0.1479093
-0.1890328
-0.2094988
-0.1692542
-0.02535264
0.01205915
-0.06909858
-0.06955709
-0.0922217
-0.127243
-0.181739
-0.2594144
-0.3560921
-0.2179333
-0.07951164
0.01211543
-0.04634243
-0.05663365
-0.06968561
-0.1331182
-0.2146384
-0.3637242
-0.5315233
-0.6729674
-0.01625376
0.04327369
-0.01238612
-0.001908087
-0.03152245
-0.08667476
-0.1954196
-0.3322104
-0.6176194
-1.493195
-0.0286125
0.1141078
0.07914325
0.02814302
-0.01939865
-0.06870003
-0.1646425
-0.2760491
-0.4641679
0.02822709
0.08894209
0.1288117
0.09310232
0.08271964
0.05948733
0.01758098
-0.001214908
-0.1453407
0.2072619
0.09457232
0.1940748
0.1792865
0.2048543
0.2112354
0.2217253
0.2236822
0.1765634
0.1976723
0.2638454
0.2700668
0.3107141
0.3424936
0.405893
0.4113784
0.2080935
0.2729724
0.3313344
0.3500508
0.4163295
0.4947019
0.5873522
0.6756292
0.4686521
0.2025245
0.3440917
0.3758123
0.4178156
0.5007556
0.630168
0.7849095
0.9035063
1.099007
0.2003578
0.3568689
0.4102116
0.457098
0.5582214
0.7036985
0.9327693
1.197507
1.619325
1.108497
2.071003
-0.09489959
-0.006193046
0.03741559
0.002533454
-0.0107174
0.001990743
0.003383034
0.001011504
0.001568869
-0.002371603
-0.2698174
0.02349334
-0.02231302
-0.0004636799
-0.01970927
-0.009538278
-0.01384275
-0.01437674
-0.01571839
-0.01636758
-0.1209275
0.02044341
-0.05495368
-0.008545088
-0.02880837
-0.01859808
-0.01917377
-0.01884982
-0.0236773
-0.0290497
-0.1299618
0.02824572
-0.03873159
-0.01578296
-0.03386083
-0.02794919
-0.02969151
-0.02877637
-0.03118928
-0.0354011
-0.0273237
-0.02233876
-0.04359117
-0.03234216
-0.03838241
-0.03732801
-0.03550535
-0.03516783
-0.03591147
-0.0380386
0.05202957
-0.08704318
-0.05440862
-0.0552119
-0.05063427
-0.04620424
-0.04286678
-0.03972765
-0.03641925
-0.03382006
-0.04780786
-0.07900883
-0.03920622
-0.06165248
-0.0550256
-0.05465309
-0.04980537
-0.04600846
-0.03833586
-0.02769703
-0.001168114
-0.06980206
-0.05760879
-0.06690105
-0.06521522
-0.06525256
-0.06261353
-0.05492886
-0.04083839
-0.01897622
0.002286634
-0.07556835
-0.07172228
-0.07552028
-0.07831735
-0.07970735
-0.07704502
-0.07066159
-0.04762247
-0.01536049
0.002863443
-0.04934135
-0.07453965
-0.07456666
-0.0889002
-0.09602791
-0.09945756
-0.09303813
-0.06566451
-0.01107255
-0.2017903
-0.02433124
-0.09323693
-0.08184284
-0.1054741
-0.1187957
-0.1358732
-0.1427825
-0.09446582
-0.02572522
-0.1325163
0.00434093
-0.07309621
-0.07649615
-0.1154564
-0.1479687
-0.188291
-0.2063086
-0.1601689
-0.02556822
0.01843194
-0.08640274
-0.07271288
-0.08945346
-0.1254904
-0.1791858
-0.2583478
-0.3566409
-0.2214218
-0.06986694
-0.04242869
-0.05353488
-0.04615141
-0.07392956
-0.1360429
-0.2216602
-0.3605368
-0.5350118
-0.6799553
-0.01629284
0.002388078
0.07494151
0.01320608
-0.007319961
-0.08682864
-0.2017651
-0.3358622
-0.619501
-1.495731
-0.01355726
0.09698262
0.05974211
0.03054076
-0.01661192
-0.06697464
-0.1643826
-0.3426496
-0.4819567
0.1211009
0.09862031
0.1256872
0.09363628
0.0929116
0.06924024
0.01470022
-0.07909485
-0.1197175
0.1239677
0.1704824
0.2039388
0.1902429
0.1993017
0.202436
0.2061666
0.1694352
0.1246534
0.2600175
0.1889283
0.2741199
0.2691723
0.3154486
0.3525212
0.3942816
0.4030562
0.3991492
0.005185517
0.242051
0.3401447
0.3511384
0.4187871
0.4911743
0.5932172
0.5998179
0.6237116
0.07468812
0.3245989
0.3722557
0.4181684
0.5049899
0.6202584
0.7911302
0.8636419
1.009646
0.09590138
0.3638252
0.4041838
0.4578258
0.5581145
0.6985763
0.9305944
1.211676
1.702021
0.09948493
1.116206
2.043897
-0.1005505
-0.003820483
0.008142119
-0.01153376
-0.0254274
-0.0008690062
0.007869998
-0.002119781
-0.01255728
0.006652869
-0.004656546
-0.00833984
-0.0346033
-0.006795016
-0.01930132
-0.005331257
-0.01371092
-0.01332722
-0.01539473
-0.01896622
-0.0846888
0.009424616
-0.04162727
-0.01703412
-0.02705341
-0.01931222
-0.0189352
-0.01938711
-0.02405136
-0.02645879
0.004773269
-0.01613168
-0.04303206
-0.02263802
-0.03269465
-0.02739999
-0.02682727
-0.02803952
-0.03189882
-0.03587769
-0.007227243
-0.03366769
-0.05220609
-0.0400589
-0.04015087
-0.03698079
-0.03559012
-0.03495814
-0.03657475
-0.03824279
-0.004183095
-0.05845397
-0.04786851
-0.04820108
-0.0466961
-0.04565008
-0.04572834
-0.04245101
-0.03817161
-0.03516911
-0.009102264
-0.04933906
-0.05341204
-0.06286226
-0.05789457
-0.05740835
-0.05402509
-0.04792253
-0.03915284
-0.02864595
-0.01046643
-0.03515127
-0.05540685
-0.06566554
-0.06622413
-0.06648666
-0.06327255
-0.05542438
-0.04154234
-0.02014647
-0.0004724874
-0.06246843
-0.07256716
-0.07226409
-0.07658768
-0.07849795
-0.07769352
-0.07025321
-0.0482753
-0.01566407
0.01077149
-0.071171
-0.07461329
-0.07679051
-0.08721176
-0.09481918
-0.1001388
-0.09492806
-0.06635402
-0.01233908
-0.1362403
-0.06383292
-0.07886574
-0.07753545
-0.1049392
-0.1185726
-0.1331685
-0.1408899
-0.09499007
-0.02374045
0.01905984
-0.0541696
-0.075432
-0.0851171
-0.1181512
-0.1460321
-0.1888125
-0.216437
-0.1589875
-0.02429697
0.02001351
-0.03483372
-0.05624903
-0.08299486
-0.1344398
-0.1810241
-0.2682679
-0.340839
-0.2091704
-0.05144022
0.03575602
-0.0433954
-0.04755261
-0.06746057
-0.1343799
-0.2161871
-0.3527531
-0.5441945
-0.6644359
-0.0207012
0.001647379
0.02308852
0.001603002
-0.02016718
-0.08352172
-0.1931763
-0.3474959
-0.6353354
-1.498631
0.01662032
0.07385509
0.05240136
0.03062
-0.01450163
-0.06422571
-0.1666487
-0.3394417
-0.4972197
0.01877097
0.1138831
0.1340859
0.1040223
0.08937885
0.0647944
0.01894431
-0.06862783
-0.1661661
0.0449257
0.1775102
0.206618
0.1905299
0.2015942
0.2067008
0.2073045
0.172922
0.1030307
0.06421438
0.2301629
0.2790187
0.2770068
0.3163386
0.3502446
0.3942136
0.3932118
0.3542875
0.06983733
0.3071326
0.3453571
0.3560545
0.4197656
0.4925489
0.5887296
0.6181004
0.6164164
0.001704198
0.347061
0.3734243
0.4204196
0.5036704
0.6184918
0.7818132
0.8848943
0.97326
0.01487055
0.3704922
0.4085798
0.4628918
0.5594086
0.6984005
0.9149339
1.197406
1.6234
0.02170826
1.145803
2.016672
-0.1196535
-0.01172077
-0.04068131
-0.01655302
2.589983e-05
-0.0730037
-0.01272199
0.008861097
-0.01515796
-0.02607412
-0.001869338
0.01169548
0.01663555
-0.005901889
0.0197079
-0.0387688
0.01770816
0.005593623
-0.01894966
-0.0530275
-0.006408759
0.001633124
-0.03088469
0.005627105
-0.0005265588
-0.02746099
-0.01139393
-0.004469994
0.00858683
-0.03047313
0.002448216
-0.003764706
-0.009101481
-0.01416228
-0.003939666
0.007997176
-0.02738584
0.001534964
-0.0001259075
-0.007670435
-0.006975128
-0.004128936
0.009272841
-0.02904218
0.003476232
0.0001443345
-0.006983288
-0.008366031
-0.004063929
0.00797284
-0.028891
0.003424445
0.0004869353
-0.006900813
-0.00704415
-0.004099869
0.007563494
-0.02995828
0.003464952
0.0002907111
-0.007547279
-0.008732699
0.006164836
0.003263528
-0.009181264
0.02366514
-0.03791891
-0.002907075
0.01216587
-0.009412628
-0.03228061
0.005111009
-0.04429882
-0.0006063077
-0.01273968
-0.0178825
-0.03094598
0.0005047032
-0.05066771
0.0005330428
-0.02190721
-0.02028667
-0.0289865
-0.004853066
-0.05603219
0.001606023
-0.02424288
-0.01981207
-0.03287624
-0.01017552
-0.06697078
0.002222631
-0.02649212
-0.0221455
-0.03692809
-0.01569149
-0.0688795
0.003414628
-0.03497444
-0.01888892
-0.03522724
-0.01776203
-0.07186115
0.003854307
-0.0347632
-0.02146895
-0.04516949
-0.02394035
-0.0758536
0.004306335
-0.03944321
-0.02068296
-0.0484764
-0.02600852
-0.07764525
0.004480134
-0.04335938
-0.02325287
-0.04917845
-0.01825107
-0.07470762
0.004123601
-0.04755711
-0.02182061
-0.05020803
-0.01542932
-0.06660065
0.004371921
-0.03959174
-0.02286868
-0.04178475
-0.004553379
-0.04642451
0.004314909
-0.0269238
-0.01853116
-0.02562257
0.01600886
-0.02718343
0.002402367
-0.01396021
-0.01513727
0.001488434
-0.06967047
-1.687625
0.349116
-0.6646923
-0.08391285
-1.67714
0.3834876
0.01891817
-0.005200971
0.0001501109
0.01180583
-0.001838364
0.01158088
-0.6029093
-1.499675
-0.6672963
0.05833652
0.03020038
-0.00452128
0.03472449
0.0004794841
0.06186516
-0.2153322
-0.4944427
-0.2308431
0.1086481
0.09225024
0.001392328
0.08186077
0.004136518
0.1159921
0.08510115
-0.1694756
0.06722745
0.161853
0.1522623
0.02263494
0.1416012
0.004110821
0.1652055
0.3154977
0.102597
0.2930661
0.2151003
0.2016492
0.02609138
0.1916072
0.004339016
0.2132133
0.5550607
0.3536544
0.524865
0.2626911
0.2383348
0.02152382
0.2347079
0.004422446
0.247804
0.8591526
0.6100743
0.8305719
0.2968572
0.2683336
0.0213724
0.2751216
0.004598023
0.2744133
1.354797
0.9373723
1.362565
0.3245692
0.2791629
0.02134795
0.2993939
0.004697381
0.2825429
2.050133
-0.3804117
1.671859
2.400354
-0.05611127
-0.4611295
-0.3003478
0.3304537
0.02105019
0.3070181
-0.006723129
0.006260943
-0.056917
-0.01921863
0.01936303
-0.05507679
-0.093097
-1.672746
0.3764421
-0.6806262
-0.08167306
-1.66214
0.3721943
-0.6730816
-1.497141
-0.6768981
2.363766
-0.1126942
1.58826
2.366979
-0.1285922
-0.01992371
0.01657384
-0.08803665
-0.02356158
0.02095106
-0.07674644
-0.07554841
-1.661695
0.3740582
-0.6721453
-0.07318632
-1.662927
0.372062
-0.6851455
-1.493917
-0.670845
2.353888
-0.1222771
1.625491
2.357547
-0.1208347
-0.02554733
0.02074108
-0.08631684
-0.02804333
0.02051191
-0.07992031
-0.07380191
-1.661665
0.3710947
-0.6746758
-0.07293553
-1.661434
0.3710952
-0.6848355
-1.493074
-0.6731295
2.352342
-0.1393019
1.629063
2.354264
-0.1248746
-0.0256185
0.01654048
-0.1015074
-0.0343901
0.01738646
-0.09564592
-0.07094516
-1.662199
0.3704882
-0.6726297
-0.07100398
-1.661886
0.3707136
-0.6868568
-1.493547
-0.6809303
2.352247
-0.1411577
1.623327
2.351054
-0.1295548
-0.03028113
0.02290552
-0.09813358
-0.03181552
0.01418459
-0.1004091
-0.07014576
-1.662863
0.3707678
-0.6734645
-0.07096774
-1.662192
0.3701722
-0.6874509
-1.49315
-0.68756
2.351391
-0.1420688
1.623672
2.351175
-0.1417448
-0.0323404
0.02123738
-0.1041855
-0.03361279
0.02289275
-0.08950394
-0.07345804
-1.661472
0.3707956
-0.6744448
-0.07456987
-1.661039
0.3706268
-0.6754163
-1.494067
-0.6858745
2.354558
-0.1266749
1.612089
2.354665
-0.1409289
-0.0278221
0.02129288
-0.09583247
-0.02342905
0.01912183
-0.09586366
-0.672741
-1.49672
-0.6853629
2.358041
-0.1219474
1.706381
2.391119
-0.1191717
-0.02006435
0.02047705
-0.06239759
-0.0126227
0.01540322
-0.05032926
-0.6768872
-1.492068
-0.6735637
2.40084
-0.1047517
1.65169
2.39118
-0.09252362
-0.04214144
0.00157775
-0.09049311
-0.06354529
-0.002051288
0.0477225
0.01757361
-0.01047014
-0.0178018
0.01016894
0.03060754
-0.04671275
0.02593697
-0.03876634
-0.02415796
-0.006320483
-0.02079852
-0.01070358
0.01531613
-0.02072275
-0.009299269
0.0273337
-0.0317631
0.01661038
-0.02596651
-0.003647446
0.02117324
-0.02269997
0.008527416
-0.02546823
-0.004434729
0.01389921
-0.02060412
-0.03673272
0.01278762
-0.02833974
-0.02144541
0.02531925
-0.02790864
0.01062588
-0.0275265
0.0193424
0.01358974
-0.004992949
-0.003350012
-0.05129548
-0.00785991
-0.07927265
-0.01735213
-0.05722878
-0.04688305
-0.02045299
-0.07322698
-0.06124231
-0.02598633
-0.04571348
-0.02089929
-0.02688747
-0.03714178
-0.03816226
-0.02079947
-0.0385613
-0.000968709
-0.004075689
0.00666185
-0.0577987
-0.04486942
-0.0424229
-0.01809572
-0.0002122455
-0.01250445
0.04635293
-0.04560108
-0.006066341
0.07526434
-0.03036719
-0.06552133
0.01620509
-0.0005401643
-0.0704455
-0.02366291
-0.08230954
-0.03825056
-0.02804628
-0.0552312
-0.03116166
0.07251633
-0.0614482
-0.02254983
-0.06706303
-0.0625175
0.008099846
-0.05459665
-0.01129722
-0.0862863
-0.06324233
-0.01349941
-0.07212881
-0.0007826455
-0.03473545
-0.02693163
-0.09753901
-0.07916556
-0.006671812
-0.0371119
-0.0009712101
-0.02505709
0.06014902