/*--------------------------------*- C++ -*----------------------------------*\
  =========                 |
  \\      /  F ield         | OpenFOAM: The Open Source CFD Toolbox
   \\    /   O peration     | Website:  https://openfoam.org
    \\  /    A nd           | Version:  7
     \\/     M anipulation  |
\*---------------------------------------------------------------------------*/
FoamFile
{
    version     2.0;
    format      ascii;
    class       volScalarField;
    location    "0.1";
    object      Uz;
}
// * * * * * * * * * * * * * * * * * * * * * * * * * * * * * * * * * * * * * //

dimensions      [0 1 -1 0 0 0 0];

internalField   nonuniform List<scalar> 
78470
(
-0.001388672
-0.005156014
-0.001573493
-0.001315576
-0.001684238
-0.001112906
-0.001232013
-0.001205898
-0.001358804
0.001787041
0.01211186
-0.004226666
-0.001579505
-0.002072876
-0.001236433
-0.0006829102
-0.000543275
-0.000452702
-0.0007328693
0.0248769
0.006442613
0.002725019
0.0004335344
-0.0006796193
-0.0001883303
9.668802e-05
0.0003770531
0.01852274
0.03123397
0.01044412
0.002619739
-8.042338e-05
-0.00082968
-0.0002210635
-0.0001127748
0.0001784231
0.02378515
0.03083303
0.01208437
0.0004346738
0.0006801003
-0.001845866
-0.0005002695
-0.0005298972
-3.39232e-05
0.03441933
0.03797806
0.01268625
0.001250234
0.0007526962
-0.001186418
-0.0001966165
4.967949e-05
0.0002474684
0.04102651
0.03354575
0.01131863
-8.34899e-05
0.001459967
-0.001112326
0.0001483423
0.0004922692
0.0004520535
0.04429717
0.04491013
0.01345402
0.001851116
0.0005606927
-0.0003218149
0.0007419074
0.0009290602
0.0004877681
0.04308203
0.02721845
0.01047091
0.001568609
0.002084373
0.001039796
0.001549914
0.001469156
0.0008963743
0.03725125
0.02331081
0.009923013
0.003400675
0.001485391
0.002381618
0.001762699
0.001640241
0.000385766
0.04252824
0.02617523
0.01039936
0.002623018
0.002093936
0.0005405468
0.002707588
0.001919304
0.001272032
0.03670815
0.03968257
0.01221361
0.005046863
0.001014074
-0.001606495
-0.005583742
-0.0007596236
-0.003069063
0.04623037
0.02806958
0.007701972
0.003015129
0.002913946
-0.007792379
-0.007393615
-0.01458932
0.002961709
0.04177676
0.03510485
0.01025495
0.004994235
0.002271166
-0.01342506
-0.02618374
-0.03021227
-0.03612673
0.03632218
0.03578773
0.00439221
0.001799696
0.009490685
-0.02092164
-0.04065926
-0.03660324
0.02407858
0.02646438
0.006254692
0.001751502
0.006484276
-0.01706556
-0.02351173
-0.008969111
0.01120588
0.02395137
0.002045477
0.0009404316
0.002782497
-0.01184438
-0.01247847
-0.004053349
0.01045415
0.02315786
-0.0001303768
0.0004935032
-0.0003434208
-0.009253192
-0.01235408
-0.003161495
0.007261806
0.02082678
-0.002327614
-0.0009923615
-0.001219825
-0.01209346
-0.01308078
-0.003235638
0.01545408
0.02332388
-0.002272064
-0.0005327735
-0.002991253
-0.01478278
-0.01211936
-0.004711385
0.01372069
0.02417989
-0.0004099491
-0.000209004
-0.0005854122
-0.02388636
-0.01856284
-0.001921431
0.01169194
0.02337751
-2.345481e-06
0.000808564
-0.0009710307
-0.02774317
-0.02792954
-0.005592611
-0.04377929
-0.05149727
-0.2440023
-0.03718712
0.0112719
0.002708399
0.002500181
0.005722165
0.004379021
0.004528615
0.003995168
0.004317328
-0.06162555
0.004166623
0.006015716
-0.003300035
-0.004657707
-0.001381546
-0.000683513
0.0005031853
0.0004717028
0.0002651007
-0.2145789
0.03560858
0.01246918
0.01456526
-0.0005895372
0.004089133
0.002727299
0.002335031
0.001805506
0.001168553
-0.2904749
0.02151316
0.001568129
0.02034725
0.000292707
0.004081974
0.002523649
0.001922416
0.0007743007
0.0005966773
-0.3233201
0.03531321
0.002335195
0.02753027
0.001107716
0.005258875
0.003226704
0.002498204
0.001096129
0.0007368004
-0.3406598
0.03069472
-0.005088726
0.02822466
0.0003381212
0.004549372
0.002694852
0.00209766
0.0008113747
0.0006729747
-0.3509556
0.02836792
-0.008274907
0.02864357
0.001307938
0.003188281
0.0009736592
0.001425224
0.001151213
0.0005414071
-0.3463749
0.02860086
-0.0110187
0.03010928
0.002626063
0.002934288
-0.0002619643
0.0008518336
0.0005267919
-4.78179e-05
-0.3455767
0.02962704
-0.008238589
0.02787198
0.002947977
0.003192265
-0.001687458
0.0008342336
0.0008230186
2.603135e-05
-0.339197
0.03134649
-0.007908833
0.02716744
0.001974717
0.003183695
-0.001999
0.0002259999
-1.985937e-07
-0.00122601
-0.3434499
0.02085799
-0.009858865
0.02885218
0.002827414
0.003506279
-0.0009706627
0.001936457
9.725988e-05
0.0002294275
-0.3444368
0.02161435
-0.01143091
0.03106141
0.001428329
0.004095149
0.001867881
0.0001934808
0.003425995
-0.002978835
-0.3498874
0.01630998
-0.01035124
0.0344462
0.001318636
0.005734917
0.004466774
0.01634107
0.005544919
0.00593021
-0.3391878
0.02178666
-0.01280342
0.03395753
-0.000546509
0.00427836
0.01081938
0.0008122299
0.0007962414
-0.00574612
-0.3105327
0.02656936
-0.00991461
0.03633991
0.00385221
0.008313609
0.002842378
-0.009447532
0.006601511
-0.2495784
0.01842429
-0.005696385
0.03560237
0.003814863
0.003310701
-0.005500842
-0.002963299
0.0056965
-0.1522162
0.01430955
-0.006403343
0.03022544
0.002682529
0.00860023
-0.003437074
-0.001300656
0.007674056
-0.1017493
0.03261594
-0.003896596
0.02574177
0.003252094
0.003367775
0.002120861
0.002082261
0.01788351
-0.07023762
0.03638462
-0.006221248
0.01814233
0.001035767
0.004615867
0.004226657
0.008617932
0.018889
-0.05945862
0.03850015
-0.006269533
0.01439314
4.755394e-05
-0.003046242
0.008767056
0.02376485
-0.001213071
-0.05679321
0.03361704
-0.01122188
0.01436529
-0.0003942077
0.005007218
0.002628202
0.003925793
0.01110822
-0.05589952
0.03350239
-0.0128615
0.01466961
0.002847179
0.005216088
0.01617731
0.00519905
0.04487203
-0.05524565
-0.002816554
0.04836997
0.04389863
-0.01158968
0.0001625419
0.009433773
0.0003904114
0.001816504
0.0008865682
0.0007413701
0.0002402368
3.092045e-05
0.001878378
0.006907648
-0.01632666
0.002389469
-0.003903234
0.0004979241
0.0001539321
0.0007942419
0.0006495493
0.000322052
-0.1157378
0.05855394
0.009536119
0.02576745
0.002223871
0.003739272
0.002219835
0.001833188
0.001420727
0.0007577695
-0.186647
0.1248455
0.008435412
0.03158759
-0.0001320216
0.003233049
0.001726156
0.001478884
0.0006133746
0.0003418998
-0.2059454
0.1295164
0.01606019
0.03615349
0.003210642
0.003383879
0.002138481
0.001737442
0.000980996
0.0005674576
-0.1982318
0.1276906
0.007693872
0.03814947
0.006105634
0.005669183
0.0009070792
0.001532001
0.0003586037
-0.0001151897
-0.2386502
0.1388412
0.02318975
0.04021366
0.01128186
0.00828604
0.002029296
0.001701842
0.000291194
4.838875e-06
-0.187789
0.1167033
0.008402778
0.03383356
0.008661257
0.007307197
0.003038289
0.00199084
0.0005452113
-0.0003179616
-0.2278995
0.10752
0.02510284
0.03707001
0.009578811
0.007774833
0.005374348
0.002844674
0.0006548419
-0.0004979776
-0.1894122
0.105144
0.02733565
0.03683586
0.008737321
0.007736554
0.003556047
0.002051086
-0.0002503305
-0.001534726
-0.2372641
0.1312832
0.02300734
0.03872278
0.006646872
0.00724914
0.003475436
0.001690978
-0.0007649445
-0.0006108919
-0.2123897
0.1224491
0.01029803
0.03926071
0.006337897
0.005305383
0.0006612549
-0.001387597
0.0005191653
-0.002620819
-0.2591004
0.1494973
0.01041822
0.04391626
0.004961187
0.005124076
-0.001227106
0.002569408
-0.001481177
0.0009531706
-0.2548856
0.1491174
0.02089162
0.04857385
0.0001009931
0.002895567
-0.003829714
-0.002204603
-0.002435025
-0.004180133
-0.2134789
0.1221574
0.002774215
0.04815705
0.0102819
-0.001439585
-0.008688929
0.005063816
-0.0008061461
-0.2475269
0.1588328
0.003372171
0.04796976
0.005481821
-0.009694403
-0.01730293
-0.01042595
-0.01525417
-0.1758936
0.1131634
0.006807079
0.03585255
-0.0005273165
0.001276376
-0.01483832
0.009001572
-0.003145559
-0.1332724
0.09070019
0.001802486
0.02889309
-0.001536582
0.0006867766
-0.004760588
0.01066715
-0.1091144
0.05882594
0.004669875
0.02791594
-0.00124642
0.002418602
0.0004328896
0.01956937
-0.1032748
0.0590572
0.001117656
0.02797324
0.001215783
-0.004279095
0.001565366
-0.007432995
0.02929684
-0.08613787
0.05570011
-8.168056e-05
0.02518325
-0.001124478
0.001649467
-0.005551761
-0.009179465
-0.009811307
-0.09951766
0.06878144
-0.002855399
0.02523045
0.001675858
0.004907726
0.0009779039
0.005168934
0.002655091
0.003868159
0.01860263
0.002354419
-0.01003403
-0.001767745
0.003592408
-0.0007156815
0.0009053083
0.00144434
0.001341113
0.001158
0.001081333
0.001500407
0.006963252
-0.004734977
0.002352561
-0.001616977
0.0003000183
-0.0002604131
0.0006200111
0.0007418798
0.0005554212
-0.04125171
0.01486269
-0.003053655
0.008460299
-0.0007045113
0.001589492
0.0004136311
0.0008133113
0.0008958828
0.0005702799
-0.07934514
0.05991269
0.005062479
0.01659421
0.002332389
0.00162705
8.873013e-05
0.0003871891
7.852677e-05
0.0002488929
-0.1512468
0.1143745
0.0128745
0.01942056
0.004051602
0.001895804
-0.001686142
3.812568e-05
9.15437e-05
2.601767e-05
-0.163638
0.1069072
0.004743182
0.01602825
0.002850716
0.002631587
0.001487582
0.001023308
0.0004333805
9.079402e-05
-0.1558291
0.106709
0.0007770939
0.005812007
-0.001958496
0.001290187
0.0009830755
0.0009484082
0.0004774007
-2.706045e-05
-0.2190295
0.1553195
0.01051473
0.008938301
-0.007303616
-0.001211805
-0.0007074854
0.0004022892
4.048854e-05
-0.0004033789
-0.1918282
0.1371758
0.01211884
0.002860623
-0.01104078
-0.005262454
-0.0003278628
0.0004373098
9.705911e-05
-0.0005827357
-0.2242746
0.1630629
0.01221461
0.003923169
-0.0115986
-0.005236527
-0.0001603646
0.0006997508
-0.0002718112
-0.001147265
-0.1488384
0.1077674
5.85699e-05
0.001247048
-0.008569516
-0.003959889
0.001067847
0.001344238
4.653287e-05
-0.000470254
-0.1658808
0.1195715
0.003285642
0.007867517
-0.003513471
-0.0006382876
-0.0001729643
0.000203368
0.0003930658
-0.001224726
-0.1176994
0.124566
0.001655536
0.007224995
-0.001988722
0.002687221
0.001403088
0.004574309
0.00108619
0.003758024
-0.1916699
0.1034031
0.001053702
0.005956624
-0.005377918
0.0006768216
0.0007850071
-0.000480191
0.0006853606
-0.0003778301
-0.2094256
0.109924
0.002167563
0.01366109
9.314866e-05
0.004278849
0.001204196
0.0009219157
0.00049457
-0.1160079
0.1225858
0.006672446
0.01667398
0.001931229
0.0002454615
-0.002236969
-0.000420434
-0.0002779879
-0.08808671
0.05267613
-0.001322146
0.01468527
-0.000214494
0.003874772
-0.0004483844
0.003525472
0.004760776
-0.08342591
0.04876659
0.002661977
0.01230159
-0.0001306849
0.001269812
0.003277575
0.003869682
-0.0313147
0.009955225
-0.0006045302
0.00891845
0.0007207054
0.003384553
0.004874158
0.00344141
-0.03364729
0.009851823
-0.005060401
0.003951288
0.00085603
0.00150732
0.00290612
0.002084544
-0.003461654
-0.01527615
0.01477969
-0.01048449
-0.003047195
-0.003726646
0.0001253153
0.002338064
-0.00207411
0.0002654597
-0.02353127
0.01439007
-0.009814918
-0.001836005
-6.201492e-05
0.002077541
0.004620521
0.002163696
-0.004060779
0.001962603
0.007784785
-0.000760471
-0.006666879
-0.003563725
0.002187034
0.0006130708
0.0009981248
0.0007078866
0.0005282664
0.0002086903
-0.0002328144
-0.003239582
0.009949953
0.006312973
0.009144888
0.001992829
0.002447094
0.001375137
0.000618358
0.0002775644
-0.0001204036
-0.01696277
8.819198e-05
-0.007521362
0.003971524
-0.001424958
0.0004561224
0.0009840215
0.0007141731
0.0008755218
0.0002015546
-0.04238689
0.03558509
-0.001963429
0.01087043
0.003043869
0.00268046
0.0009062235
0.0004730792
0.0001838529
-9.790931e-05
-0.02791125
0.04007064
-0.001732089
0.002341219
-0.0001767738
0.001249161
0.0009454699
0.0005988196
0.0002746316
-0.0001769415
-0.07570083
0.08829634
0.003728114
-0.001593493
-0.00413371
0.0004609902
0.0006043933
0.0009576235
-5.215361e-05
-0.0005753237
-0.1139611
0.1165964
0.0220123
-0.002738624
-0.008850057
-0.004237735
-0.003117727
-0.001320514
-0.001737823
-0.001411961
-0.01534154
0.06208821
0.005962242
-0.004755454
-0.005153444
-0.003232684
-0.003829471
-0.002387
-0.001690739
-0.001499618
-0.07328622
0.07691972
0.02208988
-0.003297615
-0.006165721
-0.004853774
-0.007755048
-0.003932048
-0.002863724
-0.002457569
-0.01861769
0.0662163
0.02464034
-0.004229624
-0.004961
-0.004527625
-0.007436964
-0.004426549
-0.003226429
-0.002575778
-0.05202652
0.093309
0.01628176
-0.006463243
-0.009043679
-0.006049225
-0.007185878
-0.00401178
-0.002615505
-0.003053805
-0.1616168
0.1486741
0.03502856
-0.0005017783
-0.01221866
-0.007589078
-0.006626468
-0.004154845
-0.003161768
-0.002623178
-0.02679344
0.01449787
0.000116612
-0.007541795
-0.01001774
-0.004792079
-0.003579968
-0.002766415
-0.003344377
-0.001522149
-0.1268198
0.1488653
0.03774365
-0.001300875
-0.01461993
-0.009879182
-0.007284708
-0.003572169
-0.00166631
-0.0003335557
-0.06129786
0.09664642
0.0117485
0.002771749
-0.002905323
-0.004145363
-0.004775034
-0.001478252
-0.004183459
-0.01983101
0.0211366
-0.009034015
-0.004602694
-0.001425694
0.006485929
-0.002651845
-0.002770386
-0.001034591
-0.079796
0.0551434
-0.006810762
0.01284431
0.001500943
-0.0005713515
-0.002918633
5.03934e-05
0.001419682
-0.01774805
0.005830264
-0.005112681
0.008002907
0.002078365
0.002625433
-0.001477717
0.001564007
-0.02474032
0.02504965
-0.004873889
0.007409736
0.00096342
0.002227661
-0.000728103
0.001816199
-0.01068259
0.002123046
-0.00507701
0.005255326
0.002461831
0.002133247
-0.001077711
-0.002099215
-0.08733575
0.002358249
0.01311024
-0.004821501
0.00154876
-0.002489206
0.0004515623
-0.0008782408
0.001907261
0.008709693
0.001448293
0.003939639
-0.007836225
0.000715508
7.158956e-05
0.001949924
-0.0004789578
0.001891209
-0.01134947
0.000587815
0.002238443
6.825315e-05
-0.00722246
-0.001403129
-0.003332135
-0.001544993
-0.001293608
-0.002341324
-0.001396358
-0.0008160228
-0.0004510966
-0.001591243
-0.003032162
-0.001366087
-0.001140179
-0.0005635258
0.0003783942
0.0003573274
-0.0003115816
-0.000265931
-0.000362145
0.005358859
-0.007831087
-0.003980489
-0.005813351
-0.001922516
-0.001423135
-0.003301208
-0.001156564
-0.001462085
-0.0009953763
0.002830197
-0.008206467
-0.001911635
-0.003020257
-0.002096636
0.001182787
0.001231854
0.0006202138
0.0006343771
-5.490873e-05
-0.004112259
0.005252215
0.005200393
-0.001724329
-0.005065052
-0.002411907
-0.004171239
-0.001755843
-0.001949539
-0.001382783
0.01849381
-0.02924351
-0.007039002
-0.000948179
-0.00109647
0.0001638532
0.001412225
0.0008015766
0.0001149802
-0.0002399424
-0.001152624
-0.01342769
-0.004477134
-0.000690873
2.584271e-05
-0.0007024229
0.0004062941
-0.0005499055
-0.0002712029
-0.000665565
0.06883573
-0.06864464
-0.01803133
0.000444069
0.003216685
0.003074085
0.003668382
0.002224133
0.0007907392
-8.840456e-05
0.00672259
-0.02634344
-0.007192436
0.002317929
0.003281208
0.002464728
0.003006897
0.001162766
-0.000530375
-0.0008867939
0.06636359
-0.09334732
-0.03636252
-0.003497886
0.003807797
0.004239337
0.005665754
0.002628916
0.0005505119
-0.0004319524
0.01708986
-0.04904069
-0.01926465
-0.002150735
0.002223839
0.002614885
0.003033631
0.001078207
0.0001129847
-0.0009812012
0.002292001
-0.002318971
0.001282587
0.002275756
0.003375127
0.003048431
0.002969029
0.001484092
0.0005858725
-0.00044423
0.007597938
-0.01795577
-0.0002353164
0.0008639257
0.002725896
0.002291223
0.002283218
0.0007029241
0.0003591412
-0.001708047
-0.001645814
-0.01337789
-0.009089679
-0.003222819
0.0009011567
0.0008705853
0.0009636413
-0.002976798
-0.001974996
-0.002252786
0.03570967
-0.03774838
-0.009278899
-0.0037064
-0.0006833686
0.003380458
0.002477847
-0.002005463
-0.004654354
-0.03064323
0.03309556
0.01340945
0.0004772041
-0.007337075
-0.005216626
0.0006260228
0.0008053582
-0.005266969
-0.003652293
-0.003256845
0.002163512
-0.00199819
-0.0005226961
0.003323802
0.002520988
0.0006148635
-0.004709391
0.001326242
-0.01433696
0.002052177
0.0005905995
-0.0007928083
0.0008287327
0.000854333
-0.001273212
-0.00225854
-0.009835106
0.0007565191
-0.002553412
-0.001701233
-0.001280028
0.0007185709
-0.0009734866
0.01290553
-0.02522574
0.0056133
-0.0003721282
0.0008635007
0.001061024
0.002125472
0.001727946
0.003148525
-0.005351933
-0.01517697
0.002452546
-0.0005831573
0.003292119
0.0009615924
0.002928849
0.002476862
0.001862677
-0.00139334
-0.01467271
0.007617286
-0.0009099351
0.0004191988
-0.001112249
-0.0007242801
-8.654554e-05
-0.01525648
-0.001015436
-0.001411707
-0.001727737
-0.002905776
-0.003236334
-0.004485986
0.0007256446
-0.002258955
-0.001009408
-0.001046933
-0.001292879
-0.001792125
0.002581896
-0.003837408
0.001345252
-0.000258171
0.00105412
-2.607294e-05
0.0002293594
-0.0005288137
-0.0007640155
-0.001411236
0.02502248
-0.008802601
0.003818919
-0.004411643
-0.000110819
-0.001355894
-0.0007020504
-0.0007945501
-0.001015934
-0.0009945595
0.06888364
-0.01896352
0.0002304673
-0.009859854
-0.002363497
-0.001211889
0.0008363657
0.0001619722
4.715621e-05
-0.0006614846
0.02128427
-0.02265199
0.002314663
-0.007091485
-0.002080446
-0.00130898
-0.0003029281
-0.00049961
-0.0003646613
-0.0006502681
0.09489116
-0.04590124
0.0008481446
-0.0002875197
0.005401718
0.001657996
0.001137629
6.564277e-05
-1.547671e-05
-0.0003413699
0.2387202
-0.1674784
-0.02437754
-0.004587669
0.006212883
0.00206268
0.001351361
0.0002869909
-0.0004188421
-0.0005168131
0.1405573
-0.1160411
-0.01338829
-0.002528446
0.007222172
0.003120784
-0.0006106976
-0.001194886
-0.00108221
-0.0009995875
0.2495607
-0.1906864
-0.0321861
-0.007921972
0.007316144
0.002987837
0.0005605511
-0.0007133815
-0.001752282
-0.001551652
0.1871779
-0.1522048
-0.02135724
-0.001649694
0.01257159
0.005941594
0.0008330724
-0.0008500346
-0.001209452
-0.0008243046
0.1961021
-0.1554543
-0.01938505
-0.000598209
0.01455159
0.006315972
-0.0004938789
-0.001916698
-0.001571331
-0.001612747
0.1681761
-0.1198205
-0.01354823
0.001066123
0.01421639
0.007238348
0.003533538
0.000613721
-0.0007348646
-0.0001808543
0.0596363
-0.06458699
-0.005674807
0.002018674
0.01044448
0.003370505
-0.001709279
-0.005658312
-0.002848342
-0.007010319
0.2220622
-0.145732
-0.02118252
-0.001176122
0.01424717
0.009534184
0.003088923
0.001105554
0.0002640152
-0.001597277
0.1667113
-0.1065819
-0.0213523
-0.006194025
0.004645534
-0.0008863747
-0.0007497114
-0.0002344095
-0.002029658
0.01569633
-0.01781231
0.000204196
-0.007019271
-0.00143521
0.004708907
0.002146594
-0.001330013
0.002010631
0.0371182
0.0008917101
0.006398326
-0.006938425
-0.003351519
-0.004496583
-0.001061437
-0.004635734
-0.002805021
0.026454
-0.01962156
0.01030137
-0.002481135
0.001977917
0.002272466
-0.001740253
-0.00313204
0.04046166
-0.01374972
0.0008935753
-0.001997943
0.0006322808
-0.001518981
-0.00416169
-0.001212951
0.0246699
-0.02565083
0.003105031
-0.0002970373
0.002569893
0.0009032373
0.0006081198
-0.003484737
0.01653864
0.00424553
-0.01885234
0.007108493
0.002429169
0.004373396
0.0009435886
0.003085189
0.00234555
0.0008814449
0.01799002
-0.01034282
0.008848158
0.002527049
0.0001540754
-0.001493998
-0.00708631
-0.004242714
-0.0209065
-0.004849482
-0.006957528
-0.009544941
0.001394077
-0.01235053
-0.007096966
0.001238544
-0.003341262
-0.001617144
-0.002403797
-0.001092632
-0.0001550821
0.004372527
-0.01290952
0.01036155
0.002749326
0.004015966
0.00124266
0.0008343852
-0.001322653
0.0003001143
-0.0001841008
0.08454825
-0.06296611
-0.01111054
-0.0192088
-0.002107809
-0.002817746
-0.001798813
-0.0006704572
-0.0008109287
-0.001078375
0.06980443
-0.04592196
-0.01334501
-0.01989296
-0.003126642
-0.002999752
-0.003249393
-0.002242743
-0.001012315
-0.000965731
0.1685011
-0.1406182
-0.02048061
-0.02249523
-0.003447483
-0.001515466
0.0001254121
-0.0004817917
-0.0006408015
-0.0009146092
0.1286149
-0.08823153
-0.02255494
-0.02241026
-0.005719814
-0.00494621
-0.004572906
-0.003100446
-0.001417477
-0.00119342
0.2096904
-0.1162346
-0.0160278
-0.0286501
-0.007244406
-0.006121797
-0.003132941
-0.002799877
-0.001536829
-0.001320515
0.2250518
-0.1144908
-0.02462296
-0.03686684
-0.01269451
-0.009298894
-0.005457794
-0.003603181
-0.001892813
-0.001263386
0.2089
-0.1002991
-0.02168462
-0.03225137
-0.007983866
-0.007063833
-0.003683633
-0.003414911
-0.002218978
-0.001486103
0.2037566
-0.09599022
-0.02682116
-0.03453205
-0.01229333
-0.009148662
-0.005058576
-0.00339345
-0.001513598
-0.0005543247
0.1935115
-0.1233518
-0.0247276
-0.0236082
-0.004932073
-0.0087517
-0.004269825
-0.002700841
-0.0009669627
-0.001736776
0.1420449
-0.07965013
-0.01464247
-0.01872888
-0.005051061
-0.004794224
-0.002475806
-6.891555e-05
-0.00242351
0.0001375816
0.18041
-0.1275939
-0.008578274
-0.019861
-0.005073836
-0.007872001
-0.001426295
-0.004265796
-0.0008631187
-0.003796917
0.1921261
-0.0946691
-0.01756313
-0.02804644
-0.006075601
-0.004727658
0.001577649
-0.001147711
-0.002611759
-0.0005926615
0.2401938
-0.1080962
-0.01651244
-0.01993284
-0.005280819
-0.004897644
0.005234592
-0.005410362
-0.008605906
0.1759295
-0.1499877
-0.02115062
-0.01305448
0.006023701
0.007060587
0.01245408
0.008944991
0.0007648853
0.04024785
-0.0425113
-0.004511678
-0.01090414
6.250514e-05
-0.002444647
0.01273826
-0.01192664
-0.003715339
0.09919218
-0.0793715
-0.01211046
-0.01988332
-0.001831402
-0.0002146148
0.004258414
-0.0118915
0.01990667
-0.05440556
-0.01145042
-0.01307012
0.0004052836
0.0004599423
-0.0004694641
-0.02056917
0.09121641
-0.07171392
-0.001226145
-0.01386906
-0.000167479
0.006870864
-0.002317287
0.005550333
0.09611259
0.08739525
-0.0519187
-0.004048494
-0.02212122
0.002349438
-0.0006176177
0.01183075
0.01138367
-0.02726879
0.09613534
-0.0698378
0.00309102
-0.02274137
-0.00174577
-0.003654941
-0.002318602
-0.009730667
-0.04141745
-0.005406667
-0.01799574
-0.01141123
0.0227522
0.007443975
0.01383992
0.01153582
-0.01291819
-0.006278058
-0.008528853
-0.006830631
-0.001151543
0.004169487
-0.02871515
-0.01690143
-0.001037892
-0.001157997
0.0004028175
-0.0007446455
-0.00203011
-0.0007945852
-0.002660501
0.02646933
-0.02715138
-0.006711143
-0.01656274
-0.003530163
-0.005383764
-0.002775926
-0.001807146
-0.001336666
-0.0008471669
0.1880081
-0.07365822
-0.01773936
-0.02233082
-0.003919491
-0.003286037
-0.001586875
-0.0009431867
-8.131791e-05
-0.0007537595
0.1812563
-0.08165575
-0.01673382
-0.02776998
-0.006349948
-0.00524482
-0.002802718
-0.002464145
-0.001388556
-0.0009679737
0.2427064
-0.0941525
-0.01513055
-0.03040004
-0.01009029
-0.006122237
-0.001391464
-0.0009587771
-0.0002218585
-0.0004019095
-0.02462845
-0.04944595
0.02081735
-0.02016803
-0.003003256
-0.004120752
-0.001392699
-0.002068902
-0.0007453668
-0.0004944401
-0.01573156
-0.06445321
0.003277445
-0.02730403
-0.0053024
-0.004549
0.001064611
-0.0005335042
-0.0005666201
-0.0003446478
-0.01483922
-0.04682946
0.009015682
-0.02647933
-0.006620967
-0.004266854
-7.896787e-05
-0.00152731
-0.001051593
-0.000620963
-0.01358486
-0.05740546
0.003104144
-0.02556682
-0.005674427
-0.003507985
0.003619568
0.0003295587
-0.0003443298
0.0003525289
0.02079073
-0.06213624
0.02071055
-0.02015531
-0.005837198
-0.003415289
0.001581935
-0.001994843
-0.000852212
-0.001196868
0.2619331
-0.1104611
-0.02099843
-0.03237531
-0.009045997
-0.005567291
-0.002400972
-0.0004713114
-0.004414848
0.001798703
0.1626849
-0.0661172
-0.007445165
-0.0298304
-0.006485215
-0.004253987
-0.00408876
-0.01672511
-0.006769556
-0.007537443
0.05053928
-0.078576
-0.005016946
-0.03289429
-0.005526619
-0.004626196
-0.01162917
-0.01004094
0.002382873
0.006699284
-0.0139424
-0.05478545
0.008029484
-0.02812008
-0.005298085
-0.0005784368
-0.0003958969
-0.01004426
-0.00738684
0.1699243
-0.05370902
-0.007467662
-0.02145705
-0.008990373
-0.005979573
0.003533973
-0.01414595
0.01754047
0.2105569
-0.1153282
-0.01701144
-0.02437548
0.001181953
0.002559308
0.00302478
-0.02862813
0.003575015
0.1232775
-0.06132991
-0.01496568
-0.02161966
-0.004270154
-0.00273785
-0.002680613
-0.0464232
0.01670037
0.1125908
-0.05860581
-0.009500311
-0.01657013
0.0001635796
-0.0007535159
-0.002956227
-0.0562636
0.002467525
-0.01985792
-0.0526518
0.006697272
-0.01401451
-0.00205056
0.004495329
-0.01119512
-0.04844146
-0.02181395
-0.0234914
-0.04380953
0.01081854
-0.01298331
6.762585e-06
-0.003466804
-0.006438223
0.01230091
-0.01056062
-0.009081533
-0.03909022
0.01263932
-0.01255493
-0.002086391
-0.005423032
-0.0147888
-0.01978721
-0.02223844
-0.0162414
-0.01776268
-0.0239537
-0.002000261
0.01158138
0.02747943
-0.01844729
0.02838365
0.02479447
0.02093326
0.005991765
0.01872528
0.02675039
-0.02125344
-0.03333734
-0.0287272
-0.0008460192
-0.001182845
-0.0001751935
-0.001576985
0.0005652327
-0.001403628
-0.002849345
0.002309053
-0.03918862
-0.02697574
-0.00257285
0.0001620244
0.001151608
0.001088711
0.0002811459
0.0004991791
0.0003113894
0.03578483
-0.06224218
-0.03636431
-0.01316708
-0.000299219
-2.41688e-06
0.0003363457
-0.0002374984
-0.000680202
-0.0009737439
-0.008551199
-0.06511712
-0.03204206
-0.01386012
0.001110517
0.0007170697
0.003612324
0.00205589
0.001017272
9.938462e-05
-0.02277679
-0.05172988
-0.03359348
-0.0154023
0.001842062
0.0005092978
0.002574773
0.0008865162
-5.901062e-05
-0.0006107083
0.05985493
-0.04309463
-0.02918127
-0.004941025
0.002636469
0.0005801685
0.0001652014
-0.000933751
-0.0009990776
-0.0008592825
-0.005795809
-0.02321551
-0.02622498
-0.009938637
-0.001466031
-0.002079418
-0.00127904
-0.001697967
-0.001540898
-0.0009943987
-0.006709834
-0.03932681
-0.04274464
-0.01189566
-0.0005781206
-0.001282866
-0.0005545624
-0.001851718
-0.002004994
-0.001412073
-0.00298865
-0.03735287
-0.02248628
-0.00822222
-0.0002599113
-0.001368426
-0.002151574
-0.001864924
-0.001966588
-0.000809702
0.09076944
-0.04993693
-0.03277402
-0.006043344
0.00209117
-1.465268e-05
-0.0001704033
-0.002965293
-0.002429252
-0.001705612
0.04348966
-0.04403086
-0.03134926
-0.01357254
0.002543037
0.001378459
0.002231171
0.005858998
0.0006393699
0.00264912
0.03444236
-0.07421978
-0.04021711
-0.01645371
0.004316064
0.001621023
0.009556402
0.007419893
0.01423511
-0.003977299
0.09696138
-0.04726376
-0.030231
-0.01181901
-0.0003422937
0.0006387685
0.01519931
-0.001869795
0.004023849
0.0002411065
-0.005276565
-0.04812524
-0.03159368
-0.003007539
-0.0004992452
-0.004765401
0.02352739
-0.007007759
-0.006939689
0.07336452
-0.09333011
-0.04411974
-0.02306098
-0.001739935
0.008181513
0.02016269
-0.003803044
-0.01226842
0.01436008
-0.05670848
-0.03620886
-0.008896348
0.0006041442
-0.002207434
0.009992357
-0.01023614
-0.01849915
0.0265444
-0.08793845
-0.03058238
-0.009111306
0.003613218
0.004969853
0.01062296
-0.02140614
-0.01842921
0.02287056
-0.0654879
-0.02802324
-0.005910374
0.003456248
0.002111513
0.01361344
-0.02598659
-0.01815423
0.0559711
-0.04891101
-0.02608537
-0.001073794
0.002695472
0.002993151
0.01658147
-0.02240812
-0.02108342
-0.006155337
-0.02997048
-0.02239186
-0.001202658
0.0005483566
0.0007984938
0.02039678
-0.01084159
-0.009920611
0.006155268
-0.01554238
-0.02088626
0.0002723414
0.0005770249
0.0006635278
0.03037066
-0.02453164
-0.02188346
0.002205728
-0.0203971
-0.04222385
0.03938088
-0.03332394
-0.0007350308
-0.03960232
-0.002991307
-0.03918609
-0.01111913
0.02577826
0.009105666
0.009451294
-0.02366531
-0.06378367
-0.06080103
-0.003929611
-0.009539454
-0.01546307
0.01298344
-0.02219187
0.01217442
0.01688929
-0.002095481
-0.007174336
-0.006044767
0.01306218
-0.0220465
0.0009069151
-0.01517018
-0.003262534
0.0008314261
-0.000240391
0.01309553
-0.02184521
-0.005414637
-0.002714226
-0.002800439
0.003615926
0.002039423
0.01460775
-0.02120678
0.0002790386
-0.003687935
-0.002958779
0.004176478
0.002035781
0.01455451
-0.02151481
-0.0001597285
-0.0008451177
-0.002865151
0.004206034
0.002366148
0.01418479
-0.02142716
0.001206274
-0.0003688552
-0.002816555
0.004266511
0.002249628
0.01401668
-0.02141081
0.001326718
7.116374e-05
0.004153177
0.01372914
0.00186664
0.006040623
0.008792653
0.01228259
-0.0004355127
0.01955925
-0.01019335
0.006557893
0.009048406
0.03625824
-0.03869206
0.01996345
-0.04449079
0.005309913
0.003066923
0.03330104
-0.0519522
0.02152493
-0.0566966
0.00122647
-0.0003637743
0.03022543
-0.05482614
0.01883406
-0.06504637
0.0005557449
-0.001126426
0.02712822
-0.06213283
0.01766929
-0.0715129
-0.009505473
-0.002631802
0.02452991
-0.06641638
0.0132436
-0.07412203
-0.0074408
0.00156856
0.02156839
-0.06662607
0.008734516
-0.07825628
-0.006046179
-0.007690787
0.01847949
-0.07559776
0.005113159
-0.07829171
-0.007430953
-0.01162609
0.0167393
-0.07223674
0.006394801
-0.06979586
-0.01495548
-0.0006382032
0.01679809
-0.06822489
0.006733737
-0.07769012
-0.01032173
0.005063164
0.01737317
-0.07708663
0.0103079
-0.08362309
-0.01319936
-0.000800191
0.02114282
-0.09246206
0.02019866
-0.08634733
-0.002194444
0.016018
0.02748686
-0.08529649
0.02218218
-0.08565294
-0.04654696
-0.01806507
0.008468821
-0.003433407
0.004376495
0.01793586
0.04363373
0.008743841
0.001020626
0.02865114
-0.08171379
0.02488209
-0.08552091
-0.008596654
0.00751297
0.007859437
0.002897024
-0.01576754
0.01308761
-0.07211384
0.006306713
-0.07488143
-0.003676809
0.006995627
0.01713373
-0.01044525
-0.003525965
-0.004244028
-0.06658874
0.001344631
-0.06826447
-0.005965509
0.001704454
-0.002597814
0.001481187
-0.004725678
-0.006714253
-0.06011706
-0.001020176
-0.06036106
-0.01011937
0.02175559
-0.01060961
0.01050403
0.002082799
-0.003639317
-0.04664093
-0.001042134
-0.05819706
-0.009732889
0.01889108
0.000461149
0.01146211
0.004535173
-0.003171664
-0.04570878
-0.0008757946
-0.06262111
-0.006738594
0.01221221
-0.002196458
0.01213173
0.004494041
-0.002465779
-0.04428756
-0.0007530554
-0.06280709
-0.007516103
0.0204256
0.045348
0.01135333
0.004626329
-0.002913063
-0.04549319
-0.0006933693
-0.06454763
-0.06993932
-0.005751166
0.0506504
0.06126876
-0.01208001
-0.06888957
-0.06244444
0.01245992
-0.002517046
-0.04582365
-0.002677728
-0.01157078
-0.01539963
-0.02467744
0.0001435044
-0.01854892
-0.005685885
0.02140687
-0.002723557
-0.002958546
-0.002299938
0.006208133
0.01072734
0.009963303
0.005780908
-0.005834411
0.06885071
0.01833447
0.04006105
0.02629951
-0.008788482
-0.00193437
0.01159474
-0.009048293
-0.0135837
0.0002648603
0.001249762
-0.004465625
0.003483826
-0.02065787
0.001747019
-0.0006186768
0.004155868
0.01626344
-0.02385544
0.006630247
0.007683664
0.02673654
-0.004139539
0.02741291
0.01077006
0.002453776
0.005264247
0.006203528
-0.008899883
-0.0204715
-0.0009263968
-0.008449492
-0.001106449
0.002737654
-0.01526728
-0.0003928185
-0.001734934
-0.0003089276
0.01626043
-0.006475014
0.001422639
0.006723673
0.01311154
0.00250053
0.01797917
0.00132071
0.002768179