/*--------------------------------*- C++ -*----------------------------------*\
  =========                 |
  \\      /  F ield         | OpenFOAM: The Open Source CFD Toolbox
   \\    /   O peration     | Website:  https://openfoam.org
    \\  /    A nd           | Version:  7
     \\/     M anipulation  |
\*---------------------------------------------------------------------------*/
FoamFile
{
    version     2.0;
    format      ascii;
    class       volScalarField;
    location    "0.1";
    object      Uz;
}
// * * * * * * * * * * * * * * * * * * * * * * * * * * * * * * * * * * * * * //

dimensions      [0 1 -1 0 0 0 0];

internalField   nonuniform List<scalar> 
105127
(
-0.009755641
0.006324555
0.0003718933
4.898306e-05
9.315482e-05
-0.03331228
-0.001185104
-0.003757045
-0.005590028
-0.005876239
-0.01972058
0.01073374
0.007936389
0.006672567
0.005663902
-0.01905915
0.007589235
0.003613729
0.002213841
0.001368121
-0.0177141
0.006566527
0.002280908
0.0001579602
-0.0002153382
-0.01679123
0.008067356
0.004759264
0.003152035
0.002621309
-0.0163285
0.007684572
0.004017806
0.002458153
0.001965013
-0.01559194
0.008306499
0.00452454
0.003167911
0.002771907
-0.01486581
0.008417401
0.004461622
0.003128638
0.002820953
-0.01434489
0.00853137
0.004633852
0.003314572
0.003035023
-0.01384476
0.008545233
0.004711262
0.003388877
0.003128692
-0.01340896
0.008571191
0.004770158
0.00348478
0.003242771
-0.01297782
0.00858511
0.004825019
0.00355691
0.003325159
-0.01257492
0.008574768
0.004861913
0.003614706
0.0033946
-0.01218431
0.008539595
0.004927203
0.00364899
0.003451284
-0.01180758
0.008479299
0.005094734
0.003654912
0.003489547
-0.01144006
0.008395343
0.005421382
0.003642435
0.003510941
-0.01108448
0.008307511
0.006003714
0.003622967
0.0035271
-0.01074462
0.008220823
0.006021807
0.003685207
0.003547991
-0.01042237
0.008139502
0.005985067
0.003775526
0.003567965
-0.01011683
0.008061229
0.005927892
0.003841952
0.003583693
-0.009831565
0.007981973
0.005864717
0.003880041
0.003594211
-0.009563153
0.007901447
0.005807371
0.003893532
0.003612166
-0.001505887
-0.009573287
-0.01127594
0.003997341
0.00362719
-0.009839582
0.006907287
0.002032143
-0.0006943577
-0.0006722764
-0.02363876
-0.04034766
-0.03549489
-0.03371885
-0.03388751
-0.03492785
-0.0023139
0.01207126
0.020658
0.02543639
0.02572555
0.02954059
-0.00326865
-0.01535859
-0.01010254
-0.01371177
-0.01307404
-0.01314831
-0.001387321
0.0008247128
0.01004567
0.01134521
0.01253861
0.01283481
-0.002046906
-0.008641529
-0.003164526
-0.004949025
-0.005157521
-0.005015155
-0.001864813
-0.003660598
0.00264199
0.00288161
0.002950032
0.00318462
-0.002195903
-0.005942356
-0.0007210552
-0.001113958
-0.00168026
-0.001765377
-0.002209022
-0.004576034
0.0006258297
0.00117117
0.0005659901
0.0004463716
-0.002310557
-0.004908908
-0.0001773402
0.0003496432
-0.0004260351
-0.0007073919
-0.002341381
-0.004485056
0.0001392623
0.0008398875
0.0001073177
-0.0002199262
-0.002377912
-0.004421891
2.035404e-05
0.0007007098
-3.699843e-05
-0.0004302794
-0.002393102
-0.004238294
9.52964e-05
0.000790229
9.66383e-05
-0.0003105108
-0.002406489
-0.004123771
8.98795e-05
0.0007554359
0.0001123295
-0.0002981208
-0.002412726
-0.003998079
0.0001094573
0.0006974608
0.0002141583
-0.0002250216
-0.002413152
-0.00389146
0.0001095239
0.0005591391
0.0003689801
-0.0001475323
-0.002413162
-0.003801782
7.726547e-05
0.0004542764
0.0005614115
-5.224684e-05
-0.002412312
-0.003727835
-2.724424e-05
0.0004159596
0.0007167389
3.162082e-05
-0.002409941
-0.003653245
-6.802585e-05
0.0003000367
0.0008041256
9.135556e-05
-0.002405392
-0.003575007
-8.216549e-05
0.0002335201
0.0008390272
0.0001316401
-0.002398485
-0.003493936
-7.741295e-05
0.0002133322
0.0008374525
0.000153393
-0.002387851
-0.003410041
-6.23502e-05
0.0002131076
0.0008275676
0.0001652941
-0.002373376
-0.003324131
-4.407438e-05
0.000217107
0.0008094015
0.0001814645
0.00467067
-0.003234966
-2.385991e-05
0.0002264716
0.0007522529
0.0002300905
-0.0105022
0.005887412
0.007246218
0.01722461
0.01636338
-0.001132604
-0.006834946
-0.01334431
-0.01553837
-0.01639208
-0.01763957
-0.001322921
0.008575374
0.009546732
0.01158404
0.01205811
0.01299721
0.001809098
0.002641624
-9.712326e-05
-0.0009367524
-0.002587246
-0.002233747
0.002623618
0.006566831
0.00420046
0.005208645
0.004352986
0.004073459
0.001964034
0.003520327
-0.0003771969
-0.0002246279
-0.0009807775
-0.0008624214
0.001881903
0.004353456
0.00141862
0.002416716
0.001831647
0.001951204
0.001640241
0.003209728
-9.750146e-05
0.0004384274
-0.0001808514
-2.591964e-05
0.001559216
0.003405073
0.0005003104
0.001152963
0.0006550833
0.000791951
0.001448491
0.003011135
0.0001308416
0.0006021348
8.947194e-05
0.0002266495
0.00138478
0.00298683
0.000251626
0.0007434066
0.0002687667
0.0004020717
0.001320321
0.002835753
0.0001717603
0.0006042792
0.0001325912
0.0002597808
0.00127024
0.002761792
0.0001916538
0.0006085746
0.0001506157
0.0002696309
0.001222182
0.002672807
0.0001785066
0.000569137
0.0001133821
0.0002239332
0.001176327
0.002601671
0.0001850547
0.0005685209
9.49809e-05
0.0002089594
0.001131831
0.00253252
0.0001830558
0.0005691824
5.957663e-05
0.000187346
0.001088812
0.002466432
0.0001772786
0.0005653435
2.479572e-05
0.0001685261
0.001047464
0.002398753
0.0001635213
0.0005128953
-7.950654e-06
0.0001473504
0.001009284
0.002343936
0.0001622328
0.0005349469
-2.812948e-05
0.0001360999
0.0009724358
0.002290163
0.0001581973
0.0005407868
-3.909065e-05
0.0001255562
0.0009372095
0.00223865
0.0001572089
0.0005433841
-3.89638e-05
0.0001161041
0.0009030061
0.002187516
0.000156767
0.0005373867
-3.879552e-05
0.0001051761
0.0008707572
0.002138036
0.0001601691
0.0005340679
-2.10099e-05
9.297671e-05
0.0007485875
0.002084998
0.0001605798
0.0005192231
-2.041133e-05
7.261889e-05
-0.01140268
0.001008547
0.00142411
0.001626515
0.001655877
-0.0023057
-0.009828863
-0.0153792
-0.0168584
-0.01778345
-0.01708047
0.002395497
0.002389579
0.002104272
0.005566073
0.006345821
0.00669596
0.0009980292
-0.002068102
0.001101742
0.001424138
0.0007734098
0.0003104224
0.001601971
0.00139758
0.003366577
0.004519457
0.004982548
0.005192592
0.0008632814
-0.0006688692
-0.0005890834
-0.0009426544
-0.0005766073
-0.0007792796
0.0008266654
-3.739553e-05
0.0008975922
0.001051985
0.001494871
0.001566394
0.0006177471
-0.0008608231
-0.0003907875
-0.00060066
-0.0003809508
-0.0004529492
0.0005684273
-0.0005752397
5.80142e-05
3.971489e-05
0.0002624981
0.0002431913
0.0005154088
-0.0007351377
-0.0002381244
-0.0003371607
-0.0001854723
-0.000267131
0.0004759358
-0.0006377654
-0.0001138114
-0.0001757874
-2.265958e-05
-0.000103617
0.0004449162
-0.0006405676
-0.0001498504
-0.0002321474
-9.808826e-05
-0.0002017329
0.0004149575
-0.0006002171
-0.0001082012
-0.0001884504
-5.312827e-05
-0.0001631994
0.0003887483
-0.0005800006
-9.60317e-05
-0.000184692
-5.089949e-05
-0.0001628096
0.0003651682
-0.0005560868
-7.509153e-05
-0.0001686953
-2.588228e-05
-0.0001407828
0.0003441782
-0.0005376433
-6.193222e-05
-0.000160747
2.933201e-07
-0.0001178647
0.0003253215
-0.0005221454
-5.254283e-05
-0.0001507068
3.383469e-05
-9.103822e-05
0.0003078076
-0.0005113791
-5.165912e-05
-0.0001465936
6.365172e-05
-6.86998e-05
0.0002916486
-0.0005022149
-4.872236e-05
-0.0001511592
8.620156e-05
-5.124676e-05
0.0002770407
-0.0004935843
-4.467012e-05
-0.0001536926
0.0001007101
-3.890142e-05
0.000264087
-0.0004842364
-3.803514e-05
-0.0001513018
0.0001110031
-2.931096e-05
0.000252463
-0.0004744802
-2.967041e-05
-0.0001466811
0.0001179287
-2.353969e-05
0.0002423226
-0.0004657753
-2.05554e-05
-0.0001439582
0.0001252091
-1.7885e-05
0.0002356141
-0.0004577965
-1.197284e-05
-0.0001420525
0.0001247275
-1.476509e-05
-0.006618145
-0.0005791648
0.0002947595
-0.0003072574
-0.002091569
-0.001282617
0.0002567246
-0.0002314526
-0.0006683662
-0.0002868401
-0.0002503575
-0.0003855554
0.0007657026
0.0002166211
-0.0001144841
-0.0002485121
-0.0001142168
0.0005555114
0.00132242
0.000754394
0.0008348203
0.0003499307
2.932431e-05
0.0006761093
0.001051026
0.000745062
0.001131427
0.0007999372
0.001027413
0.0005864511
0.001488342
0.0001233568
0.0007707963
8.587933e-05
0.0004081387
0.0004490428
0.001258871
0.0003492155
0.0008034107
0.0003889756
0.0005582567
0.0003603737
0.001098365
0.0001353606
0.0005520758
0.0001250949
0.0002806515
0.000324624
0.001043316
0.0002069963
0.0005881601
0.0002329065
0.0003560145
0.0002969436
0.0009591021
0.0001347105
0.0004821733
0.0001373019
0.0002534067
0.0002828047
0.0009223104
0.0001431985
0.0004785728
0.0001561866
0.0002663454
0.0002692373
0.0008764603
0.0001173768
0.0004347223
0.0001228439
0.0002295941
0.0002585001
0.0008449622
0.000111107
0.0004172838
0.0001163878
0.0002195571
0.0002485866
0.0008139086
9.98888e-05
0.0003941827
0.0001016086
0.0002012546
0.0002397811
0.0007875378
9.360544e-05
0.0003776401
9.21482e-05
0.0001891687
0.0002316514
0.0007628375
8.703605e-05
0.0003604789
8.080985e-05
0.0001750184
0.0002241184
0.0007399923
8.14133e-05
0.0003443996
6.998535e-05
0.0001616787
0.0002170204
0.0007184181
7.533299e-05
0.0003280632
5.917231e-05
0.0001495334
0.0002105872
0.0007002155
7.255047e-05
0.0003223273
5.122473e-05
0.0001407808
0.0002046624
0.000683093
6.978307e-05
0.0003158762
4.438675e-05
0.0001328717
0.000199028
0.0006668449
6.792654e-05
0.0003096114
3.999044e-05
0.0001261832
0.0001935919
0.0006507455
6.546146e-05
0.0003012651
3.478243e-05
0.0001197131
0.0001889215
0.0006350448
6.384252e-05
0.000294103
3.395088e-05
0.0001166102
0.0001750691
0.0006188977
5.978643e-05
0.0002839213
2.686758e-05
0.0001130529
0.003972207
-0.004472046
-0.004396582
-0.0004442633
0.001050058
0.0008234733
0.002268865
0.006456005
0.01115698
0.01290464
0.01320637
0.0007850417
-0.001008968
-0.00107663
-0.001652921
-0.002126779
-0.002083658
0.0001975103
-0.001497164
-0.002562534
-0.003841316
-0.003206379
-0.002776255
-2.695502e-05
-0.001504667
-0.001748907
-0.002345728
-0.00211597
-0.002071678
-5.265045e-05
-0.001601276
-0.0003686549
-0.001124825
-0.000437312
-0.0005651119
-1.398008e-05
-0.001423988
-0.0005997889
-0.001084265
-0.0006847896
-0.0008153481
1.017996e-05
-0.001136296
-0.0002010065
-0.0006369084
-0.0002145115
-0.0003453984
1.715381e-05
-0.001087846
-0.000273522
-0.0006640039
-0.0003154089
-0.0004317088
2.316953e-05
-0.0009739433
-0.0001582491
-0.0005097021
-0.0001680047
-0.0002807428
2.350398e-05
-0.0009360249
-0.0001637944
-0.0005020141
-0.0001827698
-0.0002916968
2.373246e-05
-0.000883335
-0.0001275053
-0.0004462011
-0.0001363182
-0.0002426494
2.29145e-05
-0.000849993
-0.0001189083
-0.0004260193
-0.0001267475
-0.0002299222
2.161167e-05
-0.0008169687
-0.0001047678
-0.0003993778
-0.0001079336
-0.0002077654
2.043359e-05
-0.0007897305
-9.724272e-05
-0.0003814788
-9.671848e-05
-0.0001940378
1.902952e-05
-0.0007644048
-8.97023e-05
-0.0003634871
-8.414578e-05
-0.0001785435
1.756e-05
-0.0007412017
-8.336845e-05
-0.0003466072
-7.21633e-05
-0.0001643066
1.610831e-05
-0.0007195251
-7.692572e-05
-0.0003302208
-6.079665e-05
-0.0001519756
1.468735e-05
-0.0007013072
-7.358396e-05
-0.0003245876
-5.147813e-05
-0.0001431524
1.333228e-05
-0.0006843159
-7.037224e-05
-0.0003191467
-4.425769e-05
-0.0001373708
1.193919e-05
-0.0006688731
-6.756655e-05
-0.0003150203
-3.595919e-05
-0.000132631
1.059985e-05
-0.0006531637
-6.343923e-05
-0.0003093555
-2.875134e-05
-0.0001333202
9.325553e-06
-0.0006405467
-5.866129e-05
-0.0003123359
-1.293589e-05
-0.0001403603
3.746993e-05
-0.0006254488
-5.132629e-05
-0.0003084469
-1.101945e-07
-0.0001650812
0.008377453
0.0002762374
0.0002206312
0.004161654
0.007056638
0.001486191
0.01183782
0.0184298
0.01780334
0.01841166
0.01758438
0.001083783
-0.003595892
-0.00543398
-0.009418016
-0.01040119
-0.01053965
0.0007412903
0.002037992
-0.0005869121
0.000412818
0.0009983726
0.001197547
-0.0003333804
-0.001787521
-0.00373975
-0.004529381
-0.004687151
-0.004777923
-0.0003746681
0.0007054804
0.000730238
0.001307293
0.00105024
0.001156713
-0.0002684989
-3.061606e-05
-0.0009757213
-0.00108822
-0.001489374
-0.001530914
-0.0001796476
0.0008649798
0.0004068943
0.0006485558
0.0004443601
0.0005086195
-0.0001655962
0.0005583179
-8.032733e-05
-5.546784e-05
-0.0002713305
-0.000246709
-0.0001544931
0.0007317618
0.0002341227
0.0003380067
0.0001880196
0.0002701266
-0.0001532935
0.0006318851
0.0001055063
0.0001677445
1.51776e-05
9.644927e-05
-0.0001544746
0.0006378283
0.0001454983
0.0002282482
9.38153e-05
0.0001979143
-0.0001565333
0.0005978354
0.0001041395
0.0001840354
4.81753e-05
0.0001583593
-0.0001590926
0.0005786306
9.319187e-05
0.0001813804
4.724722e-05
0.0001592864
-0.0001618518
0.0005550781
7.281071e-05
0.0001658335
2.263125e-05
0.0001376315
-0.0001643793
0.0005368306
6.019509e-05
0.0001585347
-2.533829e-06
0.0001153744
-0.0001662987
0.0005214849
5.118161e-05
0.0001489142
-3.553747e-05
8.894947e-05
-0.0001675746
0.0005107241
5.040222e-05
0.0001445531
-6.520456e-05
6.686477e-05
-0.0001686824
0.0005014554
4.772275e-05
0.0001493414
-8.672577e-05
5.021134e-05
-0.0001693907
0.0004926622
4.369702e-05
0.0001515993
-0.0001009644
3.805413e-05
-0.0001696006
0.0004829191
3.71663e-05
0.0001487581
-0.0001100362
2.945586e-05
-0.0001689762
0.0004725
2.8453e-05
0.0001426844
-0.0001170165
2.437365e-05
-0.0001684613
0.0004620974
1.880615e-05
0.0001370914
-0.000122075
2.680494e-05
-0.000174904
0.0004504244
4.944655e-06
0.0001255174
-0.000131088
3.434626e-05
0.01525133
0.005026617
0.0009172171
-0.003262277
-0.005311388
0.003914648
0.01327863
0.01986808
0.02093196
0.02109102
0.02128152
0.000898216
-0.00927533
-0.009346898
-0.01126829
-0.01159816
-0.01220103
-0.0001362931
-0.001586384
0.00176707
0.002408405
0.003859263
0.003744673
-0.001865395
-0.006672017
-0.004195075
-0.005463023
-0.004683496
-0.004316473
-0.0007596662
-0.003304706
0.0006213546
0.0003298669
0.0009841361
0.0008818399
-0.0009382731
-0.004399378
-0.001481688
-0.002543817
-0.002000809
-0.002125359
-0.000542803
-0.003197354
0.0001110974
-0.000449402
0.000145886
-1.066149e-05
-0.0005708398
-0.003425201
-0.0005284885
-0.001197197
-0.0007107192
-0.0008528824
-0.0004970698
-0.003016344
-0.0001423201
-0.0006198891
-0.0001125789
-0.0002532941
-0.0004977264
-0.002994751
-0.0002648949
-0.0007602852
-0.000289691
-0.0004248258
-0.0004808483
-0.002840013
-0.0001797522
-0.0006142714
-0.0001445773
-0.0002732693
-0.0004761252
-0.002765228
-0.0001982004
-0.0006162853
-0.0001593745
-0.0002791321
-0.0004681791
-0.002675144
-0.0001832899
-0.0005741997
-0.0001190442
-0.0002305736
-0.0004622564
-0.002603512
-0.0001889388
-0.000572428
-9.898383e-05
-0.0002136546
-0.0004575072
-0.002533867
-0.0001861574
-0.0005723088
-6.272378e-05
-0.0001906678
-0.0004520001
-0.002467528
-0.0001798491
-0.0005676299
-2.702148e-05
-0.0001708872
-0.0004437326
-0.002399586
-0.0001658573
-0.0005147599
6.381412e-06
-0.0001494755
-0.0004348061
-0.002344672
-0.0001641567
-0.0005372211
2.738228e-05
-0.0001388666
-0.0004255813
-0.002290859
-0.0001595823
-0.0005435265
3.920689e-05
-0.0001298195
-0.0004164008
-0.002239574
-0.0001575766
-0.0005492717
4.246422e-05
-0.0001246415
-0.0004072691
-0.002187274
-0.0001544633
-0.0005453709
4.609269e-05
-0.0001248896
-0.0003987494
-0.002140936
-0.0001531978
-0.0005608557
5.746559e-05
-0.0001425187
-0.0005918951
-0.002086736
-0.0001479844
-0.0005528445
8.95271e-05
-0.0002137026
0.03009802
0.009461063
0.008649925
0.006973749
0.007450722
0.01879016
0.032011
0.02999202
0.02654845
0.02782784
0.03015758
0.001717525
-0.01274779
-0.02287791
-0.02842192
-0.02725059
-0.02857241
0.0001818188
0.0164975
0.01093006
0.01432351
0.01364631
0.01380199
-0.001248921
0.0002489848
-0.008617445
-0.009982053
-0.01145096
-0.0120524
-0.002100838
0.0087302
0.003270188
0.005010471
0.005156687
0.004941677
-0.001928508
0.003802281
-0.002451824
-0.002686708
-0.002776608
-0.003054958
-0.002340445
0.005954276
0.0007320106
0.001113851
0.001681304
0.001760136
-0.002388649
0.004604291
-0.0005896429
-0.001131074
-0.000527901
-0.0004098185
-0.002566398
0.004912415
0.0001800433
-0.0003457984
0.000428633
0.0007117533
-0.002662089
0.004491984
-0.000133157
-0.0008308062
-9.877274e-05
0.0002295574
-0.002767651
0.004423808
-2.010348e-05
-0.0006995476
3.793748e-05
0.0004316098
-0.002844763
0.00424034
-9.465397e-05
-0.0007889154
-9.532159e-05
0.0003118323
-0.002907482
0.004124951
-9.043209e-05
-0.0007561176
-0.0001127696
0.0002976395
-0.002946828
0.003999349
-0.0001101635
-0.0006984522
-0.0002146915
0.000224641
-0.002973383
0.00389248
-0.0001105708
-0.0005605346
-0.0003696279
0.0001467798
-0.002986572
0.003802663
-7.849747e-05
-0.0004564224
-0.0005622391
5.126938e-05
-0.00299079
0.003728557
2.598299e-05
-0.0004184298
-0.0007170656
-3.237191e-05
-0.002987395
0.003653722
6.676667e-05
-0.0003019556
-0.0008054842
-9.214903e-05
-0.00297609
0.003575816
8.072677e-05
-0.0002337357
-0.0008405207
-0.0001320834
-0.002957916
0.003494669
7.567556e-05
-0.0002103535
-0.0008396577
-0.000152639
-0.002931925
0.003409664
6.053474e-05
-0.0002053373
-0.0008263913
-0.0001578045
-0.002904847
0.003324188
3.990212e-05
-0.0002004164
-0.000803603
-0.0001548463
-0.004664766
0.003233229
1.18139e-05
-0.000209824
-0.0007438361
-0.0001157395
0.0502465
0.03941629
0.03407417
0.03142276
0.02986212
0.02174561
-0.00903747
-0.01349193
-0.008342099
-0.005173934
-0.00328022
0.001251309
-0.01552097
-0.005665014
-0.005670131
-0.006886247
-0.007003981
-0.005550197
0.003720164
0.006649101
0.008715857
0.00578633
0.005900291
-0.007466995
-0.00490749
-0.0005794143
-0.0009851119
-0.00364893
-0.00397695
-0.007423303
0.004348644
0.007516582
0.008515379
0.005824333
0.005321561
-0.007406564
0.00222238
0.00507842
0.004972166
0.002676233
0.002171286
-0.007146711
0.005311553
0.008245347
0.008299375
0.006234435
0.005670143
-0.006828763
0.005247203
0.008152366
0.007455133
0.005534571
0.0049615
-0.006361952
0.006362796
0.008939431
0.008523901
0.006770105
0.006210689
-0.005901293
0.006658646
0.009204516
0.008575134
0.006904018
0.006380916
-0.005420783
0.007116628
0.009618328
0.00901666
0.00744201
0.006950892
-0.004950692
0.007369838
0.009886385
0.009224758
0.007714329
0.007250193
-0.00447963
0.007577732
0.01013547
0.00947287
0.008005392
0.007581652
-0.004015192
0.007695916
0.01033543
0.009708774
0.00820822
0.00782598
-0.003555729
0.007762758
0.01053101
0.0101651
0.008358598
0.008024905
-0.003100334
0.00779872
0.01072277
0.01091973
0.008436757
0.008169056
-0.002656016
0.007813776
0.01080789
0.01293153
0.008472069
0.008276321
-0.00222584
0.007829647
0.01093147
0.01306795
0.008511419
0.00838582
-0.001813974
0.007824365
0.01104667
0.01315977
0.008559577
0.008496471
-0.001422179
0.007808763
0.01113869
0.01320005
0.008622906
0.008609819
-0.001048744
0.007779913
0.01119962
0.01317664
0.008693109
0.008728344
-0.0007013313
0.007750914
0.01124193
0.01308343
0.008757184
0.008859731
-0.0003793164
0.00149972
0.00958914
0.0114368
0.01427646
0.01366329
-0.006127912
0.0100663
0.08421025
-0.01735987
-0.00657568
-0.03451714
-0.013334
-0.02307288
-0.02058808
-0.0141562
-0.06031344
-0.01387402
-0.017056
0.003176612
0.006958042
0.001997176
-0.006799834
-0.004202509
-0.01546747
0.00726521
-0.01989062
-0.0028106
-0.02703863
-0.002929297
-0.01930082
0.007597835
-0.01192715
0.0006954138
-0.01607506
-0.004637486
-0.01776702
0.007435396
-0.01470861
-0.0005893692
-0.01911562
-0.006505231
-0.01826323
0.00739767
-0.0121351
0.0002628368
-0.01544922
-0.0069182
-0.01813073
0.007144967
-0.01157299
-2.303394e-06
-0.01504883
-0.007767841
-0.01829268
0.006827595
-0.01048636
3.786884e-05
-0.01352849
-0.008724487
-0.01852185
0.006360929
-0.009765613
-0.0001510487
-0.01275685
-0.009518898
-0.01872663
0.005901384
-0.009045025
-0.000302822
-0.01188658
-0.01030778
-0.01891851
0.005421425
-0.008468319
-0.0005120096
-0.01122623
-0.01100352
-0.01905843
0.004952084
-0.007945083
-0.000750059
-0.01060458
-0.01160774
-0.01913553
0.004481331
-0.007505861
-0.001022207
-0.01006408
-0.01209425
-0.01913726
0.004019167
-0.007135844
-0.001311892
-0.009582624
-0.01248104
-0.01908165
0.003557698
-0.006826427
-0.001608378
-0.009157288
-0.01279304
-0.01899893
0.003102296
-0.006550952
-0.001900134
-0.008771302
-0.01304593
-0.01890125
0.002658158
-0.006303499
-0.002183826
-0.008418868
-0.01325667
-0.01879612
0.002227944
-0.006084531
-0.002460124
-0.008097543
-0.01342592
-0.01868585
0.001815955
-0.005880505
-0.002724185
-0.007798981
-0.01356363
-0.01856632
0.001423557
-0.005691881
-0.00297215
-0.007522533
-0.01367282
-0.01844143
0.001051602
-0.005513868
-0.003204812
-0.007264311
-0.01375737
-0.01830956
0.0007001168
-0.005347095
-0.003425938
-0.007025538
-0.01382412
0.007332574
0.000367513
-0.005192971
-0.003633137
-0.006802749
-0.09768542
-0.001684373
0.001191624
0.001872869
-0.002367971
-0.006270984
-0.005773882
-0.002636138
-1.791322e-05
0.00236288
0.0005629328
-0.004798494
0.002568777
-0.002933386
-0.002110871
0.002787858
0.002392439
-0.000175778
0.01931581
-0.002806796
-0.004776395
-0.08220486
0.00236954
-0.0001851895
-0.003178462
-0.002553092
0.003607863
-0.008615862
0.001962994
0.0003095307
-0.002625664
-0.001905842
0.001340515
-0.003310934
0.002360848
0.001789474
-0.001982004
-0.001642925
0.003486774
0.005269672
0.0008291733
-0.00124067
-0.0001771429
-0.0004913367
0.002481594
0.1801706
-0.01135832
-0.0176265
0.04769709
-0.0009583219
-0.00642732
-0.03092241
-0.003653575
-0.02704708
-0.03669125
-0.02483289
-0.02638913
-0.001992848
-0.04161174
-0.04520837
-0.02342604
-0.02475201
-0.003917539
-0.03959872
-0.04601592
-0.02393227
-0.0249742
0.02077047
0.01683391
0.04894183
-0.007620415
0.01151421
0.006593398
-0.001509941
0.0115598
0.001111688
0.03263117
0.02099899
0.002801392
0.02691341
0.002719478
0.01549552
0.01250242
-0.0005653177
0.01653662
0.002457661
0.01948474
0.01454042
0.0005367956
0.0189775
0.004545247
0.01779282
0.01215413
-0.0002503582
0.01549191
0.006346409
0.01831656
0.01155164
-1.191377e-05
0.01501389
0.006904335
0.01813135
0.01048268
-3.916786e-05
0.01353001
0.007763679
0.01830325
0.009761082
0.0001472607
0.01274936
0.008717573
0.01851848
0.009045035
0.0003014919
0.01188631
0.009515635
0.01872575
0.008469484
0.0005111202
0.0112264
0.01030494
0.01891747
0.007947893
0.0007500437
0.01060664
0.01100223
0.01905786
0.007509853
0.00102497
0.01006501
0.01160619
0.01913058
0.007139479
0.001312523
0.009585286
0.01208784
0.01913704
0.006830197
0.001609543
0.009160807
0.01248309
0.01908136
0.00655476
0.001901534
0.008774575
0.01279499
0.01899842
0.006307396
0.002185343
0.008421984
0.01304808
0.01890075
0.006087898
0.002461284
0.008100091
0.01325907
0.01879603
0.00588282
0.002724304
0.00779947
0.01342775
0.01868539
0.005692045
0.002971803
0.007520048
0.01356475
0.01856411
0.005158
0.00361757
0.006750885
0.01380918
-0.01902181
0.01383029
0.006456287
-0.01927127
-0.05959633
-0.008393134
-0.04667924
0.003507146
-0.003492956
0.008104282
-0.03812134
-0.001863747
-0.0007511944
-0.002474033
-0.03786168
-0.001070588
0.0009992037
-0.001070381
-0.03840266
-0.00337527
0.0006637183
-0.003409797
-0.03664511
-0.004883764
0.0001762782
-0.004211971
-0.03557518
-0.004431257
-0.004445616
-0.005162855
-0.03399732
-0.004618185
-0.007425143
-0.005483883
-0.03269563
-0.00530212
-0.01409237
-0.006339727
-0.03138197
-0.005812619
-0.02402331
-0.006878337
-0.03014106
-0.006196253
-0.02783364
-0.007040111
-0.02894308
-0.006438819
-0.02672289
-0.006955922
-0.02776081
-0.006559133
-0.02564966
-0.006841339
-0.02660742
-0.006598472
-0.0245707
-0.006682781
-0.02548979
-0.006585601
-0.02349486
-0.006524879
-0.02440527
-0.006534098
-0.02245454
-0.006353043
-0.0233569
-0.006431505
-0.02144623
-0.006168899
-0.02234078
-0.006286997
-0.02046238
-0.005988352
-0.02136106
-0.006127535
-0.0195066
-0.005817376
-0.02041237
-0.005961789
-0.0185799
-0.005652311
-0.01948657
-0.005794093
-0.01768183
-0.005499036
-0.01859212
-0.005634329
-0.01683142
-0.005357803
-0.01771814
-0.00548589
-0.01601871
-0.005228716
-0.01687369
-0.009941634
-0.02177966
-0.003295113
-0.009163305
0.0008566938
-0.005748254
0.01127867
-0.00395841
0.002831806
-0.0105058
0.005140185
-0.002084685
0.01027924
0.0009218103
0.01666442
0.01170885
0.02116733
0.03383015
0.0004480896
-0.0449416
-0.04454058
-0.02159708
-0.02492958
-0.004406425
-0.03832745
-0.0463111
-0.02405501
-0.02511149
0.005512871
0.003205924
0.007254001
0.01367113
0.01843643
0.005336882
0.003421725
0.007003192
0.01374945
0.01830956
0.005615777
-0.004088003
-0.008728905
-0.03692152
-0.0174128
-0.02551797
-0.006650959
-0.04077125
-0.006911952
-0.004805174
0.002786792
-0.04014968
-0.0001686523
-0.008953197
-0.004616102
-0.03911974
-0.004521929
-0.005485763
-0.005103717
-0.03771879
-0.003848079
-0.00174236
-0.007640738
-0.03696276
-0.005200588
-0.0008667697
-0.007887839
-0.0354904
-0.005414171
-0.0009762506
-0.007638186
-0.03400574
-0.004701624
-0.003374039
-0.007185067
-0.03265255
-0.004549387
-0.004077542
-0.007044111
-0.03129097
-0.004736232
-0.004084844
-0.006872442
-0.02855152
-0.004804558
-0.003897735
-0.006627994
-0.02386377
-0.004729894
-0.004421225
-0.006469354
-0.01878025
-0.004684143
-0.004794259
-0.006344736
-0.01472222
-0.004680936
-0.005165098
-0.006271143
-0.01228631
-0.004707142
-0.005993666
-0.006170449
-0.01041271
-0.004731748
-0.006514884
-0.006060341
-0.009487627
-0.00476603
-0.006898032
-0.005969317
-0.008885457
-0.004765996
-0.007695405
-0.005872344
-0.008497503
-0.004735793
-0.008553172
-0.0057915
-0.008299882
-0.00469593
-0.01041306
-0.005690968
-0.008209439
-0.004653722
-0.01158611
-0.005586069
-0.008126998
-0.004609402
-0.01257968
-0.005479695
-0.007966967
-0.004564989
-0.01303559
-0.005375958
0.01821416
-0.0132978
-0.004528913
-0.008202358
-0.001720585
-0.006333358
0.002727107
-0.004664658
0.003921218
-0.007398701
0.006985386
-0.005582387
0.002964768
-0.00063994
0.006254717
0.005815396
0.01020661
0.01652775
0.03624211
-0.00674601
-0.01148897
-0.01518696
-0.009730156
0.0004216021
-0.008623658
-0.009009244
-0.008031979
-0.01480176
-0.01238171
0.002567345
0.001635576
-0.000212008
0.04309545
0.003832113
0.04035925
0.00444309
0.006404462
-0.0007897201
-0.0004305645
0.00172044
0.03908563
0.003967357
0.03911039
0.004171512
0.004971966
0.0009394488
-0.001082031
0.0005072953
0.03864453
0.005171745
0.03778334
0.003884237
0.001727169
0.003238742
-0.0007261475
0.003144444
0.03672977
0.004917867
-0.0001501487
0.004212909
0.03559912
0.007880554
0.03550971
0.005466975
0.0008669187
0.004440989
0.004341002
0.005196292
0.03402407
0.007665842
0.03402417
0.004725846
0.003263759
0.0046151
0.007411028
0.005487215
0.03270927
0.007191542
0.03265778
0.004556201
0.004047945
0.005296538
0.01397749
0.006334736
0.03139251
0.00704674
0.03129818
0.004738633
0.004065584
0.005811588
0.02395455
0.006878269
0.03014865
0.006877777
0.02860414
0.004810241
0.003877563
0.006196115
0.02783833
0.007041964
0.0289498
0.006629276
0.02390613
0.004733401
0.004415183
0.006439637
0.02672596
0.0069589
0.02776581
0.006471161
0.01878077
0.004686488
0.004803287
0.006560232
0.02565149
0.006844161
0.02661657
0.006609237
0.02457158
0.006726893
0.02548377
0.006277806
0.01226409
0.004709962
0.006030179
0.006588432
0.02349671
0.006528867
0.02440925
0.006172695
0.01039972
0.004733623
0.00652459
0.006536298
0.02245687
0.006356007
0.02336011
0.006062272
0.009480074
0.004768226
0.006900237
0.006434343
0.02144762
0.006172844
0.02234334
0.005971256
0.008878851
0.004768377
0.007702837
0.006289837
0.02046314
0.005991587
0.02136261
0.005874408
0.008488566
0.004737618
0.00857075
0.006129067
0.01950789
0.005818992
0.02041377
0.005964575
0.01858021
0.005653786
0.01948813
0.005692913
0.008163491
0.004653604
0.01167416
0.005372268
0.01323563
0.01368842
0.004482874
-7.087828e-05
0.001313469
4.916714e-05
-0.005057958
0.005005582
-0.01851762
-0.005355938
0.01827021
-0.01602505
-0.005118551
0.005332563
0.01430917
0.01599414
0.005067198
0.005093621
0.003530012
-0.0005214778
-0.008705878
0.0002613898
0.002575236
0.0001715506
0.0004201629
0.001181701
0.001097886
0.0008765401
0.002265937
0.00134122
0.000559893
0.0003707898
0.0009213145
0.001355007
-0.0006524739
-0.004052864
0.00161492
-0.001894921
-0.002134156
-0.0007280308
-0.001478029
0.0007503861
-0.0007722572
-0.001392008
-0.001787892
-0.002320221
-0.001873777
0.0002461107
-0.002902982
0.002235263
-0.004393259
0.004271216
-0.005744368
-0.001155547
-0.001958451
-0.003673764
-0.001020852
0.006088597
-0.00307875
0.001222855
-0.004323162
0.01989374
-0.008435316
0.01482001
0.005209236
-0.003429868
-0.003288125
0.01463472
-0.01060119
-0.003037428
-0.01042441
-0.006108046
-0.008205059
-0.01554273
-0.01097104
-0.0001089297
-0.008761425
-0.009048303
-0.008410609
-0.01575266
-0.01241792
0.003981515
0.004198782
0.007681125
0.03381364
0.01874031
0.04395644
0.02278237
0.0314596
0.004240899
0.007766336
0.01692967
-0.01398255
0.007660421
0.02623784
-0.01260627
0.006565807
-0.007446277
0.01028654
0.01884465
-0.01957149
0.007607984
0.03694069
0.005163605
0.0008499592
-0.01393949
0.02212619
-0.0202048
0.01258596
-0.0178039
0.01725218
0.01295311
-0.02135016
-0.01518592
0.02221206
-0.02093042
0.01275854
-0.01864126
0.01863232
0.01374306
-0.02160815
-0.0171818
0.0199908
-0.02050368
0.01333863
-0.01867677
0.01958675
0.01384155
-0.021165
-0.01744344
0.01898466
-0.02034284
0.01359767
-0.01866968
0.01945001
0.01425458
-0.02097914
-0.01744984
0.01836005
-0.0198205
0.01382577
-0.01849448
0.01913711
0.01484207
-0.02054831
-0.01817998
0.01884873
0.01526051
-0.02001578
0.006355828
0.01491987
0.004712789
0.005238093
-0.01619969
0.01700791
-0.01724522
0.01462296
-0.01655172
0.0179115
0.0153746
-0.01799644
-0.01535871
0.0172309
0.01540189
-0.0165689
-0.01449384
0.016367
-0.01519044
0.01488869
-0.01473596
0.0168916
0.0153605
-0.01587106
0.005792633
0.008291034
0.004697805
0.01042186
-0.01409959
0.0165627
0.01528626
-0.01518489
-0.01326188
0.01600885
-0.01391981
0.01475672
0.005480124
0.01603672
0.005241468
0.016849
0.008270119
0.02883544
0.04104923
0.03485192
-0.008728744
-0.005015611
-0.002117262
-0.001229303
-0.001929462
-0.001545968
-0.000400215
-0.001548878
-0.0006408317
0.0005917204
-0.003069429
-0.00140318
0.0009596659
-0.004081936
0.00122493
-0.00181914
0.004420669
-0.003795074
-0.0001803889
0.0117938
-0.007976201
0.001966908
-0.01217688
-0.01340821
-0.007867942
-0.01237545
-0.01205072
-0.008027017
-0.01117398