/*--------------------------------*- C++ -*----------------------------------*\
  =========                 |
  \\      /  F ield         | OpenFOAM: The Open Source CFD Toolbox
   \\    /   O peration     | Website:  https://openfoam.org
    \\  /    A nd           | Version:  7
     \\/     M anipulation  |
\*---------------------------------------------------------------------------*/
FoamFile
{
    version     2.0;
    format      ascii;
    class       volScalarField;
    location    "0.07";
    object      k;
}
// * * * * * * * * * * * * * * * * * * * * * * * * * * * * * * * * * * * * * //

dimensions      [0 2 -2 0 0 0 0];

internalField   nonuniform List<scalar> 
109978
(
0.003786217
0.003777715
0.003772007
0.003767722
0.003764188
0.003761243
0.003783442
0.003781093
0.003777747
0.00377458
0.003771745
0.003769219
0.003776651
0.003775775
0.003773377
0.003770832
0.003768481
0.003766313
0.003771197
0.003771168
0.003769616
0.00376773
0.003765924
0.003764165
0.003766624
0.003766909
0.003765776
0.003764337
0.003762888
0.003761428
0.003762839
0.003763315
0.003762502
0.003761437
0.003760257
0.003759073
0.003759585
0.003760133
0.003759505
0.00375865
0.003757715
0.003756744
0.003756761
0.003757335
0.003756844
0.003756154
0.003755437
0.003754596
0.003754266
0.003754834
0.003754434
0.003753866
0.003753267
0.003752568
0.003752041
0.003752585
0.003752254
0.003751769
0.003751267
0.003750691
0.003750038
0.003750567
0.003750266
0.003749845
0.003749418
0.003748947
0.003748223
0.003748726
0.003748447
0.003748079
0.003747709
0.003747295
0.003746567
0.003747038
0.003746775
0.003746449
0.003746124
0.003745756
0.003745058
0.003745481
0.003745241
0.00374494
0.003744647
0.003744318
0.003743708
0.003744045
0.003743818
0.003743537
0.00374327
0.003742976
0.003742464
0.003742716
0.003742493
0.003742232
0.003741987
0.00374172
0.003741309
0.003741481
0.003741258
0.003741016
0.003740792
0.003740547
0.003740235
0.003740331
0.003740113
0.00373989
0.003739676
0.003739445
0.003739233
0.003739257
0.003739045
0.003738843
0.003738631
0.003738409
0.003738299
0.003738256
0.003738046
0.003737861
0.00373765
0.003737437
0.003737427
0.00373732
0.003737112
0.003736942
0.00373673
0.003736529
0.003736611
0.003736446
0.00373624
0.00373608
0.003735877
0.003735679
0.003507451
0.003735634
0.00373543
0.003735274
0.003735085
0.003734885
0.003610852
0.003564561
0.003561911
0.003557227
0.003552895
0.00354903
0.003517924
0.003511615
0.003511187
0.00350951
0.003508831
0.003508445
0.003514537
0.003510139
0.00350917
0.0035086
0.003508273
0.003508047
0.003511493
0.003509012
0.003508769
0.003508463
0.003508252
0.003508058
0.003510686
0.003508428
0.0035082
0.003508008
0.003507869
0.003507745
0.003510004
0.003507945
0.00350789
0.003507799
0.003507724
0.00350764
0.003509623
0.003507669
0.00350763
0.003507576
0.003507526
0.003507472
0.003509304
0.003507445
0.003507439
0.003507414
0.00350739
0.003507355
0.003509062
0.003507283
0.003507285
0.003507274
0.003507262
0.00350724
0.003508858
0.003507152
0.00350716
0.003507158
0.003507155
0.003507143
0.003508684
0.003507045
0.003507056
0.003507059
0.003507061
0.003507055
0.003508532
0.003506955
0.003506967
0.003506973
0.003506979
0.003506978
0.003508398
0.003506878
0.00350689
0.003506898
0.003506906
0.003506908
0.003508278
0.003506811
0.003506823
0.003506832
0.003506841
0.003506845
0.003508169
0.003506752
0.003506763
0.003506773
0.003506782
0.003506788
0.00350807
0.003506699
0.00350671
0.003506719
0.003506729
0.003506736
0.003507979
0.003506651
0.003506662
0.003506671
0.003506681
0.003506688
0.003507896
0.003506608
0.003506618
0.003506627
0.003506637
0.003506644
0.003507819
0.003506569
0.003506578
0.003506587
0.003506597
0.003506604
0.003507747
0.003506533
0.003506541
0.00350655
0.003506559
0.003506566
0.00350768
0.0035065
0.003506507
0.003506516
0.003506525
0.003506532
0.003507618
0.003506469
0.003506476
0.003506485
0.003506493
0.0035065
0.00350756
0.003506441
0.003506447
0.003506455
0.003506463
0.00350647
0.00350748
0.003506415
0.003506421
0.003506428
0.003506436
0.003506442
0.003624924
0.003555825
0.003555692
0.003552363
0.003549307
0.003546398
0.003515354
0.003510903
0.003511215
0.003509422
0.00350875
0.003508354
0.003514069
0.003510087
0.003509123
0.003508569
0.003508203
0.003507975
0.003510378
0.003508912
0.003508781
0.003508505
0.003508265
0.003508067
0.003509801
0.003508389
0.003508181
0.003507996
0.003507845
0.003507724
0.003509319
0.003507906
0.003507882
0.003507792
0.003507712
0.003507622
0.003509043
0.003507642
0.003507621
0.003507567
0.003507508
0.003507452
0.003508819
0.00350742
0.003507431
0.003507405
0.003507373
0.003507337
0.003508635
0.003507262
0.003507277
0.003507264
0.003507244
0.003507221
0.003508477
0.003507133
0.003507152
0.003507148
0.003507138
0.003507125
0.003508338
0.003507028
0.003507048
0.003507048
0.003507044
0.003507038
0.003508214
0.003506939
0.003506959
0.003506962
0.003506963
0.00350696
0.003508103
0.003506863
0.003506882
0.003506887
0.00350689
0.003506891
0.003508001
0.003506797
0.003506815
0.003506821
0.003506825
0.003506828
0.003507909
0.003506738
0.003506755
0.003506762
0.003506767
0.003506771
0.003507824
0.003506686
0.003506702
0.003506708
0.003506714
0.003506719
0.003507745
0.003506639
0.003506653
0.00350666
0.003506666
0.003506672
0.003507672
0.003506596
0.00350661
0.003506616
0.003506623
0.003506628
0.003507605
0.003506557
0.00350657
0.003506576
0.003506582
0.003506588
0.003507542
0.003506522
0.003506533
0.003506539
0.003506545
0.003506551
0.003507483
0.003506489
0.0035065
0.003506505
0.003506511
0.003506517
0.003507428
0.003506459
0.003506468
0.003506474
0.003506479
0.003506485
0.003507377
0.003506431
0.00350644
0.003506444
0.00350645
0.003506455
0.003507328
0.003506405
0.003506413
0.003506417
0.003506422
0.003506428
0.003625108
0.003553574
0.003555009
0.003551864
0.003548133
0.003545025
0.003514958
0.003510624
0.003511394
0.003509436
0.003508755
0.003508353
0.003514233
0.003510076
0.003509115
0.003508538
0.003508166
0.003507935
0.003510405
0.003508879
0.003508728
0.003508463
0.003508251
0.003508044
0.003509911
0.003508367
0.003508163
0.003507983
0.003507834
0.003507714
0.003509358
0.003507882
0.003507861
0.003507791
0.003507705
0.003507619
0.003509078
0.003507635
0.003507614
0.003507562
0.003507504
0.003507448
0.003508838
0.003507412
0.003507423
0.003507403
0.003507372
0.003507336
0.003508649
0.003507255
0.003507271
0.003507262
0.003507244
0.00350722
0.003508486
0.003507125
0.003507146
0.003507146
0.003507138
0.003507125
0.003508344
0.003507021
0.003507042
0.003507047
0.003507045
0.003507037
0.003508218
0.003506932
0.003506954
0.003506961
0.003506963
0.00350696
0.003508105
0.003506856
0.003506877
0.003506886
0.00350689
0.00350689
0.003508003
0.00350679
0.00350681
0.00350682
0.003506826
0.003506828
0.003507909
0.003506731
0.003506751
0.003506761
0.003506767
0.003506771
0.003507824
0.003506679
0.003506697
0.003506708
0.003506715
0.003506719
0.003507744
0.003506632
0.003506649
0.00350666
0.003506667
0.003506672
0.003507671
0.00350659
0.003506606
0.003506616
0.003506623
0.003506628
0.003507603
0.003506551
0.003506566
0.003506576
0.003506583
0.003506588
0.00350754
0.003506515
0.00350653
0.003506539
0.003506546
0.003506551
0.003507481
0.003506483
0.003506496
0.003506505
0.003506511
0.003506517
0.003507426
0.003506453
0.003506465
0.003506473
0.00350648
0.003506485
0.003507375
0.003506425
0.003506436
0.003506444
0.00350645
0.003506455
0.003507327
0.003506399
0.00350641
0.003506417
0.003506423
0.003506428
0.003620425
0.003552094
0.003553965
0.003551521
0.003548742
0.003545904
0.003514821
0.003510535
0.003511325
0.003509416
0.00350873
0.003508315
0.003514237
0.003510061
0.003509057
0.003508516
0.003508171
0.003507926
0.003510406
0.00350886
0.003508669
0.003508379
0.003508174
0.003507995
0.003509928
0.003508334
0.003508141
0.003507968
0.003507828
0.003507708
0.003509343
0.003507857
0.003507853
0.003507782
0.003507703
0.00350762
0.003509068
0.003507623
0.003507607
0.003507557
0.003507503
0.003507447
0.00350883
0.003507401
0.003507415
0.003507398
0.003507371
0.003507336
0.003508643
0.003507246
0.003507264
0.003507258
0.003507242
0.00350722
0.00350848
0.003507117
0.00350714
0.003507143
0.003507137
0.003507125
0.003508339
0.003507012
0.003507036
0.003507043
0.003507044
0.003507037
0.003508213
0.003506924
0.003506948
0.003506958
0.003506962
0.00350696
0.0035081
0.003506849
0.003506872
0.003506883
0.003506889
0.003506891
0.003507998
0.003506783
0.003506805
0.003506817
0.003506825
0.003506828
0.003507905
0.003506725
0.003506745
0.003506758
0.003506766
0.003506771
0.003507819
0.003506673
0.003506692
0.003506705
0.003506714
0.003506719
0.00350774
0.003506626
0.003506644
0.003506657
0.003506666
0.003506672
0.003507667
0.003506584
0.003506601
0.003506613
0.003506622
0.003506628
0.0035076
0.003506545
0.003506562
0.003506573
0.003506582
0.003506588
0.003507537
0.00350651
0.003506525
0.003506536
0.003506545
0.003506551
0.003507478
0.003506478
0.003506492
0.003506502
0.003506511
0.003506517
0.003507423
0.003506448
0.003506461
0.003506471
0.003506479
0.003506485
0.003507372
0.00350642
0.003506433
0.003506442
0.00350645
0.003506455
0.003507324
0.003506395
0.003506406
0.003506415
0.003506422
0.003506428
0.003622079
0.003551365
0.003553897
0.003551156
0.00354807
0.003545081
0.003514792
0.003510534
0.003511328
0.003509417
0.003508731
0.003508315
0.003514173
0.00351006
0.003509057
0.003508518
0.003508174
0.00350793
0.003510403
0.00350886
0.003508669
0.00350838
0.003508176
0.003507997
0.003509956
0.003508334
0.003508141
0.003507968
0.003507828
0.003507709
0.003509344
0.003507857
0.003507853
0.003507782
0.003507703
0.00350762
0.00350907
0.003507623
0.003507607
0.003507557
0.003507503
0.003507447
0.003508832
0.003507401
0.003507415
0.003507398
0.003507371
0.003507336
0.003508644
0.003507246
0.003507264
0.003507258
0.003507242
0.00350722
0.003508481
0.003507117
0.00350714
0.003507143
0.003507137
0.003507125
0.00350834
0.003507012
0.003507036
0.003507043
0.003507044
0.003507037
0.003508214
0.003506924
0.003506948
0.003506958
0.003506962
0.00350696
0.003508101
0.003506849
0.003506872
0.003506883
0.003506889
0.003506891
0.003507999
0.003506783
0.003506805
0.003506817
0.003506825
0.003506828
0.003507905
0.003506725
0.003506745
0.003506758
0.003506766
0.003506771
0.00350782
0.003506673
0.003506692
0.003506705
0.003506714
0.003506719
0.003507741
0.003506626
0.003506644
0.003506657
0.003506666
0.003506672
0.003507668
0.003506584
0.003506601
0.003506613
0.003506622
0.003506628
0.0035076
0.003506545
0.003506562
0.003506573
0.003506582
0.003506588
0.003507537
0.00350651
0.003506525
0.003506536
0.003506545
0.003506551
0.003507478
0.003506478
0.003506492
0.003506502
0.003506511
0.003506517
0.003507423
0.003506448
0.003506461
0.003506471
0.003506479
0.003506485
0.003507372
0.00350642
0.003506432
0.003506442
0.003506449
0.003506455
0.003507324
0.003506395
0.003506406
0.003506415
0.003506422
0.003506428
0.003624418
0.003551368
0.003553638
0.003551459
0.003548573
0.00354568
0.003514911
0.003510621
0.003511389
0.003509431
0.003508749
0.003508348
0.003514065
0.003510075
0.003509117
0.003508544
0.003508173
0.003507944
0.003510416
0.003508876
0.003508727
0.003508463
0.003508251
0.003508045
0.003509951
0.003508365
0.003508161
0.003507982
0.003507835
0.003507716
0.003509353
0.00350788
0.003507859
0.00350779
0.003507704
0.003507619
0.003509077
0.003507633
0.003507612
0.003507561
0.003507504
0.003507448
0.003508838
0.00350741
0.003507421
0.003507401
0.003507371
0.003507336
0.003508649
0.003507253
0.003507269
0.00350726
0.003507243
0.00350722
0.003508486
0.003507123
0.003507144
0.003507145
0.003507137
0.003507124
0.003508344
0.003507019
0.003507041
0.003507045
0.003507044
0.003507037
0.003508218
0.00350693
0.003506952
0.00350696
0.003506962
0.00350696
0.003508105
0.003506854
0.003506876
0.003506885
0.00350689
0.00350689
0.003508002
0.003506788
0.003506808
0.003506819
0.003506825
0.003506828
0.003507909
0.00350673
0.003506749
0.00350676
0.003506767
0.003506771
0.003507823
0.003506678
0.003506696
0.003506707
0.003506714
0.003506719
0.003507744
0.003506631
0.003506648
0.003506658
0.003506666
0.003506672
0.003507671
0.003506588
0.003506604
0.003506615
0.003506622
0.003506628
0.003507603
0.00350655
0.003506565
0.003506575
0.003506582
0.003506588
0.00350754
0.003506514
0.003506528
0.003506538
0.003506545
0.003506551
0.003507481
0.003506482
0.003506495
0.003506504
0.003506511
0.003506517
0.003507426
0.003506452
0.003506464
0.003506472
0.003506479
0.003506485
0.003507375
0.003506424
0.003506435
0.003506443
0.00350645
0.003506455
0.003507327
0.003506398
0.003506408
0.003506416
0.003506422
0.003506427
0.003620561
0.003552324
0.003553974
0.003551934
0.003549086
0.003546086
0.003515191
0.003510897
0.003511205
0.003509413
0.003508741
0.003508345
0.003513795
0.003510085
0.003509128
0.003508579
0.003508216
0.003507989
0.003510431
0.003508907
0.003508778
0.003508503
0.003508265
0.003508067
0.00350997
0.003508385
0.003508178
0.003507996
0.003507847
0.003507727
0.003509353
0.003507902
0.003507877
0.003507789
0.003507711
0.003507622
0.003509076
0.003507638
0.003507617
0.003507564
0.003507507
0.003507453
0.003508837
0.003507416
0.003507427
0.003507403
0.003507372
0.003507337
0.003508648
0.003507258
0.003507273
0.003507261
0.003507243
0.003507221
0.003508485
0.003507129
0.003507148
0.003507145
0.003507137
0.003507125
0.003508344
0.003507024
0.003507044
0.003507046
0.003507044
0.003507037
0.003508218
0.003506936
0.003506955
0.00350696
0.003506962
0.00350696
0.003508105
0.00350686
0.003506879
0.003506885
0.003506889
0.00350689
0.003508003
0.003506794
0.003506811
0.003506819
0.003506824
0.003506828
0.003507909
0.003506735
0.003506752
0.003506759
0.003506766
0.003506771
0.003507824
0.003506683
0.003506698
0.003506706
0.003506713
0.003506719
0.003507744
0.003506636
0.00350665
0.003506658
0.003506666
0.003506672
0.003507671
0.003506594
0.003506607
0.003506614
0.003506622
0.003506628
0.003507603
0.003506555
0.003506567
0.003506574
0.003506582
0.003506588
0.00350754
0.003506519
0.003506531
0.003506537
0.003506545
0.003506551
0.003507481
0.003506487
0.003506497
0.003506503
0.00350651
0.003506517
0.003507426
0.003506456
0.003506466
0.003506472
0.003506479
0.003506485
0.003507375
0.003506428
0.003506437
0.003506443
0.003506449
0.003506455
0.003507326
0.003506402
0.00350641
0.003506416
0.003506422
0.003506428
0.003601533
0.003555629
0.003556912
0.003553868
0.003550331
0.00354703
0.003515875
0.0035116
0.003511174
0.0035095
0.003508821
0.003508434
0.003513426
0.003510135
0.003509169
0.003508599
0.003508272
0.003508046
0.003510667
0.003508998
0.003508761
0.003508458
0.003508248
0.003508055
0.003510131
0.003508418
0.003508196
0.003508008
0.003507869
0.003507745
0.00350951
0.003507933
0.003507883
0.003507796
0.003507722
0.00350764
0.003509212
0.003507659
0.003507625
0.003507574
0.003507526
0.003507472
0.003508955
0.003507435
0.003507433
0.003507411
0.003507388
0.003507354
0.003508753
0.003507274
0.00350728
0.003507271
0.003507261
0.00350724
0.00350858
0.003507143
0.003507155
0.003507156
0.003507154
0.003507143
0.00350843
0.003507037
0.003507051
0.003507057
0.00350706
0.003507055
0.003508298
0.003506947
0.003506962
0.003506971
0.003506978
0.003506977
0.00350818
0.00350687
0.003506886
0.003506896
0.003506905
0.003506907
0.003508073
0.003506804
0.003506819
0.00350683
0.00350684
0.003506844
0.003507975
0.003506745
0.003506759
0.003506771
0.003506781
0.003506787
0.003507886
0.003506692
0.003506706
0.003506718
0.003506729
0.003506735
0.003507803
0.003506645
0.003506658
0.00350667
0.00350668
0.003506688
0.003507727
0.003506602
0.003506614
0.003506626
0.003506636
0.003506644
0.003507657
0.003506563
0.003506574
0.003506586
0.003506596
0.003506603
0.003507591
0.003506527
0.003506538
0.003506549
0.003506559
0.003506566
0.00350753
0.003506494
0.003506504
0.003506515
0.003506524
0.003506531
0.003507473
0.003506464
0.003506473
0.003506483
0.003506492
0.003506499
0.00350742
0.003506436
0.003506444
0.003506454
0.003506462
0.003506469
0.00350748
0.00350641
0.003506418
0.003506427
0.003506435
0.003506441
0.004600328
0.004254262
0.004121716
0.004032609
0.003967965
0.003917634
0.00353246
0.00351707
0.003514883
0.003513392
0.003512707
0.003512343
0.003512129
0.003524905
0.00351552
0.003513487
0.003512517
0.003511962
0.003511597
0.003511331
0.003519726
0.003511881
0.003511653
0.003511105
0.00351077
0.003510529
0.003510352
0.003518244
0.003511072
0.003510923
0.003510635
0.003510424
0.003510262
0.003510129
0.003517046
0.003510124
0.003510238
0.003510094
0.003509986
0.003509889
0.00350981
0.003516226
0.003509683
0.003509804
0.003509729
0.003509677
0.003509623
0.003509576
0.003515554
0.003509285
0.003509445
0.003509411
0.003509395
0.003509375
0.003509354
0.003515002
0.003509004
0.003509167
0.003509155
0.003509159
0.003509159
0.003509157
0.003514528
0.00350877
0.003508933
0.003508935
0.003508952
0.003508965
0.003508977
0.003514115
0.00350858
0.003508736
0.003508746
0.003508771
0.003508793
0.003508815
0.003513746
0.003508418
0.003508568
0.003508581
0.00350861
0.003508638
0.003508666
0.003513415
0.003508278
0.00350842
0.003508436
0.003508467
0.003508497
0.00350853
0.003513111
0.003508154
0.003508289
0.003508306
0.003508339
0.00350837
0.003508406
0.003512836
0.003508045
0.00350817
0.00350819
0.003508222
0.003508254
0.003508291
0.003512581
0.003507947
0.003508063
0.003508085
0.003508115
0.003508148
0.003508186
0.003512344
0.003507858
0.003507965
0.003507991
0.003508018
0.003508051
0.003508089
0.003512125
0.003507777
0.003507875
0.003507901
0.003507928
0.00350796
0.003507999
0.003511919
0.003507702
0.003507792
0.003507818
0.003507846
0.003507877
0.003507915
0.00351173
0.003507634
0.003507716
0.003507741
0.003507771
0.0035078
0.003507837
0.003511552
0.00350757
0.003507646
0.00350767
0.003507701
0.003507728
0.003507765
0.003511386
0.003507511
0.003507581
0.003507605
0.003507635
0.003507661
0.003507697
0.00351123
0.003507457
0.00350752
0.003507544
0.003507574
0.003507599
0.003507633
0.003511055
0.003735654
0.003507464
0.003507487
0.003507517
0.003507541
0.003507574
0.003873836
0.004746458
0.003543279
0.003532391
0.003865576
0.003861544
0.004600908
0.004285915
0.003526982
0.003520838
0.003852169
0.003846577
0.00425433
0.004125681
0.003519101
0.003517782
0.003835656
0.003835239
0.004121737
0.004028518
0.003517236
0.003515825
0.003824425
0.003826187
0.004032638
0.003959629
0.003516022
0.003514456
0.00381556
0.003818765
0.003967975
0.003906416
0.0035152
0.003513665
0.003808139
0.003917646
0.003514554
0.003840593
0.003840161
0.003531923
0.003519874
0.003525237
0.003518814
0.003827047
0.003823847
0.003524102
0.003515845
0.003519978
0.003513235
0.003812843
0.003811109
0.003519003
0.003511914
0.003518008
0.003511468
0.00380091
0.003800153
0.003517552
0.003510829
0.003516773
0.003510379
0.00379146
0.003791274
0.003516361
0.003509937
0.003515931
0.003509771
0.003783459
0.003783647
0.003515581
0.003509475
0.00351528
0.003509326
0.003776665
0.003777078
0.003514937
0.003509093
0.003514745
0.003509001
0.003770728
0.003771287
0.003514413
0.003508821
0.003514287
0.003508746
0.003765482
0.003766137
0.003513964
0.003508597
0.003513889
0.003508537
0.003760786
0.003761509
0.003513572
0.003508413
0.003513535
0.003508362
0.003756546
0.003757315
0.003513225
0.003508256
0.003513217
0.003508211
0.003752689
0.003753487
0.003512912
0.00350812
0.003512928
0.003508079
0.003749157
0.003749975
0.003512627
0.003508
0.003512663
0.003507962
0.003745909
0.003746734
0.003512367
0.003507893
0.00351242
0.003507857
0.00374291
0.003743728
0.003512126
0.003507796
0.003512194
0.003507762
0.003740126
0.003740934
0.003511904
0.003507708
0.003511984
0.003507676
0.003737537
0.003738332
0.003511697
0.003507628
0.003511788
0.003507597
0.003735124
0.003735905
0.003511505
0.003507554
0.003511606
0.003507525
0.00373287
0.003733638
0.003511326
0.003507486
0.003511434
0.003507458
0.003730765
0.003731517
0.003511159
0.003507423
0.003511274
0.003507396
0.003728793
0.003729529
0.003511002
0.003507365
0.003511124
0.003507339
0.003726945
0.003727664
0.003510856
0.003507311
0.003510982
0.003507286
0.00372526
0.003510534
0.003511045
0.00350726
0.003510549
0.003506833
0.004929749
0.003535794
0.003528282
0.004929613
0.003532335
0.003528516
0.005000203
0.003532499
0.003531873
0.004886256
0.00353252
0.00353215
0.005020081
0.003532775
0.003532858
0.004860605
0.003532998
0.003532645
0.005034534
0.003532842
0.003532591
0.004985178
0.003533568
0.003533204
0.004856232
0.003532718
0.003532727
0.005034675
0.003533407
0.003532687
0.004868376
0.003532416
0.003532849
0.0050237
0.0035334
0.003532826
0.004885138
0.003531995
0.003532163
0.004996709
0.003533322
0.003531856
0.004930435
0.003531616
0.003528547
0.004928619
0.003536223
0.003528284
0.004750914
0.003542599
0.003532397
0.003873842
0.004288641
0.00352698
0.00352084
0.003865571
0.003861548
0.004127436
0.0035191
0.003517783
0.003852167
0.003846579
0.004029743
0.003517234
0.003515825
0.003835655
0.003835237
0.003960535
0.003516022
0.003514455
0.003824423
0.003826187
0.003907076
0.003515198
0.003513668
0.003815558
0.003818761
0.003510043
0.00351677
0.003510373
0.003800712
0.003800145
0.003508757
0.003515274
0.003509323
0.003783355
0.003783639
0.003508366
0.003514739
0.003508999
0.003776606
0.003777067
0.003508129
0.003514282
0.003508743
0.003770686
0.003771278
0.003507937
0.003513883
0.003508535
0.003765456
0.003766132
0.003507781
0.003513529
0.00350836
0.003760774
0.003761502
0.00350746
0.003512658
0.003507961
0.003749168
0.003749969
0.003507352
0.003512414
0.003507856
0.003745927
0.003746728
0.003507274
0.003512188
0.003507761
0.003742933
0.003743723
0.003507204
0.003511978
0.003507675
0.003740153
0.003740928
0.003507095
0.0035116
0.003507524
0.003735161
0.0037359
0.003507027
0.003511429
0.003507457
0.003732908
0.003733634
0.003506943
0.003511118
0.003507338
0.003728844
0.00372953
0.003506889
0.003510977
0.003507285
0.003726995
0.003727668
0.003507259
0.003510516
0.003507237
0.003725269
0.003510496
0.003860797
0.004120754
0.003683079
0.004057876
0.003688598
0.00403646
0.003638895
0.004000216
0.00364089
0.003991122
0.003614276
0.003962615
0.003617511
0.003959789
0.003598013
0.003935694
0.003600802
0.00393569
0.003586189
0.00391457
0.003588686
0.003916505
0.003576957
0.003897226
0.003579363
0.003900692
0.003530292
0.00399586
0.0035422
0.003982572
0.00352068
0.003951648
0.003524083
0.003944152
0.003516951
0.003918672
0.003518419
0.003914399
0.003515257
0.003892529
0.003516295
0.003889927
0.003514094
0.003871523
0.003514792
0.003869973
0.003513305
0.003853586
0.003513827
0.003852763
0.003512684
0.003837985
0.003513073
0.003837779
0.003512189
0.003824525
0.003512499
0.003824688
0.003511783
0.003812696
0.003512032
0.003813068
0.003511436
0.003802196
0.003511643
0.003802638
0.003511129
0.003792771
0.003511306
0.003793196
0.003510859
0.003784199
0.003511011
0.00378459
0.003510617
0.003776333
0.003510749
0.003776695
0.0035104
0.003769088
0.003510516
0.003769411
0.003510202
0.003762389
0.003510304
0.003762667
0.003510023
0.003756166
0.003510113
0.003756402
0.003509858
0.003750369
0.003509937
0.003750566
0.003509706
0.003744956
0.003509777
0.003745115
0.003509566
0.003739892
0.003509629
0.003740016
0.003509436
0.00373515
0.003509492
0.003735245
0.003509315
0.003730711
0.003509365
0.003730787
0.003509202
0.003726551
0.003509247
0.003726604
0.003509095
0.00372265
0.003509136
0.003722661
0.003883153
0.003873513
0.003871507
0.003863107
0.003874632
0.003867945
0.003876038
0.003872958
0.003869608
0.003875842
0.003869768
0.003874435
0.003869269
0.003876387
0.003870277
0.003874915
0.003841817
0.003871076
0.003514497
0.003808138
0.003518804
0.003525225
0.003518799
0.00384029
0.003840138
0.003514866
0.003519962
0.00351322
0.003826777
0.003823831
0.003510988
0.003518006
0.003511459
0.003812647
0.003811102
0.003509125
0.003515928
0.003509765
0.003791352
0.00379127
0.00350765
0.003513211
0.003508209
0.003756542
0.003757312
0.003507537
0.003512922
0.003508076
0.003752696
0.003753481
0.00350714
0.003511783
0.003507595
0.003737568
0.003738328
0.003506977
0.003511269
0.003507394
0.003730806
0.003731517
0.003735534
0.004078187
0.003726317
0.004098981
0.003553549
0.004022693
0.003547178
0.004025009
0.003841157
0.00387337
0.003662459
0.004017883
0.003667359
0.004026757
0.003631225
0.003979445
0.003639491
0.00398173
0.003610365
0.003952129
0.003619025
0.003950745
0.003595787
0.003930702
0.003603948
0.003926728
0.003584841
0.003913198
0.003592494
0.003907388
0.003525391
0.003968327
0.003525382
0.003975218
0.003519188
0.003932487
0.003519107
0.003936972
0.003516389
0.003904779
0.003516654
0.003907643
0.003514914
0.003882109
0.003515006
0.00388392
0.003513888
0.003863316
0.00351394
0.00386448
0.003513144
0.003846962
0.003513156
0.00384759
0.003512565
0.003832805
0.003512561
0.003833046
0.003512099
0.003820332
0.003512072
0.003820321
0.003511708
0.003809221
0.003511666
0.003809051
0.003511373
0.003799235
0.003511322
0.003798949
0.003511077
0.003790143
0.003511022
0.003789759
0.003510815
0.003781827
0.003510756
0.003781382
0.003510579
0.003774165
0.003510519
0.003773704
0.003510366
0.003767081
0.003510304
0.003766608
0.003510172
0.003760516
0.003510109
0.003760048
0.003509995
0.003754402
0.00350993
0.003753954
0.003509833
0.003748701
0.003509767
0.003748275
0.003509683
0.003743371
0.003509617
0.00374297
0.003509545
0.003738381
0.003509479
0.003738007
0.003509416
0.003733713
0.003509351
0.003733369
0.003509296
0.00372935
0.003509232
0.003729038
0.003509185
0.003725248
0.003509121
0.003724977
0.003509075
0.003517135
0.003721161
0.003508342
0.003870499
0.00387574
0.003870063
0.003875955
0.003872797
0.003875977
0.003872538
0.003877177
0.003875353
0.003871852
0.003877932
0.003871403
0.003873767
0.003865685
0.003880891
0.003872156
0.003862522
0.004120732
0.003662786
0.004014047
0.003667785
0.004026621
0.003638889
0.004000322
0.003640746
0.003991117
0.003515235
0.003892517
0.003516285
0.00388992
0.003513287
0.00385358
0.003513817
0.003852761
0.003513144
0.003846951
0.00351316
0.003847589
0.003512668
0.003838047
0.00351301
0.003837779
0.003511398
0.00379923
0.003511326
0.003798924
0.003510609
0.003776331
0.003510744
0.003776694
0.003510579
0.003774161
0.003510523
0.003773702
0.003510392
0.003769095
0.003510485
0.00376941
0.003510366
0.003767079
0.003510308
0.003766606
0.003510195
0.003762394
0.003510276
0.003762666
0.003510172
0.003760514
0.003510114
0.003760047
0.003510017
0.003756169
0.003510087
0.003756402
0.003509995
0.003754403
0.003509935
0.003753953
0.003509701
0.003744957
0.003509773
0.003745116
0.003509683
0.003743373
0.003509621
0.00374297
0.003509561
0.003739891
0.003509607
0.003740018
0.003509544
0.003738386
0.003509483
0.003738007
0.00350931
0.003730732
0.003509363
0.003730791
0.003509296
0.003729362
0.003509236
0.003729045
0.003509198
0.003726557
0.003509229
0.003726617
0.003509185
0.003725271
0.003509126
0.003724991
0.003509095
0.003722665
0.003509123
0.003722683
0.003509078
0.00356683
0.003721186
0.003508337
0.005753466
0.003950783
0.004757455
0.003822458
0.00484541
0.003819566
0.004376273
0.003803637
0.004469655
0.003802577
0.004205631
0.00379352
0.004288783
0.003793138
0.004095011
0.003786581
0.004171557
0.003786636
0.004016405
0.003781333
0.004087168
0.003781689
0.003958267
0.003777139
0.004022067
0.00377773
0.005812477
0.005820407
0.005848468
0.00589166
0.005873049
0.005868823
0.005863823
0.005869884
0.005860513
0.005869092
0.005868118
0.005852927
0.005829198
0.005840124
0.0058028
0.00579368
0.005712588
0.005717536
0.005196644
0.003830718
0.005218635
0.003832671
0.005725531
0.005729645
0.004570701
0.003809667
0.004687235
0.003808037
0.004324578
0.003798794
0.004437096
0.003796339
0.004182227
0.003791519
0.00428559
0.00378856
0.004084696
0.003786058
0.004178416
0.003782758
0.004013508
0.003781719
0.004096455
0.003778173
0.005824653
0.005837301
0.005836749
0.005813062
0.005844105
0.005843421
0.005868093
0.005853078
0.005862782
0.005862258
0.005908016
0.005893946
0.005867441
0.005850105
0.005804155
0.005811668
0.005761941
0.003950556
0.003735202
0.004073024
0.003726074
0.004098824
0.003553688
0.004022634
0.003547144
0.004025009
0.003683221
0.004058156
0.00368825
0.00404084
0.004376352
0.003803632
0.003802577
0.004469708
0.003631224
0.003976365
0.003640082
0.003981692
0.003614246
0.003962642
0.003617352
0.003959763
0.003610455
0.003949623
0.003619801
0.003950701
0.003598022
0.003935736
0.003600763
0.003935697
0.003586159
0.003914554
0.003588637
0.0039165
0.003584946
0.003911393
0.003593474
0.003907364
0.003514914
0.003882082
0.003515011
0.003883914
0.003523655
0.003846861
0.003524687
0.003845504
0.003523242
0.003840765
0.003839486
0.003522677
0.003512565
0.003832799
0.003512564
0.003833042
0.003512174
0.003824573
0.003512444
0.003824688
0.003512099
0.003820323
0.003512076
0.003820318
0.003511772
0.003812731
0.003511983
0.003813066
0.003511709
0.003809209
0.003511672
0.003809056
0.00351142
0.003802228
0.003511601
0.003802639
0.003519484
0.003797125
0.003519901
0.003796369
0.003516484
0.003758079
0.003516696
0.003757608
0.003516455
0.003755899
0.003755252
0.003515977
0.003513792
0.003719756
0.00371939
0.003513866
0.005722759
0.003858014
0.00562897
0.003865146
0.003941047
0.004125889
0.003600674
0.00411826
0.005658284
0.005710737
0.004772179
0.003816495
0.004836259
0.003816534
0.004408065
0.003801996
0.004489495
0.003800695
0.004230996
0.003793387
0.00430686
0.003791356
0.004115425
0.003787264
0.004186622
0.003784782
0.004032813
0.003782514
0.004099006
0.003779702
0.003971093
0.003778679
0.004031267
0.003775626
0.005797302
0.005793278
0.005825533
0.005840558
0.005830459
0.005844428
0.005889112
0.005877565
0.005866594
0.005867723
0.005880716
0.005908806
0.005862528
0.005849605
0.005838125
0.005841543
0.00583719
0.005798864
0.003897204
0.003580126
0.003576819
0.003996528
0.00354188
0.003982678
0.003529967
0.003968319
0.003975314
0.003525387
0.003525382
0.003952039
0.003944225
0.003520642
0.003523876
0.003932446
0.00393704
0.003519187
0.003519112
0.003918899
0.003914445
0.00351692
0.003518282
0.003904752
0.00351675
0.003907681
0.003516384
0.003871621
0.00351471
0.003870012