/*--------------------------------*- C++ -*----------------------------------*\
  =========                 |
  \\      /  F ield         | OpenFOAM: The Open Source CFD Toolbox
   \\    /   O peration     | Website:  https://openfoam.org
    \\  /    A nd           | Version:  7
     \\/     M anipulation  |
\*---------------------------------------------------------------------------*/
FoamFile
{
    version     2.0;
    format      ascii;
    class       volScalarField;
    location    "0.07";
    object      nut;
}
// * * * * * * * * * * * * * * * * * * * * * * * * * * * * * * * * * * * * * //

dimensions      [0 2 -1 0 0 0 0];

internalField   nonuniform List<scalar> 
76598
(
0.000270255
0.0002723416
0.0002723273
0.0002721909
0.0002720392
0.0002718908
0.00027178
0.0002717087
0.001336237
0.00130261
0.001292928
0.001291554
0.001291744
0.001291789
0.001291468
0.001291039
0.001310966
0.001257406
0.001245116
0.001246427
0.001247867
0.001248401
0.001247843
0.001244722
0.001303543
0.001247333
0.001238206
0.001260724
0.001260363
0.001262074
0.001268874
0.001248826
0.001302877
0.001249319
0.001261319
0.001272302
0.0005736112
0.000578404
0.001307865
0.001306406
0.00130331
0.001250747
0.00126065
0.0005740457
0.0006143229
0.0002841182
0.0006344245
0.0006174964
0.001303233
0.00125022
0.001258936
0.0005770478
0.0002879097
0.001302413
0.001247338
0.001255831
0.001262136
0.001294747
0.001315952
0.001319714
0.001319547
0.001301337
0.001241697
0.001226789
0.001227642
0.001233674
0.001239099
0.001241173
0.001241886
0.001300578
0.001237854
0.001217967
0.001213846
0.001214171
0.001215314
0.001216202
0.001216805
0.001300253
0.001236664
0.001215415
0.001209612
0.001208289
0.001208256
0.001208621
0.001209067
0.001300152
0.001236268
0.001214552
0.001208174
0.001206297
0.001205857
0.001206005
0.001206347
0.001300142
0.001236116
0.001214211
0.001207602
0.001205503
0.001204897
0.001204951
0.001205242
0.001300157
0.001236071
0.001214079
0.001207374
0.001205174
0.001204495
0.001204499
0.001204765
0.001300197
0.001236074
0.00121404
0.001207288
0.001205041
0.001204325
0.001204306
0.001204557
0.00130024
0.001236099
0.001214044
0.001207268
0.001204997
0.001204261
0.00120423
0.00120447
0.001300289
0.001236137
0.00121407
0.00120728
0.001204994
0.001204247
0.001204205
0.001204441
0.001300343
0.001236185
0.001214109
0.001207309
0.001205015
0.001204259
0.00120421
0.001204442
0.001300401
0.001236239
0.001214157
0.001207351
0.001205049
0.001204287
0.001204233
0.001204459
0.001300465
0.0012363
0.001214214
0.001207401
0.001205093
0.001204325
0.001204265
0.001204487
0.001300538
0.001236371
0.001214279
0.001207462
0.001205149
0.001204376
0.001204311
0.001204529
0.00130062
0.001236454
0.001214362
0.001207542
0.001205226
0.001204449
0.001204381
0.001204593
0.001300719
0.00123656
0.001214474
0.001207657
0.001205345
0.001204567
0.001204496
0.001204703
0.001300844
0.001236708
0.001214644
0.001207844
0.001205546
0.001204773
0.001204701
0.001204901
0.0006089678
0.001291692
0.001273038
0.001266608
0.0012655
0.0012657
0.001266256
0.001266912
0.0001006832
0.0001007192
0.00010075
0.00010075
0.0001007507
0.000100751
0.0001007511
0.0001007511
0.0001007512
0.0001006826
0.0001007183
0.0001007178
0.0001007184
0.0001007196
0.0001007201
0.0001007201
0.0001007199
0.0001007198
0.0001006817
0.0001007182
0.0001007179
0.0001007284
0.000100756
0.0001007543
0.0001007388
0.0001007299
0.0001007233
0.0001006806
0.0001007186
0.0001007188
0.0001007716
0.0001008024
0.0001006973
0.0001006993
0.0001007471
0.000100734
0.0001006792
0.0001007189
0.0001007195
0.0001007998
0.0001007062
0.0001008539
0.0001013472
0.000100845
0.0001007998
0.0001006775
0.0001007178
0.0001007189
0.0001007932
0.0001007001
0.0001008226
0.000334702
0.0003414956
0.0001006758
0.000100716
0.0001007156
0.0001007398
0.0001007191
0.0001007227
0.0001007179
0.0001007136
0.0001007127
0.0001006744
0.0001007145
0.000100713
0.0001007127
0.0001007133
0.0001007116
0.0001007114
0.0001007125
0.0001007093
0.0001006732
0.0001007135
0.0001007119
0.0001007112
0.0001007106
0.0001007101
0.000100712
0.0001007096
0.0001007113
0.0001006721
0.0001007128
0.0001007112
0.0001007107
0.0001007102
0.0001007097
0.00010071
0.0001007118
0.0001007096
0.0001006713
0.0001007123
0.0001007108
0.0001007104
0.00010071
0.0001007097
0.0001007102
0.0001007111
0.0001007109
0.0001006706
0.0001007119
0.0001007105
0.0001007102
0.00010071
0.0001007098
0.0001007097
0.000100711
0.0001007104
0.00010067
0.0001007115
0.0001007102
0.0001007101
0.0001007099
0.0001007098
0.0001007097
0.0001007108
0.0001007108
0.0001006695
0.0001007112
0.00010071
0.0001007099
0.0001007098
0.0001007097
0.0001007097
0.0001007108
0.0001007107
0.000100669
0.000100711
0.0001007098
0.0001007097
0.0001007097
0.0001007096
0.0001007096
0.0001007107
0.0001007106
0.0001006685
0.0001007107
0.0001007096
0.0001007095
0.0001007095
0.0001007094
0.0001007094
0.0001007105
0.0001007105
0.0001006681
0.0001007105
0.0001007093
0.0001007093
0.0001007093
0.0001007093
0.0001007092
0.0001007104
0.0001007104
0.0001006676
0.0001007102
0.0001007091
0.000100709
0.000100709
0.000100709
0.000100709
0.0001007101
0.0001007102
0.0001006671
0.0001007099
0.0001007088
0.0001007088
0.0001007088
0.0001007088
0.0001007088
0.0001007099
0.00010071
0.0001006666
0.0001007096
0.0001007085
0.0001007085
0.0001007085
0.0001007085
0.0001007085
0.0001007097
0.0001007097
0.0001006661
0.0001007094
0.0001007082
0.0001007082
0.0001007082
0.0001007082
0.0001007082
0.0001007095
0.0001007095
0.0001006655
0.0001007091
0.0001007079
0.0001007078
0.0001007078
0.0001007078
0.0001007079
0.0001007092
0.0001007092
0.0001006693
0.0001007088
0.0001007076
0.0001007075
0.0001007075
0.0001007075
0.0001007075
0.0001007091
0.0001007091
0.000603723
0.001269539
0.001235812
0.00122562
0.001223615
0.001223744
0.001224496
0.001225522
0.0001006831
0.0001006883
0.0001007193
0.000100719
0.0001007197
0.00010072
0.0001007201
0.0001007201
0.0001007201
0.0001006873
0.000100688
0.0001006885
0.0001006892
0.0001006903
0.0001006909
0.0001006908
0.0001006908
0.0001006908
0.0001006871
0.0001006882
0.0001006886
0.0001006899
0.000100692
0.0001006925
0.0001006925
0.0001006913
0.0001006912
0.0001006868
0.0001006885
0.0001006892
0.000100692
0.0001006974
0.0001006971
0.0001006997
0.0001006931
0.0001008292
0.0001006864
0.0001006887
0.0001006895
0.0001006966
0.0001007054
0.0001008563
0.0001013571
0.0001008565
0.0009963355
0.0001006855
0.0001006876
0.0001006888
0.0001006939
0.0001007003
0.0001008156
0.0003361498
0.001009589
0.0001006842
0.0001006858
0.000100686
0.0001006863
0.0001006894
0.0001006918
0.0001006865
0.0001006825
0.0001007083
0.000100683
0.0001006843
0.0001006839
0.0001006834
0.0001006831
0.0001006823
0.000100682
0.0001006799
0.0001006805
0.0001006821
0.0001006833
0.0001006827
0.000100682
0.0001006814
0.0001006807
0.00010068
0.0001006802
0.0001006802
0.0001006814
0.0001006825
0.000100682
0.0001006814
0.0001006808
0.0001006803
0.0001006801
0.00010068
0.0001006802
0.0001006808
0.000100682
0.0001006816
0.0001006811
0.0001006806
0.0001006802
0.0001006801
0.0001006801
0.0001006802
0.0001006804
0.0001006816
0.0001006812
0.0001006809
0.0001006805
0.0001006803
0.0001006801
0.0001006801
0.0001006802
0.00010068
0.0001006813
0.000100681
0.0001006807
0.0001006805
0.0001006802
0.0001006801
0.0001006801
0.0001006802
0.0001006797
0.000100681
0.0001006807
0.0001006806
0.0001006803
0.0001006802
0.0001006801
0.00010068
0.0001006801
0.0001006794
0.0001006808
0.0001006805
0.0001006804
0.0001006802
0.00010068
0.00010068
0.0001006799
0.00010068
0.0001006791
0.0001006805
0.0001006803
0.0001006802
0.00010068
0.0001006799
0.0001006798
0.0001006798
0.0001006798
0.0001006788
0.0001006803
0.0001006801
0.00010068
0.0001006798
0.0001006797
0.0001006796
0.0001006796
0.0001006797
0.0001006785
0.00010068
0.0001006798
0.0001006797
0.0001006796
0.0001006795
0.0001006794
0.0001006794
0.0001006795
0.0001006782
0.0001006798
0.0001006795
0.0001006794
0.0001006793
0.0001006792
0.0001006792
0.0001006792
0.0001006792
0.0001006778
0.0001006795
0.0001006792
0.0001006791
0.000100679
0.0001006789
0.0001006789
0.0001006789
0.000100679
0.0001006775
0.0001006792
0.0001006789
0.0001006788
0.0001006787
0.0001006786
0.0001006786
0.0001006786
0.0001006787
0.0001006771
0.0001006789
0.0001006786
0.0001006785
0.0001006783
0.0001006783
0.0001006782
0.0001006783
0.0001006784
0.0001006766
0.0001006787
0.0001006783
0.0001006782
0.000100678
0.0001006779
0.0001006779
0.000100678
0.0001006781
0.0006027527
0.001261354
0.001223771
0.001211384
0.001208938
0.001209086
0.001210047
0.001211414
0.0001006832
0.0001006883
0.0001007192
0.0001007189
0.0001007195
0.0001007198
0.0001007199
0.0001007199
0.0001007199
0.0001006873
0.000100688
0.0001006886
0.0001006892
0.0001006903
0.000100691
0.0001006908
0.0001006908
0.0001006908
0.0001006869
0.0001006883
0.0001006886
0.0001006899
0.000100692
0.0001006925
0.0001006925
0.0001006912
0.0001006912
0.0001006868
0.0001006887
0.0001006893
0.0001006921
0.0001006975
0.0001006969
0.0001006996
0.0001006932
0.0001008311
0.0001006858
0.0001006888
0.0001006895
0.0001006966
0.000100706
0.0001008571
0.0001013657
0.0001008732
0.0009482014
0.0001006848
0.0001006877
0.0001006888
0.000100694
0.0001007002
0.0001008131
0.000327408
0.0009564867
0.0001006838
0.000100686
0.0001006861
0.0001006863
0.0001006893
0.000100692
0.000100686
0.0001006829
0.0001007074
0.0001006829
0.0001006845
0.0001006839
0.0001006834
0.0001006831
0.0001006822
0.0001006821
0.0001006796
0.0001006802
0.0001006821
0.0001006835
0.0001006829
0.0001006821
0.0001006814
0.0001006806
0.0001006799
0.0001006801
0.0001006801
0.0001006815
0.0001006828
0.0001006821
0.0001006815
0.0001006808
0.0001006803
0.0001006801
0.00010068
0.0001006802
0.000100681
0.0001006823
0.0001006817
0.0001006811
0.0001006806
0.0001006802
0.00010068
0.0001006801
0.0001006802
0.0001006806
0.0001006819
0.0001006814
0.0001006809
0.0001006806
0.0001006803
0.0001006801
0.0001006801
0.0001006802
0.0001006803
0.0001006816
0.0001006811
0.0001006808
0.0001006805
0.0001006802
0.0001006801
0.0001006801
0.0001006802
0.00010068
0.0001006813
0.0001006809
0.0001006806
0.0001006803
0.0001006802
0.0001006801
0.00010068
0.0001006801
0.0001006797
0.000100681
0.0001006807
0.0001006804
0.0001006802
0.00010068
0.00010068
0.0001006799
0.00010068
0.0001006794
0.0001006808
0.0001006804
0.0001006802
0.00010068
0.0001006799
0.0001006798
0.0001006798
0.0001006799
0.0001006791
0.0001006805
0.0001006802
0.00010068
0.0001006798
0.0001006797
0.0001006796
0.0001006796
0.0001006797
0.0001006788
0.0001006803
0.0001006799
0.0001006797
0.0001006796
0.0001006795
0.0001006794
0.0001006794
0.0001006795
0.0001006784
0.00010068
0.0001006797
0.0001006794
0.0001006793
0.0001006792
0.0001006792
0.0001006792
0.0001006792
0.0001006781
0.0001006798
0.0001006794
0.0001006792
0.000100679
0.0001006789
0.0001006789
0.0001006789
0.000100679
0.0001006777
0.0001006795
0.0001006791
0.0001006788
0.0001006787
0.0001006786
0.0001006786
0.0001006786
0.0001006787
0.0001006772
0.0001006792
0.0001006788
0.0001006785
0.0001006784
0.0001006783
0.0001006782
0.0001006783
0.0001006784
0.0001006768
0.000100679
0.0001006784
0.0001006782
0.000100678
0.0001006779
0.0001006779
0.000100678
0.0001006781
0.0006025761
0.001259737
0.001221303
0.001208498
0.001205937
0.001206131
0.001207219
0.00120876
0.0001006832
0.0001006883
0.0001007192
0.0001007189
0.0001007195
0.0001007198
0.0001007199
0.0001007199
0.0001007199
0.0001006873
0.000100688
0.0001006886
0.0001006892
0.0001006903
0.0001006909
0.0001006908
0.0001006908
0.0001006909
0.0001006869
0.0001006883
0.0001006886
0.0001006899
0.0001006919
0.0001006926
0.0001006925
0.0001006913
0.0001006912
0.0001006868
0.0001006887
0.0001006893
0.000100692
0.0001006976
0.000100697
0.0001006996
0.0001006932
0.0001008316
0.0001006858
0.0001006889
0.0001006896
0.0001006965
0.000100706
0.0001008567
0.0001013669
0.0001008757
0.0009288018
0.0001006848
0.0001006878
0.0001006889
0.000100694
0.0001007005
0.000100812
0.0003246327
0.0009351818
0.0001006838
0.000100686
0.0001006862
0.0001006863
0.0001006894
0.0001006922
0.000100686
0.0001006835
0.0001007071
0.0001006829
0.0001006845
0.0001006841
0.0001006835
0.0001006831
0.0001006822
0.0001006821
0.0001006795
0.0001006801
0.0001006821
0.0001006835
0.000100683
0.0001006821
0.0001006814
0.0001006807
0.0001006799
0.0001006801
0.0001006801
0.0001006815
0.0001006828
0.0001006822
0.0001006815
0.0001006809
0.0001006803
0.0001006801
0.00010068
0.0001006802
0.000100681
0.0001006823
0.0001006818
0.0001006812
0.0001006807
0.0001006802
0.00010068
0.00010068
0.0001006802
0.0001006806
0.0001006819
0.0001006815
0.000100681
0.0001006806
0.0001006803
0.0001006801
0.0001006801
0.0001006802
0.0001006802
0.0001006816
0.0001006812
0.0001006808
0.0001006805
0.0001006802
0.0001006801
0.0001006801
0.0001006802
0.0001006799
0.0001006813
0.000100681
0.0001006807
0.0001006804
0.0001006802
0.0001006801
0.00010068
0.0001006801
0.0001006796
0.0001006811
0.0001006808
0.0001006805
0.0001006803
0.0001006801
0.00010068
0.0001006799
0.00010068
0.0001006794
0.0001006808
0.0001006806
0.0001006803
0.0001006801
0.0001006799
0.0001006798
0.0001006798
0.0001006799
0.0001006791
0.0001006806
0.0001006803
0.0001006801
0.0001006799
0.0001006797
0.0001006796
0.0001006796
0.0001006797
0.0001006787
0.0001006804
0.0001006801
0.0001006798
0.0001006796
0.0001006795
0.0001006794
0.0001006794
0.0001006795
0.0001006784
0.0001006801
0.0001006798
0.0001006796
0.0001006794
0.0001006792
0.0001006792
0.0001006792
0.0001006792
0.000100678
0.0001006799
0.0001006795
0.0001006793
0.0001006791
0.0001006789
0.0001006789
0.0001006789
0.000100679
0.0001006777
0.0001006796
0.0001006792
0.000100679
0.0001006787
0.0001006786
0.0001006786
0.0001006786
0.0001006787
0.0001006772
0.0001006793
0.0001006789
0.0001006786
0.0001006784
0.0001006783
0.0001006783
0.0001006783
0.0001006784
0.0001006767
0.0001006791
0.0001006786
0.0001006783
0.0001006781
0.000100678
0.0001006779
0.000100678
0.0001006781
0.0006026713
0.001260843
0.001223126
0.001210689
0.001208258
0.001208465
0.001209465
0.001210758
0.0001006832
0.0001006883
0.0001007192
0.0001007189
0.0001007196
0.0001007199
0.00010072
0.0001007199
0.0001007199
0.0001006873
0.000100688
0.0001006886
0.0001006892
0.0001006903
0.0001006909
0.0001006908
0.0001006908
0.0001006909
0.0001006869
0.0001006883
0.0001006886
0.0001006899
0.0001006919
0.0001006926
0.0001006925
0.0001006913
0.0001006912
0.0001006868
0.0001006887
0.0001006893
0.000100692
0.0001006975
0.0001006969
0.0001006996
0.0001006932
0.0001008314
0.0001006859
0.0001006889
0.0001006896
0.0001006965
0.0001007061
0.0001008568
0.0001013665
0.0001008623
0.0009288083
0.0001006848
0.0001006878
0.0001006889
0.000100694
0.0001007004
0.0001008121
0.000324298
0.0009350805
0.0001006838
0.000100686
0.0001006862
0.0001006864
0.0001006894
0.0001006922
0.000100686
0.0001006835
0.0001007071
0.0001006829
0.0001006846
0.0001006841
0.0001006835
0.0001006831
0.0001006822
0.0001006821
0.0001006795
0.00010068
0.0001006821
0.0001006835
0.000100683
0.0001006821
0.0001006814
0.0001006807
0.0001006799
0.0001006801
0.0001006801
0.0001006815
0.0001006828
0.0001006822
0.0001006815
0.0001006809
0.0001006803
0.0001006801
0.0001006799
0.0001006802
0.000100681
0.0001006823
0.0001006818
0.0001006812
0.0001006807
0.0001006802
0.00010068
0.00010068
0.0001006802
0.0001006806
0.0001006819
0.0001006815
0.000100681
0.0001006806
0.0001006803
0.0001006801
0.0001006801
0.0001006802
0.0001006803
0.0001006816
0.0001006812
0.0001006808
0.0001006805
0.0001006802
0.0001006801
0.0001006801
0.0001006802
0.00010068
0.0001006814
0.000100681
0.0001006807
0.0001006804
0.0001006802
0.0001006801
0.00010068
0.0001006801
0.0001006797
0.0001006811
0.0001006808
0.0001006805
0.0001006803
0.0001006801
0.00010068
0.0001006799
0.00010068
0.0001006794
0.0001006808
0.0001006806
0.0001006803
0.0001006801
0.0001006799
0.0001006798
0.0001006798
0.0001006798
0.0001006791
0.0001006806
0.0001006803
0.0001006801
0.0001006799
0.0001006797
0.0001006796
0.0001006796
0.0001006797
0.0001006788
0.0001006804
0.0001006801
0.0001006798
0.0001006796
0.0001006795
0.0001006794
0.0001006794
0.0001006795
0.0001006784
0.0001006801
0.0001006798
0.0001006796
0.0001006794
0.0001006792
0.0001006792
0.0001006792
0.0001006792
0.0001006781
0.0001006799
0.0001006795
0.0001006793
0.0001006791
0.0001006789
0.0001006789
0.0001006789
0.000100679
0.0001006777
0.0001006796
0.0001006792
0.000100679
0.0001006787
0.0001006786
0.0001006786
0.0001006786
0.0001006787
0.0001006772
0.0001006793
0.0001006789
0.0001006786
0.0001006784
0.0001006783
0.0001006783
0.0001006783
0.0001006784
0.0001006767
0.0001006791
0.0001006786
0.0001006783
0.0001006781
0.0001006779
0.0001006779
0.000100678
0.0001006781
0.0006029152
0.001267895
0.001233746
0.001223407
0.00122141
0.001221624
0.001222343
0.001222073
0.0001006832
0.0001006883
0.0001007194
0.0001007191
0.0001007198
0.0001007201
0.0001007202
0.0001007202
0.0001007201
0.0001006873
0.000100688
0.0001006886
0.0001006892
0.0001006903
0.000100691
0.0001006908
0.0001006908
0.0001006908
0.0001006869
0.0001006883
0.0001006886
0.0001006899
0.0001006919
0.0001006925
0.0001006925
0.0001006912
0.0001006912
0.0001006868
0.0001006887
0.0001006893
0.000100692
0.0001006975
0.0001006969
0.0001006996
0.0001006932
0.0001008311
0.0001006858
0.0001006889
0.0001006895
0.0001006965
0.0001007063
0.0001008569
0.000101369
0.000100858
0.000948304
0.0001006847
0.0001006877
0.0001006888
0.0001006939
0.0001007
0.0001008121
0.000325395
0.000956119
0.0001006839
0.000100686
0.0001006862
0.0001006864
0.0001006893
0.000100692
0.000100686
0.0001006829
0.0001007072
0.000100683
0.0001006846
0.000100684
0.0001006834
0.0001006831
0.0001006822
0.0001006821
0.0001006796
0.0001006802
0.0001006822
0.0001006836
0.000100683
0.0001006821
0.0001006814
0.0001006807
0.0001006799
0.0001006801
0.0001006801
0.0001006816
0.0001006828
0.0001006822
0.0001006815
0.0001006809
0.0001006803
0.0001006801
0.0001006799
0.0001006802
0.000100681
0.0001006823
0.0001006818
0.0001006812
0.0001006807
0.0001006803
0.0001006801
0.0001006801
0.0001006802
0.0001006807
0.0001006819
0.0001006815
0.000100681
0.0001006806
0.0001006803
0.0001006801
0.0001006801
0.0001006802
0.0001006804
0.0001006816
0.0001006813
0.0001006809
0.0001006805
0.0001006803
0.0001006801
0.0001006801
0.0001006802
0.00010068
0.0001006813
0.000100681
0.0001006807
0.0001006804
0.0001006802
0.0001006801
0.00010068
0.0001006801
0.0001006798
0.0001006811
0.0001006808
0.0001006805
0.0001006803
0.0001006801
0.00010068
0.0001006799
0.00010068
0.0001006795
0.0001006808
0.0001006806
0.0001006803
0.0001006801
0.0001006799
0.0001006798
0.0001006798
0.0001006798
0.0001006792
0.0001006806
0.0001006803
0.0001006801
0.0001006799
0.0001006797
0.0001006796
0.0001006796
0.0001006797
0.0001006788
0.0001006804
0.0001006801
0.0001006798
0.0001006797
0.0001006795
0.0001006794
0.0001006794
0.0001006795
0.0001006785
0.0001006801
0.0001006798
0.0001006796
0.0001006794
0.0001006792
0.0001006792
0.0001006792
0.0001006792
0.0001006781
0.0001006798
0.0001006795
0.0001006793
0.0001006791
0.0001006789
0.0001006789
0.0001006789
0.000100679
0.0001006777
0.0001006796
0.0001006792
0.000100679
0.0001006788
0.0001006786
0.0001006786
0.0001006786
0.0001006787
0.0001006773
0.0001006793
0.0001006789
0.0001006786
0.0001006784
0.0001006783
0.0001006782
0.0001006783
0.0001006784
0.0001006768
0.0001006791
0.0001006786
0.0001006783
0.0001006781
0.000100678
0.0001006779
0.000100678
0.0001006781
0.0006055004
0.001287593
0.001267787
0.001260883
0.00125975
0.001260197
0.001260836
0.001259616
0.0001006832
0.0001006884
0.0001007198
0.0001007198
0.0001007206
0.0001007209
0.000100721
0.000100721
0.000100721
0.0001006873
0.000100688
0.0001006886
0.0001006892
0.0001006903
0.000100691
0.0001006908
0.0001006908
0.0001006908
0.0001006873
0.0001006882
0.0001006886
0.0001006899
0.0001006919
0.0001006924
0.0001006925
0.0001006913
0.0001006912
0.000100687
0.0001006886
0.0001006892
0.000100692
0.0001006973
0.0001006968
0.0001006996
0.0001006931
0.0001008294
0.0001006867
0.0001006888
0.0001006895
0.0001006965
0.0001007062
0.0001008573
0.0001013618
0.0001008499
0.0009969048
0.0001006854
0.0001006877
0.0001006889
0.0001006939
0.0001006997
0.0001008134
0.0003309531
0.00100817
0.000100684
0.0001006858
0.000100686
0.0001006863
0.0001006894
0.0001006918
0.0001006865
0.0001006825
0.0001007082
0.0001006831
0.0001006847
0.0001006841
0.0001006835
0.0001006831
0.0001006823
0.000100682
0.0001006799
0.0001006805
0.0001006829
0.0001006835
0.000100683
0.0001006821
0.0001006814
0.0001006807
0.00010068
0.0001006802
0.0001006802
0.0001006818
0.0001006827
0.0001006822
0.0001006816
0.0001006809
0.0001006803
0.0001006801
0.00010068
0.0001006802
0.0001006812
0.0001006822
0.0001006818
0.0001006813
0.0001006807
0.0001006803
0.0001006801
0.0001006801
0.0001006802
0.0001006804
0.0001006818
0.0001006815
0.0001006811
0.0001006806
0.0001006803
0.0001006801
0.0001006801
0.0001006802
0.0001006802
0.0001006816
0.0001006813
0.0001006809
0.0001006805
0.0001006803
0.0001006801
0.0001006801
0.0001006802
0.0001006802
0.0001006814
0.0001006811
0.0001006808
0.0001006804
0.0001006802
0.0001006801
0.00010068
0.0001006801
0.0001006803
0.0001006811
0.0001006808
0.0001006806
0.0001006803
0.0001006801
0.00010068
0.0001006799
0.00010068
0.0001006795
0.0001006808
0.0001006806
0.0001006804
0.0001006801
0.0001006799
0.0001006798
0.0001006798
0.0001006798
0.0001006792
0.0001006805
0.0001006803
0.0001006801
0.0001006799
0.0001006797
0.0001006796
0.0001006796
0.0001006797
0.000100679
0.0001006803
0.0001006801
0.0001006799
0.0001006797
0.0001006795
0.0001006794
0.0001006794
0.0001006794
0.0001006787
0.00010068
0.0001006798
0.0001006796
0.0001006794
0.0001006792
0.0001006792
0.0001006791
0.0001006792
0.0001006783
0.0001006797
0.0001006795
0.0001006793
0.0001006791
0.0001006789
0.0001006789
0.0001006789
0.000100679
0.000100678
0.0001006795
0.0001006792
0.000100679
0.0001006788
0.0001006786
0.0001006786
0.0001006786
0.0001006787
0.0001006776
0.0001006792
0.0001006789
0.0001006787
0.0001006785
0.0001006783
0.0001006783
0.0001006783
0.0001006784
0.0001006772
0.000100679
0.0001006786
0.0001006784
0.0001006781
0.0001006779
0.0001006779
0.000100678
0.0001006781
0.0006098712
0.0005964368
0.0005774658
0.0005738434
0.0005722631
0.0005738701
0.0005755142
0.0005745046
0.0001006834
0.0001007192
0.000100719
0.0001007193
0.0001007201
0.0001007205
0.0001007206
0.0001007207
0.0001007208
0.0001006835
0.0001007185
0.0001007179
0.0001007185
0.0001007196
0.0001007202
0.0001007218
0.0001007204
0.00010072
0.0001006832
0.0001007184
0.000100718
0.0001007279
0.0001007555
0.0001007549
0.0001007413
0.000100731
0.0001007244
0.0001006824
0.0001007187
0.0001007189
0.0001007719
0.0001008028
0.000100697
0.0001006993
0.0001006931
0.0001007331
0.0001006815
0.0001007192
0.0001007195
0.0001007996
0.0001007067
0.0001008575
0.0001013602
0.0001008548
0.0001008585
0.0001006798
0.0001007187
0.0001007188
0.000100793
0.0001006991
0.0001008176
0.000342387
0.0003558377
0.0001006766
0.0001007169
0.0001007159
0.0001007425
0.0001007191
0.0001007226
0.000100718
0.0001007136
0.0001007128
0.0001006874
0.0001007144
0.0001007133
0.0001007127
0.0001007128
0.0001007116
0.0001007114
0.0001007105
0.0001007095
0.0001006759
0.0001007138
0.0001007121
0.0001007114
0.0001007107
0.0001007102
0.0001007128
0.0001007117
0.0001007107
0.0001006744
0.0001007129
0.0001007115
0.0001007108
0.0001007103
0.0001007098
0.0001007098
0.0001007113
0.0001007096
0.0001006738
0.0001007128
0.000100711
0.0001007106
0.0001007101
0.0001007098
0.0001007102
0.000100711
0.0001007108
0.0001006735
0.0001007121
0.0001007108
0.0001007104
0.0001007101
0.0001007098
0.0001007097
0.0001007108
0.0001007103
0.0001006864
0.0001007113
0.0001007107
0.0001007102
0.00010071
0.0001007098
0.0001007097
0.0001007108
0.0001007107
0.0001006863
0.0001007115
0.0001007103
0.00010071
0.0001007099
0.0001007097
0.0001007097
0.0001007108
0.0001007106
0.0001006719
0.0001007114
0.0001007101
0.0001007099
0.0001007097
0.0001007096
0.0001007096
0.0001007106
0.0001007106
0.0001006709
0.000100711
0.0001007099
0.0001007096
0.0001007096
0.0001007095
0.0001007094
0.0001007105
0.0001007104
0.0001006706
0.0001007108
0.0001007097
0.0001007094
0.0001007094
0.0001007093
0.0001007093
0.0001007103
0.0001007103
0.0001006701
0.0001007106
0.0001007094
0.0001007092
0.0001007091
0.0001007091
0.000100709
0.0001007102
0.0001007101
0.0001006696
0.0001007103
0.0001007092
0.0001007089
0.0001007089
0.0001007088
0.0001007088
0.0001007099
0.0001007097
0.0001006689
0.00010071
0.0001007089
0.0001007086
0.0001007086
0.0001007085
0.0001007086
0.00010071
0.0001007096
0.000100668
0.0001007097
0.0001007086
0.0001007083
0.0001007083
0.0001007082
0.0001007082
0.0001007094
0.0001007085
0.0001006672
0.0001007095
0.0001007083
0.000100708
0.0001007079
0.0001007085
0.0001007092
0.0001007118
0.0001007084
0.0001006671
0.0001007093
0.0001007081
0.0001007077
0.0001007078
0.0001007076
0.0001007075
0.0001007093
0.0001007077
0.0002692757
0.0002648938
0.0002651162
0.0005999583
0.0006021395
0.0002692838
0.0002686841
0.0002649167
0.0001006728
0.001340329
0.001310935
0.001300861
0.001298385
0.001298742
0.001299934
0.00130089
0.001299751
0.000100672
0.001311477
0.001259222
0.001247152
0.001248417
0.001251319
0.001253033
0.001253102
0.00125332
0.0001006707
0.001302108
0.001247395
0.001238709
0.001261547
0.001263029
0.001277895
0.001265537
0.00127478
0.0001006701
0.001299371
0.001248523
0.00126129
0.00127263
0.0001009422
0.0001008472
0.0001008301
0.001310057
0.0001007714
0.001299175
0.001249678
0.001260432
0.0001010436
0.000101082
0.0001013629
0.0001008858
0.0001009209
0.0001006649
0.001300016
0.001249325
0.001258659
0.0001009663
0.0001008404
0.0001006645
0.001299263
0.001246312
0.001255515
0.001262024
0.001294169
0.001312699
0.001317174
0.001317194
0.0001008584
0.00129586
0.001240357
0.001226404
0.001227465
0.001233421
0.001238605
0.001240508
0.001241219
0.0001008803
0.00129626
0.001236642
0.0012176
0.001213698
0.001214088
0.001215215
0.001216083
0.001216674
0.0001006621
0.001296287
0.001235713
0.001215082
0.001209474
0.001208237
0.00120824
0.001208624
0.001209077
0.0001006708
0.001296844
0.001235319
0.001214198
0.001208022
0.001206236
0.001205843
0.001206017
0.001206371
0.0001006641
0.001295382
0.001234682
0.001213738
0.001207413
0.001205423
0.001204869
0.001204947
0.001205252
0.0001009573
0.001291598
0.001234022
0.001213471
0.001207142
0.00120508
0.001204457
0.001204488
0.001204764
0.0001009619
0.00129147
0.001234007
0.001213424
0.001207057
0.001204948
0.001204285
0.001204292
0.001204552
0.0001009806
0.001295264
0.001234656
0.001213573
0.001207084
0.001204919
0.001204229
0.001204218
0.001204468
0.0001006703
0.001297979
0.001235377
0.00121378
0.001207157
0.001204944
0.001204229
0.001204203
0.001204443
0.0001010308
0.001298696
0.001235679
0.001213913
0.001207231
0.001204991
0.001204258
0.00120422
0.001204451
0.0001006722
0.001298247
0.001235731
0.001214
0.001207309
0.001205056
0.001204311
0.001204264
0.001204485
0.0001010723
0.001298189
0.001235775
0.001214089
0.001207405
0.001205151
0.001204395
0.001204335
0.001204542
0.0001006745
0.00129782
0.001235907
0.001214225
0.001207561
0.001205307
0.001204544
0.001204458
0.001204634
0.0001006862
0.001297952
0.001236049
0.001214468
0.001207869
0.001205647
0.001204855
0.001204703
0.001204805
0.0001006901
0.001298345
0.001236337
0.001215025
0.001208652
0.001206521
0.001205652
0.001205284
0.001205164
0.0001006879
0.00129873
0.001237356
0.001216873
0.001211296
0.001209518
0.001208379
0.001207223
0.001206216
0.0002520665
0.0006438854
0.0002648884
0.0001006753
0.000100753
0.0002723609
0.000630001
0.0006082529
0.0006079043
0.0005926974
0.0001011081
0.0001009227
0.0002723352
0.000602258
0.0005992738
0.0006011791
0.0005871396
0.0001013702
0.0001011214
0.0002722143
0.0005985251
0.0005980944
0.0005837602
0.0005819011
0.0001013567
0.0001012387
0.0002720671
0.0005979765
0.0005978306
0.0005815098
0.0005812486
0.0001014461
0.00010127
0.0002719161
0.0005978047
0.0005976967
0.000581173
0.0005811076
0.0001013973
0.0001012559
0.0002718008
0.0005976762
0.0005975911
0.0005810898
0.0005810725
0.0001012743
0.0001011684
0.0002717227
0.0005975749
0.0005975162
0.00058108
0.0005810857
0.0001011635
0.0001010953
0.0002716724
0.0005975175
0.0005975098
0.0005811028
0.0005811098
0.0001010707
0.0001010318
0.0006483059
0.000631817
0.0001006764
0.0001033631
0.000100675
0.0001033813
0.0006281764
0.000626163
0.0001006777
0.0001035725
0.0001006726
0.000103578
0.0006258811
0.0006256955
0.0001006767
0.0001039235
0.0001006717
0.0001039378
0.0006257898
0.0006258019
0.0001006756
0.000104413
0.0001006706
0.0001044286
0.0006259722
0.0006259879
0.0001006745
0.0001050686
0.0001006688
0.0001050844
0.0002857035
0.0002895112
0.0001010832
0.0001009179
0.0001011377
0.0006255748
0.0001013713
0.0001011007
0.0006199973
0.0001009993
0.0001009348
0.0006168925
0.0001009184
0.0001008834
0.0006261809
0.0006261809
0.0001006739
0.000105836
0.0001006661
0.0001058549
0.0006044136
0.0006239959
0.0001008487
0.0001056643
0.0001044996
0.000640739
0.0006465236
0.0001038027
0.0001017845
0.0006462775
0.0006459727
0.0001022037
0.0001013555
0.0006458391
0.0006457361
0.0001019743
0.0001013363
0.000626347
0.0006263401
0.0001006736
0.0001065366
0.000100664
0.0001065617
0.000626468
0.0006264654
0.0001006739
0.0001071087
0.0001006633
0.000107136
0.0006265758
0.0006265819
0.0001006747
0.0001075933
0.0001006633
0.0001076072
0.0006266649
0.0006266742
0.0001006758
0.0001079744
0.0001006637
0.0001079874
0.000626748
0.0006267562
0.000100677
0.0001082989
0.0001006643
0.0001083081
0.0006268202
0.0006268283
0.0001006781
0.0001085724
0.000100665
0.0001085837
0.0006268859
0.0006268942
0.0001006793
0.0001088172
0.0001006658
0.0001088287
0.0006269473
0.0006269557
0.0001006805
0.0001090457
0.0001006667
0.0001090586
0.0006270074
0.0006270157
0.0001006818
0.0001092675
0.0001006677
0.000109281
0.000627068
0.0006270763
0.0001006832
0.0001094918
0.0001006689
0.0001095061
0.0006271309
0.0006271393
0.0001006848
0.0001097257
0.0001006703
0.0001097404
0.0006271978
0.0006272066