/*--------------------------------*- C++ -*----------------------------------*\
  =========                 |
  \\      /  F ield         | OpenFOAM: The Open Source CFD Toolbox
   \\    /   O peration     | Website:  https://openfoam.org
    \\  /    A nd           | Version:  7
     \\/     M anipulation  |
\*---------------------------------------------------------------------------*/
FoamFile
{
    version     2.0;
    format      ascii;
    class       surfaceScalarField;
    location    "0.07";
    object      phi;
}
// * * * * * * * * * * * * * * * * * * * * * * * * * * * * * * * * * * * * * //

dimensions      [0 3 -1 0 0 0 0];

internalField   nonuniform List<scalar> 
228001
(
0.0002128354
-0.0001924966
-1.022512e-05
-1.011356e-05
0.0002076266
-0.0001806922
-1.484939e-05
-1.208497e-05
0.0001847113
-0.0001601317
-1.541091e-05
-9.168647e-06
0.0001536796
-0.0001312754
-1.404918e-05
-8.355041e-06
0.000117149
-9.76785e-05
-1.284068e-05
-6.629785e-06
8.179255e-05
-6.711356e-05
-9.560045e-06
-5.118955e-06
5.392434e-05
-4.373976e-05
-6.708947e-06
-3.475658e-06
3.467744e-05
-2.810005e-05
-4.234409e-06
-2.343009e-06
-0.003958586
-0.0005306625
-0.0002615044
0.0001966617
-0.0001636169
0.0001012777
-9.903535e-06
0.001039543
0.0010801
0.001252848
0.001253843
-0.003438486
-0.0009229977
-3.285156e-05
0.0002957673
-8.888089e-05
0.0001413885
8.747498e-05
-0.002807383
-0.001224824
-5.522556e-05
0.0003249139
-2.000174e-05
0.0001950864
0.0001489483
-0.00204717
-0.001436313
-6.969477e-05
0.0003174073
3.97056e-05
0.0002090568
0.0001796255
-0.001371715
-0.001317796
-6.640081e-05
0.0002690936
7.23651e-05
0.0002018475
0.0001654366
-0.0008819265
-0.0009623596
-5.967211e-05
0.0001938158
6.510057e-05
0.0001517553
0.0001215717
-0.0005449853
-0.0006820179
-3.408932e-05
0.0001346997
4.923656e-05
0.000108431
8.679881e-05
-0.0004372397
-2.087638e-05
8.649703e-05
3.409232e-05
6.887702e-05
5.622784e-05
-0.0003325635
-0.004354888
-0.0008755706
-0.0003398084
0.001177651
0.001165862
0.001348653
0.001347438
-0.003708411
-0.001435194
-0.0001342807
-0.002961539
-0.001933744
-3.795188e-05
-0.002032094
-0.002321907
-4.385061e-05
-0.001142888
-0.002194152
-1.285021e-05
-0.0005754016
-0.001536325
6.479023e-06
-0.0003063216
-0.0009350592
-1.603877e-05
-0.0005637297
-9.423358e-06
-0.0001704082
-0.004910311
-0.001207139
-0.0004414152
0.001334877
0.001311005
0.001517298
0.001520114
-0.004173133
-0.002082426
-8.994622e-05
-0.003251333
-0.002887016
3.147278e-05
-0.001931773
-0.003775393
0.0001339267
-0.0006742742
-0.0008456992
0.000126221
-0.0007796033
-0.001036583
-0.0009159857
-0.0001125482
-0.0005231966
6.463383e-05
-0.0004560212
-0.0006347229
-0.0005487444
2.57089e-05
-0.001109094
3.577719e-05
-0.0006152353
9.565106e-06
6.764928e-05
-0.005745421
-0.001516524
-0.0005035179
0.001543411
0.001508213
0.001751718
0.001754981
-0.00497386
-0.002757588
-9.639902e-05
-0.004015369
-0.004041596
0.0001960891
-0.0003376622
-0.001249524
0.0002967913
-0.0005480549
-0.0005054667
-0.0006044442
-0.001468113
-0.001624497
-0.001749791
-0.0001139609
-0.001115081
4.568001e-05
-8.804642e-05
0.0001694519
-0.0006365024
3.190006e-05
0.0006294469
-0.0002280507
8.712856e-05
-0.0001229425
-0.0002737485
-0.0001847988
-0.0001355288
-0.0002819662
-0.00022948
-0.0003691539
-0.000135153
4.746664e-05
-5.687631e-05
-0.0001350428
-8.87337e-05
0.0003825508
-0.006946057
-0.001712623
-0.0005914915
0.001822701
0.001774748
0.00206694
0.002069256
-0.006651575
-0.002994319
-5.775116e-05
-0.001209707
-0.004647253
0.0002812937
-0.00176633
-0.001518525
-0.001832649
-0.0009584286
-0.001596227
9.542437e-05
8.635339e-05
0.001757476
0.0004975242
0.0002019037
0.0001476584
0.0001202625
0.0001434769
-0.0008741288
-0.0006305111
-0.0007589074
-0.0006911082
-0.0002321745
0.0002082121
0.0001680719
-0.0001480066
3.896991e-06
-0.0005082271
0.0003555331
2.427932e-06
-1.46559e-05
-3.948566e-05
-2.607987e-05
2.436569e-06
-0.000290754
0.000189011
8.163054e-06
-8.251871e-06
-2.175449e-05
-1.335015e-05
1.783395e-06
-0.008482494
-0.001637731
-0.0006961462
0.00214137
0.002091852
0.002433087
0.002437439
-0.008687699
-0.00268147
-0.0001076433
-0.001723481
-0.004179639
0.0002795821
-0.002614916
-0.002293482
-0.002803016
0.001983007
-0.002070885
-0.001687419
5.181601e-05
0.0009198692
0.0004319844
-0.0006461196
-0.0006995395
-6.194842e-06
-0.009766039
-0.001407271
-0.0008042738
0.002424984
0.002383862
0.002760426
0.002770579
-0.01000862
-0.002256606
-0.0001822846
-0.01086505
-0.003411242
8.803413e-05
-0.01275062
-0.004149142
-2.908141e-05
0.001727795
0.0009797317
0.001745398
0.001610874
-0.0153302
-0.004558847
-0.0002173939
0.002295757
0.0009662847
0.002228324
0.001865447
-0.01584813
-0.002868789
-0.0001328093
0.001608731
-7.439001e-05
0.001481969
0.0005032231
-0.01516953
-0.001753194
-0.0001750367
0.001038208
-0.0004591925
0.000659039
1.157918e-05
-0.00120151
-2.530779e-05
0.0008696443
-0.0005211853
0.0005380312
-6.9757e-05
-0.01475945
-0.01069322
-0.001193002
-0.0008602634
0.002652198
0.002619521
0.003026835
0.003040655
-0.01080737
-0.001889078
-0.0002533725
-0.01152366
-0.002663957
-3.099225e-05
-0.01261281
-0.003051456
-8.544775e-06
-0.01387317
-0.003243418
-5.505998e-05
-0.01437319
-0.002302106
-6.667039e-05
-0.01431432
-0.001816261
4.197749e-06
-0.001360288
-9.152701e-05
-0.01406401
-0.01142417
-0.0009824893
-0.0009632402
0.002845554
0.00282223
0.003250761
0.003258356
-0.01148162
-0.001536701
-0.0002949312
-0.01198842
-0.00208915
-6.800675e-05
-0.01265511
-0.002355919
-2.884385e-05
-0.01336397
-0.002522579
-1.198463e-05
-0.0136053
-0.002072217
1.144726e-05
-0.01363075
-0.001795913
5.101241e-06
-0.001474107
1.284504e-05
-0.01352978
-0.01200581
-0.0008303456
-0.0009752417
0.002994288
0.002976187
0.003424987
0.00343344
-0.01193995
-0.001280522
-0.0003220407
-0.01224523
-0.001706111
-7.775588e-05
-0.01262836
-0.00193648
-3.630448e-05
-0.01305222
-0.002099377
6.536855e-07
-0.01325733
-0.001866788
-3.10983e-07
-0.01332988
-0.001735363
1.199588e-05
-0.001539753
-4.130605e-06
-0.0132601
-0.01245328
-0.0007060686
-0.001056911
0.003123468
0.00310701
0.003574261
0.003581174
-0.01230853
-0.001093988
-0.0003312875
-0.01247631
-0.001456886
-8.143927e-05
-0.01271244
-0.001662254
-3.809285e-05
-0.01297961
-0.001824503
-7.704838e-06
-0.01308532
-0.001763343
2.266284e-06
-0.01310589
-0.001722394
7.597233e-06
-0.001606508
4.468264e-06
-0.0130436
-0.01287449
-0.0006302131
-0.00105736
0.003231396
0.003217827
0.003698965
0.003707806
-0.01263825
-0.0009793785
-0.0003508479
-0.01270448
-0.001302697
-8.796409e-05
-0.01281871
-0.001510395
-3.762302e-05
-0.01296212
-0.001676081
-5.016131e-06
-0.01301965
-0.001705148
-6.60827e-07
-0.01302424
-0.001723615
5.81401e-06
-0.001684629
1.466179e-06
-0.01294759
-0.01321281
-0.0005783441
-0.00111562
0.003328981
0.003316624
0.00381084
0.003820111
-0.01292931
-0.000908233
-0.0003546393
-0.01292897
-0.001216604
-8.643188e-05
-0.01296674
-0.001434655
-3.797146e-05
-0.01302638
-0.001610449
-5.992953e-06
-0.01302627
-0.001704004
-1.250062e-06
-0.01298663
-0.001767548
4.292344e-06
-0.001782514
4.100585e-06
-0.01289285
-0.01356294
-0.0005593556
-0.00112523
0.003419552
0.003408205
0.003915516
0.003925909
-0.01321733
-0.0008828508
-0.000370991
-0.01316213
-0.001182923
-8.887896e-05
-0.0131414
-0.001417769
-3.761816e-05
-0.01313278
-0.001612383
-6.686955e-06
-0.01308846
-0.001746809
-1.514981e-06
-0.01301385
-0.001846768
4.614779e-06
-0.001904028
3.472054e-06
-0.01289581
-0.0138934
-0.0005626475
-0.001152862
0.003507932
0.003496599
0.004016978
0.004028047
-0.01350317
-0.000891663
-0.0003814186
-0.01339839
-0.001196843
-9.086055e-05
-0.01332901
-0.001448818
-3.833636e-05
-0.01327219
-0.001662995
-6.198151e-06
-0.01318528
-0.001831801
-1.918915e-06
-0.01307502
-0.001961512
4.478248e-06
-0.002052983
3.668522e-06
-0.01292973
-0.01423095
-0.0005858814
-0.001179741
0.003597325
0.003585426
0.00411966
0.004131517
-0.01380074
-0.0009304097
-0.0003914715
-0.01365978
-0.001245898
-9.18982e-05
-0.01354838
-0.001522413
-3.780411e-05
-0.01344413
-0.001760418
-6.827565e-06
-0.01331785
-0.001956549
-1.537689e-06
-0.01317061
-0.002113089
4.344137e-06
-0.002231574
3.953833e-06
-0.01299597
-0.01458294
-0.0006244165
-0.001213366
0.003690858
0.003677791
0.004226954
0.004239241
-0.01411816
-0.0009948668
-0.0004003243
-0.01393708
-0.001331929
-9.505135e-05
-0.01378795
-0.001633877
-3.766266e-05
-0.01364413
-0.001897443
-6.800763e-06
-0.01347693
-0.002121883
-1.861385e-06
-0.01329148
-0.002303047
4.508265e-06
-0.002442829
4.125284e-06
-0.01308435
-0.01496009
-0.0006799447
-0.001247291
0.003790781
0.003776116
0.004341672
0.004354339
-0.01446032
-0.001085285
-0.0004093493
-0.01424374
-0.001451159
-9.735591e-05
-0.01405505
-0.00178426
-3.830014e-05
-0.01386822
-0.00207757
-6.701375e-06
-0.01365943
-0.002328834
-1.844952e-06
-0.01343374
-0.002532998
4.263255e-06
-0.00268997
4.269697e-06
-0.01319087
-0.01537227
-0.0007530606
-0.001284032
0.003899726
0.003883012
0.004466787
0.004479895
-0.01483576
-0.001203119
-0.0004186748
-0.01458035
-0.001605932
-0.0001006442
-0.01434928
-0.001975681
-3.964268e-05
-0.01411749
-0.002303108
-6.248659e-06
-0.01386311
-0.002581732
-1.490361e-06
-0.01359302
-0.002807644
4.565082e-06
-0.002977845
4.491407e-06
-0.01330964
-0.01582836
-0.0008449001
-0.001324837
0.004020246
0.004000979
0.004605076
0.004618733
-0.01525194
-0.001350418
-0.0004291228
-0.01495352
-0.001799465
-0.000104886
-0.01467538
-0.002213257
-4.056118e-05
-0.01439219
-0.002580183
-6.117294e-06
-0.01408604
-0.002886485
-1.389298e-06
-0.0137657
-0.003132847
4.856696e-06
-0.003312986
4.62363e-06
-0.01343518
-0.01633866
-0.0009574364
-0.001371189
0.00415523
0.004132917
0.004759922
0.004774311
-0.01571799
-0.001530884
-0.0004402021
-0.0153704
-0.002037573
-0.000109477
-0.01503808
-0.002504301
-4.127764e-05
-0.01469747
-0.002915478
-5.316245e-06
-0.01433069
-0.003252007
-1.256655e-06
-0.01394964
-0.003519289
5.395961e-06
-0.003705359
4.852566e-06
-0.01356212
-0.01691455
-0.001095257
-0.001421663
0.004307562
0.004281565
0.004934781
0.004950128
-0.01624268
-0.001749706
-0.0004530514
-0.01583915
-0.002327553
-0.000113548
-0.01544526
-0.002855306
-4.288321e-05
-0.01503703
-0.003318013
-5.696729e-06
-0.01459598
-0.003691529
-1.53268e-06
-0.01414042
-0.003980397
5.551017e-06
-0.004167564
4.859651e-06
-0.01368308
-0.01756964
-0.001481712
0.004481431
0.004450743
0.005134239
0.005150768
-0.001261088
-0.01684072
-0.0004655879
-0.002013042
-0.01637471
-0.0001165151
-0.002677041
-0.01590776
-4.369026e-05
-0.003278563
-0.01541538
-5.440807e-06
-0.003804953
-0.014883
-8.359026e-07
-0.004223078
-0.01433435
6.293108e-06
-0.00453534
5.466451e-06
-0.004717533
-0.01378984
-2.001249e-06
0.0002408812
-0.0009630144
-8.953854e-05
1.026283e-05
0.0002821672
0.0002395683
0.0002816747
-0.003409427
-0.0004747615
-7.283591e-05
0.0001457369
-0.0001768512
6.855023e-05
-2.119406e-05
0.0008508676
0.001108906
0.0008849927
0.001096017
-0.002731038
-0.0006887918
2.907959e-05
0.0001808887
-0.0001521938
1.052823e-06
-4.842469e-05
-0.002092758
-0.0006839791
-4.730514e-05
0.0001727164
-0.0001039072
3.913716e-05
-1.494107e-05
-0.001457131
-0.0006729113
-2.275128e-05
0.0001283631
-7.080639e-05
2.074634e-05
-1.82679e-05
-0.0009834318
-0.0005022179
-1.683212e-05
8.791631e-05
-4.70421e-05
1.912465e-05
-1.464764e-05
-0.0006341621
-0.0003643536
-1.081261e-05
5.753835e-05
-3.154618e-05
1.093856e-05
-1.103434e-05
-0.0002383385
-4.1205e-06
3.619279e-05
-2.087704e-05
5.735931e-06
-8.610383e-06
-0.0004041444
4.977918e-05
5.253236e-05
-0.001204778
-5.205688e-05
-3.98084e-05
-1.04811e-05
7.443567e-05
-1.026923e-05
-2.765466e-06
7.868681e-05
7.588452e-07
-0.004504816
-0.0006808298
-0.0001463464
0.0001180925
2.203347e-05
0.0001054268
1.609384e-05
0.001210666
0.001228411
0.001183823
0.00118594
-0.004018134
-0.001000909
6.613701e-06
-0.003307199
-0.001418029
-3.692284e-05
-0.002413588
-0.00161854
-2.87439e-05
-0.001619149
-0.001502256
-3.149521e-05
-0.001031976
-0.001122765
-2.629665e-05
-0.0006398151
-0.0007737392
-1.686478e-05
-0.0004962788
-8.37585e-06
-0.0003943754
9.670178e-05
5.187807e-05
-0.001286863
-4.593253e-05
-0.0001463156
-5.387959e-06
9.600647e-05
-4.331966e-06
-0.005039116
-0.0009924448
-0.0001427664
0.001293554
0.001304839
0.001278662
0.001276634
-0.004369778
-0.001674897
-0.0001296314
-0.003487509
-0.002297449
-4.080055e-05
-0.0023465
-0.002764093
-3.930558e-05
-0.001308957
-0.002532178
-2.04709e-05
-0.0006926561
-0.001729235
-3.352104e-06
-0.0003673024
-0.001105188
-9.943426e-06
-0.0006675567
-7.737609e-06
-0.0001977102
0.000109347
4.136688e-05
-0.001445094
-4.542799e-05
-0.0001860525
-5.839579e-06
0.000108437
-5.167967e-06
-0.005655726
-0.001374506
-0.0002035169
0.001454463
0.00147044
0.001434477
0.001440509
-0.004902584
-0.002400337
-0.0001176483
-0.003768341
-0.003401569
1.349043e-06
-0.002140595
-0.00430752
4.96087e-05
-0.0007751197
-0.0009764163
4.656308e-05
-0.0009237255
-0.0009759245
-0.0009419284
-0.0001076446
-0.002352278
2.020176e-05
8.259277e-05
-0.001276968
1.732007e-05
-0.0006956206
2.112849e-05
9.909322e-05
0.0001250907
5.476913e-05
-0.001661802
-6.101423e-05
-0.0002148407
-7.238372e-06
0.0001235848
-5.85798e-06
-0.006633579
-0.001725834
-0.0002242231
0.001678643
0.001702236
0.001655887
0.001668845
-0.005855095
-0.003143629
-0.0001315908
-0.004517097
-0.004631039
8.756248e-05
-0.0004551562
-0.001581408
0.0001200588
-0.000564104
-0.0004601442
-0.0005516743
-0.001719804
-0.001579064
-0.00173653
-2.106827e-05
-0.000116028
-0.00131483
2.035401e-05
0.001077428
-0.0007047179
0.0001572203
-0.0004497284
-0.000708918
-0.0004422428
-2.503495e-05
3.230814e-05
-0.0001308705
-5.516606e-05
-0.0001103077
-0.0004410683
-0.0001056762
-0.0004455029
0.000675127
-0.0002495773
4.800718e-05
-0.0001733114
-0.0002528397
-0.0001598178
-0.0001275609
1.158706e-05
-9.051559e-05
-0.0001232268
-9.016371e-05
0.0004468528
0.0001441404
6.999869e-05
-0.001944119
-7.294374e-05
-0.0002457428
-8.915946e-06
0.000142344
-6.655304e-06
-0.008045593
-0.001928746
-0.0002687752
0.001982153
0.002013114
0.001956447
0.001974075
-0.007651729
-0.003462461
-0.0001327839
-0.001482685
-0.005409838
0.0001317128
-0.001888923
-0.001462622
-0.001889119
-4.815315e-05
-0.001110266
-0.001955317
4.964443e-05
-4.797609e-05
6.003789e-05
0.00194196
0.0005934388
0.0002007318
0.0001334926
0.0002002517
0.0001290404
-0.0008468684
-0.0007639066
-0.0008507041
-0.0007494967
1.756424e-05
-0.0002436775
0.0008837003
-7.910921e-06
-0.0001109998
-4.26602e-05
-0.000104454
-3.989217e-05
-0.0004099679
-0.000240806
-0.0004056125
1.583901e-06
-0.0005975103
0.000402758
-5.837777e-05
1.969207e-06
-2.906622e-06
-0.0003014675
0.0002066952
-4.089419e-05
1.101221e-05
0.0001644511
7.901296e-05
-0.002264639
-7.503378e-05
-0.0002800231
-1.093295e-05
0.000162786
-7.817924e-06
-0.009794849
-0.001836627
-0.0003235619
0.002333129
0.002369802
0.002303859
0.002323354
-0.01000641
-0.003173686
-0.0001848532
-0.002321602
-0.004981702
0.0001434442
-0.002875152
-0.002305093
-0.002796565
-1.874561e-05
0.00213554
-0.002409788
-0.002065437
3.682927e-05
-1.007276e-05
0.0009732093
0.0006822355
-0.0008387916
-0.0008116158
5.035805e-06
-0.002697509
-9.235384e-05
0.0001396335
0.0003504328
-8.2803e-05
0.001154412
0.001228188
0.002535594
-0.002394466
-0.0001397025
-0.0001134661
0.0001925666
-8.05248e-05
0.0001820377
7.503457e-05
-0.002559936
-6.913189e-05
-0.0003099618
-1.387217e-05
0.0001810991
-1.010629e-05
-0.01123092
-0.001586515
-0.000379106
0.002641434
0.002682068
0.002608618
0.002623521
-0.01167406
-0.00264203
-0.0002708005
-0.01261587
-0.003943661
-8.198674e-06
-0.01471552
-0.004843081
-1.703983e-05
0.001833601
0.001678129
0.001784003
0.001634959
-0.01779017
-0.005419376
-8.308061e-05
0.002250162
0.001939959
0.002212928
0.001956665
-0.01871734
-0.003529392
5.453404e-05
0.001467662
0.0006066668
0.001578222
0.0006166618
-0.01771908
-0.002160775
-0.0001123905
0.0005331795
0.000104156
0.000458671
3.870414e-06
-0.001530401
0.0002061844
0.0003827384
1.987643e-05
0.0002591645
9.056689e-05
-0.01717252
0.0001963887
6.56729e-05
-0.002810348
-5.901852e-05
-0.0003329835
-1.618424e-05
0.00019658
-1.195728e-05
-0.01224495
-0.00132801
-0.0004367917
0.002897229
0.002934565
0.002861096
0.002870087
-0.01263247
-0.002165637
-0.0003422468
-0.01347306
-0.003058834
-7.523183e-05
-0.0147283
-0.003567739
-2.864541e-05
-0.01625674
-0.003925988
-2.000583e-05
-0.01694949
-0.002858219
-4.508988e-05
-0.01694054
-0.002205707
4.017415e-05
-0.001675356
-0.00017868
-0.01670843
0.00020832
5.533926e-05
-0.003019858
-4.954892e-05
-0.0003523609
-1.775665e-05
0.0002094053
-1.350006e-05
-0.01309733
-0.001103565
-0.0004857297
0.003108219
0.003144519
0.003068459
0.003074175
-0.01339357
-0.001766511
-0.0003978146
-0.01395869
-0.002425103
-0.0001366207
-0.01472332
-0.00276325
-6.86976e-05
-0.01564313
-0.002988718
-2.944259e-05
-0.01599978
-0.002481014
-9.114869e-06
-0.01602974
-0.002152842
-1.779932e-05
-0.001766236
1.626429e-05
-0.01594228
0.0002178649
4.618124e-05
-0.003192851
-4.148779e-05
-0.0003674702
-1.894003e-05
0.0002198088
-1.450503e-05
-0.01372737
-0.0009178889
-0.0005161547
0.003281959
0.003316375
0.003239401
0.00324487
-0.01390611
-0.001476696
-0.0004331106
-0.01426341
-0.001981507
-0.0001640558
-0.01471282
-0.002264332
-8.580999e-05
-0.01522267
-0.002463686
-1.45298e-05
-0.01548779
-0.002211217
-4.983827e-06
-0.01558853
-0.002054809
1.470667e-05
-0.001821405
-2.447089e-05
-0.01551302
0.0002257472
3.8857e-05
-0.003334567
-3.543183e-05
-0.0003810475
-1.989346e-05
0.0002282332
-1.549532e-05
-0.01427639
-0.0007941461
-0.0005520756
0.003423859
0.003459924
0.003380201
0.003383824
-0.01435565
-0.001269439
-0.0004592787
-0.01454979
-0.001688567
-0.000180237
-0.01480582
-0.001945349
-0.0001010478
-0.01511518
-0.00213225
-2.978568e-05
-0.01524812
-0.002067921
-8.083526e-06
-0.01528198
-0.002016186
2.835125e-06
-0.001883283
5.332319e-06
-0.01522097
0.0002326396
3.360243e-05
-0.003458236
-3.111339e-05
-0.0003919018
-2.037142e-05
0.0002355712
-1.598835e-05
-0.01472872
-0.0006995357
-0.0005624563
0.003547781
0.003582874
0.003502813
0.003505737
-0.01473658
-0.001134978
-0.0004774511
-0.01480762
-0.00151501
-0.0001904753
-0.01492337
-0.001762999
-0.0001042212
-0.01507744
-0.00195275
-3.044743e-05
-0.01514397
-0.001991245
-1.081021e-05
-0.01515401
-0.002009018
8.688261e-06
-0.001964472
-5.344e-07
-0.01507082
0.0002386653
3.010977e-05
-0.003565923
-2.861138e-05
-0.0004024305
-2.086441e-05
0.0002419338
-1.648892e-05
-0.01514312
-0.0006526289
-0.0005906701
0.003655851
0.003692602
0.003610238
0.003612574
-0.01508312
-0.0010551
-0.0004945168
-0.01507226
-0.001414861
-0.0001974429
-0.01509466
-0.001670792
-0.0001077814
-0.01514651
-0.001873894
-3.299846e-05
-0.01514242
-0.00198596
-1.062465e-05
-0.01509746
-0.002057199
7.516238e-06
-0.002073807
8.973287e-06
-0.014993
0.0002443809
2.806513e-05
-0.003667216
-2.725424e-05
-0.0004116109
-2.120771e-05
0.0002479061
-1.682029e-05
-0.01552584
-0.0006267114
-0.0006022848
0.003757876
0.003794808
0.003711116
0.003713175
-0.0154189
-0.001024074
-0.0005089554
-0.01534318
-0.00137721
-0.0002022488
-0.01529392
-0.001648519
-0.0001091501
-0.015265
-0.001875635
-3.386784e-05
-0.01520896
-0.00203291
-1.060331e-05
-0.01512228
-0.002146978
7.717072e-06
-0.002213637
8.625976e-06
-0.0149876
0.000249832
2.710945e-05
-0.003764226
-2.707716e-05
-0.0004203556
-2.161999e-05
0.0002535729
-1.719469e-05
-0.01590178
-0.00062769
-0.0006180803
0.00385584
0.003893893
0.003808082
0.003810164
-0.01575301
-0.001031407
-0.0005228563
-0.01562167
-0.001392714
-0.0002066976
-0.01551162
-0.001683902
-0.0001130056
-0.01542347
-0.001934127
-3.585426e-05
-0.01531741
-0.00213054
-1.034872e-05
-0.01518842
-0.00227963
8.14532e-06
-0.002385869
9.606597e-06
-0.01502213
0.0002553171
2.7291e-05
-0.003861578
-2.784967e-05
-0.0004289623
-2.204904e-05
0.0002592374
-1.754923e-05
-0.01628707
-0.0006502804
-0.0006334409
0.003954809
0.003994079
0.003906035
0.003908432
-0.01610131
-0.001072516
-0.000536123
-0.01592636
-0.001450058
-0.0002095004
-0.01576533
-0.001768438
-0.0001142933
-0.01562304
-0.002045611
-3.763538e-05
-0.01547042
-0.002274993
-9.702324e-06
-0.01529759
-0.002455872
7.754103e-06
-0.002593159
1.004855e-05
-0.01509639
0.0002609789
2.849362e-05
-0.003962207
-2.949296e-05
-0.0004378776
-2.252008e-05
0.0002650637
-1.791155e-05
-0.01669202
-0.0006931355
-0.0006522573
0.004057384
0.00409805
0.004007666
0.004010671
-0.01647139
-0.001143839
-0.0005496344
-0.01625277
-0.001548795
-0.0002149397
-0.01604304
-0.001898525
-0.0001172976
-0.01585092
-0.002205807
-3.872711e-05
-0.01565265
-0.002465712
-9.40823e-06
-0.01543615
-0.002676161
8.297598e-06
-0.002838279
1.059307e-05
-0.0151975
0.0002669738
3.066769e-05
-0.004069381
-3.195636e-05
-0.0004471047
-2.304193e-05
0.0002712174
-1.829268e-05
-0.01712774
-0.0007541241
-0.0006718392
0.004167133
0.004209329
0.00411646
0.004120355
-0.016872
-0.001245347
-0.0005635847
-0.01661085
-0.001687349
-0.0002199448
-0.01635412
-0.002074109
-0.0001194547
-0.01611119
-0.002415967
-3.946798e-05
-0.01586349
-0.002705493
-9.763954e-06
-0.0156006
-0.002942914
8.135214e-06
-0.003125243
1.082126e-05
-0.01532019
0.0002734499
3.379045e-05
-0.004185811
-3.52847e-05
-0.000456986
-2.362066e-05
0.0002778426
-1.870948e-05
-0.01760227
-0.0008341888
-0.0006934618
0.004286591
0.004330449
0.004234861
0.004239865
-0.017309
-0.001378584
-0.0005787067
-0.01700273
-0.00186813
-0.0002261338
-0.01669881
-0.002296109
-0.0001215619
-0.01640427
-0.002677996
-3.876034e-05
-0.0161008
-0.002999894
-1.055702e-05
-0.01578543
-0.003261997
8.276512e-06
-0.003459757
1.114317e-05
-0.01545757
0.0002805434
3.786343e-05
-0.004314101
-3.956297e-05
-0.0004677514
-2.426874e-05
0.0002850866
-1.917359e-05
-0.01812559
-0.0009360789
-0.0007176975
0.004418555
0.004464221
0.004365535
0.004372023
-0.01779153
-0.001546258
-0.0005955063
-0.01743915
-0.0020927
-0.0002326924
-0.01707967
-0.002571399
-0.0001247481
-0.0167241
-0.003000516
-3.917181e-05
-0.01635996
-0.003354536
-1.088543e-05
-0.01598568
-0.003640146
8.722158e-06
-0.003849282
1.1442e-05
-0.01560297
0.0002884164
4.302532e-05
-0.004457395
-4.492009e-05
-0.0004795591
-2.497267e-05
0.0002931099
-1.966962e-05
-0.01871236
-0.001062503
-0.0007453031
0.004566378
0.004614211
0.004511965
0.004520344
-0.01833141
-0.001753647
-0.0006137601
-0.01792617
-0.0023676
-0.0002398168
-0.01750204
-0.002910059
-0.0001267477
-0.01707903
-0.003391185
-3.766416e-05
-0.01664402
-0.003779787
-1.101502e-05
-0.01619894
-0.004089654
9.830451e-06
-0.00430546
1.222155e-05
-0.01575013
0.0002972508
4.942458e-05
-0.004619169
-5.151552e-05
-0.0004926432
-2.572281e-05
0.0003021003
-2.018961e-05
-0.0193745
-0.001216743
-0.0007758348
0.004733509
0.004783619
0.004677486
0.004688293
-0.01893995
-0.002005419
-0.0006358216
-0.01847113
-0.00270257
-0.0002473985
-0.01797345
-0.003319785
-0.0001308403
-0.01747312
-0.003859349
-3.786456e-05
-0.01695188
-0.00429106
-1.148982e-05
-0.01642041
-0.004625978
1.03987e-05
-0.004843063
1.275211e-05
-0.0158907
-0.004976978
3.461446e-05
-0.0001933609
0.004892185
7.557861e-05
0.0001679607
-0.0201331
-0.000809202
-0.001403406
0.004880054
0.004924061
0.004866156
-0.01963753
-0.000657945
-0.002308633
-0.01909502
-0.0002537813
-0.003107805
-0.01851108
-0.0001328412
-0.003814575
-0.0179138
-3.617984e-05
-0.004425896
-0.01728627
-9.467007e-06
-0.004909951
-0.01664668
1.277954e-05
-0.005272059
1.50514e-05
-0.005483546
-0.01601578
0.0002384363
2.137111e-06
-0.0009461971
-9.699412e-05
-1.675075e-07
0.0002789141
0.0002392433
0.0002846278
-0.003439909
-0.0005439519
-4.789007e-05
0.0008868831
0.001096582
0.0008878654
0.001087585
-0.002735026
-0.00069102
1.521649e-05
-0.002102089
-0.0006699107
-1.033106e-05
-0.001461401
-0.0006550389
-8.399591e-06
-0.0009839758
-0.000487759
-6.498215e-06
-0.0006358736
-0.0003533151
-5.599711e-06
-0.000232721
-2.395664e-06
-0.0004048774
9.453594e-05
3.127982e-05
-0.001195732
-0.0001590014
-1.791296e-05
6.307217e-06
9.380774e-05
6.063818e-06
-0.00443907
-0.0006990387
-7.546931e-05
0.0001320751
3.802007e-05
0.0001367987
3.956947e-05
0.001170527
0.001200262
0.001165288
0.00118469
-0.003956607
-0.001033609
1.380809e-05
-0.003284559
-0.001374202
-2.578844e-05
-0.002393217
-0.001574804
-1.519253e-05
-0.00160677
-0.001452473
-2.050765e-05
-0.001026187
-0.001078858
-1.578041e-05
-0.0006386611
-0.0007450669
-1.263914e-05
-0.0004793548
-5.164549e-06
-0.0003952386
-0.005107798
-0.000379343
-8.926654e-05
0.0002107093
-6.580668e-05
0.0003091543
-6.275273e-05
0.000238831
1.244049e-05
0.0003401061
1.884115e-05
-0.004903235
-0.0009828766
-6.349184e-05
-0.004314449
-0.001679146
-7.288114e-05
-0.003463615
-0.002237727
-2.810942e-05
-0.002348278
-0.002706455
-2.299151e-05
-0.001312453
-0.002495516
-1.325153e-05
-0.0006987122
-0.001686009
-9.94166e-06
-0.0003764593
-0.001066183
-1.108007e-05
-0.0006549641
-5.246763e-06
-0.0002033408
-0.005769975
-0.0004053921
-0.0001559083
0.0003833556
-6.535874e-05
0.0003753007
-6.834935e-05
-0.00550522
-0.001353105
-9.80448e-05
-0.004829564
-0.002391566
-8.08842e-05
-0.003749792
-0.003318172
2.02291e-06
-0.00215969
-0.004289119
4.217123e-05
-0.0008114113
-0.0009833475
4.197468e-05
-0.0009351342
-0.0009786377
-0.0009420868
-0.0001457107
-0.002354944
2.343685e-05
6.909444e-05
-0.001270465
6.796769e-06
-0.0006702761
1.468903e-05
9.084594e-05
-0.006672663
-0.000498878
-0.000219092
0.0004566113
-6.539148e-05
0.0004351832
-7.205865e-05
-0.006446721
-0.001698108
-0.0001051636
-0.005746972
-0.003139961
-8.294471e-05
-0.004488686
-0.004559067
7.017049e-05
-0.0004800261
-0.001603485
9.186194e-05
-0.0005728805
-0.0004712313
-0.0005646209
-0.001732541
-0.001590945
-0.001733877
-2.575353e-05
-0.0001366397
-0.001312793
1.181304e-05
0.001084289
-0.0007009875
5.572506e-05
-0.0004396799
-0.0007034155
-0.0004409609
-0.0001035811
-0.0004273896
-9.466145e-05
-0.0004270619
0.0006756584
-0.0002664106
4.39663e-05
-0.0001731251
-0.0002644959
-0.0001537618
-0.000433259
3.923784e-06
0.0004463045
-0.007886445
-0.0005430184
-0.0002506051
0.0005287332
-7.737839e-05
0.0005025283
-8.21322e-05
-0.007816578
-0.001913735
-0.0001230163
-0.007556033
-0.00345174
-8.155047e-05
-0.001492199
-0.005386322
9.782221e-05
-0.001860588
-0.001469634
-0.001872466
-5.316053e-05
-0.001108283
-0.001964484
3.024342e-05
-3.745998e-05
3.136275e-05
0.001916561
0.0005760991
0.0001989646
0.0001349818
0.0002024559
0.0001309327
-0.0008279194
-0.0007502811
-0.0008327092
-0.0007429876
-0.0002396919
4.416033e-07
0.0008836651
-6.659124e-07
-0.0001063834
-0.0001084598
-4.282045e-05
-3.980024e-05
-0.0004046175
-0.0002379954
-0.0004046595
-0.0005955458
4.753915e-06
0.0003945144
-6.59614e-05
-4.171692e-06
6.563326e-06
-1.630538e-05
1.674124e-05
-1.565758e-05
1.370718e-05
-0.000307434
-0.0001392117
-0.000296248
-0.0001451232
0.0004497091
-0.009260858
-0.0005172685
-0.0002920867
0.0006078837
-8.525497e-05
0.0005801892
-8.827913e-05
-0.009514192
-0.001837204
-0.0001467606
-0.009869294
-0.0031669
-0.0001145916
-0.002301621
-0.00501411
9.490802e-05
-0.002830437
-0.002278138
-0.002782773
-4.177039e-05
0.002113071
-0.002370767
-0.002025301
2.314708e-05
-1.204703e-05
0.0009615859
0.0006669215
-0.0008221089
-0.0008010194
6.668163e-06
-8.888879e-05
-0.002375506
-9.005337e-05
3.250863e-05
0.001253079
0.00126886
-0.001270875
-0.000107359
0.0002055355
-0.0003230249
0.0002091589
-8.848433e-05
0.002012543
0.004339472
0.002034096
0.00428243
-0.01129349
-0.01050241
-0.0004555955
-0.0003251899
0.0006757615
-8.892392e-05
0.0006501802
-9.339404e-05
-0.01094149
-0.00159816
-0.0001790738
-0.01155454
-0.00264956
-0.0001750908
-0.01255442
-0.004028321
5.898799e-06
-0.01453043
-0.004898272
-8.365857e-07
0.001806345
0.001649222
0.001772331
0.00163018
-0.01741572
-0.005537036
-6.611718e-05
0.002231563
0.001977835
0.002218236
0.001977725
-0.01816795
-0.003744036
1.652205e-05
0.001569113
0.0006894461
0.001578816
0.0006969053
-0.01715556
-0.002376554
-0.0001416991
0.0006293399
6.631334e-05
0.0006224163
7.53994e-05
-0.001351024
0.0001966894
-0.01706591
-0.01151141
-0.0003893841
-0.0003607303
0.000730362
-9.425451e-05
0.0007088195
-9.419113e-05
-0.01198103
-0.001352352
-0.0002129855
-0.0125553
-0.002181209
-0.0002363205
-0.01344727
-0.003132526
-7.905675e-05
-0.01470119
-0.003651473
-2.152458e-05
-0.01621051
-0.004043251
-4.472406e-06
-0.01702465
-0.002982173
7.185489e-06
-0.01707707
-0.002341068
5.710736e-05
-0.001758685
-0.0001048626
-0.01674322
-0.01235955
-0.0003276161
-0.0004019654
0.0007767681
-9.515225e-05
0.0007585377
-9.319338e-05
-0.01283692
-0.00112074
-0.0002399673
-0.01334725
-0.001777582
-0.0002911157
-0.01398794
-0.002473269
-0.0001551845
-0.01482027
-0.002820436
-6.7406e-05
-0.01577508
-0.003079312
-3.856671e-05
-0.01617472
-0.002566057
-2.55961e-05
-0.01626838
-0.002232569
-3.26358e-05
-0.001765326
1.374766e-05
-0.01625922
-0.0130498
-0.0002757025
-0.0004247203
0.0008133711
-9.79885e-05
0.0007984815
-9.392816e-05
-0.01347915
-0.0009378572
-0.0002696944
-0.0138797
-0.001489151
-0.0003209947
-0.01431089
-0.002019869
-0.00018626
-0.014814
-0.002310475
-9.266588e-05
-0.01536246
-0.002523377
-2.200142e-05
-0.01566438
-0.002267046
-2.073247e-06
-0.0157906
-0.00210247
1.082968e-05
-0.001837131
-1.103079e-05
-0.01573224
-0.01360736
-0.0002376128
-0.0004493897
0.0008449481
-9.881956e-05
0.0008317583
-9.534177e-05
-0.01401363
-0.0007998374
-0.0002838285
-0.01433919
-0.001274882
-0.0003479906
-0.01460652
-0.001722616
-0.0002101592
-0.01492415
-0.001981471
-0.0001124171
-0.0152619
-0.002176392
-3.901991e-05
-0.01542283
-0.002105109
-9.096719e-06
-0.01547189
-0.002057741
7.172113e-06
-0.00189431
1.113178e-05
-0.01542051
-0.01410242
-0.0002138524
-0.0004630865
0.0008706319
-0.0001019155
0.0008588132
-9.786399e-05
-0.01445363
-0.0007111992
-0.000299886
-0.01470639
-0.001135809
-0.0003637635
-0.01486793
-0.001533289
-0.0002182668
-0.01504264
-0.00179254
-0.0001184363
-0.01522403
-0.001986202
-3.925362e-05
-0.01531159
-0.002019923
-8.431394e-06
-0.01533439
-0.002039043
1.279411e-05
-0.001985785
6.095982e-06
-0.01524955
-0.01453221
-0.0001978838
-0.0004819948
0.0008954048
-0.0001021291
0.0008841046
-9.871616e-05
-0.01486574
-0.000659348
-0.0003089922
-0.01506141