/*--------------------------------*- C++ -*----------------------------------*\
  =========                 |
  \\      /  F ield         | OpenFOAM: The Open Source CFD Toolbox
   \\    /   O peration     | Website:  https://openfoam.org
    \\  /    A nd           | Version:  7
     \\/     M anipulation  |
\*---------------------------------------------------------------------------*/
FoamFile
{
    version     2.0;
    format      ascii;
    class       volVectorField;
    location    "0.07";
    object      U;
}
// * * * * * * * * * * * * * * * * * * * * * * * * * * * * * * * * * * * * * //

dimensions      [0 1 -1 0 0 0 0];

internalField   nonuniform List<vector> 
109978
(
(-1.144526 0.2742624 -0.006674515)
(-1.037094 0.3378272 0.01041936)
(-0.9472443 0.3576726 0.01213753)
(-0.8759103 0.3762585 0.009892506)
(-0.8156247 0.3883463 0.008750963)
(-0.7641317 0.3971675 0.008199449)
(-1.057348 0.2134568 -0.02886797)
(-0.9862844 0.2963047 0.004341165)
(-0.9189183 0.3420959 -0.001661429)
(-0.8585352 0.3735582 -0.003210286)
(-0.8053286 0.3959015 -0.003346836)
(-0.7579599 0.4122939 -0.003486052)
(-0.9761347 0.1432801 -0.02232017)
(-0.9308085 0.2173866 0.01215492)
(-0.8803997 0.2673201 0.007457518)
(-0.8299995 0.3048066 0.004952889)
(-0.7843927 0.332347 0.00405694)
(-0.7422955 0.3533338 0.003449534)
(-0.9012346 0.1168155 -0.02050325)
(-0.8727995 0.1850959 0.01028376)
(-0.8360852 0.2358804 0.005442407)
(-0.7962606 0.2748073 0.003218342)
(-0.7583724 0.3053544 0.00254709)
(-0.7218364 0.3292861 0.002058427)
(-0.8408715 0.09021673 -0.01893907)
(-0.8209283 0.1476903 0.0112047)
(-0.7935949 0.1927839 0.006850061)
(-0.7619518 0.2302128 0.005062719)
(-0.7303484 0.261281 0.004356427)
(-0.6989855 0.2865751 0.003792769)
(-0.7882697 0.07640044 -0.0179696)
(-0.7740916 0.1273009 0.01090309)
(-0.753403 0.1691083 0.00655047)
(-0.7284461 0.2052301 0.004931209)
(-0.7020631 0.2353442 0.004292946)
(-0.6752498 0.2610951 0.003716839)
(-0.743568 0.06423353 -0.01688159)
(-0.7326725 0.1083497 0.01105627)
(-0.7165612 0.1458667 0.006699192)
(-0.6960918 0.179247 0.005220445)
(-0.674258 0.2081479 0.004713685)
(-0.6513903 0.2336028 0.004069828)
(-0.7041512 0.05598861 -0.0159397)
(-0.6954786 0.09515566 0.01097928)
(-0.6827739 0.1292711 0.006697559)
(-0.6658433 0.1603467 0.005297211)
(-0.6479266 0.1881326 0.004910416)
(-0.6279943 0.2123449 0.004254297)
(-0.6693365 0.04910584 -0.01515976)
(-0.6621065 0.08390107 0.01090241)
(-0.6518725 0.1149579 0.006708825)
(-0.6376619 0.1436245 0.005388234)
(-0.6223559 0.1697187 0.005014672)
(-0.6052817 0.1928503 0.004464901)
(-0.6381479 0.04371496 -0.01446314)
(-0.6319027 0.07499886 0.01076673)
(-0.6235357 0.1034541 0.006725801)
(-0.6113772 0.1298987 0.005448721)
(-0.5982652 0.1543333 0.00508642)
(-0.5835967 0.1764617 0.004650298)
(-0.6100131 0.03922949 -0.01384772)
(-0.6046533 0.0675854 0.01069668)
(-0.597516 0.09360073 0.006721744)
(-0.5869878 0.1180484 0.005489957)
(-0.5756487 0.1409126 0.005148419)
(-0.5629863 0.162072 0.004765451)
(-0.5844451 0.03550143 -0.01327122)
(-0.5797297 0.06135782 0.01060758)
(-0.5735555 0.08523179 0.006710576)
(-0.5643755 0.1079091 0.005510381)
(-0.5544444 0.1292756 0.005195443)
(-0.5431938 0.1492198 0.004812554)
(-0.5610654 0.03232012 -0.01274084)
(-0.5568377 0.05600537 0.01050442)
(-0.5514396 0.07798537 0.006692513)
(-0.5433506 0.09909096 0.005514326)
(-0.5345839 0.119028 0.005222641)
(-0.5245242 0.1378069 0.004845103)
(-0.5395983 0.02959664 -0.01224511)
(-0.5357019 0.05136562 0.01038253)
(-0.5310566 0.0717072 0.006704218)
(-0.5237715 0.09131622 0.005503348)
(-0.5159258 0.1099434 0.005235957)
(-0.506894 0.1276346 0.004877679)
(-0.5198102 0.02720831 -0.01178938)
(-0.5161819 0.04731592 0.01024849)
(-0.5121074 0.06618798 0.006806401)
(-0.5055071 0.08440423 0.005465287)
(-0.4984084 0.1018502 0.005234133)
(-0.4902628 0.1185193 0.004915404)
(-0.5015056 0.02510115 -0.0113613)
(-0.4981131 0.04373701 0.01010985)
(-0.4944693 0.06128621 0.007057239)
(-0.4884546 0.07822242 0.005404711)
(-0.4819843 0.09459544 0.005219169)
(-0.4745952 0.1102872 0.004935324)
(-0.4845063 0.02322566 -0.01096222)
(-0.4813248 0.04055124 0.009979017)
(-0.4780392 0.0569568 0.007318703)
(-0.4724952 0.07268075 0.005338608)
(-0.4666078 0.08807545 0.005194342)
(-0.4598544 0.1028173 0.004943247)
(-0.4686853 0.02153831 -0.01058633)
(-0.4656474 0.03767482 0.009851366)
(-0.462701 0.05301313 0.007286782)
(-0.4577036 0.06770393 0.005319644)
(-0.4521959 0.08215031 0.005164632)
(-0.4459537 0.09599851 0.004941411)
(-0.4539385 0.02001287 -0.01023753)
(-0.45102 0.03506116 0.009720524)
(-0.4483656 0.04937065 0.007232607)
(-0.4438843 0.06320291 0.005323149)
(-0.4386631 0.07673117 0.005130258)
(-0.432829 0.08973579 0.004931647)
(-0.4401788 0.01862736 -0.009910841)
(-0.437364 0.03267997 0.009592401)
(-0.4349603 0.04603265 0.00717383)
(-0.4308972 0.05907198 0.005328579)
(-0.425933 0.07173529 0.005096234)
(-0.4204584 0.08398576 0.004915635)
(-0.427319 0.01736458 -0.009608234)
(-0.4245919 0.03050126 0.009463897)
(-0.4223858 0.04297684 0.007112031)
(-0.4187026 0.05524267 0.00532716)
(-0.4139633 0.06710653 0.005063136)
(-0.4088482 0.07868055 0.004892655)
(-0.415281 0.01620203 -0.009325691)
(-0.4126429 0.02848973 0.009340557)
(-0.4106024 0.04017517 0.007046695)
(-0.4072305 0.05167354 0.005311351)
(-0.4027835 0.06282552 0.005050461)
(-0.3979314 0.0737379 0.004860702)
(-0.3804312 0.01341807 -0.00545856)
(-0.4014676 0.02663293 0.009223347)
(-0.3995549 0.03757767 0.006970639)
(-0.3964682 0.04837918 0.005398024)
(-0.3923357 0.05884349 0.005038114)
(-0.3876551 0.06909654 0.004819903)
(-0.9018105 0.4150255 -0.1112502)
(-0.7243103 0.4009757 -0.03953215)
(-0.6486452 0.4084595 -0.04027105)
(-0.5939832 0.4135312 -0.04037226)
(-0.5503441 0.416975 -0.04052665)
(-0.5144326 0.4192923 -0.04048642)
(-1.281036 0.1335197 -0.01390344)
(-1.134092 0.2543145 -0.03377903)
(-1.015465 0.3246063 -0.03434367)
(-0.9289565 0.3530857 -0.02937661)
(-0.8583757 0.374352 -0.0309076)
(-0.8005855 0.3883385 -0.03331912)
(-1.104886 0.08296732 -0.002514865)
(-1.021073 0.2418899 0.01295901)
(-0.9504055 0.3064673 0.02203935)
(-0.8904712 0.3525613 0.02802542)
(-0.8343139 0.3819099 0.02755081)
(-0.7849225 0.4038839 0.02922176)
(-1.004803 0.04528197 -0.003083635)
(-0.9653164 0.1490261 -0.01593516)
(-0.9066041 0.2109894 -0.01068274)
(-0.8605217 0.2537513 -0.01308723)
(-0.8103294 0.2874269 -0.01282582)
(-0.7666896 0.3132582 -0.0129872)
(-0.9100376 0.03713772 -0.001851771)
(-0.8844215 0.1334593 -0.001312611)
(-0.8480007 0.1915047 0.007136389)
(-0.8156051 0.2386509 0.008689354)
(-0.7777517 0.2748788 0.009644889)
(-0.7421079 0.3038588 0.0101481)
(-0.8445856 0.02710386 -0.002503446)
(-0.8330699 0.09907254 -0.008244804)
(-0.8027242 0.1491089 -0.002735431)
(-0.7778826 0.1906812 -0.003668425)
(-0.7458797 0.2254216 -0.003935087)
(-0.7155348 0.2544011 -0.003534396)
(-0.7886276 0.02244625 -0.002586479)
(-0.7789854 0.08681132 -0.004444297)
(-0.7572109 0.1319984 0.001559083)
(-0.738894 0.1718876 0.001823749)
(-0.7136634 0.2056683 0.001829129)
(-0.688698 0.2345645 0.002105769)
(-0.7423842 0.01826053 -0.002843132)
(-0.7365161 0.07189791 -0.00566554)
(-0.718492 0.1115719 -0.0005215369)
(-0.70435 0.1472308 -0.0007250203)
(-0.68334 0.1786584 -0.001119488)
(-0.6622972 0.2063257 -0.001033049)
(-0.7018452 0.01558555 -0.002939563)
(-0.6970984 0.0632861 -0.004731853)
(-0.6825959 0.09895045 0.0003079087)
(-0.6717254 0.1318249 0.0005250424)
(-0.6544537 0.1612976 0.0001056159)
(-0.6368211 0.1877172 0.0001184878)
(-0.6663018 0.01337101 -0.003024671)
(-0.6628856 0.05530181 -0.004752926)
(-0.6505643 0.08727911 -2.377288e-05)
(-0.642032 0.1171327 0.0001453229)
(-0.6274921 0.1444392 -0.000350378)
(-0.6125188 0.1693355 -0.0004562981)
(-0.6345895 0.01170473 -0.003063205)
(-0.6318678 0.04936806 -0.004454674)
(-0.6212999 0.07834101 0.0001339441)
(-0.6145642 0.105729 0.0003621053)
(-0.6022364 0.131088 -0.0001069381)
(-0.5894592 0.1545321 -0.000272321)
(-0.6060825 0.01033364 -0.00308676)
(-0.6039441 0.04429005 -0.004308178)
(-0.5946603 0.07063055 0.0001194687)
(-0.5892931 0.09574935 0.0003407014)
(-0.5786946 0.1192714 -0.0001156995)
(-0.5676998 0.1412637 -0.0003424686)
(-0.5802383 0.009212258 -0.003097825)
(-0.5784989 0.04010791 -0.004140217)
(-0.5702352 0.06418629 0.0001591788)
(-0.5659291 0.08732569 0.0003837036)
(-0.5567243 0.1091795 -4.335614e-05)
(-0.5471885 0.1297965 -0.000289485)
(-0.5566608 0.008274759 -0.003103412)
(-0.555236 0.03652356 -0.003993938)
(-0.5477823 0.05861815 0.000175123)
(-0.5443031 0.0799917 0.0003920378)
(-0.5362288 0.100315 -1.224849e-05)
(-0.5278933 0.1196303 -0.0002574757)
(-0.5350341 0.007481554 -0.003104767)
(-0.5338584 0.03343505 -0.003853933)
(-0.5270623 0.05379358 0.0001903402)
(-0.5242335 0.0735944 0.0004070883)
(-0.5170914 0.0925191 2.808423e-05)
(-0.5097447 0.1106189 -0.0002133416)
(-0.5151118 0.00680043 -0.003100828)
(-0.5141354 0.03073754 -0.003728234)
(-0.5078814 0.04956363 0.0001942654)
(-0.5055778 0.06795825 0.0004188183)
(-0.4992103 0.08559203 8.330577e-05)
(-0.4926858 0.1025602 -0.0001666845)
(-0.4966931 0.006209082 -0.003093497)
(-0.4958762 0.0283579 -0.003614911)
(-0.49007 0.04581928 0.0001842805)
(-0.4882047 0.06294244 0.0004313577)
(-0.4824943 0.07940282 0.0001570725)
(-0.47665 0.09531089 -0.0001196074)
(-0.4796161 0.005689351 -0.003083505)
(-0.4789265 0.02623201 -0.003513828)
(-0.4734999 0.04246171 0.0001469527)
(-0.4719944 0.05837335 0.0004150633)
(-0.4668461 0.07382612 0.0002365339)
(-0.461579 0.08874309 -7.83405e-05)
(-0.4637471 0.005227529 -0.003071364)
(-0.4631691 0.02432348 -0.003421826)
(-0.4581067 0.0394343 0.000113988)
(-0.4568369 0.05424572 0.0003333864)
(-0.4521311 0.0687637 0.0003005337)
(-0.4474089 0.08276439 -4.387327e-05)
(-0.4489713 0.004816125 -0.003056655)
(-0.4484839 0.02260382 -0.003333408)
(-0.4437356 0.03669566 9.209295e-05)
(-0.4426605 0.05055292 0.000277937)
(-0.4383346 0.06413533 0.0003367479)
(-0.4340797 0.07729301 -1.61006e-05)
(-0.4351894 0.004447665 -0.003039497)
(-0.4347781 0.02103974 -0.00324537)
(-0.4302999 0.03419733 8.212844e-05)
(-0.4293931 0.04717784 0.0002590687)
(-0.4253952 0.05988781 0.0003503576)
(-0.4215328 0.07225762 2.052547e-06)
(-0.4223159 0.004115521 -0.003019216)
(-0.42197 0.01960918 -0.003157639)
(-0.417726 0.03190454 8.007264e-05)
(-0.4169671 0.04406614 0.0002597556)
(-0.4132579 0.05596775 0.0003585111)
(-0.4097242 0.06760047 1.326938e-05)
(-0.4102757 0.003812418 -0.002995736)
(-0.409994 0.01828775 -0.003071936)
(-0.4059608 0.02979083 8.043109e-05)
(-0.4053288 0.04118663 0.0002647858)
(-0.4018632 0.05235191 0.0003688214)
(-0.3986059 0.06327962 2.77114e-05)
(-0.3934354 0.00311977 -0.004230293)
(-0.3987908 0.01708572 -0.002996129)
(-0.3949373 0.02783304 7.760361e-05)
(-0.3944077 0.0385073 0.0002653357)
(-0.3911684 0.04892177 0.0003852505)
(-0.3881607 0.05925605 5.457046e-05)
(-0.8849808 0.4372306 -0.02854531)
(-0.7220871 0.4365425 -0.004268443)
(-0.6477393 0.4416186 -0.005381349)
(-0.5943309 0.445456 -0.005400202)
(-0.5495714 0.4425979 -0.00438405)
(-0.5123672 0.4418269 -0.003949508)
(-1.294025 0.1368264 -0.001405686)
(-1.146984 0.2476189 -0.01190918)
(-1.026443 0.3118519 -0.02046058)
(-0.9402749 0.3414093 -0.02174399)
(-0.8657761 0.3640782 -0.02205304)
(-0.8059294 0.3776852 -0.02217319)
(-1.102231 0.08792534 0.00137251)
(-1.01737 0.2432498 0.009753337)
(-0.9533789 0.3149579 0.01027618)
(-0.891265 0.363223 0.01184867)
(-0.8365071 0.3939122 0.01236472)
(-0.7864308 0.4149732 0.01285054)
(-1.015879 0.04636502 0.001921532)
(-0.969023 0.1467335 0.002197041)
(-0.913162 0.2079282 -0.001674268)
(-0.8616384 0.2514324 -0.002212064)
(-0.8117394 0.2861572 -0.003679287)
(-0.7666998 0.3132799 -0.003491173)
(-0.9090238 0.03697551 0.002441921)
(-0.8830797 0.1337352 0.006551058)
(-0.8521519 0.192452 0.003786693)
(-0.8154654 0.2391586 0.004799176)
(-0.7795542 0.2770443 0.004160723)
(-0.7421278 0.3051826 0.003773257)
(-0.8494798 0.02591658 0.001967048)
(-0.833726 0.09789249 0.0037591)
(-0.8076695 0.1480647 -0.0002491011)
(-0.7784404 0.1894125 6.135206e-05)
(-0.7473468 0.2246437 -0.0005544262)
(-0.715625 0.253736 -0.0004599126)
(-0.789445 0.02190459 0.001886811)
(-0.7786561 0.08630464 0.004276482)
(-0.7616027 0.1323369 0.001206978)
(-0.7391969 0.1719056 0.002052306)
(-0.7150149 0.2061259 0.001475412)
(-0.6890831 0.2348231 0.001595164)
(-0.7438889 0.01748062 0.001629199)
(-0.7367212 0.07108021 0.003404143)
(-0.7229824 0.1112625 9.690468e-05)
(-0.7047061 0.1466106 0.0006309275)
(-0.6845229 0.1782447 2.55995e-05)
(-0.6625408 0.2059125 0.0001410892)
(-0.7022644 0.01499186 0.001541026)
(-0.6970781 0.06276193 0.003386183)
(-0.686801 0.09904199 0.0004442687)
(-0.6720199 0.1316941 0.001006716)
(-0.6555479 0.1613287 0.0004575666)
(-0.637086 0.1877241 0.0005598744)
(-0.6666632 0.01279243 0.00141614)
(-0.6629796 0.05475176 0.003098598)
(-0.6546801 0.08719614 0.0002237643)
(-0.6423584 0.1168484 0.0006849411)
(-0.6285046 0.1442453 0.000130303)
(-0.6127249 0.1691593 0.0002255832)
(-0.6346549 0.01118993 0.001331958)
(-0.6319288 0.04892915 0.002995343)
(-0.6252555 0.07834806 0.0002622486)
(-0.6148818 0.1055775 0.0007079028)
(-0.6031856 0.1310173 0.000177949)
(-0.5896379 0.1544593 0.0002694274)
(-0.606027 0.009858749 0.00125106)
(-0.6040236 0.04388346 0.002860476)
(-0.5985053 0.07061122 0.0002230709)
(-0.5896205 0.09558808 0.000625383)
(-0.579602 0.1191691 0.0001084981)
(-0.567837 0.1411479 0.0001881724)
(-0.580072 0.008784048 0.001181476)
(-0.5785751 0.03974556 0.002759302)
(-0.5739637 0.06418796 0.0002228901)
(-0.5662597 0.08720608 0.0005985988)
(-0.5575995 0.1091102 9.771287e-05)
(-0.5473 0.1297064 0.0001687386)
(-0.5564335 0.007883331 0.00111668)
(-0.5553105 0.03618852 0.002661101)
(-0.5514048 0.05862581 0.0002176368)
(-0.5446408 0.07988434 0.0005650761)
(-0.5370801 0.100252 7.875835e-05)
(-0.5279849 0.1195434 0.0001399375)
(-0.5347799 0.007120398 0.001056657)
(-0.5339221 0.03312725 0.002573335)
(-0.5305841 0.05380818 0.0002206509)
(-0.5245814 0.07349631 0.0005420111)
(-0.5179198 0.0924653 6.94709e-05)
(-0.5098271 0.1105428 0.0001232873)
(-0.5148575 0.006469267 0.001000706)
(-0.5141897 0.03045211 0.002492033)
(-0.5113143 0.04957598 0.0002221584)
(-0.5059363 0.06785255 0.0005183249)
(-0.5000149 0.08554065 6.236576e-05)
(-0.4927594 0.1024887 0.0001093826)
(-0.4964547 0.005904285 0.0009485358)
(-0.4959234 0.02809522 0.002414753)
(-0.4934302 0.04583084 0.0002213104)
(-0.4885732 0.06284017 0.0004858684)
(-0.4832662 0.07934849 5.571534e-05)
(-0.476717 0.09524586 9.658006e-05)
(-0.4793999 0.005409088 0.0009004688)
(-0.4789655 0.02599705 0.002342542)
(-0.4767882 0.04248381 0.000216323)
(-0.4723788 0.05834785 0.0004516113)
(-0.4675927 0.07377046 4.310519e-05)
(-0.4616364 0.08868959 8.477942e-05)
(-0.4635539 0.004971319 0.0008571982)
(-0.4631896 0.02411214 0.002280241)
(-0.4612744 0.03946465 0.0002187608)
(-0.4572497 0.05427905 0.0004665444)
(-0.4529097 0.06871197 2.870117e-05)
(-0.4474562 0.08271807 7.63822e-05)
(-0.448803 0.004581813 0.0008169798)
(-0.4484882 0.02240677 0.002221817)
(-0.4467948 0.03672378 0.0002210875)
(-0.4430969 0.05056912 0.000475195)
(-0.43914 0.06409762 1.617666e-05)
(-0.4341205 0.07725105 6.699801e-05)
(-0.4350489 0.004231928 0.0007793579)
(-0.4347698 0.02085365 0.002165788)
(-0.4332669 0.03422181 0.0002240708)
(-0.4298442 0.04717194 0.0004756585)
(-0.4262154 0.05986308 8.963262e-06)
(-0.4215751 0.07221951 5.761705e-05)
(-0.422211 0.003916215 0.0007440157)
(-0.4219535 0.01943241 0.002111032)
(-0.4206147 0.03192757 0.0002262211)
(-0.4174268 0.04404931 0.0004693343)
(-0.4140813 0.05595638 4.621079e-06)
(-0.4097734 0.0675673 4.99501e-05)
(-0.410214 0.003629485 0.0007109458)
(-0.40997 0.01812508 0.002055819)
(-0.4087724 0.02981376 0.0002285549)
(-0.4057884 0.04116901 0.0004641508)
(-0.4026888 0.05233634 8.661962e-06)
(-0.3986703 0.0632441 4.324188e-05)
(-0.3989937 0.003368318 0.0006815378)
(-0.3987575 0.01692051 0.002010018)
(-0.3976832 0.02785735 0.0002316704)
(-0.3948798 0.03849788 0.0004560928)
(-0.3919971 0.04897296 2.458003e-06)
(-0.3882299 0.05920926 3.602994e-05)
(-0.8857576 0.4434061 -0.01167998)
(-0.7233393 0.4248391 0.002463229)
(-0.646511 0.4400505 0.002276481)
(-0.594331 0.4624355 0.002313272)
(-0.5531495 0.4808955 0.00465839)
(-0.5169738 0.4822482 0.004872276)
(-1.31826 0.1333723 -0.001412055)
(-1.151999 0.2403668 -0.01025264)
(-1.026982 0.3063152 -0.01805553)
(-0.9397387 0.3374706 -0.02024287)
(-0.8649975 0.3608693 -0.01994093)
(-0.8065584 0.377099 -0.020011)
(-1.106148 0.09088626 0.001292225)
(-1.01266 0.2402895 0.002997609)
(-0.9490784 0.3089625 0.005520313)
(-0.8884898 0.3609418 0.009555712)
(-0.8339089 0.3920927 0.01034329)
(-0.7842641 0.4125034 0.01036597)
(-1.022139 0.0468009 0.0008502146)
(-0.9689675 0.1425373 -0.001671715)
(-0.9116665 0.2020232 0.001646494)
(-0.8616356 0.2470932 0.001971782)
(-0.8104415 0.2833052 0.001078786)
(-0.7655014 0.3104418 0.0009525946)
(-0.918026 0.03852291 0.001267095)
(-0.8794332 0.1320927 0.001073206)
(-0.8492119 0.1917143 0.002898666)
(-0.8151931 0.2411513 0.003696251)
(-0.7779082 0.2770696 0.003908913)
(-0.741679 0.3060729 0.004028334)
(-0.8542967 0.02578806 0.000719524)
(-0.8336921 0.09671729 -0.0003550732)
(-0.8071753 0.146333 -0.0001869642)
(-0.7785828 0.1873587 -0.0005568014)
(-0.7465873 0.2223413 -0.0001963185)
(-0.7154296 0.2514723 -0.0003525108)
(-0.7951927 0.02200512 0.0006280777)
(-0.7780418 0.08657902 -0.0002528727)
(-0.7601772 0.1325052 0.0006716199)
(-0.7389839 0.1725575 0.0006696415)
(-0.7143511 0.2063489 0.001053278)
(-0.6888947 0.2352294 0.001117964)
(-0.748565 0.01744855 0.0004842523)
(-0.7367409 0.07108389 -0.0007442752)
(-0.7220056 0.1108988 -0.0001749739)
(-0.704765 0.1462047 -0.0004036289)
(-0.684039 0.1776276 -0.0001552318)
(-0.6623952 0.2052609 -0.0001807037)
(-0.7069061 0.01502401 0.0004251277)
(-0.6969798 0.06307462 -0.000648655)
(-0.6857059 0.09917685 2.337725e-05)
(-0.6720271 0.1319418 -0.0001197506)
(-0.655105 0.1614404 0.0001118348)
(-0.6369592 0.1878273 0.0001162796)
(-0.6708562 0.01279848 0.0003815817)
(-0.6630142 0.05496011 -0.0007146052)
(-0.6536943 0.08720723 -0.0001219089)
(-0.6424287 0.1168769 -0.000306364)
(-0.6281424 0.1441743 -0.0001164193)
(-0.6126443 0.1690423 -0.0001537937)
(-0.6385948 0.01120485 0.0003506983)
(-0.6319585 0.04916855 -0.0006749098)
(-0.6242788 0.07845109 -7.598995e-05)
(-0.6149512 0.1057168 -0.0002500291)
(-0.6028608 0.1310923 -6.891784e-05)
(-0.5895877 0.1545071 -0.0001133583)
(-0.6096819 0.009866201 0.0003235121)
(-0.6040839 0.04408651 -0.000661102)
(-0.5975643 0.07068665 -8.094156e-05)
(-0.589702 0.09568815 -0.0002606662)
(-0.5793109 0.1192155 -9.17635e-05)
(-0.5678223 0.1411729 -0.0001513284)
(-0.5834841 0.008789141 0.0002992534)
(-0.5786448 0.03993417 -0.0006358146)
(-0.5730426 0.0642683 -6.028667e-05)
(-0.5663412 0.08731302 -0.0002390878)
(-0.5573271 0.1091742 -7.483495e-05)
(-0.5473084 0.1297602 -0.000140192)
(-0.5596138 0.007884935 0.0002777331)
(-0.555393 0.03635759 -0.0006157977)
(-0.5505031 0.05869491 -4.684553e-05)
(-0.5447226 0.07998153 -0.0002251061)
(-0.5368218 0.1003092 -6.605193e-05)
(-0.5280118 0.1195959 -0.0001342289)
(-0.5377418 0.00712106 0.0002589981)
(-0.5340159 0.03328227 -0.0005962397)
(-0.5296972 0.05387042 -3.253304e-05)
(-0.5246597 0.073592 -0.0002076923)
(-0.5176728 0.0925232 -5.308835e-05)
(-0.5098663 0.1105986 -0.000122152)
(-0.5176133 0.006466263 0.0002425041)
(-0.5142944 0.03059379 -0.0005784379)
(-0.5104384 0.04963017 -2.080493e-05)
(-0.5060084 0.06794418 -0.0001904733)
(-0.4997781 0.08559685 -3.969647e-05)
(-0.4928095 0.1025438 -0.0001088409)
(-0.4990182 0.005898952 0.0002276925)
(-0.4960386 0.02822267 -0.0005627259)
(-0.492563 0.04587419 -1.147705e-05)
(-0.4886361 0.0629151 -0.0001740082)
(-0.483039 0.07940053 -2.539782e-05)
(-0.4767745 0.09529665 -9.544721e-05)
(-0.4817886 0.005401967 0.0002139483)
(-0.4790949 0.02611046 -0.0005501661)
(-0.4759376 0.04251594 -7.479545e-06)
(-0.4724292 0.05839537 -0.0001671371)
(-0.4673643 0.07381671 -1.27262e-05)
(-0.461698 0.08873418 -8.386821e-05)
(-0.4657854 0.004963283 0.0002015568)
(-0.4633353 0.02421501 -0.0005393568)
(-0.4604489 0.03949131 -5.286993e-06)
(-0.4572867 0.05431189 -0.0001669112)
(-0.45267 0.06875147 -2.091676e-06)
(-0.4475187 0.08275723 -7.428066e-05)
(-0.4508887 0.004572918 0.0001902227)
(-0.448649 0.0225031 -0.0005292944)
(-0.4459927 0.03675008 -2.956755e-06)
(-0.4431231 0.05060263 -0.0001666592)
(-0.4388901 0.06413087 6.556917e-06)
(-0.4341818 0.0772877 -6.62876e-05)
(-0.4370003 0.004222734 0.0001800527)
(-0.4349432 0.02094566 -0.0005191914)
(-0.4324837 0.03424921 1.094604e-06)
(-0.4298627 0.04721092 -0.0001627491)
(-0.4259595 0.05989142 1.415669e-05)
(-0.4216328 0.0722526 -5.940924e-05)
(-0.4240346 0.003907051 0.0001711976)
(-0.4221375 0.0195201 -0.000508647)
(-0.4198465 0.03195377 6.477167e-06)
(-0.4174394 0.04408855 -0.0001567479)
(-0.4138229 0.05598065 2.041561e-05)
(-0.4098265 0.06759899 -5.528746e-05)
(-0.4119166 0.003620615 0.0001633107)
(-0.4101627 0.01820509 -0.00049825)
(-0.4080184 0.0298358 1.277169e-05)
(-0.4057955 0.04120357 -0.0001510471)
(-0.4024279 0.0523592 3.025017e-05)
(-0.3987177 0.06327604 -5.095301e-05)
(-0.4005852 0.003358899 0.0001555981)
(-0.3989587 0.01698718 -0.0004859846)
(-0.3969426 0.02787161 2.1043e-05)
(-0.3948801 0.03852173 -0.0001445901)
(-0.3917302 0.04898534 4.196834e-05)
(-0.3882706 0.05924504 -4.775642e-05)
(-0.8862216 0.4466745 -0.004269273)
(-0.7246463 0.422918 0.001607776)
(-0.6482158 0.4313025 0.001595942)
(-0.5941584 0.436608 0.001556512)
(-0.5499974 0.4385142 0.001493977)
(-0.5130653 0.4396408 0.001337696)
(-1.320904 0.1309326 -0.0008956382)
(-1.161592 0.242862 -0.002335726)
(-1.033471 0.3050717 -0.005827875)
(-0.93957 0.334106 -0.008460776)
(-0.8655029 0.3585535 -0.009757732)
(-0.8052881 0.3716708 -0.008019331)
(-1.098988 0.09103459 0.0002599546)
(-1.010074 0.2390598 0.001136878)
(-0.9485598 0.2979506 0.000218887)
(-0.8874859 0.3412856 -0.0005518771)
(-0.8324778 0.3786993 6.603355e-05)
(-0.7816567 0.4013633 0.00034135)
(-1.021542 0.04687404 0.0004800604)
(-0.9661014 0.1410311 0.001386434)
(-0.908449 0.1984371 0.002334522)
(-0.8599679 0.2428591 0.003566972)
(-0.8110422 0.2783638 0.003005413)
(-0.7658812 0.3052909 0.002679476)
(-0.9162265 0.03864183 0.0006385702)
(-0.8777981 0.1289639 0.00129492)
(-0.849535 0.1908193 0.001369817)
(-0.8148516 0.2383199 0.001936278)
(-0.7787692 0.2758146 0.001776523)
(-0.7422639 0.3050728 0.001933911)
(-0.8527037 0.02545437 0.0004920259)
(-0.833412 0.09594764 0.00160309)
(-0.8077096 0.1454602 0.0003388459)
(-0.7785383 0.1863288 0.001020153)
(-0.7472074 0.2212344 0.0003554445)
(-0.7155944 0.2502708 0.0004879004)
(-0.7939819 0.0218235 0.0003832162)
(-0.7775191 0.08599382 0.001310156)
(-0.7604836 0.1323876 0.000480754)
(-0.7388484 0.1721125 0.0009050055)
(-0.7146334 0.2061954 0.0005563278)
(-0.6889324 0.2350255 0.0006605488)
(-0.7475951 0.01735406 0.0003090054)
(-0.7364603 0.07078429 0.001106503)
(-0.7224479 0.1106681 0.0002080806)
(-0.704729 0.1458705 0.0005771168)
(-0.6843704 0.1773215 0.0002032174)
(-0.6624603 0.2049193 0.0002866595)
(-0.7060349 0.01497271 0.0002798785)
(-0.6966571 0.06289562 0.001030502)
(-0.6860894 0.09915388 0.0002320455)
(-0.6719771 0.1318465 0.00056312)
(-0.6553924 0.1614099 0.0002439937)
(-0.6370229 0.1877755 0.0003218784)
(-0.6700869 0.01275649 0.0002578126)
(-0.6627519 0.05481822 0.0009481658)
(-0.6540986 0.08714849 0.0001653256)
(-0.6424042 0.1167687 0.0004659648)
(-0.6284259 0.1440916 0.0001563943)
(-0.6127045 0.1689438 0.0002268287)
(-0.6378852 0.01117537 0.0002444469)
(-0.6317015 0.04906772 0.0009032056)
(-0.6246662 0.07843798 0.0001567678)
(-0.6149265 0.1056707 0.0004434572)
(-0.6031298 0.1310737 0.0001503301)
(-0.5896446 0.1544768 0.0002169066)
(-0.6090251 0.0098416 0.0002329827)
(-0.6038459 0.04399775 0.0008597708)
(-0.5979482 0.07067128 0.0001363172)
(-0.589685 0.09564305 0.0004073857)
(-0.5795722 0.1191908 0.0001246)
(-0.5678737 0.1411366 0.0001880855)
(-0.5828688 0.008768533 0.0002234538)
(-0.5784166 0.03985921 0.0008255918)
(-0.5734175 0.06426284 0.0001263243)
(-0.5663278 0.08728218 0.0003852804)
(-0.5575801 0.1091625 0.0001128114)
(-0.5473564 0.1297377 0.0001743892)
(-0.5590356 0.007866232 0.0002149094)
(-0.5551743 0.03629016 0.0007946853)
(-0.5508708 0.05869159 0.0001169865)
(-0.5447129 0.07995407 0.0003648396)
(-0.5370677 0.1002995 0.0001012739)
(-0.5280569 0.119576 0.0001601339)
(-0.5371971 0.007104018 0.0002069148)
(-0.533805 0.03322127 0.0007670395)
(-0.5300575 0.05386947 0.0001104191)
(-0.5246537 0.07356752 0.0003472518)
(-0.5179117 0.092517 9.237415e-05)
(-0.5099098 0.1105828 0.0001487645)
(-0.5170983 0.006450425 0.0001995314)
(-0.5140907 0.03053746 0.0007415192)
(-0.5107927 0.04962977 0.0001045416)
(-0.5060052 0.06792033 0.00033108)
(-0.5000094 0.08559213 8.550577e-05)
(-0.4928511 0.1025289 0.0001388235)
(-0.4985302 0.005884252 0.0001927045)
(-0.4958418 0.0281711 0.0007176114)
(-0.4929121 0.04587462 9.926082e-05)
(-0.4886353 0.06289445 0.0003145608)
(-0.4832623 0.07939741 7.920516e-05)
(-0.4768157 0.09528426 0.0001293763)
(-0.4813247 0.005388224 0.0001864646)
(-0.478904 0.02606424 0.0006958459)
(-0.4762801 0.04251882 9.470156e-05)
(-0.4724307 0.05838431 0.0003013351)
(-0.4675821 0.07381489 7.35393e-05)
(-0.4617386 0.08872295 0.0001216079)
(-0.4653426 0.004950427 0.0001807775)
(-0.4631483 0.02417358 0.0006764221)
(-0.4607808 0.03949639 9.198467e-05)
(-0.4572913 0.05430726 0.0002942082)
(-0.4528874 0.06875123 6.868674e-05)
(-0.4475597 0.08274827 0.000114947)
(-0.4504652 0.004560811 0.000175521)
(-0.4484655 0.02246477 0.0006583258)
(-0.446315 0.03675602 8.969232e-05)
(-0.4431309 0.05059946 0.0002876872)
(-0.4391075 0.06413207 6.381554e-05)
(-0.4342235 0.07727754 0.0001081607)
(-0.4365945 0.004211355 0.0001705279)
(-0.4347629 0.02090997 0.0006408622)
(-0.4327974 0.03425567 8.743786e-05)
(-0.429873 0.04720642 0.0002804339)
(-0.4261769 0.0598944 5.957319e-05)
(-0.421676 0.07224172 0.0001020307)
(-0.4236456 0.003896332 0.0001662844)
(-0.4219598 0.01948599 0.0006238646)
(-0.4201531 0.03196114 8.465923e-05)
(-0.4174521 0.04408404 0.0002722397)
(-0.4140415 0.05598851 5.504358e-05)
(-0.4098748 0.06758452 9.738261e-05)
(-0.4115438 0.003610429 0.0001624902)
(-0.4099862 0.01817372 0.0006063652)
(-0.4083187 0.02984488 8.121168e-05)
(-0.4058077 0.04119899 0.0002632032)
(-0.4026476 0.05237031 5.124516e-05)
(-0.3987695 0.06325762 9.345277e-05)
(-0.4002258 0.003349634 0.0001595455)
(-0.3987805 0.01695799 0.0005909068)
(-0.3972379 0.02788416 7.725704e-05)
(-0.3948937 0.0385159 0.0002544022)
(-0.3919569 0.04901168 4.324062e-05)
(-0.3883386 0.05921953 9.054071e-05)
(-0.88268 0.4456684 0.001056678)
(-0.7232885 0.4607407 -0.0130059)
(-0.6463429 0.4696302 -0.01128317)
(-0.5946432 0.4725461 -0.009997543)
(-0.5525639 0.4740075 -0.009725042)
(-0.5165036 0.4757354 -0.009829486)
(-1.323609 0.1302826 8.009871e-05)
(-1.160596 0.242268 0.002377878)
(-1.033208 0.3049566 0.005806588)
(-0.9395145 0.3340531 0.008449313)
(-0.8654685 0.3585469 0.009759674)
(-0.8052672 0.371662 0.008015751)
(-1.098153 0.09063051 0.0001667877)
(-1.010106 0.2393553 -0.001150458)
(-0.9485609 0.2979665 -0.0002157297)
(-0.8874825 0.3412548 0.0005575374)
(-0.8324673 0.3786898 -6.78511e-05)
(-0.7816531 0.4013581 -0.0003396116)
(-1.022305 0.04685845 0.0001349623)
(-0.9660792 0.1410266 -0.001393085)
(-0.9084354 0.1984427 -0.002342875)
(-0.8599635 0.2428637 -0.003562923)
(-0.8110431 0.2783667 -0.003002984)
(-0.7658803 0.3052952 -0.002676834)
(-0.9167689 0.03863435 5.399035e-05)
(-0.8777993 0.1289751 -0.001298264)
(-0.8495341 0.1908217 -0.001372316)
(-0.8148523 0.2383203 -0.001936227)
(-0.7787697 0.275815 -0.001775928)
(-0.7422645 0.3050745 -0.001933269)
(-0.85326 0.02531892 1.452088e-05)
(-0.8334121 0.0959491 -0.001603355)
(-0.8077092 0.145461 -0.0003400618)
(-0.7785383 0.1863294 -0.001020217)
(-0.7472074 0.221235 -0.0003553673)
(-0.7155941 0.2502714 -0.0004876168)
(-0.7944799 0.0218178 1.374783e-05)
(-0.777519 0.08599429 -0.001310291)
(-0.7604836 0.1323878 -0.0004809457)
(-0.7388484 0.1721128 -0.0009046616)
(-0.7146334 0.2061954 -0.0005558629)
(-0.6889322 0.2350258 -0.0006600499)
(-0.7480489 0.0173496 1.717279e-05)
(-0.7364603 0.07078428 -0.001106566)
(-0.7224478 0.1106681 -0.0002081846)
(-0.704729 0.1458706 -0.0005768686)
(-0.6843702 0.1773216 -0.0002029086)
(-0.6624603 0.2049194 -0.000286228)
(-0.7064449 0.01497032 1.654211e-05)
(-0.6966568 0.06289564 -0.001030574)
(-0.6860894 0.09915391 -0.0002319928)
(-0.6719771 0.1318466 -0.00056286)
(-0.6553924 0.1614099 -0.0002435818)
(-0.6370228 0.1877755 -0.000321549)
(-0.6704692 0.01275375 1.623493e-05)
(-0.6627519 0.05481829 -0.0009482645)
(-0.6540985 0.0871486 -0.0001653644)
(-0.6424042 0.1167687 -0.0004657168)
(-0.6284257 0.1440916 -0.0001561192)
(-0.6127046 0.1689437 -0.0002264062)
(-0.6382423 0.01117349 1.512569e-05)
(-0.6317014 0.0490678 -0.0009033414)
(-0.6246662 0.07843791 -0.0001567254)
(-0.6149265 0.1056706 -0.0004432291)
(-0.6031298 0.1310737 -0.0001499503)
(-0.5896445 0.1544767 -0.0002166208)
(-0.6093604 0.009839997 1.413303e-05)
(-0.6038459 0.0439978 -0.0008599092)
(-0.5979482 0.07067131 -0.0001363674)
(-0.5896851 0.09564306 -0.0004071129)
(-0.5795721 0.1191908 -0.0001243216)
(-0.5678738 0.1411366 -0.0001876448)
(-0.5831847 0.008766986 1.318844e-05)
(-0.5784165 0.03985916 -0.0008257738)
(-0.5734176 0.06426273 -0.0001263226)
(-0.5663277 0.08728215 -0.0003850963)
(-0.5575801 0.1091625 -0.0001124007)
(-0.5473563 0.1297377 -0.0001740851)
(-0.5593336 0.007864604 1.218711e-05)
(-0.5551743 0.03629017 -0.0007948468)
(-0.5508708 0.05869157 -0.0001170058)
(-0.5447129 0.07995402 -0.0003645444)
(-0.5370675 0.1002995 -0.0001009179)
(-0.5280569 0.119576 -0.00015962)
(-0.5374789 0.007102505 1.122773e-05)
(-0.533805 0.03322116 -0.0007672104)
(-0.5300575 0.05386939 -0.0001104362)
(-0.5246535 0.07356746 -0.000347081)
(-0.5179116 0.09251704 -9.187982e-05)
(-0.5099095 0.1105829 -0.0001483745)
(-0.5173657 0.006448968 1.034327e-05)
(-0.5140908 0.03053729 -0.0007416254)
(-0.5107926 0.04962957 -0.0001045475)
(-0.5060051 0.06792017 -0.0003307831)
(-0.5000091 0.08559205 -8.500205e-05)
(-0.4928509 0.1025291 -0.0001382099)
(-0.4987843 0.005882894 9.502817e-06)