/*--------------------------------*- C++ -*----------------------------------*\
  =========                 |
  \\      /  F ield         | OpenFOAM: The Open Source CFD Toolbox
   \\    /   O peration     | Website:  https://openfoam.org
    \\  /    A nd           | Version:  7
     \\/     M anipulation  |
\*---------------------------------------------------------------------------*/
FoamFile
{
    version     2.0;
    format      ascii;
    class       volScalarField;
    location    "0.05";
    object      p;
}
// * * * * * * * * * * * * * * * * * * * * * * * * * * * * * * * * * * * * * //

dimensions      [0 2 -2 0 0 0 0];

internalField   nonuniform List<scalar> 
73374
(
1.753242
1.746755
1.750834
1.690966
1.675779
1.624231
1.629015
1.563954
1.524973
1.512904
1.508087
1.748942
1.846628
1.858305
1.9073
1.938147
2.029245
1.994042
2.060779
2.062904
2.041864
2.017803
1.739128
1.683503
1.677564
1.64326
1.613758
1.605002
1.592913
1.61951
1.607752
1.601347
1.600298
1.733394
1.7662
1.779783
1.792568
1.779399
1.772091
1.766792
1.757386
1.741327
1.725066
1.712634
1.728867
1.71604
1.706523
1.703022
1.693769
1.679098
1.684468
1.671603
1.664186
1.656506
1.648532
1.721719
1.729899
1.724263
1.731567
1.732798
1.722699
1.726595
1.716902
1.711319
1.703846
1.693631
1.716906
1.713718
1.709476
1.709314
1.707168
1.702213
1.704611
1.699426
1.69647
1.690471
1.68107
1.709848
1.710049
1.707659
1.708904
1.70983
1.707995
1.71178
1.708599
1.707765
1.702651
1.693146
1.701939
1.700701
1.699727
1.700762
1.702454
1.703441
1.707381
1.709237
1.712483
1.710965
1.708405
1.692234
1.692173
1.692392
1.693811
1.696684
1.698451
1.70379
1.706359
1.712549
1.711665
1.709962
1.681289
1.681701
1.682467
1.684014
1.688396
1.692225
1.701798
1.710492
1.72807
1.736142
1.767523
1.668958
1.669471
1.670574
1.671628
1.676409
1.679182
1.689729
1.696376
1.718109
1.724518
1.765692
1.65532
1.656128
1.657289
1.657471
1.663356
1.665281
1.681507
1.692471
1.728156
1.772159
1.850636
1.640275
1.641158
1.641867
1.640441
1.645246
1.644328
1.659644
1.666239
1.716206
1.729917
1.818187
1.624119
1.62543
1.625415
1.621007
1.625637
1.615564
1.634243
1.613489
1.673597
1.651687
1.707374
1.607402
1.609559
1.607899
1.601358
1.601144
1.58769
1.588001
1.568405
1.567396
1.552074
1.541047
1.590512
1.593588
1.590928
1.581284
1.580334
1.557843
1.559031
1.519144
1.513046
1.481339
1.428192
1.574862
1.578809
1.574785
1.563743
1.558731
1.533215
1.52066
1.475112
1.440617
1.394254
1.292793
1.560831
1.564983
1.560029
1.547043
1.541828
1.509173
1.500136
1.437892
1.397971
1.277852
1.136742
1.548548
1.250565
1.0811
2.077048
2.002977
1.95051
1.916267
1.886022
1.874593
1.877098
1.893468
1.876864
1.856919
1.67519
1.648703
1.695757
1.564361
1.556293
1.567193
1.548203
1.560383
1.593214
1.576943
1.587686
1.705024
1.715878
1.769084
1.791922
1.808762
1.787604
1.811399
1.785762
1.800491
1.783891
1.767896
1.725261
1.695019
1.692153
1.654756
1.634826
1.636275
1.617719
1.630507
1.638855
1.629252
1.6237
1.73039
1.743509
1.761772
1.77299
1.769161
1.774772
1.765268
1.762554
1.753226
1.737046
1.722504
1.724792
1.719841
1.713392
1.701425
1.690854
1.685965
1.677343
1.67396
1.66873
1.657932
1.649089
1.722794
1.730233
1.731771
1.739172
1.74058
1.739416
1.735504
1.728466
1.721521
1.711589
1.700054
1.715039
1.715754
1.713303
1.714173
1.713232
1.711817
1.708865
1.703477
1.698112
1.691431
1.681836
1.708943
1.711702
1.711161
1.714721
1.716337
1.716736
1.716921
1.715174
1.712245
1.707522
1.697275
1.700515
1.701782
1.701012
1.702189
1.703568
1.705524
1.708618
1.710624
1.71421
1.713716
1.70998
1.691349
1.692919
1.693126
1.695351
1.697868
1.700966
1.705095
1.710419
1.713542
1.721578
1.714601
1.681035
1.682198
1.682601
1.68453
1.688355
1.692042
1.701752
1.708291
1.727301
1.733098
1.759625
1.668868
1.669997
1.670516
1.672375
1.676049
1.680995
1.688973
1.703827
1.716386
1.750453
1.763636
1.655885
1.656587
1.657098
1.657545
1.6627
1.663847
1.68096
1.685332
1.726113
1.744037
1.876815
1.641104
1.641683
1.641536
1.641155
1.643822
1.64632
1.655602
1.676157
1.712822
1.779863
1.817537
1.625873
1.625903
1.625277
1.621438
1.625091
1.615205
1.634777
1.609863
1.691151
1.6402
1.671765
1.610011
1.609834
1.607743
1.602045
1.599798
1.588811
1.582467
1.572306
1.531523
1.562947
1.578725
1.594549
1.593914
1.59104
1.582052
1.579641
1.559014
1.557171
1.522212
1.505969
1.458466
1.439053
1.580007
1.579225
1.57506
1.564684
1.557509
1.535005
1.516319
1.478174
1.42135
1.332027
1.296187
1.566483
1.565501
1.560676
1.548478
1.541478
1.514187
1.501007
1.454191
1.418122
1.280981
1.015562
1.045313
2.021606
2.093611
2.032336
2.042052
2.043333
2.027785
2.089943
2.228338
2.127712
2.062817
1.705328
1.729962
1.624896
1.580449
1.548813
1.491988
1.474052
1.384156
1.259475
1.303559
1.299828
1.716657
1.824692
1.895263
1.953601
1.998902
2.038045
2.064191
2.106403
2.077619
2.079448
2.052988
1.703974
1.696948
1.634851
1.608146
1.565161
1.553365
1.529235
1.537243
1.51061
1.51421
1.511367
1.757109
1.775608
1.800181
1.824818
1.838339
1.835841
1.83295
1.807386
1.783881
1.76944
1.757712
1.71124
1.715685
1.685622
1.681333
1.674101
1.660378
1.663852
1.652965
1.649691
1.647004
1.639801
1.72148
1.73367
1.726337
1.737182
1.72816
1.723079
1.722591
1.718851
1.714005
1.71246
1.69972
1.710485
1.712745
1.70393
1.705425
1.699623
1.69706
1.696001
1.694594
1.692726
1.689933
1.678593
1.70762
1.710415
1.705647
1.70982
1.706027
1.707289
1.707269
1.708302
1.707456
1.704879
1.694503
1.69967
1.700462
1.698821
1.700308
1.700472
1.702096
1.705402
1.707776
1.712284
1.712302
1.709853
1.691342
1.692234
1.692345
1.694004
1.696157
1.698822
1.703306
1.708178
1.712747
1.715856
1.712184
1.681698
1.682023
1.682877
1.684049
1.688349
1.691314
1.702248
1.707757
1.728145
1.733584
1.759911
1.668985
1.66964
1.670712
1.672041
1.67639
1.680496
1.690534
1.701893
1.720269
1.73671
1.757426
1.656761
1.656717
1.657871
1.657522
1.663766
1.663449
1.684096
1.685866
1.73327
1.753693
1.88116
1.641558
1.641491
1.642001
1.64091
1.644724
1.645136
1.65775
1.671755
1.719433
1.769115
1.825881
1.626946
1.626018
1.626093
1.621424
1.626321
1.614929
1.636948
1.60952
1.69748
1.633182
1.659273
1.611253
1.609895
1.608466
1.601891
1.600688
1.587655
1.584293
1.567213
1.531591
1.521341
1.581612
1.596235
1.594184
1.592053
1.582025
1.58096
1.558564
1.559689
1.52102
1.508503
1.450075
1.443274
1.581887
1.579572
1.576056
1.564526
1.558429
1.533842
1.517573
1.473825
1.423352
1.319115
1.30041
1.568708
1.566041
1.561863
1.548501
1.542806
1.513785
1.503657
1.453394
1.420167
1.282449
1.004431
1.047219
2.022045
2.042324
1.98712
2.325376
1.987744
2.283648
2.123268
2.004627
2.15018
1.977827
1.713906
1.612272
1.600276
1.478349
1.318612
1.499234
1.295946
1.422861
1.470423
1.364667
1.456535
1.710009
1.780913
1.866312
1.950041
1.969742
2.021281
2.050396
2.109798
2.07092
2.089082
2.062273
1.694233
1.674731
1.632422
1.5899
1.521245
1.520224
1.483957
1.50346
1.498579
1.493233
1.493284
1.747367
1.763857
1.788996
1.830336
1.82444
1.842798
1.826596
1.817182
1.801236
1.776504
1.76124
1.707335
1.708807
1.682888
1.692543
1.674506
1.677859
1.66321
1.653451
1.645836
1.634663
1.631332
1.728528
1.740405
1.742982
1.752126
1.757664
1.757873
1.753302
1.739184
1.730748
1.717912
1.708044
1.712813
1.713939
1.710478
1.713948
1.722064
1.715259
1.718228
1.701706
1.699652
1.689545
1.681947
1.70946
1.71206
1.713685
1.717749
1.721613
1.72055
1.721429
1.716794
1.714123
1.708294
1.6988
1.700804
1.701582
1.701415
1.703448
1.704338
1.70635
1.70886
1.710152
1.714107
1.71319
1.709625
1.691557
1.692941
1.693428
1.696172
1.69868
1.701956
1.70541
1.71112
1.713084
1.720892
1.714035
1.68164
1.682415
1.682825
1.684924
1.68846
1.691902
1.701608
1.707153
1.726271
1.731505
1.752466
1.66925
1.670116
1.670388
1.672878
1.675745
1.681677
1.688479
1.704274
1.715753
1.746691
1.758203
1.65662
1.656899
1.657221
1.65777
1.662505
1.663247
1.68072
1.683725
1.726115
1.741956
1.889708
1.64163
1.641848
1.641264
1.641574
1.643021
1.646719
1.654396
1.675066
1.717313
1.777367
1.825762
1.626907
1.626289
1.62548
1.621829
1.624962
1.615163
1.635099
1.609403
1.697432
1.640471
1.656323
1.611056
1.610099
1.607746
1.60248
1.598908
1.588889
1.579853
1.569586
1.524232
1.525213
1.601196
1.59603
1.5944
1.591513
1.582659
1.57959
1.55968
1.557006
1.523261
1.503637
1.453347
1.447142
1.581698
1.57981
1.575557
1.565302
1.556879
1.535446
1.513746
1.476221
1.414243
1.317037
1.296258
1.568498
1.566308
1.561601
1.549547
1.542012
1.516622
1.502838
1.458666
1.424469
1.2835
0.9998336
1.037446
1.972668
2.053143
2.227387
2.093875
2.383865
1.986813
2.227068
2.301883
1.943542
2.079925
1.717735
1.617016
1.625006
1.352474
1.555275
1.208251
1.408219
1.299132
1.222048
1.434377
1.333907
1.73656
1.799917
1.916454
1.990202
2.039005
2.120875
2.149264
2.180863
2.153589
2.106813
2.09809
1.699601
1.669291
1.625987
1.547619
1.530024
1.510917
1.489704
1.489593
1.466092
1.46806
1.472386
1.77053
1.779938
1.818392
1.832359
1.84725
1.818802
1.803229
1.786113
1.771573
1.748632
1.741853
1.703688
1.709287
1.67188
1.678369
1.660674
1.639086
1.622713
1.620029
1.62051
1.618182
1.610737
1.719925
1.740272
1.723427
1.753766
1.735064
1.745162
1.714868
1.725242
1.718614
1.710893
1.695097
1.709004
1.713268
1.700743
1.716857
1.697621
1.699147
1.690241
1.69744
1.696626
1.689889
1.675027
1.708496
1.712815
1.7063
1.717125
1.707854
1.715075
1.709365
1.71416
1.712471
1.7079
1.695782
1.701279
1.701895
1.69897
1.701642
1.700614
1.704082
1.70539
1.708752
1.71434
1.713426
1.709334
1.692089
1.692977
1.692589
1.695672
1.696704
1.700949
1.7039
1.710881
1.713722
1.719281
1.713702
1.683817
1.683366
1.683826
1.684945
1.688482
1.691554
1.701548
1.706609
1.727147
1.731891
1.75339
1.667351
1.669541
1.66969
1.672601
1.675678
1.681708
1.689139
1.705066
1.71843
1.741477
1.754082
1.657973
1.657557
1.658201
1.657975
1.663196
1.663023
1.681678
1.682465
1.729308
1.74367
1.89574
1.639496
1.640887
1.640506
1.641203
1.643198
1.646396
1.65547
1.673924
1.719891
1.775174
1.826781
1.62704
1.626439
1.625851
1.621923
1.625539
1.615124
1.636137
1.608841
1.700303
1.638494
1.65478
1.610668
1.609813
1.607716
1.602366
1.599241
1.58858
1.580897
1.568116
1.525173
1.51776
1.587907
1.596516
1.594605
1.591953
1.5828
1.580178
1.559824
1.558235
1.52281
1.506405
1.440503
1.452489
1.582043
1.579903
1.575923
1.565333
1.557378
1.535329
1.514768
1.475518
1.41539
1.317406
1.294282
1.569316
1.566645
1.562218
1.549708
1.542681
1.516909
1.504193
1.459382
1.427861
1.27901
0.9982754
1.033175
1.952475
2.052979
2.072956
2.447782
1.905222
2.368627
1.982135
2.040011
1.965496
1.876857
1.710256
1.612051
1.554886
1.394153
1.160934
1.416106
1.114653
1.443972
1.324339
1.481674
1.4093
1.734573
1.791057
1.909853
2.02504
2.09522
2.134537
2.149365
2.160219
2.160441
2.088382
2.085546
1.68707
1.653814
1.600875
1.537068
1.482433
1.469436
1.48393
1.504478
1.466003
1.473875
1.470526
1.762656
1.773639
1.811449
1.853795
1.82943
1.810048
1.831755
1.815832
1.787018
1.760828
1.766717
1.701853
1.699332
1.674463
1.682476
1.679935
1.650033
1.68605
1.632193
1.634687
1.620638
1.636054
1.72819
1.740617
1.739016
1.741864
1.762987
1.746023
1.761423
1.72054
1.725672
1.70517
1.711229
1.710514
1.710839
1.711201
1.707623
1.72232
1.702462
1.717762
1.692944
1.69474
1.682484
1.681851
1.70694
1.709452
1.711817
1.70867
1.720625
1.711917
1.720925
1.711502
1.711372
1.705514
1.698841
1.702227
1.702106
1.701577
1.701515
1.704445
1.703669
1.708088
1.707471
1.712042
1.71061
1.709257
1.689996
1.691951
1.692735
1.694854
1.698349
1.700488
1.704959
1.710011
1.712913
1.718414
1.713206
1.682308
1.682518
1.683165
1.68478
1.688568
1.691464
1.701598
1.70632
1.726835
1.731542
1.753521
1.669451
1.669865
1.670179
1.672919
1.675609
1.681881
1.68892
1.70519
1.718291
1.741332
1.754527
1.657137
1.656984
1.657456
1.65793
1.662786
1.663131
1.681283
1.682729
1.730189
1.744852
1.893392
1.641764
1.641879
1.641035
1.641687
1.6429
1.646701
1.654951
1.674253
1.720417
1.774852
1.825856
1.627238
1.626457
1.625764
1.62205
1.625193
1.615212
1.635757
1.608548
1.702345
1.64007
1.655199
1.611067
1.610057
1.6076
1.602571
1.598768
1.589183
1.57948
1.570054
1.520342
1.516774
1.607832
1.596193
1.594332
1.591681
1.582702
1.579486
1.559585
1.556267
1.520784
1.501895
1.427754
1.450297
1.582062
1.579824
1.575772
1.565383
1.557234
1.535826
1.514778
1.477519
1.417877
1.326854
1.291313
1.568647
1.566105
1.561894
1.549451
1.542172
1.516277
1.502451
1.456378
1.420716
1.279788
0.9994505
1.55678
1.033548
1.944662
2.066195
2.303787
2.101552
2.430029
2.063348
2.101124
2.262095
1.915637
2.172946
1.7246
1.603719
1.60365
1.306909
1.562356
1.207892
1.485703
1.455185
1.299646
1.484349
1.314215
1.76151
1.806776
1.932881
2.014456
2.072709
2.143013
2.173461
2.131358
2.146146
2.03206
2.072348
1.708666
1.665794
1.626825
1.529329
1.520424
1.486839
1.491861
1.483666
1.471094
1.486084
1.464848
1.769819
1.784386
1.823141
1.831368
1.837961
1.795791
1.793541
1.783318
1.760427
1.766878
1.716434
1.707478
1.707292
1.672517
1.688893
1.661493
1.630283
1.621435
1.623343
1.609989
1.617181
1.596133
1.710144
1.746597
1.729369
1.760214
1.753759
1.750407
1.72806
1.737281
1.722925
1.718739
1.699816
1.713269
1.716932
1.704748
1.721242
1.704123
1.7222
1.697823
1.71338
1.700426
1.697231
1.676092
1.711466
1.714616
1.713228
1.72005
1.713988
1.721052
1.715591
1.720081
1.715522
1.711823
1.698305
1.709218
1.708978
1.702785
1.706335
1.703695
1.707648
1.708518
1.712176
1.714968
1.714594
1.709209
1.695602
1.693834
1.694024
1.696985
1.698214
1.702692
1.705369
1.712237
1.714022
1.7219
1.713364
1.691142
1.685696
1.686904
1.686348
1.689802
1.692651
1.702123
1.707645
1.72687
1.731565
1.753726
1.660541
1.669988
1.666891
1.673019
1.674717
1.681744
1.688274
1.703976
1.715374
1.746991
1.758885
1.661102
1.658642
1.6596
1.658601
1.663085
1.663532
1.680738
1.683797
1.725674
1.742366
1.886274
1.630339
1.639076
1.636214
1.640648
1.641431
1.64636
1.653397
1.674717
1.715447
1.776614
1.825804
1.625683
1.626637
1.625257
1.622079
1.624491
1.615157
1.633756
1.608746
1.696009
1.638699
1.653458
1.608167
1.608786
1.606042
1.602091
1.598153
1.589085
1.579376
1.570804
1.521015
1.528226
1.588811
1.596132
1.594363
1.591382
1.582728
1.578781
1.559545
1.554593
1.519756
1.500999
1.428647
1.442527
1.580977
1.579438
1.575243
1.565427
1.556995
1.536656
1.515255
1.481744
1.423595
1.344357
1.257381
1.569335
1.566389
1.561953
1.549489
1.541593
1.515853
1.500813
1.454804
1.415602
1.281896
0.9709326
1.558291
1.554856
1.549309
1.537249
1.038221
1.941472
1.985668
1.970432
2.09627
1.936557
1.941134
1.918347
1.905614
1.956364
2.091612
1.722155
1.616189
1.590148
1.463947
1.38234
1.459342
1.422341
1.50406
1.465633
1.534401
1.354046
1.748287
1.800179
1.90181
1.974999
2.039484
2.047099
2.106776
2.046081
2.049694
2.006571
2.038147
1.683001
1.659698
1.60356
1.547553
1.508607
1.485516
1.472642
1.489557
1.482197
1.500299
1.478187
1.748512
1.778953
1.8145
1.843306
1.836063
1.805913
1.800099
1.816137
1.80505
1.784606
1.772775
1.702761
1.699837
1.671863
1.688545
1.670984
1.652069
1.653617
1.654222
1.651507
1.634147
1.635633
1.717945
1.738663
1.728582
1.757335
1.752136
1.750539
1.746506
1.736353
1.729217
1.716568
1.708381
1.707403
1.7124
1.702126
1.712258
1.704385
1.703322
1.70244
1.696797
1.692997
1.686157
1.678451
1.698775
1.711867
1.703903
1.713546
1.710312
1.70842
1.712985
1.710764
1.709475
1.705954
1.69647
1.715442
1.707402
1.702688
1.703387
1.703222
1.703383
1.707416
1.708366
1.71192
1.711593
1.708942
1.681696
1.689951
1.690756
1.694621
1.696914
1.69932
1.704153
1.708679
1.712533
1.715911
1.711699
1.685082
1.681106
1.683673
1.684528
1.688923
1.691923
1.702518
1.708113
1.727909
1.733668
1.759281
1.664853
1.668581
1.669644
1.67256
1.675531
1.680858
1.689882
1.701855
1.718698
1.736444
1.755652
1.653703
1.655393
1.656909
1.657572
1.663334
1.663721
1.683374
1.686194
1.732184
1.753248
1.878114
1.64273
1.641515
1.640803
1.641168
1.64313
1.645218
1.655591
1.671322
1.715785
1.767093
1.819556
1.626441
1.625608
1.625899
1.621657
1.625286
1.615242
1.634297
1.608951
1.692001
1.642601
1.655043
1.610783
1.609478
1.607401
1.601968
1.59951
1.588264
1.582916
1.568009
1.530042
1.522929
1.581172
1.595403
1.593071
1.591518
1.58186
1.579213
1.558764
1.55498
1.517853
1.50272
1.432224
1.435247
1.582705
1.57934
1.575895
1.564776
1.558516
1.535522
1.519822
1.480095
1.435365
1.342574
1.262662
1.567215
1.564256
1.561693
1.547855
1.541873
1.512933
1.500441
1.447849
1.409625
1.284596
0.9688751
1.554771
1.552569
1.549122
1.535882
1.526732
1.502469
1.050774
1.980629
2.095006
2.173052
2.03656
2.241106
2.068687
1.994249
2.063827
2.638147
1.963091
1.724523
1.676324
1.598943
1.46856
1.53441
1.390695
1.494639
1.524529
1.519476
1.471252
1.555637
1.752943
1.801336
1.92589
1.958908
2.039145
2.058352
2.104139
2.02266
2.041846
1.844974
1.907122
1.703368
1.690096
1.617215
1.5581
1.533975
1.498734
1.499699
1.511436
1.515665
1.548874
1.528805
1.72837
1.795395
1.809114
1.845614
1.852968
1.81665
1.818587
1.821383
1.807285
1.779367
1.77181
1.689335
1.712221
1.682028
1.704724
1.684635
1.659604
1.662353
1.675315
1.660123
1.641056
1.636907
1.70847
1.740983
1.736093
1.759044
1.753926
1.74816
1.744323
1.745802
1.733238
1.722203
1.708998
1.719325
1.720104
1.717605
1.721018
1.721034
1.720852
1.713827
1.714543
1.702629
1.694165
1.680062
1.712773
1.711865
1.717306
1.7178
1.72146
1.720825
1.720899
1.721252
1.716817
1.712239
1.699735
1.707276
1.728914
1.706124
1.710221
1.706002
1.708545
1.710643
1.712773
1.715244
1.714839
1.709466
1.669947
1.688629
1.695294
1.696802
1.699149
1.702475
1.706264
1.711872
1.714349
1.722481
1.713687
1.654858
1.684669
1.691811
1.686523
1.691348
1.693318
1.702839
1.708926
1.727598
1.732975
1.760424
1.644803
1.667381
1.663224
1.673949
1.673802
1.681341
1.68823
1.702719
1.714472
1.750801
1.763503
1.67801
1.657357
1.661583
1.658447
1.663721
1.664206
1.680644
1.6852
1.723942
1.743486
1.87206
1.628185
1.637664
1.629723
1.640404
1.640367
1.645643
1.653463
1.674622
1.706776
1.777357
1.823332
1.630504
1.627227
1.624118
1.62198
1.624113
1.615218
1.63169
1.6088
1.681185
1.632393
1.652202
1.608955
1.607823
1.604507
1.601472
1.59846
1.588933
1.582575
1.572848
1.535796
1.55766
1.578524
1.594389
1.592813
1.590906
1.581932
1.578449
1.559118
1.554042
1.519706
1.504549
1.438169
1.431603
1.57767
1.578201
1.57455
1.564932
1.557867
1.537575
1.519699
1.488385
1.43694
1.373933
1.283859
1.568184
1.564383
1.56169
1.548107
1.541198
1.513974
1.499012
1.451407
1.412262
1.277035
0.9870005
1.56247
1.553234
1.550006
1.536398
1.526721
1.505398
1.482744
1.465229
1.065889
2.063432
2.079808
2.086993
2.045949
2.037674
1.998681
1.956821
1.956835
2.053598
2.34981
1.768894
1.705293
1.633632
1.584121
1.522942
1.492823
1.500785
1.550249
1.550658
1.604321
1.546356
1.75323
1.821806
1.868698
1.935089
1.983085
2.007591
2.053437
1.965825
2.007413
1.866847
1.982975
1.697459
1.670149
1.618493
1.568674
1.529584
1.501989
1.4974
1.503177
1.522674
1.538871
1.537494
1.70713
1.793732
1.804471
1.840615
1.847893
1.819588
1.809204
1.821751
1.811187
1.787156
1.773087
1.665727
1.694339
1.68475
1.700971
1.692125
1.671124
1.67119
1.675374
1.661677
1.649167
1.639875
1.667429
1.736795
1.727321
1.747533
1.742341
1.737067
1.732612
1.731696
1.719486
1.714891
1.701664
1.651904
1.713041
1.705685
1.713396
1.711031
1.704678
1.703015
1.703119
1.696139
1.691414
1.679501
1.630463
1.710277
1.708561
1.713743
1.715785
1.711426
1.713733
1.71407
1.710559
1.706958
1.695617
1.641742
1.707903
1.704642
1.704895
1.705533
1.705401
1.708535
1.71093
1.712834
1.711867
1.707466
1.701344
1.690309
1.693911
1.69505
1.698266
1.699765
1.704798
1.707551
1.71292
1.712593
1.708742
1.642665
1.671218
1.687429
1.683569
1.690514
1.692894
1.702452
1.71079
1.727873
1.735725
1.76716
1.626135
1.66695
1.66878
1.671845
1.675197
1.679335
1.689013
1.695721
1.71633
1.723126
1.763263
1.608406
1.646147
1.662389
1.656393
1.664282
1.665345
1.680742
1.691824
1.725686
1.769273
1.847218
1.59016
1.63995
1.637527
1.640258
1.642796
1.643678
1.657626
1.663514
1.712375
1.720078
1.804528
1.584516
1.623712
1.626306
1.620953
1.624716
1.615455
1.630944
1.611419
1.665821
1.643578
1.684242
1.563439
1.606273
1.606887
1.600966
1.600128
1.587155
1.588191
1.563692
1.567664
1.550978
1.555186
1.56075
1.589513
1.591407
1.580584
1.578781
1.55807
1.55352
1.518559
1.496736
1.442456
1.429336
1.563378
1.578315
1.575446
1.564152
1.559683
1.536169
1.526332
1.486173
1.468799
1.39519
1.253427
1.52824
1.559588
1.562404
1.545621
1.541857
1.507967
1.49759
1.429587
1.387038
1.256632
1.038457
1.498799
1.544469
1.551379
1.534013
1.528385
1.501587
1.488244
1.450763
1.430076
1.255079
1.098866
1.813938
1.907953
1.854469
1.841445
1.889141
1.767875
1.781878
1.913949
1.997158
1.697715
1.690314
1.76529
1.81798
1.976568
1.989825
1.726141
1.678406
1.767393
1.893813
1.975243
2.05899
1.689452
1.678007
1.801593
1.798576
1.929183
2.152891
1.704895
1.695873
1.731574
1.761782
1.905115
2.214298
1.686951
1.684694
1.708521
1.753258
1.901504
2.209653
1.692329
1.688491
1.679162
1.730965
1.885806
2.157628
1.67471
1.672676
1.649744
1.717284
1.859923
2.090494
1.654296
1.672269
1.626301
1.705309
1.836646
2.045818
1.642059
1.663867
1.614219
1.695782
1.82042
2.00969
1.634651
1.654637
1.576649
1.81172
1.833184
1.663665
1.655168
1.764028
1.813306
1.683284
1.81398
1.760868
1.680916
1.700191
1.855232
1.751473
1.660347
1.797155
1.793261
1.663642
1.692003
1.75973
1.747401
1.672577
1.801597
1.792549
1.67399
1.729141
1.806231
1.751195
1.664911
1.790143
1.783059
1.665667
1.708866
1.773438
1.734649
1.664801
1.788045
1.77655
1.663892
1.703749
1.783335
1.725009
1.658902
1.781292
1.768933
1.660611
1.693018
1.772457
1.717325
1.654944
1.774624
1.761755
1.655992
1.686609
1.766606
1.710689
1.648946
1.765505
1.75294
1.65036
1.679202
1.756999
1.702597
1.642036
1.755039
1.742999
1.643275
1.671175
1.746674
1.693711
1.633519
1.743193
1.731167
1.634913
1.661665
1.734835
1.683372
1.623149
1.729924
1.717442
1.62466
1.650464
1.721216
1.671328
1.611429
1.71531
1.702552
1.613163
1.637872
1.706361
1.658261
1.59814
1.699266
1.68622
1.599889
1.623827
1.689738
1.643781
1.583915
1.682155
1.668962
1.58555
1.608989
1.672101
1.628594
2.028187
1.577462
1.690964
2.005061
1.571222
1.569327
1.664261
1.650855
1.570418
1.593886
1.652609
1.61408
1.484349
1.555668
1.512305
1.554837
1.646937
1.632896
1.55564
1.579127
1.634643
1.598813
1.340419
1.415029
1.388198
1.541511
1.630853
1.615484
1.542749
1.565331
1.618951
1.584087
1.156337
1.254248
1.169694
1.529584
1.616003
1.599053
1.531698
1.552622
1.604287
1.57048
1.103334
0.8938946
1.027458
0.9962751
0.8486612
1.519596
1.522534
1.541258
1.919538
1.801074
1.854834
2.056571
1.824763
1.817809
2.012836
1.561158
1.655882
2.006907
1.555836
0.9710307
0.8524734
1.004193
0.9759448
0.8422347
1.980322
1.826818
1.867605
2.010183
1.852868
1.847394
2.004217
1.549867
1.657382
2.001508
1.541876
0.9679997
0.8447941
1.000626
0.9651837
0.837477
2.057167
1.83963
1.865533
2.032182
1.861326
1.848972
2.002571
1.546228
1.653443
2.005101
1.538615
0.9626798
0.8370517
0.9965108
0.9568105
0.8308066
2.075999
1.848506
1.861897
2.106698
1.863681
1.860225
2.004476
1.544029
1.65397
2.007233
1.535321
0.9591192
0.8243502
1.002497
0.9540228
0.8241822
2.073415
1.861415
1.864435
2.091277
1.859786
1.855756
2.00665
1.545512
1.653345
2.00358
1.535345
0.9615598
0.8153866
0.9834221
0.9620141
0.823181
2.036511
1.862244
1.865056
2.080976
1.857291
1.8737
2.003812
1.541195
1.654974
2.000544
1.543673
0.9748983
0.8295732
0.9661096
0.9783172
0.8365411
2.022664
1.868378
1.853454
2.051666
1.846167
1.859249
1.999267
1.539268
1.655621
2.001406
1.545947
0.9832113
0.8400706
0.9782616
0.9868243
0.8420967
2.002849
1.860626
1.863219
1.983299
1.834028
1.851217
2.00516
1.548087
1.66522
2.005312
1.55298
0.9878248
0.8401933
1.014286
0.9821594
0.8551775
1.955961
1.854893
1.928853
2.121266
1.908601
2.004614
1.701424
1.75923
1.890716
1.725935
1.739162
2.076693
1.806968
1.824694
2.18328
1.743267
1.761954
2.086498
1.81302
1.761905
2.089838
1.814069
1.90481
2.076507
1.789332
1.707198
1.758786
1.92683
1.935561
1.680818
1.683478
1.926449
1.628371
1.726934
1.927477
1.63011
1.674942
1.643524
1.726921
1.674746
1.777483
1.814441
1.643557
1.795063
1.723564
1.75118
1.77986
1.687929
1.799288
1.813831
1.653018
1.735595
1.762603
1.707906
1.641268
1.764421
1.680502
1.728178
1.757693
1.67417
1.819609
1.685527
1.758966
1.735069
1.652312
1.772228
1.661463
1.760436
1.745113
1.636642
1.780346
1.650504
1.751311
1.763757
1.634042
1.79174
1.643018
1.691633
1.720579
1.641946
1.765781
1.638439
1.68861
1.712489
1.620702
1.734968
1.648948
1.703765
1.701055
1.614578
1.694556
1.99876
1.566347
1.697005
2.01704
1.55474
1.411212
1.413415
1.398344
1.221792
1.283366
1.181077
1.010204
0.8722633
1.163981
1.112223
0.9055746
1.806142
1.769151
1.991773
1.769721
1.889293
1.738951
2.002176
1.866256
1.974443
1.70058
1.939366
1.863751
1.950682
1.736059
1.893589
1.905186
1.901186
1.847175
1.906915
1.847188
1.865127
1.835515
1.875207
1.797101
1.899242
1.811914
1.85435
1.742036
1.878041
1.785145
1.821214
1.715018
1.855064
1.756558
1.802255
1.693013
1.843821
1.7345
1.79172
1.672838
1.832044
1.719859
1.859964
1.728587
1.729974
1.759133
1.744468
1.829721
1.808585
1.823068
1.738522
1.753494
1.7392
1.721979
1.78151
1.778332
1.808771
1.722095
1.743231
1.725488
1.705608
1.762584
1.768874
1.806623
1.715685
1.745494
1.715328
1.691748
1.76699
1.76777
1.797454
1.711762
1.739851
1.712408
1.691261
1.76007
1.760878
1.792104
1.705714
1.736525
1.705736
1.686164
1.756334
1.756928
1.786221
1.702008
1.732886
1.701562
1.683134
1.752017
1.752403
1.779748
1.695139
1.728177
1.695598
1.679045
1.746717
1.746996
1.771593
1.687879
1.721885
1.688582
1.673473
1.739755
1.739964
1.762007
1.679013
1.713895
1.679758
1.666031
1.731227
1.731271
1.751031
1.668823
1.70449
1.669605
1.657185
1.721283
1.721257
1.738499
1.657149
1.693557
1.657912
1.646716
1.709717
1.709911
1.724591
1.644163
1.681221
1.644859
1.634793
1.696728
1.697134
1.709311
1.629794
1.667329
1.630367
1.62144
1.682273
1.682844
1.871054
1.858286
1.89913
1.809147
1.851524
1.870902
1.915467
1.692831
1.614406
1.652249
1.614762
1.607015
1.666654
1.667331
1.675227
1.598585
1.636111
1.598523
1.592047
1.649947
1.650739
1.657928
1.58281
1.620446
1.582292
1.577206
1.633536
1.634623
1.64127
1.5683
1.606031
1.567562
1.563743
1.618161
1.619445
1.625756
1.555466
1.592973
1.554711
1.552217
1.603836
1.605727
1.611406
1.544431
1.58186
1.543711
1.542552
1.591521
1.593688
1.772958
1.718364
1.861312
1.873328
1.906086
1.827878
1.866732
1.875208
1.908059
1.124742
1.298984
1.124799
1.782817
1.719339
1.863036
1.880036
1.903949
1.822661
1.860386
1.879049
1.903955
1.125516
1.296782
1.123246
1.792228
1.740653
1.863734
1.882527
1.90568
1.827371
1.866926
1.881935
1.905535
1.1246
1.295271
1.121122
1.788882
1.731811
1.866938
1.883541
1.907147
1.825972
1.86743
1.883522
1.907071
1.126792
1.299384
1.12617
1.741673
1.777591
1.866805
1.883077
1.90665
1.825708
1.865994
1.882581
1.906223
1.136695
1.27802
1.25068
1.191909
1.727213
1.801777
1.865268
1.880399
1.904211
1.823278
1.861595
1.880564
1.903869
1.232837
1.209548
1.26278
1.2216
1.228779
1.730542
1.808327
1.858002
1.876025
1.901944
1.822321
1.860153
1.875741
1.901309
1.226531
1.229525
1.268516
1.239372
1.218619
1.742974
1.798955
1.863172
1.869609
1.905822
1.813532
1.857115
1.866244
1.901628
1.272454
1.215692
1.291244
1.149442
1.788974
1.807544
2.033571
1.772914
1.758751
2.042986
1.98186
1.75483
1.920345
1.969056
1.780571
1.714956
1.787573
1.874958
1.958812
1.771397
1.759894
1.719066
1.802079
1.920631
1.774476
1.788938
1.692549
1.792949
1.659496
1.72988
1.747122
1.640938
1.79653
1.693851
1.769547
1.748414
1.661325
1.751818
1.64955
1.656465
1.681327
1.600343
1.683386
1.703504
1.632413
1.707951
1.648318
1.644519
1.593973
1.684951
1.847564
1.863403
1.9099
1.814986
1.866684
1.849796
1.892747
1.615919
1.657405
1.641643
1.586012
1.659571
1.59851
1.637819
1.626681
1.568693
1.657815
1.495554
1.496529
1.503347
1.588183
1.614908
1.619266
1.546884
1.638905
1.6175
1.571621
1.595157
1.605602
1.532872
1.608308
1.559425
1.584124
1.587083
1.524615
1.596046
1.545922
1.55226
1.521043
1.793793
1.810582
1.913172
1.755377
1.919257
1.765777
1.863686
1.862254
1.800852
1.92567
1.700385
1.766861
1.907211
1.716222
2.018956
1.77521
1.990366
1.708159
1.993429
1.888639
1.923455
1.904271
1.914709
1.916974
1.889523
1.854826
1.906145
1.876576
1.879233
1.861712
1.910876
1.814286
1.908528
1.863564
1.907981
1.731342
1.880501
1.826984
1.879929
1.695219
1.855304
1.806579
1.858406
1.670476
1.842934
1.790474
1.844105
1.648064
1.825217
1.774194
1.82688
1.629252
1.847213
1.773701
1.773527
1.778553
1.8121
1.763357
1.799959
1.832832
1.749304
1.776905
1.772568
1.781428
1.757189
1.795822
1.798069
1.728102
1.758726
1.756472
1.759095
1.739087
1.766603
1.801036
1.733095
1.760947
1.760983
1.766628
1.739694
1.766268
1.7874
1.724203
1.75087
1.749282
1.754473
1.729937
1.756162
1.782617
1.722598
1.74863
1.748824
1.753083
1.728816
1.752467
1.774545
1.717658
1.742427
1.742621
1.746593
1.72349
1.746106
1.766938
1.712644
1.736328
1.736678
1.740388
1.718122
1.739726
1.755911
1.705164
1.727871
1.728158
1.731414
1.710155
1.730628
1.744211
1.695977
1.717928
1.718378
1.721226
1.700957
1.71941
1.731189
1.685472
1.706502
1.707083
1.709593
1.690222
1.70724
1.716173
1.673706
1.693747
1.694255
1.696347
1.677857
1.694675
1.700011
1.660561
1.679706
1.679967
1.681531
1.664159
1.680739
1.682587
1.645898
1.664342
1.664298
1.665299
1.649136
1.665183
1.6643
1.630242
1.648071
1.647482
1.647871
1.633157
1.648801
1.827088
1.715194
2.00995
1.670837
1.722977
1.354023
1.484468
1.446175
1.546598
1.82421
2.003976
1.652943
1.659532
1.87256
1.645132
1.613946
1.631462
1.629881
1.62942
1.61684
1.632145
1.521817
1.488874
1.447199
1.500772
1.462027
1.474495
1.499932
1.490146
1.626821
1.598175
1.615529
1.613337
1.611877
1.60147
1.615869
1.428589
1.44523
1.411187
1.404027
1.347941
1.320288
1.336194
1.380116
1.610246
1.583851
1.601049
1.598389
1.595871
1.58791
1.601102
1.224285
1.285272
1.260236
1.195324
1.122747
0.9715936
0.9408873
1.164082
1.59553
1.570736
1.588175
1.58505
1.581064
1.576247
1.588011
-0.1864523
0.9102615
-1.585185
0.7422707
-1.663995
-0.2600123
-0.2550693
0.7762828
-1.962878
0.7802859
-1.908879
-0.3057128
1.737662
1.777229
1.880481