/*--------------------------------*- C++ -*----------------------------------*\
  =========                 |
  \\      /  F ield         | OpenFOAM: The Open Source CFD Toolbox
   \\    /   O peration     | Website:  https://openfoam.org
    \\  /    A nd           | Version:  7
     \\/     M anipulation  |
\*---------------------------------------------------------------------------*/
FoamFile
{
    version     2.0;
    format      ascii;
    class       volScalarField;
    location    "0.08";
    object      p;
}
// * * * * * * * * * * * * * * * * * * * * * * * * * * * * * * * * * * * * * //

dimensions      [0 2 -2 0 0 0 0];

internalField   nonuniform List<scalar> 
109978
(
0.17529
0.2220072
0.2498193
0.2697806
0.2852062
0.2976244
0.1274216
0.1579773
0.1881891
0.2097235
0.2261646
0.2394291
0.1136189
0.1676799
0.2148204
0.2435489
0.2666346
0.2842602
0.09050355
0.1356398
0.1723564
0.198861
0.2204942
0.2374946
0.0808335
0.1339
0.17746
0.2062661
0.2301968
0.249044
0.06898059
0.11525
0.154755
0.1821682
0.2054724
0.2244158
0.06253918
0.1101666
0.1505163
0.1781342
0.2012476
0.2209515
0.05554768
0.1003826
0.1392863
0.1657084
0.1882749
0.2077569
0.05119681
0.09420613
0.1330244
0.1587671
0.1808425
0.2002005
0.04745712
0.08841463
0.1256347
0.1505428
0.1720821
0.1911846
0.04466423
0.08411728
0.1197049
0.143817
0.1648055
0.1837143
0.04237679
0.08036401
0.1141498
0.1374809
0.1579072
0.1765221
0.04048621
0.07718313
0.1092499
0.1318986
0.1517483
0.1699993
0.03888611
0.07430989
0.1046752
0.1269792
0.1462032
0.1639723
0.0373529
0.07157663
0.1005548
0.1227933
0.1413081
0.1585197
0.03573862
0.06891096
0.09752843
0.1193544
0.1370484
0.1535808
0.03433296
0.06633477
0.09768262
0.1164106
0.1332475
0.1490724
0.03326176
0.06425519
0.09505596
0.1133493
0.1296352
0.1448851
0.03232262
0.06237082
0.09250286
0.1103967
0.1261846
0.1409563
0.03140479
0.0605944
0.09006616
0.1076436
0.1229105
0.1372748
0.03050905
0.05895427
0.08776172
0.1050569
0.1198206
0.1338422
0.0296677
0.05745458
0.08559103
0.1026314
0.1169425
0.1306679
0.01498032
0.0560962
0.08357178
0.1003736
0.1143423
0.127794
0.4346947
0.3885878
0.3906083
0.3968841
0.4045737
0.4145075
0.08335948
0.2087924
0.2261642
0.2627701
0.2852104
0.3061949
0.04658049
0.1223634
0.1340215
0.1526434
0.1627771
0.1747505
0.02619051
0.1419063
0.1780091
0.2312596
0.2538822
0.280307
0.02340835
0.08883206
0.1152477
0.1469789
0.164409
0.1838981
0.01865908
0.09830146
0.1350799
0.1839009
0.2108737
0.2392941
0.01665306
0.07246126
0.1013521
0.1385947
0.1619467
0.1861592
0.01438698
0.07397826
0.1053032
0.1460297
0.1726426
0.1999579
0.01305921
0.06215029
0.0895911
0.1249594
0.1502604
0.1760079
0.01182047
0.0597501
0.08672349
0.1214055
0.146948
0.1730845
0.01111193
0.05418088
0.07892417
0.1112255
0.1357142
0.1610244
0.01062553
0.05121292
0.07463254
0.1056211
0.1294431
0.1542703
0.0102479
0.0479204
0.06980432
0.09929029
0.1222159
0.1463146
0.009961053
0.04536381
0.06598323
0.0942525
0.1163538
0.1397728
0.009723662
0.04311191
0.06247478
0.08975904
0.1107741
0.1335944
0.009472629
0.04136452
0.05937744
0.08589742
0.1056011
0.1280413
0.009227943
0.03958069
0.05653906
0.08252742
0.1007138
0.1229063
0.00899207
0.03769652
0.05387778
0.07873777
0.09626591
0.1180948
0.008749474
0.03611825
0.05159625
0.07583302
0.09239185
0.113769
0.008511581
0.03470363
0.04951187
0.07305949
0.08900943
0.1098261
0.008285711
0.03343851
0.04763869
0.07055079
0.0859997
0.1062099
0.00806224
0.03226769
0.04591993
0.06820745
0.08323338
0.1028526
0.007849855
0.03121193
0.04438206
0.06604186
0.08084358
0.09967775
0.01312497
0.03023458
0.04295409
0.06393194
0.07852193
0.09658514
0.4868792
0.3964379
0.384775
0.3771293
0.3752933
0.3852474
0.1436752
0.2151498
0.2142709
0.2680276
0.2832383
0.3138033
0.07251064
0.1348814
0.1449706
0.1623631
0.1724843
0.1813915
0.03366778
0.1414487
0.177113
0.2313547
0.2586967
0.2846355
0.02945363
0.0888826
0.1192326
0.1477138
0.1682582
0.1867925
0.02039686
0.09437703
0.1368047
0.1815804
0.2119639
0.2376885
0.01811168
0.0673023
0.1020047
0.1344096
0.1601158
0.1827172
0.01530319
0.06929667
0.1067181
0.1441186
0.1728764
0.1976626
0.01386051
0.05686226
0.08954757
0.1221098
0.1485263
0.1722167
0.01263292
0.05523459
0.08726609
0.1200869
0.1466473
0.170398
0.01171389
0.04958309
0.07900543
0.109447
0.1347668
0.1577771
0.01094264
0.04698289
0.07506349
0.1043612
0.1290207
0.1515649
0.01028679
0.04379349
0.07020199
0.09797583
0.1217217
0.1435995
0.009715982
0.04140161
0.06651833
0.09307557
0.1160676
0.1373592
0.009222289
0.03917125
0.06302526
0.0883899
0.1106752
0.1313299
0.008789118
0.03729008
0.0599713
0.0842431
0.105982
0.1260003
0.008391274
0.03557011
0.05718186
0.08048719
0.1017909
0.1211454
0.008015158
0.03396355
0.05463069
0.07710165
0.09803677
0.1167551
0.00766473
0.03251371
0.05237919
0.07399735
0.09457045
0.1126966
0.007341206
0.03120134
0.05034954
0.07119208
0.09133283
0.1089076
0.007043409
0.03001509
0.04850565
0.06865079
0.08831191
0.1053915
0.006768481
0.02892785
0.04681377
0.06631362
0.08550239
0.1021295
0.006513172
0.02793036
0.04526101
0.06415641
0.08286596
0.09914357
0.00628077
0.02699937
0.04382181
0.06213094
0.08035174
0.09643236
0.5092288
0.4031513
0.38259
0.3591365
0.3469814
0.3539217
0.1491923
0.2406581
0.2455275
0.2818973
0.3007194
0.3245527
0.07025304
0.1207289
0.1349868
0.148791
0.1580555
0.1691591
0.03100436
0.1507667
0.1891171
0.2486453
0.2748391
0.3019229
0.02353428
0.08230039
0.1098218
0.134847
0.1528481
0.1712022
0.01774185
0.1004227
0.1424114
0.192372
0.2213641
0.2496438
0.01479695
0.06634598
0.09813114
0.1303515
0.1539005
0.1773911
0.01320576
0.07270975
0.1088919
0.1485494
0.1762711
0.2030042
0.01159705
0.05778033
0.08871536
0.1215225
0.146752
0.1717097
0.01067375
0.05707985
0.08815417
0.1216134
0.1474103
0.1727671
0.009704589
0.05068625
0.07908586
0.1097622
0.1342461
0.1587198
0.00900499
0.04811009
0.07536195
0.1050342
0.1289729
0.1529955
0.008363819
0.04469627
0.07031624
0.09839458
0.121395
0.1446952
0.007832585
0.0422432
0.06663253
0.09352074
0.1157653
0.1384212
0.007365399
0.03991707
0.06309229
0.08880446
0.1102535
0.1322326
0.006958629
0.0379304
0.06003277
0.08471152
0.1054201
0.126764
0.00659526
0.03613401
0.05725864
0.08099272
0.100986
0.121716
0.006266172
0.03451042
0.05473977
0.0775727
0.09694356
0.1171009
0.005970586
0.03306738
0.05248594
0.0745377
0.09325514
0.1128698
0.005703741
0.03176005
0.05043997
0.07176089
0.08988113
0.1089711
0.005462469
0.03057496
0.04858372
0.06922957
0.08679575
0.1053762
0.00524344
0.0294874
0.04688228
0.06689269
0.083952
0.102044
0.005044935
0.02849306
0.04532586
0.06474537
0.08134733
0.09895887
0.004864194
0.02756905
0.04388362
0.06273281
0.07891604
0.09607486
0.5150749
0.3851395
0.3764391
0.3676815
0.3674995
0.3790457
0.1526186
0.2274299
0.241695
0.300893
0.3125759
0.3429515
0.08936517
0.1236467
0.1316149
0.1375097
0.1538708
0.1572572
0.03187973
0.1476824
0.1850229
0.24317
0.2772443
0.3001838
0.02276394
0.08096527
0.108808
0.1321103
0.1514391
0.1677429
0.01739509
0.09864314
0.1428133
0.1903275
0.222256
0.24896
0.01430807
0.06449192
0.097826
0.12814
0.152765
0.1751666
0.0128952
0.07139535
0.109765
0.1476546
0.1768343
0.2024746
0.01125654
0.05626356
0.08883219
0.1200088
0.1461425
0.1702237
0.01037622
0.05593248
0.0887393
0.1208074
0.1475625
0.1720568
0.009392773
0.04947482
0.07939243
0.1087253
0.1340366
0.1576908
0.008699096
0.0470462
0.07581594
0.1042425
0.1289997
0.1522411
0.008054192
0.04365422
0.07070385
0.09759182
0.1213773
0.1439223
0.007522973
0.04126421
0.06704359
0.09280326
0.1158053
0.1377495
0.007052771
0.03897334
0.0634911
0.08811502
0.1103076
0.1316033
0.006642974
0.03701925
0.06042944
0.08405468
0.105512
0.1261919
0.006279027
0.03525221
0.05764702
0.08035329
0.1011159
0.1211919
0.005953758
0.03366338
0.05513761
0.07699821
0.09713047
0.1166314
0.005662685
0.03223377
0.05287458
0.07395607
0.09348742
0.1124414
0.005400815
0.03093938
0.05082009
0.07118463
0.09014538
0.1085878
0.0051647
0.02976649
0.0489489
0.06866043
0.08706292
0.1050333
0.004950852
0.0286939
0.04723129
0.06634564
0.08422457
0.1017649
0.004757955
0.02771743
0.04564722
0.06423083
0.08156897
0.0987473
0.004579593
0.02681046
0.04418297
0.06226317
0.07913578
0.095977
0.5252777
0.3023905
0.3172351
0.3294998
0.3430084
0.3560302
0.1523648
0.2405216
0.2468799
0.3028024
0.3131483
0.3432062
0.09249572
0.1214814
0.1314337
0.1374413
0.1539258
0.1572945
0.03209517
0.1485954
0.1855477
0.2432816
0.2773121
0.3001824
0.02275142
0.08094938
0.1088827
0.1321609
0.1514758
0.1677598
0.01717824
0.09871072
0.1428554
0.1903507
0.2222695
0.2489672
0.0141325
0.06450751
0.09784116
0.1281521
0.1527731
0.1751714
0.012758
0.07140246
0.1097713
0.1476598
0.176838
0.2024777
0.01113456
0.05626635
0.08883523
0.1200113
0.1461446
0.170225
0.01026237
0.05593358
0.08874081
0.1208087
0.1475634
0.1720578
0.009282377
0.04947541
0.07939336
0.1087259
0.1340371
0.1576905
0.008593583
0.04704638
0.07581654
0.1042427
0.1289998
0.1522414
0.007951634
0.04365441
0.07070438
0.0975919
0.1213773
0.1439216
0.007423596
0.04126439
0.06704402
0.09280339
0.115805
0.1377493
0.006956728
0.03897379
0.06349173
0.08811519
0.1103074
0.131602
0.006550025
0.03701989
0.06043017
0.084055
0.1055113
0.1261903
0.006188227
0.03525341
0.05764832
0.08035369
0.1011152
0.1211884
0.005865066
0.03366508
0.05513938
0.07699824
0.09712963
0.1166251
0.005575973
0.03223626
0.05287722
0.073955
0.09348709
0.1124308
0.005315966
0.03094195
0.05082333
0.07117852
0.09014427
0.1085629
0.005081069
0.02976803
0.04895257
0.06864481
0.08706557
0.10499
0.004866483
0.0286918
0.04723603
0.06630916
0.08422388
0.1016736
0.004671294
0.02770392
0.04564915
0.06414811
0.08158299
0.09858334
0.004491145
0.02678615
0.04419356
0.06214162
0.07914561
0.0957057
0.5213308
0.2749739
0.2946446
0.3152589
0.3335643
0.3480155
0.1544217
0.2411812
0.2461026
0.2819577
0.3004862
0.3244917
0.09269553
0.1203086
0.1350885
0.1492245
0.1581766
0.1693248
0.03259881
0.1507506
0.1892489
0.2487246
0.2748763
0.3019531
0.02322925
0.08228464
0.1098679
0.1349158
0.1528915
0.1712328
0.01738458
0.1004214
0.1424392
0.192395
0.2213853
0.2496576
0.01443469
0.06635142
0.09814477
0.1303651
0.1539132
0.1773995
0.01296892
0.07271254
0.1088998
0.1485568
0.1762787
0.2030098
0.01131999
0.05778262
0.08871898
0.1215265
0.1467559
0.1717124
0.01041906
0.05708118
0.08815598
0.1216157
0.1474122
0.1727682
0.009435891
0.05068689
0.07908643
0.1097633
0.1342466
0.1587187
0.008736359
0.04811037
0.07536195
0.105035
0.1289731
0.1529957
0.008088602
0.04469645
0.07031591
0.09839531
0.1213956
0.1446963
0.007553445
0.04224333
0.06663228
0.09352152
0.115766
0.1384228
0.007081614
0.03991713
0.06309183
0.08880534
0.1102544
0.1322351
0.006670992
0.03793036
0.06003237
0.08471267
0.1054209
0.1267674
0.006306142
0.03613385
0.05725762
0.08099461
0.1009862
0.1217201
0.005978821
0.03451004
0.05473807
0.07757674
0.09694402
0.1171128
0.005686379
0.03306753
0.05248212
0.07454675
0.09325273
0.1128934
0.005422983
0.03176084
0.05043213
0.07177919
0.08987694
0.1090195
0.005184881
0.03058142
0.04856755
0.06927123
0.08676457
0.1054563
0.004967325
0.02949914
0.04685522
0.06696682
0.08391776
0.102194
0.004768044
0.02853339
0.04526825
0.06491466
0.08120072
0.0992178
0.004581347
0.02762589
0.04381533
0.06299393
0.07880779
0.09656848
0.4998214
0.2555414
0.2841567
0.3232949
0.3425636
0.3563159
0.1503216
0.2153554
0.2147619
0.2685473
0.2834981
0.3139583
0.09395561
0.1349113
0.1450732
0.1625003
0.1725712
0.1814369
0.03243735
0.1415586
0.1772034
0.231459
0.2587638
0.2846768
0.02385993
0.08890542
0.119285
0.1477649
0.1683023
0.1868216
0.01693154
0.09439728
0.1368315
0.1816098
0.2119893
0.2377068
0.01441666
0.06731092
0.102021
0.1344263
0.1601317
0.182729
0.01269709
0.06930204
0.1067278
0.1441283
0.1728859
0.1976712
0.01117821
0.05686488
0.08955367
0.122115
0.1485318
0.1722211
0.01020562
0.05523535
0.08726942
0.1200897
0.14665
0.1703988
0.009253447
0.04958281
0.07900686
0.109448
0.1347666
0.1577655
0.008545014
0.04698198
0.07506407
0.1043619
0.1290215
0.1515645
0.007898025
0.04379281
0.07020255
0.0979764
0.1217225
0.1436003
0.007359144
0.04140148
0.06651888
0.09307659
0.1160686
0.1373604
0.006890109
0.03917156
0.06302642
0.0883915
0.110676
0.1313313
0.006486139
0.03729099
0.05997263
0.08424553
0.105982
0.1260006
0.006130079
0.03557182
0.05718392
0.08049015
0.1017889
0.1211357
0.00580855
0.03396579
0.05463221
0.07710435
0.09803446
0.1167432
0.005520184
0.03251703
0.05238019
0.07399864
0.09456962
0.1126908
0.005261063
0.03120405
0.05034821
0.07118707
0.09132985
0.1088925
0.005028052
0.03001527
0.04849812
0.0686312
0.08829876
0.1053459
0.004816502
0.02892243
0.04680116
0.06627177
0.08546478
0.1019977
0.004621482
0.02790604
0.04521772
0.06405196
0.08277598
0.09885863
0.004441633
0.026963
0.04378082
0.06201663
0.08022017
0.09595054
0.439502
0.2512456
0.2764033
0.3003605
0.3186479
0.3334008
0.1135717
0.2089062
0.2262956
0.2629106
0.2853292
0.3062883
0.06445192
0.1224257
0.1341214
0.15275
0.1628586
0.1748084
0.0271325
0.1419301
0.1780688
0.2313168
0.2539246
0.2803375
0.02101522
0.08885864
0.1152952
0.1470266
0.1644491
0.1839259
0.01521358
0.09831261
0.1351059
0.1839268
0.2108993
0.2393116
0.01279693
0.07246963
0.1013686
0.1386116
0.1619625
0.1861695
0.01112007
0.07398383
0.1053112
0.1460404
0.1726526
0.199964
0.009561009
0.06215433
0.08959446
0.124966
0.1502666
0.1760123
0.008615354
0.05975303
0.08672475
0.1214099
0.1469524
0.1730896
0.007783459
0.05418285
0.07892325
0.1112285
0.1357188
0.1610397
0.007213733
0.05121349
0.07463078
0.1056227
0.1294451
0.1542746
0.006721434
0.04792117
0.06980165
0.09929137
0.1222177
0.1463178
0.00633956
0.04536371
0.06598128
0.09425301
0.1163555
0.139776
0.006027815
0.04311189
0.06247308
0.08975914
0.1107774
0.1335987
0.005760118
0.04136432
0.05937606
0.08589842
0.1056065
0.1280495
0.005516066
0.03958089
0.05653684
0.08253102
0.1007215
0.1229282
0.005283983
0.03769764
0.0538742
0.07874376
0.09627211
0.118126
0.005070107
0.03612005
0.0515899
0.07584652
0.09238645
0.1138046
0.004876692
0.03470648
0.04949851
0.07308491
0.08899567
0.1098929
0.004704761
0.03345197
0.04761366
0.07061625
0.08593939
0.1063408
0.004546624
0.03228921
0.04587686
0.06832575
0.08317416
0.1031647
0.00440552
0.03128468
0.04427764
0.06633268
0.08049708
0.1002307
0.01312008
0.03033694
0.04282622
0.06449993
0.07827125
0.0979025
0.2338738
0.2627127
0.2875998
0.3060723
0.3192069
0.3309628
0.01956992
0.1632162
0.2130844
0.2483625
0.2725871
0.2904662
0.3044173
0.01087999
0.1229874
0.1649093
0.1962969
0.2215138
0.2374521
0.250205
0.007936324
0.1097619
0.1623693
0.2054723
0.2379632
0.2635732
0.2825109
0.005328473
0.08870605
0.1388007
0.1779561
0.2056069
0.2278537
0.2454717
0.005179533
0.07993236
0.131163
0.1740082
0.2043443
0.2288364
0.2482801
0.004359339
0.06975069
0.1160509
0.1564102
0.1859383
0.20919
0.2285279
0.00374473
0.06301353
0.1086751
0.150631
0.1795584
0.2025757
0.2226704
0.003172809
0.05546039
0.09876436
0.1405925
0.1685162
0.1906687
0.2106117
0.002923751
0.05129252
0.09221328
0.1340214
0.1614044
0.1830344
0.2029191
0.002682365
0.04751685
0.08642014
0.1267651
0.1534698
0.174505
0.1941501
0.002519785
0.04484351
0.08221771
0.1209204
0.146783
0.1673168
0.1867598
0.002400619
0.04258454
0.07852867
0.115406
0.1404877
0.1605103
0.1796254
0.002284626
0.04067998
0.07543688
0.1105579
0.1349342
0.1544184
0.1731466
0.002172963
0.0389557
0.07266384
0.1060296
0.1300975
0.148934
0.1671396
0.002107465
0.03733263
0.07004878
0.1017625
0.1260324
0.1441189
0.1616889
0.002079937
0.03581037
0.06756012
0.09822522
0.1226626
0.1399504
0.1567439
0.002037401
0.03444869
0.06518073
0.09613367
0.1197925
0.1362195
0.1522241
0.001984209
0.03329223
0.06330501
0.09343409
0.1164798
0.1325805
0.1480212
0.001929602
0.0322293
0.06157918
0.09082505
0.1132266
0.129055
0.1440698
0.001875998
0.03124456
0.05995259
0.08838927
0.1102231
0.1256906
0.1403509
0.001823445
0.03032087
0.05844257
0.08608916
0.1074264
0.1224905
0.1368621
0.001773659
0.02946601
0.05702847
0.08388019
0.104695
0.1193451
0.1335553
0.001730013
0.03781293
0.05570371
0.08173148
0.1018145
0.1159594
0.1304116
0.1353866
0.1600595
0.01999906
0.1331785
0.147725
0.1987892
0.2340683
0.1994453
0.1588322
0.182572
0.2055871
0.231392
0.2625821
0.2376706
0.2097634
0.2188249
0.2450593
0.2564672
0.2874303
0.2608257
0.2493092
0.2427999
0.2725374
0.2745792
0.3059216
0.2766971
0.2781363
0.2602446
0.2919044
0.2895711
0.3190949
0.29088
0.2968827
0.2756885
0.307293
0.3308782
0.3114687
0.1172384
0.133903
0.0195816
0.1010664
0.01415092
0.0899529
0.13342
0.1502478
0.01087051
0.07052914
0.008395674
0.06544495
0.1141486
0.1056665
0.007933934
0.05862274
0.006364036
0.04957439
0.09503517
0.0922235
0.005325632
0.04658723
0.005018518
0.04025688
0.07957117
0.07811814
0.005176863
0.04134379
0.00466805
0.03476776
0.06760083
0.06897847
0.004356917
0.03533293
0.003916678
0.02961299
0.05756229
0.06164791
0.003744379
0.03271398
0.003618335
0.02650971
0.05012621
0.05554404
0.003170739
0.02950563
0.003348399
0.0236372
0.04420447
0.05030166
0.002924978
0.02745444
0.003181236
0.0216942
0.03957837
0.04578471
0.002681959
0.02542539
0.003037152
0.02000331
0.03572929
0.04185064
0.002521882
0.02382476
0.00290899
0.01874497
0.03247006
0.03855845
0.002401834
0.02243244
0.002748741
0.01767514
0.02971552
0.03587223
0.002285072
0.02117735
0.002539178
0.01661732
0.02740226
0.03358018
0.002172796
0.01999077
0.002372937
0.01566631
0.02533393
0.03144885
0.002107505
0.01891556
0.002319861
0.01489292
0.023298
0.02947032
0.002079835
0.01805466
0.00224603
0.01419459
0.02144961
0.02773081
0.002037323
0.01724745
0.002166793
0.01353643
0.01995243
0.02617781
0.0019841
0.01636999
0.002090425
0.01293645
0.0186303
0.02465791
0.001929618
0.0155653
0.002018655
0.01243768
0.01733366
0.02311324
0.001876289
0.01487906
0.001951637
0.01204263
0.01602737
0.02193938
0.001823241
0.01425468
0.001878918
0.01144371
0.0148931
0.02083018
0.001774527
0.01376146
0.001813228
0.01093939
0.01383106
0.009098976
0.001732431
0.01331743
0.001749882
0.01051614
0.2848714
0.0198792
0.148161
0.6412953
0.01772799
0.1712734
0.2547332
0.02434671
0.1747352
0.6708082
0.02342748
0.1896018
0.2634853
0.02919032
0.1952762
0.6516143
0.02642464
0.2026015
0.2658424
0.02997004
0.199659
0.3184036
0.02452905
0.2401446
0.5785577
0.02677405
0.2033868
0.2679185
0.03000737
0.204212
0.6665369
0.02648397
0.2000568
0.2627169
0.02888816
0.1956743
0.671343
0.02344665
0.1899632
0.2545383
0.02468627
0.1745757
0.6409729
0.01763178
0.1711066
0.2843255
0.01988756
0.1479741
0.1596845
0.01993297
0.133239
0.1354878
0.1995356
0.1588864
0.1826697
0.1478241
0.1988968
0.2378331
0.2099111
0.2189909
0.2057031
0.2315386
0.2609753
0.2494682
0.2429542
0.2452184
0.2566321
0.2768119
0.2782913
0.2603931
0.2726747
0.2747005
0.2909631
0.2970037
0.2758018
0.2920297
0.289676
0.04659978
0.005019261
0.04026844
0.09504772
0.09220807
0.03534133
0.003915408
0.02961694
0.0676059
0.0689786
0.03272147
0.003615943
0.02650962
0.05755387
0.06165563
0.02950997
0.003348829
0.0236374
0.05011379
0.05553827
0.02745751
0.003179631
0.02169622
0.04420081
0.05028658
0.02542401
0.003036567
0.02000013
0.03958131
0.04577574
0.02117543
0.002539182
0.01661596
0.0296967
0.03587162
0.01998916
0.002372367
0.01566599
0.02740342
0.03358185
0.01891451
0.002319673
0.01489319
0.02533644
0.03144999
0.01805606
0.002246531
0.01419614
0.02330065
0.02946443
0.01636773
0.00209024
0.01293603
0.01994895
0.0261733
0.01556201
0.002018775
0.01243776
0.01863238
0.02465225
0.01425181
0.001878284
0.0114393
0.01601963
0.02191947
0.01374799
0.001811794
0.01092952
0.01487549
0.02081072
0.01328134
0.00174788
0.01049039
0.01382342
0.009100178
-0.02085127
0.06344463
0.1671407
0.1466981
0.1562598
0.1722843
0.2159799
0.2120756
0.2138152
0.2211721
0.2475775
0.2465666
0.2500989
0.2513355
0.2672857
0.2688975
0.2729909
0.2714688
0.2821093
0.2852782
0.2897445
0.2865968
0.2948346
0.2990744
0.3037173
0.299407
0.05367601
0.1024101
0.05453544
0.153478
0.03556818
0.125571
0.04848532
0.1522787
0.03443287
0.1153831
0.03998194
0.1284259
0.0268332
0.09916787
0.03360242
0.1163393
0.02396067
0.08770338
0.02943805
0.1038601
0.01865515
0.07723617
0.02465428
0.09370316
0.01310698
0.06598059
0.02030968
0.08160466
0.0100862
0.0620697
0.01670419
0.07365543
0.008697291
0.06806756
0.0135974
0.06851651
0.007673769
0.07078795
0.01125247
0.06401988
0.006875745
0.06820037
0.01015197
0.05982433
0.006367155
0.06303286
0.00956046
0.05637263
0.006071727
0.05820032
0.009017623
0.05357767
0.005767623
0.05440588
0.008484629
0.05162299
0.005480955
0.05108459
0.008084248
0.04932358
0.00513772
0.04791163
0.007742216
0.04671335
0.004796949
0.04537069
0.007397999
0.04439649
0.004494357
0.04326362
0.007092099
0.0422599
0.004281647
0.0412284
0.006880088
0.04028742
0.004112263
0.03946246
0.006691327
0.03805504
0.00395712
0.03832472
0.006538473
0.03600071
0.003841065
0.03624582
0.006576403
0.03410955
0.003748962
0.03351458
0.006710956
0.03265544
0.01460371
0.01736747
0.0007955872
-0.005940386
0.007430489
0.007768104
0.005322315
0.01544878
0.01361122
-0.0009409395
0.009177809
0.009339506
0.001464877
0.0032324
-0.01548779
0.0009765785
0.02516067
0.01929079
0.3115643
0.3073833
0.1010534
0.01415973
0.08996668
0.1172786
0.1339382
0.07062016
0.008398185
0.06548549
0.1334641
0.1502717
0.05865522
0.006366542
0.04959345
0.1141921
0.1056684
0.04135866
0.004665394
0.03477534
0.07957202
0.07811792
0.02382399
0.002907022
0.01873881
0.03572284
0.04183258
0.0224293
0.002746928
0.01767052
0.03246566
0.03853618
0.01725903
0.002166628
0.01353825
0.02144144
0.02771663
0.01488035
0.001951689
0.01204959
0.01733419
0.02308752
0.1086096
0.1248021
0.09306869
0.0798305
0.0476062
0.08841285
0.03584314
0.06589786
0.02571161
0.02052863
0.1866466
0.1987706
0.1919265
0.1870866
0.235353
0.2336068
0.2275431
0.2311494
0.2641307
0.257774
0.2518843
0.2603858
0.2830952
0.2750058
0.2687089
0.2803134
0.2975922
0.2890532
0.28227
0.2951602
0.05344843
0.1578962
0.04187524
0.14321
0.04185919
0.1379287
0.03410926
0.1262588
0.03591729
0.1226342
0.03204959
0.1094132
0.02955053
0.1086143
0.02498731
0.09696806
0.02563348
0.09759522
0.02162876
0.08706481
0.0214885
0.0832457
0.01750694
0.07741393
0.01764306
0.07603431
0.01257007
0.06773073
0.0152033
0.07487156
0.009619063
0.0600634
0.01362687
0.07294295
0.00801589
0.0557706
0.01232638
0.06770957
0.007160475
0.05182851
0.01138662
0.06100985
0.006665669
0.04838919
0.01059693
0.05457291
0.006448859
0.04571693
0.009836599
0.04970893
0.006130324
0.044203
0.009029249
0.04605176
0.005841869
0.0441538
0.008472432
0.04259801
0.005657645
0.04356713
0.008039136
0.0400033
0.005407876
0.0419477
0.007604459
0.03790694
0.005128997
0.04071385
0.007253032
0.03621451
0.004860254
0.03936325
0.006998569
0.03492992
0.004600677
0.03817692
0.00689735
0.03384336
0.004411551
0.03626802
0.006772697
0.03266492
0.004308882
0.03446031
0.006604865
0.03032919
0.004343157
0.03269884
0.00651652
0.00369175
0.03091514
0.004358503
-0.01391247
0.00142591
-0.004279839
0.003571002
0.016082
0.007459815
-0.008325816
-0.004594263
0.0060416
0.01434361
0.006129788
0.003045506
-0.0006843966
-0.006142226
0.01131912
0.01639316
-0.02141545
0.06374509
0.1867903
0.1988534
0.1920399
0.1872325
0.2161155
0.2121786
0.2139684
0.2213111
0.02685642
0.09919178
0.03359409
0.1162937
0.0185931
0.07727246
0.02463585
0.09362396
0.02147747
0.08324607
0.01746478
0.0773772
0.01310478
0.06598416
0.02030271
0.08145781
0.01232308
0.06764447
0.007146541
0.05178936
0.006060795
0.0580934
0.009007553
0.05358372
0.00983054
0.04976155
0.006123039
0.04420211
0.005765619
0.05443512
0.008483922
0.05163068
0.009028738
0.0460921
0.005837628
0.04415453
0.005480593
0.05110616
0.008084307
0.04932897
0.008473667
0.04261345
0.00565734
0.04357089
0.005137466
0.04792168
0.007742356
0.04673583
0.00803532
0.03997716
0.005408609
0.04198837
0.004496996
0.04321463
0.007091355
0.04224926
0.00725585
0.03622079
0.004861676
0.03934293
0.004282909
0.04123452
0.006880946
0.04029409
0.006998616
0.03488761
0.004604161
0.03817348
0.003950942
0.03808282
0.006537247
0.0360247
0.006763154
0.03273311
0.004301862
0.03454572
0.003840066
0.03628957
0.006574099
0.03414832
0.006603724
0.03044274
0.004326191
0.03276925
0.003748997
0.03359454
0.006708837
0.03269069
0.006513844
-0.003699409
0.03102412
0.004350615
0.1090274
0.1530283
0.1666883
0.1542209
0.1563914
0.1642385
0.2264359
0.2248949
0.2232425
0.2258154
0.259674
0.2601373
0.2578166
0.2590668
0.2816546
0.2827201
0.2805171
0.2801885
0.2975865
0.2990769
0.2968687
0.2958891
0.310723
0.3125924
0.3103837
0.3090331
0.168072
0.173953
0.1574313
0.1261488
0.1561054
0.1613893
0.1571383
0.1641887
0.1401771
0.1577297
0.16116
0.1672197
0.1582855
0.1644619
0.1613557
0.1571507
0.1614424
0.1697997
0.1200313
0.134197
0.1356538
0.1192127
0.1733318
0.17422
0.2091264
0.2118029
0.2124384
0.2124923
0.2481522
0.246738
0.2479461
0.2524878
0.273299
0.2703805
0.2717305
0.277789
0.2903871
0.2869464
0.2882812
0.294995
0.3040785
0.3004706
0.3017479
0.3088281
0.1592289
0.1622439
0.1594903
0.1638519
0.1544569
0.1668661
0.1456918
0.1564729
0.1599947
0.1487879
0.1408633
0.1494159
0.1234977
0.143915
0.1642906
0.1713054
0.1079811
0.1531481
0.109129
0.1248972
0.09305138
0.08014642
0.04790861
0.08854958
0.03588113
0.06612797
0.167227
0.1468164
0.1563525
0.1724636
0.2265854
0.2250441
0.2259629
0.2233825
0.2355012
0.2337052
0.2276284
0.231276
0.2477189
0.2467329
0.2502748
0.2514454
0.2644227
0.2578078
0.251943
0.2605682
0.2673624
0.2689797
0.2731857
0.2715627
0.2821821
0.2853722
0.2898606
0.2866488
0.2978299
0.289066
0.2822902
0.2952948
0.02955138
0.1085577
0.0249639
0.09695015
0.004929117
0.01395336
0.005925918
0.007885831
0.005049158
0.01418297
0.01606749
0.006925189
0.0175949
0.07596775
0.01245528
0.06753814
0.01006907
0.06194833
0.0167151
0.07365773
0.01520002
0.0748203
0.009613325
0.06005699
0.008703557
0.06795233
0.01359296
0.06847167
0.01359555
0.0728639
0.007988756
0.05554754
0.007650748
0.07067476
0.01121161
0.06395083
0.003606366
0.01339365
0.004736092
0.009122254
0.003493993
0.01210399
0.00375024
0.01029384
0.003716052
0.01315222
0.01223255
0.003663558
0.00266638
0.00996343
0.008970812
0.002593848
-0.03621899
0.07631998
0.06781194
-0.03155196
0.09116865
0.06435548
0.06010239
0.08279732
0.1576572
0.1365156
0.1791578
0.1833127
0.1859216
0.1777157
0.2335958
0.2333959
0.2348221
0.2367093
0.2645431
0.2628264
0.2642724
0.2684904
0.2851779
0.2822726
0.2838019
0.2889205
0.3004716
0.2969871
0.2985177
0.3041825
0.3133647
0.3096319
0.3111232
0.317002
0.1742818
0.1586339
0.1601371
0.1563948
0.1667482
0.1674919
0.1587938
0.1647028
0.1639656
0.1657371
0.152542
0.1529628
0.1504938
0.1483678
0.1313719
0.1430337
0.1794279
0.1627816
0.2991078
0.3037942
0.2948583
0.1025105
0.05456371
0.1535036
0.05374398
0.1579605
0.1432769
0.0534644
0.04188738
0.1256202
0.1523209
0.03558933
0.04850503
0.1379092
0.1262835
0.04186807
0.03413312
0.1153685
0.1283757
0.03445779
0.03999528
0.1226114
0.03203369
0.1094329
0.03591772
0.08771129
0.02942775
0.1037433
0.02396012
0.09751966
0.02156021
0.08698478
0.02559754
0.06816502
0.0101258
0.059803
0.006856506
0.06295386
0.05635214
0.00632923
0.009496695
0.04534552
0.007402433
0.04434869
0.004809036
0.0394436
0.006692209
0.0380808
0.004122382
0.03365432
0.004396286
0.03631389
0.006890959
0.1076648
0.08415846
0.08385519
0.106319
0.17889
0.1539322
0.2001925
0.1958108
0.1966527
0.1986537
0.2437474
0.2450053
0.2428053
0.2433022
0.2707628
0.273061
0.2707733
0.2695692
0.2889058
0.2918426
0.2894257
0.287297
0.3028641
0.3063518
0.3037356
0.3013419
0.1501918
0.1315459
0.1359352
0.1302458
0.1598319
0.1549675
0.1407791
0.1500986
0.1510811
0.1668137
0.1630365
0.1668132
0.1575409
0.1634478
0.1764264
0.1590178
0.1578986
0.1393906
-0.03524612
0.07677185
-0.03081448
0.06867292
0.09113639
0.0647157
0.08283198
0.06053957
0.2337673
0.2335483
0.2368657
0.2349891
0.005612809
0.01370331
0.01031331
0.004603231
0.003022288
0.01387635
0.004794482
0.01381985
0.004082902
0.01292143
0.01101463
0.003689549
0.003345014
0.01258768
0.003902487
0.01214282
0.001689211
0.01295584
0.001692272
0.0129351
0.01288836
0.01294245
0.003559572
0.006516217
-0.004807818
0.006520525
0.002559062
0.01002606
0.009705579
0.00252712
0.03074575
0.0489203
0.03858691
0.0510433
0.01113063
0.02233769
0.01891519
0.02665394
0.006220195
0.01549062
0.01256788
0.01861997
0.005243036
0.01393372
0.01035943
0.01572932
0.004581171
0.01318352
0.00911413
0.01429013
0.004458302
0.01362799
0.007997931
0.01481417
0.00505369
0.01418288
0.006924861
0.01607335
0.004747415
0.01454853
0.005967171
0.0152647
0.004307153
0.01501909
0.005084425
0.01483794
0.00409965
0.01527861
0.004639055
0.01447625
0.003953803
0.01489474
0.004314271
0.01411847
0.003863796
0.0143727
0.004089423
0.01378178
0.003847036
0.0140355
0.003970889
0.01347965
0.003865714
0.01378594
0.003898468
0.0131724
0.003833124
0.01349198
0.003795915
0.0126772
0.003715916
0.0131502
0.003663639
0.01223216
0.003573786
0.0128021
0.003522339
0.01192121
0.003446763
0.01246517
0.003399876
0.01169119
0.003323232
0.01211782
0.003275691
0.01140246
0.003185586
0.01175791
0.003144437
0.01109752
0.003039007
0.01138953
0.003004969
0.01080439
0.002884099
0.0109763
0.002861346
0.01045611
0.002714959
0.01049272
0.002691578
0.01008925
0.03272768
0.05331069
0.03402212
0.03798599
0.0116554
0.02629352
0.01375475
0.01757684
0.006274
0.01679615
0.005807191
0.01064856
0.006234462
0.01409817
0.005098606
0.009394826
0.005808618
0.01267461
0.004990103
0.008365782
0.005332885
0.01241507
0.005220846
0.008044816
0.004932485
0.01395096
0.00592462
0.007883347
0.004283276
0.01446649
0.005813669
0.008129137
0.003957048
0.01419366
0.005376123
0.008481359
0.00379258
0.01400373
0.005062573
0.00885173
0.003607757
0.01340336
0.004737969
0.009107869
0.003514705
0.01285553
0.004436217
0.009539567
0.003477438
0.01263156
0.004220133
0.009881765
0.003477538
0.01259547
0.004083255
0.01016564
0.003481485
0.0124797
0.003905196
0.01014919
0.003493286
0.01210097
0.003750496
0.01029073
0.003448168
0.01187424
0.003587979
0.01026129
0.003374214
0.01171038
0.003450598
0.01017613
0.00328484
0.01151799
0.003315469
0.01007718
0.003185699
0.01130737
0.003179877
0.009924141
0.003073504
0.01105977
0.003043871
0.00974946
0.002956371