/*--------------------------------*- C++ -*----------------------------------*\
  =========                 |
  \\      /  F ield         | OpenFOAM: The Open Source CFD Toolbox
   \\    /   O peration     | Website:  https://openfoam.org
    \\  /    A nd           | Version:  7
     \\/     M anipulation  |
\*---------------------------------------------------------------------------*/
FoamFile
{
    version     2.0;
    format      ascii;
    class       volVectorField;
    location    "0.08";
    object      U;
}
// * * * * * * * * * * * * * * * * * * * * * * * * * * * * * * * * * * * * * //

dimensions      [0 1 -1 0 0 0 0];

internalField   nonuniform List<vector> 
76598
(
(-0.1217373 -0.004701334 0.0001211859)
(-0.1195977 -0.002433794 -0.001151945)
(-0.1063167 -0.002715346 -0.0008542647)
(-0.08824289 -0.002837887 -0.000826064)
(-0.06691464 -0.002591209 -0.0006904243)
(-0.04630741 -0.001966643 -0.0004586111)
(-0.03023591 -0.001313573 -0.0002743024)
(-0.01938653 -0.0008728896 -0.0001644411)
(-0.1149669 -0.0115429 -0.003538287)
(-0.1019993 -0.0186522 -0.0001058891)
(-0.08770264 -0.02551258 -0.0006496479)
(-0.06719434 -0.02922743 -0.001264684)
(-0.04559034 -0.0280505 -0.001138856)
(-0.0297414 -0.02123114 -0.001104755)
(-0.01869692 -0.01484958 -0.0005531861)
(-0.01123146 -0.009719758 -0.0003345848)
(-0.1262298 -0.01891167 -0.004604861)
(-0.112202 -0.03238259 -0.001536415)
(-0.09455305 -0.04172157 -0.0003925348)
(-0.07053441 -0.04977517 -0.0008183456)
(-0.04195697 -0.04370769 -9.159694e-05)
(-0.02107715 -0.03110936 0.0002998684)
(-0.01087481 -0.02241645 -0.0003855425)
(-0.005973684 -0.01414182 -0.0001482014)
(-0.142152 -0.02877503 -0.006827992)
(-0.1262684 -0.04762954 -0.000545943)
(-0.1064997 -0.06613912 0.001026138)
(-0.0733432 -0.07952491 0.003464691)
(-0.03045537 -0.07753622 0.003033389)
(-0.006395687 -0.05333925 0.00184842)
(-0.000792388 -0.02924493 0.0006941797)
(0.002114259 -0.01707862 -7.355705e-05)
(-0.1650926 -0.03714214 -0.007508955)
(-0.1492944 -0.0682575 -0.0004533154)
(-0.1269969 -0.09397989 0.004794452)
(-0.09022706 -0.1281595 0.006310193)
(-0.02029129 -0.1026412 0.005864439)
(0.023335 -0.05876908 0.004231225)
(0.02052928 -0.03068947 0.001371414)
(0.01244383 -0.01618595 0.0007501093)
(-0.1975188 -0.04567487 -0.008427631)
(-0.1821389 -0.08441129 0.0007448273)
(-0.1837209 -0.1277576 0.005360465)
(-0.1219546 -0.1547733 0.01392626)
(-0.02268623 -0.2234242 0.006479495)
(0.08316321 -0.08276311 0.006399339)
(0.04235451 -0.01933813 0.0004134327)
(0.02284656 -0.01022033 0.000447222)
(-0.2349703 -0.04798448 -0.009696702)
(-0.2293622 -0.08329031 8.66718e-05)
(-0.2491416 -0.1335032 0.004231114)
(-0.2089456 -0.1973017 0.007341543)
(-0.2434277 -0.3501858 -0.007117394)
(-0.2669756 -0.04188145 -0.01138413)
(-0.268364 -0.07057321 -0.0001053087)
(-0.292916 -0.1091431 0.003365306)
(-0.3167938 -0.1337111 0.000229214)
(-0.3981718 -0.1447747 -0.00586411)
(-0.4377874 -0.08737727 -0.003170093)
(-0.4109652 -0.04594924 -0.003211101)
(-0.4014912 -0.02936791 -0.002088275)
(-0.2926823 -0.035448 -0.01070983)
(-0.2947509 -0.0582922 -0.00097552)
(-0.3147667 -0.08399469 0.0004621017)
(-0.3372403 -0.09697247 0.0004872685)
(-0.3758736 -0.1045478 -0.001075212)
(-0.4019109 -0.06467878 -0.0008776782)
(-0.4012188 -0.04815618 0.0001946446)
(-0.3958767 -0.03477098 0.0001884456)
(-0.3129595 -0.02983517 -0.01339628)
(-0.3153404 -0.04785406 -0.001559587)
(-0.3312915 -0.06609267 0.0001672719)
(-0.3476345 -0.07425589 0.000104441)
(-0.3708819 -0.07746769 0.0001546213)
(-0.3834597 -0.06296023 0.0004235903)
(-0.3847251 -0.05305131 0.000476219)
(-0.3833835 -0.04072001 0.0003651327)
(-0.3305742 -0.02431542 -0.01183961)
(-0.3299085 -0.03861724 -0.001641539)
(-0.3428218 -0.05200543 0.0003925605)
(-0.3515309 -0.05920464 7.046683e-05)
(-0.3661064 -0.06501342 0.0002705302)
(-0.3751163 -0.05382617 8.198794e-05)
(-0.3777483 -0.0485042 0.000203503)
(-0.3781581 -0.04234145 0.0005393485)
(-0.3431118 -0.02108197 -0.01442823)
(-0.3422392 -0.03319154 -0.001658394)
(-0.3513156 -0.04429251 0.0003593099)
(-0.3567025 -0.05043336 0.0001792971)
(-0.3668369 -0.05476402 0.000148008)
(-0.3717261 -0.05187047 0.0001963801)
(-0.373125 -0.04996154 0.0002729549)
(-0.3722922 -0.0449454 9.312184e-05)
(-0.3560932 -0.01799797 -0.01301937)
(-0.3524346 -0.02862173 -0.001815885)
(-0.3596518 -0.03833772 0.0003434951)
(-0.3617094 -0.04414798 0.0002248989)
(-0.3680183 -0.04920845 0.0002604782)
(-0.3703684 -0.04853577 0.000155215)
(-0.3714595 -0.04825628 0.0001263179)
(-0.3702369 -0.04646752 0.000110289)
(-0.3656589 -0.01654075 -0.01469884)
(-0.3615071 -0.02639702 -0.001595744)
(-0.3669616 -0.03545657 0.0004593828)
(-0.3672747 -0.04163935 0.000266347)
(-0.3709886 -0.04639288 0.0002487715)
(-0.3713859 -0.04849436 0.0001267137)
(-0.371052 -0.04981615 8.113581e-05)
(-0.3689057 -0.04937913 4.885175e-05)
(-0.3762018 -0.01543794 -0.01404161)
(-0.3702665 -0.02491226 -0.00185974)
(-0.3743629 -0.03363314 0.0004557776)
(-0.3734366 -0.04013245 0.000277704)
(-0.374882 -0.04557873 0.0002507049)
(-0.373731 -0.04877329 9.844934e-05)
(-0.372353 -0.05110665 9.119268e-05)
(-0.3693345 -0.0522655 3.023055e-05)
(-0.3858079 -0.01534615 -0.01430816)
(-0.3788546 -0.02485041 -0.001902083)
(-0.3818431 -0.03354807 0.0004572279)
(-0.3792124 -0.04059021 0.000325885)
(-0.3797099 -0.04637987 0.0002675163)
(-0.3769237 -0.05084031 9.967058e-05)
(-0.3746557 -0.05416663 7.763269e-05)
(-0.3705918 -0.05622852 2.846353e-05)
(-0.3955241 -0.01572241 -0.01454398)
(-0.3877417 -0.02552116 -0.001949342)
(-0.3896721 -0.0344383 0.0004731172)
(-0.3864016 -0.04202313 0.0003351075)
(-0.3849981 -0.04858566 0.000300415)
(-0.3813884 -0.05375948 0.0001041174)
(-0.3777421 -0.05778813 8.41199e-05)
(-0.372878 -0.06081506 3.396558e-05)
(-0.4054515 -0.01662007 -0.01509437)
(-0.3971873 -0.02704228 -0.001969725)
(-0.3981074 -0.03638016 0.000451629)
(-0.3935285 -0.0447688 0.0003976722)
(-0.3914642 -0.05192134 0.0002791094)
(-0.3864738 -0.05795764 0.0001002222)
(-0.3817123 -0.06277226 8.208344e-05)
(-0.3757768 -0.06639614 3.327383e-05)
(-0.4161485 -0.01790771 -0.01553562)
(-0.4072712 -0.02921602 -0.001986194)
(-0.4072717 -0.03932226 0.000461594)
(-0.4018137 -0.04845589 0.0003929763)
(-0.3983516 -0.05645143 0.0003057128)
(-0.3922013 -0.063252 0.0001030814)
(-0.3862497 -0.06871006 7.711996e-05)
(-0.3792397 -0.07289005 3.710543e-05)
(-0.4278173 -0.01969348 -0.01600519)
(-0.4183059 -0.03217441 -0.001982244)
(-0.4173675 -0.04320515 0.0004620358)
(-0.4107786 -0.05333172 0.0004003296)
(-0.4060474 -0.06224457 0.000319562)
(-0.3985467 -0.06981319 0.0001197788)
(-0.3913548 -0.07591526 8.749688e-05)
(-0.3830898 -0.08049396 4.192685e-05)
(-0.440716 -0.02197875 -0.01654967)
(-0.4305325 -0.03592177 -0.001982913)
(-0.4285672 -0.04814506 0.0004389445)
(-0.4206877 -0.05943089 0.0004215496)
(-0.4145497 -0.06941624 0.0003389347)
(-0.4055017 -0.0777524 0.0001317075)
(-0.3969237 -0.08442149 9.262991e-05)
(-0.3872043 -0.08931997 4.276267e-05)
(-0.4551567 -0.02480699 -0.0171488)
(-0.4442085 -0.04056082 -0.001961142)
(-0.4411307 -0.05426686 0.0004215601)
(-0.4316604 -0.06699166 0.0004529714)
(-0.424069 -0.07817465 0.0003604036)
(-0.4132432 -0.0872767 0.000141774)
(-0.402939 -0.09451372 9.79985e-05)
(-0.3914691 -0.09961769 4.171379e-05)
(-0.4715102 -0.02826082 -0.01774376)
(-0.4595862 -0.04620368 -0.001941202)
(-0.455299 -0.06177899 0.0004279766)
(-0.4440195 -0.07615632 0.000465393)
(-0.4347576 -0.08865954 0.0003435732)
(-0.4217305 -0.09870118 0.0001371261)
(-0.4093108 -0.1065273 9.040932e-05)
(-0.395699 -0.1117069 3.299159e-05)
(-0.4901036 -0.03249111 -0.01853373)
(-0.4770991 -0.05304517 -0.001858931)
(-0.4714271 -0.07087701 0.000469005)
(-0.458183 -0.08715354 0.0004889475)
(-0.4467176 -0.1012999 0.0003451366)
(-0.4310697 -0.112483 0.0001440539)
(-0.4159678 -0.1209036 8.641615e-05)
(-0.3997082 -0.1259837 2.660494e-05)
(-0.1188572 -0.006125783 0.002247166)
(-0.1055774 -0.006189929 -0.00331342)
(-0.08225604 -0.008980669 0.001218306)
(-0.06842364 -0.007652082 -0.00196236)
(-0.04734479 -0.007811048 -0.0004401118)
(-0.03294049 -0.005886211 -0.0003183912)
(-0.02127665 -0.004340117 -0.0001003153)
(-0.01361799 -0.002828836 6.519194e-05)
(-0.1188412 -0.002384088 -0.001812185)
(-0.1152 -0.01383361 -0.001065538)
(-0.1026189 -0.01435395 0.001963156)
(-0.08935534 -0.02474335 0.0003724774)
(-0.06822911 -0.02668008 0.0001694866)
(-0.04660823 -0.02613829 9.134361e-05)
(-0.0301408 -0.01928674 -0.0001280775)
(-0.0187595 -0.01394381 0.00011687)
(-0.01146829 -0.009103837 0.0001257845)
(-0.1320739 -0.003857081 -0.004086316)
(-0.1276684 -0.01909982 0.0009522198)
(-0.1132513 -0.03263356 -0.001025252)
(-0.09515261 -0.04307382 -4.303945e-05)
(-0.07047505 -0.05104752 -0.0008039626)
(-0.04055815 -0.04562173 -0.0001827298)
(-0.02097228 -0.03438894 0.0005183905)
(-0.01130622 -0.02299674 -1.1746e-06)
(-0.005828934 -0.01458308 -1.802813e-05)
(-0.1482856 -0.004029688 -0.003917475)
(-0.1433676 -0.0290878 0.0008363629)
(-0.1271308 -0.04771824 6.766451e-05)
(-0.1074246 -0.06762963 -0.0005542453)
(-0.07215598 -0.08237275 -0.001376163)
(-0.02970704 -0.07665045 -0.001954952)
(-0.006261806 -0.04815917 -0.001646724)
(0.001354335 -0.02978261 -0.0002392583)
(0.002617112 -0.01715953 -1.94664e-05)
(-0.1703982 -0.006005986 -0.004313008)
(-0.1667888 -0.03822942 0.001194307)
(-0.1509826 -0.06806482 -0.00104491)
(-0.1299151 -0.09716382 -0.00140705)
(-0.08689164 -0.1266967 -0.004273121)
(-0.02097775 -0.1033282 3.249581e-05)
(0.03284369 -0.06445836 0.00372947)
(0.01857549 -0.03077899 -0.0006472395)
(0.01336412 -0.01569378 -0.0003421145)
(-0.1986669 -0.007780557 -0.004925437)
(-0.1995962 -0.04662747 0.001045941)
(-0.1865238 -0.08397197 -0.0006508793)
(-0.1822997 -0.1283952 -0.003857201)
(-0.1243036 -0.1674632 0.002116719)
(-0.02420481 -0.2301864 0.001120253)
(0.0939398 -0.06374688 -0.003150019)
(0.04275952 -0.02033228 0.0005779244)
(0.02278177 -0.01016728 -0.0001816367)
(-0.2306449 -0.008812231 -0.005545779)
(-0.2377369 -0.04815209 0.001335521)
(-0.2335297 -0.08349925 -0.0008500367)
(-0.2502292 -0.134914 -0.001874834)
(-0.2154315 -0.20436 -0.000746051)
(-0.283523 -0.3444439 -0.004950005)
(-0.4886095 -0.003593649 -0.01905427)
(-0.4197954 -0.0001340762 -0.02864642)
(-0.2608839 -0.008463904 -0.006019015)
(-0.2692946 -0.04226183 0.001889672)
(-0.2706713 -0.06986082 -0.001097739)
(-0.2944659 -0.1073098 -0.001852356)
(-0.318682 -0.1346405 -0.002203122)
(-0.4026044 -0.1421251 0.001451298)
(-0.4487199 -0.08325634 0.006746574)
(-0.4205716 -0.04628005 0.0009261682)
(-0.4067743 -0.02986209 0.005043675)
(-0.2863557 -0.007309326 -0.006356954)
(-0.2938639 -0.03555871 0.002226243)
(-0.2953414 -0.05736911 -0.001002944)
(-0.3161778 -0.08216613 -9.752399e-05)
(-0.3373528 -0.09654261 -0.001002193)
(-0.3774707 -0.1079319 -0.0002765531)
(-0.4020572 -0.06885686 -0.0004144671)
(-0.4019069 -0.04920545 0.001676248)
(-0.3972877 -0.03563311 -0.004163311)
(-0.3079606 -0.006178777 -0.006577867)
(-0.3141334 -0.02978402 0.002340108)
(-0.3165541 -0.04672097 -0.0007278459)
(-0.3324402 -0.06520923 0.0001729396)
(-0.3468012 -0.07433887 -0.0005798306)
(-0.3709276 -0.07886561 -0.0002733721)
(-0.3867997 -0.06355891 0.0006363037)
(-0.3857346 -0.05334067 0.0003416867)
(-0.3847466 -0.04128133 0.0007069614)
(-0.3255533 -0.005208609 -0.006808672)
(-0.3303927 -0.0242784 0.002686703)
(-0.3309202 -0.03830163 -0.0009702279)
(-0.3432241 -0.05201612 0.0001963384)
(-0.3518814 -0.0591554 -0.0004890639)
(-0.3667708 -0.06492793 0.0003227258)
(-0.3757901 -0.05465716 5.305231e-05)
(-0.3786563 -0.04933149 0.0004795)
(-0.3786074 -0.04272815 -0.0009132077)
(-0.34026 -0.004423853 -0.007051409)
(-0.3442423 -0.02093272 0.002559742)
(-0.3436291 -0.03271006 -0.0008151254)
(-0.3528315 -0.04371664 0.0003169399)
(-0.357284 -0.05050223 -0.0005276566)
(-0.3673765 -0.05499933 1.818936e-06)
(-0.3725463 -0.05221761 8.103425e-06)
(-0.3736398 -0.05016873 5.554199e-06)
(-0.3730657 -0.04529642 -1.88022e-05)
(-0.3527662 -0.003843212 -0.007285776)
(-0.3558172 -0.01798089 0.002752673)
(-0.3546081 -0.02865373 -0.0009972606)
(-0.3606927 -0.0382972 0.0002008442)
(-0.3625904 -0.04430275 -0.0004462766)
(-0.3685663 -0.0491862 8.291309e-05)
(-0.3708892 -0.04870416 -9.291609e-05)
(-0.371818 -0.04830304 5.20458e-05)
(-0.3706937 -0.04663908 -0.0002339455)
(-0.3639887 -0.00346869 -0.007512363)
(-0.3662516 -0.01649454 0.002660129)
(-0.3637423 -0.02622006 -0.001033948)
(-0.3683066 -0.03534669 0.0003011747)
(-0.368251 -0.04164564 -0.0004412965)
(-0.3717018 -0.04637492 5.992927e-05)
(-0.3718912 -0.04866958 -8.362755e-05)
(-0.3714926 -0.04990051 1.512816e-05)
(-0.36929 -0.04945858 -1.625573e-05)
(-0.3743108 -0.003248844 -0.007705922)
(-0.3760845 -0.01557367 0.002723687)
(-0.3727558 -0.02492318 -0.001154877)
(-0.3756746 -0.0336497 0.0003241335)
(-0.3745281 -0.04014307 -0.0003854589)
(-0.3754874 -0.045586 2.072254e-05)
(-0.3742842 -0.04888568 -7.107122e-05)
(-0.3727797 -0.05119269 7.792784e-06)
(-0.3697369 -0.05234207 -3.560277e-05)
(-0.3842642 -0.003163458 -0.007872351)
(-0.3855645 -0.01530928 0.00276139)
(-0.3813046 -0.02470986 -0.00126919)
(-0.3832757 -0.03355123 0.0003239169)
(-0.3804953 -0.04053353 -0.0004531875)
(-0.3801629 -0.04649543 2.959804e-05)
(-0.3775009 -0.05093959 -9.363472e-05)
(-0.3750108 -0.05421985 1.577596e-05)
(-0.3709806 -0.05630582 -3.321383e-05)
(-0.3941563 -0.003195818 -0.008019864)
(-0.3952954 -0.0156246 0.002806826)
(-0.3902254 -0.02532623 -0.001345845)
(-0.3912346 -0.03446482 0.0003937858)
(-0.3876462 -0.04199332 -0.0003939718)
(-0.3855974 -0.04859375 -2.987421e-05)
(-0.3819599 -0.05386248 -6.78326e-05)
(-0.3781582 -0.05788619 -4.102312e-07)
(-0.3732518 -0.06089455 -2.153841e-05)
(-0.4043331 -0.003330795 -0.008158531)
(-0.4053217 -0.01645757 0.002831914)
(-0.3995587 -0.0267319 -0.001385985)
(-0.3997801 -0.03639413 0.0003621258)
(-0.3949581 -0.04468906 -0.0004253365)
(-0.3917818 -0.05199431 -1.158034e-05)
(-0.3869781 -0.05804503 -7.024651e-05)
(-0.3820788 -0.06285979 1.136475e-05)
(-0.3761441 -0.06648564 -1.358298e-05)
(-0.4150674 -0.003565182 -0.008290853)
(-0.4161512 -0.01774872 0.002850939)
(-0.4096939 -0.02884325 -0.001402364)
(-0.4090627 -0.03929403 0.0003728935)
(-0.4032148 -0.04842918 -0.0004269041)
(-0.3987895 -0.05655235 -1.619057e-05)
(-0.3926929 -0.06331095 -7.121914e-05)
(-0.3866395 -0.06880152 2.418239e-06)
(-0.3796007 -0.07297933 -1.014225e-05)
(-0.4267113 -0.003898947 -0.008426656)
(-0.4279604 -0.01949179 0.002871163)
(-0.4206754 -0.03172001 -0.001422509)
(-0.4192459 -0.04321039 0.0003456879)
(-0.4120658 -0.05333341 -0.0004574402)
(-0.4067253 -0.06235573 2.202497e-05)
(-0.3991049 -0.06988761 -7.705821e-05)
(-0.3917738 -0.07601098 3.799881e-06)
(-0.3834527 -0.08059473 -6.980656e-06)
(-0.439579 -0.00433558 -0.008569323)
(-0.440992 -0.02174087 0.002929289)
(-0.4327582 -0.03540609 -0.001453003)
(-0.4305467 -0.04815452 0.0003109982)
(-0.4220749 -0.05939685 -0.0004731838)
(-0.4153086 -0.0695178 2.471946e-05)
(-0.4060965 -0.07785538 -8.222362e-05)
(-0.3973515 -0.08453754 9.303662e-06)
(-0.3875649 -0.08943831 -6.050925e-06)
(-0.4540061 -0.004889833 -0.008721883)
(-0.455689 -0.02460098 0.002954076)
(-0.4463048 -0.03997214 -0.001487309)
(-0.4432254 -0.05423498 0.000261991)
(-0.4330658 -0.06694013 -0.0004794152)
(-0.4248537 -0.07831893 6.703033e-05)
(-0.4138523 -0.08741222 -9.674269e-05)
(-0.4033594 -0.09466063 2.507874e-05)
(-0.3918221 -0.09975969 -1.065448e-06)
(-0.4702782 -0.00557428 -0.008888005)
(-0.4723304 -0.02807133 0.002949893)
(-0.4615817 -0.04556478 -0.00155573)
(-0.4575032 -0.061674 0.000239054)
(-0.4452865 -0.07616 -0.000532014)
(-0.435555 -0.08882099 7.283244e-05)
(-0.4223206 -0.0988605 -0.0001193748)
(-0.4097197 -0.1067026 2.629666e-05)
(-0.3960338 -0.111873 -7.171572e-06)
(-0.4741883 -0.02008165 0.002204484)
(-0.4913308 -0.03232474 0.002935224)
(-0.479154 -0.05233966 -0.001600734)
(-0.4737503 -0.07073398 0.0002435715)
(-0.4594027 -0.08722577 -0.0005572234)
(-0.4475561 -0.1014817 7.869686e-05)
(-0.4316554 -0.1126828 -0.0001142777)
(-0.4163729 -0.1211196 4.295749e-05)
(-0.4000255 -0.1261902 5.601994e-06)
(-0.1184629 -0.00623045 -0.000531523)
(-0.1070267 -0.007382244 -0.0007155106)
(-0.08330052 -0.00954574 0.001090192)
(-0.06953217 -0.007750192 -5.247308e-05)
(-0.04828277 -0.007776386 -9.106708e-05)
(-0.03335717 -0.005850388 -0.0001192638)
(-0.02162044 -0.004414003 -0.0001392328)
(-0.013833 -0.002842623 -4.838927e-05)
(-0.1209952 -0.00568767 -0.002006395)
(-0.1174279 -0.01518277 -0.001638835)
(-0.1010449 -0.01503606 0.001145804)
(-0.08949008 -0.02406512 -0.0004332701)
(-0.06791049 -0.0263795 -0.0001128378)
(-0.04649929 -0.02585801 -0.0003246884)
(-0.03004786 -0.01904445 -0.0001975355)
(-0.01877951 -0.01361762 -0.0002165046)
(-0.01152547 -0.009022264 -5.65635e-05)
(-0.1283644 -0.008747263 -0.001714225)
(-0.1252564 -0.01870221 -0.0005387017)
(-0.1126356 -0.03347759 -0.0009447192)
(-0.09416686 -0.04200668 -0.0001064368)
(-0.07048375 -0.05018841 -0.000228196)
(-0.04067422 -0.0443943 -0.0001487261)
(-0.02102841 -0.03313166 -1.709117e-05)
(-0.01150756 -0.02246581 -8.577158e-05)
(-0.006015863 -0.01415614 -6.442182e-05)
(-0.1455626 -0.009713616 -0.002301457)
(-0.1408712 -0.0291045 -0.001270143)
(-0.1257828 -0.04750992 -0.0009978173)
(-0.1059669 -0.06610087 0.0002258133)
(-0.07273045 -0.08120167 0.0004558105)
(-0.03057574 -0.07696155 0.0004136285)
(-0.007479274 -0.04795994 0.0004813868)
(0.0007705972 -0.02883188 -0.0001045971)
(0.002458801 -0.01725708 0.000339574)
(-0.1685133 -0.01329255 -0.003588283)
(-0.1633373 -0.03748548 -0.001090216)
(-0.1496236 -0.06873554 -0.001008576)
(-0.127508 -0.09524551 0.00116369)
(-0.08898288 -0.1284732 0.000665087)
(-0.0242208 -0.1053098 0.0004036007)
(0.03332142 -0.06589912 -1.334311e-05)
(0.01957162 -0.03225181 0.0008271574)
(0.01305578 -0.01480088 -0.0001313649)
(-0.1975569 -0.01560622 -0.003922518)
(-0.1951121 -0.04656679 -0.001019489)
(-0.1850849 -0.08450273 -0.001163646)
(-0.1817763 -0.1283942 0.001258291)
(-0.1270628 -0.1725254 0.001660204)
(-0.02278174 -0.2296016 0.0007538493)
(0.09728242 -0.06427519 -0.0005821399)
(0.04365475 -0.02309722 -0.0003585219)
(0.02099142 -0.006483695 0.0004835927)
(-0.2298154 -0.01576116 -0.00450204)
(-0.231574 -0.04831289 -0.001148622)
(-0.2321693 -0.08398471 -0.00128603)
(-0.2481058 -0.1355325 0.0009633308)
(-0.2157833 -0.2022322 0.0008272718)
(-0.2826265 -0.3409034 0.001276286)
(-0.5129219 0.002757255 0.003658102)
(-0.4399933 -0.01934725 -0.008393929)
(-0.2598197 -0.01410926 -0.004908886)
(-0.2636206 -0.0427957 -0.00134393)
(-0.2692132 -0.07016239 -0.001738899)
(-0.2931383 -0.1100659 0.0007161664)
(-0.3200955 -0.1341978 -0.0001099411)
(-0.4023088 -0.1432912 -0.0009385406)
(-0.4482443 -0.08547004 0.002225267)
(-0.4171762 -0.04827913 -0.002394543)
(-0.4056646 -0.006969037 0.006046673)
(-0.2849203 -0.01215235 -0.005283214)
(-0.2886668 -0.03614959 -0.001880764)
(-0.2947116 -0.05779575 -0.00194896)
(-0.3144856 -0.08311209 0.0004869151)
(-0.3371425 -0.09741006 -0.0001771227)
(-0.3776595 -0.1076187 0.000857611)
(-0.401207 -0.06799209 0.0006089289)
(-0.4068113 -0.04839775 0.002105603)
(-0.3954933 -0.0371675 -0.002423192)
(-0.306637 -0.01028575 -0.005656525)
(-0.3088827 -0.03041823 -0.00178267)
(-0.3159809 -0.04697772 -0.002357724)
(-0.3304926 -0.06613581 -6.56358e-05)
(-0.3469957 -0.07450715 -0.0003099096)
(-0.3710938 -0.0795658 -8.707161e-05)
(-0.3864901 -0.0634845 -0.0001942342)
(-0.3856272 -0.05374116 -0.0003444685)
(-0.384756 -0.0372951 0.0006977691)
(-0.3239249 -0.008538991 -0.005945115)
(-0.3259993 -0.02479555 -0.002105851)
(-0.3303028 -0.03839497 -0.0022927)
(-0.3417414 -0.05198296 -7.778269e-05)
(-0.3513475 -0.05926267 -0.0002932671)
(-0.3661318 -0.06506266 0.000428827)
(-0.3754508 -0.0547172 0.0001049803)
(-0.3785639 -0.04869704 0.0002658341)
(-0.3775203 -0.04235426 -0.0001924544)
(-0.338283 -0.007290583 -0.006260634)
(-0.338687 -0.02120632 -0.002135337)
(-0.3434055 -0.03305039 -0.002512853)
(-0.3506497 -0.04435336 -0.0001945638)
(-0.357105 -0.05063528 -0.0004481911)
(-0.3668019 -0.05525642 7.715769e-05)
(-0.3722414 -0.0521671 3.389802e-05)
(-0.373614 -0.0505245 -2.831531e-06)
(-0.3727855 -0.04414849 3.190849e-05)
(-0.3514386 -0.006411667 -0.006382232)
(-0.3508193 -0.01827331 -0.002085997)
(-0.3530662 -0.02843329 -0.002489866)
(-0.3586804 -0.03835309 -0.0001124529)
(-0.362107 -0.04444445 -0.0004363916)
(-0.368003 -0.04927811 0.0001273386)
(-0.3707535 -0.048678 -4.558629e-05)
(-0.3718996 -0.048348 0.0001162216)
(-0.3707422 -0.04651022 -0.00022857)
(-0.3622928 -0.005874532 -0.006665929)
(-0.3610913 -0.01674509 -0.002288164)
(-0.3627704 -0.02624556 -0.002641734)
(-0.3662261 -0.03533752 -0.0002367642)
(-0.3678281 -0.04174267 -0.000442475)
(-0.3710987 -0.04656326 7.209553e-05)
(-0.3717415 -0.04863903 -4.785482e-05)
(-0.3713585 -0.04998064 6.001531e-05)
(-0.3692986 -0.04935745 2.515625e-05)
(-0.3724385 -0.005526616 -0.006874769)
(-0.370699 -0.0158322 -0.002262395)
(-0.37142 -0.02490351 -0.002695157)
(-0.3735466 -0.03362408 -0.0002559604)
(-0.3735522 -0.04025127 -0.000426545)
(-0.3748478 -0.04566493 0.0001402384)
(-0.3739592 -0.04881462 -5.673086e-05)
(-0.3726077 -0.05117885 5.908657e-05)
(-0.3696791 -0.05227173 -1.90303e-05)
(-0.3823321 -0.005454592 -0.007059756)
(-0.3800075 -0.01567822 -0.002257609)
(-0.3801571 -0.02475947 -0.002748815)
(-0.3811334 -0.03349218 -0.0002527281)
(-0.3797311 -0.0407109 -0.0004551033)
(-0.3797427 -0.0465514 7.498538e-05)
(-0.3772826 -0.05088762 -2.876168e-05)
(-0.3748653 -0.0542207 6.609304e-05)
(-0.3709211 -0.05627022 3.373296e-08)
(-0.3925372 -0.005609469 -0.007239241)
(-0.3895677 -0.01600493 -0.002292168)
(-0.3890571 -0.0253935 -0.002810154)
(-0.3890375 -0.03441034 -0.0002357949)
(-0.3864303 -0.04216642 -0.0004473512)
(-0.3851947 -0.04869153 0.0001011832)
(-0.3817083 -0.05383569 -1.270375e-05)
(-0.3780124 -0.05787371 4.257646e-05)
(-0.3731881 -0.06087498 8.249052e-06)
(-0.402814 -0.00591466 -0.00743784)
(-0.3994935 -0.01688017 -0.00238694)
(-0.3984297 -0.02683297 -0.002897402)
(-0.3975286 -0.03638295 -0.0002551935)
(-0.3938332 -0.04485851 -0.0004637094)
(-0.3916212 -0.05201872 6.769053e-05)
(-0.3868318 -0.05804369 -3.434771e-06)
(-0.3819713 -0.06285475 4.985362e-05)
(-0.3760875 -0.06647288 1.828253e-05)
(-0.4138535 -0.006385011 -0.007633356)
(-0.4101909 -0.01819733 -0.002486537)
(-0.408511 -0.02898325 -0.002983011)
(-0.4067222 -0.03930159 -0.0002545025)
(-0.4019554 -0.04855529 -0.0004585574)
(-0.3986095 -0.0565321 6.570618e-05)
(-0.3925296 -0.06334001 -1.370868e-05)
(-0.3865254 -0.06881767 4.195339e-05)
(-0.3795397 -0.07297773 1.978363e-05)
(-0.4259034 -0.007039288 -0.007835518)
(-0.4217954 -0.02000706 -0.002588778)
(-0.4195343 -0.03188789 -0.00306613)
(-0.4168276 -0.04321869 -0.0002519287)
(-0.4109929 -0.05343877 -0.0004441492)
(-0.4062638 -0.06230914 9.488955e-05)
(-0.3988352 -0.06990915 -3.379082e-05)
(-0.3916106 -0.07601896 4.589428e-05)
(-0.38338 -0.0805947 2.443188e-05)
(-0.4391307 -0.007863903 -0.008057964)
(-0.4346093 -0.02231068 -0.00271657)
(-0.4317482 -0.03558772 -0.003172342)
(-0.4280314 -0.04817208 -0.0002357404)
(-0.4210718 -0.05951459 -0.0004794509)
(-0.4148468 -0.06942974 9.346632e-05)
(-0.4058056 -0.07787347 -3.655851e-05)
(-0.3971815 -0.0845248 5.215894e-05)
(-0.3874894 -0.08943128 2.249103e-05)
(-0.4539402 -0.008892523 -0.008297254)
(-0.4489362 -0.0251886 -0.002843352)
(-0.4454371 -0.04021304 -0.003253126)
(-0.4405905 -0.05427292 -0.0002077412)
(-0.4323821 -0.0669867 -0.0004488721)
(-0.4241681 -0.07825654 0.0001639114)
(-0.4135898 -0.08744553 -3.306148e-05)
(-0.403164 -0.09463866 7.05732e-05)
(-0.39175 -0.09975249 3.120461e-05)
(-0.470627 -0.01014674 -0.008556982)
(-0.4649677 -0.02873 -0.002985491)
(-0.460849 -0.04583978 -0.003415182)
(-0.4547189 -0.06171977 -0.0001963975)
(-0.4447644 -0.07620005 -0.0005013457)
(-0.4347668 -0.08880444 0.000131734)
(-0.4220958 -0.09887231 -7.267063e-05)
(-0.4094917 -0.1066705 3.782562e-05)
(-0.3959645 -0.111855 9.699691e-06)
(-0.4895899 -0.01166857 -0.008844607)
(-0.4831843 -0.03306044 -0.003085493)
(-0.4784037 -0.05268095 -0.003480277)
(-0.4707757 -0.07079728 -0.000138037)
(-0.4588477 -0.08727662 -0.0004606687)
(-0.446695 -0.1014638 0.0001906193)
(-0.4314195 -0.1126774 -4.84663e-05)
(-0.4161258 -0.1210778 5.355699e-05)
(-0.3999596 -0.126154 2.765917e-05)
(-0.1169861 -0.006531529 -0.0004115044)
(-0.1062837 -0.006892369 -0.001381467)
(-0.0848463 -0.00865045 6.068842e-05)
(-0.06933556 -0.007655965 -0.0003328559)
(-0.04809635 -0.007513911 -0.0001388905)
(-0.03316045 -0.005716721 -9.039595e-05)
(-0.02143862 -0.004286814 -6.918332e-05)
(-0.01368782 -0.002745574 -2.09447e-05)
(-0.1205855 -0.005894686 6.065193e-05)
(-0.1183962 -0.01475008 -0.0003263427)
(-0.1009965 -0.01454743 0.001115073)
(-0.08993901 -0.02389561 0.0002220688)
(-0.06796132 -0.02647108 0.0001350593)
(-0.04671141 -0.02569372 -2.782546e-05)
(-0.03010524 -0.01892151 -7.361998e-05)
(-0.01870634 -0.01373686 -5.883214e-05)
(-0.01147961 -0.009036468 3.837141e-05)
(-0.1272832 -0.0083059 0.0007576106)
(-0.1262149 -0.01790241 0.0004040634)
(-0.1128729 -0.03335317 -0.0001636421)
(-0.09430672 -0.04216867 0.0001132099)
(-0.07062365 -0.05035127 -0.0002284455)
(-0.04035819 -0.04479051 -6.680202e-05)
(-0.02105461 -0.03362113 -0.0001063185)
(-0.0113624 -0.02286962 -0.0002128599)
(-0.005747712 -0.01423052 -4.19514e-05)
(-0.1437807 -0.008613877 0.001152786)
(-0.1409425 -0.02821576 0.0005534065)
(-0.1264791 -0.04736576 -8.893221e-05)
(-0.1067113 -0.06617354 -0.0002451223)
(-0.07282637 -0.08174891 -0.0003177233)
(-0.03068627 -0.0772478 -0.0003540197)
(-0.006628785 -0.04826666 -0.0003332002)
(0.001091354 -0.02974201 -0.0002222542)
(0.002964622 -0.01723675 1.671781e-05)
(-0.1673159 -0.01260592 0.001276454)
(-0.164863 -0.03655893 0.0006870345)
(-0.1505097 -0.06789288 -0.0003651703)
(-0.1288982 -0.09597144 -0.0001625228)
(-0.08840612 -0.1279988 -0.0008648454)
(-0.0229979 -0.1052678 0.0002101547)
(0.03381155 -0.06559443 0.0008828558)
(0.0188014 -0.03232034 0.0003439352)
(0.01299436 -0.01451347 -0.000110577)
(-0.1960704 -0.01452096 0.001682704)
(-0.1971585 -0.04557569 0.0006907496)
(-0.18609 -0.08396136 -5.198685e-05)
(-0.1827807 -0.1279737 -0.0008451655)
(-0.1261811 -0.1733151 0.000580001)
(-0.02297092 -0.2290259 0.0002843332)
(0.09874806 -0.06613578 8.973715e-05)
(0.04379597 -0.02364094 -0.000228996)
(0.02182202 -0.006840303 -7.782344e-06)
(-0.2283831 -0.01487345 0.001940513)
(-0.2335227 -0.04742246 0.0009322564)
(-0.2330267 -0.08320495 -5.839311e-05)
(-0.2493696 -0.1347834 -0.0002375827)
(-0.2155742 -0.2013696 0.0006353613)
(-0.2831371 -0.3410619 0.001399906)
(-0.5237896 -0.006797504 -0.01070438)
(-0.4601848 -0.01933706 -0.001936007)
(-0.2576228 -0.0132137 0.00250105)
(-0.2652447 -0.04174808 0.001166863)
(-0.2699616 -0.06963451 0.0001095424)
(-0.2931689 -0.1083444 1.107638e-05)
(-0.3195096 -0.13513 -0.0001659478)
(-0.4006073 -0.1441334 0.0001579726)
(-0.450842 -0.08711765 0.001750035)
(-0.4177454 -0.05195256 -0.002498813)
(-0.4017787 -0.008207968 0.003551536)
(-0.2819591 -0.01125431 0.002656684)
(-0.2898295 -0.03593542 0.001560572)
(-0.2953575 -0.05746441 0.0001051658)
(-0.3146838 -0.08257688 0.0002965022)
(-0.3371848 -0.09722327 0.0001917463)
(-0.3776426 -0.1075647 0.0009005585)
(-0.3999599 -0.06672361 0.001472224)
(-0.4067801 -0.04722617 0.001802316)
(-0.3961857 -0.03970056 -0.001680316)
(-0.3025131 -0.009640144 0.00199473)
(-0.3097748 -0.02925513 0.001708637)
(-0.3161931 -0.04671526 0.0002020371)
(-0.331255 -0.06563572 0.0001477469)
(-0.3473657 -0.07475113 -8.036656e-05)
(-0.3714132 -0.08016255 -0.0001607605)
(-0.3872237 -0.06404293 -2.113976e-05)
(-0.3853992 -0.05418661 -0.0002879392)
(-0.3847328 -0.03686619 0.0003207191)
(-0.3197173 -0.008110579 0.002144775)
(-0.326602 -0.02460047 0.001571747)
(-0.3304373 -0.03818016 0.0002223863)
(-0.3419622 -0.051727 0.0004035035)
(-0.3516348 -0.05898817 9.974019e-05)
(-0.3663238 -0.06486627 0.0004654874)
(-0.3757407 -0.05475863 0.0004159454)
(-0.3791438 -0.04930635 0.0003807605)
(-0.3784461 -0.04331209 -0.0004995583)
(-0.3338145 -0.006885206 0.002029376)
(-0.3400537 -0.02076616 0.00179841)
(-0.3432705 -0.03273317 0.0002584352)
(-0.3515767 -0.04386777 0.0003711207)
(-0.3573326 -0.05062579 5.091593e-06)
(-0.3670343 -0.05534262 0.0001952464)
(-0.3725262 -0.05228875 8.85213e-05)
(-0.3736182 -0.05055331 8.14138e-05)
(-0.3730775 -0.04413877 8.063103e-05)
(-0.3462656 -0.006044368 0.002286976)
(-0.3519119 -0.01823147 0.001587624)
(-0.3541404 -0.02860771 9.551485e-05)
(-0.3594251 -0.03815275 0.0004878111)
(-0.3625908 -0.04424223 9.784192e-05)
(-0.3682788 -0.04907945 0.000293889)
(-0.3709402 -0.04869936 0.0001835497)
(-0.3719061 -0.04844519 0.0001772595)
(-0.370783 -0.04666576 -0.000101672)
(-0.3569794 -0.005517075 0.002043214)
(-0.3623019 -0.0165698 0.001909131)
(-0.3633246 -0.02633881 0.000125784)
(-0.3672058 -0.03532464 0.0005229334)
(-0.3683972 -0.04160584 9.349885e-05)
(-0.3714192 -0.04654683 0.0002590569)
(-0.3719871 -0.04867639 0.0001042044)
(-0.3714719 -0.05001922 0.0001296618)
(-0.3693489 -0.04926173 7.285752e-05)
(-0.3670465 -0.005190919 0.001987846)
(-0.3720379 -0.01543342 0.002146616)
(-0.3721564 -0.02491723 0.0001172478)
(-0.3746257 -0.0335798 0.000591079)
(-0.3747138 -0.04007189 0.0001267943)
(-0.3752434 -0.04553694 0.0003865908)
(-0.3742687 -0.04880069 0.0001209342)
(-0.3728346 -0.05128684 0.0001235671)
(-0.3697905 -0.05226906 2.13325e-05)
(-0.3769077 -0.0051417 0.002249018)
(-0.3814022 -0.01522722 0.001922057)
(-0.3808617 -0.02469217 0.0001628888)
(-0.382323 -0.03346392 0.0005702218)
(-0.3806889 -0.04049651 0.000129328)
(-0.3800259 -0.04652333 0.0003283647)
(-0.3776315 -0.05087766 0.0001077759)
(-0.3749758 -0.05421635 0.0001454153)
(-0.3710501 -0.05625953 5.123994e-05)
(-0.3868977 -0.005287372 0.002342588)
(-0.3911885 -0.01564206 0.001949389)
(-0.3898485 -0.02531229 0.0001308584)
(-0.3903161 -0.03439383 0.0005969249)
(-0.3878994 -0.04193704 0.0001159977)
(-0.3855118 -0.04856717 0.0003885134)
(-0.3820054 -0.05378926 0.0001189198)
(-0.3781781 -0.05790073 0.000120327)
(-0.3732999 -0.06086765 5.693013e-05)
(-0.3970073 -0.005558857 0.00229143)
(-0.4010923 -0.01651897 0.001874039)
(-0.3991527 -0.02674917 0.0001614397)
(-0.398867 -0.03635187 0.000599958)