/*--------------------------------*- C++ -*----------------------------------*\
  =========                 |
  \\      /  F ield         | OpenFOAM: The Open Source CFD Toolbox
   \\    /   O peration     | Website:  https://openfoam.org
    \\  /    A nd           | Version:  7
     \\/     M anipulation  |
\*---------------------------------------------------------------------------*/
FoamFile
{
    version     2.0;
    format      ascii;
    class       volScalarField;
    location    "0.01";
    object      epsilon;
}
// * * * * * * * * * * * * * * * * * * * * * * * * * * * * * * * * * * * * * //

dimensions      [0 2 -3 0 0 0 0];

internalField   nonuniform List<scalar> 
77997
(
0.002108403
0.002207437
0.002222488
0.002225578
0.002226029
0.002226086
0.00222608
0.002226043
0.002226018
0.002108472
0.0009681781
0.0009903021
0.0009982176
0.001000108
0.00100055
0.001000631
0.001000586
0.001000511
0.002207275
0.0009886426
0.001010229
0.001018118
0.001019991
0.001020407
0.001020475
0.001020425
0.001020359
0.002220616
0.0009884056
0.0010062
0.001012552
0.001013955
0.001014244
0.001014281
0.001014214
0.001014134
0.002217682
0.0009690885
0.0009747046
0.0009783729
0.0009792313
0.0009794861
0.0009795473
0.0009794623
0.0009793471
0.002171515
0.00209422
0.002138222
0.002145278
0.002146099
0.002146215
0.002146274
0.002146058
0.002145605
0.002145277
0.005204039
0.004536841
0.004548713
0.00454981
0.004550187
0.004550594
0.004549259
0.004551378
0.004560157
0.004550322
0.003981568
0.003994584
0.003995749
0.003995961
0.003996189
0.003996448
0.003996758
0.003997016
0.003996717
0.0009361538
0.0009557154
0.0009626794
0.0009644181
0.0009648884
0.0009650014
0.0009649703
0.0009648873
0.0009648286
0.0009611164
0.001001476
0.001014257
0.001017705
0.001018696
0.001018971
0.001018959
0.001018846
0.001018767
0.0009690305
0.001016138
0.001032538
0.001037175
0.00103858
0.001038996
0.001039002
0.001038859
0.001038749
0.0009709898
0.00102023
0.001037934
0.001043203
0.001044878
0.001045397
0.001045419
0.001045251
0.001045114
0.0009715525
0.001021494
0.001039705
0.001045277
0.001047112
0.001047698
0.001047732
0.001047548
0.001047392
0.0009717487
0.001021956
0.001040387
0.001046109
0.00104803
0.001048655
0.001048697
0.001048504
0.001048338
0.0009718187
0.001022135
0.001040664
0.001046458
0.001048424
0.001049071
0.001049118
0.00104892
0.001048749
0.000971839
0.001022202
0.001040776
0.001046604
0.001048593
0.001049248
0.001049296
0.001049094
0.001048922
0.0009718384
0.00102222
0.001040813
0.001046657
0.001048656
0.001049314
0.001049361
0.001049157
0.001048985
0.0009718262
0.001022216
0.001040818
0.001046669
0.001048671
0.00104933
0.001049374
0.001049169
0.001048996
0.0009718083
0.001022201
0.001040806
0.00104666
0.001048663
0.001049321
0.001049363
0.001049156
0.001048982
0.0009717884
0.001022179
0.001040786
0.00104664
0.001048643
0.001049298
0.001049339
0.001049129
0.001048956
0.0009717646
0.001022153
0.00104076
0.001046613
0.001048615
0.001049269
0.001049307
0.001049096
0.00104892
0.0009717375
0.00102212
0.001040722
0.001046572
0.001048572
0.001049224
0.001049261
0.001049048
0.001048871
0.0009717028
0.00102207
0.001040662
0.001046504
0.001048499
0.001049147
0.001049181
0.001048967
0.001048788
0.0009716531
0.00102199
0.001040556
0.00104638
0.001048362
0.001049005
0.001049037
0.001048824
0.001048644
0.002092691
0.000990462
0.001005781
0.001010454
0.001011181
0.001011297
0.001011395
0.001011464
0.002092922
0.01226367
0.0122632
0.01226321
0.01226322
0.01226322
0.01226322
0.01226322
0.01226322
0.000991134
0.0122632
0.01226369
0.0122637
0.0122637
0.0122637
0.0122637
0.0122637
0.0122637
0.001000996
0.01226321
0.0122637
0.0122637
0.01226371
0.01226371
0.01226371
0.01226371
0.01226371
0.0009873946
0.01226322
0.01226371
0.01226371
0.01226371
0.01226371
0.01226371
0.01226371
0.01226371
0.002109225
0.01226377
0.01226316
0.01226317
0.01226318
0.01226318
0.01226318
0.01226318
0.01226318
0.002088478
0.002348633
0.00239814
0.002408859
0.002410349
0.002410553
0.002410518
0.002410233
0.002409733
0.01226523
0.01226522
0.01226517
0.01226519
0.01226521
0.01226523
0.01226525
0.01226528
0.01226531
0.002078483
0.01226413
0.01226413
0.01226414
0.01226415
0.01226416
0.01226418
0.01226419
0.01226421
0.01226424
0.002096518
0.01226411
0.01226413
0.01226414
0.01226415
0.01226416
0.01226418
0.01226419
0.01226421
0.01226424
0.002100386
0.01226411
0.01226413
0.01226414
0.01226415
0.01226416
0.01226417
0.01226419
0.01226421
0.01226424
0.002101085
0.01226411
0.01226412
0.01226413
0.01226415
0.01226416
0.01226417
0.01226419
0.01226421
0.01226424
0.002101253
0.01226411
0.01226412
0.01226413
0.01226414
0.01226415
0.01226417
0.01226419
0.01226421
0.01226424
0.002101266
0.0122641
0.01226412
0.01226413
0.01226414
0.01226415
0.01226417
0.01226419
0.01226421
0.01226424
0.002101221
0.0122641
0.01226412
0.01226413
0.01226414
0.01226415
0.01226417
0.01226419
0.01226421
0.01226423
0.002101145
0.0122641
0.01226411
0.01226413
0.01226414
0.01226415
0.01226417
0.01226418
0.01226421
0.01226423
0.002101052
0.01226409
0.01226411
0.01226412
0.01226414
0.01226415
0.01226417
0.01226418
0.0122642
0.01226423
0.002100948
0.01226408
0.01226411
0.01226412
0.01226413
0.01226415
0.01226417
0.01226418
0.0122642
0.01226423
0.002100835
0.01226408
0.0122641
0.01226411
0.01226413
0.01226414
0.01226416
0.01226418
0.0122642
0.01226423
0.002100714
0.01226407
0.01226409
0.01226411
0.01226412
0.01226414
0.01226416
0.01226417
0.01226419
0.01226422
0.002100588
0.01226406
0.01226409
0.0122641
0.01226411
0.01226413
0.01226415
0.01226417
0.01226419
0.01226421
0.002100454
0.01226405
0.01226408
0.01226409
0.01226411
0.01226412
0.01226414
0.01226416
0.01226418
0.0122642
0.002100315
0.01226404
0.01226407
0.01226408
0.0122641
0.01226411
0.01226413
0.01226415
0.01226417
0.01226419
0.01226006
0.01226403
0.01226406
0.01226407
0.01226409
0.0122641
0.01226412
0.01226413
0.01226415
0.01226418
0.00208188
0.0009899542
0.001015014
0.001022025
0.001023156
0.001023324
0.001023493
0.001023623
0.002082285
0.01226415
0.01226368
0.01226369
0.0122637
0.0122637
0.0122637
0.0122637
0.0122637
0.0009920939
0.01226367
0.01226415
0.01226415
0.01226415
0.01226415
0.01226415
0.01226415
0.01226415
0.001009212
0.01226369
0.01226415
0.01226415
0.01226415
0.01226415
0.01226415
0.01226415
0.01226415
0.000987699
0.01226369
0.01226366
0.0122637
0.0122637
0.0122637
0.0122637
0.0122637
0.0122637
0.002147803
0.01226315
0.0007270349
0.0007940177
0.0008167464
0.0008227124
0.0008240381
0.0008241675
0.0008240645
0.002333199
0.0122652
0.01226466
0.01226464
0.01226465
0.01226466
0.01226467
0.01226468
0.0122647
0.0009734439
0.0122641
0.01226456
0.01226457
0.01226458
0.01226459
0.01226461
0.01226462
0.01226464
0.0009940008
0.0122641
0.01226457
0.01226458
0.01226459
0.0122646
0.01226461
0.01226463
0.01226465
0.01226467
0.001001357
0.0122641
0.01226457
0.01226458
0.01226459
0.01226461
0.01226462
0.01226464
0.01226466
0.01226468
0.001003332
0.0122641
0.01226458
0.01226459
0.0122646
0.01226461
0.01226463
0.01226465
0.01226467
0.01226469
0.001003959
0.01226409
0.01226458
0.01226459
0.0122646
0.01226461
0.01226463
0.01226465
0.01226467
0.0122647
0.001004202
0.01226409
0.01226458
0.01226459
0.0122646
0.01226462
0.01226463
0.01226465
0.01226468
0.0122647
0.001004301
0.01226409
0.01226458
0.01226459
0.0122646
0.01226462
0.01226463
0.01226466
0.01226468
0.0122647
0.001004337
0.01226408
0.01226457
0.01226459
0.0122646
0.01226462
0.01226463
0.01226466
0.01226468
0.0122647
0.001004344
0.01226408
0.01226457
0.01226458
0.0122646
0.01226461
0.01226463
0.01226465
0.01226468
0.0122647
0.001004336
0.01226407
0.01226456
0.01226458
0.01226459
0.01226461
0.01226463
0.01226465
0.01226467
0.0122647
0.001004319
0.01226407
0.01226456
0.01226457
0.01226459
0.01226461
0.01226462
0.01226465
0.01226467
0.01226469
0.001004298
0.01226406
0.01226455
0.01226457
0.01226458
0.0122646
0.01226462
0.01226464
0.01226466
0.01226469
0.001004271
0.01226405
0.01226454
0.01226456
0.01226458
0.01226459
0.01226461
0.01226463
0.01226466
0.01226468
0.001004239
0.01226404
0.01226454
0.01226455
0.01226457
0.01226459
0.0122646
0.01226462
0.01226465
0.01226467
0.001004201
0.01226403
0.01226453
0.01226454
0.01226456
0.01226458
0.0122646
0.01226462
0.01226464
0.01226466
0.001004149
0.01226402
0.01226452
0.01226453
0.01226455
0.01226457
0.01226459
0.01226461
0.01226463
0.01226465
0.002082464
0.0009907966
0.001016918
0.001024852
0.001025982
0.001026113
0.001026325
0.001026504
0.002083328
0.01226415
0.01226368
0.0122637
0.01226371
0.01226371
0.01226371
0.01226371
0.01226371
0.0009944169
0.01226367
0.01226415
0.01226415
0.01226415
0.01226415
0.01226415
0.01226415
0.01226415
0.001011818
0.01226369
0.01226415
0.01226415
0.01226415
0.01226415
0.01226415
0.01226415
0.01226415
0.0009900625
0.0122637
0.0122637
0.01226373
0.01226374
0.01226373
0.01226373
0.01226373
0.01226373
0.002154662
0.01226316
0.0007938884
0.0008814884
0.0009190596
0.0009294894
0.0009318661
0.000932186
0.000932083
0.002381156
0.01226515
0.01226463
0.01226462
0.01226463
0.01226464
0.01226465
0.01226466
0.01226467
0.0009874776
0.01226411
0.01226455
0.01226456
0.01226457
0.01226458
0.0122646
0.01226461
0.01226463
0.001020365
0.01226411
0.01226456
0.01226457
0.01226458
0.01226459
0.0122646
0.01226462
0.01226464
0.001031468
0.01226411
0.01226457
0.01226458
0.01226459
0.0122646
0.01226461
0.01226463
0.01226465
0.01226467
0.001034563
0.01226411
0.01226458
0.01226458
0.01226459
0.01226461
0.01226462
0.01226464
0.01226466
0.01226469
0.001035533
0.0122641
0.01226458
0.01226459
0.0122646
0.01226461
0.01226463
0.01226465
0.01226467
0.0122647
0.001035906
0.0122641
0.01226458
0.01226459
0.0122646
0.01226462
0.01226463
0.01226465
0.01226467
0.0122647
0.00103606
0.0122641
0.01226457
0.01226459
0.0122646
0.01226462
0.01226463
0.01226465
0.01226468
0.0122647
0.001036122
0.01226409
0.01226457
0.01226458
0.0122646
0.01226462
0.01226463
0.01226465
0.01226468
0.0122647
0.001036141
0.01226409
0.01226457
0.01226458
0.0122646
0.01226461
0.01226463
0.01226465
0.01226468
0.0122647
0.001036138
0.01226408
0.01226456
0.01226458
0.01226459
0.01226461
0.01226463
0.01226465
0.01226467
0.0122647
0.001036122
0.01226408
0.01226456
0.01226457
0.01226459
0.01226461
0.01226462
0.01226465
0.01226467
0.01226469
0.001036099
0.01226407
0.01226455
0.01226457
0.01226458
0.0122646
0.01226462
0.01226464
0.01226466
0.01226469
0.001036069
0.01226406
0.01226454
0.01226456
0.01226458
0.01226459
0.01226461
0.01226463
0.01226466
0.01226468
0.001036033
0.01226405
0.01226454
0.01226455
0.01226457
0.01226458
0.0122646
0.01226462
0.01226465
0.01226467
0.001035987
0.01226404
0.01226453
0.01226454
0.01226456
0.01226458
0.0122646
0.01226462
0.01226464
0.01226466
0.001035923
0.01226403
0.01226452
0.01226453
0.01226455
0.01226457
0.01226459
0.01226461
0.01226463
0.01226465
0.002082358
0.0009900795
0.001015806
0.001023546
0.001024545
0.001024626
0.00102486
0.001025079
0.002083553
0.01226415
0.01226368
0.0122637
0.01226371
0.01226371
0.01226372
0.01226371
0.01226371
0.0009946469
0.01226367
0.01226415
0.01226415
0.01226415
0.01226415
0.01226415
0.01226415
0.01226415
0.001012024
0.01226369
0.01226415
0.01226415
0.01226415
0.01226415
0.01226415
0.01226415
0.01226415
0.0009903454
0.0122637
0.0122637
0.01226374
0.01226374
0.01226374
0.01226374
0.01226374
0.01226374
0.002155347
0.01226317
0.00081533
0.0009168002
0.000961939
0.0009748271
0.0009777764
0.0009781809
0.0009780625
0.002391597
0.01226515
0.01226463
0.01226462
0.01226464
0.01226464
0.01226466
0.01226467
0.01226468
0.0009924393
0.01226411
0.01226455
0.01226456
0.01226457
0.01226458
0.0122646
0.01226461
0.01226463
0.00102858
0.01226411
0.01226456
0.01226457
0.01226457
0.01226459
0.0122646
0.01226462
0.01226463
0.00104174
0.01226411
0.01226457
0.01226457
0.01226458
0.01226459
0.01226461
0.01226462
0.01226464
0.001045389
0.01226411
0.01226457
0.01226458
0.01226459
0.0122646
0.01226462
0.01226464
0.01226466
0.01226468
0.001046526
0.01226411
0.01226458
0.01226458
0.0122646
0.01226461
0.01226463
0.01226464
0.01226467
0.01226469
0.001046967
0.0122641
0.01226458
0.01226459
0.0122646
0.01226461
0.01226463
0.01226465
0.01226467
0.0122647
0.001047153
0.0122641
0.01226457
0.01226459
0.0122646
0.01226462
0.01226463
0.01226465
0.01226468
0.0122647
0.001047232
0.0122641
0.01226457
0.01226458
0.0122646
0.01226462
0.01226463
0.01226465
0.01226468
0.0122647
0.001047259
0.01226409
0.01226457
0.01226458
0.0122646
0.01226461
0.01226463
0.01226465
0.01226468
0.0122647
0.001047261
0.01226409
0.01226456
0.01226458
0.01226459
0.01226461
0.01226463
0.01226465
0.01226467
0.0122647
0.001047247
0.01226408
0.01226456
0.01226457
0.01226459
0.01226461
0.01226462
0.01226465
0.01226467
0.01226469
0.00104722
0.01226407
0.01226455
0.01226457
0.01226458
0.0122646
0.01226462
0.01226464
0.01226466
0.01226469
0.001047186
0.01226406
0.01226454
0.01226456
0.01226457
0.01226459
0.01226461
0.01226463
0.01226466
0.01226468
0.001047148
0.01226405
0.01226453
0.01226455
0.01226457
0.01226458
0.0122646
0.01226462
0.01226465
0.01226467
0.001047097
0.01226404
0.01226452
0.01226454
0.01226456
0.01226458
0.0122646
0.01226462
0.01226464
0.01226466
0.001047028
0.01226403
0.01226451
0.01226453
0.01226455
0.01226457
0.01226459
0.01226461
0.01226463
0.01226465
0.002082234
0.0009890807
0.001014041
0.001021398
0.001022272
0.00102233
0.001022569
0.001022867
0.002083493
0.01226415
0.01226368
0.0122637
0.01226371
0.01226371
0.01226372
0.01226371
0.01226371
0.0009938435
0.01226367
0.01226415
0.01226415
0.01226415
0.01226415
0.01226415
0.01226415
0.01226415
0.001010865
0.01226369
0.01226415
0.01226415
0.01226415
0.01226415
0.01226415
0.01226415
0.01226415
0.0009895512
0.0122637
0.0122637
0.01226374
0.01226374
0.01226374
0.01226374
0.01226374
0.01226374
0.002155186
0.01226317
0.0008154079
0.0009168906
0.0009620418
0.0009749369
0.000977886
0.0009782851
0.0009781614
0.00239251
0.01226515
0.01226463
0.01226462
0.01226464
0.01226464
0.01226466
0.01226467
0.01226468
0.0009924363
0.01226411
0.01226455
0.01226456
0.01226457
0.01226458
0.0122646
0.01226461
0.01226463
0.001028567
0.01226411
0.01226456
0.01226457
0.01226457
0.01226459
0.0122646
0.01226462
0.01226463
0.001041712
0.01226411
0.01226457
0.01226457
0.01226458
0.01226459
0.01226461
0.01226462
0.01226464
0.001045337
0.01226411
0.01226457
0.01226458
0.01226459
0.0122646
0.01226462
0.01226464
0.01226466
0.001046457
0.01226411
0.01226458
0.01226459
0.0122646
0.01226461
0.01226463
0.01226464
0.01226467
0.001046903
0.0122641
0.01226458
0.01226459
0.0122646
0.01226461
0.01226463
0.01226465
0.01226467
0.0122647
0.001047097
0.0122641
0.01226457
0.01226459
0.0122646
0.01226462
0.01226463
0.01226465
0.01226468
0.0122647
0.00104718
0.0122641
0.01226457
0.01226458
0.0122646
0.01226462
0.01226463
0.01226465
0.01226468
0.0122647
0.001047219
0.01226409
0.01226457
0.01226458
0.0122646
0.01226461
0.01226463
0.01226465
0.01226468
0.0122647
0.00104723
0.01226409
0.01226456
0.01226458
0.01226459
0.01226461
0.01226463
0.01226465
0.01226467
0.0122647
0.001047213
0.01226408
0.01226456
0.01226457
0.01226459
0.01226461
0.01226462
0.01226465
0.01226467
0.01226469
0.001047173
0.01226407
0.01226455
0.01226457
0.01226458
0.0122646
0.01226462
0.01226464
0.01226466
0.01226469
0.001047129
0.01226406
0.01226454
0.01226456
0.01226457
0.01226459
0.01226461
0.01226463
0.01226466
0.01226468
0.001047089
0.01226405
0.01226453
0.01226455
0.01226457
0.01226458
0.0122646
0.01226462
0.01226465
0.01226467
0.001047038
0.01226405
0.01226452
0.01226454
0.01226456
0.01226458
0.0122646
0.01226462
0.01226464
0.01226466
0.001046968
0.01226403
0.01226451
0.01226453
0.01226455
0.01226457
0.01226459
0.01226461
0.01226463
0.01226465
0.002081256
0.0009849194
0.001007349
0.001013294
0.001014023
0.001014082
0.001014311
0.001014727
0.002082864
0.01226415
0.01226368
0.0122637
0.01226371
0.01226371
0.01226371
0.01226371
0.01226371
0.0009892462
0.01226367
0.01226415
0.01226415
0.01226415
0.01226415
0.01226415
0.01226415
0.01226415
0.001005088
0.01226369
0.01226415
0.01226415
0.01226415
0.01226415
0.01226415
0.01226415
0.01226415
0.0009849294
0.0122637
0.0122637
0.01226373
0.01226373
0.01226373
0.01226373
0.01226373
0.01226373
0.002153
0.01226316
0.000794092
0.0008816981
0.0009193072
0.0009297534
0.0009321194
0.0009324143
0.0009322845
0.002389042
0.01226515
0.01226463
0.01226462
0.01226463
0.01226464
0.01226465
0.01226466
0.01226467
0.0009874656
0.01226411
0.01226455
0.01226456
0.01226457
0.01226458
0.0122646
0.01226461
0.01226463
0.001020318
0.01226411
0.01226456
0.01226457
0.01226458
0.01226459
0.0122646
0.01226462
0.01226464
0.001031351
0.01226411
0.01226457
0.01226458
0.01226458
0.0122646
0.01226461
0.01226463
0.01226465
0.001034318
0.01226411
0.01226458
0.01226458
0.01226459
0.01226461
0.01226462
0.01226464
0.01226466
0.001035195
0.0122641
0.01226458
0.01226459
0.0122646
0.01226461
0.01226463
0.01226465
0.01226467
0.001035603
0.0122641
0.01226458
0.01226459
0.0122646
0.01226462
0.01226463
0.01226465
0.01226467
0.001035803
0.0122641
0.01226457
0.01226459
0.0122646
0.01226462
0.01226463
0.01226465
0.01226468
0.0122647
0.001035878
0.01226409
0.01226457
0.01226458
0.0122646
0.01226462
0.01226463
0.01226465
0.01226468
0.0122647
0.001035957
0.01226409
0.01226457
0.01226458
0.0122646
0.01226461
0.01226463
0.01226465
0.01226468
0.0122647
0.001036005
0.01226408
0.01226456
0.01226458
0.01226459
0.01226461
0.01226463
0.01226465
0.01226467
0.0122647
0.001035979
0.01226408
0.01226456
0.01226457
0.01226459
0.01226461
0.01226462
0.01226465
0.01226467
0.01226469
0.001035885
0.01226407
0.01226455
0.01226457
0.01226458
0.0122646
0.01226462
0.01226464
0.01226466
0.01226469
0.001035795
0.01226406
0.01226454
0.01226456
0.01226457
0.01226459
0.01226461
0.01226463
0.01226466
0.01226468
0.001035769
0.01226405
0.01226453
0.01226455
0.01226457
0.01226458
0.0122646
0.01226462
0.01226465
0.01226467
0.001035734
0.01226404
0.01226453
0.01226454
0.01226456
0.01226458
0.0122646
0.01226462
0.01226464
0.01226466
0.001035666
0.01226403
0.01226452
0.01226453
0.01226455
0.01226457
0.01226459
0.01226461
0.01226463
0.01226465
0.002072852
0.0009726855
0.0009841569
0.0009878718
0.0009885803
0.0009885856
0.0009888117
0.0009892592
0.002074318
0.01226415
0.01226367
0.01226368
0.01226369
0.01226369
0.01226369
0.01226369
0.01226369
0.0009759597
0.01226366
0.01226415
0.01226415
0.01226415
0.01226415
0.01226415
0.01226415
0.01226415
0.0009835001
0.01226368
0.01226415
0.01226415
0.01226415
0.01226415
0.01226415
0.01226415
0.01226415
0.000971987
0.01226369
0.01226366
0.01226369
0.0122637
0.0122637
0.0122637
0.01226369
0.0122637
0.00213353
0.01226315
0.0007271154
0.0007940599
0.000816886
0.0008228758
0.0008241289
0.0008241782
0.000823997
0.002366368
0.01226517
0.01226466
0.01226463
0.01226464
0.01226465
0.01226466
0.01226468
0.01226469
0.0009734049
0.0122641
0.01226456
0.01226457
0.01226458
0.01226459
0.0122646
0.01226462
0.01226463
0.0009939075
0.0122641
0.01226457
0.01226457
0.01226458
0.01226459
0.01226461
0.01226462
0.01226464
0.001001041
0.0122641
0.01226457
0.01226458
0.01226459
0.0122646
0.01226462
0.01226464
0.01226466
0.001002441
0.01226409
0.01226458
0.01226459
0.0122646
0.01226461
0.01226463
0.01226464
0.01226466
0.001002557
0.01226409
0.01226458
0.01226459
0.0122646
0.01226461
0.01226463
0.01226465
0.01226467
0.001003105
0.01226409
0.01226458
0.01226459
0.0122646
0.01226462
0.01226463
0.01226465
0.01226468
0.001003423
0.01226409
0.01226458
0.01226459
0.0122646
0.01226462
0.01226463
0.01226466
0.01226468
0.001003321
0.01226408
0.01226457
0.01226459
0.0122646
0.01226462
0.01226463
0.01226466
0.01226468
0.0122647
0.001003686
0.01226408
0.01226457
0.01226458
0.0122646
0.01226461
0.01226463
0.01226465
0.01226468
0.0122647
0.001003937
0.01226407
0.01226456
0.01226458
0.01226459
0.01226461
0.01226463
0.01226465
0.01226467
0.0122647
0.001003865
0.01226407
0.01226456
0.01226457
0.01226459
0.01226461
0.01226462
0.01226465
0.01226467
0.01226469
0.001003499
0.01226406
0.01226455
0.01226457
0.01226458
0.0122646
0.01226462
0.01226464
0.01226466
0.01226469
0.001003129
0.01226405
0.01226454
0.01226456
0.01226457
0.01226459
0.01226461
0.01226463
0.01226466
0.01226468
0.00100331
0.01226404
0.01226454
0.01226455
0.01226457
0.01226459
0.0122646
0.01226463
0.01226465
0.01226467
0.001003384
0.01226403
0.01226453
0.01226454
0.01226456
0.01226458
0.0122646
0.01226462
0.01226464
0.01226466
0.001003366
0.01226402
0.01226452
0.01226453
0.01226455
0.01226457
0.01226459
0.01226461
0.01226463
0.01226465
0.002063348
0.002106753
0.002162778
0.002164645
0.002173723
0.002176126
0.002176296
0.00217505
0.002180818
0.00206026
0.01226367
0.01226368
0.01226368
0.01226368
0.01226368
0.01226368
0.01226368
0.01226368
0.002107479
0.01226368
0.01226369
0.0122637
0.0122637
0.0122637
0.0122637
0.0122637
0.0122637
0.002171485
0.01226368
0.0122637
0.01226371
0.01226371
0.01226371
0.01226371
0.01226371
0.01226371
0.002159181
0.01226369
0.01226371
0.01226371
0.01226371
0.01226371
0.01226371
0.01226371
0.01226371
0.002117666
0.01226377
0.01226316
0.01226317
0.01226318
0.01226318
0.01226318
0.01226318
0.01226318
0.002224061
0.004026016
0.004159917
0.004212519
0.004218807
0.004216293
0.004215609
0.004213315
0.004212357
0.01226532
0.01226519
0.01226521
0.01226523
0.01226522
0.01226524
0.01226526
0.01226528
0.01226539
0.002107243
0.01226413
0.01226413
0.01226414
0.01226415
0.01226417
0.01226418
0.01226419
0.01226421
0.002179606
0.01226411
0.01226412
0.01226413
0.01226414
0.01226416
0.01226417
0.01226419
0.01226421
0.002190123
0.01226411
0.01226413
0.01226413
0.01226414
0.01226416
0.01226417
0.01226419
0.01226421
0.00218832
0.01226411
0.01226412
0.01226413
0.01226414
0.01226416
0.01226417
0.01226419
0.01226421
0.002180229
0.0122641
0.01226412
0.01226413
0.01226414
0.01226415
0.01226417
0.01226419
0.01226421
0.002180733
0.0122641
0.01226412
0.01226413
0.01226414
0.01226415
0.01226417
0.01226419
0.01226421
0.002188231
0.0122641
0.01226412
0.01226413
0.01226414
0.01226415
0.01226417
0.01226419
0.01226421
0.002179818
0.0122641
0.01226411
0.01226413
0.01226414
0.01226415
0.01226417
0.01226419
0.01226421
0.00218645
0.01226409
0.01226411
0.01226412
0.01226414
0.01226415
0.01226417
0.01226419
0.01226421
0.01226424
0.002190025
0.01226408
0.01226411
0.01226412
0.01226413
0.01226415
0.01226417
0.01226419
0.01226421
0.01226424
0.00218964
0.01226408
0.0122641
0.01226411
0.01226413
0.01226414
0.01226416
0.01226418
0.01226421
0.01226423
0.002187547
0.01226407
0.01226409
0.01226411
0.01226412
0.01226414
0.01226416
0.01226418
0.0122642
0.01226422
0.002179489
0.01226406
0.01226409
0.0122641
0.01226411
0.01226413
0.01226415
0.01226416
0.01226419
0.01226421
0.002183404
0.01226405
0.01226408
0.01226409
0.01226411
0.01226412
0.01226414
0.01226415
0.01226417
0.0122642
0.002186578
0.01226404
0.01226407
0.01226408
0.01226406
0.01226405
0.01226406
0.01226411
0.01226415
0.01226418
0.002191315
0.01226404
0.01226406
0.01226407
0.01226406
0.01226405
0.01226407
0.01226408
0.01226414
0.01226417
0.002082054
0.002092525
0.004421839
0.004265985
0.004623573
0.00467545
0.004584398
0.004623204
0.004696612
0.004627346
0.0009418505
0.0009624197
0.0009677647
0.0009682288
0.0009686383
0.0009691863
0.0009695131
0.0009690922
0.004743737
0.0009597613
0.0009977451
0.001008401
0.00101068
0.001011235
0.001011441
0.001011466
0.001011414
0.00473452
0.000960896
0.0009979003
0.001008526
0.001010875
0.00101137
0.00101142
0.001011338
0.001011238
0.002082737
0.0009472634
0.0009689135
0.0009756695
0.0009776706
0.0009781062
0.0009777931
0.000977498
0.0009770994
0.002083954
0.01226238
0.01226241
0.0122624
0.0122624
0.01226239
0.01226239
0.01226239
0.01226238
0.01226238
0.001959379
0.002028678
0.002029533
0.002058413
0.002072794
0.002046578
0.002048771
0.002031048
0.002028207
0.01226498
0.01226428
0.01226447
0.01226455
0.01226347
0.01226461
0.01226405
0.01226675
0.01226678
0.00476854
0.0009355847
0.0009548665
0.0009623893
0.0009644424
0.0009648895
0.0009646702
0.0009644158
0.000964947
0.004780103
0.0009610673
0.00100136
0.001014195
0.001017736
0.001018685
0.001018805
0.001018774
0.001018787
0.004782124
0.0009693481
0.001016226
0.001032539
0.001037129
0.001038453
0.001038767
0.001038748
0.001038699
0.004765055
0.000972202
0.001020506
0.001037973
0.001043112
0.001044665
0.001045065
0.001045038
0.001044951
0.004543031
0.0009731948
0.001021817
0.001039756
0.001045149
0.001046828
0.001047263
0.001047215
0.00104709
0.004448861
0.0009724523
0.001022149
0.001040402
0.001045948
0.001047699
0.001048147
0.001048072
0.001047907
0.004766515
0.0009721569
0.001022243
0.001040644
0.001046282
0.001048077
0.001048536
0.001048441
0.001048234
0.004441493
0.0009725746
0.001022296
0.001040748
0.001046434
0.001048265
0.00104874
0.00104864
0.001048401
0.004703798
0.0009722009
0.001022289
0.001040773
0.001046505
0.001048372
0.001048877
0.001048792
0.00104854
0.004743739
0.000972075
0.001022274
0.001040773
0.00104654
0.001048444
0.001048986
0.001048928
0.001048681
0.001048556
0.00470622
0.0009721319
0.001022267
0.001040767
0.001046547
0.00104848
0.001049058
0.001049033
0.001048802
0.001048662
0.004728049
0.0009723397
0.001022273
0.001040753
0.001046523
0.00104847
0.001049078
0.001049089
0.001048876
0.001048731
0.004579982
0.0009726101
0.001022246
0.001040697
0.001046439
0.001048384
0.001049015
0.001049058
0.001048874
0.001048742
0.004609069
0.0009722042
0.001022161
0.00104053
0.001046211
0.00104813
0.001048786
0.001048886
0.001048763
0.001048673
0.00466676
0.0009726216
0.001022034
0.001040103
0.001045567
0.001047385
0.001048101
0.001048384
0.001048448
0.001048481
0.004713758
0.0009734894
0.001021508
0.001038594
0.001043299
0.001044782
0.001045715
0.001046676
0.001047497
0.001048025
0.005310795
0.005311874
0.002077607
0.004798086
0.004799868
0.01226328
0.002082067
0.002173399
0.002210397
0.002145929
0.01226141
0.002257149
0.01226154
0.00226165
0.002218504
0.002283722
0.002251042
0.01226079
0.0023174
0.01226082
0.002289144
0.002219789
0.002280873
0.002332017
0.01226084
0.002330417
0.01226084
0.002260104
0.002205164
0.002182936
0.002312669
0.01226079
0.002234301
0.01226072
0.002167093
0.002097941
0.002018443
0.002221175
0.01226235
0.005130885
0.01226228
0.004527146
0.008990006
0.006453714
0.001930131
0.01227187
0.004547516
0.008993575
0.008992817
0.00199499
0.002035186
0.01228164
0.0122821
0.004548846
0.008992694
0.008993154
0.002060364
0.002071548
0.01227762
0.01227801
0.004548785
0.008993494
0.008993838
0.002076371
0.002078267
0.01227752
0.01227933
0.004550572
0.008994218
0.008994856
0.002079043
0.002079305
0.01227763
0.01228054
0.004550437
0.008995388
0.008996268
0.00207945
0.002079609
0.01227786
0.01228204
0.004550655
0.008996917
0.008998007
0.002079602
0.002079548
0.01227817
0.0122834
0.004560236
0.008998778
0.009000072
0.002079378
0.002079552
0.01227854
0.0122843
0.004550943
0.009000972
0.009002375
0.002079259
0.002078599
0.01227897
0.01228504
0.009003354
0.002078441
0.01227952
0.003964703
0.001941603
0.01227499
0.004786099
0.01226442
0.001936617
0.001991526
0.004768413
0.01224265
0.004779341
0.01225914
0.002004215
0.002011188
0.004780125
0.01224409
0.004782998
0.01225854
0.002012491
0.002013249
0.004782706
0.01224279
0.004783322
0.01225872
0.0020134
0.002013475
0.004782977
0.01224272
0.004783171
0.01225885
0.002013501
0.00201349
0.004782818
0.01224241
0.004782812
0.01225896
0.00201349
0.00201345
0.004782462
0.01224229
0.004782344
0.01225906
0.002013446
0.002013388
0.004781989
0.01224219
0.00478181
0.01225915
0.002013376
0.002013307
0.004781453
0.01224217
0.004781191
0.01225924
0.002013299
0.00201322
0.004780851
0.0122422
0.004780521
0.01225934
0.002013207
0.002013123
0.004780183
0.01224229
0.004779798
0.01225945
0.002013111
0.00201302
0.004779456
0.01224244
0.004779027
0.01225956
0.002013006
0.00201291
0.004778689
0.01224264
0.00477821
0.01225967
0.002012895
0.002012794
0.004777879
0.0122429
0.004777354
0.01225978
0.002012779
0.002012674
0.004777029
0.0122432
0.00477646
0.0122599
0.002012657
0.002012547
0.004776146
0.01224355
0.004775538
0.01226002
0.002012528
0.002012412
0.004775231
0.01224395
0.004774581
0.01226013
0.004743616
0.004744626
0.01226415
0.004715649
0.004715634
0.01226415
0.001946698
0.01228182
0.001973627
0.01227932
0.004716296
0.004716127
0.01226415
0.004716738
0.004715495
0.01226415
0.001994045
0.01227765
0.002003618
0.0122776
0.004716523
0.004715955
0.01226415
0.004716771
0.004715569
0.01226415
0.002007844
0.01227841
0.002009642
0.01227735
0.004716137
0.004716148
0.01226415
0.004716979
0.004715375
0.01226415
0.002010357
0.01227748
0.002010618
0.01227732
0.004716778
0.004715552
0.01226415
0.00471646
0.004715618
0.01226415
0.002010612
0.0122773
0.002010354
0.01227747
0.004715455
0.004716474
0.01226415
0.004713401
0.004715567
0.01226415
0.002009639
0.01227734
0.002007827
0.01227841
0.00471302
0.004714659
0.01226415
0.004709615
0.00470886
0.01226415
0.00200352
0.01227755
0.001993753
0.01227765
0.004709092
0.004707317
0.01226415
0.004700228
0.004608763
0.01226415
0.001972517
0.01227862
0.001940324
0.01228264
0.004715683
0.004812262
0.01226322
0.00500538
0.001943625
0.002092524
0.01226136
0.01226141
0.001970601
0.002021565
0.004389284
0.01226239
0.01226237
0.005045616
0.002029157
0.002011117
0.004641932
0.01226237
0.01226239
0.002006491
0.002011687
0.002094036
0.01226241
0.01226146
0.004654674
0.002039178
0.002058158
0.004685266
0.01226241
0.0122624
0.004966344
0.002049989
0.002032935
0.0122624
0.002022492
0.01226232
0.004741295
0.01226235
0.001936414
0.001988243
0.01226238
0.004741763
0.01226239
0.002000641
0.002008186
0.01226239
0.004596834
0.0122624
0.002019315
0.004941691
0.002043546
0.01226142
0.002081716
0.01226139
0.004614976
0.002055799
0.004616056
0.002009807
0.01226229
0.005734888
0.01226222
0.00495054
0.00201982
0.001919934
0.001897995
0.01227419
0.004194312
0.009459521
0.002001659
0.01227152
0.01227057
0.004246323
0.004309964
0.009465002
0.009469778
0.002031036
0.01226811
0.01227194
0.004389678
0.004198577
0.009470912
0.009477696
0.002040228
0.01226845
0.01227713
0.004177759
0.004296387
0.009482912
0.01108511
0.002072699
0.01227473
0.004338937
0.004539013
0.004508596
0.004592453
0.002060025