/*--------------------------------*- C++ -*----------------------------------*\
  =========                 |
  \\      /  F ield         | OpenFOAM: The Open Source CFD Toolbox
   \\    /   O peration     | Website:  https://openfoam.org
    \\  /    A nd           | Version:  7
     \\/     M anipulation  |
\*---------------------------------------------------------------------------*/
FoamFile
{
    version     2.0;
    format      ascii;
    class       volScalarField;
    location    "0.01";
    object      k;
}
// * * * * * * * * * * * * * * * * * * * * * * * * * * * * * * * * * * * * * //

dimensions      [0 2 -2 0 0 0 0];

internalField   nonuniform List<scalar> 
77997
(
0.00374367
0.003743373
0.003743328
0.003743319
0.003743317
0.003743317
0.003743317
0.003743317
0.003743318
0.003743669
0.003747092
0.003747027
0.003747003
0.003746997
0.003746996
0.003746996
0.003746996
0.003746996
0.003743374
0.003747032
0.003746967
0.003746944
0.003746938
0.003746937
0.003746937
0.003746937
0.003746937
0.003743334
0.003747032
0.003746979
0.00374696
0.003746956
0.003746955
0.003746955
0.003746955
0.003746956
0.003743342
0.00374709
0.003747073
0.003747062
0.00374706
0.003747059
0.003747059
0.003747059
0.003747059
0.003743481
0.003743712
0.00374358
0.003743558
0.003743556
0.003743556
0.003743555
0.003743556
0.003743557
0.003743559
0.003734362
0.003736368
0.003736333
0.003736329
0.003736328
0.003736327
0.003736331
0.003736325
0.003736298
0.003736328
0.003750353
0.003750477
0.003750562
0.003750671
0.003750822
0.003751012
0.003751241
0.003751511
0.003751822
0.003749472
0.003749513
0.003749533
0.003749558
0.003749591
0.00374963
0.003749676
0.003749731
0.003749794
0.003749423
0.003749431
0.003749446
0.003749469
0.003749502
0.003749542
0.00374959
0.003749646
0.003749711
0.003749416
0.003749438
0.003749456
0.003749481
0.003749515
0.003749557
0.003749606
0.003749663
0.003749729
0.003749386
0.003749404
0.003749418
0.003749443
0.003749476
0.003749517
0.003749566
0.003749623
0.003749688
0.003749358
0.003749375
0.00374939
0.003749415
0.003749448
0.003749488
0.003749536
0.003749592
0.003749657
0.003749322
0.003749336
0.003749349
0.003749373
0.003749406
0.003749445
0.003749493
0.003749548
0.003749611
0.00374928
0.003749292
0.003749304
0.003749327
0.003749359
0.003749398
0.003749445
0.003749499
0.00374956
0.003749234
0.003749242
0.003749253
0.003749275
0.003749306
0.003749345
0.00374939
0.003749443
0.003749504
0.003749183
0.003749187
0.003749196
0.003749218
0.003749249
0.003749286
0.003749331
0.003749383
0.003749442
0.003749127
0.003749127
0.003749135
0.003749156
0.003749186
0.003749223
0.003749268
0.003749318
0.003749376
0.003749067
0.003749063
0.00374907
0.00374909
0.00374912
0.003749156
0.0037492
0.00374925
0.003749306
0.003749004
0.003748996
0.003749001
0.00374902
0.003749049
0.003749085
0.003749128
0.003749178
0.003749233
0.003748938
0.003748924
0.003748928
0.003748947
0.003748975
0.003749011
0.003749054
0.003749103
0.003749158
0.003748868
0.00374885
0.003748852
0.00374887
0.003748898
0.003748934
0.003748976
0.003749025
0.00374908
0.003748796
0.003748773
0.003748773
0.003748791
0.003748819
0.003748854
0.003748897
0.003748945
0.003749
0.003748722
0.003748694
0.003748692
0.003748709
0.003748737
0.003748773
0.003748815
0.003748864
0.003748919
0.003743714
0.003747025
0.00374698
0.003746966
0.003746964
0.003746964
0.003746963
0.003746963
0.003743714
0.003712965
0.003712967
0.003712967
0.003712967
0.003712967
0.003712967
0.003712967
0.003712967
0.003747023
0.003712967
0.003712965
0.003712965
0.003712965
0.003712965
0.003712965
0.003712965
0.003712965
0.003746994
0.003712967
0.003712965
0.003712965
0.003712965
0.003712965
0.003712965
0.003712965
0.003712965
0.003747035
0.003712967
0.003712965
0.003712965
0.003712965
0.003712965
0.003712965
0.003712965
0.003712965
0.003743665
0.003712964
0.003712967
0.003712967
0.003712967
0.003712967
0.003712967
0.003712967
0.003712967
0.003743729
0.003742947
0.003742798
0.003742766
0.003742761
0.003742761
0.003742761
0.003742762
0.003742763
0.003713098
0.003713091
0.003713081
0.003713083
0.003713085
0.003713088
0.003713092
0.003713095
0.0037131
0.003748785
0.003713018
0.003713018
0.00371302
0.003713021
0.003713023
0.003713025
0.003713027
0.00371303
0.003713033
0.003749473
0.003713014
0.003713014
0.003713015
0.003713016
0.003713018
0.00371302
0.003713022
0.003713025
0.003713029
0.003749554
0.003713014
0.003713014
0.003713015
0.003713016
0.003713018
0.00371302
0.003713022
0.003713025
0.003713029
0.003749502
0.003713014
0.003713014
0.003713015
0.003713016
0.003713018
0.003713021
0.003713023
0.003713026
0.00371303
0.003749433
0.003713014
0.003713014
0.003713015
0.003713017
0.003713019
0.003713021
0.003713023
0.003713026
0.00371303
0.003749342
0.003713014
0.003713014
0.003713015
0.003713017
0.003713019
0.003713021
0.003713024
0.003713027
0.003713031
0.003749237
0.003713014
0.003713014
0.003713015
0.003713017
0.003713019
0.003713022
0.003713024
0.003713027
0.003713031
0.003749119
0.003713013
0.003713014
0.003713015
0.003713017
0.003713019
0.003713022
0.003713025
0.003713028
0.003713031
0.003748989
0.003713013
0.003713014
0.003713015
0.003713017
0.003713019
0.003713022
0.003713025
0.003713028
0.003713031
0.003748849
0.003713013
0.003713013
0.003713015
0.003713017
0.003713019
0.003713022
0.003713025
0.003713028
0.003713031
0.0037487
0.003713012
0.003713013
0.003713015
0.003713017
0.003713019
0.003713022
0.003713024
0.003713027
0.003713031
0.003748543
0.003713012
0.003713013
0.003713015
0.003713016
0.003713019
0.003713021
0.003713024
0.003713027
0.00371303
0.003748377
0.003713011
0.003713012
0.003713014
0.003713016
0.003713018
0.003713021
0.003713023
0.003713026
0.003713029
0.003748204
0.00371301
0.003713012
0.003713013
0.003713015
0.003713018
0.00371302
0.003713023
0.003713026
0.003713029
0.003748026
0.003713009
0.003713011
0.003713013
0.003713015
0.003713017
0.003713019
0.003713022
0.003713025
0.003713028
0.003713058
0.003713008
0.00371301
0.003713012
0.003713014
0.003713016
0.003713018
0.003713021
0.003713024
0.003713027
0.003743747
0.003747028
0.003746953
0.003746932
0.003746928
0.003746928
0.003746928
0.003746927
0.003743746
0.003712963
0.003712965
0.003712965
0.003712965
0.003712965
0.003712965
0.003712965
0.003712965
0.003747021
0.003712965
0.003712963
0.003712963
0.003712963
0.003712963
0.003712963
0.003712963
0.003712963
0.00374697
0.003712965
0.003712963
0.003712963
0.003712963
0.003712963
0.003712963
0.003712963
0.003712963
0.003747034
0.003712965
0.003712965
0.003712965
0.003712965
0.003712965
0.003712965
0.003712965
0.003712965
0.00374355
0.003712967
0.003747814
0.003747615
0.003747546
0.003747529
0.003747525
0.003747524
0.003747525
0.003742993
0.003713088
0.003713022
0.003713018
0.003713019
0.00371302
0.003713021
0.003713023
0.003713025
0.003749473
0.003713015
0.003713008
0.00371301
0.003713012
0.003713013
0.003713015
0.003713017
0.00371302
0.003749403
0.003713013
0.00371301
0.003713011
0.003713012
0.003713014
0.003713016
0.003713018
0.003713021
0.003713024
0.003749399
0.003713013
0.00371301
0.003713011
0.003713013
0.003713015
0.003713017
0.003713019
0.003713022
0.003713025
0.003749367
0.003713013
0.003713011
0.003713012
0.003713014
0.003713015
0.003713018
0.00371302
0.003713023
0.003713027
0.003749339
0.003713013
0.003713011
0.003713013
0.003713014
0.003713016
0.003713018
0.003713021
0.003713024
0.003713027
0.0037493
0.003713013
0.003713012
0.003713013
0.003713015
0.003713017
0.003713019
0.003713022
0.003713025
0.003713028
0.003749257
0.003713013
0.003713012
0.003713013
0.003713015
0.003713017
0.003713019
0.003713022
0.003713025
0.003713029
0.003749209
0.003713013
0.003713012
0.003713013
0.003713015
0.003713017
0.00371302
0.003713022
0.003713025
0.003713029
0.003749155
0.003713012
0.003713012
0.003713013
0.003713015
0.003713017
0.00371302
0.003713022
0.003713026
0.003713029
0.003749097
0.003713012
0.003713011
0.003713013
0.003713015
0.003713017
0.00371302
0.003713022
0.003713025
0.003713029
0.003749035
0.003713012
0.003713011
0.003713013
0.003713015
0.003713017
0.003713019
0.003713022
0.003713025
0.003713028
0.003748969
0.003713011
0.003713011
0.003713013
0.003713014
0.003713017
0.003713019
0.003713022
0.003713025
0.003713028
0.0037489
0.003713011
0.00371301
0.003713012
0.003713014
0.003713016
0.003713019
0.003713021
0.003713024
0.003713027
0.003748828
0.00371301
0.00371301
0.003713011
0.003713013
0.003713016
0.003713018
0.003713021
0.003713023
0.003713026
0.003748753
0.003713009
0.003713009
0.003713011
0.003713013
0.003713015
0.003713017
0.00371302
0.003713023
0.003713025
0.003748676
0.003713008
0.003713008
0.00371301
0.003713012
0.003713014
0.003713016
0.003713019
0.003713022
0.003713024
0.003743745
0.003747025
0.003746947
0.003746923
0.00374692
0.00374692
0.003746919
0.003746919
0.003743743
0.003712963
0.003712965
0.003712965
0.003712965
0.003712965
0.003712965
0.003712965
0.003712965
0.003747014
0.003712965
0.003712963
0.003712963
0.003712963
0.003712963
0.003712963
0.003712963
0.003712963
0.003746962
0.003712965
0.003712963
0.003712963
0.003712963
0.003712963
0.003712963
0.003712963
0.003712963
0.003747027
0.003712965
0.003712965
0.003712965
0.003712965
0.003712965
0.003712965
0.003712965
0.003712965
0.003743529
0.003712967
0.003747615
0.003747354
0.003747241
0.00374721
0.003747203
0.003747202
0.003747202
0.003742849
0.003713077
0.003713016
0.003713015
0.003713017
0.003713017
0.003713019
0.00371302
0.003713022
0.003749495
0.003713015
0.003713008
0.00371301
0.00371301
0.003713012
0.003713014
0.003713016
0.003713019
0.00374941
0.003713012
0.003713009
0.00371301
0.003713011
0.003713013
0.003713015
0.003713017
0.00371302
0.003749416
0.003713012
0.00371301
0.003713011
0.003713012
0.003713014
0.003713016
0.003713018
0.003713021
0.003713025
0.003749381
0.003713013
0.003713011
0.003713012
0.003713013
0.003713015
0.003713017
0.00371302
0.003713023
0.003713026
0.003749352
0.003713012
0.003713011
0.003713013
0.003713014
0.003713016
0.003713018
0.003713021
0.003713024
0.003713027
0.003749311
0.003713012
0.003713012
0.003713013
0.003713015
0.003713017
0.003713019
0.003713022
0.003713025
0.003713028
0.003749266
0.003713012
0.003713012
0.003713013
0.003713015
0.003713017
0.003713019
0.003713022
0.003713025
0.003713029
0.003749215
0.003713012
0.003713012
0.003713013
0.003713015
0.003713017
0.00371302
0.003713022
0.003713025
0.003713029
0.003749159
0.003713012
0.003713012
0.003713013
0.003713015
0.003713017
0.00371302
0.003713022
0.003713026
0.003713029
0.003749099
0.003713012
0.003713011
0.003713013
0.003713015
0.003713017
0.00371302
0.003713022
0.003713025
0.003713029
0.003749034
0.003713012
0.003713011
0.003713013
0.003713015
0.003713017
0.003713019
0.003713022
0.003713025
0.003713029
0.003748965
0.003713011
0.003713011
0.003713012
0.003713014
0.003713017
0.003713019
0.003713022
0.003713025
0.003713028
0.003748892
0.00371301
0.00371301
0.003713012
0.003713014
0.003713016
0.003713019
0.003713021
0.003713024
0.003713027
0.003748817
0.00371301
0.00371301
0.003713011
0.003713013
0.003713016
0.003713018
0.003713021
0.003713023
0.003713026
0.003748738
0.003713009
0.003713009
0.003713011
0.003713013
0.003713015
0.003713017
0.00371302
0.003713023
0.003713025
0.003748658
0.003713008
0.003713008
0.00371301
0.003713012
0.003713014
0.003713016
0.003713019
0.003713022
0.003713024
0.003743745
0.003747027
0.003746951
0.003746927
0.003746924
0.003746924
0.003746923
0.003746923
0.003743742
0.003712963
0.003712965
0.003712965
0.003712965
0.003712965
0.003712965
0.003712965
0.003712965
0.003747013
0.003712965
0.003712963
0.003712963
0.003712963
0.003712963
0.003712963
0.003712963
0.003712963
0.003746962
0.003712965
0.003712963
0.003712963
0.003712963
0.003712963
0.003712963
0.003712963
0.003712963
0.003747026
0.003712965
0.003712965
0.003712965
0.003712965
0.003712965
0.003712965
0.003712965
0.003712965
0.003743527
0.003712967
0.003747551
0.003747248
0.003747112
0.003747074
0.003747065
0.003747064
0.003747064
0.003742818
0.003713077
0.003713017
0.003713016
0.003713018
0.003713018
0.00371302
0.003713021
0.003713023
0.003749494
0.003713015
0.003713008
0.003713009
0.003713011
0.003713012
0.003713014
0.003713016
0.003713019
0.003749408
0.003713013
0.003713008
0.003713009
0.003713011
0.003713012
0.003713014
0.003713017
0.003713019
0.003749414
0.003713012
0.00371301
0.00371301
0.003713011
0.003713013
0.003713015
0.003713018
0.003713021
0.003749377
0.003713013
0.003713011
0.003713012
0.003713013
0.003713014
0.003713017
0.003713019
0.003713022
0.003713025
0.003749348
0.003713012
0.003713011
0.003713012
0.003713014
0.003713016
0.003713018
0.00371302
0.003713023
0.003713027
0.003749307
0.003713012
0.003713011
0.003713013
0.003713014
0.003713016
0.003713019
0.003713021
0.003713024
0.003713028
0.003749261
0.003713012
0.003713012
0.003713013
0.003713015
0.003713017
0.003713019
0.003713022
0.003713025
0.003713029
0.00374921
0.003713012
0.003713012
0.003713013
0.003713015
0.003713017
0.00371302
0.003713022
0.003713025
0.003713029
0.003749153
0.003713012
0.003713012
0.003713013
0.003713015
0.003713017
0.00371302
0.003713022
0.003713026
0.003713029
0.003749092
0.003713012
0.003713011
0.003713013
0.003713015
0.003713017
0.00371302
0.003713022
0.003713025
0.003713029
0.003749026
0.003713011
0.003713011
0.003713013
0.003713015
0.003713017
0.003713019
0.003713022
0.003713025
0.003713028
0.003748957
0.003713011
0.003713011
0.003713012
0.003713014
0.003713017
0.003713019
0.003713022
0.003713025
0.003713028
0.003748883
0.00371301
0.00371301
0.003713012
0.003713014
0.003713016
0.003713019
0.003713021
0.003713024
0.003713027
0.003748807
0.00371301
0.003713009
0.003713011
0.003713013
0.003713016
0.003713018
0.003713021
0.003713023
0.003713026
0.003748728
0.003713009
0.003713009
0.003713011
0.003713013
0.003713015
0.003713017
0.00371302
0.003713023
0.003713025
0.003748646
0.003713008
0.003713008
0.00371301
0.003713012
0.003713014
0.003713016
0.003713019
0.003713022
0.003713024
0.003743746
0.00374703
0.003746956
0.003746934
0.003746931
0.003746931
0.00374693
0.003746929
0.003743742
0.003712963
0.003712965
0.003712965
0.003712965
0.003712965
0.003712965
0.003712965
0.003712965
0.003747016
0.003712965
0.003712963
0.003712963
0.003712963
0.003712963
0.003712963
0.003712963
0.003712963
0.003746965
0.003712965
0.003712963
0.003712963
0.003712963
0.003712963
0.003712963
0.003712963
0.003712963
0.003747029
0.003712965
0.003712965
0.003712965
0.003712965
0.003712965
0.003712965
0.003712965
0.003712965
0.003743527
0.003712967
0.00374755
0.003747248
0.003747112
0.003747073
0.003747065
0.003747063
0.003747064
0.003742815
0.003713077
0.003713017
0.003713016
0.003713018
0.003713018
0.00371302
0.003713021
0.003713023
0.003749494
0.003713015
0.003713008
0.003713009
0.003713011
0.003713012
0.003713014
0.003713016
0.003713019
0.003749408
0.003713013
0.003713008
0.003713009
0.003713011
0.003713012
0.003713014
0.003713016
0.003713019
0.003749414
0.003713012
0.00371301
0.00371301
0.003713011
0.003713013
0.003713015
0.003713018
0.003713021
0.003749377
0.003713013
0.003713011
0.003713012
0.003713013
0.003713014
0.003713017
0.003713019
0.003713022
0.003749348
0.003713012
0.003713011
0.003713012
0.003713014
0.003713016
0.003713018
0.00371302
0.003713023
0.003749307
0.003713012
0.003713011
0.003713013
0.003713014
0.003713016
0.003713019
0.003713021
0.003713024
0.003713028
0.003749262
0.003713012
0.003713012
0.003713013
0.003713015
0.003713017
0.003713019
0.003713022
0.003713025
0.003713029
0.00374921
0.003713012
0.003713012
0.003713013
0.003713015
0.003713017
0.00371302
0.003713022
0.003713025
0.003713029
0.003749153
0.003713012
0.003713012
0.003713013
0.003713015
0.003713017
0.00371302
0.003713022
0.003713026
0.003713029
0.003749092
0.003713012
0.003713011
0.003713013
0.003713015
0.003713017
0.00371302
0.003713022
0.003713025
0.003713029
0.003749026
0.003713011
0.003713011
0.003713013
0.003713015
0.003713017
0.003713019
0.003713022
0.003713025
0.003713029
0.003748957
0.003713011
0.003713011
0.003713012
0.003713014
0.003713017
0.003713019
0.003713022
0.003713025
0.003713028
0.003748883
0.00371301
0.00371301
0.003713012
0.003713014
0.003713016
0.003713019
0.003713021
0.003713024
0.003713027
0.003748807
0.00371301
0.003713009
0.003713011
0.003713013
0.003713016
0.003713018
0.003713021
0.003713023
0.003713026
0.003748728
0.003713009
0.003713009
0.00371301
0.003713013
0.003713015
0.003713017
0.00371302
0.003713023
0.003713025
0.003748646
0.003713008
0.003713008
0.00371301
0.003713012
0.003713014
0.003713016
0.003713019
0.003713022
0.003713024
0.003743749
0.003747043
0.003746976
0.003746958
0.003746956
0.003746956
0.003746955
0.003746954
0.003743744
0.003712963
0.003712965
0.003712965
0.003712965
0.003712965
0.003712965
0.003712965
0.003712965
0.00374703
0.003712965
0.003712963
0.003712963
0.003712963
0.003712963
0.003712963
0.003712963
0.003712963
0.003746983
0.003712965
0.003712963
0.003712963
0.003712963
0.003712963
0.003712963
0.003712963
0.003712963
0.003747043
0.003712965
0.003712965
0.003712965
0.003712965
0.003712965
0.003712965
0.003712965
0.003712965
0.003743534
0.003712967
0.003747614
0.003747353
0.00374724
0.003747209
0.003747202
0.003747201
0.003747201
0.003742825
0.003713078
0.003713016
0.003713015
0.003713017
0.003713017
0.003713019
0.00371302
0.003713022
0.003749495
0.003713015
0.003713008
0.00371301
0.00371301
0.003713012
0.003713014
0.003713016
0.003713019
0.00374941
0.003713012
0.003713009
0.00371301
0.003713011
0.003713013
0.003713015
0.003713017
0.00371302
0.003749417
0.003713012
0.00371301
0.003713011
0.003713012
0.003713014
0.003713016
0.003713018
0.003713021
0.003749381
0.003713013
0.003713011
0.003713012
0.003713013
0.003713015
0.003713017
0.00371302
0.003713023
0.003749352
0.003713012
0.003713011
0.003713013
0.003713014
0.003713016
0.003713018
0.003713021
0.003713024
0.003749311
0.003713013
0.003713012
0.003713013
0.003713015
0.003713017
0.003713019
0.003713022
0.003713025
0.003749266
0.003713012
0.003713012
0.003713013
0.003713015
0.003713017
0.003713019
0.003713022
0.003713025
0.003713029
0.003749215
0.003713012
0.003713012
0.003713013
0.003713015
0.003713017
0.00371302
0.003713022
0.003713025
0.003713029
0.003749159
0.003713012
0.003713012
0.003713013
0.003713015
0.003713017
0.00371302
0.003713022
0.003713026
0.003713029
0.003749099
0.003713012
0.003713011
0.003713013
0.003713015
0.003713017
0.00371302
0.003713022
0.003713025
0.003713029
0.003749034
0.003713012
0.003713011
0.003713013
0.003713015
0.003713017
0.003713019
0.003713022
0.003713025
0.003713029
0.003748965
0.003713011
0.003713011
0.003713012
0.003713014
0.003713017
0.003713019
0.003713022
0.003713025
0.003713028
0.003748892
0.00371301
0.00371301
0.003713012
0.003713014
0.003713016
0.003713019
0.003713021
0.003713024
0.003713027
0.003748817
0.00371301
0.003713009
0.003713011
0.003713013
0.003713016
0.003713018
0.003713021
0.003713023
0.003713026
0.003748738
0.003713009
0.003713009
0.00371301
0.003713012
0.003713015
0.003713017
0.00371302
0.003713023
0.003713026
0.003748658
0.003713008
0.003713008
0.00371301
0.003713012
0.003713014
0.003713016
0.003713019
0.003713022
0.003713024
0.003743774
0.003747079
0.003747045
0.003747034
0.003747032
0.003747032
0.003747031
0.00374703
0.00374377
0.003712963
0.003712965
0.003712965
0.003712965
0.003712965
0.003712965
0.003712965
0.003712965
0.003747069
0.003712965
0.003712963
0.003712963
0.003712963
0.003712963
0.003712963
0.003712963
0.003712963
0.003747047
0.003712965
0.003712963
0.003712963
0.003712963
0.003712963
0.003712963
0.003712963
0.003712963
0.003747081
0.003712965
0.003712965
0.003712965
0.003712965
0.003712965
0.003712965
0.003712965
0.003712965
0.003743592
0.003712967
0.003747813
0.003747614
0.003747546
0.003747528
0.003747524
0.003747524
0.003747525
0.003742893
0.003713082
0.003713021
0.003713017
0.003713019
0.00371302
0.003713021
0.003713023
0.003713025
0.003749473
0.003713015
0.003713008
0.00371301
0.003713012
0.003713013
0.003713015
0.003713017
0.00371302
0.003749403
0.003713013
0.00371301
0.003713011
0.003713012
0.003713014
0.003713016
0.003713018
0.003713021
0.0037494
0.003713013
0.00371301
0.003713012
0.003713013
0.003713015
0.003713017
0.003713019
0.003713022
0.003749368
0.003713013
0.003713011
0.003713012
0.003713014
0.003713015
0.003713018
0.00371302
0.003713023
0.00374934
0.003713013
0.003713011
0.003713013
0.003713014
0.003713016
0.003713018
0.003713021
0.003713024
0.003749301
0.003713013
0.003713012
0.003713013
0.003713015
0.003713017
0.003713019
0.003713022
0.003713025
0.003749258
0.003713013
0.003713012
0.003713013
0.003713015
0.003713017
0.003713019
0.003713022
0.003713025
0.003749209
0.003713013
0.003713012
0.003713013
0.003713015
0.003713017
0.00371302
0.003713022
0.003713025
0.003713029
0.003749156
0.003713013
0.003713012
0.003713013
0.003713015
0.003713017
0.00371302
0.003713022
0.003713026
0.003713029
0.003749098
0.003713012
0.003713011
0.003713013
0.003713015
0.003713017
0.00371302
0.003713022
0.003713025
0.003713029
0.003749035
0.003713012
0.003713011
0.003713013
0.003713015
0.003713017
0.00371302
0.003713022
0.003713025
0.003713029
0.00374897
0.003713011
0.003713011
0.003713012
0.003713014
0.003713017
0.003713019
0.003713022
0.003713025
0.003713028
0.0037489
0.003713011
0.00371301
0.003713012
0.003713014
0.003713016
0.003713019
0.003713021
0.003713024
0.003713027
0.003748828
0.00371301
0.00371301
0.003713011
0.003713013
0.003713016
0.003713018
0.003713021
0.003713023
0.003713026
0.003748753
0.003713009
0.003713009
0.003713011
0.003713012
0.003713015
0.003713017
0.00371302
0.003713023
0.003713026
0.003748676
0.003713008
0.003713008
0.00371301
0.003713012
0.003713014
0.003713017
0.003713019
0.003713022
0.003713024
0.003743803
0.003743674
0.003743506
0.0037435
0.003743473
0.003743466
0.003743465
0.003743469
0.003743452
0.003743812
0.003712965
0.003712965
0.003712965
0.003712965
0.003712965
0.003712965
0.003712965
0.003712965
0.003743672
0.003712965
0.003712965
0.003712965
0.003712965
0.003712965
0.003712965
0.003712965
0.003712965
0.00374348
0.003712965
0.003712965
0.003712965
0.003712965
0.003712965
0.003712965
0.003712965
0.003712965
0.003743517
0.003712965
0.003712965
0.003712965
0.003712965
0.003712965
0.003712965
0.003712965
0.003712965
0.00374364
0.003712964
0.003712967
0.003712967
0.003712967
0.003712967
0.003712967
0.003712967
0.003712967
0.003743321
0.003737903
0.0037375
0.003737342
0.003737323
0.00373733
0.003737333
0.00373734
0.003737343
0.003713118
0.003713085
0.003713091
0.003713093
0.003713091
0.003713093
0.003713097
0.003713099
0.003713102
0.00374902
0.003713019
0.00371302
0.003713021
0.003713022
0.003713025
0.003713026
0.003713029
0.003713031
0.003749459
0.003713014
0.003713013
0.003713015
0.003713016
0.003713018
0.00371302
0.003713022
0.003713025
0.003749616
0.003713014
0.003713014
0.003713015
0.003713016
0.003713018
0.00371302
0.003713022
0.003713025
0.003749577
0.003713014
0.003713014
0.003713015
0.003713016
0.003713018
0.003713021
0.003713023
0.003713026
0.003749509
0.003713014
0.003713014
0.003713015
0.003713017
0.003713019
0.003713021
0.003713023
0.003713026
0.003749391
0.003713014
0.003713014
0.003713015
0.003713017
0.003713019
0.003713021
0.003713024
0.003713027
0.003749298
0.003713014
0.003713014
0.003713015
0.003713017
0.003713019
0.003713022
0.003713024
0.003713027
0.003749189
0.003713013
0.003713014
0.003713015
0.003713017
0.003713019
0.003713022
0.003713025
0.003713028
0.003749049
0.003713013
0.003713014
0.003713015
0.003713017
0.003713019
0.003713022
0.003713025
0.003713028
0.003713031
0.00374891
0.003713013
0.003713013
0.003713015
0.003713017
0.003713019
0.003713022
0.003713025
0.003713028
0.003713031
0.003748745
0.003713012
0.003713013
0.003713015
0.003713017
0.003713019
0.003713022
0.003713024
0.003713027
0.003713031
0.003748585
0.003713012
0.003713013
0.003713015
0.003713016
0.003713019
0.003713021
0.003713024
0.003713027
0.00371303
0.003748425
0.003713011
0.003713012
0.003713014
0.003713016
0.003713018
0.003713021
0.003713023
0.003713026
0.003713029
0.003748225
0.00371301
0.003713012
0.003713013
0.003713015
0.003713018
0.00371302
0.003713023
0.003713026
0.003713029
0.003748035
0.00371301
0.003713011
0.003713012
0.003713014
0.003713017
0.003713019
0.003713022
0.003713025
0.003713028
0.003747794
0.00371301
0.00371301
0.003713011
0.003713013
0.003713016
0.003713018
0.003713021
0.003713024
0.003713027
0.003743745
0.003743715
0.003736716
0.003737183
0.003736107
0.003735951
0.003736227
0.003736108
0.003735888
0.003736095
0.003747171
0.00374711
0.003747094
0.003747093
0.003747092
0.00374709
0.003747089
0.00374709
0.003735745
0.003747118
0.003747005
0.003746973
0.003746966
0.003746964
0.003746964
0.003746964
0.003746964
0.003735773
0.003747115
0.003747004
0.003746972
0.003746965
0.003746964
0.003746964
0.003746964
0.003746964
0.003743743
0.003747155
0.003747091
0.00374707
0.003747064
0.003747063
0.003747064
0.003747065
0.003747066
0.003743739
0.003712971
0.003712971
0.003712971
0.003712971
0.003712971
0.003712971
0.003712971
0.003712971
0.003712971
0.003744115
0.003743907
0.003743904
0.003743817
0.003743774
0.003743853
0.003743846
0.003743899
0.003743908
0.003713331
0.003713183
0.003713224
0.003713254
0.003713191
0.003713259
0.003713171
0.003713264
0.003713277
0.003751586
0.003749457
0.003749492
0.00374951
0.003749537
0.003749569
0.003749607
0.003749659
0.003749722
0.003752366
0.003749434
0.003749446
0.003749464
0.003749483
0.003749515
0.003749561
0.003749605
0.003749653
0.003752432
0.003749416
0.003749437
0.003749454
0.00374948
0.003749513
0.003749555
0.003749605
0.003749663
0.003752479
0.003749386
0.003749406
0.003749421
0.003749445
0.003749478
0.00374952
0.003749568
0.003749624
0.003751752
0.003749356
0.003749376
0.003749391
0.003749415
0.003749448
0.003749489
0.003749537
0.003749593
0.003751015
0.003749323
0.003749336
0.00374935
0.003749374
0.003749406
0.003749446
0.003749493
0.003749548
0.00375157
0.003749281
0.003749292
0.003749304
0.003749328
0.00374936
0.003749399
0.003749445
0.003749499
0.003750665
0.003749235
0.003749242
0.003749253
0.003749275
0.003749307
0.003749345
0.003749391
0.003749444
0.003750899
0.003749183
0.003749187
0.003749197
0.003749218
0.003749249
0.003749287
0.003749332
0.003749384
0.003750563
0.003749126
0.003749127
0.003749135
0.003749157
0.003749187
0.003749224
0.003749268
0.003749319
0.003749376
0.003749939
0.003749068
0.003749063
0.00374907
0.00374909
0.00374912
0.003749157
0.0037492
0.00374925
0.003749307
0.003749794
0.003749004
0.003748996
0.003749001
0.00374902
0.00374905
0.003749086
0.003749129
0.003749178
0.003749234
0.00374925
0.003748937
0.003748924
0.003748928
0.003748947
0.003748976
0.003749011
0.003749054
0.003749103
0.003749158
0.003749112
0.003748867
0.00374885
0.003748852
0.003748872
0.0037489
0.003748936
0.003748977
0.003749025
0.00374908
0.003748192
0.003748793
0.003748773
0.003748772
0.003748789
0.003748817
0.003748853
0.003748896
0.003748945
0.003749
0.003747772
0.003748719
0.003748696
0.003748693
0.003748725
0.003748751
0.003748787
0.003748821
0.003748866
0.00374892
0.003734041
0.003734038
0.003743759
0.003735581
0.003735576
0.003712968
0.003743748
0.003743475
0.003743363
0.003743554
0.003712975
0.003743222
0.003712975
0.003743209
0.00374334
0.003743142
0.00374324
0.003712978
0.003743041
0.003712978
0.003743126
0.003743336
0.003743151
0.003742997
0.003712978
0.003743002
0.003712978
0.003743213
0.00374338
0.003743445
0.003743055
0.003712978
0.00374329
0.003712978
0.003743492
0.003743699
0.003743937
0.003743329
0.003712971
0.003734578
0.003712972
0.003736398
0.003756417
0.003730595
0.003744201
0.003714164
0.003736336
0.003756358
0.00375626
0.003744008
0.003743887
0.00371612
0.003716138
0.003736332
0.003756344
0.003756398
0.003743811
0.003743778
0.003715189
0.003715266
0.003736332
0.003756492
0.003756612
0.003743763
0.003743758
0.003715166
0.003715543
0.003736327
0.003756743
0.003756946
0.003743755
0.003743754
0.003715184
0.00371579
0.003736327
0.00375711
0.003757379
0.003743754
0.003743754
0.003715225
0.0037161
0.003736327
0.003757579
0.00375791
0.003743754
0.003743754
0.003715282
0.003716376
0.003736298
0.003758148
0.003758539
0.003743754
0.003743754
0.003715351
0.003716555
0.003736326
0.003758817
0.003759271
0.003743755
0.003743757
0.003715431
0.003716697
0.003759592
0.003743757
0.003715532
0.003750488
0.003749656
0.003715051
0.003751775
0.00371317
0.003749176
0.003749474
0.003751634
0.003713152
0.003752352
0.003713097
0.003749325
0.003749376
0.003752357
0.003713145
0.003752653
0.0037131
0.003749366
0.003749329
0.00375243
0.003713151
0.00375253
0.003713099
0.003749323
0.003749273
0.003752328
0.00371315
0.003752358
0.003713098
0.003749266
0.0037492
0.003752152
0.00371315
0.003752127
0.003713097
0.00374919
0.003749112
0.003751916
0.003713149
0.003751853
0.003713095
0.0037491
0.003749012
0.00375164
0.003713147
0.003751538
0.003713093
0.003748998
0.0037489
0.003751325
0.003713145
0.003751187
0.00371309
0.003748885
0.003748778
0.003750975
0.003713143
0.003750803
0.003713087
0.003748761
0.003748645
0.003750592
0.00371314
0.003750388
0.003713084
0.003748628
0.003748504
0.00375018
0.003713137
0.003749946
0.003713081
0.003748485
0.003748355
0.003749741
0.003713133
0.003749477
0.003713077
0.003748335
0.003748198
0.003749277
0.003713129
0.003748986
0.003713073
0.003748178
0.003748036
0.00374879
0.003713125
0.003748473
0.003713069
0.003748014
0.003747867
0.003748284
0.00371312
0.003747944
0.003713065
0.003747844
0.003747693
0.003747759
0.003713115
0.003747401
0.003713061
0.003735745
0.003735742
0.003712964
0.00373583
0.00373583
0.003712964
0.003744153
0.003716146
0.003744072
0.003715548
0.003735828
0.003735828
0.003712964
0.003735826
0.00373583
0.003712964
0.003744011
0.003715191
0.003743982
0.003715179
0.003735827
0.003735829
0.003712964
0.003735826
0.00373583
0.003712964
0.003743969
0.003715354
0.003743964
0.003715131
0.003735828
0.003735828
0.003712964
0.003735826
0.003735831
0.003712964
0.003743962
0.003715161
0.003743961
0.003715124
0.003735826
0.00373583
0.003712964
0.003735827
0.00373583
0.003712964
0.003743961
0.003715123
0.003743962
0.003715156
0.00373583