/*--------------------------------*- C++ -*----------------------------------*\
  =========                 |
  \\      /  F ield         | OpenFOAM: The Open Source CFD Toolbox
   \\    /   O peration     | Website:  https://openfoam.org
    \\  /    A nd           | Version:  7
     \\/     M anipulation  |
\*---------------------------------------------------------------------------*/
FoamFile
{
    version     2.0;
    format      ascii;
    class       volScalarField;
    location    "0.04";
    object      epsilon;
}
// * * * * * * * * * * * * * * * * * * * * * * * * * * * * * * * * * * * * * //

dimensions      [0 2 -3 0 0 0 0];

internalField   nonuniform List<scalar> 
53911
(
0.001928731
0.001977979
0.002004873
0.001991903
0.001974027
0.001972922
0.001973025
0.001975001
0.001996231
0.001993122
0.001991458
0.00200286
0.00197619
0.001901908
0.001962752
0.0009531585
0.0009704183
0.0009774094
0.0009791979
0.0009799673
0.0009803036
0.0009805025
0.0009805075
0.0009796572
0.0009773107
0.0009688276
0.0009416661
0.001952606
0.001970575
0.0009697249
0.00100156
0.001013824
0.001017476
0.001018758
0.001019212
0.001019245
0.001018827
0.001017562
0.00101373
0.001000199
0.0009571761
0.002008139
0.001975348
0.000977223
0.001013797
0.001029512
0.001034468
0.001036231
0.001036859
0.001036895
0.00103634
0.001034703
0.001029757
0.001012951
0.0009647538
0.0020198
0.001976592
0.0009798948
0.001017717
0.001034657
0.001040294
0.001042403
0.001043185
0.001043262
0.001042642
0.001040771
0.001035221
0.001017174
0.0009670775
0.00202796
0.002003074
0.0009815113
0.001019299
0.001036636
0.001042609
0.001044921
0.001045827
0.001045957
0.001045326
0.001043347
0.001037531
0.001018923
0.0009677083
0.002022627
0.002016595
0.0009820325
0.001020004
0.001037573
0.001043727
0.001046181
0.001047181
0.001047379
0.001046786
0.001044816
0.001038938
0.001020029
0.0009681992
0.002025481
0.001989222
0.000981768
0.001020314
0.001038071
0.001044348
0.001046895
0.001047978
0.001048255
0.001047759
0.001045928
0.001040327
0.001021715
0.0009688093
0.002022856
0.001985046
0.0009816543
0.001020475
0.001038368
0.00104472
0.001047349
0.001048507
0.001048885
0.00104855
0.001047045
0.001042264
0.001026461
0.0009787345
0.002035763
0.001976422
0.0009816262
0.001020607
0.001038565
0.001044971
0.001047654
0.001048881
0.001049359
0.001049216
0.001048132
0.001044602
0.001032941
0.001004017
0.002133304
0.001997823
0.001988253
0.001988487
0.001986501
0.001994333
0.002009203
0.001978025
0.0009820056
0.001020779
0.001038715
0.00104514
0.001047867
0.001049154
0.001049731
0.00104978
0.001049165
0.001046949
0.001039201
0.001014504
0.001008313
0.000989997
0.00098766
0.0009876558
0.0009876171
0.0009874206
0.0009870193
0.002004609
0.0009828478
0.001020985
0.001038829
0.001045257
0.001048014
0.001049348
0.001050008
0.001050219
0.001049988
0.001048905
0.001045371
0.001039972
0.001035313
0.001031438
0.001029282
0.001028873
0.001028726
0.001028497
0.001028197
0.002023055
0.0009833465
0.001021122
0.001038899
0.001045326
0.001048104
0.001049474
0.001050197
0.001050529
0.001050556
0.001050198
0.001049298
0.001047898
0.001046455
0.00104533
0.001044629
0.001044243
0.001043918
0.001043549
0.001043226
0.002024163
0.0009833437
0.001021132
0.001038913
0.001045349
0.001048141
0.001049533
0.001050299
0.001050705
0.00105088
0.00105086
0.001050651
0.001050276
0.001049856
0.001049489
0.001049158
0.001048817
0.001048393
0.001047925
0.001047547
0.002018899
0.0009828756
0.001021014
0.001038868
0.00104532
0.001048117
0.001049521
0.00105031
0.001050759
0.001051012
0.001051127
0.001051137
0.001051068
0.001050956
0.001050801
0.001050569
0.001050224
0.001049741
0.001049194
0.001048748
0.001988315
0.0009820493
0.001020814
0.001038761
0.001045224
0.001048015
0.001049418
0.001050214
0.001050683
0.001050972
0.001051146
0.001051241
0.001051276
0.001051262
0.001051179
0.001050982
0.001050629
0.001050102
0.001049486
0.001048949
0.001975804
0.0009816408
0.001020626
0.001038586
0.001045036
0.001047803
0.001049193
0.00104998
0.001050451
0.001050749
0.001050944
0.001051071
0.001051145
0.00105116
0.001051098
0.001050906
0.001050534
0.001049957
0.001049238
0.001048507
0.00197797
0.0009817853
0.00102048
0.001038335
0.001044727
0.001047451
0.001048809
0.001049575
0.001050033
0.001050327
0.001050524
0.001050657
0.001050736
0.001050759
0.001050698
0.0010505
0.001050099
0.001049442
0.001048462
0.001047107
0.002004372
0.0009823282
0.001020324
0.001037996
0.001044303
0.001046968
0.00104828
0.001049013
0.001049448
0.001049726
0.001049915
0.001050042
0.001050117
0.001050134
0.001050065
0.001049848
0.001049397
0.001048579
0.001046987
0.001043097
0.002022411
0.0009825372
0.001020111
0.001037624
0.001043848
0.001046449
0.001047714
0.00104841
0.001048818
0.001049078
0.00104925
0.001049364
0.001049427
0.001049432
0.001049345
0.001049096
0.001048563
0.001047476
0.001044882
0.001036876
0.002023157
0.0009824295
0.001019905
0.001037343
0.001043517
0.001046074
0.001047308
0.001047975
0.001048362
0.001048601
0.001048756
0.001048851
0.001048895
0.001048877
0.001048759
0.001048459
0.001047805
0.001046357
0.001042564
0.001030783
0.01159519
0.01159839
0.01159016
0.01158631
0.0115878
0.01158754
0.01158793
0.01158836
0.0115889
0.01158938
0.01159039
0.01159138
0.01159742
0.01157554
0.0115992
0.0115975
0.01159758
0.01159669
0.01159765
0.01159763
0.01159762
0.01159762
0.01159763
0.01159764
0.01159765
0.01159764
0.01157686
0.000942274
0.0115995
0.01159773
0.01159769
0.01159767
0.01159767
0.01159768
0.0115977
0.01159773
0.01159777
0.01159781
0.01159787
0.01159747
0.01157195
0.0009571799
0.01159956
0.0115977
0.01159773
0.01159758
0.01159776
0.01159779
0.01159784
0.0115979
0.01159799
0.0115981
0.01159824
0.01159697
0.01156786
0.0009645019
0.01159961
0.01159776
0.01159778
0.01159779
0.01159783
0.01159788
0.01159797
0.01159807
0.01159822
0.01159832
0.01159851
0.01159675
0.01156129
0.0009654352
0.01159969
0.0115978
0.01159784
0.01159785
0.01159792
0.011598
0.01159811
0.01159827
0.0115985
0.01159859
0.01159895
0.01159731
0.01154879
0.000959967
0.01159976
0.01159785
0.01159789
0.01159792
0.011598
0.0115981
0.01159825
0.01159846
0.01159877
0.01159891
0.01159973
0.01159708
0.01152695
0.0009420103
0.01159981
0.0115979
0.01159794
0.01159797
0.01159807
0.01159819
0.01159837
0.01159864
0.01159906
0.01159955
0.01160062
0.01160082
0.01159985
0.01150375
0.01159986
0.01159794
0.01159797
0.01159801
0.01159811
0.01159825
0.01159845
0.01159876
0.01159926
0.01159987
0.0116017
0.01160102
0.01161082
0.01172138
0.0115999
0.01159797
0.011598
0.01159803
0.01159814
0.01159827
0.01159847
0.01159875
0.0115992
0.01159971
0.01160084
0.01160048
0.01159943
0.01167753
0.0117479
0.01161448
0.0116084
0.01160741
0.01160616
0.01160577
0.01159993
0.01159798
0.01159801
0.01159804
0.01159814
0.01159827
0.01159845
0.01159871
0.01159908
0.01159957
0.01160041
0.0116009
0.01160108
0.01160776
0.01160957
0.01160757
0.0116063
0.01160403
0.01160296
0.01160158
0.01159995
0.01159799
0.011598
0.01159803
0.01159812
0.01159823
0.01159839
0.01159859
0.01159886
0.01159917
0.01159961
0.01159977
0.01160047
0.01160137
0.01160139
0.01159759
0.01159523
0.01159272
0.01159106
0.01159134
0.01159997
0.01159798
0.01159799
0.01159801
0.01159808
0.01159817
0.0115983
0.01159848
0.0115987
0.01159896
0.01159937
0.01159988
0.01160068
0.01160159
0.01160192
0.01160198
0.01160178
0.01160142
0.01160122
0.01160095
0.01159997
0.01159797
0.01159797
0.01159798
0.01159804
0.01159811
0.01159823
0.01159838
0.01159856
0.01159877
0.01159908
0.01159945
0.01159992
0.01160037
0.01160029
0.01160017
0.01159997
0.01159951
0.01159928
0.01159932
0.01159997
0.01159797
0.01159797
0.01159798
0.01159804
0.0115981
0.01159822
0.01159836
0.01159853
0.01159874
0.01159901
0.01159932
0.01159968
0.01160002
0.01160021
0.01160036
0.01160035
0.01160028
0.01160019
0.01160012
0.01159996
0.01159798
0.01159798
0.01159799
0.01159805
0.01159812
0.01159823
0.01159836
0.01159852
0.0115987
0.01159891
0.01159915
0.01159939
0.0115996
0.01159973
0.01159979
0.01159978
0.01159969
0.01159963
0.01159964
0.01159995
0.01159798
0.01159798
0.01159799
0.01159806
0.01159812
0.01159823
0.01159835
0.0115985
0.01159866
0.01159884
0.01159904
0.01159924
0.01159943
0.01159956
0.01159966
0.01159968
0.01159966
0.01159965
0.01159969
0.01159992
0.01159796
0.01159797
0.01159799
0.01159805
0.01159811
0.01159822
0.01159833
0.01159846
0.01159861
0.01159877
0.01159894
0.01159911
0.01159927
0.0115994
0.01159949
0.01159953
0.01159953
0.01159955
0.01159955
0.0115999
0.01159794
0.01159796
0.01159797
0.01159804
0.01159809
0.0115982
0.0115983
0.01159843
0.01159856
0.0115987
0.01159885
0.011599
0.01159915
0.01159928
0.01159939
0.01159947
0.01159951
0.01159961
0.01159959
0.01159986
0.01159791
0.01159793
0.01159795
0.01159802
0.01159807
0.01159818
0.01159827
0.01159838
0.0115985
0.01159862
0.01159875
0.01159889
0.01159903
0.01159916
0.01159928
0.0115994
0.01159945
0.01159957
0.01159924
0.01159982
0.01159788
0.01159791
0.01159793
0.01159799
0.01159803
0.01159814
0.01159822
0.01159833
0.01159843
0.01159854
0.01159866
0.01159877
0.01159889
0.01159902
0.01159915
0.01159933
0.01159944
0.01159965
0.01159852
0.01159581
0.01145617
0.0007291693
0.000796418
0.0008199899
0.0008267224
0.0008285139
0.0008285413
0.0008267522
0.0008199205
0.0007960044
0.000727686
0.01159168
0.01157629
0.01159941
0.01159939
0.01159752
0.0115976
0.01159756
0.01159752
0.0115975
0.01159748
0.01159748
0.01159748
0.01159746
0.01159734
0.01158055
0.0009689404
0.01159961
0.01159925
0.0115993
0.01159929
0.01159929
0.0115993
0.01159932
0.01159933
0.01159936
0.0115994
0.01159944
0.01159943
0.01157662
0.0009993485
0.01159939
0.0115992
0.01159931
0.01159935
0.01159939
0.01159942
0.01159947
0.01159952
0.0115996
0.0115997
0.01159983
0.01159995
0.01157246
0.001011163
0.01159947
0.01159926
0.01159935
0.0115994
0.01159947
0.01159954
0.01159962
0.01159972
0.01159986
0.01160005
0.01160033
0.01160058
0.01156673
0.001012589
0.01159953
0.01159931
0.01159941
0.01159948
0.01159957
0.01159966
0.01159978
0.01159993
0.01160015
0.01160049
0.01160095
0.01160159
0.01155296
0.001003437
0.01159958
0.01159935
0.01159945
0.01159954
0.01159965
0.01159976
0.01159992
0.01160013
0.01160045
0.01160094
0.01160179
0.01160287
0.01152911
0.0009697789
0.01159962
0.0115994
0.0115995
0.01159959
0.01159971
0.01159985
0.01160004
0.01160031
0.01160074
0.01160147
0.01160293
0.01160616
0.01161279
0.0114958
0.01159967
0.01159943
0.01159954
0.01159963
0.01159976
0.01159991
0.01160012
0.01160043
0.01160094
0.01160182
0.01160376
0.01160806
0.01162811
0.01171995
0.01163481
0.01165027
0.01163114
0.01159971
0.01159946
0.01159956
0.01159965
0.01159978
0.01159994
0.01160014
0.01160045
0.01160091
0.01160172
0.01160321
0.01160676
0.01161563
0.01167573
0.01174886
0.01161384
0.01160866
0.01160586
0.01160482
0.01160383
0.01159974
0.01159947
0.01159957
0.01159966
0.01159978
0.01159993
0.01160012
0.01160039
0.01160078
0.0116014
0.01160234
0.0116044
0.01160823
0.01161192
0.01161214
0.01160962
0.01160794
0.01160521
0.01160418
0.01160403
0.01159976
0.01159947
0.01159956
0.01159965
0.01159976
0.01159989
0.01160006
0.01160029
0.01160059
0.01160101
0.0116016
0.01160251
0.0116041
0.01160607
0.01160739
0.01160597
0.0116048
0.01160383
0.0116032
0.01160294
0.01159976
0.01159946
0.01159955
0.01159962
0.01159972
0.01159984
0.01159998
0.01160016
0.0116004
0.0116007
0.01160111
0.01160168
0.01160244
0.01160333
0.01160369
0.01160374
0.01160347
0.01160317
0.01160299
0.01160281
0.01159976
0.01159945
0.01159953
0.0115996
0.01159968
0.01159979
0.01159991
0.01160007
0.01160026
0.01160051
0.01160083
0.01160127
0.0116018
0.01160239
0.01160274
0.01160274
0.0116026
0.01160242
0.01160227
0.01160213
0.01159976
0.01159945
0.01159953
0.01159959
0.01159968
0.01159978
0.0115999
0.01160005
0.01160023
0.01160045
0.01160073
0.01160105
0.0116014
0.01160174
0.01160198
0.01160208
0.01160209
0.01160202
0.01160195
0.01160186
0.01159975
0.01159946
0.01159954
0.0115996
0.0115997
0.0115998
0.01159991
0.01160005
0.01160022
0.01160041
0.01160064
0.01160089
0.01160116
0.01160142
0.01160161
0.01160172
0.01160174
0.01160172
0.01160167
0.0116016
0.01159975
0.01159945
0.01159954
0.01159961
0.0115997
0.0115998
0.01159991
0.01160004
0.01160019
0.01160036
0.01160055
0.01160076
0.01160097
0.01160118
0.01160134
0.01160145
0.01160151
0.01160152
0.0116015
0.01160146
0.01159973
0.01159945
0.01159953
0.0115996
0.0115997
0.0115998
0.0115999
0.01160003
0.01160016
0.01160031
0.01160048
0.01160065
0.01160083
0.011601
0.01160116
0.01160128
0.01160136
0.01160141
0.01160143
0.01160143
0.01159969
0.01159943
0.01159951
0.01159959
0.01159968
0.01159978
0.01159988
0.0116
0.01160012
0.01160026
0.0116004
0.01160055
0.01160071
0.01160086
0.01160101
0.01160114
0.01160125
0.01160135
0.01160144
0.01160153
0.01159965
0.0115994
0.01159949
0.01159957
0.01159966
0.01159976
0.01159986
0.01159996
0.01160008
0.0116002
0.01160032
0.01160046
0.01160059
0.01160073
0.01160088
0.01160103
0.01160118
0.01160137
0.01160158
0.01160198
0.0115996
0.01159937
0.01159946
0.01159954
0.01159963
0.01159973
0.01159982
0.01159992
0.01160002
0.01160013
0.01160025
0.01160036
0.01160048
0.01160061
0.01160075
0.01160091
0.01160111
0.01160137
0.01160183
0.01160274
0.0115962
0.01144678
0.0007980757
0.0008870072
0.0009267496
0.0009389264
0.0009422235
0.0009421807
0.0009387778
0.0009264486
0.0008862822
0.000795904
0.01159041
0.01157582
0.01159949
0.01159939
0.01159768
0.01159773
0.01159769
0.01159764
0.0115976
0.01159758
0.01159757
0.01159757
0.01159754
0.01159744
0.01158139
0.0009775475
0.01159945
0.01159924
0.01159929
0.01159928
0.01159928
0.01159928
0.01159929
0.0115993
0.01159932
0.01159934
0.01159938
0.01159938
0.01157727
0.001012752
0.01159932
0.01159917
0.01159929
0.01159932
0.01159937
0.0115994
0.01159944
0.01159949
0.01159956
0.01159965
0.01159978
0.01159992
0.01157306
0.001027514
0.01159941
0.01159922
0.01159931
0.01159937
0.01159945
0.01159951
0.01159959
0.01159969
0.01159982
0.01160001
0.01160028
0.01160056
0.01156724
0.001029324
0.01159944
0.01159927
0.01159936
0.01159944
0.01159953
0.01159963
0.01159975
0.0115999
0.01160012
0.01160046
0.01160092
0.01160158
0.01155313
0.00101792
0.0115995
0.01159932
0.01159941
0.01159949
0.01159961
0.01159973
0.01159989
0.0116001
0.01160042
0.01160091
0.01160177
0.01160286
0.01152808
0.0009791907
0.01159954
0.01159935
0.01159945
0.01159954
0.01159967
0.01159982
0.01160001
0.01160028
0.01160072
0.01160145
0.01160291
0.01160607
0.01161271
0.01149634
0.01159959
0.01159939
0.01159949
0.01159958
0.01159972
0.01159988
0.0116001
0.01160041
0.01160091
0.01160179
0.01160372
0.01160801
0.01162791
0.01174723
0.01162885
0.01163537
0.01162132
0.01159962
0.01159941
0.01159951
0.0115996
0.01159974
0.0115999
0.01160011
0.01160042
0.01160089
0.0116017
0.01160319
0.01160678
0.01161548
0.01166977
0.01176797
0.01161269
0.01160838
0.01160695
0.01160498
0.01160402
0.01159965
0.01159942
0.01159952
0.01159961
0.01159974
0.01159989
0.01160009
0.01160036
0.01160076
0.01160138
0.01160236
0.01160443
0.01160826
0.01161185
0.01161151
0.0116092
0.01160767
0.01160479
0.01160364
0.01160392
0.01159967
0.01159943
0.01159952
0.0115996
0.01159972
0.01159986
0.01160003
0.01160026
0.01160057
0.01160099
0.01160159
0.01160249
0.01160404
0.01160607
0.01160739
0.0116059
0.0116046
0.01160357
0.01160301
0.01160281
0.01159969
0.01159943
0.01159951
0.01159957
0.01159968
0.01159981
0.01159995
0.01160014
0.01160038
0.01160068
0.0116011
0.01160167
0.01160241
0.01160327
0.01160362
0.01160371
0.01160347
0.01160303
0.01160287
0.01160272
0.01159969
0.01159942
0.01159949
0.01159955
0.01159964
0.01159975
0.01159988
0.01160005
0.01160025
0.0116005
0.01160083
0.01160126
0.01160179
0.01160238
0.01160272
0.01160273
0.01160256
0.01160236
0.01160223
0.01160211
0.01159969
0.01159942
0.01159949
0.01159954
0.01159964
0.01159975
0.01159987
0.01160002
0.01160021
0.01160044
0.01160072
0.01160104
0.01160139
0.01160173
0.01160197
0.01160207
0.01160208
0.011602
0.01160194
0.01160186
0.01159968
0.01159942
0.01159949
0.01159956
0.01159966
0.01159976
0.01159989
0.01160003
0.0116002
0.0116004
0.01160063
0.01160088
0.01160115
0.01160142
0.01160161
0.01160171
0.01160174
0.01160171
0.01160166
0.0116016
0.01159967
0.01159942
0.01159949
0.01159956
0.01159966
0.01159977
0.01159989
0.01160003
0.01160018
0.01160035
0.01160054
0.01160075
0.01160097
0.01160117
0.01160134
0.01160145
0.01160151
0.01160152
0.0116015
0.01160146
0.01159964
0.0115994
0.01159948
0.01159955
0.01159966
0.01159977
0.01159988
0.01160001
0.01160015
0.0116003
0.01160047
0.01160065
0.01160083
0.011601
0.01160115
0.01160128
0.01160136
0.01160141
0.01160143
0.01160144
0.01159961
0.01159938
0.01159946
0.01159954
0.01159965
0.01159975
0.01159987
0.01159998
0.01160011
0.01160025
0.01160039
0.01160055
0.0116007
0.01160086
0.011601
0.01160114
0.01160125
0.01160135
0.01160144
0.01160154
0.01159957
0.01159935
0.01159944
0.01159952
0.01159963
0.01159973
0.01159984
0.01159995
0.01160007
0.01160019
0.01160032
0.01160045
0.01160059
0.01160073
0.01160088
0.01160103
0.01160118
0.01160136
0.01160157
0.01160197
0.01159952
0.01159932
0.01159941
0.01159949
0.0115996
0.0115997
0.0115998
0.01159991
0.01160002
0.01160013
0.01160024
0.01160036
0.01160048
0.01160061
0.01160075
0.01160091
0.01160111
0.01160138
0.01160183
0.01160273
0.01159612
0.01144626
0.000822407
0.0009273468
0.0009765042
0.0009923076
0.000996701
0.000996634
0.0009920827
0.00097609
0.0009264023
0.0008197828
0.01159036
0.01157587
0.01159946
0.01159942
0.01159771
0.01159773
0.01159771
0.01159765
0.01159761
0.01159759
0.01159757
0.01159757
0.01159753
0.01159742
0.01158145
0.000979861
0.01159948
0.01159928
0.01159931
0.01159928
0.01159927
0.01159927
0.01159928
0.01159928
0.0115993
0.01159932
0.01159935
0.01159935
0.01157731
0.001016358
0.01159934
0.0115992
0.01159929
0.01159932
0.01159936
0.01159939
0.01159942
0.01159946
0.01159952
0.01159961
0.01159974
0.01159989
0.01157304
0.001032023
0.01159944
0.01159925
0.01159931
0.01159936
0.01159943
0.01159949
0.01159956
0.01159966
0.01159978
0.01159997
0.01160025
0.01160053
0.01156711
0.001034014
0.01159949
0.01159929
0.01159936
0.01159942
0.01159951
0.0115996
0.01159972
0.01159987
0.01160008
0.01160042
0.01160088
0.01160155
0.01155269
0.001021995
0.01159955
0.01159934
0.0115994
0.01159947
0.01159958
0.0115997
0.01159986
0.01160007
0.01160039
0.01160088
0.01160174
0.01160285
0.01152722
0.0009816333
0.0115996
0.01159938
0.01159945
0.01159952
0.01159964
0.01159979
0.01159998
0.01160025
0.01160068
0.01160142
0.01160289
0.01160614
0.01161304
0.01149522
0.01159964
0.01159942
0.01159948
0.01159956
0.01159968
0.01159985
0.01160006
0.01160037
0.01160088
0.01160176
0.0116037
0.011608
0.01162757
0.0117167
0.01162811
0.01163012
0.01162075
0.01159968
0.01159944
0.0115995
0.01159958
0.0115997
0.01159987
0.01160008
0.01160039
0.01160086
0.01160167
0.01160314
0.01160665
0.0116154
0.0116699
0.01175395
0.01161284
0.01160816
0.01160532
0.01160495
0.01160362
0.01159971
0.01159945
0.01159951
0.01159958
0.0115997
0.01159986
0.01160006
0.01160033
0.01160073
0.01160136
0.01160231
0.01160439
0.01160811
0.01161184
0.01161145
0.01160921
0.01160776
0.01160489
0.01160383
0.01160414
0.01159973
0.01159946
0.01159951
0.01159957
0.01159968
0.01159982
0.0116
0.01160023
0.01160054
0.01160097
0.01160157
0.01160247
0.01160403
0.011606
0.01160739
0.01160594
0.0116047
0.01160363
0.01160307
0.01160287
0.01159974
0.01159946
0.01159949
0.01159955
0.01159965
0.01159977
0.01159992
0.01160011
0.01160035
0.01160067
0.01160108
0.01160166
0.0116024
0.01160327
0.01160362
0.01160373
0.01160352
0.01160309
0.01160292
0.0116028
0.01159974
0.01159945
0.01159948
0.01159952
0.01159961
0.01159972
0.01159985
0.01160002
0.01160023
0.01160048
0.01160081
0.01160125
0.01160179
0.01160238
0.01160273
0.01160274
0.01160258
0.01160238
0.01160224
0.01160213
0.01159974
0.01159945
0.01159947
0.01159952
0.0115996
0.01159971
0.01159984
0.0116
0.01160019
0.01160043
0.01160071
0.01160103
0.01160138
0.01160173
0.01160197
0.01160208
0.01160209
0.01160201
0.01160195
0.01160187
0.01159974
0.01159945
0.01159948
0.01159953
0.01159962
0.01159973
0.01159986
0.01160001
0.01160018
0.01160038
0.01160062
0.01160088
0.01160115
0.01160141
0.01160161
0.01160172
0.01160174
0.01160172
0.01160167
0.01160161
0.01159972
0.01159944
0.01159948
0.01159953
0.01159963
0.01159974
0.01159986
0.0116
0.01160016
0.01160034
0.01160054
0.01160075
0.01160096
0.01160117
0.01160134
0.01160145
0.01160151
0.01160153
0.01160151
0.01160147
0.01159969
0.01159943
0.01159947
0.01159953
0.01159962
0.01159973
0.01159986
0.01159999
0.01160013
0.01160029
0.01160046
0.01160064
0.01160082
0.011601
0.01160115
0.01160128
0.01160136
0.01160141
0.01160144
0.01160145
0.01159966
0.0115994
0.01159945
0.01159951
0.01159961
0.01159972
0.01159984
0.01159997
0.0116001
0.01160024
0.01160039
0.01160054
0.0116007
0.01160086
0.011601
0.01160114
0.01160126
0.01160136
0.01160145
0.01160154
0.01159962
0.01159937
0.01159942
0.01159949
0.01159959
0.0115997
0.01159982
0.01159993
0.01160006
0.01160018
0.01160031
0.01160045
0.01160059
0.01160073
0.01160087
0.01160103
0.01160118
0.01160137
0.01160158
0.01160198
0.01159957
0.01159934
0.01159939
0.01159946
0.01159957
0.01159967
0.01159978
0.01159989
0.01160001
0.01160012
0.01160024
0.01160035
0.01160048
0.0116006
0.01160074
0.01160091
0.01160111
0.01160138
0.01160183
0.01160273
0.01159601
0.01144614
0.0008295293
0.0009398441
0.000992623
0.001010095
0.001015104
0.001015023
0.001009835
0.0009921423
0.0009387614
0.000826638
0.01159037
0.01157594
0.01159946
0.01159944
0.0115977
0.01159772
0.01159771
0.01159763
0.01159759
0.01159756
0.01159755
0.01159755
0.01159752
0.01159741
0.01158156
0.0009806706
0.0115995
0.01159929
0.01159932
0.01159928
0.01159927
0.01159926
0.01159927
0.01159928
0.01159929
0.01159931
0.01159934
0.01159935
0.01157733
0.001017466
0.01159936
0.01159922
0.01159931
0.01159933
0.01159936
0.01159938
0.01159941
0.01159945
0.01159951
0.01159959
0.01159973
0.01159988
0.01157311
0.00103338
0.01159947
0.01159927
0.01159932
0.01159936
0.01159942
0.01159948
0.01159955
0.01159963
0.01159976
0.01159994
0.01160022
0.01160052
0.01156713
0.001035426
0.01159951
0.01159931
0.01159936
0.01159942
0.0115995
0.01159959
0.0115997
0.01159985
0.01160005
0.01160039
0.01160086
0.01160155
0.01155275
0.001023208
0.01159958
0.01159937
0.01159941
0.01159947
0.01159956
0.01159968
0.01159984
0.01160004
0.01160036
0.01160085
0.01160172
0.01160284
0.01152685
0.0009822758
0.01159962
0.01159941
0.01159945
0.01159952
0.01159962
0.01159976
0.01159995
0.01160023
0.01160066
0.0116014
0.01160287
0.01160616
0.01161335
0.01149777
0.01159967
0.01159944
0.01159948
0.01159955
0.01159966
0.01159982
0.01160003
0.01160035
0.01160086
0.01160173
0.01160367
0.01160798
0.01162703
0.01172307
0.01162842
0.0116326
0.01162079
0.01159971
0.01159946
0.0115995
0.01159957
0.01159968
0.01159984
0.01160005
0.01160036
0.01160083
0.01160164
0.0116031
0.01160657
0.01161523
0.01166949
0.01175556
0.01161261
0.01160834
0.01160572
0.0116042
0.01160386
0.01159974
0.01159948
0.01159951
0.01159957
0.01159968
0.01159983
0.01160003
0.01160031
0.01160071
0.01160134
0.0116023
0.01160435
0.01160805
0.01161182
0.01161134
0.01160927
0.01160777
0.01160491
0.01160351
0.01160398
0.01159976
0.01159949
0.01159951
0.01159956
0.01159966
0.01159979
0.01159997
0.01160021
0.01160052
0.01160095
0.01160155
0.01160244
0.011604
0.01160597
0.01160737
0.01160592
0.01160461
0.01160359
0.01160299
0.0116028
0.01159978
0.01159948
0.0115995
0.01159954
0.01159963
0.01159974
0.0115999
0.01160009
0.01160033
0.01160065
0.01160107
0.01160165
0.01160238
0.01160324
0.01160359
0.01160371
0.01160351
0.011603
0.01160285
0.01160277
0.01159978
0.01159948
0.01159948
0.01159952
0.01159959
0.01159969
0.01159983
0.0116
0.01160021
0.01160047
0.0116008
0.01160125
0.01160177
0.01160237
0.0116027
0.01160272
0.01160255
0.01160235
0.01160222
0.01160211
0.01159978
0.01159947
0.01159948
0.01159951
0.01159958
0.01159969
0.01159982
0.01159998
0.01160018
0.01160041
0.0116007
0.01160102
0.01160138
0.01160172
0.01160197
0.01160207
0.01160208
0.011602
0.01160193
0.01160187
0.01159977
0.01159947
0.01159948
0.01159952
0.0115996
0.0115997
0.01159984
0.01159999
0.01160017
0.01160037
0.01160061
0.01160087
0.01160114
0.01160141
0.0116016
0.01160171
0.01160174
0.01160171
0.01160167
0.01160161
0.01159975
0.01159947
0.01159948
0.01159953
0.01159961
0.01159971
0.01159984
0.01159999
0.01160015
0.01160033
0.01160053
0.01160074
0.01160096
0.01160117
0.01160134
0.01160145
0.01160151
0.01160152
0.01160151
0.01160147
0.01159973
0.01159945
0.01159947
0.01159952
0.0115996
0.01159971
0.01159984
0.01159997
0.01160012
0.01160028
0.01160045
0.01160063
0.01160082
0.011601
0.01160115
0.01160127
0.01160136
0.01160141
0.01160144
0.01160145
0.01159969
0.01159943
0.01159945
0.01159951
0.01159959
0.0115997
0.01159982
0.01159995
0.01160009
0.01160023
0.01160038
0.01160054
0.0116007
0.01160085
0.011601
0.01160114
0.01160126
0.01160136
0.01160145
0.01160156
0.01159965
0.0115994
0.01159942
0.01159948
0.01159957
0.01159968
0.0115998
0.01159992
0.01160005
0.01160017
0.01160031
0.01160044
0.01160058
0.01160073
0.01160087
0.01160102
0.01160118
0.01160136
0.01160157
0.01160196
0.0115996
0.01159936
0.01159939
0.01159946
0.01159955
0.01159965
0.01159977
0.01159988
0.0116
0.01160011
0.01160023
0.01160035
0.01160047
0.0116006
0.01160074
0.01160091
0.01160111
0.01160138
0.01160183
0.01160274
0.01159608
0.01144616
0.0008316687
0.0009436172
0.0009976072
0.001015765
0.001021065
0.001020981
0.001015484
0.0009970905
0.000942452
0.0008286423
0.01159032
0.01157591
0.01159946
0.01159945
0.0115977
0.01159771
0.0115977
0.01159762
0.01159758
0.01159755
0.01159754
0.01159754
0.01159751
0.0115974
0.01158156
0.0009809965
0.01159951
0.01159931
0.01159933
0.01159928
0.01159927
0.01159926
0.01159927
0.01159927
0.01159929
0.0115993
0.01159933
0.01159934
0.01157731
0.001017871
0.01159936
0.01159924
0.01159932
0.01159933
0.01159936
0.01159937
0.0115994
0.01159944
0.0115995
0.01159959
0.01159972
0.01159987
0.01157311
0.00103385
0.01159948
0.01159929
0.01159933
0.01159937
0.01159942
0.01159947
0.01159954
0.01159962
0.01159974
0.01159993
0.01160021
0.01160051
0.01156709
0.001035905
0.01159952
0.01159933
0.01159937
0.01159942
0.01159949
0.01159957
0.01159968
0.01159983
0.01160004
0.01160038
0.01160085
0.01160154
0.01155271
0.001023607
0.01159959
0.01159938
0.01159941
0.01159947
0.01159956
0.01159967
0.01159982
0.01160002
0.01160034
0.01160084
0.01160171
0.01160283
0.0115267
0.0009824715
0.01159963
0.01159942
0.01159946
0.01159952
0.01159961
0.01159975
0.01159993
0.01160021
0.01160064
0.01160138
0.01160286
0.01160615
0.01161335
0.01149828
0.01159968
0.01159946
0.01159949
0.01159955
0.01159965
0.0115998
0.01160001
0.01160033
0.01160084
0.01160172
0.01160366
0.01160795
0.01162689
0.01172246
0.01162803
0.01162899
0.01162042
0.01159972
0.01159948
0.01159951
0.01159957
0.01159967
0.01159982
0.01160003
0.01160034
0.01160081
0.01160162
0.01160308
0.01160653
0.01161517
0.01166921
0.01175546
0.01161275
0.01160808
0.01160523
0.01160487
0.01160348
0.01159975
0.0115995
0.01159952
0.01159957
0.01159967
0.01159981
0.01160001
0.01160029
0.01160069
0.01160132
0.01160228
0.01160433
0.011608
0.01161178
0.01161129
0.01160916
0.01160777
0.01160482
0.01160384
0.01160407
0.01159978
0.0115995
0.01159952
0.01159956
0.01159965
0.01159978
0.01159995
0.01160019
0.01160051
0.01160094
0.01160153
0.01160243
0.01160398
0.01160595
0.01160737
0.01160592
0.01160464
0.01160359
0.01160304
0.01160282
0.01159979
0.0115995
0.01159951
0.01159954
0.01159962
0.01159973
0.01159988
0.01160007
0.01160032
0.01160064
0.01160106
0.01160164
0.01160237
0.01160323
0.01160359
0.0116037
0.01160351
0.01160304
0.0116029
0.01160278
0.01159979
0.01159949
0.01159949
0.01159951
0.01159958
0.01159967
0.01159981
0.01159998
0.01160019
0.01160046
0.01160079
0.01160124
0.01160177
0.01160236
0.0116027
0.01160272
0.01160256
0.01160236
0.01160223
0.01160212
0.01159979
0.01159949
0.01159948
0.01159951
0.01159957
0.01159967
0.0115998
0.01159996
0.01160016
0.0116004
0.01160069
0.01160102
0.01160137
0.01160172
0.01160196
0.01160207
0.01160208
0.01160201
0.01160194
0.01160188
0.01159978
0.01159949
0.01159949
0.01159952
0.01159959
0.01159969
0.01159982
0.01159997
0.01160015
0.01160036
0.0116006
0.01160087
0.01160114
0.01160141
0.0116016
0.01160171
0.01160174
0.01160171
0.01160167
0.01160161
0.01159977
0.01159948
0.01159949
0.01159952
0.0115996
0.0115997
0.01159982
0.01159997
0.01160014
0.01160032
0.01160052
0.01160074
0.01160096
0.01160116
0.01160133
0.01160145
0.01160151
0.01160152
0.01160151
0.01160148
0.01159974
0.01159947
0.01159947
0.01159952
0.01159959
0.01159969
0.01159982
0.01159996
0.01160011
0.01160027
0.01160045
0.01160063
0.01160082
0.01160099
0.01160115
0.01160127
0.01160136
0.01160141
0.01160144
0.01160145
0.0115997
0.01159944
0.01159945
0.0115995
0.01159958
0.01159969
0.01159981
0.01159994
0.01160008
0.01160022
0.01160038
0.01160053
0.01160069
0.01160085
0.011601
0.01160114
0.01160126
0.01160136
0.01160145
0.01160156
0.01159966
0.01159941
0.01159943
0.01159948
0.01159957
0.01159967
0.01159978
0.01159991
0.01160004
0.01160017
0.0116003
0.01160044
0.01160058
0.01160073
0.01160087
0.01160102
0.01160118
0.01160136
0.01160158
0.01160196
0.01159961
0.01159938
0.0115994
0.01159945
0.01159954
0.01159964
0.01159975
0.01159987
0.01159999
0.01160011
0.01160023
0.01160035
0.01160047
0.0116006
0.01160074
0.0116009
0.0116011
0.01160138
0.01160183
0.01160273
0.01159581
0.01144642
0.0008321933
0.0009445346
0.0009988304
0.001017185
0.001022569
0.001022482
0.001016894
0.0009983052
0.0009433459
0.0008291218
0.01159027
0.01157592
0.01159946
0.01159945
0.01159769
0.01159771
0.0115977
0.01159761
0.01159757
0.01159755
0.01159753
0.01159753
0.0115975
0.0115974
0.01158157
0.0009810844
0.01159951
0.01159931
0.01159933
0.01159928
0.01159927
0.01159926
0.01159926
0.01159927
0.01159928
0.0115993
0.01159933
0.01159934
0.0115773
0.001017976
0.01159936
0.01159925
0.01159932
0.01159933
0.01159936
0.01159937
0.0115994
0.01159944
0.0115995
0.01159958
0.01159972
0.01159987
0.01157311
0.001033967
0.01159949
0.01159929
0.01159933
0.01159937
0.01159942