/*--------------------------------*- C++ -*----------------------------------*\
  =========                 |
  \\      /  F ield         | OpenFOAM: The Open Source CFD Toolbox
   \\    /   O peration     | Website:  https://openfoam.org
    \\  /    A nd           | Version:  7
     \\/     M anipulation  |
\*---------------------------------------------------------------------------*/
FoamFile
{
    version     2.0;
    format      ascii;
    class       volScalarField;
    location    "0.04";
    object      nut;
}
// * * * * * * * * * * * * * * * * * * * * * * * * * * * * * * * * * * * * * //

dimensions      [0 2 -1 0 0 0 0];

internalField   nonuniform List<scalar> 
53911
(
0.0006513928
0.0006350822
0.0006264299
0.0006305229
0.0006362008
0.0006364542
0.0006362575
0.0006354161
0.0006283635
0.0006290467
0.0006292138
0.0006251953
0.0006332852
0.0006578782
0.0006399494
0.001322821
0.001298955
0.001289678
0.001287173
0.001286071
0.001285481
0.001285057
0.00128485
0.001285739
0.001288581
0.001299647
0.001337014
0.0006409611
0.0006374147
0.00130022
0.001258431
0.001243243
0.001238636
0.001237009
0.001236331
0.001236153
0.001236491
0.001237839
0.001242332
0.001259002
0.001315615
0.0006235462
0.0006359309
0.00129029
0.001243293
0.001224348
0.001218345
0.001216214
0.001215375
0.001215233
0.001215763
0.001217557
0.001223294
0.001243537
0.001305755
0.0006205404
0.0006355991
0.001286837
0.001238536
0.00121834
0.001211603
0.001209138
0.00120816
0.001208014
0.001208667
0.001210778
0.001217236
0.001238869
0.001303172
0.0006187589
0.0006272585
0.001284809
0.001236733
0.001216131
0.001209061
0.001206386
0.001205314
0.001205158
0.001205889
0.001208196
0.001215046
0.001237377
0.001303093
0.0006212488
0.0006231308
0.001284225
0.001235966
0.001215154
0.001207903
0.001205113
0.001203977
0.001203804
0.001204562
0.001206953
0.001213977
0.001236797
0.00130331
0.0006214619
0.0006318293
0.001284678
0.001235707
0.001214698
0.001207339
0.001204471
0.001203285
0.001203078
0.001203807
0.001206141
0.001213019
0.001235702
0.001303954
0.0006241371
0.000633265
0.001284924
0.001235605
0.001214472
0.001207038
0.001204122
0.00120289
0.001202629
0.001203254
0.001205342
0.001211433
0.00123108
0.00129169
0.0006239014
0.0006361136
0.001285046
0.001235536
0.001214347
0.001206872
0.001203914
0.001202632
0.001202286
0.001202735
0.001204364
0.001209065
0.001223579
0.001259412
0.0005953805
0.0006396375
0.0006401927
0.0006392621
0.0006391404
0.0006359978
0.0006306124
0.0006356685
0.00128462
0.001235402
0.001214258
0.001206768
0.001203779
0.001202442
0.001201999
0.001202233
0.001203325
0.00120642
0.001216129
0.001246834
0.001255813
0.001279487
0.001282161
0.001281847
0.001281564
0.001281501
0.001281657
0.000627284
0.001283573
0.001235208
0.001214188
0.0012067
0.001203684
0.001202296
0.001201757
0.001201786
0.0012024
0.001204097
0.001208726
0.001215722
0.001222022
0.001227215
0.001229887
0.001230265
0.001230268
0.001230327
0.001230435
0.0006215786
0.001282958
0.001235079
0.001214146
0.001206661
0.001203622
0.001202188
0.001201566
0.001201434
0.001201713
0.001202504
0.001203988
0.001206107
0.00120835
0.001210057
0.001211017
0.00121149
0.001211804
0.001212112
0.001212318
0.0006212572
0.001282976
0.001235084
0.001214145
0.001206648
0.001203588
0.001202121
0.001201435
0.001201192
0.001201261
0.0012016
0.001202201
0.001203019
0.001203908
0.001204661
0.001205221
0.001205699
0.001206194
0.001206684
0.001207015
0.0006228989
0.001283581
0.001235222
0.001214188
0.001206672
0.001203598
0.001202108
0.001201378
0.001201062
0.001201007
0.001201143
0.001201426
0.001201817
0.001202259
0.001202701
0.001203145
0.001203652
0.001204257
0.001204884
0.001205343
0.0006325164
0.001284636
0.001235442
0.001214284
0.001206752
0.001203677
0.001202176
0.001201422
0.001201061
0.001200934
0.001200962
0.0012011
0.001201316
0.001201588
0.00120191
0.001202314
0.001202853
0.001203545
0.001204299
0.001204916
0.0006364599
0.001285131
0.001235633
0.001214438
0.001206921
0.001203862
0.001202367
0.001201608
0.001201226
0.001201063
0.001201036
0.001201101
0.001201235
0.001201434
0.001201707
0.001202102
0.001202678
0.001203459
0.001204377
0.001205271
0.000635699
0.001284893
0.001235755
0.001214673
0.001207216
0.001204194
0.001202726
0.001201977
0.001201592
0.001201414
0.00120136
0.001201392
0.00120149
0.001201655
0.001201911
0.001202313
0.001202938
0.001203847
0.001205122
0.00120681
0.0006272566
0.001284109
0.001235868
0.001214993
0.001207628
0.001204664
0.001203239
0.001202516
0.001202144
0.001201966
0.001201903
0.00120192
0.001202002
0.001202154
0.001202406
0.001202829
0.001203526
0.001204651
0.001206692
0.001211397
0.0006215565
0.00128375
0.00123605
0.001215342
0.001208066
0.001205164
0.001203787
0.001203097
0.001202743
0.001202573
0.001202513
0.001202527
0.001202605
0.001202755
0.001203016
0.001203471
0.001204276
0.001205747
0.001209027
0.001218695
0.0006212376
0.001283795
0.001236208
0.001215572
0.00120835
0.00120549
0.001204144
0.001203477
0.001203139
0.001202983
0.001202929
0.001202951
0.001203035
0.001203194
0.001203473
0.001203973
0.001204915
0.001206814
0.001211549
0.001225876
0.000100968
0.000100943
0.0001010182
0.0001010517
0.0001010375
0.00010104
0.0001010359
0.0001010313
0.0001010258
0.000101021
0.0001010112
0.0001010012
0.0001009433
0.000101158
0.0001009287
0.0001009445
0.0001009441
0.0001009524
0.0001009433
0.0001009434
0.0001009436
0.0001009437
0.000100944
0.0001009443
0.0001009446
0.0001009457
0.0001011418
0.001336032
0.0001009288
0.0001009433
0.0001009432
0.0001009433
0.0001009434
0.0001009436
0.0001009437
0.0001009439
0.0001009442
0.0001009446
0.000100945
0.0001009498
0.0001011923
0.001315533
0.0001009291
0.0001009432
0.0001009433
0.000100945
0.0001009437
0.0001009439
0.0001009441
0.0001009443
0.0001009446
0.0001009451
0.0001009458
0.0001009606
0.0001012383
0.00130609
0.0001009291
0.0001009433
0.0001009434
0.0001009437
0.0001009439
0.0001009441
0.0001009443
0.0001009446
0.000100945
0.0001009466
0.0001009484
0.00010097
0.000101312
0.001305485
0.0001009293
0.0001009434
0.0001009436
0.0001009438
0.000100944
0.0001009443
0.0001009446
0.0001009449
0.0001009455
0.0001009488
0.0001009511
0.0001009772
0.0001014479
0.001313834
0.0001009295
0.0001009435
0.0001009436
0.0001009439
0.0001009441
0.0001009444
0.0001009447
0.0001009451
0.0001009459
0.0001009505
0.0001009532
0.0001009975
0.0001017033
0.001339589
0.0001009295
0.0001009435
0.0001009437
0.0001009439
0.0001009442
0.0001009445
0.0001009448
0.0001009454
0.0001009464
0.0001009507
0.0001009584
0.0001009989
0.0001010925
0.000102063
0.0001009296
0.0001009435
0.0001009437
0.0001009439
0.0001009442
0.0001009445
0.0001009449
0.0001009455
0.0001009466
0.0001009514
0.000100958
0.0001010171
0.0001011579
0.0001016612
0.0001009297
0.0001009435
0.0001009437
0.0001009439
0.0001009442
0.0001009445
0.0001009448
0.0001009455
0.0001009466
0.0001009512
0.0001009588
0.000101004
0.0001011214
0.0001011622
0.0001013966
0.0001009504
0.0001009405
0.0001009387
0.0001009364
0.0001009362
0.0001009297
0.0001009435
0.0001009437
0.0001009439
0.0001009442
0.0001009445
0.0001009448
0.0001009452
0.0001009461
0.0001009486
0.0001009525
0.0001009728
0.000101018
0.0001010023
0.0001009836
0.0001009665
0.0001009639
0.0001009578
0.0001009558
0.0001009521
0.0001009298
0.0001009435
0.0001009436
0.0001009439
0.0001009442
0.0001009444
0.0001009447
0.0001009452
0.000100946
0.0001009479
0.0001009507
0.0001009601
0.0001009725
0.0001009894
0.0001010043
0.0001010234
0.0001010271
0.0001010395
0.0001010485
0.0001010427
0.0001009299
0.0001009435
0.0001009436
0.0001009439
0.0001009441
0.0001009444
0.0001009446
0.0001009449
0.0001009454
0.0001009463
0.0001009472
0.0001009489
0.00010095
0.0001009516
0.0001009522
0.0001009513
0.0001009506
0.0001009498
0.0001009496
0.0001009489
0.0001009299
0.0001009435
0.0001009436
0.0001009439
0.0001009441
0.0001009444
0.0001009445
0.0001009448
0.0001009452
0.000100946
0.0001009467
0.000100948
0.0001009495
0.0001009519
0.0001009562
0.0001009569
0.0001009566
0.0001009586
0.0001009589
0.0001009567
0.0001009299
0.0001009435
0.0001009436
0.0001009438
0.0001009441
0.0001009444
0.0001009445
0.0001009447
0.000100945
0.0001009454
0.0001009458
0.0001009464
0.0001009468
0.0001009473
0.0001009479
0.0001009472
0.000100947
0.0001009468
0.0001009466
0.0001009461
0.0001009298
0.0001009435
0.0001009436
0.0001009439
0.0001009441
0.0001009444
0.0001009445
0.0001009447
0.0001009449
0.0001009453
0.0001009456
0.0001009461
0.0001009467
0.0001009475
0.0001009482
0.0001009485
0.0001009486
0.0001009489
0.0001009486
0.0001009476
0.0001009297
0.0001009435
0.0001009436
0.0001009439
0.0001009441
0.0001009445
0.0001009445
0.0001009447
0.0001009448
0.0001009451
0.0001009453
0.0001009456
0.000100946
0.0001009463
0.0001009467
0.0001009468
0.0001009469
0.000100947
0.0001009466
0.0001009455
0.0001009297
0.0001009435
0.0001009436
0.0001009439
0.0001009441
0.0001009444
0.0001009444
0.0001009446
0.0001009448
0.0001009449
0.0001009451
0.0001009453
0.0001009456
0.0001009459
0.0001009462
0.0001009465
0.0001009468
0.0001009471
0.0001009468
0.0001009466
0.0001009297
0.0001009435
0.0001009436
0.0001009439
0.0001009441
0.0001009445
0.0001009444
0.0001009446
0.0001009447
0.0001009448
0.000100945
0.0001009451
0.0001009453
0.0001009455
0.0001009457
0.000100946
0.0001009463
0.0001009469
0.0001009466
0.0001009475
0.0001009297
0.0001009435
0.0001009436
0.0001009439
0.0001009441
0.0001009445
0.0001009444
0.0001009446
0.0001009446
0.0001009448
0.0001009449
0.000100945
0.0001009451
0.0001009453
0.0001009455
0.000100946
0.0001009464
0.0001009478
0.0001009489
0.0001009563
0.0001009296
0.0001009435
0.0001009436
0.0001009439
0.0001009441
0.0001009445
0.0001009444
0.0001009446
0.0001009446
0.0001009447
0.0001009448
0.0001009449
0.0001009451
0.0001009453
0.0001009455
0.0001009461
0.0001009466
0.0001009485
0.0001009518
0.0001009726
0.0001009611
0.0001023005
0.001730084
0.001583729
0.001537917
0.001525267
0.001521787
0.00152155
0.00152462
0.001537095
0.001583165
0.00173172
0.0001010026
0.0001011516
0.0001009277
0.0001009279
0.0001009448
0.0001009438
0.0001009439
0.000100944
0.0001009442
0.0001009443
0.0001009445
0.0001009447
0.000100945
0.0001009471
0.0001011068
0.001299072
0.000100928
0.0001009276
0.0001009276
0.0001009277
0.0001009277
0.0001009278
0.000100928
0.0001009281
0.0001009284
0.0001009288
0.0001009293
0.0001009302
0.0001011469
0.001259763
0.0001009276
0.0001009276
0.0001009277
0.0001009277
0.0001009278
0.0001009279
0.0001009281
0.0001009283
0.0001009286
0.0001009291
0.0001009297
0.0001009313
0.0001011938
0.001245585
0.0001009277
0.0001009277
0.0001009277
0.0001009277
0.0001009278
0.000100928
0.0001009282
0.0001009284
0.0001009289
0.0001009295
0.0001009304
0.0001009327
0.0001012595
0.001244494
0.0001009278
0.0001009277
0.0001009277
0.0001009278
0.0001009279
0.0001009281
0.0001009283
0.0001009286
0.0001009292
0.0001009301
0.0001009315
0.0001009359
0.000101406
0.001256782
0.0001009278
0.0001009277
0.0001009278
0.0001009278
0.0001009279
0.0001009281
0.0001009284
0.0001009288
0.0001009295
0.0001009307
0.0001009331
0.0001009414
0.0001016802
0.001301248
0.0001009278
0.0001009277
0.0001009278
0.0001009279
0.000100928
0.0001009282
0.0001009284
0.0001009289
0.0001009299
0.0001009316
0.0001009357
0.0001009453
0.0001009695
0.0001020894
0.0001009278
0.0001009278
0.0001009278
0.0001009279
0.000100928
0.0001009282
0.0001009285
0.000100929
0.00010093
0.000100932
0.0001009371
0.000100948
0.000100999
0.0001017091
0.0001009558
0.0001010243
0.0001009556
0.0001009278
0.0001009277
0.0001009278
0.0001009279
0.000100928
0.0001009281
0.0001009284
0.0001009289
0.0001009298
0.0001009315
0.0001009351
0.0001009444
0.0001009711
0.0001011547
0.0001014022
0.0001009446
0.0001009382
0.0001009332
0.0001009285
0.0001009289
0.0001009278
0.0001009277
0.0001009277
0.0001009278
0.0001009279
0.0001009281
0.0001009283
0.0001009288
0.0001009294
0.0001009307
0.0001009328
0.0001009384
0.00010095
0.0001009619
0.0001009606
0.000100951
0.0001009451
0.0001009362
0.0001009336
0.0001009337
0.0001009278
0.0001009277
0.0001009277
0.0001009278
0.0001009279
0.000100928
0.0001009283
0.0001009286
0.0001009291
0.0001009299
0.0001009312
0.0001009335
0.0001009382
0.0001009443
0.0001009471
0.000100941
0.0001009367
0.0001009334
0.0001009315
0.000100931
0.0001009278
0.0001009277
0.0001009277
0.0001009278
0.0001009279
0.000100928
0.0001009282
0.0001009284
0.0001009288
0.0001009294
0.0001009302
0.0001009315
0.0001009334
0.0001009352
0.0001009352
0.0001009346
0.0001009333
0.0001009322
0.0001009318
0.0001009314
0.0001009278
0.0001009277
0.0001009277
0.0001009278
0.0001009278
0.0001009279
0.0001009281
0.0001009283
0.0001009286
0.000100929
0.0001009296
0.0001009304
0.0001009314
0.0001009325
0.0001009329
0.0001009322
0.0001009313
0.0001009306
0.00010093
0.0001009297
0.0001009278
0.0001009277
0.0001009277
0.0001009278
0.0001009278
0.0001009279
0.0001009281
0.0001009282
0.0001009285
0.0001009288
0.0001009292
0.0001009297
0.0001009302
0.0001009307
0.0001009308
0.0001009306
0.0001009303
0.0001009299
0.0001009296
0.0001009293
0.0001009278
0.0001009277
0.0001009277
0.0001009278
0.0001009278
0.0001009279
0.000100928
0.0001009282
0.0001009284
0.0001009286
0.0001009289
0.0001009293
0.0001009296
0.00010093
0.0001009301
0.00010093
0.0001009297
0.0001009294
0.000100929
0.0001009288
0.0001009278
0.0001009277
0.0001009277
0.0001009278
0.0001009278
0.0001009279
0.000100928
0.0001009282
0.0001009283
0.0001009285
0.0001009288
0.000100929
0.0001009292
0.0001009294
0.0001009295
0.0001009295
0.0001009293
0.0001009291
0.0001009288
0.0001009285
0.0001009278
0.0001009277
0.0001009277
0.0001009278
0.0001009278
0.0001009279
0.000100928
0.0001009282
0.0001009283
0.0001009284
0.0001009286
0.0001009288
0.000100929
0.0001009292
0.0001009293
0.0001009293
0.0001009292
0.000100929
0.0001009288
0.0001009286
0.0001009278
0.0001009277
0.0001009277
0.0001009278
0.0001009279
0.0001009279
0.000100928
0.0001009281
0.0001009282
0.0001009284
0.0001009285
0.0001009287
0.0001009288
0.000100929
0.0001009291
0.0001009292
0.0001009292
0.0001009291
0.000100929
0.0001009289
0.0001009278
0.0001009277
0.0001009277
0.0001009278
0.0001009279
0.0001009279
0.000100928
0.0001009281
0.0001009282
0.0001009283
0.0001009284
0.0001009286
0.0001009287
0.0001009288
0.000100929
0.0001009291
0.0001009293
0.0001009294
0.0001009296
0.0001009303
0.0001009278
0.0001009278
0.0001009278
0.0001009278
0.0001009279
0.0001009279
0.000100928
0.0001009281
0.0001009282
0.0001009283
0.0001009284
0.0001009285
0.0001009286
0.0001009287
0.0001009289
0.0001009291
0.0001009294
0.0001009299
0.0001009308
0.0001009328
0.0001009576
0.0001023946
0.001580282
0.00142149
0.001360205
0.001342412
0.001337532
0.001337399
0.001342033
0.001359678
0.001421287
0.001582733
0.0001010146
0.0001011566
0.0001009278
0.0001009278
0.0001009436
0.0001009427
0.0001009427
0.0001009428
0.000100943
0.0001009431
0.0001009433
0.0001009434
0.0001009439
0.000100946
0.0001010987
0.001287568
0.0001009277
0.0001009276
0.0001009276
0.0001009276
0.0001009277
0.0001009278
0.0001009279
0.0001009281
0.0001009284
0.0001009287
0.0001009292
0.0001009302
0.0001011406
0.001243009
0.0001009276
0.0001009276
0.0001009277
0.0001009277
0.0001009278
0.0001009279
0.000100928
0.0001009283
0.0001009286
0.0001009291
0.0001009297
0.0001009312
0.0001011884
0.001225666
0.0001009277
0.0001009276
0.0001009277
0.0001009277
0.0001009278
0.0001009279
0.0001009281
0.0001009284
0.0001009288
0.0001009295
0.0001009304
0.0001009327
0.0001012548
0.001224182
0.0001009277
0.0001009277
0.0001009277
0.0001009278
0.0001009279
0.000100928
0.0001009283
0.0001009286
0.0001009292
0.0001009301
0.0001009314
0.0001009359
0.0001014047
0.00123884
0.0001009277
0.0001009277
0.0001009277
0.0001009278
0.0001009279
0.0001009281
0.0001009283
0.0001009288
0.0001009295
0.0001009307
0.0001009331
0.0001009414
0.0001016896
0.0012887
0.0001009277
0.0001009277
0.0001009278
0.0001009278
0.000100928
0.0001009281
0.0001009284
0.0001009289
0.0001009298
0.0001009316
0.0001009356
0.0001009451
0.0001009698
0.0001020733
0.0001009277
0.0001009277
0.0001009278
0.0001009278
0.000100928
0.0001009282
0.0001009285
0.000100929
0.00010093
0.000100932
0.000100937
0.0001009479
0.0001009961
0.0001013299
0.0001009457
0.0001009916
0.0001009416
0.0001009277
0.0001009277
0.0001009278
0.0001009278
0.0001009279
0.0001009281
0.0001009284
0.0001009289
0.0001009298
0.0001009315
0.0001009351
0.0001009446
0.0001009704
0.0001011336
0.0001014719
0.0001009408
0.0001009364
0.0001009377
0.0001009311
0.000100931
0.0001009277
0.0001009277
0.0001009278
0.0001009278
0.0001009279
0.0001009281
0.0001009283
0.0001009287
0.0001009294
0.0001009307
0.0001009329
0.0001009385
0.0001009501
0.0001009616
0.0001009584
0.0001009498
0.0001009444
0.0001009348
0.000100932
0.0001009335
0.0001009278
0.0001009277
0.0001009277
0.0001009278
0.0001009279
0.000100928
0.0001009282
0.0001009286
0.0001009291
0.0001009299
0.0001009312
0.0001009334
0.000100938
0.0001009443
0.0001009471
0.0001009409
0.0001009359
0.0001009325
0.0001009309
0.0001009306
0.0001009278
0.0001009276
0.0001009277
0.0001009278
0.0001009278
0.000100928
0.0001009282
0.0001009284
0.0001009288
0.0001009294
0.0001009302
0.0001009315
0.0001009332
0.000100935
0.000100935
0.0001009345
0.0001009333
0.0001009318
0.0001009314
0.0001009311
0.0001009277
0.0001009276
0.0001009277
0.0001009277
0.0001009278
0.0001009279
0.0001009281
0.0001009283
0.0001009286
0.000100929
0.0001009296
0.0001009304
0.0001009314
0.0001009325
0.0001009328
0.0001009322
0.0001009312
0.0001009304
0.0001009299
0.0001009296
0.0001009278
0.0001009276
0.0001009277
0.0001009277
0.0001009278
0.0001009279
0.000100928
0.0001009282
0.0001009285
0.0001009288
0.0001009292
0.0001009297
0.0001009302
0.0001009307
0.0001009308
0.0001009306
0.0001009303
0.0001009298
0.0001009295
0.0001009293
0.0001009278
0.0001009276
0.0001009277
0.0001009277
0.0001009278
0.0001009279
0.000100928
0.0001009282
0.0001009284
0.0001009286
0.0001009289
0.0001009293
0.0001009296
0.0001009299
0.0001009301
0.0001009299
0.0001009297
0.0001009293
0.000100929
0.0001009288
0.0001009278
0.0001009277
0.0001009277
0.0001009278
0.0001009278
0.0001009279
0.000100928
0.0001009282
0.0001009283
0.0001009285
0.0001009288
0.000100929
0.0001009292
0.0001009294
0.0001009295
0.0001009295
0.0001009293
0.0001009291
0.0001009288
0.0001009285
0.0001009277
0.0001009277
0.0001009277
0.0001009278
0.0001009278
0.0001009279
0.000100928
0.0001009281
0.0001009283
0.0001009284
0.0001009286
0.0001009288
0.000100929
0.0001009292
0.0001009293
0.0001009293
0.0001009292
0.000100929
0.0001009288
0.0001009286
0.0001009277
0.0001009277
0.0001009277
0.0001009278
0.0001009278
0.0001009279
0.000100928
0.0001009281
0.0001009282
0.0001009284
0.0001009285
0.0001009287
0.0001009288
0.000100929
0.0001009291
0.0001009292
0.0001009292
0.0001009291
0.000100929
0.0001009289
0.0001009277
0.0001009277
0.0001009277
0.0001009278
0.0001009278
0.0001009279
0.000100928
0.0001009281
0.0001009282
0.0001009283
0.0001009284
0.0001009286
0.0001009287
0.0001009288
0.000100929
0.0001009291
0.0001009293
0.0001009294
0.0001009296
0.0001009302
0.0001009277
0.0001009277
0.0001009278
0.0001009278
0.0001009279
0.0001009279
0.000100928
0.0001009281
0.0001009282
0.0001009283
0.0001009283
0.0001009285
0.0001009286
0.0001009287
0.0001009289
0.0001009291
0.0001009294
0.0001009299
0.0001009307
0.0001009327
0.0001009585
0.0001023996
0.001533352
0.001359432
0.001290636
0.001269924
0.001264135
0.001264031
0.001269616
0.001290227
0.001359457
0.001536438
0.000101015
0.0001011563
0.0001009277
0.0001009278
0.0001009436
0.0001009425
0.0001009426
0.0001009427
0.0001009429
0.0001009431
0.0001009432
0.0001009433
0.0001009438
0.0001009459
0.000101098
0.001284508
0.0001009277
0.0001009276
0.0001009276
0.0001009276
0.0001009277
0.0001009278
0.0001009279
0.0001009281
0.0001009284
0.0001009287
0.0001009292
0.0001009301
0.00010114
0.001238573
0.0001009276
0.0001009276
0.0001009276
0.0001009277
0.0001009278
0.0001009279
0.000100928
0.0001009283
0.0001009286
0.0001009291
0.0001009297
0.0001009312
0.0001011885
0.001220289
0.0001009277
0.0001009277
0.0001009277
0.0001009277
0.0001009278
0.0001009279
0.0001009281
0.0001009284
0.0001009288
0.0001009294
0.0001009304
0.0001009327
0.000101256
0.001218608
0.0001009277
0.0001009277
0.0001009277
0.0001009278
0.0001009279
0.000100928
0.0001009282
0.0001009286
0.0001009291
0.0001009301
0.0001009314
0.0001009359
0.0001014091
0.001233893
0.0001009277
0.0001009277
0.0001009277
0.0001009278
0.0001009279
0.0001009281
0.0001009283
0.0001009287
0.0001009294
0.0001009307
0.0001009331
0.0001009415
0.0001016989
0.001285502
0.0001009277
0.0001009277
0.0001009278
0.0001009278
0.0001009279
0.0001009281
0.0001009284
0.0001009289
0.0001009298
0.0001009316
0.0001009356
0.0001009453
0.0001009704
0.000102082
0.0001009277
0.0001009277
0.0001009278
0.0001009278
0.0001009279
0.0001009281
0.0001009284
0.000100929
0.00010093
0.000100932
0.000100937
0.0001009479
0.0001009974
0.0001016366
0.0001009436
0.0001009729
0.0001009403
0.0001009277
0.0001009277
0.0001009277
0.0001009278
0.0001009279
0.0001009281
0.0001009284
0.0001009289
0.0001009297
0.0001009314
0.000100935
0.0001009442
0.0001009704
0.0001011338
0.0001014204
0.0001009416
0.0001009364
0.0001009318
0.0001009315
0.0001009295
0.0001009278
0.0001009277
0.0001009277
0.0001009278
0.0001009279
0.0001009281
0.0001009283
0.0001009287
0.0001009294
0.0001009307
0.0001009328
0.0001009384
0.0001009497
0.0001009616
0.0001009582
0.0001009498
0.0001009445
0.0001009352
0.0001009324
0.0001009342
0.0001009278
0.0001009277
0.0001009277
0.0001009278
0.0001009279
0.000100928
0.0001009282
0.0001009286
0.0001009291
0.0001009299
0.0001009311
0.0001009334
0.000100938
0.0001009441
0.0001009472
0.000100941
0.0001009363
0.0001009327
0.0001009311
0.0001009307
0.0001009278
0.0001009277
0.0001009277
0.0001009277
0.0001009278
0.000100928
0.0001009281
0.0001009284
0.0001009288
0.0001009294
0.0001009302
0.0001009315
0.0001009332
0.000100935
0.000100935
0.0001009346
0.0001009334
0.0001009319
0.0001009315
0.0001009312
0.0001009277
0.0001009276
0.0001009277
0.0001009277
0.0001009278
0.0001009279
0.0001009281
0.0001009283
0.0001009286
0.000100929
0.0001009296
0.0001009304
0.0001009314
0.0001009325
0.0001009328
0.0001009322
0.0001009312
0.0001009304
0.0001009299
0.0001009297
0.0001009277
0.0001009276
0.0001009277
0.0001009277
0.0001009278
0.0001009279
0.000100928
0.0001009282
0.0001009285
0.0001009288
0.0001009292
0.0001009297
0.0001009302
0.0001009307
0.0001009308
0.0001009306
0.0001009303
0.0001009298
0.0001009295
0.0001009293
0.0001009278
0.0001009277
0.0001009277
0.0001009277
0.0001009278
0.0001009279
0.000100928
0.0001009282
0.0001009284
0.0001009286
0.0001009289
0.0001009293
0.0001009296
0.0001009299
0.0001009301
0.0001009299
0.0001009297
0.0001009293
0.000100929
0.0001009288
0.0001009278
0.0001009277
0.0001009277
0.0001009277
0.0001009278
0.0001009279
0.000100928
0.0001009282
0.0001009283
0.0001009285
0.0001009287
0.000100929
0.0001009292
0.0001009294
0.0001009295
0.0001009295
0.0001009293
0.0001009291
0.0001009288
0.0001009285
0.0001009277
0.0001009277
0.0001009277
0.0001009278
0.0001009278
0.0001009279
0.000100928
0.0001009281
0.0001009283
0.0001009284
0.0001009286
0.0001009288
0.000100929
0.0001009292
0.0001009293
0.0001009293
0.0001009292
0.000100929
0.0001009288
0.0001009286
0.0001009277
0.0001009277
0.0001009277
0.0001009278
0.0001009278
0.0001009279
0.000100928
0.0001009281
0.0001009282
0.0001009284
0.0001009285
0.0001009287
0.0001009288
0.000100929
0.0001009291
0.0001009292
0.0001009292
0.0001009291
0.000100929
0.0001009289
0.0001009277
0.0001009277
0.0001009277
0.0001009278
0.0001009278
0.0001009279
0.000100928
0.0001009281
0.0001009282
0.0001009283
0.0001009284
0.0001009285
0.0001009287
0.0001009288
0.000100929
0.0001009291
0.0001009293
0.0001009294
0.0001009296
0.0001009303
0.0001009277
0.0001009277
0.0001009277
0.0001009278
0.0001009278
0.0001009279
0.000100928
0.0001009281
0.0001009282
0.0001009282
0.0001009283
0.0001009284
0.0001009286
0.0001009287
0.0001009289
0.0001009291
0.0001009294
0.0001009298
0.0001009307
0.0001009327
0.0001009596
0.0001024015
0.001520132
0.001341282
0.001269583
0.001247467
0.001241121
0.001241028
0.001247196
0.001269247
0.001341474
0.001523634
0.0001010147
0.0001011557
0.0001009277
0.0001009279
0.0001009438
0.0001009426
0.0001009427
0.0001009429
0.0001009431
0.0001009433
0.0001009434
0.0001009435
0.0001009439
0.000100946
0.0001010969
0.001283439
0.0001009277
0.0001009276
0.0001009276
0.0001009276
0.0001009277
0.0001009278
0.0001009279
0.0001009281
0.0001009284
0.0001009287
0.0001009292
0.0001009301
0.0001011398
0.001237218
0.0001009276
0.0001009276
0.0001009277
0.0001009277
0.0001009278
0.0001009279
0.000100928
0.0001009282
0.0001009286
0.000100929
0.0001009297
0.0001009312
0.0001011878
0.001218677
0.0001009277
0.0001009277
0.0001009277
0.0001009277
0.0001009278
0.0001009279
0.0001009281
0.0001009284
0.0001009288
0.0001009294
0.0001009304
0.0001009327
0.0001012558
0.001216939
0.0001009277
0.0001009277
0.0001009277
0.0001009278
0.0001009279
0.000100928
0.0001009282
0.0001009286
0.0001009291
0.00010093
0.0001009314
0.000100936
0.0001014088
0.001232427
0.0001009277
0.0001009277
0.0001009277
0.0001009278
0.0001009279
0.0001009281
0.0001009283
0.0001009287
0.0001009294
0.0001009306
0.000100933
0.0001009416
0.0001017028
0.001284656
0.0001009277
0.0001009277
0.0001009278
0.0001009278
0.0001009279
0.0001009281
0.0001009284
0.0001009289
0.0001009298
0.0001009316
0.0001009356
0.0001009454
0.0001009714
0.0001020832
0.0001009277
0.0001009277
0.0001009278
0.0001009278
0.0001009279
0.0001009281
0.0001009284
0.0001009289
0.00010093
0.0001009319
0.000100937
0.0001009478
0.0001009961
0.0001017874
0.0001009448
0.000100982
0.0001009409
0.0001009278
0.0001009277
0.0001009277
0.0001009278
0.0001009279
0.0001009281
0.0001009284
0.0001009288
0.0001009297
0.0001009314
0.0001009349
0.000100944
0.0001009699
0.0001011332
0.0001014253
0.0001009412
0.0001009366
0.0001009331
0.0001009286
0.0001009306
0.0001009278
0.0001009277
0.0001009277
0.0001009278
0.0001009279
0.000100928
0.0001009283
0.0001009287
0.0001009294
0.0001009306
0.0001009328
0.0001009384
0.0001009495
0.0001009615
0.0001009578
0.00010095
0.0001009446
0.0001009351
0.0001009315
0.0001009337
0.0001009278
0.0001009277
0.0001009277
0.0001009278
0.0001009279
0.000100928
0.0001009282
0.0001009285
0.000100929
0.0001009298
0.0001009311
0.0001009333
0.000100938
0.000100944
0.0001009472
0.000100941
0.000100936
0.0001009326
0.0001009309
0.0001009306
0.0001009278
0.0001009277
0.0001009277
0.0001009277
0.0001009278
0.0001009279
0.0001009281
0.0001009284
0.0001009288
0.0001009294
0.0001009302
0.0001009314
0.0001009332
0.0001009349
0.0001009349
0.0001009346
0.0001009334
0.0001009317
0.0001009313
0.0001009312
0.0001009278
0.0001009277
0.0001009277
0.0001009277
0.0001009278
0.0001009279
0.0001009281
0.0001009283
0.0001009286
0.000100929
0.0001009296
0.0001009304
0.0001009313
0.0001009325
0.0001009327
0.0001009322
0.0001009312
0.0001009303
0.0001009299
0.0001009296
0.0001009278
0.0001009277
0.0001009277
0.0001009277
0.0001009278
0.0001009279
0.000100928
0.0001009282
0.0001009285
0.0001009288
0.0001009292
0.0001009297
0.0001009302
0.0001009306
0.0001009308
0.0001009306
0.0001009303
0.0001009298
0.0001009295
0.0001009293
0.0001009278
0.0001009277
0.0001009277
0.0001009277
0.0001009278
0.0001009279
0.000100928
0.0001009282
0.0001009284
0.0001009286
0.0001009289
0.0001009293
0.0001009296
0.0001009299
0.00010093
0.0001009299
0.0001009297
0.0001009293
0.000100929
0.0001009288
0.0001009278
0.0001009277
0.0001009277
0.0001009277
0.0001009278
0.0001009279
0.000100928
0.0001009281
0.0001009283
0.0001009285
0.0001009287
0.000100929
0.0001009292
0.0001009294
0.0001009295
0.0001009295
0.0001009293
0.0001009291
0.0001009288
0.0001009286
0.0001009278
0.0001009277
0.0001009277
0.0001009277
0.0001009278
0.0001009279
0.000100928
0.0001009281
0.0001009283
0.0001009284
0.0001009286
0.0001009288
0.000100929
0.0001009292
0.0001009293
0.0001009293
0.0001009292
0.000100929
0.0001009288
0.0001009286
0.0001009277
0.0001009277
0.0001009277
0.0001009278
0.0001009278
0.0001009279
0.000100928
0.0001009281
0.0001009282
0.0001009284
0.0001009285
0.0001009287
0.0001009288
0.000100929
0.0001009291
0.0001009292
0.0001009292
0.0001009291
0.000100929
0.0001009289
0.0001009277
0.0001009277
0.0001009277
0.0001009278
0.0001009278
0.0001009279
0.000100928
0.0001009281
0.0001009282
0.0001009283
0.0001009284
0.0001009285
0.0001009287
0.0001009288
0.000100929
0.0001009291
0.0001009293
0.0001009294
0.0001009296
0.0001009302
0.0001009277
0.0001009277
0.0001009277
0.0001009278
0.0001009278
0.0001009279
0.000100928
0.0001009281
0.0001009282
0.0001009282
0.0001009283
0.0001009284
0.0001009286
0.0001009287
0.0001009289
0.0001009291
0.0001009294
0.0001009299
0.0001009307
0.0001009327
0.000100959
0.0001023992
0.001516199
0.001335902
0.001263209
0.001240474
0.001233843
0.001233754
0.001240224
0.00126292
0.001336192
0.001519933
0.0001010152
0.000101156
0.0001009277
0.0001009279
0.0001009439
0.0001009427
0.0001009428
0.000100943
0.0001009432
0.0001009434
0.0001009435
0.0001009436
0.000100944
0.0001009461
0.0001010969
0.001283011
0.0001009277
0.0001009276
0.0001009276
0.0001009276
0.0001009277
0.0001009278
0.0001009279
0.0001009281
0.0001009284
0.0001009287
0.0001009292
0.0001009301
0.0001011399
0.001236727
0.0001009276
0.0001009276
0.0001009277
0.0001009277
0.0001009278
0.0001009279
0.000100928
0.0001009282
0.0001009286
0.000100929
0.0001009297
0.0001009312
0.0001011878
0.00121812
0.0001009277
0.0001009277
0.0001009277
0.0001009277
0.0001009278
0.0001009279
0.0001009281
0.0001009284
0.0001009288
0.0001009294
0.0001009304
0.0001009327
0.0001012562
0.001216376
0.0001009277
0.0001009277
0.0001009277
0.0001009278
0.0001009279
0.000100928
0.0001009282
0.0001009286
0.0001009291
0.00010093
0.0001009314
0.0001009359
0.0001014093
0.001231946
0.0001009277
0.0001009277
0.0001009277
0.0001009278
0.0001009279
0.000100928
0.0001009283
0.0001009287
0.0001009294
0.0001009306
0.000100933