/*--------------------------------*- C++ -*----------------------------------*\
  =========                 |
  \\      /  F ield         | OpenFOAM: The Open Source CFD Toolbox
   \\    /   O peration     | Website:  https://openfoam.org
    \\  /    A nd           | Version:  7
     \\/     M anipulation  |
\*---------------------------------------------------------------------------*/
FoamFile
{
    version     2.0;
    format      ascii;
    class       surfaceScalarField;
    location    "0.04";
    object      phi;
}
// * * * * * * * * * * * * * * * * * * * * * * * * * * * * * * * * * * * * * //

dimensions      [0 3 -1 0 0 0 0];

internalField   nonuniform List<scalar> 
161064
(
8.833852e-05
0.0005680678
-0.002352735
-3.319264e-05
-0.0001445304
-7.449395e-05
8.233077e-05
-4.50789e-07
0.0005345148
0.0006759493
0.0006562021
0.0001498442
0.002372055
-0.002243185
-0.0001604806
-0.0001596183
-7.629336e-05
8.24018e-05
3.527659e-05
0.0001400068
0.002279242
-0.002229602
-0.0001323874
-0.0001207694
-6.121419e-05
8.568373e-05
3.903954e-05
0.0001374619
0.002261279
-0.00217719
-0.0001739641
-8.855001e-05
-8.467274e-05
7.521278e-05
5.042347e-05
0.0001674863
0.002197652
-0.00212262
-0.0002118898
-0.0001002853
-5.884641e-05
8.539391e-05
4.311051e-05
0.0001652484
0.002134392
-0.002043307
-0.00024531
-0.0001062341
-5.007766e-05
9.104648e-05
5.424282e-05
0.0001585391
0.002027055
-0.001924051
-0.0002646925
-0.0001022004
-4.186367e-05
9.053677e-05
5.667806e-05
0.0001533316
0.00189197
-0.001781511
-0.0002883199
-9.953982e-05
-3.047296e-05
9.10792e-05
6.346358e-05
0.0001269429
0.001739439
-0.00161008
-0.0003048995
-7.727305e-05
-1.835293e-05
8.718121e-05
5.70436e-05
0.0001279294
-0.001385034
-0.0003211717
-7.636599e-05
-8.620426e-06
8.24384e-05
5.236551e-05
0.001528459
0.0001075285
0.001295063
-0.001116527
-0.0003403999
-7.169332e-05
-8.619347e-06
7.479084e-05
5.985712e-05
9.235696e-05
0.001004357
-0.0008162988
-0.0003656284
-7.019145e-05
2.02256e-05
7.497078e-05
6.020865e-05
7.526665e-05
0.0006792517
-0.0004884832
-0.0003464778
-4.833872e-05
1.502999e-05
5.884976e-05
5.490152e-05
5.666349e-05
0.0003519457
-0.0003672033
9.512679e-06
3.241449e-05
5.715457e-05
4.860024e-05
-3.209939e-05
-4.44148e-05
-5.29003e-05
-5.967343e-05
0.0005509544
-0.0001052232
-0.002104528
5.141461e-05
-0.0001724256
0.0005563354
0.0006129195
0.0006105533
-0.008809982
-0.0005376684
2.546037e-05
0.0002754307
-0.0003545722
0.0002542476
1.903062e-05
0.001982379
0.002018026
0.00258654
0.002541109
-0.008455664
-0.0003424741
-2.36051e-05
0.0003449135
-0.0003598538
7.320198e-05
-4.650089e-05
-0.00822808
-0.0006878645
9.197578e-05
0.0004354386
-0.0002747268
0.0001644338
4.316056e-05
-0.007883095
-0.0007854164
-1.890944e-05
0.0004492196
-0.0002514222
0.0001733658
8.817828e-05
-0.007506693
-0.001025553
-3.191567e-05
0.000488929
-0.0001986682
0.0002286271
0.0001621792
-0.00702326
-0.001260553
-6.839259e-05
0.0005078603
-0.0001399171
0.0002704005
0.0002071697
-0.006441317
-0.001551748
-9.453784e-05
0.0005341469
-6.795071e-05
0.0003224532
0.0002756944
-0.0057282
-0.001866852
-0.0001189239
0.0005489885
1.763301e-05
0.0003832064
0.0003228315
-0.004875123
-0.002219857
-0.0001392703
0.0005702819
0.0001030043
0.0004398859
0.0003928785
-0.003861909
-0.002577078
-0.0001691312
0.0005842988
0.000201879
0.000493887
0.0004529305
-0.002735264
-0.002963083
-0.000137836
0.0006031066
0.0003106023
0.0005500275
0.0005105379
-0.0002677662
-0.003259784
-6.696482e-05
-0.000511899
-0.0003540869
-0.0004315722
0.0005848744
0.0004214207
0.0005915836
0.0005589304
-0.0006925393
-3.714242e-05
0.0005955304
-5.114335e-05
1.59634e-06
-2.233796e-05
-6.173007e-05
0.0005614783
2.17191e-05
-0.002137493
-2.581485e-05
-0.0002069321
0.0005611883
0.0006142073
0.0006116471
-0.008989177
-0.000499827
-0.0006175558
0.002160022
0.002148846
0.002645082
0.002614942
-0.008493742
-0.0005653969
-0.0002725125
-0.008332307
-0.0008175636
-3.173499e-05
-0.00803323
-0.001026279
-5.821455e-05
-0.007706016
-0.001315962
-3.680409e-05
-0.007266175
-0.001647141
-5.325357e-05
-0.006716559
-0.00203944
-6.192307e-05
-0.006026344
-0.002483046
-7.402157e-05
-0.005187524
-0.002984909
-7.376699e-05
-0.004169253
-0.00352672
-6.862874e-05
-0.003070998
-0.004087598
2.625989e-05
-0.0002298372
-0.004607022
0.0001201676
-0.0006628416
-0.0004201982
-0.0005310515
0.0009817307
-0.001083448
-7.805871e-06
-3.846476e-05
2.270437e-05
-1.979822e-05
-8.475592e-05
0.0005728113
2.344456e-05
-0.002179541
-3.819995e-05
-0.0002048556
0.0005716876
0.0006283442
0.0006263088
-0.009227298
-0.0005153284
-0.0005260296
0.002205355
0.002195634
0.002688685
0.002679155
-0.00878962
-0.0007126223
-0.000290453
-0.00862937
-0.000998465
2.065166e-05
-0.008350672
-0.001270275
-3.47014e-05
-0.008035469
-0.001626368
-4.797583e-06
-0.007636167
-0.002031726
-1.471656e-05
-0.007133687
-0.002531129
-1.079102e-05
-0.006488596
-0.003110793
-1.734237e-05
-0.005678927
-0.003788552
-6.02689e-06
-0.004650952
-0.004549548
-5.146786e-06
-0.003450638
-0.005383183
9.527071e-05
-0.0001901404
-0.006183412
0.0001468488
-0.0007943567
-0.00045839
-0.0005782097
0.001469075
-0.001519019
-4.343194e-05
5.203237e-05
-1.352051e-05
-3.775819e-05
-9.751876e-05
0.0005846919
4.908372e-05
-0.002234488
-5.823891e-05
-0.0002002969
0.0005818041
0.0006412884
0.0006361559
-0.009376454
-0.0005507356
-0.0006415099
0.002272668
0.00226181
0.002760813
0.00275808
-0.008938834
-0.0007901149
-0.0003601272
-0.008833593
-0.001095615
-8.090317e-06
-0.008619913
-0.001427083
-5.68715e-05
-0.008399343
-0.001839322
-7.615023e-06
-0.008074489
-0.002336107
-2.047332e-05
-0.007661752
-0.002932759
-1.110724e-05
-0.007104399
-0.003653686
-1.445965e-05
-0.006368987
-0.004530269
6.305291e-06
-0.005368068
-0.005559112
8.645544e-06
-0.004140341
-0.006764745
0.0001538342
-0.0002197809
-0.008003404
0.0001985317
-0.001007608
-0.0005637015
-0.0007277906
-0.00202884
-3.987878e-05
0.001994813
-4.161127e-05
5.844253e-05
-1.450604e-05
-0.0001482004
0.0005496587
7.542333e-05
-0.002284999
-5.991882e-05
-0.0001430572
0.0005425096
0.0006584889
0.0006618941
-0.009694862
-0.0005510769
-0.0006395993
0.002329927
0.002319117
0.002844677
0.002841081
-0.009292166
-0.0008404823
-0.000352328
-0.009213632
-0.001174267
1.183179e-07
-0.009050243
-0.001536991
-5.348252e-05
-0.00888239
-0.001994735
-1.243913e-05
-0.008660579
-0.002543392
-1.452542e-05
-0.00836486
-0.00322661
-1.867903e-06
-0.007937736
-0.004076665
-4.146173e-06
-0.007330672
-0.005153534
1.620141e-05
-0.006409054
-0.006500105
1.937454e-05
-0.00515843
-0.008191149
0.0001757805
-0.0002962967
-0.01013546
0.0002211354
-0.001305718
-0.0007370457
-0.0009084508
0.002595997
-0.002629465
-9.062057e-05
-6.398518e-05
8.509418e-05
-2.521078e-05
-0.0001681061
0.0005499172
5.551784e-05
-0.00234531
-4.023652e-05
-0.0001249562
0.0005497654
0.0006784364
0.0006768656
-0.009960185
-0.0005563695
-0.0006601653
0.00239613
0.002385843
0.002923961
0.00291971
-0.009583627
-0.0008359076
-0.000381132
-0.009564062
-0.001178582
-1.525078e-05
-0.009482906
-0.001553264
-6.488252e-05
-0.009434299
-0.002034552
-8.789434e-06
-0.009351294
-0.002611369
-1.502782e-05
-0.009233917
-0.003342202
-1.784715e-06
-0.009027292
-0.00427692
-6.368985e-06
-0.008676697
-0.005527677
2.354718e-05
-0.008018097
-0.007176294
1.758923e-05
-0.006940334
-0.00955469
0.0002857779
-0.000455803
-0.01284253
0.0002796866
-0.001765516
-0.0009300066
-0.001361626
0.003343564
-0.003345257
-0.0001364072
-0.0001089025
7.284338e-05
-3.203902e-05
-0.0002496045
0.0006301825
-0.002430801
-5.355788e-05
-0.0001967661
0.0006334901
0.0006925192
0.0006925815
3.235192e-05
-0.01029851
-0.0005231251
-0.0007051863
0.002483208
0.002469554
0.00300962
0.003008067
-0.009945751
-0.000804492
-0.0003841717
-0.009978625
-0.001135666
-1.00421e-05
-0.00997253
-0.001498166
-6.119285e-05
-0.0100215
-0.001972684
-1.28996e-05
-0.01008831
-0.002528901
-1.565716e-05
-0.01017796
-0.003251431
-1.122363e-06
-0.01025475
-0.004197505
-2.624182e-06
-0.01030931
-0.005488876
1.576292e-05
-0.01024465
-0.007280202
3.924888e-05
-0.009997108
-0.01005074
0.0002485019
-0.001110516
-0.01459907
0.0007149268
-0.003085534
-0.001687586
-0.003071859
0.004349734
-0.004646186
-5.075287e-05
-0.0002029686
7.600317e-06
-0.0001671016
-0.0004008416
0.0006047639
6.854002e-05
-0.002491925
-3.556292e-05
-0.0001881313
0.0006031699
0.0007204513
0.0007186945
-0.01057767
-0.0004799248
-0.0007233831
0.002543288
0.002537223
0.00309181
0.003085535
-0.01025366
-0.0007268868
-0.0004016151
-0.01034022
-0.001031758
-1.734731e-05
-0.01041698
-0.00135198
-6.942491e-05
-0.01061296
-0.001771964
-4.74306e-06
-0.01086567
-0.002261167
-1.502708e-05
-0.01122721
-0.002889734
-1.537832e-07
-0.0117283
-0.003691441
-4.980358e-06
-0.01246583
-0.004769421
1.807492e-05
-0.01366291
-0.006099719
1.659813e-05
-0.01582377
-0.008252899
0.0003630184
-0.002748686
-0.01108599
0.0009877535
-0.006488832
-0.004238058
-0.006849029
0.006433429
-0.006182355
-3.537118e-05
-0.0006969496
-0.0002605984
-0.0005431284
-0.001463713
0.0006670349
4.100745e-05
-0.002558031
-4.377786e-05
-0.0002271842
0.0006624739
0.0007280919
0.0007303847
-0.01084585
-0.000407315
-0.000753048
0.002611163
0.00259666
0.003160863
0.003157601
-0.01055035
-0.0006150223
-0.0004073588
-0.01069106
-0.0008720882
-1.896573e-05
-0.01083524
-0.001139227
-6.857366e-05
-0.01112312
-0.001479724
-4.353819e-06
-0.01150542
-0.001865248
-1.362407e-05
-0.01205554
-0.002340623
1.009478e-06
-0.01282221
-0.002925154
3.847649e-07
-0.01401013
-0.00360318
2.167717e-05
-0.0158057
-0.00435261
4.846703e-05
-0.01913587
-0.005215916
0.0002931801
-0.005416025
-0.005701974
0.0009444219
-0.006276734
-0.006844411
-0.006927131
0.004349257
-0.00750185
-0.002351201
8.776902e-05
0.0006144753
0.009587762
-0.009649394
0.0001721195
0.0001121494
-0.0006537017
0.0002552163
-0.0004386272
-0.0005559473
0.008736906
-0.007777383
0.00219036
0.0007443101
-0.00123151
-0.0009631832
-0.001143555
-0.0007552384
0.007386803
-0.006778844
0.003006546
0.0008674065
-0.001320692
-0.001125168
-0.001280816
-0.000842937
0.006468923
-0.006001638
0.003341841
0.0009207928
-0.001319615
-0.001226531
-0.001340838
-0.0008740998
0.005779257
-0.005384652
0.00352328
0.000945164
-0.001347718
-0.001282306
-0.001358926
-0.0008824863
0.005202953
0.003639558
0.0009070745
-0.001287311
-0.001307443
-0.001408808
-0.004863539
0.0006786255
-0.002606399
-4.60029e-05
-0.0002264083
0.0006754077
0.0007430465
0.0007382355
4.349551e-05
-0.01106642
-0.0003154412
-0.0007782523
0.002660471
0.002650629
0.003223565
0.003218133
-0.01079275
-0.000475894
-0.0004127975
-0.01096607
-0.0006758476
-2.292001e-05
-0.0111583
-0.0008744562
-7.253562e-05
-0.01152134
-0.001115872
-8.173806e-07
-0.01199157
-0.001381816
-1.320163e-05
-0.01264734
-0.001684686
-1.700503e-07
-0.01354859
-0.00202216
-1.737962e-06
-0.01481697
-0.002342316
7.510374e-06
-0.01658109
-0.002606389
1.78987e-05
-0.01926438
-0.002650369
0.0001177514
-0.02297608
-0.002330315
0.0003400397
-0.02606322
-0.0004153703
0.000118929
0.001957773
-0.0004619911
0.001419233
0.0004685646
-0.02632116
0.004212608
-6.471551e-05
0.0006189648
-0.002438384
-0.0003532052
-0.001717335
-0.02468502
0.008027868
-0.0008491712
-0.0008284187
-0.003252623
-0.001909263
-0.002824528
-0.02281422
0.01054053
-0.0006004599
-0.001697425
-0.003691999
-0.002893337
-0.003528114
-0.02096759
0.01232666
-0.0006668275
-0.002182291
-0.003992126
-0.003409934
-0.00392211
-0.01922948
0.01344041
-0.0006415741
-0.002533413
-0.004148425
-0.003712795
-0.004142307
0.0140519
-0.0005671747
-0.002770923
-0.003913606
-0.01754546
-0.004218469
-0.00426575
0.000629848
5.934925e-05
-0.002630249
-3.661585e-05
-0.0001595972
0.0006224451
0.0007560893
0.0007587306
-0.01123249
-0.0002147497
-0.0007672838
0.002684651
0.002674268
0.003276161
0.003264002
-0.01097344
-0.0003177853
-0.0004171617
-0.0111726
-0.0004536226
-2.306231e-05
-0.01139334
-0.0005799133
-7.379735e-05
-0.0117851
-0.0007242764
1.56173e-07
-0.01228115
-0.0008736609
-1.210208e-05
-0.01294536
-0.001021984
1.508558e-06
-0.01381336
-0.00115644
2.282553e-06
-0.01494095
-0.0012252
1.046797e-05
-0.01638307
-0.001185864
2.159394e-05
-0.0182187
-0.0008870862
7.235632e-05
-0.02050852
-0.0001642025
0.0001236984
-0.02251966
0.001371101
0.0002246668
-0.02302086
0.004370251
0.0003435656
-0.02228064
0.006767384
0.0005202604
-0.02106299
0.00872355
0.0005993269
-0.01971013
0.01023264
0.0007411567
-0.01836149
0.0112809
0.0008108626
0.01199782
0.0007709249
-0.01707833
0.0006173713
2.675109e-05
-0.002641699
-1.508026e-05
-0.0001270414
0.0006152371
0.0007633895
0.0007610716
-0.01134616
-0.0001035881
-0.0007621949
0.002701722
0.00269626
0.003307892
0.003291324
-0.01109381
-0.0001513002
-0.0004188426
-0.01130137
-0.0002212743
-2.478751e-05
-0.01153142
-0.0002763816
-7.348089e-05
-0.01192899
-0.000328113
1.41169e-06
-0.01242069
-0.0003701589
-1.179969e-05
-0.01305825
-0.0003848668
4.416575e-07
-0.01385709
-0.0003567165
-8.914949e-07
-0.01484695
-0.0002369928
1.657385e-06
-0.01604498
1.307351e-05
-9.074833e-07
-0.0174379
0.0005060749
-2.430364e-07
-0.01895694
0.001369202
-1.435945e-05
-0.02021394
0.002700554
-7.245369e-05
-0.02053413
0.004738056
-4.761748e-05
-0.02020676
0.006616066
-0.0001760485
-0.01950145
0.008227053
-0.000208817
-0.01858926
0.009530844
-0.0002103887
-0.01758895
0.01049196
-0.0002113696
0.01118331
-0.0002219212
-0.01655252
0.000619305
1.182154e-05
-0.002654296
-2.803422e-06
-0.0001227585
0.0006187043
0.0007659534
0.0007640735
-0.01139601
1.260788e-05
-0.0007786451
0.002712916
0.002712546
0.003318009
0.003314989
-0.01114501
1.637946e-05
-0.0004186849
-0.01135116
1.050387e-05
-2.562098e-05
-0.01157657
2.152559e-05
-7.250147e-05
-0.01195988
5.297635e-05
2.222806e-06
-0.01242111
0.0001021907
-1.112148e-05
-0.01300033
0.0001936293
7.207479e-07
-0.01369744
0.0003405311
-1.364843e-07
-0.01452069
0.000583523
2.73939e-06
-0.01546541
0.0009553871
2.401076e-06
-0.01648978
0.001522707
7.744708e-06
-0.01748642
0.002353965
1.186902e-05
-0.01831999
0.003508006
2.61193e-05
-0.01864582
0.004993061
7.082517e-05
-0.01853733
0.006427584
7.999436e-05
-0.01813129
0.007736818
8.419611e-05
-0.01754411
0.008830309
0.0001133528
-0.01685109
0.009682296
0.0001166427
0.01030496
0.0001020506
-0.01607479
0.0006219603
-5.169248e-06
-0.002667375
1.764022e-05
-0.0001274921
0.0006234298
0.0007695233
0.0007674832
-0.01138514
0.0001174938
-0.000781512
0.002715756
0.00272005
0.003304327
0.003321634
-0.01112936
0.0001784271
-0.0004178294
-0.01132537
0.0002323632
-2.584902e-05
-0.01153952
0.0003050219
-6.93479e-05
-0.01189824
0.0004087224
2.975966e-06
-0.0123194
0.0005339682
-1.061474e-05
-0.01283522
0.0007095067
-6.068661e-08
-0.01343724
0.0009444388
-1.89071e-06
-0.0141242
0.001270858
-3.669764e-07
-0.01487998
0.001712911
-1.745517e-06
-0.0156666
0.002312093
-2.770923e-06
-0.01640984
0.003102387
-5.181849e-06
-0.01698512
0.004089454
-6.159982e-06
-0.01726044
0.005268315
6.539644e-08
-0.01726036
0.006439872
-1.237165e-05
-0.01704218
0.007537541
-1.890179e-05
-0.01667581
0.00848002
-1.608288e-05
-0.01620917
0.00923475
-1.909051e-05
0.009781599
-3.03986e-05
-0.01565541
0.0006936742
-0.002693837
2.652696e-05
-0.0002063873
0.0006988162
0.0007636635
0.0007563542
-3.881084e-05
-0.01131218
0.0002179247
-0.0008097472
0.00271904
0.00272153
0.00328505
0.003295872
-0.01105284
0.0003339472
-0.0004148586
-0.01123749
0.0004416653
-2.464396e-05
-0.01143357
0.0005677889
-6.668887e-05
-0.01176049
0.0007325873
3.047423e-06
-0.01213618
0.0009193118
-9.645213e-06
-0.01258586
0.001159092
8.735396e-08
-0.01309612
0.001456156
-1.453378e-06
-0.01366021
0.00183451
4.394666e-07
-0.01425916
0.002310835
1.024332e-06
-0.0148604
0.002910825
2.505226e-06
-0.01541111
0.003647955
5.148799e-06
-0.01585026
0.004518418
1.01826e-05
-0.0161024
0.005504171
1.628387e-05
-0.01617853
0.006495741
2.026252e-05
-0.01610649
0.007443119
2.238432e-05
-0.01592963
0.008275004
2.815084e-05
-0.01567888
0.008954995
2.900601e-05
0.009433671
2.367551e-05
-0.01535463
0.0006888988
-2.379358e-05
-0.002659832
2.633661e-05
-0.000227908
0.0006891037
0.0007549285
0.0007522661
-0.01119607
0.0003186975
-0.0008183103
0.002692573
0.002700252
0.003253643
0.003267144
-0.01092719
0.0004754148
-0.0004103544
-0.01108757
0.0006311209
-2.906838e-05
-0.01126792
0.0008084938
-6.035735e-05
-0.0115612
0.001022037
3.823817e-06
-0.01189244
0.001258453
-7.89401e-06
-0.01228096
0.001546873
7.351182e-07
-0.01271146
0.001887696
-1.04176e-06
-0.01317673
0.002299531
2.560206e-07
-0.01365961
0.002793481
2.312949e-07
-0.01413391
0.003384456
6.66554e-07
-0.01456499
0.004077606
1.425111e-06
-0.01491484
0.004865642
2.631357e-06
-0.01514677
0.005731496
4.60021e-06
-0.01526811
0.006611806
5.282859e-06
-0.01529975
0.007468134
6.62111e-06
-0.01527314
0.008239615
8.776751e-06
-0.01521624
0.008891159
6.938398e-06
0.00934276
5.188208e-07
-0.01512585
0.0006786961
-3.208641e-05
-0.002615179
2.674915e-05
-0.0002183692
0.000679368
0.0007430703
0.0007377506
-0.01104405
0.0004009312
-0.0007762504
0.002647848
0.002659756
0.003208032
0.003222433
-0.01075994
0.0005979243
-0.0004066182
-0.01090593
0.0008015791
-2.447147e-05
-0.01105827
0.001019233
-5.83992e-05
-0.01131581
0.001275774
3.80191e-06
-0.01160363
0.001552723
-6.450037e-06
-0.01193607
0.001878302
1.009409e-06
-0.01229768
0.002250308
-9.988961e-07
-0.01268105
0.002682874
2.988983e-08
-0.01307097
0.003183321
8.031932e-08
-0.01344826
0.003761102
6.368578e-07
-0.01379051
0.004418359
1.498803e-06
-0.01407725
0.005149564
2.823291e-06
-0.01429286
0.005942615
4.488995e-06
-0.01444833
0.006760477
6.800948e-06
-0.01456764
0.007578285
9.157061e-06
-0.01468484
0.008343891
1.292332e-05
-0.01483418
0.009027203
1.329463e-05
0.009510485
1.479994e-05
-0.01501671
0.0006112078
-1.704547e-05
-0.002559035
2.818547e-05
-0.0001404334
0.0006072099
0.0007344948
0.0007354155
-0.01081334
0.0004756924
-0.0007565471
0.002584161
0.002595198
0.003149044
0.003166726
-0.01051921
0.0007131159
-0.0004093276
-0.01066211
0.000963201
-1.87238e-05
-0.0108011
0.001210093
-5.186994e-05
-0.01103007
0.00149954
5.204698e-06
-0.01127979
0.00180747
-5.025062e-06
-0.01156381
0.002161295
1.033321e-06
-0.01186722
0.002554864
-1.155146e-06
-0.01218339
0.002999462
-4.160542e-07
-0.01249954
0.00350009
-6.159781e-07
-0.01280145
0.004063392
-3.780969e-07
-0.01307441
0.004691361
-4.67337e-08
-0.01330764
0.005382162
6.354999e-07
-0.01349744
0.006130902
1.505975e-06
-0.01366023
0.006920012
3.263715e-06
-0.01382735
0.007740599
4.799142e-06
-0.01404844
0.00855673
8.253608e-06
-0.01437729
0.009350456
5.597795e-06
0.009908547
1.225946e-05
-0.01478761
0.0005791294
-4.742014e-05
-0.002489992
4.718043e-05
-0.0001042862
0.0005810989
0.000716562
0.0007177276
-0.01057024
0.0005524831
-0.0007364179
0.002517838
0.002534324
0.00308123
0.003096476
-0.01028067
0.0008167101
-0.0003931617
-0.01039723
0.001096797
-1.703906e-05
-0.01051265
0.001376907
-5.138942e-05
-0.01071311
0.001694879
5.121545e-06
-0.01092915
0.002027057
-3.55021e-06
-0.01117134
0.002402314
1.171874e-06
-0.01142585
0.002810375
-1.006068e-06
-0.01168658
0.003260639
-4.41071e-07
-0.01194253
0.003756709
-6.751055e-07
-0.01218239
0.00430373
-4.777937e-07
-0.0123958
0.004905003
-2.250646e-07
-0.01257782
0.005563762
4.210823e-07
-0.01273195
0.006283822
1.209157e-06
-0.01288152
0.007066036
3.540083e-06
-0.01307147
0.007925189
5.361865e-06
-0.01337862
0.008849659
1.422343e-05
-0.01391527
0.009865898
2.120252e-05
0.01078338
7.021941e-05
-0.01486032
0.0005644202
-5.75945e-05
-0.002427317
5.4766e-05
-9.993981e-05
0.000567123
0.0006987967
0.0006997455
-0.01028982
-0.0007122398
0.002449963
0.002469164
0.003002051
0.003015679
0.000617685
-0.00999277
-0.0003849335
0.0009045947
-0.0100946
-1.604443e-05
0.001214666
-0.01019244
-4.89125e-05
0.001523663
-0.01036712
5.314865e-06
0.001864247
-0.01055558
-1.33013e-06
0.002216841
-0.01076277
1.99512e-06
0.002607517
-0.01097692
-1.172912e-07
0.003024635
-0.0111922
4.260098e-07
0.003475492
-0.01139796
2.615159e-07
0.003962216
-0.01158372
5.299924e-07
0.004488958
-0.0117394
7.887584e-07
0.005059896
-0.01186011
1.426731e-06
0.005683038
-0.01194772
1.845673e-06
0.006369587
-0.01202689
3.85818e-06
0.007141343
-0.01213555
3.710332e-06
0.008030139
-0.01237663
1.268425e-05
0.009078059
-0.01290687
2.878467e-05
0.01036735
0.0001668227
-0.01428403
0.01199372
-0.01032778
-0.0003307644
-0.0001654025
0.0001712204
-9.737241e-05
0.0001997544
-0.000149896
0.0003714544
-8.308799e-05
0.0004079234
-6.836944e-05
0.002599985
0.002477555
0.002548952
0.002445832
-0.01144883
-0.001446554
0.00069447
0.0002639307
3.66201e-05
0.0002249617
-9.513472e-06
0.0004764663
0.0002202352
0.000574386
8.604064e-05
-0.01072763
-0.0007833193
6.479217e-05
0.0001412913
-7.412245e-05
0.000112778
-8.94584e-05
0.000307207
1.640948e-05
9.178453e-05
-0.0005085534
-0.01026891
-0.0005667828
-0.0001970956
0.000120268
-6.867916e-05
0.0001073904
-0.0001107781
0.0001477705
-1.921678e-05
0.0007750601
-0.0006466591
-0.009870461
-0.0004629963
-3.461001e-05
8.996364e-05
-9.645441e-05
8.065435e-05
-0.0001086212
8.918068e-05
-4.987113e-05
0.0007395845
-0.0006452732
-0.00937039
-0.0005885145
-9.9494e-05
9.325053e-05
-8.728157e-05
8.282208e-05
-8.84705e-05
9.403702e-05
-3.823332e-05
0.0007335369
-0.0006017214
-0.008745144
-0.000711786
-0.0001140528
8.00487e-05
-9.038655e-05
7.247511e-05
-8.906259e-05
9.422652e-05
-3.105118e-05
0.000715869
-0.0005515247
-0.007993668
-0.0008798955
-0.0001495104
7.313631e-05
-8.497133e-05
6.989841e-05
-7.656988e-05
0.0001008364
-1.407372e-05
0.0006970551
-0.0004873798
-0.007078229
-0.001050391
-0.000173466
4.955186e-05
-7.349032e-05
5.542125e-05
-8.120675e-05
0.0001063672
3.606313e-07
0.0006676377
-0.0004162226
-0.005999201
-0.001224486
-0.0002089846
4.536474e-05
-6.140082e-05
4.656067e-05
-7.415542e-05
0.0001062037
9.721778e-06
0.0006210984
-0.0003389485
-0.004789905
-0.001378132
-0.0001892419
3.694508e-05
-4.882863e-05
2.431416e-05
-8.053233e-05
0.0001074704
2.26922e-05
0.0005535003
-0.0002574822
-0.00360147
-0.001485717
-0.0002279142
3.558196e-05
-5.280344e-05
-9.851105e-06
-9.469796e-05
8.133313e-05
-6.580668e-05
0.0004400114
0.000191429
-0.0004188182
-0.001833784
-0.0003190047
2.678996e-05
-5.133463e-05
-3.068375e-05
-0.0001145839
0.0001229855
5.126698e-05
0.0002791027
1.40954e-05
-0.000468854
-0.0004090112
-0.0004496364
0.0001461386
-1.435332e-05
-0.0001683378
-0.0003824831
2.172651e-07
-0.009976149
-0.0008106532
-0.0001797474
9.8003e-05
-0.0002096981
0.00011704
-0.0002309365
0.002360776
0.002389429
0.002444059
0.003667113
-0.01082293
-0.0008205525
0.000246235
-0.01082934
-0.0007836813
-1.683019e-05
-0.01047546
-0.000871908
4.322396e-05
-0.009993918
-0.0009493464
-1.410137e-05
-0.009458688
-0.001143733
-1.192765e-05
-0.00883126
-0.001380938
-2.66687e-05
-0.00808721
-0.001677855
-4.062781e-05
-0.007198113
-0.002004221
-5.419179e-05
-0.006136201
-0.002360206
-6.546223e-05
-0.004860126
-0.002731836
-9.150165e-05
-0.003263536
-0.003156839
-6.330453e-05
-0.001361114
-0.003664713
-0.0001384575
-0.003448751
-4.665137e-05
8.068989e-05
6.781001e-05
-1.043226e-05
-0.0001884799
0.0006381121
0.0004670573
0.000608831
0.0004707002
-0.0103828
-0.0001337564
-0.002378965
0.0001506185
-0.0001826447
0.0001445203
-0.0001908321
0.0025084
0.002568072
0.00304874
0.004037998
-0.01056967
-0.0007309282
-0.0005203109
-0.01043058
-0.0009081261
-0.0002871584
-0.01014975
-0.001074054
-0.0001104171
-0.009797841
-0.001266032
-9.344188e-05
-0.009356252
-0.001549502
-7.262361e-05
-0.008812634
-0.001898713
-7.909572e-05
-0.008135486
-0.002326706
-9.021968e-05
-0.007296583
-0.002821173
-9.597244e-05
-0.006256923
-0.00337838
-9.525295e-05
-0.004988927
-0.004006809
-6.16522e-05
-0.003420163
-0.004694466
-4.877358e-06
-0.001575795
-0.005418659
2.974542e-05
-0.004913355
6.882494e-05
4.185885e-05
0.0001429648
-6.967358e-05
-0.000295166
-0.0104341
-0.000228512
-0.002554267
0.0001331779
-0.0002081444
0.0001234364
-0.0002080127
0.002564499
0.002570394
0.003998086
0.00410969
-0.01057397
-0.0006574256
-0.0004596635
-0.01045349
-0.0009256185
-0.000393443
-0.01021042
-0.001225006
-7.147017e-05
-0.009915811
-0.001525092
-7.024529e-05
-0.009545651
-0.00190214
-2.231972e-05
-0.009068964
-0.002357228
-3.288773e-05
-0.008466633
-0.002913479
-2.63496e-05
-0.007702131
-0.003574327
-2.869069e-05
-0.006724241
-0.004351203
-1.10928e-05
-0.005482123
-0.00526274
8.666294e-06
-0.003866592
-0.006292191
7.746486e-05
-0.001835657
-0.007333336
3.059067e-05
-0.006708991
-4.215977e-06
9.707646e-05
0.0002670376
-4.440899e-05
-0.0003555102
-0.0107661
-0.0002911958
-0.002664059
0.0001225857
-0.0002047595
0.0001150549
-0.0002098775
0.002622716
0.00263915
0.004192205
0.00421577
-0.01078911
-0.0006830497
-0.0005928738
-0.01060146
-0.001002873
-0.0004705246
-0.01037759
-0.001337657
-0.0001193074
-0.01015612
-0.001708441
-9.499124e-05
-0.009869716
-0.00216089
-3.527241e-05
-0.009492999
-0.002716136
-3.828196e-05
-0.009002133
-0.003393584
-2.186775e-05
-0.00835034
-0.004225101
-1.54781e-05
-0.007467385
-0.00524303
1.517639e-05
-0.006279577
-0.006490207
4.830489e-05
-0.004609694
-0.007953456
0.0001452165
-0.002249669
-0.009573914
7.908369e-05
-0.008890609
4.750523e-05
9.677254e-05
0.0003340597
-7.548571e-05
-0.0004709026
-0.01103261
-0.0002947175
-0.002769216
9.069041e-05
-0.0002140069
7.971976e-05
-0.0002242109
0.00269509
0.002717079
0.004327954
0.004333035
-0.01106122
-0.0006731363
-0.0006209058
-0.01088584
-0.001018617
-0.0005119612
-0.01070617
-0.001398671
-0.000118537
-0.01055117
-0.001817846
-9.907723e-05
-0.01036825
-0.002327462
-2.879486e-05
-0.01011745
-0.002954519
-2.693999e-05
-0.009771124
-0.003736579
-5.196656e-06
-0.009284439
-0.004720725
4.792514e-06
-0.00857044
-0.005980012
3.918402e-05
-0.007521924
-0.007598763
7.941408e-05
-0.005794267
-0.009684039
0.0001787068
-0.003110283
-0.01212877
9.200778e-05
-0.01200053
-2.787376e-05
0.0001726555
0.000462891
-3.509487e-05
-0.0005729386
-0.01135205
-0.0002756136
-0.002875859
8.790542e-05
-0.0002199882
9.190573e-05
-0.0002263927
0.002778584
0.002790182
0.00445165
0.004454963
-0.01138648
-0.0006655557
-0.000633322
-0.01123655
-0.001011721
-0.0005379596
-0.01110577
-0.001401237
-0.0001434655
-0.01104576
-0.001834574
-0.000108155
-0.01097985
-0.002369515
-3.265163e-05
-0.01088702
-0.00303364
-2.873412e-05
-0.01075108
-0.003872975
-1.327887e-06
-0.01053461
-0.004955398
1.183534e-05
-0.01012835
-0.006426121
6.338901e-05
-0.009428037
-0.008389278
0.0001077962
-0.00782704
-0.01129372
0.0002944649
-0.004670126
-0.01514594
0.0001399434
-0.004392904
5.795499e-05
0.0002270125
0.0005723492
-0.0001729184
-0.0005111406
-0.003976894
-0.004341732
-0.004132385
-0.01166278
-0.0002655238
-0.002948238
0.000123318
-0.0002216294
0.0001311378
-0.0002317221
0.002847615
0.002858289
0.004544571
0.004549348
-0.01172944
-0.0006295684
-0.0006745087
-0.01160819
-0.0009608468
-0.0005562996
-0.01153966
-0.00133749
-0.0001423128
-0.01156046
-0.001759862
-0.0001151102
-0.01162308
-0.002286678
-3.311707e-05
-0.01171277
-0.002933216
-2.639021e-05
-0.01182289
-0.003765133
1.156673e-06
-0.01193728
-0.004862088
1.845878e-05
-0.01203441
-0.00637296
5.973116e-05
-0.01204003
-0.008478984
0.00013457
-0.01165195
-0.01172921
0.00029591
-0.001680374
-0.01676319
0.0004978356
-0.003252299
-0.001622716
-0.003262222
0.000120918
-0.0009006872
-0.005188402
-0.0001051066
-0.01196982
-0.0002388159
-0.003027594
0.0001179712
-0.0002192717
0.0001344691
-0.0002334562
0.0029102
0.002929954
0.004665327
0.004665515
-0.01205999
-0.0005639913
-0.0006987928
-0.01198036
-0.0008680804
-0.0005740106
-0.01197679
-0.001207198
-0.0001512091
-0.01209593
-0.001587319
-0.0001228264
-0.0122978
-0.002054448
-3.510894e-05
-0.01259892
-0.002620117
-2.699675e-05
-0.0130251
-0.003342223
3.111374e-06
-0.01365341
-0.004262754
2.3993e-05
-0.01457021
-0.005517266
7.918875e-05
-0.01612447
-0.00708623
0.0001781044
-0.01830599
-0.00960939
0.0004247178
-0.004548719
-0.01250366
0.0007437127
-0.006583983
-0.004777602
-0.006411176
0.0002693207
-0.006405065
-0.0003547744
0.006811591
-0.001978704
-0.0007216083
-0.001303393
-0.0008660874
-0.01224813
-0.0002087493
-0.003096831
0.0001399538
-0.0002222017
0.0001378117
-0.0002346078
0.002980108
0.002986976
0.004759471
0.004767381
-0.01236388
-0.0004776965
-0.0007235895
-0.01231511
-0.0007356396
-0.0005885661
-0.01236552
-0.001019744
-0.0001560125
-0.01256155
-0.001333495
-0.0001263661
-0.01287035
-0.001713595
-3.641298e-05
-0.01331732
-0.002159568
-2.719739e-05
-0.01395581
-0.002704817
2.092491e-06
-0.01486899
-0.003372967
2.377015e-05
-0.01627022
-0.004158903
6.454958e-05
-0.01840211
-0.005066623
0.000160744
-0.02186171
-0.006180986
0.0003243809
-0.006822314
-0.006829949
0.0007431789
-0.007011223
-0.006713029
-0.006787613
0.004175779
-4.528411e-05
-0.008330773
-0.002693232
7.119727e-05
0.0004780585
-0.0002646469
0.0101955
-0.01005948
-0.0006119428
0.0001770865
-0.0002307547
0.0005215517
-0.0002053704
-0.03254316
0.01155391
0.001844529
-0.0007488771
-0.001414763
-7.911119e-05
-0.0008051232
-0.00277215
-0.004108974
-0.002769285
-0.004096384
0.009163927
0.008961048
0.00902649
0.008787928
-0.02901581
0.01562922
0.001503679
-0.0008597248
-0.001394459
-3.428909e-05
-0.0007686004
-0.004069111
-0.004813143
-0.004036843
-0.00468408
-0.02599505
0.01706095
0.001826945
-0.001004023
-0.001462741
-0.0001374844
-0.0008301404
-0.004395331
-0.005029499
-0.00415303
-0.004896406
-0.02375265
0.01774465
0.001972918
-0.001051145
-0.001446638
-0.0001190581
-0.0007706299
-0.004504738
-0.005044122
-0.004164166
-0.004859464
0.01826646
0.001551905
-0.001053275
-7.157134e-05
-0.004551638
-0.004247629
-0.02152827
-0.001405793
-0.00071528
-0.005078564
-0.004918987
-0.01248689
-0.0001768838
-0.003155457
0.0001373111
-0.0002268688
0.0001308742
-0.0002433768
0.003038819
0.003058189
0.004851904
0.004863626
-0.01262243
-0.000378831
-0.0007415713
-0.01259769
-0.0005734331
-0.0005997502
-0.01269033
-0.0007886283
-0.0001613911
-0.01294453
-0.001020393
-0.000131438
-0.01332673
-0.00129365
-3.856558e-05
-0.01387117
-0.001599345
-2.897563e-05
-0.01462808
-0.001946687
-1.393702e-06
-0.01568648
-0.002330562
1.425893e-05
-0.01718844
-0.002695429
4.598955e-05
-0.01934104
-0.002993357
9.724231e-05
-0.02250767