/*--------------------------------*- C++ -*----------------------------------*\
  =========                 |
  \\      /  F ield         | OpenFOAM: The Open Source CFD Toolbox
   \\    /   O peration     | Website:  https://openfoam.org
    \\  /    A nd           | Version:  7
     \\/     M anipulation  |
\*---------------------------------------------------------------------------*/
FoamFile
{
    version     2.0;
    format      ascii;
    class       volScalarField;
    location    "0.05";
    object      epsilon;
}
// * * * * * * * * * * * * * * * * * * * * * * * * * * * * * * * * * * * * * //

dimensions      [0 2 -3 0 0 0 0];

internalField   nonuniform List<scalar> 
90967
(
0.0009475645
0.0009684621
0.0009755326
0.0009771646
0.0009776088
0.0009776525
0.0009687558
0.00101046
0.001023886
0.001027405
0.001028404
0.001028617
0.0009756708
0.001023707
0.00104076
0.001045499
0.001046947
0.001047314
0.0009773265
0.001027264
0.001045573
0.001050953
0.001052693
0.00105319
0.0009777567
0.001028307
0.0010471
0.001052797
0.001054728
0.001055331
0.0009778616
0.001028651
0.001047665
0.001053539
0.001055603
0.001056304
0.0009778197
0.001028721
0.001047854
0.001053848
0.001056022
0.001056824
0.0009776885
0.001028652
0.001047865
0.001053956
0.001056235
0.001057147
0.0009774718
0.001028476
0.001047754
0.001053941
0.001056333
0.001057373
0.0009771627
0.001028195
0.001047532
0.001053819
0.001056338
0.001057528
0.0009767414
0.001027784
0.001047174
0.001053569
0.00105623
0.001057599
0.0009761829
0.001027202
0.001046624
0.001053128
0.001055949
0.001057531
0.0009754318
0.001026357
0.001045764
0.001052357
0.001055351
0.001057185
0.0009743963
0.001025058
0.001044327
0.001050955
0.001054114
0.001056235
0.0009727988
0.00102273
0.00104155
0.001048061
0.001051341
0.001053777
0.0009696068
0.001017318
0.001034855
0.001040924
0.001044241
0.001046997
0.0009600865
0.001000856
0.001014708
0.001019719
0.001022861
0.001025821
0.000931971
0.0009525584
0.0009606965
0.0009642643
0.0009671774
0.0009702804
0.001924427
0.002003397
0.00202103
0.002031943
0.002043644
0.002056937
0.002072987
0.009033774
0.009239881
0.00944388
0.009657131
0.009888497
0.01014689
0.01044761
0.00191236
0.001943699
0.001950474
0.001953509
0.001955778
0.001958205
0.001960829
0.002087565
0.002112833
0.002128521
0.002131567
0.002131723
0.002131445
0.002130866
0.01140765
0.0113943
0.01139385
0.01139383
0.01139376
0.01139373
0.01139378
0.01141109
0.01139436
0.01139393
0.01139381
0.0113938
0.0113938
0.01139385
0.01140971
0.01139438
0.01139392
0.01139382
0.01139383
0.01139389
0.01139397
0.01141016
0.0113944
0.01139399
0.01139389
0.01139391
0.01139399
0.01139413
0.01141014
0.01139446
0.01139405
0.011394
0.01139404
0.01139415
0.01139433
0.01141055
0.01139454
0.01139415
0.01139417
0.01139427
0.01139445
0.01139466
0.01141116
0.01139473
0.01139431
0.01139443
0.01139461
0.01139492
0.01139523
0.01141107
0.01139508
0.01139457
0.01139482
0.01139512
0.0113956
0.0113961
0.01141082
0.01139552
0.01139499
0.01139541
0.01139588
0.01139661
0.01139736
0.01141051
0.01139609
0.01139565
0.01139631
0.01139701
0.01139807
0.0113992
0.01141012
0.01139696
0.01139669
0.01139765
0.01139869
0.01140023
0.01140184
0.01140972
0.01139827
0.01139825
0.01139962
0.01140114
0.01140337
0.01140566
0.01140935
0.01140016
0.0114005
0.01140247
0.01140471
0.01140801
0.01141172
0.011409
0.01140279
0.01140366
0.01140642
0.01140972
0.01141457
0.01142035
0.01140866
0.01140619
0.01140783
0.01141173
0.01141675
0.01142446
0.01143502
0.01140837
0.01141055
0.01141314
0.01141859
0.01142596
0.0114378
0.01145507
0.01140793
0.01141511
0.01141914
0.01142643
0.01143757
0.01145614
0.01148661
0.01140482
0.01142154
0.01142442
0.011434
0.0114489
0.01147596
0.01152499
0.01141504
0.01140991
0.01142491
0.01143999
0.01145751
0.01149069
0.01155261
0.01168471
0.002035117
0.01138816
0.01138846
0.01138874
0.0113893
0.01139042
0.01139251
0.002104185
0.0009877727
0.001002832
0.001008984
0.001010212
0.001010505
0.0114097
0.01139434
0.01139372
0.01139376
0.01139339
0.01139361
0.0113937
0.01139741
0.01139594
0.0113959
0.01139583
0.01139581
0.01139583
0.01139589
0.01139706
0.01139589
0.01139588
0.01139585
0.01139585
0.01139592
0.01139601
0.01139704
0.01139595
0.01139593
0.01139591
0.01139594
0.01139601
0.01139616
0.01139707
0.01139601
0.01139604
0.01139603
0.01139609
0.01139619
0.01139638
0.01139706
0.01139607
0.01139615
0.0113962
0.01139633
0.01139649
0.01139672
0.01139707
0.01139618
0.01139634
0.01139646
0.01139668
0.01139697
0.01139729
0.01139709
0.01139637
0.01139662
0.01139686
0.01139721
0.01139766
0.01139817
0.01139717
0.01139669
0.01139707
0.01139745
0.01139799
0.01139866
0.01139944
0.01139733
0.01139723
0.01139777
0.01139834
0.01139914
0.01140014
0.01140129
0.01139763
0.01139809
0.01139882
0.01139968
0.01140083
0.0114023
0.01140402
0.01139813
0.0113994
0.01140039
0.01140164
0.0114033
0.01140546
0.01140807
0.0113989
0.01140132
0.01140265
0.01140447
0.01140688
0.0114101
0.01141413
0.01140004
0.01140397
0.01140577
0.01140839
0.0114119
0.01141677
0.0114232
0.01140142
0.0114075
0.01140991
0.01141371
0.01141896
0.01142659
0.01143725
0.01140354
0.01141161
0.0114149
0.01142046
0.01142794
0.01143967
0.01145706
0.01140481
0.0114168
0.011421
0.01142789
0.01143991
0.01145883
0.01149104
0.01140871
0.01142371
0.01142377
0.01143708
0.01145226
0.01148108
0.01153125
0.01140212
0.01141214
0.01141663
0.01141965
0.01143515
0.01145879
0.01150725
0.001887691
0.001811942
0.001828165
0.001831754
0.001833529
0.002062927
0.01138776
0.01138857
0.01138891
0.01138928
0.01139022
0.0113921
0.002119935
0.001002957
0.001030426
0.001040018
0.001042182
0.001042715
0.01140862
0.01139428
0.01139371
0.01139381
0.01139347
0.01139367
0.01139372
0.01139695
0.01139584
0.01139586
0.01139582
0.01139581
0.01139583
0.01139589
0.01139671
0.01139574
0.01139578
0.01139582
0.01139584
0.01139592
0.01139601
0.01139675
0.01139577
0.01139584
0.01139588
0.01139592
0.01139601
0.01139616
0.01139677
0.01139583
0.01139593
0.011396
0.01139607
0.01139618
0.01139637
0.01139676
0.01139592
0.01139604
0.01139617
0.01139631
0.01139648
0.01139671
0.01139676
0.01139604
0.01139623
0.01139644
0.01139666
0.01139695
0.01139728
0.01139676
0.01139625
0.01139651
0.01139683
0.01139718
0.01139764
0.01139816
0.01139678
0.0113966
0.01139696
0.01139743
0.01139796
0.01139865
0.01139943
0.01139684
0.01139716
0.01139765
0.01139833
0.01139911
0.01140012
0.01140129
0.01139695
0.01139805
0.01139872
0.01139969
0.01140082
0.0114023
0.01140404
0.01139714
0.0113994
0.0114003
0.01140168
0.01140332
0.0114055
0.01140814
0.01139742
0.01140137
0.0114026
0.01140456
0.01140695
0.0114102
0.01141429
0.01139782
0.01140406
0.01140577
0.01140858
0.0114121
0.01141704
0.01142361
0.01139813
0.0114077
0.01141006
0.01141408
0.01141935
0.0114271
0.01143802
0.01139887
0.01141181
0.01141512
0.01142097
0.01142849
0.01144054
0.0114584
0.01139829
0.01141728
0.01142152
0.01142853
0.01144085
0.01146043
0.01149411
0.01140161
0.01142358
0.01142357
0.01143787
0.01145305
0.01148291
0.01153528
0.01140213
0.01141311
0.01141512
0.01140763
0.01142595
0.01144776
0.01150419
0.001811656
0.001643595
0.001663631
0.001667146
0.001668353
0.002077624
0.01138764
0.01138853
0.01138874
0.01138906
0.01138999
0.01139186
0.0021231
0.001008381
0.001039052
0.001050639
0.001053254
0.001053916
0.01140866
0.01139425
0.01139371
0.01139382
0.0113935
0.01139369
0.01139373
0.01139713
0.01139576
0.01139578
0.01139579
0.01139579
0.01139582
0.01139588
0.01139673
0.01139563
0.0113957
0.01139578
0.01139582
0.01139591
0.011396
0.01139673
0.01139566
0.01139572
0.01139581
0.01139589
0.01139599
0.01139615
0.01139676
0.01139571
0.01139582
0.01139592
0.01139603
0.01139617
0.01139637
0.01139675
0.01139578
0.01139593
0.01139609
0.01139627
0.01139646
0.01139671
0.01139675
0.01139589
0.01139612
0.01139635
0.01139663
0.01139693
0.01139728
0.01139675
0.01139609
0.01139639
0.01139675
0.01139715
0.01139762
0.01139815
0.01139677
0.01139642
0.01139684
0.01139734
0.01139794
0.01139863
0.01139943
0.01139683
0.01139697
0.01139754
0.01139825
0.0113991
0.01140011
0.0114013
0.01139694
0.01139785
0.01139861
0.0113996
0.01140081
0.0114023
0.01140406
0.01139714
0.01139919
0.01140019
0.01140159
0.01140333
0.0114055
0.01140817
0.01139743
0.01140115
0.0114025
0.01140447
0.01140697
0.01141022
0.01141432
0.01139786
0.01140383
0.01140568
0.01140849
0.01141212
0.01141702
0.01142362
0.01139819
0.01140749
0.01140997
0.01141396
0.01141929
0.01142699
0.01143794
0.01139904
0.01141156
0.01141498
0.01142076
0.01142834
0.0114405
0.01145862
0.01139844
0.01141728
0.01142153
0.01142846
0.01144116
0.01146124
0.01149613
0.01140218
0.01142338
0.01142342
0.01143831
0.01145378
0.01148443
0.01153821
0.01140248
0.01141298
0.01141687
0.01140739
0.01142838
0.01145151
0.01150887
0.001826752
0.001662958
0.001681726
0.001685063
0.001686231
0.002080623
0.01138763
0.01138857
0.0113888
0.01138911
0.01139004
0.01139192
0.002123271
0.001008377
0.001039042
0.001050615
0.00105322
0.001053889
0.01140863
0.01139425
0.01139371
0.01139382
0.0113935
0.01139369
0.01139373
0.01139712
0.01139576
0.01139578
0.01139579
0.01139579
0.01139582
0.01139588
0.01139673
0.01139563
0.0113957
0.01139578
0.01139582
0.01139591
0.011396
0.01139673
0.01139566
0.01139572
0.01139581
0.01139589
0.01139599
0.01139615
0.01139676
0.01139571
0.01139582
0.01139592
0.01139603
0.01139617
0.01139637
0.01139675
0.01139578
0.01139593
0.01139609
0.01139627
0.01139646
0.01139671
0.01139675
0.01139589
0.01139612
0.01139635
0.01139663
0.01139693
0.01139728
0.01139675
0.01139609
0.01139639
0.01139675
0.01139715
0.01139762
0.01139815
0.01139677
0.01139642
0.01139684
0.01139734
0.01139794
0.01139863
0.01139943
0.01139683
0.01139697
0.01139754
0.01139825
0.0113991
0.01140011
0.0114013
0.01139695
0.01139785
0.01139861
0.0113996
0.01140081
0.01140229
0.01140406
0.01139714
0.01139919
0.0114002
0.01140159
0.01140333
0.0114055
0.01140817
0.01139743
0.01140115
0.0114025
0.01140448
0.01140698
0.01141022
0.01141432
0.01139786
0.01140384
0.01140568
0.01140849
0.01141212
0.01141702
0.01142362
0.01139819
0.01140749
0.01140997
0.01141396
0.01141929
0.01142698
0.01143794
0.01139904
0.01141156
0.01141498
0.01142076
0.01142834
0.01144051
0.01145863
0.01139845
0.01141728
0.01142155
0.01142847
0.01144116
0.01146123
0.01149612
0.01140217
0.01142337
0.01142342
0.01143829
0.01145377
0.01148446
0.01153828
0.01140247
0.01141294
0.01141689
0.01140743
0.01142839
0.01145144
0.0115089
0.001826757
0.001662961
0.00168174
0.001685083
0.001686262
0.002080862
0.01138763
0.01138857
0.0113888
0.01138911
0.01139004
0.01139192
0.002122115
0.001002943
0.001030383
0.0010399
0.001041998
0.001042575
0.01140867
0.01139428
0.01139371
0.01139381
0.01139345
0.01139367
0.01139372
0.01139695
0.01139584
0.01139586
0.01139582
0.01139581
0.01139583
0.01139589
0.01139671
0.01139574
0.01139578
0.01139582
0.01139584
0.01139592
0.01139601
0.01139675
0.01139577
0.01139583
0.01139588
0.01139592
0.01139601
0.01139616
0.01139677
0.01139583
0.01139593
0.011396
0.01139607
0.01139618
0.01139637
0.01139676
0.01139592
0.01139604
0.01139617
0.0113963
0.01139648
0.01139671
0.01139676
0.01139604
0.01139623
0.01139643
0.01139666
0.01139695
0.01139728
0.01139676
0.01139625
0.01139651
0.01139683
0.01139718
0.01139764
0.01139816
0.01139678
0.0113966
0.01139696
0.01139743
0.01139796
0.01139865
0.01139943
0.01139683
0.01139716
0.01139765
0.01139833
0.01139911
0.01140013
0.01140129
0.01139695
0.01139805
0.01139871
0.01139969
0.01140082
0.0114023
0.01140404
0.01139714
0.0113994
0.0114003
0.01140168
0.01140332
0.0114055
0.01140814
0.01139742
0.01140136
0.0114026
0.01140456
0.01140695
0.01141021
0.01141429
0.01139782
0.01140406
0.01140578
0.01140858
0.0114121
0.01141705
0.01142361
0.01139813
0.0114077
0.01141007
0.01141409
0.01141936
0.01142712
0.01143803
0.01139887
0.0114118
0.01141512
0.01142098
0.0114285
0.01144056
0.0114584
0.01139829
0.01141728
0.01142149
0.01142853
0.01144088
0.0114605
0.01149418
0.01140161
0.01142358
0.01142359
0.01143795
0.01145314
0.01148287
0.01153513
0.01140232
0.01141293
0.01141505
0.01140744
0.01142583
0.01144802
0.01150448
0.001811671
0.001643621
0.001663683
0.001667214
0.001668465
0.002079889
0.01138764
0.01138853
0.01138874
0.01138906
0.01138999
0.01139186
0.002112801
0.0009877556
0.001002732
0.00100854
0.001009327
0.001009924
0.01140953
0.01139433
0.01139372
0.01139375
0.01139322
0.0113936
0.01139372
0.01139741
0.01139594
0.01139589
0.01139582
0.01139581
0.01139583
0.01139589
0.01139706
0.01139589
0.01139588
0.01139585
0.01139584
0.01139592
0.01139601
0.01139704
0.01139595
0.01139593
0.01139591
0.01139594
0.01139601
0.01139616
0.01139706
0.01139601
0.01139604
0.01139603
0.01139609
0.01139619
0.01139638
0.01139706
0.01139607
0.01139615
0.0113962
0.01139633
0.01139649
0.01139672
0.01139706
0.01139618
0.01139634
0.01139646
0.01139668
0.01139697
0.01139729
0.01139709
0.01139637
0.01139662
0.01139685
0.01139721
0.01139766
0.01139817
0.01139716
0.0113967
0.01139707
0.01139745
0.01139799
0.01139866
0.01139944
0.01139733
0.01139722
0.01139777
0.01139834
0.01139914
0.01140014
0.01140129
0.01139763
0.01139808
0.01139883
0.01139968
0.01140083
0.0114023
0.01140402
0.01139812
0.01139941
0.01140039
0.01140164
0.01140331
0.01140546
0.01140807
0.01139889
0.01140133
0.01140266
0.01140447
0.01140688
0.0114101
0.01141413
0.01140003
0.011404
0.01140576
0.01140839
0.0114119
0.01141678
0.01142321
0.01140139
0.01140754
0.0114099
0.01141371
0.01141895
0.01142659
0.01143724
0.01140353
0.0114116
0.0114149
0.01142045
0.01142796
0.01143971
0.01145709
0.01140483
0.01141677
0.01142108
0.01142792
0.01143985
0.01145873
0.01149095
0.01140868
0.01142367
0.01142372
0.01143693
0.01145215
0.01148127
0.01153181
0.01140246
0.01141166
0.01141674
0.0114208
0.0114352
0.01145881
0.01150736
0.001887734
0.001812041
0.001828375
0.001831931
0.001833861
0.002070683
0.01138776
0.01138856
0.01138891
0.01138928
0.01139022
0.0113921
0.002099696
0.002146323
0.002215693
0.002224567
0.002215304
0.002218477
0.002224547
0.01140688
0.01139432
0.01139386
0.01139383
0.01139375
0.01139372
0.0113938
0.01140799
0.01139436
0.01139393
0.01139381
0.0113938
0.01139381
0.01139386
0.01140893
0.01139438
0.01139392
0.01139382
0.01139382
0.01139389
0.01139397
0.01140814
0.0113944
0.01139399
0.01139389
0.01139391
0.01139399
0.01139413
0.01140813
0.01139445
0.01139405
0.01139399
0.01139404
0.01139415
0.01139433
0.01140803
0.01139454
0.01139415
0.01139417
0.01139427
0.01139445
0.01139467
0.01140793
0.01139472
0.01139431
0.01139442
0.01139461
0.01139492
0.01139523
0.01140777
0.01139507
0.01139457
0.01139481
0.01139511
0.0113956
0.0113961
0.01140756
0.0113955
0.011395
0.01139541
0.01139588
0.01139661
0.01139736
0.0114077
0.01139608
0.01139566
0.01139632
0.01139701
0.01139808
0.0113992
0.01140669
0.01139695
0.01139667
0.01139766
0.01139868
0.01140023
0.01140185
0.01140621
0.01139829
0.01139823
0.01139964
0.01140114
0.01140338
0.01140567
0.01140526
0.01140018
0.01140048
0.01140248
0.01140471
0.01140802
0.01141174
0.0114043
0.01140278
0.01140368
0.01140643
0.01140973
0.01141461
0.0114204
0.01140344
0.01140616
0.01140788
0.01141176
0.01141678
0.01142451
0.01143503
0.01140218
0.0114106
0.0114131
0.01141862
0.01142599
0.01143793
0.01145518
0.01139947
0.01141524
0.01141907
0.01142649
0.01143762
0.01145617
0.01148643
0.01139961
0.01142151
0.01142432
0.01143393
0.01144882
0.01147585
0.01152553
0.0114162
0.01141059
0.01142253
0.0114287
0.01143933
0.01148012
0.01154991
0.01168343
0.002053383
0.01138816
0.01138845
0.01138873
0.0113893
0.01139042
0.01139249
0.004838861
0.004976412
0.004987166
0.004987889
0.004815948
0.004810738
0.004984348
0.01137587
0.0009477907
0.0009685336
0.0009755619
0.0009773206
0.000978316
0.0009779101
0.01119835
0.0009691838
0.001010548
0.00102392
0.001027468
0.001028505
0.001028696
0.01138312
0.0009757804
0.001023756
0.001040782
0.001045535
0.001046998
0.001047355
0.01138065
0.0009773376
0.001027277
0.00104558
0.001050963
0.001052705
0.0010532
0.01138094
0.0009777579
0.001028313
0.001047104
0.0010528
0.001054731
0.001055334
0.01138156
0.0009778622
0.001028654
0.001047668
0.001053542
0.001055604
0.001056304
0.01138285
0.0009778241
0.001028731
0.001047862
0.001053853
0.001056024
0.001056823
0.01138471
0.0009777186
0.001028682
0.001047884
0.001053963
0.001056237
0.001057148
0.01138756
0.0009777358
0.001028561
0.001047798
0.001053952
0.001056336
0.001057374
0.01140669
0.000977961
0.001028324
0.001047595
0.001053834
0.001056342
0.001057529
0.01139782
0.0009773427
0.001027944
0.001047232
0.001053586
0.001056234
0.001057602
0.01140336
0.0009768262
0.001027358
0.00104667
0.001053142
0.001055951
0.001057531
0.01140205
0.0009758606
0.001026491
0.001045805
0.001052369
0.00105535
0.001057181
0.01140728
0.0009747202
0.001025197
0.001044377
0.001050965
0.001054112
0.00105623
0.01142124
0.0009735026
0.001022928
0.001041643
0.00104809
0.001051362
0.001053788
0.01141633
0.0009708204
0.001017571
0.00103502
0.001041082
0.001044436
0.001047124
0.01142484
0.0009609254
0.001001109
0.001015041
0.001020487
0.001023907
0.001026492
0.01138887
0.0009323795
0.0009526587
0.0009613913
0.0009676391
0.0009718988
0.0009730236
0.01140505
0.01096652
0.01067127
0.0103534
0.01002544
0.009780843
0.009444558
0.008858627
0.004626925
0.01138565
0.01138634
0.01138435
0.01138592
0.01137831
0.01138179
0.01138907
0.001954347
0.005054615
0.011449
0.01138897
0.001962489
0.002022309
0.004838914
0.004996841
0.01127046
0.0113695
0.002033928
0.002042491
0.00497627
0.005011718
0.01128354
0.01135437
0.002043011
0.002044595
0.004987074
0.00501641
0.01126763
0.01135351
0.002044012
0.002044858
0.004990093
0.005017078
0.01127026
0.01135704
0.002044091
0.002044764
0.004990332
0.005016335
0.01126694
0.01135751
0.00204389
0.002044439
0.004989304
0.005014717
0.01126412
0.01135794
0.002043415
0.004987347
0.01125854
0.001963728
0.002021269
0.0113754
0.00950535
0.01138276
0.00950086
0.002034252
0.002041144
0.01137856
0.009494283
0.01138011
0.009494941
0.002042604
0.002043322
0.01138032
0.00949551
0.01138049
0.009496104
0.002043408
0.002043493
0.01138049
0.009499224
0.0113806
0.009499545
0.002043333
0.002043368
0.01138084
0.009505356
0.01138102
0.009505306
0.002043016
0.002043057
0.01138147
0.00951583
0.0113817
0.009515708
0.002042466
0.002042545
0.01138278
0.009531867
0.01138269
0.009531912
0.002041669
0.002041796
0.01138465
0.009555462
0.01138419
0.009555771
0.002040555
0.002040749
0.01138732
0.009589149
0.01138628
0.009589557
0.002039066
0.002039319
0.01139038
0.009635787
0.01138909
0.009635776
0.002037118
0.002037431
0.01139412
0.009697798
0.01139263
0.009697782
0.00203464
0.002034998
0.01139869
0.009780437
0.01139695
0.009780103
0.002031526
0.002031912
0.01140398
0.009886532
0.01140209
0.009886336
0.002027683
0.002028049
0.01140973
0.01001929
0.01140741
0.01001871
0.002022973
0.002023249
0.01141574
0.01018472
0.01141202
0.01018283
0.002017286
0.002016845
0.01142123
0.0103825
0.01141508
0.01037819
0.002008953
0.0020021
0.01142827
0.01061916
0.01141376
0.01061474
0.0019821
0.001924547
0.01142674
0.01088086
0.01140607
0.0108855
0.001910511
0.003964728
0.01141015
0.0114262
0.01140487
0.008946207
0.004117055
0.005683275
0.01138395
0.009144095
0.004148522
0.00418341
0.01137478
0.011338
0.009345423
0.004184794
0.004197304
0.01137504
0.01132135
0.009556461
0.004197081
0.004207986
0.01137474
0.0113059
0.009783923
0.004207587
0.00421865
0.01137416
0.0112886
0.01003953
0.004218535
0.00423051
0.01137347
0.01127444
0.01034187
0.004230814
0.004245119
0.01137323
0.01125029
0.004245969
0.01137345
0.001868232
0.004623737
0.01138426
0.004787764
0.0114343
0.01139318
0.004907546
0.01143959
0.01139281
0.005554646
0.01137529
0.005730813
0.0113763
0.004902867
0.01143133
0.01137873
0.004915195
0.01143084
0.01137806
0.005732911
0.01137544
0.005740212
0.0113755
0.004915554
0.01143068
0.01137714
0.004918661
0.01143064
0.01137701
0.005741164
0.01137501
0.00574334
0.01137541
0.00491798
0.01143057
0.01137704
0.004918147
0.01143064
0.01137706
0.005743457
0.01137518
0.005743807
0.01137535
0.004918318
0.01143056
0.01137704
0.004918009
0.01143065
0.01137705
0.005743812
0.01137534
0.005743495
0.01137521
0.004916882
0.01143058
0.01137711
0.004913915
0.01143075
0.01137715
0.005743356
0.01137541
0.005741182
0.01137501
0.004913833
0.01143076
0.01137801
0.0049049
0.01143141
0.01137867
0.005740205
0.01137549
0.005732902
0.01137544
0.004909336
0.01143962
0.01139288
0.004787424
0.01143427
0.01139319
0.005730655
0.01137628
0.005548306
0.0113753
0.005054763
0.01144954
0.01138939
0.001954313
0.004997019
0.01127321
0.01136946
0.001962556
0.002022367
0.005011824
0.01128295
0.01135445
0.002033958
0.002042493
0.005015872
0.01126825
0.01135364
0.002043015
0.002044585
0.004943637
0.01127337
0.01135852
0.002043946
0.002044644
0.004640944
0.01127484
0.01135201
0.002042923
0.002043355
0.005005849
0.01125628
0.01135783
0.002043538
0.002044426
0.01125762
0.002043402
0.009503162
0.01138609
0.009480443
0.001964783
0.00203028
0.009517557
0.01138657
0.00947116
0.002051723
0.002050338
0.00949155
0.01138042
0.009496616
0.002043793
0.002043385
0.00949938
0.01138061
0.009499823
0.0020434
0.002043472
0.009505525
0.01138103
0.009505484
0.002043311
0.002043348
0.009515861
0.0113817
0.009515755
0.002042998
0.002043036
0.00953191
0.01138269
0.00953199
0.002042453
0.002042529
0.009555514
0.01138418
0.009556058
0.002041667
0.002041767
0.009588821
0.01138474
0.009582002
0.002040494
0.002040454
0.009617465
0.01138839
0.009615746
0.002037515
0.002038777
0.009686634
0.01139173
0.009680952
0.002043872
0.00204788
0.009875912
0.01140133
0.009875685
0.002037971
0.002041012
0.01001451
0.01140578
0.01001391
0.002030918
0.002031291
0.01036733
0.0114282
0.01036606
0.002015129
0.002014751
0.01060841
0.01140907
0.01060355
0.002010317
0.002016417
0.01088147
0.01138748
0.01090166
0.002000461
0.001940901
0.01142761
0.01140172
0.001917909
0.003964691
0.005675118
0.01138408
0.008940107
0.004110402
0.01137493
0.01133766
0.009023405
0.009551871
0.004101062
0.004174635
0.01137505
0.01132078
0.009384216
0.00967523
0.004183273
0.004197304
0.01137469
0.01130384
0.009593353
0.009762253
0.004197036
0.004198508
0.01137412
0.01129139
0.01031156
0.004154441
0.004166822
0.01137329
0.01127731
0.004208718
0.004230483
0.0113734
0.01124549
0.01029407
0.004230845
0.004240967
0.01137369
0.01040698
0.004219461
0.0113841
0.001869029
0.01132687
0.004009264
0.008530596
0.004178642
0.008511947
0.00419965
0.008558468
0.004224696
0.008539603
0.0042347
0.008558966
0.004228525
0.008537832
0.00423655
0.008564216
0.004228008
0.008543021
0.00423611
0.008572952
0.00422711
0.008552244
0.004235235
0.008588173
0.004225641
0.00856767
0.004233756
0.008611944
0.0042234
0.00859005
0.004231498
0.008645766
0.004220214
0.008623951
0.004228316
0.008694101
0.00421579
0.008673039
0.004224226
0.008758357
0.004209812
0.00873937
0.004218299
0.008844629
0.004201972
0.008827586
0.004210482
0.00895739
0.004191943
0.008942853
0.004200467
0.00910313
0.004179284
0.009092935
0.004187872
0.009288759
0.004163468
0.009283898
0.004172164
0.009521318
0.004143946
0.00952263
0.004152817
0.009807304
0.004120537
0.009811144
0.004129381
0.01015866
0.004091716
0.01015474
0.004099701
0.0105557
0.004055199
0.0105448
0.004046995
0.0109419
0.003971546
0.01091881
0.003878123
0.001982066
0.003994863
0.004024069
0.0109652
0.01096213
0.01141302
0.01143062
0.00201035
0.00404516
0.004065515
0.01066857
0.01067622
0.01141659
0.01144476
0.002021371
0.004090501
0.004111334
0.01035633
0.01037663
0.01142194
0.01146413
0.002031738
0.004139107
0.004160914
0.01003095
0.01005912
0.01142628
0.01149208
0.002043425
0.004193594
0.00421965
0.009675857
0.009716657
0.01142937
0.01153847
0.002056953
0.004259256
0.004293241
0.009290803
0.009354771
0.01142598
0.01163634
0.004342569
0.008871288
0.01143222
0.01263977
0.008724033
0.01140339
0.008938117
0.01606451
0.009056805
0.008795232
0.01142605
0.0114347
0.01595131
0.008818123
0.01629034
0.009262723
0.008859531
0.01143702
0.0114363
0.01621572
0.008876516
0.01651495
0.009468984
0.008924531
0.0114286
0.01141811
0.01645833
0.008934631
0.01674826
0.009686541
0.008990497
0.0113972
0.011374
0.01670614
0.008995419
0.01700899
0.009924643
0.009061514
0.01134028
0.01129608
0.01697435
0.0090615
0.01732415
0.01019616
0.009142445
0.01125309
0.01117843
0.01729297
0.009138779
0.009242707
0.01112619
0.01769768
0.01135807
0.003833424
0.01136445
0.003940972
0.0111761
0.01118188
0.01143299
0.01140123
0.01141647
0.01143626
0.01140336
0.017461
0.01141847
0.01743592
0.01140991
0.01116782
0.01116776
0.01140999
0.01140656
0.01140248
0.01141292
0.01140701
0.01746205
0.01140758
0.01746166
0.01140703
0.01116497
0.01116352
0.01141265
0.01140566
0.01140232
0.01141341
0.01140522
0.01746032
0.01140654
0.01746256
0.01140548
0.01116314
0.01116209
0.01141444
0.01140488
0.01140247
0.01141466
0.01140485
0.0174615
0.01140529
0.01746094
0.01140526
0.01116388
0.01116214
0.01141464
0.01140484
0.01140248
0.01141445
0.01140487
0.0174614
0.01140524
0.01746087
0.01140525
0.01116324
0.01116257
0.01141341
0.01140522
0.01140214
0.01141267
0.01140566
0.01746219
0.01140546
0.01746128
0.01140556
0.01116535
0.01116296
0.01141289
0.011407
0.0114021
0.01140999
0.01140658
0.01746352
0.01140606
0.017463
0.01140762
0.0111696
0.01116414
0.01143547
0.01140334
0.01141387
0.01143285
0.0114013
0.01746121
0.01141101
0.01746181
0.01141461
0.01131146
0.01123192
0.009757254
0.0113948
0.009758344
0.002049636
0.002049194
0.0101741
0.01143907
0.01016887
0.00203156
0.002024289
0.01096314
0.01141271
0.01142548
0.001924784
0.001979016
0.003989997
0.003373698
0.01067518
0.01141779
0.01143962
0.002001353
0.002008638
0.003635315
0.003471672
0.01037091
0.01142245
0.01146263
0.002020841
0.002026385
0.003668081
0.003733203
0.01009342
0.01142544
0.0113347
0.002052435
0.002071786
0.003756286
0.004350387
0.009791701
0.01127755
0.01126819
0.002090573
0.002089147
0.00437537
0.004391288
0.009357843
0.01124715
0.01166729
0.002092002
0.002069053
0.004407932
0.003862037
0.01143499
0.002075573
0.004347093
0.01684213
0.01141053
0.01740785
0.01141562
0.008498493
0.004164758
0.008476433
0.00403873
0.01131192
0.01123156
0.008527973
0.004222408
0.008521554
0.004213846
0.008555211
0.004228566
0.00853241
0.004236101
0.00856026
0.004228551
0.008537963
0.004236684
0.00856643
0.004228017
0.008544567
0.00423618
0.008575961
0.004227131
0.008554742
0.00423535
0.008591891
0.004225683
0.008571007
0.004233975
0.00861635
0.004223462
0.008595989
0.004231819
0.008651291
0.004220272
0.008632108
0.004228588
0.008700154
0.004215823
0.008682602
0.004224086
0.008767074
0.004209773
0.008751641
0.004217986
0.008856303
0.004201745
0.008844232
0.004209913
0.008972771
0.004191407
0.008965442
0.004199508
0.009121648
0.004178091
0.009122041
0.004185822
0.009313156
0.004161597
0.009319873
0.004169236
0.009553364
0.004141446
0.009566873
0.004148793
0.009847907
0.004116395
0.009868116
0.004123913
0.01020806
0.004082201
0.01023348
0.004091981
0.01062711
0.004007307
0.01064914
0.004028133
0.01142582
0.003796454
0.0114244
0.003899155
0.0154103
0.008868971
0.008797211
0.01144086
0.01145695
0.01591181
0.008810557
0.01137052
0.003868125
0.01137264
0.003786734
0.01685122
0.01141217
0.01141708
0.0174037
0.01608468
0.009116931
0.008854301
0.01146729
0.01142958
0.01618814
0.008822072
0.01632237
0.009318104
0.008914638
0.01146678
0.01143242
0.01641608
0.008884481
0.01656199
0.009522982
0.00897549
0.01144491
0.01141501
0.01664864
0.008947651
0.01681361
0.009740303
0.009039952
0.01140313
0.01137355
0.0168981
0.009013186
0.01709819
0.009978893
0.009112665
0.01134121
0.01130124
0.01718689
0.00908541
0.01744689
0.01025042
0.009201779
0.01127607
0.01121278
0.01754605
0.009171435
0.0111694
0.01116281
0.01746132
0.0114109
0.01141521
0.01746184
0.01116494
0.01116388
0.01746356
0.01140607
0.01140762
0.01746193
0.01116406
0.01116275
0.017461
0.01140547
0.01140555
0.0174604
0.01116362
0.01116197
0.01746074
0.01140524
0.01140525
0.01746114
0.01116393
0.01116267
0.01746148
0.01140528
0.01140525
0.01746179
0.01116328
0.01116189
0.01746105
0.01140651
0.01140548
0.01746228
0.01116844
0.01116845
0.01746237
0.01140754
0.011407
0.0174623
0.01117618
0.01118212
0.01746096
0.01141541
0.01140949
0.01744008
0.01132742
0.004007239
0.01117033
0.004175637
0.0112923
0.004044949
0.008499582
0.004163893
0.008481206
0.004038381
0.01135439
0.004185004
0.01115772
0.004203992
0.01136028
0.004242795
0.01129808
0.004219433
0.01136103
0.00423344
0.01115368
0.004235819
0.01136533
0.004254169
0.01129961
0.004244249
0.01136375
0.004239416
0.01114518
0.004238877
0.01136446
0.00425579
0.0112992
0.00424668
0.01136781
0.004240386
0.01114361
0.004239339
0.01137257
0.004253078
0.01131292
0.004246138
0.01120014
0.004235207
0.01106137
0.004270027
0.01139688
0.004282497
0.00501551
0.01131888
0.004372461
0.01136064
0.004233944
0.01114788
0.004236098
0.01136256
0.004254301
0.01129925
0.004244755
0.004237948
0.01113673
0.008542252
0.004177674
0.008514606
0.004199888
0.008481224
0.01071137
0.004284132
0.008414463
0.004233852
0.008367049
0.01061313
0.004309095
0.008339384
0.01063503
0.004319965
0.008450305
0.004248543
0.01073833
0.008483609
0.004298502
0.008560101
0.004228338
0.008551129
0.004235755
0.008562979
0.004228102
0.00853751
0.004236159
0.008563622
0.004227543
0.00854288
0.004235645
0.008566564
0.004227532
0.008544581
0.004235697
0.008573057
0.004226613
0.008552342
0.004234752
0.008576084
0.004226651
0.008554872
0.004234889
0.008588194
0.004225169
0.008567695
0.004233299
0.008591927
0.004225208
0.008571062
0.004233517
0.008611985
0.004222929
0.008590094
0.004231042
0.00861644
0.00422298
0.008596109
0.004231355
0.008645779
0.004219743
0.008624018
0.004227851
0.00865146
0.004219722
0.008632954
0.004228102
0.008698156
0.004215218
0.008673258
0.004223187
0.008701122
0.004209241
0.008706441
0.00422196
0.008553131
0.004238931
0.008654514
0.01084018
0.004341898
0.008735972
0.00421855
0.00879225
0.01079415
0.004266893
0.008738826
0.00424139
0.01079
0.008758564
0.004268059
0.0101541
0.004115547
0.01012042
0.004111336
0.01013578
0.01129851
0.004159809
0.01127132
0.01015115
0.004148252
0.01142686
0.003797526
0.01142342
0.003896617
0.01263691
0.008734636
0.01140299
0.008937299