/*--------------------------------*- C++ -*----------------------------------*\
  =========                 |
  \\      /  F ield         | OpenFOAM: The Open Source CFD Toolbox
   \\    /   O peration     | Website:  https://openfoam.org
    \\  /    A nd           | Version:  7
     \\/     M anipulation  |
\*---------------------------------------------------------------------------*/
FoamFile
{
    version     2.0;
    format      ascii;
    class       volScalarField;
    location    "0.05";
    object      k;
}
// * * * * * * * * * * * * * * * * * * * * * * * * * * * * * * * * * * * * * //

dimensions      [0 2 -2 0 0 0 0];

internalField   nonuniform List<scalar> 
90967
(
0.003765573
0.00376536
0.003765822
0.003765805
0.00376587
0.00376579
0.00376615
0.003766361
0.003767119
0.003767191
0.003767301
0.00376727
0.003766158
0.003766609
0.003767525
0.003767651
0.00376787
0.003767916
0.003766141
0.003766647
0.003767662
0.00376788
0.003768201
0.003768364
0.003766029
0.003766609
0.003767716
0.003768039
0.003768495
0.003768803
0.003765852
0.003766501
0.003767703
0.003768156
0.003768769
0.003769258
0.003765567
0.0037663
0.003767615
0.003768223
0.003769025
0.003769734
0.003765148
0.003765978
0.003767423
0.003768218
0.003769245
0.003770216
0.003764553
0.003765498
0.003767095
0.003768115
0.003769411
0.003770695
0.003763742
0.003764819
0.003766594
0.003767883
0.003769503
0.003771163
0.00376267
0.003763896
0.003765882
0.003767493
0.003769501
0.003771615
0.003761297
0.003762685
0.003764924
0.003766918
0.003769393
0.003772057
0.003759561
0.003761141
0.003763676
0.003766127
0.003769156
0.00377249
0.003757433
0.003759254
0.003762144
0.003765138
0.003768826
0.003772958
0.003754856
0.003756969
0.003760268
0.003763874
0.003768311
0.003773392
0.003751944
0.003754438
0.003758237
0.003762557
0.003767839
0.003773995
0.003748671
0.003751519
0.003755758
0.003760677
0.003766642
0.003773753
0.003745488
0.003749074
0.003753708
0.003759185
0.003765866
0.003774028
0.003738143
0.003748037
0.003759385
0.003772153
0.003787088
0.003804273
0.003825265
0.0036953
0.00375386
0.003811314
0.003870973
0.003935093
0.00400603
0.00408788
0.003723865
0.003725549
0.003728178
0.003731024
0.003733756
0.003736962
0.003740652
0.003791504
0.003787809
0.00378828
0.003788018
0.003787588
0.003787124
0.003786503
0.003575517
0.003573644
0.003573551
0.003573544
0.003573531
0.003573533
0.003573541
0.003576245
0.003573641
0.00357354
0.003573517
0.003573516
0.003573519
0.003573531
0.003575936
0.003573637
0.003573534
0.003573518
0.00357352
0.003573533
0.003573552
0.003576036
0.003573641
0.003573547
0.003573532
0.003573537
0.003573553
0.003573582
0.003576036
0.003573653
0.003573558
0.003573552
0.003573562
0.003573587
0.003573624
0.003576132
0.003573671
0.003573578
0.003573586
0.003573606
0.003573645
0.003573691
0.003576274
0.003573713
0.003573612
0.003573637
0.003573672
0.003573736
0.003573802
0.003576265
0.003573791
0.003573667
0.003573717
0.003573775
0.003573873
0.003573975
0.003576226
0.003573893
0.003573758
0.003573842
0.003573931
0.003574077
0.003574231
0.003576178
0.003574022
0.003573905
0.003574033
0.003574167
0.00357438
0.00357461
0.003576122
0.003574222
0.003574134
0.003574323
0.003574522
0.003574831
0.003575177
0.003576071
0.003574521
0.00357448
0.003574751
0.003575046
0.003575498
0.003576027
0.003576039
0.003574951
0.003574982
0.003575372
0.003575815
0.00357649
0.003577316
0.003576027
0.003575551
0.003575686
0.00357624
0.003576902
0.00357792
0.003579241
0.003576033
0.003576322
0.003576618
0.003577409
0.003578433
0.003580035
0.003582249
0.00357607
0.003577313
0.003577806
0.003578925
0.003580449
0.003582933
0.003586575
0.003576098
0.003578361
0.003579159
0.003580667
0.003583
0.003586925
0.003593371
0.00357556
0.003579838
0.003580391
0.003582393
0.003585536
0.003591283
0.00360165
0.003577933
0.003576772
0.003579977
0.003583182
0.003586911
0.003594096
0.003607663
0.003636483
0.00372116
0.003572594
0.003572647
0.003572702
0.003572812
0.003573041
0.003573476
0.003790046
0.003767618
0.003765758
0.003766625
0.003766322
0.003766313
0.003575923
0.003573603
0.003573532
0.003573536
0.003573516
0.003573513
0.003573524
0.003573744
0.00357349
0.003573481
0.00357347
0.003573467
0.003573469
0.003573482
0.003573675
0.00357348
0.00357348
0.003573474
0.003573473
0.003573487
0.003573504
0.00357367
0.003573491
0.003573487
0.003573486
0.00357349
0.003573505
0.003573533
0.003573676
0.003573502
0.003573509
0.003573508
0.003573519
0.00357354
0.003573576
0.003573677
0.003573516
0.003573531
0.003573542
0.003573565
0.003573598
0.003573643
0.003573681
0.00357354
0.00357357
0.003573593
0.003573635
0.003573691
0.003573756
0.003573693
0.003573583
0.00357363
0.003573673
0.00357374
0.003573828
0.00357393
0.003573716
0.003573657
0.003573728
0.003573798
0.0035739
0.003574032
0.003574187
0.003573762
0.003573781
0.00357388
0.003573988
0.003574139
0.003574336
0.003574567
0.003573841
0.003573978
0.003574113
0.003574276
0.003574498
0.003574787
0.003575134
0.00357397
0.003574278
0.003574461
0.003574701
0.003575025
0.003575454
0.003575982
0.003574162
0.003574714
0.003574963
0.003575317
0.003575793
0.003576441
0.003577262
0.003574441
0.003575318
0.003575657
0.003576176
0.003576879
0.003577869
0.003579191
0.003574783
0.003576119
0.003576582
0.003577347
0.003578413
0.003579983
0.003582193
0.003575295
0.003577055
0.003577701
0.003578842
0.003580378
0.003582813
0.003586423
0.003575634
0.003578236
0.003579079
0.003580499
0.003583012
0.003586969
0.003593713
0.003576571
0.003579805
0.003579757
0.003582606
0.003585821
0.00359197
0.003602619
0.003575061
0.003577224
0.003578212
0.003578738
0.00358198
0.003586947
0.003597179
0.003727271
0.003729522
0.003731522
0.003733853
0.003736806
0.003720702
0.003572562
0.00357266
0.003572742
0.0035728
0.003572988
0.003573376
0.003791996
0.003767948
0.003766513
0.003767557
0.003767285
0.003767285
0.003575686
0.003573597
0.003573523
0.003573534
0.003573512
0.003573511
0.003573515
0.003573656
0.003573475
0.003573476
0.003573468
0.003573467
0.00357347
0.003573483
0.003573613
0.003573457
0.003573462
0.003573468
0.003573472
0.003573487
0.003573504
0.00357362
0.003573461
0.003573472
0.00357348
0.003573488
0.003573504
0.003573533
0.003573626
0.003573474
0.003573491
0.003573502
0.003573516
0.003573538
0.003573575
0.003573625
0.003573492
0.003573513
0.003573536
0.00357356
0.003573595
0.003573642
0.003573629
0.00357352
0.003573552
0.003573588
0.00357363
0.003573687
0.003573754
0.003573634
0.003573568
0.003573611
0.003573669
0.003573734
0.003573824
0.003573928
0.003573646
0.003573647
0.003573708
0.003573795
0.003573893
0.003574028
0.003574185
0.003573668
0.003573777
0.00357386
0.003573987
0.003574133
0.003574333
0.003574567
0.003573705
0.003573981
0.003574094
0.003574278
0.003574494
0.003574787
0.003575138
0.003573765
0.00357429
0.003574445
0.003574709
0.003575027
0.003575462
0.003575997
0.003573847
0.003574738
0.003574954
0.003575337
0.003575808
0.003576463
0.003577297
0.003573964
0.00357535
0.003575661
0.003576218
0.003576922
0.003577928
0.00357928
0.003574068
0.003576176
0.003576616
0.003577427
0.0035785
0.003580097
0.003582363
0.003574277
0.003577109
0.003577751
0.003578956
0.003580504
0.003583009
0.003586718
0.003574207
0.003578352
0.003579198
0.003580646
0.00358323
0.00358733
0.003594389
0.003575017
0.003579778
0.003579723
0.003582813
0.003586038
0.003592442
0.003603572
0.003575067
0.003577439
0.00357787
0.003576053
0.003579884
0.0035844
0.003596371
0.003728648
0.003731315
0.003733116
0.003735176
0.003737823
0.00372051
0.003572546
0.003572675
0.003572768
0.003572809
0.003572992
0.003573378
0.003792432
0.003768022
0.003766623
0.003767798
0.003767489
0.003767521
0.003575693
0.003573583
0.003573519
0.003573533
0.003573511
0.00357351
0.003573514
0.003573693
0.003573459
0.003573461
0.003573463
0.003573463
0.003573468
0.003573481
0.003573616
0.003573437
0.003573449
0.003573462
0.003573468
0.003573486
0.003573503
0.003573616
0.003573442
0.003573452
0.003573469
0.003573483
0.003573501
0.003573532
0.003573624
0.003573451
0.003573473
0.00357349
0.00357351
0.003573536
0.003573574
0.003573622
0.003573466
0.003573493
0.003573523
0.003573555
0.003573592
0.003573641
0.003573627
0.00357349
0.003573532
0.003573575
0.003573626
0.003573685
0.003573754
0.003573631
0.003573535
0.003573591
0.003573655
0.003573731
0.003573822
0.003573928
0.003573642
0.003573612
0.003573688
0.00357378
0.003573892
0.003574026
0.003574186
0.003573665
0.003573738
0.003573841
0.003573972
0.003574133
0.003574332
0.003574569
0.003573703
0.00357394
0.003574076
0.003574263
0.003574496
0.003574787
0.003575141
0.003573765
0.003574245
0.003574427
0.003574694
0.003575032
0.003575465
0.003576004
0.00357385
0.003574691
0.003574937
0.003575322
0.003575816
0.003576468
0.003577306
0.003573973
0.003575301
0.003575644
0.003576201
0.003576929
0.003577926
0.003579284
0.003574081
0.00357613
0.0035766
0.003577404
0.00357849
0.003580076
0.00358235
0.003574313
0.003577057
0.003577723
0.003578914
0.003580474
0.003583003
0.003586768
0.003574241
0.003578352
0.003579201
0.003580633
0.0035833
0.00358751
0.003594832
0.00357514
0.003579735
0.003579689
0.003582914
0.003586202
0.003592782
0.003604212
0.003575143
0.003577407
0.003578246
0.003575974
0.003580379
0.003585168
0.00359733
0.003728554
0.003731128
0.003732973
0.003735053
0.003737748
0.003720483
0.003572541
0.003572677
0.003572769
0.00357281
0.003572994
0.003573381
0.003792478
0.003768022
0.003766623
0.003767798
0.003767488
0.003767521
0.003575688
0.003573583
0.003573519
0.003573533
0.003573511
0.00357351
0.003573514
0.003573693
0.003573459
0.003573461
0.003573463
0.003573463
0.003573468
0.003573481
0.003573617
0.003573437
0.003573449
0.003573462
0.003573468
0.003573486
0.003573503
0.003573616
0.003573442
0.003573452
0.003573469
0.003573482
0.003573501
0.003573532
0.003573624
0.003573451
0.003573473
0.00357349
0.00357351
0.003573536
0.003573574
0.003573622
0.003573466
0.003573493
0.003573523
0.003573555
0.003573592
0.003573641
0.003573627
0.003573491
0.003573532
0.003573575
0.003573626
0.003573685
0.003573754
0.003573631
0.003573535
0.003573591
0.003573655
0.003573731
0.003573822
0.003573928
0.003573642
0.003573612
0.003573688
0.00357378
0.003573892
0.003574026
0.003574186
0.003573665
0.003573738
0.003573841
0.003573972
0.003574133
0.003574332
0.003574569
0.003573704
0.003573939
0.003574076
0.003574263
0.003574496
0.003574787
0.003575141
0.003573764
0.003574245
0.003574427
0.003574694
0.003575032
0.003575465
0.003576004
0.003573849
0.003574692
0.003574937
0.003575322
0.003575816
0.003576468
0.003577306
0.003573972
0.003575302
0.003575644
0.003576201
0.003576929
0.003577926
0.003579284
0.00357408
0.003576132
0.0035766
0.003577404
0.00357849
0.003580076
0.003582349
0.003574314
0.003577057
0.003577723
0.003578914
0.003580476
0.003583005
0.00358677
0.003574243
0.003578352
0.003579206
0.003580636
0.003583301
0.003587508
0.003594829
0.003575138
0.003579733
0.003579688
0.003582911
0.0035862
0.003592787
0.003604226
0.003575141
0.003577398
0.003578248
0.003575982
0.003580381
0.003585152
0.003597338
0.00372856
0.003731127
0.003732975
0.003735054
0.00373775
0.003720488
0.003572541
0.003572677
0.003572769
0.00357281
0.003572994
0.003573381
0.0037924
0.003767947
0.003766512
0.003767553
0.003767281
0.003767283
0.003575697
0.003573597
0.003573523
0.003573534
0.003573512
0.003573512
0.003573515
0.003573657
0.003573475
0.003573476
0.003573468
0.003573467
0.00357347
0.003573483
0.003573613
0.003573458
0.003573462
0.003573468
0.003573472
0.003573487
0.003573504
0.00357362
0.003573461
0.003573472
0.00357348
0.003573488
0.003573504
0.003573533
0.003573626
0.003573474
0.003573491
0.003573502
0.003573516
0.003573538
0.003573575
0.003573625
0.003573492
0.003573513
0.003573536
0.00357356
0.003573595
0.003573642
0.003573629
0.00357352
0.003573552
0.003573588
0.00357363
0.003573687
0.003573754
0.003573634
0.003573567
0.003573611
0.003573669
0.003573734
0.003573824
0.003573928
0.003573645
0.003573647
0.003573708
0.003573795
0.003573894
0.003574029
0.003574186
0.003573667
0.003573777
0.00357386
0.003573987
0.003574134
0.003574333
0.003574567
0.003573706
0.003573981
0.003574094
0.003574278
0.003574494
0.003574788
0.003575138
0.003573764
0.003574288
0.003574445
0.00357471
0.003575028
0.003575463
0.003575997
0.003573848
0.003574736
0.003574955
0.003575337
0.003575809
0.003576465
0.003577297
0.003573964
0.003575348
0.003575662
0.003576218
0.003576923
0.00357793
0.003579281
0.003574067
0.003576176
0.003576619
0.003577429
0.003578502
0.003580101
0.003582365
0.003574277
0.003577108
0.003577752
0.003578958
0.003580507
0.003583013
0.003586719
0.003574209
0.003578351
0.003579191
0.003580646
0.003583236
0.003587346
0.003594406
0.003575018
0.003579779
0.003579728
0.003582831
0.003586059
0.003592434
0.003603536
0.003575106
0.003577398
0.003577854
0.003576012
0.003579856
0.003584456
0.003596436
0.003728651
0.003731311
0.003733114
0.003735176
0.003737818
0.003720494
0.003572546
0.003572674
0.003572768
0.003572809
0.003572992
0.003573378
0.003791878
0.003767619
0.003765757
0.003766613
0.0037663
0.003766301
0.003575887
0.003573604
0.003573532
0.003573536
0.003573519
0.003573514
0.003573524
0.003573743
0.00357349
0.003573481
0.00357347
0.003573467
0.003573469
0.003573482
0.003573675
0.00357348
0.00357348
0.003573474
0.003573473
0.003573487
0.003573504
0.00357367
0.003573491
0.003573487
0.003573486
0.00357349
0.003573505
0.003573533
0.003573676
0.003573502
0.003573509
0.003573508
0.003573519
0.00357354
0.003573576
0.003573677
0.003573516
0.003573531
0.003573542
0.003573565
0.003573598
0.003573643
0.003573681
0.00357354
0.00357357
0.003573593
0.003573635
0.003573691
0.003573756
0.003573693
0.003573583
0.00357363
0.003573673
0.00357374
0.003573828
0.00357393
0.003573715
0.003573659
0.003573727
0.003573797
0.0035739
0.003574032
0.003574187
0.003573763
0.003573779
0.003573881
0.003573987
0.00357414
0.003574336
0.003574567
0.003573842
0.003573975
0.003574115
0.003574275
0.003574498
0.003574787
0.003575134
0.003573967
0.00357428
0.003574461
0.0035747
0.003575025
0.003575454
0.003575982
0.003574159
0.003574718
0.003574964
0.003575317
0.003575794
0.003576442
0.003577263
0.003574439
0.003575323
0.003575656
0.003576177
0.00357688
0.003577871
0.003579192
0.003574776
0.003576129
0.003576579
0.003577347
0.003578413
0.003579985
0.003582192
0.003575293
0.003577053
0.003577701
0.003578839
0.003580383
0.003582821
0.003586429
0.003575638
0.003578231
0.003579097
0.003580507
0.003583001
0.003586948
0.003593695
0.003576564
0.003579795
0.003579747
0.003582571
0.003585796
0.003592011
0.003602742
0.003575135
0.003577117
0.003578234
0.00357899
0.00358199
0.00358695
0.003597199
0.003727272
0.003729515
0.003731533
0.003733855
0.003736804
0.003720612
0.003572562
0.003572659
0.003572743
0.0035728
0.003572987
0.003573376
0.003793778
0.003790309
0.003790847
0.003791277
0.003789755
0.003789297
0.003788682
0.003575321
0.003573648
0.003573553
0.003573543
0.003573531
0.003573532
0.003573541
0.003575507
0.00357364
0.003573539
0.003573517
0.003573516
0.00357352
0.003573531
0.003575698
0.003573638
0.003573533
0.003573518
0.00357352
0.003573533
0.003573552
0.003575517
0.003573642
0.003573547
0.003573532
0.003573537
0.003573554
0.003573582
0.003575516
0.003573653
0.003573558
0.003573551
0.003573562
0.003573587
0.003573623
0.003575499
0.003573671
0.003573578
0.003573586
0.003573606
0.003573645
0.00357369
0.003575483
0.003573712
0.003573612
0.003573637
0.003573672
0.003573736
0.003573802
0.00357546
0.00357379
0.003573667
0.003573717
0.003573775
0.003573873
0.003573975
0.00357543
0.003573887
0.00357376
0.003573842
0.003573931
0.003574077
0.003574231
0.003575493
0.003574018
0.003573906
0.003574036
0.003574167
0.003574381
0.00357461
0.003575285
0.003574218
0.003574129
0.003574324
0.003574522
0.003574832
0.003575178
0.003575221
0.003574524
0.003574476
0.003574754
0.003575047
0.0035755
0.003576028
0.003575073
0.003574955
0.003574977
0.003575375
0.003575816
0.003576493
0.003577318
0.003574929
0.003575547
0.00357569
0.003576242
0.003576906
0.003577928
0.003579246
0.003574825
0.003576314
0.003576629
0.003577416
0.003578441
0.003580046
0.003582251
0.003574659
0.003577321
0.003577798
0.003578932
0.003580456
0.003582961
0.0035866
0.003574196
0.003578387
0.003579144
0.003580682
0.003583013
0.003586934
0.003593335
0.003574384
0.003579831
0.003580368
0.003582379
0.003585521
0.003591264
0.003601773
0.003578169
0.003576829
0.003579344
0.003580542
0.003582642
0.003591337
0.003606128
0.003633955
0.003721053
0.003572593
0.003572645
0.003572702
0.003572813
0.003573041
0.003573473
0.003855837
0.003862886
0.003864429
0.003864972
0.00386236
0.003861421
0.003863017
0.003579811
0.003765533
0.003765402
0.00376583
0.003765807
0.00376589
0.003765796
0.003578752
0.003766164
0.00376638
0.003767111
0.00376719
0.0037673
0.003767273
0.003580303
0.00376615
0.003766628
0.003767524
0.003767656
0.003767868
0.003767917
0.00357986
0.003766138
0.00376665
0.00376766
0.00376788
0.003768201
0.003768365
0.003579812
0.003766027
0.00376661
0.003767716
0.00376804
0.003768495
0.003768803
0.003579778
0.003765851
0.003766501
0.003767703
0.003768156
0.003768768
0.003769258
0.003579814
0.003765566
0.0037663
0.003767616
0.003768223
0.003769025
0.003769734
0.003579825
0.003765149
0.003765978
0.003767424
0.003768217
0.003769245
0.003770216
0.003579867
0.003764562
0.003765501
0.003767098
0.003768115
0.003769412
0.003770695
0.003582499
0.003763771
0.003764802
0.003766598
0.00376788
0.003769503
0.003771163
0.003580345
0.00376269
0.003763905
0.003765886
0.003767494
0.003769502
0.003771616
0.003580601
0.003761294
0.003762699
0.003764923
0.003766919
0.003769393
0.003772058
0.003579012
0.003759567
0.003761149
0.003763677
0.003766127
0.003769157
0.003772492
0.003578955
0.003757443
0.003759258
0.003762145
0.003765137
0.003768829
0.003772963
0.00358096
0.003754869
0.003756966
0.003760268
0.00376387
0.003768314
0.0037734
0.003578764
0.003751983
0.003754416
0.003758236
0.003762557
0.003767866
0.00377402
0.003580041
0.003748681
0.00375151
0.003755758
0.003760689
0.003766668
0.003773796
0.003575907
0.003745507
0.003749067
0.003753682
0.003759353
0.003766258
0.003774264
0.003575483
0.003583185
0.003588671
0.003596483
0.003603641
0.003618617
0.003647932
0.00365137
0.003684111
0.003572707
0.003572829
0.003573045
0.003572891
0.003573714
0.003573831
0.003574131
0.003790167
0.003867943
0.003583712
0.003576601
0.00378478
0.003789846
0.00385585
0.003875584
0.003577417
0.003575788
0.003787955
0.003790296
0.003862814
0.003878235
0.003577316
0.003576087
0.00378909
0.003790258
0.003864362
0.003879218
0.003577552
0.003576209
0.003789204
0.003790234
0.003864889
0.003879358
0.003577463
0.003576319
0.003789149
0.003790041
0.003864833
0.003878885
0.003577554
0.003576346
0.00378889
0.003789688
0.003864216
0.003878016
0.003577569
0.003576366
0.003788438
0.003863188
0.003577635
0.003786422
0.003788479
0.003579786
0.003607716
0.003580493
0.003608862
0.003788348
0.003788495
0.003579626
0.003608458
0.00357991
0.003608064
0.003788545
0.003788558
0.003579887
0.003608027
0.003579891
0.003608025
0.003788414
0.003788418
0.003579842
0.003607987
0.003579847
0.003608009
0.003788159
0.003788171
0.003579804
0.003607895
0.003579821
0.003607918
0.003787708
0.003787745
0.003579773
0.003607767
0.003579776
0.003607776
0.003786988
0.003787084
0.003579811
0.003607603
0.003579704
0.003607551
0.003785963
0.003786128
0.003579825
0.003607417
0.003579615
0.003607193
0.003784534
0.003784785
0.003579857
0.003607169
0.003579509
0.003606644
0.003782626
0.003782954
0.003579799
0.003606614
0.003579386
0.003605885
0.00378012
0.003780531
0.003579714
0.003605649
0.003579213
0.003604891
0.003776934
0.003777413
0.003579638
0.003604408
0.003579062
0.003603676
0.003772933
0.003773458
0.003579586
0.003602838
0.003578983
0.003602139
0.003768001
0.003768533
0.003579603
0.003600923
0.003578907
0.003600053
0.003761993
0.003762513
0.003579728
0.003598559
0.003578734
0.003597274
0.003754965
0.003755476
0.003579934
0.0035957
0.00357843
0.003593831
0.003746922
0.00374731
0.003580819
0.003590979
0.003577506
0.003589224
0.003738695
0.003738548
0.003580204
0.003585115
0.003575664
0.003584165
0.00373368
0.003711122
0.003576608
0.003584061
0.003575561
0.003670999
0.003693898
0.003668107
0.003572995
0.003726736
0.003693312
0.003698979
0.003572973
0.003574196
0.003783616
0.003698671
0.003704766
0.003573055
0.003574773
0.003843035
0.003704389
0.003710683
0.00357325
0.003575229
0.003906453
0.003710394
0.003717042
0.003573482
0.003575961
0.003977138
0.003716985
0.003724235
0.003573739
0.003576802
0.004060002
0.003724454
0.003733148
0.003574075
0.003578248
0.003733755
0.003574632
0.003724164
0.003684134
0.003572671
0.003838092
0.003580057
0.003575785
0.003847053
0.003581408
0.003576436
0.003669743
0.003573139
0.003667368
0.003573233
0.003843676
0.003579501
0.003575908
0.003846553
0.003579397
0.003576031
0.003666776
0.003573094
0.003666713
0.003573171
0.003846408
0.003579384
0.003575878
0.003847013
0.003579364
0.003575914
0.003666674
0.003573092
0.003666708
0.003573181
0.003846994
0.003579361
0.003575916
0.003847049
0.003579366
0.00357592
0.003666688
0.003573133
0.003666753
0.003573169
0.003847079
0.003579361
0.003575922
0.003846972
0.003579367
0.003575913
0.003666755
0.003573168
0.003666701
0.003573139
0.003846933
0.003579363
0.00357592
0.003846279
0.003579386
0.003575886
0.003666719
0.003573182
0.003666681
0.003573094
0.003846438
0.003579393
0.003576014
0.00384375
0.003579507
0.003575911
0.003666716
0.00357317
0.003666781
0.003573093
0.003847154
0.003581427
0.003576451
0.003838134
0.003580045
0.003575767
0.003667368
0.003573227
0.003669854
0.00357314
0.003867926
0.003583814
0.003576699
0.003790158
0.003875671
0.003577383
0.003575787
0.003784747
0.003789901
0.003878299
0.003577324
0.003576085
0.003787989
0.003790308
0.003879346
0.003577545
0.003576198
0.003789105
0.003790272
0.00387752
0.003577399
0.003576292
0.003789204
0.003790243
0.003867305
0.003577873
0.003576577
0.003789561
0.003790401
0.003877582
0.003577708
0.003576366
0.003788873
0.003789767
0.00357764
0.003788451
0.003607814
0.003581866
0.003609264
0.003786508
0.003789276
0.003608314
0.003581093
0.003608268
0.003790334
0.003789374
0.003608121
0.003579889
0.003608
0.003788719
0.003788573
0.003607978
0.003579849
0.003608005
0.00378842
0.00378841
0.003607893
0.003579823
0.003607917
0.003788152
0.003788163
0.003607766
0.003579776
0.003607776
0.003787706
0.003787742
0.003607601
0.003579704
0.003607548
0.003786986
0.00378708
0.003607409
0.003579605
0.003607183
0.003785963
0.003786124
0.003607171
0.003578735
0.003606914
0.003784551
0.003784851
0.003607744
0.00357889
0.003606267
0.003782787
0.003783093
0.003605948
0.003578809
0.003605092
0.003780371
0.003780975
0.003602971
0.003578711
0.003602459
0.003773053
0.003773816
0.003600842
0.00357849
0.003600108
0.003768002
0.003768602
0.003595879
0.003581244
0.003595243
0.003755029
0.003755614
0.003590478
0.003576576
0.003589331
0.003746913
0.003747558
0.003585165
0.003575108
0.003584908
0.003739122
0.003739176
0.003584337
0.003574867
0.003733836
0.003711215
0.003668155
0.00357302
0.003670998
0.003693973
0.003572991
0.00357416
0.003696106
0.003729312
0.003694105
0.003699186
0.00357306
0.003574765
0.003754354
0.003790915
0.003698752
0.003704804
0.003573243
0.00357528
0.003813462
0.003848655
0.003704418
0.003710704
0.003573469
0.003576168
0.00387924
0.003710204
0.00371777
0.003573746
0.003576725
0.003716813
0.003724264
0.003574072
0.003578403
0.004045794
0.003724403
0.00373157
0.003574926
0.004085612
0.003731692
0.003572669
0.00372419
0.00358297
0.003844072
0.003633215
0.003835278
0.003633782
0.003834889
0.003634831
0.003837712
0.003633624
0.003836839
0.003635683
0.003838122
0.003633744
0.003837149
0.003635603
0.003837803
0.003633611
0.00383684
0.003635305
0.003837258
0.00363335
0.003836293
0.003634813
0.003836344
0.003632839
0.003835375
0.003634078
0.003834947
0.003632087
0.003833971
0.003633055
0.003832962
0.003631097
0.003831991
0.003631871
0.0038302
0.003629794
0.003829437
0.003630002
0.003826458
0.003628199
0.003825733
0.003627623
0.003821541
0.003626223
0.003820839
0.003624674
0.003815242
0.003623913
0.003814558
0.003621032
0.003807272
0.003621237
0.003806643
0.003616707
0.003797287
0.003618157
0.003796754
0.003611657
0.003784934
0.003614636
0.003784535
0.003605963
0.00377006
0.003609769
0.003769706
0.00359895
0.003751752
0.00360139
0.003751288
0.003591754
0.003731855
0.003592471
0.003731321
0.003587321
0.003713637
0.003585765
0.003713502
0.003738403
0.0037209
0.003733349
0.003583123
0.003585543
0.003577299
0.003581061
0.003747611
0.003746133
0.003758773
0.003588629
0.003593339
0.003578095
0.003584348
0.003758788
0.00377494
0.00378824
0.003595837
0.003604214
0.003579998
0.003589527
0.003771801
0.003806193
0.003820152
0.003604093
0.00361545
0.003582867
0.003597968
0.003786853
0.003841218
0.00385789
0.003614562
0.003630867
0.003587522
0.00361296
0.003804519
0.003883265
0.00390502
0.003629699
0.003655579
0.003594273
0.003643998
0.003936358
0.003653502
0.003609391
0.00356322
0.003641673
0.003575114
0.003621071
0.003555302
0.003702246
0.003633564
0.003579516
0.003581649
0.00354076
0.003640489
0.003589614
0.003760299
0.003652422
0.00358419
0.003584811
0.003578308
0.003657155
0.003623502
0.003818458
0.003670812
0.0035891
0.003588075
0.003615089
0.003673572
0.003658789
0.003879278
0.003689537
0.003594903
0.003591692
0.003652624
0.003690831
0.003698059
0.003945246
0.003709666
0.003603445
0.003596366
0.003693106
0.003709564
0.003745268
0.00401981
0.003732544
0.003617325
0.003603886
0.003740929
0.003731404
0.003760767
0.0036412
0.003801232
0.00357345
0.003695042
0.00357312
0.003695969
0.003588196
0.003587986
0.003581857
0.00357476
0.003578229
0.003582566
0.003575208
0.00347795
0.003578206
0.003478523
0.00357633
0.0035873
0.003587421
0.003576856
0.003575923
0.00357514
0.003577485
0.003576029
0.003477737
0.003575845
0.003477684
0.003575731
0.003587263
0.003587285
0.003577442
0.003575737
0.003575106
0.003577605
0.003575642
0.003477736
0.003575657
0.00347793
0.003575426
0.003587383
0.003587407
0.003577833
0.003575566
0.003575141
0.003577878
0.00357556
0.003477809
0.003575384
0.003477718
0.00357538
0.003587334
0.003587445
0.003577876
0.00357556
0.003575143
0.003577831
0.003575565
0.003477802
0.003575375
0.003477717
0.003575379
0.003587433
0.003587403
0.003577607
0.003575641
0.003575068
0.003577445
0.003575735
0.003477979
0.003575424
0.003477873
0.003575447
0.003587465
0.003587429
0.00357748
0.003576027
0.003575055
0.003576853
0.003575926
0.003477886
0.003575539
0.003477859
0.003575881
0.003587658
0.003587297
0.003582396
0.003575205
0.003577665
0.003581821
0.003574778
0.003477828
0.00357663
0.003477818
0.003577409
0.003585578
0.003588589
0.003604795
0.003578555
0.003603986
0.003777622
0.003778017
0.003598862
0.003584632
0.003598071
0.003762215
0.003762623
0.003585416
0.003577231
0.003579928
0.003738073
0.003738298
0.00372099
0.00373063
0.003593319
0.003578356
0.003583207
0.003747726
0.003747536
0.003742382
0.003750439
0.003605697
0.003580142
0.003589235
0.003759327
0.003759471
0.003767125
0.003779787
0.003607381
0.003582622
0.003586093
0.003774016
0.003775434
0.003789988
0.003816562
0.003627455
0.003587841
0.003588075
0.003791592
0.003791528
0.003837517
0.003854211
0.003655296
0.00360297
0.003651569
0.003808049
0.003805078
0.003880023
0.003880285
0.003610456
0.003825535
0.003937663
0.003488218
0.003576378
0.003478953
0.003577587
0.003630681
0.003839523
0.003636799
0.00383267
0.0035856
0.003588606
0.003633794
0.00383815
0.003632969
0.003836881
0.003635551
0.0038383
0.003633616
0.003837278
0.003635969
0.003838167
0.003633831
0.003837202
0.003635889
0.003837816
0.003633771
0.003836884
0.003635701
0.00383727
0.003633663
0.00383637
0.003635385
0.003836376
0.003633409
0.003835521
0.003634877
0.003834998
0.003632973
0.003834186
0.003634109
0.003833018
0.003632413
0.003832185
0.003633042
0.003830245
0.003631674
0.003829384
0.003631587
0.003826464
0.003630678
0.003825581
0.003629633
0.003821437
0.003629388
0.003820535
0.003627112
0.003814948
0.00362787
0.003814017
0.003623624
0.003806562
0.003625959
0.003805416
0.003619648
0.003796152
0.00362284
0.003794961
0.003614626
0.003783401
0.003618478
0.003782038
0.0036087
0.003767519
0.003613174
0.003766291
0.003600664
0.003747835
0.003605617
0.003746721
0.003590727
0.003726497
0.003594639
0.00372558
0.003584408
0.003701604
0.003581696
0.003706273
0.003523957
0.003661662
0.00363282
0.003582635
0.003586443
0.003538574
0.003623409
0.003572971
0.003694287
0.003572932
0.003694356
0.003488308
0.003576757
0.003577879
0.003478979
0.003558489
0.003719086
0.003650905
0.003589042
0.003580654
0.00357413
0.003641744
0.003594514
0.003775848
0.003667973
0.003592701
0.00358457
0.003608674
0.003659447
0.003630748
0.003833453
0.0036852
0.003596427
0.003588551
0.003643772
0.003677318
0.003668828
0.003894014
0.003703467
0.003602299
0.003593407
0.00368143
0.003695929
0.00371168
0.003959876
0.003724007
0.003613225
0.00360051
0.00372474
0.0037164
0.00376386
0.004034147
0.003749107
0.00363709
0.003616031
0.003778287
0.003740687
0.003587715
0.003587417
0.003477847
0.003576607
0.003577541
0.003477811
0.003587531
0.003587356
0.003477881
0.003575542
0.003575882
0.003477712
0.003587378
0.003587368
0.003477807
0.003575426
0.003575446
0.003477746
0.003587391
0.003587486
0.003477696
0.003575375
0.003575379
0.003477756
0.003587364
0.003587429
0.003477802
0.003575384
0.00357538
0.003477823
0.003587409
0.003587438
0.00347783
0.003575651
0.003575426
0.003477881
0.003587232
0.003587382
0.003477784
0.003575839
0.003575725
0.003477757
0.003588156
0.003587928
0.003477949
0.00357753
0.003576251
0.003478447
0.003583029
0.003843953
0.003584464
0.003846825
0.003582551
0.00383775
0.003630612
0.003839446
0.003637442
0.003832657
0.00358224
0.003839833
0.003584787
0.003838453
0.003583378
0.003851591
0.003584685
0.003841354
0.003582601
0.003843716
0.00358572
0.003838424
0.003585286
0.003854946
0.003585906
0.003843373
0.003582796
0.003845442
0.003587104
0.003839462
0.003585119
0.003855796
0.00358546
0.003844428
0.003582306
0.00384598
0.003586866
0.0038397