/*--------------------------------*- C++ -*----------------------------------*\
  =========                 |
  \\      /  F ield         | OpenFOAM: The Open Source CFD Toolbox
   \\    /   O peration     | Website:  https://openfoam.org
    \\  /    A nd           | Version:  7
     \\/     M anipulation  |
\*---------------------------------------------------------------------------*/
FoamFile
{
    version     2.0;
    format      ascii;
    class       volScalarField;
    location    "0.05";
    object      nut;
}
// * * * * * * * * * * * * * * * * * * * * * * * * * * * * * * * * * * * * * //

dimensions      [0 2 -1 0 0 0 0];

internalField   nonuniform List<scalar> 
90967
(
0.001346778
0.001317568
0.001308339
0.001306142
0.001305594
0.00130548
0.001317721
0.001263476
0.001247411
0.001243186
0.001242051
0.001241773
0.001308387
0.001247291
0.001227451
0.001221969
0.001220421
0.001220023
0.001306159
0.001242997
0.00122189
0.001215775
0.001213972
0.001213505
0.001305506
0.001241711
0.001220143
0.001213749
0.001211819
0.001211325
0.001305244
0.001241225
0.001219477
0.001212969
0.001210991
0.001210501
0.001305102
0.001241009
0.001219199
0.001212657
0.001210675
0.001210211
0.001304987
0.00124088
0.001219062
0.001212529
0.001210572
0.001210151
0.001304863
0.001240776
0.001218979
0.00121248
0.001210567
0.0012102
0.001304714
0.001240667
0.001218914
0.001212471
0.00121062
0.001210322
0.001304534
0.001240554
0.00121887
0.001212507
0.001210742
0.001210531
0.001304327
0.001240459
0.001218889
0.001212646
0.001210994
0.001210893
0.001304127
0.001240462
0.001219083
0.001213023
0.001211529
0.001211568
0.001304035
0.001240787
0.001219767
0.001214004
0.001212738
0.001212958
0.001304386
0.0012421
0.001221799
0.001216538
0.001215605
0.001216067
0.001306651
0.001247026
0.001228376
0.001224023
0.001223563
0.001224334
0.001317306
0.001265567
0.001251114
0.001248228
0.001248346
0.001249447
0.001354743
0.001328003
0.00132001
0.001318967
0.001319673
0.00132116
0.000653511
0.0006310783
0.0006293662
0.0006302452
0.0006316086
0.0006332349
0.0006352858
0.0001360419
0.0001372563
0.0001384336
0.000139648
0.0001409361
0.0001423436
0.0001439535
0.0006526204
0.000642679
0.0006413509
0.0006413325
0.000641527
0.0006418326
0.0006422402
0.0006197626
0.0006111578
0.0006068045
0.0006058536
0.0006056715
0.0006056021
0.0006055682
0.0001008612
0.0001008736
0.0001008723
0.0001008721
0.000100872
0.0001008724
0.0001008723
0.0001008718
0.0001008728
0.0001008709
0.0001008708
0.0001008708
0.0001008709
0.0001008711
0.0001008666
0.0001008725
0.0001008707
0.0001008707
0.0001008708
0.000100871
0.0001008713
0.0001008683
0.0001008725
0.0001008708
0.0001008709
0.000100871
0.0001008712
0.0001008716
0.0001008684
0.0001008727
0.000100871
0.0001008711
0.0001008713
0.0001008717
0.0001008722
0.0001008702
0.000100873
0.0001008712
0.0001008715
0.0001008717
0.0001008723
0.000100873
0.0001008728
0.0001008737
0.0001008717
0.0001008721
0.0001008725
0.0001008733
0.0001008743
0.0001008731
0.000100875
0.0001008725
0.0001008732
0.0001008737
0.000100875
0.0001008764
0.0001008731
0.0001008768
0.0001008739
0.0001008749
0.0001008758
0.0001008776
0.0001008796
0.0001008732
0.0001008791
0.0001008763
0.0001008778
0.0001008791
0.0001008817
0.0001008847
0.0001008734
0.0001008827
0.0001008801
0.0001008822
0.0001008843
0.0001008881
0.0001008934
0.0001008741
0.000100888
0.0001008858
0.0001008889
0.0001008922
0.000100898
0.0001009076
0.0001008756
0.0001008955
0.0001008942
0.0001008988
0.000100904
0.0001009129
0.0001009268
0.000100878
0.000100906
0.000100906
0.0001009128
0.000100921
0.0001009356
0.000100959
0.0001008813
0.0001009196
0.0001009217
0.0001009318
0.0001009453
0.0001009675
0.000100999
0.000100886
0.0001009369
0.0001009418
0.0001009567
0.0001009776
0.000101013
0.0001010659
0.0001008915
0.0001009557
0.000100965
0.0001009857
0.0001010189
0.0001010762
0.0001011707
0.0001008887
0.0001009821
0.0001009879
0.0001010161
0.0001010618
0.0001011469
0.0001012989
0.0001009321
0.000100912
0.0001009602
0.0001010077
0.0001010633
0.0001011756
0.0001013945
0.0001018563
0.0006123642
0.0001008687
0.000100869
0.0001008697
0.0001008709
0.0001008739
0.00010088
0.0006143946
0.001293359
0.00127268
0.001265503
0.001263761
0.001263388
0.000100866
0.000100871
0.0001008724
0.0001008723
0.0001008744
0.0001008723
0.0001008721
0.0001008517
0.0001008503
0.0001008503
0.0001008502
0.0001008502
0.0001008502
0.0001008504
0.0001008509
0.0001008502
0.0001008503
0.0001008503
0.0001008503
0.0001008504
0.0001008506
0.0001008508
0.0001008503
0.0001008503
0.0001008504
0.0001008504
0.0001008506
0.0001008509
0.0001008509
0.0001008504
0.0001008506
0.0001008506
0.0001008507
0.000100851
0.0001008513
0.000100851
0.0001008506
0.0001008508
0.0001008509
0.0001008512
0.0001008516
0.0001008521
0.0001008512
0.0001008511
0.0001008513
0.0001008516
0.000100852
0.0001008526
0.0001008534
0.0001008516
0.0001008518
0.0001008522
0.0001008526
0.0001008533
0.0001008543
0.0001008555
0.0001008523
0.0001008531
0.0001008538
0.0001008544
0.0001008554
0.0001008569
0.0001008588
0.0001008534
0.0001008554
0.0001008562
0.0001008572
0.0001008587
0.000100861
0.0001008638
0.0001008552
0.0001008589
0.00010086
0.0001008616
0.0001008639
0.0001008673
0.0001008716
0.000100858
0.0001008642
0.0001008658
0.0001008682
0.0001008718
0.000100877
0.0001008837
0.0001008621
0.0001008719
0.0001008741
0.000100878
0.0001008836
0.0001008917
0.0001009024
0.0001008678
0.0001008825
0.0001008857
0.0001008918
0.0001009004
0.0001009133
0.000100931
0.0001008748
0.0001008965
0.0001009012
0.0001009108
0.0001009246
0.0001009457
0.0001009762
0.000100885
0.0001009129
0.0001009203
0.0001009355
0.0001009561
0.0001009897
0.0001010398
0.0001008929
0.0001009337
0.0001009441
0.0001009633
0.0001009989
0.0001010549
0.000101151
0.0001009112
0.0001009611
0.0001009579
0.0001010009
0.0001010481
0.0001011405
0.0001012984
0.0001008843
0.0001009178
0.0001009338
0.0001009368
0.0001009827
0.000101054
0.0001012034
0.0006623591
0.0006908832
0.000685487
0.0006849985
0.0006854184
0.0006039604
0.0001008704
0.0001008688
0.0001008704
0.0001008704
0.0001008726
0.0001008779
0.0006104578
0.001274002
0.001239095
0.001228347
0.00122562
0.001224994
0.0001008621
0.0001008711
0.0001008719
0.0001008717
0.0001008734
0.0001008717
0.0001008714
0.0001008508
0.0001008504
0.0001008503
0.0001008502
0.0001008502
0.0001008502
0.0001008504
0.0001008505
0.0001008503
0.0001008502
0.0001008502
0.0001008503
0.0001008504
0.0001008506
0.0001008506
0.0001008502
0.0001008503
0.0001008504
0.0001008504
0.0001008506
0.0001008509
0.0001008507
0.0001008504
0.0001008505
0.0001008506
0.0001008507
0.0001008509
0.0001008513
0.0001008507
0.0001008507
0.0001008507
0.0001008509
0.0001008511
0.0001008515
0.0001008521
0.000100851
0.0001008512
0.0001008513
0.0001008515
0.0001008519
0.0001008526
0.0001008534
0.0001008512
0.000100852
0.0001008521
0.0001008526
0.0001008532
0.0001008542
0.0001008555
0.0001008517
0.0001008534
0.0001008537
0.0001008544
0.0001008553
0.0001008568
0.0001008587
0.0001008524
0.0001008558
0.0001008561
0.0001008572
0.0001008586
0.0001008609
0.0001008638
0.0001008536
0.0001008594
0.0001008599
0.0001008617
0.0001008639
0.0001008673
0.0001008717
0.0001008552
0.0001008649
0.0001008657
0.0001008684
0.0001008719
0.0001008771
0.0001008839
0.0001008574
0.0001008727
0.0001008741
0.0001008783
0.0001008838
0.000100892
0.0001009029
0.0001008605
0.0001008835
0.0001008859
0.0001008925
0.0001009011
0.0001009142
0.0001009324
0.0001008636
0.0001008979
0.0001009019
0.0001009121
0.000100926
0.0001009476
0.0001009789
0.0001008688
0.0001009142
0.0001009212
0.0001009374
0.0001009583
0.0001009931
0.0001010446
0.0001008701
0.000100936
0.0001009462
0.000100966
0.0001010028
0.0001010612
0.000101162
0.0001008864
0.0001009608
0.0001009577
0.0001010057
0.0001010535
0.000101151
0.0001013166
0.0001008846
0.0001009213
0.0001009278
0.0001008916
0.0001009458
0.0001010078
0.0001011848
0.000690668
0.0007623799
0.0007539254
0.0007531666
0.0007536889
0.0005996261
0.0001008705
0.00010087
0.0001008733
0.0001008729
0.000100875
0.0001008802
0.000609688
0.001267198
0.00122888
0.001216086
0.001212867
0.001212126
0.0001008622
0.0001008706
0.0001008718
0.0001008715
0.0001008732
0.0001008714
0.0001008713
0.0001008513
0.0001008502
0.0001008502
0.0001008502
0.0001008502
0.0001008502
0.0001008504
0.0001008505
0.0001008501
0.0001008502
0.0001008502
0.0001008502
0.0001008504
0.0001008506
0.0001008505
0.0001008501
0.0001008502
0.0001008503
0.0001008504
0.0001008506
0.0001008509
0.0001008506
0.0001008502
0.0001008504
0.0001008505
0.0001008507
0.0001008509
0.0001008513
0.0001008507
0.0001008504
0.0001008507
0.0001008509
0.0001008511
0.0001008515
0.0001008521
0.0001008509
0.0001008508
0.0001008512
0.0001008515
0.0001008519
0.0001008526
0.0001008534
0.0001008512
0.0001008516
0.0001008521
0.0001008526
0.0001008532
0.0001008542
0.0001008555
0.0001008516
0.000100853
0.0001008536
0.0001008543
0.0001008554
0.0001008568
0.0001008588
0.0001008524
0.0001008553
0.000100856
0.0001008572
0.0001008587
0.0001008609
0.0001008638
0.0001008535
0.0001008589
0.0001008598
0.0001008616
0.000100864
0.0001008674
0.0001008718
0.0001008552
0.0001008643
0.0001008656
0.0001008683
0.000100872
0.0001008772
0.0001008841
0.0001008575
0.0001008721
0.000100874
0.0001008782
0.000100884
0.0001008921
0.0001009031
0.0001008606
0.0001008828
0.0001008858
0.0001008923
0.0001009013
0.0001009143
0.0001009326
0.0001008638
0.0001008972
0.0001009018
0.0001009118
0.000100926
0.0001009474
0.0001009789
0.0001008694
0.0001009134
0.0001009208
0.0001009369
0.000100958
0.0001009932
0.0001010454
0.0001008706
0.000100936
0.0001009463
0.0001009659
0.0001010041
0.0001010642
0.0001011692
0.0001008883
0.00010096
0.0001009571
0.0001010075
0.0001010563
0.0001011567
0.0001013269
0.0001008858
0.0001009207
0.0001009336
0.0001008893
0.0001009523
0.000101018
0.0001011977
0.0006849263
0.0007534276
0.0007457561
0.000745109
0.0007456683
0.000598753
0.0001008704
0.0001008698
0.0001008729
0.0001008725
0.0001008746
0.0001008798
0.0006096537
0.001267204
0.001228893
0.001216113
0.001212906
0.001212157
0.0001008621
0.0001008706
0.0001008718
0.0001008715
0.0001008732
0.0001008714
0.0001008713
0.0001008513
0.0001008502
0.0001008502
0.0001008502
0.0001008502
0.0001008502
0.0001008504
0.0001008505
0.0001008501
0.0001008502
0.0001008502
0.0001008502
0.0001008504
0.0001008506
0.0001008505
0.0001008501
0.0001008502
0.0001008503
0.0001008504
0.0001008506
0.0001008509
0.0001008506
0.0001008502
0.0001008504
0.0001008505
0.0001008507
0.0001008509
0.0001008513
0.0001008507
0.0001008504
0.0001008507
0.0001008509
0.0001008511
0.0001008515
0.0001008521
0.0001008509
0.0001008508
0.0001008512
0.0001008515
0.0001008519
0.0001008526
0.0001008534
0.0001008512
0.0001008516
0.0001008521
0.0001008526
0.0001008532
0.0001008542
0.0001008555
0.0001008516
0.000100853
0.0001008536
0.0001008543
0.0001008554
0.0001008568
0.0001008588
0.0001008524
0.0001008553
0.000100856
0.0001008572
0.0001008587
0.0001008609
0.0001008638
0.0001008535
0.0001008589
0.0001008598
0.0001008616
0.000100864
0.0001008674
0.0001008718
0.0001008552
0.0001008643
0.0001008656
0.0001008683
0.000100872
0.0001008772
0.0001008841
0.0001008575
0.0001008721
0.000100874
0.0001008782
0.000100884
0.0001008921
0.0001009031
0.0001008606
0.0001008828
0.0001008858
0.0001008923
0.0001009013
0.0001009143
0.0001009325
0.0001008638
0.0001008972
0.0001009018
0.0001009118
0.000100926
0.0001009474
0.0001009789
0.0001008694
0.0001009134
0.0001009208
0.0001009369
0.000100958
0.0001009932
0.0001010455
0.0001008706
0.000100936
0.0001009464
0.0001009659
0.0001010041
0.0001010642
0.0001011691
0.0001008883
0.00010096
0.0001009571
0.0001010074
0.0001010562
0.0001011568
0.0001013271
0.0001008858
0.0001009205
0.0001009336
0.0001008894
0.0001009523
0.0001010177
0.0001011978
0.0006849266
0.000753426
0.0007457509
0.0007451008
0.000745655
0.0005986861
0.0001008704
0.0001008698
0.0001008729
0.0001008725
0.0001008746
0.0001008798
0.0006099608
0.001274019
0.001239146
0.001228484
0.001225833
0.001225157
0.0001008623
0.0001008711
0.0001008719
0.0001008717
0.0001008737
0.0001008717
0.0001008714
0.0001008508
0.0001008504
0.0001008503
0.0001008502
0.0001008502
0.0001008502
0.0001008504
0.0001008505
0.0001008503
0.0001008502
0.0001008502
0.0001008503
0.0001008504
0.0001008506
0.0001008506
0.0001008502
0.0001008503
0.0001008504
0.0001008504
0.0001008506
0.0001008509
0.0001008507
0.0001008504
0.0001008505
0.0001008506
0.0001008507
0.0001008509
0.0001008513
0.0001008507
0.0001008507
0.0001008507
0.0001008509
0.0001008511
0.0001008515
0.0001008521
0.000100851
0.0001008512
0.0001008513
0.0001008515
0.0001008519
0.0001008526
0.0001008534
0.0001008512
0.000100852
0.0001008521
0.0001008526
0.0001008532
0.0001008542
0.0001008555
0.0001008517
0.0001008534
0.0001008537
0.0001008544
0.0001008553
0.0001008568
0.0001008587
0.0001008524
0.0001008558
0.0001008561
0.0001008572
0.0001008586
0.0001008609
0.0001008638
0.0001008536
0.0001008594
0.0001008599
0.0001008617
0.0001008639
0.0001008673
0.0001008717
0.0001008552
0.0001008648
0.0001008657
0.0001008684
0.0001008719
0.0001008771
0.0001008839
0.0001008575
0.0001008727
0.0001008741
0.0001008784
0.0001008838
0.000100892
0.0001009029
0.0001008605
0.0001008834
0.0001008859
0.0001008925
0.0001009011
0.0001009142
0.0001009324
0.0001008636
0.0001008979
0.0001009019
0.0001009121
0.0001009261
0.0001009477
0.000100979
0.0001008689
0.0001009142
0.0001009212
0.0001009375
0.0001009583
0.0001009931
0.0001010446
0.0001008701
0.000100936
0.0001009461
0.000100966
0.0001010029
0.0001010615
0.0001011623
0.0001008864
0.0001009608
0.0001009578
0.000101006
0.0001010538
0.0001011509
0.000101316
0.0001008851
0.0001009206
0.0001009276
0.000100891
0.0001009453
0.0001010087
0.0001011859
0.0006906637
0.0007623665
0.0007539013
0.0007531356
0.000753636
0.0005989679
0.0001008705
0.00010087
0.0001008733
0.0001008729
0.000100875
0.0001008802
0.0006124809
0.001293383
0.001272806
0.001266051
0.001264854
0.001264107
0.0001008654
0.0001008711
0.0001008724
0.0001008724
0.0001008761
0.0001008724
0.0001008719
0.0001008517
0.0001008504
0.0001008503
0.0001008502
0.0001008502
0.0001008502
0.0001008504
0.0001008509
0.0001008502
0.0001008503
0.0001008503
0.0001008503
0.0001008504
0.0001008506
0.0001008508
0.0001008503
0.0001008503
0.0001008504
0.0001008504
0.0001008506
0.0001008509
0.0001008509
0.0001008504
0.0001008506
0.0001008506
0.0001008507
0.000100851
0.0001008513
0.000100851
0.0001008507
0.0001008508
0.0001008509
0.0001008512
0.0001008516
0.0001008521
0.0001008512
0.0001008511
0.0001008514
0.0001008516
0.000100852
0.0001008526
0.0001008534
0.0001008516
0.0001008518
0.0001008522
0.0001008526
0.0001008533
0.0001008543
0.0001008555
0.0001008523
0.0001008532
0.0001008538
0.0001008544
0.0001008554
0.0001008569
0.0001008588
0.0001008535
0.0001008553
0.0001008562
0.0001008572
0.0001008587
0.000100861
0.0001008638
0.0001008553
0.0001008588
0.00010086
0.0001008616
0.0001008639
0.0001008673
0.0001008716
0.000100858
0.0001008642
0.0001008658
0.0001008682
0.0001008718
0.000100877
0.0001008837
0.0001008621
0.000100872
0.0001008741
0.000100878
0.0001008836
0.0001008917
0.0001009024
0.0001008678
0.0001008826
0.0001008857
0.0001008918
0.0001009004
0.0001009133
0.000100931
0.0001008747
0.0001008966
0.0001009012
0.0001009108
0.0001009246
0.0001009457
0.0001009762
0.000100885
0.0001009129
0.0001009203
0.0001009354
0.0001009562
0.0001009899
0.0001010399
0.000100893
0.0001009336
0.0001009444
0.0001009635
0.0001009987
0.0001010546
0.0001011507
0.0001009111
0.0001009609
0.0001009577
0.0001010003
0.0001010477
0.0001011412
0.0001013004
0.0001008855
0.000100916
0.0001009341
0.0001009409
0.0001009828
0.000101054
0.0001012036
0.0006623443
0.0006908427
0.0006854122
0.0006849331
0.0006852936
0.0006016692
0.0001008704
0.0001008688
0.0001008704
0.0001008704
0.0001008726
0.0001008779
0.0006169215
0.0006024164
0.0005837211
0.0005815246
0.0005834874
0.000582512
0.0005807338
0.0001008569
0.0001008736
0.0001008724
0.0001008721
0.0001008721
0.0001008724
0.0001008722
0.0001008576
0.0001008728
0.0001008709
0.0001008708
0.0001008708
0.0001008709
0.0001008711
0.0001008601
0.0001008725
0.0001008707
0.0001008707
0.0001008708
0.000100871
0.0001008713
0.0001008568
0.0001008726
0.0001008708
0.0001008709
0.000100871
0.0001008712
0.0001008716
0.0001008569
0.0001008727
0.000100871
0.0001008711
0.0001008713
0.0001008717
0.0001008722
0.0001008568
0.000100873
0.0001008712
0.0001008715
0.0001008717
0.0001008723
0.000100873
0.0001008568
0.0001008737
0.0001008717
0.0001008721
0.0001008725
0.0001008733
0.0001008743
0.0001008569
0.000100875
0.0001008725
0.0001008732
0.0001008737
0.000100875
0.0001008764
0.0001008571
0.0001008767
0.000100874
0.0001008749
0.0001008758
0.0001008776
0.0001008796
0.0001008594
0.000100879
0.0001008763
0.0001008778
0.0001008791
0.0001008817
0.0001008847
0.0001008566
0.0001008825
0.00010088
0.0001008822
0.0001008843
0.0001008882
0.0001008934
0.0001008572
0.0001008879
0.0001008858
0.000100889
0.0001008922
0.000100898
0.0001009075
0.0001008573
0.0001008956
0.0001008941
0.0001008989
0.0001009041
0.0001009129
0.0001009266
0.0001008576
0.000100906
0.0001009061
0.0001009129
0.0001009211
0.0001009356
0.0001009588
0.0001008593
0.0001009194
0.0001009219
0.000100932
0.0001009454
0.0001009676
0.000100999
0.0001008611
0.0001009369
0.0001009416
0.0001009568
0.0001009777
0.0001010135
0.0001010663
0.000100859
0.000100956
0.0001009648
0.000100986
0.0001010191
0.0001010764
0.0001011703
0.0001008684
0.000100982
0.0001009875
0.000101016
0.0001010617
0.0001011468
0.0001013011
0.0001009352
0.0001009092
0.0001009455
0.0001009586
0.0001009831
0.0001011133
0.0001013319
0.0001017258
0.0006068821
0.0001008686
0.000100869
0.0001008697
0.0001008709
0.0001008739
0.0001008799
0.0002765265
0.0002698671
0.0002695004
0.000269537
0.000278783
0.0002789493
0.0002694557
0.000101386
0.001346427
0.0013175
0.001308305
0.001305935
0.001304664
0.00130514
0.0001029323
0.001317149
0.001263379
0.001247365
0.001243109
0.001241928
0.00124168
0.0001013493
0.001308234
0.001247244
0.001227424
0.00122193
0.001220361
0.001219976
0.0001013462
0.001306142
0.001242984
0.001221881
0.001215764
0.001213959
0.001213494
0.0001013409
0.001305504
0.001241706
0.001220139
0.001213745
0.001211816
0.001211322
0.0001013335
0.001305242
0.001241221
0.001219473
0.001212966
0.00121099
0.001210502
0.000101324
0.001305096
0.001240996
0.00121919
0.001212651
0.001210673
0.001210213
0.0001013081
0.001304947
0.001240843
0.001219041
0.00121252
0.00121057
0.00121015
0.000101285
0.001304517
0.001240675
0.00121893
0.001212467
0.001210564
0.001210199
0.0001012639
0.001303669
0.0012405
0.001218842
0.001212452
0.001210616
0.001210321
0.0001012209
0.001303744
0.001240367
0.001218804
0.001212489
0.001210738
0.001210529
0.0001011862
0.001303466
0.00124028
0.001218835
0.00121263
0.001210993
0.001210894
0.0001011081
0.001303558
0.001240305
0.001219036
0.00121301
0.001211531
0.001211574
0.0001010586
0.001303609
0.001240622
0.001219709
0.001213992
0.001212742
0.001212967
0.0001010481
0.001303452
0.001241858
0.001221691
0.001216503
0.001215582
0.001216059
0.0001009677
0.001305045
0.001246702
0.001228179
0.001223838
0.001223353
0.001224202
0.0001009645
0.001316164
0.001265242
0.001250703
0.001247297
0.001247087
0.001248659
0.0001010495
0.001354163
0.001327858
0.001319038
0.001314484
0.001313535
0.001317601
0.0001008823
0.0001053688
0.000108616
0.0001124386
0.0001165795
0.0001204901
0.0001268103
0.0001354527
0.0002640071
0.0001008973
0.0001008981
0.0001009279
0.0001009053
0.0001010193
0.000100995
0.0001009474
0.0006615423
0.0002663879
0.0001009581
0.0001010879
0.0006569261
0.0006392022
0.0002765253
0.0002705336
0.0001021974
0.000101215
0.0006349166
0.0006330365
0.0002698648
0.0002700997
0.0001020732
0.0001013667
0.0006324726
0.0006323721
0.0002694959
0.0002699839
0.0001022309
0.0001013814
0.0006322009
0.0006322828
0.0002694064
0.0002699674
0.0001022018
0.0001013561
0.0006321581
0.0006322476
0.0002693857
0.0002699415
0.0001022372
0.0001013534
0.0006321337
0.0006322303
0.0002693552
0.0002699077
0.0001022637
0.0001013507
0.0006321299
0.0002693175
0.0001023181
0.0006570815
0.0006390694
0.0001013888
0.0001232364
0.0001013633
0.000123373
0.0006349472
0.0006328523
0.0001013516
0.0001234308
0.0001013538
0.0001233953
0.0006324166
0.0006321986
0.0001013507
0.0001233854
0.0001013494
0.0001233776
0.0006321241
0.0006320991
0.0001013466
0.0001233344
0.0001013459
0.0001233318
0.0006320622
0.0006320554
0.0001013414
0.0001232486
0.0001013407
0.0001232508
0.0006320098
0.0006320093
0.0001013339
0.0001231042
0.0001013321
0.0001231064
0.0006319396
0.0006319469
0.0001013245
0.0001228859
0.0001013192
0.0001228818
0.0006318438
0.0006318597
0.0001013086
0.0001225698
0.0001013009
0.0001225506
0.0006317118
0.0006317354
0.0001012866
0.0001221225
0.0001012763
0.0001220817
0.0006315357
0.0006315672
0.0001012562
0.0001214939
0.0001012443
0.000121445
0.0006313024
0.0006313428
0.0001012181
0.0001206525
0.0001012031
0.000120602
0.0006310063
0.0006310553
0.0001011733
0.0001195507
0.0001011562
0.0001195062
0.0006306353
0.0006306912
0.0001011235
0.0001181648
0.0001011061
0.0001181212
0.0006301799
0.0006302439
0.0001010733
0.0001164751
0.0001010547
0.0001164256
0.0006296342
0.0006297226
0.0001010273
0.0001144329
0.0001010041
0.0001143724
0.0006290524
0.0006293613
0.0001009903
0.0001120747
0.0001009598
0.0001120047
0.0006289586
0.000631242
0.0001009781
0.0001092894
0.0001009194
0.0001092281
0.000634683
0.0006536119
0.0001009568
0.0001063128
0.0001008834
0.0001062112
0.0006567001
0.0003126364
0.0001009006
0.0001011793
0.0001008883
0.0001355727
0.000298281
0.0002130727
0.0001009286
0.000136697
0.0002959246
0.000294358
0.0001010088
0.0001014058
0.0001378662
0.0002942117
0.0002943023
0.0001010111
0.0001015877
0.0001390894
0.0002942581
0.0002944937
0.0001010248
0.0001017525
0.0001403766
0.0002944757
0.0002947569
0.000101043
0.0001019501
0.0001417981
0.0002947559
0.0002950693
0.0001010637
0.0001021263
0.0001434485
0.0002950827
0.0002954629
0.0001010848
0.0001024282
0.0002954999
0.0001011144
0.0006681429
0.0002641924
0.0001009076
0.0002769112
0.0001008818
0.0001010044
0.0002714154
0.0001009113
0.0001010445
0.0002182014
0.0001010136
0.0002112201
0.0001010099
0.0002711977
0.0001008767
0.0001011396
0.0002709226
0.0001008751
0.0001011525
0.0002110747
0.0001010097
0.000210799
0.0001010136
0.0002708823
0.0001008758
0.0001011521
0.0002707965
0.000100875
0.0001011552
0.0002107595
0.0001010135
0.0002106835
0.0001010149
0.0002708313
0.0001008755
0.0001011551
0.0002708299
0.0001008751
0.0001011552
0.0002106769
0.0001010143
0.0002106716
0.0001010148
0.0002708246
0.0001008755
0.0001011555
0.0002708266
0.0001008751
0.0001011549
0.0002106716
0.0001010148
0.0002106771
0.0001010143
0.0002708831
0.0001008755
0.0001011547
0.0002709545
0.0001008753
0.0001011524
0.0002106842
0.0001010149
0.0002107596
0.0001010135
0.0002709815
0.0001008756
0.000101152
0.0002710958
0.0001008763
0.0001011403
0.0002107995
0.0001010136
0.0002110756
0.0001010097
0.0002713307
0.0001009121
0.0001010447
0.0002769369
0.0001008814
0.0001010033
0.0002112259
0.0001010098
0.0002184639
0.0001010136
0.0002663778
0.000100959
0.0001010897
0.0006615505
0.0002705362
0.0001021705
0.0001012152
0.0006568923
0.000639202
0.0002701029
0.000102079
0.0001013659
0.0006349186
0.0006330399
0.0002700307
0.0001022248
0.0001013796
0.0006324761
0.0006323799
0.0002737185
0.00010217
0.0001013414
0.0006322211
0.0006323522
0.0002900368
0.0001021838
0.0001014156
0.000632657
0.0006328034
0.0002703253
0.0001023428
0.0001013517
0.0006322367
0.0006322605
0.0001023268
0.000632138
0.0001232715
0.0001014113
0.0001236662
0.0006567582
0.0006365009
0.0001231191
0.0001013634
0.0001237192
0.0006302006
0.000630307
0.0001234433
0.0001013499
0.0001233692
0.0006321068
0.000632184
0.0001233318
0.0001013459
0.0001233279
0.0006321283
0.000632103
0.0001232463
0.0001013407
0.0001232484
0.0006320665
0.000632059
0.0001231037
0.0001013321
0.0001231057
0.0006320144
0.0006320149
0.0001228852
0.0001013192
0.0001228806
0.0006319431
0.0006319509
0.0001225686
0.0001013003
0.0001225463
0.0006318446
0.0006318675
0.0001221267
0.0001012461
0.0001221962
0.0006317364
0.0006318491
0.0001218017
0.0001012224
0.0001217238
0.0006320704
0.0006317814
0.0001208116
0.0001011882
0.0001208251
0.0006292998
0.0006282691
0.0001183006
0.0001010974
0.0001182697
0.0006286811
0.000627998
0.0001165255
0.0001010455
0.0001164849
0.0006291763
0.000629261
0.0001122498
0.0001010025
0.0001122239
0.0006297475
0.0006300616
0.0001093696
0.0001009083
0.0001093498
0.0006285289
0.0006268432
0.0001063097
0.0001010167
0.0001060977
0.0006290015
0.0006483223
0.0001011823
0.0001008769
0.0006542215
0.000312655
0.0002133846
0.0001009288
0.000135665
0.000298776
0.0001010084
0.0001014068
0.0001362576
0.0001310423
0.0002994777
0.0002950097
0.0001010112
0.0001015924
0.0001351808
0.0001336809
0.0002943314
0.0002943083
0.0001010248
0.0001017739
0.0001364304
0.0001365559
0.0002942658
0.0002951618
0.0001010427
0.0001019368
0.0001313444
0.0002982123
0.0002985401
0.0001010657
0.0001020959
0.0002954161
0.0002950757
0.0001010831
0.0001024809
0.0001431077
0.0002950725
0.0002955022
0.0001011288
0.0001443551
0.0002970278
0.0001009088
0.0006678673
0.0001020044
0.0003317119
0.000139266
0.0003168115
0.0001396148
0.0003151628
0.0001389361
0.0003137559
0.0001391505
0.0003128723
0.0001389931
0.0003135387
0.0001391885
0.0003127861
0.0001389018
0.0003135248
0.0001390938
0.0003127683
0.0001387375
0.0003135024
0.0001389239
0.0003127437
0.0001384541
0.000313462
0.0001386348
0.0003127033
0.0001380161
0.0003134001
0.0001382163
0.0003126411
0.0001373988
0.000313312
0.0001375979
0.0003125532
0.0001365459
0.0003131891
0.000136721
0.0003124389
0.0001354047
0.0003130212
0.0001355641
0.0003122731
0.0001339082
0.0003127998
0.0001340632
0.0003120529
0.0001320076
0.0003125153
0.0001321667
0.0003117693
0.0001296333
0.0003121537
0.0001297933
0.0003114106
0.0001267393
0.000311698
0.0001269074
0.0003109611
0.0001232987
0.0003111322
0.0001234851
0.0003104021
0.0001193261
0.0003104454
0.0001195313
0.0003097224
0.0001147513
0.000309603
0.0001149513
0.0003089237
0.0001099939
0.0003090864
0.0001101516
0.0003096243
0.0001058498
0.0003125229
0.0001059817
0.0003200283
0.0006345948
0.0003119153
0.0003117269
0.0001053779
0.0001055499
0.0001009142
0.0001009709
0.0006287528
0.000312229
0.0003127656
0.0001086409
0.0001088482
0.0001009276
0.0001010313
0.0006290604
0.000313535
0.0003141482
0.0001123665
0.0001126697
0.0001009876
0.0001011524
0.0006301913
0.000315005
0.0003156567
0.0001165446
0.0001169519
0.0001011112
0.0001013814
0.0006315979
0.0003166605
0.000317443
0.0001215247
0.0001221086
0.0001013466
0.000101817
0.0006333119
0.0003186418
0.0003196714
0.0001276234
0.0001285647
0.0001017586
0.0001027028
0.000321133
0.0001354175
0.0001025604
9.040424e-05
0.000136813
0.0001008761
0.0001320294
7.081546e-05
0.0001362066
0.0001351017
0.0001009242
0.000100968
7.073579e-05
0.0001352651
7.118817e-05
0.0001373879
0.0001355169
0.0001010908
0.0001011322
7.1066e-05
0.0001356084
7.155206e-05
0.0001385847
0.0001358881
0.0001014427
0.0001014779
7.146522e-05
0.0001359386
7.193619e-05
0.000139822
0.0001362707
0.0001020513
0.0001020769
7.187477e-05
0.0001362917
7.236215e-05
0.0001411484
0.000136682
0.0001030516
0.0001030487
7.231576e-05
0.0001366747
7.287125e-05
0.000142632
0.0001371482
0.0001046515
0.0001045692
7.28336e-05
0.0001371194
0.0001377197
0.000107247
7.348099e-05
0.0001011844
0.000320549
0.0001011089
0.0003119578
0.0001036823
0.0001036165
0.0001009948
0.0001008752
0.0001009362
0.0001010059
0.0001008817
6.234767e-05
0.0001009172
6.245791e-05
0.0001008871
0.0001037074
0.000103715
0.000100916
0.0001008937
0.0001008856
0.0001009256
0.0001008957
6.233627e-05
0.0001008803
6.233576e-05
0.0001008788
0.0001037316
0.0001037464
0.0001009256
0.0001008911
0.0001008851
0.000100928
0.0001008897
6.234242e-05
0.0001008789
6.234133e-05
0.0001008752
0.0001037557
0.0001037668
0.0001009318
0.0001008885
0.0001008858
0.0001009324
0.0001008884
6.234079e-05
0.0001008746
6.233954e-05
0.0001008746
0.000103746
0.0001037685
0.0001009324
0.0001008884
0.0001008858
0.0001009316
0.0001008885
6.234091e-05
0.0001008745
6.233977e-05
0.0001008746
0.0001037575
0.000103762
0.0001009282
0.0001008897
0.0001008846
0.0001009255
0.0001008911
6.234443e-05
0.0001008753
6.23439e-05
0.0001008757
0.0001037398
0.0001037599
0.0001009256
0.0001008957
0.0001008842
0.0001009159
0.0001008937
6.233635e-05
0.0001008765
6.233725e-05
0.000100882
0.0001037115
0.0001037414
0.0001010033
0.0001008817
0.0001009273
0.000100994
0.0001008756
6.234251e-05
0.0001008943
6.234003e-05
0.0001009064
0.0001022921
0.0001031896
0.0001198605
0.0001011466
0.0001197933
0.0006266179
0.000626884
0.0001145716
0.0001010976
0.0001145801
0.0006270469
0.0006294357
0.0001055326
0.0001009131
0.0001009524
0.0006533651
0.0006355374
0.0003123108
0.0003712791
0.0001088577
0.0001009317
0.0001010124
0.0006316179
0.0006292632
0.0003467342
0.0003646431
0.0001128247
0.0001009913
0.000101149
0.0006294057
0.0006277315
0.000348196
0.0003444258
0.0001160348
0.0001011048
0.0001021117
0.0006245693
0.0006192006
0.0003441593
0.0003013417
0.0001209451
0.0001027292
0.000102828
0.0006188998
0.0006193011
0.0003029202
0.000304454
0.0001285026
0.0001038775
0.0001028565
0.0006238576
0.0006297931
0.0003073805
0.0003508757
0.0001025961
0.0006345836
0.0003210116
6.502087e-05
0.0001008843
6.257408e-05
0.0001009075
0.0001395973
0.0003185717
0.0001404326
0.0003273411
0.0001022892
0.0001031939
0.0001393534
0.0003139976
0.000139395
0.0003144275
0.000139044
0.0003135647
0.0001392672
0.0003128403
0.000138994
0.0003135441
0.0001391931
0.0003127849
0.0001388877
0.0003135265
0.0001390809
0.0003127702
0.000138719
0.0003135029
0.0001389073
0.0003127477
0.0001384378
0.0003134641
0.0001386243
0.0003127108
0.0001380062
0.0003134039
0.0001381882
0.0003126524
0.0001373908
0.0003133168
0.0001375676
0.0003125647
0.0001365389
0.0003131938
0.0001367119
0.0003124408
0.0001353882
0.0003130251
0.000135559
0.0003122713
0.00013388
0.0003127997
0.0001340446
0.0003120453
0.0001319586