/*--------------------------------*- C++ -*----------------------------------*\
  =========                 |
  \\      /  F ield         | OpenFOAM: The Open Source CFD Toolbox
   \\    /   O peration     | Website:  https://openfoam.org
    \\  /    A nd           | Version:  7
     \\/     M anipulation  |
\*---------------------------------------------------------------------------*/
FoamFile
{
    version     2.0;
    format      ascii;
    class       volScalarField;
    location    "0.05";
    object      p;
}
// * * * * * * * * * * * * * * * * * * * * * * * * * * * * * * * * * * * * * //

dimensions      [0 2 -2 0 0 0 0];

internalField   nonuniform List<scalar> 
90967
(
2.094866
3.395516
4.847912
6.202991
7.577559
8.906027
2.087853
3.446921
4.864266
6.251443
7.625834
8.970594
2.125752
3.458932
4.921011
6.304575
7.706851
9.062356
2.140849
3.510612
4.976716
6.390079
7.808135
9.188746
2.178081
3.557366
5.056396
6.486602
7.937429
9.344661
2.210266
3.616177
5.138804
6.601861
8.084666
9.52824
2.249226
3.678534
5.232969
6.727777
8.251333
9.737534
2.283764
3.743904
5.329915
6.861836
8.429265
9.967614
2.314246
3.80568
5.423516
6.995555
8.611716
10.20931
2.33855
3.857833
5.505355
7.119098
8.790165
10.45473
2.355443
3.887158
5.560181
7.21316
8.94261
10.68604
2.356389
3.884348
5.574557
7.26051
9.048159
10.87886
2.32201
3.827753
5.513131
7.219619
9.062587
10.9943
2.24891
3.706292
5.356418
7.058623
8.936713
10.95612
2.101816
3.472805
5.033582
6.69521
8.589012
10.71233
1.882925
3.111716
4.527505
6.068164
7.894756
10.02714
1.530293
2.549265
3.71299
5.050987
6.714671
8.801585
1.064404
1.782781
2.61902
3.591174
4.854784
6.583231
0.5559983
1.022538
1.527687
2.142605
2.970077
4.157246
5.970415
0.03780525
0.06819644
0.108909
0.166512
0.2509881
0.388025
0.6020928
38.3884
38.39977
38.4205
38.45596
38.49726
38.55061
38.6132
1.797565
3.240468
4.629109
6.023731
7.389881
8.728611
10.03397
0.4011542
2.076236
3.401769
4.841992
6.199125
7.57394
8.90259
0.4429835
2.011624
3.435999
4.848159
6.244279
7.619389
8.965546
0.4559098
2.053919
3.447247
4.909339
6.298117
7.704509
9.060126
0.4644108
2.051726
3.49749
4.958544
6.382523
7.803874
9.185693
0.4677419
2.092877
3.54343
5.038553
6.479221
7.935046
9.34211
0.4724568
2.120493
3.601944
5.120213
6.594265
8.082091
9.525956
0.4773454
2.161591
3.661774
5.21491
6.719953
8.248893
9.735232
0.4823834
2.202899
3.724017
5.311694
6.853662
8.427377
9.965206
0.4869835
2.243652
3.782726
5.405346
6.986205
8.610039
10.20764
0.4908523
2.274204
3.833423
5.487149
7.108387
8.786645
10.4534
0.4920323
2.292735
3.863714
5.542155
7.201559
8.937379
10.68339
0.4892093
2.293707
3.863354
5.556047
7.246715
9.03936
10.87097
0.479858
2.262337
3.809703
5.495287
7.204866
9.051318
10.98244
0.4623645
2.192673
3.686664
5.337258
7.037373
8.91416
10.92684
0.4313733
2.050701
3.45143
5.012815
6.668586
8.556454
10.66664
0.3849942
1.842188
3.076909
4.488129
6.010616
7.81519
9.915142
0.3152915
1.490752
2.494589
3.62895
4.932068
6.549373
8.572943
0.2294201
1.045032
1.661502
2.424783
3.316669
4.518176
6.162952
0.1379509
0.4703504
0.7881427
1.136439
1.566254
2.150287
2.989354
4.279559
38.39152
38.39292
38.40662
38.4343
38.4673
38.51299
38.57367
1.795714
3.449857
4.778029
6.190506
7.535978
8.874945
0.4083716
2.144637
3.389152
4.847958
6.202574
7.575911
8.904788
0.8136239
1.99884
3.479397
4.84529
6.256327
7.619888
8.970247
0.7582978
2.057227
3.473946
4.911235
6.303933
7.70505
9.061683
0.7911746
2.044641
3.534026
4.958951
6.39301
7.804196
9.188902
0.7910947
2.083095
3.574697
5.0375
6.485084
7.933465
9.343359
0.8029762
2.109567
3.636009
5.118174
6.601595
8.079925
9.52764
0.8124857
2.147264
3.696143
5.211314
6.72639
8.245584
9.736222
0.8233037
2.182807
3.76017
5.306722
6.86016
8.423406
9.96587
0.8326904
2.217177
3.819378
5.399132
6.992276
8.605339
10.20763
0.8398157
2.245892
3.869268
5.479973
7.113688
8.780712
10.45133
0.8419649
2.263464
3.898167
5.534229
7.206023
8.930368
10.67975
0.8368392
2.263352
3.895381
5.546032
7.248231
9.028336
10.86079
0.8200441
2.231788
3.839628
5.484615
7.205063
9.039381
10.97265
0.7886733
2.163051
3.711127
5.319736
7.022335
8.882126
10.88313
0.7343344
2.022901
3.475048
4.995171
6.656201
8.530738
10.6456
0.6528935
1.821756
3.079048
4.43791
5.929194
7.683358
9.71518
0.5377719
1.462317
2.504225
3.570727
4.865022
6.469695
8.52881
0.3784311
1.055184
1.5825
2.245807
2.990991
4.011519
5.36448
0.1659558
0.4210444
0.6329997
0.7718869
1.11177
1.589695
2.41217
38.41789
38.4459
38.47696
38.51978
38.59285
38.38669
38.39108
38.40439
38.43446
38.47066
38.514
38.57878
1.793481
3.451858
4.808527
6.193084
7.546095
8.877914
0.4041372
2.150818
3.364322
4.850153
6.196773
7.572631
8.902907
0.6930558
1.995049
3.449911
4.841368
6.247383
7.615188
8.966079
0.6353234
2.05047
3.436044
4.905699
6.294385
7.700224
9.058147
0.6453615
2.023087
3.48732
4.945419
6.379211
7.796807
9.184301
0.6496131
2.068493
3.527015
5.025802
6.469983
7.926893
9.338409
0.6596927
2.091707
3.586108
5.104507
6.5858
8.072736
9.52272
0.6710302
2.131418
3.645243
5.19769
6.709608
8.238285
9.730755
0.6827098
2.166768
3.708595
5.292466
6.842836
8.415769
9.960021
0.693894
2.201762
3.767596
5.384402
6.97414
8.597021
10.20107
0.7033634
2.229694
3.817669
5.464323
7.094434
8.771121
10.4435
0.7092907
2.246006
3.847812
5.5182
7.185963
8.919393
10.67
0.7092993
2.243369
3.845238
5.527461
7.225999
9.013335
10.84552
0.7002451
2.209598
3.79187
5.464937
7.180617
9.019513
10.94988
0.6793611
2.138418
3.663954
5.294628
6.990367
8.848013
10.8427
0.6385563
1.995395
3.43043
4.961745
6.609099
8.474164
10.57462
0.5761404
1.796554
3.031553
4.384174
5.8455
7.573324
9.577984
0.4824784
1.432698
2.448691
3.469648
4.706029
6.247936
8.236324
0.3583822
1.045147
1.514958
2.112698
2.776107
3.712129
4.964446
0.1806433
0.4027913
0.564476
0.6095322
0.8510866
1.202548
1.853115
38.41217
38.4438
38.47047
38.51568
38.57553
38.38439
38.39086
38.40172
38.4313
38.46564
38.50909
38.56989
1.796318
3.460019
4.797282
6.196949
7.54098
8.879123
0.4067035
2.160764
3.36326
4.850582
6.198768
7.572486
8.903766
0.7213875
1.987372
3.461981
4.837404
6.252879
7.615346
8.968434
0.6499049
2.034513
3.441264
4.901701
6.295827
7.699448
9.058692
0.6758212
2.012503
3.49643
4.941038
6.382634
7.79568
9.185524
0.6723063
2.05131
3.533463
5.020048
6.471188
7.924757
9.338643
0.6848005
2.075662
3.59372
5.098297
6.587386
8.070258
9.523032
0.6938325
2.113786
3.652084
5.190715
6.710528
8.235174
9.730614
0.7054851
2.148443
3.715604
5.285132
6.843673
8.412319
9.959535
0.7156366
2.182851
3.77416
5.376632
6.974622
8.593135
10.19999
0.7242106
2.211037
3.823805
5.456234
7.094497
8.766479
10.44133
0.7289719
2.227624
3.853456
5.509824
7.185318
8.9139
10.66676
0.7278395
2.225368
3.849904
5.51765
7.223296
9.005407
10.83877
0.7174
2.192942
3.796151
5.454911
7.176515
9.009682
10.94131
0.6951283
2.123611
3.666545
5.281963
6.978796
8.828192
10.81845
0.6533336
1.983985
3.433745
4.948857
6.594305
8.449722
10.54854
0.5880208
1.788158
3.027541
4.358757
5.801983
7.506733
9.484429
0.4926685
1.42643
2.450549
3.445818
4.672937
6.201344
8.189111
0.3642956
1.045826
1.493382
2.059145
2.674318
3.553832
4.722608
0.1864558
0.4034488
0.5714084
0.5921027
0.828512
1.169764
1.817208
38.41283
38.44643
38.47303
38.51896
38.58285
38.38365
38.39066
38.40113
38.43201
38.46678
38.51019
38.57192
1.796292
3.460046
4.797082
6.196964
7.54051
8.879342
0.4056915
2.16055
3.36344
4.85031
6.198932
7.572412
8.904015
0.7213657
1.987605
3.462088
4.837288
6.252857
7.615102
8.968462
0.6499095
2.034326
3.441268
4.901521
6.295884
7.699376
9.058783
0.6758108
2.012438
3.496385
4.940845
6.382578
7.795519
9.185522
0.6722826
2.051183
3.533409
5.019883
6.471158
7.924634
9.338637
0.6848133
2.075489
3.593651
5.098089
6.587312
8.070088
9.523
0.6938092
2.113659
3.651989
5.190519
6.710441
8.23498
9.730527
0.7054886
2.148183
3.715529
5.284863
6.843585
8.412088
9.959456
0.7154875
2.182771
3.774001
5.376428
6.97453
8.59292
10.19993
0.7240923
2.210806
3.823741
5.455944
7.094432
8.766285
10.44133
0.7282929
2.227634
3.853244
5.509648
7.185266
8.913767
10.66681
0.7271453
2.225236
3.849732
5.517417
7.223296
9.005392
10.83887
0.7167526
2.192961
3.795954
5.454796
7.176564
9.009702
10.94145
0.6947136
2.12347
3.666401
5.281732
6.978779
8.828174
10.81861
0.6530198
1.984002
3.433818
4.949071
6.594744
8.449996
10.54893
0.5880592
1.787793
3.027378
4.35814
5.801531
7.506297
9.484272
0.4925846
1.426654
2.451214
3.446897
4.674612
6.202674
8.190315
0.3641365
1.045207
1.492817
2.057796
2.672509
3.552055
4.721082
0.1872483
0.4031243
0.5722845
0.5935124
0.8313588
1.172518
1.819426
38.41238
38.44614
38.47258
38.51798
38.58239
38.38345
38.39062
38.40081
38.43155
38.46607
38.50921
38.57131
1.795688
3.451319
4.807487
6.192543
7.54625
8.878693
0.4039516
2.150426
3.364092
4.849284
6.196801
7.572165
8.903676
0.6931338
1.994208
3.449649
4.840546
6.247048
7.614825
8.966464
0.635098
2.050244
3.435978
4.905261
6.29447
7.70002
9.058456
0.6452269
2.022529
3.487165
4.945097
6.379112
7.796687
9.184443
0.6495429
2.068312
3.526938
5.025653
6.470024
7.926941
9.338532
0.6596787
2.091752
3.58607
5.104547
6.585847
8.072932
9.522843
0.6710293
2.13155
3.645164
5.197796
6.709666
8.23856
9.730926
0.6827645
2.16724
3.708591
5.29283
6.842968
8.416184
9.960248
0.6939631
2.202218
3.767582
5.384704
6.974234
8.597455
10.2013
0.7036001
2.230587
3.817901
5.465011
7.094638
8.771701
10.44378
0.7096755
2.246145
3.847808
5.518583
7.186008
8.919901
10.67029
0.7097993
2.24355
3.845385
5.528066
7.226141
9.0139
10.84593
0.7006008
2.209689
3.791891
5.465465
7.180734
9.020088
10.95033
0.6796797
2.139058
3.664116
5.295447
6.99065
8.848744
10.84333
0.6389635
1.996249
3.430584
4.962357
6.609088
8.474523
10.57495
0.5764794
1.79842
3.031805
4.385431
5.845534
7.573706
9.578205
0.4826088
1.433122
2.448235
3.469147
4.704241
6.245656
8.234519
0.3585543
1.046188
1.515055
2.113523
2.775496
3.710758
4.962873
0.1840808
0.4044221
0.5631772
0.6072256
0.8456657
1.195712
1.847074
38.41235
38.44392
38.47105
38.51707
38.57555
38.3839
38.39104
38.40197
38.43177
38.46614
38.50964
38.57003
1.789964
3.44906
4.775829
6.189895
7.533069
8.877921
0.4087099
2.142642
3.389373
4.846243
6.203221
7.575819
8.906528
0.8134953
1.999171
3.479504
4.844541
6.25582
7.618826
8.970923
0.7586881
2.056596
3.474174
4.910304
6.304357
7.704839
9.062377
0.7912159
2.04345
3.533811
4.958227
6.392832
7.803716
9.189059
0.791019
2.082394
3.574579
5.037015
6.485127
7.93323
9.343509
0.8029933
2.109284
3.635926
5.117866
6.601501
8.079653
9.527687
0.8124371
2.147061
3.696029
5.211118
6.726306
8.245389
9.736266
0.8235276
2.182665
3.760233
5.306639
6.860147
8.42329
9.965964
0.8330118
2.217372
3.819387
5.399113
6.992205
8.605236
10.20772
0.8408867
2.246495
3.869795
5.48006
7.113837
8.780809
10.45157
0.8405506
2.263485
3.898154
5.534306
7.206045
8.930536
10.68009
0.8349919
2.263143
3.895492
5.546164
7.248428
9.028747
10.86139
0.8180672
2.231959
3.839502
5.484994
7.20533
9.039958
10.9734
0.7874536
2.163404
3.711132
5.320158
7.022612
8.882879
10.88412
0.7335852
2.023737
3.475577
4.996275
6.657014
8.531537
10.64669
0.6538281
1.822805
3.079393
4.438028
5.928645
7.683648
9.715836
0.5370658
1.462858
2.504989
3.572097
4.865887
6.468099
8.528023
0.377865
1.055241
1.581545
2.243777
2.98793
4.011042
5.363269
0.1777049
0.4158369
0.6356125
0.7775764
1.121707
1.596343
2.414656
38.41768
38.44645
38.47659
38.51777
38.59297
38.38588
38.39106
38.40401
38.43352
38.46842
38.51153
38.57831
1.776282
3.191898
4.571776
5.946953
7.318949
8.655361
9.961284
0.3444977
2.075997
3.401603
4.838989
6.199607
7.571034
8.906355
0.3427492
2.010435
3.436416
4.846074
6.243221
7.618119
8.966478
0.3298676
2.052437
3.446709
4.908037
6.298644
7.703851
9.061215
0.3302253
2.050164
3.496969
4.95752
6.382218
7.803271
9.18601
0.3316119
2.092366
3.543196
5.037971
6.479316
7.934864
9.342357
0.3374598
2.120358
3.601788
5.119974
6.594201
8.08207
9.526099
0.3420733
2.161767
3.661617
5.214825
6.719911
8.249017
9.735354
0.3464128
2.203676
3.724019
5.312019
6.853678
8.427744
9.965401
0.350755
2.246007
3.783067
5.405659
6.986202
8.610452
10.20786
0.3549856
2.280672
3.834118
5.488354
7.108462
8.787502
10.45377
0.3578629
2.295139
3.8637
5.542692
7.201507
8.938083
10.6838
0.3562971
2.2957
3.863247
5.55696
7.246771
9.040288
10.87162
0.3517961
2.263488
3.80945
5.496109
7.204994
9.05233
10.98327
0.3411674
2.194889
3.686626
5.338501
7.03748
8.915268
10.9278
0.3212079
2.056211
3.452279
5.01462
6.668917
8.557304
10.66757
0.2920472
1.852131
3.077528
4.489875
6.008951
7.81343
9.913233
0.246057
1.494155
2.49405
3.628888
4.928477
6.542969
8.569082
0.1979766
1.046214
1.659045
2.420593
3.298623
4.484534
6.132178
0.1411123
0.4602552
0.736972
1.017107
1.364576
1.85173
2.59013
3.816638
38.39113
38.39343
38.40671
38.43656
38.46776
38.51465
38.57382
1.559247
2.947049
4.329333
5.701053
6.946813
8.415508
9.730935
0.1645849
2.089785
3.396687
4.844692
6.204063
7.579139
8.91039
0.4121466
2.088982
3.44793
4.862118
6.248421
7.623677
8.972058
0.1855849
2.123827
3.45882
4.919465
6.30547
7.707002
9.063558
0.1849778
2.138839
3.510266
4.975509
6.389548
7.807315
9.189047
0.1868254
2.176699
3.557363
5.055535
6.486808
7.937251
9.344953
0.1882587
2.20975
3.616091
5.138393
6.601759
8.084464
9.528363
0.1901752
2.248539
3.678438
5.232629
6.727721
8.251296
9.737651
0.1916828
2.283099
3.743847
5.32992
6.861792
8.429418
9.967789
0.1939003
2.312062
3.805915
5.423069
6.995462
8.611802
10.2095
0.1981521
2.336374
3.858587
5.505538
7.119107
8.79055
10.45509
0.1965226
2.351801
3.887657
5.559772
7.213089
8.942938
10.68645
0.1846741
2.35148
3.885812
5.574432
7.260764
9.048855
10.87962
0.1891518
2.318768
3.828051
5.51317
7.219754
9.063191
10.99505
0.1821484
2.248377
3.70606
5.357204
7.059077
8.938306
10.95766
0.1703645
2.100694
3.473194
5.034451
6.695196
8.588358
10.71201
0.1509841
1.888127
3.111159
4.529227
6.068814
7.899643
10.03067
0.132415
1.529889
2.548341
3.712513
5.041684
6.689851
8.781787
0.2179925
1.068508
1.783797
2.612088
3.576034
4.862778
6.58779
0.06715083
0.4952272
0.846419
1.216268
1.636893
2.178315
2.992044
4.537797
38.39052
38.39103
38.40072
38.42036
38.46
38.49105
38.56823
38.63696
0.9565405
1.142899
0.1533477
0.9085467
1.765349
2.326
1.560379
2.49589
1.730411
2.294281
3.182118
3.657691
2.949533
3.869985
3.167827
3.664642
4.581693
5.036339
4.334205
5.254242
4.573852
5.048001
5.966587
6.4042
5.714507
6.621196
5.958657
6.414038
7.332165
7.756012
7.077699
7.970054
7.323554
7.765565
8.671108
9.077768
8.41695
9.288582
8.659028
9.085393
9.979356
9.726227
9.966342
0.9130428
1.030632
0.1612787
0.8147429
0.1731161
0.8723397
1.024307
1.050935
0.1772434
0.8519982
0.1826124
0.8741411
1.059785
1.064091
0.1842022
0.8695684
0.1842694
0.8715721
1.072264
1.076781
0.1856402
0.8785881
0.1851768
0.8835957
1.088465
1.09199
0.1869791
0.8915606
0.1857004
0.8925981
1.099985
1.110741
0.1882972
0.9041282
0.1862813
0.9055083
1.110037
1.127926
0.1901901
0.920776
0.1882674
0.9214066
1.128866
1.14727
0.1915892
0.9412846
0.1904921
0.9397351
1.149086
1.165499
0.1928711
0.9644219
0.1925504
0.9576875
1.165843
1.179401
0.193913
0.9864185
0.1937719
0.9725496
1.174438
1.185497
0.1943132
0.9986658
0.1928737
0.9811524
1.173151
1.181202
0.1925164
1.003208
0.1892908
0.9884997
1.155177
1.163894
0.1886592
0.9955847
0.183658
0.9837496
1.113945
1.122827
0.1813706
0.9698951
0.1751881
0.9598585
1.042627
1.047386
0.1698635
0.9184052
0.161499
0.9067586
0.9324081
0.9303445
0.1532184
0.8326666
0.1429654
0.8200388
0.7707516
0.7484134
0.1283108
0.7030234
0.1158951
0.6789487
0.5595226
0.4797364
0.09465102
0.5187918
0.08014206
0.46545
0.3063195
0.09960263
0.05739021
0.2926645
0.06790072
0.02974242
38.39627
38.39066
38.39508
0.05899576
38.39482
38.40723
38.39032
38.40324
0.09530743
38.40769
38.42698
38.40215
38.42445
0.1454824
38.42949
38.4603
38.42514
38.45964
0.2168734
38.46378
38.501
38.45687
38.49882
0.3262346
38.50637
38.55134
38.49974
38.54532
0.5021308
38.56042
38.61678
38.5513
38.60601
38.63151
38.61738
38.39225
38.39027
38.39235
1.12743
0.155559
0.9865144
1.236908
0.1557256
0.9786963
38.38979
38.39769
38.38905
38.3951
1.22813
0.162032
0.9821592
1.267785
0.1636888
0.9794186
38.3876
38.39508
38.38596
38.39027
1.275505
0.163298
0.9787833
1.283483
0.1632781
0.9818505
38.38512
38.39118
38.38428
38.38893
1.282248
0.1637323
0.983178
1.282191
0.1632874
0.9831015
38.3842
38.39164
38.38363
38.3873
1.282366
0.1634044
0.9830967
1.281768
0.1635646
0.9831296
38.38363
38.38728
38.38433
38.39183
1.283154
0.1629129
0.9818535
1.275445
0.1628785
0.9786107
38.38444
38.38891
38.38516
38.39131
1.267795
0.1633426
0.9793577
1.22741
0.1621298
0.9813693
38.38602
38.39024
38.38756
38.39506
1.235574
0.1559252
0.9782112
1.126622
0.1546579
0.9850843
38.38891
38.39478
38.38968
38.39711
1.142216
0.1535165
0.9091279
0.9568744
2.493617
1.729625
2.292652
1.764709
2.324364
3.866115
3.165492
3.66209
3.18025
3.655608
5.24343
4.569878
5.041074
4.578496
5.031624
6.60084
5.95132
6.389142
5.963588
6.387451
7.858125
7.3449
7.73628
7.318434
7.780776
9.292762
8.671882
9.086848
8.680889
9.084924
9.97129
9.983435
0.8148709
0.1645614
0.8736501
0.9100986
1.046964
0.8510624
0.2009261
0.8589885
1.02399
1.068167
0.8620908
0.1831756
0.8718966
1.056764
1.066953
0.8773056
0.1849357
0.8835466
1.071679
1.076667
0.8910178
0.1856423
0.8927109
1.088128
1.092122
0.9040361
0.1862717
0.9054373
1.099985
1.110696
0.9205975
0.1883017
0.9213987
1.109852
1.127704
0.9410978
0.1910783
0.9411021
1.128108
1.146947
0.9670435
0.210999
0.9659918
1.148014
1.165461
1.002587
0.2080083
0.9871404
1.178419
1.184198
1.007786
0.1932166
0.9976975
1.185273
1.202142
1.003033
0.1787276
0.9954575
1.153249
1.176112
0.9741644
0.1773426
0.9663736
1.112018
1.124449
0.8486656
0.1383583
0.8417764
0.9397556
0.9337624
0.7152585
0.1108089
0.6870938
0.7718255
0.7586044
0.5121308
0.2000655
0.4582703
0.5705949
0.4897199
0.2979676
0.06734206
0.3106015
0.09862372
38.39056
38.3938
0.02978299
38.39461
38.38961
38.40622
0.03850003
0.09338907
38.39213
38.41117
38.40125
38.42459
0.09537257
0.1586275
38.40862
38.42706
38.42604
38.45383
0.1556499
0.1899984
38.42832
38.46178
38.45348
38.4965
0.2423228
38.45641
38.50142
38.49914
38.54644
38.50813
38.55048
38.55238
38.60624
0.5544173
38.55831
38.60614
38.61878
0.6382505
38.61561
38.3929
38.39451
0.3544172
0.439161
0.272029
0.5300289
0.3183633
0.4969894
0.2352164
0.6008012
0.316788
0.5314844
0.2346728
0.622092
0.3264362
0.5387703
0.238412
0.6281375
0.3311834
0.5429057
0.2432617
0.6349302
0.3373297
0.5490245
0.2483003
0.6395174
0.34427
0.5521814
0.2526029
0.6427478
0.351163
0.553042
0.2591919
0.6498639
0.3587218
0.5588702
0.2686421
0.6581667
0.3686178
0.5630711
0.2778631
0.6601069
0.3745556
0.568452
0.2856388
0.6571402
0.3784829
0.5692416
0.29039
0.6474562
0.379541
0.5644495
0.2919933
0.6281429
0.374789
0.5563477
0.2900419
0.595368
0.3629056
0.5391233
0.2802799
0.5439935
0.3407677
0.5069234
0.2623102
0.4774494
0.3061502
0.4569373
0.2315194
0.3836746
0.2572391
0.3807855
0.188017
0.2673919
0.1937426
0.2720565
0.1178315
0.1482697
0.1196619
0.1344414
0.6936784
0.1447819
0.2009546
0.4987971
0.5974024
0.09984499
0.1170486
1.128072
0.2510522
0.3127674
0.8508056
0.9454556
0.1571274
0.1858473
1.650106
0.3711732
0.4477028
1.218564
1.351293
0.225557
0.2669668
2.323803
0.5200798
0.6251945
1.663297
1.873232
0.3110734
0.3751497
3.252373
0.7210346
0.8789261
2.266597
2.595645
0.4276069
0.5327695
4.636301
1.011475
1.285883
3.149714
3.705876
0.6036185
0.7827457
1.494554
4.568005
0.9028317
38.39564
0.0137576
0.004619454
38.39536
38.41899
0.0458506
38.38748
0.0190189
0.02020183
38.38024
38.4076
38.44267
0.08239776
38.39384
0.03276058
0.03561719
38.38169
38.4265
38.47321
0.1308646
38.41127
0.04765452
0.05138414
38.39608
38.45455
38.51198
0.1990665
38.44286
0.06523248
0.06941682
38.42706
38.49288
38.55731
0.2987259
38.48459
0.08911885
0.09496263
38.4693
38.53912
38.61368
0.4586209
38.53864
0.1260838
0.1316527
38.52427
38.59716
38.61084
0.1821624
38.59812
38.38485
38.39157
38.39138
38.38467
0.4077801
0.4204182
0.272852
0.07045222
0.1400869
0.2629655
0.07104544
38.39278
0.004847828
38.39249
0.004637974
0.3988441
0.3972271
0.2251595
0.07133518
0.177531
0.2084407
0.06846612
38.38979
0.003985886
38.38963
0.003794628
0.4006141
0.4054983
0.1920172
0.06661387
0.1839866
0.1865839
0.06488748
38.38729
0.003542609
38.38691
0.003499045
0.4018756
0.4060611
0.1834309
0.06442135
0.1872589
0.1812776
0.06408841
38.38652
0.003551377
38.38636
0.003536598
0.401501
0.4063898
0.1812445
0.06408475
0.1864804
0.1833597
0.06440743
38.38515
0.003549131
38.38554
0.003537149
0.4030693
0.4066778
0.1865487
0.06486626
0.1808151
0.1919314
0.06659439
38.38565
0.003514783
38.38632
0.003513402
0.4001725
0.4043217
0.2082291
0.06845561
0.166108
0.2248755
0.07129663
38.38776
0.003594399
38.38797
0.003696633
0.3955515
0.4012612
0.262023
0.07091155
0.1379534
0.2713681
0.07038583
38.39081
0.004132289
38.39108
0.004250819
0.3948864
0.4063029
1.018204
0.1822927
1.004117
1.187683
1.197439
0.9304762
0.1678438
0.9267918
1.054188
1.051677
0.5934157
0.0985836
0.1057573
0.5520089
0.6847037
0.1468628
0.1548727
0.9402589
0.1455294
0.1701567
1.024805
1.121226
0.2221364
0.2547976
1.336438
0.2140574
0.2661678
1.533985
1.646202
0.3383328
0.3954925
1.758216
0.3439216
0.7907226
2.089476
2.207801
0.39534
0.4485914
2.450187
0.9460514
1.057357
2.777905
3.058239
0.4946374
0.6255198
3.650301
1.443187
0.8134208
3.931448
4.562873
0.6995541
1.201988
0.8994003
5.965481
1.508463
38.39392
0.005180964
38.39273
0.005058551
0.3036577
0.5128337
0.3299619
0.4493919
0.395622
0.4068829
0.242501
0.585453
0.3247278
0.5101081
0.2329556
0.6159681
0.3238981
0.5338026
0.2354066
0.6260744
0.3288968
0.5390143
0.2401695
0.6314948
0.3336559
0.5437528
0.2454162
0.638111
0.3400244
0.5491529
0.2512446
0.6449791
0.3474038
0.5536515
0.2572175
0.6525754
0.3553415
0.5580869
0.2642134
0.6598725
0.3636665
0.5642387
0.2719536
0.6651316
0.3718601
0.5689175
0.2789891
0.6669887
0.3785334
0.5708499
0.2853258
0.6627001
0.3827308
0.5688978
0.2903265
0.6509517
0.3828689
0.5615377
0.2900053
0.6256642
0.3755687
0.5485294
0.2877208
0.5855985
0.3564681
0.5247252
0.2763079
0.5284045
0.3277136
0.4815949
0.252377
0.448447
0.2869415
0.4191066
0.2151869
0.3422823
0.2303438
0.331652
0.1627113
0.2129074
0.1573078
0.2204982
0.06978264
0.04331254
0.0381139
0.08157217
38.39283
0.02344485
38.40142
0.01375048
0.008661181
38.41106
38.38901
38.39303
38.39118
38.39163
38.39319
38.39375
0.0054217
0.005263383
38.39294
38.3821
0.05148507
38.41677
0.02700596
0.02486014
38.43125
38.39047
38.39449
0.08755499
38.43879
0.04061083
0.0386164
38.4553
38.40366
38.42294
0.1389044
38.4729
0.05561891
0.05417743
38.49017
38.43007
38.46075
0.2136925
38.51444
0.07459207
0.0740179
38.53143
38.46706
38.51043
0.3255159
38.56578
0.1007843
0.1026961
38.58047
38.51518
38.57603
0.5031954
38.63331
0.1388811
0.1534711
38.64608
38.57805
0.3954632
0.4014724
38.39099
0.004140536
0.004267948
38.39128
0.3998383
0.404129
38.38776
0.003593718
0.003698386
38.38788
0.4033617
0.4063469
38.38566
0.003512712
0.003511574
38.38633
0.4021384
0.4066965
38.38502
0.003549593
0.003537523
38.38563
0.4024806
0.4065182
38.38641
0.003551186
0.003536446
38.38627
0.4012535
0.4053855
38.38738
0.003544394
0.00350146
38.38695
0.3980525
0.3979069
38.3898
0.003980674
0.003790802
38.38957
0.4070273
0.420523
38.3924
0.00479674
0.004554399
38.39235
0.353344
0.4403902
0.7951503
1.107948
1.084468
0.829566
0.3016363
0.511557
0.3273896
0.449155
1.888558
1.558053
1.519157
1.885605
2.269457
2.471362
2.47465
2.279898
3.282571
2.951278
2.926328
3.265362
3.657515
3.843334
3.845111
3.660919
4.673344
4.336118
4.308374
4.653875
5.041055
5.226428
5.22513
5.043653
6.048412
5.712479
5.678387
6.033539
6.407787
6.588466
6.580702
6.413585
7.421694
7.079673
7.044232
7.387574
7.756512
7.969222
7.654024
7.970114
7.773965
8.770488
8.442474
8.420697
8.739679
9.110338
9.276394
9.274669
9.109196
9.743742
9.712799
0.2681821
0.5269067
0.3187012
0.4825341
0.2529837
0.106925
0.5373982
0.3351903
0.4921854
0.2871087
0.1096169
0.5318981
0.368996
0.10178
0.4588417
0.239042
0.5914528
0.1032825
0.3165071
0.4755801
0.2341603
0.6017213
0.3219596
0.5299181
0.2363007
0.6240093
0.3269903
0.5400871
0.2377012
0.6272803
0.3306219
0.5425041
0.2402067
0.6310114
0.3331081
0.5438423
0.2431906
0.6345525
0.3370258
0.5488428
0.2454639
0.6379224
0.3398995
0.5490901
0.2483151
0.6394009
0.3441807
0.5521299
0.251286
0.6448455
0.3473684
0.553582
0.2525578
0.6425758
0.3511014
0.552886
0.2572457
0.6523343
0.3552147
0.5580018
0.2587873
0.6495618
0.3586038
0.5584075
0.2639647
0.6586734
0.362859
0.5639555
0.2643687
0.6558041
0.3667218
0.5592199
0.2681132
0.6488576
0.3585078
0.5640974
0.3236131
0.6431489
0.3473327
0.1508666
0.5665315
0.2814451
0.6387653
0.367517
0.1112289
0.5332621
0.2990962
0.6362932
0.1142157
0.383511
0.5334648
0.2387977
0.3745678
0.261957
0.3712904
0.225795
0.09163366
0.323612
0.0884183
0.256857
0.3164915
0.06766187
0.04143854
0.03708164
0.0790254
38.39582
0.01363061
0.004336113
38.39564
38.39357
0.01351063
0.02351504
38.40066
0.00857872
38.41098
38.38974
38.39338
38.39219
38.39127
38.39167
38.3935
0.0185069
0.05469615
38.391
0.01031192
38.38624
38.39942
38.39497
0.08086671
38.41829
38.43447
38.3894
38.44328
0.01570717
0.094243
38.3946
0.03491948
38.38275
38.42745
38.3951
0.1170711
38.43916
0.03822902
38.45545
38.40449
38.47089
0.02329211
0.1290951
38.4118
0.04606244
38.39667
38.45394
38.4192
0.02662081
0.1375326
38.47408
0.05063055
38.48351
38.42856
38.45065
38.45791
38.47883
38.5104
38.52481
38.4796
38.55709
38.4841
38.47023
38.53811
38.51209
38.56651
38.58109
38.51613
38.61416
38.53945
38.52406
38.59715
38.57836
0.1474172
0.1819947
38.63539
38.63276
38.57755
0.1916218
38.61625
38.6266
38.38499
38.39235
38.39213
38.38456
0.1116097
0.211449
1.889882
1.559444
1.520465
1.8871
3.285392
2.953292
2.928618
3.267902
4.678777
4.339879
4.312579
4.658323
6.056843
5.71962
5.692372
6.035125
7.417244
7.085496
7.056293
7.394873
8.750233
8.426548
8.396682
8.727187
9.737483
9.706329
0.01091879
0.2540518
0.069163
0.1996315
0.00988056
0.2903879
0.08646131
0.2176208
0.01330436
0.2972936
0.09320429
0.2203417
0.01496006
0.2985105
0.09461373
0.2214932
0.01618104
0.3003363
0.09554978
0.2233242
0.01797695
0.3010668
0.09638882
0.2246159
0.02024988
0.3014463
0.0973344
0.2258857
0.02321538
0.3020714
0.09835323
0.227877
0.02671322
0.301878
0.09924457
0.2299317
0.03038635
0.3002727
0.1004744
0.2302837
0.03287934
0.2966239
0.1017204
0.2277111
0.03870553
0.2865432
0.09808474
0.225707
0.04270971
0.273463
0.09494658
0.2185016
0.04608906
0.2541644
0.09017484
0.2068431
0.04839493
0.2273273
0.08308369
0.1892086
0.04855748
0.1938966
0.07502568
0.1644378
0.04658691
0.1502337
0.06277343
0.1326632
0.04068575
0.1004384
0.04772265
0.09892551
0.02749964
0.05280599
0.02872177
0.05413875
0.004050256
0.002040389
0.03726903
0.03124136
0.03235644
0.06449035
0.05705676
0.05334114
0.09839838
0.08632784
0.0703206
0.1437034
0.1223607
0.08522534
0.2087853
0.1731822
0.1010524
0.318694
0.2466282
0.123568
0.4964943
0.370433
0.1967482
38.3882
38.39499
38.39065
38.3901
38.39628
38.38967
38.39823
38.41329
38.39938
38.41302
38.44825
38.41598
38.46139
38.48551
38.46595
38.49359
38.53349
38.50322
38.54369
38.59448
38.5607
38.60388
38.62572
0.125953
0.1242026
0.001920654
0.001951734
38.39588
38.39105
38.39479
0.1094537
0.1102592
0.001791283
0.001785697
38.38988
38.3858
38.38903
0.1103499
0.1112829
0.001747438
0.001732932
38.38756
38.38383
38.38697
0.1091699
0.1117918
0.001773063
0.001760553
38.38683
38.3834
38.38669
0.1096983
0.1111919
0.001774996
0.001761755
38.38675
38.38366
38.38694
0.1107519
0.1111768
0.001751871
0.001739633
38.38711
38.38449
38.3877
0.1100579
0.110043
0.001735085
0.001735217
38.38913
38.38685
38.39009
0.1082752
0.1092185
0.001727531
0.001729494
38.39494
38.39155
38.39629
0.1093326
0.114292
0.001983936
0.001950769
38.40134
38.39144
38.39865
38.41489
38.40055
38.41512
38.45194
38.42109
38.44315
38.48116
38.45319
38.48116
38.55389
38.49029
38.5417
38.60655
38.55774
38.59843
0.796078
1.108488
1.085309
0.8297229
0.01242451
0.2491316
0.07428835
0.1881739
0.1102967
0.1139958
2.271232
2.473867
2.477279
2.281569
3.660587
3.846064
3.848275
3.663685
5.047264
5.232822
5.2349
5.048853
6.418857
6.601501
6.600009
6.420229
7.772954
7.950665
7.948543
7.774245
9.098072
9.268841
9.266127
9.099171
0.006346746
0.2881801
0.08426188
0.2156577
0.01220693
0.29647
0.09249753
0.2196273
0.01433502
0.2982013
0.09412194
0.2211382
0.01529982
0.2995356
0.09478006
0.2224999
0.01628784
0.3012491
0.09564065
0.2241545
0.01724104
0.3030083
0.09665456
0.225618
0.01846658
0.3045123
0.09767031
0.2270706
0.02003239
0.3049965
0.09833941
0.2281094
0.02137311
0.3045688
0.09916054
0.2279886
0.02324451
0.3019764
0.09950952
0.2265794
0.02476162
0.2957243
0.09809034
0.2229687
0.02571116
0.2858972
0.09585771
0.2158446
0.02534094
0.2696888
0.09149893
0.2032616
0.02604713
0.2437235
0.08445695
0.1879974
0.02629094
0.2085133
0.07653268
0.1680653
0.02498905
0.1680012
0.0661544
0.1401653
0.02492962
0.1225927
0.05285192
0.1070255
0.02505061
0.07073363
0.03351326
0.0670885
0.0119385
0.005786605
0.002380078
0.01801188
0.1602081
0.2109531
0.08336245
0.07648572
0.1830233
0.07319823
0.1750245
0.06811096
0.02529913
0.03834031
0.0236374
0.03963623
0.06617971
0.03193123
0.02477868
0.02568112
38.39182
38.38866
38.39001
38.39439
38.39117
38.39611
38.39216
38.39635
38.39575
38.39272
38.39105
0.00202017
0.001974683
38.39312
38.39078
38.39137
38.39092
38.39282
0.06491685
0.05178495
0.0539277
38.39796
38.39131
38.40105
38.39648
38.39169
38.40091
38.39932
38.39604
38.40754
38.40155
38.40577
38.40489
38.40156
38.39527
0.1041701
0.08164466
0.08140765
38.41272
38.40116
38.4174
38.40864
38.40119
38.41784
38.41524
38.41125
38.42688
38.42007
38.42744
38.42559
38.4199
38.40955
0.1551824
0.1160503
0.1062357
38.43732
38.41952
38.44324
38.43196
38.42105
38.44434
38.44066
38.43938
38.46066
38.44923
38.46046
38.45793
38.44946
38.43709
0.2261072
0.1593826
0.1365802
38.47423
38.45019
38.48142
38.46647
38.45238
38.4826
38.47894
38.47629
38.50195
38.48758
38.50115
38.4985
38.48788
38.47271
0.3342812
0.2202087
0.1813139
38.52013
38.49067
38.52762
38.50962
38.49238
38.52978
38.5253
38.52242