/*--------------------------------*- C++ -*----------------------------------*\
  =========                 |
  \\      /  F ield         | OpenFOAM: The Open Source CFD Toolbox
   \\    /   O peration     | Website:  https://openfoam.org
    \\  /    A nd           | Version:  7
     \\/     M anipulation  |
\*---------------------------------------------------------------------------*/
FoamFile
{
    version     2.0;
    format      ascii;
    class       surfaceScalarField;
    location    "0.05";
    object      phi;
}
// * * * * * * * * * * * * * * * * * * * * * * * * * * * * * * * * * * * * * //

dimensions      [0 3 -1 0 0 0 0];

internalField   nonuniform List<scalar> 
270789
(
-0.05927018
0.0001334854
-0.002817018
0.001374186
-0.002378877
0.0007246129
-0.0006055388
0.01420263
0.01463205
0.01708016
0.01692449
-0.05865782
5.737643e-05
-0.0004581512
0.002207258
-0.002333345
0.0005772111
-0.0006627042
-0.05851912
-0.0002650389
-0.0001737964
0.002399486
-0.002248347
0.0007209756
-0.0005719852
-0.05837251
-0.0003104479
-5.482058e-05
0.002371591
-0.002254517
0.0006915114
-0.0005899211
-0.05817328
-0.000529
-4.314001e-05
0.002408007
-0.002214024
0.0007310901
-0.0005521613
-0.0007962784
-5.481954e-05
0.002420655
-0.002172283
0.0007570798
-0.0005184382
-0.0578092
-0.05906354
-0.0001470262
-0.003902963
0.01469224
0.01466943
0.0169775
0.01690783
-0.05777962
-2.030787e-05
-0.001206235
-0.05765325
-0.00021117
-0.0001802302
-0.05752755
-0.0003178717
-0.0001182781
-0.05739499
-0.0006487593
-1.280012e-05
-0.001037801
-2.933748e-05
-0.05712413
-0.05881609
2.516075e-05
-0.004534866
0.01468994
0.01467744
0.01691906
0.01689232
-0.05758939
8.231704e-05
-0.001329325
-0.05741013
-7.035692e-05
-0.0003200708
-0.05737005
-0.0002391283
-0.0001188166
-0.05735872
-0.0006284675
-3.162934e-05
-0.001149072
-1.473267e-05
-0.05723271
-0.05870827
0.0002007954
-0.004563269
0.01466318
0.01466731
0.01688683
0.01687859
-0.05745156
0.0002862638
-0.001460661
-0.05736318
0.00018302
-0.0003417545
-0.05743291
-1.537755e-05
-0.0001540213
-0.05758377
-0.0004445875
-3.301266e-05
-0.001070285
-1.497512e-05
-0.05764758
-0.05860488
0.0004274398
-0.004634222
0.01463792
0.0146528
0.01686154
0.0168602
-0.0574506
0.0006018593
-0.001469882
-0.05747707
0.0005766358
-0.0003671426
-0.05773336
0.0003973469
-0.0001564378
-0.05809777
-4.228768e-05
-3.78845e-05
-0.0007454045
-1.058e-05
-0.05841207
-0.05847403
0.0007488228
-0.004642704
0.01457478
0.01460752
0.01680583
0.01680722
-0.05744194
0.001052784
-0.001483005
-0.05765037
0.001160837
-0.0003757719
-0.05813367
0.00104689
-0.0001662442
-0.05877206
0.0006368135
-4.070858e-05
-0.0001076329
-1.215966e-05
-0.05939767
-0.05820033
0.00118575
-0.004640088
0.01445858
0.01452457
0.01671086
0.01670947
-0.05734563
0.001674225
-0.001476139
-0.05777759
0.00197233
-0.0003795352
-0.05855248
0.001989296
-0.0001675083
-0.05953145
0.001657587
-4.180807e-05
0.0009138743
-1.065515e-05
-0.0605423
-0.0577219
0.001744098
-0.004607464
0.01428575
0.01438394
0.01655807
0.01654326
-0.05708082
0.002499018
-0.001465867
-0.05778552
0.00305672
-0.000379695
-0.05890952
0.003280554
-0.0001672546
-0.06030752
0.003098198
-4.260757e-05
0.002408947
-1.053089e-05
-0.06179206
-0.05694926
0.002439173
-0.004549061
0.01403052
0.0141662
0.01632001
0.0162865
-0.056568
0.003564818
-0.001447063
-0.05759823
0.004464627
-0.000377674
-0.05913816
0.004983277
-0.0001627865
-0.06103814
0.005038125
-3.994837e-05
0.004483389
-9.886789e-06
-0.06310269
-0.05579164
0.003284389
-0.004454524
0.01367312
0.01385144
0.01595982
0.01591656
-0.05571128
0.004904771
-0.00142031
-0.05712377
0.00624956
-0.000372443
-0.05915713
0.007173062
-0.0001564237
-0.06165609
0.007570204
-3.311316e-05
0.00725684
-4.149926e-06
-0.06442539
-0.05413437
0.004288181
-0.004312531
0.01318608
0.01341529
0.01544531
0.01539642
-0.05439671
0.006549606
-0.001382494
-0.05624678
0.008463938
-0.0003642997
-0.05885674
0.009932415
-0.0001493948
-0.06207593
0.01081468
-2.52764e-05
0.0108783
5.794158e-06
-0.06570318
-0.05186821
0.005462974
-0.004108232
0.01255096
0.01283161
0.01472974
0.01468935
-0.05249733
0.008507572
-0.001328852
-0.05483372
0.01114839
-0.0003480572
-0.05810033
0.01333405
-0.0001350296
-0.06217149
0.0148945
-8.651454e-06
0.01552394
3.072955e-05
-0.06684787
-0.04883174
0.0068103
-0.00384623
0.01172459
0.01205626
0.01379167
0.01375812
-0.04984359
0.01077825
-0.001258824
-0.05269984
0.01433865
-0.0003340097
-0.05669524
0.01745957
-0.0001301089
-0.06176506
0.01997191
-7.597277e-06
0.02147632
3.540017e-05
-0.06775284
-0.04491216
0.008302695
-0.003512008
0.01068368
0.01106
0.01260872
0.01257938
-0.04629774
0.01331168
-0.001147855
-0.0496612
0.01800134
-0.0002992269
-0.05440769
0.02230654
-0.000100488
-0.06056896
0.02610483
2.833864e-05
0.02889666
9.723062e-05
-0.06808652
-0.03989471
0.009917696
-0.003085146
0.009372804
0.009786973
0.01111361
0.01109146
-0.04161604
0.01607083
-0.001037807
-0.04542329
0.02210858
-0.000299988
-0.0508945
0.02794211
-0.0001643612
-0.05825057
0.03353482
-7.392171e-05
0.03834332
-3.435523e-05
-0.06766289
-0.03381088
0.01157739
-0.002582884
0.007812574
0.008260704
0.009332499
0.009328287
-0.03577742
0.01890323
-0.0008658567
-0.03982055
0.02646629
-0.0003145893
-0.04577716
0.03412494
-0.0002262149
-0.0541081
0.0420247
-0.0001589406
0.04964546
-5.491495e-05
-0.06535532
-0.02622177
0.01312407
-0.001900513
0.005905236
0.006352962
0.007142953
0.007174456
-0.0282974
0.02202537
-0.001046514
-0.03233475
0.03140809
-0.0009044487
-0.03837551
0.04137027
-0.00120457
-0.04729439
0.05243094
-0.001487358
0.06449522
-0.001793423
-0.06035074
-0.01735531
0.003504014
-0.001812789
0.00375282
0.003894682
0.004728625
0.004760762
0.003166854
0.004212307
0.004272106
-0.01927804
0.006306238
-0.002153974
0.005569467
0.007092864
0.007133508
-0.02253795
0.009045541
-0.003154546
0.008157936
0.01026795
0.01035111
-0.02773707
0.0120454
-0.004154437
0.01097441
0.01378496
0.01391906
-0.03582498
0.01558752
-0.005365178
0.0142368
0.01793027
0.01812942
0.01983145
-0.006668457
0.01808003
0.02288114
0.0232192
-0.04867312
0.002407699
-0.002305969
-0.0003356662
0.0008734579
0.001038576
0.001043716
0.0007822009
0.003000343
-0.002669677
-0.0005324517
0.001815745
0.001502058
0.001792025
0.001398196
0.003414702
-0.003124468
-0.0007448639
0.002641761
0.002183655
0.002618678
0.002056076
0.004058596
-0.003848509
-0.0009928611
0.003561418
0.00294314
0.003542543
0.002781078
0.005141375
-0.005038757
-0.001295165
0.004652073
0.003852217
0.004641077
0.003634702
0.006900064
-0.007018474
-0.001655342
0.005983253
0.004969147
0.005989815
0.004662988
0.009833134
-0.002132253
0.0064069
0.007716142
-0.02506992
-0.01039597
0.007684838
0.005957131
1.611182e-05
-0.0001770536
-1.113882e-05
-2.338837e-05
2.269808e-05
-0.0003212806
-1.646583e-05
-4.341069e-05
3.318605e-05
-0.0004808216
-2.456092e-05
-6.728212e-05
4.787177e-05
-0.0006630614
-3.621281e-05
-9.622884e-05
7.133887e-05
-0.000882799
-5.50386e-05
-0.0001325776
0.0001114364
-0.001157884
-8.874373e-05
-0.0001790163
0.0001869836
-0.00152266
-0.0001565068
-0.00023623
3.127909e-05
-0.0003814951
0.0005750222
-1.92799e-05
6.918794e-05
5.105864e-05
6.781061e-05
-0.0003935831
5.031592e-06
-0.0007933744
0.0009891854
-6.580113e-06
7.24434e-05
3.294204e-05
5.414094e-05
-0.0003537885
-1.611444e-05
-0.001243727
0.001448599
2.105348e-05
7.290786e-05
1.990948e-05
4.079088e-05
-0.0003434197
-2.888728e-05
-0.001724701
0.001967493
3.62059e-06
8.741479e-05
1.838806e-05
3.93365e-05
-0.0003626639
-3.931252e-05
-0.002225256
0.002467884
3.6841e-05
0.0001019175
2.124179e-05
4.08592e-05
-0.0004041747
-4.114987e-05
-0.002764392
0.00306991
3.331679e-05
0.000127004
3.587282e-05
5.284248e-05
-0.0005134039
-3.75925e-05
-0.003409045
6.458853e-05
6.099488e-05
0.003775469
0.0001593643
7.114679e-05
-0.0006849262
0.0002780486
0.002979163
-0.0134892
-0.0003112649
3.682566e-05
-0.0004310918
0.0001512047
-2.011368e-05
0.003832344
0.003146915
0.003827163
0.0005403895
0.01352116
-0.01321049
-0.000248855
-0.0003015004
-0.000411313
0.0001614565
-5.084167e-05
0.0005325633
0.0134981
-0.0131324
-0.0002599212
-0.0002945498
-0.0004240322
0.0001477438
-6.749541e-05
0.0005388803
0.01333573
-0.01295604
-0.0002629352
-0.0003411436
-0.000415899
0.0001618644
-6.045685e-05
0.0005406608
0.01316806
-0.01281008
-0.0002734979
-0.0003299477
-0.0004089073
0.0001694041
-5.568523e-05
0.0005383866
0.01302349
-0.01265973
-0.0002836645
-0.0003347424
-0.0004036886
0.0001739084
-5.395709e-05
0.0005339082
0.0128586
-0.0003052258
-0.0003311954
0.0001761408
-0.01248036
-0.0003982439
-5.3627e-05
0.0004419022
0.0005186888
-0.01610405
-0.0003863046
-0.0003807153
-5.634351e-05
0.0007562448
-5.365755e-05
3.405566e-05
0.0008434112
1.878239e-05
-0.06591542
-0.0002441899
-0.001509866
0.0002839294
-0.0003034459
4.435146e-06
-0.0006136383
0.01638923
0.0166393
0.01617655
0.0162761
-0.06607275
-0.000289407
-9.303994e-05
0.0003670074
-0.0003151903
0.000285343
-0.0002555366
-0.06603926
-0.0004500865
-0.0002256
0.000478618
-0.0002458664
0.0003832058
-0.0001475549
-0.06590295
-0.0004362453
-9.105962e-05
0.0004064986
-0.0002699806
0.0003410967
-0.0001414446
-0.06566643
-0.0006542968
-4.312846e-05
0.0004399075
-0.0002331703
0.0003336811
-0.0001226442
-0.0009488349
-4.371984e-05
0.0004606235
-0.0002033605
0.0003534014
-8.84957e-05
-0.06525087
0.0008864776
0.0001903564
-0.01585706
-8.441342e-05
-0.001099142
-5.009642e-05
0.0008957533
-4.712825e-05
-0.06743625
-1.580143e-05
-0.00180096
0.01641471
0.01640604
0.0161729
0.0161122
-0.06728639
-2.708177e-05
-0.001618426
-0.0671753
-0.0002847007
-0.000456704
-0.06699317
-0.0004012978
-0.000335356
-0.06679097
-0.0007759462
-9.334418e-05
-0.001217056
-8.75842e-05
-0.0664645
0.0009028958
-4.613752e-06
-0.01590834
2.204554e-05
-0.001407347
-4.820699e-05
0.0009108381
-5.043885e-05
-0.06742192
2.306941e-05
-0.002455283
0.01646799
0.01645236
0.01619668
0.01618643
-0.06715925
6.78983e-05
-0.001686976
-0.0669701
-0.0001202476
-0.0006736768
-0.06688117
-0.000295853
-0.0003131945
-0.06683086
-0.0007568273
-0.0001010558
-0.001348085
-4.037987e-05
-0.06667418
0.000903642
-1.585482e-05
-0.0158575
2.101772e-05
-0.0014398
-4.95175e-05
0.0009088093
-5.248147e-05
-0.06742058
0.000242733
-0.002538793
0.01643638
0.01642706
0.01616129
0.01615171
-0.06706059
0.0003229315
-0.00207569
-0.06693404
0.0001986154
-0.0007871676
-0.06694563
-1.406215e-05
-0.0004242196
-0.06707359
-0.0005342636
-0.000127612
-0.001246807
-5.244132e-05
-0.06713741
0.0009005899
-2.344666e-05
-0.01583463
3.049726e-05
-0.001427842
-5.07765e-05
0.0009063732
-5.381783e-05
-0.06729447
0.0004956628
-0.002663616
0.01641702
0.01640146
0.01612862
0.01612383
-0.06703827
0.0006877621
-0.002090916
-0.06702077
0.000659978
-0.0008460059
-0.06723468
0.0004713845
-0.0004279706
-0.06761137
-6.148894e-05
-0.0001339709
-0.0008656755
-3.786323e-05
-0.06796521
0.0008963497
-3.273108e-05
-0.01576133
4.382018e-05
-0.001424644
-5.208356e-05
0.0009033042
-5.475395e-05
-0.06713577
0.0008595318
-0.002675945
0.01635155
0.01633415
0.01606814
0.0160513
-0.06699478
0.001212368
-0.002148598
-0.06718498
0.001347698
-0.0008732915
-0.06765011
0.001229437
-0.0004591724
-0.06834429
0.0007361959
-0.0001442074
-0.0001200954
-4.144749e-05
-0.06906058
0.0008896922
-5.039643e-05
-0.0156466
6.45993e-05
-0.001416129
-5.388084e-05
0.0008983421
-5.596552e-05
-0.0668065
0.00133611
-0.002672339
0.0162448
0.01622213
0.01596011
0.01593514
-0.06685517
0.00193305
-0.002148157
-0.0673056
0.002300513
-0.0008819128
-0.06810386
0.002323062
-0.0004628792
-0.06919242
0.001929902
-0.0001469536
0.001071912
-3.787491e-05
-0.0703572
0.0008802112
-7.421955e-05
-0.01547022
9.208701e-05
-0.001404343
-5.575639e-05
0.0008904629
-5.747841e-05
-0.0662486
0.00196475
-0.002641048
0.01607527
0.01603874
0.01579031
0.01574922
-0.06652338
0.002887126
-0.002145171
-0.06729778
0.003577035
-0.0008818085
-0.0685007
0.003825196
-0.0004664717
-0.07007235
0.003607795
-0.0001488508
0.002812626
-3.672102e-05
-0.07178687
0.0008671692
-0.0001043954
-0.01521279
0.0001266717
-0.00138743
-5.762577e-05
0.0008788131
-5.918999e-05
-0.0653488
0.002759608
-0.002599067
0.01581977
0.01576626
0.01553871
0.01547921
-0.0659082
0.004118806
-0.002119339
-0.06706723
0.005233247
-0.0008748513
-0.06875823
0.005815102
-0.0004616981
-0.07091323
0.005869236
-0.0001463855
0.005220113
-3.278379e-05
-0.07329781
0.0008497566
-0.0001419046
-0.01484923
0.0001684582
-0.00136455
-5.90501e-05
0.0008628445
-6.051813e-05
-0.06400833
0.003729341
-0.002535864
0.01545355
0.01538236
0.01518014
0.01510389
-0.06489924
0.005666326
-0.002076917
-0.06650888
0.007331143
-0.0008606987
-0.06877793
0.00838004
-0.000452312
-0.0716344
0.008832023
-0.0001394194
0.008443329
-2.448255e-05
-0.07483728
0.0008259984
-0.0001879544
-0.01434944
0.0002184146
-0.001332512
-5.988246e-05
0.0008407736
-6.128409e-05
-0.06210377
0.004895934
-0.002445567
0.014946
0.01485433
0.01468259
0.01458728
-0.06336877
0.007563443
-0.002014608
-0.06549535
0.009932497
-0.0008390756
-0.0684406
0.0116154
-0.000439501
-0.07213754
0.0126354
-0.0001317081
0.01267048
-1.461373e-05
-0.07634428
0.0007943406
-0.000242065
-0.01368406
0.0002758446
-0.001289767
-5.981746e-05
0.0008107704
-6.126389e-05
-0.05949723
0.006272905
-0.002319043
0.01426594
0.01415151
0.0140153
0.01389832
-0.06117304
0.009836727
-0.001926334
-0.06387848
0.01309357
-0.0008036835
-0.06759884
0.01561491
-0.0004141834
-0.07228694
0.0174287
-0.0001138372
0.01812215
1.134711e-05
-0.07771924
0.0007524889
-0.0003034764
-0.01281562
0.0003382538
-0.001231413
-5.948086e-05
0.0007707284
-6.107469e-05
-0.05602155
0.007863454
-0.002154095
0.01336958
0.01323291
0.01313728
0.01299909
-0.0581314
0.01250259
-0.001814846
-0.06146429
0.01685924
-0.0007667851
-0.06605342
0.02047902
-0.0004050841
-0.07191076
0.02340265
-0.0001242132
0.0251209
-4.375959e-06
-0.07886974
0.0006986294
-0.0003692987
-0.01171345
0.0004049347
-0.001154308
-5.918307e-05
0.0007182952
-6.103033e-05
-0.05153776
0.009639368
-0.001939617
0.01222848
0.01207193
0.01201996
0.01186907
-0.05408342
0.01555056
-0.001650169
-0.05804471
0.02122831
-0.0007070124
-0.06354082
0.02625522
-0.0003805757
-0.07068702
0.0306871
-0.0001099152
0.03393293
3.263931e-05
-0.07943446
0.0006296039
-0.0004414659
-0.0103283
0.000470238
-0.001049326
-5.805044e-05
0.000650224
-6.014247e-05
-0.0458286
0.01158895
-0.001658152
0.0107808
0.0106157
0.01060188
0.01045364
-0.0487624
0.01894415
-0.001497588
-0.05331175
0.02619231
-0.0007146419
-0.05971877
0.03301241
-0.0005145312
-0.06830762
0.0395585
-0.0003564763
0.0452025
-0.0003134678
-0.07929808
0.0005440733
-0.0005084506
-0.008667007
0.0005331512
-0.0009174155
-5.471756e-05
0.0005649906
-5.725111e-05
-0.03883748
0.01360778
-0.001353357
0.009043749
0.008877826
0.008899672
0.008767873
-0.04204839
0.02252528
-0.001236089
-0.04694123
0.03154264
-0.0007720692
-0.05398545
0.04054576
-0.0007153499
-0.0638052
0.04986274
-0.0006434231
0.05891847
-0.0005189261
-0.07705716
0.0004338136
-0.0005816924
-0.006646256
0.0005770226
-0.0007342348
-5.051751e-05
0.0004562756
-5.258113e-05
-0.03019767
0.01561738
-0.0008449146
0.006892046
0.006741777
0.006794454
0.006704198
-0.03331666
0.02594561
-0.001347854
-0.03815301
0.03682444
-0.0013499
-0.0453788
0.04848399
-0.001917021
-0.05610249
0.0615225
-0.002423433
0.0758486
-0.003083031
-0.07174301
0.0003064313
-0.0006316657
-0.004414503
0.0006179788
-0.0004783756
-3.975091e-05
0.0003270104
-3.926271e-05
-0.0196736
0.003995537
-0.000913764
0.004514368
0.004447972
0.004473368
0.004494088
0.004223702
0.004021082
0.00422184
-0.02175038
0.006553299
-0.0009847042
0.00681526
0.006551226
0.006933335
-0.02544407
0.009579768
-0.001712678
0.009916818
0.009516939
0.01006274
-0.0314933
0.01292146
-0.002296174
0.01337476
0.01283316
0.01354558
-0.0413771
0.01692507
-0.002948697
0.01753568
0.01679107
0.01773799
0.02175027
-0.003367166
0.02255527
0.02154014
0.02283654
-0.057512
0.0001654066
-0.002436495
-0.0001846304
0.000241728
0.0002314048
0.0002236443
0.0002944256
-0.0008196754
-5.243223e-06
0.0001318929
6.948858e-06
7.454636e-06
0.002353537
-0.002204418
0.003762561
7.64032e-05
4.821869e-05
0.002367012
-0.002408385
0.006453238
9.321628e-05
0.0001414904
0.002747988
-0.002906144
0.009464056
0.0001323769
0.0002808457
0.00336808
-0.003693589
0.01286712
9.8995e-05
0.0004766449
0.004402168
-0.00501753
0.01698649
7.730486e-05
0.0007200798
0.006164771
-0.007306566
0.02214889
2.309842e-05
0.00101967
0.009312192
0.02897694
-8.430442e-05
-0.02772609
-0.01149841
5.650592e-06
4.624983e-05
0.0001854466
1.213491e-05
6.614712e-05
4.823384e-05
6.732677e-05
1.062909e-05
-1.748825e-05
2.927404e-06
-0.0004272577
0.003673494
2.026859e-05
1.776889e-05
0.0001075131
-0.0004473408
-0.0004402371
0.0001841245
0.0003139062
0.0001602729
0.0002615048
-0.002815597
-7.106104e-05
2.648207e-05
-0.000478379
-0.0005127193
0.005476855
-6.520098e-05
3.714154e-06
0.000150152
0.000189063
0.0003383633
0.0001241039
0.0003304094
-0.002851075
-8.549822e-05
6.260831e-05
0.007350356
-0.0001955125
-2.318021e-05
0.0001868522
0.0001328489
0.0003647836
0.0001376947
0.0003929953
-0.002883143
-6.621558e-05
7.937558e-05
0.009306318
-9.577911e-05
-3.654511e-05
0.0001766033
0.0001041486
0.0004152505
0.0001420637
0.0004333487
-0.00308056
-9.470064e-05
8.020789e-05
0.01158641
-8.126169e-05
-7.888434e-05
0.0002005089
0.0001005242
0.0004981586
0.0001553586
0.0004833939
-0.003530779
-0.0001223603
9.5253e-05
-0.0001037705
-8.435787e-05
0.0002295331
0.0001513782
0.0006227213
0.000167776
0.0005708552
0.01444011
-0.004371783
-0.0001516549
0.0001156016
0.00317538
-7.582848e-05
-0.01342528
-0.0006195892
9.376071e-05
0.003846187
0.003167887
0.003837479
-0.05711703
-0.00126504
-0.0003006828
0.001149909
-0.001904057
0.0006460371
-6.411475e-05
0.01281189
0.01642408
0.01329195
0.01632706
-0.05609173
-0.001119282
0.0002298742
0.00181167
-0.001909757
0.0002404587
-0.0002782666
-0.0560374
-0.000175818
-0.0002296324
0.001996026
-0.001811864
0.0003486232
-0.0001816613
-0.05564935
-0.0004362852
-3.523598e-05
0.001908635
-0.001836489
0.0002560973
-0.0002447621
-0.0004428638
-9.116747e-05
0.001914067
-0.001801716
0.0002732938
-0.0002273672
-0.0552736
0.0009584754
0.0002155319
-0.01606494
-0.001106883
-0.0001322322
-1.544558e-06
0.0009595547
9.396744e-07
-0.06449875
-0.0006014057
-0.000778874
0.0003399983
-0.0004895629
0.000237411
-0.0005000346
0.01607052
0.01640409
0.01604027
0.01626647
-0.06542857
-0.0005443077
0.0001160435
-0.06586258
-0.0007491807
-0.0001616892
-0.06558871
-0.0004826868
-5.806188e-05
-0.06536335
-0.0006798726
-2.490157e-05
-0.0008980525
-2.296126e-05
-0.06492892
-0.0643181
-0.0008202761
-0.0009900498
0.001864206
-0.0004161148
0.003125659
-0.0003899916
0.001941904
-0.0003229958
0.003222003
-0.0003001483
-0.06573446
-9.979689e-05
-0.0008862083
-0.06640482
-0.0004807626
-0.001011617
-0.06669538
-0.0004934965
-0.0004218237
-0.06675308
-0.0004817276
-0.0002786157
-0.06661728
-0.0008209168
-8.809754e-05
-0.001209925
-6.273296e-05
-0.06633026
-0.06444894
2.40877e-05
-0.001624589
0.003409707
-0.0003534043
0.003514005
-0.000324013
-0.06577475
7.42163e-06
-0.001236701
-0.06679584
-4.037554e-05
-0.001106274
-0.0670677
-0.0002181354
-0.0006771811
-0.06719801
-0.0003546518
-0.0003099593
-0.06722917
-0.0007847816
-0.0001060361
-0.00135274
-3.278994e-05
-0.06709394
-0.06447726
0.0001175967
-0.001873132
0.003546732
-0.0003016325
0.003559057
-0.0002931384
-0.06597853
0.0002685143
-0.001298619
-0.0668387
0.0002209972
-0.001476893
-0.06712561
0.0001521385
-0.0008705315
-0.06739331
-6.857921e-05
-0.0004425898
-0.06760827
-0.0005536775
-0.000143764
-0.001262246
-4.132222e-05
-0.06770988
-0.06437573
0.000203048
-0.001893182
0.003536475
-0.000295083
0.003549014
-0.000291139
-0.06589205
0.0005112908
-0.001390079
-0.06689584
0.0006587203
-0.001524858
-0.06727664
0.000649693
-0.000962754
-0.06774414
0.0004480826
-0.0004771322
-0.06820584
-6.609447e-05
-0.0001598516
-0.000876593
-3.042314e-05
-0.06859894
-0.06413221
0.0003160127
-0.001887825
0.003525225
-0.0002925994
0.003542224
-0.0002928156
-0.06577585
0.0008727728
-0.00139379
-0.06687889
0.001204123
-0.001590968
-0.06745269
0.001356287
-0.001006085
-0.068174
0.001227306
-0.0005170839
-0.06895476
0.0007454847
-0.0001750278
-0.0001231403
-3.334383e-05
-0.06971631
-0.06370824
0.0004717151
-0.001874654
0.00350182
-0.0002955395
0.003524911
-0.0002970132
-0.06545568
0.001344718
-0.001396841
-0.06675298
0.00195237
-0.001599108
-0.067581
0.002324165
-0.00102177
-0.06863642
0.002347046
-0.0005272019
-0.06981422
0.001956504
-0.0001801686
0.001083773
-3.03537e-05
-0.07102865
-0.06302969
0.0006732527
-0.001854441
0.003466452
-0.0002998199
0.003498031
-0.0003018472
-0.06491229
0.001964741
-0.00137847
-0.06643214
0.002928119
-0.001601079
-0.06757983
0.003615482
-0.001025432
-0.0690422
0.003877047
-0.0005340993
-0.07070843
0.003657013
-0.0001831211
0.002846287
-2.881961e-05
-0.07247885
-0.06200937
0.0009258601
-0.001824752
0.003413529
-0.0003047597
0.003456059
-0.0003065288
-0.06403915
0.002750726
-0.001355265
-0.06582838
0.004181752
-0.001583741
-0.06736228
0.005293503
-0.001018971
-0.06931655
0.005901517
-0.0005318964
-0.07157434
0.00594998
-0.0001815599
0.00528496
-2.428763e-05
-0.07402151
-0.06055048
0.001234489
-0.001783152
0.003338191
-0.0003098786
0.00339378
-0.0003106993
-0.06274085
0.003726129
-0.001320897
-0.06483723
0.00575465
-0.001553435
-0.0668256
0.007424655
-0.00100348
-0.06936472
0.008512462
-0.000524137
-0.07233642
0.00895767
-0.0001754022
0.008552113
-1.549026e-05
-0.07561256
-0.05853549
0.001603664
-0.001725593
0.003234453
-0.0003148076
0.003306047
-0.0003139231
-0.06089434
0.004911181
-0.001271778
-0.06333636
0.007688516
-0.001506448
-0.06585041
0.01007725
-0.0009776229
-0.06907806
0.01181156
-0.0005109396
-0.0729082
0.01282306
-0.0001669599
0.01283886
-5.295905e-06
-0.07720427
-0.05584501
0.002033415
-0.001648848
0.003096822
-0.0003190824
0.003186348
-0.0003161307
-0.05836832
0.006319693
-0.00120425
-0.06118728
0.01001952
-0.00143838
-0.06429541
0.01331706
-0.0009353635
-0.06831706
0.01590521
-0.0004861826
-0.07316416
0.01770648
-0.0001501489
0.01837834
1.597218e-05
-0.07870827
-0.05232403
0.002525075
-0.001545812
0.002915881
-0.0003230392
0.003024758
-0.0003171005
-0.05500877
0.007965273
-0.001114931
-0.05822419
0.01277199
-0.001351898
-0.06198972
0.01720179
-0.0008859875
-0.06691452
0.02089862
-0.000473692
-0.07297565
0.02380166
-0.0001582678
0.02549384
-4.629266e-07
-0.08009507
-0.04786105
0.003063525
-0.001415964
0.002686214
-0.0003230069
0.002815831
-0.000311186
-0.05066393
0.009823629
-0.0009950933
-0.05427456
0.01595737
-0.001224909
-0.05870705
0.02174084
-0.0008135809
-0.06458254
0.02684589
-0.0004523558
-0.07197546
0.03125757
-0.0001728995
0.03449422
-1.35198e-05
-0.08092968
-0.04224031
0.003659772
-0.001240628
0.002391019
-0.0003201829
0.002540353
-0.0003006859
-0.04517356
0.0119363
-0.0008375743
-0.04912698
0.01951777
-0.001104569
-0.05421425
0.02691115
-0.0007976862
-0.06106541
0.03377509
-0.0005925731
-0.07003326
0.04031175
-0.000442802
0.04598493
-0.0003841313
-0.08145331
-0.03551079
0.004285133
-0.001040275
0.002036325
-0.000300085
0.002199646
-0.0002722103
-0.03832899
0.01407112
-0.0006699916
-0.04252303
0.02338063
-0.0009049047
-0.04789352
0.03232031
-0.0008107353
-0.05531192
0.04132167
-0.0008435435
-0.06543925
0.05067556
-0.0008799034
0.05991606
-0.0008705018
-0.07901881
-0.02721902
0.005300037
-0.000660799
0.001567677
-0.0002857128
0.001705657
-0.000242405
-0.03009233
0.01648388
-0.0003843595
-0.03358349
0.02640216
-0.0008782249
-0.03853285
0.03687912
-0.0009593505
-0.04604725
0.04833295
-0.00141389
-0.05731985
0.06132515
-0.001800429
0.07586112
-0.002287661
-0.07406027
-0.01826435
0.001660122
-0.0003557601
0.001756908
0.001990216
0.001777666
0.000932429
-0.0002225954
0.0007427889
-0.0001163701
-0.01887366
0.004043973
-0.0004592683
0.00422487
0.004090911
0.004278929
-0.02082372
0.02780565
-0.0004381424
-0.02396935
0.03916649
-0.0008544197
-0.02942926
0.05269806
-0.001201375
-0.03846657
0.06900399
-0.001590223
0.08902495
-0.001839884
-0.05315767
0.000257791
-0.002222755
-0.0001021602
0.0002881706
0.0003799268
0.0002902065
0.0003810066
0.00191877
-0.0001516364
-0.001588201
0.003787842
7.719851e-05
-0.005410773
-0.000534325
-7.729037e-05
-0.0001087606
0.0009827483
0.001393607
0.001574949
0.001461059
0.001613391
0.001844719
-0.005612453
-0.0006883547
-0.000158253
-0.0001828563
0.002100934
0.001984587
-0.00752208
-0.001146664
-7.474922e-05
-0.0001369618
0.002884743
0.002659177
-0.01116205
-0.001489312
-3.561358e-05
-0.0001139184
0.003755923
0.003431779
-0.001953717
7.193232e-05
-2.314529e-05
0.004951638
0.004455333
-0.01840783
0.003047533
-0.00099957
-0.000192351
-0.0003189314
0.0001234854
-0.0007525602
-0.0009076052
0.003907518
-0.0007746364
-8.584028e-05
-0.0001854052
0.0001858961
0.005005163
-0.001002598
-8.971415e-05
-0.000254338
0.0002490054
0.006283253
-0.001158568
-0.00012524
-0.0002875659
0.0002932847
-0.001373374
-0.0001420607
-0.0004187312
0.000322447
0.007894972
4.356622e-05
-3.47785e-05
0.0001679821
2.433301e-05
6.154044e-05
4.488509e-05
6.187699e-05
-0.0003694052
0.003430854
4.298467e-05
-0.0004175188
-0.0004131816
0.0001472878
0.0002710134
0.0001551356
0.0003575363
-0.002600857
-0.000473298
-0.0004796871
0.005137793
4.453225e-06
-0.002776164
0.007052698
-0.0001092487
-0.002775805
0.008981982
-3.405189e-05
-0.002993609
0.01119287
-2.121108e-05
-0.00342951
-6.048428e-06
0.01395796
-0.004236184
0.00324108
6.525576e-05
-0.01358688
-0.0006592659
-3.988255e-05
0.00387266
0.003230602
0.003876435
-0.05794414
-0.002019476
-0.0002140836
0.01348503
0.01647322
0.0135
0.01641877
-0.05642131
-0.001283362
-9.583864e-06
-0.05638627
-0.0001797884
-8.488769e-05
-0.05599414
-0.0004113044
-1.605349e-05
-0.000423612
-3.599023e-05
-0.05562571
0.0009594859
-3.086087e-06
-0.01601267
-0.001334705
1.588108e-06
-1.42275e-05
0.0009622549
-1.467091e-05
-0.06412513
-0.0005890561
-0.0002694972
0.0002513591
-0.000476304
0.0002428514
-0.0004690703
0.01603928
0.01630819
0.01603124
0.01627726
-0.06538972
-0.000663342
2.450068e-05
-0.065931
-0.0008173058
-8.646881e-05
-0.06559842
-0.0005246816
-4.574523e-05
-0.06534428
-0.0006721038
-1.82425e-05
-0.0008817443
-1.706328e-05
-0.06489204
-0.06416809
-0.001152491
-3.319459e-06
0.003371124
-0.0003657349
0.00346916
-0.0003577661
-0.065301
-8.153604e-05
-0.0002608221
-0.06593665
-0.0006108933
-0.0004284214
-0.06635934
-0.0006003023
-0.0002161311
-0.06646366
-0.0005323595
-0.0001666164
-0.06633625
-0.0008332597
-5.435931e-05
-0.001202737
-3.708946e-05
-0.0660409
-0.06418754
4.923646e-05
-6.184347e-05
-0.06519855
5.077654e-05
-0.000358008
-0.06637503
-6.942494e-05
-0.0004712698
-0.0669998
-0.0002789904
-0.0003737223
-0.06723717
-0.00039562
-0.0002093257
-0.06730043
-0.0008001842
-7.585319e-05
-0.001357961
-2.55383e-05
-0.06715246
-0.06434883
0.0001310786
-0.0001248466
-0.06546747
0.0002684833
-0.0003976881
-0.06654984
0.0001965429
-0.0006604919
-0.06729499
0.0001172988
-0.000521678
-0.06770009
-9.238416e-05
-0.0003407271
-0.06796484
-0.0005657346
-0.0001134634
-0.001269429
-3.478369e-05
-0.06805991
-0.06419169
0.0001928813
-0.0001297652
-0.06537881
0.0004989807
-0.000433459
-0.06665955
0.0006494688
-0.000697046
-0.06753795
0.0006332145
-0.0006002706
-0.06814378
0.0004416138
-0.0004053045
-0.06866415
-6.967739e-05
-0.0001355362
-0.0008822268
-2.89838e-05
-0.06905279
-0.06397203
0.0002933935
-0.0001378193
-0.06528261
0.0008609346
-0.0004451724
-0.06667456
0.00118728
-0.0007368337
-0.06776098
0.001350667
-0.0006371085
-0.06862508
0.001233154
-0.0004445291
-0.06947148
0.0007523491
-0.0001506525
-0.0001217114
-3.167789e-05
-0.07023366
-0.06353859
0.0004379752
-0.0001371785
-0.06495803
0.001332817
-0.000449283
-0.06655995
0.001932648
-0.0007425557
-0.06790968
0.002329087
-0.0006504656
-0.06911618
0.002368736
-0.0004562756
-0.07036608
0.001978529
-0.0001564479
0.001098232
-3.048638e-05
-0.07158589
-0.06286166
0.000628282
-0.0001383222
-0.0644165
0.001954794
-0.0004456133
-0.06624477
0.002903955
-0.0007441136
-0.06791886
0.003632516
-0.000654772
-0.06953978
0.003918525
-0.0004629614
-0.0712852
0.003700381
-0.0001595482
0.00288147
-3.000678e-05
-0.07306725
-0.06184003
0.0008680121
-0.0001370292
-0.06354439
0.002742515
-0.0004386226
-0.06564604
0.004157221
-0.0007353543
-0.06770979
0.005328616
-0.0006513237
-0.06983274
0.005971861
-0.000462279
-0.07217933
0.006024803
-0.0001593855
0.005351382
-2.772174e-05
-0.07464581
-0.06038164
0.001162305
-0.0001362032
-0.06225427
0.00372125
-0.0004270049
-0.06466517
0.005735944
-0.0007212567
-0.06718641
0.007488408
-0.0006420286
-0.06990746
0.008626042
-0.0004572665
-0.07298084
0.00907937
-0.0001565894
0.008665407
-2.34089e-05
-0.07628694
-0.05836594
0.001515878
-0.0001320795
-0.06042278
0.004916132
-0.0004098243
-0.06318366
0.007688487
-0.0006981044
-0.06623505
0.01018793
-0.000625748
-0.06966399
0.01199157
-0.0004475348
-0.07361414
0.0130149
-0.0001523304
0.01302174
-1.810044e-05
-0.07795766
-0.05567188
0.001931476
-0.0001284062
-0.05791987
0.006345078
-0.0003852103
-0.06106574
0.01006152
-0.0006655399
-0.06472025
0.01350661
-0.0005995279
-0.06897241
0.01618818
-0.0004306343
-0.07396643
0.01800399
-0.0001452213
0.018665
-8.832745e-06
-0.07958488
-0.05215174
0.002413438
-0.0001221928
-0.0545995
0.008031453
-0.0003535503
-0.05815588
0.01289039
-0.0006243901
-0.06248284
0.017517
-0.0005694206
-0.06768227
0.02133203
-0.0004181129
-0.07393336
0.02425226
-0.0001554363
0.02593283
-2.748944e-05
-0.08117416
-0.04768595
0.002949488
-0.0001145593
-0.05029593
0.009956033
-0.0003096933
-0.05427278
0.01620484
-0.000562513
-0.05929806
0.0222537
-0.0005249863
-0.06550277
0.02749484
-0.0004104615
-0.07314605
0.03191566
-0.0001930183
0.0351555
-7.784617e-05
-0.08230439
-0.04208082
0.003560152
-0.0001022304
-0.04487314
0.01216681
-0.00025603
-0.04921506
0.01995121
-0.0005090183
-0.0549521
0.02769757
-0.0005045149
-0.06217166
0.03461204
-0.0004902122
-0.0714606
0.04118386
-0.0004220593
0.04694017
-0.0004049017
-0.08322449
-0.0353361
0.004222814
-9.088124e-05
-0.03804588
0.01440306
-0.0001964665
-0.04262188
0.02402562
-0.0004033159
-0.04826191
0.03296711
-0.0004402406