/*--------------------------------*- C++ -*----------------------------------*\
  =========                 |
  \\      /  F ield         | OpenFOAM: The Open Source CFD Toolbox
   \\    /   O peration     | Website:  https://openfoam.org
    \\  /    A nd           | Version:  7
     \\/     M anipulation  |
\*---------------------------------------------------------------------------*/
FoamFile
{
    version     2.0;
    format      ascii;
    class       volScalarField;
    location    "0.01";
    object      nut;
}
// * * * * * * * * * * * * * * * * * * * * * * * * * * * * * * * * * * * * * //

dimensions      [0 2 -1 0 0 0 0];

internalField   nonuniform List<scalar> 
77308
(
0.0006120163
0.0005804814
0.0005781106
0.0005772825
0.0005771207
0.0005771175
0.001323422
0.001277901
0.001263569
0.001259892
0.001258925
0.001258696
0.001309422
0.001251295
0.001233291
0.001228374
0.001227014
0.001226722
0.001303469
0.001241337
0.001220794
0.00121507
0.00121344
0.00121303
0.001302063
0.001238676
0.001217298
0.001211151
0.001209352
0.001208877
0.001301705
0.001237968
0.001216324
0.001210012
0.001208133
0.001207627
0.001301658
0.001237892
0.00121622
0.001209889
0.001207999
0.001207487
0.001301861
0.001238324
0.001216831
0.001210615
0.001208782
0.00120829
0.001302556
0.001239744
0.001218769
0.00121286
0.001211172
0.00121073
0.001304983
0.001244401
0.001224801
0.001219569
0.001218147
0.001217792
0.001314789
0.001261171
0.001245439
0.001241481
0.001240462
0.001240226
0.001344925
0.00131504
0.001305844
0.001303737
0.001303176
0.001303058
0.0006436512
0.000619424
0.0006166221
0.0006163334
0.0006163017
0.0006163387
0.0001396408
0.0001395961
0.0001396063
0.0001396164
0.0001396278
0.0001396402
0.0006730909
0.0006641683
0.0006631391
0.0006630388
0.0006630398
0.0006630961
0.001343637
0.001312948
0.00130367
0.001301582
0.00130106
0.001300956
0.001315429
0.001261714
0.00124601
0.00124209
0.001241105
0.001240889
0.001305813
0.001245306
0.001225765
0.001220576
0.001219186
0.001218857
0.00130326
0.001240511
0.001219586
0.001213715
0.001212057
0.001211643
0.00130247
0.001238971
0.001217509
0.001211325
0.001209524
0.001209061
0.001302158
0.001238401
0.00121674
0.001210426
0.001208564
0.001208082
0.001302071
0.001238291
0.001216614
0.001210295
0.001208434
0.001207956
0.001302199
0.001238619
0.001217111
0.001210911
0.001209119
0.001208669
0.001302779
0.001239872
0.001218861
0.00121298
0.001211361
0.001210981
0.0001011688
0.0001011688
0.0001011688
0.0001011688
0.0001011688
0.0001011688
0.0006152366
0.0001011728
0.0001011727
0.0001011727
0.0001011727
0.0001011727
0.0001011727
0.0006070295
0.0001011728
0.0001011726
0.0001011726
0.0001011726
0.0001011727
0.0001011727
0.0006026853
0.0001011728
0.0001011726
0.0001011726
0.0001011726
0.0001011727
0.0001011727
0.0006017724
0.0001011728
0.0001011726
0.0001011726
0.0001011727
0.0001011727
0.0001011727
0.0006016287
0.0001011728
0.0001011726
0.0001011726
0.0001011727
0.0001011727
0.0001011727
0.000601593
0.0001011728
0.0001011726
0.0001011726
0.0001011727
0.0001011727
0.0001011727
0.0006015884
0.0001011728
0.0001011726
0.0001011726
0.0001011727
0.0001011727
0.0001011727
0.0006016119
0.0001011728
0.0001011726
0.0001011726
0.0001011727
0.0001011728
0.0001011728
0.0006017062
0.0001011728
0.0001011726
0.0001011726
0.0001011727
0.0001011728
0.0001011728
0.0006021346
0.0001011728
0.0001011726
0.000101173
0.0001011732
0.0001011733
0.0001011734
0.0006054539
0.0001011728
0.0001011734
0.0001011736
0.0001011738
0.0001011738
0.0001011739
0.0006133621
0.0001011688
0.0001011688
0.0001011688
0.0001011688
0.0001011688
0.0001011688
0.0003237289
0.0003132776
0.0003083721
0.00030681
0.0003065561
0.0003065918
0.0002238471
0.0001012001
0.0001011862
0.0001011671
0.0001011723
0.0001011703
0.0001011696
0.0006113991
0.0001012427
0.0001013225
0.0001013414
0.0001013405
0.0001013353
0.0001013309
0.0006040415
0.0001011787
0.0001011846
0.0001011827
0.0001011805
0.0001011804
0.000101181
0.0006027807
0.0001011842
0.000101186
0.0001011844
0.0001011842
0.0001011843
0.0001011842
0.0006024784
0.0001011811
0.0001011798
0.0001011762
0.0001011756
0.0001011752
0.0001011751
0.0006023341
0.0001011825
0.0001011805
0.0001011765
0.0001011759
0.0001011752
0.000101175
0.0006022315
0.0001011832
0.0001011806
0.0001011763
0.0001011756
0.0001011749
0.0001011748
0.0006021477
0.0001011839
0.000101181
0.0001011765
0.0001011757
0.000101175
0.0001011749
0.0006020817
0.0001011844
0.0001011814
0.0001011767
0.0001011758
0.0001011753
0.0001011752
0.0001012232
0.0001011848
0.0001011812
0.0001011762
0.0001011755
0.0001011756
0.0001011757
0.0001011688
0.0001011687
0.0001011687
0.0001011687
0.0001011687
0.0001011687
0.0006101556
0.0001011687
0.0001011687
0.0001011687
0.0001011688
0.0001011688
0.0001011688
0.001289373
0.0001011729
0.0001011687
0.0001011687
0.0001011688
0.0001011688
0.0001011688
0.001269051
0.0001011728
0.0001011687
0.0001011687
0.0001011688
0.0001011688
0.0001011688
0.001261711
0.0001011728
0.0001011687
0.0001011688
0.0001011688
0.0001011688
0.0001011688
0.001260044
0.0001011728
0.0001011688
0.0001011688
0.0001011688
0.0001011688
0.0001011688
0.001259739
0.0001011728
0.0001011688
0.0001011688
0.0001011688
0.0001011688
0.0001011688
0.001259926
0.0001011728
0.0001011688
0.0001011688
0.0001011688
0.0001011688
0.0001011688
0.001260704
0.0001011728
0.0001011688
0.0001011688
0.0001011688
0.0001011688
0.0001011688
0.001263203
0.0001011728
0.0001011688
0.0001011688
0.0001011688
0.0001011688
0.0001011688
0.001272356
0.0001011728
0.0001011688
0.0001011688
0.0001011688
0.0001011688
0.0001011688
0.001296716
0.0001011729
0.0001011809
0.0001011812
0.0001011823
0.0001011832
0.0001011841
0.0006066037
0.0001011688
0.001639259
0.001526191
0.001491426
0.001482717
0.001481339
0.0003136999
0.0002240715
0.000101187
0.0001011739
0.0001011937
0.000101172
0.0001011735
0.0001011724
0.001302631
0.0001013708
0.0001011735
0.0001011696
0.0001011704
0.0001011696
0.0001011695
0.001274438
0.0001012385
0.00010117
0.0001011705
0.0001011702
0.0001011698
0.0001011697
0.001264372
0.0001012557
0.00010117
0.0001011697
0.0001011697
0.0001011697
0.0001011697
0.001261511
0.000101252
0.0001011711
0.0001011709
0.0001011709
0.0001011708
0.0001011707
0.001260535
0.0001012566
0.0001011708
0.0001011707
0.0001011706
0.0001011706
0.0001011704
0.001260145
0.0001012596
0.0001011711
0.000101171
0.0001011709
0.0001011709
0.0001011707
0.001260076
0.0001012631
0.0001011712
0.0001011711
0.0001011711
0.000101171
0.0001011709
0.001260409
0.0001012663
0.0001011715
0.0001011714
0.0001011714
0.0001011714
0.0001011713
0.001262097
0.00010127
0.0001011717
0.0001011716
0.0001011717
0.0001011718
0.0001011718
0.0001011688
0.0001011687
0.0001011687
0.0001011687
0.0001011687
0.0001011687
0.000606123
0.0001011687
0.0001011687
0.0001011687
0.0001011688
0.0001011688
0.0001011688
0.001270022
0.0001011728
0.0001011687
0.0001011687
0.0001011688
0.0001011688
0.0001011688
0.001235436
0.0001011727
0.0001011687
0.0001011687
0.0001011688
0.0001011688
0.0001011688
0.001224504
0.0001011727
0.0001011687
0.0001011688
0.0001011688
0.0001011688
0.0001011688
0.001221857
0.0001011727
0.0001011688
0.0001011688
0.0001011688
0.0001011688
0.0001011688
0.001221351
0.0001011727
0.0001011688
0.0001011688
0.0001011688
0.0001011688
0.0001011688
0.001221605
0.0001011727
0.0001011688
0.0001011688
0.0001011688
0.0001011688
0.0001011688
0.00122275
0.0001011727
0.0001011688
0.0001011688
0.0001011688
0.0001011688
0.0001011688
0.001226495
0.0001011727
0.0001011688
0.0001011688
0.0001011688
0.0001011688
0.0001011688
0.001239737
0.0001011727
0.0001011688
0.0001011688
0.0001011688
0.0001011688
0.0001011688
0.001279068
0.0001011728
0.0001011792
0.0001011795
0.0001011808
0.0001011816
0.0001011825
0.0005890556
0.0001011688
0.001526554
0.001388512
0.001337447
0.001323583
0.001320471
0.0003087797
0.0002237293
0.0001011642
0.0001011751
0.0001011922
0.0001011803
0.0001011756
0.0001011721
0.001285227
0.0001014079
0.0001011705
0.0001011744
0.0001011703
0.0001011704
0.0001011702
0.001242124
0.000101241
0.0001011721
0.0001011694
0.0001011713
0.0001011696
0.0001011698
0.001227822
0.0001012538
0.0001011698
0.0001011696
0.0001011696
0.0001011697
0.0001011697
0.001223619
0.0001012497
0.0001011713
0.0001011709
0.000101171
0.0001011709
0.0001011707
0.00122222
0.0001012538
0.0001011709
0.0001011707
0.0001011707
0.0001011706
0.0001011705
0.001221688
0.0001012568
0.0001011711
0.000101171
0.0001011709
0.0001011709
0.0001011707
0.001221634
0.0001012603
0.0001011713
0.0001011711
0.0001011711
0.000101171
0.0001011709
0.001222205
0.0001012635
0.0001011715
0.0001011714
0.0001011714
0.0001011714
0.0001011713
0.001224895
0.0001012673
0.0001011717
0.0001011716
0.0001011717
0.0001011718
0.0001011718
0.0001011688
0.0001011687
0.0001011687
0.0001011687
0.0001011687
0.0001011687
0.0006052275
0.0001011687
0.0001011687
0.0001011687
0.0001011688
0.0001011688
0.0001011688
0.001263181
0.0001011728
0.0001011687
0.0001011687
0.0001011688
0.0001011688
0.0001011688
0.001225208
0.0001011727
0.0001011687
0.0001011687
0.0001011688
0.0001011688
0.0001011688
0.00121223
0.0001011727
0.0001011687
0.0001011688
0.0001011688
0.0001011688
0.0001011688
0.001209114
0.0001011727
0.0001011688
0.0001011688
0.0001011688
0.0001011688
0.0001011688
0.00120852
0.0001011727
0.0001011688
0.0001011688
0.0001011688
0.0001011688
0.0001011688
0.001208813
0.0001011727
0.0001011688
0.0001011688
0.0001011688
0.0001011688
0.0001011688
0.001210142
0.0001011727
0.0001011688
0.0001011688
0.0001011688
0.0001011688
0.0001011688
0.001214506
0.0001011727
0.0001011688
0.0001011688
0.0001011688
0.0001011688
0.0001011688
0.00123002
0.0001011727
0.0001011688
0.0001011688
0.0001011688
0.0001011688
0.0001011688
0.001272928
0.0001011728
0.0001011787
0.000101179
0.0001011804
0.0001011812
0.0001011821
0.0005868661
0.0001011688
0.001493827
0.001340553
0.00128305
0.001267028
0.00126326
0.0003072343
0.0002236723
0.0001011692
0.0001011972
0.000101177
0.0001011795
0.0001011726
0.0001011725
0.001279086
0.0001014276
0.0001011709
0.0001011697
0.000101169
0.0001011695
0.0001011692
0.001232467
0.000101245
0.0001011704
0.0001011708
0.0001011698
0.000101171
0.0001011696
0.00121587
0.000101255
0.0001011699
0.0001011695
0.0001011696
0.0001011696
0.0001011697
0.001211026
0.0001012493
0.0001011711
0.0001011711
0.0001011707
0.0001011708
0.0001011706
0.001209422
0.0001012532
0.0001011708
0.0001011707
0.0001011706
0.0001011705
0.0001011704
0.001208817
0.0001012562
0.0001011711
0.000101171
0.0001011709
0.0001011709
0.0001011707
0.001208764
0.0001012596
0.0001011712
0.0001011711
0.0001011711
0.000101171
0.0001011709
0.001209445
0.0001012626
0.0001011715
0.0001011714
0.0001011714
0.0001011714
0.0001011713
0.001212621
0.0001012662
0.0001011717
0.0001011716
0.0001011717
0.0001011718
0.0001011718
0.0001011688
0.0001011687
0.0001011687
0.0001011687
0.0001011687
0.0001011687
0.0006051333
0.0001011687
0.0001011687
0.0001011687
0.0001011688
0.0001011688
0.0001011688
0.001263162
0.0001011728
0.0001011687
0.0001011687
0.0001011688
0.0001011688
0.0001011688
0.001225197
0.0001011727
0.0001011687
0.0001011687
0.0001011688
0.0001011688
0.0001011688
0.001212236
0.0001011727
0.0001011687
0.0001011688
0.0001011688
0.0001011688
0.0001011688
0.00120914
0.0001011727
0.0001011688
0.0001011688
0.0001011688
0.0001011688
0.0001011688
0.001208561
0.0001011727
0.0001011688
0.0001011688
0.0001011688
0.0001011688
0.0001011688
0.001208851
0.0001011727
0.0001011688
0.0001011688
0.0001011688
0.0001011688
0.0001011688
0.001210175
0.0001011727
0.0001011688
0.0001011688
0.0001011688
0.0001011688
0.0001011688
0.001214545
0.0001011727
0.0001011688
0.0001011688
0.0001011688
0.0001011688
0.0001011688
0.001230068
0.0001011727
0.0001011688
0.0001011688
0.0001011688
0.0001011688
0.0001011688
0.001272959
0.0001011728
0.0001011787
0.000101179
0.0001011804
0.0001011812
0.0001011821
0.0005866856
0.0001011688
0.001493819
0.001340547
0.001283047
0.001267024
0.001263252
0.0003070608
0.000223664
0.0001012055
0.0001011974
0.0001011771
0.0001011795
0.0001011726
0.0001011725
0.001279112
0.0001014277
0.0001011709
0.0001011697
0.000101169
0.0001011695
0.0001011692
0.001232503
0.0001012451
0.0001011704
0.0001011708
0.0001011697
0.000101171
0.0001011696
0.001215895
0.000101255
0.0001011699
0.0001011695
0.0001011696
0.0001011696
0.0001011697
0.001211042
0.0001012493
0.0001011711
0.0001011711
0.0001011707
0.0001011708
0.0001011706
0.001209437
0.0001012533
0.0001011708
0.0001011707
0.0001011706
0.0001011705
0.0001011704
0.001208828
0.0001012562
0.0001011711
0.000101171
0.0001011709
0.0001011709
0.0001011707
0.001208769
0.0001012596
0.0001011712
0.0001011711
0.0001011711
0.000101171
0.0001011709
0.001209445
0.0001012626
0.0001011715
0.0001011714
0.0001011714
0.0001011714
0.0001011713
0.001212614
0.0001012662
0.0001011717
0.0001011717
0.0001011717
0.0001011718
0.0001011718
0.0001011688
0.0001011687
0.0001011687
0.0001011687
0.0001011687
0.0001011687
0.000605427
0.0001011687
0.0001011687
0.0001011687
0.0001011688
0.0001011688
0.0001011688
0.001269958
0.0001011728
0.0001011687
0.0001011687
0.0001011688
0.0001011688
0.0001011688
0.001235409
0.0001011727
0.0001011687
0.0001011688
0.0001011688
0.0001011688
0.0001011688
0.001224539
0.0001011727
0.0001011687
0.0001011688
0.0001011688
0.0001011688
0.0001011688
0.001221992
0.0001011727
0.0001011688
0.0001011688
0.0001011688
0.0001011688
0.0001011688
0.001221573
0.0001011727
0.0001011688
0.0001011688
0.0001011688
0.0001011688
0.0001011688
0.001221799
0.0001011727
0.0001011688
0.0001011688
0.0001011688
0.0001011688
0.0001011688
0.001222895
0.0001011727
0.0001011688
0.0001011688
0.0001011688
0.0001011688
0.0001011688
0.001226689
0.0001011727
0.0001011688
0.0001011688
0.0001011688
0.0001011688
0.0001011688
0.001239998
0.0001011727
0.0001011688
0.0001011688
0.0001011688
0.0001011688
0.0001011688
0.001279266
0.0001011728
0.0001011792
0.0001011795
0.0001011808
0.0001011816
0.0001011825
0.0005872184
0.0001011688
0.001526511
0.001388476
0.00133742
0.001323552
0.00132043
0.0003076754
0.0002236802
0.0001011927
0.0001011751
0.0001011922
0.0001011803
0.0001011754
0.000101172
0.00128539
0.0001014078
0.0001011705
0.0001011743
0.0001011703
0.0001011704
0.0001011702
0.001242328
0.000101241
0.0001011722
0.0001011694
0.0001011713
0.0001011696
0.0001011698
0.001227941
0.0001012539
0.0001011698
0.0001011696
0.0001011696
0.0001011697
0.0001011697
0.001223689
0.0001012497
0.0001011713
0.0001011709
0.000101171
0.0001011709
0.0001011707
0.001222293
0.0001012538
0.0001011709
0.0001011707
0.0001011707
0.0001011706
0.0001011705
0.001221747
0.0001012569
0.0001011711
0.000101171
0.0001011709
0.0001011709
0.0001011707
0.001221658
0.0001012603
0.0001011713
0.0001011711
0.0001011711
0.000101171
0.0001011709
0.001222207
0.0001012635
0.0001011715
0.0001011714
0.0001011714
0.0001011714
0.0001011713
0.001224879
0.0001012673
0.0001011717
0.0001011716
0.0001011717
0.0001011718
0.0001011718
0.0001011688
0.0001011687
0.0001011687
0.0001011687
0.0001011687
0.0001011688
0.000608069
0.0001011687
0.0001011687
0.0001011687
0.0001011688
0.0001011688
0.0001011688
0.001289313
0.0001011729
0.0001011687
0.0001011687
0.0001011688
0.0001011688
0.0001011688
0.001269058
0.0001011728
0.0001011687
0.0001011688
0.0001011688
0.0001011688
0.0001011688
0.001261838
0.0001011728
0.0001011687
0.0001011688
0.0001011688
0.0001011688
0.0001011688
0.0012606
0.0001011728
0.0001011688
0.0001011688
0.0001011688
0.0001011688
0.0001011688
0.001260855
0.0001011728
0.0001011688
0.0001011688
0.0001011688
0.0001011688
0.0001011688
0.001260702
0.0001011728
0.0001011688
0.0001011688
0.0001011688
0.0001011688
0.0001011688
0.00126111
0.0001011728
0.0001011688
0.0001011688
0.0001011688
0.0001011688
0.0001011688
0.001263996
0.0001011728
0.0001011688
0.0001011688
0.0001011688
0.0001011688
0.0001011688
0.001273582
0.0001011728
0.0001011688
0.0001011688
0.0001011688
0.0001011688
0.0001011688
0.001297787
0.0001011729
0.0001011809
0.0001011812
0.0001011823
0.0001011831
0.0001011841
0.0005925298
0.0001011688
0.001639013
0.001526058
0.001491346
0.001482608
0.00148117
0.000310111
0.0002238001
0.0001011879
0.0001011739
0.0001011939
0.000101172
0.0001011735
0.0001011724
0.001303517
0.0001013702
0.0001011735
0.0001011695
0.0001011703
0.0001011695
0.0001011695
0.001275449
0.0001012387
0.00010117
0.0001011704
0.0001011702
0.0001011698
0.0001011697
0.001264791
0.0001012561
0.00010117
0.0001011697
0.0001011697
0.0001011697
0.0001011697
0.001261716
0.000101252
0.0001011711
0.0001011709
0.0001011709
0.0001011708
0.0001011707
0.001260857
0.0001012567
0.0001011708
0.0001011707
0.0001011706
0.0001011706
0.0001011704
0.001260414
0.0001012597
0.0001011711
0.000101171
0.0001011709
0.0001011709
0.0001011707
0.001260163
0.0001012632
0.0001011712
0.0001011711
0.0001011711
0.000101171
0.0001011709
0.001260424
0.0001012663
0.0001011715
0.0001011714
0.0001011714
0.0001011714
0.0001011713
0.001262085
0.0001012699
0.0001011717
0.0001011717
0.0001011717
0.0001011718
0.0001011718
0.0001011688
0.0001011688
0.0001011688
0.0001011688
0.0001011688
0.0001011688
0.000612262
0.0001011729
0.0001011728
0.0001011728
0.0001011728
0.0001011728
0.0001011728
0.0005981519
0.0001011728
0.0001011726
0.0001011726
0.0001011726
0.0001011726
0.0001011726
0.0005794805
0.0001011728
0.0001011726
0.0001011726
0.0001011726
0.0001011726
0.0001011726
0.0005769288
0.0001011728
0.0001011726
0.0001011726
0.0001011726
0.0001011727
0.0001011727
0.0005769478
0.0001011728
0.0001011726
0.0001011726
0.0001011727
0.0001011727
0.0001011727
0.0005793213
0.0001011728
0.0001011726
0.0001011726
0.0001011727
0.0001011727
0.0001011727
0.0005784572
0.0001011728
0.0001011726
0.0001011726
0.0001011727
0.0001011727
0.0001011727
0.0005764433
0.0001011728
0.0001011726
0.0001011726
0.0001011727
0.0001011728
0.0001011728
0.0005778508
0.0001011728
0.0001011726
0.0001011726
0.0001011727
0.0001011728
0.0001011728
0.0005800423
0.0001011728
0.0001011726
0.0001011731
0.0001011732
0.0001011733
0.0001011734
0.00058662
0.0001011728
0.0001011734
0.0001011736
0.0001011738
0.0001011738
0.0001011739
0.0006004027
0.0001011688
0.0001011823
0.0001011811
0.0001011829
0.0001011843
0.0001011861
0.0003261353
0.000201183
0.0001979355
0.0001954361
0.0001950773
0.0001950617
0.0002241733
0.0001011871
0.0001011669
0.0001011948
0.0001011857
0.0001011794
0.0001011835
0.0006056477
0.000101242
0.0001013226
0.0001013409
0.0001013395
0.0001013334
0.0001013296
0.0005843838
0.0001011786
0.0001011851
0.0001011831
0.000101181
0.0001011807
0.0001011819
0.000578725
0.000101184
0.000101186
0.0001011845
0.0001011844
0.0001011844
0.0001011844
0.0005775662
0.0001011811
0.0001011799
0.0001011763
0.0001011757
0.0001011752
0.0001011752
0.0005777438
0.0001011824
0.0001011805
0.0001011766
0.000101176
0.0001011752
0.000101175
0.0005777925
0.0001011833
0.0001011805
0.0001011764
0.0001011756
0.0001011749
0.0001011748
0.0005771499
0.0001011839
0.000101181
0.0001011766
0.0001011757
0.000101175
0.0001011749
0.0005769878
0.0001011845
0.0001011813
0.0001011766
0.0001011753
0.0001011753
0.0001011752
0.0005772431
0.0001011849
0.0001011811
0.0001011762
0.0001011755
0.0001011756
0.0001011757
0.0001011688
0.0001011688
0.0001011688
0.0001011688
0.0001011688
0.0001011688
0.000271585
0.001342987
0.001313924
0.001304664
0.001302525
0.001302026
0.001301981
0.000264804
0.001313905
0.001259808
0.001243709
0.001239569
0.0012385
0.00123827
0.0002643831
0.001304606
0.001243646
0.00122379
0.001218422
0.001216949
0.001216586
0.000264278
0.001302389
0.001239392
0.001218295
0.00121232
0.001210603
0.001210158
0.0002643814
0.001301622
0.001238168
0.001216675
0.001210466
0.001208634
0.001208147
0.0002735889
0.00130077
0.001237877
0.001216325
0.001210081
0.001208224
0.001207726
0.0002738015
0.001301496
0.001238255
0.001216852
0.001210701
0.001208889
0.001208407
0.0002646453
0.001302139
0.001239628
0.001218755
0.001212894
0.001211221
0.001210786
0.0005969125
0.001304149
0.001244197
0.001224739
0.001219569
0.001218162
0.00121781
0.0002737963
0.001313448
0.001260758
0.001245287
0.00124145
0.00124043
0.001240169
0.0002743549
0.001343315
0.001313398
0.001305586
0.001303686
0.001303022
0.001302622
0.000286683
0.000101184
0.0001011841
0.0001011833
0.0001011834
0.0001011834
0.0001011833
0.0003254623
0.0003332442
0.0003332232
0.000332892
0.0003328182
0.0003322941
0.0002236167
0.0001018933
0.0001018185
0.000101711
0.0001016111
0.0001016323
0.0001015744
0.00026899
0.00134307
0.001312886
0.0013037
0.001301669
0.00130119
0.001301088
0.0002946184
0.001314618
0.001261579
0.001245974
0.001242105
0.001241136
0.001240925
0.0002666635
0.001305682
0.001245244
0.001225741
0.001220581
0.001219198
0.001218872
0.0002652791
0.001303179
0.00124047
0.001219577
0.001213722
0.001212068
0.001211655
0.0002659005
0.001302048
0.001238902
0.001217508
0.001211344
0.001209543
0.001209079
0.0002704824
0.001301847
0.001238355
0.001216762
0.001210471
0.001208613
0.001208127
0.0002650942
0.001302055
0.001238326
0.001216707
0.001210429
0.00120858
0.001208082
0.0002648629
0.00130225
0.001238772
0.001217415
0.001211364
0.001209628
0.001209103
0.0002647604
0.001302982
0.001240537
0.001220206
0.001214939
0.001213558
0.001212915
0.000270629
0.0006322443
0.0001011689
0.0002609978
0.0001011767
0.0005936056
0.0006127486
0.0005722514
0.0001011761
0.0001011757
0.0001013355
0.0001013348
0.0005775587
0.0005580473
0.0005517627
0.0001011762
0.0001011758
0.0001013423
0.0001013436
0.0005775676
0.0005495907
0.0005486158
0.0001011759
0.0001011758
0.0001013499
0.0001013507
0.0005771518
0.0005482511
0.0005480889
0.0001011759
0.0001011759
0.0001013589
0.0001013599
0.0005771097
0.0005480314
0.0005480091
0.0001011759
0.0001011759
0.0001013702
0.0001013715
0.0005480143
0.0001011759
0.0001013841
0.0006462552
0.0006331926
0.0002715252
0.0001012052
0.0002649382
0.0001011871
0.0006300938
0.000628409
0.0002647899
0.000101203
0.0002644272
0.0001011873
0.0006280473
0.0006278832
0.0002643799
0.0001012061
0.0002642806
0.0001011871
0.0006278316
0.0006278184
0.0002642746
0.0001012069
0.0002642578
0.0001011867
0.0006278065
0.0006278011
0.0002642555
0.0001012078
0.0002642479
0.0001011864
0.0006277973
0.0006277962
0.0002642463
0.0001012081
0.0002642408
0.0001011863
0.0006277973
0.0006278033
0.0002642396
0.0001012082
0.0002642367
0.0001011889
0.0006278109
0.0006278386
0.0002642348
0.0001012079
0.000264237
0.0001011912
0.0006278824
0.0006281162
0.0002642358
0.0001012072
0.0002642551
0.0001011932
0.0006285056
0.0006306289
0.000264259
0.0001012067
0.0002643908
0.0001011962
0.000634587
0.0006522029
0.0002644565
0.0001012054
0.0002657578
0.0001011991
0.000650305
0.0003159655
0.0002666654
0.0001011768
0.0002150651
0.0001011772
0.0001397282
0.0003114512
0.000310073
0.0001012566
0.0001395991
0.0003093094
0.0003080052
0.00032642
0.0003355861
0.0001016294
0.0001014658
0.0001396069
0.0003079595
0.0003078006
0.0003349946
0.000333491
0.0001013598
0.0001013466
0.0001396156
0.0003078968
0.0003077626
0.0003333102
0.0003329693
0.0001012107
0.0001012287
0.0001396267
0.0003079349
0.000307757
0.0003329135
0.0003328714
0.0001012001
0.0001012019
0.0001396389
0.0003079777
0.0003077648
0.0003328556
0.0003328796
0.0001011993
0.0001011986
0.0003080249
0.0003328804
0.0001012079
0.000685347
0.0006448327
0.0002202455
0.0001018301
0.0002681056
0.0001011904
0.0006504215
0.0006349465
0.0002670946
0.0001012919
0.0002656063
0.0001012104
0.0006313442
0.0006293434
0.0002655518
0.0001012433
0.0002653556
0.0001013105
0.000628965
0.0006286731
0.00026536
0.0001012492
0.0002652418
0.0001012276
0.0006286187
0.0006285279
0.0002652454
0.000101246
0.0002651519
0.0001012194
0.0006285091
0.0006284381
0.0002651526
0.0001012434
0.0002650605
0.0001011926
0.0006284235
0.000628359
0.0002650561
0.0001012398
0.0002649674
0.000101187
0.0006283457
0.0006282836
0.0002649589
0.000101236
0.0002648712
0.0001011867
0.000628275
0.0006282163
0.0002648596
0.0001012319
0.0002647735
0.0001011865
0.000628216
0.0006281737
0.0002647596
0.0001012276
0.0002646825
0.0001011864
0.0001011688
0.000272645
0.0001011688
0.0001011688
0.0002669008
0.0001011688
0.0003264769
0.0001015467
0.0003357943
0.0001013686
0.0001011688
0.00026681
0.0001011688
0.0001011688
0.0002665159
0.0001011688
0.0003352444
0.000101562
0.0003337348
0.0001012371
0.0001011688
0.0002664754
0.0001011688
0.0001011688
0.0002663832
0.0001011688
0.0003335565
0.0001013118
0.000333201
0.0001012357
0.0001011688
0.000266328
0.0001011688
0.0001011688
0.0002663755
0.0001011688
0.0003331548
0.0001013148
0.0003331019
0.0001012542
0.0001011688
0.0002663426
0.0001011688
0.0001011688
0.0002663938
0.0001011688
0.0003331017
0.0001012473
0.0003331545
0.0001013144
0.0001011688
0.0002663579
0.0001011688
0.0001011688
0.0002664361
0.0001011688
0.0003332012
0.0001012354
0.0003335562
0.0001013121
0.0001011688
0.0002665171
0.0001011688
0.0001011688
0.0002668488
0.0001011688
0.0003337323
0.0001012379
0.0003352372
0.0001015633
0.0001011688
0.0002669291
0.0001011688
0.0001011688
0.0002726666
0.0001011688
0.0003357783
0.0001013767
0.0003263975
0.0001015537
0.0001011689
0.000261093
0.000101177
0.000656931
0.0001011688
0.0001013379
0.0001013382
0.000652873
0.0006347593
0.0001011688
0.000101342
0.000101342
0.0006306803
0.0006285881
0.0001011688
0.0001013481
0.0001013484
0.000628151
0.0006279341
0.0001011688
0.0001013568
0.0001013572
0.0006278786
0.0006278586
0.0001011689
0.0001013679
0.0001013684
0.0006278565
0.0006278603
0.0001013816
0.0006278752
0.0001012036
0.0002644337
0.0001011873
0.0006306728
0.0006285779
0.000101206
0.0002642839
0.0001011871
0.00062814
0.0006279208
0.0001012077
0.0002679958
0.0001011863
0.0006278353
0.0006278663
0.0001012083
0.0002844261
0.000101187
0.0006282542
0.0006283159
0.0001011769
0.0002238547
0.0001011772
0.0006481526
0.0003140565
0.0003097196
0.000101263
0.0001383553
0.0003113386
0.000332845
0.0001012183
0.0001012013
0.0001396098
0.0001396201
0.0003660761
0.0003082025
0.0003325671
0.0001012155
0.0001012217
0.0001396195
0.000138387
0.0003083502
0.0003735123
0.0001011921
0.0001361496
0.0003740534
0.0001011977
0.0003202603
0.0001012155
0.0003112901
0.0001012522
0.0003103743
0.000101213
0.0003090656
0.000101252
0.000308244
0.0001012131
0.0003088478
0.0001012528
0.0003081449
0.0001012136
0.0003088493
0.0001012517
0.0003081378
0.0001012142
0.0003088466
0.00010125
0.0003081328
0.0001012145
0.0003088425
0.0001012474
0.0003081283
0.000101215
0.0003088375
0.0001012441
0.0003081235
0.0001012153
0.0003088318
0.0001012405
0.0003081186
0.0001012154
0.0003088259
0.0001012364
0.0003081149
0.0001012153
0.000308829
0.000101232
0.0003081661
0.0001012149
0.00030924
0.0001012267
0.000309784
0.0001012136
0.0003133322
0.0001012196
0.0003203212
0.0006240647
0.0003142273
0.0003129951
0.0001011845
0.0001011852
0.0001011771
0.0001011781
0.0006171069
0.0003128664
0.0003128022
0.0001011839
0.0001011855
0.0001011768
0.0001011789
0.0006163952
0.0003127975
0.0003127996
0.0001011833
0.0001011857
0.0001011772
0.0001011797
0.0006163138
0.000312799
0.0003128041
0.0001011834
0.0001011862
0.0001011777
0.0001011806
0.0006163141
0.0003128033
0.0003128136
0.0001011834
0.0001011867
0.0001011781
0.0001011816
0.0003128148
0.0001011834
0.0001011786
0.0001412244
0.000352137
0.0001396029
0.0003299018
0.0003301018
0.0001395961
0.0003300332
0.000330001
0.0001396048
0.0003298775
0.0003298889
0.0001396146
0.0003298389
0.0003298643
0.0001396252
0.0003298374
0.0003298671
0.0001396374
0.0003298497
0.0003298825
0.0001015425
0.0003255535
0.0001016887
0.0003154376
0.0006670902
0.0006308997
0.0006092009
0.0001019073
0.000101805
0.0001012161
0.0001012196
0.0006633756
0.0006042291
0.0006017441
0.0001018584
0.0001017777
0.0001012128
0.0001012084
0.0006630488
0.0006013026
0.0006010321
0.0001017633
0.0001017101
0.0001012055
0.0001012011
0.0006630137
0.0006010645
0.0006009975
0.0001017011
0.0001016641
0.0001012033
0.0001011984
0.0006630408
0.0006010831
0.0006010232
0.0001016709
0.0001016393
0.0001012026
0.0001011979
0.0006011544
0.0001016627
0.0001012028
0.0001013082
0.0003124104
0.0001015161
0.0003113356
0.0001012889
0.0003101231
0.000101471
0.0003091297
0.000101289
0.000309829
0.0001014677
0.0003089754
0.0001012828
0.0003097428
0.0001014499
0.0003089023
0.0001012779
0.0003096656
0.0001014341
0.0003088292
0.0001012726
0.0003095819
0.0001014174
0.000308753
0.0001012672
0.000309495
0.0001013991
0.0003086741
0.0001012615
0.0003094048
0.0001013798
0.0003085924
0.0001012556
0.000309311
0.0001013601
0.0003085079
0.0001011956
0.0001011956
0.0001011771
0.0002182563
0.0001011782
0.0005981479
0.0001011767
0.0002182694
0.0001011782
0.0003379479
0.0003382923
0.0001012275
0.000617637
0.0001012063
0.0002241318
0.0001012043
0.0006031419
0.0001011912
0.0001011955
0.0001011956
0.000101184
0.0002182121
0.0001011783
0.0005923996
0.0001011837
0.0002179281
0.0001011781
0.0003384334
0.0003383865
0.0001012129
0.0006117762
0.0001012018
0.0002237984
0.0001012236
0.0005974943
0.0001012022
0.0001011955
0.0001011954
0.0001011835
0.0002178648
0.000101178
0.0005872076
0.0001011835
0.0002178192
0.000101178
0.0003382992
0.0003382822
0.000101264
0.0005941526
0.0001011986
0.0002236804
0.0001012406
0.0005923001
0.0001011995
0.0001011954
0.0001011955
0.0001011835
0.0002178156
0.000101178
0.0005866845
0.0001011835
0.0002178115
0.0001011779
0.0003382551
0.0003382523
0.0001012626
0.000591976
0.0001011977
0.0002236614
0.0001012327
0.0005917917
0.0001011995
0.0001011955
0.0001011954
0.0001011835
0.000217812
0.0001011779
0.0005868712
0.0001011835
0.000217816
0.000101178
0.0003382488
0.0003382509
0.000101219
0.0005917927
0.0001011999
0.0002236732
0.000101263
0.0005919791
0.0001011977
0.0001011955
0.0001011954
0.0001011835
0.0002178193
0.000101178
0.0005890948
0.0001011835
0.0002178664
0.000101178
0.0003382602
0.0003382709
0.0001012404
0.00059231
0.0001011994
0.00022373
0.0001012639
0.000594175
0.0001011986
0.0001011954
0.0001011955
0.0001011837
0.0002179315
0.0001011781
0.0006071329
0.000101184
0.0002182746
0.0001011783
0.000338321
0.0003383521
0.0001012241
0.0005975575
0.0001012021
0.0002240825
0.0001012138
0.0006119971
0.0001012015
0.0001011957
0.0001011959
0.0001011767
0.00021846
0.0001011782
0.0006240193