/*--------------------------------*- C++ -*----------------------------------*\
  =========                 |
  \\      /  F ield         | OpenFOAM: The Open Source CFD Toolbox
   \\    /   O peration     | Website:  https://openfoam.org
    \\  /    A nd           | Version:  7
     \\/     M anipulation  |
\*---------------------------------------------------------------------------*/
FoamFile
{
    version     2.0;
    format      ascii;
    class       volScalarField;
    location    "0.01";
    object      p;
}
// * * * * * * * * * * * * * * * * * * * * * * * * * * * * * * * * * * * * * //

dimensions      [0 2 -2 0 0 0 0];

internalField   nonuniform List<scalar> 
109978
(
0.128287
0.1660932
0.1954173
0.2100425
0.2255563
0.2407141
0.1743005
0.2214177
0.2497149
0.262973
0.2775762
0.2928368
0.1865834
0.2401579
0.2757419
0.2896484
0.305806
0.3208647
0.1809771
0.2576412
0.2881915
0.3033651
0.3172103
0.3317537
0.1904197
0.2562242
0.2888145
0.3052692
0.3199119
0.33442
0.1851424
0.2598447
0.2899269
0.3062364
0.3206317
0.3350646
0.1859978
0.2601745
0.2902953
0.3066397
0.3210106
0.3353615
0.1860557
0.2605077
0.2906562
0.3070115
0.3213457
0.3356502
0.1860957
0.2607225
0.2908646
0.3072588
0.3215884
0.3358693
0.1861085
0.2608571
0.2910259
0.3074454
0.3217797
0.3360424
0.1861921
0.2609528
0.2911501
0.3075784
0.321923
0.3361881
0.186192
0.2610209
0.2912416
0.3077028
0.3220318
0.3362715
0.1862106
0.2610611
0.2912894
0.307753
0.3221099
0.3363513
0.1862135
0.2610944
0.2913325
0.3078182
0.3221649
0.3364087
0.1862199
0.261093
0.2913655
0.3078558
0.3222104
0.3364427
0.1862389
0.2611284
0.2913709
0.3078594
0.3222038
0.3364485
0.1862432
0.2611118
0.2913949
0.3078623
0.3221981
0.3364245
0.1862264
0.2611361
0.2913806
0.3078569
0.3221776
0.3364032
0.1861265
0.2611011
0.2913621
0.3078173
0.322151
0.3363658
0.1860916
0.2610112
0.2913149
0.3077008
0.3220083
0.336243
0.1859362
0.2609054
0.2912662
0.307607
0.3219233
0.3361413
0.1854659
0.2609369
0.291131
0.3075211
0.3218287
0.3360508
0.03909814
0.2609568
0.2910363
0.3073663
0.3217084
0.3358572
0.08078836
0.1729905
0.1978887
0.2132075
0.2297166
0.2453516
0.02014481
0.003930401
0.02162829
0.05468683
0.06477403
0.08392437
0.009824393
0.01005201
0.02460586
0.04852104
0.06464256
0.08283807
0.009119457
0.0257791
0.02184837
0.0570832
0.06700093
0.08524841
0.008120162
0.02017756
0.02129851
0.05250684
0.06536651
0.08409686
0.008568316
0.02710168
0.02334371
0.05630989
0.06761666
0.08551405
0.008120533
0.02490591
0.02232461
0.0549545
0.06701975
0.08529999
0.008220065
0.02663894
0.02352981
0.05599186
0.06767167
0.08567025
0.008135697
0.0263272
0.02340887
0.05600907
0.06782088
0.08584381
0.008145024
0.02659036
0.02364278
0.05620709
0.06800369
0.08600335
0.00815521
0.02665623
0.02374196
0.0563253
0.06813639
0.08613364
0.008163107
0.02671359
0.02382183
0.05641613
0.0682388
0.08623394
0.008165141
0.0267529
0.02387787
0.05648433
0.06831824
0.08631758
0.008169367
0.02677902
0.02391948
0.05653418
0.06837623
0.08637945
0.008171655
0.02680072
0.02395361
0.05657394
0.06842125
0.08642433
0.008175127
0.02681935
0.0239781
0.05660008
0.06844975
0.08645512
0.008179424
0.02682554
0.02399838
0.05662006
0.06846994
0.0864744
0.00817938
0.02683899
0.02401829
0.05664049
0.06848837
0.0864907
0.008181897
0.02683331
0.02403073
0.05665563
0.06850568
0.08650803
0.008183892
0.02683043
0.02404273
0.05666815
0.06851563
0.0865185
0.008182507
0.02679498
0.02405385
0.05667819
0.06851925
0.08652369
0.008182532
0.02676721
0.02407316
0.05668756
0.06851954
0.08651924
0.008175747
0.02673335
0.02411146
0.05666472
0.06849558
0.08648507
0.008150403
0.02693508
0.02418686
0.05661598
0.06842644
0.08639746
0.09721411
0.2205933
0.2502922
0.265679
0.2821637
0.2983097
0.01333737
-0.0002744842
0.03118127
0.05249611
0.06605235
0.08349479
0.001450537
0.01244555
0.04131624
0.04505279
0.06554103
0.08097353
0.00193429
0.02000528
0.03745354
0.05249014
0.06780135
0.0834718
0.001076046
0.01483506
0.03882667
0.04632658
0.06504832
0.08136351
0.001138305
0.01960712
0.04061025
0.05054908
0.06772345
0.08304413
0.0009475029
0.01669816
0.03924828
0.04837509
0.06663307
0.08255855
0.001104687
0.01858321
0.04069947
0.04965442
0.06743666
0.08301087
0.001037859
0.01795862
0.04039423
0.04953045
0.06752396
0.0831755
0.001047473
0.01825557
0.04064902
0.04973352
0.06770329
0.08334264
0.001054637
0.01830572
0.04074306
0.04984788
0.06783299
0.08347691
0.00106186
0.01836427
0.04082359
0.04993974
0.06793438
0.08358265
0.001066606
0.01840494
0.04088217
0.05000988
0.06801371
0.08366229
0.001070497
0.01843698
0.04092508
0.05006315
0.06807231
0.08372651
0.001073426
0.01846035
0.04095691
0.05010296
0.06811732
0.08377107
0.001075859
0.01847935
0.04098077
0.05013309
0.06815002
0.08380643
0.001078225
0.01849627
0.04100022
0.05015593
0.06817574
0.08382959
0.001080248
0.01851196
0.0410154
0.05017507
0.06819346
0.08384518
0.00108297
0.01853361
0.0410312
0.05019185
0.06821051
0.08385435
0.001085757
0.01856472
0.04104411
0.05020809
0.06822124
0.08386198
0.001088485
0.01861718
0.04106023
0.05022737
0.06823525
0.0838668
0.001088376
0.01869427
0.04107048
0.05024481
0.06823251
0.08386558
0.001081508
0.0187962
0.04107108
0.05026392
0.06823518
0.08387298
0.001056463
0.01886448
0.04103575
0.05024807
0.06819694
0.08386311
0.09907167
0.2496563
0.2795773
0.2930042
0.3086711
0.3242541
0.01485529
0.00836052
0.02973333
0.058324
0.06717114
0.08519386
0.002688436
0.0124907
0.03586773
0.0465466
0.06529554
0.08154852
0.004967344
0.03186223
0.03562374
0.06057899
0.070419
0.08600462
0.004024579
0.02449612
0.03530519
0.05263035
0.06704241
0.0833644
0.004767895
0.03274196
0.03897895
0.05885681
0.07087951
0.08571421
0.004525538
0.02886195
0.0367397
0.05610608
0.06948216
0.08509727
0.004750438
0.03157297
0.03875684
0.057776
0.0704922
0.08562517
0.004720949
0.03079281
0.03832516
0.05760904
0.07056959
0.08578911
0.004743413
0.03115057
0.03862532
0.05783085
0.07075773
0.08595004
0.004757123
0.03119781
0.03871905
0.05794892
0.07089006
0.08608072
0.004765889
0.03125462
0.03879931
0.05804205
0.07098817
0.08618113
0.004772156
0.03129231
0.03885758
0.05811082
0.07106862
0.08626016
0.004776935
0.03132057
0.03889838
0.05816431
0.07112299
0.086319
0.004780335
0.03134132
0.03893059
0.0582045
0.07116845
0.08636338
0.004782896
0.03135638
0.03895368
0.05823405
0.07119939
0.08639558
0.00478474
0.03136763
0.03897151
0.05825655
0.07122435
0.08641624
0.004786214
0.03137588
0.03898496
0.05827426
0.07124065
0.08643082
0.004786967
0.03138001
0.03899498
0.05829099
0.07125402
0.08643872
0.004786799
0.03138079
0.0390044
0.0583075
0.07126336
0.0864439
0.004784273
0.0313749
0.03901517
0.05833355
0.0712779
0.08644925
0.004777757
0.03137125
0.03903172
0.05836795
0.07129006
0.08645294
0.004759687
0.03137025
0.03907022
0.05843621
0.07134213
0.086496
0.004728355
0.0313976
0.03912454
0.05852387
0.07140185
0.08653135
0.09297066
0.2692416
0.284935
0.3010794
0.3184694
0.3345269
0.01486403
0.003691041
0.02961648
0.05553887
0.0657634
0.08417558
0.002034363
0.005038601
0.03721932
0.04306645
0.06371385
0.08030373
0.004774651
0.02564814
0.03467173
0.05630786
0.06845574
0.08443539
0.003032962
0.01414834
0.0344979
0.04725648
0.06442818
0.08144528
0.00368754
0.02304465
0.03764225
0.05371072
0.06838906
0.08383742
0.003374226
0.01839187
0.03512712
0.05054969
0.06675596
0.0830999
0.003585385
0.0212709
0.0371667
0.05228913
0.06778068
0.08362867
0.003555496
0.0203258
0.03665472
0.05207279
0.06783651
0.08378082
0.003578668
0.02069298
0.03694056
0.05228641
0.06801833
0.08394013
0.003593115
0.02073019
0.03702744
0.05240173
0.06814705
0.08406655
0.003602165
0.02078325
0.03710419
0.0524917
0.06824594
0.08416931
0.003608678
0.02081985
0.03715957
0.0525612
0.06832423
0.08424523
0.003613427
0.02084687
0.03720232
0.05261297
0.06838104
0.08430761
0.003616983
0.02086757
0.03723263
0.05265375
0.06842452
0.08435053
0.003619608
0.02088282
0.03725771
0.05268355
0.06845909
0.08438527
0.003621631
0.0208957
0.03727572
0.05270696
0.0684822
0.08440813
0.003623275
0.02090698
0.03729349
0.05272392
0.0685
0.08442326
0.003624761
0.02092029
0.03730743
0.05274099
0.06850993
0.08443389
0.003626
0.02093607
0.03732212
0.0527515
0.06850941
0.08443683
0.003627726
0.02095625
0.03733143
0.05276153
0.06849634
0.08444326
0.003629243
0.0209676
0.03731322
0.05273396
0.06843356
0.08442517
0.003631149
0.02097212
0.03729037
0.05271047
0.06834074
0.08444556
0.003601876
0.02093153
0.03717182
0.05256657
0.06809393
0.08438022
0.09388965
0.2664603
0.2859353
0.3022185
0.3187915
0.3345953
0.01494662
0.003810482
0.02963346
0.05553456
0.06574928
0.08414254
0.001932183
0.005035138
0.0372293
0.04307536
0.06372963
0.08032479
0.004867005
0.02565875
0.03468025
0.0563102
0.06846264
0.08445153
0.003024404
0.0141545
0.03450226
0.04725954
0.06443509
0.08145763
0.003677695
0.02305001
0.0376417
0.05370784
0.06839097
0.08384067
0.003341524
0.01839854
0.03512516
0.05054495
0.06675632
0.08310389
0.003551913
0.02128073
0.03716367
0.05228676
0.06778024
0.08362605
0.003519765
0.02033666
0.03665324
0.0520701
0.06783759
0.08378086
0.003541902
0.02070555
0.03693878
0.05228593
0.0680178
0.08393679
0.003555852
0.0207423
0.03702714
0.05240012
0.06814666
0.08406583
0.003564775
0.02079545
0.0371039
0.05249079
0.06824599
0.08416469
0.003571253
0.02083162
0.03716049
0.05256016
0.06832331
0.08424314
0.003575849
0.02085945
0.03720297
0.0526123
0.0683804
0.08430179
0.003579554
0.02088094
0.03723493
0.05265294
0.06842403
0.0843476
0.003582418
0.02089776
0.03726162
0.05268404
0.06845842
0.08438017
0.003584871
0.02091227
0.03728405
0.05271055
0.06848456
0.08440491
0.003587083
0.02092777
0.03730671
0.05273549
0.06850647
0.08442095
0.003589983
0.02094815
0.03733277
0.05276696
0.06853263
0.08443537
0.003593341
0.02098043
0.03737325
0.05281241
0.06855911
0.084448
0.00359835
0.02103907
0.03744239
0.05289734
0.06862048
0.0844838
0.003606001
0.02112535
0.03753206
0.05301963
0.06869752
0.08452081
0.003615934
0.02126436
0.03770646
0.05325944
0.06885312
0.08462975
0.00367821
0.02142912
0.03791119
0.05352129
0.06908989
0.08466714
0.0965894
0.2675064
0.2890965
0.3017368
0.3170351
0.3320265
0.01490843
0.008077021
0.02964481
0.05820949
0.06703838
0.08503967
0.002994626
0.01249619
0.03590567
0.04659175
0.06534372
0.08160272
0.005195572
0.03184819
0.03561545
0.06058172
0.07041457
0.08598192
0.00392351
0.02450344
0.03531694
0.05264337
0.06705336
0.08336795
0.004571639
0.03275688
0.03899354
0.05888129
0.07089675
0.08572194
0.004290519
0.02887981
0.03676122
0.05613423
0.06950114
0.08511236
0.004498407
0.03158896
0.0387807
0.05780186
0.0705101
0.08564198
0.004470657
0.03080801
0.03834812
0.05763409
0.07058606
0.08580451
0.00449309
0.0311648
0.03864754
0.05785316
0.0707733
0.08596209
0.00450714
0.03121057
0.03873938
0.05797018
0.07090192
0.08609186
0.004515974
0.031266
0.03881885
0.05806146
0.07100041
0.08619063
0.004522516
0.03130355
0.03887637
0.05812961
0.0710785
0.08626909
0.004527165
0.03133259
0.03891717
0.0581819
0.07113356
0.08632746
0.004530827
0.03135437
0.03894982
0.05822184
0.07117731
0.08637025
0.004533684
0.03137082
0.03897405
0.05825226
0.0712099
0.08640296
0.004536068
0.03138312
0.03899347
0.05827636
0.07123291
0.08642538
0.004538138
0.03139219
0.03900747
0.05829575
0.0712464
0.0864375
0.004540603
0.03139807
0.03901982
0.05831311
0.07125163
0.08644697
0.004544384
0.03139526
0.03902002
0.05832144
0.07122858
0.08644467
0.004548511
0.03138411
0.03901901
0.05834172
0.07118839
0.08647608
0.004553052
0.03133985
0.03895797
0.05831535
0.07102179
0.08645088
0.00455833
0.03129271
0.03891816
0.05841809
0.07085753
0.08686209
0.004580959
0.03116262
0.03865735
0.05832759
0.07025236
0.0868296
0.07981407
0.2411171
0.263276
0.2779422
0.2941649
0.3100719
0.0117778
-0.0002095844
0.03116352
0.05246776
0.06601255
0.08346165
0.003125943
0.01247415
0.04134677
0.04508218
0.06557679
0.08101496
0.003855203
0.02002863
0.03746967
0.05250518
0.06781437
0.08349466
0.002260718
0.01485902
0.03884377
0.04634583
0.0650658
0.08139318
0.002626387
0.01961847
0.0406297
0.05056605
0.06773599
0.08307257
0.002244107
0.01671534
0.039264
0.04839427
0.06664366
0.08258279
0.002436826
0.0185971
0.04071534
0.04967448
0.06744911
0.08302966
0.002373836
0.01797284
0.04040923
0.04955118
0.06753524
0.08318748
0.002375899
0.0182705
0.04066367
0.0497511
0.06771225
0.08335032
0.002384051
0.0183171
0.04075568
0.04986431
0.06783937
0.08347958
0.002390292
0.01837275
0.04083598
0.04995329
0.06794001
0.0835814
0.002395044
0.01841382
0.04089398
0.05002372
0.06801671
0.08365706
0.002398435
0.01844801
0.04093755
0.05007637
0.06807496
0.08371919
0.002401538
0.0184757
0.04097178
0.05011807
0.06812001
0.08376355
0.002404518
0.01849787
0.04100049
0.05015103
0.06815548
0.08380051
0.002407203
0.01851971
0.04102711
0.05018085
0.0681861
0.08382469
0.002410917
0.01854644
0.04105976
0.05021334
0.06821332
0.08384598
0.002417216
0.01859055
0.04110856
0.0502641
0.06824843
0.0838652
0.002427707
0.01865794
0.04118008
0.05033963
0.06829421
0.08388686
0.002445616
0.01878719
0.04131256
0.05048815
0.06837707
0.08394467
0.002471554
0.01897824
0.04149015
0.0506858
0.06850213
0.08396233
0.002511929
0.01928172
0.04178094
0.0510007
0.06861004
0.08394346
0.002568005
0.01958473
0.04213974
0.05120088
0.06893405
0.08390247
0.08358836
0.174353
0.2085629
0.2256196
0.242189
0.2579071
0.01190684
0.003974788
0.02165835
0.05470918
0.06480185
0.08392183
0.003604169
0.0100819
0.02462755
0.048564
0.06468817
0.0828726
0.004240988
0.02577024
0.02186361
0.05710446
0.06701495
0.08525959
0.00274376
0.02018697
0.0213093
0.05252499
0.06537264
0.08410662
0.00312736
0.02713009
0.02334573
0.056311
0.0676189
0.08550226
0.00288713
0.02495489
0.02233344
0.05495841
0.06702106
0.08530039
0.003067995
0.02668059
0.02354122
0.05599495
0.06767483
0.08567054
0.003048296
0.02637258
0.02342206
0.05601737
0.06782514
0.08584795
0.003065483
0.02663514
0.02365382
0.05621346
0.06800742
0.08600636
0.003078915
0.02669824
0.02375183
0.05632875
0.06813359
0.08613141
0.003082261
0.02673764
0.02382902
0.05641557
0.06823418
0.0862283
0.003091403
0.02677911
0.02388557
0.05648287
0.06830814
0.08630788
0.003095674
0.0268073
0.02392261
0.05653194
0.06836609
0.08636586
0.003096242
0.02683459
0.02395853
0.05657441
0.06840824
0.08640932
0.003100909
0.0268678
0.02398716
0.05660679
0.06844262
0.0864432
0.003102413
0.02687834
0.02401134
0.05663523
0.06846808
0.08646587
0.00310521
0.02689275
0.0240282
0.05665766
0.06848685
0.08648609
0.003106706
0.02690634
0.02406323
0.05669542
0.068497
0.08651499
0.003108109
0.0269352
0.02411152
0.05674068
0.0684609
0.08652416
0.003111034
0.02697559
0.02419803
0.05689406
0.06843739
0.08665445
0.003109206
0.02701456
0.02425716
0.05707038
0.06821007
0.08661988
0.003101299
0.02717637
0.02456916
0.05794562
0.06812914
0.08770834
0.003098065
0.02743567
0.02455504
0.05845364
0.06734863
0.08774975
0.03421291
0.1239572
0.1554614
0.1723387
0.1881645
0.2039878
0.001239346
0.03701682
0.1130511
0.1525737
0.1685432
0.184244
0.1994278
0.003759178
0.0467458
0.1601228
0.2066038
0.2217498
0.2364172
0.2515145
0.003506114
0.0459979
0.170624
0.22404
0.2362906
0.2486565
0.2628271
0.003111623
0.04125138
0.1674687
0.2232966
0.2361568
0.2496685
0.2644756
0.003096734
0.03908351
0.1684862
0.2258832
0.238365
0.2509476
0.2653438
0.003024158
0.03844366
0.1679309
0.2259142
0.2387045
0.2513638
0.2657344
0.003018569
0.03807841
0.1683976
0.2264444
0.239155
0.2517053
0.2660077
0.003015894
0.03795646
0.1684688
0.2266539
0.2394107
0.2519514
0.2662214
0.003009279
0.03804873
0.1685579
0.2267947
0.2395644
0.2521008
0.2663502
0.003019559
0.03807451
0.1686358
0.2269034
0.2396965
0.2522308
0.2664692
0.003021421
0.03818034
0.1686935
0.2269824
0.2397903
0.252333
0.2665689
0.003030373
0.03813803
0.1687335
0.2270518
0.2398816
0.2524358
0.2666602
0.003037302
0.03818856
0.1687999
0.2271218
0.2399483
0.2524953
0.2667143
0.003018653
0.0382559
0.1688306
0.2271659
0.2399966
0.2525512
0.2667701
0.003021602
0.03823648
0.1688617
0.2271937
0.2400311
0.2525856
0.2668099
0.003022874
0.03827916
0.1688696
0.2272098
0.2400563
0.2526181
0.2668481
0.003029719
0.03830193
0.1689181
0.2272428
0.2400799
0.2526528
0.266879
0.003025078
0.0383518
0.1689975
0.2273011
0.240108
0.2526649
0.2668838
0.003028042
0.03844191
0.1691062
0.2273876
0.2401573
0.2526923
0.2668716
0.003035511
0.03861786
0.1693223
0.2275646
0.2402538
0.2527397
0.2668767
0.003047388
0.03896957
0.1697594
0.2279607
0.2405012
0.2528227
0.2668129
0.003066587
0.03952983
0.1704711
0.228887
0.2410137
0.2531598
0.2666035
0.003089037
0.04007195
0.1709843
0.2301195
0.2424467
0.2545532
0.2666539
-0.0579667
-0.02458994
0.007127044
0.02236052
0.09890397
-0.07150185
0.03459624
-0.1165386
0.0348429
0.007313758
0.1240757
-0.06640244
0.1239823
-0.1081009
0.08387498
-0.01086504
0.1484256
-0.05161301
0.1553894
-0.09570486
0.1107134
-0.00381904
0.1637705
-0.03631393
0.1721981
-0.0793673
0.1272999
0.01054959
0.1792069
-0.02056648
0.1881568
-0.0634111
0.1431448
0.0262634
0.1947027
0.2039345
0.1587297
-0.1111672
-0.06648201
0.001254628
0.002992964
0.003732824
0.01570858
-0.06963981
-0.08519848
0.003759471
0.01268791
0.003642798
0.01768829
-0.064049
-0.08597079
0.003497163
0.01386975
0.003204526
0.01093873
-0.08982495
-0.08593894
0.003097221
0.01043476
0.003074977
0.01047203
-0.08417569
-0.08561088
0.003091006
0.01045549
0.003055305
0.01023047
-0.08714938
-0.08689425
0.003017886
0.009830649
0.003001866
0.009729952
-0.08695585
-0.08642674
0.003012687
0.009915982
0.003008571
0.009848642
-0.08670338
-0.08667968
0.003004261
0.009818841
0.003002737
0.009808845
-0.08672345
-0.08664807
0.003003842
0.009835892
0.003006437
0.009845574
-0.08676431
-0.08656943
0.003007297
0.009879342
0.003010205
0.009895309
-0.08663262
-0.0866001
0.003010165
0.009907909
0.003011796
0.009913206
-0.08663444
-0.0865767
0.003011937
0.009917033
0.003013151
0.0099196
-0.08666624
-0.08658111
0.003013611
0.009937265
0.003015166
0.009942255
-0.08661928
-0.08657567
0.003014858
0.009943077
0.003016044
0.009940503
-0.08668702
-0.08647518
0.003016249
0.00996194
0.003018005
0.009970467
-0.08656864
-0.08657547
0.003017006
0.00997088
0.003017785
0.009969706
-0.08660126
-0.08651265
0.003017144
0.009967461
0.00301809
0.009967634
-0.08663447
-0.08653216
0.003017591
0.009983186
0.003019476
0.009990546
-0.08664086
-0.0865147
0.003019504
0.01000016
0.003020339
0.009995364
-0.08668096
-0.08648951
0.003020861
0.01002242
0.003023395
0.01002783
-0.08667078
-0.08634279
0.003024886
0.01006014
0.003027348
0.01006811
-0.08674135
-0.08710189
0.003029757
0.01010839
0.003029196
0.01006877
-0.08689853
0.08004945
0.003017228
0.009930274
0.003027927
0.01017074
0.002855504
0.001063639
0.0329773
0.01769734
0.007494276
0.05520346
0.01221585
0.006529213
0.03700257
0.01511681
0.006540919
0.04438472
0.01782604
0.006156442
0.0379692
0.0203149
0.005986056
0.03619105
0.021457
0.005920527
0.03443566
0.02229638
0.005754773
0.03325897
0.02138709
0.005802072
0.03341977
0.02247992
0.005868595
0.03425629
0.02186297
0.006027364
0.03634098
0.01685975
0.006173864
0.03801541
0.0129748
0.006469188
0.04479139
0.01496314
0.006480897
0.03746758
0.02259915
0.00747785
0.05515757
-0.001572059
0.001438093
0.03184475
-0.02678049
0.007035943
0.02178524
-0.05815947
0.1587742
0.1947288
0.002873776
0.003729687
0.01562831
-0.1112477
-0.06656363
0.01265962
0.0036471
0.01765878
-0.06964473
-0.08500061
0.01037088
0.003078368
0.01040401
-0.08966046
-0.0857203
0.01043195
0.003061515
0.0102038
-0.0842066
-0.08551138
0.009805251
0.003004124
0.009699129
-0.0870995
-0.08714936
0.009910329
0.003016325
0.009839856
-0.08714363
-0.08657007
0.009857606
0.003009815
0.00987665
-0.08684952
-0.08673726
0.009868133
0.003014126
0.009890064
-0.08705739
-0.08653872
0.009947268
0.003016586
0.009909536
-0.08621021
-0.08712935
0.009996318
0.00303308
0.009984297
-0.08714599
-0.08657243
0.009917542
0.003032373
0.009924048
-0.08659416
-0.08649324
0.01002854
0.003022343
0.01004919
-0.08661552
-0.08681683
0.009988693
0.003024206
0.009996126
-0.08715667
-0.08644621
0.00997552
0.003020099
0.009960676
-0.08664223
-0.08665171
0.01000182
0.003025001
0.009980036
-0.08668969
-0.08656421
0.01004647
0.003025392
0.01004388
-0.08652088
-0.08669759
0.01006529
0.003033717
0.01006886
-0.08666031
-0.086396
0.01011223
0.003042409
0.01015198
-0.08649684
-0.0863422
0.01023929
0.00305861
0.0102986
-0.08624562
-0.08608086
0.01043393
0.003080348
0.01047854
-0.08563376
-0.08602395
0.01063217
0.003099724
0.01070227
-0.0850435
0.08071662
-0.005544083
-0.04160271
-0.009191721
-0.02784575
-0.001794809
-0.02581222
-0.004020179
-0.02521929
-0.004168177
-0.02432611
-0.0008252744
-0.02239233
-0.002218143
-0.02215116
-0.0006829647
-0.02282396
-0.0006371161
-0.02305288
7.467062e-06
-0.02245943
-8.332129e-05
-0.02221118
-0.0001308419
-0.02241887
-9.717852e-05
-0.02252854
-9.6485e-05
-0.02250375
-9.023315e-05
-0.02244359
-8.720698e-05
-0.0224352
-7.573166e-05
-0.02243664
-6.946558e-05
-0.02244111
-7.434857e-05
-0.02243743
-7.211029e-05
-0.0224251
-6.345328e-05
-0.0224112
-5.116499e-05
-0.02240833
-4.759159e-05
-0.02240308
-4.078926e-05
-0.02240592
-4.650018e-05
-0.02240977
-4.814552e-05
-0.02240118
-4.939998e-05
-0.0223849
-3.929825e-05
-0.02240012
-4.41557e-05
-0.02240072
-5.181122e-05
-0.02238767
-4.470325e-05
-0.02237619
-3.934474e-05
-0.0223892
-3.831811e-05
-0.02238779
-4.272993e-05
-0.0223961
-4.66767e-05
-0.02239496
-5.812148e-05
-0.02239086
-5.505701e-05
-0.0223778
-5.015677e-05
-0.02239457
-4.720466e-05
-0.02239523
-5.409938e-05
-0.02238756
-5.438136e-05
-0.02238435
-6.058712e-05
-0.02240385
-6.128512e-05
-0.02241631
-9.461803e-05
-0.0224402
-9.001184e-05
-0.02244451
-0.0001968348
-0.02256011
-0.000166175
-0.02261027
-0.04401445
-0.05843447
-0.0483767
-0.03813984
-0.0559377
-0.03723136
-0.03982001
-0.04193168
-0.04591651
-0.03632197
-0.04500865
-0.048006
-0.04792242
-0.05000583
-0.03548215
-0.04885716
-0.03551956
-0.04451082
-0.1166212
0.03461442
0.00719655
0.09877137
-0.07158408
-0.1080383
0.08384129
-0.01083954
0.1240672
-0.06636663
-0.09557201
0.1107287
-0.003756385
0.1485041
-0.05154207
-0.0792735
0.1273509
0.01062419
0.1638649
-0.03622261
-0.06329616
0.1432053
0.02632766
0.1793018
-0.02050793
0.01387143
0.003224168
0.01097992
-0.06406475
-0.08579858
0.009998232
0.003023269
0.01000716
-0.08681762
-0.08670244
8.961585e-05
-0.02563155
-0.006065997
-0.04866606
-0.03324461
-0.03460886
-0.003954664
-0.02561917
-0.007040876
-0.02573215
-0.002546527
-0.0224669
-0.002740322
-0.02383034
-0.0009477989
-0.02262087
-0.0005461558
-0.0221192
-0.0004852604
-0.02257462
-0.0005577675
-0.0230237
2.114611e-05
-0.02235761
-1.170703e-05
-0.02224944
-0.0001404863
-0.02252091
-0.0001358363
-0.02254605
-6.511316e-05
-0.02242519
-8.33339e-05
-0.02244736
-7.22129e-05
-0.02243635
-7.654744e-05
-0.02244362
-6.339104e-05
-0.02242938
-6.865892e-05
-0.02243807
-4.862792e-05
-0.02240489
-5.532582e-05
-0.02241568
-3.728275e-05
-0.02240146
-4.599586e-05
-0.02240375
-4.290632e-05
-0.02240398
-4.731528e-05
-0.02240986
-2.797632e-05
-0.0223952
-3.882441e-05
-0.0223877
-3.503887e-05
-0.02239321
-4.164958e-05
-0.02239993
-3.024233e-05
-0.02238436
-4.330627e-05
-0.0223819
-3.427554e-05
-0.0223925
-4.146234e-05
-0.02238915
-4.007972e-05
-0.0223943
-5.085717e-05
-0.02239554
-3.969539e-05
-0.02239096
-4.951452e-05
-0.02238152
-5.052448e-05
-0.02238654
-4.699462e-05
-0.02239093
-2.940412e-05
-0.02239734
-4.717188e-05
-0.02238818
-6.545062e-05
-0.02243103
-7.491832e-05
-0.02241918
-0.0001249042
-0.02252586
-0.0001010768
-0.02244917
-0.0002781229
0.04818144
-0.02264268
-0.0004013056
-0.03882872
-0.03628359
-0.0447777
-0.05501386
-0.03900513
-0.03686813
-0.0464518
-0.04543288
-0.04778147
-0.04764856
-0.04919168
-0.0513447
-0.0535303
-0.03563938
-0.04695322
-0.05140775
-0.007602206
-0.04247321
0.02741216
-0.05396825
-0.03147993
0.05075254
-9.876856e-05
-0.02567146
-0.006318869
-0.04884645
0.0707844
0.1497033
0.1458796
0.05322558
-0.009206741
-0.02791897
-0.001764787
-0.02585576
-0.003944317
-0.02564352
-0.007017144
-0.02576932
-0.003974846
-0.02523697
-0.004138084
-0.0243254
-0.002512241
-0.02245715
-0.00271313
-0.02382966
-0.0006395339
-0.02273505
-0.0006197255
-0.02304747
-0.0004466255
-0.02258604
-0.0005319898
-0.02300633
4.548235e-05
-0.02246967
-3.114635e-05
-0.02221289
6.748928e-05
-0.02235818
3.627117e-05
-0.02225031
-1.964095e-05
-0.02240793
-2.230505e-05
-0.02241793
-2.14365e-05
-0.02239958
-5.090662e-06
-0.02224257
-1.431499e-06
-0.02238319
1.983022e-05
-0.02237227
-1.019865e-05
-0.02236224
-9.729666e-07
-0.02236737
1.971883e-05
-0.02235837
1.260242e-05
-0.02221144
1.56194e-05
-0.0223834
3.941124e-05
-0.02234178
3.958493e-05
-0.02235724
3.079759e-05
-0.02233619
3.871657e-05
-0.02235627
3.197378e-05
-0.02234132
4.882252e-05
-0.02234034
6.62948e-05
-0.02233495
8.95449e-05
-0.02233337
7.381412e-05
-0.02231155
0.0001068836
-0.02229282
0.000128857
-0.02229816
0.000165105
-0.02228561
0.000130406
-0.02227182
0.0002169387
-0.02228498
0.000177542
-0.02229737
0.0002472804
0.04978157
-0.02232126
0.0002821427
-0.02039432
-0.01101196
-0.0349783
-0.03572145
-0.02786491
-0.02570833
-0.02910268
-0.02775122
-0.03152765
-0.02634542
-0.02790205
-0.02576092
-0.02623781
-0.02705878
-0.03062636
-0.03020859
-0.028905
-0.02946234
-0.03854751
-0.03628572
0.02791127
-0.05310445
-0.03049374
0.05157265
-0.03878984
-0.04429539
-0.02923333
-0.02546387
-0.02949952
-0.03322434
-0.02775087
-0.02775822
-0.02616199
-0.02779542
-0.02666339
-0.02752751
-0.02693634
-0.02745777
-0.02719796
-0.02583526
-0.03300988
-0.03417308
-0.02001815
-0.009947081
-0.01667557
-0.003662012
-0.0114051
-0.008893264
0.07277472
0.1799013
0.1602974
0.05901358
-0.006918924
-0.002889755
-0.0006045064
-0.009603935
-0.004609121
0.001860033
0.002349403
-0.005598249
-0.00384955
0.002705797
-0.005030887
0.003280274
-0.003831051
0.002727987
-0.004997476
0.003325629
-0.003736563
0.002714607
0.003406819
-0.004998968
-0.003760693
0.002722969
-0.005003862
0.003388267
-7.448309e-05
-0.02241593
-4.049387e-05
-0.0225408
-7.497399e-05
-0.02251332
-4.936757e-05
-0.0225528
-4.409748e-05
-0.02250564
-1.896714e-05
-0.02241435
-7.601563e-06
-0.02238103
1.861014e-05
-0.0222454
-6.507519e-06
-0.02239643
2.475369e-05
-0.02238846
2.014599e-05
-0.02236721
3.178568e-05
-0.02239157
1.66494e-06
-0.02239646
1.253438e-05
-0.02228969
-2.692131e-05
-0.0223377
5.403188e-06
-0.02227771
-6.483164e-05
-0.02234294
-7.067746e-06
-0.02214548
-6.749259e-05
-0.02227239
-4.624107e-05
-0.02215262
-6.617195e-05
-0.02231781
-6.876577e-05
-0.02234635
-6.133072e-05
-0.02231291
-5.557618e-05
-0.02234636
-1.76601e-05
-0.02227674
-8.234492e-06
-0.02215784
8.737312e-06
-0.02232486
4.393373e-05
-0.02214471
3.18775e-05
-0.02232876
6.475669e-05
-0.02229207
5.586966e-05
-0.02236329
3.608931e-05
-0.02231173
2.548664e-05
-0.02236162
4.413615e-05
-0.0223848
4.147742e-05
-0.02236542
4.483686e-05
-0.02238535
-0.003762289
0.002673821
0.003384007
-0.005043874
-0.003760347
0.002718871
-0.005004522
0.003381116
-0.003754554
0.002703988
0.003393633
-0.005023834
1.265959e-05
-0.0223129
3.498904e-05
-0.02219945
-0.003750258
0.002685326
-0.005021907
0.003391951
-0.003739608
0.002725092
-0.004992713
0.003396404
-0.003740816
0.00273124
0.003393608
-0.004986967
-0.003730278
0.002738734
-0.004976705
0.003403171
-0.003715831
0.002756118
0.003414631
-0.004953909
0.0001688181
-0.02226963
0.0001991374
-0.02226078
-0.003712388
0.002788345
0.003414177
-0.004913339
-0.003675937
0.002739698
0.003412656
-0.004912108
0.03471669
-0.0574872
-0.05311311
0.05330722
-0.03840272
-0.006877037
-0.02274329
-0.03304161
-0.02480682
-0.04967744
-0.02868657
-0.02669149
-0.02668744
-0.02593888
-0.03566425
-0.03053039
-0.02758705
-0.02667414
-0.03061741
-0.03046321
-0.03019255
-0.0268767
-0.02737337
-0.0301271
-0.0280319
-0.02619812
-0.0464054
-0.04467668
0.05110867
0.03438072
-0.04052731
-0.02949524
-0.03038648
0.05867987
0.045026
-0.008922424
0.08120057
-0.01194748
0.002726599
0.0737143
-0.01070555
0.08708426
0.07544365
0.01227605
0.1026317
0.006722565
0.02385331
0.09837475
0.005583188
0.1044042
0.09388711
0.02952778
0.1187621
0.02223969
0.03969082
0.1147464
0.02106962
0.1198986
0.1094645
0.04510332
0.1342364
0.03773324
0.05528359
0.1303293
0.03664292
0.06070444
0.1354876
0.1250849
-0.02239022
-0.002213793
-0.02205742
-0.000826414
-0.02251872
-0.0005429072
-0.02204102
-0.0009833842
-0.02234182
3.62979e-05
-0.02237377
3.288867e-05
-0.02237008
4.125346e-05
-0.02236545
4.438718e-05
-0.05058701
-0.04405587
-0.02716383
-0.02656638
-0.02660293
-0.02904222
-0.02822324
-0.0268924
-0.02660195
-0.029148
-0.0268839
-0.02707022
-0.02749212
-0.02676517
-0.0307105
-0.03017817
-0.03170908
-0.02850559
-0.02600161
-0.04916766
0.03450928
-0.05843296
0.05324009
-0.05381099
-0.03854542
-0.007212788
-0.03182385
-0.02298602
-0.01817679
-0.01738397
-0.024691
-0.007077773
0.1537249
0.1745484
0.0609723
-0.004513891
0.002409572
0.002480019
-0.00509871
-0.00385689
0.002604432
-0.005095327
0.003274995
-0.003732209
0.002748618
-0.004974754
0.003412073
-0.003751192
0.002726564
0.00341097
-0.005025472
-0.003763663
0.002719354
0.003377622
-0.005004627
-0.003750535
0.002722077
-0.004999726
0.003389914
-0.003740569
0.002727315
0.003416392
-0.005021368
-0.003754581
0.002725477
0.003384517
-0.004995716
-0.003739571
0.002725422
-0.004994201
0.003397076
-0.003736409
0.002731847
-0.004986369
0.003397958
-0.003721925
0.002751397
0.003410001
-0.004961946
-0.003723569
0.002749919
-0.004964132
0.003407911
-0.003701321
0.002779644
0.003425098
-0.004924065
-0.003683335
0.002787529
0.003437163
-0.0049009
-0.003733147
0.002809518
-0.004865401
0.003382534
0.003691685
0.00457478
0.002596126
0.003175972
0.003111553
0.04088036
0.1725727
0.2310899
0.2450296
0.2511308
0.2676769
0.080321
0.003022757
0.01031159
0.048201
-0.0003093682
0.01106752
0.08062067
0.04985501
0.0003326301
-0.02904557
0.05170282
0.03489969
-0.0401898
0.002741275
0.08123098
0.07377997
-0.01189564
0.02381743
0.102598
0.09835136
0.006740246
0.03963754
0.1187111
0.1147221
0.02221878
0.0552006
0.1341538
0.1302528
0.03770167
0.07073525
0.1496956
0.1458257
0.05322819
-0.006917744
-0.002903378
-0.009604013
-0.0006119959
-0.004608293
0.00186547
-0.005598286
0.002354778
-0.003934771
0.002799418