/*--------------------------------*- C++ -*----------------------------------*\
  =========                 |
  \\      /  F ield         | OpenFOAM: The Open Source CFD Toolbox
   \\    /   O peration     | Website:  https://openfoam.org
    \\  /    A nd           | Version:  7
     \\/     M anipulation  |
\*---------------------------------------------------------------------------*/
FoamFile
{
    version     2.0;
    format      ascii;
    class       surfaceScalarField;
    location    "0.01";
    object      phi;
}
// * * * * * * * * * * * * * * * * * * * * * * * * * * * * * * * * * * * * * //

dimensions      [0 3 -1 0 0 0 0];

internalField   nonuniform List<scalar> 
228133
(
3.293417e-05
-1.652121e-05
-0.0004602458
-4.263117e-05
-1.477718e-05
3.724441e-05
4.776303e-07
1.493238e-05
-1.003971e-05
-0.0004405298
-9.501105e-05
4.836163e-06
-4.310694e-06
-0.0004479135
-0.0001081262
5.061704e-06
-5.644967e-06
-0.0004694569
-0.00011442
6.541626e-06
-7.132942e-06
-0.0004989073
-0.0001216089
8.127977e-06
-0.0005354805
-0.0001305475
-8.689266e-06
-9.264935e-05
-0.001892154
-4.686984e-05
0.0004468918
0.0004462189
0.0005603601
0.0005529553
8.533468e-05
-9.734527e-05
7.862238e-05
-4.136419e-05
-0.0001296995
-0.001946445
-3.545844e-05
0.0004525046
0.0004471681
0.0005621047
0.0005571762
-0.0001625424
-0.002015754
-4.32926e-05
0.0004686811
0.0004666271
0.0005788927
0.000577689
-0.0002008191
-0.002114206
-5.04297e-05
0.0004946056
0.0004917166
0.0006081218
0.0006084682
-0.0002450235
-0.002245189
-5.51882e-05
0.0005269227
0.000523056
0.0006466972
0.0006479063
-0.002410212
-5.984948e-05
0.0005663392
0.000694553
-0.0002936273
0.0005615566
0.0006962173
-0.0001060242
-0.001807735
-1.750963e-05
0.0001113624
-9.253097e-05
6.745171e-05
-4.716869e-05
-0.0001794754
-0.001826143
-4.685054e-05
-0.0002510298
-0.001890825
-5.337481e-05
-0.0003233508
-0.00198381
-5.807425e-05
-0.0003990095
-0.002108028
-6.150223e-05
-0.002262896
-6.639916e-05
-0.0004799265
-0.0001794069
-0.001719137
-7.543044e-06
0.0001224694
-7.63613e-05
8.13156e-05
-2.907134e-05
-0.0002631056
-0.001736723
-5.72112e-06
-0.0003550653
-0.001795062
-3.803105e-06
-0.0004533789
-0.001881446
-4.050099e-06
-0.0005581497
-0.001998368
-4.889225e-06
-0.002145571
-4.497678e-06
-0.0006709768
-0.0002231648
-0.001603169
-1.241174e-05
0.0001221939
-6.532146e-05
8.329598e-05
-2.056026e-05
-0.0003305825
-0.001617002
-1.230347e-05
-0.0004481613
-0.001670597
-6.88622e-06
-0.0005718442
-0.001750257
-7.506084e-06
-0.0007043457
-0.001858811
-7.055049e-06
-0.001995782
-7.512655e-06
-0.0008466218
-0.0002696459
-0.001467528
-1.301402e-05
0.0001214801
-5.217748e-05
8.684931e-05
-9.133085e-06
-0.0003971304
-0.001479588
-9.929389e-06
-0.0005368153
-0.00152811
-2.801803e-06
-0.0006844007
-0.001600388
-2.283957e-06
-0.0008425496
-0.001699672
-9.898111e-07
-0.001824764
-8.201673e-07
-0.001012747
-0.000310252
-0.001310352
-1.596238e-05
0.0001182519
-3.881694e-05
8.818981e-05
1.413275e-06
-0.0004572205
-0.001320722
-1.189781e-05
-0.0006178913
-0.001364082
-3.356797e-06
-0.0007876461
-0.001428367
-2.266057e-06
-0.0009696176
-0.001517094
-6.06973e-07
-0.001628711
-2.736458e-07
-0.001165397
-0.0003469598
-0.001134886
-1.786809e-05
0.0001132717
-2.493477e-05
8.838736e-05
1.263854e-05
-0.0005111612
-0.001143777
-1.274373e-05
-0.0006908188
-0.001181377
-3.048082e-06
-0.0008806464
-0.001237015
-1.524592e-06
-0.001084088
-0.001314069
4.163189e-07
-0.001410626
8.848477e-07
-0.001303057
-0.0003800034
-0.000943516
-1.845178e-05
0.000107038
-1.056844e-05
8.763141e-05
2.298369e-05
-0.0005593297
-0.0009518726
-1.257788e-05
-0.0007563718
-0.0009830117
-1.322871e-06
-0.00096403
-0.001030264
9.078161e-07
-0.001186785
-0.001094636
3.322653e-06
-0.001175412
4.196841e-06
-0.001426197
-0.0004056235
-0.000738376
-1.933642e-05
9.922472e-05
3.990499e-06
8.456736e-05
3.203721e-05
-0.0005988649
-0.0007477617
-1.086946e-05
-0.0008106126
-0.0007718637
5.998671e-07
-0.001034411
-0.0008093575
2.892032e-06
-0.00127424
-0.0008597579
4.950501e-06
-0.000923276
5.548323e-06
-0.001531924
-0.0004324023
-0.0005323148
-1.276089e-05
9.155142e-05
2.125199e-05
8.258826e-05
4.371034e-05
-0.0006354553
-0.0005450466
3.378429e-07
-0.0008610514
-0.0005610313
1.47638e-05
-0.001098163
-0.0005908294
1.858317e-05
-0.00135153
-0.0006285266
2.213611e-05
-0.0006757228
2.471547e-05
-0.001623798
-0.0004425965
-6.478024e-05
-5.823087e-06
8.185654e-05
3.944134e-05
7.698185e-05
5.282721e-05
-9.802128e-05
-7.794679e-05
-9.425394e-05
-0.0006592231
-5.450355e-05
2.052732e-05
-0.0001138363
-7.781019e-05
-0.0001027972
-0.0008935748
-4.205555e-05
2.699626e-05
-0.0001285676
-7.317259e-05
-0.00010988
-0.001141107
-3.225335e-05
3.033951e-05
-0.0001471879
-7.298987e-05
-0.0001212056
-0.001405909
-2.243611e-05
3.204426e-05
-0.0001671825
-7.284753e-05
-0.0001333022
-1.351292e-05
3.397069e-05
-7.442678e-05
-0.001690089
-0.0001898014
-0.0001477727
5.98391e-05
-8.055498e-05
1.754014e-06
-7.703683e-06
-1.102088e-05
-1.349487e-05
-1.359888e-05
0.0001260332
-0.0001408475
2.22872e-06
-1.350082e-05
-3.886374e-06
-8.978826e-06
-1.555186e-05
0.0001964919
-0.0002024685
-1.06922e-07
-1.297079e-05
8.535006e-07
-6.476122e-06
-1.737855e-05
0.0002659075
-0.0002650267
-1.380634e-06
-1.273807e-05
5.169473e-06
-4.541469e-06
-1.964339e-05
0.0003397541
-0.0003318296
-2.446557e-06
-1.270566e-05
9.562396e-06
-2.5204e-06
-2.225032e-05
0.0004186773
-3.219223e-06
-1.320839e-05
1.38476e-05
-7.508419e-07
-2.532135e-05
-0.000403538
4.320412e-06
-9.472965e-08
-3.799785e-06
-1.579729e-07
-2.679205e-07
9.324004e-06
-1.139312e-06
-7.678942e-06
7.805928e-08
-5.838075e-07
1.44054e-05
-2.203286e-06
-1.159709e-05
3.264346e-07
-9.314627e-07
1.960826e-05
-3.251889e-06
-1.569385e-05
5.576302e-07
-1.22014e-06
2.512468e-05
-4.375441e-06
-2.001695e-05
8.132204e-07
-1.545513e-06
3.095175e-05
-5.531888e-06
-2.459941e-05
1.072627e-06
-1.893082e-06
-0.002864828
-0.0007305677
0.0007564035
0.008491386
0.003141089
-0.002782904
-0.003102304
-0.002908272
-0.002790017
-0.001274295
0.001433974
0.008494744
0.002763183
-0.002640453
-0.00304634
-0.002940794
-0.002727909
-0.001616219
0.001763508
0.008564067
0.002356685
-0.002537108
-0.002930605
-0.002872418
-0.002739183
-0.002067496
0.002270794
0.008639192
0.002135243
-0.002468992
-0.002923157
-0.0028464
-0.002755606
-0.002618343
0.002837282
0.008724815
0.002012145
-0.002430402
-0.002931393
-0.002838499
-0.002783469
-0.00319617
0.008816553
0.001985829
-0.00241512
-0.002946911
-0.002837402
0.003376689
0.005555549
0.03156316
0.002177773
-0.001998748
0.0009375706
-0.002045686
-0.0002453839
-0.008007214
-0.008082231
-0.009770929
-0.01008386
0.007120476
0.03153696
0.005038386
-0.008589899
-0.00812616
-0.01062672
-0.01079749
0.008768792
0.03110681
0.005579563
-0.0087798
-0.008198977
-0.01080968
-0.01054623
0.0105677
0.03098014
0.005479091
-0.008949496
-0.008216765
-0.01072876
-0.01036312
0.01243647
0.03103656
0.005227944
-0.009088485
-0.008165908
-0.01064476
-0.01023413
0.03118143
0.005052027
-0.00921881
-0.0106467
0.01432175
-0.008100557
-0.01015267
0.003626609
0.02907583
-6.671302e-05
-0.001828902
0.001316918
-0.001077179
0.0005166041
0.006151393
0.02889334
0.0001188309
0.008397179
0.02882814
3.288761e-05
0.01050169
0.02892973
-5.410393e-05
0.01250147
0.02908157
-4.478368e-05
0.02929178
-4.184857e-06
0.0143953
0.004550245
0.0267505
0.000335769
-0.002075481
0.0008882718
-0.00143863
6.515046e-05
0.006540827
0.02645558
0.0004471809
0.008592893
0.02639011
0.0003859621
0.01063705
0.02650613
0.0003794349
0.01264175
0.02669052
0.000386352
0.02698868
0.000382097
0.01456276
0.004444153
0.02449216
0.0001426431
-0.001915706
0.0008072362
-0.001308313
8.833541e-05
0.006560935
0.02420143
0.0001373661
0.008716965
0.02420804
2.603564e-05
0.01083245
0.02437503
1.561273e-05
0.01288828
0.02463712
-2.434301e-06
0.02502229
2.955093e-06
0.01485171
0.00468209
0.02213536
0.0002169489
-0.001843378
0.0006503738
-0.001317867
-3.137214e-05
0.006803356
0.02188876
0.0001914058
0.009004965
0.02194265
6.378047e-05
0.01116742
0.02216019
5.239058e-05
0.01326499
0.02251261
2.693654e-05
0.02299201
2.489966e-05
0.01527037
0.004827394
0.01969996
0.0002261921
-0.001733564
0.0005124549
-0.001277206
-0.0001198665
0.007029988
0.01951006
0.0001761007
0.009308371
0.01962538
3.889127e-05
0.01155198
0.0198935
2.307819e-05
0.01373668
0.02033091
-2.990501e-06
0.02091559
-7.363031e-06
0.01582046
0.005020695
0.01716942
0.0002458738
-0.001628227
0.0003596893
-0.001247567
-0.0002199271
0.007310804
0.01703601
0.0001839472
0.009691247
0.01720317
4.17614e-05
0.01203888
0.01752426
2.160872e-05
0.01433661
0.01803823
-5.05221e-06
0.01872959
-1.060239e-05
0.0165332
0.005221233
0.01452777
0.0002547578
-0.001516743
0.0002016332
-0.001207639
-0.0003115883
0.007612405
0.01445653
0.000188301
0.01011999
0.01465641
3.917844e-05
0.0126045
0.01502257
1.718426e-05
0.01505591
0.01559703
-1.021712e-05
0.01638595
-1.626915e-05
0.01741582
0.005452724
0.000255692
-0.001406149
3.174256e-05
-0.001168741
-0.0004118568
0.01177436
0.007958873
0.0001769037
0.01177348
0.01061508
1.65205e-05
0.01198368
0.01327054
-1.215823e-05
0.01237927
0.01592771
-4.260493e-05
0.01298246
-5.283006e-05
0.01384016
0.01852633
1.737644e-05
4.545798e-05
-7.124115e-05
-0.0005514913
-1.324564e-05
-1.4554e-06
4.395166e-05
-1.35138e-06
-7.997442e-05
-0.002244765
-6.622773e-05
9.772789e-05
0.0001415704
-4.798159e-05
-5.194449e-05
0.0001062085
-2.101491e-05
0.0001467291
-1.772888e-05
-5.490319e-05
-0.002330294
-9.088309e-05
0.0001602638
0.0001613928
-5.076322e-05
-4.989951e-05
-6.709201e-05
-0.002453694
-0.0001073001
0.0001736841
0.0001714135
-4.993516e-05
-5.029102e-05
-8.166973e-05
-0.002606741
-0.0001146925
0.0001848382
0.0001818055
-5.272178e-05
-5.380314e-05
-0.002798373
-0.0001232123
0.0001986401
-5.648251e-05
-9.826748e-05
0.0001949821
-5.786393e-05
1.633513e-05
0.0001030011
-3.250199e-05
-0.0004565739
2.691158e-06
1.364512e-05
-1.722379e-05
-2.387211e-06
0.0001308917
0.0001097022
0.0001324206
-6.321111e-05
-0.002124325
-2.586881e-05
0.0005396597
0.0005549697
0.0005288774
0.0005374896
4.216505e-05
-2.999333e-05
3.347642e-05
-4.010915e-05
-0.0001126709
-0.002199718
-3.104552e-05
-0.0001649261
-0.002283351
-3.798069e-05
-0.000215816
-0.002399863
-5.337077e-05
-0.0002686265
-0.00255168
-5.743776e-05
-0.002740091
-6.254061e-05
-0.0003242166
3.118655e-05
0.0004648672
-3.393137e-05
-0.000443383
-2.989498e-05
1.83732e-05
-1.221223e-05
4.99476e-06
-0.0001467086
-0.00203826
3.083949e-06
4.975576e-05
-2.366556e-05
3.382046e-05
-1.986115e-05
-0.0002189943
-0.002133611
-4.067191e-05
-0.0002971346
-0.002213584
-4.500133e-05
-0.000378978
-0.00232219
-5.390343e-05
-0.0004665793
-0.002466926
-5.86544e-05
-0.002648472
-6.361731e-05
-0.0005609794
2.984823e-05
0.0004650283
-3.735601e-05
-0.000441307
-2.508803e-05
1.68654e-05
-1.280097e-05
4.810087e-06
-0.0002003182
-0.00193738
-3.399903e-06
5.964178e-05
-1.225051e-05
5.106983e-05
-3.165295e-06
-0.0003042052
-0.002018444
-1.700091e-05
-0.000413429
-0.00209009
-1.807266e-05
-0.0005266871
-0.002189888
-2.309417e-05
-0.0006486122
-0.002325599
-2.429091e-05
-0.002495852
-2.636727e-05
-0.0007793625
2.847943e-05
0.0004522372
-3.812617e-05
-0.0004192959
-3.15238e-05
1.590217e-05
-1.242067e-05
4.747729e-06
-0.000256739
-0.001807491
-8.490571e-06
6.327139e-05
-5.639183e-07
5.418445e-05
6.036032e-06
-0.0003870456
-0.001882113
-1.832779e-05
-0.0005233121
-0.001947514
-1.31956e-05
-0.0006666346
-0.002039622
-1.444932e-05
-0.0008204519
-0.002165353
-1.348338e-05
-0.002323696
-1.415273e-05
-0.0009859676
2.664416e-05
0.0004230066
-4.042518e-05
-0.0003880987
-2.891243e-05
1.478455e-05
-1.14576e-05
4.458529e-06
-0.0003073804
-0.001654333
-1.06316e-05
6.837812e-05
1.001318e-05
5.888615e-05
1.456336e-05
-0.0004639006
-0.001719943
-1.557874e-05
-0.0006262347
-0.001778756
-9.225756e-06
-0.0007976794
-0.001862428
-8.033097e-06
-0.0009815912
-0.00197691
-5.520656e-06
-0.002121454
-5.015607e-06
-0.001179637
2.444817e-05
0.0003871196
-4.130321e-05
-0.0003511465
-2.651629e-05
1.351827e-05
-1.027471e-05
4.154694e-06
-0.0003539147
-0.001476919
-1.334481e-05
7.148032e-05
1.757568e-05
6.256739e-05
2.225911e-05
-0.000534392
-0.001534486
-1.687796e-05
-0.0007211716
-0.001586788
-8.544936e-06
-0.0009188952
-0.001661345
-5.625765e-06
-0.001130803
-0.001763654
-1.95504e-06
-0.001892778
-6.877326e-07
-0.001359066
2.181456e-05
0.0003457416
-4.083401e-05
-0.0003090628
-2.439606e-05
1.193079e-05
-8.842495e-06
3.648397e-06
-0.0003958415
-0.001278772
-1.449161e-05
7.281395e-05
2.613041e-05
6.551666e-05
2.985751e-05
-0.0005982572
-0.001327892
-1.692239e-05
-0.0008077208
-0.001373144
-7.228567e-06
-0.001029662
-0.001437751
-3.176362e-06
-0.001267418
-0.00152671
1.228225e-06
-0.001638894
2.984764e-06
-0.001523402
1.901302e-05
0.0002991086
-4.107663e-05
-0.0002617539
-2.216848e-05
1.027284e-05
-6.646837e-06
3.251327e-06
-0.0004340255
-0.001063421
-1.497041e-05
7.430154e-05
3.589257e-05
6.819292e-05
3.680518e-05
-0.0006561775
-0.001102689
-1.562896e-05
-0.0008875009
-0.001139781
-3.362375e-06
-0.001131797
-0.001194669
2.121731e-06
-0.001393301
-0.001269551
7.666968e-06
-0.001363761
1.02469e-05
-0.001674484
1.608903e-05
0.0002466683
-4.052623e-05
-0.0002102179
-1.89367e-05
8.618807e-06
-4.619451e-06
2.924199e-06
-0.000464559
-0.0008333107
-1.375998e-05
7.367147e-05
4.300547e-05
6.926143e-05
4.293413e-05
-0.0007061519
-0.0008619448
-1.002047e-05
-0.0009583052
-0.000889176
2.147915e-06
-0.001223608
-0.0009345009
8.026649e-06
-0.001507177
-0.0009943697
1.333928e-05
-0.001069252
1.57562e-05
-0.001811894
1.269409e-05
0.000191396
-3.902978e-05
-0.0001547854
-1.526178e-05
6.571025e-06
-3.628518e-06
2.044315e-06
-0.0004964829
-0.0005848132
-7.709342e-06
7.331744e-05
5.030162e-05
7.032292e-05
4.899171e-05
-0.0007580326
-0.0005974458
-2.611441e-06
-0.001029618
-0.0006184426
1.561584e-05
-0.001313435
-0.0006551893
2.308842e-05
-0.001616245
-0.0006993253
2.990175e-05
-0.0007532191
3.385229e-05
-0.001941414
8.631507e-06
0.0001312378
-3.764516e-05
-9.240413e-05
-1.258663e-05
4.047565e-06
-2.206161e-06
9.252308e-07
-0.0005202633
-7.203536e-05
-6.591383e-06
7.38744e-05
5.730805e-05
7.280896e-05
5.858805e-05
-8.775699e-05
-7.087763e-05
-9.569107e-05
-0.0007909041
-7.159416e-05
2.197071e-05
-9.436584e-05
-7.245899e-05
-8.982929e-05
-0.00107205
-6.946355e-05
2.225605e-05
-0.000102591
-6.715291e-05
-9.334856e-05
-0.001367792
-7.087627e-05
2.749385e-05
-0.0001136881
-7.008299e-05
-0.0001019543
-0.001683216
-7.192067e-05
2.941332e-05
-0.0001249176
-7.300608e-05
-0.0001114261
-7.459903e-05
3.197429e-05
-7.714659e-05
-0.002021876
-0.0001381873
-0.0001226295
3.760012e-06
-2.70759e-05
-6.864895e-07
6.818357e-05
6.767953e-07
-9.605719e-07
-1.022821e-06
-9.01096e-06
-1.218611e-05
-1.221548e-05
-9.462025e-06
-3.418087e-07
6.070984e-05
-9.218705e-05
-4.229217e-05
2.075874e-06
-6.95827e-07
0.0001312445
-0.0001594498
-3.628147e-05
-6.411431e-06
2.122225e-06
0.0001996752
-0.000227506
-3.595731e-05
-7.797634e-06
4.173489e-06
0.0002719158
-0.0002978979
-3.584061e-05
-1.322694e-05
5.409706e-06
0.0003467193
-0.0003723523
-3.487175e-05
-1.68255e-05
5.962514e-06
0.0004264051
-3.475163e-05
-2.022462e-05
-0.0004519903
4.813036e-06
1.329054e-05
1.437219e-05
-4.891131e-05
3.692941e-06
-2.160318e-06
1.490295e-05
4.397095e-06
7.725044e-06
6.156017e-05
-7.379761e-05
3.777047e-06
-3.661713e-06
8.972789e-06
8.034314e-06
9.030119e-05
-0.0001019568
-2.424605e-06
-2.926863e-06
1.260964e-05
7.634423e-06
0.0001216287
-0.0001334588
-4.424307e-06
-3.98952e-06
1.618125e-05
6.266073e-06
0.0001554473
-0.0001669364
-6.12892e-06
-4.82925e-06
1.993161e-05
5.188114e-06
0.0001914457
-7.942873e-06
-5.615777e-06
-0.0002030067
2.639506e-05
-0.0003103268
0.001870241
-4.650003e-05
-0.000704074
-0.0008357359
-0.001712967
-0.002153431
-0.006511645
0.0002992975
0.01052988
-0.0004511404
-0.000402135
-0.01036672
-0.001271748
0.001332663
0.01029472
0.0004132123
0.0002437915
-0.01020818
-0.001697518
0.001894508
0.009965314
-0.0001979178
7.02734e-05
-0.01000781
-0.002382038
0.002575682
0.009878707
-0.0001348174
-0.0001016844
-0.009926862
-0.002987885
0.003145855
0.009877092
-6.518231e-06
-0.0001905342
-0.009918435
-0.003553439
0.009855079
0.000115695
0.003691633
-0.0004852143
-0.008134225
0.0009491902
0.007288256
0.0006748183
-0.0002715657
0.0001150949
-0.0001363558
0.006921943
0.03539312
0.001252956
-0.009517973
-0.009509405
-0.009303665
-0.00984971
-0.001507169
-5.758398e-05
-0.001464713
-0.0001800298
0.008861328
0.03691162
0.00605637
-0.01019681
-0.009744215
-0.01015701
-0.00977095
0.01066843
0.03689287
0.007739787
-0.01032885
-0.0100316
-0.01033186
-0.0101679
0.01290164
0.03672932
0.007141675
-0.01017531
-0.009963908
-0.01032559
-0.01016031
0.01519088
0.03674385
0.006866513
-0.01014692
-0.009885928
-0.01044046
-0.01019835
0.036846
0.006591193
-0.01009801
-0.01050144
0.01741484
-0.009804898
-0.01020478
-0.0004178272
-0.007558892
0.0003603124
0.007424204
0.0003226104
-0.0001959731
0.0001745113
-0.0001089467
0.003834654
0.03287861
-0.0006433269
-0.0006244205
0.0002788924
-0.0006115041
0.0002135053
0.007077227
0.0338761
-8.822306e-05
0.01001787
0.03389576
8.934874e-05
0.01266385
0.03398751
4.172611e-05
0.01514517
0.03417324
4.450677e-05
0.03444984
8.134982e-05
0.0174558
-0.0004140278
-0.007632942
0.0006363065
0.007102022
0.0004217325
-0.0001881558
0.0001748662
-9.9801e-05
0.005266117
0.03030861
0.0003480271
-0.001123568
-0.0002068725
-0.001064523
-0.0003134168
0.007750313
0.03101562
0.0008234649
0.0101695
0.03100738
0.0008551539
0.01257149
0.03110366
0.0008612991
0.01493582
0.03132997
0.0008652896
0.0316655
0.0008930757
0.01720918
-0.0003813651
-0.007056743
0.0006413943
0.006519285
0.0003789313
-0.0001732436
0.0001598162
-8.807516e-05
0.005061354
0.02768644
0.0001059561
-0.001059975
-0.0001708317
-0.0009379438
-0.0002337397
0.007716074
0.02824353
0.0002547344
0.01025033
0.02832212
0.0001770417
0.0127267
0.02849499
0.0001479087
0.01513009
0.02880375
0.0001204005
0.0292343
0.0001339858
0.01743026
-0.000356908
-0.006471905
0.0006273389
0.005925739
0.0003783817
-0.0001654521
0.0001445557
-8.175038e-05
0.005336987
0.02500983
0.0002116505
-0.00106996
-0.0002761978
-0.0009704642
-0.0003384602
0.007967049
0.0255007
0.0003041753
0.01053141
0.0256214
0.0002001421
0.01304941
0.02586397
0.0001654063
0.01549819
0.02626109
0.000120809
0.02680258
0.0001143129
0.0178405
-0.000325174
-0.005832811
0.0006019405
0.005305949
0.0003428063
-0.0001525784
0.0001311628
-7.129435e-05
0.005496852
0.02224142
0.0002031015
-0.001044593
-0.0003212457
-0.0009569571
-0.0003825514
0.008213137
0.0227024
0.0002581123
0.01085834
0.02287718
0.0001379095
0.01346968
0.02318526
9.044077e-05
0.0160119
0.02368026
3.562531e-05
0.02434841
1.949528e-05
0.0184392
-0.0002927431
-0.005186163
0.0005769342
0.004669102
0.0003176065
-0.0001387216
0.0001159322
-6.194758e-05
0.005714165
0.01937274
0.0002112808
-0.001029414
-0.0003870473
-0.0009525459
-0.0004418821
0.008534734
0.01981115
0.0002546289
0.01129379
0.02003815
0.0001217282
0.01402466
0.02040939
6.660526e-05
0.0166958
0.02099616
7.91323e-06
0.0217924
-1.18378e-05
0.01925304
-0.000259966
-0.004514369
0.0005590391
0.004008611
0.0002932651
-0.0001247812
9.341621e-05
-5.521535e-05
0.005944796
0.01639973
0.0002156638
-0.001012307
-0.0004788323
-0.0009442239
-0.000497328
0.008889655
0.0168061
0.0002484976
0.01179711
0.01706707
0.0001028046
0.01469018
0.01749172
4.178481e-05
0.01754263
0.01815412
-2.062608e-05
0.0190704
-4.330217e-05
0.02029166
0.000555651
3.186625e-05
-0.0001979947
-0.0001490194
-0.003601655
0.003361153
0.006202401
0.0002065445
0.01330692
-0.0005615734
-0.0009991727
-0.0009440503
0.009292217
0.000214278
0.01367891
0.01238602
4.670468e-05
0.01394308
0.0154886
-2.525045e-05
0.01440223
0.01859148
-9.490894e-05
0.01510353
-0.0001268984
0.01610798
0.02162798
4.356442e-05
4.412291e-06
-7.561316e-05
-0.000534109
-2.350897e-06
-1.564399e-06
4.335623e-05
-1.549446e-06
-8.36637e-05
-0.002192988
-1.451296e-05
0.000151007
-2.530702e-05
0.0001511075
-2.280614e-05
-4.809891e-05
-0.002304485
-1.846368e-05
-5.892441e-05
-0.002424119
-2.059544e-05
-7.274996e-05
-0.002584061
-2.498486e-05
-0.002774154
-2.65308e-05
-8.771877e-05
0.0001106051
-1.256154e-05
-4.340936e-05
-0.0004373864
8.68413e-06
0.0001315592
0.0001110932
0.0001314156
-0.0001160277
-0.002088116
-2.004548e-05
0.0005299769
0.0005419702
0.0005296865
0.0005345
4.98435e-05
-1.533488e-05
4.972689e-05
-2.20491e-05
-0.0001353603
-0.002177005
-2.769591e-05
-0.00017583
-0.002268194
-3.380194e-05
-0.0002216989
-0.002387824
-4.379627e-05
-0.0002742521
-0.002541238
-4.770687e-05
-0.002729331
-5.170668e-05
-0.000329909
-8.78002e-05
-0.001755
-1.200366e-05
5.458247e-05
4.160742e-05
-8.59136e-05
-2.195813e-05
0.0004053297
0.000520626
0.0004228374
0.0005176932
-0.0001527069
-0.002027149
7.02433e-06
-0.0002325391
-0.002108302
-2.95427e-05
-0.0003037789
-0.002207047
-3.490825e-05
-0.0003839653
-0.002316966
-4.457424e-05
-0.0004701753
-0.002464076
-4.960544e-05
-0.002645077
-5.381203e-05
-0.0005642343
-0.0001210859
-0.001626897
1.660652e-05
7.381042e-05
2.251956e-05
-8.531387e-05
-3.464001e-05
-0.0002119113
-0.001938385
-1.339164e-06
-0.0003135333
-0.002009127
-1.455409e-05
-0.0004211093
-0.002096799
-2.074435e-05
-0.0005348341
-0.002199538
-2.679771e-05
-0.0006570199
-0.002336688
-2.949327e-05
-0.002507518
-3.204675e-05
-0.0007888985
-0.0001114246
-0.001524614
-4.003333e-06
8.498357e-05
2.942983e-05
-7.643813e-05
-2.483016e-05
-0.0002514034
-0.001803307
-3.589323e-06
-0.0003886233
-0.001876545
-1.369004e-05
-0.000528223
-0.001956609
-1.378642e-05
-0.0006746949
-0.002052109
-1.54054e-05
-0.0008304276
-0.002179308
-1.513006e-05
-0.00233828
-1.585323e-05
-0.0009979649
-0.0001391796
-0.00139151
-1.848579e-06
7.796509e-05
2.518772e-05
-7.031797e-05
-2.491129e-05
-0.0002990717
-0.001648741
-5.305418e-06
-0.0004635214
-0.001716043
-1.163152e-05
-0.0006309556
-0.001788123
-1.027731e-05
-0.0008070191
-0.001875285
-8.794408e-06
-0.0009941417
-0.001991287
-6.419117e-06
-0.002136592
-5.648882e-06
-0.001195197
-0.0001569001
-0.001242625
-4.334494e-06
7.159321e-05
2.357835e-05
-6.149426e-05
-2.132719e-05
-0.0003413256
-0.001470516
-7.144346e-06
-0.0005321009
-0.001529973
-1.217225e-05
-0.0007261577
-0.001593242
-9.36881e-06
-0.0009302968
-0.001670855
-5.915888e-06
-0.001146892
-0.001774556
-2.091126e-06
-0.001904464
-3.646296e-07
-0.001379343
-0.0001758212
-0.001075809
-5.109195e-06
6.422352e-05
2.104506e-05
-5.253496e-05
-1.861944e-05
-0.0003811038
-0.001271818
-7.907805e-06
-0.0005958558
-0.001320417
-1.172668e-05
-0.0008148019
-0.001373658
-7.866798e-06
-0.001045252
-0.001440636
-2.945234e-06
-0.001289446
-0.001531016
1.881992e-06
-0.001644083
4.321472e-06
-0.001551164
-0.0001915225
-0.0008940898
-6.006333e-06
5.603767e-05
1.868003e-05
-4.295709e-05
-1.595104e-05
-0.000416739
-0.00105362
-7.951482e-06
-0.0006541079
-0.001088409
-1.026779e-05
-0.0008978127
-0.001129247
-4.067943e-06
-0.001153664
-0.001185221
2.558211e-06
-0.00142401
-0.001261594
8.591313e-06
-0.00135648
1.181776e-05
-0.001713184
-0.0002038476
-0.0006984161
-5.546208e-06
4.558417e-05
1.450518e-05
-3.261992e-05
-1.374934e-05
-0.0004456025
-0.0008187135
-6.911811e-06
-0.0007087946
-0.0008301418
-5.095754e-06
-0.0009780256
-0.0008601878
2.319512e-06
-0.001258042
-0.0009070569
9.879454e-06
-0.001552893
-0.0009691067
1.570242e-05
-0.001044493
1.883797e-05
-0.001867961
-0.0002135116
-0.0004958677
-7.272872e-06
3.647989e-05
1.098941e-05
-1.845817e-05
-1.077505e-05
-0.0004769757
-0.0005593355
-3.623395e-06
-0.0007611226
-0.0005474559
-1.150401e-06
-0.001052467
-0.0005634015
1.017369e-05
-0.001351591
-0.0006022689
1.742481e-05
-0.001666777
-0.0006473089
2.329024e-05
-0.0007003394
2.671344e-05
-0.002003792
-0.0002187758
-6.482965e-05
-4.878848e-06
-8.027105e-05
-6.659931e-05
-7.982667e-05
2.746822e-05
5.546386e-06
-4.48113e-06
-9.219815e-06
-0.0004900141
-6.237645e-05
-5.242197e-06
-8.253633e-05
-6.211062e-05
-8.2423e-05
-0.0007966518
-0.0002342791
1.543158e-05
-0.001096601
-0.0002531007
1.190485e-05
-0.001395888
-0.000289828
1.433984e-05
-0.001716374
-0.0003124504
1.504072e-05
-0.0003397427
1.610868e-05
-0.002061105
3.439647e-06
-2.552274e-05
-8.49798e-08
-1.199505e-05
-9.290192e-06
-1.203786e-05
-9.338429e-06
6.007385e-05
2.666904e-07
-9.3851e-05
-3.000896e-05
1.143012e-06
-0.0007753698
8.845864e-06
1.544298e-05
-5.550909e-06
2.126499e-05
-4.292626e-05
0.0001407083
0.0001220051
0.0001373373
0.0001439635
-0.001002489
1.329337e-05
1.184694e-05
-1.63136e-05
3.002094e-05
-6.482935e-05
-0.001273353
1.04403e-05
1.866954e-05
-1.923172e-05
4.894307e-05
-7.778524e-05
-0.001564021
1.143456e-05
2.268994e-05
-2.552759e-05
6.470483e-05
-9.508378e-05
1.227449e-05
2.804363e-05
8.190231e-05
-0.001880668
-3.255964e-05
-0.0001127557
1.374044e-05
-3.113133e-06
5.434718e-06
-3.273226e-05
2.767734e-06
1.390254e-05
5.028444e-05
-0.0003141357
-2.127555e-05
0.001938208
-0.000853919
-0.0007991615
-0.000634885
-0.0003651521
-0.009781185
-0.0004615569
0.01040627
0.0008365039
0.004545143
0.03403866
-0.001611043
-0.003880914
-0.003052222
0.001715391
0.001680224
-0.00281246
0.000433067
-0.003249971
0.0001660346
0.007973313
0.03484363
-0.003572436
-0.003770824
-0.002274821
0.001912254
0.002228899
0.01017117
0.03585617
-2.967237e-05
-0.00417702
-0.002851762
0.001220778
0.001676405
0.01241081
0.03626356
-0.0003652967
-0.004210456
-0.002826621
0.001205359
0.001763793
0.03663191
-0.0004033126
-0.004372117
0.001149763
0.01457232
-0.002844432
0.001766942
0.006113849
0.02966706
0.000853698
-0.007818727
-0.009721401
-0.008096922
-0.009735386
-0.001157888
-0.001106187
0.0008850317
0.0001168631
0.01075862
0.03624914
0.0007493574
-0.009809806
-0.01050102
-0.009473893
-0.01060559
0.01109556
0.03629359
0.003464493
0.01145409
0.03615966
0.006065225
0.0132891
0.03738128
0.003781559
0.01532471
0.03711002
0.003984441
0.03714956
0.003670823
0.01772742
0.001574825
0.02762097
-0.0006195039
-0.0009396592
-0.0001872297
0.001511857
0.0007058054
0.004428353
0.03328529
-0.0005330044
0.007486763
0.03311685
3.010667e-05
0.010343
0.03343937
-4.659698e-05
0.01324653
0.03394296
0.0005765029
0.01585946
0.03411444
0.0004271599
0.03429152
0.000592891
0.01820596
0.002431116
0.02549909
9.85875e-05
-0.001325988
-0.0005275986
0.00117122
0.0002745401
0.005476093
0.03041772
0.0001706169
0.008074503
0.03077886
0.0005630399
0.01049801
0.03110116
0.0007698622
0.01300506
0.03139733
0.0008998845
0.01544611
0.03162363
0.0009150422
0.03190497
0.0009568284
0.0177689
0.002170166
0.0233996
-1.63451e-05
-0.001156511
-0.0003813929
0.001124618
0.0003589566
0.005022289
0.02762607
4.548914e-05
0.007782007
0.02811492
0.0001589613
0.0104232
0.02845425
0.0001827481
0.01301186
0.0287184
0.0002381812
0.01550104
0.02903903
0.0002158259
0.0294412
0.0002510366
0.01784776
0.002368009
0.02115392
6.012031e-05
-0.001103609
-0.0003765643
0.0009987294
0.0002989896
0.00519747
0.02490856
9.969264e-05
0.007964434
0.02545591
0.0001962245
0.01063509
0.02579073
0.0001930146
0.01325408
0.02610009
0.0001647149
0.01577377
0.02651653
0.0001236287
0.02705104
0.0001153658
0.01816287
0.00244142
0.01881286
5.659787e-05
-0.0009941595
-0.0003296505
0.0008872537
0.0002796057
0.005315269
0.02213429
0.000103529
0.008180538
0.02267005
0.0001786983
0.01093218
0.02303311
0.0001438894
0.01363018
0.02339586
9.66681e-05
0.01623304
0.02390606
4.32414e-05
0.024574
2.382303e-05
0.01870575
0.002549307
0.01638745
6.001386e-05
-0.0008989533
-0.0002961613
0.0007640128
0.0002471842
0.005505961
0.01927806
0.0001108519
0.008478144
0.01977679
0.0001757098
0.01134731
0.0201572
0.000128471
0.01416725
0.02057588
6.664051e-05
0.0168963
0.02118005
4.873613e-06
0.02198266
-2.173074e-05
0.01949753
0.00263601
0.01388122
6.684548e-05
-0.0007935356
-0.0002624027
0.0006429966
0.0002163239
0.005707087
0.01630981
0.00011284
0.008818382
0.01674623
0.0001677645
0.01184032
0.01713017
0.000107887
0.01482945
0.01759319
3.534192e-05
0.01774419
0.01827687
-3.219269e-05
0.01920575
-6.28114e-05
0.02054061
0.002749146
6.13951e-05
0.01123848
0.0005204986
0.0001933973
-0.0006686404
-0.0002130578
0.005937175
0.0001050906
0.01322324
0.009205923
0.0001360268
0.01355573
0.01242069
5.449652e-05
0.01390761
0.01563398
-3.420917e-05
0.01438887
0.0188102
-0.000109855
0.01511559
-0.0001492182
0.01613355
0.02190472
4.327794e-05
1.23522e-06
-7.582713e-05
-0.0005312999
-6.408907e-07
-1.35266e-06
4.322787e-05
-1.362035e-06
-0.000100344
-0.002158981
-9.331604e-06
0.0001551436
-1.823177e-05
0.0001542691
-1.754182e-05
-5.247164e-05
-0.002259685
-1.272922e-05
-6.082187e-05
-0.002388455
-1.34651e-05
-7.401442e-05
-0.002542098
-1.616004e-05
-0.002731208
-1.718567e-05
-8.911841e-05
0.000110806
-2.283369e-06
-4.412047e-05
-0.0004378745
9.531601e-07
0.0001308027
0.0001108891
0.0001308273
-0.0001136435
-0.002071705
-8.11526e-06
0.0005277803
0.0005333755
0.0005270413
0.0005302223
4.949791e-05
-2.18086e-05
4.996729e-05
-2.265816e-05
-0.0001317063
-0.002157558
-1.105592e-05
-0.0001731938
-0.002238192
-1.380686e-05
-0.0002188166
-0.002365553
-2.10743e-05
-0.0002686138
-0.002516645
-2.336253e-05
-0.002703603
-2.560659e-05
-0.0003223183
-0.000116174
-0.001789911
-9.858382e-06
0.0004299394
0.0005233069
0.0004291715
0.0005215218
-0.0001579371
-0.0020259
2.982177e-06
-0.0002370307
-0.002095724
-1.228336e-05
-0.0003026214
-0.002192104
-1.540604e-05
-0.0003820556
-0.002308821
-2.187183e-05
-0.000466931
-0.002456965
-2.440935e-05
-0.002637854
-2.680357e-05
-0.0005596885
-0.0001318372
-0.001644198
2.730734e-06
-0.000215737
-0.001943106
-2.325996e-07
-0.0003178614
-0.001999962
-8.191101e-06
-0.0004230641
-0.002095394
-1.225165e-05
-0.0005361399
-0.002205118
-1.74246e-05
-0.0006578366
-0.002344895
-1.986602e-05
-0.002516678
-2.172694e-05
-0.0007893322
-0.0001102836
-0.001537064
-8.533565e-07
-0.0002507933
-0.001804533
-1.652803e-06
-0.0003891066
-0.001868326
-7.013302e-06
-0.0005314935
-0.001957679
-9.114135e-06
-0.0006793597
-0.002060669
-1.198826e-05
-0.0008362113
-0.002190222
-1.295168e-05
-0.00235028
-1.379579e-05
-0.001004666
-0.0001369542
-0.001401063
-8.960286e-07
-0.0002961261
-0.001648455
-2.212204e-06
-0.0004623717
-0.001707917
-5.794267e-06
-0.0006344776
-0.001788883