/*--------------------------------*- C++ -*----------------------------------*\
  =========                 |
  \\      /  F ield         | OpenFOAM: The Open Source CFD Toolbox
   \\    /   O peration     | Website:  https://openfoam.org
    \\  /    A nd           | Version:  7
     \\/     M anipulation  |
\*---------------------------------------------------------------------------*/
FoamFile
{
    version     2.0;
    format      ascii;
    class       volScalarField;
    location    "0.05";
    object      k;
}
// * * * * * * * * * * * * * * * * * * * * * * * * * * * * * * * * * * * * * //

dimensions      [0 2 -2 0 0 0 0];

internalField   nonuniform List<scalar> 
82743
(
0.003786986
0.003788932
0.003783313
0.003779274
0.003774679
0.003771018
0.003768045
0.003766155
0.003764729
0.003783622
0.003787666
0.003783387
0.003779519
0.003774564
0.003770367
0.003767189
0.003765528
0.003764295
0.003782613
0.003787793
0.003784679
0.003781044
0.003775169
0.003769696
0.003765978
0.003764605
0.003764031
0.003781435
0.003787588
0.003785135
0.003781858
0.003771387
0.003766876
0.003761956
0.003761968
0.003762446
0.003781206
0.003787987
0.003787083
0.003782098
0.003782817
0.003761951
0.003754797
0.003754409
0.003756879
0.003780812
0.003788572
0.003790874
0.003852915
0.004123893
0.003786719
0.003757062
0.003767311
0.003775949
0.00377982
0.003786554
0.003787695
0.003849376
0.004478087
0.003778191
0.00377724
0.003782617
0.003782123
0.003830324
0.004336747
0.003765022
0.003774291
0.003778483
0.00377691
0.003816446
0.004229177
0.0037643
0.003771082
0.003774095
0.003772091
0.003804637
0.004148744
0.003766661
0.003767873
0.003770077
0.003767558
0.00379348
0.004075845
0.00376232
0.003765052
0.003766553
0.003763544
0.003782348
0.004000619
0.003796973
0.003762982
0.003764015
0.003760107
0.003772003
0.003909937
0.003814211
0.00376162
0.003762436
0.003759437
0.003767172
0.003747826
0.003919336
0.003980616
0.004131174
0.003833383
0.003760839
0.003762689
0.003760331
0.003758428
0.003758831
0.003762053
0.003767588
0.003771614
0.003771149
0.003760552
0.003762722
0.003762064
0.003760527
0.003761024
0.003762973
0.003765811
0.00376814
0.003767164
0.003760244
0.003763051
0.003762779
0.003761979
0.003762443
0.003763355
0.003764853
0.003765952
0.003765417
0.003760051
0.003763063
0.003763001
0.003762408
0.003762698
0.003763118
0.003763772
0.003764222
0.003763807
0.003604327
0.003587509
0.003585025
0.003581525
0.003580817
0.003579412
0.003578341
0.003577347
0.003576726
0.003890934
0.003587211
0.003581313
0.00358103
0.00357973
0.003579091
0.003577262
0.003575664
0.003574608
0.003574098
0.003846397
0.003582336
0.003579352
0.00357967
0.00357997
0.003580288
0.003578382
0.003576179
0.00357475
0.00357407
0.003825162
0.003579078
0.003577406
0.00357818
0.00358067
0.003583099
0.003581076
0.00357749
0.003574866
0.003573997
0.003811325
0.003577616
0.003576341
0.003577713
0.003584411
0.003592216
0.003588223
0.003581532
0.003576715
0.0035743
0.003800558
0.003576793
0.003575758
0.003579079
0.003597501
0.003638979
0.003616082
0.003595332
0.003581872
0.003575473
0.003795768
0.003577244
0.003576487
0.003581246
0.003614803
0.004338976
0.0037402
0.003642323
0.003640792
0.003575787
0.003788749
0.003578417
0.003578319
0.003584306
0.003630941
0.004263584
0.003576005
0.00377124
0.003580732
0.00357893
0.003585376
0.003593454
0.003574759
0.003749135
0.003581601
0.003579302
0.003583179
0.003590113
0.003575147
0.003722861
0.003581916
0.003579486
0.003581866
0.003587468
0.003576043
0.003699558
0.003581618
0.003579207
0.003581064
0.00358598
0.003577594
0.003678253
0.003580766
0.003578741
0.003581439
0.003587833
0.003584736
0.00366106
0.003579537
0.003577659
0.003581912
0.003588205
0.003605811
0.003647321
0.003577501
0.003576169
0.003579202
0.003589666
0.003924128
0.003771928
0.00379431
0.003970964
0.003602107
0.003636615
0.003576044
0.003574942
0.003575203
0.003577285
0.003578159
0.003580175
0.003585527
0.003588281
0.00358133
0.00363031
0.003575649
0.003574418
0.003574267
0.003574333
0.003574553
0.003575426
0.003576898
0.003577898
0.003576531
0.003626297
0.003575394
0.003574245
0.00357403
0.003573846
0.003573893
0.003574128
0.003574747
0.003575237
0.003575149
0.003623716
0.003575284
0.003574171
0.00357398
0.003573766
0.003573738
0.003573833
0.003574094
0.003574385
0.003574406
0.00361103
0.003582467
0.003579113
0.003578012
0.003576981
0.003575814
0.003574931
0.003574315
0.003573968
0.003926037
0.003583828
0.003579994
0.003581531
0.00357955
0.003579101
0.003577265
0.003575701
0.0035746
0.003574038
0.003617497
0.003576423
0.003578352
0.003579064
0.003579365
0.003579716
0.003578037
0.003575914
0.003574582
0.003573952
0.003605368
0.003575262
0.003577306
0.003577935
0.003580567
0.003582694
0.00358087
0.003577298
0.003574735
0.003573929
0.003595728
0.003575518
0.003575831
0.003577675
0.003583987
0.003591647
0.00358749
0.003580738
0.003576071
0.003573869
0.003598237
0.003575119
0.003575272
0.00357971
0.00359686
0.003637615
0.003614336
0.003594077
0.00358107
0.003574569
0.003598392
0.003575896
0.003576244
0.003581365
0.003613614
0.004342615
0.003757556
0.003642443
0.003642307
0.003575949
0.003600115
0.003577075
0.003578479
0.003582561
0.003630861
0.004332453
0.003575848
0.003595764
0.003578267
0.003577625
0.003584352
0.003598053
0.003575202
0.003593634
0.00357786
0.003580887
0.00358131
0.003777743
0.003781271
0.003576502
0.003591535
0.003576697
0.003578893
0.003579599
0.003769237
0.003778742
0.003575775
0.003589337
0.003576393
0.003577779
0.0035787
0.003760745
0.003786093
0.003578034
0.003587807
0.0035762
0.003579448
0.003580252
0.003592584
0.003583002
0.003586351
0.003575779
0.003576673
0.003581141
0.003588135
0.003606481
0.003584767
0.003574862
0.003576394
0.003578332
0.003591968
0.003909024
0.003771899
0.003795633
0.003985311
0.003635387
0.003583895
0.00357429
0.003575122
0.003574823
0.003576857
0.003578008
0.003579738
0.0035844
0.003587519
0.00358058
0.003583193
0.00357403
0.003574357
0.003574167
0.003574205
0.003574562
0.00357531
0.003576885
0.003577387
0.003576629
0.003582888
0.003573957
0.003574138
0.003573824
0.003573773
0.003573909
0.003574098
0.00357467
0.00357519
0.003574965
0.003582785
0.003573897
0.003573898
0.00357375
0.003573688
0.003573693
0.003573779
0.003574042
0.003574304
0.003574344
0.003610477
0.003582642
0.003578609
0.003576515
0.003576251
0.003575249
0.003574602
0.003574093
0.00357382
0.003906977
0.003584474
0.003579429
0.003581653
0.00357953
0.003579125
0.003577195
0.00357562
0.003574528
0.003573981
0.00361827
0.00357568
0.003578665
0.003578986
0.003579519
0.003579817
0.003578106
0.00357594
0.003574609
0.003573958
0.003604622
0.003575212
0.003577246
0.003577871
0.003580648
0.003582662
0.003580919
0.003577302
0.003574733
0.003573928
0.003593602
0.00357569
0.003575806
0.003577647
0.00358377
0.003591786
0.003587828
0.003580799
0.003576131
0.003573913
0.003598949
0.003575293
0.00357511
0.003579393
0.003596332
0.003637971
0.003614324
0.003594889
0.003581002
0.003574553
0.003600349
0.003575729
0.003576147
0.003581232
0.00361364
0.004333619
0.003755661
0.003642516
0.003642389
0.003576085
0.003600385
0.003577066
0.00357841
0.003582552
0.003632445
0.004328995
0.003575844
0.003596208
0.003578441
0.003577115
0.003585212
0.003597945
0.003575455
0.003593886
0.003578079
0.003581075
0.003581398
0.003778513
0.003777893
0.003577546
0.003592016
0.003576989
0.003579593
0.003580505
0.003769254
0.003774067
0.003576172
0.003589517
0.003576723
0.003577902
0.00357915
0.003762548
0.003781029
0.003579362
0.003587948
0.003576512
0.003579783
0.003580191
0.003594459
0.003582473
0.003586301
0.003575983
0.00357597
0.003581125
0.00358761
0.003606252
0.00358484
0.003575067
0.003576495
0.003578408
0.003592621
0.003900453
0.003771856
0.00379599
0.003981307
0.003635777
0.003583889
0.003574427
0.003575014
0.003574805
0.00357697
0.003578184
0.003579798
0.003584439
0.003586959
0.003580872
0.003583429
0.00357421
0.003574241
0.003574155
0.003574183
0.003574567
0.003575297
0.003576852
0.003577439
0.003576647
0.003583135
0.003574142
0.003573968
0.003573824
0.003573763
0.003573902
0.003574082
0.003574658
0.003575194
0.003575003
0.003583066
0.003574113
0.003573841
0.003573746
0.003573687
0.00357369
0.003573777
0.003574045
0.003574309
0.003574355
0.003611632
0.003582019
0.003578254
0.003576567
0.003576341
0.003575304
0.003574652
0.003574127
0.003573844
0.003907673
0.003584577
0.003578099
0.003581583
0.003579509
0.003579073
0.003577205
0.003575654
0.003574557
0.003574001
0.003622913
0.003575676
0.003578232
0.003578958
0.003579295
0.003579712
0.003578046
0.003575901
0.00357458
0.003573943
0.003605183
0.003575114
0.003577226
0.003577946
0.003580637
0.003582639
0.003580863
0.003577268
0.003574725
0.003573933
0.003594905
0.003575296
0.003575811
0.003577629
0.003583775
0.003591478
0.003587634
0.003580722
0.003576129
0.003573909
0.003599723
0.003575021
0.003575129
0.003579548
0.003596622
0.003637874
0.003614409
0.003594672
0.00358104
0.00357463
0.003598855
0.00357575
0.003576245
0.003581106
0.003613299
0.004334926
0.003756505
0.003642078
0.003642145
0.003576055
0.003601885
0.003576862
0.003578474
0.003582409
0.003632797
0.004332446
0.003575844
0.003596961
0.003578093
0.003577107
0.003585205
0.003598809
0.003575477
0.003594821
0.00357774
0.003581235
0.00358108
0.003778697
0.003777111
0.003577871
0.003593034
0.00357643
0.003578453
0.003579285
0.003769343
0.003773478
0.003576105
0.003590359
0.003576171
0.003577049
0.003578145
0.003762703
0.003780579
0.003579172
0.003588212
0.003576261
0.003579415
0.00357994
0.003593986
0.00358246
0.003586263
0.003575852
0.003576218
0.003581238
0.003587564
0.003606369
0.003584806
0.003574789
0.00357656
0.003578393
0.003592369
0.003897379
0.003771784
0.003795998
0.003982026
0.003634695
0.003583885
0.0035742
0.003575134
0.003574761
0.00357691
0.003578104
0.003579777
0.00358445
0.003586905
0.003581062
0.003583568
0.003573978
0.00357434
0.00357413
0.003574148
0.003574582
0.003575299
0.003576865
0.003577451
0.003576586
0.003583185
0.003573864
0.003574056
0.003573793
0.003573761
0.003573919
0.003574087
0.003574658
0.003575184
0.003575002
0.003583124
0.003573812
0.00357385
0.003573725
0.003573675
0.003573691
0.003573775
0.003574044
0.003574302
0.003574347
0.003611987
0.003582028
0.003578461
0.003576553
0.003576324
0.003575282
0.003574632
0.003574114
0.003573835
0.003907534
0.00358428
0.003578301
0.003581645
0.003579443
0.003579079
0.003577199
0.003575648
0.003574549
0.003573996
0.003623061
0.003575512
0.003578271
0.003578987
0.003579377
0.003579744
0.003578063
0.003575913
0.003574592
0.003573947
0.003605201
0.003575116
0.003577294
0.003578018
0.003580685
0.003582583
0.003580886
0.003577276
0.003574713
0.003573924
0.003593847
0.003575475
0.003575784
0.003577608
0.003583672
0.003591622
0.003587639
0.003580755
0.003576128
0.003573913
0.003600088
0.00357501
0.003575096
0.003579629
0.00359652
0.003637526
0.003614271
0.00359468
0.003581048
0.003574635
0.003599755
0.003575539
0.003576157
0.003581063
0.003613386
0.004336993
0.003756177
0.003642042
0.003642151
0.003576053
0.003601289
0.003576707
0.003578412
0.003582445
0.003633103
0.004329183
0.003575856
0.003596608
0.003578081
0.003577075
0.003585292
0.003598792
0.003575472
0.003594475
0.003577761
0.003581235
0.003581137
0.003778746
0.003777086
0.003577845
0.00359278
0.003576511
0.003578605
0.00357945
0.003769236
0.00377342
0.003576153
0.003589871
0.00357635
0.003577141
0.003578301
0.003762691
0.003780704
0.003579089
0.003587701
0.003576249
0.003579433
0.00357993
0.003593806
0.003582406
0.00358619
0.003575849
0.003576177
0.003581237
0.003587423
0.003606478
0.003584784
0.00357477
0.003576545
0.003578368
0.003592469
0.003898821
0.003771782
0.003796045
0.003982155
0.003634626
0.003583876
0.00357421
0.003575127
0.003574757
0.003576912
0.003578109
0.003579781
0.003584461
0.003586897
0.00358108
0.003583504
0.003573975
0.003574338
0.003574126
0.003574148
0.003574582
0.003575299
0.003576867
0.003577463
0.003576595
0.003583273
0.003573867
0.003574054
0.003573793
0.003573762
0.00357392
0.003574088
0.003574658
0.003575187
0.003575008
0.003583214
0.003573806
0.003573857
0.003573726
0.003573675
0.003573692
0.003573775
0.003574045
0.003574303
0.003574348
0.00361207
0.00358214
0.003578249
0.003576563
0.003576346
0.0035753
0.003574652
0.003574127
0.003573844
0.003909177
0.003584895
0.003578086
0.00358159
0.003579512
0.003579075
0.003577175
0.003575636
0.003574545
0.003573995
0.003622386
0.003575697
0.003578276
0.003578958
0.003579319
0.003579743
0.003578066
0.003575903
0.003574588
0.003573946
0.003605168
0.003575123
0.003577212
0.003577927
0.003580682
0.003582656
0.003580903
0.003577283
0.003574746
0.003573937
0.003594972
0.00357533
0.003575757
0.003577634
0.003583721
0.003591518
0.003587735
0.003580708
0.003576123
0.003573904
0.003599805
0.003575055
0.003575116
0.003579583
0.003596512
0.003637862
0.00361428
0.003594901
0.003580963
0.003574553
0.003598693
0.003575806
0.003576179
0.00358105
0.003613407
0.004332875
0.003756135
0.003642114
0.003642413
0.003576074
0.003602008
0.003576758
0.00357844
0.003582397
0.003633132
0.004328814
0.003575811
0.003597215
0.003578127
0.003577113
0.003585073
0.003598676
0.00357545
0.003595143
0.003577728
0.00358114
0.00358124
0.003778534
0.003777888
0.00357756
0.00359409
0.003576468
0.003578727
0.003579505
0.003769297
0.003774025
0.00357619
0.003591615
0.003576278
0.003577381
0.003578507
0.003762616
0.003780933
0.003579377
0.003588876
0.003576579
0.003579684
0.003580212
0.003594417
0.003582377
0.003586854
0.003576063
0.003575939
0.003581133
0.003587369
0.003606521
0.003585101
0.0035751
0.003576494
0.003578408
0.00359262
0.003897934
0.003771753
0.003796067
0.003982288
0.003634628
0.003583731
0.003574438
0.003575
0.003574799
0.003576977
0.003578184
0.003579806
0.003584456
0.003586884
0.003581063
0.003583381
0.003574201
0.003574237
0.003574155
0.003574183
0.003574564
0.003575295
0.003576861
0.003577458
0.003576598
0.003582986
0.003574171
0.003573972
0.003573824
0.003573763
0.003573902
0.003574082
0.003574658
0.003575196
0.003575018
0.003583042
0.003574135
0.00357384
0.003573746
0.003573686
0.003573689
0.003573777
0.003574049
0.003574309
0.003574354
0.003611697
0.003582791
0.003578902
0.003576502
0.00357629
0.00357524
0.003574625
0.003574097
0.003573835
0.003937685
0.003585029
0.003579084
0.003581923
0.003579488
0.00357909
0.003577191
0.00357564
0.003574523
0.003573989
0.003622708
0.003575552
0.003578762
0.003579124
0.003579546
0.003579829
0.003577981
0.003575939
0.003574571
0.003573967
0.003604223
0.003575123
0.003577158
0.003577982
0.003580601
0.003582623
0.003580893
0.003577294
0.003574703
0.003573904
0.003593098
0.00357554
0.003575825
0.003577629
0.003583861
0.003591817
0.003587534
0.003580785
0.003576063
0.003573842
0.003598711
0.003575188
0.003575118
0.003579471
0.003596463
0.00363685
0.003613958
0.003594145
0.003581051
0.0035745
0.003599128
0.003575857
0.003576245
0.003581244
0.003613647
0.004338341
0.003757106
0.003643052
0.003642739
0.003575987
0.003600575
0.003576965
0.003578368
0.003582546
0.003632414
0.004329805
0.003575857
0.003596468
0.003578246
0.00357744
0.003584446
0.003598967
0.00357522
0.003594383
0.003577919
0.003580855
0.003581481
0.003777801
0.003781256
0.003576485
0.003593997
0.003577198
0.003579224
0.003579985
0.003769186
0.003778623
0.003575661
0.003588282
0.00357725
0.003577921
0.003578917
0.003760707
0.003785834
0.003578191
0.003587522
0.003576457
0.003579469
0.00358027
0.003593259
0.003582557
0.003585854
0.003575726
0.003576438
0.003581118
0.003587763
0.003606982
0.003584632
0.003574714
0.003576366
0.003578341
0.003591837
0.003898526
0.003771869
0.00379613
0.003982569
0.003635031
0.00358414
0.003574299
0.003575103
0.003574818
0.003576852
0.003578024
0.003579723
0.003584413
0.003586983
0.003581143
0.003583039
0.003574025
0.003574352
0.003574165
0.003574197
0.003574557
0.003575305
0.003576876
0.003577488
0.003576635
0.003582928
0.003573963
0.003574147
0.003573824
0.003573774
0.003573909
0.003574097
0.003574662
0.003575193
0.003575022
0.003582537
0.003573905
0.003573897
0.003573754
0.003573689
0.00357369
0.00357378
0.003574046
0.003574309
0.003574355
0.003613508
0.003583315
0.003579199
0.003577811
0.003576993
0.003575842
0.003574987
0.00357436
0.003574056
0.00392095
0.003586404
0.003580817
0.003581812
0.00357964
0.0035792
0.003577147
0.00357566
0.003574598
0.003574048
0.003619809
0.003578064
0.003578342
0.003579144
0.00357966
0.003579927
0.003578145
0.003575992
0.003574633
0.003573988
0.003604301
0.003577023
0.003577548
0.003578048
0.003580937
0.00358296
0.003581116
0.003577526
0.003574922
0.003574046
0.003595076
0.003577368
0.003576029
0.003577954
0.003584203
0.003591706
0.003587969
0.003581373
0.003576731
0.003574267
0.003597862
0.003577011
0.003575501
0.003579994
0.003597471
0.003638007
0.003615365
0.003595345
0.00358197
0.003575521
0.003598971
0.00357753
0.003576194
0.003581382
0.003613764
0.004342412
0.003754136
0.003642126
0.003644135
0.00357608
0.003600459
0.00357869
0.003578544
0.0035834
0.003632599
0.004327975
0.003575833
0.003597661
0.003580043
0.003578095
0.003584117
0.003592308
0.003574745
0.003596403
0.003579393
0.003579602
0.003581332
0.003589976
0.003575069
0.003597006
0.003578141
0.003580517
0.003580747
0.003588327
0.003575931
0.003596835
0.003578527
0.00358026
0.003580051
0.003588448
0.00357778
0.003648796
0.003582965
0.003579341
0.003581473
0.00359106
0.003583649
0.003647858
0.003580715
0.003577623
0.003581931
0.003587078
0.003609198
0.003645598
0.003577706
0.003576211
0.003579114
0.003590357
0.00390678
0.003771858
0.003795697
0.003981687
0.003636821
0.003639334
0.003576097
0.003574918
0.003575172
0.00357731
0.003578126
0.003580167
0.003584568
0.003587159
0.003581089
0.003633167
0.003575646
0.003574404
0.003574255
0.003574324
0.00357455
0.003575408
0.003576996
0.003577511
0.003576705
0.003629508
0.003575427
0.003574234
0.003574036
0.003573844
0.003573892
0.003574128
0.003574706
0.00357529
0.00357511
0.003627198
0.00357534
0.003574147
0.003573991
0.003573761
0.003573738
0.003573834
0.003574098
0.003574362
0.003574412
0.003611255
0.003592955
0.003589562
0.00358578
0.003583678
0.003581686
0.003580448
0.00357919
0.003578553
0.003929011
0.003787827
0.003790514
0.00378489
0.003780128
0.003776214
0.003771845
0.003769187
0.003766935
0.003765769
0.003931573
0.003783101
0.003787576
0.003783081
0.003779095
0.00377407
0.003769955
0.003766723
0.003765154
0.003763968
0.003880671
0.003782303
0.003788141
0.003784928
0.003780969
0.003775398
0.00376977
0.003766163
0.003764554
0.003764232
0.003835896
0.003782225
0.003787759
0.003785237
0.003781752
0.003771466
0.003766849
0.003761886
0.003761943
0.003762449
0.003843586
0.0037812
0.003788246
0.003787185
0.003781956
0.003782003
0.003762082
0.003754975
0.00375449
0.003756969
0.00384972
0.003780683
0.003788666
0.003791095
0.003642955
0.004341255
0.003723869
0.00365454
0.003645671
0.003578709
0.003840427
0.003779319
0.003786529
0.003787993
0.003651864
0.004329559
0.003577039
0.003788667
0.003777121
0.003782718
0.003782026
0.00360462
0.003575636
0.003797607
0.003773946
0.003778521
0.003776972
0.003599004
0.003575446
0.003750706
0.003771072
0.003774126
0.003772305
0.003594396
0.00357605
0.003734817
0.003768112
0.00377012
0.003767599
0.003593439
0.00357763
0.003694566
0.003764739
0.00376672
0.003763614
0.003596942
0.003581273
0.003859288
0.003762702
0.003763969
0.003760255
0.003601321
0.003635094
0.003916323
0.003761518
0.003762687
0.003759472
0.0036077
0.003927716
0.003767645
0.003794503
0.003977121
0.003664177
0.003869608
0.00376079
0.003762696
0.003760337
0.003758483
0.003758783
0.003762019
0.003767597
0.003771643
0.00377109
0.003849134
0.003760603
0.003762849
0.003762116
0.00376057
0.00376105
0.003763001
0.003765789
0.003768104
0.003767425
0.003808025
0.003760185
0.003763062
0.003762763
0.00376198
0.003762443
0.003763359
0.003764863
0.003765941
0.003765509
0.00380566
0.003760027
0.003763144
0.003763004
0.003762445
0.003762718
0.003763133
0.003763781
0.003764241
0.003763848
0.003871241
0.00364556
0.006300319
0.003609791
0.003833348
0.003841542
0.003646667
0.003599401
0.003644907
0.003645863
0.003834731
0.003834211
0.003604342
0.003594636
0.00363976
0.0036333
0.00382318
0.003821658
0.003601071
0.003589231
0.003634568
0.003628593
0.00381488
0.003814804
0.003591828
0.003586929
0.003627155
0.003623126
0.003806147
0.003805347
0.00359078
0.003584513
0.003622615
0.003618421
0.003799234
0.003799134
0.003586681
0.003582648
0.003616956
0.003614248
0.003793547
0.003793292
0.003584294
0.003581242
0.003612761
0.003610895
0.003789552
0.00378945
0.003582146
0.003580358
0.003609802
0.003608722
0.003786397
0.00358108
0.003607802
0.003859612
0.00386161
0.005838507
0.003601927
0.005449386
0.003606687
0.003850373
0.003853882
0.005304263
0.003599983
0.005175371
0.00359266
0.003843887
0.003847924
0.005076925
0.00359275
0.005019313
0.003588278
0.003839352
0.003844867
0.004952387
0.003590943
0.004922173
0.003586995
0.003836642
0.003843042
0.004875273
0.003589117
0.004875689
0.003586782
0.003834571
0.003841153
0.00483825
0.003588972
0.004843831
0.00358683
0.003843718
0.004534422
0.004377144
0.003884639
0.004585621
0.003749189
0.003654105
0.003655071
0.003765108
0.003840697
0.003644217
0.003585244
0.003593496
0.003830536
0.00383539
0.004817734
0.003589214
0.004745929
0.003587908
0.004391691
0.00435125
0.003824417
0.003828272
0.004715185
0.003589859
0.004610478
0.003587618
0.004276449
0.00381679
0.003819722
0.004580503
0.003589691
0.004453306
0.003588395
0.004192754
0.00380845
0.003810775
0.004419604
0.003588666
0.004297269
0.003588324
0.004118045
0.003800164
0.003802485
0.004270527
0.003587949
0.00415405
0.003587903
0.004041889
0.003792662
0.003795764
0.004140273
0.003587394
0.004034329
0.00358677
0.00395058
0.003786499
0.003790394
0.004031692
0.003586215
0.003942312
0.003585422
0.003727163
0.003925966
0.004026521
0.003638548
0.003883323
0.003781883
0.003786459
0.003945587
0.003584881
0.003878888
0.003584126
0.003779059
0.003784291
0.003887043
0.003584356
0.003838551
0.003583352
0.003777305
0.003782615
0.003849482
0.00358338
0.003812907
0.003583053
0.003776163
0.003781586
0.003825025
0.003583206
0.003795513
0.003582902
0.003775392
0.003780742
0.003808276
0.003583119
0.003582808
0.003631419
0.006263317
0.003615553
0.003625404
0.00688018
0.003619422
0.003869897
0.004508872
0.0043428
0.00387334
0.004552307
0.003586987
0.003594427
0.003644055
0.003588087
0.003598629
0.004327992
0.003758187
0.003760607
0.003631798
0.00392179
0.003637771
0.003885534
0.003789053
0.003590889
0.003589958
0.003897793
0.003789128
0.00359256
0.003590514
0.003634442
0.006392419
0.003622794
0.003628719
0.00670815
0.003622653
0.00387682
0.004550734
0.004337829
0.003878124
0.004553089
0.003587498
0.003594623
0.003643028
0.003587466
0.003593899
0.004330373
0.00375881
0.00375959
0.003626311
0.004038668
0.003620021
0.004006731
0.003789161
0.003592643
0.003589972
0.003898528
0.003789189
0.003592918
0.003589969
0.003845869
0.003643537
0.003615721
0.003979986
0.003869653
0.003641852
0.003613432
0.003632016
0.006491056
0.003621049
0.003631842
0.006594401
0.003623386
0.003875144
0.004551538
0.004336483
0.003874997
0.004552512
0.003587488
0.003592854
0.003642525
0.00358726
0.003592432
0.004329243
0.00375813
0.003758097
0.003789332
0.003593033
0.003590045
0.003898585
0.003789164
0.003592972
0.003590039
0.003846556
0.003641361
0.003615652
0.003981811
0.00384758
0.003641942
0.00361559
0.003631177
0.006455638
0.003622754
0.003631055
0.006490477
0.003623411
0.003875413
0.004553589
0.004333619
0.003875698
0.00455233
0.003587301
0.00359261
0.003642247
0.003587241
0.003592348
0.004329135
0.003756508
0.003756703
0.003789105
0.003592957
0.003589944
0.003898209
0.003789083
0.003592911
0.003589939
0.003845548
0.003641726
0.003615933
0.003982109
0.003845007
0.003642232
0.003615991
0.003631841
0.006530046
0.003624012
0.003631341
0.006504687
0.00362346
0.003875423
0.004552667
0.004334194
0.003875169
0.004552262
0.003587231
0.003592369
0.003642109
0.003587303
0.003592434
0.004330204
0.003756958
0.003755349
0.003789098
0.00359292
0.003589942
0.00389544
0.003789147
0.003592977
0.003589943
0.00384612
0.003642051
0.00361611
0.003982215
0.003846442
0.003641975
0.003616072
0.003631189
0.006565373
0.003622862
0.003630341
0.00644347
0.0036208
0.003874886
0.004552314
0.004335772
0.003875209
0.004551979
0.003587254
0.003592256
0.003642329
0.003587426
0.003592734
0.004332658
0.003757913
0.003758444
0.003789256
0.003592977
0.003590035
0.003900921
0.003789386
0.003593024
0.003590045
0.003848071
0.003642084
0.003616073
0.003982286
0.003848028
0.003641898
0.003616217
0.003630799
0.006637563
0.003623949
0.003630084
0.00656098
0.003619227
0.003876964
0.004553284
0.004332939
0.003875274
0.004548748
0.00358729
0.003594052
0.00364229
0.003587335
0.003594736
0.004331284
0.003759381
0.003758202
0.003789252
0.003592859
0.003589988
0.003906369
0.003789326
0.00359258
0.003589904
0.003845793
0.003643075
0.003616144
0.003982464
0.003851011
0.003641901
0.003616358
0.003631191
0.006611739
0.003622056
0.003628162
0.006627756
0.003619864
0.003871797
0.004553701
0.004326101
0.003864865
0.004515363
0.003587854
0.003598303
0.003641202
0.003587004
0.003593881
0.004280762
0.003762117
0.003763273
0.003789259
0.003592522
0.003590395
0.00390278
0.003788986
0.003591641
0.003589638
0.003861175
0.003641768
0.003615353
0.003977891
0.003884208
0.003642067
0.003617249
0.003633837
0.006621459
0.003620773
0.004035977
0.003874641
0.003578611
0.003611672
0.003612052
0.003796506
0.003796622
0.003578323
0.003609098
0.003608377
0.003792112
0.003792255
0.003604128
0.003927993
0.003601013
0.003854385
0.003857498
0.003594137
0.003871106
0.003596682
0.003848805
0.003852375
0.003594279
0.003858098
0.003598441
0.003840194
0.003845064
0.003872647
0.00457538
0.004106757
0.003844336
0.004539482
0.003657516
0.003786557
0.003762737
0.003652046
0.003756594
0.003747338
0.003585918
0.003593855
0.003765662
0.003765768
0.003842243
0.003592409
0.003813107
0.003598308
0.00383576
0.003838635
0.004447706
0.004397692
0.004345094
0.004276436
0.004228436
0.004138242
0.004206625
0.004045763
0.003591519
0.003922119
0.003587333
0.003788563
0.003791002
0.003764899
0.003732952
0.003631323
0.004035318
0.003920382
0.004031802
0.003584377
0.003850134
0.003583972
0.003781981
0.003786628
0.00378648
0.003603115
0.003603674
0.003768414
0.003875178
0.003760137
0.003770028
0.003913673
0.003675366
0.003651503
0.004266062
0.003998757
0.003805672
0.003816157
0.003584288
0.003839546
0.003583604
0.00377888
0.003784365
0.003583164
0.003802781
0.003581768
0.003777687
0.003788793
0.003782324
0.003581778
0.003791133
0.003583219
0.003788312
0.003777225
0.003782208
0.003583066
0.003767531
0.003581258
0.003775629
0.003780544
0.005022854
0.004427683
0.003704719
0.003945657
0.003742309
0.003945271
0.003694374
0.003928241
0.003721447
0.003930648
0.003679756
0.003909205
0.003697123
0.003906899
0.003668795
0.003890579
0.003676286
0.003890846
0.003658033
0.003874809
0.00366771
0.003873173
0.003649224
0.00385979
0.003654083
0.003859945
0.003642339
0.003848695
0.00364525
0.003848476
0.003637549
0.003839848
0.003637295
0.003839976
0.003633838
0.003833589
0.003632785
0.003833387
0.004410589
0.004365284
0.004452406
0.00431028
0.004250793
0.004254967
0.004270409
0.004209262
0.00416899
0.004196524
0.004179377
0.004164113
0.004115642
0.004159641
0.004120989
0.004135586
0.004086358
0.004138964
0.004087466
0.004119594
0.004065189
0.004127706
0.004063992
0.004109358
0.003913816
0.003854113
0.004078873
0.003642243
0.0038729
0.003644784
0.005004141
0.003765636
0.003723306
0.003655132
0.004031323
0.004116413
0.004031986
0.004093711
0.00403336
0.003838812
0.003966476
0.00365141
0.004024879
0.003629859
0.003963125
0.004484818
0.004735387
0.005405023
0.00383614
0.003790791
0.003582795
0.003581454
0.003980854
0.004090962
0.003981272
0.004067086
0.003947642
0.003824806
0.003921791
0.003604923
0.003951097
0.003598082
0.003935201
0.004324971
0.005061569
0.005047648
0.003782819
0.003790902
0.003587884
0.003583146
0.003922482
0.004057298
0.003922267
0.00403433
0.003907136
0.003812781
0.003889842
0.003597688
0.00391519
0.003590112
0.003903358
0.004224991
0.004807221
0.00480893
0.003788702
0.003794426
0.003581692
0.003581882
0.003864239
0.004019403
0.003864022
0.004000106
0.003877058
0.003800366
0.003862406
0.003594034
0.00388551
0.003587078
0.003874461
0.004145158
0.004622144
0.00462257
0.003793292
0.003796861
0.003581429
0.003583309
0.003810337
0.00398149
0.003810598
0.003966384
0.003850803
0.003787942
0.003834774
0.003593458
0.003858174
0.003587896
0.003844825
0.004068776
0.004457594
0.004451033
0.003798212
0.003803016
0.003583797
0.003588887
0.003764566
0.003945694
0.00376435
0.00393512
0.003824543
0.003774883
0.003802909
0.00359476
0.003829131
0.00359045
0.003802545
0.003985111
0.004292757
0.004270273
0.003797856
0.003922167
0.003593555
0.003635142
0.003726889
0.003914868
0.003726323
0.003909363
0.003793523
0.00376193
0.003756392
0.003602408
0.003791927
0.003599734
0.003740863
0.003870957
0.004093196
0.004027188
0.003878935
0.004147968
0.003882286
0.004124784
0.003698273
0.003890294
0.003697352
0.003890259
0.003872686
0.003759473
0.003770208
0.003737244
0.003785517
0.003600805
0.003603916
0.003834053
0.003774166
0.00378465
0.003767002
0.003779851
0.003602374
0.003609868
0.003961329
0.003792113
0.003806922
0.003794618
0.003893762
0.003626208
0.003670972
0.003992248
0.003805364
0.003820747
0.003971674
0.004088715
0.003662182
0.003669586
0.003678945
0.003872874
0.003677847
0.003877642
0.003666945
0.003861802
0.003665217
0.003869689
0.003659102
0.003854498
0.003657214
0.003864354
0.003653755
0.003849435
0.003651636
0.003860667
0.004905104
0.004888728
0.00385887
0.003621323
0.004777526
0.003614095
0.00385135
0.003621124
0.004924106
0.003655617
0.003642366
0.003659926
0.003897227
0.003603938
0.003835476
0.003632465
0.00400239
0.003601488
0.00383823
0.004311212
0.003578488
0.003606365
0.003578457
0.00360864
0.003783712
0.003584209
0.003708991
0.003586937
0.003789619
0.00358414
0.003704534
0.003635515
0.003574952
0.003584434
0.003590218
0.003616933
0.00357508
0.003584592
0.003582096