/*--------------------------------*- C++ -*----------------------------------*\
  =========                 |
  \\      /  F ield         | OpenFOAM: The Open Source CFD Toolbox
   \\    /   O peration     | Website:  https://openfoam.org
    \\  /    A nd           | Version:  7
     \\/     M anipulation  |
\*---------------------------------------------------------------------------*/
FoamFile
{
    version     2.0;
    format      ascii;
    class       volScalarField;
    location    "0.05";
    object      k;
}
// * * * * * * * * * * * * * * * * * * * * * * * * * * * * * * * * * * * * * //

dimensions      [0 2 -2 0 0 0 0];

internalField   nonuniform List<scalar> 
105056
(
0.003740279
0.00374467
0.00374446
0.003744581
0.003744608
0.003739965
0.003745459
0.003744992
0.003745273
0.003745189
0.00373944
0.003745528
0.003745095
0.003745349
0.003745192
0.00373929
0.003745534
0.003745122
0.003745407
0.003745222
0.003739205
0.003745574
0.003745144
0.003745352
0.003745223
0.003739245
0.00374561
0.003745166
0.003745316
0.003745225
0.003739255
0.003745642
0.003745179
0.003745292
0.003745226
0.003739253
0.003745655
0.003745183
0.0037453
0.003745231
0.003739266
0.003745658
0.003745185
0.00374532
0.003745237
0.003739285
0.003745661
0.003745185
0.003745338
0.003745243
0.003739284
0.003745667
0.003745191
0.003745343
0.003745248
0.003739266
0.003745673
0.003745195
0.003745347
0.00374525
0.003739272
0.003745684
0.003745203
0.003745339
0.003745248
0.003739271
0.00374569
0.003745208
0.003745333
0.003745247
0.003739267
0.003745685
0.00374521
0.003745323
0.003745246
0.003739248
0.003745706
0.003745215
0.003745312
0.003745245
0.003739237
0.003745759
0.003745235
0.003745295
0.003745244
0.003739218
0.00374574
0.00374524
0.00374528
0.003745243
0.003739239
0.00374573
0.003745242
0.003745273
0.003745242
0.003739166
0.003745809
0.003745256
0.003745257
0.003745241
0.003739162
0.003745841
0.003745269
0.003745254
0.00374524
0.003739209
0.003745755
0.00374526
0.003745253
0.003745239
0.003576133
0.003745663
0.003745238
0.003745253
0.003745238
0.003739856
0.003744628
0.003744369
0.003744481
0.003744518
0.003583935
0.003574094
0.003572752
0.003572686
0.00357265
0.003572646
0.003582719
0.003573285
0.003572792
0.003572643
0.003572633
0.003572628
0.003581007
0.003573161
0.003572782
0.003572636
0.003572631
0.003572627
0.00358114
0.003573267
0.003572767
0.003572641
0.003572632
0.003572628
0.003581067
0.003573256
0.003572766
0.003572648
0.003572632
0.003572628
0.003581025
0.003573238
0.003572776
0.003572651
0.003572632
0.003572628
0.003581001
0.00357322
0.003572778
0.003572648
0.003572632
0.003572627
0.003580998
0.003573202
0.003572779
0.003572646
0.003572632
0.003572627
0.003580988
0.00357319
0.003572779
0.003572645
0.003572632
0.003572627
0.003580935
0.00357319
0.00357278
0.003572645
0.003572632
0.003572627
0.00358094
0.00357319
0.00357278
0.003572646
0.003572632
0.003572627
0.003580924
0.0035732
0.003572781
0.003572647
0.003572632
0.003572627
0.003580898
0.00357321
0.003572782
0.003572649
0.003572632
0.003572627
0.00358079
0.003573225
0.003572782
0.003572651
0.003572632
0.003572627
0.003580771
0.00357323
0.003572782
0.003572651
0.003572632
0.003572627
0.003580792
0.00357324
0.003572782
0.003572652
0.003572632
0.003572627
0.003580725
0.003573263
0.003572781
0.003572653
0.003572632
0.003572627
0.003580709
0.003573266
0.00357278
0.003572653
0.003572631
0.003572627
0.00358072
0.003573264
0.003572779
0.003572652
0.003572631
0.003572627
0.003580673
0.003573283
0.003572779
0.003572651
0.003572632
0.003572627
0.003581099
0.003573277
0.003572777
0.00357265
0.003572632
0.003572627
0.003581237
0.003573257
0.003572777
0.003572647
0.003572632
0.003572626
0.003581013
0.003573219
0.003572776
0.003572645
0.003572632
0.003572626
0.003739505
0.003745507
0.003745089
0.003745224
0.003745192
0.003582448
0.003573312
0.003572778
0.003572644
0.003572633
0.003572627
0.003582118
0.003573352
0.003572659
0.003572671
0.003572618
0.003572618
0.003582803
0.003573088
0.003572734
0.003572643
0.003572616
0.003572614
0.003582411
0.003572982
0.003572748
0.003572635
0.003572618
0.003572616
0.003582312
0.003572962
0.003572829
0.003572625
0.003572622
0.003572614
0.003582299
0.003572971
0.003572821
0.003572623
0.003572628
0.003572615
0.003582114
0.003572993
0.003572814
0.003572624
0.00357263
0.003572615
0.003582058
0.003573011
0.003572809
0.003572624
0.003572631
0.003572615
0.003582019
0.003573027
0.003572806
0.003572624
0.003572632
0.003572615
0.003581953
0.003573038
0.003572805
0.003572624
0.003572633
0.003572615
0.003581973
0.003573045
0.003572804
0.003572624
0.003572634
0.003572615
0.003582007
0.003573048
0.003572807
0.003572624
0.003572635
0.003572615
0.003582043
0.00357305
0.003572812
0.003572624
0.003572636
0.003572615
0.003581963
0.003573052
0.003572815
0.003572624
0.003572636
0.003572615
0.003582019
0.003573054
0.003572819
0.003572624
0.003572637
0.003572615
0.003582166
0.003573053
0.003572824
0.003572624
0.003572637
0.003572615
0.003582029
0.003573048
0.003572828
0.003572624
0.003572637
0.003572615
0.00358201
0.003573049
0.003572827
0.003572624
0.003572637
0.003572615
0.00358205
0.003573051
0.003572826
0.003572624
0.003572636
0.003572615
0.003581921
0.003573048
0.003572824
0.003572624
0.003572635
0.003572615
0.003581874
0.00357304
0.003572822
0.003572624
0.003572635
0.003572615
0.003581919
0.003573038
0.003572816
0.003572624
0.003572634
0.003572615
0.003582347
0.003573062
0.003572806
0.003572624
0.003572633
0.003572615
0.003738823
0.003745873
0.003745257
0.003745396
0.003745253
0.00358084
0.003573134
0.00357278
0.003572636
0.003572632
0.003572626
0.003582604
0.003573058
0.003572725
0.003572654
0.003572619
0.003572615
0.003581745
0.003573341
0.003572646
0.003572671
0.003572619
0.003572617
0.003581502
0.0035732
0.003572697
0.003572642
0.003572624
0.003572618
0.00358119
0.003573314
0.003572644
0.003572676
0.003572624
0.003572619
0.003581377
0.003573298
0.003572647
0.003572683
0.003572625
0.003572621
0.003581363
0.003573267
0.003572647
0.003572684
0.003572626
0.003572622
0.003581354
0.003573227
0.003572648
0.003572688
0.003572626
0.003572623
0.003581332
0.0035732
0.003572649
0.00357269
0.003572627
0.003572623
0.003581318
0.003573182
0.00357265
0.003572693
0.003572627
0.003572623
0.003581305
0.003573171
0.003572652
0.003572697
0.003572628
0.003572624
0.003581296
0.00357317
0.003572654
0.0035727
0.003572628
0.003572624
0.003581272
0.003573176
0.003572656
0.003572704
0.003572628
0.003572624
0.003581239
0.003573181
0.003572657
0.003572706
0.003572628
0.003572625
0.003581214
0.003573184
0.003572658
0.003572709
0.003572628
0.003572625
0.003581189
0.003573189
0.003572659
0.003572711
0.003572628
0.003572625
0.003581194
0.003573197
0.003572659
0.003572712
0.003572628
0.003572625
0.00358124
0.003573193
0.003572658
0.003572711
0.003572628
0.003572625
0.003581293
0.003573185
0.003572658
0.00357271
0.003572628
0.003572625
0.003581348
0.003573179
0.003572657
0.003572708
0.003572627
0.003572624
0.003581373
0.003573174
0.003572657
0.003572707
0.003572627
0.003572624
0.003581421
0.003573166
0.003572656
0.003572704
0.003572627
0.003572624
0.003581393
0.003573142
0.003572655
0.003572701
0.003572626
0.003572624
0.003738744
0.003745828
0.003745242
0.00374542
0.003745267
0.003581812
0.003573146
0.00357277
0.003572638
0.00357263
0.003572626
0.003582308
0.003572968
0.00357273
0.00357264
0.003572616
0.003572616
0.003583082
0.00357317
0.003572686
0.003572631
0.003572622
0.003572614
0.003581136
0.003573152
0.003572659
0.003572698
0.003572626
0.003572622
0.003583342
0.003573
0.003572658
0.003572652
0.003572622
0.003572618
0.003581699
0.00357287
0.003572655
0.003572632
0.00357262
0.003572616
0.003581627
0.003572881
0.003572655
0.003572632
0.00357262
0.003572616
0.00358161
0.003572894
0.003572656
0.003572632
0.00357262
0.003572616
0.003581588
0.003572902
0.003572656
0.003572632
0.00357262
0.003572616
0.003581558
0.003572905
0.003572655
0.003572632
0.00357262
0.003572615
0.003581527
0.003572906
0.003572656
0.003572632
0.00357262
0.003572615
0.003581506
0.003572904
0.003572655
0.003572629
0.00357262
0.003572615
0.003581499
0.0035729
0.003572656
0.003572625
0.003572619
0.003572615
0.003581487
0.003572896
0.003572656
0.003572623
0.003572619
0.003572615
0.003581486
0.003572896
0.003572656
0.003572623
0.003572619
0.003572614
0.003581508
0.003572896
0.003572656
0.003572623
0.003572619
0.003572614
0.003581501
0.003572892
0.003572655
0.003572622
0.003572619
0.003572614
0.003581475
0.003572889
0.003572654
0.003572621
0.003572619
0.003572614
0.003581445
0.003572889
0.003572654
0.003572621
0.003572618
0.003572614
0.00358142
0.003572888
0.003572653
0.00357262
0.003572618
0.003572614
0.003581409
0.003572889
0.003572652
0.003572621
0.003572618
0.003572614
0.003581398
0.003572881
0.003572652
0.00357262
0.003572617
0.003572614
0.003585143
0.00357284
0.003572654
0.003572619
0.003572617
0.003572614
0.003738829
0.003745801
0.003745197
0.003745235
0.00374524
0.003582042
0.003573145
0.003572773
0.003572639
0.00357263
0.003572626
0.003582268
0.003572963
0.003572731
0.00357264
0.003572617
0.003572616
0.003581189
0.003573172
0.003572685
0.003572631
0.003572622
0.003572614
0.003581976
0.003573148
0.003572658
0.003572697
0.003572626
0.003572622
0.003580973
0.003572991
0.003572658
0.003572649
0.003572622
0.003572617
0.003580817
0.003572866
0.003572656
0.003572631
0.003572619
0.003572616
0.003580801
0.003572881
0.003572655
0.003572632
0.00357262
0.003572616
0.00358079
0.003572896
0.003572656
0.003572632
0.00357262
0.003572616
0.003580787
0.003572902
0.003572655
0.003572632
0.00357262
0.003572616
0.003580795
0.003572903
0.003572655
0.003572631
0.00357262
0.003572615
0.003580825
0.003572902
0.003572655
0.00357263
0.00357262
0.003572615
0.003580888
0.003572898
0.003572654
0.003572627
0.003572619
0.003572615
0.003580964
0.003572892
0.003572654
0.003572623
0.003572619
0.003572615
0.003581033
0.003572885
0.003572653
0.003572621
0.003572618
0.003572614
0.003581104
0.003572881
0.003572652
0.003572621
0.003572618
0.003572614
0.003581147
0.003572877
0.003572652
0.00357262
0.003572618
0.003572614
0.003581143
0.003572873
0.003572651
0.00357262
0.003572618
0.003572614
0.003581098
0.003572873
0.003572651
0.003572619
0.003572618
0.003572614
0.003581052
0.003572878
0.003572651
0.00357262
0.003572618
0.003572614
0.003581015
0.003572879
0.003572651
0.00357262
0.003572618
0.003572614
0.003580958
0.003572883
0.003572651
0.003572621
0.003572618
0.003572614
0.00358091
0.003572881
0.003572652
0.003572622
0.003572618
0.003572614
0.003581447
0.003572831
0.003572649
0.003572616
0.003572616
0.003572613
0.003739379
0.003745757
0.003745186
0.003745215
0.00374522
0.003580745
0.003573131
0.003572782
0.003572635
0.003572632
0.003572625
0.003582025
0.003573047
0.003572729
0.003572654
0.003572619
0.003572615
0.003583096
0.003573337
0.003572646
0.00357267
0.003572618
0.003572617
0.003584456
0.003573204
0.003572693
0.003572641
0.003572623
0.003572617
0.003582917
0.003573319
0.003572641
0.003572676
0.003572624
0.003572619
0.003581077
0.003573301
0.003572644
0.003572681
0.003572624
0.003572621
0.003580971
0.003573264
0.003572644
0.003572683
0.003572625
0.003572622
0.003580957
0.003573221
0.003572644
0.003572687
0.003572625
0.003572622
0.003580955
0.003573195
0.003572645
0.003572689
0.003572626
0.003572623
0.003580953
0.00357318
0.003572646
0.003572692
0.003572626
0.003572623
0.003580949
0.00357317
0.003572647
0.003572695
0.003572626
0.003572623
0.003580948
0.003573168
0.003572649
0.003572698
0.003572627
0.003572624
0.003580948
0.003573172
0.003572651
0.003572701
0.003572627
0.003572624
0.003580944
0.003573176
0.003572652
0.003572703
0.003572627
0.003572624
0.00358094
0.003573177
0.003572653
0.003572705
0.003572627
0.003572624
0.003580941
0.003573183
0.003572654
0.003572706
0.003572627
0.003572625
0.003580941
0.003573188
0.003572654
0.003572708
0.003572627
0.003572625
0.003580936
0.003573189
0.003572653
0.003572708
0.003572627
0.003572624
0.003580922
0.003573183
0.003572653
0.003572707
0.003572627
0.003572624
0.003580913
0.003573174
0.003572652
0.003572705
0.003572626
0.003572624
0.003580907
0.003573168
0.003572652
0.003572705
0.003572626
0.003572624
0.003580909
0.003573158
0.003572651
0.003572701
0.003572626
0.003572623
0.003580882
0.003573151
0.003572652
0.003572701
0.003572626
0.003572624
0.003739743
0.003745924
0.003745147
0.003745289
0.003745232
0.00358162
0.003573293
0.003572787
0.003572644
0.003572634
0.003572627
0.003584312
0.00357335
0.003572667
0.00357267
0.003572618
0.003572618
0.003585136
0.00357308
0.003572741
0.00357264
0.003572616
0.003572613
0.003581968
0.003572971
0.003572755
0.003572632
0.003572618
0.003572615
0.003581819
0.003572951
0.003572833
0.003572621
0.003572622
0.003572613
0.003581223
0.003572962
0.003572823
0.00357262
0.003572627
0.003572614
0.003581216
0.003572986
0.003572815
0.00357262
0.003572628
0.003572614
0.003581204
0.003573005
0.003572809
0.00357262
0.00357263
0.003572614
0.003581197
0.003573021
0.003572806
0.003572619
0.00357263
0.003572614
0.003581191
0.003573033
0.003572804
0.003572619
0.003572631
0.003572614
0.003581209
0.003573041
0.003572804
0.003572619
0.003572632
0.003572614
0.003581213
0.003573044
0.003572805
0.003572619
0.003572633
0.003572613
0.00358124
0.003573046
0.003572809
0.003572619
0.003572634
0.003572613
0.003581226
0.003573049
0.003572812
0.003572619
0.003572634
0.003572613
0.003581241
0.00357305
0.003572815
0.003572619
0.003572634
0.003572613
0.003581224
0.003573052
0.003572818
0.003572619
0.003572634
0.003572613
0.003581265
0.003573049
0.003572821
0.003572619
0.003572635
0.003572613
0.003581281
0.003573048
0.003572823
0.003572619
0.003572634
0.003572613
0.003581292
0.003573044
0.003572822
0.003572619
0.003572634
0.003572613
0.003581308
0.003573028
0.003572818
0.003572619
0.003572633
0.003572613
0.003581264
0.003573051
0.003572818
0.003572619
0.003572633
0.003572613
0.003581242
0.003573053
0.003572812
0.003572619
0.003572632
0.003572613
0.003581246
0.003573062
0.0035728
0.003572619
0.003572631
0.003572613
0.003740069
0.003745596
0.003744763
0.003745111
0.003744958
0.003590727
0.003574089
0.003572751
0.003572684
0.00357265
0.003572645
0.003586873
0.003573274
0.003572792
0.00357264
0.003572632
0.003572626
0.003581904
0.003573147
0.003572781
0.003572632
0.003572631
0.003572626
0.003581221
0.003573251
0.003572766
0.003572638
0.003572632
0.003572627
0.003581246
0.003573237
0.003572766
0.003572645
0.003572632
0.003572627
0.003581233
0.003573223
0.003572775
0.003572647
0.003572632
0.003572627
0.00358122
0.003573203
0.003572778
0.003572643
0.003572631
0.003572626
0.003581214
0.003573188
0.003572778
0.003572641
0.003572631
0.003572626
0.003581212
0.003573179
0.003572778
0.00357264
0.003572631
0.003572626
0.003581212
0.003573176
0.003572779
0.00357264
0.003572631
0.003572626
0.003581306
0.003573182
0.003572779
0.003572641
0.003572631
0.003572626
0.003581294
0.00357319
0.00357278
0.003572642
0.003572631
0.003572626
0.003581666
0.003573203
0.00357278
0.003572644
0.003572631
0.003572626
0.003581292
0.003573205
0.00357278
0.003572645
0.003572631
0.003572626
0.003581669
0.003573221
0.00357278
0.003572646
0.003572631
0.003572626
0.003581402
0.003573221
0.00357278
0.003572646
0.003572631
0.003572625
0.003581381
0.003573246
0.00357278
0.003572648
0.003572631
0.003572625
0.003581158
0.003573245
0.003572778
0.003572647
0.003572631
0.003572625
0.003581629
0.003573264
0.003572778
0.003572647
0.003572631
0.003572625
0.00358162
0.003573276
0.003572776
0.003572646
0.003572631
0.003572625
0.003581145
0.003573246
0.003572776
0.003572643
0.003572631
0.003572625
0.003581143
0.003573238
0.003572774
0.003572642
0.003572631
0.003572625
0.003581159
0.003573211
0.003572775
0.003572643
0.003572632
0.003572626
0.00374988
0.00376304
0.003761552
0.003762204
0.003761857
0.003612838
0.003574845
0.003574321
0.003573979
0.003574054
0.003574007
0.003600028
0.003575837
0.003574191
0.003573834
0.003573937
0.003573893
0.0035984
0.003576017
0.003574228
0.003573826
0.003573916
0.003573857
0.003598241
0.003576103
0.00357425
0.003573796
0.003573911
0.003573849
0.003598236
0.003576121
0.003574259
0.00357381
0.003573915
0.003573847
0.003598233
0.003576089
0.00357426
0.003573817
0.003573914
0.003573845
0.00359823
0.003576091
0.003574255
0.003573826
0.003573914
0.003573845
0.003598227
0.003576093
0.003574249
0.003573827
0.003573914
0.003573846
0.003598224
0.003576095
0.003574245
0.003573827
0.003573915
0.003573847
0.00359822
0.003576104
0.003574241
0.003573827
0.003573916
0.003573847
0.003598222
0.003576135
0.003574238
0.003573827
0.003573916
0.003573847
0.003598221
0.00357614
0.003574235
0.003573828
0.003573917
0.003573847
0.003598226
0.003576144
0.003574235
0.003573828
0.003573918
0.003573846
0.003598222
0.003576145
0.003574232
0.003573829
0.003573918
0.003573846
0.003598225
0.003576156
0.00357423
0.003573829
0.003573917
0.003573845
0.003598224
0.003576155
0.003574228
0.00357383
0.003573917
0.003573845
0.003598227
0.003576134
0.003574226
0.003573836
0.003573917
0.003573845
0.003598229
0.003576162
0.003574219
0.003573837
0.003573918
0.003573844
0.003598275
0.003576117
0.003574211
0.003573836
0.003573916
0.003573843
0.003637707
0.00357613
0.003574216
0.003573837
0.003573917
0.003573842
0.003604372
0.00357629
0.003574214
0.003573839
0.003573919
0.003573845
0.003635872
0.003576172
0.003574209
0.003573838
0.003573917
0.00357384
0.003640966
0.003576156
0.003574219
0.003573833
0.003573919
0.003573843
0.003747619
0.003756792
0.003603816
0.003578235
0.003743147
0.003744476
0.003612641
0.003580551
0.003665344
0.003586613
0.003742544
0.003742569
0.003599834
0.003587203
0.003652046
0.003589701
0.003743359
0.003742455
0.003598389
0.003589941
0.00364705
0.003590312
0.003742867
0.003742459
0.003598229
0.00359073
0.003645254
0.003590771
0.003742775
0.003742473
0.003598224
0.003591079
0.003643797
0.003591054
0.003742689
0.00374251
0.00359822
0.003591197
0.003642906
0.003591205
0.003742657
0.003742542
0.003598219
0.003591251
0.003641502
0.003591086
0.003742661
0.003742576
0.003598216
0.003590964
0.003640686
0.003590705
0.003742703
0.003742601
0.003598215
0.003590799
0.003639976
0.003590697
0.003742839
0.003742595
0.003598216
0.003590696
0.003640351
0.003590632
0.003742759
0.003742605
0.003598211
0.003590582
0.003640161
0.003590538
0.003742744
0.003742601
0.003598214
0.003590514
0.003639332
0.003590413
0.003742728
0.003742601
0.00359821
0.003590527
0.003639189
0.003590271
0.003742756
0.003742632
0.003598217
0.003590602
0.003639028
0.003590317
0.003742578
0.003742586
0.003598214
0.003590606
0.003639574
0.003590116
0.003742656
0.003742583
0.003598215
0.003590377
0.003638615
0.003589978
0.003742549
0.003742692
0.003598217
0.00359054
0.003637282
0.00358946
0.003742471
0.003742654
0.003598219
0.00359043
0.003638007
0.003589609
0.003742557
0.003742535
0.003598216
0.003590012
0.003638373
0.003589687
0.003742491
0.003742637
0.003598627
0.003590001
0.003602111
0.003588293
0.003742122
0.003742462
0.003635275
0.003591071
0.003603603
0.003589431
0.003742222
0.003742588
0.003640712
0.003591057
0.003600916
0.003590286
0.003742415
0.003578935
0.00362711
0.003590404
0.003598878
0.003589975
0.003744787
0.003611361
0.003579404
0.003746153
0.003672455
0.00358551
0.003745492
0.003603311
0.003583745
0.003745964
0.003657015
0.003582533
0.003743315
0.003599773
0.003582209
0.003744423
0.003605345
0.003581573
0.003742594
0.003644566
0.003582327
0.00374368
0.003603776
0.003582075
0.003743026
0.003650153
0.003583301
0.003743797
0.003598617
0.00358197
0.003744199
0.003643124
0.003581833
0.003743471
0.003598338
0.00358178
0.003745676
0.003658561
0.003582453
0.003745479
0.003602359
0.003582885
0.003745947
0.003672487
0.003585342
0.003744662
0.003611927
0.00357943
0.003757073
0.003603744
0.003578227
0.003747604
0.003759573
0.003573235
0.003573634
0.003747268
0.003750624
0.003759529
0.003573501
0.003573216
0.003752612
0.003750442
0.003760388
0.003573252
0.003573302
0.003751715
0.003750735
0.003760202
0.003573281
0.003573251
0.00375205
0.003750641
0.003573259
0.003751901
0.003580578
0.003664997
0.003586619
0.00374319
0.003744457
0.003587206
0.003651894
0.003589693
0.003742549
0.00374261
0.003589935
0.003647015
0.003590273
0.003743254
0.003742452
0.003590765
0.003645317
0.003590761
0.003742904
0.003742455
0.003591082
0.003644121
0.003591059
0.003742763
0.003742476
0.003591182
0.003643255
0.00359114
0.003742693
0.003742514
0.003591279
0.00364163
0.003590977
0.00374265
0.003742547
0.003591075
0.003641064
0.003590741
0.00374266
0.003742571
0.003590871
0.003639391
0.003590329
0.003742599
0.003742608
0.003590675
0.003640467
0.003590344
0.003742526
0.003742593
0.00359041
0.003639102
0.003590217
0.003742734
0.003742579
0.003590592
0.00363886
0.003589837
0.003742646
0.003742571
0.003590204
0.003639512
0.003589998
0.0037426
0.003742525
0.003588652
0.003598978
0.003589944
0.003742455
0.003742652
0.003588724
0.003600444
0.003588846
0.003742787
0.003742761
0.00359008
0.003598695
0.003589835
0.003742622
0.003575391
0.003594672
0.003752857
0.003747279
0.003750629
0.003749683
0.003759577
0.003573236
0.003573637
0.003752608
0.003750442
0.003763081
0.003759613
0.003573501
0.003573215
0.003751712
0.003750742
0.003761617
0.003760403
0.003573251
0.003573302
0.003752054
0.003750643
0.003762269
0.00376021
0.003573281
0.003573251
0.003751906
0.003761914
0.00357326
0.003588154
0.003733797
0.003581842
0.003736481
0.003586073
0.003731069
0.003587707
0.003736248
0.003586108
0.003730891
0.003586814
0.003736368
0.003586635
0.003729876
0.003587104
0.003736163
0.003587147
0.00372987
0.003586903
0.003735911
0.003587224
0.003729714
0.003586854
0.003735676
0.003587213
0.003729245
0.003586833
0.003735638
0.003586983
0.003728918
0.003587028
0.00373558
0.003587123
0.00372858
0.003587072
0.003735457
0.003587241
0.003735546
0.003586856
0.003735271
0.003587105
0.00372802
0.003587246
0.003735398
0.003586975
0.003731077
0.003587397
0.003735147
0.003586875
0.003727837
0.003587644
0.003734903
0.003587211
0.003734751
0.003587336
0.003734651
0.003587135
0.003732831
0.003587422
0.003734756
0.003587317
0.003734772
0.003587479
0.003734224
0.003587099
0.00373121
0.00358757
0.003734348
0.003587657
0.003734169
0.003586996
0.003734208
0.003587581
0.003732971
0.003587229
0.003734106
0.003587546
0.00373395
0.00358705
0.003734075
0.003587631
0.003730859
0.003586798
0.003734815
0.003588842
0.00373239
0.003586575
0.003734878
0.003586903
0.003730651
0.003587556
0.003734921
0.003598773
0.003588632
0.003603585
0.003609378
0.00362274
0.003616349
0.003622657
0.00361194
0.003622525
0.003613793
0.00362283
0.003618115
0.003620334
0.003615965
0.003604083
0.003602463
0.003585538
0.003601421
0.003591274
0.003640069
0.003590725
0.003742634
0.003742576
0.003590645
0.003638943
0.00359026
0.003742721
0.003742587
0.003590591
0.003639621
0.003590591
0.003742798
0.003742648
0.003590679
0.003639218
0.003590277
0.003742621
0.003742899
0.003589209
0.003638965
0.003589479
0.003742542
0.003742664
0.003589807
0.003625325
0.003587859
0.003742223
0.003742499
0.003592416
0.003639948
0.003592244
0.003742233
0.003742185
0.003585916
0.003763227
0.003580706
0.003745978
0.003581087
0.00373038
0.003592773
0.00372695
0.003584673
0.003600678
0.00358678
0.003736225
0.003584034
0.003735309
0.003586355
0.003736341
0.003585793
0.003728524
0.003587042
0.003736228
0.003586173
0.003730648
0.003587035
0.003736091
0.003586659
0.003729979
0.003586922
0.003735852
0.003587036
0.00372985
0.003586834
0.003735774
0.003587116
0.003729351
0.003586885
0.003735792
0.003587054
0.003728927
0.003586996
0.003735608
0.003586971
0.003728666
0.003586979
0.003735503
0.003587303
0.00372846
0.003587072
0.00373548
0.003587108
0.003728248
0.003587219
0.003735062
0.003587041
0.003727943
0.003587533
0.003735112
0.003586924
0.003727771
0.003587802
0.003734906
0.003587517
0.003727927
0.003587904
0.003734699
0.003587203
0.003728065
0.003587687
0.003734721
0.00358746
0.003727613
0.003587736
0.003734255
0.003587403
0.003732487
0.003588016
0.003734391
0.003587961
0.003727886
0.003587793
0.003734237
0.003587817
0.003729423
0.003587779
0.003733969
0.003587725
0.003727243
0.00358713
0.003732973
0.003588218
0.003732428
0.003587694
0.003732517
0.003588075
0.003728085
0.003586904
0.003732458
0.003587303
0.003730908
0.003587698
0.003593838
0.003729262
0.003587348
0.003604355
0.003602198
0.003613831
0.003615105
0.003624744
0.003617112
0.003613904
0.00361573
0.003622256
0.003620408
0.003617284
0.003617235
0.003606931
0.003612567
0.003597779
0.003587416
0.00359331
0.003754329
0.003585694
0.003763244
0.003580672
0.003746679
0.003581299
0.0037303
0.003592938
0.003726529
0.003575998
0.00376677
0.003575498
0.003761519
0.003575493
0.003765879
0.003575991
0.003765462
0.003575681
0.00377167
0.003575346
0.003765137
0.003575554
0.003766373
0.003575298
0.003769119
0.003575695
0.003771381
0.003575375
0.003765122
0.003575492
0.003766699
0.003575266
0.00376915
0.003575696
0.003771864
0.003575402
0.003765354
0.003575518
0.003766609
0.00357524
0.003769346
0.003575698
0.003771696
0.003575388
0.003765311
0.003575506
0.003769309
0.003588191
0.003733819
0.003581894
0.00373645
0.003586888
0.003736209
0.00358401
0.00373531
0.003585935
0.003731205
0.003587767
0.003736232
0.003586358
0.003736509
0.003585887
0.003728701
0.003586071
0.003730993
0.003586792
0.003736444
0.003587042
0.00373631
0.003586138
0.003730702
0.003586614
0.003730066
0.003587117
0.003736146
0.00358702
0.003736064
0.003586746
0.003730045
0.003587089
0.00372994
0.003586836
0.003736007
0.003586924
0.003735862
0.003587035
0.003729865
0.003587137
0.003729883
0.003586859
0.003735749
0.003586802
0.003735688
0.003587119
0.003729407
0.003587258
0.003729375
0.003586744
0.003735708
0.003586842
0.003735653
0.003587154
0.003728931
0.003587193
0.00372903
0.003586901
0.003735599
0.003586889
0.00373552
0.00358749
0.003728522
0.003586884
0.003728833
0.003587162
0.003735071
0.00358748
0.003734911
0.003587465
0.003729122
0.003587166
0.003733299
0.003587164
0.003735244
0.003587433
0.003735104
0.003587222
0.003727868
0.003586825
0.003728111
0.003587519
0.003731174
0.00358781
0.003734245
0.003587328
0.003732349
0.0035873
0.003733604
0.003587378
0.003734508
0.003587885
0.003734594
0.003587997
0.003727743
0.003587538
0.003734738
0.003587212
0.003734332
0.003587854
0.003734056
0.003587139
0.003727656
0.003588327
0.003727239
0.003587854
0.003733361
0.00358658
0.003732713
0.003587537
0.003727319
0.003587242
0.003726894
0.003588456
0.003732088
0.003586943
0.003729915
0.003588058
0.003727206
0.003587451
0.003761547
0.003732794
0.003587573
0.003646027
0.003579416
0.003637307
0.003589942
0.003592348
0.003586493
0.003591326
0.003575591
0.003705057
0.003746638
0.003668191
0.003694628
0.00365227
0.003719679
0.003697166
0.003692366
0.003678755
0.003718426
0.003701625
0.003690959
0.003683538
0.003717174
0.003702178
0.003690298
0.003684738
0.003714508
0.003703202
0.003689872
0.003685681
0.003713002
0.003701418
0.003689625
0.003686233
0.003710145
0.003700528
0.003689497
0.003686557
0.003709083
0.003691883
0.003689359
0.003686994
0.00370467
0.003696374
0.003689469
0.003686662
0.003706762
0.003687484
0.003704562
0.00369317
0.003701318
0.003699142
0.00368955
0.003686664
0.003708291
0.003689805
0.00369217
0.003687637
0.00370383
0.003697177
0.003689734
0.003686685
0.003707025
0.003689276
0.003708463
0.003692073
0.00370304
0.003691407
0.003698185
0.003685873
0.003705037
0.003686297
0.003708893
0.003696207
0.003700553
0.003693063
0.003697027
0.003684691
0.003705433
0.003686916
0.00371238
0.003695847
0.003699053
0.003693164
0.003705859
0.003685063
0.003705317
0.003686548
0.003712534
0.003695753
0.003698294
0.00369521
0.003702063
0.003682824
0.003706691
0.00368712
0.003710841
0.003688798
0.003702585
0.00369265
0.003698964
0.003682642
0.00370607
0.003728428
0.003750634
0.003747339
0.003733452
0.003745611
0.003752032
0.003743119
0.00375879
0.003748531
0.003732358
0.003756216
0.003742634
0.003744807
0.003727576
0.003729796
0.003750023
0.003744722
0.00375278
0.003670107
0.003724489
0.0036759
0.00370968
0.003753126
0.003730735
0.003674942
0.003718493
0.003687653
0.003692897
0.003680425
0.003718539
0.003698249
0.003691224
0.003682351
0.003718235
0.003702761
0.003690214
0.003683146
0.003716893
0.003706176
0.003689784
0.003683972
0.003716129
0.003707916
0.003689478
0.003684529
0.00371517
0.003708518
0.003689322
0.003685113
0.003714405
0.003709018
0.003689182
0.003685319
0.003714747
0.003709144
0.003689129
0.003685316
0.003715217
0.003698703
0.003689149
0.003685515
0.003713756
0.003708573
0.003689029
0.003686009
0.003713691
0.003705599
0.003688958
0.003686108
0.003713314
0.003708534
0.003688898
0.003685495
0.003714607
0.003699559
0.003688924
0.003686081
0.00371418
0.003704626
0.003688845
0.003685614
0.003713627
0.003697887
0.003688893
0.003686356
0.003713875
0.00370418
0.003688799
0.003685427
0.003714236
0.003699026
0.003688807
0.003686574
0.003713839
0.003701173
0.00368877
0.00368527
0.003713158
0.003698116
0.003688803
0.003686145
0.003713025
0.003697829
0.003688752
0.00368833
0.003712402
0.003701786
0.003688693
0.003692962
0.003712228
0.003705921
0.003688619
0.003702359
0.003712875
0.003687621
0.003692419
0.003728109
0.003740994
0.00374422
0.003727243
0.003728809
0.003751827
0.003742012
0.003742096
0.003745195
0.003728881
0.003727313
0.003748506
0.003754604
0.00373057
0.003727718
0.003740869
0.003704748
0.003747576
0.003670905
0.003724584
0.0036757
0.003710052
0.003749801
0.003753058
0.003752824
0.003750954
0.003749968
0.003753161
0.003752868
0.003751179
0.00375196
0.003754725
0.003752796
0.003754704
0.003668351
0.003694991
0.003719765
0.003652127
0.003674853
0.003718538
0.003687452
0.003692965
0.003702947
0.003690008
0.003713032
0.003685419
0.003683817
0.003716216
0.003707352
0.003689538
0.003700464
0.00368974
0.003709698
0.003686031
0.003684352
0.003715793
0.003707804
0.003689374
0.003701351
0.003689672
0.003710005
0.003686319
0.003684867
0.003714583
0.003708037
0.003689228
0.00369182
0.003699546
0.003705972
0.003685489
0.003685884
0.003713514
0.003709178
0.003688884
0.003691647
0.003688869
0.003687252
0.003708025
0.003686037
0.003711441
0.003706916
0.003688762