/*--------------------------------*- C++ -*----------------------------------*\
  =========                 |
  \\      /  F ield         | OpenFOAM: The Open Source CFD Toolbox
   \\    /   O peration     | Website:  https://openfoam.org
    \\  /    A nd           | Version:  7
     \\/     M anipulation  |
\*---------------------------------------------------------------------------*/
FoamFile
{
    version     2.0;
    format      ascii;
    class       surfaceScalarField;
    location    "0.05";
    object      phi;
}
// * * * * * * * * * * * * * * * * * * * * * * * * * * * * * * * * * * * * * //

dimensions      [0 3 -1 0 0 0 0];

internalField   nonuniform List<scalar> 
249116
(
0.02280687
-0.08794761
-0.002708351
0.02239506
0.02347499
0.02753194
0.02728279
-0.005362625
-0.01050648
-0.008010254
-0.008956339
0.01723083
-0.08409311
-0.005224903
0.02145434
0.02233215
0.02562801
0.02547954
0.01478208
-0.07631083
-0.006022401
0.01918933
0.01970226
0.02304793
0.02284245
0.01263406
-0.07043295
-0.005610037
0.01768593
0.01835779
0.02110422
0.02104307
0.01047557
-0.06268631
-0.005107448
0.01587966
0.01630177
0.01892994
0.01884088
0.008145486
-0.05701431
-0.004747976
0.01457061
0.01501723
0.01727696
0.01722757
0.006025062
-0.05245075
-0.004388319
0.01346247
0.01377212
0.01588275
0.01584215
0.004451367
-0.04992783
-0.004204571
0.01275868
0.01300242
0.01500203
0.01494296
-0.04781929
-0.003998857
0.01217299
0.01425915
0.003300539
0.01233648
0.01420036
0.02810609
-0.08253088
0.001843565
-0.005226539
-0.01103629
-0.009266398
-0.009837168
0.02352485
-0.07866517
-0.0008466978
0.02130452
-0.07250691
-0.001583605
0.0192564
-0.06687295
-0.001511876
0.01626616
-0.05834544
-0.001350645
0.01253044
-0.05205075
-0.001227844
0.009122485
-0.04788572
-0.001157068
0.006616867
-0.04628208
-0.001140128
-0.04497249
-0.001106915
0.004876986
0.03143146
-0.07946999
0.002500109
-0.005708154
-0.01129789
-0.009654296
-0.01033213
0.02827655
-0.07631373
0.0008034715
0.0272056
-0.07130914
-0.0001268265
0.02616751
-0.06583332
-1.541651e-06
0.02230312
-0.0545127
3.164661e-05
0.0165914
-0.04635907
2.004897e-05
0.01136035
-0.04262226
-3.240703e-05
0.007962904
-0.04282705
-5.759233e-05
-0.04265784
-4.849194e-05
0.005696745
0.03360804
-0.07792985
0.003241783
-0.006136425
-0.01157018
-0.01002394
-0.01065942
0.03159265
-0.07537678
0.001078444
0.03280112
-0.07292887
0.0004112646
0.0349554
-0.06905457
0.001066963
0.03038656
-0.05124313
0.001299276
0.02097065
-0.03798715
0.001043987
0.01257693
-0.03516462
0.0009360828
0.007932876
-0.03920382
0.001020824
-0.04152596
0.0008239973
0.005976994
0.03544421
-0.07723681
0.002942264
-0.006353291
-0.01166266
-0.01023539
-0.01082817
0.03497009
-0.07610682
0.001204162
0.03926549
-0.07810126
0.0008769986
0.04973646
-0.0206785
0.003038144
-0.01748776
-0.02291443
-0.02148299
0.0445165
-0.01570491
0.002459166
-0.005217673
-0.01745434
-0.01010541
0.02432997
-0.005850035
0.001615016
-0.003125685
-0.005629655
-0.004810257
0.01013615
-0.005621849
0.002086871
-0.005460779
-0.005815421
-0.006159633
0.004693524
-0.008120939
0.002314799
-0.008822853
-0.009149473
-0.009982725
-0.009791025
0.002319663
-0.01122936
0.004067815
-0.01042191
-0.01177762
0.03565779
-0.07668815
0.002901897
-0.006419438
-0.01163318
-0.01025715
-0.01079858
0.0360964
-0.07756321
0.001017787
0.01143931
-0.08341838
-0.0002661506
0.006579018
0.0118208
0.01184055
0.01232014
-0.02173309
0.0001737652
0.02053747
0.001012529
-0.01975764
-0.002945589
-0.005918916
-0.007377369
-0.001255371
-0.01558225
0.009977548
-3.210436e-05
-0.0003654013
3.33053e-06
-2.213709e-05
0.0001710005
0.003163675
0.0002526531
-0.007466344
-0.0005451493
-0.0005051041
-0.000429046
-9.252765e-05
5.284168e-06
-0.0007250218
0.0006660636
-0.002647566
-0.00121243
-0.00156544
-0.002641829
-0.0001617561
-0.01011701
0.0004081005
7.964159e-05
0.03181527
-0.07369247
0.002577191
-0.00605922
-0.01115592
-0.009769046
-0.01040395
0.0283706
-0.07494381
0.0008252745
0.00973494
-0.08118083
-0.001404916
0.00213636
0.009343837
0.006322821
0.02598583
-0.02282429
-0.0003823318
0.001728649
0.002480272
0.002311891
0.0004349333
0.00199812
-0.0004267285
-0.00150294
-6.844815e-05
0.0004799489
0.01058784
-0.01070231
-0.0001490947
0.0003129272
-0.0003187761
1.477146e-05
-0.0002253084
0.02875191
-0.06854916
0.002483048
-0.005930987
-0.01081243
-0.009470667
-0.01016418
0.02267025
-0.06935696
0.0004948033
0.00670019
-0.07334175
-0.00136621
0.0006707551
0.005269226
0.00355721
0.02399074
-0.01990408
-0.00026368
0.0006546773
0.001453926
0.000916846
-0.0001482364
0.00122799
-0.0001788806
-0.001052506
3.396651e-06
-0.0513888
-0.000369337
0.0009534319
-0.002248795
0.001087314
-0.0006279009
0.01067113
0.01461403
0.002297944
0.01152957
0.01348141
0.0269534
-0.06241125
0.002426344
-0.005877441
-0.01046703
-0.009202295
-0.009970899
0.01993211
-0.06250322
0.0001675563
0.00531747
-0.06493302
-0.0005839264
0.0002134845
0.003862466
0.002713884
0.02088884
-0.01741191
-0.0002337472
0.0004469568
0.001176557
0.0006783742
-0.0002275986
0.001030183
-0.0001441136
-0.000886197
1.27291e-07
-0.052576
-0.0002242252
0.001420139
-0.002397555
-0.0001468994
-0.0009607728
0.00349652
0.02610085
-0.05569436
0.002402358
-0.005973999
-0.01021842
-0.009105469
-0.009922208
0.01858256
-0.05526525
0.0002803185
0.004796319
-0.05661585
-0.0006349599
0.0002579843
0.00345926
0.002386775
0.01836932
-0.0151445
-0.0002547516
0.0003794476
0.001041127
0.000607987
-0.0002023134
0.0008889025
-0.0001225612
-0.0007625239
-3.817436e-06
-0.05626282
0.0004939625
0.001525919
-0.002552083
-5.659051e-05
-0.001080181
0.005355803
0.02611441
-0.04906758
0.002496678
-0.006150187
-0.010039
-0.009101025
-0.009947658
0.01873193
-0.04806068
0.0001779057
0.004591323
-0.0484282
-0.0004898694
0.0005696676
0.003472954
0.002400216
0.01587551
-0.01291172
-0.0002754455
0.0003813641
0.0009819674
0.0006176524
-7.801116e-05
0.0007629371
-0.0001059684
-0.0006499117
-7.056951e-06
-0.01306138
-0.0002897522
0.001414833
-0.001782432
-0.0005421392
-0.001500364
-0.01766533
0.007293067
-0.01390464
-0.01622468
0.0271013
-0.04314488
0.0026564
-0.006420696
-0.009975332
-0.009224301
-0.01006006
0.02031699
-0.0412438
-3.257457e-05
0.004644104
-0.04002369
-0.000431182
0.001183414
0.003780185
0.002735952
0.01332519
-0.01058207
-0.0003417994
0.0004995144
0.000958638
0.0007067556
7.787872e-05
0.0006370146
-9.400167e-05
-0.0005339162
-9.096675e-06
0.0004750797
-0.0147613
-5.304927e-05
0.001277878
0.02895464
-0.03822137
0.002595319
-0.006786059
-0.0100071
-0.009442871
-0.01023745
0.02337668
-0.03560374
-6.210314e-05
0.005215277
-0.03204608
-0.001233799
0.002736017
0.00478336
0.00389822
0.01060328
-0.007966746
-0.0004210297
0.0007451158
0.001004549
0.0008940571
0.000356051
0.0004885348
-8.507836e-05
-0.0003906359
-1.28202e-05
0.0003410221
-0.0180868
0.0002254465
-0.001066487
-0.0002975653
-0.0004245065
0.0163463
0.002962575
0.03034941
-0.03436183
0.002919563
-0.007127597
-0.009997935
-0.009625758
-0.01037723
0.02659418
-0.03199233
0.00014383
0.006524063
-0.0285429
-0.001784795
0.005085299
0.006677535
0.006588894
0.007321325
-0.005477996
-0.0007021066
0.001343839
0.001448903
0.001450309
0.001139789
0.0001388295
-0.0002381293
0.000254244
-4.499942e-05
-0.0001099447
-0.0004699016
0.0004798913
1.213629e-05
-2.212587e-05
-0.0006161713
0.0006679484
-1.59113e-05
-3.586567e-05
-0.001225535
0.001494896
-5.426102e-05
-0.0002151045
-0.002449994
0.01735884
-0.01320578
-0.0003508628
-0.00371244
-0.003109364
-0.003381879
0.008851464
0.03243417
-0.03183227
0.003216147
-0.007500967
-0.01016057
-0.009924327
-0.01059403
0.02974821
-0.02977081
0.0004644403
0.02925128
-0.02700741
-0.00103856
0.03108296
-0.02422817
-0.001978236
0.005050295
0.006308515
0.006599723
0.006416196
0.03720148
-0.02115424
-0.001455546
0.00272757
0.005154065
0.003943288
0.004666351
0.04394598
-0.02167139
-0.001106405
0.001849433
0.005580121
0.003846979
0.004756754
0.04670788
-0.02611662
-0.001700179
0.003123409
0.00829354
0.005569978
0.008067963
0.0398899
-0.03685074
-0.002270888
0.008130276
0.01303631
0.01272379
0.01204923
-0.03934996
-0.0009153542
0.009732439
0.01241601
0.03317587
0.01208187
0.01274902
0.03383458
-0.03004592
0.003175672
-0.007758799
-0.01020889
-0.01010542
-0.01072349
0.03177843
-0.0285109
0.0007962293
0.03158125
-0.02671658
-9.365288e-05
0.03272737
-0.02478167
-0.0005926224
0.03555678
-0.02342797
-0.000555676
0.03882275
-0.02437701
-0.0005603523
0.0400762
-0.02686123
-0.0005088481
0.03649317
-0.03264022
-0.0006274936
-0.03431185
-0.0005130252
0.03196808
0.03472979
-0.02886608
0.003343746
-0.00792707
-0.01027319
-0.01023438
-0.01081874
0.03302616
-0.0277352
0.000927923
0.03251022
-0.02652624
0.0003256057
0.03314725
-0.02540125
-1.744053e-05
0.03460333
-0.02483879
-4.52556e-05
0.03587103
-0.02559707
-4.764274e-05
0.03617827
-0.02717401
5.528568e-06
0.03390312
-0.03034902
-1.603937e-05
-0.03166043
7.999443e-05
0.0311717
0.03523966
0.003413861
-0.008040952
-0.01029791
-0.01031838
-0.0108718
-0.02799056
0.033591
0.001039522
-0.02712606
0.03299547
0.0004238198
-0.02635453
0.03320334
-3.607903e-05
-0.02557304
0.03373252
-1.055296e-05
-0.02535742
0.03410133
-3.661436e-05
-0.02592926
0.03384466
-1.078402e-05
-0.02690655
0.03225344
-4.416414e-05
-0.02871364
-8.142628e-06
0.03020659
-0.02960543
0.0007693428
-4.574339e-05
0.002576907
-0.02758527
-0.0006784606
0.001461179
0.0001334916
0.0001411757
-0.00124629
0.0004912795
-0.001271784
0.001260071
-0.002027562
0.001828245
-0.02442988
-0.001288041
0.001370285
1.161096e-05
-1.774516e-05
0.001153261
-0.001669472
0.001357795
-0.02197901
-0.001583227
0.001214421
-4.181018e-07
-4.622533e-05
0.001048296
-0.001129551
0.001009995
-0.01985135
-0.001535701
0.001104348
-2.255837e-05
-3.977374e-05
0.000949492
-0.0009435842
0.0008118869
-0.01797966
-0.001419935
0.0009838612
-5.037793e-05
-7.285476e-05
0.0008703763
-0.0007185538
0.0006163353
-0.01628008
-0.0013344
0.0009011279
-6.000372e-05
-7.352916e-05
0.0008126558
-0.0005528812
0.0004459674
-0.01503514
-0.001267147
0.0008325731
-6.789199e-05
-7.867882e-05
0.0007709876
-0.000392109
0.0003136377
-0.01410825
-0.001207521
0.0007890022
-6.509256e-05
-7.256909e-05
0.0007424435
-0.000287914
-0.01343306
-0.00116255
0.0007575848
-5.832807e-05
-6.353176e-05
0.0002264163
1.742242e-05
0.001724733
0.009144575
-0.01271191
-0.000749116
0.0004887694
-0.0005084395
0.0004158072
0.004719865
0.001599505
0.004789999
0.02513188
-0.09773349
-4.293886e-05
0.02666525
0.02665573
0.02617134
0.02600574
-0.008653515
-0.008844123
-0.008993599
-0.009070637
0.0207531
-0.09639395
-0.002788668
0.02489088
0.02452899
0.02477577
0.02414084
0.01686828
-0.08768176
-0.002556364
0.02231927
0.02200296
0.02216227
0.02161605
0.01459682
-0.08100713
-0.002967861
0.02041616
0.02015804
0.02023267
0.01982954
0.01194807
-0.07240706
-0.002635863
0.01835791
0.01814199
0.01822293
0.0178614
0.00928594
-0.06562808
-0.002455836
0.01662694
0.01653712
0.0165428
0.01629121
0.006859405
-0.06048097
-0.002282236
0.01529411
0.01525155
0.01521657
0.01503919
0.005074934
-0.05743511
-0.002168843
0.01439115
0.01436428
0.01426613
0.01416229
-0.05501659
-0.002122976
0.01373675
0.01356887
0.003723153
0.01368801
0.01349887
-0.0001699774
0.01182888
0.008939651
-0.01143414
0.0001342087
0.0003838279
-0.0005877759
0.000287312
0.03202995
-0.09252024
0.002815825
-0.009343263
-0.009792874
-0.009467457
-0.009611871
0.02840236
-0.09168287
-0.001930188
0.0249736
-0.08465124
-0.00118537
0.02269892
-0.07830833
-0.001936008
0.01903963
-0.06851505
-0.001583378
0.01468473
-0.06096282
-0.001538194
0.01069572
-0.05619358
-0.00145545
0.007698711
-0.05412664
-0.001451584
-0.05263604
-0.00144237
0.005653616
-0.0002284043
0.01133773
0.009237926
-0.01100323
0.0002437548
0.0003586431
-0.0005990859
0.0002351458
0.03573482
-0.08919665
0.003565651
-0.009959722
-0.01021842
-0.009959556
-0.009986256
0.03383593
-0.08891569
-6.481978e-05
0.03185546
-0.08340958
0.0006119673
0.03077423
-0.07719371
-3.493643e-05
0.02623408
-0.06406359
0.0001203434
0.01946122
-0.0542464
7.647642e-05
0.01325513
-0.05008994
7.003584e-05
0.009375353
-0.05026195
-4.250342e-05
-0.04994046
-0.0001291061
0.006760388
-0.0002364569
0.01090511
0.009335588
-0.01055481
0.000114158
0.0003877367
-0.0005885364
0.0002432845
0.03883132
-0.08745182
0.00407915
-0.0103294
-0.01054625
-0.01026284
-0.01027502
0.038812
-0.08820567
0.0003877465
0.03950751
-0.08507224
0.00137842
0.04130143
-0.07914422
0.001223554
0.03570376
-0.05846999
0.001303334
0.02481451
-0.04336001
0.001046846
0.01498032
-0.04017064
0.0008509708
0.009300655
-0.04450224
0.000940784
-0.04717429
0.0006490856
0.006709397
-0.0002437044
0.01052196
0.009445964
-0.01031068
0.0001477196
0.0003943175
-0.0005869626
0.0002371953
0.04069855
-0.08702692
0.004035799
-0.01054705
-0.01071315
-0.01047122
-0.01048556
0.04233936
-0.08951487
0.0008725379
0.04702056
-0.09052723
0.001650788
0.05619657
-0.02319661
0.002534442
-0.0215126
-0.02234807
-0.02075926
0.05019785
-0.01682473
0.001649154
-0.00931441
-0.01646879
-0.009053326
0.02860321
-0.005622363
0.0009006793
-0.004788356
-0.00572284
-0.004917499
0.01196794
-0.005585761
0.001021297
-0.005888026
-0.005327734
-0.00566827
0.005859747
-0.009014277
0.001358448
-0.009985064
-0.008793234
-0.00964513
-0.0111459
0.001646599
-0.01087564
0.004442882
-0.01164219
-0.01142063
-0.0002453049
0.01035877
0.00947754
-0.01018521
0.0001517709
0.0004035245
-0.0005861801
0.0002308722
0.04075898
-0.08656421
0.004029507
-0.01060536
-0.01069092
-0.01053866
-0.01051435
0.04307217
-0.0910319
0.0002216316
0.01233957
-0.09717503
0.0006978722
0.01222326
0.01202289
0.01217022
-0.0004295766
0.01420203
-0.02496782
0.000338313
-0.0008694322
0.02444534
0.0005566098
-0.019331
-0.002574985
-0.008303865
-0.002427133
-0.008320285
-0.01671865
-5.457247e-05
0.01053418
0.0003298446
0.000286812
0.0001624173
0.003371145
-0.0001457782
-0.006784748
-0.0005566601
-0.0005120888
-0.0004981247
-0.0006219303
-0.000228215
-0.0005025827
6.247633e-05
0.0001244695
-0.002980345
-0.001304005
-0.003018557
-0.001167517
-0.0004034396
-0.0003129103
-0.01093613
0.0003206657
0.0001859162
-0.0002348706
0.01021026
0.009300862
-0.00987644
0.0001193175
0.000427981
-0.0005782949
0.0002369762
0.03614124
-0.08317501
0.003824981
-0.01015617
-0.01031022
-0.01013915
-0.01017268
0.0346313
-0.08862026
-7.642217e-05
0.009699407
-0.09624481
8.964924e-05
0.00637597
0.00978529
0.00634584
-7.622799e-05
0.02687137
-0.02710505
0.0002242424
0.002075142
0.002847894
0.002042559
0.00281947
5.870123e-06
0.002196241
-0.0007560957
-0.001442883
-3.13372e-06
-0.05716811
0.0002779651
0.002083502
0.002647921
0.002452624
0.003154681
0.01199796
0.01180501
-0.000205056
-0.000997099
0.0006233907
0.01223888
0.01179458
5.693619e-06
-0.0007119425
-0.0002429951
0.009764266
0.009196816
-0.009333574
0.0001058817
0.0004405561
-0.0005698145
0.0002446701
0.03263959
-0.07754707
0.003856342
-0.009847954
-0.01003269
-0.0098312
-0.00992898
0.02722529
-0.08234334
-0.0003678129
0.005165995
-0.08672107
-0.0002783523
0.003463616
0.004902345
0.00308173
-0.0002930976
0.02609214
0.003035416
-0.0239413
0.0002728326
-0.06090393
-0.001139323
0.001193521
-0.000706859
0.00170178
-0.0005186809
0.002836042
-0.0002539762
0.009125359
0.009098182
-0.008603639
7.426587e-05
0.000458752
-0.0005545363
0.000261404
0.03053365
-0.07077336
0.003860564
-0.009593086
-0.009844075
-0.009572038
-0.009732378
0.023544
-0.07428482
-0.0009013208
0.003475318
-0.07673839
0.0008606957
0.002643031
0.003354951
0.002643405
-8.640652e-05
0.02215662
0.001778332
-0.02027604
-9.719147e-05
-0.06322827
-0.0006513164
-5.932661e-05
-0.0009116755
0.0001436381
-0.001050006
0.00462879
-0.0002754884
0.008336886
0.009057594
-0.007778139
5.759616e-05
0.0004683856
-0.0005400186
0.0002789942
0.02953266
-0.06343787
0.003872994
-0.009482323
-0.009765203
-0.009439016
-0.009652253
0.02175775
-0.06563961
-0.0005899896
0.002989271
-0.06666814
0.0003658934
0.002315501
0.002960423
0.002421447
-5.017744e-05
0.01922849
0.001353133
-0.0174629
-7.927155e-05
-0.06656757
0.0003768634
3.113875e-05
-0.0008799866
0.0001288836
-0.001265861
0.005442221
-0.0002966362
0.007476859
0.009052195
-0.006918589
3.760279e-05
0.0004756387
-0.0005240549
0.000302798
0.02942496
-0.05600604
0.003883062
-0.009452333
-0.009758589
-0.009393394
-0.009638851
0.02148015
-0.05698943
-0.0005274652
0.002977906
-0.05686207
0.0004873411
0.002273047
0.003000061
0.002445865
8.820178e-06
0.01645594
0.001323425
-0.01488684
7.655805e-05
-0.0720626
0.0004962538
6.814555e-05
-0.001120994
-6.94344e-05
-0.001224731
0.007056014
-0.0003130677
0.006613478
0.0090866
-0.006092444
1.551443e-05
0.0004751915
-0.0005078459
0.0003283836
0.03016245
-0.04894137
0.003918377
-0.009515147
-0.009818337
-0.009443281
-0.009712338
0.02244928
-0.04865146
-0.0006573704
0.003004608
-0.04685604
0.0006869106
0.0026057
0.003205506
0.002509345
0.000151547
0.01398059
0.001249461
-0.012123
-0.0002539814
-0.07826857
0.0002408708
0.0006865489
4.533583e-05
-0.001245377
-0.002555061
-0.0009256125
-0.002891351
0.01223691
0.0005483845
6.529121e-05
-0.0003294166
0.005790541
0.009148342
-0.005337644
1.029144e-05
0.0004669951
-0.000493551
0.0003502472
0.03172355
-0.04289959
0.003989653
-0.009688389
-0.009973584
-0.009605501
-0.009892191
0.02513562
-0.0417215
-0.0004041367
0.004114564
-0.03711624
5.237306e-05
0.003243124
0.003819756
0.002932203
0.0001084159
-0.008867581
-0.0001062764
0.01068575
0.0004662266
0.0006617128
0.000492687
0.0006736244
-0.0667688
-0.001118418
-0.005027189
-0.01257466
-0.005104939
-0.0116521
0.0001485258
-0.0002387153
0.02346228
0.0003554423
0.0002500256
-0.0003465986
0.005066263
0.009250536
-0.004721613
3.457869e-05
0.0004471648
-0.0004843011
0.0003597725
0.03468676
-0.03849395
0.004122617
-0.009981021
-0.01025898
-0.009901029
-0.01015442
0.0309051
-0.03727797
-0.000518052
0.006425123
-0.03265672
-0.0002362833
0.006263945
0.006179964
0.006028038
0.00736337
-0.006264388
-0.0002124
0.0003690696
0.001324671
0.001276831
0.001341149
0.001226822
8.934774e-05
8.761706e-05
-0.0003450557
0.0002925469
-0.0001161753
-8.280826e-06
-0.002157322
-0.0002844709
0.0111837
-0.001596922
0.0001471261
-0.002598177
-0.002136406
-0.002557528
-5.272119e-05
-0.003414641
3.744363e-05
-0.01328386
0.003827547
0.003815349
0.004525532
0.004545351
-0.0002090434
-0.006729825
0.01041474
0.0001092722
-0.003585143
-0.05165605
0.0002081368
-0.01540853
-0.01459192
-0.01537086
-0.01390254
-0.0006763444
-1.061944e-05
-0.0001669021
0.04248722
0.001555564
-0.000300749
0.001235778
-0.0001709915
-0.0003593406
0.004534505
0.009307799
-0.004270763
6.548072e-05
0.0004331185
-0.0004771946
0.0003721974
0.03723863
-0.03550305
0.004001659
-0.0101535
-0.01040627
-0.01011657
-0.0103387
0.03544236
-0.03471379
-0.000303464
0.03342998
-0.03169329
1.038073e-05
0.03587054
-0.02789564
-0.001207228
0.006283964
0.006314791
0.005992086
0.006093238
0.04302069
-0.02401736
-0.0007125299
0.003697359
0.004505114
0.003621314
0.004300408
0.05126152
-0.02474685
-0.0006215662
0.003596118
0.004531453
0.003531741
0.004361872
0.05367565
-0.03070246
-0.0007691396
0.005485441
0.008258037
0.005378683
0.008235124
0.04612822
-0.04296558
-0.001201475
0.01292273
0.01201962
0.01270597
0.01179528
-0.04504625
-0.0003398946
0.03894296
-0.0003677513
0.00414747
0.00938162
-0.00396543
8.354894e-05
0.0004245408
-0.0004741817
0.0003759809
0.03882368
-0.03360406
0.004200807
-0.01034499
-0.01060195
-0.01029961
-0.01050127
0.03806042
-0.03321379
5.948211e-05
0.03704301
-0.03138086
0.0006113455
0.03830235
-0.02924897
-0.0004986374
0.04164648
-0.02747452
-0.0004426462
0.04556039
-0.02858276
-0.0006383605
0.04662594
-0.03169607
-0.0005807826
0.04217652
-0.03825743
-0.0008862255
-0.04059079
-0.0002263138
0.03743434
-0.0003727624
0.003908397
0.009411044
-0.003765177
9.003464e-05
0.0004217263
-0.0004707898
0.0003833262
0.03984499
-0.03228834
0.004314864
-0.01044432
-0.01069325
-0.01040009
-0.01059417
0.0393935
-0.03221332
0.0003789441
0.03829278
-0.03103178
0.001077249
0.03892407
-0.02982739
-7.030853e-05
0.04047608
-0.02906515
-6.635606e-06
0.04194322
-0.02990439
-0.0001931394
0.04222852
-0.03178876
-0.0001870868
0.03958545
-0.03544859
-0.0001818095
-0.03703764
-9.264169e-05
0.03620494
-0.0003755956
0.003734088
0.009431668
-0.003618652
9.121521e-05
0.0004212442
-0.0004681518
0.000389982
0.0404297
0.004384678
-0.01050962
-0.01075963
-0.0104658
-0.01065808
-0.03129571
0.04023985
0.0004271199
-0.03141107
0.03919112
0.001154184
-0.03071341
0.03914496
0.0001362765
-0.02995358
0.03948825
0.0002202927
-0.02963928
0.03981603
8.802375e-07
-0.03026967
0.03944157
-2.143281e-05
-0.03140366
0.03753135
-9.325833e-05
-0.03348928
-1.59905e-05
0.03509149
-0.03458993
0.0006957541
0.0003456121
0.001553091
-0.02680144
-0.0002344641
-0.001328596
0.0007096117
-0.001317936
0.007791453
-0.09464964
-0.001235226
0.002382706
0.004673679
-8.234041e-05
-0.0001548488
0.000537278
-0.004045959
0.002458289
-0.00408112
0.006460017
-0.08635544
-0.001999612
0.00416232
0.004617276
-0.0002425306
-0.0002521541
0.005228144
-0.0791912
-0.002107584
0.004080589
0.004327948
-0.0001546176
-0.0001596926
0.004186418
-0.07127144
-0.001907826
0.003690201
0.003862038
-0.0001834638
-0.0002519826
0.003188841
-0.0654327
-0.001799908
0.00343993
0.003567565
-0.0002115274
-0.0002510199
0.002365443
-0.06016596
-0.001643218
0.003211744
0.00329443
-0.0002225032
-0.0002618234
0.001722865
-0.05683746
-0.001590599
0.003053329
0.003115579
-0.0002305122
-0.0002473325
-0.05387346
-0.001492538
0.002917593
-0.0002229357
0.001272312
0.002965323
-0.0002438429
0.001349366
0.0007639174
0.009440325
-0.01267019
-0.0004678213
0.004728159
0.001476189
0.004773628
0.0227621
-0.0929806
0.000327728
0.02515758
0.02561159
0.025108
0.02534367
-0.00824332
-0.007572884
-0.008245631
-0.007311186
0.01977176
-0.09328447
-0.001163493
0.01661237
-0.08462674
-0.001125684
0.01457654
-0.07891764
-0.001205596
0.01216696
-0.07037858
-0.001119155
0.009447216
-0.06409451
-0.001074276
0.007013332
-0.0590293
-0.000985013
0.005163828
-0.05618958
-0.0009672147
-0.05372432
-0.0009249718
0.003816689
0.03184946
-0.06333186
-0.001919785
0.0001669059
0.00194268
-0.003030482
0.001384121
0.01164532
0.0229818
0.01093718
0.0229501
0.02911082
-0.08919382
0.001767685
0.02554269
-0.09024109
-0.001405443
0.02392741
-0.08352037
-0.0006764645
0.02185567
-0.07755946
-0.001222457
0.01873711
-0.06786993
-0.0009734712
0.01452465
-0.06045934
-0.0009609133
0.0106683
-0.05572265
-0.0009057401
0.0077275
-0.05378876
-0.0009116079
-0.05221902
-0.0009307277
0.005710563
0.03451521
-0.05932361
-0.0007734198
-0.0002539959
0.001209023
-0.003316109
0.001163219
0.03363136
-0.08703327
0.002288946
0.03194336
-0.08815248
-0.0004654457
0.03150263
-0.08280612
0.000338439
0.03043361
-0.07644314
-8.225182e-05
0.02612083
-0.06351501
7.820245e-05
0.01942644
-0.05374275
5.426617e-05
0.01328431
-0.04956252
5.203822e-05
0.009415576
-0.04993126
-3.126265e-05
-0.04958421
-0.0001295909
0.006781249
0.03630566
-0.05743737
-0.001065233
-6.932858e-05
0.00159334
-0.003098882
0.001378541
0.03666494
-0.08582536
0.002511953
0.03647828
-0.08753438
-4.369354e-05
0.03859631
-0.08463412
0.001088377
0.04047548
-0.07810456
0.001005804
0.03515858
-0.05781713
0.0009223567
0.02463797
-0.04295139
0.0007761008
0.01495105
-0.03963789
0.000613257
0.009227593
-0.04400816
0.0007411412
-0.04697731
0.0006287736
0.006641009
0.03781265
-0.05651779
-0.001007924
-0.0002429825
0.00140611
-0.003187767
0.001270781
0.03856854
-0.08518869
0.00264324
0.03998786
-0.08851031
0.0004291409
0.04572839
-0.089819
0.00109514
0.05496031
-0.02255207
0.001447796
-0.02089765
-0.02215805
-0.02064206
0.04897412
-0.01668451
0.001117688
-0.009103506
-0.01645146
-0.009059975
0.02813335
-0.005806787
0.0006638685
-0.005143497
-0.005801099
-0.005122457
0.01188453
-0.005626661
0.0005961942
-0.005936057
-0.00552881
-0.005872442
0.005631111
-0.008917089
0.000856195
-0.009824132
-0.008827126
-0.009684143
-0.01101247
0.001106279
-0.01086517
0.004208879
-0.01172665
-0.01141047
0.03793124
-0.0557425
-0.001043896
-0.000263565
0.001432713
-0.003178928
0.001316686
0.03900611
-0.08485148
0.002617418
0.0414065
-0.090545
-0.0001440611
0.01198732
-0.09631025
0.0005130766
0.01218297
0.01180763
0.01210461
-0.000413334
0.01389227
-0.02430954
0.0002658562
-0.0003729364
0.0244037
0.0003018236
-0.01897398
-0.002343019
-0.008229908
-0.003226331
-0.008243819
-0.01669374
-0.0001729154
0.01032329
0.0006000444
0.0001364995
6.067269e-05
0.003436722
-3.131983e-05
-0.00681023
-0.000505651
-0.0006349838
-0.0005038855
-0.0006380025
-0.0001273548
-0.0004475884
8.12936e-05
0.0001056703
-0.00293169
-0.00133962
-0.002952149
-0.001305653
-0.0004671461
-0.0002841833
-0.01076452
0.0001636518
0.0003397289
0.03643061
-0.05352696
-0.001268811
-0.0002300267
0.00155225
-0.003094818
0.00136424
0.03468411
-0.08176456
0.002484566
0.03355397
-0.08910282
-0.0003884609
0.009955025
-0.09542066
3.18292e-05
0.006535661
0.009835798
0.006395718
-0.0003718038
0.02587463
-0.02577796
0.00023773
0.002136248
0.002866391
0.002143202
0.002846584
-1.745975e-05
0.002232229
-0.0007341865
-0.001497357
1.677484e-05
-0.05679523
-0.000199682
0.002523431
0.003174118
0.002506612
0.00306125
0.01183222
0.01172348
-0.001054416
0.01187067
0.0116355
0.03539261
-0.05026448
-0.00126473
-0.0002876018
0.001566559
-0.00303947
0.001338993
0.03121401
-0.07625752
0.002527902
0.02552329
-0.08320472
-0.0005751911
0.005047204
-0.08531307
-0.0001516929
0.00276887
0.004780164
0.002692806
0.02454849
-0.0004063267
0.003173148
-0.02254966
0.000281555
-0.05839672
-0.0009344465
0.001430675
-0.00178273
0.001057887
-0.002278387
0.002969165
0.03438115
-0.04603879
-0.001324674
-0.0003428493
0.001619306
-0.002923483
0.001333745
0.02915368
-0.06972286
0.002553367
0.02075119
-0.0747997
-0.0009038435
0.01153294
-0.07594243
0.0007082959
-0.06612189
1.114283e-05
0.000314589
0.001342752
-0.0001343761
-0.002208324
0.02146042
0.01743657
0.02122376
0.01820828
0.006870945
-0.04092497
0.001795265
0.00394807
-0.0008404972
0.01395947
0.01519171
-0.05741557
-0.0004153707
0.005653842
0.03405377
-0.04144215
-0.001285575
-0.0004557706
0.001595407
-0.002827936
0.001292453
0.02794028
-0.0622858
0.00254942
0.01941484
-0.06613859
-0.0007256682
0.009516507
-0.06595493
0.0002767278
-0.05669244
0.0001681953
5.14727e-05
0.00205717
-0.0003431282
-0.001846647
0.001274569
-0.04234593
-7.107312e-05
0.001580022
-0.001362578
-0.06150392
0.0003443259
0.005395456
0.03397184
-0.03680727
-0.001225958
-0.000566375
0.001592412
-0.002713084
0.00127536
0.02769738
-0.05465661
0.002528331
0.01912582
-0.05746682
-0.0006276753
0.009384982
-0.05597019
0.000243438
-0.01326038
0.0004313283
-0.0003255471
0.001848641
-0.0007612228
-0.001083017
-0.01038963
-0.01297053
-0.0107971
-0.004294195
-0.001839702
0.001233666
-0.004330389
-0.01596721
-0.01714815
-0.07170751
0.0006967537
0.005708869
0.03411887
-0.03236253
-0.00119289
-0.0006816823
0.001592378
-0.002596016
0.001283735
0.02856521
-0.0476362
0.002451623
0.01978379
-0.04859363
-0.0007491463
0.002855801
-0.04624012
0.0004562581
0.002224578
0.003039864
0.002164134
0.0001426049
0.0009378735
-0.01134608
-0.0001389773
-0.07967861
0.0005412305
-0.0002973937
-0.003000128
0.0004615127
-0.00255715
0.01306387
0.03453998
-0.02858085
-0.001056007
-0.0007794649
0.001624529
-0.00245995
0.001318378
0.03049316
-0.0418677
0.002267971
0.02337955
-0.04140151
-0.000482649
0.003828431
-0.03625909
0.0001566392
0.002883735
0.003750576
0.002831508
4.398169e-05
-0.008381173
-5.469429e-05
0.01010327
0.0004371748
0.0006238605
0.0004312681
0.0006247429
-0.01678622
-0.0008871072
-0.004861495
-0.01483605
-0.005077081
-0.01580282
-0.01623768
0.02593841
-0.01648453
-0.01576241
0.03537551
-0.02567892
-0.00103506
-0.0008727459
0.001636311
-0.002370969
0.001334206
0.03290207
-0.03763742
0.002365779
0.02855598
-0.036985
-0.0005884715
0.006171031
-0.03178135
-0.0001234574
0.005896834
0.006089139
0.005808408
0.0001132681
0.007001565
-0.005947373
-6.801103e-05
0.001316561
0.001215646
0.001333774
0.001205601
3.542521e-06
0.0001790274
-0.0002786032
0.0002729627
-0.0001724302
-4.499124e-06
-0.0021246
-4.289067e-05
0.01091856
-0.001642899
3.901495e-05
-0.002515446
-0.002119485
-0.002512255
-1.704927e-06
-0.003538732
3.062248e-05
-0.01318104
0.003809404
0.003815235
0.004535497
0.004530716
-9.286612e-05
-0.006774879
-0.00430913
5.026971e-05
0.001578591
0.003992096
0.001584546
0.003971372
-0.00357576
-0.01421638
0.0001204696
-0.003060641
-0.003554831
-0.00301074
0.01071982
0.03663965
-0.02373841
-0.001118327
-0.001001359
0.001583512
-0.002367798
0.001293033
0.03525483
-0.03469336
0.002442417
0.0328726
-0.03440909
-0.0004971412
0.03244752
-0.03126563
-8.026006e-05
0.03530264
-0.02768529
-0.0007249693
0.005999061
0.006263586
0.005899433
0.006185833
0.04254332
-0.02342039
-0.0004508253
0.003649213
0.004346156
0.003625348
0.004297301
0.05058594
-0.02446526
-0.0004033212
0.003617151
0.00449724
0.003612473
0.004477528
0.05279266
-0.0307216
-0.0004493214
0.005501529
0.008645008
0.005464551
0.008583986
0.04506927
-0.04191567
-0.0007092565
0.01199618
0.01273975
0.01183498
0.01257592
-0.04519196
-0.0003773914
0.01284934
0.01250716
0.03876014
0.01333516
0.01284692
0.03722992
-0.02240048
-0.001065436
-0.001061579
0.001570421
-0.002335737
0.001293706
0.03693313
-0.03274839
0.002552613
0.03585282
-0.03306539
-0.0002039183
0.03625497
-0.0313083
0.0002518765
0.03757736
-0.02903417
-0.0004721362
0.04132608
-0.02723052
-0.0003812286
0.04523438
-0.02848838
-0.0005235247
0.04618214
-0.03176284
-0.0004873126
0.04235316
-0.03826454
-0.0007083807
-0.04038368
-0.0002447295
0.03756328
0.03757777
-0.02139401
-0.001108274
-0.001091767
0.001572474
-0.002297587
0.001310139
0.03796368
-0.0314627
0.002643263
0.03732669
-0.03217284
0.0001233847
0.03751415
-0.03111214
0.0006936267
0.03842803
-0.02985256
-0.000165794
0.04040679
-0.0291019
-0.0001140178
0.04195467
-0.02996241
-0.0002669847
0.04221258
-0.0319483
-0.0002595378
0.0395478
-0.03554249
-0.0002390746
-0.03719066
-0.0001120543
0.03637418
0.03783688
-0.00112473
-0.001116255
0.001576211
-0.002270243
0.00132274
-0.0206494
0.03853324
0.00269904
-0.03047342
0.03802789
0.0002080567
-0.03144843
0.03817903
0.0008139869
-0.03092308
0.03852842