/*--------------------------------*- C++ -*----------------------------------*\
  =========                 |
  \\      /  F ield         | OpenFOAM: The Open Source CFD Toolbox
   \\    /   O peration     | Website:  https://openfoam.org
    \\  /    A nd           | Version:  7
     \\/     M anipulation  |
\*---------------------------------------------------------------------------*/
FoamFile
{
    version     2.0;
    format      ascii;
    class       volScalarField;
    location    "0.04";
    object      k;
}
// * * * * * * * * * * * * * * * * * * * * * * * * * * * * * * * * * * * * * //

dimensions      [0 2 -2 0 0 0 0];

internalField   nonuniform List<scalar> 
78470
(
0.003811521
0.00381563
0.003817142
0.003818745
0.003819752
0.003820525
0.003821301
0.003822145
0.003823119
0.003755209
0.003755932
0.00375648
0.003756495
0.003756718
0.003756836
0.003756979
0.003757119
0.003757279
0.003755954
0.003756382
0.003757034
0.003757028
0.003757237
0.003757368
0.003757513
0.00375764
0.00375777
0.003755968
0.003756728
0.003757285
0.003757202
0.00375745
0.003757531
0.003757666
0.003757761
0.003757837
0.003755931
0.003756814
0.003757239
0.003757213
0.003757455
0.003757577
0.003757709
0.003757784
0.003757803
0.003755874
0.003756895
0.003757343
0.003757272
0.003757531
0.00375764
0.003757785
0.003757841
0.003757811
0.003755838
0.003756936
0.003757316
0.003757283
0.003757556
0.003757719
0.003757897
0.003757985
0.00375795
0.003755843
0.003756923
0.003757312
0.003757293
0.003757617
0.003757832
0.003758096
0.003758258
0.00375827
0.003755822
0.003756888
0.003757274
0.003757278
0.003757648
0.00375797
0.003758374
0.003758691
0.003758808
0.003755764
0.003756782
0.003757197
0.003757192
0.00375765
0.003758092
0.003758732
0.003759295
0.003759588
0.003755692
0.003756653
0.003757003
0.003757009
0.003757533
0.003758157
0.003759152
0.003760132
0.003760605
0.003755598
0.003756422
0.003756712
0.003756629
0.003757165
0.003757971
0.003759659
0.003761152
0.003761734
0.003755443
0.003756003
0.003756173
0.003755956
0.003756477
0.003757319
0.003758698
0.003761321
0.003762576
0.003755276
0.003755557
0.003755418
0.00375493
0.003754871
0.003756313
0.003774784
0.003793352
0.003787302
0.003755033
0.003755018
0.003754544
0.003753383
0.003752434
0.003752078
0.003765505
0.003988253
0.00375471
0.00375455
0.003753627
0.003752015
0.003750117
0.003748234
0.00374936
0.003785623
0.003754533
0.003754261
0.003753295
0.003751257
0.003748903
0.00374617
0.003739599
0.003701517
0.003754413
0.003754134
0.003753384
0.003751213
0.003748984
0.00374629
0.003736511
0.003660625
0.003754451
0.003754505
0.003753975
0.003752131
0.003750306
0.003748289
0.003741558
0.003719442
0.003754708
0.003755094
0.003755004
0.003753674
0.003752602
0.003751469
0.003750227
0.003782145
0.003755137
0.00375602
0.003756356
0.003755739
0.003755528
0.003755727
0.003762324
0.00386091
0.003755613
0.003756921
0.003757835
0.003757975
0.003758858
0.003760687
0.003777872
0.003986157
0.003791766
0.004341796
0.00390059
0.003762926
0.003754493
0.003756521
0.00375678
0.003756792
0.003756967
0.003757097
0.003757253
0.003757425
0.003627733
0.003607761
0.003607467
0.003607209
0.003607142
0.003607141
0.003607144
0.00360715
0.003607158
0.003607169
0.003633156
0.003608848
0.003607455
0.003607216
0.003607131
0.003607122
0.003607116
0.00360712
0.003607126
0.003607137
0.003645558
0.003608693
0.003607511
0.00360728
0.003607141
0.003607134
0.003607124
0.003607125
0.003607125
0.003607131
0.00365018
0.003609066
0.003607457
0.003607328
0.003607148
0.003607147
0.00360713
0.003607129
0.003607125
0.003607125
0.003650823
0.003609047
0.003607438
0.003607344
0.003607158
0.003607158
0.003607138
0.003607137
0.003607129
0.003607125
0.003652172
0.003608969
0.003607429
0.00360735
0.003607166
0.003607169
0.003607152
0.003607153
0.003607147
0.003607143
0.003653275
0.00360885
0.003607416
0.003607346
0.003607176
0.003607188
0.003607175
0.003607186
0.003607188
0.003607191
0.003653624
0.00360881
0.003607417
0.00360735
0.003607191
0.003607216
0.003607213
0.003607248
0.003607273
0.003607292
0.003653418
0.003608831
0.003607427
0.003607357
0.00360721
0.003607253
0.003607285
0.003607376
0.003607444
0.003607476
0.003653182
0.003608908
0.00360744
0.003607377
0.003607241
0.00360732
0.003607423
0.003607646
0.003607792
0.003607753
0.003652819
0.003608932
0.00360746
0.003607405
0.003607299
0.003607427
0.003607762
0.003608352
0.00360859
0.003608376
0.003652221
0.003609131
0.003607508
0.003607474
0.00360741
0.003607796
0.003608741
0.003610308
0.003611751
0.003608984
0.003649104
0.003608934
0.003607567
0.003607607
0.003607726
0.003608588
0.003612296
0.003614132
0.003656484
0.003613662
0.003652366
0.003608827
0.003607661
0.003607801
0.00360808
0.003609249
0.003613253
0.003639684
0.004768174
0.003641461
0.003609013
0.003607755
0.003607919
0.003608184
0.003609256
0.003612003
0.003618868
0.003745485
0.003628471
0.003608745
0.003607707
0.003608017
0.003608286
0.003609168
0.003611164
0.003614452
0.003724508
0.003622447
0.003608718
0.003607721
0.003608095
0.00360841
0.003609273
0.003611046
0.003613166
0.003717444
0.003620938
0.003608681
0.00360777
0.003608152
0.003608532
0.003609509
0.003611767
0.003613417
0.003733701
0.003621715
0.003608495
0.003607772
0.003608158
0.003608672
0.003609976
0.003612972
0.003615087
0.00375074
0.003622524
0.003608452
0.003607715
0.003608122
0.00360884
0.003610706
0.003615591
0.00362511
0.003784774
0.003623198
0.003608666
0.003607751
0.003608089
0.003608889
0.003611111
0.003618392
0.003630728
0.003840027
0.00362375
0.00362706
0.005072335
0.00366143
0.003763639
0.003755108
0.003756858
0.003757171
0.003757267
0.003757441
0.003757589
0.003757754
0.003757937
0.003623954
0.003608294
0.003607415
0.003607321
0.003607119
0.003607103
0.003607109
0.003607116
0.003607124
0.003607137
0.003613703
0.003609163
0.003607333
0.003607144
0.00360708
0.003607084
0.003607084
0.00360709
0.003607096
0.003607106
0.003614234
0.003608559
0.003607246
0.003607153
0.003607079
0.003607088
0.003607087
0.003607092
0.003607095
0.003607101
0.003613237
0.003607608
0.003607258
0.003607124
0.003607081
0.003607102
0.003607095
0.003607096
0.003607094
0.003607095
0.00361267
0.003607532
0.003607275
0.003607113
0.003607102
0.003607106
0.003607104
0.003607105
0.003607099
0.003607095
0.003612654
0.003607581
0.003607275
0.003607121
0.003607121
0.003607116
0.003607118
0.003607121
0.003607117
0.003607113
0.003612808
0.003607701
0.003607256
0.003607134
0.003607133
0.003607132
0.003607142
0.003607155
0.003607158
0.003607161
0.003612809
0.003607823
0.003607239
0.003607133
0.003607145
0.003607165
0.00360718
0.00360722
0.003607244
0.003607265
0.003612859
0.003607636
0.003607279
0.003607137
0.003607164
0.003607217
0.003607255
0.003607356
0.003607419
0.003607447
0.0036128
0.003607591
0.003607324
0.003607154
0.003607198
0.003607304
0.003607409
0.003607632
0.003607758
0.003607757
0.003612849
0.003608045
0.00360737
0.003607193
0.003607254
0.003607437
0.003607765
0.003608317
0.003608602
0.003608327
0.003613169
0.003607659
0.003607438
0.003607275
0.003607374
0.003607826
0.003608701
0.003610252
0.003611434
0.003608771
0.003612638
0.003607947
0.003607467
0.003607315
0.003607654
0.003608597
0.003611981
0.003613626
0.00365413
0.003613325
0.003612665
0.003608538
0.003607532
0.003607351
0.003608092
0.003609207
0.003612884
0.00364129
0.004752807
0.00361406
0.003607964
0.003607312
0.003607362
0.00360826
0.00360923
0.003611913
0.003618533
0.003745422
0.00361328
0.003608951
0.003607204
0.003607439
0.003608353
0.003608969
0.003611355
0.003614653
0.003728674
0.003613287
0.003608176
0.003607273
0.003607441
0.003608461
0.003609091
0.003611206
0.003742926
0.003612426
0.003607648
0.003607662
0.00360771
0.003608565
0.003609489
0.003611021
0.00374524
0.003612234
0.003607407
0.003607455
0.00360773
0.003608765
0.003610117
0.003612283
0.003617208
0.003723428
0.003612411
0.003607458
0.003607697
0.00360776
0.003608961
0.003610383
0.003615689
0.003623019
0.00378123
0.00361261
0.003607566
0.003607698
0.003607887
0.003608878
0.003611013
0.003618143
0.003632906
0.003837514
0.003625824
0.005071501
0.003676685
0.003763793
0.003755031
0.003756993
0.003757311
0.003757409
0.003757575
0.003757722
0.003757888
0.003758074
0.003634043
0.003608744
0.003607418
0.003607335
0.003607123
0.0036071
0.003607109
0.003607116
0.003607124
0.003607137
0.003615302
0.003608324
0.003607355
0.003607161
0.003607077
0.003607083
0.003607083
0.00360709
0.003607096
0.003607106
0.003612771
0.0036085
0.003607288
0.003607086
0.003607082
0.003607081
0.003607086
0.003607092
0.003607095
0.003607101
0.003613879
0.003608197
0.00360713
0.003607097
0.003607083
0.003607089
0.003607091
0.003607095
0.003607094
0.003607095
0.003615391
0.00360898
0.003607093
0.003607128
0.003607089
0.003607096
0.0036071
0.003607103
0.003607099
0.003607095
0.003613933
0.003609447
0.003607102
0.003607278
0.003607097
0.003607113
0.003607112
0.00360712
0.003607116
0.003607112
0.003615522
0.003608691
0.003607082
0.003607321
0.003607102
0.003607156
0.003607142
0.003607155
0.003607158
0.003607161
0.003615056
0.003608434
0.003607091
0.003607321
0.003607115
0.003607189
0.003607185
0.00360722
0.003607244
0.003607267
0.003615533
0.003608571
0.003607121
0.003607336
0.003607135
0.003607239
0.003607264
0.003607357
0.003607419
0.003607446
0.003614524
0.003609094
0.003607133
0.003607359
0.003607164
0.003607321
0.003607422
0.003607622
0.003607749
0.003607771
0.003614746
0.003608788
0.003607198
0.00360735
0.003607218
0.003607439
0.003607761
0.003608314
0.003608621
0.003608329
0.003612713
0.003608703
0.00360719
0.003607297
0.003607339
0.003607825
0.003608685
0.003610302
0.003611388
0.003608838
0.003615138
0.003608817
0.003607221
0.003607361
0.003607633
0.00360856
0.003611971
0.003613331
0.00365408
0.0036133
0.003616041
0.003608745
0.003607244
0.003607343
0.003608026
0.003609172
0.00361287
0.003641158
0.004746801
0.003612953
0.003608442
0.003607148
0.003607317
0.00360827
0.003609324
0.003612067
0.003618462
0.003745389
0.003615072
0.003608295
0.003607384
0.003607429
0.003608495
0.003609086
0.003611546
0.0036148
0.003728639
0.003613409
0.003608133
0.003607282
0.00360741
0.003608544
0.003609116
0.003611326
0.003742473
0.003613423
0.00360763
0.003607479
0.003607663
0.003608556
0.00360953
0.003610977
0.003745121
0.0036125
0.003607625
0.003607473
0.003607737
0.00360873
0.003610167
0.003612275
0.003617071
0.003718556
0.003612632
0.003607679
0.003607654
0.003607782
0.003608988
0.003610379
0.003616055
0.003622244
0.003782787
0.003612874
0.003607815
0.003607569
0.003607881
0.003608877
0.003611011
0.003618217
0.003632789
0.003837453
0.003625795
0.005074144
0.003676302
0.003764239
0.003755066
0.003756982
0.003757306
0.003757412
0.003757589
0.003757744
0.003757913
0.003758101
0.003639554
0.003608631
0.003607425
0.003607364
0.00360712
0.003607099
0.003607108
0.003607116
0.003607124
0.003607137
0.003613222
0.003607681
0.003607398
0.003607106
0.00360707
0.003607082
0.003607082
0.003607089
0.003607096
0.003607106
0.003616603
0.003608449
0.003607136
0.003607103
0.003607077
0.00360708
0.003607086
0.003607092
0.003607095
0.003607101
0.003612638
0.003608067
0.003607085
0.00360714
0.00360708
0.003607092
0.003607091
0.003607095
0.003607094
0.003607094
0.003615174
0.003608556
0.00360713
0.003607197
0.003607093
0.003607103
0.003607102
0.003607104
0.003607099
0.003607094
0.00361546
0.003608277
0.003607234
0.003607196
0.003607103
0.003607128
0.003607117
0.003607122
0.003607117
0.003607113
0.003612994
0.003608028
0.003607354
0.003607114
0.003607137
0.003607128
0.00360714
0.003607157
0.003607159
0.003607162
0.00361476
0.003607673
0.003607366
0.003607133
0.003607141
0.003607145
0.003607174
0.003607218
0.003607242
0.003607267
0.003612892
0.003608155
0.003607381
0.003607128
0.003607153
0.003607187
0.003607228
0.00360735
0.003607415
0.003607445
0.003614968
0.003608381
0.003607373
0.003607181
0.00360719
0.0036073
0.003607388
0.003607612
0.003607743
0.003607766
0.003614606
0.003608238
0.003607332
0.003607272
0.003607235
0.003607448
0.003607723
0.003608301
0.003608598
0.003608293
0.003614139
0.003608128
0.003607446
0.003607284
0.003607358
0.003607817
0.003608674
0.003610298
0.003611363
0.003608832
0.003617855
0.003608272
0.003607443
0.003607311
0.003607679
0.003608586
0.003611992
0.003613364
0.003654022
0.003613429
0.003614455
0.003608597
0.003607434
0.00360736
0.003608146
0.003609232
0.003612956
0.003641178
0.004744301
0.003616463
0.003607634
0.003607193
0.003607323
0.003608269
0.003609214
0.00361198
0.003618568
0.003745459
0.003613293
0.003607854
0.003607292
0.003607347
0.003608367
0.003608992
0.003611474
0.003614805
0.003728366
0.003613366
0.003607512
0.003607366
0.003607282
0.003608528
0.00360915
0.00361129
0.003742376
0.003612755
0.003607487
0.003607409
0.003607598
0.003608506
0.003609494
0.003610922
0.00374507
0.003612503
0.003607543
0.003607644
0.003607803
0.003608738
0.003610177
0.003612232
0.003616956
0.003719809
0.003612424
0.003607349
0.00360783
0.003607826
0.003609063
0.00361041
0.003616045
0.003622367
0.00378348
0.003612803
0.003607472
0.003607559
0.003607831
0.003608894
0.003611007
0.003618215
0.003632942
0.003837574
0.003625675
0.005075641
0.003675411
0.003764307
0.003755035
0.003756981
0.003757281
0.003757402
0.003757568
0.003757724
0.003757891
0.003758079
0.003646117
0.003608493
0.003607427
0.003607375
0.003607116
0.003607098
0.003607108
0.003607115
0.003607124
0.003607137
0.00361264
0.003607578
0.003607414
0.003607072
0.003607079
0.003607079
0.003607081
0.003607089
0.003607096
0.003607106
0.003612587
0.003608038
0.003607067
0.003607111
0.003607077
0.00360708
0.003607086
0.003607093
0.003607095
0.003607101
0.003614008
0.00360869
0.003607097
0.003607244
0.003607083
0.003607106
0.003607093
0.003607096
0.003607094
0.003607094
0.00361647
0.003607939
0.003607374
0.003607168
0.003607113
0.003607112
0.003607103
0.003607105
0.003607099
0.003607094
0.003613295
0.003608376
0.00360735
0.00360711
0.003607131
0.003607114
0.003607116
0.003607122
0.003607117
0.003607113
0.003614589
0.003608456
0.003607317
0.003607139
0.003607128
0.003607125
0.003607138
0.003607154
0.003607158
0.003607161
0.003612594
0.003607881
0.003607343
0.003607125
0.003607138
0.00360715
0.003607173
0.003607217
0.003607242
0.003607266
0.003615194
0.003608198
0.003607379
0.003607132
0.003607151
0.003607189
0.003607233
0.00360735
0.003607414
0.003607444
0.003614701
0.003608638
0.003607439
0.003607142
0.003607182
0.003607288
0.003607381
0.003607609
0.003607739
0.003607764
0.003613204
0.003608438
0.003607517
0.003607192
0.003607274
0.003607429
0.003607709
0.003608289
0.003608589
0.003608301
0.003613128
0.003607954
0.003607427
0.003607247
0.00360735
0.003607821
0.003608684
0.003610298
0.003611364
0.003608838
0.003613246
0.003608427
0.003607668
0.003607264
0.003607716
0.003608564
0.00361197
0.003613328
0.003654036
0.003613341
0.00362043
0.003609215
0.003607865
0.003607423
0.003608323
0.003609282
0.00361302
0.00364103
0.004743333
0.003613927
0.003607585
0.003607253
0.003607392
0.003608283
0.003609152
0.003612046
0.003618487
0.003745424
0.003612729
0.003607669
0.00360718
0.003607314
0.00360831
0.003609027
0.003611456
0.003614766
0.003728389
0.003613154
0.003607529
0.003607453
0.003607318
0.003608502
0.003609131
0.003611292
0.003742363
0.003612569
0.00360756
0.003607477
0.003607574
0.003608553
0.003609502
0.003610933
0.003745065
0.003612341
0.00360751
0.003607518
0.003607759
0.00360871
0.003610156
0.003612215
0.003616941
0.00371861
0.003612374
0.003607352
0.003607875
0.00360784
0.003609072
0.003610425
0.003616051
0.003622308
0.003783358
0.003612727
0.003607457
0.003607565
0.003607836
0.003608898
0.003611007
0.003618217
0.003633026
0.003837451
0.003625623
0.005076591
0.003675495
0.003764225
0.003755117
0.003756967
0.003757212
0.003757325
0.003757466
0.003757615
0.003757775
0.00375796
0.00363759
0.003608828
0.003607402
0.00360733
0.003607119
0.003607099
0.003607108
0.003607116
0.003607125
0.003607137
0.003614204
0.003608085
0.003607395
0.003607085
0.0036071
0.003607077
0.003607083
0.00360709
0.003607096
0.003607106
0.003617379
0.003610186
0.003607149
0.003607272
0.003607076
0.003607097
0.003607088
0.003607093
0.003607095
0.003607101
0.00361255
0.003607881
0.003607283
0.003607093
0.003607104
0.003607091
0.003607092
0.003607095
0.003607095
0.003607095
0.003614941
0.003609621
0.003607112
0.003607242
0.003607086
0.00360711
0.003607098
0.003607103
0.003607099
0.003607094
0.003616825
0.003609472
0.003607129
0.003607269
0.003607094
0.003607127
0.003607114
0.00360712
0.003607116
0.003607112
0.003614565
0.003609231
0.003607091
0.003607305
0.003607103
0.003607154
0.003607143
0.003607156
0.003607157
0.00360716
0.003615845
0.003608486
0.003607098
0.0036073
0.003607115
0.003607183
0.003607182
0.003607219
0.003607242
0.003607265
0.003615534
0.003608584
0.003607092
0.00360731
0.003607134
0.003607236
0.003607263
0.003607355
0.003607415
0.003607444
0.003615536
0.003609119
0.003607156
0.00360729
0.003607163
0.003607315
0.003607414
0.003607616
0.003607743
0.003607767
0.003614563
0.003609375
0.003607288
0.003607309
0.003607226
0.003607446
0.003607765
0.00360831
0.003608606
0.003608321
0.00361253
0.003607889
0.003607171
0.003607305
0.003607336
0.003607824
0.003608689
0.003610308
0.003611385
0.003608841
0.003616915
0.003608191
0.003607174
0.003607321
0.003607633
0.003608544
0.003611971
0.003613382
0.00365397
0.003613119
0.003619314
0.003609421
0.003607163
0.003607242
0.003607912
0.003609106
0.00361286
0.003640952
0.004743063
0.003613466
0.003608062
0.003608111
0.003607288
0.00360862
0.003609388
0.003612166
0.003618528
0.003746144
0.00361484
0.003607309
0.003607364
0.003607485
0.003608449
0.003608972
0.003611514
0.003614764
0.003728661
0.003613067
0.003607664
0.003607266
0.003607394
0.003608409
0.003609138
0.003611313
0.00374247
0.00361268
0.003607487
0.003607912
0.003607631
0.003608604
0.003609559
0.003610992
0.003745119
0.003612429
0.003607805
0.003607453
0.003607729
0.003608717
0.00361015
0.003612248
0.003617081
0.003721223
0.003612684
0.00360768
0.003607644
0.003607797
0.003609012
0.003610384
0.00361601
0.003621671
0.003783852
0.003612806
0.003607781
0.003607582
0.003607867
0.003608883
0.003610985
0.003618215
0.003633028
0.003837536
0.003625615
0.00507588
0.003675462
0.003764092
0.003754521
0.00375662
0.003756684
0.003756812
0.003756955
0.003757111
0.003757246
0.003757435
0.003636919
0.00360869
0.003607396
0.003607271
0.003607116
0.003607104
0.00360711
0.003607118
0.003607126
0.003607138
0.003614596
0.003608066
0.003607408
0.003607157
0.003607074
0.003607085
0.003607083
0.00360709
0.003607096
0.003607107
0.003612096
0.003607831
0.003607387
0.003607087
0.003607087
0.003607082
0.003607087
0.003607092
0.003607095
0.003607101
0.003616808
0.00360947
0.00360712
0.003607272
0.003607081
0.003607107
0.003607095
0.003607096
0.003607094
0.003607095
0.003612415
0.003608243
0.003607096
0.00360725
0.003607099
0.00360712
0.003607104
0.003607105
0.003607099
0.003607094
0.003614947
0.003607606
0.003607485
0.003607141
0.003607116
0.003607116
0.003607119
0.003607122
0.003607117
0.003607113
0.003613121
0.003607819
0.003607381
0.003607133
0.003607127
0.003607132
0.003607142
0.003607155
0.003607158
0.00360716
0.003612921
0.003607766
0.003607244
0.003607143
0.003607142
0.003607162
0.003607179
0.003607218
0.003607242
0.003607263
0.003613358
0.003607924
0.00360734
0.003607149
0.003607158
0.003607215
0.003607252
0.003607353
0.003607415
0.003607442
0.003615703
0.003607596
0.003607539
0.003607179
0.003607206
0.003607302
0.003607408
0.003607625
0.003607751
0.003607752
0.003612195
0.003608419
0.003607104
0.003607314
0.003607255
0.003607458
0.00360777
0.003608321
0.003608596
0.00360832
0.003614265
0.003608329
0.003607145
0.003607213
0.003607328
0.003607816
0.003608685
0.003610257
0.00361143
0.00360876
0.003614634
0.003607843
0.003607225
0.003607321
0.003607619
0.003608587
0.003611977
0.003613683
0.003653857
0.003613316
0.003613569
0.003607936
0.003607923
0.003607388
0.003608168
0.003609188
0.003612899
0.003641013
0.004745158
0.003618022
0.00360903
0.003607196
0.003607307
0.003608164
0.003609086
0.003611915
0.003618509
0.00374629
0.003612834
0.003607656
0.003607625
0.00360726
0.003608567
0.003609113
0.003611394
0.003614693
0.003728968
0.003615255
0.003607398
0.003607351
0.003607496
0.003608455
0.003609029
0.003611225
0.003742933
0.003613986
0.003607851
0.003607535
0.003607593
0.003608533
0.003609475
0.003611035
0.003745209
0.003614759
0.003607668
0.003607496
0.00360773
0.003608715
0.003610116
0.003612195
0.00361738
0.003725201
0.003612341
0.003607629
0.003607939
0.003607843
0.003608989
0.003610399
0.003615457
0.003619919
0.003779865
0.00361245
0.003607594
0.003607692
0.003607875
0.003608896
0.003610931
0.003618227
0.003633904
0.003835683
0.003624833
0.005066304
0.003674529
0.003763334
0.003769696
0.003771766
0.003772701
0.003773131
0.003773346
0.003774197
0.00377411
0.00377449
0.00364594
0.003608458
0.003607414
0.003607122
0.003607133
0.003607126
0.003607135
0.003607147
0.003607148
0.003607174
0.003620837
0.003610115
0.003607448
0.003607217
0.003607142
0.003607122
0.003607115
0.003607119
0.003607127
0.003607139
0.003615967
0.003609336
0.003607504
0.003607307
0.003607126
0.003607138
0.003607122
0.003607123
0.003607125
0.003607132
0.003616083
0.003610131
0.003607513
0.003607337
0.003607153
0.003607145
0.003607128
0.003607127
0.003607125
0.003607125
0.003615011
0.003609079
0.003607638
0.003607362
0.00360717
0.003607158
0.003607138
0.003607136
0.003607129
0.003607126
0.003618572
0.003610904
0.003607395
0.00360732
0.003607167
0.00360717
0.003607153
0.003607154
0.003607147
0.003607143
0.003618493
0.00360906
0.003607487
0.003607351
0.003607186
0.003607191
0.003607175
0.003607187
0.003607188
0.00360719
0.003618299
0.003609081
0.003607431
0.003607348
0.003607201
0.003607219
0.003607213
0.003607249
0.003607272
0.00360729
0.00361864
0.003608977
0.003607479
0.003607348
0.003607209
0.003607254
0.003607283
0.003607374
0.003607439
0.003607471
0.003624381
0.003610272
0.003607396
0.003607311
0.00360726
0.003607317
0.003607418
0.003607642
0.003607782
0.00360775
0.003616812
0.003608938
0.003607749
0.003607356
0.003607315
0.003607442
0.003607748
0.003608353
0.003608577
0.003608365
0.003615239
0.003609286
0.003607574
0.003607485
0.003607382
0.00360781
0.003608719
0.003610309
0.003611723
0.003608971
0.003621504
0.003610728
0.003607502
0.003607653
0.003607712
0.003608591
0.003612302
0.003613956
0.003654885
0.003614244
0.00362074
0.003611202
0.003607737
0.003607699
0.003608135
0.003609259
0.003613264
0.003640334
0.00475525
0.003615455
0.003609329
0.003608442
0.003607546
0.003608369
0.003609303
0.003612037
0.003618772
0.003747024
0.00361628
0.003608923
0.003607579
0.003607633
0.003608359
0.003609018
0.003611206
0.003614583
0.003727687
0.003613248
0.003608978
0.00360821
0.003607475
0.003608555
0.003609207
0.003611073
0.003614044
0.003704083
0.00361653
0.003608544
0.003608079
0.003607613
0.003608674
0.003609389
0.003611798
0.003614596
0.003732201
0.003618681
0.003609046
0.003607913
0.003608041
0.003608773
0.003609939
0.003612991
0.003609861
0.003749299
0.003632413
0.003608915
0.003607745
0.003608131
0.003608887
0.003610693
0.003615208
0.00362576
0.003769036
0.003621025
0.003608758
0.003607795
0.003608078
0.003608946
0.003611026
0.003618594
0.003624001
0.003819214
0.003621134
0.003625242
0.005032726
0.003663942
0.003803356
0.003814035
0.00376886
0.003818405
0.00381884
0.003822249
0.003807079
0.003819897
0.003824495
0.00364724
0.003754683
0.003755853
0.00375647
0.00375632
0.003756612
0.003756713
0.003756849
0.003756992
0.00375716
0.003712792
0.003755204
0.003756406
0.003757219
0.003756953
0.003757294
0.003757345
0.003757488
0.003757604
0.003757745
0.003621387
0.003755471
0.003756459
0.003757353
0.003756993
0.003757378
0.00375747
0.003757628
0.00375773
0.003757819
0.003621422
0.003755176
0.003756594
0.003757472
0.003757058
0.003757434
0.003757531
0.003757693
0.003757764
0.00375779
0.003622089
0.003755364
0.003756562
0.003757489
0.00375708
0.003757473
0.00375759
0.003757763
0.003757821
0.003757797
0.003634998
0.003754595
0.00375683
0.003757581
0.003757269
0.003757654
0.00375772
0.003757899
0.003757976
0.003757942
0.003631885
0.003755921
0.003757083
0.003757569
0.003757311
0.003757641
0.003757829
0.003758091
0.003758248
0.003758257
0.003635277
0.003755905
0.003757023
0.003757546
0.003757343
0.003757716
0.003757982
0.003758377
0.00375868
0.003758792
0.003634536
0.003755672
0.003756824
0.003757231
0.003757155
0.003757629
0.003758076
0.003758718
0.003759276
0.003759565
0.003638885
0.003754345
0.00375661
0.003757192
0.003756987
0.003757592
0.003758142
0.003759144
0.003760108
0.003760572
0.003623897
0.003754989
0.003756013
0.003756726
0.003756442
0.003757101
0.003757917
0.003759632
0.003761107
0.003761681
0.00362328
0.003754868
0.003755733
0.003756293
0.003755784
0.003756484
0.003757279
0.003758694
0.003761286
0.003762488
0.003631948
0.003754788
0.003755674
0.003755703
0.003754872
0.0037549
0.003756288
0.003629521
0.003655531
0.003615499
0.003631043
0.003754395
0.003754801
0.003754661
0.003753243
0.003752423
0.003752044
0.00365112
0.004769443
0.003626699
0.003754788
0.003754105
0.003753847
0.003751762
0.003750068
0.003748213
0.003626482
0.003750168
0.003624715
0.00375421
0.003753775
0.003753331
0.003751083
0.003748851
0.003746217
0.003620806
0.003724343
0.003622496
0.003753821
0.003754
0.0037534
0.003751047
0.003748958
0.003746262
0.003618316
0.003713362
0.003625163
0.003753808
0.003754442
0.003753934
0.003751988
0.003750282
0.003748255
0.003618567
0.003732896
0.00363689
0.003753599
0.003755456
0.003754882
0.003753631
0.003752572
0.003751475
0.003621702
0.003752094
0.003631479
0.003755036
0.003756313
0.00375638
0.003755735
0.003755526
0.003755718
0.003631954
0.003778037
0.003654078
0.00375555
0.003757007
0.003757816
0.003757973
0.00375885
0.003760666
0.003652905
0.003839654
0.00366954
0.003642947
0.005085486
0.003716035
0.003812588
0.003762568
0.003797175
0.003666169
0.00361721
0.003811418
0.003769474
0.003769895
0.00376403
0.003769755
0.003609934
0.003608816
0.003810521
0.003768714
0.003769637
0.003768583
0.003770274
0.003609983
0.003611096
0.003811973
0.003770618
0.003770616
0.003771209
0.003771655
0.003609997
0.003610813
0.003812934
0.003771629
0.003771197
0.003772799
0.003772208
0.003610055
0.003610519
0.003813642
0.003772007
0.003771492
0.003773148
0.003772522
0.003610013
0.003610483
0.003814343
0.003772323
0.00377179
0.003773472
0.003772814
0.003609992
0.003610462
0.003815093
0.003772625
0.003772092
0.003773781
0.003773127
0.003610003
0.003610509
0.003815943
0.003772949
0.00377243
0.003774117
0.003773473
0.003610022
0.00361057
0.003773315
0.003774502
0.003610045
0.003758656
0.003760266
0.003642228
0.003612765
0.003646975
0.003627157
0.003761353
0.003761169
0.003642814
0.003625326
0.003654701
0.003624207
0.003761542
0.003761981
0.003643457
0.003627589
0.003658072
0.003621433
0.003761985
0.003762477
0.003643622
0.003626899
0.003661697
0.003621702
0.003762505
0.003762843
0.003643492
0.003626173
0.003665432
0.003621607
0.003762726
0.00376301
0.00364329
0.003624441
0.003669627
0.003620015
0.003762878
0.003763108
0.003642544
0.003623768
0.003673152
0.003619487
0.003762899
0.00376297
0.003641272
0.003622657
0.003674665
0.003618535
0.003762796
0.003762676
0.003640332
0.003621777
0.003673169
0.003618012
0.003762673
0.003762742
0.003640265
0.003621072
0.00367316
0.003618316
0.003762567
0.003762472
0.003640143
0.003621765
0.003669955
0.003620126
0.003762081
0.003761634
0.003641679
0.003623606
0.003661342
0.00362202
0.003762251
0.003762394
0.00364435
0.003624471
0.00365224
0.003626801
0.003791125
0.003940073
0.003858984
0.003655624
0.003625427
0.003934584
0.003832201
0.003762271
0.003761454
0.003648274
0.003625318
0.003643127
0.003623105
0.003799455
0.00476596
0.003765396
0.003761244
0.003761788
0.003657568
0.003621157
0.003636124
0.003618535
0.003704724
0.003750272
0.003728362
0.003762229
0.003760745
0.003647008
0.003615525
0.003647136
0.003615735
0.003662528
0.003724616
0.003711904
0.003761325
0.003760544
0.003654228
0.003614545
0.00365641
0.003613179
0.003716192
0.003713895
0.003729187
0.003762134
0.003760845
0.003652686
0.003615269
0.003658764
0.003613307
0.003773175
0.003732872
0.00374725
0.003763044
0.003761319
0.003657077
0.003615547
0.003666992
0.003613417
0.003841018
0.003752102
0.003768633
0.003763949
0.003761884
0.003662572
0.003615394
0.003672548
0.003613486
0.003945198
0.003775856
0.003819701
0.003764744
0.003762391
0.003666313
0.003615268
0.003674453
0.003613667
0.00416662
0.004011007
0.003844391
0.00817991
0.003923913
0.004086142
0.003919299
0.00376527
0.003667947
0.003615357
0.0037977
0.003649098
0.003618433
0.00379904
0.00363758
0.003626298
0.003627056
0.003936581
0.003833838
0.003655055
0.003627969
0.00393484
0.003834418
0.00375862
0.004757566
0.003757862
0.008003155
0.003919028
0.003837385
0.008028061
0.003917861
0.003800262
0.003645113
0.003625112
0.00380156
0.003637452
0.003629319
0.003625901
0.003932661
0.003832466
0.003653976
0.003626399
0.003930749
0.003832947
0.003759614
0.00474796
0.003759345
0.007969972
0.003918551
0.00383734
0.007994746
0.003918805
0.003800523
0.003647409
0.003629998
0.00380279
0.00363874
0.003630135
0.003626222
0.003931217
0.003832989
0.003654015
0.003626325
0.00392956
0.003832899
0.003759625
0.004745528
0.003759645
0.007976418
0.003919655
0.003837486
0.007991041
0.003918975
0.003802441
0.00364964
0.003631991
0.003803443
0.003643953
0.003631559
0.003626301
0.00393028
0.003833073
0.003654054
0.003626344
0.003929364
0.003833087
0.003759758
0.004743596
0.003759722
0.007984901
0.003919382
0.003837477
0.007991735
0.003919184
0.00380356
0.003651028
0.003633042
0.003803789
0.003641924
0.003632587
0.003626311
0.003930274
0.003833028
0.003653976
0.003626267
0.003929605
0.003833076
0.003759837
0.004742159
0.003759851
0.007991017
0.003919072
0.003837629
0.007988158
0.003919394
0.00380361
0.003641611
0.003631578
0.003803407
0.003648314
0.003630422
0.003626253
0.003930449
0.00383286
0.003653997
0.00362619
0.003930475
0.00383293
0.003759689
0.004744276
0.003759679
0.007990162
0.003918967
0.003836505
0.007977862
0.003919623