/*--------------------------------*- C++ -*----------------------------------*\
  =========                 |
  \\      /  F ield         | OpenFOAM: The Open Source CFD Toolbox
   \\    /   O peration     | Website:  https://openfoam.org
    \\  /    A nd           | Version:  7
     \\/     M anipulation  |
\*---------------------------------------------------------------------------*/
FoamFile
{
    version     2.0;
    format      ascii;
    class       volVectorField;
    location    "0.04";
    object      U;
}
// * * * * * * * * * * * * * * * * * * * * * * * * * * * * * * * * * * * * * //

dimensions      [0 1 -1 0 0 0 0];

internalField   nonuniform List<vector> 
78470
(
(1.118403 -0.05015521 0.03697493)
(1.166574 0.006549229 0.0009668059)
(1.181805 -0.003226802 0.0005697891)
(1.193788 -0.001785191 0.0001981674)
(1.204604 -0.001638373 -0.00014377)
(1.211715 -0.001772812 -0.000223313)
(1.219336 -0.001817833 -0.0002463638)
(1.227486 -0.001909376 -0.0002258297)
(1.23707 -0.002096831 -0.0002083885)
(1.07891 0.05267908 -0.02446614)
(0.9780643 -0.03689705 0.01442047)
(1.023308 -0.003798602 -0.00977672)
(1.017819 -0.01337825 -0.001302179)
(1.033769 -0.00859718 -0.002113221)
(1.03915 -0.01132893 -0.0007223058)
(1.047737 -0.01197646 -0.0004437291)
(1.055615 -0.01385898 -0.0002971981)
(1.064821 -0.01646017 -0.0002560469)
(1.096197 0.007247062 -0.01780035)
(0.9990516 -0.0326025 0.0241508)
(1.03409 -0.01875555 -0.001377444)
(1.027474 -0.02237415 -0.0001877147)
(1.039023 -0.01910405 -0.0005814876)
(1.045979 -0.01987072 -0.0009409457)
(1.054433 -0.02003465 -0.0004823925)
(1.061316 -0.02212029 -0.0002335726)
(1.068652 -0.02584785 -0.0001494605)
(1.095512 -0.007512461 -0.00140714)
(1.012192 -0.03813731 0.02437465)
(1.037148 -0.02751033 0.001013037)
(1.028699 -0.02918872 -0.0006406504)
(1.043564 -0.02661733 -0.0008233041)
(1.045921 -0.02741737 -0.0008635816)
(1.053735 -0.02710868 -7.029094e-05)
(1.058527 -0.02850626 1.701422e-05)
(1.062677 -0.03177404 0.000171228)
(1.093773 -0.02360118 0.01003661)
(1.016165 -0.04025762 0.02105505)
(1.031069 -0.03601193 0.004046439)
(1.025148 -0.03766869 -0.001597149)
(1.038623 -0.03531121 -5.928175e-05)
(1.044707 -0.03424948 -0.001588531)
(1.052366 -0.03270899 -0.0002064315)
(1.056507 -0.03241146 -0.0002630131)
(1.057623 -0.03329247 -8.494326e-06)
(1.09194 -0.03929168 0.02620383)
(1.018515 -0.04785603 0.02235568)
(1.036716 -0.04499871 0.002835097)
(1.028243 -0.04609474 -0.001174026)
(1.043409 -0.04421852 -0.0001539851)
(1.047014 -0.04219129 -0.001274162)
(1.055814 -0.03850065 -0.0001118773)
(1.058508 -0.03376166 6.04671e-05)
(1.056819 -0.02972606 0.0001717534)
(1.091336 -0.04875492 0.03357782)
(1.020416 -0.05493154 0.02096183)
(1.035307 -0.05339079 0.003805296)
(1.027571 -0.0545958 -0.001442528)
(1.042478 -0.05309206 -3.812333e-05)
(1.050377 -0.05005274 -0.001307324)
(1.060651 -0.04440752 -2.08763e-05)
(1.065322 -0.03509439 0.0001492738)
(1.063699 -0.02349565 0.0001617992)
(1.096143 -0.05954387 0.04352902)
(1.020109 -0.06119373 0.01892519)
(1.035078 -0.06208487 0.003640333)
(1.027603 -0.06520776 -0.001491937)
(1.045597 -0.06434105 -5.716107e-05)
(1.055794 -0.06104605 -0.001044348)
(1.071016 -0.05269192 0.0001245358)
(1.079515 -0.03807552 0.0002092541)
(1.08039 -0.01603395 0.0001010104)
(1.098763 -0.06588524 0.04360666)
(1.020074 -0.06692603 0.0144378)
(1.031931 -0.07079107 0.003359291)
(1.026364 -0.07756763 -0.001328779)
(1.045898 -0.07900367 6.987164e-05)
(1.062179 -0.07742752 -0.0008148227)
(1.085047 -0.0683202 0.0004311265)
(1.10262 -0.04593648 0.0004780396)
(1.109088 -0.01315426 0.0002790401)
(1.091988 -0.06997294 0.03477509)
(1.012649 -0.07275989 0.01536817)
(1.027178 -0.0797082 0.002779365)
(1.020671 -0.09174926 -0.0008521833)
(1.045283 -0.09745098 0.0001213839)
(1.067414 -0.1013464 -0.0001811286)
(1.103853 -0.09332661 0.0006147248)
(1.135016 -0.06365549 0.0005192352)
(1.151237 -0.0132966 -7.998571e-05)
(1.091753 -0.06947458 0.03888436)
(1.007135 -0.07612905 0.01375331)
(1.017953 -0.08781472 0.003139281)
(1.009632 -0.1089245 -0.0002652662)
(1.037338 -0.1228635 0.0002922556)
(1.068543 -0.1377074 0.0001621097)
(1.124786 -0.1372518 0.00221099)
(1.182812 -0.09321411 0.0007859391)
(1.208986 -0.02906409 0.0007876497)
(1.083246 -0.06423884 0.0329522)
(0.9943774 -0.07482967 0.01555058)
(1.004261 -0.09337419 0.001908855)
(0.9882568 -0.1257466 0.0005704317)
(1.017237 -0.1533503 -0.0002822712)
(1.056431 -0.1919952 -0.002497106)
(1.150455 -0.2122181 -0.00519705)
(1.24107 -0.151374 -0.0009199882)
(1.280388 -0.0390674 -0.001920002)
(1.073639 -0.05210494 0.04281047)
(0.9711428 -0.06745935 0.01862402)
(0.9751147 -0.09198172 0.001396079)
(0.9496705 -0.1388577 0.000822194)
(0.980027 -0.1868488 -0.0005967323)
(1.020236 -0.2691903 -0.01151536)
(1.147821 -0.315944 -0.009131197)
(1.347418 -0.2124226 -0.003876432)
(1.380469 -0.0760625 0.01067131)
(1.057297 -0.0318478 0.03535176)
(0.9519131 -0.0493298 0.01404786)
(0.9383509 -0.08139937 0.002696368)
(0.8950001 -0.1462499 0.001881508)
(0.8866151 -0.2225884 -0.001409282)
(0.9285328 -0.3565382 -0.01899279)
(1.027375 -0.568552 -0.03602724)
(1.480004 -0.5554458 -0.02621775)
(1.479133 -0.1579181 -0.01447825)
(1.049763 0.001097218 0.03545302)
(0.920712 -0.01338442 0.02065069)
(0.897154 -0.04879396 -6.919908e-05)
(0.824302 -0.1039133 0.001952125)
(0.7579213 -0.2076431 0.0008682072)
(0.6869629 -0.353512 -0.02551883)
(0.7466581 -0.6239707 -0.06128399)
(0.5141924 -1.600287 -0.03723465)
(1.032899 0.04356624 0.01853083)
(0.8962706 0.03745176 0.01711343)
(0.8488414 0.01203076 0.002036974)
(0.7611871 -0.03153889 0.001434835)
(0.6555956 -0.09366595 -0.00138515)
(0.5217659 -0.1912672 -0.0184772)
(0.4378113 -0.3657298 -0.03185941)
(0.1473175 -0.6062459 -0.01453326)
(1.018001 0.1017168 0.001400321)
(0.8717385 0.104558 0.01927897)
(0.8277438 0.08755939 -0.002418235)
(0.7145503 0.06367883 0.00127272)
(0.5956051 0.03685251 -0.001404866)
(0.4403483 -0.006819999 -0.01318288)
(0.3083944 -0.1244065 -0.01704252)
(0.08538926 -0.2273431 -0.006362246)
(1.007571 0.1619629 0.004423897)
(0.849922 0.1733236 0.01982235)
(0.8190705 0.1728033 -0.00508662)
(0.6875094 0.1779119 0.0009150462)
(0.5748393 0.1816344 -0.002598258)
(0.4126724 0.176456 -0.01072597)
(0.2396884 0.102228 -0.01467716)
(0.0362688 0.06566358 -0.004442297)
(0.9975989 0.2219522 -0.001066083)
(0.8550634 0.2402479 0.01837954)
(0.8285163 0.259451 -0.006428735)
(0.7052994 0.2879504 0.0004178859)
(0.5937972 0.3228903 -0.002773498)
(0.4326747 0.3650356 -0.01286502)
(0.2260293 0.3215594 -0.01438585)
(0.03027314 0.3451732 -0.002602358)
(1.001687 0.2760204 0.01154541)
(0.868668 0.3003528 0.01925045)
(0.8590824 0.3381257 -0.007697029)
(0.7498034 0.3901013 0.0004666861)
(0.6547128 0.465609 -0.004937548)
(0.5046472 0.5537374 -0.01637038)
(0.2564116 0.5538314 -0.01350955)
(0.05422125 0.6276085 -0.0005622712)
(1.01828 0.3153205 0.01050548)
(0.907471 0.3435659 0.02011055)
(0.9126043 0.3981791 -0.006734295)
(0.8309251 0.474515 0.0004268074)
(0.7594505 0.5897878 -0.004345432)
(0.6487505 0.7505232 -0.02816117)
(0.3821296 0.826446 -0.02164941)
(0.1093952 0.978587 -0.007801976)
(1.042796 0.3387265 0.006931275)
(0.9502717 0.3685845 0.02037444)
(0.9855091 0.4319263 -0.006858593)
(0.9416031 0.5217424 0.001396883)
(0.9339768 0.6607669 -0.005041601)
(0.9250182 0.8688366 -0.03322427)
(0.7009301 1.103406 -0.03388131)
(0.2329623 1.545521 -0.01116784)
(1.268553 1.056442 -0.04889186)
(2.387423 2.289657 -0.1033413)
(2.115031 -0.3096835 -0.08445217)
(1.040076 0.0398361 -0.04949835)
(1.05874 0.001307659 0.01797531)
(1.003097 0.005897204 -0.003805866)
(1.03071 -0.006757042 0.005034684)
(1.029968 -0.00361394 0.002463223)
(1.040467 -0.00450088 0.002069698)
(1.047432 -0.003974167 0.001364215)
(1.056567 -0.004461212 0.001210548)
(1.066766 -0.00522634 0.001244158)
(0.8305632 -0.1327531 -0.1227962)
(0.9523931 -0.004076096 -0.02150015)
(1.034255 -0.04629998 0.005901699)
(1.026354 -0.008846266 -0.00576001)
(1.038892 -0.01744318 -0.001744366)
(1.044373 -0.01043694 0.0002828779)
(1.050676 -0.01194293 0.0006549664)
(1.058343 -0.01191609 0.0007949942)
(1.066208 -0.01362689 0.0005989376)
(1.075457 -0.01623577 0.0005022508)
(0.8345892 -0.03386082 -0.2849415)
(1.004519 -0.01779259 0.05052784)
(1.054312 -0.03547085 0.01263615)
(1.032426 -0.01351386 0.01236213)
(1.03636 -0.02389148 -0.0001375717)
(1.044317 -0.01795101 0.00415074)
(1.048436 -0.02033028 0.001645554)
(1.055719 -0.02013699 0.001251297)
(1.06215 -0.02228965 0.00065179)
(1.069277 -0.02596551 0.0003251361)
(0.8373972 -0.02416628 -0.3868764)
(0.9832281 -0.01432995 0.03598249)
(1.035495 -0.04045475 0.001563421)
(1.03711 -0.02073104 0.02391641)
(1.030923 -0.03159473 -0.001075494)
(1.046676 -0.02630105 0.004954571)
(1.046582 -0.02742179 0.001863635)
(1.055015 -0.02719857 0.0013299)
(1.059267 -0.02858443 0.0006081432)
(1.063487 -0.03169912 0.0003703615)
(0.8362877 -0.02635447 -0.4248606)
(0.9876717 -0.03761177 0.05216209)
(1.035555 -0.0468746 0.001903814)
(1.041619 -0.03395946 0.03180288)
(1.030087 -0.0380114 -0.001162627)
(1.048092 -0.03436127 0.00548829)
(1.047124 -0.03471212 0.001868376)
(1.055235 -0.03310228 0.001461632)
(1.05773 -0.03238826 0.0005801023)
(1.058675 -0.03314114 0.0002767554)
(0.8354761 -0.0270226 -0.4457817)
(0.9916035 -0.04874108 0.05009461)
(1.037554 -0.0519061 -0.007483187)
(1.045287 -0.04445069 0.03484154)
(1.029844 -0.04645928 -0.0009986622)
(1.050132 -0.04309251 0.005153888)
(1.048294 -0.04201552 0.001278498)
(1.057025 -0.03816851 0.001210808)
(1.059229 -0.03383346 0.0004851342)
(1.057887 -0.02954022 0.0002613013)
(0.8315506 -0.02865917 -0.4526948)
(0.9913035 -0.05896546 0.04815863)
(1.037297 -0.05619236 -0.01086662)
(1.046223 -0.05525401 0.03722931)
(1.031146 -0.0551292 -0.000545995)
(1.050717 -0.0530551 0.004289608)
(1.051873 -0.05000933 0.0003590555)
(1.061886 -0.04450211 0.0009835062)
(1.066339 -0.03498654 0.0003786468)
(1.065032 -0.02318322 9.427929e-05)
(0.8276037 -0.0296081 -0.4417428)
(0.9912816 -0.06582176 0.04961573)
(1.03876 -0.06250328 -0.01360621)
(1.045794 -0.06429444 0.03734043)
(1.032035 -0.0653421 -0.0002084392)
(1.051423 -0.06430014 0.003873581)
(1.056693 -0.06097802 -0.0001665037)
(1.072484 -0.05240844 0.0007113984)
(1.08051 -0.03768547 0.0003030737)
(1.081718 -0.01565099 -0.0001694515)
(0.8237629 -0.03354622 -0.4315126)
(0.99102 -0.064865 0.05187354)
(1.037177 -0.06766078 -0.01472611)
(1.043139 -0.0712923 0.03687328)
(1.031077 -0.07684292 4.8331e-05)
(1.052662 -0.07905606 0.003989401)
(1.064051 -0.07695837 -0.0006210183)
(1.085241 -0.0686142 0.0008786054)
(1.103329 -0.04540199 0.0002510101)
(1.110508 -0.01315949 -0.0002884325)
(0.8212872 -0.03559796 -0.425962)
(0.9877037 -0.06410518 0.05066984)
(1.03024 -0.07315555 -0.01488327)
(1.036275 -0.07881809 0.0366558)
(1.024566 -0.09030485 -0.0004191998)
(1.050145 -0.09743828 0.003903069)
(1.067855 -0.1000505 -0.0005884819)
(1.10414 -0.09091184 0.0005086956)
(1.135456 -0.0629324 -4.581136e-05)
(1.152892 -0.01258034 -0.001190031)
(0.82001 -0.03733945 -0.4262504)
(0.9832586 -0.06610193 0.04341963)
(1.020494 -0.07709107 -0.01369644)
(1.025423 -0.08655756 0.03784043)
(1.012593 -0.1065462 -0.0008431089)
(1.043008 -0.1222659 0.004006563)
(1.069823 -0.1351945 -0.0001776157)
(1.124049 -0.1369636 0.002214394)
(1.182141 -0.09237848 7.695589e-05)
(1.211453 -0.03077971 -0.0004104153)
(0.8227708 -0.03654457 -0.4360036)
(0.9746243 -0.06156088 0.04272049)
(1.008109 -0.07695467 -0.0125184)
(1.006601 -0.09238268 0.03859052)
(0.9889989 -0.1233359 -0.0009920181)
(1.023909 -0.1538742 0.004772739)
(1.055727 -0.1855548 0.001235948)
(1.147335 -0.199464 -0.0001612753)
(1.241976 -0.1518244 0.0003190009)
(1.283652 -0.03839934 -0.004466378)
(0.8298405 -0.03274944 -0.4484993)
(0.9637974 -0.04930686 0.03869545)
(0.9880839 -0.06610168 -0.01241308)
(0.9797803 -0.09237308 0.0388435)
(0.9514161 -0.1364874 -0.001807177)
(0.9858407 -0.1879536 0.00629675)
(1.027341 -0.2623713 0.00596029)
(1.152201 -0.3328499 0.01576622)
(1.35682 -0.2167711 0.0009447741)
(1.399008 -0.08897677 0.006206418)
(0.8407085 -0.02264983 -0.4357049)
(0.9455549 -0.0323973 0.04582303)
(0.9619635 -0.04975845 -0.01390838)
(0.9376356 -0.08499119 0.03931173)
(0.895398 -0.1432319 -0.002237009)
(0.9033559 -0.2301263 0.005002848)
(0.9226087 -0.3658149 0.008615081)
(1.009693 -0.5830038 -0.006522127)
(1.4484 -0.5928339 -0.001938049)
(1.450988 -0.09188391 -0.006045488)
(0.839808 0.004042068 -0.4106019)
(0.9306822 0.01083131 0.0449691)
(0.9354896 -0.0156402 -0.01253752)
(0.8871279 -0.05170128 0.04073794)
(0.8066662 -0.110188 -0.0002272356)
(0.7615543 -0.2071859 0.007813236)
(0.6789195 -0.3500714 0.006122367)
(0.7359453 -0.6440968 -0.00768237)
(0.6257371 -1.614858 0.001987918)
(0.8417642 0.0399871 -0.3752172)
(0.9282517 0.05463781 0.04313099)
(0.900748 0.0387415 -0.005769161)
(0.8434219 0.008027376 0.03714126)
(0.7397354 -0.03146166 -0.0009428959)
(0.6578882 -0.09576415 0.003137273)
(0.5123748 -0.1929255 -0.0005021417)
(0.4061623 -0.3460609 -0.007461632)
(0.06629179 -0.4945344 -0.001812771)
(0.8296439 0.06596096 -0.2671085)
(0.9229593 0.09734292 0.04220287)
(0.8904433 0.1027293 -0.006930028)
(0.8175315 0.08286518 0.032702)
(0.7022084 0.06714449 0.0009475445)
(0.597831 0.03399342 0.007646991)
(0.4329426 -0.009663239 -0.0007683899)
(0.2809042 -0.1108324 -0.002698635)
(0.04585229 -0.1596313 0.003414932)
(0.8223853 0.1009174 -0.1926761)
(0.9210684 0.1598806 0.04999234)
(0.8872112 0.1716078 -0.01011661)
(0.8095887 0.1698493 0.0262848)
(0.6913097 0.1769261 0.001154566)
(0.5781712 0.180135 0.003280265)
(0.4036791 0.1761191 0.0048705)
(0.2207852 0.1146252 0.0001562899)
(0.02850712 0.102185 0.0106344)
(0.8186712 0.1372037 -0.1315525)
(0.9367598 0.2252817 0.0589944)
(0.9036812 0.2392551 -0.0150401)
(0.8221181 0.2563736 0.01994689)
(0.7113818 0.2875253 0.001287974)
(0.5954872 0.3229134 0.00445133)
(0.4269117 0.3667866 0.008175402)
(0.2187384 0.3371267 0.007686867)
(0.02779525 0.3421007 0.01084334)
(0.8241932 0.170412 -0.1160094)
(0.9458474 0.2804958 0.05898748)
(0.92714 0.3013969 -0.01592899)
(0.8570814 0.3369236 0.01633188)
(0.7569232 0.389508 -0.0003294551)
(0.6582475 0.4655988 -0.003913579)
(0.4964111 0.5605252 0.01272252)
(0.2548123 0.563687 0.01967563)
(0.0378578 0.6095122 0.001935023)
(0.8269999 0.1967838 -0.106175)
(0.9550141 0.3259383 0.05388517)
(0.9577813 0.3481165 -0.01956098)
(0.9087308 0.3984975 0.01744912)
(0.8391379 0.4758213 -0.0005093359)
(0.7637944 0.5907617 0.004844648)
(0.6457405 0.7633829 0.004229365)
(0.368767 0.8723849 -0.001410563)
(0.04894229 1.069904 -0.006857434)
(0.8289595 0.2096081 -0.1043311)
(0.9789344 0.3468261 0.05259911)
(0.9991759 0.3719968 -0.01944575)
(0.9837884 0.4314449 0.0177406)
(0.949485 0.5223823 0.00137124)
(0.9482105 0.6622126 0.004305695)
(0.9162383 0.8846803 0.01398487)
(0.6951958 1.168101 -0.001170408)
(0.1634367 1.645505 0.03904348)
(0.8312828 0.2120818 -0.1044011)
(1.285613 1.115707 -0.005218418)
(2.373924 1.921983 0.02147138)
(2.128767 -0.03338832 0.02056923)
(1.057598 0.02039324 -0.002158629)
(1.075683 0.01047303 0.004018361)
(1.013513 0.01658932 0.008163069)
(1.033896 -0.005540395 0.0002276121)
(1.038481 -0.003543545 0.002128931)
(1.047972 -0.004785025 0.0008991409)
(1.056166 -0.004046807 0.0007985392)
(1.065455 -0.004564037 0.0004741491)
(1.075978 -0.005349736 0.0003227814)
(0.8509156 -0.2062158 -0.02404252)
(0.9701757 0.09423392 0.01353239)
(1.027778 -0.05811915 -0.01712579)
(1.033479 0.01545496 0.006562639)
(1.033016 -0.01612078 -0.00279704)
(1.044832 -0.00607648 0.001603587)
(1.048295 -0.01023924 0.0002710484)
(1.056747 -0.0108605 0.0008539664)
(1.064541 -0.01302004 0.0004080291)
(1.07398 -0.01581613 0.0002276085)
(0.844752 -0.1360934 -0.1282494)
(1.057454 0.08862293 0.1104494)
(0.9544187 -0.04207835 -0.006107089)
(1.036307 0.009909276 0.02934758)
(1.011424 -0.02287545 -0.000202133)
(1.03641 -0.01614547 0.004051573)
(1.042661 -0.01866301 0.001865256)
(1.053023 -0.01908949 0.001403921)
(1.060728 -0.02177385 0.0007506133)
(1.068559 -0.0255999 0.0003496538)
(0.8930517 -0.07910331 -0.2279422)
(1.060089 0.02078102 0.213533)
(0.9377953 -0.05255218 -0.02167604)
(1.048999 -0.01425695 0.03575587)
(1.008442 -0.03248751 -0.003377667)
(1.039786 -0.02609483 0.003952451)
(1.041508 -0.02702482 0.00120938)
(1.052888 -0.02672763 0.001217268)
(1.057838 -0.02830607 0.0005569864)
(1.062773 -0.03162936 0.0003074147)
(0.9454373 -0.06348225 -0.2631614)
(1.075337 -0.005991411 0.2392998)
(0.9219331 -0.05383823 -0.02409088)
(1.048657 -0.02649335 0.04130893)
(1.002551 -0.03759172 -0.002102136)
(1.03373 -0.03460393 0.003802112)
(1.039736 -0.03498793 0.001861325)
(1.050969 -0.03255941 0.001405984)
(1.055804 -0.03250382 0.0007219538)
(1.05766 -0.03324766 0.0003299819)
(0.9752282 -0.04800806 -0.2616741)
(1.088624 -0.02751286 0.2405539)
(0.9174748 -0.05818656 -0.02266695)
(1.05426 -0.04125724 0.04294737)
(1.007122 -0.04566877 0.0005841956)
(1.04389 -0.04423678 0.006433765)
(1.043088 -0.04360519 0.002230221)
(1.055724 -0.03891809 0.001575098)
(1.057992 -0.03433925 0.0006070436)
(1.057241 -0.02989729 0.0001891399)
(0.9888244 -0.03950835 -0.2747023)
(1.094757 -0.03715575 0.2411263)
(0.9090469 -0.06013722 -0.02360443)
(1.05118 -0.05227038 0.04051481)
(1.00953 -0.0539797 0.002676471)
(1.046786 -0.05323028 0.007828104)
(1.04696 -0.05158904 0.002787439)
(1.060661 -0.04483577 0.001887211)
(1.06524 -0.03548987 0.0006900501)
(1.064601 -0.02355908 0.0001122577)
(1.004605 -0.03905096 -0.2477739)
(1.095034 -0.05017052 0.2184052)
(0.907828 -0.06385741 -0.01791569)
(1.043987 -0.06286433 0.0351726)
(1.013264 -0.06418292 0.004443997)
(1.05252 -0.06448837 0.009527857)
(1.053066 -0.06170344 0.003338448)
(1.071978 -0.05301404 0.001885892)
(1.079629 -0.03851547 0.0005911056)
(1.081313 -0.01625207 -0.0001610387)
(1.011271 -0.03767678 -0.2569901)
(1.104435 -0.06275647 0.1956846)
(0.9070333 -0.06722639 -0.01149642)
(1.040322 -0.07202978 0.03336973)
(1.007397 -0.07631253 0.003546703)
(1.053399 -0.07876363 0.009269874)
(1.059024 -0.07807817 0.003789584)
(1.085477 -0.0689185 0.002077956)
(1.102442 -0.04596632 0.0005016998)
(1.109956 -0.01403788 -0.0004784062)
(1.008228 -0.03577169 -0.2496148)
(1.098508 -0.06743274 0.2053339)
(0.9023957 -0.07323768 -0.01040952)
(1.036546 -0.08043779 0.03480217)
(1.001931 -0.08970009 0.00439)
(1.052333 -0.09822599 0.009301539)
(1.063471 -0.1014956 0.003500809)
(1.104028 -0.09209242 0.001639082)
(1.13461 -0.06387322 9.714378e-06)
(1.153337 -0.01395136 -0.001297858)
(0.9945528 -0.03614649 -0.2749803)
(1.085377 -0.07240897 0.2327091)
(0.88944 -0.07679402 -0.01783592)
(1.028189 -0.08890702 0.03700268)
(0.9884071 -0.1061604 0.002768361)
(1.043998 -0.1234251 0.009150786)
(1.063175 -0.1361597 0.00225293)
(1.123956 -0.1387804 0.001429835)
(1.180875 -0.09420258 -0.0002275497)
(1.210293 -0.03382874 -0.0008229549)
(0.9985741 -0.0344804 -0.2765388)
(1.077386 -0.06373074 0.2281628)
(0.8787766 -0.07426599 -0.02114382)
(1.015596 -0.09454426 0.04086065)
(0.9652167 -0.1221081 0.001931979)
(1.017323 -0.153271 0.006753363)
(1.049225 -0.1907582 0.0007559267)
(1.148831 -0.2034182 -0.0007005686)
(1.238623 -0.1546034 -0.0001559051)
(1.286921 -0.04067269 -0.003847969)
(0.9766177 -0.03369118 -0.3076088)
(1.061466 -0.0527859 0.2630769)
(0.8568446 -0.07065982 -0.0274061)
(0.9901114 -0.09431554 0.04377777)
(0.9276699 -0.1341998 0.0007139354)
(0.9816758 -0.18739 0.007460857)
(1.021154 -0.2685344 -0.002327004)
(1.154685 -0.3330608 0.001086782)
(1.360271 -0.2174296 -0.001414276)
(1.392692 -0.09904181 0.00276582)
(1.005711 -0.01447646 -0.2939165)
(1.067612 -0.03126021 0.2557389)
(0.8350072 -0.05256398 -0.02013881)
(0.9521599 -0.08419013 0.04409325)
(0.8710846 -0.1398372 -0.002322681)
(0.8941483 -0.2273351 0.004636826)
(0.9217677 -0.3692439 -0.004777808)
(1.013408 -0.569556 -0.003134393)
(1.443095 -0.5776686 -0.0041124)
(1.437812 -0.09932768 -0.008020318)
(0.991097 0.04107926 -0.2838842)
(1.046231 0.004536973 0.2319298)
(0.8113761 -0.008686072 -0.02685765)
(0.8998847 -0.04921869 0.04369794)
(0.8066692 -0.1064084 0.002012858)
(0.7593292 -0.2114658 0.00482482)
(0.6861071 -0.3573143 -0.006240808)
(0.7525407 -0.6421196 0.00714623)
(0.6303866 -1.608687 0.003004462)
(0.942476 0.07097548 -0.3122362)
(1.005644 0.04738136 0.2778684)
(0.7759668 0.04402147 -0.03261103)
(0.8567302 0.006508501 0.04664293)
(0.7276032 -0.03162234 -0.002776022)
(0.6480297 -0.09300829 -0.003438489)
(0.496005 -0.1914697 -0.01362639)
(0.3084255 -0.3031872 -0.005736216)
(0.1010022 -0.4863994 -0.01833817)
(0.92244 0.103351 -0.2308074)
(0.9994912 0.1127567 0.2052912)
(0.7758878 0.1013416 -0.02053935)
(0.8288892 0.07915289 0.03447259)
(0.6859881 0.06542455 -0.003337461)
(0.5875414 0.03480467 0.000100602)
(0.4315113 -0.01209088 -0.01296492)
(0.1861984 -0.03824169 0.009647782)
(0.0521826 -0.173796 -0.005310882)
(0.851977 0.1447953 -0.1828592)
(1.015357 0.1737687 0.1629854)
(0.7744528 0.1693611 -0.01766717)
(0.8206213 0.1614531 0.02873012)
(0.6647217 0.1760329 -0.003123327)
(0.5709227 0.178281 0.0008195374)
(0.3844585 0.1905347 -0.003414724)
(0.1557716 0.191766 0.01191192)
(0.8345169 0.1832465 -0.1324183)
(1.036629 0.2271312 0.1113373)
(0.8048522 0.2424185 -0.006742318)
(0.8385967 0.2488169 0.02896527)
(0.6824547 0.2864512 -0.002587543)
(0.5921501 0.3176256 0.001754875)
(0.3992881 0.3755941 0.001598753)
(0.1973442 0.3848636 0.02107829)
(0.8231991 0.2158545 -0.1146871)
(1.041577 0.2750999 0.1012732)
(0.8199635 0.3060331 -0.01024811)
(0.8785986 0.3341214 0.03013425)
(0.7251083 0.3880691 -0.00167307)
(0.6580625 0.4684146 -0.006314194)
(0.4425297 0.5537374 0.003840176)
(0.2709226 0.6437025 -0.01308878)
(0.02794425 0.2965271 0.04762462)
(0.8518628 0.2493209 -0.104666)
(1.04293 0.313578 0.1018176)
(0.8502091 0.3511507 -0.01306411)
(0.9237648 0.3954112 0.02797106)
(0.8154208 0.4754581 -0.003593839)
(0.7564962 0.5999271 0.001956984)
(0.6405978 0.7505364 -0.006129815)
(0.3624688 0.8443057 -0.01272437)
(0.09640223 1.065079 -0.008365906)
(0.8514957 0.2545214 -0.1045605)
(1.064273 0.3414585 0.1085947)
(0.8922284 0.376163 -0.01591423)
(0.9950304 0.4274647 0.02786735)
(0.9266204 0.5227405 -0.002206164)
(0.9410975 0.6651749 0.003587436)
(0.9196955 0.8851286 -0.00303494)
(0.7097882 1.159279 0.002416303)
(0.1368953 1.612855 0.0002509388)
(1.296384 1.108011 -0.001156536)
(2.371931 1.91331 0.002207182)
(2.170821 -0.05098579 -0.0263474)
(1.059484 0.01801415 -0.005263581)
(1.063795 0.01931533 0.0008294428)
(1.013776 0.01655964 0.002985997)
(1.034732 -0.00863405 -0.0001093587)
(1.039355 -0.003859304 0.0009669468)
(1.04848 -0.005328085 0.0006301253)
(1.056518 -0.004003578 0.0005827635)
(1.065679 -0.004566136 0.000434744)
(1.076235 -0.005342918 0.0003996355)
(0.8892632 -0.3358337 -0.008628544)
(1.005926 0.1082178 0.005804416)
(1.031928 -0.0602332 -0.008547228)
(1.041149 0.01594311 0.003476176)
(1.033697 -0.01689867 -0.001672692)
(1.046554 -0.00529251 0.0008720351)
(1.047515 -0.009890954 0.000545233)
(1.057035 -0.01087432 0.0006315564)
(1.064648 -0.01313685 0.0003943481)
(1.074226 -0.01595915 0.0003418984)
(0.8316849 -0.260388 -0.05427399)
(1.063349 0.2033535 0.02341799)
(0.9470417 -0.04056933 -0.006715893)
(1.037752 0.0211805 0.009408752)
(1.009743 -0.02411558 -0.001603885)
(1.037512 -0.01593816 0.001732815)
(1.04205 -0.01939553 0.0004592828)
(1.053229 -0.01932593 0.0007043126)
(1.060799 -0.02195126 0.0004574461)
(1.068715 -0.02570077 0.0002298446)
(0.5345457 -0.1265903 -0.1091517)
(1.10609 0.1018974 0.09772566)
(0.9102754 -0.0540244 -0.009694962)
(1.061751 -0.004858042 0.01866233)
(1.013127 -0.03028736 0.0007784617)
(1.045692 -0.02567632 0.001787762)
(1.042793 -0.02757643 0.0002048891)
(1.054256 -0.02702076 0.0003571416)
(1.058237 -0.02849419 0.0001546478)
(1.06308 -0.03170356 0.0001919225)
(0.5854343 -0.04418785 -0.1668495)
(1.121522 0.01393407 0.1554574)
(0.8933585 -0.05242679 -0.01485097)
(1.058639 -0.02434053 0.01806597)
(1.009913 -0.03568097 0.0006623319)
(1.044723 -0.03323187 0.002052349)
(1.040954 -0.0338022 -0.0004526967)
(1.052942 -0.03264282 0.0005196972)
(1.056054 -0.03239506 0.0001397603)
(1.057936 -0.0332874 4.44061e-05)
(0.7006118 -0.0146792 -0.2163413)
(1.117977 -0.0119588 0.172483)
(0.8866393 -0.05488208 -0.02240496)
(1.055869 -0.04105273 0.01446647)
(1.008868 -0.0456096 -0.002184786)
(1.047543 -0.0420045 0.003428937)
(1.042955 -0.04140966 0.001023505)
(1.055999 -0.0379034 0.0007734913)
(1.057986 -0.03379615 0.0002637407)
(1.057239 -0.02979275 -3.326736e-05)
(0.6660481 0.0006462696 -0.2207705)
(1.124928 -0.03973054 0.1885973)
(0.8752077 -0.05556765 -0.02470522)
(1.047754 -0.0539873 0.007879256)
(1.00024 -0.05417069 -0.006824619)
(1.044834 -0.05078992 0.002113409)
(1.044039 -0.04880896 0.0005996634)
(1.059717 -0.04427312 0.0004350829)
(1.064335 -0.03508061 9.254781e-05)
(1.064317 -0.02362757 -0.0001814591)
(0.7201502 0.01299285 -0.2602291)
(1.102803 -0.05734383 0.2255834)
(0.8819087 -0.0629431 -0.02366047)
(1.042274 -0.06430311 0.003772235)
(0.991002 -0.06345063 -0.01325532)
(1.039898 -0.06359355 -0.001183358)
(1.047263 -0.05982564 -0.001129808)
(1.069711 -0.05207402 -9.626371e-07)
(1.078402 -0.03778007 -0.0002808558)
(1.0809 -0.01624133 -0.0005032597)
(0.728147 -0.008288386 -0.2711989)
(1.110413 -0.04953111 0.2424375)
(0.8784499 -0.06853039 -0.02130604)
(1.031968 -0.07198812 0.001432114)
(0.9887675 -0.07558511 -0.0148065)
(1.036951 -0.07853746 -0.002200634)
(1.053548 -0.07665211 -0.001276475)
(1.081346 -0.0694695 -0.0002660135)
(1.100684 -0.04604017 -0.000390919)
(1.109218 -0.01449873 -0.0008295496)
(0.7326458 -0.02480152 -0.2669103)
(1.097895 -0.04452549 0.2341807)
(0.8698967 -0.07355135 -0.02235869)
(1.025316 -0.08053632 0.001435213)
(0.9817267 -0.09037176 -0.01538686)
(1.035396 -0.09678931 -0.002509053)
(1.057698 -0.1001693 -0.001349334)
(1.100554 -0.09143749 -0.0003830219)
(1.132545 -0.06375193 -0.0007251987)
(1.152996 -0.0146116 -0.001209996)
(0.679093 -0.01592855 -0.2112438)
(1.110516 -0.04954858 0.1888925)
(0.8526761 -0.07725805 -0.02510097)
(1.02024 -0.08895487 0.003161803)
(0.9707855 -0.1085676 -0.01278044)
(1.027563 -0.1226946 -0.001776335)
(1.060245 -0.1376755 -0.0007204001)
(1.120209 -0.1392746 0.000362097)
(1.178049 -0.09516465 -0.0003060599)
(1.208534 -0.0360954 -0.0009566198)
(0.7639896 -0.03804978 -0.2177139)
(1.109269 -0.04754408 0.1923009)
(0.8418085 -0.076977 -0.02319132)
(1.006405 -0.09515635 0.005775033)
(0.9512635 -0.122701 -0.008907924)
(1.0123 -0.1538173 6.129407e-05)
(1.044652 -0.1912792 0.0002863736)
(1.144489 -0.2008563 5.001114e-05)
(1.23512 -0.1539591 -0.0003176316)
(1.286776 -0.0416559 -0.00200164)
(0.5551926 -0.01201705 -0.1664519)
(1.115507 -0.03467809 0.1688819)
(0.8180093 -0.06912869 -0.02507592)
(0.9915715 -0.0958334 0.009768876)
(0.9170885 -0.1347166 -0.005949337)
(0.9794817 -0.1881739 0.001555688)
(1.020733 -0.2686265 0.001126816)
(1.150433 -0.3339216 0.003661399)
(1.360191 -0.2193282 -0.0002756726)
(1.389582 -0.1062508 0.004532215)
(0.680672 0.01452332 -0.2704094)
(1.112496 -0.03505478 0.1974526)
(0.80024 -0.04837065 -0.02770189)
(0.9533611 -0.08587682 0.006974947)
(0.8597216 -0.141615 -0.007313186)
(0.8977976 -0.2312479 0.001969362)
(0.9194602 -0.3700148 0.0009733867)
(1.008373 -0.5687768 -0.0004940389)
(1.440118 -0.5780737 -0.0007443745)
(1.429119 -0.1000671 -0.0006315942)
(0.7190496 -0.003234873 -0.2722614)
(1.082707 0.008312592 0.1884857)
(0.7867395 -0.01107966 -0.02544126)
(0.9103109 -0.04999658 0.01098658)
(0.7989223 -0.1062496 -0.003967412)
(0.7642902 -0.2153576 0.00328801)
(0.6836416 -0.362692 0.00152904)
(0.7499541 -0.6429635 0.002895903)
(0.6256334 -1.6048 0.0009925267)
(0.4816164 0.04311608 -0.1118162)
(1.091064 0.01684509 0.1427338)
(0.7608337 0.04648724 -0.02335704)
(0.8728273 0.00433634 0.01148536)
(0.7502784 -0.03395913 -0.001224377)
(0.6558544 -0.09725532 0.00206452)
(0.4964419 -0.1930053 -0.0003709289)
(0.3020664 -0.3067113 0.0006720054)
(0.09596546 -0.483994 0.0001841303)
(0.74494 0.1558513 -0.1265148)
(1.032972 0.03534565 0.09083797)
(0.7850612 0.1108641 -0.01507458)
(0.8501124 0.07335977 0.01478759)
(0.6949361 0.06433862 -0.000454069)
(0.5923048 0.03579896 0.002249262)
(0.4275164 -0.01356805 0.000856156)
(0.1741396 -0.03877113 0.003223179)
(0.04499323 -0.1783547 0.004108211)
(0.7426727 0.1522589 -0.08820229)
(1.036959 0.127532 0.06980625)
(0.7812344 0.1777439 -0.01006025)
(0.8362929 0.1593806 0.00990268)
(0.6625949 0.1807697 -0.001029909)
(0.5742959 0.1803239 0.001299399)
(0.3760372 0.1928643 0.004785404)
(0.147451 0.1891111 0.00223231)
(0.8395429 0.2151955 -0.05018412)
(1.009435 0.1843215 0.0227829)
(0.8040865 0.2473599 -0.004993662)
(0.8418262 0.2457357 0.008573353)
(0.6809066 0.2897253 0.001048306)
(0.5935261 0.318188 0.002879449)
(0.3878163 0.378584 0.006013746)
(0.1963679 0.3873443 0.002516446)
(0.8135746 0.2153714 -0.04020061)
(1.028459 0.2559593 0.01633164)
(0.8214105 0.3081441 -0.009981187)
(0.8776222 0.3312313 0.004019219)
(0.7238522 0.389235 0.001277959)
(0.6606702 0.4699678 -0.0001448698)
(0.4321812 0.5522075 0.006257438)
(0.270985 0.6520044 -0.003151534)
(0.03734624 0.2654328 -0.006341834)
(0.8504293 0.2501671 -0.02685943)
(1.038031 0.3079985 0.02299118)
(0.860219 0.3534739 -0.01765523)
(0.9260193 0.3945817 -0.00107969)
(0.8171098 0.4748058 -0.002690766)
(0.7593499 0.6012325 -0.0002999018)
(0.6374973 0.7473038 0.002335383)
(0.3547437 0.8552705 -0.003192652)
(0.0909142 1.090655 -0.002867642)
(0.812877 0.2398811 -0.03119368)
(1.063093 0.3411941 0.01756381)
(0.9028148 0.377321 -0.01493788)
(0.9995017 0.4277838 0.001087347)
(0.9299598 0.522064 0.0006356728)
(0.9463192 0.6648156 0.0009124758)
(0.9206257 0.8841295 0.003572415)
(0.7031391 1.159018 0.0005492157)
(0.1370568 1.616392 -0.009203615)
(1.293776 1.104353 0.0008522418)
(2.369648 1.907516 0.00258964)
(2.193452 -0.05430747 -0.001724303)
(1.073852 0.02207818 -0.002353043)
(1.070224 0.01449373 -0.001807955)
(1.01305 0.01924305 0.003826981)
(1.033054 -0.00713885 0.000923486)
(1.03723 -0.003514227 0.001221462)
(1.047406 -0.005532917 0.000580686)
(1.055994 -0.004043863 0.0003533881)
(1.065275 -0.004542697 0.0001282332)
(1.075947 -0.005328059 -0.00012759)
(0.8840334 -0.440541 -0.004242271)
(0.9874873 0.1231339 0.007881919)
(1.02447 -0.06501885 0.003915622)