/*--------------------------------*- C++ -*----------------------------------*\
  =========                 |
  \\      /  F ield         | OpenFOAM: The Open Source CFD Toolbox
   \\    /   O peration     | Website:  https://openfoam.org
    \\  /    A nd           | Version:  7
     \\/     M anipulation  |
\*---------------------------------------------------------------------------*/
FoamFile
{
    version     2.0;
    format      ascii;
    class       volScalarField;
    location    "0.02";
    object      epsilon;
}
// * * * * * * * * * * * * * * * * * * * * * * * * * * * * * * * * * * * * * //

dimensions      [0 2 -3 0 0 0 0];

internalField   nonuniform List<scalar> 
109978
(
0.001923347
0.001977629
0.001982148
0.001982496
0.001982266
0.001981492
0.001977151
0.00208201
0.002092187
0.002093263
0.002092988
0.002091869
0.001981906
0.002092563
0.002104281
0.002105722
0.002105465
0.002104151
0.001982469
0.002093929
0.002106052
0.00210765
0.002107416
0.002106033
0.00198262
0.002094229
0.002106476
0.002108147
0.002107933
0.002106531
0.001982704
0.002094336
0.002106625
0.002108324
0.002108125
0.002106719
0.001982768
0.002094393
0.002106706
0.002108418
0.002108224
0.002106815
0.001982846
0.002094444
0.002106763
0.002108476
0.002108286
0.002106877
0.001982931
0.002094499
0.002106817
0.00210853
0.002108341
0.002106931
0.001983011
0.002094557
0.00210687
0.002108583
0.002108394
0.002106984
0.001983085
0.002094618
0.002106927
0.00210864
0.00210845
0.002107038
0.001983161
0.002094685
0.002106988
0.0021087
0.002108511
0.002107097
0.001983239
0.002094759
0.002107055
0.002108766
0.002108576
0.002107161
0.001983318
0.002094831
0.002107127
0.002108837
0.002108646
0.00210723
0.001983399
0.002094907
0.002107204
0.002108913
0.00210872
0.002107303
0.001983483
0.002094989
0.002107287
0.002108993
0.002108799
0.002107381
0.001983571
0.002095075
0.002107373
0.002109077
0.002108879
0.002107461
0.001983663
0.002095165
0.002107461
0.002109162
0.002108961
0.002107541
0.001983758
0.002095253
0.002107543
0.002109237
0.002109031
0.002107609
0.001983846
0.002095319
0.002107591
0.00210927
0.002109058
0.002107634
0.001983893
0.002095275
0.002107489
0.002109137
0.002108913
0.00210749
0.001983738
0.002094842
0.0021069
0.002108478
0.002108249
0.002106868
0.01203191
0.002093778
0.002105583
0.002107058
0.002106867
0.002105661
0.002111577
0.002114325
0.002113845
0.002113586
0.002113366
0.002113062
0.0120546
0.01203908
0.01203634
0.01203628
0.01203623
0.01203623
0.0120506
0.01203729
0.01203641
0.01203627
0.01203623
0.01203623
0.01204948
0.01203715
0.01203641
0.01203627
0.01203624
0.01203624
0.01204924
0.01203729
0.01203641
0.01203628
0.01203626
0.01203626
0.01204922
0.01203742
0.01203641
0.0120363
0.01203628
0.01203628
0.01204983
0.0120374
0.0120364
0.01203632
0.0120363
0.0120363
0.01204857
0.01203725
0.0120364
0.01203634
0.01203632
0.01203632
0.01204665
0.01203711
0.0120364
0.01203636
0.01203634
0.01203634
0.01204667
0.01203699
0.01203642
0.01203637
0.01203636
0.01203635
0.01204682
0.01203695
0.01203644
0.01203639
0.01203638
0.01203637
0.01204698
0.01203694
0.01203645
0.01203641
0.0120364
0.01203639
0.01204717
0.01203694
0.01203647
0.01203643
0.01203642
0.01203641
0.01204736
0.01203695
0.01203649
0.01203645
0.01203644
0.01203643
0.01204751
0.01203696
0.01203651
0.01203647
0.01203646
0.01203645
0.01204767
0.01203698
0.01203654
0.01203649
0.01203648
0.01203647
0.01204792
0.012037
0.01203656
0.01203652
0.0120365
0.01203649
0.01204815
0.01203702
0.01203658
0.01203654
0.01203652
0.01203651
0.01204837
0.01203705
0.0120366
0.01203656
0.01203654
0.01203653
0.01204857
0.01203708
0.01203663
0.01203658
0.01203656
0.01203656
0.01204878
0.01203711
0.01203665
0.0120366
0.01203658
0.01203658
0.01204895
0.01203715
0.01203668
0.01203663
0.01203661
0.0120366
0.01204915
0.0120372
0.0120367
0.01203665
0.01203663
0.01203662
0.0120472
0.01203726
0.01203673
0.01203668
0.01203665
0.01203665
0.002107839
0.002113505
0.002112758
0.002112356
0.002112126
0.002111954
0.01205369
0.01203773
0.01203638
0.01203621
0.0120362
0.0120362
0.01205531
0.01203716
0.01203634
0.01203627
0.0120362
0.01203621
0.01204707
0.01203713
0.01203631
0.01203629
0.01203622
0.01203623
0.01204963
0.01203719
0.0120363
0.01203633
0.01203624
0.01203625
0.01204811
0.01203709
0.01203631
0.01203633
0.01203626
0.01203626
0.01204758
0.01203699
0.01203633
0.01203634
0.01203627
0.01203628
0.01204717
0.0120369
0.01203634
0.01203634
0.01203629
0.0120363
0.01204687
0.01203682
0.01203636
0.01203635
0.01203631
0.01203631
0.01204661
0.01203681
0.01203638
0.01203637
0.01203633
0.01203633
0.01204676
0.01203681
0.01203639
0.01203638
0.01203635
0.01203635
0.01204688
0.0120368
0.01203641
0.0120364
0.01203637
0.01203637
0.0120469
0.01203681
0.01203643
0.01203642
0.01203639
0.01203639
0.01204686
0.01203683
0.01203645
0.01203644
0.01203641
0.01203641
0.01204685
0.01203685
0.01203648
0.01203646
0.01203643
0.01203643
0.01204685
0.01203687
0.0120365
0.01203648
0.01203645
0.01203645
0.01204686
0.01203689
0.01203652
0.0120365
0.01203647
0.01203647
0.01204692
0.01203691
0.01203654
0.01203652
0.01203649
0.01203649
0.01204698
0.01203693
0.01203657
0.01203655
0.01203651
0.01203651
0.01204703
0.01203695
0.01203659
0.01203657
0.01203653
0.01203653
0.0120471
0.01203698
0.01203661
0.01203659
0.01203656
0.01203655
0.01204717
0.012037
0.01203664
0.01203661
0.01203658
0.01203658
0.01204727
0.01203702
0.01203666
0.01203664
0.0120366
0.0120366
0.0120474
0.01203705
0.01203669
0.01203666
0.01203662
0.01203662
0.002107176
0.00211292
0.002112074
0.00211158
0.00211135
0.002111238
0.01204715
0.01203739
0.01203638
0.01203619
0.01203619
0.0120362
0.01204939
0.01203805
0.01203626
0.01203634
0.0120362
0.01203621
0.0120472
0.0120372
0.01203628
0.01203627
0.01203623
0.01203623
0.01204632
0.0120369
0.01203629
0.01203628
0.01203624
0.01203625
0.01204619
0.0120368
0.0120363
0.01203628
0.01203626
0.01203626
0.01204619
0.01203676
0.01203631
0.01203629
0.01203628
0.01203627
0.0120463
0.01203674
0.01203633
0.01203631
0.01203629
0.01203629
0.01204645
0.01203674
0.01203634
0.01203633
0.01203631
0.01203631
0.01204642
0.01203677
0.01203636
0.01203635
0.01203633
0.01203633
0.01204667
0.01203679
0.01203638
0.01203637
0.01203635
0.01203635
0.01204668
0.01203682
0.0120364
0.01203639
0.01203637
0.01203637
0.01204667
0.01203683
0.01203642
0.01203641
0.01203639
0.01203639
0.01204674
0.01203682
0.01203644
0.01203643
0.01203641
0.01203641
0.01204686
0.01203683
0.01203646
0.01203645
0.01203643
0.01203643
0.01204704
0.01203685
0.01203648
0.01203647
0.01203645
0.01203645
0.01204711
0.01203687
0.0120365
0.01203649
0.01203647
0.01203647
0.01204715
0.01203689
0.01203652
0.01203651
0.01203649
0.01203649
0.01204717
0.01203691
0.01203654
0.01203653
0.01203651
0.01203651
0.01204722
0.01203693
0.01203656
0.01203656
0.01203653
0.01203653
0.0120473
0.01203695
0.01203659
0.01203658
0.01203655
0.01203655
0.0120474
0.01203698
0.01203661
0.0120366
0.01203657
0.01203657
0.01204753
0.012037
0.01203663
0.01203663
0.0120366
0.0120366
0.01204769
0.01203702
0.01203666
0.01203665
0.01203662
0.01203662
0.00210705
0.002112753
0.002111861
0.002111362
0.002111117
0.002111016
0.01204673
0.01203735
0.01203639
0.01203619
0.01203619
0.0120362
0.01205248
0.012038
0.01203625
0.01203636
0.0120362
0.01203621
0.01204705
0.01203692
0.01203629
0.01203626
0.01203623
0.01203623
0.01204606
0.01203671
0.01203628
0.01203628
0.01203624
0.01203625
0.01204592
0.0120367
0.0120363
0.01203629
0.01203626
0.01203626
0.01204598
0.0120367
0.01203631
0.01203631
0.01203627
0.01203628
0.01204615
0.01203671
0.01203632
0.01203632
0.01203629
0.0120363
0.01204631
0.01203671
0.01203634
0.01203634
0.01203631
0.01203631
0.01204634
0.01203674
0.01203636
0.01203636
0.01203633
0.01203633
0.01204663
0.01203674
0.01203638
0.01203638
0.01203635
0.01203635
0.01204665
0.01203676
0.0120364
0.0120364
0.01203637
0.01203637
0.01204683
0.01203681
0.01203642
0.01203642
0.01203639
0.01203639
0.01204707
0.01203685
0.01203644
0.01203645
0.01203641
0.01203641
0.01204713
0.01203689
0.01203647
0.01203647
0.01203643
0.01203643
0.01204728
0.0120369
0.01203649
0.01203649
0.01203645
0.01203645
0.01204735
0.01203692
0.01203651
0.01203651
0.01203647
0.01203647
0.01204737
0.01203694
0.01203653
0.01203653
0.01203649
0.01203649
0.01204739
0.01203695
0.01203655
0.01203655
0.01203651
0.01203651
0.01204742
0.01203697
0.01203657
0.01203657
0.01203653
0.01203653
0.01204749
0.01203699
0.01203659
0.01203659
0.01203656
0.01203655
0.01204758
0.012037
0.01203661
0.01203661
0.01203658
0.01203657
0.01204772
0.01203702
0.01203663
0.01203663
0.0120366
0.0120366
0.01204788
0.01203704
0.01203665
0.01203665
0.01203662
0.01203662
0.002107077
0.002112742
0.002111839
0.002111341
0.002111097
0.002111002
0.01204789
0.01203735
0.01203639
0.01203619
0.01203619
0.0120362
0.01205018
0.012038
0.01203625
0.01203636
0.0120362
0.01203621
0.01204829
0.01203691
0.01203629
0.01203626
0.01203623
0.01203623
0.01204603
0.01203671
0.01203628
0.01203628
0.01203624
0.01203625
0.01204589
0.0120367
0.0120363
0.01203629
0.01203626
0.01203626
0.01204597
0.0120367
0.01203631
0.01203631
0.01203627
0.01203628
0.01204616
0.01203671
0.01203633
0.01203632
0.01203629
0.0120363
0.01204634
0.01203671
0.01203634
0.01203634
0.01203631
0.01203631
0.01204636
0.01203675
0.01203636
0.01203636
0.01203633
0.01203633
0.01204665
0.01203674
0.01203638
0.01203638
0.01203635
0.01203635
0.01204664
0.01203676
0.0120364
0.0120364
0.01203637
0.01203637
0.01204675
0.01203681
0.01203642
0.01203642
0.01203639
0.01203639
0.01204709
0.01203685
0.01203644
0.01203645
0.01203641
0.01203641
0.01204751
0.01203689
0.01203647
0.01203647
0.01203643
0.01203643
0.01204761
0.0120369
0.01203649
0.01203649
0.01203645
0.01203645
0.01204766
0.01203692
0.01203651
0.01203651
0.01203647
0.01203647
0.01204765
0.01203694
0.01203653
0.01203653
0.01203649
0.01203649
0.01204766
0.01203695
0.01203655
0.01203655
0.01203651
0.01203651
0.01204766
0.01203697
0.01203657
0.01203657
0.01203653
0.01203653
0.01204771
0.01203699
0.01203659
0.01203659
0.01203656
0.01203655
0.01204781
0.012037
0.01203661
0.01203661
0.01203658
0.01203657
0.01204792
0.01203702
0.01203663
0.01203663
0.0120366
0.0120366
0.01204806
0.01203704
0.01203665
0.01203665
0.01203662
0.01203662
0.002107171
0.00211282
0.002111933
0.002111453
0.002111218
0.002111117
0.01204672
0.01203739
0.01203638
0.01203619
0.01203619
0.0120362
0.0120567
0.01203805
0.01203626
0.01203634
0.0120362
0.01203621
0.01204647
0.0120372
0.01203628
0.01203627
0.01203623
0.01203623
0.01204613
0.0120369
0.01203629
0.01203628
0.01203624
0.01203624
0.01204607
0.0120368
0.0120363
0.01203628
0.01203626
0.01203626
0.01204606
0.01203676
0.01203631
0.01203629
0.01203628
0.01203627
0.01204622
0.01203674
0.01203633
0.01203631
0.0120363
0.01203629
0.01204641
0.01203674
0.01203634
0.01203633
0.01203631
0.01203631
0.01204637
0.01203677
0.01203636
0.01203636
0.01203633
0.01203633
0.01204661
0.01203679
0.01203638
0.01203638
0.01203635
0.01203635
0.01204663
0.01203682
0.0120364
0.0120364
0.01203637
0.01203637
0.01204675
0.01203683
0.01203642
0.01203642
0.01203639
0.01203639
0.01204688
0.01203682
0.01203644
0.01203643
0.01203641
0.01203641
0.01204706
0.01203683
0.01203646
0.01203645
0.01203643
0.01203643
0.01204722
0.01203685
0.01203648
0.01203647
0.01203645
0.01203645
0.0120473
0.01203687
0.0120365
0.01203649
0.01203647
0.01203647
0.01204733
0.01203689
0.01203652
0.01203651
0.01203649
0.01203649
0.01204736
0.01203691
0.01203655
0.01203653
0.01203651
0.01203651
0.01204739
0.01203693
0.01203657
0.01203656
0.01203653
0.01203653
0.01204747
0.01203695
0.01203659
0.01203658
0.01203655
0.01203655
0.01204756
0.01203698
0.01203661
0.0120366
0.01203657
0.01203657
0.01204769
0.012037
0.01203664
0.01203663
0.0120366
0.0120366
0.01204786
0.01203702
0.01203666
0.01203665
0.01203662
0.01203662
0.00210755
0.002113321
0.002112546
0.002112116
0.002111889
0.002111755
0.01204992
0.01203772
0.01203639
0.01203621
0.0120362
0.0120362
0.01205497
0.01203716
0.01203634
0.01203627
0.0120362
0.01203621
0.0120506
0.01203712
0.01203632
0.01203629
0.01203622
0.01203623
0.01204714
0.01203719
0.0120363
0.01203633
0.01203624
0.01203625
0.01204648
0.01203708
0.01203632
0.01203633
0.01203626
0.01203626
0.01204637
0.01203699
0.01203633
0.01203634
0.01203627
0.01203628
0.0120463
0.0120369
0.01203635
0.01203634
0.01203629
0.0120363
0.01204638
0.01203682
0.01203637
0.01203635
0.01203631
0.01203631
0.01204644
0.01203681
0.01203638
0.01203637
0.01203633
0.01203633
0.01204673
0.01203681
0.0120364
0.01203638
0.01203635
0.01203635
0.01204678
0.0120368
0.01203642
0.0120364
0.01203637
0.01203637
0.0120468
0.01203681
0.01203644
0.01203642
0.01203639
0.01203639
0.01204681
0.01203683
0.01203646
0.01203644
0.01203641
0.01203641
0.01204693
0.01203685
0.01203648
0.01203646
0.01203643
0.01203643
0.01204703
0.01203686
0.01203651
0.01203648
0.01203645
0.01203645
0.01204706
0.01203689
0.01203653
0.0120365
0.01203647
0.01203647
0.01204709
0.01203691
0.01203655
0.01203652
0.01203649
0.01203649
0.01204712
0.01203693
0.01203657
0.01203655
0.01203651
0.01203651
0.01204718
0.01203695
0.0120366
0.01203657
0.01203654
0.01203653
0.01204726
0.01203697
0.01203662
0.01203659
0.01203656
0.01203655
0.01204735
0.012037
0.01203665
0.01203661
0.01203658
0.01203658
0.01204748
0.01203702
0.01203667
0.01203664
0.0120366
0.0120366
0.01204764
0.01203704
0.0120367
0.01203666
0.01203662
0.01203662
0.002106516
0.002110326
0.002109578
0.002109281
0.00210904
0.002108804
0.01205852
0.01203907
0.01203634
0.01203628
0.01203623
0.01203623
0.01205218
0.01203727
0.01203641
0.01203626
0.01203623
0.01203623
0.0120502
0.01203714
0.01203641
0.01203626
0.01203624
0.01203624
0.01204958
0.01203727
0.01203641
0.01203628
0.01203626
0.01203626
0.01204908
0.01203741
0.01203641
0.0120363
0.01203628
0.01203628
0.01204861
0.01203739
0.0120364
0.01203632
0.0120363
0.0120363
0.01204798
0.01203724
0.0120364
0.01203633
0.01203632
0.01203632
0.01204715
0.0120371
0.0120364
0.01203635
0.01203634
0.01203634
0.01204671
0.01203699
0.01203642
0.01203637
0.01203636
0.01203635
0.01204684
0.01203695
0.01203644
0.01203639
0.01203638
0.01203637
0.01204684
0.01203693
0.01203645
0.01203641
0.0120364
0.01203639
0.01204681
0.01203694
0.01203647
0.01203643
0.01203642
0.01203641
0.01204683
0.01203694
0.01203649
0.01203645
0.01203644
0.01203643
0.01204682
0.01203695
0.01203651
0.01203647
0.01203646
0.01203645
0.01204689
0.01203697
0.01203654
0.01203649
0.01203648
0.01203647
0.01204695
0.01203699
0.01203656
0.01203652
0.0120365
0.01203649
0.01204702
0.01203701
0.01203658
0.01203654
0.01203652
0.01203651
0.01204709
0.01203704
0.0120366
0.01203656
0.01203654
0.01203653
0.01204716
0.01203707
0.01203663
0.01203658
0.01203656
0.01203656
0.01204722
0.0120371
0.01203665
0.0120366
0.01203658
0.01203658
0.01204729
0.01203714
0.01203668
0.01203663
0.01203661
0.0120366
0.01204738
0.01203719
0.0120367
0.01203665
0.01203663
0.01203662
0.0120472
0.01203724
0.01203673
0.01203668
0.01203665
0.01203664
0.005960101
0.006048133
0.006046241
0.006044198
0.006041767
0.006039363
0.01208559
0.01201624
0.01201996
0.01202363
0.01202315
0.01202371
0.01202396
0.01220497
0.01201802
0.01202219
0.01202701
0.01202586
0.01202642
0.01202655
0.0121348
0.0120192
0.01202123
0.01202664
0.01202564
0.0120263
0.01202645
0.01210594
0.01201888
0.01202107
0.01202643
0.01202546
0.01202613
0.01202628
0.01208783
0.01201821
0.01202094
0.01202604
0.01202524
0.01202591
0.01202606
0.01207795
0.01201739
0.01202097
0.01202579
0.01202503
0.0120257
0.01202586
0.01207359
0.01201666
0.01202109
0.01202555
0.01202485
0.01202551
0.01202567
0.01207319
0.01201598
0.01202117
0.01202534
0.01202468
0.01202531
0.01202548
0.01207242
0.01201531
0.01202118
0.01202513
0.0120245
0.01202512
0.0120253
0.01207277
0.01201458
0.01202108
0.01202493
0.01202432
0.01202492
0.0120251
0.01207448
0.01201398
0.01202092
0.01202473
0.01202411
0.0120247
0.01202489
0.01207527
0.0120133
0.01202083
0.01202456
0.01202394
0.01202453
0.01202472
0.01207592
0.01201273
0.01202073
0.01202437
0.01202375
0.01202435
0.01202454
0.01207693
0.01201236
0.01202051
0.01202418
0.01202356
0.01202416
0.01202436
0.01207804
0.01201202
0.01202026
0.01202398
0.01202336
0.01202398
0.01202418
0.01207806
0.01201168
0.01202001
0.01202379
0.01202317
0.01202379
0.012024
0.0120782
0.01201135
0.01201974
0.01202359
0.01202297
0.0120236
0.01202382
0.01207892
0.01201104
0.01201947
0.0120234
0.01202278
0.01202342
0.01202364
0.01208031
0.01201075
0.01201919
0.01202322
0.01202258
0.01202324
0.01202346
0.01208164
0.01201048
0.01201891
0.01202304
0.01202239
0.01202306
0.01202329
0.01208311
0.01201028
0.01201862
0.01202287
0.01202221
0.0120229
0.01202313
0.01208513
0.01201011
0.01201836
0.01202273
0.01202206
0.01202276
0.01202299
0.01208743
0.001981941
0.01201815
0.0120226
0.01202194
0.01202265
0.01202288
0.004159318
0.006737544
0.01208061
0.01205018
0.004129924
0.004290747
0.01208529
0.01205727
0.01225071
0.0120682
0.004295742
0.004298052
0.01220496
0.01206774
0.01206737
0.01206794
0.004299607
0.004298386
0.01213467
0.01206536
0.01206922
0.0120644
0.004299932
0.004298328
0.01210577
0.01206194
0.01207252
0.01206138
0.004300105
0.004298268
0.01208764
0.01205961
0.01207912
0.0120587
0.00430036
0.004298215
0.01207774
0.01205706
0.01208796
0.01205637
0.004300602
0.004298235
0.01207336
0.01205522
0.01208623
0.01205451
0.004300942
0.004298332
0.01207298
0.01205302
0.01208772
0.01205195
0.004301368
0.004298461
0.01207219
0.01205012
0.01208865
0.01205032
0.004301851
0.004298628
0.01207251
0.01204808
0.0120915
0.01204928
0.004302327
0.004298833
0.0120742
0.01204686
0.01209409
0.0120486
0.00430282
0.004299065
0.01207497
0.01204594
0.01209725
0.01204811
0.004303353
0.004299329
0.0120756
0.01204541
0.01210054
0.01204776
0.004303921
0.004299626
0.01207658
0.01204498
0.01210344
0.0120475
0.004304515
0.004299939
0.01207764
0.01204462
0.01210677
0.01204733
0.004305116
0.004300283
0.01207766
0.01204439
0.01210996
0.01204721
0.004305735
0.004300668
0.01207774
0.0120442
0.01211294
0.01204711
0.004306376
0.004301096
0.01207846
0.01204402
0.01211574
0.01204702
0.004307047
0.00430156
0.01207982
0.0120438
0.0121187
0.01204692
0.004307736
0.004302057
0.01208115
0.01204363
0.01212181
0.01204681
0.004308436
0.004302526
0.01208259
0.01204344
0.01212443
0.0120467
0.00430906
0.004302573
0.01208459
0.01204322
0.01212714
0.0120466
0.004308955
0.01202979
0.01208688
0.01204305
0.01212933
0.01204651
0.005949473
0.01209451
0.01205263
0.00601784
0.01221549
0.01206532
0.006018786
0.01207206
0.01205786
0.006019092
0.01215278
0.01205816
0.006018701
0.01206617
0.01205678
0.00601867
0.01213823
0.01205461
0.006018383
0.01206799
0.01205361
0.006018522
0.01207285
0.01205443
0.006018674
0.01216727
0.01205695
0.006018881
0.01206685
0.01205443
0.006018942
0.01213276
0.01205522
0.006018546
0.01206625
0.01205603
0.006018778
0.01215779
0.01205777
0.006019066
0.01207111
0.01205763
0.006018564
0.01221494
0.01206523
0.005949438
0.0120955
0.01205263
0.006737881
0.01208051
0.01205015
0.004159316
0.006046569
0.01203751
0.01203807
0.004132161
0.004295132
0.006046234
0.01203782
0.01203729
0.004300011
0.00430183
0.006044428
0.01203741
0.01203735
0.004302463
0.004301387
0.006042076
0.0120374
0.01203726
0.004301782
0.004300362
0.006039788
0.01203732
0.01203722
0.004300657
0.004299048
0.01203726
0.004299208
0.01205729
0.01225074
0.01206821
0.004129908
0.004290733
0.01206775
0.01206737
0.01206795
0.004295745
0.004298052
0.01206536
0.01206922
0.0120644
0.004299589
0.004298367
0.01206194
0.01207252
0.01206138
0.004299936
0.004298313
0.01205961
0.01207912
0.0120587
0.004300084
0.004298263
0.01205706
0.01208795
0.01205637
0.004300378
0.00429823
0.01205315
0.01208774
0.01205195
0.004300971
0.004298343
0.01205013
0.01208865
0.01205032
0.00430138
0.004298472
0.01204808
0.01209151
0.01204929
0.004301863
0.004298637
0.01204686
0.01209408
0.0120486
0.004302338
0.004298842
0.01204594
0.01209724
0.01204811
0.004302831
0.004299075
0.01204542
0.01210053
0.01204776
0.004303365
0.004299339
0.01204498
0.01210342
0.0120475
0.004303933
0.004299636
0.01204463
0.01210677
0.01204733
0.004304528
0.004299948
0.0120444
0.01210995
0.01204721
0.004305128
0.004300293
0.01204421
0.01211294
0.01204711
0.004305748
0.004300678
0.01204402
0.01211575
0.01204702
0.00430639
0.004301107
0.01204381
0.01211871
0.01204692
0.004307062
0.004301574
0.01204364
0.01212184
0.01204681
0.004307731
0.004302035
0.01204345
0.01212445
0.0120467
0.004308426
0.004302536
0.01204323
0.01212722
0.0120466
0.004309052
0.00430258
0.01204306
0.0121294
0.01204652
0.004308957
0.01202978
0.01205627
0.008696819
0.004132171
0.00429514
0.005960017
0.006046557
0.01203751
0.01203808
0.004300004
0.004301825
0.006048162
0.006046226
0.01203782
0.01203729
0.004302477
0.004301394
0.006046256
0.00604444
0.01203741
0.01203735
0.004301764
0.004300354
0.006044213
0.006042077
0.0120374
0.01203726
0.004300678
0.004299049
0.006041785
0.00603977
0.01203732
0.01203722
0.004299189
0.006039359
0.01203726
0.01207744
0.008813
0.01205591
0.008824185
0.01205874
0.00883738
0.0120658
0.008841515
0.01205693
0.008843062
0.0120575
0.008843074
0.0120555
0.008847192
0.01205447
0.008843432
0.01205183
0.008850758
0.01205271
0.008844343
0.01204547
0.008854052
0.01205224
0.008844922
0.01204484
0.008856022
0.01205231
0.008844398
0.01204472
0.008857288
0.01205167
0.008843353
0.01204414
0.008859546
0.01205104
0.008841922
0.0120439
0.008862558
0.01204885
0.008841286
0.01204415
0.008865231
0.01204753
0.008841382
0.01204479
0.008867431
0.01204722
0.008841927
0.01204519
0.008869611
0.01204737
0.008842786
0.01204522
0.008871667
0.01204762
0.008844133
0.01204516
0.00887372
0.01204799
0.008845619
0.01204517
0.008875541
0.01204854
0.008847456
0.01204528
0.008877148
0.01204919
0.008849736
0.01204544
0.008878596
0.01204987
0.00885219
0.01204569
0.008880073
0.01205058
0.00885493
0.01204598
0.008881944
0.01205137
0.008857819
0.01204638
0.008884464
0.01205214
0.008860881
0.01204684
0.00888757
0.0120527
0.008864141
0.01204737
0.008890935
0.01205296
0.008866878
0.01204669
0.0120293
0.01208626
0.01208178
0.01211001
0.01210998
0.01211635
0.01209702
0.01211227
0.01209929
0.0121147
0.01211048
0.01210634
0.01210388
0.01206458
0.01206391
0.01202473
0.01205445
0.01205522
0.01208622
0.01205451
0.004300622
0.004298261
0.01207133
0.008846033
0.01204703
0.008523442
0.0120545
0.008798835
0.01208468
0.008491181
0.01202399
0.01205039
0.01207798
0.008836063
0.01205932
0.008818773
0.01206054
0.00884253
0.01205672
0.008843499
0.01205589
0.008843181
0.01205585
0.008846369
0.01205306
0.008844094
0.01205497
0.008849406
0.01205165
0.008844835
0.0120474
0.008853753
0.01205136
0.008844602
0.01204489
0.00885632
0.012052
0.008843312
0.01204498
0.008856976
0.01205117
0.008841783
0.01204421
0.00885874
0.01205043
0.008841045
0.01204495
0.008861277
0.01204813
0.008840502
0.0120445
0.008864382
0.01204738
0.008840737
0.01204468
0.008866628
0.01204717
0.008841311
0.01204476
0.008868729
0.01204726
0.008842426
0.01204477
0.008870727
0.01204737
0.008843609
0.01204471
0.008872656
0.01204761
0.008845202
0.01204481
0.008874371
0.01204807
0.008847098
0.01204504
0.008875733
0.01204846
0.008849486
0.01204533
0.008877036
0.01204882
0.00885219
0.01204565
0.008878368
0.0120493
0.008855196
0.01204601
0.008879821
0.01204985
0.008858254
0.01204648
0.008881642
0.01205033
0.008861431
0.01204701
0.008884051
0.01205068
0.008864685
0.01204747
0.008886914
0.0120509
0.008864562
0.01217984
0.008888947
0.01204763
0.01206495
0.01206434
0.01210007
0.01210312
0.01211475
0.01211516
0.01210251
0.01211491
0.01211952
0.01211472
0.01211072
0.01210716
0.01208598
0.01208613
0.01204729
0.01202852
0.01205313
0.008697385
0.01207109
0.008846347
0.01204704
0.008524342
0.0120544
0.008798212
0.01208487
0.008491039
0.01203761
0.008858098
0.01203284
0.00886503
0.01203188
0.008874496
0.01203781
0.008869913
0.01203595
0.008878382
0.01203111
0.008870726
0.01203158
0.008871419
0.01203589
0.008873078
0.01203583
0.008874439
0.01203128
0.00886634
0.0120316
0.008866828
0.01203575
0.00886859
0.01203567
0.008869777
0.01203127
0.008861666
0.01203154
0.008861915
0.01203554
0.008863817
0.01203558
0.008864688
0.01203122
0.008856832
0.01203551
0.008859723
0.01203229
0.01207737
0.008812823
0.01205598
0.008824109
0.01207794
0.008836092
0.01205933
0.008818702
0.01205875
0.008837403
0.01206571
0.008841523
0.01206054
0.00884262
0.01205672
0.008843461
0.01205694
0.008843126
0.01205742
0.008843124
0.01205588
0.008843223
0.01205585
0.008846419
0.0120555
0.008847227
0.01205435
0.008843464
0.01205306
0.008844125
0.01205498
0.008849451
0.01205183
0.008850783
0.01205257
0.008844366
0.01205165
0.008844859
0.01204741
0.008853785
0.01204548
0.008854066
0.01205206
0.00884494
0.01205136
0.008844622
0.0120449
0.008856348
0.01204472
0.008856476
0.01205166
0.008843381
0.01205117
0.008841821
0.01204422
0.008858784
0.01204414
0.008859558
0.01205075
0.008841954
0.01205043
0.008841072
0.01204495
0.008861313
0.0120439
0.008862567
0.01204852
0.008841315
0.01204815
0.008840539
0.01204451
0.008864412
0.01204415
0.008865234
0.01204718
0.008841412
0.01204739
0.008840752
0.01204468
0.008866654
0.01204478
0.008867422
0.01204683
0.00884195
0.01204717
0.008841339
0.01204476
0.008868762
0.01204518
0.008869613
0.01204695
0.008842808
0.01204727
0.008842438
0.01204477
0.008870755
0.01204521
0.008871665
0.01204716
0.008844166
0.01204738
0.00884364
0.01204471
0.008872694
0.01204515
0.008873721
0.0120475
0.008845645
0.01204761
0.008845222
0.01204481
0.008874397
0.01204861
0.008847131
0.01204505
0.008875788
0.01204528
0.008877163
0.01204863
0.008849763
0.01204847
0.008849514
0.01204533
0.008877067
0.01204543
0.008878608
0.01204928
0.008852223
0.01204883
0.008852217
0.01204566
0.008878426
0.01204568
0.008880124
0.01204997
0.008854952
0.01204931
0.008855217
0.01204602
0.008879859
0.01204597
0.008881963
0.01205072
0.008857847
0.01204985
0.008858281
0.01204648
0.00888168
0.01204637
0.008884519
0.01205146
0.008860913
0.01205034
0.008861483
0.01204701
0.008884105
0.01204683
0.008887648
0.01205197
0.008864232
0.01205068
0.008864671
0.01204747
0.008887019
0.01204735
0.008891016
0.0120522
0.008866817
0.0120509
0.01207245
0.008888949
0.01204779
0.006809808
0.00745651
0.008857849
0.01203285
0.01203644
0.008864961
0.01203598
0.008878219
0.01203232
0.008870705
0.01203585
0.008874267
0.01203245
0.008866284
0.0120357
0.008869678
0.01203242
0.008861626
0.0120356
0.008864628
0.01203234
0.00885679
0.01203551
0.008859624
0.01203229
0.008851815
0.01213623
0.008410095
0.01212579
0.008382233
0.01216965
0.008434255
0.01221512
0.008396374
0.01216997
0.008453119
0.01213137
0.008416584
0.01214869
0.008466739
0.01207597
0.008435037
0.01212076
0.008476537
0.01206361
0.008449179
0.01209368
0.008479812
0.01206566
0.008456892
0.01207126
0.008481486
0.01206791
0.008462991
0.01206267
0.008482985
0.01206942
0.008468364
0.01205998
0.008485
0.01207033
0.008473135
0.01205621
0.00848663
0.01207113
0.008477013
0.0120571
0.008487817
0.01207713
0.008479056
0.01205915
0.00848934
0.01208197
0.008481206
0.01206057
0.008490878
0.01208752
0.008483347
0.01206313
0.008492545
0.01209285
0.008485379
0.01206681
0.00849413
0.01210045
0.00848761
0.01207283
0.00849537
0.01210935
0.008489242
0.01207965
0.008496679
0.01211862
0.008490532
0.01208722
0.00849802
0.01212831
0.008491868
0.01209516
0.008499457
0.01213883
0.008493237
0.01210358
0.008500983
0.01214965
0.008494685
0.01211185
0.008502613
0.01215992
0.008496228
0.01212062
0.008504356
0.01217082
0.008497882
0.01212945
0.008506213
0.0121829
0.008499597
0.007230611
0.007250619
0.007222062
0.007235915
0.007234654
0.007229945
0.007222349
0.007257416
0.007226753
0.00724424
0.007253892
0.007207905
0.007243537
0.007212447
0.007169625
0.00718695
0.007250571
0.007269398
0.007911068
0.007966881
0.007920557
0.007959978
0.01228188
0.008411907
0.01214811
0.00842278
0.007281479
0.007258384
0.01221569
0.008395884
0.01217369
0.008422566
0.01216206
0.008410839
0.01216732
0.008441373
0.01210716
0.008430837
0.01215246
0.008461898
0.01206062
0.008445896
0.01212613
0.008473678
0.01205526
0.008455048
0.01209974
0.008479846
0.01205927
0.008461049
0.0120766
0.008481562
0.01206069
0.008466597
0.01206869
0.008482441
0.01206076
0.008471274
0.01206738
0.008483877
0.01205947
0.008476012
0.01206362
0.008485859
0.01206443
0.008478039
0.01206353
0.008486626
0.01206753
0.00848023
0.01206405
0.00848796
0.01207115
0.008482491
0.01206593
0.008489431
0.0120749
0.008484533
0.01206869
0.008490979
0.01207909
0.008486779
0.01207273
0.008492769
0.01208672
0.008488652
0.01207875
0.008494004
0.01209461
0.008489939
0.01208468
0.008495257
0.01210333
0.008491328
0.01209096
0.008496519
0.01211206
0.008492752
0.01209771
0.008497901
0.01212092
0.008494285
0.01210481
0.008499365
0.01212851
0.008495904
0.01211272
0.008500926
0.01213594
0.008497616
0.01212204
0.008502613
0.01214466
0.008499413
0.01213271
0.008504426
0.01215397
0.008500505
0.008505837
0.01214419
0.007213267
0.007233585
0.007218126
0.007163294
0.007181964
0.007218013
0.007258961
0.007241674
0.007243905
0.007182636
0.007256203
0.007254605
0.007258159
0.007228613
0.007216121
0.007243257
0.006851394
0.007506009
0.007924718
0.007970461
0.007968085
0.007927428
0.00791551
0.007960554
0.007917222
0.007958899
0.007915098
0.007960585
0.007958322
0.007917704
0.0120315
0.008857487
0.01203544
0.00885893
0.007911753
0.007957146
0.007954924
0.00791436
0.01213639
0.008409725
0.008381949
0.01212615
0.01221615
0.008395911
0.01217372
0.008422699
0.01204516
0.008875538
0.012048
0.00884749
0.01212856
0.008495848
0.01211274
0.008500871
0.01211183
0.00850256
0.008496182
0.01215918
0.01214469
0.008499372
0.01213277
0.008504385
0.01212947
0.008506191
0.00849958
0.01218213
0.01215396
0.008500463
0.008505829
0.01214429
0.007347711
0.007817283
0.007684514
0.007631817
0.01209803
0.008400913
0.01221276
0.008427451
0.007073682
0.007189315
0.01203185
0.008874459
0.01203781
0.00886986
0.01203158
0.008871322
0.01203588
0.008873101
0.0120316
0.008866782
0.01203575
0.008868537
0.01203154
0.008861873
0.01203553
0.008863779
0.0120315
0.008857019
0.01203542
0.008858815
0.01216249
0.008387019
0.012164
0.008423885
0.01219786
0.008400318