/*--------------------------------*- C++ -*----------------------------------*\
  =========                 |
  \\      /  F ield         | OpenFOAM: The Open Source CFD Toolbox
   \\    /   O peration     | Website:  https://openfoam.org
    \\  /    A nd           | Version:  7
     \\/     M anipulation  |
\*---------------------------------------------------------------------------*/
FoamFile
{
    version     2.0;
    format      ascii;
    class       volScalarField;
    location    "0.02";
    object      k;
}
// * * * * * * * * * * * * * * * * * * * * * * * * * * * * * * * * * * * * * //

dimensions      [0 2 -2 0 0 0 0];

internalField   nonuniform List<scalar> 
109978
(
0.003746852
0.003747473
0.003747147
0.003746931
0.003746698
0.003746465
0.00374678
0.003747668
0.003747254
0.003747009
0.003746753
0.003746499
0.003746766
0.003747714
0.003747283
0.003747029
0.00374677
0.003746514
0.003746798
0.003747735
0.003747311
0.003747054
0.003746793
0.003746537
0.003746864
0.00374776
0.003747337
0.003747081
0.00374682
0.003746564
0.003746943
0.003747793
0.003747371
0.003747113
0.003746853
0.003746597
0.003747018
0.003747834
0.003747414
0.003747154
0.003746893
0.003746637
0.003747121
0.003747885
0.003747465
0.003747202
0.00374694
0.003746684
0.003747234
0.003747951
0.003747524
0.003747258
0.003746995
0.003746738
0.003747341
0.003748022
0.003747588
0.00374732
0.003747056
0.003746798
0.003747442
0.003748099
0.003747659
0.003747389
0.003747123
0.003746865
0.003747543
0.003748184
0.003747735
0.003747464
0.003747198
0.003746939
0.003747648
0.003748278
0.003747819
0.003747547
0.00374728
0.003747019
0.003747755
0.003748369
0.003747911
0.003747637
0.003747369
0.003747107
0.003747864
0.003748468
0.00374801
0.003747735
0.003747464
0.0037472
0.003747978
0.003748572
0.003748116
0.003747839
0.003747566
0.003747301
0.003748096
0.003748685
0.003748229
0.00374795
0.003747675
0.003747407
0.003748222
0.003748805
0.003748349
0.003748067
0.003747791
0.003747521
0.003748355
0.003748933
0.003748477
0.003748193
0.003747913
0.00374764
0.003748492
0.003749068
0.003748613
0.003748325
0.003748042
0.003747767
0.003748639
0.00374921
0.003748756
0.003748465
0.003748179
0.0037479
0.003748792
0.003749361
0.003748908
0.003748613
0.003748323
0.00374804
0.003677844
0.003749529
0.003749069
0.00374877
0.003748475
0.003748188
0.003746692
0.003747414
0.003747051
0.003746808
0.003746552
0.0037463
0.003680275
0.003677421
0.003676853
0.003676844
0.003676835
0.003676836
0.003679424
0.003677038
0.00367687
0.00367684
0.003676833
0.003676835
0.003679184
0.003677009
0.00367687
0.00367684
0.003676836
0.003676837
0.003679132
0.003677036
0.00367687
0.003676842
0.003676839
0.00367684
0.003679125
0.003677064
0.003676867
0.003676845
0.003676842
0.003676843
0.003679255
0.003677058
0.003676865
0.003676848
0.003676845
0.003676846
0.003678978
0.003677025
0.003676864
0.003676851
0.003676848
0.003676849
0.003678566
0.003676994
0.003676863
0.003676854
0.003676851
0.003676852
0.003678572
0.003676968
0.003676865
0.003676857
0.003676855
0.003676855
0.003678603
0.003676959
0.003676868
0.00367686
0.003676858
0.003676858
0.003678635
0.003676955
0.003676871
0.003676863
0.003676861
0.003676861
0.003678672
0.003676955
0.003676874
0.003676866
0.003676864
0.003676864
0.003678712
0.003676955
0.003676877
0.00367687
0.003676868
0.003676867
0.003678739
0.003676956
0.00367688
0.003676873
0.003676871
0.003676871
0.003678773
0.003676958
0.003676884
0.003676876
0.003676874
0.003676874
0.003678823
0.003676961
0.003676887
0.00367688
0.003676878
0.003676877
0.003678869
0.003676965
0.003676891
0.003676883
0.003676881
0.003676881
0.003678915
0.00367697
0.003676895
0.003676887
0.003676884
0.003676884
0.003678954
0.003676975
0.003676899
0.003676891
0.003676888
0.003676888
0.003678996
0.00367698
0.003676903
0.003676895
0.003676892
0.003676891
0.00367903
0.003676988
0.003676907
0.003676898
0.003676895
0.003676895
0.003679068
0.003676997
0.003676911
0.003676902
0.003676899
0.003676899
0.003678645
0.003677008
0.003676916
0.003676906
0.003676903
0.003676903
0.003746635
0.003747727
0.003747285
0.003747029
0.003746762
0.003746502
0.003680095
0.003677134
0.003676865
0.003676831
0.003676829
0.003676831
0.00368041
0.003677008
0.003676854
0.003676842
0.003676829
0.003676831
0.003678656
0.003676999
0.003676849
0.003676845
0.003676832
0.003676834
0.003679204
0.003677014
0.003676844
0.003676853
0.003676835
0.003676837
0.003678876
0.003676991
0.003676846
0.003676853
0.003676837
0.00367684
0.003678761
0.00367697
0.003676848
0.003676853
0.00367684
0.003676843
0.003678668
0.003676949
0.003676851
0.003676853
0.003676843
0.003676845
0.0036786
0.003676933
0.003676854
0.003676853
0.003676846
0.003676848
0.00367854
0.00367693
0.003676856
0.003676856
0.003676849
0.003676851
0.00367857
0.003676928
0.003676859
0.003676858
0.003676853
0.003676854
0.003678591
0.003676926
0.003676862
0.003676861
0.003676856
0.003676857
0.003678594
0.003676927
0.003676866
0.003676864
0.003676859
0.00367686
0.003678581
0.003676929
0.003676869
0.003676867
0.003676862
0.003676863
0.003678575
0.003676932
0.003676873
0.00367687
0.003676866
0.003676866
0.003678573
0.003676935
0.003676876
0.003676874
0.003676869
0.00367687
0.003678571
0.003676938
0.00367688
0.003676878
0.003676872
0.003676873
0.003678582
0.003676942
0.003676883
0.003676881
0.003676876
0.003676876
0.003678591
0.003676945
0.003676887
0.003676885
0.003676879
0.00367688
0.0036786
0.003676948
0.003676891
0.003676888
0.003676883
0.003676883
0.003678609
0.003676952
0.003676895
0.003676892
0.003676886
0.003676887
0.003678622
0.003676956
0.003676899
0.003676895
0.00367689
0.003676891
0.003678641
0.00367696
0.003676903
0.003676899
0.003676893
0.003676895
0.003678664
0.003676964
0.003676907
0.003676904
0.003676897
0.003676899
0.003746386
0.003747805
0.00374734
0.003747036
0.003746766
0.0037465
0.003678685
0.003677061
0.003676867
0.003676827
0.003676827
0.00367683
0.003679151
0.003677196
0.003676837
0.003676856
0.003676829
0.003676832
0.003678679
0.003677016
0.003676842
0.003676841
0.003676833
0.003676834
0.003678488
0.003676951
0.003676841
0.003676841
0.003676835
0.003676837
0.003678459
0.00367693
0.003676843
0.003676841
0.003676838
0.003676839
0.003678458
0.003676922
0.003676845
0.003676843
0.003676841
0.003676842
0.00367848
0.003676916
0.003676848
0.003676847
0.003676844
0.003676844
0.003678509
0.003676916
0.00367685
0.00367685
0.003676847
0.003676847
0.003678499
0.003676921
0.003676853
0.003676853
0.00367685
0.00367685
0.00367855
0.003676925
0.003676856
0.003676857
0.003676853
0.003676853
0.003678547
0.00367693
0.003676859
0.00367686
0.003676856
0.003676856
0.003678543
0.003676931
0.003676863
0.003676863
0.003676859
0.00367686
0.003678552
0.003676928
0.003676866
0.003676866
0.003676862
0.003676863
0.003678576
0.003676929
0.003676869
0.003676869
0.003676866
0.003676866
0.003678611
0.003676932
0.003676872
0.003676872
0.003676869
0.003676869
0.003678624
0.003676934
0.003676876
0.003676876
0.003676872
0.003676873
0.003678629
0.003676937
0.003676879
0.003676879
0.003676875
0.003676876
0.003678631
0.003676941
0.003676883
0.003676882
0.003676878
0.003676879
0.003678639
0.003676944
0.003676886
0.003676886
0.003676882
0.003676883
0.003678653
0.003676948
0.00367689
0.00367689
0.003676886
0.003676887
0.003678671
0.003676952
0.003676894
0.003676894
0.003676889
0.00367689
0.003678695
0.003676956
0.003676897
0.003676898
0.003676892
0.003676894
0.003678726
0.003676959
0.003676901
0.003676901
0.003676896
0.003676898
0.003746364
0.003747825
0.003747356
0.003747069
0.003746783
0.003746507
0.003678594
0.003677051
0.003676868
0.003676827
0.003676827
0.003676829
0.003679809
0.003677187
0.003676835
0.003676861
0.003676828
0.003676832
0.003678649
0.003676955
0.003676844
0.00367684
0.003676833
0.003676834
0.003678436
0.003676912
0.003676841
0.003676841
0.003676835
0.003676837
0.003678405
0.003676909
0.003676843
0.003676843
0.003676838
0.00367684
0.003678416
0.003676909
0.003676845
0.003676846
0.00367684
0.003676843
0.003678448
0.003676911
0.003676847
0.003676848
0.003676843
0.003676845
0.003678479
0.003676911
0.00367685
0.003676851
0.003676846
0.003676848
0.003678481
0.003676916
0.003676853
0.003676855
0.00367685
0.003676851
0.00367854
0.003676914
0.003676856
0.003676858
0.003676853
0.003676854
0.003678542
0.003676917
0.003676859
0.003676861
0.003676856
0.003676857
0.003678577
0.003676926
0.003676863
0.003676865
0.00367686
0.00367686
0.003678625
0.003676934
0.003676866
0.003676869
0.003676863
0.003676863
0.003678634
0.00367694
0.00367687
0.003676873
0.003676866
0.003676867
0.003678663
0.003676943
0.003676874
0.003676876
0.003676869
0.00367687
0.003678675
0.003676946
0.003676877
0.003676879
0.003676872
0.003676873
0.003678677
0.003676949
0.00367688
0.003676882
0.003676876
0.003676877
0.003678679
0.003676951
0.003676883
0.003676886
0.003676879
0.00367688
0.003678681
0.003676953
0.003676887
0.003676889
0.003676883
0.003676883
0.003678693
0.003676956
0.00367689
0.003676892
0.003676886
0.003676887
0.00367871
0.003676958
0.003676893
0.003676895
0.003676889
0.003676891
0.003678735
0.00367696
0.003676897
0.003676898
0.003676893
0.003676894
0.003678766
0.003676963
0.0036769
0.003676902
0.003676896
0.003676898
0.003746372
0.003747822
0.003747338
0.003747052
0.003746771
0.003746499
0.003678838
0.003677051
0.003676868
0.003676827
0.003676827
0.003676829
0.003679317
0.003677187
0.003676835
0.003676861
0.003676828
0.003676832
0.003678913
0.003676955
0.003676844
0.00367684
0.003676833
0.003676834
0.003678431
0.003676912
0.003676841
0.003676841
0.003676835
0.003676837
0.003678398
0.003676909
0.003676843
0.003676843
0.003676838
0.00367684
0.003678412
0.003676909
0.003676845
0.003676846
0.00367684
0.003676843
0.003678449
0.003676911
0.003676848
0.003676848
0.003676843
0.003676845
0.003678484
0.003676911
0.00367685
0.003676851
0.003676846
0.003676848
0.003678485
0.003676916
0.003676854
0.003676855
0.00367685
0.003676851
0.003678546
0.003676914
0.003676857
0.003676858
0.003676853
0.003676854
0.003678539
0.003676918
0.003676859
0.003676861
0.003676856
0.003676857
0.00367856
0.003676926
0.003676863
0.003676865
0.00367686
0.00367686
0.003678631
0.003676934
0.003676866
0.003676869
0.003676863
0.003676863
0.003678717
0.00367694
0.00367687
0.003676873
0.003676866
0.003676867
0.003678735
0.003676943
0.003676874
0.003676876
0.003676869
0.00367687
0.003678742
0.003676946
0.003676877
0.003676879
0.003676873
0.003676873
0.003678738
0.003676949
0.00367688
0.003676882
0.003676876
0.003676877
0.003678736
0.003676951
0.003676883
0.003676886
0.003676879
0.00367688
0.003678734
0.003676953
0.003676887
0.003676889
0.003676883
0.003676883
0.003678742
0.003676955
0.00367689
0.003676892
0.003676886
0.003676887
0.003678758
0.003676958
0.003676894
0.003676895
0.003676889
0.003676891
0.003678779
0.00367696
0.003676897
0.003676898
0.003676893
0.003676894
0.003678807
0.003676963
0.003676901
0.003676902
0.003676896
0.003676898
0.003746491
0.003747817
0.003747319
0.00374704
0.003746761
0.003746492
0.003678591
0.00367706
0.003676867
0.003676827
0.003676827
0.00367683
0.003680715
0.003677196
0.003676836
0.003676856
0.003676829
0.003676832
0.003678523
0.003677016
0.003676842
0.003676841
0.003676833
0.003676834
0.003678448
0.003676951
0.003676841
0.003676841
0.003676835
0.003676837
0.003678437
0.00367693
0.003676843
0.003676841
0.003676838
0.003676839
0.00367843
0.003676922
0.003676846
0.003676844
0.003676841
0.003676842
0.003678462
0.003676916
0.003676848
0.003676847
0.003676844
0.003676844
0.0036785
0.003676916
0.00367685
0.00367685
0.003676847
0.003676847
0.003678488
0.003676921
0.003676854
0.003676854
0.00367685
0.00367685
0.003678537
0.003676925
0.003676857
0.003676857
0.003676853
0.003676853
0.003678537
0.00367693
0.00367686
0.00367686
0.003676856
0.003676856
0.003678559
0.003676931
0.003676863
0.003676863
0.003676859
0.00367686
0.003678583
0.003676928
0.003676866
0.003676866
0.003676862
0.003676863
0.003678619
0.003676929
0.003676869
0.003676869
0.003676866
0.003676866
0.003678651
0.003676932
0.003676873
0.003676873
0.003676869
0.003676869
0.003678665
0.003676934
0.003676876
0.003676876
0.003676872
0.003676873
0.003678669
0.003676937
0.00367688
0.003676879
0.003676875
0.003676876
0.003678672
0.003676941
0.003676883
0.003676883
0.003676879
0.003676879
0.003678676
0.003676944
0.003676887
0.003676886
0.003676882
0.003676883
0.003678688
0.003676948
0.003676891
0.00367689
0.003676886
0.003676887
0.003678705
0.003676952
0.003676894
0.003676894
0.003676889
0.00367689
0.00367873
0.003676955
0.003676898
0.003676898
0.003676893
0.003676894
0.003678763
0.003676959
0.003676902
0.003676901
0.003676896
0.003676898
0.003746598
0.003747767
0.003747285
0.003747027
0.003746756
0.003746492
0.003679285
0.003677133
0.003676866
0.003676831
0.003676829
0.003676831
0.003680353
0.003677007
0.003676855
0.003676841
0.003676829
0.003676831
0.00367941
0.003676999
0.003676849
0.003676844
0.003676832
0.003676834
0.003678667
0.003677013
0.003676845
0.003676853
0.003676834
0.003676837
0.003678524
0.00367699
0.003676847
0.003676852
0.003676837
0.00367684
0.003678497
0.003676969
0.003676849
0.003676853
0.00367684
0.003676843
0.00367848
0.003676949
0.003676852
0.003676853
0.003676843
0.003676845
0.003678493
0.003676932
0.003676855
0.003676853
0.003676846
0.003676848
0.003678502
0.003676929
0.003676857
0.003676856
0.00367685
0.003676851
0.003678561
0.003676928
0.00367686
0.003676858
0.003676853
0.003676854
0.00367857
0.003676926
0.003676863
0.003676861
0.003676856
0.003676857
0.003678571
0.003676927
0.003676867
0.003676864
0.003676859
0.00367686
0.003678569
0.003676929
0.00367687
0.003676867
0.003676862
0.003676863
0.003678591
0.003676932
0.003676874
0.00367687
0.003676866
0.003676866
0.00367861
0.003676935
0.003676877
0.003676874
0.003676869
0.00367687
0.003678614
0.003676938
0.003676881
0.003676878
0.003676873
0.003676873
0.003678617
0.003676941
0.003676885
0.003676881
0.003676876
0.003676876
0.003678619
0.003676944
0.003676888
0.003676885
0.003676879
0.00367688
0.00367863
0.003676948
0.003676892
0.003676888
0.003676883
0.003676883
0.003678643
0.003676952
0.003676896
0.003676892
0.003676886
0.003676887
0.003678661
0.003676956
0.0036769
0.003676895
0.00367689
0.003676891
0.003678684
0.003676959
0.003676904
0.003676899
0.003676893
0.003676895
0.003678715
0.003676963
0.003676909
0.003676904
0.003676897
0.003676899
0.003746653
0.003747659
0.003747191
0.003746987
0.003746701
0.003746443
0.003681111
0.003677419
0.003676853
0.003676844
0.003676835
0.003676836
0.003679737
0.003677035
0.00367687
0.00367684
0.003676833
0.003676835
0.003679316
0.003677006
0.00367687
0.003676839
0.003676836
0.003676837
0.003679187
0.003677033
0.00367687
0.003676841
0.003676839
0.00367684
0.003679083
0.003677062
0.003676867
0.003676844
0.003676842
0.003676843
0.003678981
0.003677056
0.003676865
0.003676847
0.003676845
0.003676846
0.003678843
0.003677023
0.003676864
0.003676851
0.003676848
0.003676849
0.003678661
0.003676993
0.003676863
0.003676854
0.003676851
0.003676852
0.003678565
0.003676967
0.003676865
0.003676857
0.003676855
0.003676855
0.003678589
0.003676958
0.003676868
0.00367686
0.003676858
0.003676858
0.003678586
0.003676954
0.003676871
0.003676863
0.003676861
0.003676861
0.003678577
0.003676954
0.003676874
0.003676866
0.003676864
0.003676864
0.003678578
0.003676954
0.003676877
0.003676869
0.003676867
0.003676867
0.003678572
0.003676955
0.00367688
0.003676873
0.003676871
0.003676871
0.003678584
0.003676957
0.003676884
0.003676876
0.003676874
0.003676874
0.003678594
0.00367696
0.003676887
0.00367688
0.003676878
0.003676877
0.003678607
0.003676964
0.003676891
0.003676883
0.003676881
0.003676881
0.003678619
0.003676969
0.003676895
0.003676887
0.003676884
0.003676884
0.00367863
0.003676974
0.003676899
0.003676891
0.003676888
0.003676888
0.00367864
0.003676979
0.003676903
0.003676894
0.003676892
0.003676891
0.003678651
0.003676986
0.003676907
0.003676898
0.003676895
0.003676895
0.003678667
0.003676996
0.003676911
0.003676902
0.003676899
0.003676899
0.003678645
0.003677006
0.003676915
0.003676906
0.003676902
0.003676902
0.003748686
0.003753402
0.003752075
0.003751198
0.003750125
0.003749124
0.003686095
0.00367733
0.003677216
0.003677163
0.003677163
0.003677147
0.003677137
0.003712224
0.003677896
0.003677207
0.003677151
0.00367715
0.003677134
0.003677125
0.003696817
0.003677939
0.003677226
0.00367716
0.003677162
0.003677143
0.003677134
0.003690416
0.003677907
0.003677238
0.003677171
0.003677172
0.003677153
0.003677144
0.003686392
0.003677853
0.003677249
0.003677182
0.003677182
0.003677164
0.003677154
0.003684204
0.003677812
0.003677258
0.003677192
0.003677191
0.003677174
0.003677163
0.003683254
0.003677767
0.003677266
0.003677201
0.003677199
0.003677184
0.003677172
0.003683178
0.00367774
0.003677276
0.003677212
0.003677207
0.003677192
0.00367718
0.003683
0.003677723
0.003677287
0.003677223
0.003677216
0.003677201
0.003677189
0.003683069
0.003677711
0.003677297
0.003677234
0.003677226
0.00367721
0.003677198
0.003683436
0.003677684
0.003677309
0.003677244
0.003677236
0.00367722
0.003677209
0.003683602
0.00367766
0.003677322
0.003677255
0.003677246
0.003677231
0.003677219
0.003683738
0.003677643
0.003677335
0.003677267
0.003677257
0.003677241
0.003677229
0.003683952
0.00367764
0.003677348
0.003677278
0.003677268
0.003677252
0.00367724
0.00368419
0.003677641
0.003677361
0.003677289
0.003677279
0.003677263
0.00367725
0.003684185
0.003677639
0.003677374
0.003677301
0.003677291
0.003677274
0.003677261
0.003684206
0.003677639
0.003677387
0.003677313
0.003677302
0.003677285
0.003677272
0.003684355
0.003677644
0.0036774
0.003677324
0.003677314
0.003677296
0.003677282
0.003684651
0.003677649
0.003677413
0.003677336
0.003677326
0.003677307
0.003677293
0.003684934
0.003677654
0.003677427
0.003677348
0.003677338
0.003677319
0.003677304
0.003685245
0.003677662
0.003677441
0.00367736
0.00367735
0.003677331
0.003677315
0.003685679
0.003677672
0.003677455
0.003677372
0.003677362
0.003677342
0.003677326
0.003686174
0.003748424
0.003677469
0.003677384
0.003677374
0.003677354
0.003677338
0.003748652
0.003753539
0.003684496
0.003679701
0.003746847
0.003746666
0.003686047
0.003681181
0.003721853
0.003683513
0.003747126
0.003746347
0.003712221
0.003683414
0.003681892
0.003683455
0.003747211
0.003746279
0.003696797
0.003682909
0.003682296
0.003682704
0.003747226
0.003746195
0.003690389
0.003682183
0.003683021
0.003682068
0.003747298
0.003746147
0.003686361
0.003681693
0.003684484
0.003681501
0.003747451
0.003746111
0.003684169
0.003681158
0.003686443
0.00368101
0.0037476
0.003746124
0.003683218
0.003680773
0.003686032
0.003680621
0.00374781
0.003746185
0.003683141
0.003680302
0.003686357
0.003680074
0.003748074
0.003746267
0.003682961
0.003679682
0.003686569
0.003679725
0.003748375
0.003746372
0.003683027
0.003679245
0.003687198
0.003679501
0.003748671
0.003746501
0.00368339
0.003678982
0.003687768
0.003679352
0.003748977
0.003746647
0.003683556
0.003678784
0.003688462
0.003679243
0.003749306
0.003746812
0.003683687
0.00367867
0.003689182
0.003679167
0.003749657
0.003746998
0.003683898
0.003678575
0.003689814
0.003679106
0.003750026
0.003747194
0.003684124
0.003678495
0.003690545
0.003679067
0.003750398
0.003747409
0.003684121
0.003678444
0.003691243
0.003679039
0.003750781
0.003747649
0.003684132
0.003678401
0.003691894
0.003679016
0.003751177
0.003747917
0.003684282
0.003678359
0.003692501
0.003678992
0.003751592
0.003748209
0.003684574
0.00367831
0.003693143
0.003678968
0.003752021
0.003748527
0.003684856
0.003678271
0.003693816
0.00367894
0.003752466
0.00374887
0.003685165
0.003678225
0.003694383
0.003678913
0.003752929
0.00374924
0.003685595
0.003678176
0.003694967
0.003678889
0.003753411
0.003678921
0.00368609
0.003678136
0.003695435
0.003678866
0.00374821
0.003688044
0.003680227
0.003748513
0.00371433
0.003682874
0.003748794
0.0036829
0.003681327
0.003748509
0.003700756
0.003681396
0.003748383
0.003681662
0.0036811
0.00374835
0.003697433
0.003680657
0.003748315
0.003682055
0.003680435
0.003748237
0.003683095
0.003680598
0.003748314
0.003703708
0.003681124
0.003748406
0.00368181
0.003680604
0.00374853
0.003696391
0.003680772
0.00374848
0.003681678
0.003680942
0.003748467
0.00370185
0.003681312
0.003748742
0.003682691
0.003681278
0.003748642
0.003714227
0.003682854
0.003748176
0.003688246
0.003680226
0.003753595
0.003684476
0.003679695
0.003748657
0.003753028
0.003677028
0.003677179
0.00374828
0.003749363
0.003752051
0.003677129
0.00367702
0.003749762
0.003748672
0.003751284
0.003677045
0.003677034
0.003748978
0.003748143
0.003750239
0.003677045
0.003677016
0.003748369
0.003747466
0.003749255
0.003677029
0.003677011
0.003747698
0.003746828
0.003677019
0.003747063
0.003681184
0.00372186
0.003683516
0.003746844
0.003746667
0.003683414
0.003681895
0.003683456
0.003747126
0.003746347
0.003682908
0.003682297
0.003682704
0.003747211
0.003746279
0.003682182
0.003683022
0.003682068
0.003747225
0.003746194
0.003681693
0.003684485
0.003681501
0.003747298
0.003746146
0.003681158
0.003686443
0.00368101
0.00374745
0.003746111
0.003680321
0.00368636
0.003680075
0.003747813
0.003746184
0.003679683
0.003686569
0.003679725
0.003748074
0.003746266
0.003679245
0.003687199
0.003679502
0.003748375
0.00374637
0.003678984
0.003687766
0.003679351
0.00374867
0.003746499
0.003678784
0.003688461
0.003679243
0.003748976
0.003746645
0.003678671
0.00368918
0.003679167
0.003749306
0.003746811
0.003678575
0.003689812
0.003679107
0.003749658
0.003746997
0.003678496
0.003690546
0.003679067
0.003750026
0.003747192
0.003678444
0.003691242
0.003679039
0.003750398
0.003747408
0.003678402
0.003691894
0.003679016
0.003750781
0.003747648
0.003678359
0.003692502
0.003678993
0.003751177
0.003747915
0.00367831
0.003693144
0.003678968
0.003751593
0.003748207
0.00367827
0.003693824
0.003678941
0.003752022
0.003748526
0.003678226
0.003694388
0.003678913
0.003752467
0.003748869
0.003678176
0.003694985
0.003678888
0.003752931
0.003749241
0.003678137
0.003695452
0.003678868
0.003753415
0.003678921
0.003689153
0.003750741
0.003748278
0.003749363
0.003748657
0.003753028
0.003677028
0.003677179
0.003749761
0.00374867
0.003753411
0.00375205
0.003677129
0.003677019
0.003748977
0.003748142
0.003752081
0.003751284
0.003677045
0.003677034
0.003748368
0.003747466
0.003751202
0.003750239
0.003677046
0.003677016
0.003747698
0.003746829
0.003750126
0.003749255
0.003677029
0.003677011
0.003747063
0.003749122
0.00367702
0.003685242
0.003742973
0.003680554
0.003742132
0.003681105
0.003744679
0.003682659
0.003745823
0.003680672
0.00374614
0.003680861
0.003746197
0.00368035
0.003747376
0.003680201
0.003746284
0.003679535
0.003748477
0.003679838
0.003746577
0.003678164
0.003749491
0.003679744
0.003746773
0.00367805
0.003750091
0.003679747
0.003746615
0.003678067
0.00375046
0.003679631
0.00374628
0.003677977
0.003751132
0.003679526
0.003745821
0.003677914
0.003752034
0.003679046
0.003745613
0.003677957
0.003752832
0.003678732
0.003745636
0.003678096
0.003753486
0.003678646
0.0037458
0.003678182
0.003754134
0.003678667
0.003746059
0.003678181
0.003754747
0.003678706
0.003746467
0.003678156
0.003755358
0.003678773
0.003746915
0.003678142
0.003755902
0.003678871
0.003747472
0.003678148
0.003756379
0.003678987
0.003748168
0.003678161
0.003756809
0.003679112
0.003748916
0.003678195
0.003757248
0.003679243
0.003749749
0.003678238
0.00375781
0.003679395
0.003750626
0.003678302
0.003758567
0.003679545
0.003751553
0.003678384
0.003759506
0.003679648
0.003752551
0.003678479
0.003760578
0.003679686
0.003753597
0.003686725
0.003681862
0.003694267
0.003694161
0.003700163
0.003700802
0.003702052
0.003697868
0.003700904
0.003698251
0.003701507
0.003700502
0.003700264
0.003698108
0.00369015
0.003689764
0.003681207
0.003689307
0.003680773
0.003686031
0.003680622
0.003747601
0.003746124
0.003684915
0.003755584
0.00368027
0.00374819
0.003680133
0.00374138
0.003686785
0.003738007
0.003681318
0.003688324
0.003685353
0.003744375
0.003681338
0.003739891
0.003681527
0.003746077
0.003680634
0.003746372
0.003680522
0.003746231
0.003680443
0.003747156
0.003679917
0.003746507
0.003680244
0.003748068
0.003679622
0.003746751
0.003678586
0.003749418
0.003679556
0.003746685
0.003678061
0.003750204
0.003679708
0.003746274
0.003678111
0.003750387
0.003679558
0.003745793
0.003678
0.003750908
0.003679418
0.003745549
0.003678172
0.003751665
0.003678901
0.003745376
0.003678057
0.003752604
0.003678717
0.003745445
0.003678094
0.003753279
0.003678659
0.003745618
0.003678112
0.003753903
0.003678671
0.003745956
0.00367811
0.003754493
0.003678683
0.003746315
0.00367809
0.003755061
0.003678719
0.003746802
0.003678097
0.003755566
0.003678799
0.00374738
0.003678128
0.003755964
0.003678861
0.003748107
0.003678171
0.003756345
0.003678916
0.003748929
0.003678217
0.003756736
0.003678997
0.003749841
0.003678272
0.003757168
0.003679097
0.003750768
0.003678352
0.003757713
0.003679187
0.003751734
0.003678448
0.003758438
0.003679247
0.00375276
0.003678531
0.003759313
0.003679281
0.003753845
0.003706201
0.003760264
0.003678559
0.003690288
0.00368918
0.003698976
0.003698429
0.003702061
0.003702039
0.003698485
0.003702398
0.003702565
0.003702025
0.003699814
0.003699713
0.003694224
0.003695642
0.00368679
0.003681817
0.003688746
0.003750947
0.003684847
0.00375559
0.003680273
0.003748328
0.003680126
0.003741332
0.003686829
0.003738146
0.003678101
0.003756379
0.003677902
0.003754285
0.003677787
0.003755745
0.003678114
0.003755295
0.003677878
0.003756913
0.003677855
0.003754448
0.00367783
0.003754581
0.003677797
0.003755198
0.003677845
0.003755542
0.003677888
0.003753059
0.00367781
0.003753199
0.003677756
0.003753776
0.003677804
0.003754133
0.00367786
0.003751645
0.003677767
0.003751712
0.003677707
0.003752328
0.003677768
0.003752595
0.003677816
0.003750188
0.003677737
0.003751103
0.00367795
0.003685226
0.003742977
0.00368057
0.003742126
0.003685346
0.003744372
0.003681339
0.003739889
0.003681107
0.003744671
0.003682641
0.00374582
0.003681527
0.003746075
0.003680636
0.003746369
0.003680672
0.003746134
0.003680847
0.003746195
0.003680521
0.003746231
0.003680444
0.003747156
0.003680351
0.003747374
0.003680181
0.003746283
0.003679917
0.003746506
0.003680246
0.003748071
0.003679537
0.003748475
0.003679814
0.003746576
0.003679622
0.003746749
0.003678589
0.003749419
0.003678165
0.003749487
0.003679714
0.003746771
0.003679555
0.003746683
0.003678063
0.003750204
0.003678068
0.003750458
0.003679629
0.00374628
0.003679558
0.003745796
0.003678001
0.003750913
0.003677977
0.003751128
0.003679478
0.003745822
0.003679419
0.003745549
0.003678172
0.003751667
0.003677913
0.003752029
0.003678991
0.003745615
0.003678903
0.003745378
0.003678058
0.003752606
0.003677957
0.003752824
0.003678675
0.003745637
0.003678718
0.003745442
0.003678094
0.003753278
0.003678094
0.003753476
0.003678581
0.0037458
0.00367866
0.003745618
0.003678113
0.003753905
0.003678181
0.003754126
0.003678597
0.003746057
0.003678672
0.003745951
0.00367811
0.003754492
0.00367818
0.003754737
0.00367863
0.003746468
0.003678684
0.003746317
0.003678091
0.003755064
0.003678155
0.003755352
0.003678693
0.003746916
0.00367872
0.0037468
0.003678097
0.003755566
0.003678887
0.003747382
0.00367813
0.003755972
0.003678147
0.003756376
0.003678896
0.003748169
0.003678863
0.003748107
0.003678171
0.003756346
0.00367816
0.003756804
0.003679015
0.003748917
0.003678918
0.003748928
0.003678218
0.003756745
0.003678194
0.003757256
0.003679143
0.003749747
0.003679
0.003749839
0.003678273
0.00375717
0.003678236
0.003757808
0.003679288
0.003750626
0.003679099
0.003750767
0.003678353
0.003757716
0.0036783
0.003758576
0.003679435
0.003751554
0.003679189
0.003751736
0.003678449
0.003758444
0.003678381
0.003759517
0.003679529
0.003752558
0.003679248
0.003752768
0.003678532
0.00375932
0.003678476
0.003760598
0.003679563
0.003753607
0.003679282
0.003685672
0.003760273
0.003678582
0.003723185
0.003743323
0.003756369
0.003677901
0.003677917
0.003754284
0.003677882
0.003756879
0.003678044
0.003754448
0.003677849
0.003755516
0.003678074
0.003753059
0.003677808
0.003754116
0.003678041
0.003751644
0.003677772
0.003752588
0.003677993
0.003750189
0.003677737
0.003751101
0.00367795
0.003748766
0.003712357
0.003724278
0.003711786
0.00371526
0.003717616
0.003731897
0.003729195
0.003719767
0.003715661
0.003737672
0.003709327
0.003726057
0.003709188
0.003741844
0.003693346
0.00373178
0.00370145
0.003744835
0.003687677
0.003736164
0.003695132
0.003745812
0.003687342
0.003738552
0.00369032
0.003746297
0.003688323
0.003740439
0.003688703
0.003746738
0.003689246
0.003742099
0.003688555
0.003747344
0.003689873
0.003743572
0.003688371
0.003747837
0.00369003
0.003744767
0.003689045
0.003748195
0.003691432
0.003745395
0.003689763
0.003748654
0.003692616
0.003746055
0.003690231
0.003749119
0.003693936
0.003746711
0.003690758
0.003749622
0.0036952
0.003747334
0.003691469
0.003750101
0.003697005
0.003748017
0.003692761
0.003750476
0.003699119
0.003748516
0.003694245
0.003750872
0.003701318
0.003748909
0.003695864
0.003751277
0.003703607
0.003749316
0.003697556
0.003751711
0.003706083
0.003749733
0.003699353
0.003752173
0.003708612
0.003750173
0.003701112
0.003752666
0.003710987
0.003750643
0.003702971
0.003753195
0.00371347
0.003751147
0.003704829
0.003753764
0.0037162
0.003751677
0.003743531
0.003739031
0.003742291
0.003736888
0.003744159
0.003742531
0.003739733
0.003749191
0.003744504
0.003738786
0.003747402
0.00374105
0.003744366
0.003735689
0.003736891
0.00374379
0.003747778
0.003746686
0.003749048
0.00374914
0.003749227
0.003748699
0.003743086
0.003724593
0.00371658
0.003728541
0.003747949
0.003737801
0.003730188
0.003719662
0.003719319
0.003728274
0.003717125
0.003724314
0.003715555
0.003734042
0.003702187
0.003730516
0.003710271
0.00374034
0.003688835
0.003735186
0.003702739
0.003743945
0.003685842
0.003738021
0.003696428
0.003745818
0.003686616
0.003739878
0.003691282
0.003746309
0.003687272
0.003741592
0.003689944
0.003746549
0.003687578
0.003743035
0.003690125
0.003746973
0.003687379
0.003744496
0.003689861
0.00374757
0.003688584
0.003745118
0.003690386
0.003747799