/*--------------------------------*- C++ -*----------------------------------*\
  =========                 |
  \\      /  F ield         | OpenFOAM: The Open Source CFD Toolbox
   \\    /   O peration     | Website:  https://openfoam.org
    \\  /    A nd           | Version:  7
     \\/     M anipulation  |
\*---------------------------------------------------------------------------*/
FoamFile
{
    version     2.0;
    format      ascii;
    class       volScalarField;
    location    "0.02";
    object      nut;
}
// * * * * * * * * * * * * * * * * * * * * * * * * * * * * * * * * * * * * * //

dimensions      [0 2 -1 0 0 0 0];

internalField   nonuniform List<scalar> 
109978
(
0.0006569282
0.0006391087
0.0006375408
0.0006373551
0.00063735
0.0006375196
0.0006390267
0.0006071302
0.0006040437
0.000603654
0.0006036509
0.0006038921
0.0006374891
0.0006040833
0.0006005812
0.0006000889
0.0006000791
0.0006003718
0.0006373187
0.0006036959
0.0006000853
0.000599548
0.000599531
0.0005998427
0.0006372927
0.0006036177
0.0005999727
0.0005994151
0.0005993927
0.0005997096
0.0006372927
0.0006035972
0.0005999412
0.0005993754
0.0005993485
0.0005996667
0.0006372976
0.0006035943
0.0005999319
0.0005993616
0.0005993333
0.0005996522
0.0006373072
0.000603596
0.0005999321
0.0005993604
0.0005993307
0.0005996495
0.0006373185
0.0006036011
0.0005999356
0.0005993629
0.0005993326
0.0005996514
0.0006373294
0.0006036075
0.0005999409
0.0005993676
0.0005993371
0.0005996557
0.0006373396
0.0006036146
0.0005999472
0.0005993737
0.0005993424
0.0005996614
0.0006373499
0.0006036227
0.0005999544
0.0005993807
0.0005993493
0.0005996682
0.0006373605
0.0006036316
0.0005999623
0.0005993885
0.000599357
0.0005996759
0.0006373714
0.0006036405
0.0005999712
0.0005993972
0.0005993656
0.0005996842
0.0006373825
0.00060365
0.0005999808
0.0005994066
0.0005993749
0.0005996934
0.000637394
0.0006036603
0.0005999912
0.000599417
0.0005993851
0.0005997035
0.0006374062
0.0006036716
0.0006000028
0.0005994286
0.0005993971
0.0005997148
0.0006374194
0.0006036843
0.0006000162
0.0005994424
0.0005994109
0.0005997284
0.0006374341
0.0006037002
0.0006000339
0.0005994611
0.00059943
0.0005997472
0.0006374524
0.0006037246
0.0006000638
0.000599494
0.0005994638
0.0005997807
0.0006374872
0.0006037832
0.0006001386
0.0005995766
0.0005995488
0.0005998641
0.0006375891
0.0006039568
0.0006003552
0.0005998114
0.0005997837
0.0006000862
0.00010118
0.0006043175
0.0006007821
0.0006002657
0.0006002259
0.0006004775
0.0005983172
0.0005977702
0.0005977899
0.0005977856
0.0005977661
0.0005977716
0.0001011231
0.0001010964
0.0001010882
0.0001010883
0.0001010882
0.0001010882
0.0001011099
0.0001010905
0.0001010886
0.0001010882
0.0001010881
0.0001010882
0.0001011061
0.0001010899
0.0001010886
0.0001010881
0.0001010881
0.0001010882
0.0001011052
0.0001010903
0.0001010885
0.0001010881
0.0001010881
0.0001010882
0.000101105
0.0001010907
0.0001010884
0.0001010881
0.0001010881
0.0001010882
0.000101107
0.0001010906
0.0001010884
0.0001010881
0.0001010881
0.0001010882
0.0001011024
0.00010109
0.0001010883
0.0001010881
0.0001010881
0.0001010882
0.0001010959
0.0001010895
0.0001010883
0.0001010882
0.0001010882
0.0001010882
0.000101096
0.0001010891
0.0001010882
0.0001010882
0.0001010882
0.0001010882
0.0001010964
0.0001010889
0.0001010882
0.0001010882
0.0001010882
0.0001010882
0.0001010969
0.0001010888
0.0001010882
0.0001010882
0.0001010882
0.0001010882
0.0001010974
0.0001010888
0.0001010882
0.0001010882
0.0001010882
0.0001010882
0.0001010979
0.0001010887
0.0001010883
0.0001010882
0.0001010882
0.0001010882
0.0001010982
0.0001010887
0.0001010883
0.0001010882
0.0001010882
0.0001010883
0.0001010986
0.0001010887
0.0001010883
0.0001010882
0.0001010882
0.0001010883
0.0001010993
0.0001010887
0.0001010883
0.0001010882
0.0001010882
0.0001010883
0.0001011
0.0001010887
0.0001010883
0.0001010883
0.0001010883
0.0001010883
0.0001011006
0.0001010887
0.0001010883
0.0001010883
0.0001010883
0.0001010883
0.0001011011
0.0001010888
0.0001010883
0.0001010883
0.0001010883
0.0001010883
0.0001011016
0.0001010888
0.0001010883
0.0001010883
0.0001010883
0.0001010883
0.000101102
0.0001010889
0.0001010884
0.0001010883
0.0001010883
0.0001010884
0.0001011025
0.0001010889
0.0001010884
0.0001010883
0.0001010883
0.0001010884
0.0001010956
0.0001010891
0.0001010884
0.0001010883
0.0001010883
0.0001010884
0.00059936
0.0005981019
0.0005981724
0.0005982044
0.0005981843
0.0005981497
0.0001011208
0.000101092
0.0001010885
0.0001010881
0.0001010881
0.0001010882
0.0001011246
0.0001010898
0.0001010883
0.0001010882
0.0001010881
0.0001010881
0.0001010973
0.0001010897
0.0001010882
0.0001010882
0.0001010881
0.0001010881
0.000101106
0.0001010899
0.0001010881
0.0001010883
0.0001010881
0.0001010882
0.0001011006
0.0001010895
0.0001010881
0.0001010883
0.0001010881
0.0001010882
0.0001010987
0.0001010892
0.0001010881
0.0001010882
0.0001010881
0.0001010882
0.0001010971
0.0001010889
0.0001010881
0.0001010882
0.0001010881
0.0001010882
0.0001010959
0.0001010886
0.0001010881
0.0001010882
0.0001010881
0.0001010882
0.0001010948
0.0001010885
0.0001010881
0.0001010882
0.0001010881
0.0001010882
0.0001010952
0.0001010884
0.0001010881
0.0001010882
0.0001010881
0.0001010882
0.0001010953
0.0001010884
0.0001010881
0.0001010882
0.0001010881
0.0001010882
0.0001010953
0.0001010883
0.0001010881
0.0001010882
0.0001010882
0.0001010882
0.0001010949
0.0001010883
0.0001010882
0.0001010882
0.0001010882
0.0001010882
0.0001010947
0.0001010883
0.0001010882
0.0001010882
0.0001010882
0.0001010882
0.0001010945
0.0001010883
0.0001010882
0.0001010882
0.0001010882
0.0001010882
0.0001010944
0.0001010883
0.0001010882
0.0001010882
0.0001010882
0.0001010883
0.0001010944
0.0001010883
0.0001010882
0.0001010882
0.0001010882
0.0001010883
0.0001010945
0.0001010883
0.0001010882
0.0001010883
0.0001010882
0.0001010883
0.0001010945
0.0001010883
0.0001010882
0.0001010883
0.0001010882
0.0001010883
0.0001010945
0.0001010884
0.0001010882
0.0001010883
0.0001010882
0.0001010883
0.0001010946
0.0001010884
0.0001010883
0.0001010883
0.0001010883
0.0001010883
0.0001010947
0.0001010884
0.0001010883
0.0001010883
0.0001010883
0.0001010883
0.000101095
0.0001010884
0.0001010883
0.0001010883
0.0001010883
0.0001010884
0.000599469
0.0005982921
0.0005983833
0.0005984263
0.0005984052
0.000598352
0.0001010982
0.0001010908
0.0001010886
0.0001010881
0.0001010881
0.0001010881
0.000101105
0.0001010928
0.000101088
0.0001010884
0.0001010881
0.0001010882
0.0001010974
0.00010109
0.0001010881
0.0001010882
0.0001010881
0.0001010881
0.0001010944
0.0001010889
0.000101088
0.0001010881
0.0001010881
0.0001010882
0.0001010939
0.0001010886
0.0001010881
0.0001010881
0.0001010881
0.0001010882
0.0001010938
0.0001010885
0.0001010881
0.0001010881
0.0001010881
0.0001010882
0.000101094
0.0001010884
0.0001010881
0.0001010881
0.0001010881
0.0001010882
0.0001010944
0.0001010883
0.0001010881
0.0001010881
0.0001010881
0.0001010882
0.0001010941
0.0001010884
0.0001010881
0.0001010881
0.0001010881
0.0001010882
0.0001010948
0.0001010884
0.0001010881
0.0001010882
0.0001010881
0.0001010882
0.0001010946
0.0001010884
0.0001010881
0.0001010882
0.0001010881
0.0001010882
0.0001010944
0.0001010884
0.0001010881
0.0001010882
0.0001010882
0.0001010882
0.0001010944
0.0001010883
0.0001010881
0.0001010882
0.0001010882
0.0001010882
0.0001010946
0.0001010883
0.0001010881
0.0001010882
0.0001010882
0.0001010882
0.0001010951
0.0001010883
0.0001010881
0.0001010882
0.0001010882
0.0001010882
0.0001010952
0.0001010883
0.0001010881
0.0001010882
0.0001010882
0.0001010883
0.0001010951
0.0001010883
0.0001010881
0.0001010882
0.0001010882
0.0001010883
0.000101095
0.0001010883
0.0001010882
0.0001010882
0.0001010882
0.0001010883
0.0001010951
0.0001010883
0.0001010882
0.0001010882
0.0001010882
0.0001010883
0.0001010952
0.0001010883
0.0001010882
0.0001010883
0.0001010882
0.0001010883
0.0001010953
0.0001010883
0.0001010882
0.0001010883
0.0001010882
0.0001010883
0.0001010956
0.0001010883
0.0001010882
0.0001010883
0.0001010883
0.0001010883
0.0001010959
0.0001010884
0.0001010882
0.0001010883
0.0001010883
0.0001010884
0.000599498
0.0005983459
0.0005984489
0.0005984985
0.0005984766
0.0005984173
0.0001010967
0.0001010907
0.0001010887
0.0001010881
0.0001010881
0.0001010881
0.0001011152
0.0001010926
0.000101088
0.0001010885
0.0001010881
0.0001010882
0.0001010971
0.000101089
0.0001010881
0.0001010881
0.0001010881
0.0001010882
0.0001010936
0.0001010884
0.000101088
0.0001010881
0.0001010881
0.0001010882
0.0001010931
0.0001010883
0.000101088
0.0001010881
0.0001010881
0.0001010882
0.0001010932
0.0001010883
0.000101088
0.0001010881
0.0001010881
0.0001010882
0.0001010936
0.0001010883
0.0001010881
0.0001010881
0.0001010881
0.0001010882
0.0001010939
0.0001010883
0.0001010881
0.0001010881
0.0001010881
0.0001010882
0.0001010938
0.0001010883
0.0001010881
0.0001010881
0.0001010881
0.0001010882
0.0001010946
0.0001010882
0.0001010881
0.0001010882
0.0001010881
0.0001010882
0.0001010945
0.0001010882
0.0001010881
0.0001010882
0.0001010881
0.0001010882
0.0001010949
0.0001010883
0.0001010881
0.0001010882
0.0001010882
0.0001010882
0.0001010955
0.0001010884
0.0001010881
0.0001010882
0.0001010882
0.0001010882
0.0001010955
0.0001010884
0.0001010881
0.0001010882
0.0001010882
0.0001010882
0.0001010959
0.0001010884
0.0001010881
0.0001010882
0.0001010882
0.0001010882
0.000101096
0.0001010884
0.0001010881
0.0001010882
0.0001010882
0.0001010883
0.0001010959
0.0001010885
0.0001010881
0.0001010883
0.0001010882
0.0001010883
0.0001010958
0.0001010884
0.0001010882
0.0001010883
0.0001010882
0.0001010883
0.0001010957
0.0001010884
0.0001010882
0.0001010883
0.0001010882
0.0001010883
0.0001010958
0.0001010884
0.0001010882
0.0001010883
0.0001010882
0.0001010883
0.0001010959
0.0001010884
0.0001010882
0.0001010883
0.0001010883
0.0001010883
0.0001010962
0.0001010884
0.0001010882
0.0001010883
0.0001010883
0.0001010883
0.0001010966
0.0001010884
0.0001010882
0.0001010883
0.0001010883
0.0001010884
0.0005994927
0.0005983482
0.0005984496
0.000598499
0.0005984786
0.0005984188
0.0001011004
0.0001010907
0.0001010886
0.0001010881
0.0001010881
0.0001010881
0.0001011075
0.0001010926
0.000101088
0.0001010885
0.0001010881
0.0001010882
0.0001011012
0.000101089
0.0001010881
0.0001010881
0.0001010881
0.0001010882
0.0001010936
0.0001010884
0.000101088
0.0001010881
0.0001010881
0.0001010882
0.000101093
0.0001010883
0.000101088
0.0001010881
0.0001010881
0.0001010882
0.0001010931
0.0001010883
0.000101088
0.0001010881
0.0001010881
0.0001010882
0.0001010936
0.0001010883
0.0001010881
0.0001010881
0.0001010881
0.0001010882
0.000101094
0.0001010883
0.0001010881
0.0001010881
0.0001010881
0.0001010882
0.0001010938
0.0001010883
0.0001010881
0.0001010881
0.0001010881
0.0001010882
0.0001010947
0.0001010882
0.0001010881
0.0001010882
0.0001010881
0.0001010882
0.0001010945
0.0001010882
0.0001010881
0.0001010882
0.0001010881
0.0001010882
0.0001010947
0.0001010883
0.0001010881
0.0001010882
0.0001010882
0.0001010882
0.0001010957
0.0001010884
0.0001010881
0.0001010882
0.0001010882
0.0001010882
0.0001010969
0.0001010884
0.0001010881
0.0001010882
0.0001010882
0.0001010882
0.0001010971
0.0001010884
0.0001010881
0.0001010882
0.0001010882
0.0001010882
0.0001010971
0.0001010884
0.0001010881
0.0001010882
0.0001010882
0.0001010883
0.0001010969
0.0001010885
0.0001010881
0.0001010883
0.0001010882
0.0001010883
0.0001010967
0.0001010884
0.0001010882
0.0001010883
0.0001010882
0.0001010883
0.0001010966
0.0001010884
0.0001010882
0.0001010883
0.0001010882
0.0001010883
0.0001010966
0.0001010884
0.0001010882
0.0001010883
0.0001010882
0.0001010883
0.0001010967
0.0001010884
0.0001010882
0.0001010883
0.0001010883
0.0001010883
0.0001010969
0.0001010884
0.0001010882
0.0001010883
0.0001010883
0.0001010883
0.0001010972
0.0001010884
0.0001010882
0.0001010883
0.0001010883
0.0001010884
0.0005995042
0.0005983244
0.0005984168
0.0005984639
0.000598441
0.0005983839
0.0001010966
0.0001010908
0.0001010886
0.0001010881
0.0001010881
0.0001010881
0.0001011296
0.0001010928
0.000101088
0.0001010884
0.0001010881
0.0001010882
0.0001010949
0.00010109
0.0001010881
0.0001010882
0.0001010881
0.0001010881
0.0001010938
0.0001010889
0.000101088
0.0001010881
0.0001010881
0.0001010882
0.0001010936
0.0001010886
0.0001010881
0.0001010881
0.0001010881
0.0001010882
0.0001010934
0.0001010885
0.0001010881
0.0001010881
0.0001010881
0.0001010882
0.0001010938
0.0001010884
0.0001010881
0.0001010881
0.0001010881
0.0001010882
0.0001010942
0.0001010883
0.0001010881
0.0001010881
0.0001010881
0.0001010882
0.0001010939
0.0001010884
0.0001010881
0.0001010881
0.0001010881
0.0001010882
0.0001010946
0.0001010884
0.0001010881
0.0001010882
0.0001010881
0.0001010882
0.0001010944
0.0001010884
0.0001010881
0.0001010882
0.0001010881
0.0001010882
0.0001010946
0.0001010884
0.0001010881
0.0001010882
0.0001010882
0.0001010882
0.0001010949
0.0001010883
0.0001010881
0.0001010882
0.0001010882
0.0001010882
0.0001010953
0.0001010883
0.0001010881
0.0001010882
0.0001010882
0.0001010882
0.0001010957
0.0001010883
0.0001010881
0.0001010882
0.0001010882
0.0001010882
0.0001010958
0.0001010883
0.0001010881
0.0001010882
0.0001010882
0.0001010883
0.0001010958
0.0001010883
0.0001010881
0.0001010882
0.0001010882
0.0001010883
0.0001010957
0.0001010883
0.0001010882
0.0001010882
0.0001010882
0.0001010883
0.0001010956
0.0001010883
0.0001010882
0.0001010882
0.0001010882
0.0001010883
0.0001010957
0.0001010883
0.0001010882
0.0001010883
0.0001010882
0.0001010883
0.0001010959
0.0001010883
0.0001010882
0.0001010883
0.0001010882
0.0001010883
0.0001010961
0.0001010883
0.0001010882
0.0001010883
0.0001010883
0.0001010883
0.0001010965
0.0001010884
0.0001010882
0.0001010883
0.0001010883
0.0001010884
0.0005994306
0.0005981664
0.0005982324
0.0005982719
0.0005982494
0.0005982031
0.000101108
0.000101092
0.0001010885
0.0001010881
0.0001010881
0.0001010882
0.0001011242
0.0001010898
0.0001010883
0.0001010882
0.0001010881
0.0001010881
0.0001011091
0.0001010897
0.0001010882
0.0001010882
0.0001010881
0.0001010881
0.0001010972
0.0001010899
0.0001010881
0.0001010883
0.0001010881
0.0001010882
0.0001010949
0.0001010895
0.0001010881
0.0001010883
0.0001010881
0.0001010882
0.0001010944
0.0001010892
0.0001010881
0.0001010882
0.0001010881
0.0001010882
0.0001010941
0.0001010888
0.0001010881
0.0001010882
0.0001010881
0.0001010882
0.0001010941
0.0001010886
0.0001010881
0.0001010882
0.0001010881
0.0001010882
0.0001010941
0.0001010885
0.0001010881
0.0001010882
0.0001010881
0.0001010882
0.000101095
0.0001010884
0.0001010881
0.0001010882
0.0001010881
0.0001010882
0.0001010949
0.0001010884
0.0001010881
0.0001010882
0.0001010881
0.0001010882
0.0001010948
0.0001010883
0.0001010881
0.0001010882
0.0001010882
0.0001010882
0.0001010947
0.0001010883
0.0001010882
0.0001010882
0.0001010882
0.0001010882
0.0001010949
0.0001010883
0.0001010882
0.0001010882
0.0001010882
0.0001010882
0.0001010951
0.0001010883
0.0001010882
0.0001010882
0.0001010882
0.0001010882
0.000101095
0.0001010883
0.0001010882
0.0001010882
0.0001010882
0.0001010883
0.0001010949
0.0001010883
0.0001010882
0.0001010882
0.0001010882
0.0001010883
0.0001010949
0.0001010883
0.0001010882
0.0001010883
0.0001010882
0.0001010883
0.0001010949
0.0001010883
0.0001010882
0.0001010883
0.0001010882
0.0001010883
0.000101095
0.0001010884
0.0001010882
0.0001010883
0.0001010882
0.0001010883
0.0001010952
0.0001010884
0.0001010883
0.0001010883
0.0001010883
0.0001010883
0.0001010954
0.0001010884
0.0001010883
0.0001010883
0.0001010883
0.0001010883
0.0001010958
0.0001010884
0.0001010883
0.0001010883
0.0001010883
0.0001010884
0.0005997425
0.000598981
0.0005990439
0.0005990627
0.0005990399
0.0005990243
0.0001011361
0.0001010964
0.0001010882
0.0001010883
0.0001010882
0.0001010882
0.0001011138
0.0001010904
0.0001010886
0.0001010882
0.0001010881
0.0001010882
0.0001011073
0.0001010899
0.0001010886
0.0001010881
0.0001010881
0.0001010882
0.0001011054
0.0001010903
0.0001010885
0.0001010881
0.0001010881
0.0001010882
0.0001011038
0.0001010907
0.0001010884
0.0001010881
0.0001010881
0.0001010882
0.0001011022
0.0001010906
0.0001010884
0.0001010881
0.0001010881
0.0001010882
0.0001010999
0.00010109
0.0001010883
0.0001010881
0.0001010881
0.0001010882
0.0001010969
0.0001010895
0.0001010883
0.0001010882
0.0001010882
0.0001010882
0.0001010952
0.0001010891
0.0001010882
0.0001010882
0.0001010882
0.0001010882
0.0001010955
0.0001010889
0.0001010882
0.0001010882
0.0001010882
0.0001010882
0.0001010954
0.0001010888
0.0001010882
0.0001010882
0.0001010882
0.0001010882
0.0001010951
0.0001010888
0.0001010882
0.0001010882
0.0001010882
0.0001010882
0.000101095
0.0001010887
0.0001010883
0.0001010882
0.0001010882
0.0001010882
0.0001010948
0.0001010887
0.0001010883
0.0001010882
0.0001010882
0.0001010883
0.0001010948
0.0001010887
0.0001010883
0.0001010882
0.0001010882
0.0001010883
0.0001010949
0.0001010887
0.0001010883
0.0001010882
0.0001010882
0.0001010883
0.000101095
0.0001010887
0.0001010883
0.0001010882
0.0001010883
0.0001010883
0.000101095
0.0001010887
0.0001010883
0.0001010883
0.0001010883
0.0001010883
0.0001010951
0.0001010887
0.0001010883
0.0001010883
0.0001010883
0.0001010883
0.0001010951
0.0001010888
0.0001010883
0.0001010883
0.0001010883
0.0001010883
0.0001010952
0.0001010888
0.0001010884
0.0001010883
0.0001010883
0.0001010884
0.0001010953
0.0001010889
0.0001010884
0.0001010883
0.0001010883
0.0001010884
0.0001010956
0.000101089
0.0001010884
0.0001010883
0.0001010883
0.0001010884
0.0002122008
0.0002096387
0.000209556
0.0002095288
0.0002094933
0.0002094647
0.000101183
0.0001012836
0.000101246
0.0001012122
0.0001012162
0.0001012107
0.0001012079
0.0001016188
0.0001012998
0.0001012267
0.0001011831
0.0001011927
0.0001011871
0.0001011855
0.0001013598
0.0001012922
0.0001012358
0.0001011867
0.0001011952
0.0001011886
0.0001011868
0.0001012499
0.0001012931
0.0001012378
0.0001011891
0.0001011972
0.0001011906
0.0001011888
0.0001011806
0.0001012959
0.0001012395
0.0001011929
0.0001011997
0.000101193
0.0001011912
0.0001011432
0.0001013004
0.0001012398
0.0001011956
0.0001012019
0.0001011953
0.0001011934
0.0001011276
0.0001013042
0.0001012392
0.0001011981
0.0001012039
0.0001011975
0.0001011955
0.0001011267
0.0001013084
0.0001012391
0.0001012005
0.0001012058
0.0001011996
0.0001011975
0.0001011234
0.0001013131
0.0001012396
0.0001012028
0.0001012078
0.0001012017
0.0001011996
0.0001011243
0.0001013185
0.000101241
0.0001012051
0.0001012098
0.0001012039
0.0001012017
0.0001011301
0.0001013221
0.000101243
0.0001012074
0.0001012121
0.0001012063
0.000101204
0.0001011326
0.0001013266
0.0001012445
0.0001012095
0.0001012142
0.0001012083
0.000101206
0.0001011346
0.0001013305
0.0001012461
0.0001012116
0.0001012163
0.0001012104
0.0001012081
0.0001011379
0.0001013334
0.0001012486
0.0001012139
0.0001012186
0.0001012126
0.0001012102
0.0001011416
0.0001013363
0.0001012514
0.0001012161
0.0001012208
0.0001012147
0.0001012123
0.0001011412
0.0001013391
0.0001012543
0.0001012184
0.0001012231
0.0001012169
0.0001012145
0.0001011412
0.0001013419
0.0001012572
0.0001012207
0.0001012253
0.0001012191
0.0001012166
0.0001011434
0.0001013448
0.0001012602
0.0001012229
0.0001012276
0.0001012213
0.0001012187
0.000101148
0.0001013475
0.0001012633
0.0001012252
0.0001012299
0.0001012234
0.0001012208
0.0001011523
0.00010135
0.0001012665
0.0001012274
0.0001012322
0.0001012255
0.0001012228
0.0001011572
0.0001013522
0.0001012696
0.0001012294
0.0001012344
0.0001012275
0.0001012248
0.0001011641
0.0001013541
0.0001012726
0.0001012313
0.0001012363
0.0001012293
0.0001012265
0.000101172
0.0006380419
0.0001012752
0.000101233
0.000101238
0.0001012309
0.0001012281
0.000304068
0.0001882014
0.000101137
0.0001011286
0.0003059373
0.000294442
0.0001011829
0.0001011505
0.0001017652
0.0001011869
0.0002941717
0.0002938914
0.0001016188
0.0001011853
0.0001011049
0.0001011859
0.0002939206
0.0002938579
0.0001013598
0.0001011776
0.0001011115
0.0001011743
0.0002939007
0.0002938486
0.0001012498
0.0001011663
0.0001011237
0.0001011647
0.0002939003
0.0002938452
0.0001011805
0.000101159
0.0001011488
0.0001011561
0.0002939068
0.0002938433
0.000101143
0.000101151
0.0001011823
0.0001011486
0.0002939136
0.0002938439
0.0001011274
0.0001011452
0.0001011742
0.0001011429
0.0002939232
0.0002938469
0.0001011265
0.0001011378
0.0001011795
0.0001011343
0.0002939356
0.0002938509
0.0001011232
0.0001011281
0.0001011834
0.0001011288
0.0002939498
0.000293856
0.0001011241
0.0001011212
0.0001011941
0.0001011251
0.0002939637
0.0002938622
0.0001011299
0.000101117
0.0001012037
0.0001011227
0.000293978
0.0002938692
0.0001011325
0.0001011138
0.0001012154
0.0001011208
0.0002939932
0.0002938771
0.0001011345
0.0001011119
0.0001012274
0.0001011195
0.0002940096
0.0002938859
0.0001011378
0.0001011104
0.0001012378
0.0001011185
0.0002940268
0.0002938952
0.0001011414
0.000101109
0.00010125
0.0001011177
0.0002940441
0.0002939054
0.0001011411
0.0001011081
0.0001012617
0.0001011172
0.0002940618
0.0002939168
0.000101141
0.0001011073
0.0001012725
0.0001011167
0.0002940801
0.0002939296
0.0001011432
0.0001011066
0.0001012823
0.0001011162
0.0002940994
0.0002939436
0.0001011478
0.0001011057
0.0001012928
0.0001011157
0.0002941196
0.0002939596
0.0001011522
0.0001011049
0.0001013038
0.0001011151
0.0002941415
0.0002939813
0.0001011571
0.0001011041
0.000101313
0.0001011145
0.0002941716
0.0002940361
0.000101164
0.0001011032
0.0001013224
0.000101114
0.0002942543
0.0001012571
0.000101172
0.0001011024
0.0001013297
0.0001011135
0.0002125259
0.0001012153
0.0001011369
0.0002101454
0.0001016465
0.000101176
0.0002101438
0.0001011209
0.0001011536
0.0002101013
0.0001014256
0.0001011548
0.0002101007
0.0001011023
0.0001011501
0.0002100981
0.000101365
0.000101144
0.0002101042
0.0001011086
0.0001011402
0.0002100906
0.0001011249
0.0001011423
0.000210094
0.0001014665
0.00010115
0.0002100971
0.0001011047
0.0001011426
0.0002101089
0.0001013535
0.0001011452
0.000210117
0.0001011025
0.0001011477
0.0002101075
0.0001014438
0.0001011535
0.0002101282
0.0001011174
0.0001011528
0.0002101346
0.0001016455
0.0001011756
0.0002125233
0.0001012181
0.0001011369
0.0001881976
0.0001011367
0.0001011286
0.0003040689
0.0002096511
0.0001010881
0.0001010916
0.0003060055
0.0002945649
0.0002095535
0.000101091
0.0001010894
0.0002942933
0.0002939979
0.0002095305
0.0001010898
0.0001010897
0.0002940026
0.0002939452
0.0002094952
0.0001010899
0.0001010895
0.0002939536
0.000293909
0.0002094646
0.0001010897
0.0001010895
0.0002939253
0.0002938987
0.0001010897
0.0002939247
0.0001011505
0.0001017654
0.000101187
0.000305938
0.0002944429
0.0001011853
0.000101105
0.0001011859
0.0002941715
0.0002938914
0.0001011775
0.0001011116
0.0001011743
0.0002939218
0.0002938591
0.0001011663
0.0001011237
0.0001011647
0.0002939004
0.0002938496
0.0001011589
0.0001011488
0.0001011561
0.0002939016
0.0002938455
0.000101151
0.0001011824
0.0001011486
0.0002939055
0.0002938422
0.0001011378
0.0001011796
0.0001011343
0.0002939218
0.000293846
0.0001011281
0.0001011835
0.0001011288
0.0002939347
0.00029385
0.0001011212
0.0001011941
0.0001011252
0.000293949
0.000293855
0.000101117
0.0001012037
0.0001011227
0.0002939629
0.0002938613
0.0001011138
0.0001012154
0.0001011208
0.0002939771
0.0002938683
0.0001011119
0.0001012273
0.0001011195
0.0002939924
0.0002938762
0.0001011103
0.0001012378
0.0001011185
0.0002940087
0.000293885
0.000101109
0.0001012501
0.0001011177
0.0002940259
0.0002938943
0.0001011081
0.0001012617
0.0001011172
0.0002940432
0.0002939046
0.0001011073
0.0001012725
0.0001011167
0.000294061
0.0002939159
0.0001011065
0.0001012824
0.0001011162
0.0002940793
0.0002939286
0.0001011056
0.0001012928
0.0001011157
0.0002940985
0.0002939424
0.0001011049
0.0001013039
0.0001011151
0.00029412
0.0002939609
0.0001011041
0.0001013131
0.0001011145
0.0002941425
0.0002939805
0.0001011031
0.0001013227
0.000101114
0.0002941724
0.0002940358
0.0001011024
0.00010133
0.0001011135
0.0002942547
0.0001012572
0.0001015975
0.0001455848
0.0003060045
0.0002945643
0.0002122005
0.0002096515
0.0001010881
0.0001010916
0.0002942935
0.0002939979
0.0002096387
0.0002095537
0.000101091
0.0001010894
0.0002940015
0.0002939445
0.0002095561
0.00020953
0.0001010898
0.0001010897
0.0002939547
0.0002939095
0.0002095287
0.0002094953
0.0001010899
0.0001010895
0.0002939238
0.0002938988
0.0002094927
0.0002094653
0.0001010897
0.0001010895
0.0002939261
0.0002094647
0.0001010897
0.0001012044
0.0001430712
0.0001011274
0.0001428256
0.0001011339
0.0001428066
0.0001011601
0.000142827
0.0001011253
0.0001428262
0.0001011309
0.0001428303
0.0001011197
0.0001428537
0.0001011201
0.0001428312
0.0001011057
0.0001428801
0.0001011149
0.0001428388
0.0001010836
0.0001429042
0.0001011136
0.0001428444
0.0001010827
0.0001429182
0.0001011132
0.0001428409
0.0001010846
0.0001429258
0.0001011123
0.0001428322
0.0001010845
0.0001429407
0.0001011118
0.0001428203
0.0001010831
0.0001429608
0.0001011038
0.0001428147
0.0001010833
0.0001429785
0.0001010976
0.0001428149
0.0001010856
0.0001429928
0.0001010955
0.0001428186
0.000101087
0.0001430071
0.0001010953
0.0001428245
0.0001010867
0.0001430206
0.0001010954
0.0001428338
0.0001010858
0.0001430341
0.000101096
0.000142844
0.000101085
0.0001430461
0.0001010967
0.0001428568
0.0001010843
0.0001430566
0.0001010977
0.0001428731
0.0001010838
0.000143066
0.0001010988
0.0001428905
0.0001010835
0.0001430757
0.0001011
0.0001429097
0.0001010834
0.0001430883
0.0001011018
0.0001429299
0.0001010836
0.0001431054
0.0001011035
0.0001429512
0.0001010842
0.0001431268
0.0001011045
0.0001429746
0.0001010851
0.0001431542
0.0001011045
0.0001430103
0.0001015444
0.0001014232
0.0001016266
0.0001016584
0.0001017513
0.0001017866
0.0001018018
0.0001017342
0.000101773
0.0001017362
0.0001017858
0.0001017659
0.0001017877
0.0001016898
0.0001015824
0.0001015668
0.0001014256
0.0001016213
0.0001011452
0.0001011742
0.0001011429
0.0002939124
0.0002938421
0.0001012377
0.000143499
0.0001011863
0.0001483442
0.0001011161
0.0001431796
0.0001012285
0.0001480999
0.0001014379
0.0001016014
0.0001012061
0.0001428047
0.0001011419
0.0001427422
0.000101142
0.00014283
0.0001011251
0.0001428368
0.0001011258
0.0001428312
0.0001011218
0.0001428502
0.0001011163
0.0001428375
0.0001011183
0.0001428707
0.000101112
0.0001428441
0.0001010906
0.0001429035
0.0001011107
0.0001428429
0.0001010828
0.000142922
0.0001011137
0.0001428324
0.0001010849
0.0001429253
0.0001011125
0.0001428204
0.0001010852
0.0001429366
0.000101111
0.0001428137
0.0001010885
0.0001429534
0.0001011018
0.0001428093
0.0001010859
0.0001429748
0.000101098
0.0001428107
0.0001010864
0.00014299
0.0001010966
0.0001428146
0.0001010868
0.0001430036
0.0001010965
0.0001428224
0.0001010866
0.0001430164
0.0001010962
0.0001428307
0.000101086
0.0001430286
0.0001010962
0.0001428421
0.0001010855
0.0001430394
0.0001010967
0.0001428556
0.0001010853
0.0001430478
0.0001010969
0.0001428724
0.0001010852
0.0001430558
0.0001010969
0.0001428914
0.0001010851
0.0001430641
0.0001010973
0.0001429124
0.000101085
0.0001430736
0.0001010982
0.0001429337
0.0001010855
0.0001430858
0.0001010991
0.0001429561
0.0001010864
0.0001431022
0.0001010995
0.0001429818
0.000101087
0.0001431227
0.0001010995
0.0001430665
0.0001014983
0.0001431624
0.0001010872
0.0001015869
0.000101531
0.0001017695
0.0001017138
0.0001018158
0.0001018111
0.000101722
0.000101833
0.0001018034
0.0001018141
0.000101726
0.0001017504
0.0001016266
0.0001017033
0.000101543
0.0001014273
0.0001016015
0.0001455914
0.000101236
0.0001434944
0.0001011864
0.0001483395
0.0001011166
0.000143186
0.0001012293
0.0001481133
0.0001011462
0.0001433642
0.0001011753
0.0001430925
0.0001011771
0.000143051
0.0001011452
0.0001430907
0.0001011479
0.0001430774
0.0001011873
0.000143013
0.0001011819
0.000143012
0.000101144
0.0001430322
0.0001011471
0.0001430365
0.0001011878
0.0001429779
0.0001011807
0.0001429807
0.0001011428
0.0001429963
0.0001011461
0.0001430043
0.0001011863
0.0001429455
0.0001011789
0.0001429466
0.0001011419
0.0001429629
0.000101145
0.0001429692
0.0001011842
0.0001429125
0.0001011438
0.0001429355
0.0001011826
0.0001012042
0.0001430744
0.0001011277
0.0001428264
0.000101206
0.0001428039
0.0001011419
0.0001427431
0.000101134
0.0001428056
0.0001011599
0.0001428266
0.000101142
0.0001428284
0.0001011251
0.0001428372
0.0001011253
0.0001428247
0.0001011309
0.0001428294
0.0001011258
0.0001428305
0.0001011218
0.0001428495
0.0001011197
0.000142853
0.00010112
0.0001428306
0.0001011163
0.000142837
0.0001011183
0.0001428703
0.0001011057
0.0001428796
0.0001011148
0.0001428383
0.000101112
0.0001428436
0.0001010907
0.0001429031
0.0001010836
0.0001429037
0.0001011135
0.000142844
0.0001011107
0.0001428424
0.0001010829
0.0001429215
0.0001010847
0.0001429388
0.0001011123
0.0001428318
0.0001011124
0.00014282
0.0001010852
0.0001429363
0.0001010845
0.0001429401
0.0001011116
0.0001428198
0.000101111
0.0001428132
0.0001010885
0.0001429529
0.0001010831
0.0001429603
0.0001011035
0.0001428143
0.0001011018
0.0001428088
0.0001010859
0.0001429744
0.0001010833
0.0001429778
0.0001010974
0.0001428144
0.000101098
0.0001428102
0.0001010864
0.0001429895
0.0001010856
0.0001429922
0.0001010952
0.0001428182
0.0001010966
0.0001428142
0.0001010868
0.0001430033
0.000101087
0.0001430064
0.0001010951
0.0001428239
0.0001010965
0.0001428218
0.0001010866
0.0001430159
0.0001010867
0.0001430199
0.0001010951
0.0001428333
0.0001010962
0.0001428303
0.000101086
0.0001430282
0.0001010858
0.0001430336
0.0001010957
0.0001428436
0.0001010962
0.0001428416
0.0001010855
0.000143039
0.0001010971
0.0001428552
0.0001010853
0.0001430475
0.0001010843
0.0001430561
0.0001010974
0.0001428727
0.0001010969
0.000142872
0.0001010852
0.0001430554
0.0001010838
0.0001430654
0.0001010984
0.00014289
0.0001010969
0.0001428909
0.0001010851
0.0001430638
0.0001010835
0.0001430754
0.0001010997
0.0001429092
0.0001010974
0.0001429119
0.000101085
0.0001430732
0.0001010834
0.0001430879
0.0001011014
0.0001429295
0.0001010983
0.0001429333
0.0001010855
0.0001430854
0.0001010836
0.0001431052
0.0001011032
0.0001429507
0.0001010991
0.0001429555
0.0001010864
0.0001431018
0.0001010842
0.0001431264
0.0001011041
0.0001429737
0.0001010995
0.0001429827
0.000101087