/*--------------------------------*- C++ -*----------------------------------*\
  =========                 |
  \\      /  F ield         | OpenFOAM: The Open Source CFD Toolbox
   \\    /   O peration     | Website:  https://openfoam.org
    \\  /    A nd           | Version:  7
     \\/     M anipulation  |
\*---------------------------------------------------------------------------*/
FoamFile
{
    version     2.0;
    format      ascii;
    class       surfaceScalarField;
    location    "0.02";
    object      phi;
}
// * * * * * * * * * * * * * * * * * * * * * * * * * * * * * * * * * * * * * //

dimensions      [0 3 -1 0 0 0 0];

internalField   nonuniform List<scalar> 
266918
(
0.0004539686
-0.0002125029
-0.00836419
-0.001849672
-0.000189571
0.0004348141
3.115379e-05
2.546538e-05
7.400895e-06
-0.007950155
-0.001735742
-1.61016e-06
8.056647e-06
-0.007884662
-0.001720447
-2.0255e-06
1.076468e-06
-0.007862023
-0.00171509
-9.052534e-07
1.298824e-06
-0.007855026
-0.001712355
-1.084764e-06
9.000325e-07
-0.007858715
-0.001710504
-1.863893e-06
1.635416e-06
-0.007850743
-0.001708194
-1.90699e-06
1.94428e-06
-0.007845429
-0.001706542
-0.0003159909
-0.03594737
-0.001609706
0.008855395
0.009014692
0.01067529
0.01030193
0.0009515136
-0.001853976
0.00080321
-0.0008749904
-0.0003670146
-0.03652623
-0.000990987
0.008486745
0.008345774
0.01041017
0.01032554
-0.0001378386
-0.03633898
-0.0009392727
0.008285174
0.008268987
0.01026052
0.0102344
-3.11921e-05
-0.03616153
-0.0009544707
0.008278427
0.008268525
0.0102336
0.01022879
-8.767004e-06
-0.03607021
-0.0009165479
0.008263758
0.008263475
0.01022217
0.01021492
-2.441868e-06
-0.03595529
-0.0009892819
0.008260661
0.00825834
0.01020926
0.01020998
3.71577e-05
-0.03594208
-0.001042289
0.008263951
0.008266037
0.01020986
0.01020492
3.634367e-05
-0.03589872
-0.001016965
0.008257307
0.008258912
0.01020173
0.01019854
-0.03588039
-0.001027813
0.008252603
0.008254791
0.01019559
0.01019259
4.896317e-05
0.001896745
-7.090488e-05
-0.001736417
-8.942375e-05
0.0004527658
-0.03558735
6.710533e-06
0.001509255
-0.001857128
0.0001828489
-0.0006544674
0.000241036
-0.03533026
-0.0009842383
0.0001189677
-0.0352983
-0.0009186182
2.335827e-05
-0.03515466
-0.000911262
2.142398e-05
-0.03510467
-0.0009636102
4.494411e-05
-0.0349725
-0.001006317
5.471557e-05
-0.03505253
-0.0008993271
7.120045e-05
-0.03497267
-0.000942541
-0.03497983
-0.0009120141
8.264721e-05
0.001945619
-9.058535e-05
-0.001763431
-9.160203e-05
-6.899046e-05
-0.03558012
4.458356e-05
0.001739234
-0.001730192
0.0003361496
-0.0003280193
1.62289e-05
-0.035422
6.524366e-06
2.708044e-05
-0.03529714
-1.200883e-05
2.313043e-05
-0.03509522
-5.548737e-05
2.793237e-05
-0.03509309
-1.638177e-05
8.450808e-05
-0.03496099
-6.808263e-05
6.276545e-05
-0.03498537
-4.541923e-05
9.665866e-05
-0.03493381
-7.276013e-05
-0.03492034
-6.910007e-05
0.0001062663
0.001965404
-9.391555e-05
-0.001778464
-9.302428e-05
5.677476e-05
-0.03556614
8.804488e-06
0.001737637
-0.001754729
0.0002786789
-0.0003411432
3.805257e-05
-0.03532401
-7.927889e-05
4.422093e-05
-0.03524957
-5.374448e-05
5.661361e-05
-0.035041
-6.661298e-05
3.478958e-05
-0.03499606
-7.52167e-05
7.312975e-05
-0.03495409
-4.524968e-05
5.364369e-05
-0.03489114
-7.474586e-05
9.514635e-05
-0.03492883
-4.648098e-05
-0.03489376
-5.152928e-05
0.000120087
0.001971215
-9.381213e-05
-0.001784125
-9.327739e-05
6.798051e-05
-0.03567129
4.609951e-05
0.0017537
-0.001748973
0.0003069059
-0.0003205676
5.116725e-05
-0.03539737
9.018084e-05
6.842487e-05
-0.03538562
0.0001187956
6.989312e-05
-0.03518374
0.0001412622
6.786617e-05
-0.03513191
0.0001378778
9.797782e-05
-0.0351532
0.0001690006
7.109339e-05
-0.03499388
0.0001296296
0.0001163881
-0.03514455
0.0001704277
-0.03508017
0.0001589725
0.0001438268
0.001976092
-9.479781e-05
-0.001787348
-9.394696e-05
-1.979222e-05
-0.03564925
-3.000018e-06
0.001761349
-0.001747763
0.0003084353
-0.000321273
-3.796149e-05
-0.03539266
1.345651e-05
1.78561e-05
-0.03548167
4.022452e-05
2.984508e-05
-0.0352487
5.297611e-05
4.656696e-05
-0.03519675
4.811945e-05
9.429298e-05
-0.03528166
8.073673e-05
6.274135e-05
-0.03497071
8.379672e-06
0.0001323366
-0.03528413
6.998484e-05
-0.03515627
4.313605e-05
0.0001653062
0.001978464
-9.666697e-05
-0.001787516
-9.428209e-05
0.0001795159
-0.03602742
9.437246e-05
0.001768723
-0.001733984
0.0003489624
-0.0002794195
0.0001047262
-0.0359323
0.0006144245
0.0001619169
-0.03636367
0.000824809
0.0001373127
-0.03622962
0.001005517
0.0001646502
-0.03629542
0.001071324
0.0002057054
-0.03646603
0.001143314
6.103456e-06
-0.03573825
0.000967134
5.914427e-05
-0.03645222
0.001115041
-0.03637046
0.00109091
0.0001824158
0.00197193
-9.622915e-05
-0.001780521
-9.518134e-05
-0.0002404461
-0.03648096
0.0005031505
0.001784263
-0.001626658
0.0003226631
-0.0002894434
-0.000276586
-0.03681894
0.0009227793
-0.0001745646
-0.03739026
0.0009245634
-0.0001812361
-0.0372533
0.00103035
-2.225031e-05
-0.03725852
0.0008041196
0.0001407884
-0.03754188
0.0009128065
-0.0001712064
-0.0356702
0.0002439535
-1.707889e-05
-0.0374501
0.0008437556
-0.03737621
0.0008273539
0.0001613238
0.001947831
-0.0001125
-0.001728707
-0.0001066243
-0.0001481827
-0.009054139
0.0009641627
0.002431353
-0.0006696992
0.001174674
1.289124e-05
-0.009518953
-0.01069893
-0.01097413
0.0003405795
-0.009550748
0.004236508
-0.009619136
-0.01111053
-0.0112638
9.853583e-05
-0.00978752
0.005376447
-0.009926693
-0.01144896
-0.01136148
2.57226e-05
-0.01005116
0.00575979
-0.01010507
-0.01132187
-0.01146215
5.213307e-05
-0.01015887
0.005833021
-0.01018884
-0.01136027
-0.01140996
0.0001194727
-0.01022113
0.006201906
-0.01028758
-0.01151005
-0.01179235
-4.665406e-05
-0.01001674
0.004816589
-0.007732023
-0.01154871
-0.01102319
0.0001203014
-0.01015183
0.006194059
-0.01026364
-0.01162957
-0.01176607
-0.01027202
0.006093781
-0.009999378
-0.01150083
-0.01178457
0.0002071192
0.001757872
-7.622817e-05
-0.00163665
-4.499539e-05
5.512948e-05
0.000256582
0.001336429
-0.003005039
-0.002382863
-0.003001275
-0.002313088
-0.0001531155
3.183207e-05
0.001246949
-0.003006576
-0.002337666
-0.002981916
-0.002350246
1.624673e-05
-1.6924e-05
0.001080633
-0.003112487
-0.002405735
-0.002900447
-0.002448801
-2.018817e-05
7.496162e-06
0.001207161
-0.003102428
-0.002406188
-0.003201161
-0.002535831
-1.527087e-05
-1.877172e-05
0.001202426
-0.00313816
-0.002507183
-0.003139064
-0.002542811
6.249935e-05
-0.0001278884
0.001187743
-0.003220875
-0.002569231
-0.003125115
-0.002428239
0.000495516
-0.0002977947
0.001097814
-0.002359409
-0.003054777
-0.00303468
-0.002863401
0.0005351875
0.001054215
-0.000487462
-0.003047519
-0.002799752
-0.003016956
-0.002389539
-0.0001705568
0.0001252054
0.001207015
-0.003072915
-0.002444793
-0.00332096
-0.002595006
4.649814e-05
0.0004341108
-1.655816e-05
0.0001180926
2.70439e-05
0.0004076632
3.159395e-05
0.0001144821
0.0001788106
0.001706535
0.0003050525
0.0001360614
0.0002847605
-4.195213e-05
0.0005037823
-2.143519e-05
0.0001412345
4.488271e-05
0.0004173671
6.65167e-06
0.0001129935
4.394017e-06
0.0004908061
-5.115127e-05
0.0001378719
-2.78647e-05
0.0004425965
4.571251e-05
2.734795e-05
-0.0004927635
0.002569242
0.0001574387
0.000115308
0.0003401242
-7.148565e-05
0.0005025276
1.45097e-05
0.0001349486
-5.568812e-11
4.88871e-10
-6.679948e-10
4.443976e-10
-5.616329e-11
-8.263024e-11
-3.59002e-11
-3.541166e-11
3.202548e-11
9.121674e-10
-1.160344e-09
3.93386e-10
-3.399943e-11
-8.341855e-11
-2.442003e-11
-3.605635e-11
3.631046e-11
1.452156e-09
-1.668608e-09
3.526397e-10
-1.574748e-12
-1.148741e-10
-4.811954e-11
-8.737865e-12
1.077915e-10
1.90678e-09
-2.190221e-09
3.573782e-10
-5.608111e-11
-1.31903e-10
3.036354e-12
2.259265e-12
1.506153e-10
2.48178e-09
-2.77109e-09
3.319457e-10
-5.908703e-11
-1.550403e-10
1.973811e-11
3.944848e-13
2.058096e-10
3.086421e-09
-3.385554e-09
3.248276e-10
-1.00815e-10
-1.695005e-10
3.723606e-11
1.180876e-12
2.408873e-10
3.737167e-09
-4.068933e-09
3.498288e-10
-1.160192e-10
-2.025377e-10
5.114841e-11
7.893529e-12
2.999561e-10
4.466144e-09
-4.799263e-09
3.49928e-10
-1.791588e-10
-2.330672e-10
7.142335e-11
2.245719e-11
3.925161e-10
5.262872e-09
-5.681143e-09
3.583663e-10
-2.255545e-10
-2.31955e-10
1.162116e-10
6.827847e-12
-3.667294e-09
4.650831e-09
1.70421e-10
3.135273e-10
7.767001e-10
3.62916e-10
5.702179e-10
-6.367756e-10
-8.646418e-10
-8.144136e-10
-8.628757e-10
-5.472281e-09
4.972557e-09
1.782946e-10
-6.080909e-10
-9.751984e-10
-8.531353e-10
-9.101507e-10
-7.39345e-09
5.044241e-09
1.894049e-10
-5.363754e-10
-1.019379e-09
-8.496771e-10
-9.076133e-10
-9.438732e-09
5.358343e-09
1.919578e-10
-4.833261e-10
-1.153007e-09
-9.034431e-10
-9.660651e-10
-1.164463e-08
5.726567e-09
2.521526e-10
-4.300032e-10
-1.296006e-09
-1.012568e-09
-1.03463e-09
-1.406394e-08
6.217613e-09
2.61844e-10
-4.124387e-10
-1.481399e-09
-1.012868e-09
-1.153811e-09
-1.671498e-08
6.856591e-09
2.402465e-10
-4.088944e-10
-1.684133e-09
-1.074028e-09
-1.279791e-09
-1.964302e-08
7.621516e-09
2.114958e-10
-4.355092e-10
-1.936038e-09
-1.120988e-09
-1.415058e-09
8.513153e-09
2.590697e-10
-4.678027e-10
-2.299331e-09
-1.186836e-09
-1.613225e-09
-2.285091e-08
-3.630963e-09
6.422039e-09
-4.118565e-11
7.404831e-11
7.652843e-10
3.835521e-10
6.772123e-10
-5.261169e-09
6.662792e-09
-6.034767e-11
-7.172555e-09
6.847093e-09
1.07967e-10
-9.172574e-09
7.217218e-09
1.409041e-10
-1.131999e-08
7.701812e-09
1.71914e-10
-1.360127e-08
8.307806e-09
1.90725e-10
-1.610896e-08
9.080595e-09
2.826457e-10
-1.883777e-08
1.0009e-08
3.394507e-10
1.112355e-08
3.903063e-10
-2.184066e-08
-3.471671e-09
8.221745e-09
-2.862936e-11
-2.857651e-10
9.5302e-10
3.148086e-10
7.176497e-10
-4.923552e-09
8.256693e-09
-1.428585e-10
-6.672659e-09
8.572034e-09
2.368075e-11
-8.477815e-09
9.004891e-09
1.691281e-11
-1.045851e-08
9.638332e-09
4.376825e-11
-1.260774e-08
1.041524e-08
4.138246e-11
-1.493103e-08
1.136595e-08
3.710374e-11
-1.74845e-08
1.250998e-08
5.102606e-11
1.387623e-08
5.316848e-11
-2.029227e-08
-3.120369e-09
9.956555e-09
-7.92525e-11
-3.848372e-10
9.132386e-10
2.192704e-10
7.159975e-10
-4.515326e-09
9.797491e-09
-1.464383e-10
-6.161972e-09
1.022908e-08
-1.134592e-11
-7.857856e-09
1.070926e-08
-9.09065e-12
-9.67831e-09
1.143445e-08
2.383247e-11
-1.161923e-08
1.232587e-08
2.980126e-11
-1.372354e-08
1.341979e-08
4.964728e-11
-1.601566e-08
1.474046e-08
6.047556e-11
1.630579e-08
7.604767e-11
-1.852267e-08
-2.692827e-09
1.142993e-08
-1.329443e-10
-4.537146e-10
1.010728e-09
8.761841e-11
7.068452e-10
-4.029347e-09
1.123636e-08
-1.03283e-10
-5.527602e-09
1.172326e-08
3.646853e-12
-7.047571e-09
1.224258e-08
-1.413772e-11
-8.684453e-09
1.306386e-08
6.758673e-12
-1.042598e-08
1.40623e-08
4.278282e-12
-1.230606e-08
1.529201e-08
6.97862e-12
-1.434267e-08
1.676795e-08
7.810811e-12
1.851839e-08
8.061852e-12
-1.656472e-08
-2.391414e-09
1.260451e-08
-2.011604e-10
-3.08347e-10
1.068453e-09
-3.459342e-11
6.916636e-10
-3.613912e-09
1.253322e-08
-7.486016e-11
-4.886501e-09
1.302592e-08
-3.130177e-11
-6.237764e-09
1.361247e-08
-1.92404e-11
-7.663918e-09
1.449341e-08
-4.0741e-12
-9.182022e-09
1.557981e-08
-6.740085e-14
-1.081011e-08
1.691441e-08
4.780442e-12
-1.255914e-08
1.85073e-08
8.658606e-12
2.038804e-08
1.208336e-11
-1.444204e-08
-2.059168e-09
-2.159352e-10
-3.467607e-10
1.100783e-09
-1.21197e-10
6.698547e-10
1.357644e-08
-3.110248e-09
-4.957887e-11
1.363314e-08
-4.167703e-09
-3.50954e-11
1.411864e-08
-5.316858e-09
-1.116105e-11
1.477227e-08
-6.526477e-09
-5.8802e-12
1.570857e-08
-7.814197e-09
-2.070468e-12
1.686925e-08
-9.182919e-09
-2.748472e-13
1.828308e-08
-1.064159e-08
-2.119527e-13
1.996557e-08
7.85203e-13
-1.21972e-08
2.19422e-08
0.0004543708
0.0003644508
-0.001417574
-0.01013684
-0.000316816
-3.474159e-05
0.0006715966
-1.886077e-05
-2.87806e-05
0.0004358891
-2.178963e-05
-0.0006798092
-0.04106709
-0.001140196
0.001690334
0.002366198
-0.0005413071
-0.0007089388
0.001763963
-0.0004505039
0.002404257
-0.0003222431
-2.899699e-05
-0.04128071
-0.00149251
0.002504649
0.002545239
-0.000698533
-0.0007013777
6.676906e-07
-0.04121685
-0.001673401
0.002566153
0.002580451
-0.0006933225
-0.0006696271
1.888576e-05
-0.04110538
-0.001683174
0.002563548
0.002562642
-0.0006791603
-0.0006808428
1.461011e-05
-0.04104714
-0.001696225
0.002561803
0.002563564
-0.0006762286
-0.0006709197
1.240306e-05
-0.04100261
-0.001700239
0.002559857
0.002558591
-0.0006698493
-0.0006750805
1.589885e-05
-0.04097792
-0.001696442
0.002557302
0.002557336
-0.0006726761
-0.000675537
-0.04094233
-0.00169422
0.002554857
0.002554971
-0.0006725382
-0.0006752516
1.838205e-05
0.00194792
0.0002681697
-0.0005696965
-0.008536116
-2.973504e-05
0.002459944
0.002039343
0.002449047
0.0002205849
-0.0002284936
-2.096822e-05
0.0001645284
-0.04094346
-0.0008206883
0.01011961
0.01040232
0.009953808
0.01008663
0.0003955363
-0.0006781048
0.0003797772
-0.0006696619
0.0002485954
-0.04138151
-0.0007606358
0.0001393973
-0.04131351
-0.0007972785
8.386825e-05
-0.04113282
-0.0009829712
5.902543e-05
-0.04107669
-0.0009203943
5.762125e-05
-0.04105173
-0.0009832891
4.252361e-05
-0.04101459
-0.001015214
5.179162e-05
-0.0410066
-0.0009975554
-0.04097491
-0.001002035
5.858649e-05
-0.0004666326
-0.03609692
-0.0002189718
0.001198759
0.0006116036
-0.001767117
-0.0004180138
0.008137198
0.01045829
0.008305181
0.01025662
0.0001210331
-0.04154522
2.080195e-05
-5.838768e-05
-0.04150876
-0.0006775582
5.754057e-05
-0.04151371
-0.0008343408
3.69924e-05
-0.04118887
-0.0008346645
4.972629e-05
-0.04113687
-0.0009161611
3.612361e-05
-0.04110035
-0.0009440986
6.711628e-05
-0.04101033
-0.000934579
6.908497e-05
-0.04100949
-0.0009416211
-0.04096955
-0.0009370279
8.872804e-05
-0.0005150108
-0.03543663
0.0003444481
0.001602283
0.0001892541
-0.001801906
-0.0004793558
-0.0001713505
-0.04178626
-5.803323e-05
-2.939203e-05
-0.04147152
-0.0001726792
4.636378e-07
-0.04129746
-0.0002581221
2.81568e-05
-0.04098327
-0.0002887763
6.221903e-05
-0.04086399
-0.0003233267
5.708541e-05
-0.04081158
-0.0003517195
8.098656e-05
-0.04074452
-0.0003351315
9.645209e-05
-0.04074734
-0.0003503772
-0.0407199
-0.000342255
0.0001199617
0.0001083734
-0.03557446
-4.521997e-05
0.001758781
0.0003708873
-0.001738806
-0.0003161858
3.658188e-05
-0.04170074
-4.92981e-06
4.948755e-05
-0.04151873
-4.496929e-05
5.643292e-05
-0.04129586
-6.229008e-05
5.771194e-05
-0.04098877
-6.239991e-05
6.476584e-05
-0.04087273
-7.35414e-05
7.93944e-05
-0.04079744
-7.401972e-05
8.617912e-05
-0.04074589
-8.016301e-05
0.0001177845
-0.04074285
-8.257728e-05
-0.04071941
-7.926558e-05
0.000145023
-5.883702e-05
-0.03554638
0.0001349734
0.001734545
0.0003021367
-0.00176491
-0.0003759913
6.32935e-05
-0.04188268
0.0001059097
8.840806e-05
-0.04165933
0.0002056593
9.820081e-05
-0.04142566
0.0002388085
9.83504e-05
-0.04110891
0.0002612527
9.366794e-05
-0.04099979
0.000269621
9.656343e-05
-0.04091896
0.0002876233
9.995469e-05
-0.04090531
0.000285655
0.000136474
-0.04089092
0.0002819774
-0.04087592
0.0002805976
0.0001713645
-7.064722e-05
-0.03545613
3.025376e-06
0.001753592
0.0003324074
-0.001754992
-0.0003536303
-2.313802e-05
-0.04197047
3.727932e-05
-4.322359e-05
-0.04167823
5.24447e-05
2.525895e-05
-0.04151353
5.960216e-05
6.085594e-05
-0.04118202
9.048617e-05
7.195996e-05
-0.04111847
0.0001556984
7.654835e-05
-0.04103204
0.0001892326
9.603044e-05
-0.04104972
0.0001333053
0.0001454218
-0.04103321
0.0001628777
-0.04102688
0.0001426422
0.0001968762
-6.756611e-05
-0.03563947
0.0002989165
0.001739738
0.0003313817
-0.001757372
-0.0003617688
0.0003360912
-0.04273522
0.0004554627
0.0003581596
-0.04250857
0.001422689
0.0003421813
-0.04261528
0.00194254
0.0002716438
-0.04230483
0.002198861
0.0001776368
-0.04235627
0.002403126
0.000105043
-0.04227334
0.002457203
0.0001011678
-0.04241474
0.002336037
0.0001480385
-0.04233813
0.002373094
-0.04235734
0.002345449
0.0002239539
0.0001578842
-0.03571329
1.170368e-05
0.001768417
0.0003083989
-0.001738386
-0.0004342084
-0.0001103883
-0.04232516
0.0003613559
-0.0003370035
-0.0418136
0.0004544228
-0.0002340236
-0.04163419
-0.0001595169
-0.0001585454
-0.04136932
1.936105e-05
-8.460702e-05
-0.0412411
-0.0003849901
-7.931961e-05
-0.04103861
-0.0003272116
0.0001297883
-0.04180315
-0.0005767481
0.0001230599
-0.04147639
-1.125228e-05
-0.04149862
-0.000183782
0.0002754936
-5.309529e-05
-0.008355593
9.063466e-05
0.002306147
0.0009783645
-0.0007939
-0.0002527664
-0.01040716
-0.00873338
-0.01049255
0.0004756999
-0.01078459
0.0009960926
-0.01049093
-0.01021807
-0.0113923
0.001100771
-0.01074454
0.006214898
-0.01096714
-0.01113612
-0.01156927
0.0005795224
-0.01133153
0.0104316
-0.01118666
-0.01158011
-0.01206981
0.0003290925
-0.01140805
0.01139884
-0.01140712
-0.01167092
-0.01227184
0.0001693054
-0.01153434
0.0115158
-0.01155206
-0.01161613
-0.01206156
2.976216e-05
-0.01162989
0.01220388
-0.01160435
-0.01160949
-0.01205731
9.061912e-05
-0.01189847
0.01111787
-0.01186864
-0.01219433
-0.01220384
0.0001093778
-0.01184889
0.01236034
-0.01170352
-0.01237509
-0.01173391
-0.011711
0.01199011
-0.01183368
-0.01188408
-0.01220514
0.0003483379
-9.906484e-05
0.0006380536
0.0002746561
-0.002664171
-0.001916421
-0.002635657
-0.001952991
-0.001238122
-0.0008738
0.0001748002
-0.009136224
0.000288759
-0.001398017
0.0004907361
-0.0002762549
-0.009466028
-9.49795e-05
-0.001229722
0.0001446538
-0.0001258219
-0.009890764
-0.0002298738
-0.00133721
-4.451649e-05
2.310272e-05
-0.00996718
-8.224462e-05
-0.001341642
-0.0001205854
1.205486e-05
-0.01004829
-3.586853e-05
-0.001392593
2.69566e-05
-0.0001513724
-0.01011435
1.481451e-06
-0.001309922
5.939389e-05
-6.993217e-05
-0.01024086
-0.0003371425
-0.001184908
2.024174e-05
0.0001657584
-0.01020207
-0.0006479081
-0.001285398
-6.701859e-05
-5.195975e-05
-0.01010105
-0.0002055672
1.045335e-11
-3.969146e-11
7.241538e-11
-6.749688e-12
-1.54954e-11
-2.110743e-11
-5.158886e-09
2.692441e-09
3.758434e-10
9.651694e-11
-1.418434e-11
1.712256e-10
7.809434e-11
5.534828e-10
6.135481e-10
5.510364e-10
6.802833e-10
-1.205198e-10
-1.282024e-10
-4.465982e-11
-3.476175e-10
-7.463828e-09
2.535277e-09
3.195795e-10
4.238857e-11
-1.026905e-10
1.401531e-10
-1.440251e-11
2.6648e-11
-1.772569e-10
-3.040278e-10
-1.615104e-10
-9.914411e-09
2.967304e-09
2.474392e-10
-6.495421e-12
-1.608412e-10
1.375835e-10
-7.474745e-11
-3.56178e-11
-3.155594e-10
-1.30785e-10
-1.787781e-10
-1.269431e-08
3.252153e-09
3.74512e-10
5.126392e-11
-2.074109e-10
1.616218e-10
-1.0935e-10
2.417461e-11
-3.507428e-10
-1.91978e-10
-2.253019e-10
-1.569009e-08
3.633578e-09
5.168534e-10
6.962373e-11
-2.558455e-10
1.522544e-10
-1.424553e-10
-4.639927e-12
-4.420165e-10
-2.832345e-10
-2.49052e-10
-1.903166e-08
3.975875e-09
5.928384e-10
1.019878e-10
-3.045148e-10
2.550515e-10
-1.767314e-10
1.110275e-11
-5.210286e-10
-3.039435e-10
-2.895352e-10
-2.268257e-08
4.348427e-09
7.92614e-10
1.254397e-10
-3.673138e-10
3.129364e-10
-2.223937e-10
3.004873e-11
-6.341694e-10
-3.215506e-10
-4.150355e-10
-2.6644e-08
4.691611e-09
7.013311e-10
1.540886e-10
-4.31153e-10
4.413584e-10
-2.435499e-10
1.282896e-10
-7.036867e-10
-3.3614e-10
-4.447771e-10
5.124646e-09
7.953698e-10
1.84519e-10
-5.5118e-10
5.774362e-10
-2.662186e-10
1.425338e-10
-7.692495e-10
-3.404022e-10
-5.556467e-10
-3.099034e-08
-4.940236e-11
-6.915404e-10
-1.236764e-10
8.757479e-10
5.936025e-11
-5.194129e-11
9.205147e-12
-2.853627e-11
-4.49381e-09
5.118581e-09
2.356789e-10
4.032957e-10
5.076445e-10
4.283288e-10
6.620811e-10
-7.125658e-09
5.249254e-09
9.592103e-11
-9.545625e-09
5.388416e-09
1.879059e-10
-1.208225e-08
5.782542e-09
1.979397e-10
-1.491426e-08
6.388643e-09
3.289769e-10
-1.80446e-08
6.966053e-09
4.016266e-10
-2.139916e-08
7.566746e-09
3.755481e-10
-2.500808e-08
8.215549e-09
2.946756e-10
9.117524e-09
3.170759e-10
-2.906064e-08
-7.530678e-11
-1.093324e-09
-1.155721e-10
1.293016e-09
8.861592e-11
-7.031473e-11
1.538736e-11
-4.317574e-11
-4.146233e-09
7.248562e-09
-3.458156e-12
4.100289e-10
5.402892e-10
4.324932e-10
5.94959e-10
-6.398938e-09
7.518119e-09
-7.719151e-11
-8.788096e-09
7.800974e-09
8.427207e-11
-1.128587e-08
8.227488e-09
1.933432e-10
-1.384586e-08
8.845155e-09
2.749906e-10
-1.661324e-08
9.580018e-09
3.436162e-10
-1.962777e-08
1.046042e-08
4.023629e-10
-2.299054e-08
1.149007e-08
4.25928e-10
1.277181e-08
4.776642e-10
-2.673441e-08
-1.166292e-10
-1.570581e-09
-1.006042e-11
1.716891e-09
1.506007e-10
-1.192625e-10
1.70232e-11
-6.86845e-11
-3.81989e-09
9.23298e-09
3.713368e-11
3.14014e-10
5.366552e-10
3.125476e-10
6.050509e-10
-5.859309e-09
9.558438e-09
-1.442939e-10
-7.972685e-09
9.906578e-09
3.04794e-11
-1.019556e-08
1.041968e-08
4.686443e-11
-1.25658e-08
1.115045e-08
1.080549e-10
-1.511597e-08
1.205343e-08
1.174463e-10
-1.789188e-08
1.313258e-08
1.397007e-10
-2.094326e-08
1.443492e-08
1.558381e-10
1.600979e-08
1.810579e-10
-2.431099e-08
-1.414537e-10
-1.958646e-09
2.542757e-11
2.090535e-09
1.693435e-10
-1.210435e-10
2.42411e-11
-8.93287e-11
-3.496234e-09
1.103371e-08
4.040952e-14
2.368151e-10
5.112253e-10
2.679239e-10
5.98882e-10
-5.344187e-09
1.141212e-08
-1.533118e-10
-7.274967e-09
1.185598e-08
-3.06081e-11
-9.298833e-09
1.242556e-08
7.90045e-12
-1.143769e-08
1.325329e-08
5.902634e-11
-1.372905e-08
1.428498e-08
8.854029e-11
-1.621466e-08
1.555446e-08
1.122868e-10
-1.893419e-08
1.708387e-08
1.293941e-10
1.890635e-08
1.502112e-10
-2.190667e-08
-1.665156e-10
-2.334002e-09
4.837295e-11
2.471817e-09
1.761684e-10
-1.244932e-10
1.573745e-11
-8.794905e-11
-3.165415e-09
1.266415e-08
-4.323827e-11
1.49119e-10
5.004666e-10
2.266331e-10
5.678311e-10
-4.801673e-09
1.309319e-08
-1.486601e-10
-6.499299e-09
1.359849e-08
-4.260655e-11
-8.294481e-09
1.423802e-08
-3.230086e-11
-1.02058e-08
1.516504e-08
5.19344e-12
-1.225276e-08
1.631979e-08
1.541282e-11
-1.445837e-08
1.773908e-08
2.6501e-11
-1.685238e-08
1.944975e-08
3.43641e-11
2.147909e-08
4.197237e-11
-1.946074e-08
-1.856129e-10
-2.703282e-09
4.75409e-11
2.775228e-09
2.016787e-10
-9.731346e-11
1.849681e-11
-5.743327e-11
-2.767011e-09
1.408279e-08
-1.207576e-10
8.538497e-11
4.943462e-10
1.448343e-10
5.423293e-10
-4.226587e-09
1.458567e-08
-1.089149e-10
-5.720612e-09
1.512606e-08
-6.5196e-11
-7.297374e-09
1.583139e-08
-3.691976e-11
-8.959844e-09
1.683556e-08
-1.290731e-11
-1.073428e-08
1.809112e-08
2.120918e-12
-1.263869e-08
1.963503e-08
1.241453e-11
-1.468286e-08
2.14828e-08
1.860261e-11
2.366978e-08
2.558093e-11
-1.688831e-08
-1.999122e-10
-2.986326e-09
4.410475e-11
3.041987e-09
2.093407e-10
-9.104836e-11
3.116875e-11
-4.990514e-11
-2.371347e-09
-1.452131e-10
3.639507e-11
4.723089e-10
8.312584e-11
5.100972e-10
1.528106e-08
-3.606158e-09
-8.886543e-11
1.585974e-08
-4.870094e-09
-6.359711e-11
1.641689e-08
-6.204081e-09
-3.397579e-11
1.718777e-08
-7.613485e-09
-1.781837e-11
1.825632e-08
-9.114071e-09
-4.471198e-12
1.959383e-08
-1.070847e-08
-1.599814e-12
2.123014e-08
-1.241204e-08
6.762147e-12
2.317893e-08
6.734865e-12
-1.422533e-08
2.547657e-08
0.0006968254
6.284791e-05
-0.001137121
-0.0100357
-3.185702e-05
-2.116405e-05
0.0006942641
-1.791919e-05
-0.0007607996
-0.04033358
-0.0002251641
0.002438099
-0.0004208317
0.002441627
-0.0003822409
1.213083e-05
-0.0404076
-0.000315835
2.912543e-05
-0.04077715
-0.0003414488
2.249377e-05
-0.04059055
-0.0004148995
1.187589e-05
-0.04062192
-0.0004114365
1.45674e-05
-0.04057025
-0.0004254174
1.398326e-05
-0.04053763
-0.0004229938
-0.0405042
-0.0004232395
1.638259e-05
0.002078324
4.371827e-05
-0.0006491533
-0.008485638
-1.826748e-05
0.002481998
0.002075997
0.002473023
-0.0006889947
-0.04020956
-0.0004001299
0.0100125
0.01022253
0.009988067
0.01010009
0.0005344448
-0.0004682796
0.0005353008
-0.0004466606
-0.0001244152
-0.04109028
-0.0005685165
2.40659e-05
-0.04074406
-0.000609304
6.192331e-05
-0.04100733
-0.0007906479
3.867363e-05
-0.04076863
-0.0007190583
4.126019e-05
-0.04081839
-0.000789407
3.713245e-05
-0.04079439
-0.0007869423
4.580677e-05
-0.04075463
-0.0007892229
-0.04073041
-0.0007847345
5.472131e-05
-0.001004336
-0.03635133
-0.0002318536
0.008400692
0.01034487
0.008387222
0.01023577
-0.000234316
-0.04096087
2.091158e-06
-0.000335881
-0.04122527
-0.0004409989
-7.53991e-05
-0.04121132
-0.0006275557
-6.79632e-05
-0.04114056
-0.0007088626
1.759029e-05
-0.04101665
-0.0007536982
2.945832e-05
-0.04100272
-0.0007716373
5.260479e-05
-0.04096492
-0.0007871936
6.835646e-05
-0.04093203
-0.0007799677
-0.04090428
-0.0007814621
8.665732e-05
-0.0008198523
-0.03526662
7.959337e-05
-0.0003542876
-0.04143054
-5.392428e-05
-0.0001777451
-0.04139251
-0.0001819849
-4.013779e-05
-0.04130439
-0.0003026613
-1.98753e-06
-0.04108621
-0.0003812764
3.970402e-05
-0.04095704
-0.0004246225
5.397665e-05
-0.04093045
-0.0004382642
7.507507e-05
-0.04087745
-0.0004437001
9.641486e-05
-0.04086808
-0.0004356674
-0.04082883
-0.0004418741
0.0001205853
2.74599e-05
-0.03533545
-3.854246e-06
-2.612971e-05
-0.04134482
-3.705944e-05
-1.018244e-05
-0.04138823
-6.519338e-05
5.057706e-05
-0.04132715
-0.0001002935
1.26345e-05
-0.04097859
-0.0001320785
3.708741e-05
-0.04093512
-0.0001199145
7.274206e-05
-0.04092473
-0.0001153886
8.519078e-05
-0.04086022
-0.0001098414
0.0001235498
-0.04086582
-0.0001232003
-0.04080453
-0.0001305568
0.0001505423
1.085596e-05
-0.0352439
3.256989e-05
0.000117228
-0.04139373
4.844306e-05
0.0001086035
-0.0413148
0.000140857
0.0001131032
-0.04121271
0.0001198717
6.308024e-05
-0.04082559
0.0001582743
7.066745e-05
-0.04086948
0.0001963908
0.000107458
-0.04091282
0.0002389217
9.892192e-05
-0.04079868
0.0002326572
0.0001581768
-0.04088541
0.000242311
-0.04077721
0.0002310114
0.0001804377
-2.849065e-05
-0.03511098
-0.0001013962
-6.886584e-05
-0.04123205
-8.401776e-05
-2.89088e-05
-0.04137295
7.064396e-05
1.365768e-05
-0.04127736
8.169244e-05
3.166527e-05
-0.04090025
0.0001471422
5.184959e-05
-0.04095132
0.000217358
9.329282e-05
-0.04097679
0.0002117629
7.848465e-05
-0.04075984
0.0001092686
0.0001688069
-0.04091261
9.975602e-05
-0.04072215
5.403166e-05
0.000202368
0.0004405176
-0.0353107
5.811074e-05
0.001177026
-0.04178507
0.0002719744
0.0009976321
-0.04088941
0.001118537
0.0006388113
-0.0406149
0.001638901
0.0003921915
-0.04035272
0.001897951
0.0002339868
-0.04038184
0.001991854
0.0001651674
-0.04040123
0.001950466
6.578067e-05
-0.04012137
0.001796965
0.0002018746
-0.04047696
0.001801362
-0.0401424
0.001729172
0.0002384056
0.0007467858
-0.03579865
-0.0002471254
0.0002072388
-0.04072596
-0.0001582152
-0.0002149812
-0.04036569
0.0003529193
-0.0005963903
-0.04012225
-0.0002707581
-0.0005278064
-0.0400521
-0.0003498397
-0.0003452121
-0.04031539
-0.0006340357
-6.959286e-05
-0.04042673
-0.0005773309
-3.188949e-06
-0.04001996
-0.0007445598
0.0002580661
-0.04038652
-0.0003629423
-0.0398247
-0.0005104101
0.0002669991
0.003163195
-0.008956396
0.0005451532
-0.0107478
-0.00897943
-0.01073275
0.005629949
-0.01040257
0.001289168
-0.01108608
-0.01054811
-0.01144903
0.003817761
-0.0363956
0.004056997
0.00188838
-0.0370905
0.009329228
0.00122722
-0.03923216
0.01124005
0.0009969302
-0.04084198
0.01227269
0.001044081
-0.04178967
0.01351967
0.0004542269
-0.04147941
0.01316718
0.0005636766
-0.04248753
0.01435191
-0.04158465
0.01414769
0.0001660559
-0.0001582138
0.0005618181
0.0001104908
-0.002755758
-0.001982315
-0.00270817
-0.002024251
-0.0009808188
0.0004226834
-0.0003437634
-0.009317827
-0.0001828491
-0.004101697
-0.00374577
0.002343876
0.002230306
-0.0003753979
-0.0009916544
0.002560659
-0.0003708869
0.00230162
-0.0008960089
-0.002707166
-0.007450132
0.002956318
0.003102293
-0.0003451895
-0.0003460288
-0.001841382
-0.009241887
0.003041884
0.003273089
-0.0002202104
-0.0001696499
-0.001103891
-0.01062338
0.0030767
0.003185624
-0.0002434694
-0.0001486705
-0.0005579558
-0.01146344
0.003098125
0.003222224
-0.0002579372
-0.0001010831
-0.0006390931
-0.01174372
0.00328355
0.003931574
-0.000142963
0.0001125213
-0.0005669333
-0.01223732
0.003616641
0.003018652
0.0001429453
-0.0002595
-0.01220813
0.003171137
0.003556835
-4.254298e-05
0.0001864783
2.642975e-05
7.273456e-12
-2.966479e-11
-1.362082e-11
6.973794e-11
-1.538849e-11
-1.844077e-11
-4.34548e-09
1.919839e-09
9.308527e-12
5.430045e-10
5.99261e-10
5.564622e-10
5.726094e-10
1.063333e-10
1.25005e-10
9.656452e-11
1.924593e-10
-6.052438e-09
1.865231e-09
1.609863e-10
-8.017258e-09
2.234935e-09
-2.261156e-11
-1.008207e-08
2.434648e-09
4.317822e-12
-1.244205e-08
2.741674e-09
1.353021e-10
-1.506828e-08
3.008161e-09
2.107115e-10
-1.784652e-08
3.29757e-09
2.731469e-10
-2.086053e-08
3.604726e-09
1.099164e-10
4.023781e-09
1.689689e-10
-2.425841e-08
-1.687377e-09
4.516162e-09
1.048439e-10
-6.734044e-10
-8.465534e-10
-7.182072e-10
-6.310905e-10
-1.01288e-10
-1.446533e-10
1.549407e-10
2.610288e-11
-4.542839e-09
4.881054e-09
1.296749e-10
-7.261442e-09
4.606941e-09
7.27499e-11
-9.786009e-09
4.878017e-09
6.922414e-11
-1.245607e-08
5.219029e-09
8.366392e-11
-1.523115e-08
5.720692e-09
1.248293e-10
-1.825933e-08
6.27676e-09
1.60984e-10
-2.160514e-08
6.855356e-09
1.629222e-10
-2.537993e-08
7.542236e-09
1.308567e-10
8.395813e-09
1.536455e-10
-2.958968e-08
-1.681985e-09
6.170033e-09
-1.415961e-10
-1.886944e-10
-4.433997e-11
2.706069e-10
1.315373e-10
-3.898611e-09
7.125117e-09
-3.141114e-11
-6.542682e-09
7.245142e-09
-7.169092e-11
-9.114695e-09
7.486659e-09
4.724444e-11
-1.176422e-08
7.927279e-09
1.339852e-10
-1.453017e-08
8.553464e-09
2.075838e-10
-1.748623e-08
9.298741e-09
2.769272e-10
-2.069268e-08
1.01686e-08
2.943887e-10
-2.422656e-08
1.118602e-08
3.144206e-10
1.245088e-08
3.546121e-10
-2.816049e-08
-1.664497e-09
7.803768e-09
-5.217342e-11
-2.962417e-10
-9.361903e-11
3.212484e-10
1.50469e-10
-3.685009e-09
9.163012e-09
1.892326e-11
-5.949522e-09
9.414285e-09
-4.983883e-11
-8.254138e-09
9.787231e-09
3.351154e-11
-1.065233e-08
1.028621e-08
8.498443e-11
-1.316121e-08
1.101902e-08
1.50289e-10
-1.584092e-08
1.192124e-08
1.733673e-10
-1.875026e-08
1.301466e-08
2.015225e-10
-2.19515e-08
1.432528e-08
2.15806e-10
1.591058e-08
2.486638e-10
-2.548082e-08
-1.546022e-09
9.280186e-09
-2.329424e-11
-3.444293e-10
-1.104426e-10
3.781922e-10
1.680895e-10
-3.348434e-09
1.098877e-08
-2.421304e-11
-5.351298e-09
1.135467e-08
-9.183197e-11
-7.411339e-09
1.184568e-08
-3.04731e-11
-9.562595e-09
1.243032e-08
1.376168e-11
-1.18183e-08
1.326267e-08
6.946077e-11
-1.421821e-08
1.430526e-08
1.02969e-10