/*--------------------------------*- C++ -*----------------------------------*\
  =========                 |
  \\      /  F ield         | OpenFOAM: The Open Source CFD Toolbox
   \\    /   O peration     | Website:  https://openfoam.org
    \\  /    A nd           | Version:  7
     \\/     M anipulation  |
\*---------------------------------------------------------------------------*/
FoamFile
{
    version     2.0;
    format      ascii;
    class       volVectorField;
    location    "0.01";
    object      U;
}
// * * * * * * * * * * * * * * * * * * * * * * * * * * * * * * * * * * * * * //

dimensions      [0 1 -1 0 0 0 0];

internalField   nonuniform List<vector> 
53911
(
(-0.2472717 -0.01508624 -0.001753641)
(-0.2480089 -0.02068632 -0.002870802)
(-0.2421944 -0.01442445 -0.001179749)
(-0.2406538 -0.01630478 -0.001865809)
(-0.2358414 -0.0184739 -0.002679983)
(-0.2276242 -0.02099984 -0.003253614)
(-0.2152168 -0.02304181 -0.003553429)
(-0.2000312 -0.02502368 -0.003814321)
(-0.1815601 -0.02552548 -0.003207114)
(-0.1583304 -0.02820003 -0.004512208)
(-0.1304578 -0.02894874 -0.004755545)
(-0.09932581 -0.03009094 -0.004920158)
(-0.06577886 -0.02779797 -0.003008512)
(-0.03191332 -0.02785609 0.0002070576)
(-0.2420138 0.01038199 -0.01002517)
(-0.2529506 -0.01187632 -0.0006319475)
(-0.232564 -0.004461669 0.001288173)
(-0.2354656 -0.01529997 0.001667436)
(-0.224442 -0.01817635 0.0001073556)
(-0.2164523 -0.02421852 -0.0004568387)
(-0.204148 -0.03006128 -0.0009501219)
(-0.1896423 -0.03688436 -0.001324186)
(-0.1716245 -0.04435647 -0.001683015)
(-0.1496245 -0.05267119 -0.002061067)
(-0.1237269 -0.06068336 -0.002639548)
(-0.09252358 -0.06910706 -0.002486241)
(-0.05929115 -0.07501632 -0.0007991257)
(-0.02395947 -0.06423912 0.001064493)
(-0.2444222 -0.001978198 -0.01682671)
(-0.2623188 -0.01214546 -0.01066915)
(-0.2342362 -0.0138884 -0.003829746)
(-0.2395295 -0.01947455 8.132601e-06)
(-0.2295185 -0.02517686 -0.0004996117)
(-0.22311 -0.03221587 -0.0003224941)
(-0.2119391 -0.04021578 -0.0005837921)
(-0.1983836 -0.04946676 -0.0007384145)
(-0.1812597 -0.0600237 -0.000973491)
(-0.159721 -0.07184849 -0.001027763)
(-0.1340728 -0.08415813 -0.00121962)
(-0.1015511 -0.09690249 0.0005246182)
(-0.06892322 -0.1059258 0.002138116)
(-0.02101822 -0.1019831 0.002995081)
(-0.2487259 -0.002813239 -0.01745719)
(-0.2687741 -0.01164642 -0.00804643)
(-0.2420322 -0.01664831 -0.002615816)
(-0.24879 -0.02453762 0.001108033)
(-0.2383545 -0.03232461 0.0001068687)
(-0.2329069 -0.04180916 0.0002020706)
(-0.2229299 -0.05274658 4.185991e-05)
(-0.2108967 -0.06558545 1.848537e-05)
(-0.19524 -0.08041764 -7.715542e-05)
(-0.1747424 -0.09731331 -2.42089e-05)
(-0.1495283 -0.1156276 -0.0003391149)
(-0.1156333 -0.1346569 0.001441094)
(-0.07862938 -0.1500305 0.002331063)
(-0.01926893 -0.1494693 0.001836133)
(-0.254179 -0.004831449 -0.0186461)
(-0.275303 -0.01359649 -0.01051782)
(-0.2469975 -0.02101043 -0.003360269)
(-0.2565925 -0.02912658 0.0006701495)
(-0.2470439 -0.03810097 -0.0003038669)
(-0.2437773 -0.04910864 6.763818e-05)
(-0.2358414 -0.062179 -7.238731e-05)
(-0.2261857 -0.07788019 -0.0001133294)
(-0.2131207 -0.09653522 -0.0002295574)
(-0.1949767 -0.118551 -9.369508e-05)
(-0.1714839 -0.1435445 -0.0004961763)
(-0.1369915 -0.1711437 0.001967553)
(-0.09734239 -0.194935 0.002952292)
(-0.02223091 -0.2033316 0.002089578)
(-0.2617589 -0.007269307 -0.01728088)
(-0.2833048 -0.01438775 -0.01026446)
(-0.2560288 -0.02223687 -0.003165792)
(-0.2664174 -0.03175812 0.0007536594)
(-0.2584227 -0.04190965 -0.0001234382)
(-0.2570594 -0.05453643 0.0001196724)
(-0.2516834 -0.06968521 -3.145257e-05)
(-0.2452969 -0.08825517 -2.816036e-05)
(-0.2360066 -0.1110617 -0.0001581987)
(-0.221806 -0.1390724 -4.180674e-05)
(-0.2021863 -0.1728635 -0.0005825074)
(-0.1684956 -0.2125348 0.002210773)
(-0.1277055 -0.2526099 0.003554612)
(-0.03099668 -0.2659798 0.002127849)
(-0.269181 -0.005666929 -0.01678435)
(-0.2915909 -0.01454744 -0.01096641)
(-0.2639678 -0.02311974 -0.003424774)
(-0.2764736 -0.03302815 0.0006476721)
(-0.270034 -0.04371021 -0.0002754655)
(-0.2715605 -0.05708699 0.0001084601)
(-0.2695722 -0.07337408 -5.32454e-05)
(-0.267622 -0.09375719 -5.167037e-05)
(-0.2639839 -0.1195215 -0.0002206767)
(-0.256845 -0.1525171 -5.935943e-05)
(-0.2451178 -0.1946071 -0.000885826)
(-0.2190099 -0.2498638 0.003846243)
(-0.1808201 -0.311382 0.00446268)
(-0.0569223 -0.3504697 0.002358858)
(-0.2756586 -0.004293971 -0.01962261)
(-0.3003535 -0.01448241 -0.01113006)
(-0.2729138 -0.02263853 -0.00341192)
(-0.2868528 -0.03244741 0.0006264205)
(-0.2823735 -0.04307695 -0.0002416224)
(-0.2866335 -0.05654985 0.0001122164)
(-0.2883448 -0.07307954 -5.80724e-05)
(-0.2914452 -0.09418528 -6.963555e-05)
(-0.2948439 -0.1216986 -0.0002429843)
(-0.2968614 -0.1587863 -0.0002711641)
(-0.299889 -0.2099901 -0.0007990652)
(-0.2910735 -0.2842539 0.002512173)
(-0.2857265 -0.3976673 0.01175875)
(-0.1402879 -0.4780508 0.001945012)
(-0.2826782 -0.005534705 -0.02000943)
(-0.3084083 -0.01352589 -0.01175153)
(-0.2809863 -0.02109784 -0.003534166)
(-0.2968731 -0.0301437 0.0005851556)
(-0.2940446 -0.04003748 -0.0003112394)
(-0.3014135 -0.05248772 0.0001221286)
(-0.3071604 -0.06776181 -6.072123e-05)
(-0.3162886 -0.08724984 -7.409526e-05)
(-0.3286067 -0.1127874 -0.000284857)
(-0.3456328 -0.1474276 -0.0003172338)
(-0.3709304 -0.1961469 -0.001489474)
(-0.4087194 -0.2694351 0.004122416)
(-0.471651 -0.3826717 0.01609789)
(-0.3755277 -0.6566385 0.03258345)
(-0.288555 -0.005260605 -0.02149286)
(-0.3155024 -0.01185507 -0.01240957)
(-0.2885501 -0.01843292 -0.003536058)
(-0.3058079 -0.02620574 0.0005339472)
(-0.3045234 -0.03466725 -0.0003077056)
(-0.3142132 -0.04515361 0.0001317884)
(-0.3230688 -0.05767426 -4.813314e-05)
(-0.3364726 -0.07309829 -4.937583e-05)
(-0.3550731 -0.09226458 -0.0001994286)
(-0.3804458 -0.1165708 -0.0002251858)
(-0.4220709 -0.1452151 -0.0007755936)
(-0.4751554 -0.1863397 0.003272742)
(-0.5980561 -0.2176078 0.01592678)
(-0.6725627 -0.2998884 0.02349152)
(-1.065738 0.01661769 -0.02238895)
(-0.8521003 0.2901262 0.05746283)
(-0.7532767 0.3764425 0.07126868)
(-0.673838 0.4214743 0.0713277)
(-0.6039477 0.4312934 0.07667052)
(-0.5431889 0.4314881 0.07768601)
(-0.2939802 -0.004551265 -0.02187802)
(-0.3215465 -0.00979715 -0.01279159)
(-0.2949072 -0.01488027 -0.003527534)
(-0.313194 -0.02104123 0.0004764281)
(-0.3128817 -0.02767404 -0.0003532904)
(-0.3242683 -0.03563481 0.0001374011)
(-0.3350665 -0.04479586 -4.562481e-05)
(-0.350861 -0.05545887 -5.308951e-05)
(-0.3721117 -0.0677487 -0.0001890609)
(-0.4004263 -0.08112978 -0.0003126117)
(-0.4418622 -0.0947342 -0.0009125038)
(-0.4969715 -0.1030741 0.0006517305)
(-0.5839902 -0.1042359 0.007357347)
(-0.700053 -0.03674513 0.005530774)
(-0.7490821 0.1008884 -0.0002268331)
(-0.7073831 0.2443032 -0.01964271)
(-0.6566324 0.320096 -0.009073956)
(-0.6032368 0.3710383 -0.009945201)
(-0.5552467 0.4037592 -0.01081532)
(-0.5090085 0.4197724 -0.008208107)
(-0.299654 -0.005765199 -0.01956273)
(-0.3260631 -0.007189106 -0.01301024)
(-0.2996568 -0.01072053 -0.003612586)
(-0.3186643 -0.01505347 0.0003968459)
(-0.3189469 -0.01961968 -0.0003671555)
(-0.3312046 -0.02484402 0.0001488946)
(-0.3428677 -0.03051644 -2.585411e-05)
(-0.3594219 -0.03651302 -1.763857e-05)
(-0.3807478 -0.04249457 -7.959091e-05)
(-0.4081135 -0.04719479 -0.000122059)
(-0.4445971 -0.04937743 -0.0002698723)
(-0.4897244 -0.04306389 0.0005511809)
(-0.5483116 -0.02631969 0.001450413)
(-0.6148365 0.02386768 0.003280745)
(-0.6497527 0.1241177 0.004419965)
(-0.6391319 0.1992682 0.009112567)
(-0.6083886 0.2589311 0.009498789)
(-0.5727053 0.3023721 0.01175528)
(-0.5361494 0.3331996 0.01200922)
(-0.4992502 0.3540467 0.01189254)
(-0.3024758 -0.002663943 -0.0191313)
(-0.3291141 -0.004064296 -0.01325686)
(-0.3028665 -0.006180899 -0.003642292)
(-0.3220365 -0.008620782 0.0002723311)
(-0.3225583 -0.01110286 -0.0003595795)
(-0.3350285 -0.01363979 0.0001614883)
(-0.346703 -0.01605501 -1.246995e-05)
(-0.3628224 -0.01796711 -8.196476e-06)
(-0.3827778 -0.01882722 -5.536256e-05)
(-0.4073493 -0.01733367 -0.0001106454)
(-0.4380379 -0.01217818 -0.0002798197)
(-0.4737604 0.0005381938 -0.0003646256)
(-0.514058 0.02320669 -0.0009602011)
(-0.5574644 0.06502807 -0.001608824)
(-0.5803962 0.1277203 -0.001134888)
(-0.5770188 0.1884699 -0.003774231)
(-0.5608033 0.2380903 -0.004472094)
(-0.5369134 0.2766551 -0.004309679)
(-0.5102147 0.3055497 -0.004339695)
(-0.4816844 0.3261149 -0.004379151)
(-0.3039362 -0.001469808 -0.01923842)
(-0.3304419 -0.0009846209 -0.01333103)
(-0.3042782 -0.001600231 -0.00362873)
(-0.3233191 -0.002137412 0.0001720579)
(-0.3238202 -0.002604563 -0.000332516)
(-0.3360205 -0.002659824 0.0001722187)
(-0.3471605 -0.00223743 8.272191e-07)
(-0.3621808 -0.0008133458 5.75573e-06)
(-0.3800951 0.002180499 -2.339335e-05)
(-0.4014249 0.007870635 -5.12431e-05)
(-0.4264923 0.01732155 -0.0001149974)
(-0.4543466 0.03331208 -0.0001694497)
(-0.4835529 0.05676879 -0.0002887289)
(-0.5113338 0.09185273 -0.0001905236)
(-0.5276673 0.1391709 0.0001228318)
(-0.5289002 0.1847304 0.0003101357)
(-0.5203268 0.2252729 0.0002427623)
(-0.5053895 0.2583555 0.0003554901)
(-0.486928 0.2839084 0.0003904191)
(-0.4659003 0.3024479 0.000303188)
(-0.3045603 -8.049073e-05 -0.01883478)
(-0.3296746 0.002212408 -0.01372252)
(-0.3038525 0.002947013 -0.003577898)
(-0.3224996 0.004183766 7.290851e-05)
(-0.3229354 0.005571348 -0.0002764254)
(-0.3345208 0.0077052 0.0001762575)
(-0.3448172 0.01050925 1.368485e-05)
(-0.358395 0.01457764 1.384466e-05)
(-0.3740762 0.02040892 -1.212064e-05)
(-0.3921694 0.02888353 -3.137532e-05)
(-0.4125417 0.04085862 -6.894633e-05)
(-0.434197 0.05786929 -0.000104484)
(-0.4558339 0.08065749 -0.0001885435)
(-0.4754024 0.1104768 -0.0002381373)
(-0.4877109 0.1465813 -0.0001607067)
(-0.4908706 0.1828234 -0.0003798111)
(-0.4871157 0.2160335 -0.0004216252)
(-0.478231 0.2442731 -0.0003947226)
(-0.4661161 0.2667087 -0.0003698219)
(-0.4515808 0.2830383 -0.0003897108)
(-0.3041412 0.002772225 -0.02099926)
(-0.3276078 0.004979307 -0.01392421)
(-0.3019587 0.00731674 -0.003481581)
(-0.3199042 0.01014214 -4.277922e-05)
(-0.3201988 0.01323983 -0.000200601)
(-0.3309105 0.01724293 0.000160462)
(-0.3402394 0.02198413 2.772498e-05)
(-0.3522786 0.02809201 2.261056e-05)
(-0.3657937 0.03596014 -2.182803e-06)
(-0.3809926 0.04621469 -1.149294e-05)
(-0.3975106 0.05948021 -2.626575e-05)
(-0.4145665 0.07667678 -3.768766e-05)
(-0.4310523 0.098062 -4.910555e-05)
(-0.445488 0.1240572 -3.86472e-05)
(-0.4552979 0.1538194 -7.578504e-07)
(-0.4594086 0.1839209 -1.293089e-05)
(-0.4588412 0.2121848 -1.277938e-05)
(-0.4546784 0.2368056 4.386031e-06)
(-0.4481349 0.2566385 1.507819e-05)
(-0.4397714 0.2707613 2.143374e-05)
(-0.2989029 0.001820115 -0.02201982)
(-0.3243183 0.007448096 -0.01371281)
(-0.2985295 0.01133586 -0.003488075)
(-0.3155494 0.01569436 -0.0003547877)
(-0.3159181 0.02027124 -0.0001046793)
(-0.325626 0.02579157 0.0001394318)
(-0.333903 0.03211779 4.081602e-05)
(-0.3444412 0.03977497 3.310062e-05)
(-0.3559698 0.04907366 7.928459e-06)
(-0.3686571 0.06047056 1.588512e-06)
(-0.3820892 0.07440076 -7.244251e-06)
(-0.3956428 0.09136793 -1.264995e-05)
(-0.4084976 0.1114946 -1.693794e-05)
(-0.4196755 0.1347589 -1.688788e-05)
(-0.4278499 0.1604181 -2.638645e-06)
(-0.4324971 0.1865208 -1.845725e-05)
(-0.4342203 0.211426 -1.837259e-05)
(-0.4337583 0.2335853 -1.20854e-05)
(-0.4321379 0.2517487 -3.098806e-05)
(-0.4298009 0.2642332 -4.166492e-05)
(-0.2945335 0.002638885 -0.02152266)
(-0.3199615 0.009741333 -0.01287481)
(-0.2938053 0.01499443 -0.003526443)
(-0.3103471 0.02063388 -0.0002144363)
(-0.3102744 0.0265738 -4.89607e-05)
(-0.3189571 0.033346 0.0001411274)
(-0.3262066 0.04095036 5.221429e-05)
(-0.3353369 0.04978771 4.152722e-05)
(-0.3451095 0.06009985 1.397368e-05)
(-0.3556771 0.07221254 6.908844e-06)
(-0.3666298 0.08642479 2.270023e-06)
(-0.3774943 0.1030269 7.739541e-07)
(-0.3876861 0.1220591 4.111605e-07)
(-0.3965841 0.1434117 2.748666e-06)
(-0.4035433 0.1665251 8.695849e-06)
(-0.4083997 0.1902268 6.338561e-06)
(-0.4117713 0.2133645 1.929347e-06)
(-0.4143572 0.2345449 9.233874e-06)
(-0.4174984 0.2526343 -3.103606e-05)
(-0.4217477 0.2651739 6.509299e-05)
(-0.2906785 0.001257941 -0.01834462)
(-0.3140001 0.01188351 -0.01241641)
(-0.2879267 0.01827947 -0.00359959)
(-0.3041433 0.02506334 5.860526e-05)
(-0.3033663 0.03210715 -4.158755e-05)
(-0.3111766 0.03995476 0.0001586064)
(-0.317438 0.0485848 5.636001e-05)
(-0.3253093 0.05831451 4.441717e-05)
(-0.3335612 0.06933363 1.696796e-05)
(-0.3423484 0.08187708 9.632042e-06)
(-0.3512901 0.09615646 6.116834e-06)
(-0.3600233 0.1123553 5.020489e-06)
(-0.3681286 0.1305114 5.657441e-06)
(-0.3752223 0.1505456 8.010605e-06)
(-0.3810426 0.1721309 7.678996e-06)
(-0.385661 0.1946132 6.099077e-06)
(-0.3899008 0.2172924 -1.349695e-05)
(-0.3945018 0.2390184 -7.258436e-06)
(-0.4017535 0.258783 -0.0001401751)
(-0.4118279 0.2732149 0.0001426762)
(-0.2848671 0.004232009 -0.01719639)
(-0.3069525 0.0140658 -0.01196244)
(-0.2811855 0.02121571 -0.003536541)
(-0.2966775 0.02896113 0.0001911505)
(-0.2953887 0.03694178 -6.419998e-05)
(-0.3024511 0.04570527 0.000168774)
(-0.3078311 0.05515567 5.64091e-05)
(-0.3146059 0.06556098 4.391643e-05)
(-0.3215641 0.07706307 1.801817e-05)
(-0.3288682 0.08983614 9.772161e-06)
(-0.336164 0.1040358 6.589894e-06)
(-0.3431514 0.1197999 5.668632e-06)
(-0.3495064 0.1372006 5.372654e-06)
(-0.3549732 0.1562641 6.905296e-06)
(-0.3594829 0.176922 3.043531e-06)
(-0.3632421 0.198992 -1.371287e-06)
(-0.3673649 0.2223364 -4.033531e-05)
(-0.3728388 0.2463265 -1.91375e-05)
(-0.3832587 0.2710001 -0.0002530159)
(-0.4008991 0.2915859 0.0005144163)
(-0.2782954 0.005048302 -0.01652258)
(-0.2988228 0.01587759 -0.01168764)
(-0.2734128 0.02380593 -0.00349646)
(-0.2882456 0.03239706 0.0002946872)
(-0.2865958 0.0411971 -7.251485e-05)
(-0.2929608 0.05070224 0.0001698701)
(-0.2975779 0.06081084 5.45758e-05)
(-0.3034202 0.0717237 4.330969e-05)
(-0.3093014 0.08354045 1.831903e-05)
(-0.3153876 0.0963892 1.033902e-05)
(-0.3213362 0.1103854 7.64934e-06)
(-0.3268665 0.1256421 5.748816e-06)
(-0.3316714 0.1422786 5.235569e-06)
(-0.3355086 0.160446 3.689563e-06)
(-0.3383221 0.1803417 -3.26085e-06)
(-0.3402518 0.2022782 -1.171717e-05)
(-0.3425693 0.2267848 -8.326516e-05)
(-0.3457744 0.2543626 -6.915884e-05)
(-0.3556851 0.2856175 -0.0003782469)
(-0.3702856 0.3230231 0.001292962)
(-0.2482259 0.01003577 -0.005167094)
(-0.2478099 -0.0177327 -0.0112143)
(-0.228714 -0.01632489 0.00320095)
(-0.2255348 -0.007298802 -0.002517093)
(-0.2201989 -0.004190915 0.0008096448)
(-0.2114834 -0.005869147 -5.982746e-05)
(-0.1993243 -0.007430861 9.873522e-05)
(-0.1843479 -0.009387093 -6.022385e-05)
(-0.1658841 -0.01165936 -0.0001633889)
(-0.1437267 -0.01421757 -0.00051253)
(-0.1170637 -0.01678219 1.333431e-05)
(-0.08814818 -0.01687967 -0.001041316)
(-0.06220101 -0.02689786 0.0006793837)
(-0.02842873 -0.02365808 0.0003988357)
(-0.2272414 -0.003224397 0.003386263)
(-0.2402392 0.0006971922 0.01016446)
(-0.2411913 -0.003026764 0.003443043)
(-0.2384257 -0.01169432 0.00302243)
(-0.2280108 -0.01603308 0.0008785249)
(-0.2183369 -0.02104204 0.000391473)
(-0.2056136 -0.02638748 -5.924002e-05)
(-0.1906278 -0.03228551 -0.0004058513)
(-0.1722586 -0.03886622 -0.000633885)
(-0.1503242 -0.04604627 -0.0007882183)
(-0.1242102 -0.05357327 -0.001422815)
(-0.09388767 -0.06297353 -0.001344452)
(-0.05588108 -0.07215552 -0.003347444)
(-0.01660742 -0.07927635 -0.001547359)
(-0.2394105 0.004101149 -0.01825679)
(-0.250208 -0.01132009 -0.002714104)
(-0.2415846 -0.01620993 -0.002474536)
(-0.2385326 -0.02042476 0.0007310672)
(-0.2306289 -0.0251985 -0.0004438299)
(-0.2227243 -0.03161994 -0.0002137863)
(-0.2115937 -0.03933152 -0.0004746592)
(-0.1978422 -0.04837992 -0.0006148622)
(-0.1805042 -0.05871512 -0.0007733159)
(-0.1590465 -0.07025405 -0.0007336918)
(-0.1325225 -0.08263956 -0.0006549023)
(-0.101205 -0.09529409 0.0001420597)
(-0.0621436 -0.1076654 -0.0006179525)
(-0.02021247 -0.1130972 0.001911618)
(-0.2405931 -0.001643797 -0.01718175)
(-0.2539529 -0.008929693 -0.0007965324)
(-0.2486907 -0.01541836 -0.002853107)
(-0.2469938 -0.02369644 0.001779233)
(-0.2393117 -0.03161401 -4.274683e-05)
(-0.2325834 -0.04102844 0.0004073583)
(-0.2226238 -0.05182551 0.0001237986)
(-0.2103684 -0.06445578 0.0001069467)
(-0.1945629 -0.07911901 2.019243e-05)
(-0.174426 -0.09585053 0.00015653)
(-0.1484372 -0.1143731 -0.000183514)
(-0.1160623 -0.1339549 0.0003938406)
(-0.072496 -0.1528709 -0.001618626)
(-0.02365979 -0.1611565 -0.0006146297)
(-0.2465377 -0.004371082 -0.0192754)
(-0.2622993 -0.01302392 -0.001977491)
(-0.2554022 -0.02042218 -0.004201204)
(-0.2545437 -0.02866685 0.001333586)
(-0.2483948 -0.0378889 -0.000481429)
(-0.2436346 -0.04882473 0.0001746117)
(-0.2357966 -0.0619048 -5.505865e-05)
(-0.2259607 -0.07756476 -4.315539e-05)
(-0.2126555 -0.09625242 -0.000131152)
(-0.1949083 -0.1182737 0.0001086592)
(-0.1701925 -0.1436987 -0.0002924729)
(-0.1377468 -0.1713464 0.0009762607)
(-0.08908655 -0.1993933 -0.001770071)
(-0.02995618 -0.2156217 0.0005383167)
(-0.2530502 -0.005417709 -0.01980133)
(-0.2695448 -0.01316728 -0.002043338)
(-0.2635936 -0.02136146 -0.004346309)
(-0.2640652 -0.03087467 0.001417006)
(-0.2595073 -0.04150476 -0.0005028321)
(-0.2568614 -0.05414304 0.0002444)
(-0.2517597 -0.06934418 1.848939e-05)
(-0.2452137 -0.08792218 5.543924e-05)
(-0.2357365 -0.1108095 -4.966107e-05)
(-0.2221064 -0.1388046 0.0001779333)
(-0.2012661 -0.173397 -0.0004181908)
(-0.1704612 -0.2124879 0.0006157954)
(-0.117682 -0.2598082 -0.002858452)
(-0.04470286 -0.2859303 -0.002322158)
(-0.2601315 -0.00525204 -0.02066615)
(-0.2775938 -0.01379068 -0.002243436)
(-0.2723039 -0.02227003 -0.004639229)
(-0.2741483 -0.03216556 0.001392029)
(-0.2714391 -0.04332374 -0.0005734781)
(-0.2714204 -0.05674609 0.0002062223)
(-0.2697272 -0.0731362 -1.707345e-05)
(-0.2676688 -0.09360112 3.416098e-05)
(-0.2638188 -0.1194268 -7.968049e-05)
(-0.2576084 -0.1527788 0.0002783151)
(-0.2440604 -0.1953207 -0.0005673871)
(-0.2231219 -0.2523642 0.001951576)
(-0.1643284 -0.3198942 -0.005702749)
(-0.07915157 -0.3894378 8.517439e-05)
(-0.2669974 -0.005201032 -0.021372)
(-0.285772 -0.01351061 -0.002533651)
(-0.2810836 -0.02181871 -0.004837199)
(-0.284488 -0.03159398 0.001438162)
(-0.2837249 -0.04272094 -0.0005773671)
(-0.2864908 -0.05618777 0.0002098297)
(-0.2885664 -0.07283157 -1.445863e-05)
(-0.2915822 -0.0940197 2.234186e-05)
(-0.2949617 -0.1216766 -8.108937e-05)
(-0.2977835 -0.1590636 -5.597207e-06)
(-0.3004706 -0.2113236 -0.0005966094)
(-0.2957334 -0.2868119 -0.0008003149)
(-0.2832104 -0.4049997 -0.00403679)
(-0.1019611 -0.4510419 -0.01098312)
(-0.2736612 -0.00488491 -0.02206426)
(-0.29346 -0.01255262 -0.002642789)
(-0.2895449 -0.02034658 -0.004994916)
(-0.2944045 -0.02938509 0.001484317)
(-0.2956095 -0.03968892 -0.0005810931)
(-0.3012499 -0.05214552 0.0002192743)
(-0.3073907 -0.06750855 -9.299753e-06)
(-0.3164567 -0.08706108 3.31435e-05)
(-0.3287796 -0.1126383 -8.373381e-05)
(-0.3470942 -0.1473902 9.46941e-05)
(-0.3720488 -0.1953361 -0.0006838842)
(-0.4178667 -0.2691306 0.0001287337)
(-0.4633113 -0.3856336 -0.006532637)
(-0.3939637 -0.6752291 -0.01745948)
(-0.2796679 -0.004253454 -0.02263623)
(-0.3004587 -0.01099414 -0.002697711)
(-0.2971261 -0.01779839 -0.005100571)
(-0.3032221 -0.02559177 0.001523892)
(-0.3060679 -0.03439189 -0.0005830559)
(-0.314001 -0.04485916 0.0002410596)
(-0.3232581 -0.05744713 2.072687e-05)
(-0.3365449 -0.0729191 8.374801e-05)
(-0.355129 -0.0920568 3.960878e-05)
(-0.3813502 -0.1164772 0.0002263196)
(-0.422272 -0.1458441 -0.0001247842)
(-0.4806369 -0.1878556 0.0004347428)
(-0.5903426 -0.2222022 -0.003610268)
(-0.6784743 -0.3066346 0.004447441)
(-1.07532 -0.02491477 0.02954705)
(-0.7795565 0.3667197 0.05837271)
(-0.7322634 0.4615108 0.04403067)
(-0.6439015 0.5011963 0.05865002)
(-0.5881411 0.5174957 0.06321224)
(-0.5296442 0.5287789 0.05366177)
(-0.2847744 -0.003673163 -0.02304939)
(-0.3062807 -0.008987186 -0.002642087)
(-0.3034288 -0.01442345 -0.00518207)
(-0.310465 -0.02058874 0.001546472)
(-0.3145141 -0.02744788 -0.0005941737)
(-0.3240242 -0.03540757 0.0002568161)
(-0.3352446 -0.04462169 3.222927e-05)
(-0.3509073 -0.05532597 8.070728e-05)
(-0.3722336 -0.0675832 3.228059e-05)
(-0.401121 -0.08096744 7.292125e-05)
(-0.4429836 -0.09391788 -0.0002961867)
(-0.5018448 -0.1033568 -0.0009653073)
(-0.5887824 -0.101462 -0.005572813)
(-0.7082629 -0.04118728 -0.01064055)
(-0.7805326 0.08534643 -0.006531364)
(-0.7458971 0.1933191 -0.03303677)
(-0.6746439 0.2721731 -0.03507378)
(-0.6100551 0.3060376 -0.03352296)
(-0.5585821 0.3384752 -0.03426138)
(-0.5141099 0.3580691 -0.03544548)
(-0.2888739 -0.002776039 -0.02332935)
(-0.3105718 -0.006557282 -0.002497241)
(-0.3081844 -0.01042932 -0.005209439)
(-0.315838 -0.0147608 0.001574479)
(-0.3206093 -0.01946547 -0.0006056552)
(-0.3309529 -0.02470284 0.0002776892)
(-0.3430197 -0.03040342 5.670878e-05)
(-0.3593874 -0.0364236 0.0001110656)
(-0.3807298 -0.04235024 0.0001012144)
(-0.4082368 -0.04699838 0.0001694518)
(-0.4446942 -0.04865671 0.0001118328)
(-0.4903962 -0.04223619 7.941057e-05)
(-0.5474486 -0.02152586 -0.0003867475)
(-0.612573 0.03196715 0.0001853622)
(-0.6442512 0.1277942 0.002133699)
(-0.635255 0.2241141 0.003833415)
(-0.6084061 0.2930093 0.005546766)
(-0.5702816 0.334058 0.004927248)
(-0.5358046 0.3673403 0.008263172)
(-0.4985677 0.3865911 0.005862757)
(-0.2915359 -0.001503946 -0.0234753)
(-0.3134815 -0.003830631 -0.002395746)
(-0.3112586 -0.006071598 -0.005235079)
(-0.3192239 -0.00849593 0.001612522)
(-0.3242706 -0.01101353 -0.0006057726)
(-0.3348094 -0.01357903 0.0002938873)
(-0.3468697 -0.01600305 6.591815e-05)
(-0.3627937 -0.01794049 0.0001070424)
(-0.3827792 -0.01878604 7.886286e-05)
(-0.4074644 -0.01728987 8.013069e-05)
(-0.4382646 -0.01195298 -1.13921e-05)
(-0.4745226 0.0008850724 -9.486689e-05)
(-0.5154699 0.02411272 -0.0005103864)
(-0.5577992 0.06480002 -0.001296006)
(-0.5828086 0.1254487 -0.0007865497)
(-0.5803024 0.1829347 -0.003626698)
(-0.561232 0.2331617 -0.003812948)
(-0.5365797 0.2703138 -0.003728987)
(-0.5098716 0.2994783 -0.003182436)
(-0.4810617 0.320849 -0.003513393)
(-0.2927428 -0.0003646036 -0.0235834)
(-0.3148622 -0.001026042 -0.002394624)
(-0.3126207 -0.001626639 -0.005242469)
(-0.3206241 -0.0021519 0.001659049)
(-0.3255926 -0.002571767 -0.000581211)
(-0.3358602 -0.002672032 0.0003118988)
(-0.3473459 -0.002237108 7.996289e-05)
(-0.3621576 -0.0008241245 0.0001144079)
(-0.3800842 0.00218541 8.800068e-05)
(-0.4014414 0.007907298 9.034192e-05)
(-0.4265407 0.01750892 7.747839e-05)
(-0.4544636 0.03362966 9.083383e-05)
(-0.4835941 0.05773767 0.0001203523)
(-0.5110187 0.09319462 0.0002064601)
(-0.5272783 0.1401246 0.0005942921)
(-0.5285921 0.1876568 0.0005924268)
(-0.5203153 0.2293901 0.0007868995)
(-0.5051568 0.2622659 0.001055408)
(-0.4869168 0.2880522 0.001476159)
(-0.465871 0.3065925 0.00115984)
(-0.2924716 0.0009236806 -0.02369228)
(-0.3147079 0.001784121 -0.002455458)
(-0.3123405 0.00277358 -0.005223031)
(-0.3201446 0.004037493 0.001724761)
(-0.3247783 0.005543585 -0.0005255156)
(-0.3344656 0.007623354 0.0003305845)
(-0.3450364 0.01046585 9.054681e-05)
(-0.3584009 0.01453161 0.0001140965)
(-0.3740845 0.02037275 8.00235e-05)
(-0.3921892 0.02885649 7.278872e-05)
(-0.4125865 0.04086533 5.375172e-05)
(-0.434311 0.05791515 4.636833e-05)
(-0.455995 0.08075793 1.774344e-05)
(-0.4754486 0.1104451 -4.28562e-05)
(-0.4879238 0.1463529 5.121518e-05)
(-0.4911593 0.1824848 -0.0001998184)
(-0.4871228 0.2157936 -0.0001728126)
(-0.4781308 0.2439334 -9.425657e-05)
(-0.4660315 0.2663232 5.320275e-05)
(-0.4515092 0.2826938 -3.69046e-05)
(-0.2906681 0.001902385 -0.02367468)
(-0.3131538 0.004348651 -0.002605454)
(-0.310448 0.006952226 -0.005215198)
(-0.3179377 0.00988592 0.001800908)
(-0.322072 0.01312561 -0.0004550853)
(-0.3309937 0.01708224 0.000353241)
(-0.3404997 0.02189701 0.0001067731)
(-0.3523133 0.02801202 0.0001215563)
(-0.3658186 0.03588461 8.422127e-05)
(-0.3810084 0.0461589 7.43412e-05)
(-0.3975382 0.0594556 6.530751e-05)
(-0.4146082 0.07668134 6.556433e-05)
(-0.4310939 0.09812989 7.976277e-05)
(-0.4454999 0.1241715 9.166841e-05)
(-0.4553265 0.1539137 0.0001515564)
(-0.4594497 0.1842408 0.000146673)
(-0.4588307 0.2125627 0.0001869287)
(-0.4546371 0.2371717 0.0002479509)
(-0.4480882 0.256966 0.0003289339)
(-0.4397361 0.2710857 0.0003210677)
(-0.2877314 0.002670042 -0.02351569)
(-0.3099868 0.006672095 -0.002662718)
(-0.3070525 0.01080269 -0.005180242)
(-0.3141737 0.01523924 0.001871544)
(-0.3177267 0.02004787 -0.0003887307)
(-0.3258046 0.02557619 0.0003650258)
(-0.3342035 0.03199129 0.0001188106)
(-0.3445011 0.03967245 0.0001294165)
(-0.3560146 0.04898897 8.882475e-05)
(-0.3686855 0.0604028 7.442242e-05)
(-0.3821228 0.07435145 6.526704e-05)
(-0.3956822 0.09133421 6.203368e-05)
(-0.4085432 0.1114743 6.518671e-05)
(-0.4197107 0.1347409 6.644945e-05)
(-0.4278949 0.1603957 8.942302e-05)
(-0.4325387 0.1865274 8.19362e-05)
(-0.4342222 0.2114419 0.0001104594)
(-0.4337603 0.2336004 0.0001462022)
(-0.4321418 0.2517085 0.0001753618)
(-0.4298502 0.2642373 0.0001732477)
(-0.28359 0.00337351 -0.02321237)
(-0.3054277 0.008837704 -0.002660361)
(-0.3022987 0.01431134 -0.005083103)
(-0.3090088 0.02009017 0.001834568)
(-0.3119503 0.02627505 -0.0003765283)
(-0.3192045 0.03310746 0.0003639707)
(-0.3265267 0.04080811 0.0001237427)
(-0.33542 0.04967737 0.000130711)
(-0.3451732 0.06001103 8.730941e-05)
(-0.3557158 0.07214017 7.196501e-05)
(-0.3666655 0.08636964 6.134102e-05)
(-0.3775315 0.1029863 5.752707e-05)
(-0.3877257 0.1220318 5.976688e-05)
(-0.3966189 0.1433966 6.2828e-05)
(-0.4035764 0.166514 7.725176e-05)
(-0.4084298 0.1902422 8.608252e-05)
(-0.4117766 0.2133695 0.000105429)
(-0.4143813 0.2345576 0.0001442524)
(-0.417452 0.2525154 0.0001431007)
(-0.4218007 0.2649582 0.00022352)
(-0.2784859 0.004126736 -0.02281177)
(-0.2995537 0.01088179 -0.002530064)
(-0.2963792 0.01749503 -0.004975558)
(-0.3026284 0.02447433 0.001721643)
(-0.304983 0.03179206 -0.0004083436)
(-0.3114469 0.03971391 0.0003335856)
(-0.3177689 0.04843576 0.0001100023)
(-0.3254066 0.0582036 0.0001187821)
(-0.333636 0.06924941 7.725853e-05)
(-0.3423951 0.08181098 6.294278e-05)
(-0.3513308 0.09610564 5.298586e-05)
(-0.3600618 0.1123162 4.959275e-05)
(-0.3681666 0.1304825 4.99636e-05)
(-0.3752604 0.1505252 5.300793e-05)
(-0.3810773 0.172111 6.099352e-05)
(-0.3857048 0.1946004 7.347977e-05)
(-0.3899204 0.217249 8.165239e-05)
(-0.3946208 0.2389874 0.0001335982)
(-0.4017491 0.2585674 4.920435e-05)
(-0.4123784 0.2733948 3.677074e-05)
(-0.2722556 0.005024908 -0.0223437)
(-0.2927511 0.01281314 -0.002457108)
(-0.2894258 0.02037713 -0.0048756)
(-0.2952092 0.0283879 0.001605636)
(-0.2970216 0.03664793 -0.000435612)
(-0.3027501 0.04547794 0.0002916169)
(-0.308164 0.05501256 8.261071e-05)
(-0.3147106 0.06545563 9.707096e-05)
(-0.3216446 0.07698624 5.945836e-05)
(-0.32892 0.08977837 4.914218e-05)
(-0.3362076 0.1039939 4.201382e-05)
(-0.3431925 0.1197697 3.962954e-05)
(-0.3495464 0.1371795 4.059283e-05)
(-0.3550155 0.156248 4.314617e-05)
(-0.3595255 0.1769054 4.719805e-05)
(-0.363312 0.1989702 6.068837e-05)
(-0.3674022 0.2222642 5.464693e-05)
(-0.373074 0.2462406 0.0001435758)
(-0.383112 0.2705466 -6.487664e-06)
(-0.4015907 0.2918186 0.0001669036)
(-0.2651553 0.005689387 -0.02183012)
(-0.2850297 0.01450004 -0.002395472)
(-0.2815835 0.02293669 -0.004764994)
(-0.2868998 0.03183999 0.001513179)
(-0.2882236 0.04090587 -0.0004430192)
(-0.2932948 0.05048812 0.0002607672)
(-0.2979127 0.06067074 5.962258e-05)
(-0.3035283 0.07162206 7.873978e-05)
(-0.3093845 0.08347052 4.52691e-05)
(-0.3154417 0.09633883 3.834866e-05)
(-0.3213817 0.1103496 3.28975e-05)
(-0.3269105 0.1256175 3.247548e-05)
(-0.3317163 0.1422621 3.321685e-05)
(-0.3355594 0.1604355 3.464291e-05)
(-0.3383779 0.1803284 3.665024e-05)
(-0.3403704 0.2022542 4.957033e-05)
(-0.342677 0.2266726 3.118498e-05)
(-0.3463738 0.2542262 0.0001510855)
(-0.3561625 0.2851802 -5.544584e-05)
(-0.3730223 0.3230967 0.0003536034)
(-0.2517959 0.01499724 -0.001487236)
(-0.2438603 -0.04757647 -0.002562711)
(-0.2228556 -0.01378067 0.003945121)
(-0.2295832 -0.002857318 -0.0007153411)
(-0.2173959 -0.003718305 0.0002089893)
(-0.2099936 -0.005603959 -0.0008608895)
(-0.1971011 -0.007702113 -0.001283975)
(-0.1822416 -0.009726574 -0.001391893)
(-0.1637437 -0.01198719 -0.001778882)
(-0.1412286 -0.0142973 -0.001987722)
(-0.1168027 -0.01671092 -0.001448815)
(-0.08561921 -0.01680205 -0.002365672)
(-0.05965558 -0.01689932 0.0007466163)
(-0.02894356 -0.02072523 -8.205669e-05)
(-0.2192783 -0.01247134 0.01449816)
(-0.2440974 6.389862e-05 0.007612896)
(-0.2448255 -0.006838618 0.001995381)
(-0.2374969 -0.009705814 0.001493975)
(-0.2272261 -0.01466522 0.0006554112)
(-0.2168731 -0.0179439 0.0004708935)
(-0.2040416 -0.0225755 0.0003723813)
(-0.1889308 -0.02763095 0.0003065335)
(-0.1705708 -0.03342218 0.0002070315)
(-0.1488656 -0.03973286 -2.117996e-05)
(-0.1228727 -0.04767693 -0.0003024096)
(-0.09401199 -0.05651634 -0.0001558804)
(-0.05540579 -0.06935991 -0.00209182)
(-0.01434417 -0.07932 -0.001521073)
(-0.2397791 -0.004451457 0.002108025)
(-0.2535428 -0.01335978 -0.001743964)
(-0.241402 -0.01716194 -0.002606074)
(-0.23855 -0.02011827 -0.001050284)
(-0.2305106 -0.02452075 -0.0006133971)
(-0.2222202 -0.03047991 -0.0004230184)
(-0.2107527 -0.03787821 -0.0004647229)
(-0.1967064 -0.046508 -0.0005260657)
(-0.1791851 -0.05643262 -0.0005636998)
(-0.1574437 -0.06754009 -0.000549915)
(-0.1311468 -0.07949541 -0.0001227141)
(-0.09885 -0.09308171 -4.009285e-05)
(-0.0612768 -0.1043066 0.000877771)
(-0.02009647 -0.1134402 5.831555e-06)
(-0.2396425 -0.00203417 0.00363764)
(-0.2533146 -0.007191824 0.0007000505)
(-0.2486621 -0.01536975 -0.003541957)
(-0.2471206 -0.02309802 -0.0002479494)
(-0.239749 -0.03128954 -0.0001697177)
(-0.2321004 -0.04013079 2.709948e-05)
(-0.2219674 -0.05069384 -9.311334e-05)
(-0.2093898 -0.06301895 -0.0001485361)
(-0.1933783 -0.07740262 -0.0002315422)
(-0.173003 -0.0938714 -0.0001833068)
(-0.1470188 -0.1126793 -0.0001562495)
(-0.1139127 -0.1324839 -6.688362e-05)
(-0.07201705 -0.1520117 -0.0002429103)
(-0.02428766 -0.1630403 -0.001027825)
(-0.2496689 -0.003569425 0.005568158)