/*--------------------------------*- C++ -*----------------------------------*\
  =========                 |
  \\      /  F ield         | OpenFOAM: The Open Source CFD Toolbox
   \\    /   O peration     | Website:  https://openfoam.org
    \\  /    A nd           | Version:  7
     \\/     M anipulation  |
\*---------------------------------------------------------------------------*/
FoamFile
{
    version     2.0;
    format      ascii;
    class       volScalarField;
    location    "0.02";
    object      p;
}
// * * * * * * * * * * * * * * * * * * * * * * * * * * * * * * * * * * * * * //

dimensions      [0 2 -2 0 0 0 0];

internalField   nonuniform List<scalar> 
109978
(
0.7796661
0.6728334
0.676861
0.6175742
0.5937241
0.5699358
0.773379
0.6149724
0.6472232
0.587186
0.5653035
0.541651
0.789193
0.5753136
0.6225207
0.5625324
0.543171
0.5206797
0.7986725
0.5543799
0.6035553
0.5474267
0.5279052
0.5060596
0.7865131
0.5601956
0.5904643
0.5344986
0.5157599
0.49565
0.7754148
0.5674735
0.5804728
0.5243015
0.5072273
0.4884679
0.7676167
0.5710734
0.5699955
0.5146188
0.4992667
0.4821286
0.7615444
0.5682727
0.5586811
0.5059442
0.4920825
0.4763231
0.7489333
0.5607064
0.546678
0.4983075
0.4855829
0.4707404
0.7321395
0.5514933
0.5362552
0.491026
0.4794008
0.4652732
0.7117182
0.5400868
0.5275938
0.484089
0.4734473
0.4597721
0.6883365
0.5250994
0.5184447
0.4769779
0.4674162
0.4540965
0.6669543
0.5096545
0.5087254
0.4694042
0.4610083
0.4480215
0.6469449
0.4949186
0.4988278
0.4613481
0.4540081
0.4413533
0.6269379
0.4802762
0.4884414
0.4525496
0.4462027
0.4339667
0.6082786
0.4656633
0.4776185
0.4430771
0.4377472
0.4259604
0.5903446
0.4510512
0.4666266
0.4331988
0.4287769
0.4174244
0.5721967
0.4362721
0.4555645
0.4231088
0.4194428
0.408472
0.5540583
0.4214407
0.4444579
0.4126834
0.4097928
0.399187
0.5369607
0.4069554
0.433353
0.4017941
0.399839
0.3896106
0.520891
0.3930051
0.4222969
0.3904963
0.3895525
0.3796982
0.5054911
0.379568
0.4112826
0.3789713
0.3790046
0.369443
0.6283937
0.3663213
0.4001838
0.3673707
0.3683007
0.3588957
0.8386388
0.6845325
0.6834872
0.6214121
0.5950188
0.5700575
0.9501626
1.064903
0.5385516
0.7860575
0.613963
0.6481222
0.9398356
1.154623
0.4716841
0.8179985
0.603145
0.6569192
0.9634096
1.247959
0.3743699
0.7987123
0.5740692
0.6399289
0.9595529
1.263379
0.3655409
0.7954091
0.572893
0.6359382
0.9459517
1.247077
0.3805206
0.7799939
0.5693813
0.6301914
0.9167426
1.21746
0.4037681
0.7646806
0.5709529
0.6325658
0.8916762
1.179388
0.427335
0.7496408
0.5727141
0.6306571
0.8614885
1.146816
0.4520466
0.7396655
0.5755247
0.6291592
0.8434432
1.115942
0.4694147
0.732554
0.5774709
0.6271446
0.8300753
1.08546
0.4791796
0.7296979
0.5771659
0.6251232
0.8083551
1.05687
0.481393
0.7299446
0.5758874
0.6237196
0.783362
1.030427
0.4790844
0.7297498
0.5738849
0.6224847
0.7588519
1.005284
0.4712405
0.727265
0.5706803
0.6201209
0.7375249
0.9867014
0.4612704
0.7231766
0.5665862
0.6168172
0.718824
0.9696661
0.4505967
0.7177308
0.5612156
0.6121329
0.7024798
0.954194
0.4392503
0.7114142
0.5548121
0.607116
0.6894204
0.9401983
0.4278195
0.7050488
0.5474981
0.6013622
0.6782975
0.9278928
0.4158139
0.6988676
0.5397659
0.595264
0.6681026
0.9166596
0.4029779
0.6927045
0.5316751
0.5889624
0.6596262
0.9064947
0.3900535
0.6864801
0.5230508
0.5827754
0.6536296
0.8973129
0.3773015
0.6800445
0.5135016
0.5762648
0.6490167
0.8881559
0.364971
0.6735632
0.5033341
0.5694783
0.8664035
0.8780123
0.3524403
0.6670861
0.493104
0.5624461
0.8464725
0.6469769
0.6688161
0.5929545
0.5754355
0.5502962
0.9074501
1.179583
0.4566324
0.7867099
0.5900962
0.6557577
0.9773219
1.271392
0.3774438
0.8564205
0.6150367
0.6688458
1.090384
1.457511
0.2617642
0.7732388
0.5504435
0.643386
0.9854755
1.450221
0.2276336
0.7617793
0.5650613
0.6470828
0.9537234
1.411499
0.2516949
0.7467323
0.5656505
0.6408765
0.9206067
1.350574
0.2825878
0.7467256
0.5790762
0.6403842
0.887144
1.296616
0.3212993
0.7382377
0.5789506
0.6360324
0.8553594
1.250627
0.3551066
0.7246688
0.5773292
0.6325497
0.8315402
1.21871
0.376461
0.7133948
0.5787999
0.6290837
0.8154322
1.190511
0.3895527
0.7051818
0.5758358
0.625006
0.7988487
1.151619
0.3956402
0.701876
0.5719793
0.6222193
0.7708331
1.111062
0.3982724
0.7058349
0.5716561
0.6222582
0.7264005
1.080528
0.3965697
0.7145519
0.5733525
0.6216857
0.6930365
1.062319
0.3912076
0.7214395
0.576121
0.6203871
0.6652771
1.044438
0.3840564
0.7231595
0.5757937
0.6175382
0.6439379
1.026928
0.3751225
0.7226764
0.5737272
0.614438
0.6291436
1.010886
0.3651436
0.7209223
0.5703483
0.6104167
0.6171219
0.9959273
0.353489
0.7188565
0.5666481
0.6057896
0.6056641
0.9822853
0.3410617
0.7168019
0.5612426
0.6003746
0.596118
0.9705678
0.3285227
0.7141181
0.5538212
0.594421
0.5889278
0.9603951
0.3166672
0.710309
0.5440646
0.5882255
0.5837956
0.9500893
0.3049743
0.7057523
0.5342861
0.5819438
0.5777818
0.9382941
0.2922701
0.7012362
0.5255544
0.5760501
0.9956235
0.6289915
0.6627624
0.5752915
0.5624205
0.5366084
0.8893358
1.276166
0.3635964
0.7663736
0.551342
0.6287552
1.194154
1.475965
0.2741346
0.8287041
0.5722168
0.6538119
1.058806
1.606546
0.1833268
0.7676616
0.5132313
0.6122676
0.9869263
1.608676
0.1673083
0.7520652
0.5258195
0.617893
0.987334
1.599751
0.193758
0.7050999
0.4899637
0.5897642
0.9727144
1.554742
0.2207546
0.6838509
0.4931559
0.5821278
0.9368507
1.482803
0.2461222
0.6815409
0.5056135
0.5888521
0.8859465
1.413665
0.2893111
0.6828435
0.5179917
0.5920626
0.8541149
1.352965
0.3322265
0.6886142
0.5295181
0.5941867
0.834108
1.308
0.3504356
0.6802792
0.5283005
0.5906534
0.8024646
1.259725
0.353925
0.6832546
0.5275621
0.5911253
0.7591541
1.215348
0.3465244
0.6834347
0.5232787
0.5899891
0.7003496
1.183951
0.3285804
0.6740894
0.5170557
0.5878869
0.665023
1.167452
0.3165493
0.6662632
0.512494
0.5877153
0.6353643
1.151121
0.3078435
0.6660144
0.5082105
0.5881211
0.6135435
1.135941
0.2977255
0.663702
0.5029998
0.5844423
0.5959774
1.119365
0.2869774
0.6666379
0.4979713
0.5791483
0.580409
1.103062
0.272624
0.6715026
0.4955493
0.5738783
0.5654475
1.090811
0.2542518
0.6709796
0.4938828
0.5695159
0.5518151
1.082214
0.2360386
0.6657688
0.4892952
0.5662856
0.5398106
1.078549
0.2205306
0.6553441
0.4795308
0.5625755
0.5284914
1.073438
0.2085878
0.6484097
0.4671876
0.5569172
0.5159549
1.064678
0.1966497
0.6477444
0.4572708
0.5509575
1.049695
0.6234235
0.661425
0.5713105
0.5557938
0.5286097
0.8385729
1.329252
0.3252212
0.7590729
0.5432076
0.6289064
1.166092
1.529518
0.1908136
0.805039
0.5677269
0.6512879
1.016145
1.700653
0.2652939
0.7836878
0.5199538
0.6153217
0.964847
1.709386
0.2450957
0.7630809
0.5216427
0.6220034
0.9583723
1.670181
0.1979163
0.7043918
0.4835386
0.6001317
0.932994
1.603037
0.1878357
0.6854331
0.4934245
0.6050913
0.9070158
1.512039
0.2137442
0.6789572
0.510374
0.6065188
0.8906555
1.427747
0.2593289
0.684926
0.5237398
0.6074734
0.8909172
1.352361
0.3112704
0.6972522
0.5395473
0.6098219
0.8886248
1.309008
0.3394233
0.6919822
0.5390536
0.6078486
0.8524079
1.272179
0.3521977
0.692218
0.5375397
0.6063524
0.774517
1.235113
0.3538133
0.7076458
0.5443572
0.6138636
0.6605941
1.221207
0.3515517
0.7233479
0.5479079
0.6181476
0.6212481
1.201696
0.3340438
0.7267269
0.5486854
0.6172615
0.5929396
1.182495
0.3233604
0.7186887
0.5405303
0.611256
0.5743802
1.168057
0.3095548
0.7144128
0.5366666
0.6081165
0.5594054
1.157217
0.2945037
0.7078862
0.5307731
0.6026206
0.545138
1.149475
0.2751831
0.7015485
0.5254127
0.5962359
0.5310023
1.143719
0.2531642
0.6986808
0.5213772
0.5886427
0.5162882
1.141022
0.2326397
0.6946605
0.5133694
0.5794993
0.5009713
1.142277
0.2105638
0.6847656
0.5010834
0.5720684
0.4841863
1.143772
0.186365
0.6747474
0.4904484
0.5655565
0.4641257
1.141326
0.1584544
0.6675241
0.4829609
0.560492
1.042713
0.6274481
0.661815
0.5596371
0.5499392
0.5230354
0.8073276
1.319934
0.3228616
0.758021
0.5424767
0.6285888
1.2751
1.530762
0.1903755
0.8049292
0.5675058
0.6511408
1.029361
1.69952
0.2645612
0.7838862
0.5199137
0.6153245
0.9630468
1.708858
0.2449234
0.763326
0.5216612
0.6219491
0.9861339
1.669815
0.1980108
0.7045359
0.4835062
0.6001069
0.97284
1.602863
0.1879611
0.6854776
0.4934093
0.6050526
0.9565784
1.511953
0.2138015
0.6789123
0.5103201
0.6064667
0.9387821
1.427651
0.2593455
0.6848706
0.5237122
0.6074243
0.9231155
1.352402
0.3113357
0.6971963
0.539496
0.6097762
0.9010393
1.309071
0.3394633
0.6919004
0.5390164
0.6077922
0.8619759
1.272243
0.352147
0.6921293
0.537488
0.606325
0.7967579
1.235236
0.3538651
0.7076043
0.5443465
0.6138306
0.6540497
1.221397
0.3516382
0.7232938
0.5478796
0.618119
0.547862
1.201852
0.3341589
0.7266628
0.5486625
0.6172169
0.5157884
1.182652
0.3234267
0.7185641
0.5404787
0.6112051
0.4981242
1.168197
0.3095261
0.7142561
0.5366213
0.6080296
0.4842723
1.157363
0.2945007
0.7077495
0.5307109
0.6024391
0.4716162
1.149641
0.2751916
0.7015368
0.5253266
0.5960373
0.4588605
1.143914
0.2533652
0.6988798
0.5210897
0.5881391
0.4444556
1.141252
0.232892
0.6946176
0.5126298
0.5790919
0.4288511
1.14235
0.2108881
0.6843204
0.5000837
0.5718537
0.4113557
1.143586
0.1863838
0.6742757
0.4892279
0.5655215
0.3925839
1.140875
0.1578346
0.6674479
0.4820961
0.5606792
0.9381976
0.6240519
0.6539315
0.5707065
0.552375
0.5289116
0.8158018
1.26216
0.3617102
0.7645749
0.5502877
0.6281802
1.034015
1.47315
0.2722154
0.827829
0.5713381
0.6533755
0.9957071
1.603998
0.1814733
0.766753
0.5127575
0.6119979
0.9711699
1.607482
0.1663096
0.7517063
0.5256993
0.6176706
0.9574222
1.598928
0.1931816
0.7050404
0.4898937
0.5895799
0.9492722
1.554245
0.2206042
0.6838154
0.4931254
0.5820145
0.9429602
1.482576
0.2460159
0.6814559
0.5055778
0.5887696
0.9049245
1.413532
0.2892406
0.682767
0.5179646
0.5920065
0.8688193
1.352856
0.3321866
0.6885633
0.5294928
0.5941394
0.8536581
1.307934
0.3504241
0.6802244
0.5282902
0.5906318
0.8301738
1.25974
0.353893
0.6831757
0.5275433
0.5911023
0.773431
1.215429
0.3465253
0.6833751
0.5232812
0.5899886
0.699749
1.184096
0.3286029
0.6740582
0.5170834
0.5879063
0.6367726
1.167653
0.316613
0.6662425
0.5125332
0.5876934
0.6013205
1.151334
0.3079415
0.666107
0.508299
0.588133
0.5778815
1.136241
0.2978198
0.6637464
0.5031209
0.5844903
0.5596498
1.119679
0.2871114
0.6668856
0.4981835
0.5792616
0.5441196
1.103513
0.2727276
0.6718423
0.4958772
0.5738317
0.5298664
1.091337
0.2543761
0.6715461
0.4944501
0.5695073
0.5157066
1.082959
0.2361338
0.6664442
0.4901134
0.5658931
0.5030626
1.079297
0.2208392
0.6562367
0.4807301
0.5623178
0.4886694
1.074267
0.208734
0.6500119
0.468338
0.5552883
0.4709579
1.065209
0.1971528
0.6495462
0.4590342
0.5504932
0.8994385
0.6291446
0.6464329
0.5924836
0.5690827
0.5444408
0.8623531
1.17271
0.4545135
0.7856269
0.5891873
0.6551451
1.059605
1.270667
0.3771913
0.8557903
0.614405
0.66839
0.9442275
1.456124
0.260852
0.7726366
0.5499834
0.6430903
0.9344997
1.449489
0.2269819
0.7613889
0.5647586
0.646844
0.9170595
1.41096
0.2511548
0.7465087
0.5655203
0.64075
0.9085994
1.350187
0.2821797
0.7465223
0.5789646
0.6402842
0.9038571
1.296404
0.3209932
0.7380344
0.5788435
0.6359467
0.8809685
1.250485
0.3548872
0.7245159
0.5772341
0.6324849
0.8586815
1.218586
0.3763056
0.7132765
0.5787277
0.6290421
0.8429938
1.190429
0.3894599
0.7050723
0.5757799
0.6249748
0.8076322
1.151626
0.395585
0.7017997
0.5719584
0.6222034
0.758654
1.111128
0.3982494
0.7057717
0.5716357
0.6222549
0.7074296
1.08063
0.3965923
0.7145034
0.5733532
0.6216903
0.6684835
1.062465
0.3912728
0.7213856
0.5761237
0.620425
0.6375575
1.044608
0.3841348
0.7231338
0.5758691
0.6175879
0.6158118
1.027078
0.3752275
0.7227202
0.5738604
0.614518
0.5991271
1.011083
0.3652938
0.7210716
0.5705839
0.6105457
0.5845297
0.9961529
0.3537529
0.7191106
0.5668832
0.6059149
0.571435
0.9825691
0.3414567
0.7171859
0.5614854
0.6005319
0.5585991
0.9708662
0.3291141
0.7145088
0.5539726
0.5946252
0.5469279
0.9606628
0.3174593
0.7107086
0.5440336
0.588394
0.5352804
0.9502457
0.305758
0.7061829
0.5350981
0.5827612
0.5222401
0.9382838
0.293051
0.7021054
0.5260779
0.5766849
0.8821084
0.688213
0.6750405
0.6182184
0.5908348
0.566452
0.879722
1.062266
0.5363983
0.7847176
0.6129593
0.6474983
0.9803562
1.153239
0.4706873
0.8171023
0.6024277
0.6563832
1.02284
1.246679
0.3734064
0.7979764
0.573475
0.6395114
0.9788375
1.262611
0.364818
0.7948816
0.5724678
0.6356119
0.9504007
1.246519
0.3799699
0.7795864
0.569076
0.630006
0.9227462
1.217055
0.4033507
0.7643476
0.570727
0.6324365
0.8932942
1.179137
0.4270295
0.7493852
0.5725405
0.6305532
0.8591441
1.14667
0.4518119
0.739482
0.575398
0.6290763
0.8334392
1.115867
0.4692419
0.7324043
0.5773819
0.6270859
0.8101782
1.085415
0.479071
0.729572
0.5771103
0.6250806
0.7841413
1.056877
0.4813351
0.7298519
0.5758601
0.6236957
0.758934
1.030461
0.4790588
0.7296958
0.573886
0.6224811
0.7326247
1.005361
0.4712665
0.7272506
0.5707117
0.6201422
0.7076294
0.9868251
0.4613414
0.7231905
0.5666527
0.6168683
0.6853056
0.9698135
0.4507106
0.7177836
0.5613314
0.6122205
0.6667893
0.9543645
0.4394013
0.711504
0.5549832
0.6072447
0.6515443
0.940425
0.4280297
0.7051923
0.5477464
0.6015657
0.6384644
0.9281915
0.4160826
0.6990355
0.5400845
0.5955159
0.6264738
0.9170511
0.4033482
0.6929482
0.5321397
0.5893392
0.6148244
0.9069511
0.3905337
0.6867354
0.5236071
0.5831448
0.6035966
0.8978093
0.3780427
0.6805533
0.5144677
0.5770221
0.5922722
0.8885693
0.3657676
0.6738104
0.5042808
0.569572
0.8667612
0.8783304
0.3538426
0.6682249
0.4950973
0.5641715
0.8522509
0.7306309
0.680995
0.6395845
0.6032281
0.5777465
0.9411498
0.7893868
0.6820616
0.698995
0.6369871
0.6110978
0.5868785
0.9536159
0.778617
0.6417142
0.6952365
0.6093278
0.58818
0.563734
0.8912216
0.8026433
0.6228336
0.6757821
0.5925864
0.5694758
0.5458362
0.8788502
0.8133486
0.6170455
0.6602259
0.5840457
0.5578086
0.5340023
0.8680745
0.8116139
0.6179114
0.6444571
0.5731985
0.5490952
0.5250537
0.8599582
0.8052806
0.6198474
0.6322464
0.5627543
0.541936
0.5189072
0.8402133
0.7983694
0.6199467
0.6198631
0.5522523
0.5345888
0.5133783
0.8119687
0.7915982
0.61646
0.6083842
0.5433091
0.5280172
0.5083692
0.8112459
0.7782086
0.6093704
0.5984301
0.5362469
0.5221081
0.5035393
0.7918756
0.7607971
0.5977636
0.5875181
0.5293673
0.516374
0.4985567
0.7681772
0.740588
0.58435
0.5774144
0.5223367
0.5106693
0.4934412
0.7422885
0.716397
0.5691135
0.5679026
0.5155885
0.5053356
0.4884486
0.7157026
0.6959371
0.554236
0.5584202
0.5084726
0.4996665
0.4830701
0.6925441
0.6767683
0.5398559
0.5489109
0.5010161
0.4933966
0.4770803
0.6719609
0.6565856
0.5253524
0.538891
0.4927841
0.4862566
0.4703455
0.654883
0.6372357
0.5107633
0.5284629
0.4838972
0.4784978
0.4629958
0.6393144
0.6186338
0.4961525
0.5179363
0.4746396
0.470209
0.4551086
0.6250636
0.5995634
0.4813231
0.5074651
0.4652694
0.4615617
0.4468064
0.6114992
0.5806241
0.46643
0.4970635
0.4556015
0.4526398
0.4381876
0.5985149
0.5630515
0.4520026
0.4867483
0.4453965
0.4434854
0.42931
0.5865983
0.5471966
0.4382611
0.4765122
0.4347458
0.4341132
0.4201814
0.5752987
0.5327305
0.4250243
0.4662632
0.4240565
0.4246805
0.4108854
0.5641635
0.661733
0.4118701
0.4561889
0.4141293
0.4163387
0.402245
0.9237303
0.8871036
1.156145
1.04139
0.8916112
0.8938971
0.9407774
1.052533
1.041056
1.009638
0.8865988
1.004658
0.9538796
0.9916005
1.696941
0.9182457
0.8923706
1.007733
0.8919202
0.9155361
1.612331
0.8846287
0.8857502
0.9934606
0.8794981
0.895711
1.445994
0.8630838
0.8767898
0.9795427
0.8686101
0.8908276
1.272255
0.8584126
0.8628045
0.9721963
0.8603768
0.8931828
1.114796
0.8662447
0.8547255
0.9729468
0.8404614
0.9049886
0.9686408
0.898263
0.8553846
0.9630771
0.8121325
0.9239113
0.9314319
0.89888
0.844707
0.945465
0.8113992
0.916046
0.9127192
0.8888293
0.8263828
0.9256895
0.7920139
0.8995881
0.8919647
0.8805606
0.8052473
0.9019689
0.7681541
0.8788632
0.8708679
0.8550428
0.7801217
0.8809306
0.7423127
0.8525779
0.846659
0.8268203
0.7579087
0.862709
0.7156925
0.829655
0.8254117
0.8109728
0.7379199
0.8463101
0.6924649
0.8095143
0.8074554
0.7950932
0.7184021
0.8307856
0.6718191
0.790033
0.7928474
0.7790592
0.7003356
0.8167038
0.6547323
0.7735859
0.7799878
0.764598
0.6838647
0.8032595
0.6391248
0.7585629
0.7681355
0.7516571
0.6680132
0.7897413
0.6248355
0.7435982
0.7565526
0.7395592
0.6520328
0.776985
0.6113657
0.7292859
0.7450939
0.728254
0.6374928
0.7649449
0.5982249
0.7160615
0.7340235
0.7178982
0.6242871
0.7531204
0.5862256
0.7031509
0.7233357
0.7085339
0.6113267
0.7416058
0.5749073
0.6903358
0.7130922
0.6999848
0.598254
0.6589812
0.5637325
0.677662
0.702513
0.6913936
0.8835104
0.8957858
1.028418
0.94143
0.9512761
1.066879
0.9184448
1.538981
0.9907641
0.9540784
0.9240367
0.9865841
0.9808375
1.935013
1.054719
1.001524
0.9721404
1.069775
1.032675
1.794025
1.124997
1.019944
1.626776
1.102859
1.039722
1.076697
1.194352
0.9989582
1.825163
1.069096
0.9916439
0.910939
1.075354
0.9705026
1.94802
1.026473
0.951096
0.9118558
0.9877085
0.9038902
1.544923
0.9854732
0.9303395
0.9548931
1.058825
0.8791415
0.8987813
1.026105
0.882718
1.157627
1.037464
0.9214967
0.8816908
0.7998715
0.9205223
0.8684084
0.8831186
0.8055098
0.7437655
0.8149884
0.7532149
0.8140117
0.7600937
0.7162225
0.7729537
0.7017425
0.7639255
0.7173884
0.6685523
0.7240118
0.6584796
0.7245188
0.6899432
0.6345686
0.6961137
0.6206005
0.695724
0.6095468
0.5958943
1.051245
1.040885
1.008845
0.8898303
0.8925981
0.9909674
1.69632
0.9174358
0.8851683
1.003669
0.9147832
1.611639
0.883904
0.8913821
1.006991
0.8902639
1.271854
0.8579126
0.8762457
0.9790471
0.8927311
1.114593
0.8658995
0.8623882
0.9718321
0.9046564
0.9684647
0.8979731
0.8544079
0.9726849
0.923671
0.9311994
0.8987928
0.8551023
0.9629163
0.9160122
0.9126338
0.8889188
0.8445735
0.9454079
0.8996791
0.8920009
0.8807443
0.826407
0.9256528
0.8789302
0.8708708
0.8551749
0.8052251
0.9018867
0.8526301
0.8466696
0.8268545
0.7801521
0.8809542
0.8096274
0.807599
0.7952397
0.738033
0.8464483
0.7901566
0.7930102
0.7792286
0.7185358
0.8309557
0.7737504
0.7801791
0.7648206
0.7005253
0.8169261
0.7587717
0.7683604
0.7518954
0.6841089
0.8035216
0.7438312
0.7567759
0.7398875
0.6682874
0.7900182
0.7296365
0.745445
0.7286717
0.6523509
0.7773636
0.7164264
0.7344776
0.7183433
0.6378281
0.7653985
0.7035802
0.7238472
0.7090145
0.6247245
0.7536418
0.6908247
0.7136234
0.7004706
0.611806
0.7421339
0.6781425
0.7030325
0.6918315
0.5987541
0.6593989
0.7284841
0.9512372
0.6682553
0.920146
0.7202408
0.9425479
0.6394485
0.8948672
0.6738809
0.9259339
0.6600138
0.8900003
0.7113842
0.9161278
0.6701003
0.8742908
0.7140055
0.902552
0.689636
0.8704096
0.7312755
0.9048049
0.7226335
0.8724136
0.7537887
0.9080542
0.7495125
0.8701029
0.7681982
0.9067508
0.7607123
0.8722671
0.7687341
0.902011
0.7620946
0.8681098
0.767981
0.8915803
0.7523516
0.8572875
0.7534234
0.875603
0.7359642
0.8416891
0.733099
0.855043
0.7174482
0.8204474
0.7110965
0.8321344
0.7011667
0.8000013
0.6897028
0.8125228
0.6875452
0.7836045
0.672423
0.7964047
0.6752818
0.7694477
0.6578784
0.7822508
0.6652775
0.7563059
0.6450689
0.7685391
0.6568291
0.7437868
0.6340012
0.7539169
0.6479053
0.7311229
0.6229915
0.7401082
0.6379483
0.7177631
0.6111518
0.7270408
0.6277828
0.7047358
0.599311
0.7156134
0.6174791
0.6923214
0.5875323
0.7069588
0.6081018
0.6803291
0.5766344
0.6986118
0.598935
0.6677424
0.5654149
0.6890327
0.7431637
0.797546
0.7671261
0.7399522
0.760681
0.6719877
0.7760807
0.6772622
0.8030777
0.783429
0.6715639
0.7572301
0.6984645
0.7716962
0.7902494
0.766415
0.8330121
0.7465345
0.8950247
1.445461
0.8624606
0.8849543
0.9928067
0.8297247
0.8254845
0.8110704
0.7579496
0.8627992
0.7531218
0.9266463
0.6828283
0.8938578
0.826951
0.7531069
0.6465955
0.917523
0.7224402
0.8843567
0.701831
0.9313111
0.6497735
0.8997896
0.7135299
0.9241169
0.6634529
0.8818537
0.7274231
0.9174011
0.6776716
0.8726504
0.7487135
0.9142703
0.7092782
0.8755689
0.7695108
0.9086662
0.7362762
0.8776109
0.778966
0.9061072
0.7650502
0.8785921
0.7763906
0.8998863
0.7820281
0.8756284
0.7668186
0.8876941
0.7836073
0.8669238
0.7440611
0.869448
0.7690187
0.8544181
0.7209585
0.8467048
0.7481067
0.8364168
0.6984978
0.8246492
0.7276034
0.8158244
0.6793457
0.807286
0.7119494
0.7985032
0.6643481
0.7923454
0.7000702
0.7824118
0.6520055
0.7767566
0.6903203
0.7673897
0.64171
0.7634797
0.6815848
0.7537195
0.6319912
0.7509084
0.6726267
0.7406882
0.6216385
0.7387341
0.6629011
0.7278878
0.6103567
0.7275793
0.6525744
0.7151056
0.598732
0.7174648
0.6420815
0.7027474
0.587517
0.7076752
0.6318866
0.6910626
0.576754
0.6975809
0.621013
0.6798251
0.5656378
0.6243976
0.6676036
0.6092273
0.7771186
0.7505624
0.6949356
0.7783692
0.6782633
0.7400916
0.7427053
0.7448119
0.7919366
0.7160204
0.7474983
0.678171
0.7915805
0.743768
0.751955
0.8272249
0.729065
0.9498143
1.01961
0.8913714
0.8339649
0.9630718
0.7533064
0.9271853
0.6834345
0.8962843
0.8664369
0.8489776
0.8818112
0.8671028
0.8343525
0.8407194
0.8542018
0.8307651
0.808361
0.7854803
0.7892521
0.8030661
0.7608427
0.7758352
0.7852023
0.7616259
0.7624587
0.7292359
0.7337781
0.7579862
0.717346
0.7330558
0.7437871
0.7166184
0.7164405
0.6859778
0.6901795
0.7131388
0.6733716
0.69245
0.7007599
0.6727469
0.6816274
0.6476242
0.6523607
0.6794841
0.6422495
0.664984
0.6719164
0.6404212
0.6566978
0.6213594
0.6264035
0.6681742
0.9197356
0.720164
0.9416991
0.6460084
0.9166203
0.7217605
0.8832383
0.6387976
0.8940094
0.673322
0.9251274
0.7011157
0.9304616
0.6490246
0.8989709
0.6592387
0.8891718
0.7105967
0.91527
0.712726
0.9232938
0.6626385
0.8810355
0.6890822
0.8697661
0.730688
0.9041957
0.7481821
0.9137691
0.7087753
0.8750097
0.7222
0.8719338
0.753334
0.907615
0.7691195
0.9083009
0.7358911
0.8771964
0.7491765
0.8697516
0.7678807
0.9064491
0.778678
0.9059138
0.76471
0.8783041
0.7524624
0.8571404
0.7531775
0.8755469
0.7440212
0.8694694
0.7690487
0.8543808
0.7175317
0.8201883
0.7109456
0.8321599
0.6984931
0.82467
0.7276423
0.8158348
0.6876494
0.7836755
0.6724797
0.7965304
0.6644637
0.7925169
0.7001817
0.782504
0.6754083
0.7695628
0.6580006
0.782444
0.6521848
0.7769556
0.6904881
0.7674922
0.6654226
0.7564484
0.6452418
0.7687772
0.6418906
0.7637434
0.6817239
0.7538925
0.6570304
0.7439755
0.634195
0.7541868
0.6322282
0.7511591
0.6729115
0.7409138
0.6481461
0.7313658
0.6232419
0.7403604
0.6281095
0.7050424
0.599591
0.7160053
0.5990846
0.7178896
0.642466
0.7031168
0.6178702
0.6927324
0.5879226
0.7073992
0.5879209
0.7081575
0.6323263
0.6914986
0.608531
0.680799
0.5770631
0.6990862
0.5771868
0.6980774
0.6214843
0.6803047
0.5993673
0.6682314
0.5658582
0.6895251
0.5660908
0.6183621
0.6681347
0.6096427
1.040573
0.8944937
0.8708788
0.8855331
0.8583434
0.8844566
0.803688
0.9230322
0.8229579
1.029456
0.7230548
1.025117
0.8312609
0.8523555
0.8360828
0.8519366
0.8911052
0.983797
0.8551781
0.8693434
0.8805254
0.924541
1.050685
0.6797314
0.83811
0.9508024
1.022376
0.8938943
0.8368789
0.9651298
0.8519277
0.9863027
1.039816
1.033566
0.9663803
0.9476294
0.9628398
0.8534729
0.9116899
0.8889063
0.8786711
0.9699321
0.9675326
0.8548979
0.6828753
1.043737
0.8858757
1.000385
1.036664
0.9065307
0.8709978
0.9118707
0.9116891
0.8657486
0.8776653
0.9382136
0.8598304
0.9403226
0.8849803
0.8412611
0.8867879
0.8523643
0.755418
0.7968365
0.7855592
0.7519734
0.7645856
0.7296798
0.7842148
0.7321033
0.7126167
0.7537192
0.7087742
0.7427612
0.720411
0.6867002
0.7403268
0.6888396
0.6704108
0.7127068
0.7014787
0.6668915
0.6831856
0.6473552
0.7015856
0.650117
0.6571411
0.6206186
0.6748473
0.6234711
0.8741365
0.8865052
1.052588
0.8527025
0.8322463
1.127429
0.8719823
0.872052
0.866197
0.8437717
1.128603
0.8185606
0.8253877
1.094835
0.8796092
0.8534164
0.8788966
0.8381506
1.079063
0.830018
0.8375038
1.030542
0.8842079
0.841608
0.880085
0.8312885
0.8410491
0.9623358
0.8551392
0.9315742
0.8691479
0.8403892
0.8663894
0.824854
0.9246754
0.8432579
0.8368069
0.9077615
0.859863
0.8056565
0.7602799
0.8720268
0.76841
0.9018966
0.7358286
0.8416356
0.7330876
0.8549232
0.720844
0.8465212
0.748036
0.8360887
0.7525798
0.7051354
0.7756985
0.7328982
0.7289416
0.7732789
0.7499865
0.702751
0.7409179
0.6925304
0.7638347
0.7190228
0.7172863
0.7629064
0.7399088
0.692062
0.730392
0.6819867
0.7536167
0.7065802
0.7193394
0.6713539
0.7429415
0.6936595
0.6218351
0.7390537
0.6628446
0.728116
0.6379263
0.7177683
0.6112087
0.7275354
0.6104601
0.7279111
0.6527883
0.7152047
0.6945074
0.6481932
0.7191112
0.6664076
0.6827814
0.6369706
0.7077047
0.6537774
0.6218824
0.9423286
0.9756632
0.6312659
0.8681411
0.9528114
0.8813926
0.9036502
0.827279
1.024381
1.061007
0.8302408
1.022209
0.8130516
0.9684425
0.8407617
0.8952024
0.9537395
0.9342961
1.023362
0.9498519
0.9860081
0.7537526
0.9458081
0.8374252
1.039847
1.01988
0.8735068
0.8734782
0.7132093
0.9013945
0.6695328
0.9167215
0.6770553
0.8717711
0.7266601
0.8000091
0.6897263
0.8123995
0.7011263
1.040743
0.8637997
0.8137388
1.073817
0.7802331
1.011881
0.8303158
0.9913789
0.873737
0.8576715
1.023737
0.8718964
0.9846569
0.7896373
1.011784
0.7466656
1.008324
0.8488102
0.8309083
1.019681
0.6301326
0.944132
0.6288963
0.9768389
0.8522056
0.9427916
0.9659384
0.8847459
0.8400762
0.8800237
0.8311732
0.8725009
0.7761424
0.8164481
0.7739448
0.8060494
0.7926457
0.7553523
0.7584992
0.8104657
0.7269363
0.7704547
0.7244963
0.7601314
0.7486544
0.711377
0.76634
0.7140513
0.6478507
0.6924816
0.6458087
0.6817299
0.6749435
0.6350726
0.6386262
0.6903628
0.6231366
0.6214149
0.8412849
1.10123
0.858781
0.8932838
0.8861799
0.8581696
0.8284038
1.118376
0.8145148
1.123862
0.8485851
0.8715283
0.878034
0.8391941
0.8215252
1.113852
0.8309002
1.063532
0.8429822
0.879266
0.8821777
0.8333421
0.8325075
1.04743
0.8476057
0.9548278
0.8347925
0.8805887
0.8761093
0.8319915
0.8469927
0.9402441
0.8590929
0.806911
0.8359596
0.9076253
0.7301019
0.7758225
0.7035247
0.7504965
0.7479687
0.6974191
0.7258085
0.7712584
0.7160529
0.7645283
0.6915228
0.7386333
0.7368931
0.6864298
0.7125782
0.7606812
0.7031028
0.7537223
0.6808173
0.7278401
0.7257866
0.6762288
0.7000556
0.7501863
0.6897871
0.742625
0.669674
0.7166068
0.6611763
0.7189314
0.6450426
0.6925208
0.6890149
0.6425341
0.6601326
0.7152172
0.6498106
0.7081507
0.6343036
0.6817601
0.5524715
0.6073665
0.5519897
0.6649974
0.6654152
0.6078268
0.5844462
0.5538856
0.5666483
0.5543108
0.8516198
0.8847621
0.8695532
0.8699071
0.7556397
0.8160058
0.7333776
0.8077223
0.7464441
0.8172588
0.7035694
0.7652572
0.6829724
0.7615236
0.7180435
0.7744284
0.6597234
0.7253603
0.6408827
0.7183438
0.6697659
0.7249905
0.6214541
0.6962346
0.6041062
0.6905349
0.6353568
0.6967351
0.5964678
0.5783153
0.6100591
0.874578
0.8867389
0.8532127
1.054642
0.8669864
0.8444682
0.8192647
1.12925
0.879672
0.83894
0.830813
1.079867
0.8821357
0.8315999
0.835442
1.015962
0.8807036
0.8319205
0.8416841
0.9629122
0.8668382
0.82531
0.8437243
0.9251086
0.8575596
0.8159838
0.8359617
0.9104425
0.8557697
0.8053961
0.8331367
0.9007671
0.8551096
0.8052902
0.8341486
0.8899948
0.8459434
0.7979221
0.828888
0.8726151
0.8256913
0.7811052
0.8131484
0.8512591
0.8031619
0.759181
0.7905547
0.8280325
0.7827042
0.7379094
0.7680396
0.8068866
0.7664899
0.7203869
0.7493504
0.7900238
0.7524591
0.7049862
0.7327564
0.7755634
0.7407605
0.6923344
0.7188372
0.763663
0.7302089
0.6817901
0.7063808
0.753428
0.7190787
0.6710861
0.6934036
0.7426879
0.7066683
0.659586
0.6796478
0.7308496
0.6941625
0.647869
0.6660523
0.7187963
0.6823623
0.6365623
0.6533534
0.7072879
0.6717037
0.6256116
0.641332
0.6965314
0.6607796
0.6138193
0.6282301
0.6854956
0.872731
0.9135478
0.9136295
0.8671041
0.8796021
0.9500701
0.8590244
0.9280067
0.8329895
1.127987
0.8727971
0.8729598
0.8261694
1.095624
0.8803847
0.8541967
0.8382984
1.031022
0.8849821
0.8424267
0.8458583
0.9784993
0.8858607
0.8395181
0.8556156
0.9320376
0.8696225
0.8408729
0.8391263
0.9148319
0.8619647
0.809629
0.8370505
0.9079982
0.8600679
0.8059195
0.8392318
0.8994845
0.861797
0.8087902
0.8371741
0.883335
0.8542051
0.806081
0.8236016
0.8632263
0.8359286
0.7918849
0.8010402
0.8402091
0.8135676
0.7706495
0.7775868
0.817786
0.7918559
0.7485755
0.7582474
0.8002755
0.7748374
0.7304581
0.7414481
0.785495
0.7605243
0.7151347
0.72876
0.7731159
0.7498315
0.7025686
0.7170738
0.7627218
0.7397342
0.6918661
0.7039082
0.7519103
0.7286671
0.6807714
0.6892511
0.7403557
0.7164639
0.6686559
0.6745601
0.7285349
0.7041349
0.6562049
0.6607434
0.7171013
0.6923543
0.6443675
0.6485004
0.7065657
0.6816036
0.6337757
0.6351257
0.6961359
0.6707489
0.6228879
0.6607334
0.6858106
0.6220145
0.6119148
0.8233877
0.8619996
0.8514163
0.8179893
0.8186797
0.7896545
0.8412085
0.7904401
0.6413992
0.6847006
0.673231
0.6380265
0.7759265
0.8998299
0.7816793
0.8752365
0.7618164
0.8678222
0.7674757
0.8915318
0.7664258
0.8877652
0.7835075
0.8666506
0.846081
0.7978486
0.8725282
0.828963
0.8236491
0.8632468
0.836001
0.7919102
0.7811128
0.8512524
0.8132286
0.8257722
0.84017
0.8138915
0.7706892
0.8012125
0.8033108
0.7592557
0.8279644
0.7907972
0.777664
0.8178368
0.7919602
0.7486398
0.7665888
0.7204833
0.7494624
0.7901034
0.7415853
0.7856228
0.7606417
0.7152682
0.7041203
0.752156
0.7289108
0.6810132
0.7288012
0.7044648
0.6565144
0.674979
0.6863475
0.6612395
0.6222622
0.612314
0.8419753
1.102031
0.8940465
0.8598587
0.8152419
1.124571
0.8722911
0.8493212
0.831692
1.064301
0.8800193
0.8437664
0.8371101
1.002445
0.8836247
0.8344899
0.8481848
0.9553799
0.8811667
0.8353805
0.8450374
0.9229727
0.8655126
0.8325412
0.8353405
0.9111023
0.8596432
0.8045632
0.8345511
0.9026846
0.8592315
0.8040565
0.8344326
0.8887347
0.8557156
0.8029428
0.8266149
0.8690897
0.8417485
0.7939698
0.8084291
0.8475694
0.8213521
0.77597
0.7851143
0.8243401
0.7988595
0.7540134
0.7641682
0.8049112
0.7797442
0.734463
0.7461804
0.7892584
0.7644547
0.7179488
0.7299424
0.7756749
0.7503608
0.7033675
0.7158561
0.7643524
0.7384663
0.6913351
0.702894
0.75351
0.7276381
0.6806074
0.6894824
0.7423736
0.7163077
0.6693945
0.6751223
0.7304136
0.7041662
0.6570821
0.6608046
0.7185803
0.6921683
0.6446941
0.6493431
0.7077227
0.681333
0.6338799
0.6391256
0.6976034
0.6713287
0.6239222
0.6262735
0.6869527
0.6604347
0.6129724
0.8307346
0.8346304
0.881115
1.015571
0.9779266
0.8851931
0.8451425
0.8388306
0.7379695
0.8069252
0.7681497
0.7828063
0.8074196
0.7120248
0.7982384
0.6793703
0.8597423
0.9354985
0.8782656
0.941641
0.8869882
0.8591135
0.8292332
1.118973
0.8788076
0.8399391
0.8222774
1.114603
0.8828999
0.8341547
0.8332924
1.048091
0.884582
0.8316265