/*--------------------------------*- C++ -*----------------------------------*\
  =========                 |
  \\      /  F ield         | OpenFOAM: The Open Source CFD Toolbox
   \\    /   O peration     | Website:  https://openfoam.org
    \\  /    A nd           | Version:  7
     \\/     M anipulation  |
\*---------------------------------------------------------------------------*/
FoamFile
{
    version     2.0;
    format      ascii;
    class       surfaceScalarField;
    location    "0.02";
    object      phi;
}
// * * * * * * * * * * * * * * * * * * * * * * * * * * * * * * * * * * * * * //

dimensions      [0 3 -1 0 0 0 0];

internalField   nonuniform List<scalar> 
234023
(
-3.443801e-11
-1.35967e-09
1.896392e-09
-5.016266e-11
1.648228e-10
-9.633603e-12
-4.548667e-11
1.877511e-09
-3.606361e-09
2.289193e-09
2.311104e-10
4.856061e-09
-7.112576e-09
2.737377e-09
2.019551e-10
9.021347e-09
-1.234058e-08
4.048152e-09
1.766286e-10
1.500179e-08
-2.054977e-08
6.230254e-09
4.670862e-10
2.46743e-08
-3.303226e-08
9.542675e-09
8.303879e-10
4.009098e-08
-5.347851e-08
1.469923e-08
1.044411e-09
6.544157e-08
-8.641345e-08
2.213829e-08
1.001579e-09
1.077938e-07
3.270662e-08
-3.027152e-10
-1.389558e-07
-7.25632e-10
1.147946e-10
3.945346e-09
-2.51692e-10
-7.929193e-10
-7.81678e-10
-1.147534e-09
-5.676443e-09
2.405902e-08
-3.704444e-09
3.463841e-12
1.326618e-09
2.864362e-10
4.933351e-10
-3.273916e-09
-3.439611e-09
-4.104349e-09
-4.611532e-09
-1.276194e-08
3.235363e-08
-3.476098e-09
-4.138982e-09
-4.775727e-09
-5.130125e-09
-5.615743e-09
-2.572769e-08
4.772875e-08
-4.610822e-09
-5.51326e-09
-7.169952e-09
-7.078434e-09
-8.009982e-09
-4.797576e-08
7.202268e-08
-6.217266e-09
-7.877728e-09
-1.052013e-08
-1.051641e-08
-1.200223e-08
-8.481173e-08
1.116267e-07
-8.323405e-09
-1.177735e-08
-1.6645e-08
-1.6021e-08
-1.848574e-08
-1.448204e-07
1.742018e-07
-1.094533e-08
-1.782733e-08
-2.65344e-08
-2.486966e-08
-2.908942e-08
-2.429829e-07
2.731213e-07
-1.492776e-08
-2.716003e-08
-4.236187e-08
-3.878067e-08
-4.604909e-08
4.283132e-07
-2.078896e-08
-4.086559e-08
-6.713041e-08
-6.038245e-08
-7.095207e-08
-4.065522e-07
-4.482525e-09
2.385903e-10
4.623943e-09
-2.102957e-10
2.981728e-09
2.749619e-08
-3.806133e-09
-1.136341e-09
7.456886e-10
-6.263883e-10
-3.850644e-10
3.344389e-09
3.757308e-08
-3.851489e-09
1.713223e-09
5.635001e-08
-5.092864e-09
-3.215108e-09
8.561373e-08
-6.397042e-09
-1.489657e-08
1.349858e-07
-8.936915e-09
-3.642154e-08
2.103738e-07
-1.09774e-08
-7.547005e-08
3.305891e-07
-1.481851e-08
5.201686e-07
-1.884156e-08
-1.453792e-07
-5.077959e-09
9.056502e-10
4.411647e-09
-1.758939e-10
1.535042e-08
2.503365e-08
-2.898581e-09
-2.643252e-09
-9.245661e-10
-2.44212e-09
-1.993615e-09
2.39456e-08
3.528014e-08
-4.800517e-09
3.562368e-08
5.290483e-08
-6.65772e-09
5.119929e-08
8.086831e-08
-8.665382e-09
7.299998e-08
1.275922e-07
-1.138242e-08
1.051382e-07
2.009041e-07
-1.947888e-08
1.50852e-07
3.171113e-07
-2.860258e-08
5.02391e-07
-4.307094e-08
2.145477e-07
-4.199361e-09
1.204588e-09
3.340515e-09
7.468527e-12
2.573657e-08
3.608244e-09
-4.400745e-09
-3.571612e-09
-2.209022e-09
-3.73311e-09
-3.365227e-09
5.149934e-09
4.384747e-09
5.023343e-09
4.1908e-08
4.436091e-09
-5.075467e-09
7.951911e-09
6.242517e-09
6.90783e-09
6.543358e-08
6.010393e-09
-6.632772e-09
1.185406e-08
9.02478e-09
1.039919e-08
9.896429e-08
9.09096e-09
-8.361604e-09
1.824733e-08
1.438283e-08
1.65807e-08
1.493454e-07
1.469983e-08
-1.227346e-08
2.83808e-08
2.308707e-08
2.620426e-08
2.243014e-07
2.334415e-08
-1.7208e-08
4.474654e-08
3.686815e-08
4.200491e-08
3.375543e-07
3.816083e-08
-2.653552e-08
7.016427e-08
5.859372e-08
6.712705e-08
6.263709e-08
-3.979633e-08
1.102752e-07
9.38126e-08
1.075319e-07
5.089225e-07
-2.869071e-09
1.487269e-09
1.779682e-09
7.509251e-11
-3.622674e-09
4.897967e-09
2.210569e-09
8.031603e-10
-7.913493e-09
9.768011e-09
2.382745e-09
1.31892e-09
-1.434404e-08
1.540812e-08
3.791461e-09
1.454307e-09
-2.144095e-08
2.382899e-08
5.855492e-09
1.929156e-09
-3.406423e-08
3.757685e-08
1.009265e-08
2.592635e-09
-5.232002e-08
5.732617e-08
1.620595e-08
4.059458e-09
-8.008106e-08
8.840519e-08
2.603766e-08
6.215379e-09
-1.232611e-07
1.364698e-07
4.29498e-08
8.963539e-09
-1.890874e-07
7.04134e-08
1.333145e-08
2.085841e-07
-1.012233e-07
1.439938e-10
4.853074e-11
-2.096456e-11
2.496551e-10
-1.003686e-10
-1.088069e-09
1.719229e-10
1.066364e-09
-7.378028e-11
1.875186e-10
-1.965992e-09
2.331801e-11
2.117273e-09
1.146659e-10
3.598362e-10
-4.138179e-09
5.292962e-10
3.630614e-09
-1.204238e-10
4.515627e-10
-6.088578e-09
4.109715e-10
5.537709e-09
8.380146e-11
9.796337e-10
-1.005621e-08
1.255358e-09
8.94118e-09
-3.225288e-10
9.345254e-10
-1.534084e-08
1.514999e-09
1.319511e-08
-1.603273e-10
1.440045e-09
-2.28755e-08
2.269312e-09
2.01085e-08
-3.317346e-10
2.134985e-09
-3.581852e-08
2.958567e-09
3.202496e-08
-1.967279e-10
3.031788e-09
-5.60247e-08
3.122352e-09
4.920066e-08
3.989808e-10
4.498807e-09
0.0003209882
2.142864e-05
-1.183626e-05
-0.00131777
-9.262451e-05
0.0003183071
0.0003822242
0.0003792823
0.000321939
5.71668e-06
-3.591636e-06
-9.538805e-05
-0.001316668
0.0003211602
0.0003836885
0.0003831431
0.0003243026
4.252892e-06
-3.06562e-06
-9.484148e-05
-0.0013277
0.0003236347
0.0003869403
0.0003864769
0.0003272845
5.853164e-06
-4.440037e-06
-9.513382e-05
-0.001341272
0.0003265673
0.0003907911
0.0003903503
0.0003312673
7.46889e-06
-5.730846e-06
-9.602236e-05
-0.001358654
0.0003304815
0.000395808
0.0003953812
0.0003362626
9.220303e-06
-7.082132e-06
-9.732903e-05
-0.0013802
0.0003353985
0.0004020707
0.0004016593
0.0003422689
1.101472e-05
-8.476206e-06
-9.9006e-05
-0.001405908
0.0003413201
0.0004095928
0.000409194
0.0003493385
1.297538e-05
-1.001678e-05
-0.0001010013
-0.00143607
0.0003482948
0.0004184344
0.0004180453
0.0003575319
1.509394e-05
-1.175491e-05
-0.0001030584
-0.001471239
0.0003563803
0.0004287144
0.0004283312
-0.0003082289
-0.02114864
-0.001007229
0.0007068177
-0.001071902
0.000640308
-0.0004950108
0.005128254
0.00527055
0.006168492
0.006116587
-0.0004410686
-0.0211535
-0.001701172
0.005348406
0.005325475
0.006171222
0.006142408
-0.0004501985
-0.02122287
-0.001917239
0.005395078
0.005370151
0.006197605
0.006186408
-0.0005166645
-0.02137949
-0.001958553
0.005456992
0.005430144
0.006260992
0.006256383
-0.0006088358
-0.02163599
-0.001992325
0.005532736
0.005501316
0.006344417
0.006342019
-0.0007188788
-0.02197412
-0.002022902
0.005625379
0.005587655
0.006448116
0.006445921
-0.0008403808
-0.02238655
-0.002056949
0.005734618
0.005690109
0.00657148
0.0065688
-0.0009746177
-0.02287205
-0.002098308
0.005863013
0.005811108
0.006717009
0.006713468
-0.02343146
-0.002148455
0.006011668
0.006884641
-0.00112299
0.005950872
0.006881106
-0.0002428383
-0.0207531
-0.0002291324
0.001036357
-0.001001182
0.0005690744
-0.0005278127
-0.0004411367
-0.02048531
-0.0004698912
-0.0006075425
-0.02051423
-0.000542238
-0.0007659328
-0.0206265
-0.0005946024
-0.0009351943
-0.02086025
-0.0006064805
-0.001113014
-0.02117597
-0.0006203321
-0.001303406
-0.02156715
-0.0006290104
-0.001508335
-0.02202651
-0.0006406179
-0.02255483
-0.0006543968
-0.001730571
-0.000458764
-0.02049785
-3.896432e-05
0.001064897
-0.000955943
0.0006133865
-0.0004798691
-0.0006365023
-0.02023004
-7.753352e-05
-0.0008364225
-0.02022652
-8.779112e-05
-0.001042431
-0.02031855
-0.0001019412
-0.001264956
-0.02053227
-0.0001054516
-0.001501257
-0.02083088
-0.0001087933
-0.001755263
-0.02120371
-0.0001094404
-0.00202817
-0.02164261
-0.0001109932
-0.02214691
-0.0001128488
-0.002323239
-0.0004994451
-0.02022069
-1.742469e-05
0.001053159
-0.000941501
0.0006038066
-0.0004757558
-0.0007481836
-0.01994222
-3.908494e-05
-0.001015453
-0.01992598
-3.327098e-05
-0.001284607
-0.02000473
-4.466887e-05
-0.001567782
-0.02020393
-4.516448e-05
-0.001864154
-0.0204864
-4.810111e-05
-0.002179411
-0.02084028
-4.816827e-05
-0.002516296
-0.021257
-4.872549e-05
-0.02173479
-4.935561e-05
-0.002879063
-0.0006101643
-0.01990722
-1.441925e-05
0.001055012
-0.000913122
0.0006188576
-0.0004496321
-0.0008981839
-0.01963448
-1.971996e-05
-0.001211671
-0.01961029
-2.197535e-06
-0.00153052
-0.01968037
-5.506321e-06
-0.001865997
-0.01986528
-3.16941e-06
-0.002217338
-0.02013097
-4.087302e-06
-0.002590054
-0.02046428
-3.284868e-06
-0.00298712
-0.02085684
-3.08827e-06
-0.02130549
-3.21207e-06
-0.003413203
-0.0006929201
-0.0195458
-1.991158e-05
0.001050103
-0.000887193
0.0006208748
-0.0004323702
-0.001029218
-0.01927465
-2.353245e-05
-0.00139152
-0.01924368
-4.310842e-06
-0.001760565
-0.01930511
-6.219683e-06
-0.002146837
-0.01947605
-2.961175e-06
-0.00255037
-0.01972415
-3.288763e-06
-0.002976605
-0.02003569
-2.353543e-06
-0.003429077
-0.02040205
-2.318274e-06
-0.02081929
-2.67444e-06
-0.003912598
-0.0007826858
-0.01914012
-2.504549e-05
0.001044318
-0.0008585942
0.0006269648
-0.0004106432
-0.001159736
-0.01887189
-2.571015e-05
-0.001565297
-0.01883489
-3.226745e-06
-0.001979471
-0.01888745
-3.484016e-06
-0.002412213
-0.0190441
7.93092e-07
-0.002863449
-0.01927399
1.078696e-06
-0.003338839
-0.01956268
2.380703e-06
-0.003841857
-0.01990157
2.545669e-06
-0.02028597
2.108845e-06
-0.004377289
-0.0008637421
-0.01869134
-2.99946e-05
0.001035138
-0.0008292137
0.0006291565
-0.0003901183
-0.00128048
-0.01842599
-2.915598e-05
-0.00172714
-0.01838324
-4.994781e-06
-0.002183382
-0.01842665
-4.556478e-06
-0.002658977
-0.01856867
1.679628e-07
-0.003153998
-0.0187798
8.273315e-07
-0.003673842
-0.01904512
2.290538e-06
-0.004222064
-0.01935588
2.524462e-06
-0.01970676
1.985066e-06
-0.004803259
-0.0009400903
-0.0182029
-3.446565e-05
0.001023472
-0.0007984581
0.0006300698
-0.0003689714
-0.001393123
-0.01794079
-3.217624e-05
-0.001877532
-0.01789268
-6.148554e-06
-0.002372188
-0.0179267
-5.290525e-06
-0.002886759
-0.01805405
-5.088381e-08
-0.003421188
-0.01824619
8.231537e-07
-0.00398091
-0.01848786
2.456505e-06
-0.004569184
-0.01877036
2.752684e-06
-0.01908793
2.167866e-06
-0.005190182
-0.001010201
-0.01767798
-3.844672e-05
0.00100914
-0.0007668315
0.0006291528
-0.0003477352
-0.001496544
-0.01741945
-3.498839e-05
-0.002015604
-0.01736629
-7.331504e-06
-0.002545143
-0.01739099
-6.175723e-06
-0.003094975
-0.01750371
-5.079909e-07
-0.003664771
-0.01767681
4.192915e-07
-0.00425974
-0.01789508
2.184971e-06
-0.004883021
-0.01814959
2.51997e-06
-0.01843459
1.868123e-06
-0.005538222
-0.001074298
-0.01711986
-4.193984e-05
0.0009923656
-0.0007342947
0.0006264195
-0.0003263693
-0.001590705
-0.01686551
-3.754449e-05
-0.002141178
-0.01680755
-8.273857e-06
-0.002702128
-0.01682312
-6.920072e-06
-0.003283548
-0.01692139
-9.062005e-07
-0.003884687
-0.01707572
4.781954e-08
-0.004510718
-0.01727098
1.939777e-06
-0.005164142
-0.01749847
2.303022e-06
-0.01775194
1.616077e-06
-0.005848411
-0.001132186
-0.01653173
-4.499177e-05
0.0009732338
-0.0007010929
0.0006218491
-0.0003049502
-0.001675564
-0.0162823
-3.98297e-05
-0.002254255
-0.01621979
-9.069425e-06
-0.002843302
-0.01622655
-7.524246e-06
-0.003452771
-0.01631067
-1.245288e-06
-0.004081545
-0.01644676
-1.912481e-07
-0.004734494
-0.01661979
1.754822e-06
-0.005413839
-0.01682128
2.146451e-06
-0.01704484
1.437468e-06
-0.006122381
-0.001183776
-0.01591698
-4.773664e-05
0.0009521494
-0.000667245
0.0006155374
-0.0002836804
-0.00175116
-0.01567313
-4.179623e-05
-0.002354907
-0.01560636
-9.688975e-06
-0.00296883
-0.01560467
-7.965369e-06
-0.003603033
-0.01567504
-1.427902e-06
-0.004256001
-0.01579349
-3.066032e-07
-0.00493227
-0.01594523
1.704279e-06
-0.005633645
-0.01612202
2.1198e-06
-0.01631758
1.372764e-06
-0.006362279
-0.001229345
-0.01527921
-5.027703e-05
0.0009291396
-0.0006326615
0.0006076288
-0.0002622614
-0.001817717
-0.0150414
-4.335768e-05
-0.0024434
-0.01497061
-1.006778e-05
-0.003079226
-0.01496075
-8.090727e-06
-0.00373511
-0.01501782
-1.341027e-06
-0.004409173
-0.01511926
-1.592431e-07
-0.005105541
-0.01525078
1.917658e-06
-0.005825422
-0.01540448
2.337388e-06
-0.01557395
1.566456e-06
-0.006570617
-0.001268762
-0.01462194
-5.253134e-05
0.0009042753
-0.0005974633
0.0005982167
-0.0002410081
-0.001875225
-0.01439038
-4.455785e-05
-0.002519906
-0.01431575
-1.017564e-05
-0.003174786
-0.01429796
-7.919028e-06
-0.003849628
-0.01434204
-9.380618e-07
-0.004542052
-0.01442717
3.332552e-07
-0.005255817
-0.01453947
2.454975e-06
-0.005991523
-0.01467167
2.89901e-06
-0.01481742
2.108245e-06
-0.00675016
-0.00130159
-5.417797e-05
0.0008777144
-0.000561969
0.0005868154
-0.0002203343
-0.0139484
-0.0019236
-4.507037e-05
-0.0137233
-0.002584542
-9.716422e-06
-0.0136451
-0.003256054
-7.058536e-06
-0.01361938
-0.003947422
6.07988e-08
-0.01365073
-0.004656079
1.511706e-06
-0.01372003
-0.00538501
3.613703e-06
-0.01381415
-0.006134183
4.005247e-06
-0.0139265
3.172022e-06
-0.01405085
-0.006903924
1.938363e-10
5.502638e-10
-1.269304e-09
1.95842e-09
-1.112082e-09
3.959153e-10
1.670873e-11
9.095736e-11
-2.331224e-08
1.981401e-08
-8.994402e-09
7.356831e-10
6.429674e-11
2.113756e-09
1.209387e-09
2.277199e-09
3.756982e-09
1.83455e-09
3.199982e-09
-4.220118e-08
2.759262e-08
-1.060239e-08
9.697112e-10
-8.684259e-10
2.470055e-09
1.403941e-09
-7.416354e-08
4.208864e-08
-1.405308e-08
1.86143e-09
-1.724617e-09
3.781265e-09
2.086847e-09
-1.254362e-07
6.454077e-08
-1.866674e-08
3.047641e-09
-2.94906e-09
5.400283e-09
2.822004e-09
-2.080052e-07
1.007199e-07
-2.552393e-08
4.932094e-09
-5.00535e-09
7.925745e-09
3.627895e-09
-3.406946e-07
1.575646e-07
-3.610392e-08
8.259938e-09
-8.449466e-09
1.197968e-08
5.131706e-09
2.465344e-07
-5.034168e-08
1.402723e-08
-1.442855e-08
1.794388e-08
7.724814e-09
-5.575336e-07
8.895726e-10
-7.136545e-10
1.297924e-10
4.065972e-09
-1.202666e-09
-7.307591e-10
-8.68842e-10
-1.025633e-09
-7.410079e-09
2.767928e-08
-8.585502e-09
-3.742306e-09
-4.120864e-09
-3.817192e-09
-4.606927e-09
4.315112e-10
1.108277e-09
3.600689e-10
6.042307e-10
-1.71007e-08
3.729235e-08
-9.850883e-09
-3.43662e-08
5.44107e-08
-1.270933e-08
-6.236602e-08
8.23629e-08
-1.665387e-08
-1.086161e-07
1.27184e-07
-2.27213e-08
-1.844881e-07
1.995021e-07
-3.041663e-08
-3.088346e-07
3.12739e-07
-4.243001e-08
4.904597e-07
-5.783673e-08
-5.128099e-07
1.835577e-09
2.468941e-08
-7.168607e-09
1.94107e-10
6.471736e-10
1.648176e-09
9.446163e-10
-4.554913e-09
-5.471524e-09
-5.084061e-09
-6.319034e-09
3.280969e-09
3.262195e-08
-8.609688e-09
3.904236e-09
4.366604e-08
-9.820975e-09
1.322286e-09
6.64027e-08
-1.266779e-08
-4.444885e-09
1.004551e-07
-1.686306e-08
-1.782306e-08
1.573155e-07
-2.240043e-08
-4.294344e-08
2.469421e-07
-3.008405e-08
-8.826344e-08
3.884705e-07
-4.13723e-08
6.102211e-07
-5.569576e-08
-1.686963e-07
8.23156e-09
2.195091e-08
-6.491422e-09
-7.907629e-11
1.003802e-09
1.381057e-09
1.379842e-09
1.774199e-08
2.930743e-08
-8.429535e-09
2.866677e-08
4.020234e-08
-1.088259e-08
4.333595e-08
6.146932e-08
-1.507212e-08
6.426127e-08
9.341278e-08
-2.004658e-08
9.424658e-08
1.463309e-07
-2.811785e-08
1.34849e-07
2.286351e-07
-3.854076e-08
1.923625e-07
3.59437e-07
-5.502798e-08
5.640659e-07
-7.776863e-08
2.751503e-07
1.149545e-08
3.503228e-09
-6.190125e-09
-4.09256e-10
8.709741e-10
8.404444e-10
1.185838e-09
4.881534e-09
3.224617e-09
3.948712e-09
3.211559e-08
1.527381e-08
-9.706353e-09
5.66053e-08
2.274185e-08
-1.088794e-08
8.784919e-08
3.725304e-08
-1.418267e-08
1.333608e-07
5.733835e-08
-1.711219e-08
2.028611e-07
8.951134e-08
-2.381538e-08
3.061702e-07
1.406733e-07
-3.207654e-08
4.642793e-07
2.210993e-07
-4.641033e-08
3.482557e-07
-6.428549e-08
7.061828e-07
2.372467e-11
2.409778e-09
-5.077668e-10
4.408206e-10
7.556043e-10
6.179658e-10
3.91913e-10
4.764888e-08
1.235474e-10
-9.968162e-09
-5.31396e-09
-5.148993e-09
-5.532333e-09
-4.979685e-09
-1.206438e-09
1.596224e-10
-3.189566e-10
5.748944e-10
1.151376e-09
-5.063151e-10
1.520883e-09
7.470141e-08
-7.197131e-10
-1.022111e-08
-1.95441e-09
-5.653154e-11
-5.709597e-10
1.127141e-09
2.204548e-09
3.91155e-09
3.321822e-09
1.16381e-07
8.210143e-10
-1.416274e-08
-2.410806e-09
-5.56823e-11
-8.864202e-10
1.942886e-09
3.805386e-09
-6.203902e-10
5.231162e-09
1.790614e-07
1.326383e-09
-1.90237e-08
-3.32834e-09
7.423833e-10
-1.502254e-09
2.964282e-09
6.281841e-09
3.641416e-10
8.299073e-09
2.764909e-07
2.117576e-09
-2.735564e-08
-5.138561e-09
1.127743e-09
-2.567099e-09
4.320683e-09
9.661291e-09
2.730568e-10
1.204736e-08
4.238924e-07
3.935213e-09
-3.942923e-08
-7.632894e-09
1.591308e-09
-3.429521e-09
6.510346e-09
1.510239e-08
6.382277e-10
1.882209e-08
6.51774e-07
6.537106e-09
-6.034823e-08
-1.164496e-08
2.729304e-09
-5.066413e-09
9.848312e-09
2.364038e-08
1.704381e-09
2.958447e-08
1.006466e-08
-9.069721e-08
-1.726473e-08
6.456863e-09
-7.101953e-09
1.621428e-08
3.721902e-08
9.638932e-10
4.628537e-08
1.002715e-06
-5.194972e-10
-4.235597e-09
5.646083e-09
6.892092e-11
-5.238441e-11
-7.599874e-09
9.863629e-09
-1.577827e-09
-3.279944e-09
-1.194377e-08
1.450224e-08
1.412689e-09
-4.929099e-09
-1.744829e-08
2.232309e-08
1.745089e-09
-6.749246e-09
-2.769482e-08
3.489219e-08
2.773872e-09
-9.817458e-09
-4.290583e-08
5.389751e-08
4.248432e-09
-1.377839e-08
-6.661727e-08
8.346945e-08
5.309458e-09
-1.781079e-08
-1.036295e-07
1.277571e-07
6.192747e-09
-2.710902e-08
-1.590148e-07
1.206994e-08
1.948308e-07
-1.744712e-08
0.0006459481
0.0006546391
-0.0002336347
-0.005588049
-0.0002643808
0.0007909675
-9.670619e-05
-7.342224e-05
-0.0001173063
0.0007938737
-0.0001058095
0.0008479969
0.0001246904
-6.462422e-05
-0.005663159
-0.000888229
0.0008475348
-3.993364e-05
-3.527097e-05
0.0008486366
1.189906e-05
-1.166787e-05
-0.00571181
-0.0009669802
0.0008507221
-3.935891e-05
-3.84223e-05
0.0008559552
1.822229e-05
-1.986844e-05
-0.005765437
-0.000985661
0.0008564213
-3.937368e-05
-3.89526e-05
0.0008651948
2.39824e-05
-2.653884e-05
-0.005840515
-0.0009911343
0.0008652606
-3.997475e-05
-3.97883e-05
0.0008781548
3.178085e-05
-3.348084e-05
-0.005934712
-0.001006316
0.0008778362
-4.030538e-05
-4.026739e-05
0.0008937719
3.834668e-05
-4.007411e-05
-0.006047519
-0.001023789
0.000893243
-4.078861e-05
-4.095056e-05
0.0009123771
4.534613e-05
-4.655682e-05
-0.006180391
-0.001044644
0.00091153
-4.168693e-05
-4.217277e-05
0.0009332868
5.208561e-05
-0.006331267
-0.001067434
0.0009323191
-4.352404e-05
-4.4019e-05
-5.345698e-05
0.0002557914
0.004719836
-0.0002264854
-0.004558212
-0.0001923761
0.0001290215
-0.0001335074
5.931445e-06
-0.0003958006
-0.02366141
-0.0003362767
0.005954957
0.005971602
0.005800902
0.005780002
0.0003419377
-0.0004270854
0.0003675089
-0.0004035678
-0.0004012767
-0.02426175
-0.0007369446
0.005899939
0.005908917
0.005756988
0.005737151
-0.000488214
-0.02443604
-0.000926703
0.005970153
0.005971403
0.005794287
0.005796597
-0.000571646
-0.02465553
-0.0009925098
0.006034516
0.006036497
0.005851246
0.005850663
-0.0006841768
-0.02495164
-0.001026555
0.006117008
0.006120815
0.005928948
0.005931628
-0.0008093837
-0.02534322
-0.001046827
0.00621608
0.006221228
0.006025257
0.006029787
-0.0009460888
-0.02581875
-0.001064381
0.006334445
0.006340619
0.006141141
0.006146686
-0.001093442
-0.02638027
-0.001087811
0.006474239
0.006481298
0.006277591
0.006283999
-0.02702745
0.006634408
0.006433807
-0.001254771
0.006644004
0.006442987
-0.00111488
0.0002878331
0.00498225
-0.0002571861
-0.004800442
-0.0002769078
0.0001579847
-0.0001352366
4.170458e-05
-0.0002635783
-0.02349044
-9.8946e-05
0.0003242421
-0.0003650522
0.0002723201
-0.0002690847
-0.0004594107
-0.02399612
-0.0005396866
-0.0006909444
-0.02406828
-0.0006784671
-0.0008869933
-0.02422854
-0.0008255452
-0.001087509
-0.02449999
-0.0008576166
-0.001295298
-0.02486617
-0.0008895899
-0.001516405
-0.02532289
-0.0009037642
-0.001753754
-0.02586194
-0.0009216005
-0.02648391
-0.000941206
-0.002010489
0.0002939016
0.004969171
-0.0002642459
-0.004789319
-0.0002897099
0.000166094
-0.0001378081
5.191534e-05
-0.0004705087
-0.02316219
-7.504089e-05
0.0003767158
-0.0002956892
0.000289462
-0.0001921571
-0.0007265137
-0.02362034
-0.000197305
-0.0009697567
-0.02366576
-0.0002470682
-0.00121417
-0.02378226
-0.0003038095
-0.00147474
-0.02402221
-0.0003226609
-0.001751102
-0.02436211
-0.000336498
-0.002047708
-0.02479475
-0.0003409804
-0.002365805
-0.02530866
-0.0003461752
-0.02590105
-0.0003523094
-0.002709201
0.000289815
0.004932133
-0.0002695131
-0.004748447
-0.0002835504
0.000164432
-0.0001369559
5.208634e-05
-0.0005571801
-0.02284305
-2.807947e-05
0.0003942006
-0.0002726198
0.0002994301
-0.0001723118
-0.0008721837
-0.0232421
-0.0001023284
-0.00118737
-0.02326258
-0.0001212674
-0.001501894
-0.02335525
-0.0001571533
-0.001830841
-0.02357174
-0.0001666799
-0.002175738
-0.02388902
-0.000176288
-0.002543247
-0.02429707
-0.0001783378
-0.002935958
-0.02478369
-0.0001809811
-0.02534356
-0.000184325
-0.00335848
0.0002866448
0.004889986
-0.0002823719
-0.004686053
-0.000288015
0.0001625406
-0.0001347193
5.198735e-05
-0.0006837991
-0.02247467
-2.594284e-05
0.0004106392
-0.0002471073
0.0003132782
-0.0001498688
-0.001047499
-0.02284537
-5.274406e-05
-0.001412168
-0.022852
-4.81086e-05
-0.001784276
-0.0229282
-6.044868e-05
-0.002173326
-0.02312515
-6.071823e-05
-0.00258179
-0.02342069
-6.395138e-05
-0.003015335
-0.02380346
-6.334513e-05
-0.0034776
-0.02426069
-6.382569e-05
-0.02478523
-6.5463e-05
-0.003973675
0.0002824193
0.004810712
-0.0002825973
-0.004606906
-0.000282846
0.000160215
-0.0001324841
5.148709e-05
-0.0007883097
-0.02206112
-2.255771e-05
0.0004207814
-0.0002288081
0.0003205223
-0.000135097
-0.001203246
-0.02241202
-4.195771e-05
-0.001621439
-0.0224067
-3.141439e-05
-0.002050199
-0.02247021
-3.54525e-05
-0.002497435
-0.02264958
-3.129617e-05
-0.002965885
-0.02292393
-3.160721e-05
-0.003461301
-0.02328065
-2.975205e-05
-0.00398773
-0.02370685
-2.973321e-05
-0.02419392
-3.139572e-05
-0.004550326
0.00027791
0.004725857
-0.000286311
-0.004516386
-0.0002796238
0.0001573974
-0.0001296954
5.085161e-05
-0.000891414
-0.02159941
-2.48326e-05
0.0004287663
-0.0002097805
0.0003297376
-0.0001192322
-0.001355328
-0.02193528
-3.853003e-05
-0.001822096
-0.02192046
-2.270538e-05
-0.002302425
-0.02197236
-2.100548e-05
-0.002802903
-0.02213484
-1.346481e-05
-0.003326563
-0.02238781
-1.138129e-05
-0.003878654
-0.02271788
-8.299701e-06
-0.004463531
-0.0231118
-7.631383e-06
-0.02356014
-9.247562e-06
-0.005085955
0.000272841
0.004625843
-0.0002868606
-0.004414986
-0.0002743469
0.0001542405
-0.0001267083
4.997589e-05
-0.000985516
-0.02109107
-2.675506e-05
0.0004349379
-0.0001921144
0.0003359249
-0.0001048056
-0.001496457
-0.02141306
-4.044113e-05
-0.002009765
-0.0213898
-2.235007e-05
-0.002538128
-0.02143067
-1.789071e-05
-0.00308799
-0.02157632
-8.492091e-06
-0.00366201
-0.02180782
-5.141041e-06
-0.004265766
-0.02211067
-1.169292e-06
-0.004903009
-0.02247189
-1.346589e-07
-0.02288078
-1.931188e-06
-0.005578452
0.0002673243
0.00451702
-0.0002868942
-0.00430506
-0.0002685894
0.0001507705
-0.0001234727
4.890111e-05
-0.001073081
-0.0205388
-2.930731e-05
0.0004394214
-0.0001749279
0.0003413718
-9.022003e-05
-0.001627704
-0.02084725
-4.336119e-05
-0.002184262
-0.02081633
-2.305359e-05
-0.002756697
-0.02084631
-1.721192e-05
-0.003351328
-0.0209753
-6.442956e-06
-0.003971079
-0.02118508
-2.171884e-06
-0.004620893
-0.02146078
2.37716e-06
-0.00530466
-0.0217891
3.725796e-06
-0.02215906
1.888382e-06
-0.006026104
0.0002612081
0.004399691
-0.0002860842
-0.004187199
-0.0002624376
0.000147072
-0.0001200533
4.780161e-05
-0.001153265
-0.01994586
-3.172775e-05
0.0004423529
-0.000158075
0.0003450603
-7.573026e-05
-0.001748202
-0.0202405
-4.680378e-05
-0.002344582
-0.02020255
-2.473761e-05
-0.002957195
-0.02022181
-1.806401e-05
-0.003592302
-0.02033436
-6.342149e-06
-0.004252919
-0.02052249
-1.54965e-06
-0.004943703
-0.02077123
3.427651e-06
-0.005668137
-0.0210671
4.950334e-06
-0.02139912
3.014316e-06
-0.006429221
0.0002545751
0.004274382
-0.0002844203
-0.004062107
-0.0002558435
0.0001431274
-0.0001164308
4.671658e-05
-0.001226294
-0.01931577
-3.400991e-05
0.0004438948
-0.0001416711
0.0003477069
-6.165514e-05
-0.001857861
-0.01959631
-5.017278e-05
-0.002490404
-0.01955176
-2.652212e-05
-0.003139207
-0.01956065
-1.927608e-05
-0.003810706
-0.01965694
-6.825829e-06
-0.004507712
-0.0198238
-1.640716e-06
-0.005234512
-0.02004613
3.639388e-06
-0.00599389
-0.02031067
5.249751e-06
-0.02060595
3.23201e-06
-0.00678868
0.0002474276
0.004141928
-0.0002821549
-0.003930104
-0.0002490727
0.0001389511
-0.000112622
4.564558e-05
-0.001292096
-0.01865225
-3.602821e-05
0.0004439502
-0.000125518
0.000349112
-4.794537e-05
-0.001956666
-0.01891831
-5.326762e-05
-0.002621704
-0.01886761
-2.818904e-05
-0.003302931
-0.01886647
-2.048476e-05
-0.004006821
-0.0189469
-7.400161e-06
-0.004735719
-0.01909314
-1.948689e-06
-0.005493832
-0.01928987
3.603663e-06
-0.0062834
-0.01952423
5.281978e-06
-0.01978476
3.168105e-06
-0.007106315
0.0002398932
0.004002277
-0.0002788081
-0.003792133
-0.0002416799
0.0001346092
-0.0001086487
4.448947e-05
-0.001350731
-0.01795881
-3.775642e-05
0.0004425429
-0.0001099649
0.0003493942
-3.465788e-05
-0.002044611
-0.01821028
-5.594925e-05
-0.002738571
-0.01815377
-2.957471e-05
-0.003448574
-0.018143
-2.143599e-05
-0.004180953
-0.01820814
-7.810498e-06
-0.004937936
-0.01833437
-2.097806e-06
-0.005723126
-0.01850667
3.696863e-06
-0.006538348
-0.01871235
5.460182e-06
-0.01894045
3.312871e-06
-0.0073846
0.0002318852
0.003857085
-0.0002749615
-0.003648491
-0.0002342599
0.0001300145
-0.0001045349
4.32621e-05
-0.001402469
-0.01723955
-3.916081e-05
0.0004398991
-9.471127e-05
0.0003486153
-2.172118e-05
-0.002121927
-0.01747622
-5.795712e-05
-0.002841273
-0.01741419
-3.029616e-05
-0.00357656
-0.01739415
-2.165791e-05
-0.004333994
-0.01744456
-7.484221e-06
-0.005115429
-0.01755155
-1.541899e-06
-0.005924052
-0.01770059
4.452128e-06
-0.006760748
-0.01787962
6.298483e-06
-0.01807743
4.094709e-06
-0.007626292
0.0002235534
0.003706251
-0.0002705434
-0.003499381
-0.000226918
0.0001252178
-0.0001001925
4.200965e-05
-0.001447077
-0.01649837
-4.032541e-05
0.0004359057
-7.984428e-05
0.0003467793
-9.144849e-06
-0.002188595
-0.01671998
-5.927902e-05
-0.002929988
-0.0166527
-3.027967e-05
-0.003687275
-0.01662382
-2.095526e-05
-0.004466809
-0.01665977
-6.190552e-06
-0.005269573
-0.01674853
7.929853e-08
-0.006098434
-0.01687549
6.221857e-06
-0.006953649
-0.01702966
8.155649e-06
-0.01720002
5.937018e-06
-0.007834887
6.59113e-05
-5.640772e-05
-9.62781e-05
0.0001561788
0.00374197
-0.003811377
-0.001484277
-4.058784e-05
-0.01573941
3.311543e-06
0.0004303931
0.0003439277
-0.00224449
-5.914174e-05
-0.0159457
-0.003004896
-2.847139e-05
-0.01587354
-0.003781574
-1.827442e-05
-0.01583593
-0.004580425
-2.80157e-06
-0.01585806
-0.005402098
3.620831e-06
-0.01592897
-0.006248679
9.8387e-06
-0.01603513
-0.007119644
1.166854e-05
-0.01616636
9.332725e-06
-0.01631191
-0.00801392
3.628564e-10
1.826127e-09
-1.658717e-09
1.669039e-09
-2.087535e-09
5.14294e-10
1.065872e-11
1.309637e-11
-2.579507e-08
1.910051e-08
-1.342733e-08
2.988146e-09
4.117564e-09
1.885165e-09
3.483308e-09
-4.639669e-08
2.706864e-08
-1.625414e-08
-8.02983e-08
4.210168e-08
-2.159109e-08
-1.347023e-07
6.495884e-08
-2.831658e-08
-2.216516e-07
1.020208e-07
-3.890581e-08
-3.618068e-07
1.596408e-07
-5.33588e-08
2.511929e-07
-7.346155e-08
-5.880374e-07
-5.491471e-10
1.741527e-09
3.786842e-12
3.789087e-09
-1.889942e-09
-5.937031e-10
-8.32983e-10
-1.019e-09
-8.696061e-09
2.711035e-08
-1.275697e-08
-3.427878e-09
-4.076037e-09
-3.83112e-09
-4.710705e-09
6.23075e-10
1.461441e-09
2.499643e-10
7.892184e-10
-1.98337e-08
3.675635e-08
-1.566868e-08
-3.88158e-08
5.400209e-08
-1.95544e-08
-6.865712e-08
8.214561e-08
-2.578702e-08
-1.178589e-07
1.276088e-07
-3.433694e-08
-1.973139e-07
1.999734e-07
-4.654333e-08
-3.267788e-07
3.136466e-07
-6.392606e-08
4.920432e-07
-8.675514e-08
-5.372066e-07
2.508106e-09
2.503673e-08
-1.041854e-08
-4.581211e-09
-5.548893e-09
-5.357733e-09
-6.427158e-09
2.573626e-09
3.204438e-08
-1.33265e-08
2.25229e-09
4.395775e-08
-1.564137e-08
-5.867187e-10
6.589526e-08
-2.047553e-08
-7.810991e-09
1.01324e-07
-2.65832e-08
-2.267472e-08
1.582297e-07
-3.579414e-08
-4.94247e-08
2.482151e-07
-4.818892e-08
-9.767623e-08
3.895426e-07
-6.651272e-08
6.120944e-07
-9.015804e-08
-1.817482e-07
7.04147e-09
2.240491e-08
-9.946504e-09
1.657581e-08
2.813785e-08
-1.291767e-08
2.924459e-08
3.789161e-08
-1.703588e-08
4.573569e-08
5.717484e-08
-2.162954e-08
6.915734e-08
8.871786e-08
-2.89538e-08
1.019238e-07
1.391892e-07
-3.923615e-08
1.483804e-07
2.190674e-07
-5.389626e-08
2.152205e-07
3.440708e-07
-7.513611e-08
5.399962e-07
-1.033501e-07
3.137595e-07
1.151853e-08
4.192329e-09
-1.046166e-08
4.630845e-09
3.545244e-09
3.946274e-09
3.370289e-08
1.168353e-08
-1.542817e-08
5.947616e-08
1.733564e-08
-1.631711e-08
9.301582e-08
2.995318e-08
-2.063592e-08
1.430157e-07
4.74458e-08
-2.544792e-08
2.171161e-07
7.521327e-08
-3.382504e-08
3.301196e-07
1.178994e-07
-4.505983e-08
5.0135e-07
1.863702e-07
-6.151608e-08
2.924921e-07
-8.374234e-08
7.659027e-07
1.44785e-09
2.244518e-09
-1.605091e-09
5.730531e-10
6.206135e-10
8.776218e-10
3.908956e-10
3.785803e-08
-6.434865e-10
-1.047791e-08
-4.948329e-09
-4.285042e-09
-5.1752e-09
-4.578817e-09
-2.17696e-09
-8.432167e-10
-3.39709e-09
5.887883e-08
-1.462877e-08
9.141605e-08
-1.757803e-08
1.409958e-07
-2.210411e-08
2.17066e-07
-2.935743e-08
3.333817e-07
-3.969723e-08
5.125521e-07
-5.600412e-08
-7.725732e-08
7.897354e-07
-3.29029e-09
7.947675e-10
3.25213e-09
-1.152749e-09
0.0008521592
0.0001324677
-0.000848418
-0.005621718
-6.315464e-05
0.0008507787
-7.968606e-05
-7.465795e-05
-0.0004298312
-0.02316062
-0.0004356884
0.001012403
0.001487643
-0.0003825817
-0.0003364137
0.00100141
-0.0004264809
0.001459337
-0.0004024886
-0.0001014009
-0.02331197
-0.0006145269
0.00156109
0.001593828
-0.00035212
-0.0003359345
-0.0001519761
-0.02368052
-0.0007679431
0.00163643
0.001632509
-0.0003113515
-0.0003100515
-0.0001784379
-0.02399173
-0.0007683397
0.001649242
0.001642401
-0.0003161762
-0.0003201009
-0.0002199202
-0.02438318
-0.0007856819
0.001677313
0.001668115
-0.0003177612
-0.0003245839
-0.0002578867
-0.02484435
-0.0007953458
0.001707421
0.00169599
-0.0003245686
-0.0003335637
-0.02538733
-0.000809022
0.001743843
0.001730152
-0.0003325031
-0.00034301
-0.0003007228
-0.0009314324
-0.02018277
-0.0001329228
0.004773845
0.005800122