/*--------------------------------*- C++ -*----------------------------------*\
  =========                 |
  \\      /  F ield         | OpenFOAM: The Open Source CFD Toolbox
   \\    /   O peration     | Website:  https://openfoam.org
    \\  /    A nd           | Version:  7
     \\/     M anipulation  |
\*---------------------------------------------------------------------------*/
FoamFile
{
    version     2.0;
    format      ascii;
    class       volScalarField;
    location    "0.02";
    object      epsilon;
}
// * * * * * * * * * * * * * * * * * * * * * * * * * * * * * * * * * * * * * //

dimensions      [0 2 -3 0 0 0 0];

internalField   nonuniform List<scalar> 
109978
(
0.001933805
0.0019865
0.00199004
0.001989626
0.001988805
0.001987571
0.001986744
0.002090906
0.002100676
0.00210122
0.002100488
0.002098985
0.00199011
0.002100253
0.0021118
0.002112868
0.002112277
0.002110665
0.001989483
0.002100526
0.002112641
0.002114009
0.002113565
0.002111977
0.001988624
0.002099852
0.002112187
0.002113737
0.002113397
0.002111861
0.001987848
0.002099111
0.002111549
0.002113211
0.002112945
0.002111467
0.001987171
0.002098417
0.002110917
0.002112643
0.002112438
0.002111008
0.001986576
0.002097795
0.002110326
0.002112092
0.002111943
0.002110541
0.00198605
0.002097234
0.002109787
0.002111582
0.002111462
0.002110092
0.00198558
0.002096728
0.002109295
0.002111109
0.002111012
0.00210967
0.001985156
0.002096274
0.002108846
0.002110674
0.002110596
0.002109277
0.001984771
0.00209586
0.002108434
0.002110274
0.002110208
0.002108903
0.00198442
0.00209548
0.002108056
0.002109905
0.002109849
0.002108555
0.001984099
0.002095129
0.002107709
0.002109563
0.002109514
0.002108229
0.001983805
0.002094804
0.002107388
0.002109245
0.002109201
0.002107924
0.001983533
0.002094504
0.002107088
0.002108948
0.002108909
0.002107638
0.00198328
0.002094223
0.002106808
0.002108669
0.002108632
0.002107369
0.001983045
0.00209396
0.002106543
0.002108405
0.00210837
0.002107109
0.001982822
0.002093705
0.002106282
0.002108144
0.002108108
0.002106849
0.001982604
0.00209344
0.002105997
0.002107851
0.00210781
0.002106554
0.001982352
0.002093073
0.002105571
0.0021074
0.002107349
0.0021061
0.001981905
0.002092325
0.002104665
0.00210643
0.00210638
0.002105176
0.01203551
0.002090948
0.00210304
0.002104707
0.0021047
0.002103675
0.01216331
0.01206358
0.01205917
0.01205647
0.01205474
0.01205338
0.01205758
0.01204351
0.01204332
0.01204077
0.01203959
0.012039
0.01204638
0.01204148
0.01203997
0.01203917
0.0120387
0.01203837
0.01204283
0.01203976
0.01203942
0.012039
0.0120387
0.01203845
0.01204154
0.01203894
0.01203865
0.0120384
0.01203821
0.01203804
0.01204082
0.01203834
0.01203823
0.0120381
0.012038
0.01203789
0.01204031
0.01203795
0.01203789
0.01203782
0.01203776
0.01203769
0.01203993
0.01203767
0.01203765
0.01203761
0.01203758
0.01203753
0.01203962
0.01203746
0.01203746
0.01203744
0.01203742
0.0120374
0.01203937
0.0120373
0.0120373
0.01203729
0.01203729
0.01203727
0.01203915
0.01203717
0.01203717
0.01203717
0.01203717
0.01203717
0.01203896
0.01203705
0.01203706
0.01203707
0.01203707
0.01203707
0.0120388
0.01203696
0.01203697
0.01203698
0.01203698
0.01203699
0.01203865
0.01203688
0.01203689
0.0120369
0.01203691
0.01203691
0.01203852
0.01203681
0.01203681
0.01203682
0.01203684
0.01203684
0.01203839
0.01203674
0.01203675
0.01203676
0.01203677
0.01203678
0.01203828
0.01203668
0.01203669
0.0120367
0.01203671
0.01203672
0.01203818
0.01203663
0.01203664
0.01203665
0.01203666
0.01203667
0.01203809
0.01203659
0.01203659
0.0120366
0.01203661
0.01203662
0.012038
0.01203654
0.01203655
0.01203656
0.01203657
0.01203658
0.01203792
0.0120365
0.01203651
0.01203652
0.01203653
0.01203654
0.01203784
0.01203647
0.01203647
0.01203648
0.01203649
0.0120365
0.01203777
0.01203643
0.01203644
0.01203645
0.01203646
0.01203646
0.01203768
0.0120364
0.01203641
0.01203641
0.01203642
0.01203643
0.01219328
0.01206078
0.01205449
0.0120529
0.0120521
0.0120515
0.01205293
0.01204229
0.01204329
0.01204052
0.01203937
0.01203881
0.01204508
0.01204138
0.01203988
0.0120391
0.01203859
0.01203827
0.01204093
0.01203963
0.01203938
0.01203902
0.0120387
0.01203845
0.01204031
0.01203886
0.01203861
0.01203837
0.01203817
0.012038
0.01203981
0.01203827
0.0120382
0.01203808
0.01203797
0.01203785
0.01203948
0.0120379
0.01203787
0.0120378
0.01203773
0.01203766
0.01203922
0.01203763
0.01203762
0.01203759
0.01203755
0.0120375
0.012039
0.01203742
0.01203743
0.01203742
0.01203739
0.01203736
0.01203881
0.01203726
0.01203728
0.01203727
0.01203726
0.01203724
0.01203864
0.01203713
0.01203715
0.01203715
0.01203714
0.01203714
0.0120385
0.01203702
0.01203704
0.01203704
0.01203704
0.01203704
0.01203837
0.01203693
0.01203695
0.01203695
0.01203696
0.01203696
0.01203825
0.01203685
0.01203687
0.01203687
0.01203688
0.01203688
0.01203814
0.01203678
0.01203679
0.0120368
0.01203681
0.01203681
0.01203804
0.01203671
0.01203673
0.01203674
0.01203675
0.01203675
0.01203794
0.01203666
0.01203667
0.01203668
0.01203669
0.01203669
0.01203786
0.01203661
0.01203662
0.01203663
0.01203664
0.01203664
0.01203778
0.01203656
0.01203657
0.01203658
0.01203659
0.0120366
0.0120377
0.01203652
0.01203653
0.01203654
0.01203655
0.01203655
0.01203763
0.01203648
0.01203649
0.0120365
0.0120365
0.01203651
0.01203757
0.01203644
0.01203645
0.01203646
0.01203647
0.01203647
0.01203751
0.01203641
0.01203642
0.01203643
0.01203643
0.01203644
0.01203745
0.01203638
0.01203639
0.01203639
0.0120364
0.01203641
0.01219576
0.01205647
0.01205301
0.01205279
0.01205236
0.01205175
0.01205245
0.01204197
0.01204347
0.0120405
0.01203936
0.0120388
0.01204488
0.01204138
0.01203985
0.01203906
0.01203855
0.01203822
0.012041
0.01203961
0.01203934
0.01203897
0.01203868
0.01203842
0.01204029
0.01203884
0.01203859
0.01203836
0.01203816
0.01203799
0.0120398
0.01203826
0.01203818
0.01203808
0.01203796
0.01203785
0.01203947
0.01203789
0.01203786
0.0120378
0.01203773
0.01203765
0.0120392
0.01203762
0.01203762
0.01203759
0.01203755
0.0120375
0.01203898
0.01203741
0.01203743
0.01203741
0.01203739
0.01203736
0.01203879
0.01203725
0.01203727
0.01203727
0.01203726
0.01203724
0.01203863
0.01203712
0.01203714
0.01203715
0.01203714
0.01203714
0.01203848
0.01203701
0.01203703
0.01203704
0.01203704
0.01203704
0.01203835
0.01203692
0.01203694
0.01203695
0.01203696
0.01203696
0.01203823
0.01203684
0.01203686
0.01203687
0.01203688
0.01203688
0.01203812
0.01203677
0.01203679
0.0120368
0.01203681
0.01203681
0.01203802
0.01203671
0.01203673
0.01203674
0.01203675
0.01203675
0.01203793
0.01203665
0.01203667
0.01203668
0.01203669
0.0120367
0.01203785
0.0120366
0.01203662
0.01203663
0.01203664
0.01203664
0.01203777
0.01203655
0.01203657
0.01203658
0.01203659
0.0120366
0.01203769
0.01203651
0.01203653
0.01203654
0.01203655
0.01203655
0.01203762
0.01203647
0.01203649
0.0120365
0.01203651
0.01203651
0.01203756
0.01203644
0.01203645
0.01203646
0.01203647
0.01203647
0.0120375
0.0120364
0.01203642
0.01203643
0.01203643
0.01203644
0.01203744
0.01203637
0.01203639
0.01203639
0.0120364
0.01203641
0.01219149
0.01205558
0.0120525
0.01205181
0.01205128
0.01205082
0.01205233
0.01204191
0.01204334
0.01204047
0.01203933
0.01203879
0.01204489
0.01204136
0.01203984
0.01203905
0.01203854
0.01203821
0.012041
0.01203959
0.0120393
0.01203895
0.01203865
0.0120384
0.01204029
0.01203882
0.01203858
0.01203836
0.01203816
0.01203799
0.01203978
0.01203824
0.01203817
0.01203807
0.01203796
0.01203785
0.01203946
0.01203788
0.01203785
0.01203779
0.01203773
0.01203765
0.01203919
0.01203761
0.01203761
0.01203758
0.01203755
0.0120375
0.01203897
0.0120374
0.01203742
0.01203741
0.01203739
0.01203736
0.01203879
0.01203724
0.01203726
0.01203727
0.01203726
0.01203724
0.01203862
0.01203711
0.01203714
0.01203714
0.01203714
0.01203714
0.01203848
0.012037
0.01203703
0.01203704
0.01203704
0.01203704
0.01203835
0.01203691
0.01203693
0.01203695
0.01203696
0.01203696
0.01203823
0.01203683
0.01203685
0.01203687
0.01203688
0.01203688
0.01203812
0.01203676
0.01203678
0.0120368
0.01203681
0.01203681
0.01203802
0.0120367
0.01203672
0.01203673
0.01203675
0.01203675
0.01203793
0.01203664
0.01203666
0.01203668
0.01203669
0.0120367
0.01203784
0.01203659
0.01203661
0.01203663
0.01203664
0.01203664
0.01203776
0.01203655
0.01203656
0.01203658
0.01203659
0.0120366
0.01203769
0.01203651
0.01203652
0.01203653
0.01203654
0.01203655
0.01203762
0.01203647
0.01203648
0.01203649
0.0120365
0.01203651
0.01203756
0.01203643
0.01203645
0.01203646
0.01203647
0.01203647
0.0120375
0.0120364
0.01203641
0.01203642
0.01203643
0.01203644
0.01203744
0.01203637
0.01203638
0.01203639
0.0120364
0.01203641
0.01219179
0.01205576
0.0120526
0.0120519
0.01205137
0.01205091
0.01205231
0.01204191
0.01204334
0.01204047
0.01203933
0.01203879
0.01204487
0.01204136
0.01203984
0.01203905
0.01203854
0.01203821
0.012041
0.01203959
0.0120393
0.01203895
0.01203865
0.0120384
0.01204029
0.01203882
0.01203858
0.01203836
0.01203816
0.01203799
0.01203978
0.01203824
0.01203817
0.01203807
0.01203796
0.01203785
0.01203945
0.01203788
0.01203785
0.01203779
0.01203773
0.01203765
0.01203919
0.01203761
0.01203761
0.01203758
0.01203755
0.0120375
0.01203897
0.0120374
0.01203742
0.01203741
0.01203739
0.01203736
0.01203879
0.01203724
0.01203726
0.01203727
0.01203726
0.01203724
0.01203862
0.01203711
0.01203714
0.01203714
0.01203714
0.01203714
0.01203848
0.012037
0.01203703
0.01203704
0.01203704
0.01203704
0.01203834
0.01203691
0.01203693
0.01203695
0.01203696
0.01203696
0.01203823
0.01203683
0.01203685
0.01203687
0.01203688
0.01203688
0.01203812
0.01203676
0.01203678
0.0120368
0.01203681
0.01203681
0.01203802
0.0120367
0.01203672
0.01203673
0.01203675
0.01203675
0.01203793
0.01203664
0.01203666
0.01203668
0.01203669
0.0120367
0.01203784
0.01203659
0.01203661
0.01203663
0.01203664
0.01203664
0.01203776
0.01203655
0.01203656
0.01203658
0.01203659
0.0120366
0.01203769
0.01203651
0.01203652
0.01203653
0.01203654
0.01203655
0.01203762
0.01203647
0.01203648
0.01203649
0.0120365
0.01203651
0.01203756
0.01203643
0.01203645
0.01203646
0.01203647
0.01203647
0.0120375
0.0120364
0.01203641
0.01203642
0.01203643
0.01203644
0.01203744
0.01203637
0.01203638
0.01203639
0.0120364
0.01203641
0.01219481
0.01205615
0.01205256
0.01205184
0.01205135
0.01205088
0.01205239
0.01204196
0.01204346
0.0120405
0.01203936
0.0120388
0.01204478
0.01204138
0.01203985
0.01203906
0.01203855
0.01203823
0.012041
0.0120396
0.01203934
0.01203897
0.01203868
0.01203842
0.01204029
0.01203884
0.01203859
0.01203836
0.01203816
0.012038
0.01203979
0.01203825
0.01203818
0.01203807
0.01203796
0.01203785
0.01203946
0.01203789
0.01203786
0.0120378
0.01203773
0.01203765
0.0120392
0.01203762
0.01203761
0.01203759
0.01203755
0.0120375
0.01203898
0.01203741
0.01203742
0.01203741
0.01203739
0.01203736
0.01203879
0.01203725
0.01203727
0.01203727
0.01203726
0.01203724
0.01203863
0.01203712
0.01203714
0.01203715
0.01203714
0.01203713
0.01203848
0.01203701
0.01203703
0.01203704
0.01203704
0.01203704
0.01203835
0.01203692
0.01203694
0.01203695
0.01203696
0.01203696
0.01203823
0.01203684
0.01203686
0.01203687
0.01203688
0.01203688
0.01203812
0.01203677
0.01203679
0.0120368
0.01203681
0.01203681
0.01203802
0.0120367
0.01203672
0.01203674
0.01203675
0.01203675
0.01203793
0.01203665
0.01203667
0.01203668
0.01203669
0.01203669
0.01203784
0.0120366
0.01203662
0.01203663
0.01203664
0.01203664
0.01203776
0.01203655
0.01203657
0.01203658
0.01203659
0.0120366
0.01203769
0.01203651
0.01203653
0.01203654
0.01203654
0.01203655
0.01203762
0.01203647
0.01203649
0.0120365
0.0120365
0.01203651
0.01203756
0.01203644
0.01203645
0.01203646
0.01203647
0.01203647
0.0120375
0.0120364
0.01203642
0.01203642
0.01203643
0.01203644
0.01203744
0.01203637
0.01203638
0.01203639
0.0120364
0.01203641
0.01219458
0.0120575
0.01205277
0.01205197
0.01205143
0.01205092
0.01205264
0.01204229
0.01204328
0.01204052
0.01203936
0.01203881
0.01204475
0.01204138
0.01203988
0.01203911
0.0120386
0.01203828
0.01204099
0.01203962
0.01203938
0.01203902
0.0120387
0.01203845
0.01204028
0.01203886
0.01203861
0.01203837
0.01203817
0.012038
0.01203978
0.01203826
0.01203819
0.01203808
0.01203797
0.01203785
0.01203945
0.01203789
0.01203786
0.0120378
0.01203773
0.01203766
0.01203919
0.01203762
0.01203762
0.01203759
0.01203755
0.0120375
0.01203897
0.01203742
0.01203743
0.01203741
0.01203739
0.01203736
0.01203879
0.01203726
0.01203727
0.01203727
0.01203726
0.01203724
0.01203862
0.01203713
0.01203714
0.01203715
0.01203714
0.01203714
0.01203848
0.01203702
0.01203704
0.01203704
0.01203704
0.01203704
0.01203835
0.01203692
0.01203694
0.01203695
0.01203696
0.01203696
0.01203823
0.01203684
0.01203686
0.01203687
0.01203688
0.01203688
0.01203812
0.01203677
0.01203679
0.0120368
0.01203681
0.01203681
0.01203802
0.01203671
0.01203673
0.01203674
0.01203674
0.01203675
0.01203793
0.01203665
0.01203667
0.01203668
0.01203669
0.01203669
0.01203784
0.0120366
0.01203662
0.01203663
0.01203664
0.01203664
0.01203776
0.01203656
0.01203657
0.01203658
0.01203659
0.0120366
0.01203769
0.01203652
0.01203653
0.01203654
0.01203654
0.01203655
0.01203762
0.01203648
0.01203649
0.0120365
0.0120365
0.01203651
0.01203756
0.01203644
0.01203645
0.01203646
0.01203647
0.01203647
0.0120375
0.01203641
0.01203642
0.01203642
0.01203643
0.01203644
0.01203744
0.01203638
0.01203639
0.01203639
0.0120364
0.01203641
0.01218677
0.01206196
0.01205831
0.01205652
0.01205524
0.01205424
0.01205388
0.0120435
0.01204331
0.01204076
0.01203958
0.01203899
0.0120442
0.01204147
0.01203997
0.01203917
0.0120387
0.01203837
0.01204129
0.01203975
0.01203941
0.01203899
0.0120387
0.01203845
0.01204053
0.01203893
0.01203864
0.01203839
0.01203821
0.01203804
0.01203997
0.01203832
0.01203822
0.0120381
0.01203799
0.01203789
0.01203961
0.01203794
0.01203789
0.01203782
0.01203776
0.01203769
0.01203933
0.01203766
0.01203764
0.01203761
0.01203758
0.01203753
0.01203909
0.01203745
0.01203745
0.01203744
0.01203742
0.01203739
0.01203889
0.01203729
0.01203729
0.01203729
0.01203729
0.01203727
0.01203872
0.01203716
0.01203716
0.01203717
0.01203717
0.01203717
0.01203857
0.01203705
0.01203706
0.01203707
0.01203707
0.01203707
0.01203843
0.01203695
0.01203696
0.01203697
0.01203698
0.01203699
0.01203831
0.01203687
0.01203688
0.01203689
0.01203691
0.01203691
0.01203819
0.0120368
0.01203681
0.01203682
0.01203683
0.01203684
0.01203809
0.01203673
0.01203675
0.01203676
0.01203677
0.01203678
0.01203799
0.01203668
0.01203669
0.0120367
0.01203671
0.01203672
0.01203791
0.01203662
0.01203664
0.01203665
0.01203666
0.01203667
0.01203782
0.01203658
0.01203659
0.0120366
0.01203661
0.01203662
0.01203775
0.01203654
0.01203654
0.01203656
0.01203657
0.01203658
0.01203768
0.0120365
0.0120365
0.01203652
0.01203653
0.01203654
0.01203761
0.01203646
0.01203647
0.01203648
0.01203649
0.0120365
0.01203755
0.01203643
0.01203643
0.01203644
0.01203645
0.01203646
0.01203768
0.0120364
0.0120364
0.01203641
0.01203642
0.01203643
0.01311612
0.01246706
0.01239443
0.01234972
0.01231654
0.01229001
0.01206968
0.01204915
0.01204506
0.01204278
0.01204201
0.01204163
0.01204143
0.01206119
0.01204671
0.01204243
0.01204085
0.01204012
0.01203966
0.01203935
0.01205466
0.01204173
0.01204051
0.01203961
0.01203916
0.01203885
0.01203864
0.01205235
0.01204042
0.01203951
0.01203897
0.01203869
0.01203847
0.01203832
0.01205053
0.01203914
0.01203874
0.01203842
0.01203826
0.01203813
0.01203804
0.01204929
0.01203844
0.0120382
0.01203799
0.01203791
0.01203783
0.01203778
0.0120483
0.01203791
0.01203778
0.01203764
0.0120376
0.01203757
0.01203755
0.01204751
0.01203752
0.01203746
0.01203736
0.01203734
0.01203734
0.01203734
0.01204683
0.01203721
0.01203719
0.01203712
0.01203712
0.01203713
0.01203715
0.01204625
0.01203696
0.01203697
0.01203691
0.01203693
0.01203694
0.01203698
0.01204574
0.01203675
0.01203678
0.01203673
0.01203675
0.01203678
0.01203682
0.01204528
0.01203657
0.01203662
0.01203658
0.0120366
0.01203663
0.01203667
0.01204487
0.01203642
0.01203647
0.01203644
0.01203646
0.01203649
0.01203654
0.01204449
0.01203628
0.01203634
0.01203632
0.01203634
0.01203637
0.01203642
0.01204415
0.01203616
0.01203623
0.0120362
0.01203623
0.01203626
0.01203631
0.01204383
0.01203605
0.01203612
0.0120361
0.01203612
0.01203615
0.01203621
0.01204353
0.01203595
0.01203603
0.01203601
0.01203603
0.01203606
0.01203611
0.01204326
0.01203585
0.01203594
0.01203592
0.01203594
0.01203597
0.01203602
0.012043
0.01203577
0.01203586
0.01203584
0.01203586
0.01203589
0.01203594
0.01204277
0.01203569
0.01203578
0.01203577
0.01203579
0.01203581
0.01203586
0.01204255
0.01203562
0.01203571
0.0120357
0.01203572
0.01203574
0.01203579
0.01204234
0.01203555
0.01203564
0.01203564
0.01203565
0.01203568
0.01203572
0.01204215
0.001980175
0.01203558
0.01203558
0.01203559
0.01203562
0.01203566
0.004220207
0.012688
0.0120853
0.01207738
0.004187157
0.004352313
0.01311617
0.01235446
0.01207469
0.0120578
0.004348843
0.004353222
0.01246691
0.01227986
0.01205754
0.0120549
0.004344741
0.00434799
0.01239435
0.01224833
0.01205309
0.01205138
0.004339419
0.004343431
0.01234966
0.01222615
0.01205096
0.01204892
0.004334967
0.004339382
0.01231652
0.01220566
0.01204963
0.01204774
0.004330769
0.01228994
0.01204843
0.00417858
0.004341167
0.01206881
0.01205594
0.01205875
0.01205474
0.004338015
0.004340213
0.01206008
0.01204785
0.01205306
0.01204541
0.004334583
0.004333956
0.01205365
0.01204318
0.01205075
0.01204311
0.004329165
0.004328591
0.01205142
0.01204159
0.01204935
0.01204157
0.004324594
0.004324177
0.01204966
0.01204061
0.01204832
0.01204072
0.004320754
0.004320449
0.01204847
0.01203999
0.0120475
0.01204011
0.004317469
0.004317239
0.01204753
0.01203955
0.01204682
0.01203966
0.004314605
0.00431443
0.01204677
0.01203921
0.01204623
0.01203931
0.004312074
0.004311939
0.01204613
0.01203894
0.01204571
0.01203903
0.00430981
0.004309707
0.01204558
0.01203871
0.01204525
0.0120388
0.004307767
0.004307691
0.01204509
0.01203852
0.01204483
0.0120386
0.004305911
0.004305855
0.01204466
0.01203836
0.01204445
0.01203842
0.004304215
0.004304175
0.01204427
0.01203821
0.01204411
0.01203827
0.004302655
0.004302628
0.01204391
0.01203808
0.01204379
0.01203813
0.004301215
0.004301196
0.01204358
0.01203797
0.0120435
0.01203801
0.004299881
0.004299868
0.01204328
0.01203786
0.01204323
0.0120379
0.004298643
0.004298634
0.012043
0.01203777
0.01204297
0.0120378
0.004297491
0.004297485
0.01204274
0.01203768
0.01204274
0.01203771
0.004296415
0.004296411
0.01204251
0.0120376
0.01204252
0.01203762
0.004295407
0.004295397
0.01204228
0.01203753
0.01204231
0.01203755
0.004294449
0.00429438
0.01204208
0.01203746
0.01204212
0.01203748
0.004293446
0.004292958
0.01204188
0.01203739
0.01204194
0.01203741
0.004291755
0.01202633
0.01204214
0.01203733
0.01204133
0.01203687
0.01344753
0.01206591
0.01208007
0.01395421
0.01206356
0.01208242
0.01370706
0.01206152
0.01208649
0.01396112
0.0120623
0.01208665
0.01378909
0.01206127
0.0120871
0.01395138
0.01206241
0.01208707
0.01394036
0.01206131
0.01208691
0.01395149
0.01206252
0.01208687
0.0139504
0.01206143
0.01208687
0.01392524
0.01206242
0.01208692
0.01395526
0.01206138
0.01208719
0.01380726
0.0120624
0.01208708
0.0139602
0.01206136
0.01208664
0.01370991
0.01206275
0.01208649
0.01395141
0.01206233
0.01208247
0.01344678
0.01206672
0.01208005
0.01269119
0.01208415
0.01207736
0.004220196
0.01235444
0.01207469
0.01205779
0.004187142
0.004352304
0.01227952
0.01205754
0.01205488
0.004348844
0.00435326
0.01224778
0.01205309
0.01205136
0.004344762
0.004347948
0.01222555
0.01205096
0.01204891
0.004339403
0.004343476
0.01220497
0.01204963
0.01204773
0.004334984
0.004339385
0.0120406
0.01204934
0.01204157
0.004329151
0.004328592
0.0120391
0.0120475
0.01204011
0.004320752
0.004320464
0.01203866
0.01204681
0.01203966
0.004317465
0.004317242
0.01203836
0.01204623
0.01203931
0.004314602
0.004314442
0.01203813
0.01204571
0.01203903
0.004312081
0.004311965
0.01203795
0.01204524
0.0120388
0.004309828
0.004309719
0.01203756
0.0120441
0.01203827
0.004304226
0.004304187
0.01203743
0.01204379
0.01203813
0.004302671
0.00430264
0.01203734
0.01204349
0.01203801
0.004301233
0.004301207
0.01203726
0.01204322
0.0120379
0.004299901
0.00429988
0.01203713
0.01204273
0.01203771
0.004297515
0.004297498
0.01203705
0.01204251
0.01203762
0.004296439
0.004296428
0.01203695
0.01204211
0.01203747
0.004294461
0.004294393
0.01203689
0.01204193
0.01203741
0.004293448
0.004292966
0.01203733
0.01204133
0.01203735
0.004291757
0.01202622
0.0121614
0.009086832
0.01209596
0.009156362
0.01209342
0.009162809
0.01207959
0.009113936
0.01207353
0.009120808
0.01207338
0.009072582
0.01206673
0.009086988
0.01206993
0.009043378
0.01206227
0.00906102
0.0120674
0.009020017
0.01205963
0.009040364
0.01206542
0.009001088
0.01205776
0.009023131
0.01206803
0.009109683
0.01208622
0.009123073
0.01205181
0.009072197
0.01205763
0.009072778
0.01204742
0.009034139
0.01204976
0.009034761
0.01204557
0.009005643
0.01204697
0.009006031
0.01204438
0.008982848
0.01204527
0.008983106
0.01204354
0.008963943
0.01204416
0.008964095
0.0120429
0.008947812
0.01204335
0.008947898
0.01204238
0.008933794
0.01204272
0.008933834
0.01204194
0.008921423
0.0120422
0.00892143
0.01204156
0.008910379
0.01204177
0.008910369
0.01204123
0.008900427
0.01204141
0.008900406
0.01204094
0.008891385
0.01204109
0.008891362
0.01204068
0.008883124
0.0120408
0.008883096
0.01204045
0.008875536
0.01204055
0.008875505
0.01204024
0.008868538
0.01204032
0.008868501
0.01204004
0.008862059
0.01204012
0.008862018
0.01203987
0.008856043
0.01203993
0.008855999
0.0120397
0.008850444
0.01203976
0.008850398
0.01203955
0.008845217
0.0120396
0.008845173
0.01203941
0.008840331
0.01203946
0.008840295
0.01203929
0.008835765
0.01203932
0.008835728
0.01203917
0.008831474
0.0120392
0.008831416
0.01203905
0.008827267
0.01203908
0.008826673
0.01216918
0.01217072
0.01216322
0.01216491
0.01216211
0.01216116
0.01216394
0.01216236
0.01216297
0.01216187
0.01216367
0.01216178
0.01216177
0.01216347
0.01216573
0.01216502
0.01215702
0.012182
0.01204842
0.004330792
0.01205451
0.01205874
0.01205474
0.004178469
0.00434114
0.01204658
0.01205305
0.01204541
0.004337931
0.004340216
0.01204201
0.01205075
0.01204311
0.004334543
0.004333981
0.0120396
0.01204832
0.01204071
0.004324556
0.004324212
0.01203779
0.01204483
0.01203859
0.004307781
0.004307718
0.01203765
0.01204445
0.01203842
0.004305938
0.004305861
0.01203718
0.01204297
0.0120378
0.004298669
0.004298651
0.01203699
0.01204231
0.01203755
0.004295441
0.004295391
0.01212461
0.009185664
0.01211617
0.008867604
0.01211625
0.009145905
0.0121274
0.008830392
0.01215624
0.012184
0.012075
0.00915307
0.01208494
0.009133586
0.01206667
0.009112495
0.01207889
0.009091685
0.01206275
0.009082636
0.01207472
0.009058928
0.01206076
0.009059035
0.01207166
0.009032321
0.01205914
0.009039794
0.01206917
0.009011337
0.01206065
0.009100806
0.01205805
0.009098158
0.01205063
0.009054476
0.01204931
0.009054056
0.01204708
0.009021374
0.01204657
0.009021134
0.01204532
0.008995503
0.01204498
0.00899532
0.01204419
0.00897451
0.01204393
0.008974366
0.01204339
0.00895684
0.01204317
0.008956722
0.01204277
0.008941659
0.01204258
0.008941556
0.01204226
0.008928378
0.01204209
0.008928283
0.01204184
0.0089166
0.01204169
0.008916508
0.01204147
0.00890604
0.01204134
0.008905956
0.01204116
0.008896492
0.01204103
0.008896412
0.01204087
0.008887799
0.01204075
0.008887718
0.01204062
0.008879836
0.01204051
0.008879762
0.01204039
0.008872506
0.01204029
0.00887244
0.01204018
0.008865733
0.01204009
0.008865672
0.01203999
0.008859456
0.0120399
0.008859399
0.01203982
0.008853621
0.01203974
0.008853565
0.01203966
0.008848186
0.01203958
0.008848129
0.01203951
0.008843112
0.01203944
0.008843049
0.01203937
0.00883837
0.01203931
0.008838308
0.01203925
0.008833922
0.01203918
0.008833867
0.01203913
0.008829619
0.01203907
0.008829664
0.01203901
0.01201421
0.008824635
0.01203809
0.01216632
0.01216707
0.01216278
0.01216318
0.0121621
0.01216199
0.01216336
0.01216255
0.01216196
0.01216147
0.0121655
0.0121647
0.01216351
0.01216259
0.01216922
0.01216974
0.01216317
0.009086425
0.01207514
0.009149854
0.01208735
0.009133542
0.01207959
0.009114186
0.01207353
0.009120818
0.01204558
0.009004858
0.01204698
0.009005239
0.01204354
0.008963151
0.01204417
0.008964122
0.01204339
0.008956858
0.01204318
0.00895675
0.0120429
0.00894787
0.01204331
0.00894792
0.0120415
0.008906062
0.01204134
0.008905969
0.01204068
0.008883228
0.0120408
0.008883121
0.01204062
0.008879862
0.01204051
0.00887979
0.01204045
0.008875569
0.01204053
0.008875532
0.01204039
0.00887253
0.01204029
0.008872467
0.01204024
0.008868564
0.0120403
0.008868523
0.01204018
0.008865758
0.01204009
0.008865697
0.01204004
0.008862084
0.0120401
0.008862042
0.01203999
0.008859482
0.01203991
0.008859424
0.0120397
0.008850471
0.01203976
0.008850426
0.01203966
0.008848217
0.01203959
0.008848156
0.01203955
0.008845247
0.01203959
0.008845202
0.01203951
0.008843144
0.01203944
0.008843078
0.01203929
0.008834995
0.01203932
0.008835766
0.01203925
0.008833977
0.01203919
0.008833912
0.01203917
0.008831527
0.01203918
0.008831498
0.01203913
0.008829603
0.01203907
0.008829762
0.01203905
0.008827308
0.01203907
0.008826606
0.01203901
0.01133999
0.008824642
0.01203803
0.01275889
0.009498732
0.0134196
0.008700057
0.01370879
0.008691057
0.01305989
0.008654589
0.01332796
0.00864954
0.01286418
0.008627777
0.01308203
0.00862497
0.01273188
0.008608821
0.01291812
0.008607502
0.01263748
0.008594221
0.01280216
0.008593932
0.01256575
0.008582369
0.01271054
0.00858295
0.01311782
0.01313273
0.01313493
0.01314882
0.01315576
0.01315382
0.01313091
0.01315947
0.01314802
0.01316516
0.01316249
0.01314299
0.01314493
0.01312796
0.01312059
0.0131125
0.013044
0.01310128
0.01393472
0.008713912
0.01446751
0.008715977
0.01307044
0.01309707
0.01332178
0.008664581
0.0138781
0.008663282
0.0130303
0.008637069
0.01347473
0.008633105
0.01285012
0.008617694
0.01323303
0.008612425
0.01272351
0.008602856
0.01306043
0.008596711
0.01262694
0.00859091
0.0129279
0.008584122
0.01312369
0.01313673
0.0131499
0.01310688
0.01313841
0.01314104
0.01317077
0.01315223
0.0131679
0.01313523
0.01316557
0.01315741
0.01315361
0.01315082
0.01310643
0.01313401
0.0127656
0.009496713
0.01212492
0.00918153
0.01211882
0.008867298
0.01211687
0.009145074
0.01212735
0.008830479
0.01209343
0.009156692
0.01209337
0.009166582
0.01305979
0.008654593
0.008649532
0.0133279
0.01206675
0.009109234
0.012081
0.00909164
0.01207327
0.009071728
0.01206669
0.009086148
0.01206284
0.009081179
0.01207682
0.009058313
0.01206994
0.00904386
0.01206229
0.009061139
0.0120673
0.009019179
0.01205959
0.009039549
0.0120592
0.009038918
0.01207108
0.009010777
0.01204532
0.008994692
0.01204499
0.008994525
0.01204296
0.008597406
0.01204411
0.008598124
0.01204378
0.008593746
0.008592625
0.01204191
0.01204277
0.008942147
0.01204257
0.008941641
0.01204238
0.008933924
0.01204268
0.008933862
0.01204226
0.008928399
0.0120421
0.00892831
0.01204194
0.008921469
0.01204217
0.00892064
0.01204184
0.0089158
0.01204169
0.008915721
0.01204155
0.008909605
0.01204175
0.008910395
0.01204167
0.008549254
0.01204209
0.008549676
0.01204046
0.008510788
0.0120406
0.008511057
0.01204053
0.00850935
0.008508824
0.01204003
0.01203899
0.008471753
0.008472238
0.01203894
0.01517296
0.008755985
0.01402586
0.008750043
0.0121648
0.008884361
0.01215426
0.008833401
0.01305081
0.01302481
0.01351257
0.008680797
0.01400722
0.008684622
0.01311948
0.008645734
0.01351792
0.008645337
0.01290438
0.008623231
0.01323951
0.00862073
0.01275772
0.008606794
0.01305395
0.008603077
0.01265144
0.00859379
0.01291945
0.008589192
0.01256998
0.008583138
0.01281517
0.008577904
0.01313407
0.01313964
0.01313968
0.01315348
0.01311529
0.01314554
0.0131582
0.01315373
0.01313935
0.01313039
0.01313516
0.01315925
0.01317136
0.0131355
0.01314668
0.01315133
0.01303358
0.01298124
0.009001242
0.01205949
0.01206527
0.009109204
0.01208599
0.009123233
0.0120678
0.009101316
0.009098716
0.01206064
0.01205804
0.009072687
0.009072795
0.01205181
0.01205748
0.009053707
0.009054328
0.01205062
0.01204932
0.009033541
0.009033997
0.01204742
0.01204966
0.00902058
0.01204665
0.009020367
0.01204707
0.008982117
0.01204522
0.008982321
0.01204433
0.00897371
0.01204399
0.00897358
0.01204419
0.008900464
0.01204138
0.008899617
0.01204121
0.008890601
0.008890547
0.01204094
0.01204109
0.00885607
0.01203992
0.008855218
0.01203985
0.00884036
0.01203944
0.008839519
0.0120394
0.008837596
0.01203932
0.008837535
0.01203937
0.01382531
0.008719585
0.01385297
0.008721158
0.01301946
0.01298051
0.01323398
0.008671942
0.01343996
0.008667805
0.01298174
0.00863844
0.01313075
0.008636739
0.01281706
0.008616365
0.01293971
0.008616156
0.01270213
0.00859998
0.0128092
0.008600772
0.01261716
0.008586921
0.01271126
0.008588501
0.01313888
0.01315323
0.01316587
0.01315044
0.01316336
0.01316019
0.01315829
0.01313731
0.01316711
0.01314897
0.01316387
0.01315529
0.0131435
0.01310506
0.01311601
0.01312771
0.01306534
0.01302521
0.01516796
0.008749953
0.008743512
0.01403097
0.01216345
0.008887443
0.008834836
0.01215419
0.01311938
0.008645701
0.008645316
0.01351761
0.01204282
0.008589707
0.008590348
0.01204358
0.01204203
0.008551915
0.01204116
0.008551183
0.01204056
0.008513822
0.008514095
0.01204056
0.01204062
0.008512517
0.01204012
0.008512038
0.01204196
0.01202644
0.01204196
0.01203728
0.01203728
0.01202634
0.01201451
0.01203809
0.01134762
0.01203803
0.01203899
0.008470594
0.008470094
0.01203873
0.01205232
0.008790953
0.0120568
0.008784605
0.0120493
0.008721748
0.01204409
0.008718839
0.01204747
0.008680913
0.01204285
0.008678958
0.01204622
0.008651671
0.01204257
0.008650055
0.01204526
0.008628662
0.01204237
0.008627258
0.01204447
0.008609797
0.01204217
0.008608543
0.01204379
0.008593798
0.01204196
0.008592682
0.0120432
0.008579942
0.01204174
0.008578938
0.01204271
0.008567746
0.01204152
0.008566832
0.01204228
0.008556874
0.01204129
0.008556037
0.01204191
0.008547086
0.01204107
0.008546315
0.01204158
0.008538205
0.01204084
0.008537491
0.01204129
0.008530093
0.01204063
0.008529432
0.01204103
0.008522645
0.01204044
0.008522031
0.01204077
0.008515774
0.01204024
0.008515203
0.01204053
0.008509411