/*--------------------------------*- C++ -*----------------------------------*\
  =========                 |
  \\      /  F ield         | OpenFOAM: The Open Source CFD Toolbox
   \\    /   O peration     | Website:  https://openfoam.org
    \\  /    A nd           | Version:  7
     \\/     M anipulation  |
\*---------------------------------------------------------------------------*/
FoamFile
{
    version     2.0;
    format      ascii;
    class       volScalarField;
    location    "0.02";
    object      k;
}
// * * * * * * * * * * * * * * * * * * * * * * * * * * * * * * * * * * * * * //

dimensions      [0 2 -2 0 0 0 0];

internalField   nonuniform List<scalar> 
109978
(
0.003761394
0.003759414
0.003757743
0.003756497
0.003755471
0.00375462
0.003759777
0.003759076
0.003758091
0.00375716
0.003756324
0.003755586
0.003757863
0.003757527
0.003756825
0.003756091
0.003755409
0.003754779
0.003756287
0.003756149
0.00375567
0.003755114
0.003754587
0.003754077
0.003754991
0.003754931
0.003754581
0.003754163
0.003753744
0.003753322
0.003753911
0.003753882
0.003753617
0.003753307
0.003752961
0.003752619
0.003752986
0.003752967
0.003752755
0.003752509
0.003752234
0.003751954
0.003752181
0.003752159
0.003751985
0.003751785
0.003751575
0.003751331
0.00375147
0.003751439
0.003751292
0.003751126
0.003750951
0.003750747
0.003750836
0.003750791
0.003750665
0.003750521
0.003750374
0.003750206
0.003750264
0.003750211
0.003750094
0.003749967
0.003749842
0.003749705
0.003749746
0.003749682
0.003749571
0.00374946
0.00374935
0.00374923
0.003749272
0.003749197
0.003749091
0.003748992
0.003748895
0.003748788
0.00374884
0.003748749
0.003748651
0.003748558
0.00374847
0.003748375
0.003748445
0.003748335
0.003748243
0.003748156
0.003748074
0.003747989
0.003748079
0.003747952
0.003747865
0.003747782
0.003747706
0.003747628
0.003747739
0.003747597
0.003747513
0.003747433
0.003747363
0.003747291
0.003747423
0.003747265
0.003747185
0.00374711
0.003747043
0.003746975
0.003747129
0.003746956
0.003746879
0.003746809
0.003746743
0.003746677
0.003746854
0.003746668
0.003746592
0.003746527
0.003746462
0.003746398
0.003746598
0.003746398
0.003746324
0.003746264
0.003746198
0.003746137
0.003746358
0.003746147
0.003746073
0.003746016
0.003745953
0.003745894
0.003677035
0.003745912
0.00374584
0.003745786
0.003745727
0.003745667
0.003702655
0.003681959
0.003681049
0.003680493
0.003680139
0.003679862
0.003681042
0.00367825
0.003678218
0.003677682
0.003677437
0.003677316
0.003678713
0.003677853
0.003677537
0.003677369
0.003677272
0.003677208
0.003677992
0.003677501
0.003677428
0.003677341
0.003677281
0.00367723
0.003677743
0.003677337
0.003677276
0.003677222
0.003677184
0.00367715
0.003677607
0.003677217
0.003677193
0.003677166
0.003677145
0.003677122
0.003677515
0.003677142
0.003677129
0.003677114
0.003677101
0.003677086
0.003677447
0.003677089
0.003677083
0.003677075
0.003677067
0.003677058
0.003677394
0.00367705
0.003677047
0.003677043
0.003677039
0.003677033
0.00367735
0.003677019
0.003677018
0.003677016
0.003677015
0.003677011
0.003677313
0.003676995
0.003676995
0.003676994
0.003676994
0.003676992
0.003677281
0.003676975
0.003676975
0.003676976
0.003676976
0.003676976
0.003677253
0.003676958
0.003676959
0.00367696
0.003676961
0.003676961
0.003677228
0.003676943
0.003676944
0.003676946
0.003676947
0.003676947
0.003677206
0.00367693
0.003676932
0.003676933
0.003676935
0.003676936
0.003677186
0.003676919
0.003676921
0.003676922
0.003676924
0.003676925
0.003677167
0.003676909
0.003676911
0.003676912
0.003676914
0.003676915
0.00367715
0.0036769
0.003676902
0.003676903
0.003676905
0.003676906
0.003677135
0.003676892
0.003676894
0.003676895
0.003676897
0.003676898
0.00367712
0.003676885
0.003676886
0.003676888
0.003676889
0.003676891
0.003677107
0.003676878
0.003676879
0.003676881
0.003676883
0.003676884
0.003677095
0.003676872
0.003676873
0.003676875
0.003676876
0.003676877
0.003677083
0.003676867
0.003676867
0.003676869
0.00367687
0.003676872
0.003677067
0.003676861
0.003676862
0.003676863
0.003676865
0.003676866
0.003708853
0.003681372
0.003680043
0.003679721
0.003679564
0.003679446
0.003680067
0.00367799
0.003678211
0.003677628
0.003677389
0.003677277
0.003678459
0.003677834
0.003677518
0.003677355
0.00367725
0.003677186
0.003677611
0.003677473
0.003677422
0.003677347
0.003677282
0.00367723
0.003677501
0.003677323
0.003677268
0.003677219
0.003677176
0.003677142
0.003677413
0.003677204
0.003677188
0.003677163
0.00367714
0.003677117
0.003677358
0.003677133
0.003677125
0.003677111
0.003677095
0.00367708
0.003677314
0.00367708
0.003677078
0.003677071
0.003677062
0.003677052
0.003677278
0.003677042
0.003677043
0.003677039
0.003677033
0.003677027
0.003677247
0.003677012
0.003677014
0.003677012
0.003677009
0.003677006
0.003677221
0.003676988
0.003676991
0.00367699
0.003676989
0.003676987
0.003677197
0.003676969
0.003676971
0.003676972
0.003676971
0.00367697
0.003677176
0.003676952
0.003676955
0.003676956
0.003676956
0.003676955
0.003677156
0.003676938
0.003676941
0.003676942
0.003676942
0.003676942
0.003677139
0.003676925
0.003676928
0.003676929
0.00367693
0.003676931
0.003677122
0.003676915
0.003676917
0.003676918
0.003676919
0.00367692
0.003677107
0.003676905
0.003676907
0.003676908
0.00367691
0.00367691
0.003677094
0.003676896
0.003676898
0.0036769
0.003676901
0.003676902
0.003677081
0.003676888
0.00367689
0.003676892
0.003676893
0.003676894
0.003677069
0.003676881
0.003676883
0.003676884
0.003676885
0.003676886
0.003677058
0.003676874
0.003676876
0.003676877
0.003676878
0.00367688
0.003677047
0.003676868
0.00367687
0.003676871
0.003676872
0.003676873
0.003677038
0.003676863
0.003676864
0.003676865
0.003676866
0.003676867
0.003677029
0.003676858
0.003676859
0.00367686
0.003676861
0.003676862
0.003709357
0.003680449
0.003679729
0.003679697
0.003679619
0.003679502
0.003679964
0.003677922
0.003678251
0.003677625
0.003677388
0.003677275
0.003678418
0.003677834
0.003677513
0.003677347
0.003677241
0.003677176
0.003677624
0.00367747
0.003677414
0.003677337
0.003677277
0.003677225
0.003677498
0.003677319
0.003677265
0.003677216
0.003677174
0.003677141
0.003677411
0.003677202
0.003677184
0.003677162
0.003677138
0.003677116
0.003677355
0.003677132
0.003677123
0.003677109
0.003677094
0.003677079
0.003677311
0.003677079
0.003677077
0.00367707
0.003677062
0.003677052
0.003677275
0.003677041
0.003677042
0.003677038
0.003677033
0.003677027
0.003677244
0.003677011
0.003677013
0.003677012
0.003677009
0.003677005
0.003677218
0.003676987
0.00367699
0.00367699
0.003676989
0.003676987
0.003677194
0.003676967
0.003676971
0.003676971
0.003676971
0.00367697
0.003677173
0.003676951
0.003676954
0.003676955
0.003676956
0.003676955
0.003677153
0.003676937
0.00367694
0.003676941
0.003676942
0.003676942
0.003677136
0.003676924
0.003676927
0.003676929
0.00367693
0.003676931
0.00367712
0.003676913
0.003676916
0.003676918
0.003676919
0.00367692
0.003677105
0.003676904
0.003676906
0.003676908
0.00367691
0.00367691
0.003677091
0.003676895
0.003676898
0.003676899
0.003676901
0.003676902
0.003677078
0.003676887
0.00367689
0.003676891
0.003676893
0.003676894
0.003677067
0.00367688
0.003676882
0.003676884
0.003676885
0.003676886
0.003677056
0.003676873
0.003676876
0.003676877
0.003676879
0.00367688
0.003677045
0.003676867
0.00367687
0.003676871
0.003676872
0.003676873
0.003677036
0.003676862
0.003676864
0.003676865
0.003676866
0.003676867
0.003677027
0.003676857
0.003676859
0.00367686
0.003676861
0.003676862
0.003708458
0.003680259
0.003679619
0.003679488
0.00367939
0.003679303
0.003679938
0.00367791
0.003678225
0.003677618
0.003677384
0.003677273
0.00367842
0.00367783
0.003677511
0.003677345
0.003677239
0.003677174
0.003677625
0.003677467
0.003677406
0.003677333
0.003677272
0.003677221
0.003677497
0.003677314
0.003677263
0.003677215
0.003677174
0.003677141
0.003677409
0.003677198
0.003677183
0.003677161
0.003677138
0.003677116
0.003677353
0.003677129
0.003677122
0.003677109
0.003677094
0.003677079
0.00367731
0.003677077
0.003677076
0.00367707
0.003677061
0.003677052
0.003677274
0.003677039
0.00367704
0.003677038
0.003677033
0.003677027
0.003677243
0.003677009
0.003677012
0.003677011
0.003677009
0.003677005
0.003677216
0.003676986
0.003676989
0.003676989
0.003676989
0.003676987
0.003677193
0.003676966
0.003676969
0.003676971
0.003676971
0.00367697
0.003677172
0.003676949
0.003676953
0.003676955
0.003676956
0.003676955
0.003677152
0.003676935
0.003676939
0.003676941
0.003676942
0.003676942
0.003677135
0.003676923
0.003676926
0.003676929
0.00367693
0.003676931
0.003677119
0.003676912
0.003676915
0.003676918
0.003676919
0.00367692
0.003677104
0.003676903
0.003676906
0.003676908
0.003676909
0.00367691
0.00367709
0.003676894
0.003676897
0.003676899
0.003676901
0.003676902
0.003677078
0.003676886
0.003676889
0.003676891
0.003676893
0.003676894
0.003677066
0.003676879
0.003676882
0.003676884
0.003676885
0.003676886
0.003677055
0.003676872
0.003676875
0.003676877
0.003676878
0.00367688
0.003677045
0.003676867
0.003676869
0.003676871
0.003676872
0.003676873
0.003677035
0.003676861
0.003676863
0.003676865
0.003676866
0.003676867
0.003677026
0.003676856
0.003676858
0.00367686
0.003676861
0.003676862
0.003708522
0.003680297
0.00367964
0.003679507
0.003679407
0.003679321
0.003679934
0.00367791
0.003678225
0.003677618
0.003677384
0.003677273
0.003678416
0.00367783
0.003677511
0.003677345
0.00367724
0.003677174
0.003677625
0.003677467
0.003677406
0.003677333
0.003677272
0.003677222
0.003677497
0.003677314
0.003677263
0.003677215
0.003677174
0.003677141
0.003677408
0.003677198
0.003677183
0.003677161
0.003677138
0.003677116
0.003677353
0.003677129
0.003677122
0.003677109
0.003677094
0.003677079
0.003677309
0.003677077
0.003677076
0.00367707
0.003677061
0.003677052
0.003677274
0.003677039
0.00367704
0.003677038
0.003677033
0.003677027
0.003677243
0.003677009
0.003677012
0.003677011
0.003677009
0.003677005
0.003677216
0.003676986
0.003676989
0.003676989
0.003676989
0.003676987
0.003677193
0.003676966
0.003676969
0.003676971
0.003676971
0.00367697
0.003677171
0.003676949
0.003676953
0.003676955
0.003676956
0.003676955
0.003677152
0.003676935
0.003676939
0.003676941
0.003676942
0.003676942
0.003677135
0.003676923
0.003676926
0.003676929
0.00367693
0.003676931
0.003677119
0.003676912
0.003676915
0.003676918
0.003676919
0.00367692
0.003677104
0.003676903
0.003676906
0.003676908
0.003676909
0.00367691
0.00367709
0.003676894
0.003676897
0.003676899
0.003676901
0.003676902
0.003677078
0.003676886
0.003676889
0.003676891
0.003676893
0.003676894
0.003677066
0.003676879
0.003676882
0.003676884
0.003676885
0.003676886
0.003677055
0.003676872
0.003676875
0.003676877
0.003676878
0.00367688
0.003677045
0.003676867
0.003676869
0.003676871
0.003676872
0.003676873
0.003677035
0.003676861
0.003676863
0.003676865
0.003676866
0.003676867
0.003677026
0.003676856
0.003676858
0.00367686
0.003676861
0.003676862
0.003709157
0.003680381
0.003679631
0.003679495
0.003679404
0.003679316
0.003679949
0.003677922
0.003678251
0.003677625
0.003677388
0.003677274
0.003678396
0.003677834
0.003677513
0.003677348
0.003677242
0.003677177
0.003677625
0.00367747
0.003677414
0.003677337
0.003677277
0.003677226
0.003677498
0.003677318
0.003677264
0.003677215
0.003677174
0.003677141
0.00367741
0.003677202
0.003677184
0.003677162
0.003677138
0.003677116
0.003677354
0.003677131
0.003677123
0.003677109
0.003677094
0.003677079
0.00367731
0.003677079
0.003677077
0.00367707
0.003677061
0.003677052
0.003677274
0.00367704
0.003677041
0.003677038
0.003677033
0.003677027
0.003677244
0.003677011
0.003677013
0.003677012
0.003677009
0.003677005
0.003677217
0.003676987
0.00367699
0.00367699
0.003676989
0.003676987
0.003677193
0.003676967
0.00367697
0.003676971
0.003676971
0.00367697
0.003677172
0.00367695
0.003676954
0.003676955
0.003676956
0.003676955
0.003677153
0.003676936
0.003676939
0.003676941
0.003676942
0.003676942
0.003677135
0.003676924
0.003676927
0.003676929
0.00367693
0.003676931
0.003677119
0.003676913
0.003676916
0.003676918
0.003676919
0.00367692
0.003677104
0.003676903
0.003676906
0.003676908
0.003676909
0.00367691
0.003677091
0.003676895
0.003676897
0.003676899
0.003676901
0.003676902
0.003677078
0.003676887
0.003676889
0.003676891
0.003676893
0.003676894
0.003677066
0.00367688
0.003676882
0.003676884
0.003676885
0.003676886
0.003677055
0.003676873
0.003676875
0.003676877
0.003676878
0.00367688
0.003677045
0.003676867
0.003676869
0.003676871
0.003676872
0.003676873
0.003677035
0.003676862
0.003676864
0.003676865
0.003676866
0.003676867
0.003677026
0.003676857
0.003676858
0.00367686
0.003676861
0.003676862
0.003709115
0.003680669
0.003679677
0.003679522
0.00367942
0.003679323
0.003680005
0.003677989
0.00367821
0.003677627
0.003677388
0.003677276
0.003678389
0.003677833
0.003677518
0.003677356
0.003677251
0.003677188
0.003677623
0.003677473
0.003677422
0.003677347
0.003677282
0.00367723
0.003677496
0.003677322
0.003677267
0.003677218
0.003677176
0.003677143
0.003677407
0.003677203
0.003677187
0.003677163
0.003677139
0.003677117
0.003677353
0.003677132
0.003677124
0.00367711
0.003677095
0.00367708
0.003677309
0.003677079
0.003677078
0.003677071
0.003677062
0.003677052
0.003677273
0.003677041
0.003677042
0.003677038
0.003677033
0.003677027
0.003677243
0.003677011
0.003677013
0.003677012
0.003677009
0.003677006
0.003677216
0.003676988
0.00367699
0.00367699
0.003676989
0.003676987
0.003677193
0.003676968
0.003676971
0.003676971
0.003676971
0.00367697
0.003677172
0.003676951
0.003676954
0.003676955
0.003676956
0.003676955
0.003677152
0.003676937
0.00367694
0.003676941
0.003676942
0.003676942
0.003677135
0.003676925
0.003676928
0.003676929
0.00367693
0.003676931
0.003677119
0.003676914
0.003676917
0.003676918
0.003676919
0.00367692
0.003677104
0.003676904
0.003676907
0.003676908
0.003676909
0.00367691
0.003677091
0.003676896
0.003676898
0.003676899
0.003676901
0.003676902
0.003677078
0.003676888
0.00367689
0.003676891
0.003676893
0.003676894
0.003677066
0.003676881
0.003676883
0.003676884
0.003676885
0.003676886
0.003677055
0.003676874
0.003676876
0.003676877
0.003676878
0.003676879
0.003677045
0.003676868
0.00367687
0.003676871
0.003676872
0.003676873
0.003677035
0.003676862
0.003676864
0.003676865
0.003676866
0.003676867
0.003677026
0.003676857
0.003676859
0.00367686
0.003676861
0.003676862
0.00370752
0.003681625
0.003680867
0.003680499
0.00368024
0.003680036
0.003680266
0.003678247
0.003678216
0.00367768
0.003677435
0.003677315
0.003678266
0.003677852
0.003677537
0.003677369
0.003677272
0.003677207
0.003677682
0.003677498
0.003677427
0.003677341
0.003677281
0.00367723
0.003677542
0.003677335
0.003677275
0.003677222
0.003677183
0.00367715
0.003677442
0.003677215
0.003677192
0.003677166
0.003677144
0.003677122
0.003677381
0.003677141
0.003677128
0.003677114
0.003677101
0.003677086
0.003677334
0.003677087
0.003677082
0.003677074
0.003677067
0.003677058
0.003677295
0.003677048
0.003677046
0.003677042
0.003677039
0.003677033
0.003677262
0.003677017
0.003677017
0.003677016
0.003677015
0.003677011
0.003677233
0.003676993
0.003676994
0.003676994
0.003676994
0.003676992
0.003677208
0.003676973
0.003676974
0.003676975
0.003676976
0.003676975
0.003677186
0.003676956
0.003676958
0.003676959
0.003676961
0.003676961
0.003677166
0.003676942
0.003676944
0.003676945
0.003676947
0.003676947
0.003677148
0.003676929
0.003676931
0.003676933
0.003676935
0.003676936
0.003677131
0.003676918
0.00367692
0.003676922
0.003676924
0.003676925
0.003677115
0.003676908
0.00367691
0.003676912
0.003676914
0.003676915
0.003677101
0.003676899
0.003676901
0.003676903
0.003676905
0.003676906
0.003677088
0.003676891
0.003676893
0.003676895
0.003676897
0.003676898
0.003677076
0.003676884
0.003676886
0.003676887
0.003676889
0.003676891
0.003677064
0.003676877
0.003676879
0.003676881
0.003676882
0.003676884
0.003677054
0.003676871
0.003676873
0.003676874
0.003676876
0.003676877
0.003677044
0.003676866
0.003676867
0.003676869
0.00367687
0.003676871
0.003677067
0.00367686
0.003676862
0.003676863
0.003676865
0.003676866
0.003901675
0.003766289
0.003751233
0.003741954
0.003735071
0.003729572
0.003682901
0.003679869
0.003679063
0.003678579
0.003678409
0.003678319
0.003678269
0.003681324
0.003679301
0.003678451
0.003678118
0.003677961
0.00367786
0.003677789
0.003680018
0.00367825
0.003678038
0.003677849
0.00367775
0.00367768
0.003677631
0.00367959
0.003677988
0.003677833
0.00367772
0.003677657
0.003677609
0.003677573
0.003679249
0.003677728
0.003677674
0.003677607
0.003677571
0.00367754
0.003677517
0.003679024
0.003677589
0.003677563
0.00367752
0.003677501
0.003677482
0.003677467
0.003678849
0.003677485
0.003677479
0.003677451
0.00367744
0.00367743
0.003677422
0.003678709
0.00367741
0.003677414
0.003677394
0.003677389
0.003677385
0.003677382
0.003678592
0.003677351
0.003677361
0.003677346
0.003677346
0.003677344
0.003677345
0.003678492
0.003677304
0.003677317
0.003677306
0.003677308
0.003677309
0.003677312
0.003678404
0.003677265
0.00367728
0.003677271
0.003677274
0.003677277
0.003677282
0.003678327
0.003677231
0.003677248
0.003677241
0.003677245
0.003677248
0.003677254
0.003678257
0.003677202
0.00367722
0.003677214
0.003677218
0.003677223
0.003677229
0.003678193
0.003677177
0.003677195
0.003677191
0.003677195
0.003677199
0.003677207
0.003678134
0.003677155
0.003677173
0.003677169
0.003677173
0.003677178
0.003677186
0.003678081
0.003677135
0.003677153
0.00367715
0.003677154
0.003677159
0.003677167
0.003678031
0.003677117
0.003677135
0.003677133
0.003677136
0.003677141
0.003677149
0.003677985
0.003677101
0.003677118
0.003677116
0.00367712
0.003677125
0.003677132
0.003677943
0.003677086
0.003677103
0.003677101
0.003677105
0.003677109
0.003677117
0.003677904
0.003677072
0.003677089
0.003677088
0.003677091
0.003677095
0.003677103
0.003677867
0.003677059
0.003677075
0.003677075
0.003677078
0.003677082
0.00367709
0.003677833
0.003677047
0.003677063
0.003677063
0.003677066
0.00367707
0.003677077
0.003677799
0.003746083
0.003677051
0.003677052
0.003677055
0.003677059
0.003677066
0.003787605
0.003811264
0.003686026
0.003685228
0.003783755
0.003784778
0.003901699
0.003742773
0.00368461
0.003681044
0.00378005
0.003780474
0.003766265
0.003727276
0.003681009
0.003680469
0.003775162
0.003776969
0.00375122
0.003720685
0.003680081
0.003679739
0.003771708
0.00377413
0.003741943
0.003716034
0.003679646
0.003679229
0.003768966
0.003771802
0.003735066
0.003711668
0.00367938
0.00367899
0.003766664
0.003729557
0.003679136
0.003778172
0.003777914
0.003682757
0.003680863
0.003680694
0.003680583
0.003773301
0.003772482
0.003681143
0.003679217
0.003679616
0.003678686
0.00376886
0.003768342
0.003679854
0.003678238
0.003679202
0.003678209
0.003765333
0.003764972
0.003679438
0.003677912
0.003678959
0.003677895
0.003762473
0.003762228
0.003679108
0.003677706
0.003678787
0.003677721
0.003760087
0.003759914
0.003678891
0.003677579
0.003678651
0.003677597
0.003758049
0.003757923
0.003678722
0.003677488
0.003678539
0.003677507
0.003756273
0.00375618
0.003678588
0.003677418
0.003678442
0.003677437
0.003754704
0.003754634
0.003678476
0.003677363
0.003678358
0.00367738
0.0037533
0.00375325
0.003678381
0.003677318
0.003678283
0.003677333
0.003752033
0.003751998
0.003678298
0.00367728
0.003678215
0.003677293
0.003750881
0.003750858
0.003678224
0.003677246
0.003678154
0.003677258
0.003749829
0.003749815
0.003678158
0.003677218
0.003678098
0.003677228
0.00374886
0.003748854
0.003678097
0.003677192
0.003678047
0.003677201
0.003747967
0.003747964
0.003678042
0.003677169
0.003677999
0.003677177
0.003747139
0.003747139
0.003677991
0.003677148
0.003677955
0.003677156
0.00374637
0.003746373
0.003677944
0.00367713
0.003677915
0.003677136
0.003745654
0.00374566
0.003677901
0.003677113
0.003677877
0.003677118
0.003744987
0.003744994
0.003677861
0.003677097
0.003677841
0.003677102
0.003744364
0.003744373
0.003677824
0.003677082
0.003677808
0.003677087
0.003743781
0.003743791
0.00367779
0.003677069
0.003677777
0.003677073
0.003743235
0.003743246
0.003677757
0.003677057
0.003677748
0.003677061
0.003742732
0.003677382
0.003677797
0.003677046
0.003677652
0.003676972
0.003964654
0.00368197
0.003685764
0.004073321
0.003681536
0.003686272
0.004019231
0.003681141
0.003687124
0.004073051
0.00368125
0.003687158
0.0040361
0.003681089
0.003687253
0.004070212
0.003681271
0.003687247
0.004067999
0.003681095
0.003687212
0.00407062
0.003681294
0.003687204
0.00407018
0.00368112
0.003687204
0.004064769
0.003681274
0.003687213
0.004071538
0.00368111
0.00368727
0.004039916
0.003681272
0.003687247
0.004072919
0.00368111
0.003687155
0.004019518
0.003681343
0.003687124
0.004072986
0.003681334
0.003686281
0.003964339
0.0036821
0.00368576
0.003812048
0.003685843
0.003685227
0.003787606
0.003742893
0.003684609
0.003681043
0.003783754
0.003784778
0.003727315
0.003681008
0.003680468
0.003780048
0.003780475
0.003720667
0.003680081
0.003679738
0.003775161
0.003776968
0.003715995
0.003679647
0.003679228
0.003771706
0.003774131
0.003711601
0.003679379
0.00367899
0.003768965
0.003771801
0.003677755
0.003678958
0.003677895
0.003765296
0.003764973
0.003677438
0.00367865
0.003677597
0.003760067
0.003759914
0.003677347
0.003678538
0.003677507
0.003758037
0.003757922
0.003677285
0.003678441
0.003677437
0.003756265
0.003756179
0.003677236
0.003678357
0.00367738
0.003754698
0.003754635
0.003677197
0.003678282
0.003677333
0.003753297
0.003753249
0.003677114
0.003678097
0.003677228
0.00374983
0.003749815
0.003677089
0.003678046
0.003677201
0.003748863
0.003748854
0.00367707
0.003677998
0.003677177
0.00374797
0.003747964
0.003677053
0.003677955
0.003677156
0.003747143
0.003747139
0.003677025
0.003677876
0.003677118
0.003745661
0.003745659
0.00367701
0.00367784
0.003677102
0.003744993
0.003744994
0.003676989
0.003677777
0.003677073
0.00374379
0.003743792
0.003676977
0.003677748
0.00367706
0.003743244
0.003743247
0.003677045
0.003677651
0.003677049
0.003742735
0.003677368
0.003703122
0.003869229
0.003689135
0.003845911
0.003688853
0.003843359
0.003685492
0.003827485
0.003684398
0.003829246
0.003684083
0.003815017
0.003682873
0.003819119
0.003683296
0.003806292
0.003681876
0.003811363
0.003682731
0.00379933
0.003681263
0.003805204
0.003682285
0.003793703
0.003680818
0.003800135
0.003684241
0.003831888
0.003688322
0.003831587
0.003680695
0.003815006
0.003682069
0.003815087
0.003679666
0.003803495
0.00368026
0.003803709
0.003679202
0.003794957
0.003679564
0.003795103
0.003678892
0.003788132
0.003679133
0.003788236
0.00367867
0.003782467
0.003678842
0.003782534
0.003678497
0.003777627
0.003678625
0.003777672
0.003678356
0.003773419
0.003678456
0.003773447
0.003678238
0.003769703
0.003678319
0.003769719
0.003678137
0.003766383
0.003678204
0.003766392
0.003678049
0.003763391
0.003678105
0.003763394
0.003677971
0.00376067
0.003678019
0.003760672
0.003677903
0.003758184
0.003677944
0.003758182
0.003677841
0.003755899
0.003677877
0.003755895
0.003677786
0.003753791
0.003677817
0.003753785
0.003677736
0.003751839
0.003677763
0.00375183
0.00367769
0.003750025
0.003677714
0.003750016
0.003677648
0.003748337
0.00367767
0.003748326
0.00367761
0.003746761
0.003677629
0.00374675
0.003677574
0.003745287
0.003677591
0.003745278
0.003677542
0.00374391
0.003677557
0.003743901
0.003677512
0.00374262
0.003677525
0.003742611
0.003677483
0.00374141
0.003677495
0.003741398
0.003704189
0.003704512
0.00370292
0.003703316
0.003702764
0.003702528
0.003703077
0.003702808
0.003702971
0.003702659
0.003703074
0.003702669
0.003702702
0.003703086
0.003703475
0.003703354
0.003702009
0.00370721
0.003679133
0.003766664
0.003680643
0.003680692
0.003680582
0.003778106
0.003777911
0.003679018
0.003679614
0.003678685
0.00377325
0.003772481
0.003678055
0.003679201
0.003678209
0.003768822
0.003768344
0.003677548
0.003678786
0.00367772
0.003762452
0.003762229
0.003677163
0.003678214
0.003677293
0.003752032
0.003751999
0.003677135
0.003678153
0.003677258
0.003750882
0.003750858
0.003677037
0.003677914
0.003677136
0.003746375
0.003746373
0.003676998
0.003677807
0.003677087
0.003744371
0.003744373
0.003695292
0.003857324
0.003693623
0.003855355
0.003693569
0.003845467
0.003696064
0.003843348
0.003701895
0.00370756
0.003684584
0.003838988
0.003686874
0.003834394
0.003682703
0.003826696
0.003685438
0.003820773
0.00368181
0.003817792
0.00368448
0.003810957
0.003681353
0.003810755
0.003683783
0.003803018
0.003680977
0.003805035
0.003683219
0.003796756
0.003682735
0.003823633
0.003682172
0.003823738
0.003680465
0.003809621
0.003680182
0.003809484
0.003679601
0.003799716
0.003679497
0.003799612
0.003679149
0.003791962
0.003679085
0.003791878
0.003678852
0.00378567
0.003678806
0.003785601
0.003678637
0.003780366
0.003678599
0.003780309
0.003678469
0.003775806
0.003678436
0.003775757
0.003678332
0.003771814
0.003678303
0.003771771
0.003678218
0.003768272
0.003678191
0.003768232
0.00367812
0.003765095
0.003678095
0.003765059
0.003678034
0.003762222
0.003678011
0.003762188
0.003677958
0.003759604
0.003677937
0.003759571
0.003677891
0.003757205
0.003677871
0.003757176
0.003677831
0.003754996
0.003677811
0.00375497
0.003677776
0.003752955
0.003677758
0.003752931
0.003677726
0.003751062
0.003677709
0.00375104
0.003677681
0.003749302
0.003677665
0.003749282
0.00367764
0.003747662
0.003677625
0.003747642
0.003677602
0.003746131
0.003677588
0.003746109
0.003677567
0.003744701
0.003677554
0.003744679
0.003677535
0.003743362
0.003677522
0.003743341
0.003677505
0.003742105
0.003677493
0.003742086
0.003677476
0.003678343
0.003740906
0.00367733
0.003703604
0.003703797
0.003702927
0.003703061
0.003702728
0.003702719
0.003703045
0.003702886
0.003702685
0.003702605
0.003703425
0.003703255
0.003703065
0.003702845
0.003704216
0.003704308
0.003703533
0.003869227
0.003684607
0.003838003
0.003687247
0.003834366
0.003685492
0.003827513
0.003684398
0.003829243
0.003679203
0.003794963
0.003679565
0.003795109
0.003678669
0.003782473
0.003678842
0.003782534
0.003678637
0.003780363
0.0036786
0.003780309
0.003678496
0.003777637
0.003678618
0.003777671
0.003678124
0.003765094
0.003678096
0.003765055
0.003677903
0.003758183
0.003677944
0.003758182
0.003677891
0.003757204
0.003677871
0.003757175
0.003677841
0.0037559
0.003677873
0.003755895
0.003677831
0.003754995
0.003677812
0.00375497
0.003677786
0.003753792
0.003677814
0.003753784
0.003677776
0.003752954
0.003677759
0.003752931
0.003677736
0.003751839
0.00367776
0.00375183
0.003677726
0.003751062
0.00367771
0.00375104
0.003677648
0.003748338
0.003677669
0.003748326
0.00367764
0.003747663
0.003677626
0.003747642
0.00367761
0.003746761
0.003677626
0.00374675
0.003677602
0.003746133
0.003677589
0.00374611
0.003677541
0.003743919
0.003677557
0.003743903
0.003677534
0.003743366
0.003677523
0.003743344
0.003677511
0.003742623
0.003677523
0.003742616
0.003677505
0.003742113
0.003677494
0.003742092
0.003677483
0.003741417
0.003677493
0.003741406
0.003677476
0.003683312
0.003740917
0.003677327
0.003823933
0.00388677
0.003970359
0.003812573
0.004025886
0.00380986
0.003897319
0.003798889
0.003949467
0.003797349
0.00385757
0.003790717
0.003899949
0.003789859
0.003830531
0.00378495
0.003866674
0.003784543
0.003811141
0.003780506
0.003843091
0.003780417
0.003796387
0.0037769
0.003824398
0.003777073
0.003894305
0.003897264
0.003897955
0.003900761
0.003902166
0.003901778
0.003897179
0.003902891
0.003900544
0.003904005
0.003903501
0.003899525
0.003899909
0.003896526
0.003894902
0.003893292
0.003879636
0.003890957
0.004079741
0.003817065
0.004192468
0.003818773
0.003884951
0.003890115
0.003954147
0.003801948
0.004071551
0.003801576
0.00389351
0.003793562
0.003987977
0.003792366
0.003855928
0.003787672
0.00393762
0.003786067
0.003829486
0.00378316
0.003901595
0.003781279
0.003809276
0.003779527
0.00387388
0.003777444
0.003895542
0.00389823
0.003900895
0.003892283
0.003898618
0.003899184
0.003905161
0.003901482
0.0039046
0.003897968
0.003904162
0.003902447
0.003901735
0.003901188
0.0038921
0.003897589
0.003825342
0.003886721
0.003695341
0.003855943
0.003694027
0.00385535
0.003693697
0.003845456
0.003696052
0.003843354
0.003688745
0.003845955
0.003688848
0.003844482
0.0038973
0.003798887
0.003797348
0.003949456
0.003682712
0.003825935
0.003685763
0.00382077
0.003684058
0.003815021
0.003682864
0.003819113
0.003681824
0.003817195
0.003684817
0.003810942
0.0036833
0.003806312
0.003681879
0.003811365
0.003682706
0.00379932
0.003681256
0.003805206
0.003680986
0.003804624
0.003683527
0.003796756
0.003679149
0.003791963
0.003679087
0.003791883
0.003679517
0.003782335
0.00367991
0.003782504
0.003679629
0.003781176
0.003780788
0.00367938
0.003678469
0.003775802
0.003678435
0.003775757
0.003678356
0.003773426
0.00367845
0.003773447
0.003678332
0.003771813
0.003678303
0.00377177
0.003678239
0.003769709
0.003678313
0.003769725
0.003678218
0.003768275
0.003678193
0.003768238
0.003678135
0.003766394
0.003678199
0.003766392
0.003678868
0.003767274
0.003679046
0.003767356
0.003678445
0.003755221
0.003678527
0.003755257
0.003678455
0.003754763
0.003754557
0.003678397
0.003678066
0.003743225
0.00374323
0.003678082
0.004330614
0.003836192
0.004088221
0.003835703
0.003703718
0.003877353
0.003701007
0.003872248
0.003880616
0.003876907
0.00399297
0.00380687
0.004097675
0.003807964
0.003911509
0.003796196
0.003996512
0.003796083
0.003866802
0.003789351
0.003938645
0.003788584
0.003836269
0.003784351
0.003899956
0.003783207
0.003814086
0.003780395
0.003871874
0.003778978
0.003797054
0.003777161
0.003850071
0.003775542
0.003897585
0.003898785
0.003898828
0.003901584
0.003893948
0.003900011
0.003902617
0.003901767
0.003898852
0.003897072
0.003898008
0.003902822
0.003905334
0.00389803
0.003900287
0.003901265
0.003877807
0.003867636
0.00379372
0.003681091
0.003682255
0.003832061
0.003688288
0.003831595
0.003684204
0.00382363
0.003823744
0.003682731
0.003682169
0.003815083
0.003815092
0.003680695
0.003682045
0.003809621
0.003809487
0.003680462
0.003680184
0.003803544
0.003803719
0.003679667
0.003680244
0.003799719
0.003679511
0.003799621
0.0036796
0.003788158
0.003679124