/*--------------------------------*- C++ -*----------------------------------*\
  =========                 |
  \\      /  F ield         | OpenFOAM: The Open Source CFD Toolbox
   \\    /   O peration     | Website:  https://openfoam.org
    \\  /    A nd           | Version:  7
     \\/     M anipulation  |
\*---------------------------------------------------------------------------*/
FoamFile
{
    version     2.0;
    format      ascii;
    class       volScalarField;
    location    "0.02";
    object      nut;
}
// * * * * * * * * * * * * * * * * * * * * * * * * * * * * * * * * * * * * * //

dimensions      [0 2 -1 0 0 0 0];

internalField   nonuniform List<scalar> 
109978
(
0.000658457
0.0006403157
0.0006386086
0.0006383183
0.0006382326
0.0006383396
0.0006403605
0.0006082333
0.000605087
0.000604631
0.0006045726
0.0006047678
0.000638627
0.0006050276
0.0006014944
0.0006009554
0.0006009053
0.0006011626
0.0006382928
0.0006045053
0.0006008854
0.0006003188
0.0006002766
0.0006005645
0.0006381278
0.0006043073
0.0006006659
0.0006000922
0.0006000548
0.0006003562
0.0006380096
0.0006041829
0.0006005389
0.0005999677
0.0005999327
0.000600243
0.0006379127
0.000604088
0.0006004432
0.0005998736
0.0005998442
0.0006001611
0.0006378299
0.000604007
0.0006003648
0.0005997986
0.000599774
0.0006000943
0.0006377572
0.0006039366
0.0006002964
0.0005997328
0.000599711
0.0006000351
0.0006376925
0.0006038737
0.0006002355
0.0005996738
0.0005996545
0.0005999819
0.0006376343
0.0006038177
0.0006001805
0.0005996204
0.0005996026
0.0005999334
0.0006375816
0.0006037666
0.0006001303
0.0005995716
0.0005995553
0.0005998877
0.0006375334
0.0006037199
0.0006000843
0.0005995268
0.0005995117
0.0005998453
0.0006374896
0.0006036768
0.0006000422
0.0005994854
0.0005994711
0.0005998058
0.0006374494
0.0006036371
0.0006000033
0.0005994471
0.0005994334
0.000599769
0.0006374124
0.0006036004
0.0005999674
0.0005994117
0.0005993986
0.000599735
0.000637378
0.0006035666
0.0005999345
0.0005993793
0.0005993675
0.0005997039
0.0006373464
0.0006035359
0.000599905
0.0005993509
0.0005993396
0.0005996764
0.0006373178
0.0006035097
0.0005998811
0.0005993289
0.0005993183
0.0005996552
0.0006372943
0.0006034933
0.0005998706
0.0005993222
0.0005993128
0.00059965
0.0006372882
0.0006035122
0.0005999059
0.0005993662
0.0005993596
0.0005996956
0.0006373502
0.0006036469
0.0006000839
0.0005995631
0.0005995571
0.0005998809
0.0001011052
0.0006039688
0.0006004729
0.0005999802
0.000599963
0.0006002362
0.0001014419
0.0001011403
0.0001011273
0.0001011194
0.0001011144
0.0001011106
0.0001011402
0.0001011048
0.0001011047
0.0001010966
0.000101093
0.0001010914
0.0001011061
0.0001011
0.0001010953
0.0001010928
0.0001010915
0.0001010906
0.0001010964
0.0001010951
0.000101094
0.0001010928
0.0001010919
0.0001010913
0.0001010935
0.000101093
0.0001010921
0.0001010913
0.0001010907
0.0001010903
0.0001010921
0.0001010915
0.0001010911
0.0001010907
0.0001010904
0.0001010901
0.0001010913
0.0001010906
0.0001010904
0.0001010901
0.0001010899
0.0001010897
0.0001010908
0.00010109
0.0001010899
0.0001010897
0.0001010896
0.0001010895
0.0001010904
0.0001010896
0.0001010895
0.0001010894
0.0001010894
0.0001010893
0.0001010901
0.0001010893
0.0001010893
0.0001010892
0.0001010892
0.0001010891
0.0001010899
0.0001010891
0.0001010891
0.000101089
0.000101089
0.0001010889
0.0001010897
0.0001010889
0.0001010889
0.0001010889
0.0001010889
0.0001010888
0.0001010896
0.0001010888
0.0001010888
0.0001010888
0.0001010887
0.0001010887
0.0001010895
0.0001010887
0.0001010887
0.0001010887
0.0001010886
0.0001010886
0.0001010894
0.0001010886
0.0001010886
0.0001010886
0.0001010886
0.0001010886
0.0001010893
0.0001010885
0.0001010885
0.0001010885
0.0001010885
0.0001010885
0.0001010892
0.0001010884
0.0001010884
0.0001010884
0.0001010884
0.0001010884
0.0001010891
0.0001010884
0.0001010884
0.0001010884
0.0001010884
0.0001010884
0.0001010891
0.0001010883
0.0001010883
0.0001010883
0.0001010883
0.0001010883
0.000101089
0.0001010883
0.0001010883
0.0001010883
0.0001010883
0.0001010883
0.000101089
0.0001010883
0.0001010883
0.0001010883
0.0001010883
0.0001010883
0.0001010889
0.0001010882
0.0001010882
0.0001010882
0.0001010882
0.0001010882
0.0001010889
0.0001010882
0.0001010882
0.0001010882
0.0001010882
0.0001010882
0.0001010888
0.0001010882
0.0001010882
0.0001010882
0.0001010882
0.0001010882
0.0001015316
0.0001011315
0.0001011113
0.0001011069
0.000101105
0.0001011036
0.0001011257
0.0001011008
0.0001011046
0.0001010957
0.0001010923
0.0001010908
0.0001011032
0.0001010998
0.0001010951
0.0001010926
0.0001010911
0.0001010903
0.0001010913
0.0001010948
0.000101094
0.0001010929
0.000101092
0.0001010913
0.0001010906
0.0001010929
0.000101092
0.0001010912
0.0001010906
0.0001010902
0.0001010899
0.0001010913
0.000101091
0.0001010907
0.0001010903
0.00010109
0.0001010896
0.0001010905
0.0001010903
0.0001010901
0.0001010899
0.0001010897
0.0001010894
0.0001010899
0.0001010898
0.0001010897
0.0001010896
0.0001010894
0.0001010893
0.0001010895
0.0001010895
0.0001010894
0.0001010893
0.0001010892
0.0001010892
0.0001010892
0.0001010892
0.0001010892
0.0001010891
0.000101089
0.0001010891
0.000101089
0.000101089
0.000101089
0.0001010889
0.0001010889
0.000101089
0.0001010889
0.0001010889
0.0001010888
0.0001010888
0.0001010888
0.000101089
0.0001010887
0.0001010887
0.0001010887
0.0001010887
0.0001010887
0.0001010889
0.0001010886
0.0001010886
0.0001010886
0.0001010886
0.0001010886
0.0001010888
0.0001010885
0.0001010885
0.0001010885
0.0001010885
0.0001010885
0.0001010888
0.0001010885
0.0001010885
0.0001010885
0.0001010885
0.0001010885
0.0001010888
0.0001010884
0.0001010884
0.0001010884
0.0001010884
0.0001010884
0.0001010887
0.0001010884
0.0001010884
0.0001010884
0.0001010884
0.0001010884
0.0001010887
0.0001010883
0.0001010883
0.0001010883
0.0001010883
0.0001010883
0.0001010886
0.0001010883
0.0001010883
0.0001010883
0.0001010883
0.0001010883
0.0001010886
0.0001010882
0.0001010882
0.0001010882
0.0001010882
0.0001010882
0.0001010886
0.0001010882
0.0001010882
0.0001010882
0.0001010882
0.0001010882
0.0001010886
0.0001010882
0.0001010882
0.0001010882
0.0001010882
0.0001010882
0.0001010885
0.0001010882
0.0001010882
0.0001010882
0.0001010882
0.0001010882
0.0001015385
0.000101117
0.0001011063
0.0001011065
0.0001011059
0.0001011045
0.000101124
0.0001010998
0.0001011053
0.0001010957
0.0001010923
0.0001010908
0.0001011025
0.0001010998
0.000101095
0.0001010926
0.000101091
0.0001010902
0.0001010915
0.0001010948
0.0001010939
0.0001010927
0.0001010919
0.0001010912
0.0001010905
0.0001010928
0.0001010919
0.0001010912
0.0001010906
0.0001010902
0.0001010899
0.0001010913
0.000101091
0.0001010906
0.0001010903
0.00010109
0.0001010896
0.0001010905
0.0001010903
0.0001010901
0.0001010899
0.0001010896
0.0001010894
0.0001010899
0.0001010898
0.0001010897
0.0001010896
0.0001010894
0.0001010893
0.0001010895
0.0001010895
0.0001010894
0.0001010893
0.0001010892
0.0001010891
0.0001010892
0.0001010892
0.0001010892
0.0001010891
0.000101089
0.0001010891
0.000101089
0.000101089
0.000101089
0.0001010889
0.0001010889
0.000101089
0.0001010889
0.0001010889
0.0001010888
0.0001010888
0.0001010888
0.0001010889
0.0001010887
0.0001010887
0.0001010887
0.0001010887
0.0001010887
0.0001010889
0.0001010886
0.0001010886
0.0001010886
0.0001010886
0.0001010886
0.0001010888
0.0001010885
0.0001010885
0.0001010885
0.0001010885
0.0001010885
0.0001010888
0.0001010885
0.0001010885
0.0001010885
0.0001010885
0.0001010885
0.0001010887
0.0001010884
0.0001010884
0.0001010884
0.0001010884
0.0001010884
0.0001010887
0.0001010884
0.0001010884
0.0001010884
0.0001010884
0.0001010884
0.0001010886
0.0001010883
0.0001010883
0.0001010883
0.0001010883
0.0001010883
0.0001010886
0.0001010883
0.0001010883
0.0001010883
0.0001010883
0.0001010883
0.0001010886
0.0001010882
0.0001010882
0.0001010882
0.0001010882
0.0001010882
0.0001010886
0.0001010882
0.0001010882
0.0001010882
0.0001010882
0.0001010882
0.0001010885
0.0001010882
0.0001010882
0.0001010882
0.0001010882
0.0001010882
0.0001010885
0.0001010882
0.0001010882
0.0001010882
0.0001010882
0.0001010882
0.0001015249
0.000101114
0.0001011046
0.0001011032
0.0001011023
0.0001011013
0.0001011236
0.0001010996
0.0001011049
0.0001010956
0.0001010923
0.0001010908
0.0001011026
0.0001010998
0.000101095
0.0001010925
0.000101091
0.0001010902
0.0001010915
0.0001010947
0.0001010938
0.0001010927
0.0001010918
0.0001010912
0.0001010905
0.0001010928
0.0001010919
0.0001010912
0.0001010906
0.0001010902
0.0001010899
0.0001010913
0.000101091
0.0001010906
0.0001010903
0.00010109
0.0001010896
0.0001010905
0.0001010903
0.0001010901
0.0001010899
0.0001010896
0.0001010894
0.0001010899
0.0001010898
0.0001010897
0.0001010896
0.0001010894
0.0001010892
0.0001010895
0.0001010895
0.0001010894
0.0001010893
0.0001010892
0.0001010891
0.0001010892
0.0001010892
0.0001010892
0.0001010891
0.000101089
0.000101089
0.000101089
0.000101089
0.000101089
0.0001010889
0.0001010889
0.000101089
0.0001010889
0.0001010889
0.0001010888
0.0001010888
0.0001010888
0.0001010889
0.0001010887
0.0001010887
0.0001010887
0.0001010887
0.0001010887
0.0001010889
0.0001010886
0.0001010886
0.0001010886
0.0001010886
0.0001010886
0.0001010888
0.0001010885
0.0001010885
0.0001010885
0.0001010885
0.0001010885
0.0001010888
0.0001010885
0.0001010885
0.0001010885
0.0001010885
0.0001010885
0.0001010887
0.0001010884
0.0001010884
0.0001010884
0.0001010884
0.0001010884
0.0001010887
0.0001010884
0.0001010884
0.0001010884
0.0001010884
0.0001010884
0.0001010886
0.0001010883
0.0001010883
0.0001010883
0.0001010883
0.0001010883
0.0001010886
0.0001010883
0.0001010883
0.0001010883
0.0001010883
0.0001010883
0.0001010886
0.0001010882
0.0001010882
0.0001010882
0.0001010882
0.0001010882
0.0001010886
0.0001010882
0.0001010882
0.0001010882
0.0001010882
0.0001010882
0.0001010885
0.0001010882
0.0001010882
0.0001010882
0.0001010882
0.0001010882
0.0001010885
0.0001010882
0.0001010882
0.0001010882
0.0001010882
0.0001010882
0.0001015259
0.0001011146
0.000101105
0.0001011035
0.0001011025
0.0001011016
0.0001011235
0.0001010996
0.0001011049
0.0001010956
0.0001010923
0.0001010908
0.0001011025
0.0001010998
0.000101095
0.0001010925
0.000101091
0.0001010902
0.0001010915
0.0001010947
0.0001010938
0.0001010927
0.0001010918
0.0001010912
0.0001010905
0.0001010928
0.0001010919
0.0001010912
0.0001010906
0.0001010902
0.0001010899
0.0001010913
0.000101091
0.0001010906
0.0001010903
0.00010109
0.0001010896
0.0001010905
0.0001010903
0.0001010901
0.0001010899
0.0001010896
0.0001010894
0.0001010899
0.0001010898
0.0001010897
0.0001010896
0.0001010894
0.0001010892
0.0001010895
0.0001010895
0.0001010894
0.0001010893
0.0001010892
0.0001010891
0.0001010892
0.0001010892
0.0001010892
0.0001010891
0.000101089
0.000101089
0.000101089
0.000101089
0.000101089
0.0001010889
0.0001010889
0.000101089
0.0001010889
0.0001010889
0.0001010888
0.0001010888
0.0001010888
0.0001010889
0.0001010887
0.0001010887
0.0001010887
0.0001010887
0.0001010887
0.0001010889
0.0001010886
0.0001010886
0.0001010886
0.0001010886
0.0001010886
0.0001010888
0.0001010885
0.0001010885
0.0001010885
0.0001010885
0.0001010885
0.0001010888
0.0001010885
0.0001010885
0.0001010885
0.0001010885
0.0001010885
0.0001010887
0.0001010884
0.0001010884
0.0001010884
0.0001010884
0.0001010884
0.0001010887
0.0001010884
0.0001010884
0.0001010884
0.0001010884
0.0001010884
0.0001010886
0.0001010883
0.0001010883
0.0001010883
0.0001010883
0.0001010883
0.0001010886
0.0001010883
0.0001010883
0.0001010883
0.0001010883
0.0001010883
0.0001010886
0.0001010882
0.0001010882
0.0001010882
0.0001010882
0.0001010882
0.0001010886
0.0001010882
0.0001010882
0.0001010882
0.0001010882
0.0001010882
0.0001010885
0.0001010882
0.0001010882
0.0001010882
0.0001010882
0.0001010882
0.0001010885
0.0001010882
0.0001010882
0.0001010882
0.0001010882
0.0001010882
0.0001015354
0.0001011159
0.0001011048
0.0001011034
0.0001011025
0.0001011016
0.0001011238
0.0001010998
0.0001011053
0.0001010957
0.0001010923
0.0001010908
0.0001011022
0.0001010998
0.000101095
0.0001010926
0.000101091
0.0001010902
0.0001010915
0.0001010948
0.0001010939
0.0001010928
0.0001010919
0.0001010912
0.0001010905
0.0001010928
0.0001010919
0.0001010912
0.0001010906
0.0001010902
0.0001010899
0.0001010913
0.000101091
0.0001010906
0.0001010903
0.00010109
0.0001010896
0.0001010905
0.0001010903
0.0001010901
0.0001010899
0.0001010896
0.0001010894
0.0001010899
0.0001010898
0.0001010897
0.0001010896
0.0001010894
0.0001010892
0.0001010895
0.0001010895
0.0001010894
0.0001010893
0.0001010892
0.0001010891
0.0001010892
0.0001010892
0.0001010892
0.0001010891
0.000101089
0.000101089
0.000101089
0.000101089
0.000101089
0.0001010889
0.0001010889
0.000101089
0.0001010889
0.0001010889
0.0001010888
0.0001010888
0.0001010888
0.0001010889
0.0001010887
0.0001010887
0.0001010887
0.0001010887
0.0001010887
0.0001010889
0.0001010886
0.0001010886
0.0001010886
0.0001010886
0.0001010886
0.0001010888
0.0001010885
0.0001010885
0.0001010885
0.0001010885
0.0001010885
0.0001010888
0.0001010885
0.0001010885
0.0001010885
0.0001010885
0.0001010885
0.0001010887
0.0001010884
0.0001010884
0.0001010884
0.0001010884
0.0001010884
0.0001010887
0.0001010884
0.0001010884
0.0001010884
0.0001010884
0.0001010884
0.0001010886
0.0001010883
0.0001010883
0.0001010883
0.0001010883
0.0001010883
0.0001010886
0.0001010883
0.0001010883
0.0001010883
0.0001010883
0.0001010883
0.0001010886
0.0001010882
0.0001010882
0.0001010882
0.0001010882
0.0001010882
0.0001010886
0.0001010882
0.0001010882
0.0001010882
0.0001010882
0.0001010882
0.0001010885
0.0001010882
0.0001010882
0.0001010882
0.0001010882
0.0001010882
0.0001010885
0.0001010882
0.0001010882
0.0001010882
0.0001010882
0.0001010882
0.0001015351
0.0001011204
0.0001011055
0.0001011038
0.0001011027
0.0001011016
0.0001011246
0.0001011008
0.0001011046
0.0001010957
0.0001010923
0.0001010908
0.0001011021
0.0001010998
0.0001010951
0.0001010926
0.0001010911
0.0001010903
0.0001010915
0.0001010948
0.000101094
0.0001010929
0.000101092
0.0001010913
0.0001010905
0.0001010929
0.000101092
0.0001010912
0.0001010906
0.0001010902
0.0001010898
0.0001010913
0.000101091
0.0001010907
0.0001010903
0.00010109
0.0001010896
0.0001010905
0.0001010903
0.0001010901
0.0001010899
0.0001010897
0.0001010894
0.0001010899
0.0001010898
0.0001010897
0.0001010896
0.0001010894
0.0001010892
0.0001010895
0.0001010895
0.0001010894
0.0001010893
0.0001010892
0.0001010891
0.0001010892
0.0001010892
0.0001010892
0.0001010891
0.000101089
0.000101089
0.000101089
0.000101089
0.000101089
0.0001010889
0.0001010889
0.000101089
0.0001010889
0.0001010889
0.0001010888
0.0001010888
0.0001010888
0.0001010889
0.0001010887
0.0001010887
0.0001010887
0.0001010887
0.0001010887
0.0001010888
0.0001010886
0.0001010886
0.0001010886
0.0001010886
0.0001010886
0.0001010888
0.0001010885
0.0001010885
0.0001010885
0.0001010885
0.0001010885
0.0001010888
0.0001010885
0.0001010885
0.0001010885
0.0001010885
0.0001010885
0.0001010887
0.0001010884
0.0001010884
0.0001010884
0.0001010884
0.0001010884
0.0001010887
0.0001010884
0.0001010884
0.0001010884
0.0001010884
0.0001010884
0.0001010886
0.0001010883
0.0001010883
0.0001010883
0.0001010883
0.0001010883
0.0001010886
0.0001010883
0.0001010883
0.0001010883
0.0001010883
0.0001010883
0.0001010886
0.0001010882
0.0001010882
0.0001010882
0.0001010882
0.0001010882
0.0001010886
0.0001010882
0.0001010882
0.0001010882
0.0001010882
0.0001010882
0.0001010885
0.0001010882
0.0001010882
0.0001010882
0.0001010882
0.0001010882
0.0001010885
0.0001010882
0.0001010882
0.0001010882
0.0001010882
0.0001010882
0.0001015128
0.0001011355
0.0001011244
0.0001011193
0.0001011157
0.000101113
0.0001011287
0.0001011048
0.0001011047
0.0001010966
0.000101093
0.0001010914
0.0001010999
0.0001011
0.0001010953
0.0001010928
0.0001010915
0.0001010906
0.0001010922
0.0001010951
0.000101094
0.0001010928
0.0001010919
0.0001010912
0.000101091
0.000101093
0.0001010921
0.0001010913
0.0001010907
0.0001010903
0.0001010902
0.0001010915
0.0001010911
0.0001010907
0.0001010904
0.0001010901
0.0001010898
0.0001010906
0.0001010904
0.0001010901
0.0001010899
0.0001010897
0.0001010896
0.00010109
0.0001010899
0.0001010897
0.0001010896
0.0001010895
0.0001010894
0.0001010896
0.0001010895
0.0001010894
0.0001010894
0.0001010893
0.0001010893
0.0001010893
0.0001010893
0.0001010892
0.0001010892
0.0001010891
0.0001010892
0.0001010891
0.0001010891
0.000101089
0.000101089
0.0001010889
0.0001010891
0.0001010889
0.0001010889
0.0001010889
0.0001010889
0.0001010888
0.000101089
0.0001010888
0.0001010888
0.0001010888
0.0001010887
0.0001010887
0.0001010889
0.0001010887
0.0001010887
0.0001010887
0.0001010886
0.0001010886
0.0001010889
0.0001010886
0.0001010886
0.0001010886
0.0001010886
0.0001010886
0.0001010888
0.0001010885
0.0001010885
0.0001010885
0.0001010885
0.0001010885
0.0001010888
0.0001010884
0.0001010884
0.0001010884
0.0001010884
0.0001010884
0.0001010887
0.0001010884
0.0001010884
0.0001010884
0.0001010884
0.0001010884
0.0001010887
0.0001010883
0.0001010883
0.0001010883
0.0001010883
0.0001010883
0.0001010887
0.0001010883
0.0001010883
0.0001010883
0.0001010883
0.0001010883
0.0001010886
0.0001010883
0.0001010883
0.0001010883
0.0001010883
0.0001010883
0.0001010886
0.0001010882
0.0001010882
0.0001010882
0.0001010882
0.0001010882
0.0001010886
0.0001010882
0.0001010882
0.0001010882
0.0001010882
0.0001010882
0.0001010888
0.0001010882
0.0001010882
0.0001010882
0.0001010882
0.0001010882
0.0001044574
0.0001024014
0.0001021796
0.0001020428
0.0001019416
0.0001018611
0.0001011409
0.0001011465
0.0001011365
0.0001011291
0.0001011261
0.0001011244
0.0001011233
0.0001011255
0.0001011358
0.000101125
0.0001011199
0.0001011174
0.0001011157
0.0001011144
0.0001011085
0.0001011198
0.0001011183
0.0001011155
0.0001011138
0.0001011126
0.0001011117
0.0001011043
0.0001011164
0.0001011155
0.0001011138
0.0001011127
0.0001011119
0.0001011112
0.0001011009
0.0001011128
0.0001011132
0.0001011122
0.0001011116
0.000101111
0.0001011105
0.0001010989
0.0001011111
0.0001011117
0.0001011111
0.0001011107
0.0001011103
0.0001011099
0.0001010975
0.0001011098
0.0001011105
0.0001011102
0.0001011099
0.0001011097
0.0001011094
0.0001010965
0.0001011089
0.0001011097
0.0001011094
0.0001011093
0.0001011091
0.0001011089
0.0001010957
0.0001011083
0.000101109
0.0001011088
0.0001011088
0.0001011086
0.0001011085
0.0001010951
0.0001011078
0.0001011084
0.0001011083
0.0001011083
0.0001011082
0.0001011081
0.0001010946
0.0001011074
0.000101108
0.0001011079
0.0001011079
0.0001011079
0.0001011078
0.0001010942
0.0001011071
0.0001011076
0.0001011076
0.0001011076
0.0001011076
0.0001011075
0.0001010938
0.0001011068
0.0001011073
0.0001011073
0.0001011073
0.0001011073
0.0001011072
0.0001010934
0.0001011066
0.000101107
0.000101107
0.000101107
0.000101107
0.000101107
0.0001010931
0.0001011064
0.0001011068
0.0001011068
0.0001011068
0.0001011068
0.0001011068
0.0001010929
0.0001011062
0.0001011066
0.0001011066
0.0001011066
0.0001011066
0.0001011066
0.0001010926
0.0001011061
0.0001011064
0.0001011064
0.0001011064
0.0001011064
0.0001011064
0.0001010924
0.0001011059
0.0001011062
0.0001011062
0.0001011063
0.0001011063
0.0001011063
0.0001010922
0.0001011058
0.000101106
0.0001011061
0.0001011061
0.0001011061
0.0001011061
0.000101092
0.0001011057
0.0001011059
0.0001011059
0.000101106
0.000101106
0.000101106
0.0001010918
0.0001011056
0.0001011058
0.0001011058
0.0001011058
0.0001011059
0.0001011059
0.0001010917
0.0001011055
0.0001011056
0.0001011057
0.0001011057
0.0001011057
0.0001011057
0.0001010915
0.0006378137
0.0001011055
0.0001011056
0.0001011056
0.0001011056
0.0001011056
0.0003059413
0.0001030357
0.0001011817
0.0001012042
0.0003077297
0.0002962123
0.0001044583
0.0001020483
0.0001011928
0.0001011385
0.0002957085
0.0002954775
0.0001024013
0.0001018198
0.0001011387
0.0001011313
0.0002952227
0.0002952846
0.0001021795
0.0001017212
0.0001011251
0.0001011206
0.0002950441
0.0002951503
0.0001020427
0.0001016511
0.000101119
0.0001011132
0.0002949179
0.0002950613
0.0001019415
0.0001015826
0.0001011155
0.00010111
0.0002948433
0.0001018608
0.0001011122
0.000307452
0.0002958967
0.0001011403
0.0001011442
0.0001011113
0.0001011388
0.0002953891
0.0002951113
0.0001011248
0.0001011216
0.0001010998
0.0001011128
0.0002949274
0.0002948891
0.0001011079
0.000101107
0.0001010964
0.0001011059
0.0002947442
0.0002947267
0.0001011037
0.0001011024
0.0001010948
0.0001011016
0.0002946075
0.0002945976
0.0001011004
0.0001010993
0.000101094
0.0001010992
0.0002944955
0.0002944893
0.0001010985
0.0001010975
0.0001010934
0.0001010975
0.0002944002
0.0002943962
0.0001010971
0.0001010962
0.0001010929
0.0001010963
0.0002943173
0.0002943147
0.0001010961
0.0001010952
0.0001010926
0.0001010954
0.000294244
0.0002942424
0.0001010953
0.0001010945
0.0001010923
0.0001010946
0.0002941785
0.0002941776
0.0001010947
0.0001010939
0.000101092
0.000101094
0.0002941193
0.0002941191
0.0001010942
0.0001010934
0.0001010918
0.0001010935
0.0002940655
0.0002940657
0.0001010938
0.0001010929
0.0001010916
0.0001010931
0.0002940163
0.0002940169
0.0001010934
0.0001010925
0.0001010915
0.0001010927
0.0002939711
0.0002939719
0.0001010931
0.0001010922
0.0001010913
0.0001010923
0.0002939293
0.0002939302
0.0001010928
0.0001010919
0.0001010912
0.000101092
0.0002938905
0.0002938916
0.0001010925
0.0001010917
0.000101091
0.0001010918
0.0002938546
0.0002938557
0.0001010923
0.0001010915
0.0001010909
0.0001010915
0.0002938211
0.0002938223
0.0001010921
0.0001010912
0.0001010908
0.0001010913
0.0002937899
0.0002937913
0.0001010919
0.0001010911
0.0001010907
0.0001010911
0.0002937611
0.0002937631
0.0001010917
0.0001010909
0.0001010906
0.000101091
0.0002937352
0.0002937414
0.0001010916
0.0001010907
0.0001010905
0.0001010908
0.0002937181
0.0002937532
0.0001010914
0.0001010906
0.0001010905
0.0001010907
0.0002937548
0.0001012015
0.0001010914
0.0001010905
0.0001010903
0.0001010904
0.0001051988
0.0001011213
0.0001012111
0.0001070125
0.0001011173
0.0001012193
0.0001060679
0.0001011126
0.000101232
0.0001069453
0.0001011121
0.0001012325
0.0001063239
0.0001011118
0.0001012339
0.0001068709
0.0001011123
0.0001012339
0.0001068391
0.0001011118
0.0001012333
0.0001068915
0.0001011126
0.0001012332
0.0001068767
0.0001011122
0.0001012332
0.0001067853
0.0001011124
0.0001012333
0.0001069108
0.0001011121
0.0001012342
0.0001063848
0.0001011124
0.0001012338
0.0001069455
0.0001011123
0.0001012325
0.0001060611
0.0001011134
0.000101232
0.0001070164
0.0001011164
0.0001012194
0.0001051879
0.0001011217
0.0001012111
0.0001030521
0.0001011812
0.0001012043
0.0003059422
0.000102055
0.0001011928
0.0001011386
0.0003077305
0.000296213
0.0001018247
0.0001011387
0.0001011313
0.0002957082
0.000295475
0.0001017248
0.0001011251
0.0001011207
0.0002952211
0.0002952874
0.000101654
0.000101119
0.0001011133
0.0002950451
0.0002951474
0.0001015848
0.0001011155
0.0001011101
0.0002949166
0.000295061
0.0001011021
0.0001010948
0.0001011016
0.0002947393
0.0002947267
0.0001010972
0.0001010934
0.0001010975
0.0002944926
0.0002944882
0.0001010959
0.0001010929
0.0001010963
0.0002943987
0.0002943958
0.000101095
0.0001010926
0.0001010954
0.0002943162
0.0002943137
0.0001010942
0.0001010923
0.0001010946
0.0002942427
0.0002942406
0.0001010936
0.000101092
0.000101094
0.0002941768
0.0002941767
0.0001010923
0.0001010914
0.0001010927
0.0002940157
0.000294016
0.000101092
0.0001010913
0.0001010923
0.0002939704
0.000293971
0.0001010917
0.0001010912
0.000101092
0.0002939286
0.0002939294
0.0001010915
0.000101091
0.0001010918
0.0002938899
0.0002938906
0.0001010911
0.0001010908
0.0001010913
0.0002938204
0.0002938213
0.0001010909
0.0001010907
0.0001010911
0.0002937893
0.0002937901
0.0001010906
0.0001010905
0.0001010908
0.0002937357
0.0002937406
0.0001010904
0.0001010904
0.0001010907
0.0002937194
0.0002937529
0.0001010905
0.0001010902
0.0001010905
0.0002937552
0.0001012016
0.0001014834
0.0001482787
0.0001012631
0.0001453844
0.0001012688
0.0001450894
0.0001012002
0.000144665
0.0001011909
0.000144689
0.0001011749
0.0001443792
0.0001011641
0.0001444605
0.0001011606
0.0001441837
0.0001011467
0.0001442866
0.0001011506
0.0001440287
0.0001011352
0.0001441493
0.0001011427
0.0001439044
0.0001011264
0.0001440401
0.0001012283
0.0001450658
0.0001013
0.0001448301
0.0001011696
0.0001443845
0.0001011962
0.0001443813
0.0001011498
0.0001441191
0.0001011628
0.0001441254
0.0001011398
0.0001439267
0.000101148
0.0001439316
0.0001011328
0.0001437735
0.0001011385
0.0001437772
0.0001011276
0.000143646
0.0001011319
0.0001436487
0.0001011235
0.000143537
0.0001011268
0.000143539
0.0001011202
0.0001434421
0.0001011229
0.0001434436
0.0001011174
0.0001433582
0.0001011196
0.0001433593
0.000101115
0.0001432832
0.0001011169
0.000143284
0.0001011129
0.0001432156
0.0001011145
0.0001432162
0.0001011111
0.000143154
0.0001011125
0.0001431545
0.0001011095
0.0001430977
0.0001011107
0.0001430981
0.0001011081
0.000143046
0.0001011092
0.0001430462
0.0001011068
0.0001429982
0.0001011078
0.0001429983
0.0001011057
0.000142954
0.0001011065
0.000142954
0.0001011046
0.0001429128
0.0001011054
0.0001429128
0.0001011037
0.0001428745
0.0001011044
0.0001428744
0.0001011028
0.0001428387
0.0001011035
0.0001428386
0.0001011021
0.0001428053
0.0001011027
0.0001428052
0.0001011014
0.000142774
0.0001011019
0.0001427739
0.0001011007
0.0001427449
0.0001011012
0.0001427452
0.0001011001
0.0001427207
0.0001011005
0.0001427294
0.000101477
0.0001014819
0.0001014571
0.0001014647
0.0001014579
0.0001014528
0.0001014598
0.0001014581
0.000101462
0.0001014541
0.0001014618
0.0001014553
0.0001014572
0.0001014642
0.0001014666
0.0001014659
0.000101459
0.0001015356
0.0001011122
0.0002948417
0.000101144
0.0001011113
0.0001011388
0.0003074493
0.0002958982
0.0001011213
0.0001010997
0.0001011128
0.0002953867
0.0002951109
0.0001011067
0.0001010963
0.0001011059
0.0002949243
0.0002948876
0.000101099
0.000101094
0.0001010992
0.0002946069
0.0002945954
0.0001010931
0.0001010918
0.0001010935
0.0002941182
0.0002941173
0.0001010927
0.0001010916
0.000101093
0.0002940638
0.0002940652
0.0001010913
0.0001010909
0.0001010915
0.0002938536
0.0002938545
0.0001010907
0.0001010906
0.000101091
0.0002937599
0.0002937636
0.0001013613
0.0001457821
0.0001013403
0.0001508568
0.0001013367
0.0001455171
0.0001013803
0.0001505504
0.0001014592
0.0001015381
0.0001011888
0.0001449136
0.0001012312
0.0001448754
0.0001011552
0.0001446283
0.0001012031
0.0001445109
0.000101139
0.0001444292
0.0001011854
0.0001442892
0.0001011307
0.0001442722
0.0001011728
0.0001441119
0.0001011236
0.0001441456
0.0001011626
0.0001439722
0.0001012075
0.0001445822
0.0001011984
0.0001446323
0.0001011669
0.000144259
0.0001011623
0.0001442553
0.0001011491
0.0001440364
0.0001011477
0.0001440323
0.000101139
0.0001438616
0.0001011384
0.0001438582
0.0001011322
0.00014372
0.0001011318
0.0001437171
0.0001011271
0.0001436003
0.0001011269
0.0001435979
0.0001011231
0.0001434973
0.0001011229
0.0001434952
0.0001011198
0.0001434071
0.0001011196
0.0001434053
0.0001011171
0.0001433269
0.0001011169
0.0001433253
0.0001011148
0.000143255
0.0001011146
0.0001432536
0.0001011127
0.0001431899
0.0001011125
0.0001431886
0.000101111
0.0001431306
0.0001011107
0.0001431294
0.0001011094
0.0001430762
0.0001011092
0.0001430752
0.000101108
0.0001430261
0.0001011078
0.0001430252
0.0001011067
0.0001429797
0.0001011065
0.0001429789
0.0001011056
0.0001429367
0.0001011054
0.000142936
0.0001011046
0.0001428968
0.0001011044
0.0001428961
0.0001011036
0.0001428595
0.0001011035
0.0001428589
0.0001011028
0.0001428247
0.0001011026
0.0001428241
0.000101102
0.0001427922
0.0001011019
0.0001427916
0.0001011013
0.000142762
0.0001011012
0.0001427612
0.0001011007
0.0001427357
0.0001011005
0.0001427335
0.0001011001
0.0001013565
0.0001427248
0.0001010998
0.0001014688
0.0001014731
0.0001014611
0.0001014652
0.000101456
0.0001014564
0.0001014629
0.0001014609
0.0001014548
0.0001014545
0.0001014658
0.0001014631
0.0001014627
0.0001014582
0.0001014781
0.0001014788
0.0001014912
0.0001482852
0.0001011889
0.0001448901
0.0001012316
0.000144874
0.0001012001
0.0001446632
0.0001011909
0.0001446887
0.0001011398
0.0001439398
0.000101148
0.0001439448
0.0001011276
0.0001436592
0.0001011319
0.0001436483
0.0001011271
0.0001435998
0.0001011269
0.0001435974
0.0001011235
0.0001435368
0.0001011268
0.0001435386
0.0001011148
0.0001432546
0.0001011146
0.0001432531
0.0001011095
0.000143096
0.0001011107
0.0001430976
0.0001011094
0.0001430757
0.0001011092
0.0001430747
0.0001011081
0.0001430456
0.0001011092
0.0001430457
0.000101108
0.0001430256
0.0001011078
0.0001430247
0.0001011068
0.0001429979
0.0001011078
0.0001429979
0.0001011067
0.0001429793
0.0001011065
0.0001429785
0.0001011057
0.0001429536
0.0001011065
0.0001429536
0.0001011056
0.0001429363
0.0001011054
0.0001429356
0.0001011037
0.0001428741
0.0001011044
0.000142874
0.0001011036
0.000142859
0.0001011035
0.0001428584
0.0001011028
0.0001428383
0.0001011035
0.0001428382
0.0001011028
0.0001428243
0.0001011026
0.0001428236
0.0001011014
0.0001427871
0.0001011019
0.0001427734
0.0001011013
0.0001427614
0.0001011012
0.0001427607
0.0001011007
0.0001427443
0.0001011012
0.0001427442
0.0001011007
0.0001427365
0.0001011005
0.0001427323
0.0001011001
0.0001427205
0.0001011005
0.000142731
0.0001011001
0.000107673
0.0001427255
0.0001011001
0.0001031454
0.0001431379
0.0001057213
0.0001503684
0.0001064061
0.0001503101
0.000104673
0.0001500753
0.0001053309
0.0001500412
0.0001041089
0.0001498947
0.0001046369
0.0001498757
0.0001037213
0.000149768
0.0001041641
0.0001497588
0.0001034408
0.0001496704
0.0001038294
0.0001496684
0.0001032274
0.0001495913
0.0001035631
0.0001495949
0.0001040497
0.0001040896
0.000104109
0.0001041489
0.0001041689
0.0001041635
0.0001040995
0.0001041782
0.0001041435
0.0001041927
0.0001041869
0.000104129
0.0001041342
0.0001040879
0.0001040596
0.0001040378
0.0001038517
0.000104002
0.0001075003
0.0001504833
0.0001093423
0.0001505824
0.0001039258
0.0001039904
0.0001056296
0.0001501438
0.0001075059
0.0001501369
0.0001047058
0.0001499583
0.0001062252
0.0001499325
0.0001041341
0.0001498291
0.000105451
0.0001497937
0.0001037329
0.0001497302
0.0001048985
0.0001496882
0.0001034259
0.0001496505