/*--------------------------------*- C++ -*----------------------------------*\
  =========                 |
  \\      /  F ield         | OpenFOAM: The Open Source CFD Toolbox
   \\    /   O peration     | Website:  https://openfoam.org
    \\  /    A nd           | Version:  7
     \\/     M anipulation  |
\*---------------------------------------------------------------------------*/
FoamFile
{
    version     2.0;
    format      ascii;
    class       volScalarField;
    location    "0.02";
    object      p;
}
// * * * * * * * * * * * * * * * * * * * * * * * * * * * * * * * * * * * * * //

dimensions      [0 2 -2 0 0 0 0];

internalField   nonuniform List<scalar> 
109978
(
0.3534052
0.4460551
0.4713383
0.4790447
0.4859062
0.4970244
0.1867584
0.2613035
0.2849493
0.2978978
0.306723
0.3169542
0.2256717
0.3416215
0.3952655
0.4186522
0.4359654
0.4499324
0.1752813
0.2739339
0.3211142
0.3429509
0.3622195
0.3790007
0.1670815
0.2661584
0.3177363
0.3430678
0.3646291
0.3829748
0.1517625
0.2446828
0.2941104
0.3199144
0.3423085
0.3610713
0.141718
0.2306242
0.2784916
0.3048387
0.3277734
0.3475688
0.1332545
0.2181434
0.2641813
0.2900705
0.3131171
0.333296
0.1259731
0.2071238
0.2514286
0.2767378
0.2997983
0.3199681
0.1197084
0.1973851
0.2401555
0.2646719
0.2874566
0.3074324
0.114108
0.1886654
0.2300114
0.2536504
0.2760291
0.2959498
0.1091732
0.1808035
0.2208299
0.2435992
0.2655317
0.2852657
0.1047557
0.1736994
0.2124168
0.2344508
0.2557743
0.2752369
0.1007799
0.1672154
0.2047279
0.2261228
0.2467298
0.2658306
0.09718107
0.1613461
0.1984525
0.2184809
0.2383475
0.2571749
0.09388514
0.155982
0.1935849
0.2114166
0.2305788
0.2490453
0.09084027
0.1509625
0.188436
0.2047468
0.2233736
0.2414197
0.08802248
0.1462002
0.1824924
0.1983904
0.2166806
0.2342918
0.08540726
0.1417011
0.1767228
0.1924117
0.2104562
0.2276213
0.08296623
0.1375048
0.1713759
0.1868679
0.2046604
0.2214009
0.08071555
0.1336315
0.1665043
0.1817877
0.1992618
0.2156373
0.07864865
0.1300935
0.1620884
0.1771824
0.1942755
0.210327
0.03674981
0.1268429
0.1580506
0.1741628
0.1897512
0.2054526
0.7342524
0.687144
0.6710786
0.6859639
0.6924208
0.7006558
0.1880053
0.4300601
0.4963999
0.5897859
0.6239852
0.6402963
0.07798673
0.06519363
0.07084956
0.07516678
0.08313076
0.1058467
0.06062853
0.2262773
0.2885114
0.3736113
0.4091962
0.4442303
0.04447836
0.08594751
0.1158901
0.1647826
0.1926242
0.2270243
0.03845913
0.1223191
0.1687133
0.2331228
0.2691159
0.3055558
0.03416057
0.08771906
0.1240805
0.1793608
0.2129359
0.2484948
0.03080281
0.08443527
0.1212794
0.1758787
0.2100662
0.246069
0.02807075
0.07509804
0.1086694
0.1598087
0.1926096
0.2277099
0.02569136
0.06914936
0.1006152
0.1492469
0.1810312
0.2154707
0.0236452
0.0639432
0.09332898
0.1394353
0.169947
0.2034
0.02185534
0.05952832
0.08705852
0.1309033
0.1601654
0.1926672
0.02028473
0.05572168
0.08161588
0.1233847
0.1514203
0.1828983
0.01889774
0.05238498
0.07683928
0.1166906
0.1435883
0.1740193
0.01765879
0.04944155
0.07264608
0.1106731
0.1365312
0.1659277
0.01653937
0.0468312
0.068906
0.1050678
0.1301245
0.1585129
0.0155291
0.04448062
0.06553614
0.09977208
0.1242943
0.1517196
0.01461442
0.04237022
0.06251398
0.09526422
0.1190143
0.145523
0.01378398
0.04047276
0.0598035
0.09153812
0.1142226
0.1398522
0.01302919
0.03876108
0.0573409
0.08813422
0.1098361
0.1346362
0.01234157
0.03720246
0.05509551
0.08493405
0.1057987
0.1298316
0.01171198
0.03576863
0.05303511
0.08189025
0.1020629
0.1254191
0.01113509
0.03445416
0.0511619
0.07911356
0.09864101
0.121358
0.0143611
0.03325897
0.04943632
0.0765473
0.09519473
0.1175902
0.7243817
0.6087161
0.6359995
0.6782066
0.7042478
0.7194971
0.1713953
0.4172037
0.5035367
0.6235701
0.6607377
0.6885806
0.04976682
0.03497956
0.03906679
0.02929141
0.03589973
0.04857795
0.03575921
0.2241571
0.3184707
0.3961214
0.4403471
0.4831624
0.02157636
0.06841603
0.1070787
0.1367096
0.1777091
0.2144365
0.01899338
0.1185223
0.182266
0.2273749
0.2754121
0.3042702
0.01554494
0.07899581
0.1282983
0.167063
0.2074971
0.2401753
0.01380646
0.07979103
0.1302491
0.1700204
0.2100247
0.2424569
0.01234676
0.07019814
0.1166916
0.1535739
0.1912197
0.2227546
0.01113163
0.06490022
0.1091034
0.1442102
0.180539
0.2114642
0.01013565
0.05998132
0.1017682
0.1349571
0.1697485
0.1997093
0.009295043
0.05580941
0.09544223
0.126932
0.160346
0.1893826
0.008584172
0.05220065
0.08987712
0.1198055
0.1518855
0.179988
0.007978266
0.04903279
0.08493244
0.1134366
0.1442625
0.1714548
0.007456642
0.0462355
0.08052238
0.1077309
0.1373733
0.1636769
0.007005943
0.04374162
0.07656967
0.1025836
0.1311259
0.1565749
0.006605507
0.04150313
0.07300375
0.09790985
0.1254367
0.1500634
0.006249869
0.03948666
0.06976365
0.09365689
0.1202397
0.1440872
0.005935544
0.03766438
0.06680975
0.08979566
0.115485
0.1385989
0.005659595
0.03601141
0.0641146
0.08626982
0.1111272
0.1335456
0.005417731
0.03450952
0.06165042
0.08304432
0.1071173
0.1288898
0.005199941
0.03314027
0.05938838
0.08007003
0.1034213
0.1245882
0.005005521
0.0318927
0.05730681
0.07734525
0.100014
0.1206213
0.004834381
0.03073639
0.05538233
0.07482531
0.09685466
0.1169587
0.7817451
0.6975932
0.7030937
0.6834248
0.6600267
0.6598832
0.1781947
0.4906695
0.6141414
0.7271324
0.759832
0.7840059
0.04355093
-0.009600776
-0.03604509
-0.05779774
-0.0605975
-0.05323412
0.0323291
0.2468989
0.3304279
0.4166393
0.4695122
0.5126667
0.01641317
0.05547686
0.0856297
0.1245336
0.1621306
0.202826
0.01701069
0.1164254
0.1729457
0.2382828
0.2758986
0.3096431
0.01379702
0.07967388
0.119224
0.168006
0.2032776
0.2374661
0.01276967
0.08262188
0.1243818
0.1741364
0.2100462
0.2442173
0.01153476
0.07343952
0.1112831
0.156906
0.1909226
0.223962
0.01055851
0.06839242
0.1042999
0.1477088
0.1807371
0.2131952
0.009742421
0.0635427
0.09726939
0.138337
0.1699918
0.2014483
0.009042036
0.05936784
0.09114531
0.1301663
0.1605762
0.1910925
0.008441584
0.05573768
0.08574093
0.1228835
0.1520596
0.1815926
0.007920737
0.05253378
0.08093224
0.1163604
0.1443711
0.172938
0.007465024
0.0496934
0.07664693
0.1104974
0.1374077
0.1650332
0.007062823
0.04715789
0.07280612
0.105196
0.1310854
0.1578042
0.006705203
0.04488023
0.06934466
0.1003779
0.1253251
0.1511774
0.006385422
0.04282682
0.06621944
0.09602054
0.1200783
0.1450994
0.006098228
0.04096848
0.06338635
0.09207319
0.1152808
0.1395161
0.005839918
0.03928067
0.06080899
0.08846992
0.1108862
0.1343774
0.005606217
0.03774088
0.05845501
0.08516902
0.1068442
0.1296402
0.005393086
0.0363343
0.05630349
0.08214384
0.1031299
0.1252796
0.005198014
0.0350464
0.05433507
0.07936772
0.09970572
0.1212502
0.005020029
0.03387272
0.05253259
0.07681804
0.096543
0.1175321
0.8520504
0.7285918
0.7411956
0.7511877
0.7605647
0.7698054
0.174671
0.5003753
0.6630111
0.8094835
0.8583893
0.8884798
0.04056424
-0.03479891
-0.0738035
-0.1238967
-0.1309102
-0.1170199
0.03243555
0.2526336
0.3205595
0.3703646
0.4145839
0.4586749
0.01507871
0.04356874
0.0773121
0.1105188
0.1439843
0.1806368
0.01579619
0.1043657
0.1754041
0.2306316
0.2722384
0.3062748
0.01304217
0.07327343
0.1187981
0.1610771
0.1984932
0.2319047
0.01221041
0.07750959
0.1256081
0.1698312
0.2081574
0.2417605
0.01106244
0.06909252
0.1125341
0.1529954
0.1891858
0.2215494
0.01013069
0.06446136
0.105775
0.1443428
0.1794535
0.2112648
0.009340971
0.05988645
0.0988174
0.1352761
0.1689057
0.1997256
0.008657005
0.05591094
0.09272118
0.1273492
0.1596428
0.1895487
0.008068646
0.0524451
0.087319
0.1202587
0.1512441
0.1801977
0.007557533
0.04938399
0.08249199
0.1138971
0.1436446
0.1716629
0.007110297
0.04667146
0.07818018
0.108173
0.1367587
0.1638652
0.006715717
0.04425263
0.0743055
0.1030051
0.1305007
0.1567267
0.006365352
0.0420819
0.07081204
0.09831447
0.1248008
0.1501822
0.006052635
0.04012694
0.06764869
0.0940585
0.1195964
0.1441754
0.005772022
0.03835823
0.06477751
0.09018154
0.114837
0.1386515
0.00551957
0.0367531
0.06215677
0.08664231
0.1104692
0.1335717
0.005290896
0.03528858
0.05975798
0.08339353
0.1064493
0.1288883
0.005082239
0.03394727
0.0575482
0.08041156
0.1027372
0.1245847
0.00489049
0.03271316
0.055508
0.07766361
0.09929248
0.1206152
0.004712992
0.03156646
0.05360491
0.07512888
0.09608693
0.116975
0.8482814
0.688222
0.6812833
0.6867587
0.6938649
0.7005931
0.173994
0.4997775
0.6628811
0.8094658
0.8583984
0.8884428
0.04072755
-0.03498417
-0.0739174
-0.123992
-0.130964
-0.1170472
0.03316205
0.2526083
0.3205265
0.3703398
0.4145604
0.4586718
0.01514055
0.0435602
0.07729863
0.1105186
0.1439758
0.1806316
0.01572956
0.104364
0.1753983
0.2306266
0.2722337
0.3062704
0.0131044
0.07327206
0.1187949
0.1610745
0.1984894
0.2318996
0.01228396
0.07750875
0.1256069
0.1698289
0.2081546
0.2417589
0.0111391
0.06909249
0.1125333
0.1529946
0.1891842
0.2215457
0.01020776
0.06446118
0.1057752
0.1443418
0.1794521
0.2112655
0.009417759
0.05988659
0.0988171
0.135276
0.1689047
0.199723
0.008732064
0.05591022
0.09272177
0.1273481
0.1596416
0.1895499
0.008141504
0.05244487
0.08731896
0.1202585
0.1512431
0.1801942
0.007627539
0.04938324
0.0824924
0.1138961
0.1436424
0.1716634
0.007177384
0.04667146
0.07818003
0.1081729
0.1367569
0.1638604
0.006780286
0.04425266
0.07430596
0.1030046
0.130498
0.1567233
0.006427674
0.04208308
0.07081323
0.09831582
0.1247983
0.1501761
0.006112884
0.04012957
0.0676522
0.09406013
0.1195958
0.144168
0.005830736
0.03836432
0.06478469
0.09018839
0.1148377
0.1386425
0.005577141
0.03676541
0.06217259
0.08665647
0.1104774
0.1335611
0.005348483
0.03531271
0.05978835
0.08342322
0.1064671
0.1288733
0.005141871
0.03399234
0.05760596
0.08046527
0.1027847
0.1245564
0.00495478
0.03279058
0.05560834
0.07775332
0.09938835
0.1205674
0.00478471
0.03168378
0.05376085
0.07522584
0.09625056
0.1168458
0.8009656
0.6830314
0.7211538
0.7358672
0.7442544
0.7518052
0.1751434
0.4896698
0.6134478
0.7267871
0.7596515
0.783904
0.04302542
-0.009831435
-0.03630696
-0.05796546
-0.06069614
-0.05329477
0.03412739
0.2467883
0.3303051
0.416541
0.469447
0.5126281
0.01695251
0.055431
0.08557658
0.1244861
0.1620956
0.2027945
0.01731429
0.1164047
0.1729263
0.2382634
0.2758838
0.3096285
0.01420188
0.07966435
0.1192113
0.1679929
0.2032665
0.2374544
0.01317872
0.08261724
0.1243748
0.1741285
0.2100383
0.2442092
0.01191367
0.07343707
0.111278
0.1569009
0.1909189
0.2239566
0.01091173
0.0683905
0.1042969
0.1477061
0.1807346
0.213192
0.01007348
0.06354152
0.09726691
0.1383353
0.1699919
0.2014468
0.009353047
0.05936712
0.09114411
0.1301664
0.1605764
0.1910928
0.008734054
0.05573768
0.08573964
0.1228841
0.1520618
0.1815943
0.00819565
0.05253422
0.08093228
0.1163618
0.1443733
0.1729406
0.007723774
0.04969396
0.07664634
0.110499
0.1374117
0.1650377
0.007306597
0.04715747
0.07280616
0.1051974
0.1310897
0.1578127
0.006935474
0.04487891
0.06934164
0.1003786
0.1253299
0.1511881
0.006603315
0.04282224
0.06621399
0.09601941
0.1200804
0.145115
0.006305074
0.04095986
0.0633723
0.09206826
0.1152774
0.1395347
0.00603666
0.03926363
0.06078179
0.08845815
0.1108699
0.1344083
0.005793348
0.03770985
0.05840063
0.08514787
0.1067998
0.1296875
0.005571783
0.03627837
0.05620026
0.08210916
0.1030286
0.1253873
0.005369836
0.03496334
0.05416149
0.07935166
0.09949034
0.1214806
0.005184968
0.03373916
0.05221982
0.07680742
0.09614699
0.1179234
0.7299461
0.6024743
0.675843
0.7113822
0.7272984
0.7381436
0.1760668
0.4174567
0.503465
0.6234479
0.6606274
0.6885007
0.04471396
0.03483989
0.03892661
0.02917649
0.03582102
0.04851844
0.03406166
0.2241657
0.3184006
0.3960533
0.4402854
0.4831107
0.01925742
0.06838708
0.1070342
0.1366619
0.1776643
0.2143943
0.0183803
0.1185062
0.182243
0.2273453
0.2753838
0.3042415
0.01499095
0.07898671
0.1282864
0.1670445
0.207478
0.2401544
0.01373723
0.07978879
0.1302433
0.1700097
0.210012
0.2424418
0.01238143
0.07019875
0.116691
0.1535667
0.1912117
0.2227445
0.01131658
0.06490078
0.1091038
0.1442067
0.1805339
0.2114564
0.01043005
0.05998122
0.1017708
0.1349541
0.1697453
0.1997046
0.009669995
0.05580911
0.09544479
0.1269306
0.1603443
0.1893778
0.00901326
0.05220112
0.08988144
0.1198041
0.1518843
0.1799854
0.008440969
0.04903423
0.08493523
0.1134369
0.1442622
0.1714506
0.007939175
0.04623724
0.08052706
0.1077313
0.1373733
0.1636754
0.007495655
0.04374375
0.07657324
0.1025857
0.131127
0.1565738
0.007100564
0.04150559
0.07300972
0.09791223
0.1254387
0.1500646
0.006747394
0.03949081
0.06976886
0.09366225
0.1202417
0.1440908
0.006430555
0.03766972
0.06681794
0.08980192
0.1154886
0.1386033
0.006145671
0.03602202
0.06412407
0.08628381
0.1111357
0.1335569
0.005888165
0.03452607
0.06166542
0.08306246
0.1071311
0.1289075
0.005654013
0.03316519
0.05940421
0.08008546
0.1034503
0.1245926
0.005440369
0.03192938
0.05732763
0.07735227
0.1000737
0.1206417
0.005241746
0.03075038
0.05534971
0.07466594
0.09687251
0.1169006
0.5710103
0.5100417
0.5619556
0.5844446
0.5970203
0.6098414
0.1948774
0.42987
0.4962193
0.5896501
0.6238978
0.6402391
0.04696912
0.06504405
0.07069775
0.07503797
0.08303281
0.1057624
0.03382177
0.2261667
0.2884062
0.3735146
0.4091194
0.4441601
0.02005681
0.08589135
0.1158227
0.1647188
0.1925672
0.2269716
0.01878812
0.1222865
0.1686725
0.233082
0.269079
0.30552
0.01528513
0.08770283
0.1240532
0.1793348
0.2129102
0.2484694
0.01388304
0.0844297
0.1212613
0.1758619
0.2100487
0.2460522
0.01257204
0.07509407
0.1086539
0.1597973
0.1925986
0.2276987
0.01153198
0.06914299
0.1006033
0.1492386
0.1810233
0.2154647
0.01067172
0.06393999
0.09331779
0.1394299
0.1699422
0.2033957
0.009936275
0.0595241
0.08705065
0.1308996
0.1601611
0.1926664
0.009302835
0.05572129
0.08160866
0.1233825
0.1514188
0.1828976
0.008739717
0.05238633
0.0768345
0.1166896
0.1435867
0.1740211
0.0082391
0.04944204
0.07264048
0.1106721
0.1365316
0.1659296
0.00778765
0.04683101
0.06890126
0.1050662
0.1301252
0.1585176
0.007379369
0.04447867
0.06552683
0.09976907
0.1242941
0.1517255
0.007011745
0.04236301
0.06250074
0.09525729
0.1190122
0.1455341
0.006675601
0.04046122
0.05977963
0.09152671
0.1142117
0.1398694
0.006368212
0.03874072
0.05729897
0.08811747
0.1098067
0.1346726
0.006088127
0.03716306
0.0550205
0.08491626
0.1057228
0.1299052
0.005828887
0.0357082
0.05288924
0.08187383
0.1018942
0.1255689
0.005588628
0.03438464
0.05093543
0.07923458
0.09825717
0.1218512
0.01429738
0.03314197
0.04896767
0.07667053
0.09453951
0.1182777
0.3934332
0.4177001
0.4298587
0.440498
0.4731211
0.4887411
0.0197364
0.2158226
0.3165231
0.393729
0.4217879
0.4386815
0.4528638
0.0159239
0.1525224
0.2582862
0.3159872
0.3415881
0.340717
0.3520026
0.01324187
0.1684102
0.2980283
0.3752049
0.4053107
0.4228517
0.4374932
0.01021247
0.127926
0.2450994
0.314414
0.3436343
0.36273
0.3799825
0.009067925
0.120454
0.2373131
0.3099525
0.3424119
0.3635174
0.3819577
0.008191476
0.1050573
0.215532
0.2856717
0.318263
0.3404723
0.3595733
0.007526717
0.09702491
0.2024979
0.270545
0.3033608
0.3263667
0.3464268
0.007011849
0.0897683
0.1903324
0.2557753
0.2880496
0.3113889
0.331743
0.006551012
0.08365532
0.1798749
0.2428987
0.2743521
0.2978438
0.3183604
0.006152077
0.07852143
0.1707313
0.2314515
0.2619466
0.2852468
0.3058351
0.005789361
0.07405205
0.1626385
0.2211408
0.25062
0.2735625
0.2943463
0.005491596
0.07020133
0.1554203
0.2118295
0.2403187
0.2627905
0.2834503
0.005206291
0.06680596
0.1489327
0.2033488
0.2309556
0.2528006
0.2732263
0.004963691
0.06376351
0.1430947
0.1956741
0.2223951
0.243572
0.2635977
0.004734076
0.06107116
0.137838
0.1890236
0.2145436
0.2350293
0.2546914
0.004518462
0.05865034
0.1330531
0.1832498
0.2073109
0.2271125
0.2463601
0.004321773
0.05643101
0.1285809
0.1776382
0.2005422
0.2197864
0.2385596
0.004131473
0.05437428
0.1243366
0.171882
0.1941829
0.212979
0.2312874
0.003955819
0.05248239
0.1203507
0.166394
0.1882349
0.2066366
0.2244969
0.00380048
0.0507539
0.1166348
0.1612899
0.1826866
0.2007157
0.2181696
0.003663386
0.04916123
0.1131892
0.1566043
0.1775227
0.1951715
0.2123127
0.003524443
0.04771085
0.1099974
0.1522773
0.1727283
0.1899904
0.2067805
0.003401838
0.103576
0.1069491
0.1480487
0.1682659
0.1848713
0.2013259
0.1787414
0.290803
0.02666444
0.2927703
0.2862717
0.2137188
0.3935099
0.2251386
0.3183602
0.3527218
0.375911
0.256705
0.4178231
0.2271047
0.4112513
0.3669517
0.4819328
0.2900656
0.4300385
0.2429724
0.4568423
0.3793456
0.5110312
0.3187652
0.4406088
0.2735721
0.4788423
0.3970205
0.5323224
0.3440818
0.4732089
0.2986044
0.4960259
0.4166257
0.5497313
0.4887513
0.5111557
0.07359667
0.1597241
0.01970784
0.1286317
0.02911568
0.1747943
0.05955045
0.1213407
0.01594109
0.102908
0.01720806
0.1157236
0.04510174
0.09400287
0.0132293
0.09712583
0.01500956
0.09269347
0.01467836
0.06317917
0.01019564
0.07246668
0.01177971
0.07148252
0.002630798
0.04935412
0.009050975
0.06231017
0.01058632
0.06400964
-0.006474544
0.03829295
0.008177278
0.05299901
0.009295528
0.05553872
-0.01245476
0.03056875
0.007526532
0.04711075
0.008467351
0.05038982
-0.01640757
0.02363145
0.007013776
0.04260355
0.007749138
0.04574327
-0.01945157
0.01807112
0.006547443
0.03897116
0.007162882
0.04195512
-0.02169848
0.01360739
0.006140701
0.03591624
0.006671065
0.03872043
-0.02336558
0.01000018
0.005786555
0.03330266
0.006250469
0.03593496
-0.02458891
0.0070568
0.005477987
0.03109283
0.005881904
0.03347834
-0.0254725
0.004598768
0.005208599
0.02916948
0.005555076
0.03131693
-0.02610682
0.00251236
0.004963971
0.02746344
0.005263668
0.02940551
-0.02654575
0.0007531194
0.004734504
0.02593823
0.005001717
0.02769
-0.02683335
-0.0007060769
0.004519031
0.02456918
0.004764239
0.02614597
-0.02698868
-0.001959219
0.00431917
0.02330529
0.004550201
0.02475513
-0.02706449
-0.003053871
0.004132011
0.0221471
0.004354596
0.02350152
-0.02706813
-0.003996942
0.003957534
0.02108126
0.004173256
0.02236324
-0.02700298
-0.004773379
0.003799793
0.02010945
0.004006492
0.02132866
-0.02686023
-0.005406785
0.00366065
0.01922547
0.003855204
0.0203887
-0.02665841
-0.005980613
0.003533903
0.01842485
0.003717173
0.01953149
-0.02644675
0.03037709
0.003417746
0.0177195
0.003598096
0.01876336
0.572723
-0.003071209
0.3072807
1.175628
0.01411909
0.316281
0.6402517
0.01614379
0.3097248
1.211625
0.01611511
0.3094473
0.7309813
0.01714921
0.3025689
1.257044
0.01619331
0.2803656
1.070541
0.01580179
0.2643315
1.295385
0.01510059
0.2573037
1.303999
0.01542394
0.263089
1.0026
0.01631048
0.2704794
1.241573
0.0168244
0.2927287
0.7481861
0.017068
0.3015136
1.20933
0.01631546
0.3093562
0.6443674
0.01606112
0.3098137
1.174355
0.0139046
0.3162822
0.5739923
-0.00300251
0.307176
0.2909437
0.02664461
0.2925236
0.1786788
0.2250327
0.3181691
0.3525623
0.2861419
0.2135776
0.2269349
0.4111224
0.3668553
0.3757728
0.2565002
0.2428903
0.4567423
0.3792084
0.4817544
0.2899558
0.2734756
0.4787427
0.3970089
0.5109197
0.3186278
0.2986052
0.4960075
0.4166075
0.532206
0.3440251
0.07247081
0.01179162
0.07148485
0.01470494
0.06319252
0.05299159
0.009294809
0.05553713
-0.006449102
0.0382941
0.04710276
0.008457923
0.05039275
-0.01246264
0.0305434
0.04261639
0.007750039
0.04575134
-0.01642047
0.02361259
0.03899654
0.007178784
0.04196213
-0.01945612
0.01811239
0.0359062
0.006671516
0.03872433
-0.02167049
0.01360004
0.02918208
0.00555479
0.03132257
-0.02548209
0.004596193
0.02747129
0.005263523
0.02941138
-0.02610594
0.002513231
0.02594515
0.005001401
0.02769487
-0.02654565
0.0007525194
0.02457834
0.00476458
0.02614882
-0.0268329
-0.0007247789
0.02214566
0.00435344
0.02350344
-0.02705711
-0.003050565
0.02108033
0.004171963
0.02236273
-0.027071
-0.004013805
0.01916803
0.003848824
0.0203577
-0.02684144
-0.005393204
0.01835478
0.003705708
0.01948109
-0.02668461
-0.00599219
0.01759479
0.003577608
0.01866495
-0.02650031
0.0302911
0.06072672
0.1314554
0.2260876
0.2966272
0.2656596
0.3135534
0.2663602
0.4031971
0.3560472
0.3744698
0.2895896
0.4387744
0.3694648
0.4024087
0.3098701
0.4585025
0.3894494
0.4211524
0.3299652
0.4781772
0.4092516
0.4391476
0.347548
0.4974158
0.4265634
0.4559211
0.05959052
0.1613994
0.08112301
0.2157046
0.04094446
0.1201442
0.04165482
0.1373471
0.03242912
0.08635759
0.03526416
0.09333075
0.02481715
0.06273302
0.02593887
0.06906931
0.02096998
0.04766867
0.02233136
0.05402687
0.0178286
0.03788429
0.01912283
0.04247735
0.01555677
0.02999658
0.01666538
0.03350973
0.01347692
0.0238809
0.01454442
0.0264191
0.01157796
0.01869943
0.01258095
0.02051601
0.009851407
0.01431344
0.01083998
0.01567824
0.008357837
0.0106061
0.009341277
0.01172324
0.007093927
0.007513635
0.008055661
0.008448235
0.006042816
0.004942419
0.006971648
0.005733832
0.00517152
0.002807632
0.006092092
0.00347277
0.00442202
0.001030642
0.005352509
0.00156977
0.003766155
-0.0004532554
0.00470396
-3.940371e-05
0.003195796
-0.001711946
0.004127376
-0.001416098
0.002691161
-0.002785341
0.003615882
-0.002602867
0.002252144
-0.003687423
0.003157062
-0.003615428
0.001886755
-0.004435911
0.002756106
-0.004473816
0.001586968
-0.005056856
0.002426832
-0.00519277
0.001334696
-0.005571693
0.002154072
-0.005806897
0.001085712
-0.006026018
0.001905321
-0.006392514
-0.006230887
0.01677464
-0.01971139
7.720261e-05
-0.02111609
0.003716168
-0.02413865
-0.01341638
-0.01666774
-0.02241993
-0.002577528
-0.01701166
0.004196162
-0.02431801
0.00769293
-0.01816709
0.07991096
0.01023871
0.511168
0.5496548
0.1285151
0.02908353
0.1746816
0.07349642
0.1596166
0.1028235
0.01720692
0.1156766
0.0594444
0.1213259
0.09711007
0.01501258
0.09271479
0.04509761
0.09402719
0.06232431
0.01059701
0.06400977
0.002656428
0.04937575
0.03333025
0.006267205
0.03594459
-0.02336486
0.01003508
0.03108926
0.005873166
0.03347784
-0.02456836
0.007039089
0.02334124
0.004551305
0.02476198
-0.02699688
-0.001967599
0.02013167
0.004011498
0.02132897
-0.02702166
-0.004748635
0.1538501
0.2345161
0.1656128
0.1794219
0.06609993
0.1714687
0.05695328
0.07471465
0.08097597
0.009285234
0.3483146
0.3297055
0.2311697
0.3720625
0.3757583
0.360888
0.2563778
0.4221154
0.3800518
0.3818149
0.2773323
0.4468947
0.3926059
0.4038227
0.3008315
0.4664278
0.4070875
0.4254384
0.322827
0.4855228
0.06157526
0.1550015
0.05085222
0.1643736
0.04154203
0.1060296
0.03412429
0.1078819
0.03497704
0.0802142
0.02881436
0.07755408
0.02802315
0.0607013
0.02184095
0.05788263
0.02455566
0.04832062
0.01920181
0.04608886
0.02088576
0.03828906
0.01641127
0.03630958
0.01824018
0.03039443
0.01438744
0.02864717
0.01585669
0.02388526
0.01247845
0.0225591
0.01375348
0.01846885
0.01075524
0.01752491
0.01191677
0.01398907
0.009160293
0.01339939
0.01034205
0.01030305
0.007763444
0.01001434
0.009015305
0.007258019
0.006587286
0.00720541
0.007928365
0.004738209
0.00561551
0.00485131
0.007021939
0.002626824
0.004789333
0.002880407
0.006244244
0.0008516439
0.004080125
0.001207901
0.005561366
-0.0006566492
0.00346129
-0.0002095911
0.004955694
-0.001945695
0.002919741
-0.00145607
0.004411619
-0.00305225
0.002436034
-0.002550394
0.003929178
-0.003995804
0.002027549
-0.003478997
0.003506164
-0.004794641
0.001686064
-0.004260357
0.003140634
-0.005463848
0.001410715
-0.004910573
0.002806983
-0.006054558
0.001164616
-0.005459653
0.002476015
0.01820559
-0.006003171
0.0009195566
0.007067382
-0.01856768
0.00279773
-0.02504518
-0.002948755
-0.02020991
-0.01965695
-0.02177813
-0.01820239
-0.007063208
-0.02114641
0.001736003
-0.02405183
0.004667465
-0.007468038
0.01960967
0.05920079
0.1313343
0.3482208
0.3295783
0.2310399
0.3719736
0.266188
0.4030457
0.3558544
0.3743103
0.02465792
0.06284989
0.02577451
0.06909349
0.01778744
0.03791555
0.01901505
0.0424716
0.02086652
0.03830485
0.01639834
0.03632025
0.01556471
0.03000075
0.01667279
0.03354283
0.01189279
0.01400739
0.009145359
0.01342119
0.006039757
0.004952522
0.006973423
0.005750229
0.007930168
0.004753624
0.005610948
0.004863226
0.005167025
0.002819457
0.006089988
0.003486762
0.00702043
0.002638501
0.004785883
0.002891625
0.004419462
0.001039369
0.005351747
0.001579742
0.006243409
0.0008621619
0.004077317
0.001216009
0.003764861
-0.0004449832
0.004702801
-3.02246e-05
0.00555529
-0.0006479834
0.003457518
-0.0002017365
0.002688965
-0.002766872
0.003616255
-0.002580694
0.004413749
-0.003032879
0.002437045
-0.002528943
0.002252407
-0.00367271
0.003159075
-0.003599991
0.003925583
-0.003988482
0.002025475
-0.003464639
0.001585965
-0.005025005
0.002426857
-0.005165248
0.003146722
-0.005448979
0.001416017
-0.004886676
0.001342675
-0.005559996
0.002163917
-0.005792264
0.002817246
-0.006047842
0.001173515
-0.005451912
0.001098253
-0.006021958
0.00191488
-0.006384763
0.002488369
-0.03207151
-0.006006806
0.000932367
0.3196411
0.4048213
0.2976763
0.3234221
0.3068767
0.295762
0.3715976
0.4227162
0.4074284
0.3719427
0.3887959
0.447743
0.4303906
0.389194
0.4021939
0.4641219
0.4454795
0.4023753
0.4183499
0.4820733
0.4627361
0.4180849
0.4337589
0.4989309
0.4789082
0.4328814
0.3532924
0.3691085
0.3541023
0.3642813
0.3550628
0.3621341
0.349156
0.3635984
0.3444413
0.3625378
0.3629664
0.3603318
0.3562445
0.3588891
0.3429968
0.343617
0.3582362
0.3712563
0.2507094
0.2336846
0.2368332
0.2597022
0.3677321
0.3658605
0.393127
0.3302603
0.337868
0.4025878
0.419612
0.3523163
0.3599722
0.4322758
0.4335848
0.3665724
0.3745086
0.4480229
0.4502417
0.3840361
0.3921955
0.4655074
0.4672317
0.4013562
0.4097084
0.4828402
0.3519249
0.3663548
0.3481932
0.3433183
0.3445703
0.3549872
0.3610085
0.3615593
0.3630126
0.3532507
0.3627601
0.3667562
0.3560974
0.3641414
0.3521382
0.3697114
0.3215065
0.4057887
0.1541692
0.2345148
0.1654923
0.1794655
0.0657588
0.1713704
0.05675038
0.07474838
0.2260741
0.2965661
0.2655418
0.3134805
0.3714844
0.4225941
0.371814
0.4073137
0.375574
0.3606285
0.2560011
0.4219274
0.2892622
0.4385549
0.3692459
0.4021316
0.3802861
0.3816993
0.2771984
0.446793
0.309725
0.458427
0.3894136
0.4210481
0.3297353
0.4780793
0.4091493
0.4389939
0.4073658
0.4253846
0.3227664
0.4854741
0.02787797
0.06070088
0.02167946
0.05792538
0.003907055
0.01743783
0.002331576
0.0169031
0.00322895
0.01575764
0.01660812
0.001267866
0.0183149
0.03043943
0.01442943
0.02867013
0.01347894
0.02389829
0.01455721
0.02644508
0.01584864
0.02390309
0.01247004
0.02257596
0.01154869
0.01869689
0.01256755
0.02051921
0.01373961
0.01847402
0.01071391
0.01751634
0.009823534
0.01433623
0.01082133
0.01569129
0.0007858563
0.01024849
-0.0005825644
0.009922477
-0.001048982
0.0057504
-0.002088448
0.005646532
-0.001731618
0.004544997
0.005549054
-0.002839334
-0.001678849
0.002836707
0.002950668
-0.002397285
0.02350882
0.1016348
0.1006367
0.03016411
0.1609331
0.221828
0.130789
0.1985793
0.2858915
0.3525373
0.3485575
0.3051192
0.3128243
0.3567647
0.4131678
0.3510964
0.359724
0.424597
0.4317982
0.3686855
0.3764254
0.4458553
0.4463994
0.3838779
0.3914932
0.4618913
0.4629941
0.4002615
0.4082626
0.4791075
0.4783654
0.4153274
0.4237348
0.494769
0.363653
0.3668285
0.353122
0.3647255
0.341152
0.3526129
0.3588717
0.3624403
0.3476504
0.3513948
0.3520292
0.3674965
0.3630379
0.3577214
0.3598596
0.3670015
0.3715961
0.3685457
0.4973252
0.4264736
0.3473834
0.1616349
0.08095845
0.2156089
0.05958109
0.1549273
0.1642916
0.06166678
0.0509269
0.120053
0.1373125
0.04093534
0.04167101
0.1061911
0.1078082
0.04157996
0.03400483
0.08651577
0.09345839
0.03226421
0.03512327
0.08030119
0.02864516
0.07769142
0.03480504
0.04769943
0.0221761
0.05399583
0.02083487
0.04829872
0.01907849
0.04608512
0.02444312
0.01061428
0.009321737
0.01172991
0.008343653
0.007526858
0.008449923
0.007077116
0.008055212
-0.001710319
0.004118268
-0.001407438
0.003182503
-0.004437856
0.00274567
-0.004465805
0.001867779
-0.004769015
0.001669155
-0.004244512
0.003505642
0.1874888
0.1593366
0.1529742
0.1784751
0.3611844
0.3696779
0.3510143
0.3921488
0.3775731
0.3493005
0.3788907
0.4359474
0.4193676
0.3771436
0.3912722
0.4534552
0.4357327
0.3886613
0.4055047
0.4698864
0.4512308
0.4026344
0.4211121
0.4869107
0.4678775
0.4178117
0.3542071
0.3677532
0.3581568
0.3634552
0.3594966
0.3627872
0.3539301
0.3597259
0.360888
0.3600594
0.3634
0.365632
0.3538053
0.3434379
0.3584544
0.359835
0.2899712
0.3523265
0.02490477
0.101526
0.03102022
0.1002202
0.1606035
0.22205
0.1981007
0.1309895
0.4130758
0.3510024
0.4244704
0.359632
0.003841719
0.01627961
0.01580982
0.002517177
0.001094318
0.01026111
-0.0002666435
0.01094046
-0.0007782084
0.00624714
0.005894063
-0.001529034
-0.0008800071
0.005387337
-0.002049747
0.006292391
0.003293793
0.03234322
0.003320486
0.01708376
0.01684424
0.03225375
0.01776315
0.001664508
-0.03044528
0.001677689
-0.002160272
0.001686606
0.002779794
-0.002974103
0.02482953
0.07992232
0.0276217
0.07625078
0.01347195
0.04695236
0.01345349
0.04664711
0.01001665
0.03518472
0.00927898
0.03564348
0.007357724
0.02739638
0.005912293
0.02800557
0.005571035
0.02220449
0.003789345
0.02299975
0.004275314
0.01850198
0.002354264
0.01936262
0.003232195
0.01575778
0.001266653
0.01661037
0.002265044
0.01362538
0.0004107469
0.01447089
0.001386242
0.01180842
-0.0003443497
0.01270663
0.0006342464
0.01027111
-0.0009590396
0.01120249
7.811406e-06
0.008932063
-0.001465418
0.009839511
-0.0004996647
0.007780375
-0.001870974
0.00868663
-0.0009218965
0.006794631
-0.002200163
0.007707205
-0.001264401
0.005934334
-0.002472576
0.006877732
-0.001533859
0.005186806
-0.002687182
0.006162898
-0.001730191
0.004545144
-0.002837249
0.005549602
-0.001874922
0.003986281
-0.002935295
0.005021642
-0.001980088
0.003505688
-0.002994494
0.004559531
-0.002054285
0.003088856
-0.003028709
0.004155763
-0.002104893
0.002725272
-0.003044646
0.003804431
-0.002131152
0.002413352
-0.003043633
0.00350605
-0.002145509
0.002141116
-0.003029914
0.003239464
-0.002156253
0.001897655
-0.003011251
0.002996581
0.0314634
0.09775728
0.03661695
0.07503745
0.01620377
0.05219811
0.01556796
0.04949541
0.01126279
0.03796156
0.01040854
0.03687962
0.008402804
0.03011535
0.007280371
0.02922012
0.006383162
0.02437357
0.004899714
0.02367822
0.005062792
0.02045345
0.003475071
0.01984896
0.00390864
0.01743661
0.00233021
0.01690262
0.003007523
0.0151393
0.001437457
0.01474942
0.002181148
0.01324319
0.0006374735
0.01290598
0.001432961
0.01164013
-2.599893e-05
0.01130583
0.0007879439
0.01024616
-0.0005828589
0.009920997
0.0002588628
0.009049546
-0.001039414
0.008755215
-0.0001701411
0.008030496
-0.001404848
0.007779739
-0.000525493
0.007154072
-0.001699835
0.00695711
-0.0008135093
0.006401481
-0.001922774
0.006257167
-0.001047645
0.005750357
-0.002087269
0.005647596
-0.001232399
0.005189862
-0.002205409
0.005121