/*--------------------------------*- C++ -*----------------------------------*\
  =========                 |
  \\      /  F ield         | OpenFOAM: The Open Source CFD Toolbox
   \\    /   O peration     | Website:  https://openfoam.org
    \\  /    A nd           | Version:  7
     \\/     M anipulation  |
\*---------------------------------------------------------------------------*/
FoamFile
{
    version     2.0;
    format      ascii;
    class       volScalarField;
    location    "0.02";
    object      p;
}
// * * * * * * * * * * * * * * * * * * * * * * * * * * * * * * * * * * * * * //

dimensions      [0 2 -2 0 0 0 0];

internalField   nonuniform List<scalar> 
76598
(
0.02380316
0.03775171
0.03820671
0.03658109
0.03166378
0.02355431
0.01792733
0.01340988
0.006960258
0.009485039
0.01219958
0.01428547
0.01232979
0.008429701
0.01082291
0.007485565
-0.0009651454
0.01663268
0.01252124
0.01606788
0.01489647
0.01045885
0.009327667
0.006045992
0.001753372
0.0180534
0.006982004
0.02199535
-0.01285544
-0.01735633
0.009002707
0.004873861
0.002422391
0.01756871
0.007913348
0.005267504
0.01784962
0.00313714
-0.008272531
-0.0007594045
-0.004066976
0.03567767
-0.01216453
0.005220717
-0.02860819
-0.02299543
-0.006552671
-0.0009917858
-0.006551477
0.03181137
-0.01859359
0.03150592
-0.02673826
-0.003543327
0.02285508
-0.006440623
0.02661798
-0.09549614
0.01262573
0.007350938
0.03699201
-0.004388243
0.01766317
-0.0002441252
0.01499118
0.002232192
0.01698467
0.0177288
0.05114589
0.003936426
0.01822413
0.01757183
0.02443949
0.003286314
0.04717666
0.04605793
0.05660282
0.00129438
0.01160159
0.01684843
0.02118007
0.02041732
0.02865989
0.02960847
0.0518753
0.009696275
0.01622225
0.02944987
0.02812668
0.0336682
0.04651102
0.05007627
0.05976147
0.004725631
0.0122098
0.03113224
0.0259456
0.03621946
0.03991132
0.04528255
0.05549456
0.007083832
0.01363267
0.03836371
0.0326464
0.0437771
0.04701673
0.05332541
0.05981473
0.005802456
0.01231085
0.04159271
0.03324254
0.04575814
0.04716336
0.05413705
0.05961782
0.005768698
0.01219351
0.04511754
0.0363078
0.04963627
0.05055263
0.05690709
0.06119082
0.005638114
0.01228677
0.04757804
0.03828775
0.0522014
0.05229834
0.05831294
0.06180717
0.005817378
0.01284469
0.04960031
0.0402304
0.05447551
0.0541089
0.05962512
0.06235277
0.006203708
0.01374593
0.05137684
0.04200266
0.05637064
0.05545375
0.06054673
0.06256255
0.00682168
0.01506015
0.05313579
0.04378887
0.05811511
0.05650189
0.06124195
0.06254668
0.007773553
0.01690874
0.05508029
0.04572229
0.05995729
0.05741589
0.06189001
0.06240379
0.009200536
0.01949902
0.05731839
0.04789992
0.06194754
0.05833677
0.06261422
0.06205665
0.01119398
0.02288245
0.06018665
0.05052289
0.06442721
0.0598759
0.0636093
0.06162542
0.01389048
0.02743373
0.06363814
0.05321191
0.06752031
0.06201197
0.06499563
0.06127734
0.03065048
0.02573
0.004830476
0.02028983
0.01105021
0.01236046
0.01107481
0.008501457
0.004340486
0.0119632
0.008686855
0.01150384
0.01470103
0.01148333
0.01115407
0.0109599
0.007460384
0.008657803
0.01183673
0.01815696
0.01115609
0.01892951
0.01590387
0.01133047
0.01071251
0.00615597
0.01271321
0.0159343
0.0138183
0.007990091
0.01984501
-0.00811667
0.01222397
0.01046541
0.005550034
0.01597107
0.01781695
0.01885396
0.006909974
0.01458453
0.01304746
-0.01440902
-0.003877565
-0.001111695
0.01913078
0.02213412
0.02910097
0.002374531
0.008592277
-0.0245351
-0.002173267
0.003529562
-0.002442136
0.02192944
0.02249231
0.02780428
-0.009621793
0.03286098
0.01673343
0.1249074
0.1497507
0.02447978
0.02333417
0.02008946
-0.002801743
0.02503025
-0.08535075
0.00423722
-0.004845479
0.03734221
0.02758684
0.02606288
0.01444243
0.004794387
0.01570334
0.00353562
0.0242008
0.01588152
0.04482547
0.03014955
0.0295686
0.01560619
0.01842102
0.02422914
0.004365678
0.0420427
0.04048744
0.05425271
0.03253961
0.0342247
0.01124554
0.01893944
0.02102906
0.02035144
0.02868758
0.02808122
0.05002224
0.03432572
0.03558611
0.01497701
0.03132419
0.02897532
0.03326024
0.04564697
0.04928433
0.05904354
0.0356586
0.03939958
0.01407757
0.03329095
0.02694728
0.03551272
0.03979006
0.04462095
0.05534365
0.0368839
0.04133607
0.01574894
0.03932829
0.03286394
0.04291319
0.04678698
0.05281516
0.05958235
0.03810304
0.043786
0.01638048
0.04217649
0.03336188
0.04494436
0.04697457
0.05354944
0.05944064
0.03934671
0.04544096
0.01749584
0.04525329
0.03596695
0.04851256
0.05023168
0.05637331
0.06097816
0.04066834
0.04686817
0.01844914
0.04749424
0.03755186
0.05089543
0.0520049
0.05778287
0.06158187
0.04211472
0.0482942
0.01948642
0.0495108
0.03928393
0.05305698
0.05374563
0.05907548
0.06210357
0.04376488
0.04975454
0.02045292
0.05142172
0.04101182
0.05485978
0.0550178
0.06001557
0.06230011
0.04567309
0.05143631
0.0214877
0.05344728
0.04282091
0.05661058
0.05609569
0.06067171
0.0622676
0.04788997
0.0534364
0.02275089
0.05576159
0.04481227
0.05853727
0.0570776
0.06125884
0.06208809
0.0504744
0.05584593
0.02439778
0.05844085
0.04710808
0.06058594
0.05796566
0.06195045
0.0617611
0.05350219
0.05879541
0.02661611
0.06183113
0.04985497
0.06320432
0.05956209
0.06302049
0.06140674
-0.01481725
0.06231952
0.02960533
0.06580787
0.0527134
0.06632212
0.06166093
0.06443821
0.0610937
0.02962698
0.02335708
0.002784069
0.018585
0.01079491
0.01187128
0.01035449
0.008364613
0.005874281
0.01604744
0.00499397
0.01348872
0.01491694
0.01087356
0.01046341
0.01085936
0.007254143
0.002090255
0.003296613
0.01963688
0.01044474
0.01816256
0.01359932
0.009598693
0.007642766
0.006380715
0.003523699
0.01062089
0.01493997
0.00773936
0.0219269
-0.004197977
0.010043
0.009538911
0.004844588
0.006257271
0.004426694
0.01950439
0.005507311
0.01062035
0.01848388
-0.01049606
-0.00508324
0.0007841186
0.007668588
0.00571549
0.03404947
-0.005279397
0.01590494
-0.02055564
0.002646208
0.007950611
8.701261e-05
0.009124017
0.004710062
0.0324493
-0.01598311
0.03452943
0.02194706
0.08432474
0.1611862
0.009343997
0.006893747
0.0232463
-0.004486704
0.02825371
-0.07991121
0.003050044
-0.01391992
0.0216548
0.009447445
0.005817092
0.01854508
1.280929e-05
0.01866146
-0.002100276
0.02978881
0.007565439
0.08320814
0.009656105
0.01298662
0.01709596
0.01658038
0.02764786
0.002867723
0.04189325
0.04436901
0.05538834
0.009406544
0.01295584
0.01278814
0.01730014
0.02352501
0.01742928
0.02837984
0.0235173
0.05904209
0.01015849
0.01728906
0.01481791
0.02885104
0.03125717
0.03301852
0.04670078
0.05004122
0.06018763
0.01038467
0.01630106
0.0133153
0.03221914
0.02926491
0.03500423
0.04101714
0.04460635
0.05711821
0.01119902
0.01855859
0.01442722
0.03744691
0.03519514
0.04312694
0.0479165
0.05315262
0.06018554
0.01176987
0.01868668
0.01446821
0.040883
0.03661012
0.04533354
0.04809117
0.05389905
0.06006677
0.01248816
0.01965287
0.01509531
0.04393065
0.03960864
0.04889192
0.05101792
0.05668297
0.06142153
0.01319145
0.01999093
0.01566095
0.04629829
0.04152356
0.05114785
0.05271468
0.05806031
0.06199408
0.01394378
0.02067526
0.01643647
0.04843836
0.04347866
0.05329925
0.05446213
0.05933183
0.06248981
0.01478025
0.02132844
0.0173498
0.05043708
0.04529336
0.05518863
0.05584651
0.06024836
0.06268791
0.01578425
0.02225683
0.01853789
0.05250744
0.04719966
0.05698547
0.05698224
0.06095941
0.0626584
0.01700715
0.02350283
0.02011557
0.05484174
0.0493095
0.05894547
0.0581093
0.0616449
0.06248594
0.01850316
0.02511237
0.02226842
0.05743496
0.0515341
0.06100439
0.05918644
0.06233585
0.0621336
0.02033208
0.02726589
0.02518161
0.06075258
0.05425448
0.06369314
0.06104389
0.06345221
0.06184723
0.02255409
0.02983169
0.02899692
0.06466958
0.05704254
0.06688924
0.0632473
0.06479124
0.06144923
0.03009868
0.02873079
-0.005589715
0.0213144
0.01509838
0.01390155
0.01244475
0.009093308
0.007622878
0.0183546
0.002315684
0.01561967
0.01529304
0.01281142
0.01276744
0.01253372
0.007504022
-0.0002900379
0.004719384
0.02133883
0.01183852
0.02119913
0.01676064
0.01257857
0.01189128
0.007231637
0.0004007246
0.01671772
0.01886755
0.009801113
0.02297301
-0.001649951
0.0152313
0.01431208
0.004931773
0.003595892
0.008929256
0.0207113
0.005443322
0.01457581
0.02203686
-0.01536641
-0.006428256
0.0002515332
0.004168666
0.01096708
0.03092026
0.0002529872
0.0193737
-0.01803773
0.004498728
0.009498525
0.0003414934
0.004635029
0.008307472
0.0285464
-0.01451056
0.03532954
0.02127645
0.07364304
0.1542959
0.003156361
0.01359351
0.02149963
-0.004772753
0.02729464
-0.07675684
-0.005490895
-0.01376993
0.02612111
0.002500161
0.01248722
0.01688787
-0.0004259937
0.01681699
-0.004750229
0.03325607
0.003644133
0.08877411
0.0008322533
0.02248259
0.01956069
0.01704477
0.02841923
0.004715873
0.04043676
0.04398969
0.05312922
0.00166996
0.02333268
0.01364756
0.01661731
0.02188681
0.01505992
0.02551686
0.02073734
0.06124472
0.0004249973
0.02861085
0.01884238
0.02806795
0.03051458
0.03192246
0.0457733
0.04920626
0.05959382
0.0006202875
0.02972273
0.01670937
0.02956807
0.02846219
0.03345436
0.04000736
0.04345515
0.0572648
-0.0002791591
0.03314266
0.02014529
0.03532138
0.0339246
0.04135621
0.0470748
0.05221629
0.05980076
-0.0003823771
0.03436886
0.02092604
0.03760466
0.03457965
0.04361671
0.04719746
0.05294313
0.05970255
-0.0002580055
0.0354057
0.02261189
0.0405981
0.03715554
0.04682223
0.04987479
0.05565977
0.06094812
0.0001178003
0.03589088
0.02341559
0.04223555
0.03853044
0.04898896
0.05140822
0.05699008
0.06148112
0.0001472758
0.03712274
0.02467419
0.04417614
0.04023464
0.05098789
0.05301156
0.05821665
0.06193759
0.0003516793
0.038166
0.02581155
0.04585134
0.0418339
0.05277909
0.05429872
0.05911143
0.06211799
0.000604741
0.03946703
0.02707002
0.04773659
0.04358577
0.05441372
0.05538576
0.05981973
0.06208077
0.0009365857
0.04110419
0.028648
0.04997754
0.04561019
0.05618473
0.05656812
0.0605616
0.06194376
0.001423925
0.04300538
0.03037175
0.05232072
0.0475841
0.05806827
0.05779351
0.06126974
0.06161889
0.001929837
0.04561709
0.03304511
0.05553572
0.05048117
0.06082566
0.05992139
0.06266508
0.06154272
0.002774407
0.04822776
0.03556185
0.0589793
0.05331783
0.06382868
0.06206399
0.0641735
0.06124219
0.03007453
0.03622816
-0.00271529
0.02210419
0.01266322
0.0127632
0.01160679
0.008756611
0.008432004
0.02005992
-0.00353319
0.01426803
0.01502747
0.01154874
0.01215335
0.01242489
0.007423438
-0.0005069505
0.003120159
0.020784
0.01036099
0.02053356
0.01402159
0.01265845
0.01077982
0.007119004
0.0009858304
0.01505533
0.01751498
0.008643967
0.02308547
-0.001112649
0.01589075
0.01520789
0.004845101
0.004156161
0.005283422
0.02204415
0.004220313
0.01343575
0.02347233
-0.0154807
-0.007708311
0.0002870151
0.004032968
0.007320088
0.03490685
-0.002550771
0.02059097
-0.01682279
0.005011497
0.01103648
-0.0004508874
0.005199172
0.006505588
0.03352021
-0.01671974
0.03592596
0.02180409
0.07613607
0.191644
0.003724422
0.009034031
0.02344951
-0.005663826
0.02826393
-0.07445508
-0.01224472
-0.02124374
0.00719451
0.003862625
0.005999181
0.01933711
-0.002292739
0.0164116
-0.007704817
0.02512569
-0.01177495
0.1045815
0.00296923
0.01550562
0.01928845
0.0159761
0.0301785
0.007453952
0.0410775
0.0501165
0.05866717
0.002711558
0.01573906
0.0141368
0.01566325
0.0242183
0.01467265
0.02387162
0.0174121
0.06729957
0.003141057
0.02012856
0.01766589
0.02752227
0.03248623
0.03287544
0.04645071
0.04940585
0.06066804
0.002483007
0.01933278
0.01607475
0.02917276
0.03037137
0.03344881
0.04063218
0.04367127
0.05851514
0.002562702
0.01790972
0.01763122
0.03401263
0.03589218
0.04175855
0.0479309
0.05263041
0.06033844
0.002423743
0.01799372
0.01789449
0.03681337
0.03701612
0.04383054
0.04808579
0.05335138
0.06017712
0.002913911
0.02218514
0.01867054
0.04046536
0.04041796
0.04744854
0.05080526
0.05606976
0.06132641
0.0035313
0.02342961
0.01971009
0.04255927
0.04232955
0.0495223
0.05225493
0.05736353
0.06182445
0.003812411
0.0244091
0.0206616
0.04464464
0.04439248
0.05153996
0.0538
0.05856725
0.06224872
0.004074694
0.02520655
0.02180832
0.04634787
0.0461058
0.05325399
0.05511828
0.05945745
0.06241348
0.004366985
0.02617989
0.02312822
0.04812509
0.04774095
0.05487469
0.05629354
0.060139
0.06232949
0.004801358
0.02758982
0.02480042
0.05029809
0.04985096
0.05689177
0.05770906
0.06092077
0.06218197
0.005327699
0.02928286
0.02695971
0.05248861
0.0517214
0.05870937
0.05876979
0.06146064
0.06168112
0.006016003
0.03220005
0.0301886
0.05548744
0.05464312
0.06154749
0.06099518
0.06279441
0.06154549
0.006794491
0.03456757
0.03358223
0.05936345
0.05767372
0.06466585
0.06300876
0.06392113
0.06087903
0.03070176
0.03131808
-0.003994335
0.02176763
0.01504887
0.01453933
0.01256926
0.009205708
0.007657859
0.01937694
-0.0002412294
0.01597219
0.01545007
0.0128952
0.01297835
0.01268619
0.007471746
-0.0003668847
0.00334472
0.02267452
0.01192126
0.02168386
0.01624128
0.01358222
0.01190605
0.007480856
0.001432338
0.01485253
0.01780544
0.00921357
0.02345411
-0.0008463884
0.01596311
0.01538071
0.004527705
0.003836334
0.005323919
0.022183
0.004450142
0.01327957
0.02356697
-0.01543671
-0.007824031
0.0002606252
0.003673143
0.007574128
0.03402088
-0.002307874
0.02084398
-0.01679534
0.005473151
0.01043528
-0.0009061123
0.004284111
0.006901037
0.03232246
-0.01687653
0.03581314
0.02155404
0.06592836
0.2004994
0.003083646
0.009457586
0.02293277
-0.005617352
0.02830312
-0.07418874
-0.01221926
-0.02171139
0.005087722
0.001617271
0.01082748
0.01832701
-0.002083832
0.01624518
-0.007808979
0.02476386
-0.01224209
0.1048511
0.002073009
0.01506438
0.01854347
0.01597427
0.03021046
0.007583216
0.04114505
0.05027876
0.05907399
0.001887191
0.0164043
0.01410012
0.01585677
0.02414298
0.01462681
0.02364351
0.0170952
0.06759969
0.001882124
0.02135591
0.0172784
0.02772246
0.03253078
0.03295022
0.04642055
0.04936137
0.06070911
0.001036062
0.0201546
0.01623654
0.02939081
0.03040006
0.03348862
0.04059224
0.0436478
0.05851343
-0.003573256
0.03058899
0.02099825
0.03542098
0.03627091
0.04193936
0.04796741
0.05263828
0.06033873
-0.004158573
0.03178304
0.02185712
0.0376845
0.03745731
0.04402174
0.04814403
0.05337239
0.06018402
0.001922478
0.02348554
0.01786696
0.04088537
0.04066176
0.0474991
0.05081031
0.05607942
0.0613282
0.00276396
0.02380775
0.01866772
0.04213213
0.0422393
0.0493777
0.05219836
0.05734948
0.06182426
0.003531865
0.02410798
0.01952122
0.04388663
0.04406957
0.05128103
0.05368074
0.05854179
0.06224427
0.00392335
0.0244096
0.02088003
0.04503625
0.04553803
0.05287958
0.05497202
0.05946123
0.062436
0.00415629
0.02522896
0.02200427
0.04662796
0.0469654
0.05433528
0.05606057
0.06015681
0.06235288
0.004571185
0.0264401
0.02363674
0.04822327
0.04882201
0.05636141
0.05761857
0.0611806
0.0623421
0.005025157
0.0277425
0.02530793
0.04952465
0.05000462
0.05761956
0.05833073
0.06178352
0.06177813
0.005670411
0.03068902
0.02917965
0.05231146
0.05347841
0.06131344
0.06126273
0.06412054
0.06203386
0.006304369
0.03243088
0.03207433
0.05408876
0.0545697
0.06317689
0.06226671
0.06555325
0.06107669
0.02940757
0.02248859
0.003507408
0.01891357
0.01095455
0.01182654
0.01102477
0.008712823
0.007504521
0.0184555
0.005433834
0.01372001
0.01412
0.01084813
0.01115975
0.01159063
0.007368999
-0.0006094888
0.006396957
0.01891111
0.01005805
0.01963208
0.01542694
0.01173388
0.01056707
0.006840353
0.0003151915
0.01767038
0.01660183
0.009121586
0.02207076
-0.002577824
0.01487145
0.01349885
0.004714322
0.003997362
0.01147789
0.01931882
0.005583907
0.0141977
0.02243726
-0.0157719
-0.006957138
3.795831e-05
0.003591469
0.01538016
0.02973763
0.001214879
0.02062037
-0.01698421
0.005094589
0.007415902
0.0003593146
0.004552003
0.01167449
0.02763792
-0.01430167
0.03483518
0.02153122
0.06291147
0.151426
-0.0009804541
0.02083625
0.02230895
-0.003904702
0.02722869
-0.07571889
-0.005896851
-0.01308397
0.02710907
0.004079981
0.005764534
0.01723105
-0.0009438561
0.0163544
-0.005536549
0.03232807
0.002372117
0.08926282
-0.001927193
0.02900905
0.01912478
0.02097144
0.02888878
0.005715459
0.04055722
0.04432231
0.05340847
5.512398e-05
0.02720622
0.01337056
0.01916074
0.02213846
0.01541632
0.02518244
0.02031313
0.06161134
-0.0009146599
0.03135668
0.01683101
0.02953627
0.03056663
0.03257304
0.04590891
0.04933004
0.05977296
-0.002215127
0.03278168
0.01689364
0.0312597
0.02833489
0.03409563
0.04006314
0.04358925
0.0573999
0.001466821
0.02037014
0.0173016
0.03286921
0.03342245
0.04130925
0.04721443
0.05237518
0.05994567
0.0009782184
0.02004792
0.01733129
0.03418686
0.03412524
0.04369104
0.04735984
0.05311616
0.05984574
-0.001217194
0.03672621
0.02065809
0.04033288
0.03667424
0.0471012
0.05004442
0.05587276
0.06108487
-0.0003913223
0.03741983
0.02181489
0.04134649
0.03824243
0.04905644
0.05152481
0.05715376
0.06159265
-0.0001327551
0.03849842
0.02312873
0.04398412
0.04032877
0.05105891
0.05312015
0.05835473
0.06200989
0.0004595565
0.03872858
0.02438537
0.04544125
0.04213395
0.05279209
0.05447582
0.05927453
0.06217868
0.0004559549
0.03939651
0.02553468
0.04706988
0.04367582
0.05435274
0.05544044
0.05984777
0.0619746
0.001595588
0.04050072
0.02656141
0.04928547
0.04638688
0.0561799
0.05679057
0.06075082
0.06191104
0.002997397
0.04152977
0.02639682
0.05068541
0.04815552
0.05769629
0.05732242
0.06101605
0.06100582
0.00184695
0.04624202
0.03184935
0.05432553
0.05165873
0.0604934
0.06020835
0.06270693
0.06114132
0.002997838
0.04725049
0.03224435
0.05883695
0.05576016
0.06438545
0.06169045
0.06376821
0.05996286
0.03086776
0.02695862
0.006602906
0.02173593
0.01467305
0.01487091
0.01230682
0.009321923
0.006336839
0.01535612
0.006884506
0.01353563
0.01525608
0.01248589
0.01080525
0.01105484
0.007198818
0.002117029
0.00478697
0.01821074
0.01237029
0.01964215
0.0165461
0.01046718
0.009411028
0.006768819
0.002418664
0.01129994
0.01390451
0.008174498
0.0218151
-0.005606673
0.009034177
0.008108305
0.003664224
0.004211576
0.007192123
0.01730219
0.006149102
0.01050268
0.02315471
-0.01036704
-0.003102242
0.0004150597
0.005026171
0.009834872
0.02910535
-0.005051605
0.0208155
-0.01666097
0.004155595
0.0058995
-7.874986e-05
0.004399333
0.01020684
0.02624582
-0.01560051
0.0360265
0.02071088
0.06152573
0.1561556
0.00296464
0.01109468
0.01989604
-0.001796766
0.02839167
-0.077707
0.003425344
-0.01204758
0.02329154
-0.00845681
0.02113419
0.01661342
0.003412146
0.01733714
-0.003087206
0.02708927
0.005604091
0.08358582
0.0033495
0.02033316
0.01386295
0.01954483
0.0284937
0.004391609
0.0425363
0.04549298
0.05593178
0.0002526034
0.02029451
0.01034791
0.02106759
0.02389453
0.01785632
0.02803438
0.02303083
0.05953096
-0.001499178
0.02578422
0.01099587
0.0323883
0.03198678
0.03423252
0.04708597
0.05026737
0.06036576
0.002220024
0.02308541
0.00963943
0.0360612
0.02960998
0.03608771
0.04121967
0.04480724
0.05730199
-0.02376253
0.04172166
0.01083325
0.0425455
0.03621963
0.04457389
0.04844571
0.05353613
0.0603958
-0.02477645
0.04288531
0.009206013
0.04579056
0.03936942
0.04691132
0.04878753
0.05435119
0.06030304
0.006399037
0.02357439
0.009078015
0.04632017
0.04076308
0.04977514
0.05157775
0.05706655
0.06163328
0.002082312
0.02543258
0.01112491
0.045652
0.04204422
0.05134002
0.05298445
0.0583301
0.06216078
0.003861316
0.02473589
0.01376636
0.04722183
0.04294074
0.05308759
0.05449081
0.05951672
0.06259239
0.007166872
0.02436232
0.01538431
0.04831223
0.04441492
0.05473494
0.05581887
0.06053169
0.06281356
0.006378189
0.02270893
0.01568174
0.05111416
0.04633131
0.05590335
0.05629035
0.06110463
0.0625646
0.009314269
0.02505138
0.01779077
0.05207168
0.04834376
0.05855557
0.05858824
0.06257579
0.06277631
0.01098022
0.02454963
0.01955294
0.05159785
0.0478938
0.05811362
0.05724571
0.06231513
0.06127362
0.009751577
0.0285191
0.02535356
0.05367259
0.052668
0.06382798
0.06191688
0.06707747
0.06209622
0.01411049
0.02812304
0.02773426
0.05123488
0.04958778
0.06322531
0.05936098
0.066959
0.05853229
0.03715404
0.03896166
0.03249691
0.03539674
0.02664301
0.01928185
0.01499307
0.01094646
0.00340626
0.01336174
0.008007878
0.008835628
0.01074995
0.009479576
0.008872554
0.009293804
0.006747651
0.004727341
0.01377031
0.01180321
0.01441208
0.01797891
0.01707866
0.01167827
0.009724869
0.006458848
0.01002408
0.01920441
0.01087015
0.007863162
0.01854427
-0.009609898
0.01080265
0.00861334
0.004559463
0.01625262
0.0208629
0.01307446
0.00793132
0.01373314
0.01985468
-0.01472061
-0.004620257
-0.001107767
0.01844307
0.02739211
0.02555429
0.004549597
0.02107438
-0.01758919
0.001318509
0.007814865
0.002527033
0.0206137
0.02302362
0.01844116
-0.006718529
0.03393847
0.01996517
0.1020916
0.1023316
0.03029737
0.03989485
0.01445286
-0.000691773
0.02307951
-0.08195751
0.001443708
-0.005177169
0.03560076
0.0004168069
0.01247757
0.01231458
-0.000276729
0.0153246
0.001271132
0.02082011
0.01314307
0.04364589
0.0302435
0.04592913
0.009437471
0.03137179
0.02825482
0.007810931
0.0404197
0.04013737
0.05444045
0.02105386
0.04250997
0.007689418
0.02863911
0.02123178
0.01999683
0.02708557
0.02718926
0.04979961
0.02634999
0.04663832
0.006794172
0.03616408
0.02871631
0.03463575
0.04565753
0.04962839
0.05926049
0.03846358
0.05033638
0.0108249
0.03985867
0.0259729
0.0364239
0.03953171
0.04474629
0.05539738
0.02399558
0.03179738
0.01474679
0.03749619
0.03239246
0.04288116
0.04706256
0.05307905
0.05979586
0.0136731
0.0349351
0.01450777
0.03782517
0.03288004
0.04516048
0.04716828
0.0538481
0.05966573
0.03837836
0.05375921
0.009432938
0.04760273
0.03413916
0.04914678
0.0506784
0.05678502
0.06122773
0.01995974
0.04753858
0.008645648
0.04631042
0.03591189
0.05070525
0.0520994
0.05808646
0.06178422
0.02835042
0.04787322
0.01472643
0.04978433
0.03777934
0.05290277
0.05373935
0.05931413
0.0622377
0.02032334
0.04688611
0.01633754
0.04979952
0.03971349
0.05433242
0.05489091
0.06034287
0.06245033
0.02506319
0.04648711
0.01865345
0.05186532
0.04092555
0.05545283
0.05514438
0.06097516
0.06212017
0.02033827
0.0497872
0.0176533
0.05364555
0.04489236
0.05821353
0.05710585
0.06201106
0.06223005
0.02139869
0.05146823
0.01703779
0.05385038
0.04530134
0.05887264
0.05604652
0.06189831
0.06052357
0.02179405
0.05627895
0.02570067
0.0582477
0.05145966
0.06292609
0.06060836
0.06460366
0.06114774
0.01788361
0.05295318
0.02212267
0.06072212
0.05492501
0.06600314
0.05997539
0.0651576
0.05837675
0.01736851
0.02285066
0.02642506
0.03268891
0.02651361
0.01982413
0.01470873
0.0113629
0.002125398
0.004519962
0.01179235
0.0128225
0.01378035
0.0125865
0.00763011
0.01015651
0.006692266
0.002859721
0.003175533
0.01326686
0.01416462
0.01622661
0.01602713
0.0118612
0.01110601
0.005680006
0.005590831
0.005970511
0.01747279
0.009511089
0.0221345
-0.01413567
-0.01569387
-0.0009330961
0.001142478
0.009955139
0.009420945
0.01518628
0.01073947
0.006114393
0.02006538
0.00952804
0.007183047
-0.0008980145
0.01602535
0.01774702
0.02904626
-0.01275574
0.01758072
-0.02058378
-0.007436411
0.001818086
0.001571974
0.008658952
0.01004249
0.02619318
-0.01868484
0.0343879
0.01592593
0.01474466
0.01731249
0.01323877
-0.0006472891
0.02468026
-0.09320968
0.01485386
0.0266252
0.0429539
0.03947624
0.02312797
0.005953836
0.001793654
0.01213937
0.0001323368
0.009154197
0.01214459
0.04913949
0.02897109
0.02290027
0.005894798
0.02951407
0.02743299
0.007300811
0.04735628
0.0490104
0.05797924
0.01104225
0.01816077
0.007568894
0.02996111
0.0204055
0.01989034
0.02742501
0.02878175
0.05195165
0.009908538
0.02595295
0.008899473
0.03732944
0.02810737
0.03566698
0.04690105
0.05054529
0.06006564
0.02173651
0.02854834
-0.003597948
0.04296086
0.02554008
0.03710395
0.0399215
0.04552732
0.05568312
0.05260433
0.05072656
-5.908156e-05
0.04902593
0.03296993
0.04607196
0.04804193
0.05399097
0.0601272
0.06959886
0.04949402
-0.01407957
0.05227871
0.03590432
0.04807093
0.04828199
0.05503669
0.05999269
0.0454898
0.03449761
-0.0001172915
0.05022586
0.03637991
0.05135107
0.05201915
0.05763949
0.06157554
0.01768491
0.01737532
0.01023498
0.0453913
0.03585626
0.05240453
0.05293467
0.05903217
0.06213078
0.02893234
0.03088489
0.01162747
0.05245219
0.04065017
0.05488872
0.0547611
0.06007631
0.06258186
0.01945738
0.003074103
0.01517215
0.04777337
0.03839044
0.05642356
0.05602264
0.06118
0.06282736
0.02889798
0.01731087
0.01290737
0.05582116
0.04394159
0.05656245
0.05512209
0.06185827
0.06243695
0.01441761
0.004646238
0.01523584
0.05237976
0.04394622
0.05986182
0.05842178
0.06362072
0.0629563
0.01365833
0.006435439
0.01966645
0.04650251
0.04127469
0.05873054
0.0547838
0.06279766
0.06020561
0.02778703
0.03463907
0.02595671
0.052638
0.05139644
0.06552237
0.06146464
0.070121
0.06158589
0.01763262
0.007597971
0.02885454
0.04605698
0.04416802
0.06504361
0.05437179
0.06729013
0.05564426
-0.005942128
0.003300403
-0.02354694
0.001372208
-8.426068e-05
-0.01932391
0.01387606
-0.008141721
0.03212996
-0.005645511
0.01141352
-0.00593743
-0.01554305
0.03195103
0.0006016582
0.02872384
-0.01552698
0.02154768
-0.002297836
-0.01050915
0.03188667
-0.002499888
0.02741973
-0.01052439
0.01873208
0.001908455
-0.002692425
0.02780498
0.006270352
0.0314408
-0.002629008
0.02301137
0.01032092
0.001020751
0.02364433
0.003711109
0.02589476
0.003008752
0.02209479
0.01080126
0.003828694
0.01745334
0.005411143
0.02021585
0.00568102
0.01805507
0.01035287
0.005277042
0.01435724
0.006178823
0.01616114
0.007627719
0.01324448
0.008598656
0.005337489
0.01025014
0.005815272
0.0126609
0.00676328
0.009866998
0.007112501
0.008165308
0.01099092
0.001918941
0.00616009
0.002869011
0.006216498
0.01452744
0.009909799
0.003602533
0.01286815
0.002868027
0.008169524
0.01846105
0.00866237
0.004347936
0.01609332
0.003246002
0.008971949
0.02206834
0.009111564
0.005237374
0.01908083
0.003950197
0.01012142
0.02611754
0.009261479
0.006336668
0.02279118
0.004657485
0.0114816
-0.02314655
-0.06869612
-0.02100424
-0.003123624
-0.04107547
-0.0188267
-0.006603313
-0.02469962
-0.005204022
0.001613892
-0.002119361
0.0017003
0.00167651
0.003121931
0.02779991
0.01059236
0.006910889
0.02386538
0.005365245
0.01262017
-0.01086377
-0.1217695
0.01415336
-0.01286838
-0.1265818
0.01345803
0.003818447
0.01573608
-0.03258556
0.1009685
-0.05697582
0.06128677
-0.05148347
0.1387745
-0.06461454
0.1081042
-0.0376584
0.02777328
0.01336912
0.007242108
0.02255061
0.006041255
0.01487776
0.02784557
0.01608317
0.007448976
0.02235979
0.006593847
0.01780151
0.02829973
0.02300371
0.00769288
0.02151399
0.00713187
0.0205898
0.02961663
0.02575409
0.007701556
0.02229836
0.007708833
0.02283946
0.03068296
0.02770599
0.007883688
0.02229333
0.008295498
0.02381249
0.03167367
0.02917141
0.008078899
0.02286711
0.008810581
0.02514561
0.03241691
0.03006187
0.00840568
0.02303913
0.009275398
0.0254323
0.03304916
0.03076145
0.00873706
0.02333121
0.009728532
0.02581278
0.03354032
0.03132918
0.009096924
0.02338979
0.01014241
0.02601873
0.03406162
0.0319192
0.009513847
0.02343434
0.01053823
0.02644383
0.03469481
0.03253147
0.009974712
0.02352392
0.01096307
0.02693711
0.03547201
0.03322954
0.01049071
0.02369758
0.01143748
0.02748953
0.03650195
0.03401605
0.0110836
0.02401834
0.01197302
0.02812406
0.03780693
0.03494265
0.0117653
0.0245027
0.0125808
0.02887981
0.03947129
0.0360411
0.01256582
0.02519961
0.01326489
0.02980895
0.04155819
0.03738594
0.0134801
0.02618225
0.01400147
0.03102766
0.04414646
0.03898605
0.01449571
0.02752867
0.01477023
0.03253195
-0.02430002
0.001408233
0.004401644
-0.03221871
0.002455701
0.0002161859
-0.003198442
-0.04084827
-0.01751486
0.003652691
-0.03399492
-0.008154311
-0.1225259
0.01982475
-0.01402143
-0.1292676
-0.03256605
0.002293031
0.006277627
-0.04169471
0.002419729
0.004422414
0.004075623
-0.03045039
-0.01649599
0.006174653
-0.03172994
-0.01535663
-0.1284741
0.02072739
-0.02085373
-0.1317293
-0.04158067
0.002613495
0.007770614
-0.044342
0.002789279
0.007547546
0.006352957
-0.03131867
-0.01686143
0.006632763
-0.03053736
-0.02119985
-0.1279819
0.02154065
-0.02234982
-0.1287738
-0.04441155
0.002928833
0.008743276
-0.04483537
0.003040777
0.009234545
0.006724429
-0.03036624
-0.0166755
0.00714517
-0.03033616
-0.02306721
-0.1278527
0.02156098
-0.0232874
-0.1274158
-0.04392602
0.002951347
0.008689266
-0.04465497
0.002870176
0.008813808
0.00718352
-0.03039615
-0.01695015
0.006758159
-0.03048054
-0.02317888
-0.1272825
0.02173776
-0.02307416
-0.1279349
-0.04336242
0.002620745
0.006841762
-0.03757852
0.002544633
0.006540894
0.006691249
-0.03066531
-0.01822242
0.006222838
-0.03119309
-0.02268369
-0.1287543
0.0212751
-0.02206638
-0.1279462
-0.03876367
0.002377458
0.002904807
-0.02946444
0.002201824
0.005841142
0.005943387
-0.03166569
-0.02062456
0.003797665
-0.03032351
-0.02261322
-0.1317925
0.02205006
-0.01830138
-0.1278899
-0.03325827
0.002114526
-0.0008676884
-0.02432967
0.00121631
0.00274062
0.003521339
-0.0340916
-0.02456067
-0.001918924
-0.03925545
-0.01705779
-0.1288501
0.01749405
-0.01388417
-0.1217109
-0.01914173
0.001421198
-0.0006332983
0.005111851
-0.01123949
0.01302706
-0.004333742
0.0145993
-0.001495699
-0.006136923
0.02014189
-0.003970329
0.02343545
-0.004193609
-0.002030129
0.02363225
-0.001249276
0.03463414
-0.006189025
-0.00367332
0.0260522
0.005094568
0.03281389
-0.003603847
0.03081177
0.0008252305
0.002563446
0.02206279
0.007331852
0.03183446
0.003956202
0.02651536
0.005686954
0.006393052
0.01755096
0.008446642
0.0216802
0.006128134
0.00553684
0.008743638
0.006133305
0.01065243
0.005831102
0.007096685
0.0030829
0.006203695
0.009007041
0.01126338
0.01349186
0.004491229
0.008670419
0.01496076
0.007922985
0.01819135
0.004566341
0.009236359
0.02035954
0.009970977
0.0269806
0.01246065
-0.009764556
0.03075175
0.01183038
0.0243536
-0.008863733
0.01316795
-0.0102907
0.01788367
0.04656024
0.0133228
0.02708667
-0.001723457
-0.03895365
-0.027537
-0.02386872
-0.0640772
-0.0275901
-0.02258424
-0.01068796
-0.001726187
-0.01069749
-0.007381296
0.002292421
0.0003257161
0.0005532133
0.03075495
0.007938438
0.001625103
0.0186901
0.03576168
0.01053353
-0.01698965
-0.1237737
-0.02133833
-0.01742005
-0.1145621
0.04701732
-0.05675652
0.05169177
-0.04457669
0.09716283
-0.0338923
0.1276486
-0.08837503
0.0121464
0.02968404
-0.02056243
0.02810564
0.01613079
-0.03730493
0.03686679
-0.02896408
0.0492393
0.02622032
0.03285758
-0.02169018
0.01666726
0.01128798
0.0261135
0.04601392
0.01334248
0.008434946
0.01079641
0.01804272
0.02591415
0.01865853
0.02052208
0.01660987
0.009537283
0.0008693159
0.02407956
0.01821038
0.002013118
0.04362478
-0.05785416
0.0151964
0.02733108