/*--------------------------------*- C++ -*----------------------------------*\
  =========                 |
  \\      /  F ield         | OpenFOAM: The Open Source CFD Toolbox
   \\    /   O peration     | Website:  https://openfoam.org
    \\  /    A nd           | Version:  7
     \\/     M anipulation  |
\*---------------------------------------------------------------------------*/
FoamFile
{
    version     2.0;
    format      ascii;
    class       volScalarField;
    location    "0.03";
    object      nut;
}
// * * * * * * * * * * * * * * * * * * * * * * * * * * * * * * * * * * * * * //

dimensions      [0 2 -1 0 0 0 0];

internalField   nonuniform List<scalar> 
109978
(
0.0006567142
0.0006389828
0.0006373994
0.0006372038
0.0006371878
0.0006373462
0.0006388182
0.0006070229
0.0006039178
0.000603518
0.0006035033
0.0006037331
0.0006372786
0.0006039789
0.0006004575
0.0005999548
0.0005999332
0.0006002144
0.0006371111
0.0006035921
0.0005999628
0.000599415
0.0005993862
0.0005996864
0.0006370892
0.0006035154
0.0005998514
0.0005992832
0.0005992489
0.0005995543
0.0006370934
0.0006034965
0.0005998214
0.0005992449
0.000599206
0.0005995128
0.0006371019
0.0006034954
0.000599814
0.0005992329
0.0005991927
0.0005995002
0.0006371168
0.0006034994
0.0005998165
0.0005992338
0.0005991921
0.0005994995
0.0006371336
0.0006035074
0.0005998226
0.0005992387
0.0005991964
0.0005995037
0.0006371495
0.000603517
0.0005998308
0.0005992462
0.0005992037
0.0005995108
0.0006371643
0.0006035276
0.0005998402
0.0005992552
0.0005992119
0.0005995194
0.0006371792
0.0006035393
0.0005998506
0.0005992655
0.0005992221
0.0005995295
0.0006371947
0.0006035523
0.0005998623
0.0005992771
0.0005992335
0.0005995407
0.0006372103
0.0006035654
0.0005998752
0.0005992897
0.0005992459
0.0005995529
0.0006372263
0.0006035793
0.0005998892
0.0005993035
0.0005992594
0.0005995663
0.000637243
0.0006035943
0.0005999043
0.0005993184
0.0005992742
0.0005995808
0.0006372604
0.0006036107
0.0005999209
0.0005993349
0.000599291
0.0005995968
0.0006372792
0.0006036288
0.0005999397
0.000599354
0.00059931
0.0005996154
0.0006372998
0.0006036504
0.000599963
0.0005993782
0.0005993344
0.0005996395
0.0006373243
0.0006036809
0.0005999989
0.000599417
0.000599374
0.0005996786
0.0006373657
0.0006037458
0.00060008
0.0005995058
0.000599465
0.0005997679
0.0006374746
0.0006039262
0.0006003033
0.0005997472
0.0005997062
0.0005999962
0.0001011425
0.0006042943
0.0006007372
0.0006002083
0.0006001551
0.000600394
0.0005981119
0.0005976505
0.0005976545
0.0005976398
0.0005976089
0.0005976032
0.0001010608
0.0001010204
0.000101008
0.0001010081
0.0001010079
0.000101008
0.0001010399
0.0001010111
0.0001010085
0.0001010079
0.0001010078
0.0001010079
0.0001010336
0.0001010102
0.0001010086
0.0001010078
0.0001010078
0.0001010079
0.0001010324
0.0001010109
0.0001010085
0.0001010078
0.0001010078
0.0001010079
0.0001010325
0.0001010116
0.0001010083
0.0001010078
0.0001010078
0.0001010079
0.0001010358
0.0001010117
0.0001010082
0.0001010078
0.0001010078
0.0001010079
0.0001010299
0.0001010108
0.0001010081
0.0001010079
0.0001010079
0.0001010079
0.0001010228
0.00010101
0.000101008
0.0001010079
0.0001010079
0.0001010079
0.0001010236
0.0001010093
0.000101008
0.0001010079
0.0001010079
0.000101008
0.0001010245
0.000101009
0.000101008
0.0001010079
0.0001010079
0.000101008
0.0001010255
0.0001010088
0.000101008
0.0001010079
0.0001010079
0.000101008
0.0001010265
0.0001010088
0.0001010081
0.0001010079
0.0001010079
0.000101008
0.0001010277
0.0001010087
0.0001010081
0.0001010079
0.000101008
0.000101008
0.0001010284
0.0001010087
0.0001010081
0.000101008
0.000101008
0.0001010081
0.0001010292
0.0001010087
0.0001010081
0.000101008
0.000101008
0.0001010081
0.0001010305
0.0001010087
0.0001010081
0.000101008
0.000101008
0.0001010081
0.0001010316
0.0001010087
0.0001010081
0.000101008
0.000101008
0.0001010081
0.0001010326
0.0001010087
0.0001010082
0.000101008
0.0001010081
0.0001010081
0.0001010336
0.0001010088
0.0001010082
0.0001010081
0.0001010081
0.0001010082
0.0001010346
0.0001010089
0.0001010082
0.0001010081
0.0001010081
0.0001010082
0.0001010353
0.000101009
0.0001010083
0.0001010081
0.0001010081
0.0001010082
0.0001010362
0.0001010091
0.0001010083
0.0001010081
0.0001010082
0.0001010083
0.0001010244
0.0001010093
0.0001010083
0.0001010082
0.0001010082
0.0001010083
0.0005991536
0.0005980024
0.0005980507
0.0005980715
0.0005980403
0.0005979943
0.0001010555
0.0001010135
0.0001010085
0.0001010078
0.0001010078
0.0001010079
0.0001010625
0.0001010104
0.0001010082
0.000101008
0.0001010077
0.0001010078
0.0001010247
0.0001010103
0.000101008
0.0001010079
0.0001010077
0.0001010078
0.0001010375
0.0001010106
0.0001010078
0.0001010081
0.0001010077
0.0001010079
0.0001010294
0.00010101
0.0001010078
0.0001010081
0.0001010077
0.0001010079
0.0001010267
0.0001010095
0.0001010078
0.0001010081
0.0001010078
0.0001010079
0.0001010243
0.0001010089
0.0001010078
0.000101008
0.0001010078
0.0001010079
0.0001010225
0.0001010085
0.0001010078
0.0001010079
0.0001010078
0.0001010079
0.000101021
0.0001010084
0.0001010078
0.0001010079
0.0001010078
0.0001010079
0.0001010218
0.0001010083
0.0001010078
0.0001010079
0.0001010078
0.0001010079
0.0001010218
0.0001010082
0.0001010078
0.0001010079
0.0001010078
0.0001010079
0.000101022
0.0001010081
0.0001010079
0.0001010079
0.0001010079
0.000101008
0.0001010219
0.0001010081
0.0001010079
0.0001010079
0.0001010079
0.000101008
0.000101022
0.0001010081
0.0001010079
0.000101008
0.0001010079
0.000101008
0.000101022
0.0001010081
0.0001010079
0.000101008
0.0001010079
0.000101008
0.000101022
0.0001010082
0.0001010079
0.000101008
0.0001010079
0.000101008
0.0001010223
0.0001010082
0.000101008
0.0001010081
0.0001010079
0.0001010081
0.0001010226
0.0001010082
0.000101008
0.0001010081
0.000101008
0.0001010081
0.0001010228
0.0001010082
0.000101008
0.0001010081
0.000101008
0.0001010081
0.000101023
0.0001010082
0.000101008
0.0001010081
0.000101008
0.0001010081
0.0001010233
0.0001010082
0.0001010081
0.0001010081
0.000101008
0.0001010082
0.0001010239
0.0001010082
0.0001010081
0.0001010082
0.000101008
0.0001010082
0.0001010246
0.0001010083
0.0001010081
0.0001010082
0.0001010081
0.0001010082
0.000599247
0.0005981953
0.0005982649
0.0005982937
0.0005982617
0.0005981964
0.0001010235
0.0001010116
0.0001010086
0.0001010077
0.0001010078
0.0001010079
0.0001010377
0.0001010145
0.0001010076
0.0001010084
0.0001010077
0.0001010079
0.0001010266
0.0001010108
0.0001010077
0.0001010079
0.0001010078
0.0001010078
0.0001010199
0.0001010091
0.0001010077
0.0001010078
0.0001010077
0.0001010079
0.0001010191
0.0001010086
0.0001010077
0.0001010078
0.0001010078
0.0001010079
0.000101019
0.0001010084
0.0001010077
0.0001010077
0.0001010078
0.0001010079
0.0001010196
0.0001010082
0.0001010077
0.0001010078
0.0001010078
0.0001010079
0.0001010199
0.0001010082
0.0001010077
0.0001010078
0.0001010078
0.0001010079
0.0001010196
0.0001010083
0.0001010077
0.0001010078
0.0001010078
0.0001010079
0.0001010209
0.0001010083
0.0001010077
0.0001010078
0.0001010078
0.0001010079
0.0001010208
0.0001010083
0.0001010078
0.0001010079
0.0001010079
0.0001010079
0.0001010206
0.0001010083
0.0001010078
0.0001010079
0.0001010079
0.000101008
0.0001010209
0.0001010081
0.0001010078
0.0001010079
0.0001010079
0.000101008
0.0001010219
0.0001010081
0.0001010078
0.0001010079
0.0001010079
0.000101008
0.0001010232
0.0001010081
0.0001010078
0.0001010079
0.0001010079
0.000101008
0.0001010237
0.0001010081
0.0001010079
0.0001010079
0.0001010079
0.000101008
0.0001010238
0.0001010081
0.0001010079
0.0001010079
0.000101008
0.000101008
0.0001010238
0.0001010081
0.0001010079
0.000101008
0.000101008
0.0001010081
0.0001010242
0.0001010081
0.0001010079
0.000101008
0.000101008
0.0001010081
0.0001010246
0.0001010082
0.0001010079
0.000101008
0.000101008
0.0001010081
0.0001010251
0.0001010082
0.0001010079
0.000101008
0.000101008
0.0001010081
0.0001010258
0.0001010082
0.000101008
0.0001010081
0.0001010081
0.0001010082
0.0001010268
0.0001010082
0.000101008
0.0001010081
0.0001010081
0.0001010082
0.0005992763
0.0005982488
0.0005983319
0.0005983693
0.0005983334
0.0005982619
0.0001010221
0.0001010113
0.0001010086
0.0001010077
0.0001010077
0.0001010078
0.0001010702
0.0001010144
0.0001010076
0.0001010085
0.0001010077
0.0001010079
0.000101026
0.0001010098
0.0001010078
0.0001010079
0.0001010078
0.0001010079
0.0001010188
0.0001010083
0.0001010077
0.0001010078
0.0001010077
0.0001010079
0.0001010179
0.0001010082
0.0001010077
0.0001010078
0.0001010078
0.0001010079
0.0001010181
0.0001010081
0.0001010077
0.0001010078
0.0001010077
0.0001010079
0.0001010187
0.0001010081
0.0001010077
0.0001010078
0.0001010078
0.0001010079
0.0001010192
0.0001010081
0.0001010077
0.0001010078
0.0001010078
0.0001010079
0.0001010189
0.0001010082
0.0001010077
0.0001010079
0.0001010078
0.0001010079
0.0001010202
0.000101008
0.0001010077
0.0001010079
0.0001010078
0.0001010079
0.0001010202
0.000101008
0.0001010078
0.0001010079
0.0001010078
0.0001010079
0.0001010213
0.0001010081
0.0001010078
0.0001010079
0.0001010079
0.000101008
0.0001010231
0.0001010083
0.0001010078
0.000101008
0.0001010079
0.000101008
0.0001010236
0.0001010084
0.0001010078
0.0001010081
0.0001010079
0.000101008
0.0001010247
0.0001010084
0.0001010078
0.000101008
0.0001010079
0.000101008
0.0001010251
0.0001010084
0.0001010078
0.0001010081
0.0001010079
0.000101008
0.0001010252
0.0001010084
0.0001010079
0.0001010081
0.0001010079
0.0001010081
0.0001010253
0.0001010084
0.0001010079
0.0001010081
0.000101008
0.0001010081
0.0001010254
0.0001010084
0.0001010079
0.0001010081
0.000101008
0.0001010081
0.0001010258
0.0001010084
0.0001010079
0.0001010081
0.000101008
0.0001010081
0.0001010263
0.0001010083
0.0001010079
0.0001010081
0.000101008
0.0001010082
0.0001010271
0.0001010083
0.0001010079
0.0001010081
0.000101008
0.0001010082
0.0001010281
0.0001010083
0.000101008
0.0001010082
0.0001010081
0.0001010082
0.0005992709
0.0005982514
0.0005983304
0.0005983663
0.0005983335
0.0005982616
0.0001010282
0.0001010112
0.0001010086
0.0001010077
0.0001010077
0.0001010078
0.0001010443
0.0001010144
0.0001010076
0.0001010085
0.0001010077
0.0001010079
0.0001010339
0.0001010098
0.0001010078
0.0001010079
0.0001010078
0.0001010079
0.0001010188
0.0001010083
0.0001010077
0.0001010078
0.0001010077
0.0001010079
0.0001010177
0.0001010082
0.0001010077
0.0001010078
0.0001010078
0.0001010079
0.0001010179
0.0001010081
0.0001010077
0.0001010078
0.0001010077
0.0001010079
0.0001010184
0.0001010081
0.0001010077
0.0001010078
0.0001010078
0.0001010079
0.000101019
0.0001010081
0.0001010077
0.0001010078
0.0001010078
0.0001010079
0.000101019
0.0001010082
0.0001010077
0.0001010079
0.0001010078
0.0001010079
0.0001010204
0.000101008
0.0001010077
0.0001010079
0.0001010078
0.0001010079
0.0001010201
0.000101008
0.0001010078
0.0001010079
0.0001010078
0.0001010079
0.0001010209
0.0001010081
0.0001010078
0.0001010079
0.0001010079
0.000101008
0.0001010234
0.0001010083
0.0001010078
0.000101008
0.0001010079
0.000101008
0.0001010268
0.0001010084
0.0001010078
0.0001010081
0.0001010079
0.000101008
0.0001010275
0.0001010084
0.0001010078
0.000101008
0.0001010079
0.000101008
0.0001010277
0.0001010084
0.0001010078
0.0001010081
0.0001010079
0.000101008
0.0001010276
0.0001010084
0.0001010079
0.0001010081
0.0001010079
0.0001010081
0.0001010275
0.0001010084
0.0001010079
0.0001010081
0.000101008
0.0001010081
0.0001010274
0.0001010084
0.0001010079
0.0001010081
0.000101008
0.0001010081
0.0001010277
0.0001010084
0.0001010079
0.0001010081
0.000101008
0.0001010081
0.0001010282
0.0001010083
0.0001010079
0.0001010081
0.000101008
0.0001010082
0.0001010288
0.0001010083
0.0001010079
0.0001010081
0.000101008
0.0001010082
0.0001010296
0.0001010083
0.000101008
0.0001010082
0.0001010081
0.0001010082
0.000599295
0.0005982279
0.000598296
0.0005983309
0.0005982955
0.0005982266
0.0001010213
0.0001010116
0.0001010086
0.0001010077
0.0001010078
0.0001010079
0.0001010774
0.0001010146
0.0001010076
0.0001010084
0.0001010077
0.0001010079
0.0001010228
0.0001010108
0.0001010077
0.0001010079
0.0001010078
0.0001010078
0.000101019
0.0001010091
0.0001010077
0.0001010078
0.0001010077
0.0001010079
0.0001010189
0.0001010086
0.0001010077
0.0001010078
0.0001010078
0.0001010079
0.0001010185
0.0001010084
0.0001010077
0.0001010077
0.0001010078
0.0001010078
0.0001010191
0.0001010082
0.0001010077
0.0001010078
0.0001010078
0.0001010079
0.0001010198
0.0001010082
0.0001010077
0.0001010078
0.0001010078
0.0001010079
0.0001010196
0.0001010083
0.0001010077
0.0001010078
0.0001010078
0.0001010079
0.0001010204
0.0001010083
0.0001010077
0.0001010078
0.0001010078
0.0001010079
0.0001010201
0.0001010083
0.0001010078
0.0001010079
0.0001010079
0.0001010079
0.0001010209
0.0001010083
0.0001010078
0.0001010079
0.0001010079
0.0001010079
0.000101022
0.0001010081
0.0001010078
0.0001010079
0.0001010079
0.000101008
0.0001010234
0.0001010081
0.0001010078
0.0001010079
0.0001010079
0.000101008
0.0001010245
0.0001010081
0.0001010078
0.0001010079
0.0001010079
0.000101008
0.000101025
0.0001010081
0.0001010079
0.0001010079
0.0001010079
0.000101008
0.0001010252
0.0001010081
0.0001010079
0.0001010079
0.000101008
0.000101008
0.0001010253
0.0001010081
0.0001010079
0.000101008
0.000101008
0.0001010081
0.0001010254
0.0001010081
0.0001010079
0.000101008
0.000101008
0.0001010081
0.0001010258
0.0001010082
0.0001010079
0.000101008
0.000101008
0.0001010081
0.0001010263
0.0001010082
0.000101008
0.000101008
0.000101008
0.0001010081
0.000101027
0.0001010082
0.000101008
0.0001010081
0.0001010081
0.0001010082
0.000101028
0.0001010082
0.000101008
0.0001010081
0.0001010081
0.0001010082
0.0005992219
0.0005980678
0.0005981099
0.0005981421
0.0005981057
0.0005980475
0.0001010381
0.0001010134
0.0001010085
0.0001010078
0.0001010078
0.0001010079
0.0001010612
0.0001010104
0.0001010082
0.000101008
0.0001010077
0.0001010078
0.0001010479
0.0001010103
0.000101008
0.0001010079
0.0001010077
0.0001010078
0.0001010242
0.0001010106
0.0001010078
0.0001010081
0.0001010077
0.0001010079
0.000101021
0.00010101
0.0001010078
0.0001010081
0.0001010077
0.0001010079
0.0001010204
0.0001010094
0.0001010078
0.0001010081
0.0001010078
0.0001010079
0.0001010198
0.0001010089
0.0001010078
0.000101008
0.0001010078
0.0001010079
0.0001010194
0.0001010085
0.0001010078
0.0001010079
0.0001010078
0.0001010079
0.0001010196
0.0001010084
0.0001010078
0.0001010079
0.0001010078
0.0001010079
0.0001010208
0.0001010083
0.0001010078
0.0001010079
0.0001010078
0.0001010079
0.0001010209
0.0001010082
0.0001010078
0.0001010079
0.0001010078
0.0001010079
0.0001010211
0.0001010081
0.0001010079
0.0001010079
0.0001010079
0.000101008
0.0001010215
0.0001010081
0.0001010079
0.0001010079
0.0001010079
0.000101008
0.0001010225
0.0001010081
0.0001010079
0.000101008
0.0001010079
0.000101008
0.0001010232
0.0001010081
0.0001010079
0.000101008
0.0001010079
0.000101008
0.0001010234
0.0001010081
0.000101008
0.000101008
0.0001010079
0.000101008
0.0001010236
0.0001010081
0.000101008
0.0001010081
0.0001010079
0.0001010081
0.0001010237
0.0001010082
0.000101008
0.0001010081
0.000101008
0.0001010081
0.000101024
0.0001010082
0.000101008
0.0001010081
0.000101008
0.0001010081
0.0001010243
0.0001010082
0.000101008
0.0001010081
0.000101008
0.0001010081
0.0001010248
0.0001010082
0.0001010081
0.0001010081
0.000101008
0.0001010082
0.0001010256
0.0001010082
0.0001010081
0.0001010082
0.000101008
0.0001010082
0.0001010265
0.0001010082
0.0001010081
0.0001010082
0.0001010081
0.0001010082
0.000599539
0.0005988851
0.000598918
0.0005989313
0.0005988932
0.0005988661
0.0001010807
0.0001010204
0.000101008
0.0001010081
0.0001010079
0.000101008
0.0001010464
0.0001010111
0.0001010085
0.0001010079
0.0001010078
0.0001010079
0.0001010403
0.0001010102
0.0001010085
0.0001010078
0.0001010078
0.0001010079
0.0001010361
0.0001010108
0.0001010085
0.0001010078
0.0001010078
0.0001010079
0.0001010329
0.0001010116
0.0001010083
0.0001010078
0.0001010078
0.0001010079
0.0001010307
0.0001010117
0.0001010082
0.0001010078
0.0001010078
0.0001010079
0.0001010277
0.0001010108
0.0001010081
0.0001010079
0.0001010079
0.0001010079
0.0001010239
0.00010101
0.000101008
0.0001010079
0.0001010079
0.0001010079
0.0001010218
0.0001010093
0.000101008
0.0001010079
0.0001010079
0.000101008
0.0001010224
0.000101009
0.000101008
0.0001010079
0.0001010079
0.000101008
0.0001010221
0.0001010088
0.000101008
0.0001010079
0.0001010079
0.000101008
0.0001010219
0.0001010088
0.000101008
0.0001010079
0.0001010079
0.000101008
0.0001010215
0.0001010087
0.0001010081
0.0001010079
0.000101008
0.000101008
0.0001010215
0.0001010087
0.0001010081
0.000101008
0.000101008
0.000101008
0.0001010219
0.0001010086
0.0001010081
0.000101008
0.000101008
0.0001010081
0.0001010221
0.0001010087
0.0001010081
0.000101008
0.000101008
0.0001010081
0.0001010225
0.0001010087
0.0001010081
0.000101008
0.000101008
0.0001010081
0.0001010228
0.0001010087
0.0001010082
0.000101008
0.0001010081
0.0001010081
0.0001010231
0.0001010088
0.0001010082
0.0001010081
0.0001010081
0.0001010082
0.0001010235
0.0001010088
0.0001010082
0.0001010081
0.0001010081
0.0001010082
0.0001010238
0.0001010089
0.0001010082
0.0001010081
0.0001010081
0.0001010082
0.0001010244
0.0001010091
0.0001010083
0.0001010081
0.0001010082
0.0001010082
0.0001010244
0.0001010092
0.0001010083
0.0001010082
0.0001010082
0.0001010083
0.0002121941
0.0002096951
0.0002095832
0.0002095476
0.0002094931
0.0002094491
0.0001011464
0.0001012913
0.0001012408
0.0001011798
0.0001011904
0.0001011805
0.0001011771
0.0001018198
0.0001013214
0.0001012116
0.0001011325
0.0001011551
0.0001011439
0.0001011426
0.000101436
0.0001013075
0.0001012275
0.0001011379
0.0001011588
0.0001011456
0.0001011438
0.0001012734
0.0001013083
0.0001012294
0.0001011409
0.0001011607
0.0001011476
0.0001011459
0.0001011674
0.0001013096
0.0001012316
0.000101147
0.0001011636
0.0001011508
0.0001011491
0.0001011082
0.0001013149
0.0001012312
0.000101151
0.0001011664
0.0001011536
0.0001011519
0.0001010831
0.0001013198
0.0001012291
0.0001011548
0.0001011687
0.0001011565
0.0001011547
0.0001011031
0.0001013254
0.0001012274
0.0001011582
0.000101171
0.0001011593
0.0001011574
0.0001011044
0.000101332
0.0001012272
0.0001011616
0.0001011734
0.0001011621
0.00010116
0.0001011081
0.00010134
0.0001012288
0.0001011647
0.0001011761
0.000101165
0.0001011629
0.0001011232
0.0001013447
0.0001012315
0.0001011677
0.000101179
0.0001011682
0.000101166
0.0001011318
0.0001013509
0.0001012333
0.0001011702
0.0001011817
0.0001011707
0.0001011686
0.0001011399
0.000101356
0.0001012352
0.0001011729
0.0001011845
0.0001011735
0.0001011713
0.0001011507
0.0001013599
0.0001012386
0.0001011758
0.0001011874
0.0001011763
0.0001011741
0.0001011626
0.000101364
0.0001012423
0.0001011787
0.0001011904
0.0001011792
0.0001011769
0.0001011673
0.000101368
0.0001012461
0.0001011817
0.0001011933
0.0001011821
0.0001011797
0.0001011732
0.0001013721
0.0001012502
0.0001011846
0.0001011963
0.0001011849
0.0001011825
0.0001011834
0.0001013764
0.0001012543
0.0001011874
0.0001011993
0.0001011877
0.0001011852
0.0001011995
0.0001013805
0.0001012585
0.0001011902
0.0001012023
0.0001011905
0.000101188
0.0001012158
0.0001013841
0.0001012629
0.0001011929
0.0001012053
0.0001011932
0.0001011906
0.0001012333
0.000101387
0.0001012673
0.0001011954
0.0001012082
0.0001011957
0.0001011931
0.0001012553
0.0001013894
0.0001012714
0.0001011976
0.0001012107
0.0001011981
0.0001011954
0.0001012801
0.0006379082
0.0001012748
0.0001011996
0.0001012128
0.0001011999
0.0001011974
0.0003040431
0.0001882302
0.0001010876
0.0001010632
0.0003058828
0.0002943897
0.0001011459
0.0001010956
0.000102012
0.0001011477
0.0002941264
0.0002938153
0.0001018197
0.0001011437
0.0001010442
0.0001011481
0.000293873
0.0002937806
0.0001014359
0.0001011333
0.0001010527
0.0001011313
0.000293848
0.000293769
0.0001012733
0.0001011169
0.0001010688
0.0001011177
0.0002938483
0.0002937647
0.0001011671
0.0001011067
0.0001011015
0.0001011048
0.0002938592
0.0002937637
0.0001011077
0.0001010955
0.0001011452
0.0001010946
0.0002938686
0.0002937655
0.0001010827
0.0001010877
0.0001011555
0.0001010866
0.0002938822
0.0002937705
0.0001011028
0.0001010775
0.0001011825
0.0001010737
0.0002939
0.000293777
0.0001011042
0.0001010655
0.000101193
0.0001010658
0.0002939208
0.0002937852
0.000101108
0.0001010568
0.0001012129
0.0001010603
0.0002939412
0.000293795
0.0001011231
0.0001010498
0.0001012305
0.000101057
0.0002939616
0.0002938058
0.0001011318
0.0001010446
0.0001012507
0.0001010547
0.000293983
0.000293818
0.0001011399
0.0001010417
0.0001012717
0.0001010526
0.0002940062
0.0002938316
0.0001011507
0.0001010392
0.0001012906
0.000101051
0.0002940308
0.0002938458
0.0001011624
0.0001010369
0.0001013121
0.0001010501
0.0002940554
0.0002938613
0.0001011674
0.0001010354
0.0001013334
0.0001010493
0.0002940804
0.0002938784
0.000101173
0.0001010338
0.000101355
0.0001010487
0.0002941062
0.0002938976
0.0001011834
0.0001010321
0.0001013777
0.000101048
0.0002941332
0.0002939184
0.0001011995
0.0001010305
0.0001014015
0.0001010473
0.0002941615
0.0002939418
0.000101216
0.0001010292
0.0001014272
0.0001010465
0.000294192
0.0002939714
0.0001012336
0.0001010278
0.0001014504
0.0001010456
0.000294231
0.0002940345
0.0001012556
0.0001010265
0.0001014751
0.0001010447
0.0002943232
0.000101257
0.0001012806
0.0001010253
0.0001014968
0.0001010438
0.0002124852
0.000101193
0.0001010761
0.0002101098
0.0001018372
0.0001011268
0.0002101167
0.0001010681
0.0001010974
0.0002100625
0.0001015987
0.0001011004
0.0002100476
0.0001010404
0.0001010935
0.000210052
0.0001014261
0.0001010858
0.0002100456
0.0001010536
0.0001010805
0.00021004
0.0001010925
0.0001010852
0.0002100396
0.0001015544
0.0001010999
0.0002100489
0.0001010427
0.0001010843
0.0002100648
0.0001014282
0.0001010861
0.0002100698
0.0001010407
0.0001010909
0.000210068
0.0001016319
0.0001010976
0.0002101002
0.0001010635
0.0001010956
0.0002101011
0.0001018354
0.0001011268
0.0002124823
0.0001011973
0.0001010759
0.0001882273
0.000101087
0.0001010631
0.0003040444
0.0002096865
0.0001010066
0.000101013
0.0003059725
0.0002945467
0.0002095727
0.0001010124
0.0001010096
0.0002942941
0.0002939589
0.000209541
0.0001010102
0.00010101
0.0002939809
0.0002938995
0.0002094895
0.0001010104
0.0001010097
0.00029392
0.0002938464
0.0002094441
0.0001010101
0.0001010097
0.0002938758
0.0002938237
0.00010101
0.0002938612
0.0001010956
0.0001020124
0.0001011478
0.0003058835
0.0002943907
0.0001011438
0.0001010444
0.0001011481
0.0002941263
0.0002938152
0.0001011333
0.0001010528
0.0001011313
0.0002938742
0.0002937818
0.0001011168
0.000101069
0.0001011177
0.0002938476
0.00029377
0.0001011066
0.0001011016
0.0001011048
0.0002938496
0.000293765
0.0001010954
0.0001011453
0.0001010946
0.0002938579
0.0002937626
0.0001010776
0.0001011825
0.0001010737
0.0002938809
0.0002937696
0.0001010655
0.000101193
0.0001010658
0.0002938992
0.0002937761
0.0001010568
0.000101213
0.0001010603
0.0002939199
0.0002937842
0.0001010498
0.0001012305
0.000101057
0.0002939404
0.000293794
0.0001010446
0.0001012507
0.0001010547
0.0002939608
0.0002938049
0.0001010417
0.0001012717
0.0001010526
0.0002939822
0.0002938171
0.0001010391
0.0001012906
0.0001010511
0.0002940053
0.0002938307
0.0001010369
0.0001013122
0.0001010501
0.00029403
0.0002938449
0.0001010353
0.0001013334
0.0001010493
0.0002940546
0.0002938604
0.0001010338
0.0001013551
0.0001010487
0.0002940796
0.0002938775
0.000101032
0.0001013777
0.000101048
0.0002941053
0.0002938965
0.0001010304
0.0001014016
0.0001010473
0.0002941323
0.0002939171
0.0001010291
0.0001014275
0.0001010465
0.000294162
0.0002939431
0.0001010277
0.0001014506
0.0001010456
0.000294193
0.0002939706
0.0001010263
0.0001014756
0.0001010447
0.000294232
0.0002940342
0.0001010252
0.0001014974
0.0001010438
0.0002943236
0.0001012571
0.0001017124
0.0001456065
0.0003059714
0.0002945461
0.0002121929
0.0002096869
0.0001010066
0.000101013
0.0002942943
0.0002939589
0.0002096954
0.0002095731
0.0001010124
0.0001010096
0.0002939799
0.0002938988
0.0002095834
0.0002095406
0.0001010102
0.00010101
0.0002939211
0.0002938469
0.0002095476
0.0002094895
0.0001010104
0.0001010097
0.0002938744
0.0002938238
0.0002094925
0.0002094448
0.0001010101
0.0001010097
0.0002938625
0.000209449
0.00010101
0.0001011561
0.0001430337
0.0001010436
0.0001427611
0.0001010555
0.000142775
0.0001010919
0.0001427988
0.0001010452
0.0001427984
0.0001010461
0.000142802
0.0001010394
0.0001428461
0.0001010352
0.0001428084
0.0001010245
0.0001428904
0.0001010293
0.0001428237
0.0001009883
0.0001429283
0.0001010287
0.0001428362
0.0001009883
0.0001429491
0.0001010303
0.0001428335
0.0001009895
0.0001429576
0.0001010298
0.0001428181
0.000100989
0.0001429755
0.0001010262
0.0001427992
0.0001009865
0.000143001
0.0001010112
0.0001427902
0.0001009862
0.0001430233
0.0001010008
0.0001427905
0.0001009876
0.0001430415
0.0001009964
0.0001427966
0.0001009876
0.00014306
0.0001009947
0.0001428058
0.0001009857
0.0001430776
0.0001009933
0.0001428201
0.0001009831
0.0001430955
0.0001009927
0.0001428357
0.0001009806
0.0001431115
0.000100992
0.0001428551
0.0001009784
0.0001431258
0.0001009929
0.0001428801
0.0001009772
0.0001431391
0.0001009952
0.0001429065
0.0001009779
0.0001431531
0.0001009985
0.000142935
0.0001009795
0.0001431711
0.0001010029
0.0001429646
0.0001009817
0.0001431953
0.0001010075
0.0001429954
0.0001009847
0.0001432253
0.0001010115
0.0001430288
0.0001009882
0.0001432623
0.0001010147
0.0001430749
0.0001016598
0.0001014659
0.0001017372
0.0001018284
0.0001019263
0.0001019694
0.0001020068
0.0001018947
0.0001019542
0.0001018957
0.0001019871
0.0001019216
0.0001020212
0.0001018337
0.0001017142
0.0001016729
0.0001014646
0.0001017877
0.0001010876
0.0001011556
0.0001010866
0.0002938674
0.0002937637
0.0001012156
0.0001435436
0.0001011361
0.0001483189
0.0001010251
0.0001431058
0.000101182
0.000148004
0.0001014815
0.0001017639
0.00010119
0.0001427696
0.0001010718
0.000142655
0.0001010602
0.0001428034
0.0001010443
0.0001428149
0.0001010406
0.000142806
0.0001010422
0.000142837
0.0001010303
0.0001428197
0.0001010404
0.0001428721
0.0001010251
0.000142835
0.0001010002
0.0001429257
0.0001010255
0.0001428367
0.0001009881
0.0001429539
0.0001010317
0.0001428195
0.0001009898
0.0001429592
0.00010103
0.000142801
0.0001009904
0.0001429718
0.0001010241
0.0001427897
0.0001009983
0.0001429922
0.0001010078
0.0001427829
0.0001009914
0.0001430201
0.0001010013
0.000142786
0.0001009898
0.0001430395
0.0001009984
0.0001427926
0.0001009884
0.0001430569
0.0001009972
0.0001428048
0.0001009866
0.000143073
0.0001009954
0.0001428181
0.0001009844
0.0001430886
0.0001009937
0.0001428361
0.0001009825
0.0001431025
0.0001009922
0.000142857
0.0001009812
0.0001431135
0.0001009908
0.0001428822
0.0001009808
0.0001431242
0.0001009912
0.0001429103
0.0001009818
0.0001431358
0.0001009936
0.0001429409
0.0001009837
0.0001431493
0.0001009969
0.0001429719
0.0001009863
0.0001431666
0.0001010001
0.0001430042
0.0001009891
0.0001431899
0.0001010031
0.0001430407
0.0001009917
0.0001432186
0.0001010063
0.0001431363
0.0001019285
0.0001432673
0.0001009946
0.0001017228
0.000101612
0.0001019602
0.0001018651
0.000102031
0.0001020142
0.0001018742
0.0001020201
0.0001019989
0.0001020243
0.0001018615
0.0001019437
0.0001017345
0.000101891
0.000101662
0.0001014866
0.0001017223
0.0001456205
0.0001012132
0.0001435393
0.0001011362
0.0001483179
0.000101027
0.0001431146
0.0001011839
0.0001480179
0.0001010851
0.0001434227
0.0001011246
0.0001431195
0.0001011268
0.0001430895
0.0001010824
0.0001431347
0.0001010883
0.0001431437
0.000101142
0.0001430422
0.0001011352
0.0001430382
0.0001010811
0.0001430786
0.0001010871
0.0001430857
0.0001011433
0.0001429931
0.0001011337
0.0001429941
0.0001010794
0.0001430279
0.0001010862
0.0001430401
0.0001011417
0.000142947
0.0001011316
0.0001429451
0.0001010786
0.0001429796
0.0001010846
0.0001429882
0.0001011393
0.0001428991
0.0001010832
0.0001429392
0.0001011377
0.0001011559
0.000143037
0.000101044
0.0001427623
0.0001011899
0.0001427688
0.0001010719
0.0001426561
0.0001010555
0.000142774
0.0001010916
0.0001427983
0.0001010601
0.0001428018
0.0001010443
0.0001428153
0.0001010452
0.0001427969
0.0001010459
0.0001428011
0.0001010406
0.0001428053
0.0001010422
0.0001428363
0.0001010394
0.0001428454
0.000101035
0.0001428079
0.0001010303
0.0001428192
0.0001010405
0.0001428716
0.0001010245
0.0001428899
0.0001010291
0.0001428232
0.0001010251
0.0001428345
0.0001010003
0.0001429253
0.0001009884
0.0001429278
0.0001010284
0.0001428357
0.0001010255
0.0001428362
0.0001009882
0.0001429535
0.0001009896
0.0001429706
0.0001010297
0.0001428178
0.00010103
0.0001428007
0.0001009904
0.0001429715
0.000100989
0.0001429749
0.0001010258
0.0001427988
0.0001010241
0.0001427892
0.0001009983
0.0001429918
0.0001009865
0.0001430004
0.0001010107
0.0001427899
0.0001010079
0.0001427825
0.0001009914
0.0001430197
0.0001009862
0.0001430226
0.0001010003
0.00014279
0.0001010013
0.0001427855
0.0001009898
0.000143039
0.0001009876
0.0001430409
0.0001009958
0.0001427962
0.0001009984
0.0001427921
0.0001009884
0.0001430565
0.0001009876
0.0001430593
0.0001009941
0.0001428053
0.0001009972
0.0001428042
0.0001009866
0.0001430725
0.0001009857
0.0001430769
0.0001009927
0.0001428197
0.0001009954
0.0001428177
0.0001009844
0.0001430882
0.0001009831
0.0001430949
0.000100992
0.0001428353
0.0001009937
0.0001428356
0.0001009825
0.0001431021
0.000100993
0.0001428566
0.0001009813
0.0001431132
0.0001009784
0.0001431255
0.0001009921
0.0001428798
0.0001009909
0.0001428818
0.0001009808
0.0001431238
0.0001009772
0.0001431387
0.0001009945
0.0001429061
0.0001009912
0.0001429098
0.0001009818
0.0001431356
0.0001009779
0.000143153
0.0001009978
0.0001429345
0.0001009937
0.0001429404
0.0001009838
0.0001431489
0.0001009795
0.0001431709
0.000101002
0.0001429642
0.0001009969
0.0001429714
0.0001009863
0.0001431663
0.0001009817
0.0001431954
0.0001010067
0.0001429949
0.0001010002
0.0001430037
0.0001009891
0.0001431895
0.0001009847
0.0001432253
0.0001010106
0.0001430279
0.0001010032
0.0001430416
0.0001009917
0.0001432176
0.0001009882
0.000143263
0.0001010138
0.0001430767
0.0001010063
0.0001012513
0.0001432681
0.000100994
0.000183001