/*--------------------------------*- C++ -*----------------------------------*\
  =========                 |
  \\      /  F ield         | OpenFOAM: The Open Source CFD Toolbox
   \\    /   O peration     | Website:  https://openfoam.org
    \\  /    A nd           | Version:  7
     \\/     M anipulation  |
\*---------------------------------------------------------------------------*/
FoamFile
{
    version     2.0;
    format      ascii;
    class       volScalarField;
    location    "0.03";
    object      p;
}
// * * * * * * * * * * * * * * * * * * * * * * * * * * * * * * * * * * * * * //

dimensions      [0 2 -2 0 0 0 0];

internalField   nonuniform List<scalar> 
109978
(
0.6183345
0.5455233
0.5682435
0.5347497
0.5277269
0.5143707
0.6098258
0.5102358
0.5527665
0.5214469
0.5148173
0.5001325
0.6249858
0.4873663
0.5438852
0.5102234
0.5042849
0.4886428
0.6302107
0.4703647
0.5336679
0.502861
0.4956294
0.480007
0.6272231
0.4680931
0.5241414
0.4949645
0.4866053
0.4724672
0.6192814
0.4711113
0.5155096
0.4882282
0.4810119
0.4675201
0.6106566
0.4716539
0.5051957
0.4807158
0.4755127
0.463007
0.6071421
0.4707701
0.4975729
0.4736202
0.4702766
0.4588188
0.6034612
0.4705665
0.4920762
0.4674431
0.4649463
0.4543818
0.5938645
0.4716901
0.4875102
0.4618226
0.4596208
0.4496621
0.5796509
0.4715267
0.4829869
0.4564217
0.4544744
0.4448118
0.5648131
0.4679359
0.4779081
0.4509315
0.4494052
0.4398357
0.5522069
0.4613576
0.47228
0.4453649
0.4441111
0.4345656
0.5414052
0.4539595
0.4664116
0.4396418
0.4384486
0.4289384
0.5302916
0.446074
0.4599246
0.4333239
0.4322483
0.4229267
0.5186663
0.437442
0.4527876
0.4264449
0.4257576
0.4166743
0.5065869
0.4281344
0.4451602
0.4191651
0.4190111
0.4101839
0.4938461
0.418211
0.4371713
0.4116242
0.4121034
0.4034925
0.4810793
0.4079282
0.4289371
0.4038323
0.4050172
0.3965683
0.4687558
0.39761
0.4205722
0.3957933
0.3977157
0.3893564
0.4568902
0.387347
0.4121187
0.3875459
0.3901907
0.3818332
0.4455375
0.3771325
0.4035929
0.3791751
0.3824736
0.3740185
0.5344587
0.3670042
0.3949617
0.3706144
0.3744512
0.3658979
0.6511361
0.5523823
0.5739223
0.5365865
0.5290557
0.5151457
0.7760612
0.7898931
0.4637531
0.6519848
0.5283489
0.5640669
0.773306
0.8337306
0.4234323
0.6801391
0.5241133
0.5738617
0.779576
0.8882077
0.3488881
0.6748399
0.5111035
0.5634538
0.7780125
0.8921811
0.3350722
0.684311
0.5157848
0.5638513
0.7721791
0.8907757
0.3482991
0.6744927
0.5113735
0.5570327
0.7555189
0.8784104
0.3678096
0.6666263
0.5124265
0.5589701
0.7400626
0.8548057
0.3872859
0.6536607
0.5110871
0.5584869
0.7235682
0.8343508
0.406448
0.6430647
0.511188
0.5606909
0.7115231
0.8159649
0.4206017
0.6362152
0.5113391
0.5591941
0.7039373
0.8025669
0.4285478
0.6312109
0.5098145
0.5565592
0.6935689
0.7908051
0.4313042
0.6274158
0.5074307
0.5545037
0.6809973
0.7798058
0.4304052
0.6237468
0.5040437
0.5527385
0.6649978
0.7678571
0.4252429
0.6192643
0.4995635
0.5495335
0.6493877
0.7605524
0.4194069
0.6149292
0.4948684
0.5453564
0.6353815
0.7531597
0.4131244
0.6095248
0.4895717
0.5401669
0.6226305
0.7453581
0.4061624
0.6038625
0.4840681
0.5355369
0.6119706
0.7369323
0.3986058
0.5982339
0.478309
0.5306165
0.6024439
0.7282737
0.3901363
0.5927827
0.4725091
0.5259323
0.5937115
0.7198279
0.3808344
0.5872167
0.4663743
0.5212729
0.5863584
0.7115724
0.3713235
0.5816032
0.4597475
0.5164798
0.5806111
0.7035028
0.361696
0.5759524
0.4525879
0.5113774
0.5757494
0.6949209
0.3519867
0.5705398
0.4451965
0.5059725
0.7178882
0.6859329
0.3421751
0.5653215
0.4376788
0.500275
0.6579948
0.5306285
0.570342
0.5167172
0.5172375
0.5039826
0.7568118
0.8368848
0.4227607
0.6583279
0.5141418
0.5760091
0.7926812
0.8669711
0.3847925
0.7128168
0.5514011
0.5964984
0.8578353
0.9637327
0.3244422
0.6961474
0.5061105
0.5821021
0.7958654
0.9543152
0.3009314
0.6999893
0.5214651
0.5871122
0.7763222
0.9498205
0.3086701
0.6812315
0.5122444
0.5768239
0.7545737
0.9297175
0.3184937
0.67278
0.5233846
0.5768921
0.7281937
0.8912859
0.3378343
0.6636707
0.5258736
0.5736338
0.7055267
0.8684191
0.3593588
0.6514793
0.5271525
0.5707959
0.6866443
0.851787
0.3748117
0.6384236
0.5267969
0.566627
0.6737158
0.8394546
0.3857146
0.6290488
0.5233533
0.5621329
0.6689586
0.8213842
0.3911896
0.6242912
0.518335
0.5583152
0.66163
0.8056275
0.392603
0.6242353
0.5167201
0.5570021
0.6400593
0.7907395
0.3883261
0.6279662
0.5188364
0.5562688
0.6101624
0.7900502
0.381918
0.6300637
0.5207429
0.5543184
0.5916647
0.7852812
0.3764595
0.6279426
0.5185241
0.5509345
0.5761409
0.7785615
0.370314
0.6248094
0.5152084
0.5476621
0.5635386
0.7709207
0.3634066
0.6209689
0.5112492
0.5437355
0.5528954
0.7619976
0.3550572
0.6171432
0.5069296
0.5396638
0.5434001
0.7527615
0.3459364
0.6132477
0.501325
0.5352396
0.5359395
0.7435637
0.3366313
0.6091887
0.4949127
0.5305844
0.5302312
0.7342853
0.3269958
0.6050737
0.4883382
0.5258622
0.5253267
0.7246702
0.3162158
0.6010656
0.4825161
0.5208937
0.5194716
0.7153673
0.3046674
0.597038
0.4765765
0.5154442
0.7213148
0.511593
0.5594261
0.5080662
0.5119055
0.4956562
0.7485489
0.9035444
0.3614734
0.6614601
0.4865939
0.5541197
0.9178294
0.9861161
0.2996149
0.7068848
0.5149561
0.5868019
0.8303374
1.06977
0.2213939
0.6665409
0.4683014
0.5527899
0.8006538
1.078139
0.1948151
0.6398652
0.4798616
0.565593
0.7995758
1.074359
0.2245262
0.6293461
0.4631477
0.550191
0.7836199
1.041531
0.2510037
0.6372557
0.4687093
0.5444285
0.7460411
1.011344
0.2716414
0.6334243
0.4778472
0.5494082
0.7137379
0.980292
0.2981303
0.6282875
0.4864536
0.5485229
0.6985646
0.9536073
0.3201447
0.6242099
0.4953738
0.5479376
0.6854915
0.9387288
0.334309
0.6125374
0.4909895
0.5408311
0.6655779
0.9159864
0.3403153
0.6052057
0.4863569
0.5380607
0.6418198
0.8938416
0.3430708
0.5994759
0.4780717
0.5336236
0.6056397
0.8786298
0.3408464
0.5929945
0.468413
0.5272535
0.5895886
0.8699651
0.3356803
0.5884546
0.463465
0.525408
0.5726186
0.8625941
0.3306308
0.5876039
0.458866
0.5254695
0.5576253
0.8532195
0.3243056
0.5882641
0.4545363
0.5214463
0.5444686
0.8414106
0.3170493
0.5918625
0.4504701
0.518429
0.5331594
0.828484
0.3062659
0.5945902
0.4485702
0.5142133
0.5220673
0.8172867
0.2936264
0.5929717
0.4469006
0.512021
0.5117987
0.8067165
0.282183
0.5893379
0.4430314
0.5096595
0.5020308
0.7966822
0.2724852
0.5865103
0.4373139
0.5062298
0.4923441
0.7843005
0.2623569
0.5893282
0.4330762
0.5013798
0.4823409
0.7714805
0.2506561
0.5952317
0.4309107
0.4961041
0.7825562
0.4816952
0.5565218
0.5113873
0.5123065
0.4935528
0.6963916
0.9305218
0.3421329
0.6674156
0.4769845
0.5555817
0.8334214
1.035968
0.2499306
0.6688211
0.5017036
0.5849125
0.8216263
1.113921
0.2277075
0.6665314
0.4787344
0.5609347
0.8084196
1.12839
0.2079906
0.6464524
0.4792789
0.5744605
0.8018537
1.114933
0.1898892
0.6149043
0.4548182
0.5504629
0.7778795
1.085644
0.178724
0.6020069
0.4629886
0.5592098
0.7424513
1.03869
0.205787
0.6065462
0.4783621
0.5604607
0.7116236
0.9996387
0.2395841
0.6146512
0.4892923
0.5592781
0.6957313
0.9610533
0.2690435
0.6156826
0.4999052
0.5578833
0.699782
0.9382384
0.2919586
0.6034696
0.4940154
0.5497641
0.6933759
0.9245691
0.304857
0.5935824
0.4881234
0.54569
0.6473245
0.9181331
0.3103933
0.5904557
0.4840441
0.5480641
0.6017934
0.9073188
0.3079257
0.5965182
0.4823546
0.5515868
0.5721464
0.9079453
0.2980639
0.5970144
0.4825553
0.549825
0.5509917
0.8958834
0.2929
0.5954955
0.4788753
0.5447206
0.5368536
0.8850501
0.2851183
0.5938177
0.4766999
0.5429648
0.5256516
0.8727365
0.2772842
0.5931071
0.4741318
0.5377448
0.5156388
0.8619472
0.2661002
0.592549
0.4721755
0.5349136
0.5058059
0.8535761
0.2520077
0.5911095
0.4712382
0.5307795
0.494472
0.8462477
0.2395814
0.5903829
0.4682123
0.5269726
0.4781033
0.8410349
0.2290861
0.5890444
0.4615487
0.5225036
0.4599561
0.8368716
0.2165745
0.587538
0.4552563
0.516993
0.4421136
0.8345475
0.2031193
0.5852261
0.4485614
0.5106759
0.775161
0.4814417
0.5556049
0.5052059
0.5110428
0.4894322
0.6820517
0.9279849
0.3434638
0.6674301
0.4769921
0.5551913
0.9443722
1.039081
0.2505411
0.6690592
0.5016504
0.5848563
0.8209332
1.113155
0.2271707
0.6666744
0.4788029
0.5610193
0.8119467
1.127971
0.2076083
0.6466146
0.4793272
0.5744531
0.8189905
1.114427
0.1898843
0.6149383
0.4547265
0.5504261
0.80217
1.085142
0.1785538
0.6019197
0.4629641
0.5591949
0.7792055
1.038419
0.2056503
0.6064383
0.4783502
0.5604253
0.7501181
0.9995036
0.2394848
0.6145327
0.4892711
0.5592394
0.7250715
0.9610201
0.2689959
0.6156014
0.4998677
0.5578314
0.7204545
0.9381635
0.2919127
0.6033613
0.4939643
0.5496929
0.7125435
0.9245953
0.3047866
0.5934757
0.4880632
0.5456316
0.6837001
0.9180867
0.3103308
0.5903742
0.484011
0.5480137
0.6248646
0.9072406
0.3079216
0.5964039
0.4823087
0.5515646
0.5344378
0.90786
0.2981529
0.5969473
0.4824619
0.5497712
0.5032099
0.8958161
0.2929088
0.5954245
0.478803
0.5446698
0.4853081
0.8849707
0.2850306
0.593722
0.4766397
0.5429058
0.4725428
0.8726045
0.2771833
0.5930064
0.4740409
0.5376823
0.4615565
0.8617753
0.2659566
0.5924573
0.4720394
0.5347633
0.4505862
0.853335
0.2518943
0.5911844
0.4711156
0.5307354
0.4366567
0.8459746
0.2396146
0.5905039
0.4677231
0.5268148
0.4178323
0.8407065
0.2292165
0.5891316
0.460777
0.5224822
0.4021476
0.8364608
0.2165829
0.5876333
0.4541601
0.5169934
0.3900398
0.8342786
0.2032032
0.5853632
0.4474556
0.5106515
0.7216735
0.4895069
0.5525509
0.5063424
0.5099416
0.4929043
0.6792306
0.8959486
0.3602008
0.6598927
0.486045
0.5537815
0.8023455
0.9830107
0.2991604
0.7063184
0.5144314
0.5865435
0.8038785
1.067493
0.2207603
0.6658204
0.467871
0.5525654
0.8125323
1.077228
0.1942523
0.639585
0.4797324
0.5653983
0.7962888
1.073722
0.2239931
0.6292104
0.4630602
0.550022
0.7859797
1.041368
0.2505806
0.6368862
0.4685769
0.5442369
0.7787616
1.011245
0.2713377
0.6331364
0.4777674
0.5492946
0.7558112
0.9802317
0.297894
0.6280576
0.4863996
0.5484455
0.711423
0.9534905
0.3199476
0.6240428
0.4953502
0.5478986
0.6862222
0.9385484
0.3341708
0.6123924
0.4909706
0.5408134
0.6741586
0.915683
0.3401796
0.6050801
0.4863261
0.5380229
0.6598694
0.8937284
0.3429721
0.5993778
0.4780502
0.5335745
0.6299568
0.8786268
0.340793
0.5929186
0.4684041
0.5272103
0.570719
0.8700432
0.3356647
0.5883982
0.463483
0.5253665
0.5375453
0.8626585
0.3306386
0.5876858
0.4589239
0.5254424
0.5179967
0.8532997
0.3243174
0.5884196
0.4546282
0.5214071
0.502339
0.8414817
0.3170556
0.5922195
0.4506457
0.5183915
0.4890405
0.8286248
0.3061663
0.5950507
0.4489956
0.5143048
0.4762675
0.8175179
0.2935112
0.5936053
0.4476046
0.5121493
0.4630098
0.8070481
0.2820056
0.5901259
0.4440056
0.5096943
0.4512429
0.7969952
0.2723585
0.5874821
0.4386691
0.5063347
0.4409392
0.7847108
0.2619795
0.5910954
0.4347006
0.5005288
0.4308303
0.7718564
0.2508418
0.5972623
0.4330283
0.4967297
0.6895102
0.5163446
0.5518001
0.5219321
0.5158421
0.5011478
0.7231454
0.8351241
0.4203039
0.6566547
0.5133522
0.5754468
0.8175312
0.8667584
0.3837195
0.7119861
0.5508088
0.5961321
0.7715016
0.9622331
0.323393
0.6956285
0.5056979
0.5818682
0.763925
0.9536002
0.3002306
0.6996174
0.5212292
0.586885
0.7499324
0.9492297
0.3080476
0.68095
0.5120565
0.5766529
0.7331718
0.9293395
0.3180444
0.6725189
0.5232373
0.5767515
0.7289937
0.8910375
0.3374971
0.6634271
0.5257343
0.5735094
0.720532
0.8682278
0.3591047
0.6512606
0.5270181
0.5706864
0.700332
0.8516168
0.3746182
0.6382424
0.5266833
0.5665312
0.6879382
0.8393016
0.3855901
0.6288891
0.5232441
0.5620486
0.6777152
0.8213805
0.3910749
0.6241613
0.5182626
0.5582478
0.6592818
0.8054273
0.3924779
0.6241096
0.5166443
0.5569457
0.6345994
0.7907042
0.3882596
0.6278587
0.5187863
0.5562208
0.5925534
0.7900409
0.3818927
0.6299672
0.5207099
0.5542853
0.56687
0.7852417
0.3764225
0.6278714
0.51856
0.5509222
0.5486112
0.778493
0.3702665
0.6248001
0.5153332
0.5476807
0.5340925
0.7709162
0.3633816
0.6210313
0.5114783
0.5437949
0.5220316
0.762036
0.355083
0.617299
0.5072334
0.5397943
0.5106706
0.7528577
0.3460389
0.6135113
0.5016753
0.5354023
0.5007773
0.7436956
0.3368672
0.6095178
0.4953483
0.5308894
0.491341
0.7344367
0.3273525
0.605456
0.4887046
0.5261614
0.4815963
0.7248178
0.3165818
0.601548
0.4835279
0.5215945
0.4711663
0.7156136
0.3051629
0.5976675
0.4772458
0.5160275
0.6726139
0.5587422
0.5668294
0.5360544
0.5267296
0.5131797
0.7321634
0.7878811
0.4620989
0.6507373
0.5274777
0.563555
0.7806219
0.8323602
0.4224356
0.6792096
0.5234189
0.5733613
0.7971822
0.8868101
0.347904
0.6740427
0.5105022
0.5630317
0.7801774
0.8913665
0.3342685
0.6837873
0.5153915
0.5635081
0.7670519
0.8901488
0.34766
0.6741173
0.5111209
0.5568098
0.7521771
0.8779529
0.3673144
0.6662763
0.5122152
0.5588176
0.7375207
0.8545303
0.3869274
0.6533655
0.5109077
0.5583857
0.7196987
0.8341208
0.4061748
0.6428278
0.5110388
0.5605998
0.7013146
0.8157715
0.4204005
0.6360323
0.5112185
0.5591091
0.6842672
0.8024373
0.4284051
0.6310589
0.50972
0.5564854
0.6711633
0.7906728
0.4311814
0.6272817
0.5073585
0.5544471
0.6571085
0.7797119
0.4303041
0.6236401
0.503994
0.552696
0.6423427
0.7678011
0.4251798
0.6191862
0.4995415
0.5495091
0.6258577
0.7605266
0.4193814
0.6148828
0.4948774
0.5453558
0.6107693
0.7531386
0.4131182
0.6095148
0.4896178
0.5401944
0.5972554
0.7453488
0.406175
0.6038955
0.4841593
0.5355958
0.5847983
0.7369597
0.3986552
0.5983182
0.4784665
0.5307089
0.5732051
0.7283596
0.3902272
0.592909
0.4727517
0.526054
0.562559
0.7199781
0.3810031
0.5874356
0.4667728
0.5214882
0.5526506
0.7117893
0.3715743
0.5818531
0.4602745
0.5166564
0.5429111
0.7037644
0.3621499
0.576488
0.4535266
0.5118726
0.5328843
0.6951609
0.3525202
0.5710012
0.4463863
0.5060796
0.7182892
0.6861827
0.3432736
0.5667283
0.4399676
0.501711
0.6603674
0.5850769
0.5691519
0.5516705
0.5359959
0.5228589
0.7522034
0.6149811
0.5523155
0.5852581
0.5495794
0.5400653
0.5259922
0.7532962
0.6169635
0.522245
0.589639
0.5354873
0.5285577
0.5121228
0.718574
0.6413443
0.5148235
0.5837568
0.5272387
0.5189698
0.5018841
0.7109967
0.6435403
0.5090926
0.5744435
0.5257985
0.5130167
0.4960143
0.7057996
0.6427549
0.5065062
0.5597557
0.5217498
0.5071345
0.4899406
0.7017756
0.6372939
0.5051833
0.5491239
0.5138531
0.5022851
0.4855774
0.6886544
0.6290209
0.5045055
0.5376354
0.5049267
0.4968037
0.4812687
0.6782762
0.6220828
0.5035044
0.5280569
0.4963916
0.4916859
0.4773294
0.6799087
0.6175788
0.501927
0.5217022
0.4894784
0.4864318
0.4731188
0.6697083
0.6109566
0.499905
0.5166126
0.4834098
0.4811085
0.4684744
0.6591835
0.6009028
0.4959889
0.5111103
0.4775276
0.4759122
0.4636804
0.645523
0.5886929
0.4902546
0.5055554
0.4719631
0.4710757
0.4589819
0.6290206
0.5779207
0.4837209
0.5001556
0.4666657
0.4661122
0.4540125
0.6134034
0.5688495
0.4769368
0.4947141
0.4614288
0.4607825
0.4487069
0.5990522
0.5586352
0.4694999
0.4885434
0.4555477
0.4548974
0.4430325
0.5864408
0.5471174
0.4611507
0.4817282
0.4491158
0.4487976
0.4371463
0.5747429
0.5346685
0.4519056
0.4744254
0.4422958
0.4424641
0.43102
0.563581
0.521542
0.441815
0.4667862
0.435234
0.4359979
0.4246963
0.5530105
0.5084608
0.4313797
0.4589629
0.4279021
0.4293572
0.4181331
0.5428813
0.4960836
0.4210083
0.4510537
0.420307
0.4224877
0.4112607
0.5332556
0.4846068
0.4107725
0.443112
0.412591
0.4154907
0.4041333
0.5243321
0.4739686
0.4004701
0.4351059
0.4050539
0.4085641
0.396927
0.5158483
0.5517799
0.3901322
0.4272624
0.3981152
0.4024009
0.3902304
0.7127587
0.6871031
0.8579818
0.7759083
0.6896375
0.6833346
0.7537686
0.7688945
0.8051551
0.734682
0.6759003
0.7471874
0.754737
0.7392327
1.231159
0.6917242
0.6692708
0.756764
0.7197018
0.707178
1.190356
0.6721999
0.6701764
0.7465923
0.7118601
0.690034
1.087343
0.6595278
0.6679413
0.7424909
0.7064368
0.689027
0.9769147
0.6592852
0.6638525
0.7393542
0.7022685
0.6893562
0.8720463
0.6652796
0.6621184
0.7386968
0.6890324
0.6932625
0.7600856
0.693279
0.6656111
0.7352658
0.6786136
0.7058558
0.7532008
0.7053037
0.6650259
0.7300788
0.6801205
0.709849
0.7447896
0.7035618
0.6584863
0.7242731
0.6698022
0.7022748
0.736972
0.7000042
0.6485474
0.7140413
0.6592394
0.6940629
0.7261689
0.6839179
0.6352574
0.7022786
0.6455353
0.6828987
0.7110605
0.6681482
0.6230619
0.6918762
0.6290529
0.6718437
0.6969786
0.6593027
0.6117122
0.6821658
0.6134312
0.6599554
0.6837305
0.6497203
0.5994155
0.6715996
0.5990526
0.647407
0.6716647
0.6392434
0.5867993
0.6616726
0.5864214
0.6357154
0.6607525
0.6284238
0.5752485
0.6522201
0.574706
0.624002
0.6502318
0.6177242
0.5640828
0.6426187
0.5635075
0.612127
0.6401249
0.6078657
0.5529112
0.6333725
0.5529067
0.6007934
0.6304234
0.598576
0.5425149
0.6243704
0.5427118
0.5903851
0.6211111
0.5900263
0.5329058
0.6153535
0.5330546
0.5800597
0.6121439
0.5823443
0.5234628
0.6064806
0.5240562
0.5700962
0.6036568
0.57562
0.5141471
0.552296
0.5155035
0.5605079
0.5956054
0.5693017
0.6895587
0.7356451
0.7527975
0.7223503
0.7515655
0.7849818
0.7119572
1.093512
0.7359997
0.7334776
0.7530737
0.7434419
0.7433948
1.346048
0.7779261
0.7592919
0.7552046
0.7771005
0.7801797
1.211713
0.8328499
0.7683685
1.115988
0.7952328
0.7839649
0.7980293
0.8568105
0.7587891
1.251164
0.7703503
0.7645755
0.7263823
0.8042497
0.7403763
1.346193
0.7593454
0.732642
0.7491629
0.7476246
0.7045521
1.09834
0.7312935
0.7198694
0.7527214
0.7804762
0.6833273
0.73584
0.7509908
0.6825408
0.85749
0.7712669
0.7101167
0.6756029
0.6151938
0.7030796
0.6918037
0.6771682
0.64297
0.5907446
0.6505188
0.6039154
0.6456037
0.6228095
0.5877625
0.6339308
0.5831671
0.6227613
0.6027786
0.5666631
0.6091389
0.5643417
0.6050528
0.5893331
0.5504833
0.5961629
0.5462619
0.5891719
0.5371208
0.5334162
0.7666956
0.8037383
0.73308
0.6877349
0.6816752
0.7378265
1.229935
0.6904612
0.6740772
0.7460332
0.7060933
1.189413
0.6712562
0.6681086
0.7558294
0.6892184
1.08668
0.6588038
0.6693109
0.7458552
0.6883992
0.9764187
0.6586933
0.6672839
0.7419136
0.6888602
0.8716687
0.6648243
0.6633713
0.7389402
0.7056314
0.7529469
0.7050543
0.6652946
0.7350855
0.7096776
0.7447166
0.7035691
0.6648815
0.7300535
0.7021575
0.7369392
0.7000475
0.6584424
0.7242464
0.6939331
0.7261846
0.6840442
0.6484911
0.713973
0.6827774
0.711053
0.6681391
0.635167
0.7022108
0.6718053
0.6969586
0.6592932
0.6230087
0.6918397
0.6599235
0.6837229
0.6497284
0.6116764
0.6821413
0.6473901
0.6716882
0.6392606
0.5994007
0.6716001
0.6357214
0.660801
0.6284789
0.5868135
0.661694
0.6240439
0.6503253
0.617811
0.5752893
0.6522782
0.6122026
0.6402693
0.607995
0.5641574
0.6427128
0.6009062
0.6306193
0.5987504
0.5530288
0.6335206
0.5905291
0.6213548
0.5902471
0.5426532
0.6245781
0.5802848
0.6124497
0.5826041
0.5331036
0.6156296
0.5703849
0.604024
0.5759378
0.5237547
0.606845
0.5609105
0.5960564
0.5697077
0.51454
0.5527495
0.6173499
0.7224872
0.6940511
0.6794226
0.6664943
0.678857
0.6183295
0.7054614
0.6061502
0.647385
0.5880428
0.6448199
0.5932171
0.6524708
0.5848
0.6239539
0.5710909
0.6240567
0.5892924
0.6352411
0.5654617
0.6058554
0.5528095
0.603615
0.5677531
0.6100241
0.5470413
0.5896925
0.5367736
0.5898828
0.5511672
0.5967213
0.5339298
0.5233788
0.5375848
0.5996542
0.701453
0.6248769
0.7096728
0.5709954
0.6876555
0.595008
0.7124432
0.5816857
0.6905402
0.6206138
0.7142797
0.5837034
0.6795454
0.6183977
0.6994494
0.5888287
0.676581
0.6204679
0.7030525
0.6039062
0.6777234
0.6272472
0.701164
0.616222
0.6766833
0.6334044
0.6981184
0.6252389
0.6759384
0.6312431
0.694415
0.6275864
0.674379
0.6312833
0.6897107
0.6300987
0.6717656
0.6265387
0.6849848
0.6274775
0.6673405
0.6200634
0.6776861
0.6184842
0.6570824
0.6091538
0.6644848
0.6084116
0.6452219
0.5960408
0.6521573
0.5989902
0.6352591
0.5847211
0.6418906
0.5894758
0.6256022
0.5748777
0.6323117
0.5805538
0.6149369
0.5648853
0.6217962
0.5730053
0.6047402
0.5556403
0.6100051
0.5649167
0.5951457
0.5466735
0.6009256
0.5567765
0.5857999
0.5378159
0.5920928
0.5488059
0.5765814
0.5289569
0.5837596
0.5402414
0.5679067
0.520621
0.5762688
0.5311274
0.5592239
0.5115219
0.5707806
0.5232227
0.5500818
0.5031654
0.5634588
0.6565694
0.677877
0.6687896
0.654573
0.6745749
0.5975986
0.6798083
0.6184811
0.6952154
0.6875098
0.6113208
0.6634881
0.6270349
0.6793018
0.6880671
0.6748081
0.6832427
0.6473251
0.6928719
0.7597256
0.6928229
0.6616882
0.738333
0.7884615
0.6899649
0.6586399
0.7389217
0.6176193
0.7058603
0.5946798
0.6914833
0.683742
0.6545037
0.5746651
0.7043004
0.6174915
0.6742588
0.6183178
0.7157464
0.5738806
0.6931982
0.6240621
0.7139659
0.5836457
0.6902824
0.6251272
0.708344
0.5862306
0.6786255
0.6299144
0.705322
0.5964343
0.6815655
0.6391115
0.6998095
0.6092998
0.6823409
0.6383263
0.6968978
0.6238218
0.6808773
0.6372714
0.6945207
0.6359556
0.6788045
0.6316681
0.6918942
0.6439804
0.6754949
0.6244332
0.6860062
0.6445866
0.6721348
0.6151115
0.6743528
0.6364452
0.6651639
0.6026703
0.6613461
0.6255105
0.6538041
0.5902112
0.6511974
0.615713
0.6431234
0.579315
0.6416057
0.6071486
0.6326315
0.5693408
0.6295498
0.5985857
0.6214748
0.560188
0.6195307
0.5903936
0.6105073
0.5520975
0.6101835
0.5820081
0.6003295
0.5439893
0.6012798
0.5735827
0.5915807
0.535978
0.5927342
0.5653238
0.5828797
0.5282014
0.5850579
0.5572354
0.5745824
0.5198803
0.5778359
0.5486129
0.5659002
0.510942
0.5698018
0.5399471
0.5577456
0.5023985
0.5624911
0.5407568
0.5491252
0.5315705
0.6796232
0.6652504
0.6196847
0.6867165
0.6057668
0.666858
0.6705046
0.6714647
0.6914985
0.635284
0.6615442
0.6108239
0.6877878
0.6549509
0.6638676
0.7029194
0.62446
0.7266008
0.7856425
0.6878653
0.6572125
0.7410053
0.619955
0.7065941
0.5939395
0.689598
0.6749654
0.6665019
0.6859002
0.6705564
0.6515632
0.6514524
0.6634343
0.6521714
0.6419802
0.6214366
0.6210472
0.6345531
0.6128381
0.6217583
0.6311135
0.6138276
0.6241151
0.5982755
0.5984425
0.6184897
0.5962415
0.6050316
0.6147923
0.5975205
0.6023496
0.5798127
0.579051
0.597087
0.574755
0.5850299
0.5934131
0.5762618
0.5853986
0.561262
0.5609517
0.5806372
0.5719969
0.5477786
0.5477297
0.5982823
0.7000608
0.6233947
0.7079945
0.5730693
0.7026033
0.6159183
0.6722573
0.5696035
0.6860984
0.5935545
0.7110096
0.6170087
0.7144983
0.5726528
0.691839
0.5805867
0.6893376
0.6194471
0.7131618
0.6230365
0.7130235
0.5826924
0.6892234
0.5828777
0.6786396
0.6175152
0.6986397
0.6243658
0.7076298
0.585525
0.6778473
0.5882078
0.6758989
0.6198106
0.7024146
0.6293231
0.7047576
0.595869
0.6809525
0.6034032
0.6771835
0.6267271
0.700668
0.6386651
0.6994025
0.6088235
0.6818691
0.6248969
0.6754809
0.6306176
0.6941429
0.6370026
0.6943311
0.6356907
0.6785782
0.6274135
0.674185
0.6310606
0.6895894
0.6315499
0.6918386
0.64391
0.6753713
0.6300253
0.6716952
0.6264681
0.6849388
0.6243907
0.6860135
0.6445732
0.6720854
0.6274415
0.6673092
0.6200347
0.6776699
0.6151004
0.6743455
0.6364503
0.6651295
0.6184344
0.6570505
0.6091393
0.6644297
0.602645
0.6613125
0.6254757
0.6537526
0.6083848
0.6451711
0.5960271
0.652121
0.5902147
0.6511543
0.6157332
0.6430985
0.5989664
0.6352252
0.58471
0.6418396
0.579302
0.6415986
0.6071315
0.6326124
0.5894552
0.6255907
0.5748635
0.6323265
0.5693456
0.6295662
0.5986298
0.621479
0.560205
0.6195616
0.5903972
0.6105276
0.573032
0.6047612
0.5556609
0.6100584
0.5521402
0.6102509
0.5820868
0.6003704
0.5649821
0.5952057
0.5467379
0.6010009
0.5440667
0.6013757
0.5736538
0.5916658
0.5568873
0.5858862
0.5379121
0.5922121
0.5361109
0.5928904
0.5655098
0.5829955
0.5489787
0.5767443
0.5291407
0.5839294
0.5283835
0.5852412
0.5574336
0.5747638
0.5404784
0.568114
0.5208307
0.576489
0.52012
0.5781138
0.5488923
0.5661413
0.5314172
0.5594975
0.511798
0.5711188
0.5112506
0.5701687
0.5402718
0.5580608
0.5236152
0.5504489
0.5035143
0.5638801
0.5028038
0.5823217
0.5495408
0.5320575
0.8242568
0.7240112
0.6688195
0.6884647
0.6777183
0.6731438
0.6442708
0.6238594
0.6235522
0.6367444
0.6256833
0.6000126
0.6001557
0.620025
0.6033968
0.5809882
0.5802188
0.5981102
0.5861026
0.5620502
0.5617288
0.5813333
0.572466
0.5483107
0.5482529
0.568363
0.6836097
0.7014122
0.6753554
0.8322249
0.6858376
0.6751984
0.6562184
0.8909802
0.694794
0.6752308
0.6646562
0.8549003
0.6936343
0.6677936
0.6655052
0.8023915
0.6931021
0.6665405
0.6656495
0.7622662
0.6874536
0.6666062
0.6706202
0.7321576
0.6812136
0.66234
0.6677931
0.7166848
0.6777327
0.6528551
0.6670336
0.707722
0.6789754
0.6542078
0.6693092
0.7029417
0.6781515
0.6543564
0.6704614
0.6969334
0.6726464
0.649686
0.6657748
0.6896285
0.662347
0.6395189
0.6553257
0.6782132
0.6505871
0.6273473
0.6427467
0.6655497
0.6402757
0.616479
0.6313277
0.6545326
0.6302081
0.6057501
0.619962
0.6438142
0.6203305
0.5950794
0.6088091
0.6333015
0.6112297
0.585574
0.5985785
0.6238386
0.6023087
0.5766739
0.5887091
0.6147788
0.5935423
0.5680989
0.5792002
0.6059422
0.5848667
0.5597746
0.5700708
0.5972916
0.5762438
0.5516671
0.5613305
0.5887261
0.5674297
0.5432016
0.5522842
0.580021
0.5589748
0.5345604
0.5430657
0.5717054
0.6584997
0.7864606
0.6189789
0.807723
0.6699689
0.6883014
0.6906149
0.697234
0.725139
0.7720347
0.6997735
0.6892412
0.717356
0.7335685
0.8160675
0.5899041
0.6867365
0.6880787
0.688598
0.7083207
0.7108673
0.6852077
0.6923272
0.7683153
0.6776601
0.7232056
0.702819
0.7341133
0.6571401
0.8868482
0.6859254
0.6862403
0.6625767
0.865575
0.6944902
0.6824414
0.6700898
0.8148282
0.6970426
0.676408
0.670626
0.7736252
0.6965001
0.6709826
0.6758523
0.7384269
0.6904652
0.6715561
0.6714386
0.7219408
0.6831259
0.6562929
0.6709056
0.7125817
0.6807493
0.6545612
0.6722893
0.7078862
0.6824224
0.6570214
0.6755194
0.7030488
0.6837299
0.6599456
0.6747599
0.6964801
0.6795393
0.6574733
0.6656107
0.6860223
0.6701045
0.6486385
0.6531461
0.6732601
0.6582744
0.6366825
0.6417016
0.6621966
0.6478545
0.6257228
0.6301793
0.6515154
0.6376991
0.6150271
0.6188511
0.6404188
0.627588
0.6039748
0.6080383
0.6305753
0.6179077
0.5939489
0.5978401
0.6213516
0.6086501
0.5846266
0.5880499
0.6124853
0.5995729
0.5756665
0.5785818
0.604052
0.5911816
0.567009
0.569503
0.5959294
0.5828583
0.5586785
0.5604833
0.5876673
0.5743445
0.5503697
0.5510142
0.5795972
0.5658888
0.5419549
0.5420126
0.5721989
0.5341449
0.5580759
0.8179225
0.7962071
0.7604278
0.71714
0.7672723
0.7016968
0.7450178
0.700749
0.7025897
0.7750622
0.7159117
0.6912184
0.5904756
0.8082615
0.7097407
0.7683778
0.782714
0.7196419
0.6414794
0.6257014
0.6544179
0.6251623
0.5731419
0.5988596
0.5898207
0.5742526
0.5814043
0.5604587
0.5914029
0.562038
0.5594973
0.5714705
0.5790843
0.5600213
0.5678602
0.5467069
0.5775301
0.5483848
0.682203
0.7019371
0.8267068
0.6739188
0.6553935
0.8852103
0.6842753
0.684441
0.5805719
0.6149493
0.5649019
0.6217954
0.5696949
0.5961256
0.5830557
0.5588636
0.5764546
0.5518704
0.5889362
0.5615333
0.5513868
0.5799517
0.5662458
0.5423087
0.5593553
0.5349349
0.5720911
0.5434496
0.5425666
0.572636
0.5346324
0.5585543
0.5248473
0.7166696
0.7329149
0.5756147
0.6939495
0.7533131
0.697186
0.7149174
0.6765176
0.8052162
0.6542505
0.6539457
0.6660747
0.6547636
0.6149061
0.6235601
0.6330147
0.6159449
0.5976765
0.6062535
0.6160851
0.5990059
0.5756999
0.5858465
0.5942697
0.5772469
0.5601475
0.5720265
0.5796729
0.5607063
0.6673973
0.8623706
0.6914026
0.6908941
0.6550175
0.8864812
0.6898167
0.6782247
0.6669242
0.8413199
0.6952188
0.6780535
0.6651809
0.7915835
0.6937129
0.6659945
0.6705272
0.7553638
0.6937699
0.6661418
0.6733007
0.7297391
0.68638
0.6687979
0.6700735
0.7158172
0.6811711
0.6537173
0.6695733
0.7093785
0.6802074
0.6532634
0.6721391
0.7035137
0.6812642
0.6549367
0.6719094
0.6967586
0.6787166
0.654329
0.6664505
0.6889905
0.6720163
0.6490739
0.6551294
0.6768939
0.6610169
0.6382538
0.6425994
0.6648004
0.6496204
0.6265243
0.6312686
0.653974
0.6392713
0.6158709
0.6200575
0.6431942
0.6287414
0.6052804
0.6092641
0.6329436
0.6185546
0.5950723
0.5997312
0.6234258
0.6094052
0.5859082
0.5901399
0.6143825
0.6004226
0.5769165
0.5808122
0.6056305
0.5917345
0.5679825
0.5716406
0.5971657
0.5833365
0.5592049
0.5630483
0.588733
0.5750577
0.5507231
0.5539791
0.580512
0.5666263
0.542205
0.5447536
0.5726828
0.5584842
0.533957
0.8269894
0.6852978
0.8006561
0.6677975
0.7712874
0.7036933
0.7372013
0.7656024
0.727016
0.8001346
0.6969617
0.7641327
0.6330364
0.7599643
0.6851964
0.8106478
0.7549265
0.731211
0.6762471
0.6329597
0.6977491
0.6157059
0.7402991
0.6747507
0.7183156
0.7415487
0.678495
0.7172986
0.6928066
0.7487613
0.8086544
0.693242
0.6883417
0.6739503
0.6538105
0.8775183
0.6927216
0.6762506
0.6590211
0.8795027
0.6968005
0.6718532
0.6676804
0.8298749
0.6952263
0.6667498
0.6659367
0.7830153
0.6917743
0.6693105
0.6706583
0.7448247
0.6859958
0.6672927
0.672197
0.7252399
0.6818187
0.6553496
0.6693781
0.7131723
0.6794634
0.6549472
0.6697387
0.7063537
0.6802679
0.6547653
0.6713462
0.7008986
0.6766022
0.6515674
0.66948
0.6942179
0.6684153
0.6439547
0.6613751
0.6850992
0.6570271
0.6323174
0.6494073
0.6725293
0.6462398
0.6208582
0.6374523
0.6608957
0.6360006
0.6101516
0.6260775
0.6499522
0.625511
0.599262
0.6142592
0.6387729
0.6155651
0.589391
0.6034546
0.6287112
0.6065244
0.5805589
0.5937425
0.6195286
0.5978934
0.572144
0.5843407
0.6109278
0.5894385
0.5640028
0.575298
0.6025256
0.5811565
0.5560802
0.5666027
0.5942781
0.5727652
0.5478725
0.5578048
0.5859088
0.5643396
0.539613
0.5487868
0.5776682
0.556524
0.5316861
0.5402435
0.5700201
0.6627159
0.8342571
0.6435551
0.7929362
0.6883241
0.7856685
0.7071913
0.707018
0.8114509
0.7205887
0.7720654
0.644042
0.7996736
0.6182488
0.7903621
0.6908001
0.6901006
0.678166
0.6617249
0.6799464
0.6571266
0.674865
0.6663321
0.6461903
0.6767102
0.648727
0.621045
0.6423646
0.6205761
0.6351359
0.6294306
0.6092012
0.6408475
0.6108709
0.5646767
0.5891325
0.5646444
0.5809518
0.5512544
0.5511849
0.6659099
0.8596505
0.6892088
0.6895939
0.6865058
0.6722681
0.6520106
0.8755611
0.5717957
0.5973364
0.5593621
0.5835021
0.581337
0.5562546
0.566774
0.5944661
0.5632775
0.5889575
0.5509425
0.5752874
0.564667
0.5399321
0.5491129
0.5780002
0.545176
0.5730989
0.5343651
0.5588991
0.5078117
0.5237001
0.5073488
0.551749
0.5522984
0.524226
0.5414972
0.5168245
0.4951442
0.5512691
0.5264837
0.5639395
0.5344673
0.5639615
0.4956016
0.6104492
0.6355193
0.6110532
0.6271918
0.5853237
0.575773
0.5601976
0.5587163
0.6612882
0.8643383
0.6932536
0.6811559
0.69363
0.6740296
0.8537301
0.6634432
0.6752567
0.7379189
0.670978
0.6899394
0.6869366
0.6660728
0.7316696
0.670068
0.6773518
0.6523724
0.6666358
0.7072013
0.64166
0.6621649
0.6478167
0.6256869
0.6402414
0.6164448
0.6545039
0.631289
0.6188602
0.6404341
0.6276011
0.6039867
0.5950939
0.6333207
0.6088244
0.6203428
0.6080735
0.6306037
0.6179322
0.5939762
0.6112505