/*--------------------------------*- C++ -*----------------------------------*\
  =========                 |
  \\      /  F ield         | OpenFOAM: The Open Source CFD Toolbox
   \\    /   O peration     | Website:  https://openfoam.org
    \\  /    A nd           | Version:  7
     \\/     M anipulation  |
\*---------------------------------------------------------------------------*/
FoamFile
{
    version     2.0;
    format      ascii;
    class       volVectorField;
    location    "0.03";
    object      U;
}
// * * * * * * * * * * * * * * * * * * * * * * * * * * * * * * * * * * * * * //

dimensions      [0 1 -1 0 0 0 0];

internalField   nonuniform List<vector> 
109978
(
(0.4616895 0.0419625 0.003773557)
(0.4720083 0.03487784 -0.005659771)
(0.4546792 0.03117226 -0.004246018)
(0.4440951 0.03109027 -0.004166218)
(0.4323066 0.03024603 -0.003999738)
(0.4204551 0.02981489 -0.003926985)
(0.4557575 0.02670003 0.008636836)
(0.4820268 0.02595786 -0.008925909)
(0.461811 0.02648104 -0.007539664)
(0.4508537 0.02677826 -0.007089528)
(0.4384899 0.02694176 -0.006905681)
(0.4264184 0.02686595 -0.006778536)
(0.4522595 0.03594606 0.006862756)
(0.4837974 0.03874698 -0.008398348)
(0.4627895 0.03861775 -0.007507316)
(0.4515142 0.03879187 -0.007056968)
(0.4390015 0.03880562 -0.006916833)
(0.4268894 0.03868828 -0.006793861)
(0.4545831 0.04995422 0.006380758)
(0.4832782 0.05161766 -0.008211609)
(0.4629042 0.05105787 -0.007660932)
(0.4514869 0.05106402 -0.007226848)
(0.4388782 0.05096796 -0.007103952)
(0.4267144 0.05079521 -0.006977226)
(0.4577874 0.06263662 0.005919995)
(0.4832133 0.0644678 -0.008222431)
(0.4625672 0.06357932 -0.007737856)
(0.4510648 0.06345037 -0.007425563)
(0.4384161 0.06328839 -0.00733803)
(0.426225 0.06306056 -0.007198012)
(0.4611663 0.07465194 0.00594943)
(0.4830305 0.0770482 -0.008224821)
(0.4623232 0.07599628 -0.007903875)
(0.4506336 0.07583927 -0.007594486)
(0.4379306 0.07560592 -0.007533729)
(0.4257092 0.07532823 -0.007412258)
(0.4637686 0.08579128 0.005849939)
(0.4828794 0.08946178 -0.008256248)
(0.462172 0.08836508 -0.008113118)
(0.4502586 0.08822009 -0.007795338)
(0.4375071 0.0879574 -0.007745363)
(0.4252447 0.08763375 -0.007635693)
(0.4678597 0.09736584 0.005788328)
(0.4828706 0.1019071 -0.008316489)
(0.4620763 0.1007579 -0.00834001)
(0.4499259 0.1006209 -0.008006756)
(0.4370842 0.1003413 -0.007963545)
(0.4247454 0.09998348 -0.007860997)
(0.4721499 0.1092102 0.005961659)
(0.4831954 0.1145387 -0.008423377)
(0.4620296 0.113276 -0.008574965)
(0.4496151 0.1131008 -0.008227216)
(0.4366469 0.1127969 -0.008182233)
(0.4242157 0.1123991 -0.00807866)
(0.4753776 0.1217798 0.006038737)
(0.4834969 0.1273624 -0.008541281)
(0.4618419 0.125932 -0.008801944)
(0.4492659 0.1257256 -0.008430748)
(0.4362042 0.1253832 -0.00838134)
(0.4236764 0.1249334 -0.008277274)
(0.4776106 0.1346194 0.005993797)
(0.483713 0.1403515 -0.008690911)
(0.461593 0.1387399 -0.009030064)
(0.4488324 0.1384616 -0.008651811)
(0.4355954 0.1380665 -0.00858363)
(0.4229428 0.1375599 -0.008480195)
(0.4793652 0.1476398 0.006033157)
(0.4838384 0.1535213 -0.008897848)
(0.4612182 0.1516556 -0.009255048)
(0.4483608 0.1513375 -0.008873205)
(0.4350231 0.1508911 -0.008812411)
(0.422249 0.1503067 -0.008699927)
(0.480912 0.160794 0.005991029)
(0.4840317 0.1668789 -0.009168943)
(0.4608952 0.1647119 -0.009482114)
(0.4479001 0.1643353 -0.009096613)
(0.4344116 0.1638342 -0.009027879)
(0.4214948 0.163182 -0.008909859)
(0.482158 0.1740853 0.005793605)
(0.4839095 0.1802314 -0.009381182)
(0.4605826 0.1779465 -0.009705078)
(0.4474041 0.1775117 -0.009309409)
(0.4337368 0.1769396 -0.009236603)
(0.4206642 0.1762017 -0.009115312)
(0.4831704 0.1875417 0.005550744)
(0.4836949 0.1937879 -0.009590698)
(0.4602142 0.191374 -0.009924377)
(0.4468432 0.190865 -0.009517698)
(0.4329798 0.1902093 -0.009442057)
(0.4197342 0.1893747 -0.009317139)
(0.4840118 0.2011789 0.005270268)
(0.483402 0.2075386 -0.009793218)
(0.4597679 0.2049968 -0.01013958)
(0.4461989 0.2044037 -0.009721811)
(0.4321243 0.2036545 -0.009644292)
(0.4186926 0.2027121 -0.009516587)
(0.4847495 0.2149642 0.004947611)
(0.483077 0.2215023 -0.009994623)
(0.4592406 0.2188213 -0.01035168)
(0.4454628 0.2181374 -0.00992321)
(0.4311619 0.2172847 -0.009843761)
(0.4175268 0.2162237 -0.009713084)
(0.4854541 0.2289822 0.004619498)
(0.4826865 0.2356625 -0.01018687)
(0.4586323 0.2328617 -0.01055839)
(0.4446245 0.2320788 -0.01012235)
(0.4300759 0.2311122 -0.01004089)
(0.4162254 0.2299237 -0.009905093)
(0.486167 0.2432415 0.004270006)
(0.4822739 0.2500665 -0.0103758)
(0.4579439 0.2471376 -0.01076243)
(0.4436822 0.2462477 -0.01031738)
(0.4288588 0.2451569 -0.01023315)
(0.4147746 0.2438286 -0.01009205)
(0.48667 0.2576824 0.003907201)
(0.4817532 0.2646907 -0.01056774)
(0.4571567 0.261667 -0.0109624)
(0.4426234 0.2606639 -0.01050723)
(0.4275047 0.2594394 -0.0104209)
(0.4131642 0.2579548 -0.0102762)
(0.4871979 0.2724492 0.003540485)
(0.4811512 0.2795738 -0.01076014)
(0.4562671 0.2764743 -0.01115949)
(0.4414406 0.2753502 -0.01069239)
(0.4259948 0.2739762 -0.0106027)
(0.4113732 0.272319 -0.01045347)
(0.4875767 0.2875738 0.00315895)
(0.4804915 0.2947893 -0.01098692)
(0.4552669 0.2915884 -0.01134892)
(0.4401191 0.290333 -0.0108721)
(0.4243178 0.2887946 -0.01078305)
(0.4093926 0.2869486 -0.01062597)
(0.4462012 0.3152064 -0.02002219)
(0.4799775 0.3105485 -0.01138292)
(0.454173 0.3070435 -0.01153581)
(0.4386495 0.3056427 -0.01105518)
(0.4224598 0.3039256 -0.01096779)
(0.4071958 0.301867 -0.01079773)
(0.4585329 0.01772588 0.02142099)
(0.4718238 -0.00366991 0.01880861)
(0.4549195 -0.001745765 0.0210942)
(0.4440712 -0.001119888 0.01983393)
(0.4320437 -0.001088592 0.02011972)
(0.4202495 -0.001016711 0.01972773)
(0.4126807 -0.03295106 -0.03822677)
(0.4241067 -0.01092724 -0.03409576)
(0.4875704 0.04918653 0.02891239)
(0.4393698 0.01285975 -0.004998442)
(0.4465323 0.02226696 0.003680981)
(0.4293402 0.01813505 -0.0001496173)
(0.459692 0.004717287 -0.1138769)
(0.3911831 0.009799434 -0.05958276)
(0.4931778 0.03794881 0.02422411)
(0.4350663 0.02856434 -0.01369657)
(0.4485692 0.03100982 0.001455787)
(0.4288348 0.02975202 -0.001616359)
(0.4731869 0.02461254 -0.119911)
(0.3867278 0.03839262 -0.06718383)
(0.4871948 0.0456409 0.02149393)
(0.4331339 0.04424468 -0.009227601)
(0.4461163 0.04299326 0.002377987)
(0.4275648 0.04270377 -0.0007845299)
(0.466546 0.03438098 -0.1048751)
(0.3898659 0.05876803 -0.06387711)
(0.4873828 0.0535973 0.02216532)
(0.4333535 0.05516243 -0.009559565)
(0.4440012 0.05415557 0.0001085458)
(0.4273013 0.05430857 -0.001526608)
(0.4577676 0.04466697 -0.09017476)
(0.3966901 0.07412592 -0.05806696)
(0.4870475 0.06468257 0.02182163)
(0.4335334 0.06756746 -0.009056507)
(0.4437937 0.06649747 0.0004212176)
(0.4270319 0.06654271 -0.001260427)
(0.4495291 0.05579335 -0.078997)
(0.4034299 0.08589027 -0.05010981)
(0.4869009 0.07606604 0.02136702)
(0.4347074 0.07960628 -0.008764504)
(0.4442906 0.07850025 0.0009180284)
(0.426924 0.07850308 -0.00137467)
(0.4422238 0.06781856 -0.07002806)
(0.4105161 0.09704376 -0.04179325)
(0.4862052 0.08801435 0.02002166)
(0.4360174 0.09184236 -0.008372874)
(0.4454238 0.09066985 0.00200462)
(0.4268578 0.09083442 -0.001166707)
(0.4365585 0.08035058 -0.05939071)
(0.4172216 0.1082868 -0.03550937)
(0.4859427 0.1006337 0.01910903)
(0.4376355 0.1040005 -0.007549941)
(0.4462794 0.1029284 0.002934924)
(0.4267705 0.1031015 -0.0009828068)
(0.4324006 0.0886348 -0.04916142)
(0.4210493 0.1203359 -0.03407742)
(0.4854558 0.1139301 0.01825221)
(0.4386656 0.1161989 -0.006982788)
(0.4462504 0.1154742 0.003057145)
(0.4266276 0.1155302 -0.0008246033)
(0.430411 0.09781023 -0.04661332)
(0.4232389 0.1327585 -0.03396647)
(0.4856334 0.1273089 0.01829807)
(0.4392226 0.1284673 -0.006434371)
(0.4459735 0.1281393 0.003178064)
(0.4263273 0.1279697 -0.0006826516)
(0.4289394 0.1089377 -0.04325533)
(0.4249505 0.1450189 -0.03315226)
(0.4863421 0.1404978 0.01909866)
(0.4394542 0.1409899 -0.005995184)
(0.4457462 0.1408419 0.003320767)
(0.4259408 0.1404901 -0.000619528)
(0.4276657 0.1202256 -0.04163752)
(0.4266137 0.1576355 -0.03247987)
(0.4868739 0.1536953 0.01971643)
(0.4394979 0.153841 -0.005805969)
(0.4454634 0.1536812 0.003320489)
(0.4254538 0.1531934 -0.0006778794)
(0.4269582 0.1317343 -0.0409228)
(0.4278719 0.1703825 -0.03305937)
(0.4868238 0.1669137 0.02002384)
(0.4393048 0.1668569 -0.005768532)
(0.4450855 0.1666422 0.003252043)
(0.4248673 0.1660714 -0.0007384947)
(0.4265963 0.1444852 -0.04002608)
(0.4286792 0.183269 -0.03449939)
(0.4867993 0.1801536 0.02018093)
(0.4390052 0.1799901 -0.005869184)
(0.4446603 0.1797531 0.003105646)
(0.4242007 0.1791102 -0.0008010684)
(0.4262341 0.156872 -0.03913108)
(0.4291657 0.1965157 -0.03524923)
(0.4867791 0.1936133 0.02027572)
(0.4386116 0.1933361 -0.005908685)
(0.444185 0.193063 0.003070554)
(0.4234295 0.1922984 -0.0008123393)
(0.4259241 0.1684421 -0.03834652)
(0.4293624 0.2099681 -0.03567709)
(0.4867169 0.2072859 0.02042788)
(0.4380629 0.2068728 -0.005968716)
(0.4435971 0.2065534 0.003064249)
(0.422536 0.2056443 -0.0008381927)
(0.4255299 0.1802234 -0.03763648)
(0.4294293 0.2236517 -0.03606281)
(0.4866507 0.2211547 0.02076023)
(0.4373762 0.2205956 -0.006056148)
(0.4429259 0.2202256 0.00307878)
(0.4215209 0.2191857 -0.0008504076)
(0.425 0.1920995 -0.03689017)
(0.4294784 0.2374855 -0.03629438)
(0.4866194 0.2352685 0.02128602)
(0.4365384 0.2345319 -0.006186543)
(0.4421525 0.2341099 0.003082757)
(0.4203839 0.2329215 -0.0008661411)
(0.4243597 0.2040923 -0.03617027)
(0.429466 0.2515024 -0.03655187)
(0.486632 0.2496246 0.02191467)
(0.4355498 0.2487139 -0.006365498)
(0.4412775 0.2482561 0.003123061)
(0.4191038 0.2468872 -0.0008765411)
(0.4237455 0.2163777 -0.03545965)
(0.4292989 0.2656788 -0.03699289)
(0.4866245 0.2642224 0.02260519)
(0.434427 0.2631841 -0.006590188)
(0.4402844 0.2626897 0.003199327)
(0.4176573 0.2611155 -0.0008953174)
(0.4232813 0.2290183 -0.03484808)
(0.4290486 0.2801498 -0.0378335)
(0.4865432 0.2790679 0.02333039)
(0.4331833 0.2779396 -0.006781746)
(0.439166 0.2774018 0.00336013)
(0.4160202 0.2756264 -0.0009130845)
(0.4228901 0.2420366 -0.0343882)
(0.4288026 0.2950862 -0.03878859)
(0.4865249 0.2942424 0.02420319)
(0.4318513 0.2929839 -0.006950134)
(0.4379284 0.2923794 0.003536204)
(0.4141962 0.2904196 -0.0009304104)
(0.3998345 0.2688958 -0.04996391)
(0.4284961 0.3104181 -0.03982219)
(0.4865925 0.309787 0.02525101)
(0.4303953 0.308384 -0.007117191)
(0.4365639 0.3076593 0.003700792)
(0.4121821 0.3055146 -0.0009611491)
(0.4524292 0.01542427 0.003029953)
(0.4901816 -0.009212687 0.001651459)
(0.4662269 -0.007227586 0.002338589)
(0.4543888 -0.004788333 0.001447468)
(0.4425583 -0.006305439 0.004004458)
(0.4305542 -0.006108506 0.004320181)
(0.4543355 -0.1311382 0.004037687)
(0.3869701 -0.03361477 -0.02506832)
(0.4890953 0.04119472 0.005324744)
(0.4341164 0.006449775 -0.002099505)
(0.4490246 0.0217314 0.001239071)
(0.4287641 0.01701164 -0.0002096316)
(0.3328491 0.00435404 -0.06854138)
(0.3940572 0.008816273 -0.02596766)
(0.5224984 0.03216375 -0.003464546)
(0.4461895 0.0238441 -0.01010217)
(0.4536668 0.02925939 -0.002081373)
(0.4307235 0.02897939 -0.00147223)
(0.268345 0.0125512 -0.01161399)
(0.3967201 0.03749881 -0.02886635)
(0.5096607 0.04416107 -0.007398178)
(0.4362751 0.04462228 -0.008406183)
(0.451688 0.04305194 -0.001391423)
(0.4285319 0.0422862 -0.0005476594)
(0.3815493 0.02320122 0.004508178)
(0.4061127 0.06269186 -0.02684622)
(0.5082199 0.05557208 -0.007006538)
(0.4463181 0.05464767 -0.006494284)
(0.4530263 0.05336723 -0.001528118)
(0.4308906 0.05387813 -0.001601224)
(0.4139921 0.03168861 0.0018677)
(0.4098854 0.07832483 -0.0259796)
(0.5070757 0.06818232 -0.005612693)
(0.4447262 0.06812786 -0.005852561)
(0.4521387 0.06639873 -0.0001141172)
(0.4294783 0.06677715 -0.0005385682)
(0.4253019 0.04496216 -0.0004869275)
(0.4138004 0.0910096 -0.0235503)
(0.5050057 0.07961301 -0.003788722)
(0.4469205 0.08027878 -0.005220452)
(0.4513338 0.07850761 0.0003653655)
(0.4300243 0.0787224 -0.0009325934)
(0.4342883 0.05946907 -0.003696966)
(0.418681 0.1019555 -0.02052234)
(0.5023387 0.09125018 -0.001817013)
(0.4463714 0.09272891 -0.004572291)
(0.4501921 0.09137676 0.0003435048)
(0.4291164 0.09129712 -3.088722e-05)
(0.4436204 0.07599948 -0.004585881)
(0.4221785 0.1117613 -0.01785366)
(0.4970702 0.1032966 -0.0009768051)
(0.4449401 0.1049623 -0.003796717)
(0.4486985 0.1035108 0.0003215303)
(0.4286086 0.1035016 4.505516e-05)
(0.4507231 0.08791817 -0.003309525)
(0.425583 0.1222798 -0.01614042)
(0.4928984 0.1158048 -0.001301687)
(0.4451828 0.1169176 -0.00335833)
(0.4475165 0.1158105 8.807949e-05)
(0.4281566 0.1158401 0.0001303426)
(0.4484111 0.09556328 -0.003241048)
(0.4262464 0.1343706 -0.01588963)
(0.4909124 0.1285917 -0.0009892935)
(0.4445632 0.1293815 -0.002861578)
(0.4466109 0.1284521 0.0002821056)
(0.4276103 0.1282227 0.0002705802)
(0.4500496 0.1084425 0.0003763419)
(0.4254544 0.147036 -0.01672069)
(0.4892613 0.1411386 -0.0005187931)
(0.4437473 0.1418066 -0.0025609)
(0.4458624 0.1408925 0.0004190481)
(0.4270545 0.140591 0.000170015)
(0.4504368 0.1242701 0.004391595)
(0.4258789 0.1597072 -0.01757361)
(0.4886144 0.1539314 0.000128243)
(0.4438582 0.1543049 -0.00240067)
(0.4454736 0.1533765 0.0006602293)
(0.4266753 0.1531389 -0.0001506829)
(0.4485906 0.1381868 0.006091987)
(0.4264025 0.1721771 -0.01803398)
(0.4892852 0.1669293 0.001323999)
(0.4443645 0.1670952 -0.002257022)
(0.4452663 0.1661172 0.001033771)
(0.4260325 0.1659141 -0.0001123118)
(0.4468262 0.1512469 0.00780216)
(0.4268816 0.1853431 -0.0185846)
(0.4901708 0.1801711 0.002167386)
(0.4450734 0.180036 -0.002201987)
(0.4450947 0.179245 0.001263799)
(0.4253285 0.1788925 6.777865e-05)
(0.4460432 0.1644747 0.008382983)
(0.4271445 0.1993355 -0.01897236)
(0.4906793 0.1936902 0.00269159)
(0.4448392 0.1932639 -0.002091299)
(0.4447126 0.1926689 0.001402096)
(0.4245071 0.1921643 0.0004117605)
(0.4451954 0.176522 0.008478015)
(0.4270681 0.2133978 -0.01929151)
(0.4910282 0.2074983 0.003192123)
(0.444337 0.206716 -0.001938114)
(0.4442032 0.2061945 0.001526912)
(0.4236402 0.2055342 0.0005128199)
(0.4448107 0.1887954 0.008465707)
(0.426613 0.2273832 -0.01946)
(0.4912497 0.2215095 0.003666091)
(0.443661 0.2204088 -0.001818626)
(0.4435841 0.2198752 0.001623311)
(0.4226757 0.2191284 0.0006525394)
(0.444394 0.2011431 0.008336331)
(0.426067 0.2415065 -0.01962026)
(0.4915446 0.2357272 0.004288392)
(0.4430538 0.2343243 -0.001728509)
(0.4428818 0.233785 0.0015924)
(0.4215912 0.2329008 0.0007221361)
(0.4438914 0.2135152 0.008123563)
(0.4254143 0.2557091 -0.01995117)
(0.492097 0.2501562 0.00515375)
(0.4423613 0.2484664 -0.001604553)
(0.4420906 0.247971 0.001481311)
(0.4203382 0.2469008 0.0007346529)
(0.4436471 0.2265252 0.007890523)
(0.4246181 0.2700296 -0.02048716)
(0.492811 0.2648698 0.006025284)
(0.4415932 0.262913 -0.00145585)
(0.4412439 0.262473 0.001428232)
(0.4189064 0.2611426 0.0006975368)
(0.4430432 0.2396266 0.007317993)
(0.4233157 0.2843468 -0.02125416)
(0.4933454 0.2798685 0.006894689)
(0.4404466 0.2777085 -0.001276443)
(0.4402461 0.2772481 0.001531702)
(0.417241 0.2756737 0.0006944512)
(0.4423263 0.2527163 0.00685781)
(0.4217405 0.2989502 -0.02204228)
(0.4935093 0.2951086 0.007627822)
(0.4390414 0.2927821 -0.00106766)
(0.4390605 0.2922335 0.001747639)
(0.4153914 0.2904696 0.0007478651)
(0.4414755 0.2658956 0.006544162)
(0.4200771 0.3139308 -0.02290764)
(0.4934853 0.3106627 0.008318015)
(0.4375036 0.3081869 -0.0008399913)
(0.4377133 0.3075571 0.001946292)
(0.4133667 0.3055892 0.0008082284)
(0.4358995 0.01251966 -0.00442021)
(0.4933365 -0.009683857 -0.0006835201)
(0.4695425 -0.008922613 -0.002430403)
(0.4546228 -0.00519286 -0.0003486457)
(0.4430114 -0.005994318 0.0008973098)
(0.4302831 -0.005716922 0.001126819)
(0.50701 -0.1270666 0.002610499)
(0.3795523 -0.04716999 -0.01237398)
(0.4791793 0.0317898 0.001138866)
(0.4295068 0.004887344 -0.0003048164)
(0.4442338 0.01782947 -0.000501651)
(0.4276355 0.01718672 0.000294206)
(0.1150145 -0.001162193 -0.001779218)
(0.4204384 0.01319569 -0.01048811)
(0.5346048 0.02235669 -0.004086478)
(0.4483944 0.02146429 -0.005376145)
(0.4560392 0.02867864 -0.0002721821)
(0.43061 0.02941959 -0.0005411147)
(0.4547449 -0.0349359 0.007061434)
(0.4283519 0.03974252 -0.009760503)
(0.5127169 0.04430766 -0.005281344)
(0.4404924 0.04648464 -0.005197337)
(0.4471509 0.04185834 -0.001740751)
(0.4284381 0.04326667 0.0001258965)
(0.4465384 0.02806084 0.01334751)
(0.4222724 0.05845779 -0.0108136)
(0.5031211 0.05655195 -0.003935641)
(0.4446444 0.05714991 -0.00337351)
(0.4519049 0.05491044 -0.0001777391)
(0.4288186 0.05487997 3.031727e-05)
(0.4573227 0.04953072 0.008753462)
(0.4196901 0.07398209 -0.01024656)
(0.4965983 0.06911351 -0.001593558)
(0.4380217 0.07185542 -0.00195517)
(0.4465591 0.06728651 -0.0005679437)
(0.4271484 0.06811297 0.0007029175)
(0.4661801 0.06386449 0.005327411)
(0.420206 0.08828784 -0.009168165)
(0.4926162 0.08077504 0.0002276878)
(0.4378168 0.08220897 -0.0005912582)
(0.444313 0.0790322 -0.0008897494)
(0.4265683 0.07905242 0.0006300796)
(0.468574 0.08160077 0.002840137)
(0.421281 0.1021423 -0.009975777)
(0.4917328 0.09217436 0.0003925015)
(0.4389066 0.09354247 -0.0003208489)
(0.4449051 0.09093632 8.166836e-05)
(0.4265616 0.0908596 0.000556216)
(0.4719433 0.08842151 0.002379223)
(0.4266286 0.1127588 -0.008440701)
(0.4890613 0.1032961 0.0005463871)
(0.4405271 0.1049471 -0.0007499108)
(0.4443953 0.1030462 6.95226e-05)
(0.4265209 0.1031255 0.0004739798)
(0.4750802 0.09347492 0.002901568)
(0.4339662 0.1229685 -0.006454817)
(0.4889555 0.1154681 0.000111769)
(0.4430242 0.1169395 -0.001333333)
(0.4443572 0.1154929 -9.520887e-05)
(0.4266262 0.1156349 0.0002972314)
(0.4700928 0.09829235 0.003271703)
(0.4352914 0.1343028 -0.005235403)
(0.4850744 0.1284514 -0.0001340456)
(0.4424279 0.1295527 -0.001270133)
(0.4425642 0.1280834 -0.0004699496)
(0.4260932 0.1281484 0.0002958191)
(0.4682043 0.1112846 0.004593637)
(0.4358246 0.1470407 -0.005880437)
(0.4847984 0.1411603 -0.000481247)
(0.4422657 0.1419345 -0.001425913)
(0.4427211 0.1406788 -0.0002555585)
(0.4255886 0.140545 0.0002489303)
(0.4653003 0.1232855 0.009360736)
(0.4342927 0.1598191 -0.006893041)
(0.485476 0.1541306 -0.0007569856)
(0.4405166 0.1551492 -0.001992936)
(0.4430035 0.153588 -0.0001992633)
(0.4248889 0.1533307 -6.737532e-06)
(0.4612073 0.1365539 0.01227135)
(0.430788 0.1727469 -0.009374742)
(0.4831142 0.1669171 -0.0007434146)
(0.4378934 0.1683392 -0.002291323)
(0.4420458 0.1664049 -0.0003544935)
(0.4239482 0.1661478 -0.0001532753)
(0.4586568 0.1462885 0.01426881)
(0.4292775 0.1860233 -0.01034255)
(0.4821639 0.1799512 -0.0005459637)
(0.4367585 0.1808332 -0.002382021)
(0.4414093 0.1793584 -0.0003410188)
(0.4230754 0.1789858 -0.0001479086)
(0.4574443 0.1567548 0.01444589)
(0.4286143 0.1999756 -0.01053728)
(0.482184 0.1934109 -0.0004611646)
(0.4358654 0.1937051 -0.002113196)
(0.4408475 0.1925665 -0.0002035756)
(0.4221766 0.1922299 2.166834e-06)
(0.456567 0.1684157 0.01401341)
(0.4276307 0.2138554 -0.01091701)
(0.4824887 0.2071328 -0.0003046721)
(0.4348281 0.2069866 -0.001875332)
(0.4401105 0.2059785 -0.0001422917)
(0.4211873 0.2057247 6.639719e-05)
(0.4556195 0.182079 0.01362378)
(0.4266161 0.2279003 -0.0114632)
(0.4831013 0.2210523 -0.0001409297)
(0.4337204 0.220481 -0.001585463)
(0.4388485 0.2195148 -0.0002271042)
(0.4200975 0.219277 0.0002051047)
(0.454751 0.1955529 0.01317978)
(0.4259171 0.2418583 -0.01197839)
(0.4839232 0.235255 9.391946e-05)
(0.4335208 0.2345726 -0.001259054)
(0.437714 0.2333159 -0.0002157383)
(0.4190018 0.2329538 0.0003241405)
(0.4540638 0.2077691 0.01280528)
(0.4251041 0.2558356 -0.01262223)
(0.4842277 0.2496344 0.0003444402)
(0.4335898 0.248932 -0.0008651716)
(0.4370773 0.2474529 -2.356735e-06)
(0.4178425 0.2468136 0.0004673611)
(0.4534551 0.2203915 0.01245886)
(0.4241496 0.2698827 -0.01339981)
(0.4844652 0.2642622 0.0005394536)
(0.4331819 0.263551 -0.0004695498)
(0.4367802 0.261988 0.0003621531)
(0.4164864 0.2610252 0.0006103863)
(0.452699 0.2331752 0.01195886)
(0.422466 0.2840081 -0.01432359)
(0.4840954 0.2791268 0.0007492316)
(0.4317272 0.2783504 -2.199058e-05)
(0.4360445 0.2768783 0.000742344)
(0.4147989 0.2756343 0.0007200408)
(0.4516752 0.2462023 0.01153354)
(0.4204892 0.2986231 -0.01534431)
(0.4841664 0.2943191 0.001235601)
(0.4298335 0.2932517 0.0004042752)
(0.4345125 0.2919083 0.0008916206)
(0.412816 0.2905289 0.0008229125)
(0.4506303 0.259209 0.01122858)
(0.41841 0.3135345 -0.01635533)
(0.4846226 0.3098857 0.001998653)
(0.4281723 0.3085337 0.0007667522)
(0.4326873 0.3071561 0.0009460079)
(0.4106548 0.3056652 0.00090644)
(0.4353082 0.01224702 -0.006739876)
(0.4928578 -0.009074228 -0.0006910734)
(0.4711328 -0.008349624 -0.001404023)
(0.4581641 -0.006484267 -0.000131518)
(0.4433813 -0.005945892 -6.48948e-05)
(0.4305509 -0.00560406 0.0002630919)
(0.521519 -0.120101 0.007141784)
(0.3771465 -0.04853126 -0.004038161)
(0.4825343 0.03573391 0.0001546487)
(0.4287285 0.004290835 -0.0004194918)
(0.4436638 0.01629692 -0.0004695624)
(0.4275273 0.0167098 -0.0003974738)
(0.1635339 0.003205867 -0.00951641)
(0.4167862 0.008348832 -0.002337525)
(0.5245194 0.01463619 -0.00299429)
(0.4495004 0.02420737 -0.00049074)
(0.456063 0.02773446 -0.0005064076)
(0.4319514 0.02849227 -0.0004205432)
(0.4646704 -0.03098204 0.0007813087)
(0.4499528 0.04496325 0.0003316045)
(0.5157837 0.04318064 -0.002535045)
(0.4487167 0.04516519 -0.002256074)
(0.4501851 0.04201836 -0.0009101624)
(0.4296919 0.04291096 -0.0007381071)
(0.4576919 0.02754451 0.004176067)
(0.4312433 0.0588401 0.0001852634)
(0.5088961 0.05770351 -0.001905374)
(0.4487902 0.05723731 -0.001738979)
(0.4528936 0.05534826 -0.0007927354)
(0.4321064 0.05418505 -0.0006111771)
(0.4672031 0.03895096 -0.001256538)
(0.4175505 0.07483275 -0.001291595)
(0.4991997 0.07014656 -0.001255137)
(0.4417377 0.07190542 -0.002201304)
(0.4483277 0.06738972 -0.0009740232)
(0.4283812 0.06743533 -0.0008956031)
(0.4743738 0.05068702 -0.001947476)
(0.4169886 0.09016839 -0.00168974)
(0.4932173 0.08173594 -0.001115031)
(0.4455042 0.08197314 -0.001826302)
(0.4487315 0.0788613 -0.0008761167)
(0.430552 0.07898208 -0.0006615404)
(0.4773207 0.06202444 -0.001318128)
(0.4207853 0.1029272 -0.001300824)
(0.4931566 0.09276928 -0.0006549874)
(0.4462288 0.09372726 -0.001552845)
(0.4480592 0.090729 -0.0008669117)
(0.4299088 0.09123589 -0.0006082876)
(0.4818141 0.07634392 -0.001981735)
(0.4254084 0.1131629 -0.000922187)
(0.4921645 0.103487 -0.0003955606)
(0.4467187 0.1052602 -0.00146879)
(0.4468934 0.1029581 -0.0007617381)
(0.4292293 0.1033548 -0.0005424639)
(0.4859815 0.09039264 -0.002406153)
(0.4337702 0.1227893 -0.0005437552)
(0.4918437 0.1153602 -0.0004549302)
(0.4487211 0.1171042 -0.001083223)
(0.4466184 0.1154848 -0.0007727603)
(0.428931 0.1156153 -0.0004264095)
(0.4807652 0.102467 -0.001279592)
(0.4367979 0.133614 -0.0004211407)
(0.4886217 0.1284505 -0.0006130173)
(0.4473489 0.1295409 -0.001205596)
(0.4453436 0.1282481 -0.0006781597)
(0.4277234 0.1281743 -0.0006062168)
(0.4783575 0.1186989 2.475128e-05)
(0.4378081 0.1458971 -0.0007414915)
(0.4868712 0.1409886 -0.0007454323)
(0.4462428 0.1415704 -0.001249776)
(0.4447225 0.140565 -0.000668549)
(0.4269859 0.1403647 -0.0006661766)
(0.4726318 0.1318863 0.0024403)
(0.4410223 0.1587711 -0.000909409)
(0.4891157 0.1538616 -0.00134503)
(0.4470086 0.1540275 -0.001081987)
(0.445973 0.1531799 -0.001112854)
(0.4268748 0.1529562 -0.0006082197)
(0.4655089 0.1352923 0.01003899)
(0.4427268 0.1716193 -0.0007748112)
(0.4921315 0.1671323 -0.001876507)
(0.447882 0.1670839 -0.001209234)
(0.446613 0.1662048 -0.001627084)
(0.4266911 0.1659153 -0.0004061935)
(0.4626678 0.1431067 0.01583895)
(0.4419743 0.1853622 -0.0005899701)
(0.4927737 0.180518 -0.00218939)
(0.4480273 0.1800983 -0.001136282)
(0.4465365 0.1795974 -0.001912746)
(0.4257972 0.1789615 -0.0006037278)
(0.4613224 0.1547473 0.01557613)
(0.4404265 0.1994923 -0.0009565176)
(0.4928752 0.1941411 -0.002093042)
(0.4460022 0.1936631 -0.001729164)
(0.4457633 0.193057 -0.001821463)
(0.4242112 0.1924159 -0.001070834)
(0.4605852 0.166666 0.01491994)
(0.4395183 0.2131388 -0.0008760455)
(0.4919757 0.2078409 -0.001847058)
(0.4455008 0.2071878 -0.001485742)
(0.444856 0.2064178 -0.001800644)
(0.4235557 0.2056648 -0.0007804343)
(0.459704 0.1796458 0.01415071)
(0.4384217 0.226959 -0.0008662983)
(0.4912666 0.2217132 -0.001571719)
(0.4444382 0.2209067 -0.001304504)
(0.4438801 0.2200663 -0.001711542)
(0.4220139 0.2193763 -0.000994292)
(0.4589808 0.1923496 0.0134186)
(0.4369088 0.2408763 -0.000924558)
(0.4904024 0.2358105 -0.001285302)
(0.4434406 0.234812 -0.001093011)
(0.4426636 0.2338277 -0.001521768)
(0.4208099 0.2331229 -0.0008652193)
(0.4582023 0.2053236 0.01270965)
(0.4352261 0.2549511 -0.0009690046)
(0.4892612 0.2500678 -0.001101914)
(0.4425293 0.2489586 -0.0009097529)
(0.4411365 0.2479285 -0.00127249)
(0.4192663 0.247179 -0.0008209198)
(0.4574302 0.2184177 0.01212841)
(0.433463 0.2691126 -0.0009267522)
(0.4884469 0.2646539 -0.0009297115)
(0.441105 0.263469 -0.0008033047)
(0.4394626 0.2624654 -0.001017682)
(0.4176797 0.261358 -0.0006309144)
(0.4563188 0.2315527 0.01186426)
(0.4309996 0.2833055 -0.0008474193)
(0.4876784 0.2795551 -0.0007050856)
(0.4388327 0.2783614 -0.0007566683)
(0.4380339 0.2772527 -0.0008554542)
(0.4159512 0.2757573 -0.0004537792)
(0.4547899 0.2446709 0.01151911)
(0.4282539 0.297787 -0.0008592778)
(0.4866389 0.2946977 -0.0004089238)
(0.4369988 0.2934402 -0.0006222752)
(0.4366083 0.2921681 -0.0007843399)
(0.4140019 0.2904865 -0.0003708797)
(0.4530944 0.2579105 0.01114529)
(0.425341 0.3124897 -0.0009739631)
(0.4857115 0.3101563 -0.0001421596)
(0.4354173 0.3087825 -0.0004527584)
(0.4351512 0.3074667 -0.0007359682)
(0.4119577 0.3055721 -0.0003155874)
(0.4361526 0.007772937 0.001372533)
(0.4931123 -0.009253138 0.000175932)
(0.4688345 -0.005962891 0.0002616128)
(0.4545836 -0.004357804 6.730515e-05)
(0.4413636 -0.004194614 2.60382e-05)
(0.4285526 -0.004045641 1.688742e-05)
(0.5152851 -0.1301979 -0.00109702)
(0.3766678 -0.04788063 0.004601617)
(0.4822733 0.0356542 -0.0001133956)
(0.4287215 0.004248416 0.0005033792)
(0.4436097 0.01623016 0.0004663325)
(0.427517 0.01671478 0.0004272144)
(0.1149119 0.002109246 0.000862499)
(0.4170457 0.008295449 0.002365633)
(0.5246435 0.01466857 0.002955206)
(0.449623 0.02423832 0.0004879639)
(0.4560715 0.02772191 0.0005328962)
(0.4319919 0.02847892 0.0004247095)
(0.4823865 -0.0730921 -0.0005785161)
(0.4498243 0.04493841 -0.0002931395)
(0.5158934 0.04318639 0.002568561)
(0.4487402 0.04516997 0.002257274)
(0.4502582 0.04203547 0.0009161424)
(0.4296956 0.04290859 0.0007457471)
(0.4652868 0.01074452 -0.001863055)
(0.4311715 0.05883863 -0.0001624154)
(0.5089558 0.05770129 0.0019201)
(0.4487832 0.05724511 0.001738743)
(0.4529008 0.05535014 0.0007947967)
(0.4320996 0.05418864 0.0006111396)
(0.4749096 0.04337499 0.001956151)
(0.4175841 0.07482091 0.001314546)
(0.4992206 0.07014686 0.00125545)
(0.4417196 0.07191814 0.002198385)
(0.4483221 0.06738852 0.0009739876)
(0.4283825 0.06743486 0.000901507)
(0.481515 0.05823103 0.0032527)
(0.4170003 0.09015327 0.001718648)
(0.4932106 0.0817352 0.001115292)
(0.4455136 0.08197576 0.001830269)
(0.4487358 0.07885834 0.000877409)
(0.4305509 0.07898302 0.0006618944)
(0.4837368 0.07374659 0.00374488)
(0.4207958 0.1029145 0.001316493)
(0.4931517 0.09276809 0.0006551162)
(0.4462347 0.09372915 0.001555614)
(0.4480562 0.09072939 0.0008681228)
(0.4299057 0.09123573 0.0006085978)
(0.4865086 0.08985905 0.003203817)
(0.4254203 0.1131546 0.0009314778)
(0.4921578 0.1034851 0.0003958262)
(0.4467258 0.1052613 0.001470278)
(0.446893 0.1029576 0.0007619367)
(0.4292297 0.1033552 0.0005419459)
(0.4891532 0.1024795 0.001510069)
(0.4337812 0.1227841 0.0005515926)
(0.4918367 0.1153595 0.0004533834)
(0.4487168 0.117105 0.001084937)
(0.4466118 0.1154867 0.0007718222)
(0.428924 0.115616 0.0004282593)
(0.4824987 0.1090117 -0.0001147673)
(0.4368034 0.1336057 0.0004301627)
(0.4885972 0.1284526 0.0006129391)
(0.4473433 0.1295437 0.00120857)
(0.4453336 0.1282485 0.0006780833)
(0.4277202 0.1281753 0.000607748)
(0.4799041 0.115459 -0.000347388)
(0.4377949 0.1458952 0.0007511368)
(0.4868424 0.1409905 0.0007490717)
(0.4462404 0.1415709 0.00125628)
(0.4447142 0.1405655 0.0006699612)
(0.4269858 0.1403647 0.0006678809)
(0.475901 0.1250112 0.0004704781)
(0.441012 0.1587722 0.0009155765)
(0.4891007 0.1538609 0.001348908)
(0.4470098 0.1540281 0.001087952)
(0.445967 0.1531805 0.001115993)
(0.4268726 0.1529565 0.0006112348)
(0.4690349 0.1341557 -0.00242936)
(0.4427279 0.1716218 0.00078164)
(0.492103 0.1671284 0.001877498)
(0.4478758 0.1670845 0.001217206)
(0.4466064 0.1662068 0.001630621)
(0.4266839 0.1659157 0.0004131597)
(0.4619668 0.1445469 -0.009359026)
(0.4419941 0.1853618 0.0005891821)
(0.4927568 0.1805135 0.002187688)
(0.4480128 0.1801025 0.001145566)
(0.4465303 0.1795992 0.001917518)
(0.4257939 0.1789632 0.0006091859)
(0.4605364 0.1539941 -0.009732326)
(0.4404385 0.1994915 0.0009557335)
(0.4928457 0.1941389 0.002090361)
(0.445995 0.1936682 0.001739788)
(0.4457547 0.1930576 0.001825424)
(0.4242094 0.1924179 0.001076648)
(0.459753 0.1660814 -0.009616925)
(0.4395106 0.2131414 0.0008817915)
(0.4919343 0.2078394 0.001849586)
(0.4454976 0.2071891 0.001496707)
(0.4448454 0.2064188 0.001805222)
(0.423551 0.2056679 0.0007909019)
(0.4588567 0.1789287 -0.009403196)
(0.4384206 0.2269624 0.0008787356)
(0.4912278 0.2217107 0.001576513)
(0.4444407 0.220907 0.001314869)
(0.4438684 0.2200691 0.001715499)
(0.42201 0.2193816 0.001008903)
(0.4580396 0.1922822 -0.009099013)
(0.4369096 0.2408794 0.0009441021)
(0.490358 0.2358069 0.001298035)
(0.4434465 0.2348133 0.001104918)
(0.4426451 0.2338342 0.001521041)
(0.4208047 0.2331324 0.0008868664)
(0.4571436 0.2058932 -0.008779001)
(0.4352282 0.2549536 0.0009978633)
(0.4892118 0.2500636 0.001120899)
(0.4425388 0.2489653 0.0009287454)
(0.4410782 0.247944 0.001262641)
(0.41925 0.2471948 0.0008558726)
(0.456123 0.219552 -0.008560631)
(0.4334667 0.269118 0.0009639807)
(0.4883874 0.2646481 0.0009553177)
(0.4410635 0.263486 0.0008374309)
(0.4393877 0.2624826 0.001017311)
(0.4176649 0.2613641 0.0006756452)
(0.4546954 0.2331998 -0.008424309)