/*--------------------------------*- C++ -*----------------------------------*\
  =========                 |
  \\      /  F ield         | OpenFOAM: The Open Source CFD Toolbox
   \\    /   O peration     | Website:  https://openfoam.org
    \\  /    A nd           | Version:  7
     \\/     M anipulation  |
\*---------------------------------------------------------------------------*/
FoamFile
{
    version     2.0;
    format      ascii;
    class       volVectorField;
    location    "0.1";
    object      C;
}
// * * * * * * * * * * * * * * * * * * * * * * * * * * * * * * * * * * * * * //

dimensions      [0 1 0 0 0 0 0];

internalField   nonuniform List<vector> 
76598
(
(0.4257394 0.2330877 0.02105183)
(0.6249925 0.2335467 0.02083313)
(0.8249668 0.2335311 0.02086461)
(1.024969 0.2335289 0.0208665)
(1.224969 0.2335282 0.02086779)
(1.424969 0.2335282 0.02086807)
(1.624969 0.233529 0.02086795)
(1.824969 0.23353 0.02086782)
(0.4991239 0.5015221 0.09740058)
(0.699725 0.5024309 0.09495839)
(0.8997377 0.5023555 0.09425965)
(1.099884 0.5022735 0.09416731)
(1.299975 0.5023248 0.09418946)
(1.500036 0.5024421 0.0942002)
(1.700062 0.5025897 0.09418227)
(1.900046 0.5027467 0.09415487)
(0.4995651 0.7003613 0.09555768)
(0.6995693 0.7005888 0.09166586)
(0.8992599 0.7004028 0.09077699)
(1.099255 0.7001872 0.09087972)
(1.299648 0.7004711 0.0909947)
(1.500366 0.7008503 0.09104336)
(1.700617 0.7012754 0.09100877)
(1.900301 0.7019926 0.09078599)
(0.4995514 0.8999475 0.09501077)
(0.6992842 0.8996574 0.09092529)
(0.8984995 0.8990115 0.0902649)
(1.09717 0.8976043 0.09190986)
(1.297892 0.8993471 0.09190441)
(1.502126 0.9002869 0.09203775)
(1.702301 0.9000044 0.09253612)
(1.900458 0.9025241 0.09108347)
(0.4994873 1.099957 0.09495239)
(0.6989837 1.099418 0.09105752)
(0.8969247 1.097449 0.09193182)
(1.097349 1.097844 0.09275356)
(1.246017 1.045805 0.04193998)
(1.449722 1.046415 0.04230705)
(1.700617 1.103723 0.09537398)
(1.900151 1.105713 0.09527084)
(0.4994819 1.299997 0.09497014)
(0.6990696 1.299725 0.09114578)
(0.898292 1.298089 0.09187328)
(1.045249 1.24617 0.04193046)
(1.246581 1.247249 0.04486907)
(1.425012 1.227435 0.0208707)
(1.651577 1.259363 0.04638948)
(1.849009 1.257395 0.04516914)
(0.4994648 1.500027 0.09494942)
(0.6990433 1.500381 0.09108929)
(0.8982617 1.502282 0.0917312)
(1.044599 1.450134 0.04210667)
(1.223346 1.425657 0.02100067)
(0.4994237 1.700031 0.0948773)
(0.6989062 1.700575 0.09086549)
(0.8970085 1.702468 0.09146763)
(1.097522 1.701574 0.0919122)
(1.30014 1.701666 0.09425187)
(1.500469 1.698365 0.09578473)
(1.699996 1.696916 0.0960722)
(1.900005 1.696624 0.09606469)
(0.4994065 1.90001 0.09478893)
(0.6991332 1.900238 0.090446)
(0.8987702 1.900481 0.0893496)
(1.09923 1.900405 0.08940042)
(1.299836 1.90008 0.08982321)
(1.500093 1.899434 0.09021072)
(1.700033 1.898819 0.09036234)
(1.900023 1.898492 0.09041715)
(0.4994083 2.099988 0.09472578)
(0.6993487 2.09998 0.09015881)
(0.8992712 2.099936 0.08870296)
(1.099678 2.099819 0.08839585)
(1.299917 2.099606 0.08840905)
(1.500002 2.099319 0.08848777)
(1.700011 2.099058 0.08855249)
(1.900012 2.098869 0.08859766)
(0.4994033 2.299986 0.09469511)
(0.699355 2.299961 0.09006673)
(0.8992841 2.29992 0.08851362)
(1.099675 2.299852 0.08808702)
(1.299884 2.299749 0.08798426)
(1.499964 2.299622 0.08797856)
(1.699992 2.299504 0.08800438)
(1.900001 2.299407 0.08803705)
(0.4993962 2.499991 0.09468268)
(0.6993408 2.499975 0.09003301)
(0.8992631 2.49995 0.08844757)
(1.099649 2.499913 0.08798077)
(1.299858 2.499863 0.08783969)
(1.499945 2.499806 0.08780573)
(1.69998 2.499751 0.08781597)
(1.899994 2.499703 0.08784142)
(0.4993928 2.699994 0.0946767)
(0.6993339 2.699984 0.09001789)
(0.8992533 2.69997 0.08841954)
(1.099637 2.699949 0.08793742)
(1.299847 2.699924 0.08778173)
(1.499936 2.699896 0.08773657)
(1.699974 2.69987 0.08774009)
(1.89999 2.699847 0.08776191)
(0.4993912 2.899996 0.09467377)
(0.6993308 2.89999 0.09001076)
(0.8992488 2.899982 0.08840692)
(1.099632 2.89997 0.08791854)
(1.299842 2.899957 0.08775669)
(1.499932 2.899943 0.08770687)
(1.699971 2.89993 0.08770727)
(1.899988 2.899918 0.08772749)
(0.4993905 3.099997 0.09467243)
(0.6993293 3.099994 0.09000742)
(0.8992468 3.099989 0.08840102)
(1.099629 3.099982 0.08790985)
(1.29984 3.099975 0.08774531)
(1.49993 3.099968 0.08769347)
(1.699969 3.099961 0.08769259)
(1.899987 3.099955 0.087712)
(0.4993902 3.299998 0.09467162)
(0.6993288 3.299996 0.09000559)
(0.8992458 3.299993 0.08839813)
(1.099628 3.299989 0.08790574)
(1.299838 3.299985 0.08774004)
(1.499928 3.299982 0.08768727)
(1.699968 3.299978 0.08768583)
(1.899986 3.299975 0.08770482)
(0.4993902 3.499999 0.09467117)
(0.6993286 3.499997 0.09000464)
(0.8992455 3.499996 0.08839658)
(1.099628 3.499993 0.08790362)
(1.299837 3.499991 0.08773739)
(1.499928 3.499989 0.08768417)
(1.699968 3.499987 0.08768244)
(1.899986 3.499986 0.08770141)
(0.4993901 3.699999 0.09467098)
(0.6993285 3.699998 0.09000412)
(0.8992453 3.699997 0.08839573)
(1.099627 3.699996 0.08790242)
(1.299837 3.699995 0.08773601)
(1.499928 3.699994 0.08768263)
(1.699968 3.699993 0.08768073)
(1.899986 3.699992 0.08769977)
(0.4993901 3.9 0.0946708)
(0.6993285 3.899999 0.09000375)
(0.8992454 3.899998 0.08839517)
(1.099627 3.899998 0.08790174)
(1.299837 3.899997 0.08773522)
(1.499928 3.899997 0.0876818)
(1.699968 3.899996 0.08767994)
(1.899985 3.899996 0.08769894)
(0.4993901 4.1 0.09467066)
(0.6993286 4.099999 0.09000348)
(0.8992455 4.099999 0.08839483)
(1.099628 4.099999 0.08790134)
(1.299837 4.099998 0.08773468)
(1.499928 4.099998 0.0876813)
(1.699968 4.099998 0.0876795)
(1.899986 4.099998 0.08769864)
(0.4993902 4.3 0.09467063)
(0.6993287 4.3 0.09000339)
(0.8992456 4.3 0.08839461)
(1.099628 4.299999 0.08790111)
(1.299838 4.299999 0.08773455)
(1.499928 4.3 0.08768133)
(1.699968 4.3 0.08767966)
(1.899986 4.3 0.08769898)
(0.4993903 4.5 0.09467065)
(0.699329 4.5 0.0900035)
(0.899246 4.5 0.08839497)
(1.099628 4.5 0.08790173)
(1.299838 4.5 0.08773539)
(1.499928 4.500001 0.08768247)
(1.699968 4.500001 0.08768115)
(1.899986 4.500001 0.08770068)
(0.4993906 4.7 0.09467112)
(0.6993296 4.7 0.09000456)
(0.8992467 4.700001 0.08839673)
(1.099629 4.700001 0.08790423)
(1.299838 4.700001 0.08773864)
(1.499928 4.700002 0.0876863)
(1.699969 4.700003 0.08768544)
(1.899986 4.700004 0.08770534)
(0.4993913 4.9 0.09467252)
(0.6993308 4.900001 0.09000773)
(0.899248 4.900002 0.08840171)
(1.09963 4.900002 0.087911)
(1.29984 4.900003 0.08774708)
(1.499929 4.900005 0.08769591)
(1.699969 4.900006 0.08769578)
(1.899986 4.900007 0.08771611)
(0.4516625 0.2587937 0.2485901)
(0.7013396 0.3084521 0.2971044)
(0.9003887 0.3071058 0.2974962)
(1.099992 0.306644 0.2975584)
(1.29999 0.3065721 0.2975415)
(1.500006 0.3065922 0.2975353)
(1.700012 0.3066371 0.2975326)
(1.900014 0.3066876 0.297536)
(0.2590668 0.4507918 0.2508051)
(0.5001246 0.5002459 0.2940533)
(0.6996881 0.4990016 0.2906638)
(0.8997663 0.4976986 0.2895352)
(1.099902 0.4972577 0.2893229)
(1.299988 0.4972397 0.2893665)
(1.500027 0.4974018 0.2893919)
(1.700043 0.4976487 0.2893558)
(1.900051 0.4979188 0.2893239)
(0.2584698 0.6504403 0.2516852)
(0.4995829 0.6998032 0.2917473)
(0.6990578 0.6993164 0.2864523)
(0.8994919 0.6988315 0.2847249)
(1.099836 0.6987607 0.2847441)
(1.300014 0.6990417 0.2851881)
(1.500082 0.6995671 0.2853116)
(1.700101 0.7002524 0.2851008)
(1.900106 0.7009921 0.2849042)
(0.2581552 0.8500249 0.2521408)
(0.4990056 0.8999032 0.2909922)
(0.6985935 0.8998077 0.2850799)
(0.8993238 0.8998534 0.2835886)
(1.099911 0.9003299 0.2849064)
(1.300154 0.9012771 0.2868331)
(1.500191 0.9022679 0.2870058)
(1.700184 0.9035257 0.2862278)
(1.900174 0.9049465 0.28564)
(0.2580902 1.049992 0.2521681)
(0.4987624 1.100015 0.2908804)
(0.6983992 1.100136 0.2851842)
(0.8993937 1.100567 0.2849775)
(1.100205 1.101581 0.2886388)
(1.250295 1.052272 0.2393106)
(1.500294 1.105875 0.2928008)
(1.699967 1.106215 0.2919719)
(1.900132 1.107527 0.2914763)
(0.2580808 1.249996 0.2521659)
(0.4986783 1.300072 0.2909185)
(0.6983377 1.300287 0.2855641)
(0.899596 1.300924 0.2868058)
(1.050479 1.251471 0.2392528)
(1.251091 1.253399 0.2456186)
(1.450312 1.259432 0.2479674)
(1.649844 1.257895 0.2475311)
(1.849961 1.257578 0.2471977)
(0.2580784 1.449996 0.2521652)
(0.4986291 1.500064 0.2908562)
(0.6982587 1.500243 0.2854049)
(0.899514 1.50076 0.2864734)
(1.05067 1.451445 0.239843)
(1.227408 1.428818 0.2220514)
(1.652391 1.452939 0.2519278)
(1.85041 1.453471 0.2504485)
(0.258077 1.649996 0.2521622)
(0.4985769 1.700018 0.2906555)
(0.698134 1.700075 0.2846387)
(0.8991358 1.700215 0.2838859)
(1.100115 1.700335 0.286363)
(1.300841 1.698358 0.2891563)
(1.500782 1.690705 0.2907219)
(1.699918 1.687381 0.2909393)
(1.900106 1.685757 0.2910394)
(0.2580756 1.849995 0.2521581)
(0.4985282 1.899976 0.2904342)
(0.6980157 1.899929 0.2838295)
(0.898895 1.899796 0.2815197)
(1.099672 1.89935 0.2816412)
(1.300156 1.897961 0.2825147)
(1.500247 1.895543 0.2832346)
(1.700081 1.893398 0.2835981)
(1.900117 1.891864 0.2838315)
(0.2580746 2.049994 0.2521548)
(0.4984904 2.099957 0.2902818)
(0.6979236 2.099876 0.2833357)
(0.8987298 2.099701 0.2803337)
(1.099406 2.09933 0.2794862)
(1.299812 2.098607 0.2794598)
(1.499982 2.097561 0.2796503)
(1.700015 2.096527 0.2798461)
(1.900043 2.09566 0.2800197)
(0.2580739 2.249994 0.2521528)
(0.4984645 2.299957 0.2901964)
(0.6978618 2.299881 0.2830853)
(0.8986264 2.29974 0.2798018)
(1.099263 2.299497 0.2785908)
(1.299653 2.299114 0.2782247)
(1.499854 2.298619 0.2781905)
(1.699946 2.298116 0.2782815)
(1.89999 2.297667 0.2784072)
(0.2580733 2.449994 0.2521518)
(0.4984485 2.499965 0.2901522)
(0.6978248 2.499906 0.282964)
(0.898568 2.499809 0.2795628)
(1.099187 2.49966 0.2782084)
(1.299573 2.499453 0.2777073)
(1.499788 2.499207 0.277577)
(1.699901 2.49896 0.2776149)
(1.899957 2.498736 0.2777141)
(0.2580731 2.649994 0.2521513)
(0.4984393 2.699974 0.2901301)
(0.697804 2.699933 0.2829057)
(0.8985364 2.69987 0.2794532)
(1.099148 2.699781 0.278039)
(1.299533 2.699668 0.2774815)
(1.499753 2.699542 0.2773093)
(1.699874 2.699419 0.2773223)
(1.899937 2.699307 0.2774084)
(0.2580729 2.849995 0.252151)
(0.4984342 2.899982 0.2901193)
(0.6977929 2.899955 0.2828778)
(0.8985197 2.899915 0.2794021)
(1.099128 2.899862 0.2779618)
(1.299512 2.8998 0.2773801)
(1.499734 2.899734 0.2771894)
(1.699859 2.899672 0.2771912)
(1.899926 2.899616 0.2772712)
(0.2580729 3.049995 0.2521508)
(0.4984317 3.099988 0.2901138)
(0.6977872 3.09997 0.2828641)
(0.8985113 3.099946 0.2793779)
(1.099117 3.099915 0.2779259)
(1.299501 3.099881 0.2773335)
(1.499724 3.099845 0.2771344)
(1.699851 3.099814 0.2771311)
(1.89992 3.099785 0.2772085)
(0.2580729 3.249995 0.2521508)
(0.4984305 3.299992 0.2901108)
(0.6977847 3.299981 0.282857)
(0.8985072 3.299966 0.2793658)
(1.099112 3.299948 0.2779087)
(1.299495 3.299929 0.2773114)
(1.499719 3.29991 0.2771087)
(1.699847 3.299893 0.2771031)
(1.899917 3.299879 0.2771793)
(0.2580728 3.449995 0.2521507)
(0.4984302 3.499995 0.2901092)
(0.6977839 3.499988 0.2828531)
(0.8985056 3.499979 0.2793594)
(1.09911 3.499969 0.2778998)
(1.299492 3.499958 0.2773004)
(1.499716 3.499948 0.2770962)
(1.699845 3.499939 0.2770897)
(1.899915 3.499932 0.2771653)
(0.2580728 3.649995 0.2521507)
(0.4984302 3.699997 0.290108)
(0.6977838 3.699993 0.2828506)
(0.8985051 3.699987 0.2793556)
(1.099109 3.699981 0.2778949)
(1.299491 3.699975 0.2772945)
(1.499715 3.69997 0.2770896)
(1.699843 3.699966 0.2770828)
(1.899914 3.699962 0.2771584)
(0.2580728 3.849995 0.2521506)
(0.4984304 3.899998 0.2901072)
(0.6977839 3.899995 0.2828489)
(0.8985053 3.899992 0.279353)
(1.099109 3.899989 0.2778916)
(1.299491 3.899986 0.2772907)
(1.499715 3.899983 0.2770856)
(1.699843 3.899981 0.2770789)
(1.899914 3.89998 0.2771548)
(0.2580728 4.049995 0.2521506)
(0.4984304 4.099999 0.2901066)
(0.6977844 4.099997 0.2828475)
(0.8985057 4.099996 0.279351)
(1.099109 4.099994 0.2778891)
(1.299492 4.099992 0.2772882)
(1.499715 4.099991 0.2770832)
(1.699843 4.099991 0.277077)
(1.899914 4.099991 0.2771535)
(0.2580728 4.249995 0.2521506)
(0.4984308 4.299999 0.2901061)
(0.697785 4.299999 0.2828465)
(0.8985064 4.299998 0.2793497)
(1.09911 4.299997 0.2778877)
(1.299492 4.299997 0.2772869)
(1.499716 4.299997 0.2770825)
(1.699844 4.299997 0.2770771)
(1.899915 4.299999 0.2771546)
(0.2580729 4.449995 0.2521506)
(0.4984312 4.5 0.2901061)
(0.6977861 4.5 0.2828466)
(0.8985081 4.5 0.2793501)
(1.099112 4.5 0.2778888)
(1.299494 4.5 0.2772892)
(1.499717 4.500002 0.2770862)
(1.699845 4.500003 0.2770821)
(1.899915 4.500006 0.277161)
(0.2580729 4.649995 0.2521506)
(0.4984323 4.7 0.2901073)
(0.6977883 4.700001 0.2828499)
(0.898511 4.700001 0.279356)
(1.099115 4.700002 0.2778976)
(1.299496 4.700004 0.2773009)
(1.499719 4.700007 0.2771006)
(1.699847 4.70001 0.277099)
(1.899917 4.700015 0.2771799)
(0.3503388 4.950054 0.2470092)
(0.4984347 4.900001 0.290112)
(0.697793 4.900002 0.2828609)
(0.8985165 4.900004 0.2793743)
(1.09912 4.900006 0.2779232)
(1.299501 4.900009 0.2773332)
(1.499723 4.900013 0.2771382)
(1.699849 4.900019 0.2771403)
(1.899919 4.900027 0.2772234)
(0.452299 0.2584125 0.4497016)
(0.7024327 0.3068402 0.4988919)
(0.9007565 0.3043975 0.4986832)
(1.100008 0.3036623 0.4986734)
(1.299983 0.3035252 0.4986469)
(1.500007 0.3035405 0.4986403)
(1.700018 0.3035996 0.4986409)
(1.900026 0.3036771 0.4986458)
(0.2586944 0.4517834 0.4503646)
(0.5002358 0.4998465 0.4979112)
(0.6998491 0.4973966 0.4958686)
(0.8997818 0.4950376 0.494847)
(1.099887 0.4941809 0.4945781)
(1.299986 0.4940712 0.4945852)
(1.50004 0.4942602 0.4946157)
(1.700071 0.4946015 0.4946168)
(1.900098 0.4950345 0.494623)
(0.3081019 0.7013677 0.5008448)
(0.4986228 0.6996982 0.4966552)
(0.698873 0.6986497 0.4932872)
(0.8993795 0.6976686 0.4917241)
(1.099806 0.6974365 0.4916095)
(1.300038 0.6977939 0.4919527)
(1.500119 0.69848 0.4921187)
(1.700167 0.6994662 0.492094)
(1.900226 0.7007701 0.4920887)
(0.3066351 0.9004107 0.501739)
(0.496972 0.899844 0.4961163)
(0.6979357 0.899619 0.4921411)
(0.8990578 0.8996423 0.4906779)
(1.099887 0.9003141 0.4914874)
(1.30022 0.901567 0.4928182)
(1.500232 0.9027157 0.4930694)
(1.700239 0.904479 0.492918)
(1.900365 0.9071907 0.4928639)
(0.3061121 1.100012 0.5019083)
(0.4963 1.100027 0.4960141)
(0.69749 1.100251 0.4921532)
(0.8990952 1.100953 0.4915893)
(1.100211 1.102287 0.4939419)
(1.250515 1.05354 0.4445937)
(1.500287 1.106609 0.4967786)
(1.700057 1.10752 0.4966418)
(1.900537 1.112022 0.4967983)
(0.3059942 1.300009 0.501908)
(0.4960721 1.300132 0.4960279)
(0.6973426 1.300536 0.4924185)
(0.899356 1.301546 0.4928205)
(1.05082 1.252629 0.4445009)
(1.25134 1.254175 0.4481344)
(1.450273 1.259827 0.4494474)
(1.649877 1.257412 0.4494029)
(1.900082 1.284419 0.4994789)
(0.30596 1.500015 0.5018892)
(0.4959641 1.500126 0.4959485)
(0.6971815 1.500463 0.4922222)
(0.8992152 1.5013 0.4924982)
(1.051064 1.452466 0.444839)
(1.227689 1.42938 0.4238024)
(1.650918 1.453031 0.4502916)
(1.900169 1.502079 0.4993948)
(0.305939 1.700005 0.5018586)
(0.4958733 1.70005 0.495734)
(0.6969339 1.700164 0.4914656)
(0.8985778 1.700394 0.4903952)
(1.099973 1.700439 0.4921211)
(1.300869 1.697424 0.4941405)
(1.500731 1.687929 0.4951673)
(1.699977 1.682507 0.4954907)
(1.900476 1.677226 0.4958891)
(0.3059229 1.899993 0.5018244)
(0.4957962 1.89997 0.4954843)
(0.6967075 1.899891 0.4906003)
(0.8981208 1.899622 0.4881357)
(1.099328 1.898808 0.4880157)
(1.300067 1.896476 0.4888339)
(1.500271 1.892395 0.4895357)
(1.700157 1.888251 0.489968)
(1.900276 1.884534 0.4903241)
(0.3059108 2.099987 0.5017971)
(0.4957381 2.099929 0.4952924)
(0.6965425 2.099775 0.4899837)
(0.8977942 2.099423 0.4866719)
(1.098897 2.098676 0.4854397)
(1.299585 2.097247 0.485335)
(1.499911 2.095151 0.4855741)
(1.700023 2.092904 0.4858742)
(1.900104 2.090798 0.4861784)
(0.3059024 2.299985 0.5017794)
(0.495698 2.299921 0.4951729)
(0.6964345 2.299769 0.4896244)
(0.8975967 2.299471 0.4858932)
(1.098627 2.298951 0.48411)
(1.299296 2.298136 0.483499)
(1.499674 2.29707 0.4834186)
(1.699868 2.295933 0.4835627)
(1.899969 2.29486 0.4837784)
(0.3058969 2.499987 0.5017691)
(0.4956721 2.499932 0.4951064)
(0.6963684 2.499809 0.4894342)
(0.8974829 2.499594 0.4855043)
(1.098478 2.499261 0.4834754)
(1.299139 2.498801 0.4826378)
(1.499538 2.498248 0.4824021)
(1.699765 2.497676 0.4824616)
(1.899889 2.497141 0.4826326)
(0.3058933 2.69999 0.5017637)
(0.4956558 2.699948 0.495072)
(0.6963292 2.699859 0.4893386)
(0.8974191 2.699714 0.4853162)
(1.098397 2.69951 0.4831779)
(1.299053 2.699251 0.4822401)
(1.499462 2.69896 0.4819324)
(1.699704 2.698672 0.4819502)
(1.899841 2.698405 0.4820998)
(0.3058911 2.899993 0.501761)
(0.4956462 2.899963 0.4950547)
(0.696307 2.899902 0.4892917)
(0.897384 2.899809 0.4852263)
(1.098353 2.899686 0.4830389)
(1.299007 2.899541 0.4820565)
(1.499419 2.899386 0.481716)
(1.699669 2.899239 0.4817146)
(1.899815 2.899105 0.4818544)
(0.3058901 3.099995 0.5017595)
(0.4956414 3.099975 0.4950457)
(0.6962957 3.099935 0.4892681)
(0.8973659 3.099877 0.4851827)
(1.09833 3.099804 0.4829732)
(1.298983 3.099722 0.481971)
(1.499396 3.099639 0.4816158)
(1.699649 3.099564 0.4816057)
(1.8998 3.099496 0.4817412)
(0.3058898 3.299997 0.5017585)
(0.4956399 3.299983 0.4950404)
(0.6962914 3.299958 0.4892554)
(0.8973577 3.299923 0.4851605)
(1.098319 3.299879 0.4829411)
(1.29897 3.299834 0.4819301)
(1.499384 3.299789 0.4815685)
(1.699639 3.299749 0.4815544)
(1.899792 3.299715 0.4816883)
(0.3058899 3.499998 0.5017577)
(0.4956402 3.49999 0.4950368)
(0.6962905 3.499974 0.4892474)
(0.8973549 3.499952 0.485148)
(1.098314 3.499927 0.4829241)
(1.298964 3.499901 0.4819092)
(1.499378 3.499877 0.4815448)
(1.699634 3.499857 0.4815295)
(1.899788 3.499839 0.4816627)
(0.3058901 3.699999 0.5017573)
(0.4956408 3.699994 0.4950344)
(0.6962913 3.699984 0.4892421)
(0.8973545 3.699971 0.4851399)
(1.098313 3.699957 0.4829138)
(1.298961 3.699942 0.4818972)
(1.499375 3.699929 0.481532)
(1.699631 3.699919 0.4815164)
(1.899786 3.69991 0.4816498)
(0.3058903 3.899999 0.501757)
(0.4956416 3.899996 0.4950325)
(0.6962922 3.89999 0.4892381)
(0.8973554 3.899983 0.4851339)
(1.098313 3.899975 0.4829062)
(1.298961 3.899967 0.4818889)
(1.499374 3.89996 0.4815234)
(1.69963 3.899955 0.4815083)
(1.899785 3.899952 0.4816427)
(0.3058904 4.1 0.5017566)
(0.4956423 4.099998 0.4950308)
(0.6962935 4.099994 0.4892345)
(0.8973568 4.09999 0.4851283)
(1.098314 4.099986 0.4828995)
(1.298962 4.099982 0.4818817)
(1.499375 4.099979 0.4815168)
(1.699631 4.099978 0.4815028)
(1.899785 4.099978 0.4816387)
(0.3058906 4.3 0.5017564)
(0.495643 4.299999 0.4950293)
(0.6962951 4.299997 0.4892309)
(0.8973587 4.299995 0.485123)
(1.098316 4.299993 0.4828932)
(1.298964 4.299992 0.4818755)
(1.499376 4.299992 0.4815119)
(1.699632 4.299993 0.4815001)
(1.899787 4.299996 0.4816387)
(0.3058908 4.5 0.5017561)
(0.4956441 4.5 0.4950279)
(0.6962974 4.499999 0.4892282)
(0.8973621 4.499998 0.4851196)
(1.09832 4.499998 0.4828901)
(1.298967 4.499999 0.4818739)
(1.49938 4.500001 0.481513)
(1.699635 4.500006 0.4815049)
(1.899788 4.500013 0.4816475)
(0.3058912 4.7 0.5017561)
(0.4956461 4.7 0.4950283)
(0.6963018 4.7 0.4892297)
(0.8973683 4.700001 0.4851233)
(1.098326 4.700003 0.4828976)
(1.298973 4.700006 0.4818864)
(1.499385 4.700011 0.4815313)
(1.699639 4.700019 0.4815292)
(1.899792 4.700031 0.4816779)
(0.3058922 4.9 0.501757)
(0.4956504 4.900001 0.4950333)
(0.6963108 4.900002 0.4892426)
(0.8973801 4.900004 0.4851469)
(1.098339 4.900007 0.4829329)
(1.298984 4.900013 0.4819334)
(1.499393 4.900022 0.4815892)
(1.699645 4.900036 0.4815966)
(1.899796 4.900056 0.4817531)
(0.4523119 0.2583422 0.649932)
(0.7025986 0.3062451 0.6994685)
(0.9008963 0.3035215 0.6992125)
(1.100011 0.3026272 0.6991278)
(1.299978 0.3024579 0.6991064)
(1.500008 0.3024746 0.6991038)
(1.700024 0.3025489 0.6991072)
(1.900035 0.3026512 0.6991143)
(0.2584018 0.4522724 0.6500056)
(0.4997546 0.4996058 0.6992324)
(0.6996408 0.4965982 0.698367)
(0.8997018 0.4937528 0.6978301)
(1.099857 0.4926845 0.6976567)
(1.299981 0.4925317 0.6976511)
(1.50005 0.4927576 0.6976743)
(1.700096 0.4932004 0.6976916)
(1.900139 0.4937963 0.6977155)
(0.3066967 0.7023779 0.7001608)
(0.4970499 0.6995834 0.6986214)
(0.698223 0.6981519 0.697183)
(0.8991394 0.6968496 0.6963375)
(1.099746 0.6965098 0.6962272)
(1.300045 0.6969313 0.6964086)
(1.500153 0.6977947 0.6965238)
(1.700238 0.699163 0.6965613)
(1.900339 0.7011008 0.6966157)
(0.3041947 0.9007506 0.7004208)
(0.4944336 0.8997917 0.6983147)
(0.6968145 0.8994537 0.696577)
(0.8986335 0.8994249 0.6957817)
(1.099812 0.9001763 0.6961517)
(1.300241 0.9016317 0.6968137)
(1.500279 0.9031079 0.6969786)
(1.700348 0.9057306 0.6969853)
(1.900547 0.909985 0.6970497)
(0.3034123 1.100028 0.7005529)
(0.4933561 1.100029 0.6982398)
(0.6961162 1.100313 0.6965614)
(0.8985968 1.101163 0.6962391)
(1.100211 1.102637 0.6973442)
(1.250607 1.054052 0.6475834)
(1.50031 1.107269 0.6986595)
(1.70022 1.109562 0.6986489)
(1.90087 1.117341 0.6987505)
(0.3032229 1.300007 0.7005558)
(0.4929914 1.300163 0.6982337)
(0.6958774 1.300683 0.6966897)
(0.8989339 1.301844 0.6968302)
(1.050894 1.253082 0.6475146)
(1.251403 1.254388 0.6491891)
(1.450279 1.259967 0.6497823)
(1.649959 1.258583 0.6498005)
(1.900354 1.28792 0.6995256)
(0.3031688 1.500018 0.7005391)
(0.492825 1.500156 0.6981719)
(0.6956372 1.500583 0.6965445)
(0.8987386 1.501506 0.6966129)
(1.051131 1.452778 0.6476354)
(1.227737 1.429463 0.6244634)
(1.65108 1.452391 0.6499348)
(1.900471 1.49821 0.6994346)
(0.303139 1.700007 0.700512)
(0.4926901 1.700058 0.6980245)
(0.695273 1.700191 0.6960484)
(0.8978494 1.700398 0.6953954)
(1.099814 1.700206 0.6962052)
(1.300827 1.696661 0.6971881)
(1.500696 1.686358 0.6977153)
(1.700122 1.679066 0.6979118)
(1.900818 1.670153 0.6981258)
(0.3031176 1.899992 0.700481)
(0.4925772 1.899957 0.697847)
(0.6949385 1.899837 0.6954475)
(0.8972013 1.899461 0.6939071)
(1.098938 1.898317 0.6936945)
(1.299929 1.89526 0.6941332)
(1.500235 1.890018 0.694554)
(1.70023 1.884179 0.6948543)
(1.90042 1.87834 0.6951277)
(0.3031026 2.099982 0.700455)
(0.4924947 2.099902 0.6976997)
(0.6946996 2.099681 0.694972)
(0.8967419 2.099151 0.6927535)
(1.098327 2.098059 0.6917107)
(1.299325 2.096017 0.6915506)
(1.499814 2.093003 0.6917087)
(1.700022 2.089583 0.6919464)
(1.900156 2.086183 0.6922016)
(0.3030924 2.29998 0.7004372)
(0.4924395 2.299891 0.697601)
(0.6945463 2.29967 0.6946684)
(0.89644 2.299219 0.692047)
(1.097931 2.298411 0.6904685)
(1.298928 2.297153 0.6898498)
(1.499491 2.295504 0.6897614)
(1.699791 2.293688 0.6899018)
(1.899953 2.29191 0.6901219)
(0.3030852 2.499982 0.7004268)
(0.4924029 2.499904 0.6975441)
(0.6944521 2.499724 0.6944999)
(0.89627 2.499392 0.691679)
(1.097699 2.498866 0.6898266)
(1.298687 2.498138 0.6889522)
(1.499281 2.497262 0.6886997)
(1.699624 2.496341 0.6887526)
(1.899817 2.495459 0.6889234)
(0.3030799 2.699985 0.7004218)
(0.4923782 2.699926 0.697515)
(0.6943945 2.699793 0.6944141)
(0.8961742 2.699568 0.6914984)
(1.097573 2.69924 0.689525)
(1.298554 2.698823 0.6885386)
(1.49916 2.698356 0.6882093)
(1.699524 2.69789 0.688219)
(1.899738 2.697453 0.6883671)
(0.3030763 2.899989 0.7004197)
(0.4923627 2.899947 0.6975009)
(0.6943607 2.899856 0.6943719)
(0.8961208 2.899709 0.6914114)
(1.097505 2.89951 0.6893836)
(1.298482 2.899272 0.6883475)
(1.499093 2.899023 0.6879831)
(1.699467 2.898784 0.6879727)
(1.899694 2.898565 0.6881106)
(0.303075 3.099993 0.700418)
(0.4923561 3.099964 0.6974923)
(0.6943448 3.099903 0.6943492)
(0.8960941 3.099811 0.6913678)
(1.09747 3.099692 0.6893155)
(1.298443 3.099557 0.6882575)
(1.499056 3.099423 0.6878776)
(1.699436 3.0993 0.6878583)
(1.89967 3.099189 0.6879918)
(0.3030756 3.299996 0.7004159)
(0.4923566 3.299976 0.6974849)
(0.6943414 3.299937 0.6943339)
(0.8960838 3.29988 0.6913431)
(1.097453 3.29981 0.6892805)
(1.298424 3.299734 0.6882132)
(1.499037 3.299661 0.6878268)
(1.699419 3.299597 0.6878039)
(1.899657 3.299541 0.6879359)
(0.3030767 3.499997 0.7004141)
(0.4923599 3.499985 0.6974788)
(0.6943436 3.49996 0.6943226)
(0.896082 3.499926 0.6913269)
(1.097447 3.499885 0.6892599)
(1.298415 3.499842 0.6881893)
(1.499028 3.499803 0.6878004)
(1.699411 3.499769 0.6877764)
(1.89965 3.499741 0.6879084)
(0.3030777 3.699998 0.7004129)
(0.4923627 3.699991 0.6974742)
(0.6943472 3.699976 0.6943139)
(0.8960837 3.699955 0.691315)
(1.097446 3.699931 0.6892457)
(1.298412 3.699907 0.6881735)
(1.499024 3.699886 0.6877839)
(1.699407 3.699869 0.6877603)
(1.899647 3.699855 0.6878933)
(0.3030783 3.899999 0.7004122)
(0.492365 3.899994 0.6974708)
(0.6943504 3.899985 0.6943068)
(0.8960863 3.899973 0.6913046)
(1.097447 3.89996 0.6892331)
(1.298412 3.899947 0.68816)
(1.499023 3.899936 0.6877707)
(1.699406 3.899928 0.6877483)
(1.899646 3.899922 0.6878831)
(0.3030787 4.099999 0.7004116)
(0.4923666 4.099997 0.6974678)
(0.6943532 4.099991 0.6942997)
(0.8960894 4.099985 0.6912936)
(1.097449 4.099978 0.6892194)
(1.298414 4.099971 0.6881454)
(1.499024 4.099967 0.6877569)
(1.699406 4.099964 0.6877367)
(1.899646 4.099964 0.6878747)
(0.303079 4.3 0.7004108)
(0.492368 4.299998 0.6974641)
(0.6943561 4.299995 0.6942911)
(0.896093 4.299992 0.69128)
(1.097453 4.299988 0.6892024)
(1.298417 4.299986 0.6881274)
(1.499026 4.299986 0.6877408)
(1.699409 4.299989 0.6877248)
(1.899648 4.299993 0.6878681)
(0.3030794 4.5 0.7004101)
(0.4923698 4.499999 0.69746)
(0.6943599 4.499998 0.6942809)
(0.8960984 4.499996 0.6912635)
(1.097459 4.499996 0.6891822)
(1.298422 4.499997 0.6881072)
(1.499031 4.5 0.6877245)
(1.699413 4.500008 0.6877154)
(1.899651 4.500019 0.6878674)
(0.30308 4.7 0.7004092)
(0.4923727 4.7 0.6974556)
(0.6943664 4.699999 0.6942706)
(0.8961076 4.699999 0.6912478)
(1.097469 4.7 0.6891645)
(1.298432 4.700005 0.6880923)
(1.49904 4.700013 0.6877175)
(1.699419 4.700026 0.6877203)
(1.899656 4.700046 0.6878856)
(0.3030813 4.9 0.7004089)
(0.4923785 4.9 0.6974539)
(0.6943789 4.9 0.6942667)
(0.8961246 4.900001 0.6912435)
(1.097488 4.900004 0.6891644)
(1.298449 4.900012 0.6881018)
(1.499054 4.900027 0.6877418)
(1.69943 4.900049 0.6877631)
(1.899664 4.900083 0.6879471)
(0.4523052 0.2583293 0.8499837)
(0.7025765 0.3061278 0.8998473)
(0.9008935 0.3033423 0.8997579)
(1.100008 0.3024171 0.8997234)
(1.299977 0.3022396 0.8997128)
(1.500009 0.3022596 0.8997098)
(1.700027 0.3023432 0.8997104)
(1.90004 0.3024583 0.8997156)
(0.2583444 0.4522995 0.8499878)
(0.4995486 0.4995249 0.8997886)
(0.6994973 0.4963853 0.8995333)
(0.899637 0.4934124 0.8993563)
(1.099834 0.4922886 0.8992896)
(1.299978 0.4921319 0.8992795)
(1.500056 0.4923874 0.8992821)
(1.70011 0.4928934 0.8992881)
(1.900162 0.4935808 0.8993027)
(0.3062031 0.7025691 0.8999424)
(0.4964521 0.6995314 0.8996102)
(0.6978389 0.6979733 0.8992001)
(0.8989724 0.6965618 0.8989327)
(1.099698 0.696195 0.8988788)
(1.300045 0.6966638 0.8989205)
(1.50017 0.6976403 0.8989493)
(1.700279 0.6992396 0.8989632)
(1.900403 0.7015352 0.8989884)
(0.3034565 0.9009025 0.8999406)
(0.493466 0.8997685 0.8995227)
(0.6961851 0.8993907 0.8990406)
(0.8983695 0.8993534 0.8987946)
(1.099748 0.9001453 0.8988804)
(1.300241 0.901692 0.8990639)
(1.5003 0.9033636 0.8991089)
(1.700408 0.9064814 0.8991148)
(1.900646 0.9115621 0.8991419)
(0.3025266 1.100036 0.8999477)
(0.4922101 1.100029 0.8995056)
(0.6953584 1.10034 0.8990489)
(0.8983024 1.101237 0.8989438)
(1.100173 1.102748 0.8992411)
(1.250617 1.054204 0.8491262)
(1.500312 1.107569 0.8996105)
(1.700275 1.110514 0.899604)
(1.901033 1.119791 0.8996287)
(0.3023028 1.300005 0.8999492)
(0.4917791 1.300176 0.8995069)
(0.6950735 1.300739 0.8990923)
(0.8986684 1.301936 0.8991219)
(1.050843 1.253208 0.8491088)
(1.251412 1.25445 0.849719)
(1.450279 1.260028 0.849926)
(1.649991 1.259124 0.8499391)
(1.900302 1.289331 0.8998405)
(0.302238 1.500018 0.8999431)
(0.4915799 1.500166 0.8994868)
(0.6947863 1.500615 0.8990464)
(0.8984384 1.501547 0.8990539)
(1.051072 1.452845 0.8491526)
(1.22774 1.429477 0.8247954)
(1.650995 1.452189 0.8499999)
(1.900426 1.496663 0.8998047)
(0.3022012 1.700006 0.8999333)
(0.491416 1.700057 0.8994376)
(0.6943465 1.70018 0.8988875)
(0.8974139 1.700339 0.8986771)
(1.099684 1.700038 0.8988838)
(1.300783 1.696311 0.899162)
(1.500672 1.68569 0.8993187)
(1.700165 1.677592 0.8993755)
(1.900988 1.66702 0.8994342)
(0.3021752 1.899989 0.8999229)
(0.4912793 1.899945 0.8993775)
(0.6939339 1.899789 0.8986883)
(0.8966274 1.899311 0.8982015)
(1.098699 1.897959 0.8980968)
(1.299834 1.894571 0.8982087)
(1.500203 1.888808 0.898336)
(1.700263 1.882132 0.8984362)
(1.900499 1.875199 0.8985301)
(0.3021587 2.099979 0.8999138)
(0.491183 2.099885 0.8993247)
(0.6936387 2.099622 0.8985206)
(0.8960637 2.098991 0.8977904)
(1.097974 2.097694 0.8973901)
(1.299159 2.095282 0.8972963)
(1.499743 2.091743 0.897341)
(1.700011 2.087641 0.8974261)
(1.900177 2.083475 0.8975237)
(0.3021483 2.299977 0.8999074)
(0.4911202 2.299873 0.8992881)
(0.6934552 2.299612 0.8984061)
(0.8956966 2.299071 0.8975066)
(1.097497 2.298092 0.8968778)
(1.298692 2.296559 0.8965984)
(1.499375 2.294532 0.896549)
(1.699743 2.292265 0.8965999)
(1.89994 2.290011 0.8966855)
(0.3021391 2.499978 0.8999049)
(0.4910748 2.499888 0.8992698)
(0.6933398 2.499675 0.8983444)
(0.8954885 2.499277 0.8973582)
(1.097218 2.498627 0.8965977)
(1.298399 2.497715 0.8961988)
(1.499121 2.496614 0.8960793)
(1.699537 2.495448 0.896099)
(1.899773 2.49432 0.8961725)
(0.3021289 2.699983 0.8999069)
(0.4910373 2.699914 0.8992658)
(0.6932634 2.699757 0.898318)
(0.8953689 2.699484 0.8972889)
(1.097062 2.699077 0.8964694)
(1.298232 2.698552 0.8960159)
(1.498969 2.697965 0.8958586)
(1.699409 2.697377 0.8958561)
(1.899671 2.696825 0.8959165)
(0.3021205 2.899987 0.8999104)
(0.4910097 2.899938 0.8992673)
(0.6932156 2.899829 0.8983075)
(0.8953009 2.899651 0.8972571)
(1.096978 2.899403 0.8964107)
(1.298142 2.899103 0.8959326)
(1.498885 2.898787 0.8957584)
(1.699338 2.898487 0.8957462)
(1.899616 2.898213 0.8958015)
(0.3021191 3.099992 0.8999095)
(0.4910025 3.099957 0.8992632)
(0.6931972 3.099884 0.8982971)
(0.8952694 3.099772 0.8972375)
(1.096936 3.099623 0.8963802)
(1.298095 3.099453 0.8958921)
(1.498839 3.099283 0.8957109)
(1.699299 3.099128 0.8956948)
(1.899585 3.098989 0.8957484)
(0.3021243 3.299995 0.899904)
(0.4910131 3.299971 0.8992515)