/*--------------------------------*- C++ -*----------------------------------*\
  =========                 |
  \\      /  F ield         | OpenFOAM: The Open Source CFD Toolbox
   \\    /   O peration     | Website:  https://openfoam.org
    \\  /    A nd           | Version:  7
     \\/     M anipulation  |
\*---------------------------------------------------------------------------*/
FoamFile
{
    version     2.0;
    format      ascii;
    class       volScalarField;
    location    "0.1";
    object      Cx;
}
// * * * * * * * * * * * * * * * * * * * * * * * * * * * * * * * * * * * * * //

dimensions      [0 1 0 0 0 0 0];

internalField   nonuniform List<scalar> 
76598
(
0.4257394
0.6249925
0.8249668
1.024969
1.224969
1.424969
1.624969
1.824969
0.4991239
0.699725
0.8997377
1.099884
1.299975
1.500036
1.700062
1.900046
0.4995651
0.6995693
0.8992599
1.099255
1.299648
1.500366
1.700617
1.900301
0.4995514
0.6992842
0.8984995
1.09717
1.297892
1.502126
1.702301
1.900458
0.4994873
0.6989837
0.8969247
1.097349
1.246017
1.449722
1.700617
1.900151
0.4994819
0.6990696
0.898292
1.045249
1.246581
1.425012
1.651577
1.849009
0.4994648
0.6990433
0.8982617
1.044599
1.223346
0.4994237
0.6989062
0.8970085
1.097522
1.30014
1.500469
1.699996
1.900005
0.4994065
0.6991332
0.8987702
1.09923
1.299836
1.500093
1.700033
1.900023
0.4994083
0.6993487
0.8992712
1.099678
1.299917
1.500002
1.700011
1.900012
0.4994033
0.699355
0.8992841
1.099675
1.299884
1.499964
1.699992
1.900001
0.4993962
0.6993408
0.8992631
1.099649
1.299858
1.499945
1.69998
1.899994
0.4993928
0.6993339
0.8992533
1.099637
1.299847
1.499936
1.699974
1.89999
0.4993912
0.6993308
0.8992488
1.099632
1.299842
1.499932
1.699971
1.899988
0.4993905
0.6993293
0.8992468
1.099629
1.29984
1.49993
1.699969
1.899987
0.4993902
0.6993288
0.8992458
1.099628
1.299838
1.499928
1.699968
1.899986
0.4993902
0.6993286
0.8992455
1.099628
1.299837
1.499928
1.699968
1.899986
0.4993901
0.6993285
0.8992453
1.099627
1.299837
1.499928
1.699968
1.899986
0.4993901
0.6993285
0.8992454
1.099627
1.299837
1.499928
1.699968
1.899985
0.4993901
0.6993286
0.8992455
1.099628
1.299837
1.499928
1.699968
1.899986
0.4993902
0.6993287
0.8992456
1.099628
1.299838
1.499928
1.699968
1.899986
0.4993903
0.699329
0.899246
1.099628
1.299838
1.499928
1.699968
1.899986
0.4993906
0.6993296
0.8992467
1.099629
1.299838
1.499928
1.699969
1.899986
0.4993913
0.6993308
0.899248
1.09963
1.29984
1.499929
1.699969
1.899986
0.4516625
0.7013396
0.9003887
1.099992
1.29999
1.500006
1.700012
1.900014
0.2590668
0.5001246
0.6996881
0.8997663
1.099902
1.299988
1.500027
1.700043
1.900051
0.2584698
0.4995829
0.6990578
0.8994919
1.099836
1.300014
1.500082
1.700101
1.900106
0.2581552
0.4990056
0.6985935
0.8993238
1.099911
1.300154
1.500191
1.700184
1.900174
0.2580902
0.4987624
0.6983992
0.8993937
1.100205
1.250295
1.500294
1.699967
1.900132
0.2580808
0.4986783
0.6983377
0.899596
1.050479
1.251091
1.450312
1.649844
1.849961
0.2580784
0.4986291
0.6982587
0.899514
1.05067
1.227408
1.652391
1.85041
0.258077
0.4985769
0.698134
0.8991358
1.100115
1.300841
1.500782
1.699918
1.900106
0.2580756
0.4985282
0.6980157
0.898895
1.099672
1.300156
1.500247
1.700081
1.900117
0.2580746
0.4984904
0.6979236
0.8987298
1.099406
1.299812
1.499982
1.700015
1.900043
0.2580739
0.4984645
0.6978618
0.8986264
1.099263
1.299653
1.499854
1.699946
1.89999
0.2580733
0.4984485
0.6978248
0.898568
1.099187
1.299573
1.499788
1.699901
1.899957
0.2580731
0.4984393
0.697804
0.8985364
1.099148
1.299533
1.499753
1.699874
1.899937
0.2580729
0.4984342
0.6977929
0.8985197
1.099128
1.299512
1.499734
1.699859
1.899926
0.2580729
0.4984317
0.6977872
0.8985113
1.099117
1.299501
1.499724
1.699851
1.89992
0.2580729
0.4984305
0.6977847
0.8985072
1.099112
1.299495
1.499719
1.699847
1.899917
0.2580728
0.4984302
0.6977839
0.8985056
1.09911
1.299492
1.499716
1.699845
1.899915
0.2580728
0.4984302
0.6977838
0.8985051
1.099109
1.299491
1.499715
1.699843
1.899914
0.2580728
0.4984304
0.6977839
0.8985053
1.099109
1.299491
1.499715
1.699843
1.899914
0.2580728
0.4984304
0.6977844
0.8985057
1.099109
1.299492
1.499715
1.699843
1.899914
0.2580728
0.4984308
0.697785
0.8985064
1.09911
1.299492
1.499716
1.699844
1.899915
0.2580729
0.4984312
0.6977861
0.8985081
1.099112
1.299494
1.499717
1.699845
1.899915
0.2580729
0.4984323
0.6977883
0.898511
1.099115
1.299496
1.499719
1.699847
1.899917
0.3503388
0.4984347
0.697793
0.8985165
1.09912
1.299501
1.499723
1.699849
1.899919
0.452299
0.7024327
0.9007565
1.100008
1.299983
1.500007
1.700018
1.900026
0.2586944
0.5002358
0.6998491
0.8997818
1.099887
1.299986
1.50004
1.700071
1.900098
0.3081019
0.4986228
0.698873
0.8993795
1.099806
1.300038
1.500119
1.700167
1.900226
0.3066351
0.496972
0.6979357
0.8990578
1.099887
1.30022
1.500232
1.700239
1.900365
0.3061121
0.4963
0.69749
0.8990952
1.100211
1.250515
1.500287
1.700057
1.900537
0.3059942
0.4960721
0.6973426
0.899356
1.05082
1.25134
1.450273
1.649877
1.900082
0.30596
0.4959641
0.6971815
0.8992152
1.051064
1.227689
1.650918
1.900169
0.305939
0.4958733
0.6969339
0.8985778
1.099973
1.300869
1.500731
1.699977
1.900476
0.3059229
0.4957962
0.6967075
0.8981208
1.099328
1.300067
1.500271
1.700157
1.900276
0.3059108
0.4957381
0.6965425
0.8977942
1.098897
1.299585
1.499911
1.700023
1.900104
0.3059024
0.495698
0.6964345
0.8975967
1.098627
1.299296
1.499674
1.699868
1.899969
0.3058969
0.4956721
0.6963684
0.8974829
1.098478
1.299139
1.499538
1.699765
1.899889
0.3058933
0.4956558
0.6963292
0.8974191
1.098397
1.299053
1.499462
1.699704
1.899841
0.3058911
0.4956462
0.696307
0.897384
1.098353
1.299007
1.499419
1.699669
1.899815
0.3058901
0.4956414
0.6962957
0.8973659
1.09833
1.298983
1.499396
1.699649
1.8998
0.3058898
0.4956399
0.6962914
0.8973577
1.098319
1.29897
1.499384
1.699639
1.899792
0.3058899
0.4956402
0.6962905
0.8973549
1.098314
1.298964
1.499378
1.699634
1.899788
0.3058901
0.4956408
0.6962913
0.8973545
1.098313
1.298961
1.499375
1.699631
1.899786
0.3058903
0.4956416
0.6962922
0.8973554
1.098313
1.298961
1.499374
1.69963
1.899785
0.3058904
0.4956423
0.6962935
0.8973568
1.098314
1.298962
1.499375
1.699631
1.899785
0.3058906
0.495643
0.6962951
0.8973587
1.098316
1.298964
1.499376
1.699632
1.899787
0.3058908
0.4956441
0.6962974
0.8973621
1.09832
1.298967
1.49938
1.699635
1.899788
0.3058912
0.4956461
0.6963018
0.8973683
1.098326
1.298973
1.499385
1.699639
1.899792
0.3058922
0.4956504
0.6963108
0.8973801
1.098339
1.298984
1.499393
1.699645
1.899796
0.4523119
0.7025986
0.9008963
1.100011
1.299978
1.500008
1.700024
1.900035
0.2584018
0.4997546
0.6996408
0.8997018
1.099857
1.299981
1.50005
1.700096
1.900139
0.3066967
0.4970499
0.698223
0.8991394
1.099746
1.300045
1.500153
1.700238
1.900339
0.3041947
0.4944336
0.6968145
0.8986335
1.099812
1.300241
1.500279
1.700348
1.900547
0.3034123
0.4933561
0.6961162
0.8985968
1.100211
1.250607
1.50031
1.70022
1.90087
0.3032229
0.4929914
0.6958774
0.8989339
1.050894
1.251403
1.450279
1.649959
1.900354
0.3031688
0.492825
0.6956372
0.8987386
1.051131
1.227737
1.65108
1.900471
0.303139
0.4926901
0.695273
0.8978494
1.099814
1.300827
1.500696
1.700122
1.900818
0.3031176
0.4925772
0.6949385
0.8972013
1.098938
1.299929
1.500235
1.70023
1.90042
0.3031026
0.4924947
0.6946996
0.8967419
1.098327
1.299325
1.499814
1.700022
1.900156
0.3030924
0.4924395
0.6945463
0.89644
1.097931
1.298928
1.499491
1.699791
1.899953
0.3030852
0.4924029
0.6944521
0.89627
1.097699
1.298687
1.499281
1.699624
1.899817
0.3030799
0.4923782
0.6943945
0.8961742
1.097573
1.298554
1.49916
1.699524
1.899738
0.3030763
0.4923627
0.6943607
0.8961208
1.097505
1.298482
1.499093
1.699467
1.899694
0.303075
0.4923561
0.6943448
0.8960941
1.09747
1.298443
1.499056
1.699436
1.89967
0.3030756
0.4923566
0.6943414
0.8960838
1.097453
1.298424
1.499037
1.699419
1.899657
0.3030767
0.4923599
0.6943436
0.896082
1.097447
1.298415
1.499028
1.699411
1.89965
0.3030777
0.4923627
0.6943472
0.8960837
1.097446
1.298412
1.499024
1.699407
1.899647
0.3030783
0.492365
0.6943504
0.8960863
1.097447
1.298412
1.499023
1.699406
1.899646
0.3030787
0.4923666
0.6943532
0.8960894
1.097449
1.298414
1.499024
1.699406
1.899646
0.303079
0.492368
0.6943561
0.896093
1.097453
1.298417
1.499026
1.699409
1.899648
0.3030794
0.4923698
0.6943599
0.8960984
1.097459
1.298422
1.499031
1.699413
1.899651
0.30308
0.4923727
0.6943664
0.8961076
1.097469
1.298432
1.49904
1.699419
1.899656
0.3030813
0.4923785
0.6943789
0.8961246
1.097488
1.298449
1.499054
1.69943
1.899664
0.4523052
0.7025765
0.9008935
1.100008
1.299977
1.500009
1.700027
1.90004
0.2583444
0.4995486
0.6994973
0.899637
1.099834
1.299978
1.500056
1.70011
1.900162
0.3062031
0.4964521
0.6978389
0.8989724
1.099698
1.300045
1.50017
1.700279
1.900403
0.3034565
0.493466
0.6961851
0.8983695
1.099748
1.300241
1.5003
1.700408
1.900646
0.3025266
0.4922101
0.6953584
0.8983024
1.100173
1.250617
1.500312
1.700275
1.901033
0.3023028
0.4917791
0.6950735
0.8986684
1.050843
1.251412
1.450279
1.649991
1.900302
0.302238
0.4915799
0.6947863
0.8984384
1.051072
1.22774
1.650995
1.900426
0.3022012
0.491416
0.6943465
0.8974139
1.099684
1.300783
1.500672
1.700165
1.900988
0.3021752
0.4912793
0.6939339
0.8966274
1.098699
1.299834
1.500203
1.700263
1.900499
0.3021587
0.491183
0.6936387
0.8960637
1.097974
1.299159
1.499743
1.700011
1.900177
0.3021483
0.4911202
0.6934552
0.8956966
1.097497
1.298692
1.499375
1.699743
1.89994
0.3021391
0.4910748
0.6933398
0.8954885
1.097218
1.298399
1.499121
1.699537
1.899773
0.3021289
0.4910373
0.6932634
0.8953689
1.097062
1.298232
1.498969
1.699409
1.899671
0.3021205
0.4910097
0.6932156
0.8953009
1.096978
1.298142
1.498885
1.699338
1.899616
0.3021191
0.4910025
0.6931972
0.8952694
1.096936
1.298095
1.498839
1.699299
1.899585
0.3021243
0.4910131
0.6932021
0.8952623
1.096918
1.298072
1.498816
1.699278
1.899568
0.30213
0.4910271
0.6932146
0.8952662
1.096914
1.298062
1.498804
1.699267
1.89956
0.3021334
0.4910367
0.6932255
0.895273
1.096915
1.298059
1.4988
1.699263
1.899556
0.3021351
0.4910423
0.6932333
0.8952791
1.096918
1.29806
1.498799
1.699261
1.899555
0.3021361
0.4910458
0.6932389
0.8952848
1.096922
1.298063
1.498801
1.699262
1.899555
0.3021367
0.4910485
0.6932437
0.8952906
1.096928
1.298067
1.498805
1.699265
1.899558
0.3021375
0.4910509
0.6932492
0.8952981
1.096936
1.298075
1.498811
1.699271
1.899562
0.3021381
0.4910546
0.6932572
0.8953093
1.096948
1.298088
1.498823
1.69928
1.899569
0.3021394
0.491061
0.6932715
0.8953291
1.09697
1.298108
1.498841
1.699294
1.899579
0.4523014
0.7025622
0.9008801
1.100006
1.299977
1.500008
1.700033
1.900068
0.258333
0.4995488
0.6994953
0.8996389
1.099836
1.299978
1.500055
1.70011
1.900163
0.3062044
0.4964537
0.6978419
0.8989768
1.099701
1.300046
1.500169
1.700279
1.900404
0.3034598
0.4934747
0.6961965
0.8983789
1.099753
1.300243
1.5003
1.700408
1.900647
0.3025311
0.4922228
0.6953758
0.8983154
1.10018
1.250623
1.500312
1.700275
1.901033
0.3023035
0.49179
0.6950899
0.8986799
1.050835
1.251413
1.450278
1.649997
1.900302
0.30223
0.4915799
0.694794
0.898446
1.051059
1.227741
1.650983
1.900427
0.3021889
0.4913968
0.6943412
0.8974168
1.099687
1.300784
1.500672
1.700165
1.900989
0.3021636
0.4912496
0.6939222
0.8966289
1.098703
1.299837
1.500204
1.700263
1.900499
0.302147
0.4911637
0.6936332
0.8960682
1.097981
1.299163
1.499746
1.700012
1.900177
0.302135
0.4911133
0.693456
0.8957037
1.097506
1.298698
1.499379
1.699744
1.899941
0.302118
0.4910592
0.693333
0.8954916
1.097225
1.298406
1.499125
1.699539
1.899774
0.3020922
0.4909856
0.6932327
0.8953612
1.097066
1.298238
1.498973
1.699412
1.899673
0.3020702
0.4909166
0.6931596
0.8952827
1.096978
1.298147
1.498889
1.69934
1.899617
0.302069
0.4909099
0.6931419
0.8952517
1.096936
1.2981
1.498844
1.699301
1.899586
0.3020879
0.4909628
0.6931729
0.8952558
1.096922
1.298078
1.49882
1.699281
1.89957
0.3021128
0.4910143
0.693211
0.8952718
1.096922
1.298069
1.498809
1.69927
1.899561
0.3021317
0.4910418
0.6932366
0.8952862
1.096927
1.298068
1.498805
1.699266
1.899557
0.3021395
0.491055
0.6932521
0.8952976
1.096932
1.298069
1.498805
1.699264
1.899556
0.3021419
0.4910621
0.6932621
0.8953066
1.096939
1.298073
1.498807
1.699266
1.899557
0.3021434
0.491067
0.6932697
0.895315
1.096946
1.298079
1.498811
1.699269
1.899559
0.3021444
0.4910711
0.6932775
0.8953245
1.096956
1.298088
1.498819
1.699275
1.899564
0.3021452
0.4910754
0.6932867
0.8953373
1.09697
1.298103
1.498832
1.699285
1.899571
0.3021463
0.4910812
0.6933005
0.8953567
1.096993
1.298126
1.498852
1.699301
1.899583
0.4523125
0.7023842
0.9007397
1.100005
1.299979
1.500005
1.700043
1.900285
0.2583552
0.4997476
0.6996199
0.8997031
1.099864
1.299981
1.500046
1.700094
1.900144
0.3067028
0.4970575
0.698233
0.899154
1.099756
1.300047
1.50015
1.700236
1.900343
0.3042104
0.4944718
0.6968606
0.8986689
1.099829
1.300248
1.500278
1.700346
1.90055
0.303434
0.4934113
0.6961878
0.8986466
1.100232
1.25064
1.50031
1.70022
1.900872
0.303234
0.4930419
0.6959481
0.8989798
1.0509
1.251414
1.450278
1.649989
1.900355
0.3030893
0.492832
0.6956767
0.8987714
1.051121
1.227749
1.651026
1.900472
0.3030554
0.4926037
0.695262
0.8978664
1.099825
1.30083
1.500695
1.700121
1.900821
0.3031207
0.4924368
0.6949041
0.8972149
1.098955
1.299938
1.500238
1.700231
1.900419
0.3030248
0.4924149
0.6946921
0.8967668
1.098352
1.299341
1.499822
1.700025
1.900156
0.3030018
0.4924305
0.6945666
0.8964739
1.097961
1.298948
1.499501
1.699796
1.899955
0.3029695
0.4923638
0.6944503
0.8962943
1.097726
1.298707
1.499292
1.699629
1.899819
0.3028407
0.492176
0.6943108
0.8961691
1.097593
1.298573
1.499172
1.69953
1.899741
0.3028416
0.4919474
0.6941823
0.896085
1.097517
1.298499
1.499105
1.699474
1.899698
0.3028415
0.4919434
0.6941689
0.89606
1.097482
1.298461
1.499068
1.699443
1.899673
0.3028378
0.4921588
0.6942626
0.8960822
1.097474
1.298443
1.49905
1.699426
1.89966
0.3029687
0.4923251
0.6943478
0.8961109
1.097477
1.298437
1.49904
1.699418
1.899654
0.3030787
0.4923902
0.6943929
0.8961311
1.097483
1.298435
1.499037
1.699414
1.89965
0.3030984
0.4924172
0.6944187
0.8961467
1.097489
1.298437
1.499037
1.699413
1.899649
0.3031043
0.4924311
0.6944346
0.8961588
1.097497
1.298442
1.499039
1.699414
1.89965
0.3031084
0.492441
0.6944462
0.8961695
1.097505
1.298448
1.499043
1.699417
1.899652
0.3031108
0.4924487
0.6944579
0.896182
1.097517
1.298457
1.49905
1.699422
1.899655
0.3031115
0.4924536
0.69447
0.8961975
1.097533
1.298471
1.499062
1.699431
1.899661
0.3031112
0.4924574
0.6944816
0.8962151
1.097555
1.298494
1.499083
1.699448
1.899672
0.4520485
0.7013821
0.9004349
1.100023
1.299962
1.49998
1.700032
1.900345
0.2585435
0.5001824
0.6997716
0.8997846
1.099907
1.299978
1.500025
1.700068
1.900114
0.308128
0.4986586
0.6989048
0.8994106
1.099826
1.300039
1.500109
1.700161
1.900232
0.3066888
0.497092
0.6980602
0.8991377
1.099921
1.300229
1.500219
1.700229
1.900374
0.3061854
0.4964679
0.6976841
0.8992115
1.100255
1.250638
1.500284
1.700052
1.900547
0.3060614
0.496237
0.6975489
0.8994698
1.05097
1.251393
1.450276
1.649941
1.900086
0.3058941
0.4960463
0.6973225
0.8993034
1.051184
1.227754
1.651003
1.900183
0.3050342
0.4956967
0.6969653
0.8986388
1.1
1.300871
1.500725
1.699972
1.900476
0.3068742
0.4953764
0.6966979
0.8981788
1.099369
1.300085
1.500276
1.700156
1.900271
0.305052
0.4956108
0.6965982
0.8978718
1.098949
1.299612
1.499922
1.700026
1.900103
0.3058676
0.4957922
0.6965483
0.8976876
1.098684
1.299326
1.499688
1.699873
1.89997
0.3058227
0.4957137
0.6964543
0.8975661
1.098534
1.29917
1.499554
1.699772
1.899891
0.3048025
0.4953042
0.6962903
0.8974756
1.09845
1.299086
1.499478
1.699712
1.899845
0.3054162
0.4945395
0.6960967
0.8974079
1.098402
1.299039
1.499436
1.699677
1.899819
0.3054219
0.4945454
0.6960933
0.8973935
1.098381
1.299015
1.499413
1.699658
1.899804
0.3048075
0.4953034
0.696264
0.8974199
1.098374
1.299003
1.499401
1.699647
1.899796
0.3057957
0.4956593
0.6963707
0.8974374
1.098371
1.298996
1.499394
1.699642
1.899792
0.3059349
0.495746
0.6964114
0.8974477
1.098371
1.298993
1.499391
1.699639
1.89979
0.3059596
0.4957918
0.6964468
0.8974634
1.098376
1.298994
1.499391
1.699638
1.899789
0.3059841
0.4958172
0.6964699
0.8974769
1.098383
1.298998
1.499392
1.699639
1.899789
0.3059933
0.4958434
0.6964847
0.8974877
1.098391
1.299003
1.499395
1.69964
1.89979
0.3059993
0.4958594
0.6965055
0.8975045
1.098402
1.29901
1.4994
1.699643
1.899791
0.3060049
0.4958644
0.6965283
0.8975259
1.098419
1.299023
1.499409
1.699649
1.899794
0.3059901
0.4958613
0.696539
0.8975433
1.098438
1.299043
1.499428
1.699662
1.899801
0.4515464
0.6521321
0.8493476
1.049328
1.248869
1.448674
1.648991
1.849144
0.2588546
0.5001128
0.6996106
0.8997894
1.099939
1.299972
1.500009
1.70004
1.90007
0.2578574
0.4997513
0.6991486
0.8995353
1.099857
1.300018
1.500069
1.700091
1.900107
0.2565194
0.4993583
0.6988503
0.8994477
1.099956
1.300161
1.50014
1.700151
1.900215
0.2562955
0.4993757
0.6988331
0.8995927
1.100272
1.250518
1.500249
1.69998
1.900164
0.2562223
0.4993363
0.69883
0.8998044
1.050831
1.251269
1.450266
1.64988
1.850065
0.2562369
0.4990856
0.6986231
0.8996787
1.051004
1.227702
1.650641
1.851604
0.2560501
0.4986152
0.6983384
0.8992655
1.100159
1.300847
1.500769
1.69991
1.900081
0.307187
0.4982737
0.6982207
0.8990329
1.099736
1.300185
1.500257
1.700078
1.9001
0.2560198
0.4988088
0.6982103
0.8988864
1.099478
1.299845
1.499995
1.700018
1.900038
0.2562956
0.4989986
0.6981689
0.8987814
1.099334
1.299685
1.499868
1.699951
1.89999
0.2563818
0.498868
0.6981139
0.8987248
1.099262
1.299607
1.499802
1.699906
1.899959
0.2560445
0.4985923
0.6980858
0.8987164
1.099236
1.299571
1.499769
1.69988
1.89994
0.307026
0.4978163
0.6980387
0.8987202
1.099227
1.299554
1.499751
1.699866
1.899929
0.3070593
0.4978626
0.698055
0.8987192
1.099219
1.299543
1.499741
1.699858
1.899923
0.2558663
0.4986855
0.6981015
0.8986988
1.099203
1.299534
1.499734
1.699853
1.899919
0.2561606
0.4987432
0.6980439
0.8986543
1.099182
1.299524
1.49973
1.69985
1.899917
0.25633
0.4987513
0.6980112
0.8986324
1.099171
1.299519
1.499727
1.699849
1.899917
0.2562603
0.4988735
0.6980664
0.8986468
1.099174
1.29952
1.499727
1.699848
1.899917
0.2563805
0.4989245
0.6980976
0.8986596
1.099179
1.299521
1.499727
1.699848
1.899916
0.2563418
0.4989698
0.6981
0.8986638
1.099183
1.299524
1.499728
1.699848
1.899916
0.2564096
0.4989949
0.6981383
0.8986847
1.099194
1.299529
1.49973
1.699848
1.899915
0.2563588
0.499068
0.6981968
0.8987181
1.099211
1.299539
1.499734
1.699848
1.899913
0.2563001
0.4990086
0.6982099
0.8987373
1.099229
1.299554
1.499744
1.699851
1.899911
0.4260232
0.6247614
0.824376
1.050399
1.2499
1.423226
1.624732
1.824322
0.2340775
0.4993044
0.6997408
0.8996277
1.09979
1.300047
1.500091
1.70005
1.899954
0.2336265
0.4998539
0.6996866
0.899277
1.099223
1.299447
1.500047
1.700573
1.900331
0.2337031
0.5002312
0.6996103
0.8986205
1.097188
1.297608
1.50007
1.702374
1.901878
0.234002
0.5014425
0.6996333
0.8971509
1.097411
1.250213
1.450091
1.650017
1.900512
0.2584281
0.5018708
0.6998417
0.8985365
1.050339
1.250994
1.45034
1.64996
1.849904
0.2341977
0.5007588
0.6995875
0.8984468
1.05043
1.227279
0.2336358
0.5000904
0.6992673
0.8971592
1.097565
1.30021
1.500495
1.700011
1.899878
0.2572977
0.5007862
0.6996036
0.8989493
1.099293
1.299873
1.500111
1.700031
1.899986
0.2571856
0.5010934
0.6998569
0.8994581
1.099743
1.299944
1.500014
1.700012
1.900004
0.2339059
0.5003963
0.6997228
0.8994381
1.099731
1.299905
1.499973
1.699994
1.9
0.2346808
0.500171
0.6997036
0.8994251
1.099709
1.299879
1.499952
1.699983
1.899994
0.2336641
0.5009839
0.699953
0.8994979
1.099721
1.299874
1.499944
1.699977
1.899991
0.2579333
0.50197
0.7002228
0.8995806
1.099741
1.299875
1.499941
1.699974
1.899989
0.257089
0.5020861
0.700259
0.8995893
1.099741
1.299873
1.499939
1.699972
1.899988
0.2572751
0.5013688
0.7000258
0.89951
1.099717
1.299866
1.499937
1.699971
1.899987
0.2337461
0.5001313
0.6996977
0.8994034
1.099686
1.299857
1.499934
1.69997
1.899986
0.2578433
0.4999465
0.6995753
0.8993567
1.09967
1.299852
1.499933
1.69997
1.899986
0.2337628
0.500392
0.6996736
0.8993749
1.099672
1.299852
1.499932
1.69997
1.899986
0.258044
0.5005938
0.6997015
0.8993846
1.099675
1.299853
1.499932
1.699969
1.899986
0.2337545
0.5002088
0.6996322
0.8993741
1.099674
1.299853
1.499932
1.699969
1.899985
0.2346101
0.5002936
0.6996889
0.8993949
1.099682
1.299855
1.499932
1.699967
1.899984
0.2340394
0.5010155
0.6998363
0.8994418
1.099699
1.299861
1.49993
1.699962
1.899979
0.2342649
0.5006507
0.6998283
0.8994121
1.099672
1.29987
1.499973
1.700007
1.900002
0.3749284
0.3477065
0.3786363
0.2333088
0.3473789
0.5750464
0.4502228
0.5509767
0.4508534
0.5529221
0.4487988
0.5494092
0.7750354
0.6488928
0.7508985
0.651772
0.751653
0.649661
0.7498597
0.9750306
0.8489353
0.9509742
0.8491831
0.9510337
0.8499021
0.9499635
1.175031
1.048978
1.151
1.048994
1.151008
1.049965
1.149996
1.375031
1.248992
1.351006
1.248987
1.351011
1.249986
1.350008
1.575031
1.448994
1.551008
1.448989
1.551012
1.44999
1.550012
1.775031
1.648993
1.751009
1.648989
1.751013
1.64999
1.750014
1.975031
1.848992
1.95101
1.848989
1.951013
1.84999
1.950016
0.3464018
0.3488823
0.234073
0.3482318
0.2335933
0.3481363
0.349181
0.349311
0.2335819
0.3480115
0.2335558
0.3479171
0.3492999
0.3492979
0.2335521
0.347864
0.2335453
0.3478301
0.3492931
0.3492909
0.2335448
0.3478143
0.233544
0.3478067
0.3492902
0.3492898
0.2335439
0.3478024
0.2335437
0.347801
1.375611
1.223373
1.250968
1.375521
1.227423
1.552747
1.450353
1.549903
1.751411
1.649869
1.749988
1.951013
1.84998
1.950002
0.3492891
0.3492874
0.2335437
0.3477985
0.2335435
0.3477957
1.248119
1.351628
1.227273
1.250949
1.351175
1.449629
1.551051
1.451191
1.550044
1.649011
1.750986
1.649897
1.749994
1.849015
1.950985
1.849998
1.950001
0.349286
0.3492832
0.2335435
0.3477929
0.2335433
0.3477887
0.3492818
0.3492795
0.2335433
0.3477864
0.2335431
0.3477827
0.3492784
0.3492769
0.2335431
0.3477812
0.233543
0.3477787
0.3492765
0.3492757
0.233543
0.3477779
0.2335429
0.3477764
0.3492755
0.3492753
0.2335429
0.3477761
0.2335429
0.3477753
0.3492753
0.3492752
0.2335428
0.3477752
0.2335429
0.3477748
0.3492752
0.3492752
0.2335428
0.3477748
0.2335429
0.3477746
0.3492752
0.3492753
0.2335429
0.3477746
0.2335429
0.3477745
0.3492753
0.3492753
0.2335429
0.3477746
0.2335429
0.3477745
0.3492753
0.3492753
0.2335429
0.3477745
0.2335429
0.3477745
0.3492753
0.3492753
0.2335429
0.3477746
0.2335429
0.3477745
0.3492753
0.3492753
0.2335429
0.3477745
0.2335429
0.3477745
0.3492753
0.3492753
0.2335429
0.3477745
0.2335429
0.3477745
0.3492753
0.3492753
0.2335429
0.3477745
0.2335429
0.3477746
0.3492753
0.3492753
0.2335429
0.3477746
0.2335429
0.3477746
0.3492753
0.3492753
0.2335429
0.3477746
0.2335429
0.3477747
0.3492753
0.3492753
0.2335429
0.3477748
0.2335429
0.3477749
0.3788858
0.2341541
0.3493688
0.3790242
0.2337335
0.3496616
1.375598
1.227547
1.251256
1.375638
1.227818
1.251068
1.351377
1.227695
1.251326
1.351344
0.3790319
0.233728
0.3496775
0.379032
0.2337057
0.3496267
1.375664
1.227811
1.251385
1.375672
1.22787
1.251345
1.35142
1.22775
1.251433
1.351384
0.3790339
0.2337027
0.3496072
0.3790378
0.2337012
0.3495953
1.375681
1.227857
1.251411
1.375679
1.227867
1.251407
1.351414
1.227747
1.251433
1.35139
0.379042
0.2336985
0.3495829
0.3790324
0.2336981
0.3495689
1.375682
1.22786
1.251412
1.37568
1.227861
1.251413
1.351399
1.227741
1.251418
1.351391
0.3790299
0.2336954
0.3495529
0.3790375
0.2336997
0.3495761
1.375681
1.227861
1.251414
1.375682
1.227862
1.251419
1.351391
1.227741
1.251414
1.3514
0.3790462
0.2336981
0.3495895
0.3790501
0.2336981
0.3495955
1.37568
1.227869
1.251409
1.375682
1.227861
1.251436
1.35139
1.22774
1.251412
1.351415
0.3790344
0.233705
0.3496397
0.3789645
0.233732
0.3496738
1.375674
1.227874
1.25135
1.375667
1.227818
1.251439
1.351385
1.227695
1.251351
1.351418
0.3789571
0.2337379
0.3496358
0.3771611
0.2341558
0.3493222
1.375643
1.227825
1.251109
1.375612
1.227555
1.251329
1.351336
1.227414
1.251061
1.351355
0.3775756
0.2333141
0.3475318
0.3481667
0.5757011
0.4488366
0.5494591
0.4503462
0.5509942
0.7753728
0.6496774
0.749902
0.6488493
0.7509419
0.9767739
0.8499636
0.9499087
0.8489497
0.9507857
1.150098
1.050091
1.149971
1.024932
1.175032
1.048893
1.150976
1.349599
1.250018
1.349892
1.224969
1.375068
1.249018
1.351096
1.575678
1.450058
1.549976
1.449186
1.550969
1.976811
1.850025
1.949945
1.849031
1.950816
0.3483556
0.2336179
0.3482599
0.346594
0.3489908
0.3484377
0.2338538
0.3488261
0.3495076
0.3501078
0.3485142
0.2337435
0.3488748
0.3498524
0.3505306
0.3503518
0.2583551
0.3507574
0.3533457
0.2333759
0.3557205
0.3507568
0.2583511
0.3507502
0.2334577
0.3562854
0.2330939
0.3557235
1.375548
1.22743
1.246608
1.375539
1.223375
1.549897
1.424626
1.575662
1.749965
1.624947
1.752729
1.949995
1.851582
1.951386
0.3503122
0.2336219
0.3489347
0.2308517
0.353309
0.3506101
1.250925
1.351147
1.223344
1.248079
1.351634
1.649857
1.750132
1.648898
1.751288
1.849988
1.950008
1.848919
1.950894
0.3487192
0.2565066
0.3484238
0.3502759
0.3508076
0.3486117
0.2576997
0.3494692
0.3520415
0.2328792
0.354433
0.3502304
0.2340479
0.3503197
0.2331223
0.3551513
0.3532365
0.3496778
0.2350394
0.3508384
0.3509963
0.2301908
0.3518227
0.3498816
0.2336416
0.3486953
0.3508495
0.350052
0.3493099
0.256954
0.3499222
0.3516598
0.2330151
0.3547015
0.3502861
0.2570685
0.3502754
0.2333162
0.3561943
0.2335238
0.3565883
0.3503327
0.2580368
0.3505165
0.2335287
0.35665
0.2334724
0.3565009
0.3505556
0.2339852
0.3502641
0.23337
0.3557474
0.3533419
0.3489046
0.2338245
0.3487963
0.3505809
0.3502041
0.3489364
0.2339455
0.3492878
0.3505277
0.3505652
0.3491086
0.2342439
0.3500577
0.3506501
0.2306349
0.3527565
0.3500032
0.2337457
0.3493894
0.2325581
0.353695
0.351458
0.3491877
0.2349284
0.3506141
0.3503987
0.2299969
0.3517432
0.3498978
0.233806
0.3491633
0.3509769
0.3506471
0.3502359
0.2336486
0.3489688
0.2307779
0.3530822
0.3506595
0.266049
0.2681836
0.2654293
0.2666203
0.2654989
0.2666936
0.2653615
0.2670614
0.2653841
0.2671058
0.2653497
0.2670824
0.2653641
0.2671097
0.2653472
0.2670805
0.2653599
0.267109
0.2653469
0.2670803
0.2653592
0.267109
0.2653467
0.2670803
0.2653589
0.2671089
1.476599
1.42472
1.427652
1.475582
1.67501
1.624342
1.624965
1.675487
1.875014
1.824342
1.824989
1.875485
0.2653462
0.2670801
0.2653586
0.2671085
0.2653457
0.2670797
0.265358
0.2671082
0.2653453
0.2670792
0.2653575
0.2671079
0.2653451
0.267079
0.2653572
0.2671078
0.265345
0.2670789
0.2653571
0.2671077
0.265345
0.2670789
0.265357
0.2671077
0.265345
0.2670789
0.265357
0.2671077
0.265345
0.2670789
0.265357
0.2671077
0.265345
0.2670789
0.265357
0.2671077
0.265345
0.2670789
0.265357
0.2671077
0.265345
0.2670789
0.265357
0.2671077
0.265345
0.2670789
0.265357
0.2671077
0.265345
0.2670789
0.265357
0.2671077
0.265345
0.2670789
0.265357
0.2671077
0.265345
0.2670789
0.265357
0.2671077
0.265345
0.2670789
0.265357
0.2671077
0.265345
0.2670789
0.2653571
0.2671077
0.2675835
0.2675233
1.549798
1.450262
1.549788
1.451171
1.549975
1.451239
1.549829
0.2675752
0.2675737
1.549848
1.450275
1.549816
1.451184
1.549867
1.451233
1.549814
0.2675791
0.2675919
1.549834
1.450278
1.549818
1.451204
1.549833
1.451226
1.549805
0.2675758
0.2675938
1.549825
1.450278
1.54982
1.451212
1.549813
1.451219
1.549804
0.2675611
0.2675686
1.54982
1.450279
1.549824
1.451219
1.549804
1.451213
1.549812
0.2675981
0.2676018
1.549818
1.45028
1.549833
1.451227
1.549805
1.451205
1.549832
0.2675998
0.2675995
1.549817
1.450275
1.549848
1.451234
1.549813
1.451183
1.549864
0.2675794
0.267563
1.549795
1.450318
1.549808
1.451231
1.549824
1.451151
1.549961
0.2669642
0.2673638
1.775268
1.649961
1.750042
1.648812
1.75119
1.451261
1.549919
1.449939
1.550762
0.3502967
0.2583402
0.3506147
0.3531012
0.2329117
0.3547449
0.2656092
0.2668345
0.265544
0.2661018
0.266871
0.267353
0.2654053
0.2670453
0.2653937
0.2668437
0.2653577
0.2670829
0.2653657
0.2671078
0.2653489
0.2670805
0.2653602
0.2671095
0.2653471
0.2670804
0.2653592
0.2671089
0.2653468
0.2670803
0.2653591
0.2671089
1.327458
1.388855
1.316459
1.387841
1.317837
1.326193
1.327395
1.387771
1.317791
1.387815
1.317758
1.32744
0.2653466
0.26708
0.2653587
0.2671089
1.326191
1.315629
1.376811
1.31657
1.376243
1.32534
1.326134
1.316537
1.376054
1.316495
1.376142
1.326235
1.525102
1.575659
1.57498
1.524533
1.724989
1.775658
1.775016
1.724515
1.924986
1.975658
1.975012
1.924515
0.2653461
0.2670797
0.2653581
0.2671085
0.2653456
0.2670792
0.2653575
0.2671082
0.2653452
0.267079
0.2653573
0.2671079
0.2653451
0.2670789
0.2653571
0.2671078
0.265345
0.2670789
0.265357
0.2671077
0.265345
0.2670789
0.265357
0.2671077
0.265345
0.2670789
0.265357
0.2671077
0.265345
0.2670789
0.265357
0.2671077
0.265345
0.2670789
0.265357
0.2671077
0.265345
0.2670789
0.265357
0.2671077
0.265345
0.2670789
0.265357
0.2671077
0.265345
0.2670789
0.265357
0.2671077
0.265345
0.2670789
0.265357
0.2671077
0.265345
0.2670789
0.265357
0.2671077
0.265345
0.2670789
0.265357
0.2671077
0.265345
0.2670789
0.265357
0.2671077
0.265345
0.2670789
0.2671077
0.2653571
0.2675966
0.26758
1.327503
1.387789
1.317777
1.327474
1.387793
1.317807
1.327518
1.387801
1.317813
1.3878
1.317798
1.327531
1.326292
1.316525
1.376074
1.326233
1.316557
1.376046
1.326289
1.316565
1.376048
1.316549
1.37606
1.32632
0.2675767
0.2675781
1.327544
1.387804
1.317806
1.327537
1.387804
1.317815
1.327546
1.387805
1.317815
1.387805
1.31781
1.327549
1.326331
1.316559
1.376063
1.326312
1.316568
1.376056
1.326324
1.316568
1.376054
1.316563
1.376061
1.326334
0.2675879
0.2675933
1.327551
1.387806
1.317812
1.327549
1.387805
1.317815
1.327551
1.387806
1.317814
1.387806
1.317813
1.327552
1.326335
1.316565
1.376061
1.326328
1.316568
1.376058
1.326331
1.316568
1.376056
1.316566
1.37606
1.326334
0.2675715
0.2675756
1.327552
1.387806
1.317813
1.327552
1.387806
1.317814
1.327552
1.387806
1.317814
1.387806
1.317814
1.327552
1.326333
1.316566
1.376058
1.32633
1.316567
1.376058
1.326332
1.316567
1.376057
1.316567
1.376058
1.326331
0.2675772
0.2675886
1.327552
1.387806
1.317814
1.327552
1.387806
1.317814
1.327552
1.387806
1.317813
1.387806
1.317814
1.327552
1.326332
1.316567
1.376057
1.326331
1.316567
1.376058
1.326333
1.316566
1.376058
1.316567
1.376058
1.326331
0.2675983
0.2675954
1.327552
1.387806