/*--------------------------------*- C++ -*----------------------------------*\
  =========                 |
  \\      /  F ield         | OpenFOAM: The Open Source CFD Toolbox
   \\    /   O peration     | Website:  https://openfoam.org
    \\  /    A nd           | Version:  7
     \\/     M anipulation  |
\*---------------------------------------------------------------------------*/
FoamFile
{
    version     2.0;
    format      ascii;
    class       volScalarField;
    location    "0.1";
    object      Cy;
}
// * * * * * * * * * * * * * * * * * * * * * * * * * * * * * * * * * * * * * //

dimensions      [0 1 0 0 0 0 0];

internalField   nonuniform List<scalar> 
76598
(
0.2330877
0.2335467
0.2335311
0.2335289
0.2335282
0.2335282
0.233529
0.23353
0.5015221
0.5024309
0.5023555
0.5022735
0.5023248
0.5024421
0.5025897
0.5027467
0.7003613
0.7005888
0.7004028
0.7001872
0.7004711
0.7008503
0.7012754
0.7019926
0.8999475
0.8996574
0.8990115
0.8976043
0.8993471
0.9002869
0.9000044
0.9025241
1.099957
1.099418
1.097449
1.097844
1.045805
1.046415
1.103723
1.105713
1.299997
1.299725
1.298089
1.24617
1.247249
1.227435
1.259363
1.257395
1.500027
1.500381
1.502282
1.450134
1.425657
1.700031
1.700575
1.702468
1.701574
1.701666
1.698365
1.696916
1.696624
1.90001
1.900238
1.900481
1.900405
1.90008
1.899434
1.898819
1.898492
2.099988
2.09998
2.099936
2.099819
2.099606
2.099319
2.099058
2.098869
2.299986
2.299961
2.29992
2.299852
2.299749
2.299622
2.299504
2.299407
2.499991
2.499975
2.49995
2.499913
2.499863
2.499806
2.499751
2.499703
2.699994
2.699984
2.69997
2.699949
2.699924
2.699896
2.69987
2.699847
2.899996
2.89999
2.899982
2.89997
2.899957
2.899943
2.89993
2.899918
3.099997
3.099994
3.099989
3.099982
3.099975
3.099968
3.099961
3.099955
3.299998
3.299996
3.299993
3.299989
3.299985
3.299982
3.299978
3.299975
3.499999
3.499997
3.499996
3.499993
3.499991
3.499989
3.499987
3.499986
3.699999
3.699998
3.699997
3.699996
3.699995
3.699994
3.699993
3.699992
3.9
3.899999
3.899998
3.899998
3.899997
3.899997
3.899996
3.899996
4.1
4.099999
4.099999
4.099999
4.099998
4.099998
4.099998
4.099998
4.3
4.3
4.3
4.299999
4.299999
4.3
4.3
4.3
4.5
4.5
4.5
4.5
4.5
4.500001
4.500001
4.500001
4.7
4.7
4.700001
4.700001
4.700001
4.700002
4.700003
4.700004
4.9
4.900001
4.900002
4.900002
4.900003
4.900005
4.900006
4.900007
0.2587937
0.3084521
0.3071058
0.306644
0.3065721
0.3065922
0.3066371
0.3066876
0.4507918
0.5002459
0.4990016
0.4976986
0.4972577
0.4972397
0.4974018
0.4976487
0.4979188
0.6504403
0.6998032
0.6993164
0.6988315
0.6987607
0.6990417
0.6995671
0.7002524
0.7009921
0.8500249
0.8999032
0.8998077
0.8998534
0.9003299
0.9012771
0.9022679
0.9035257
0.9049465
1.049992
1.100015
1.100136
1.100567
1.101581
1.052272
1.105875
1.106215
1.107527
1.249996
1.300072
1.300287
1.300924
1.251471
1.253399
1.259432
1.257895
1.257578
1.449996
1.500064
1.500243
1.50076
1.451445
1.428818
1.452939
1.453471
1.649996
1.700018
1.700075
1.700215
1.700335
1.698358
1.690705
1.687381
1.685757
1.849995
1.899976
1.899929
1.899796
1.89935
1.897961
1.895543
1.893398
1.891864
2.049994
2.099957
2.099876
2.099701
2.09933
2.098607
2.097561
2.096527
2.09566
2.249994
2.299957
2.299881
2.29974
2.299497
2.299114
2.298619
2.298116
2.297667
2.449994
2.499965
2.499906
2.499809
2.49966
2.499453
2.499207
2.49896
2.498736
2.649994
2.699974
2.699933
2.69987
2.699781
2.699668
2.699542
2.699419
2.699307
2.849995
2.899982
2.899955
2.899915
2.899862
2.8998
2.899734
2.899672
2.899616
3.049995
3.099988
3.09997
3.099946
3.099915
3.099881
3.099845
3.099814
3.099785
3.249995
3.299992
3.299981
3.299966
3.299948
3.299929
3.29991
3.299893
3.299879
3.449995
3.499995
3.499988
3.499979
3.499969
3.499958
3.499948
3.499939
3.499932
3.649995
3.699997
3.699993
3.699987
3.699981
3.699975
3.69997
3.699966
3.699962
3.849995
3.899998
3.899995
3.899992
3.899989
3.899986
3.899983
3.899981
3.89998
4.049995
4.099999
4.099997
4.099996
4.099994
4.099992
4.099991
4.099991
4.099991
4.249995
4.299999
4.299999
4.299998
4.299997
4.299997
4.299997
4.299997
4.299999
4.449995
4.5
4.5
4.5
4.5
4.5
4.500002
4.500003
4.500006
4.649995
4.7
4.700001
4.700001
4.700002
4.700004
4.700007
4.70001
4.700015
4.950054
4.900001
4.900002
4.900004
4.900006
4.900009
4.900013
4.900019
4.900027
0.2584125
0.3068402
0.3043975
0.3036623
0.3035252
0.3035405
0.3035996
0.3036771
0.4517834
0.4998465
0.4973966
0.4950376
0.4941809
0.4940712
0.4942602
0.4946015
0.4950345
0.7013677
0.6996982
0.6986497
0.6976686
0.6974365
0.6977939
0.69848
0.6994662
0.7007701
0.9004107
0.899844
0.899619
0.8996423
0.9003141
0.901567
0.9027157
0.904479
0.9071907
1.100012
1.100027
1.100251
1.100953
1.102287
1.05354
1.106609
1.10752
1.112022
1.300009
1.300132
1.300536
1.301546
1.252629
1.254175
1.259827
1.257412
1.284419
1.500015
1.500126
1.500463
1.5013
1.452466
1.42938
1.453031
1.502079
1.700005
1.70005
1.700164
1.700394
1.700439
1.697424
1.687929
1.682507
1.677226
1.899993
1.89997
1.899891
1.899622
1.898808
1.896476
1.892395
1.888251
1.884534
2.099987
2.099929
2.099775
2.099423
2.098676
2.097247
2.095151
2.092904
2.090798
2.299985
2.299921
2.299769
2.299471
2.298951
2.298136
2.29707
2.295933
2.29486
2.499987
2.499932
2.499809
2.499594
2.499261
2.498801
2.498248
2.497676
2.497141
2.69999
2.699948
2.699859
2.699714
2.69951
2.699251
2.69896
2.698672
2.698405
2.899993
2.899963
2.899902
2.899809
2.899686
2.899541
2.899386
2.899239
2.899105
3.099995
3.099975
3.099935
3.099877
3.099804
3.099722
3.099639
3.099564
3.099496
3.299997
3.299983
3.299958
3.299923
3.299879
3.299834
3.299789
3.299749
3.299715
3.499998
3.49999
3.499974
3.499952
3.499927
3.499901
3.499877
3.499857
3.499839
3.699999
3.699994
3.699984
3.699971
3.699957
3.699942
3.699929
3.699919
3.69991
3.899999
3.899996
3.89999
3.899983
3.899975
3.899967
3.89996
3.899955
3.899952
4.1
4.099998
4.099994
4.09999
4.099986
4.099982
4.099979
4.099978
4.099978
4.3
4.299999
4.299997
4.299995
4.299993
4.299992
4.299992
4.299993
4.299996
4.5
4.5
4.499999
4.499998
4.499998
4.499999
4.500001
4.500006
4.500013
4.7
4.7
4.7
4.700001
4.700003
4.700006
4.700011
4.700019
4.700031
4.9
4.900001
4.900002
4.900004
4.900007
4.900013
4.900022
4.900036
4.900056
0.2583422
0.3062451
0.3035215
0.3026272
0.3024579
0.3024746
0.3025489
0.3026512
0.4522724
0.4996058
0.4965982
0.4937528
0.4926845
0.4925317
0.4927576
0.4932004
0.4937963
0.7023779
0.6995834
0.6981519
0.6968496
0.6965098
0.6969313
0.6977947
0.699163
0.7011008
0.9007506
0.8997917
0.8994537
0.8994249
0.9001763
0.9016317
0.9031079
0.9057306
0.909985
1.100028
1.100029
1.100313
1.101163
1.102637
1.054052
1.107269
1.109562
1.117341
1.300007
1.300163
1.300683
1.301844
1.253082
1.254388
1.259967
1.258583
1.28792
1.500018
1.500156
1.500583
1.501506
1.452778
1.429463
1.452391
1.49821
1.700007
1.700058
1.700191
1.700398
1.700206
1.696661
1.686358
1.679066
1.670153
1.899992
1.899957
1.899837
1.899461
1.898317
1.89526
1.890018
1.884179
1.87834
2.099982
2.099902
2.099681
2.099151
2.098059
2.096017
2.093003
2.089583
2.086183
2.29998
2.299891
2.29967
2.299219
2.298411
2.297153
2.295504
2.293688
2.29191
2.499982
2.499904
2.499724
2.499392
2.498866
2.498138
2.497262
2.496341
2.495459
2.699985
2.699926
2.699793
2.699568
2.69924
2.698823
2.698356
2.69789
2.697453
2.899989
2.899947
2.899856
2.899709
2.89951
2.899272
2.899023
2.898784
2.898565
3.099993
3.099964
3.099903
3.099811
3.099692
3.099557
3.099423
3.0993
3.099189
3.299996
3.299976
3.299937
3.29988
3.29981
3.299734
3.299661
3.299597
3.299541
3.499997
3.499985
3.49996
3.499926
3.499885
3.499842
3.499803
3.499769
3.499741
3.699998
3.699991
3.699976
3.699955
3.699931
3.699907
3.699886
3.699869
3.699855
3.899999
3.899994
3.899985
3.899973
3.89996
3.899947
3.899936
3.899928
3.899922
4.099999
4.099997
4.099991
4.099985
4.099978
4.099971
4.099967
4.099964
4.099964
4.3
4.299998
4.299995
4.299992
4.299988
4.299986
4.299986
4.299989
4.299993
4.5
4.499999
4.499998
4.499996
4.499996
4.499997
4.5
4.500008
4.500019
4.7
4.7
4.699999
4.699999
4.7
4.700005
4.700013
4.700026
4.700046
4.9
4.9
4.9
4.900001
4.900004
4.900012
4.900027
4.900049
4.900083
0.2583293
0.3061278
0.3033423
0.3024171
0.3022396
0.3022596
0.3023432
0.3024583
0.4522995
0.4995249
0.4963853
0.4934124
0.4922886
0.4921319
0.4923874
0.4928934
0.4935808
0.7025691
0.6995314
0.6979733
0.6965618
0.696195
0.6966638
0.6976403
0.6992396
0.7015352
0.9009025
0.8997685
0.8993907
0.8993534
0.9001453
0.901692
0.9033636
0.9064814
0.9115621
1.100036
1.100029
1.10034
1.101237
1.102748
1.054204
1.107569
1.110514
1.119791
1.300005
1.300176
1.300739
1.301936
1.253208
1.25445
1.260028
1.259124
1.289331
1.500018
1.500166
1.500615
1.501547
1.452845
1.429477
1.452189
1.496663
1.700006
1.700057
1.70018
1.700339
1.700038
1.696311
1.68569
1.677592
1.66702
1.899989
1.899945
1.899789
1.899311
1.897959
1.894571
1.888808
1.882132
1.875199
2.099979
2.099885
2.099622
2.098991
2.097694
2.095282
2.091743
2.087641
2.083475
2.299977
2.299873
2.299612
2.299071
2.298092
2.296559
2.294532
2.292265
2.290011
2.499978
2.499888
2.499675
2.499277
2.498627
2.497715
2.496614
2.495448
2.49432
2.699983
2.699914
2.699757
2.699484
2.699077
2.698552
2.697965
2.697377
2.696825
2.899987
2.899938
2.899829
2.899651
2.899403
2.899103
2.898787
2.898487
2.898213
3.099992
3.099957
3.099884
3.099772
3.099623
3.099453
3.099283
3.099128
3.098989
3.299995
3.299971
3.299924
3.299855
3.299767
3.299671
3.299579
3.299498
3.299427
3.499997
3.499982
3.499952
3.49991
3.499858
3.499804
3.499754
3.499712
3.499676
3.699998
3.699989
3.699971
3.699945
3.699916
3.699885
3.699859
3.699837
3.699819
3.899999
3.899994
3.899983
3.899968
3.899951
3.899934
3.899921
3.899911
3.899903
4.099999
4.099996
4.09999
4.099981
4.099972
4.099964
4.099958
4.099955
4.099955
4.3
4.299998
4.299994
4.29999
4.299985
4.299983
4.299982
4.299985
4.299991
4.5
4.499999
4.499997
4.499994
4.499993
4.499994
4.499999
4.500008
4.500021
4.7
4.699999
4.699998
4.699996
4.699997
4.700001
4.700011
4.700028
4.700054
4.9
4.899999
4.899998
4.899996
4.899997
4.900005
4.900023
4.900052
4.900096
0.2583364
0.306208
0.3034746
0.3025766
0.3024084
0.3024294
0.3025066
0.3026035
0.4523016
0.4995665
0.4965161
0.4936305
0.4925524
0.4924112
0.4926671
0.493163
0.4938232
0.7025742
0.6995684
0.698074
0.6967278
0.6963973
0.6968757
0.6978466
0.6994301
0.7016967
0.9009064
0.8997874
0.8994397
0.8994339
0.9002396
0.901781
0.9034483
0.9065523
0.9116127
1.100038
1.100037
1.100358
1.101264
1.102774
1.054251
1.107588
1.110528
1.119796
1.300012
1.300177
1.300744
1.301942
1.253234
1.254462
1.26004
1.259204
1.28933
1.500038
1.500166
1.500614
1.501545
1.452851
1.429479
1.452166
1.496657
1.700025
1.700057
1.700177
1.700332
1.700027
1.696297
1.685671
1.677568
1.66699
1.89999
1.899943
1.899784
1.8993
1.89794
1.894542
1.888768
1.882082
1.875143
2.099959
2.099881
2.099616
2.098979
2.097674
2.09525
2.0917
2.087586
2.083413
2.299962
2.299871
2.299607
2.299062
2.298076
2.296533
2.294496
2.292221
2.289961
2.5
2.499889
2.499674
2.499271
2.498616
2.497698
2.49659
2.495419
2.494287
2.700027
2.699917
2.699758
2.699482
2.699071
2.698542
2.697951
2.69736
2.696806
2.90001
2.89994
2.89983
2.89965
2.899399
2.899097
2.89878
2.898478
2.898203
3.09997
3.099954
3.099882
3.09977
3.099621
3.09945
3.099279
3.099123
3.098984
3.299951
3.299967
3.299921
3.299853
3.299766
3.299669
3.299577
3.299496
3.299425
3.499968
3.49998
3.49995
3.499909
3.499858
3.499803
3.499754
3.499711
3.499675
3.699992
3.699989
3.69997
3.699945
3.699915
3.699885
3.699858
3.699837
3.699819
3.9
3.899994
3.899983
3.899968
3.899951
3.899935
3.899921
3.899911
3.899903
4.1
4.099996
4.09999
4.099981
4.099972
4.099964
4.099959
4.099956
4.099955
4.3
4.299998
4.299994
4.29999
4.299986
4.299983
4.299983
4.299985
4.299991
4.5
4.499999
4.499997
4.499994
4.499993
4.499994
4.499998
4.500007
4.500021
4.7
4.699999
4.699997
4.699995
4.699994
4.699998
4.700008
4.700026
4.700053
4.9
4.899999
4.899995
4.899991
4.899989
4.899995
4.900013
4.900045
4.900092
0.2583538
0.3067205
0.3042472
0.3035014
0.3033648
0.3033863
0.3034431
0.3034263
0.4522946
0.499773
0.4971506
0.4946687
0.4937727
0.4936732
0.4939013
0.4943124
0.4948154
0.7023926
0.699698
0.6984757
0.6973899
0.6971675
0.6976162
0.698455
0.6997696
0.7016177
0.9007623
0.8998418
0.8995856
0.8996471
0.9004401
0.9018765
0.9033268
0.9058985
0.9100906
1.100035
1.100048
1.100355
1.101228
1.102702
1.054217
1.107305
1.109578
1.11733
1.300027
1.300165
1.300691
1.301855
1.253191
1.254435
1.26001
1.258958
1.287912
1.500239
1.500154
1.50058
1.501498
1.452822
1.429477
1.452245
1.498183
1.700317
1.700064
1.700184
1.700376
1.700167
1.696606
1.686283
1.678968
1.670033
1.899994
1.899953
1.899822
1.899426
1.898253
1.895159
1.889875
1.883996
1.878131
2.099669
2.099886
2.099661
2.099116
2.097996
2.095916
2.09286
2.089402
2.085976
2.299773
2.299883
2.299656
2.299192
2.298363
2.297078
2.295398
2.293555
2.291758
2.50021
2.499908
2.499721
2.499378
2.498836
2.49809
2.497197
2.49626
2.495367
2.700546
2.699947
2.699801
2.699563
2.699224
2.698796
2.69832
2.697846
2.697403
2.900316
2.899965
2.899862
2.899707
2.899501
2.899258
2.899004
2.898761
2.89854
3.099667
3.099945
3.099892
3.099805
3.099686
3.09955
3.099414
3.099289
3.099177
3.299434
3.299953
3.299924
3.299874
3.299806
3.299731
3.299657
3.299592
3.299535
3.499744
3.499977
3.499954
3.499923
3.499883
3.49984
3.499801
3.499767
3.499738
3.699979
3.69999
3.699974
3.699954
3.69993
3.699907
3.699886
3.699869
3.699854
3.900002
3.899996
3.899985
3.899973
3.89996
3.899947
3.899936
3.899928
3.899923
4.099999
4.099997
4.099991
4.099985
4.099978
4.099972
4.099968
4.099965
4.099965
4.3
4.299998
4.299996
4.299992
4.299989
4.299988
4.299988
4.29999
4.299994
4.5
4.5
4.499998
4.499996
4.499996
4.499997
4.500001
4.500008
4.500019
4.700001
4.7
4.699998
4.699996
4.699995
4.699999
4.700007
4.700022
4.700044
4.899999
4.899998
4.899994
4.899988
4.899984
4.899988
4.900003
4.900032
4.900074
0.2585414
0.3081539
0.3067238
0.3062276
0.3061539
0.3061921
0.3062429
0.306157
0.4520363
0.5002108
0.4987541
0.4972629
0.4967418
0.4967255
0.4969279
0.4972211
0.4975031
0.7013843
0.6998371
0.6991051
0.6984793
0.6984384
0.698824
0.6994341
0.7003095
0.7014806
0.9004403
0.8998875
0.8997382
0.8998749
0.900603
0.9018093
0.9028537
0.9044867
0.9070997
1.10005
1.100048
1.100275
1.100999
1.102331
1.053955
1.106567
1.10742
1.111882
1.300009
1.300124
1.300533
1.301541
1.252964
1.254312
1.259908
1.258057
1.284377
1.500265
1.500116
1.500454
1.501276
1.452665
1.429455
1.452651
1.501975
1.702037
1.700084
1.700155
1.700349
1.70035
1.697276
1.687707
1.682211
1.676873
1.900015
1.899968
1.899864
1.899561
1.898686
1.896257
1.892061
1.887813
1.884035
2.097941
2.099874
2.09974
2.099368
2.098573
2.097069
2.094884
2.092557
2.090394
2.299704
2.299902
2.299748
2.299434
2.298882
2.298023
2.296904
2.295719
2.294612
2.500272
2.499943
2.499807
2.499574
2.499222
2.498738
2.498158
2.497563
2.497009
2.702333
2.700025
2.699877
2.699707
2.699489
2.699218
2.698915
2.698616
2.698341
2.901849
2.900048
2.899921
2.899807
2.899676
2.899525
2.899365
2.899213
2.899076
3.098143
3.099889
3.099911
3.099869
3.099798
3.099714
3.099629
3.099552
3.099482
3.297654
3.299904
3.299934
3.299916
3.299877
3.29983
3.299785
3.299744
3.299709
3.499683
3.499972
3.499966
3.49995
3.499926
3.4999
3.499876
3.499855
3.499837
3.699988
3.699993
3.699982
3.69997
3.699956
3.699942
3.699929
3.699918
3.699909
3.90001
3.900001
3.899989
3.899982
3.899975
3.899968
3.899961
3.899956
3.899952
4.099995
4.099995
4.099994
4.099991
4.099987
4.099984
4.099981
4.09998
4.099979
4.299996
4.299996
4.299996
4.299996
4.299996
4.299995
4.299995
4.299996
4.299998
4.500008
4.500005
4.500001
4.500001
4.500002
4.500003
4.500005
4.500009
4.500015
4.700006
4.700005
4.700002
4.700002
4.700003
4.700006
4.700011
4.700019
4.700032
4.899989
4.899998
4.899999
4.899995
4.89999
4.89999
4.9
4.900022
4.90005
0.2588585
0.2578853
0.2565115
0.2562549
0.2561498
0.2562756
0.2564016
0.2563327
0.4515526
0.5001589
0.4998815
0.499541
0.4995066
0.499562
0.499645
0.4998174
0.4999558
0.6521313
0.699658
0.6992855
0.6991169
0.6992677
0.6995367
0.6998522
0.7003286
0.7009731
0.8492302
0.8998347
0.8997138
0.8998409
0.9003619
0.9011928
0.9018556
0.9028063
0.9041432
1.04932
1.100007
1.100082
1.100522
1.101521
1.052989
1.105379
1.105565
1.10697
1.249004
1.300049
1.300265
1.300892
1.252184
1.253872
1.259637
1.257022
1.257337
1.448709
1.500055
1.50024
1.500723
1.452048
1.429318
1.453484
1.454507
1.649944
1.700064
1.700062
1.70015
1.70017
1.697962
1.689959
1.686412
1.684673
1.90012
1.899963
1.899892
1.89972
1.89917
1.897569
1.894876
1.892502
1.890849
2.046639
2.099884
2.099843
2.099645
2.099208
2.098366
2.09717
2.096005
2.095049
2.248666
2.299925
2.299864
2.299708
2.299429
2.29899
2.298426
2.297861
2.297366
2.449
2.499994
2.499901
2.499789
2.499625
2.499395
2.499121
2.498848
2.498603
2.650007
2.700045
2.699934
2.699857
2.699763
2.699641
2.699505
2.699372
2.699252
2.900412
2.900099
2.899965
2.89991
2.899854
2.899789
2.899719
2.899653
2.899594
3.099605
3.099866
3.099953
3.099943
3.099912
3.099876
3.099839
3.099806
3.099777
3.246405
3.299926
3.299977
3.299969
3.299949
3.299928
3.299908
3.299891
3.299876
3.448753
3.499987
3.499995
3.499984
3.49997
3.499958
3.499947
3.499938
3.499931
3.648997
3.699993
3.699991
3.699988
3.699982
3.699976
3.69997
3.699966
3.699962
3.848997
3.900003
3.899989
3.89999
3.899989
3.899986
3.899984
3.899982
3.89998
4.048995
4.09999
4.099998
4.099997
4.099996
4.099994
4.099993
4.099992
4.099992
4.248886
4.299978
4.299995
4.3
4.300001
4.300002
4.300001
4.300001
4.300001
4.448988
4.500021
4.500002
4.500004
4.500008
4.50001
4.500011
4.500011
4.500011
4.649173
4.700011
4.700006
4.700012
4.700018
4.700021
4.700022
4.700022
4.700023
4.950895
4.900008
4.900017
4.900017
4.900017
4.900017
4.90002
4.900027
4.900035
0.2340791
0.2337579
0.2337819
0.2581555
0.2583257
0.2341215
0.2340833
0.2338151
0.4260086
0.4993508
0.5000232
0.5006111
0.5017398
0.5018114
0.5009493
0.500972
0.501114
0.6246298
0.6997749
0.6997618
0.6997637
0.6998106
0.6999005
0.6999054
0.70009
0.7003608
0.8242478
0.8996898
0.8993408
0.8987455
0.8973794
0.898862
0.8983989
0.899952
0.899067
1.025105
1.099751
1.099287
1.097345
1.097732
1.051123
1.052169
1.053262
1.10315
1.250001
1.300034
1.299712
1.298057
1.250722
1.252443
1.258402
1.25896
1.260164
1.423236
1.500187
1.500407
1.50226
1.450678
1.428295
1.625091
1.699981
1.700552
1.70241
1.701366
1.700814
1.696029
1.694258
1.693753
1.85154
1.899868
1.90019
1.900413
1.900211
1.899559
1.898461
1.897486
1.897016
2.047147
2.100093
2.099993
2.099902
2.099713
2.099361
2.098891
2.098473
2.098186
2.224221
2.299997
2.299969
2.299903
2.299805
2.29965
2.299457
2.299278
2.299137
2.424137
2.500007
2.499953
2.499935
2.499892
2.499827
2.499748
2.499672
2.499609
2.625172
2.699799
2.699926
2.69995
2.699938
2.69991
2.699877
2.699844
2.699816
2.851727
2.899945
2.899969
2.899973
2.899965
2.899952
2.899936
2.899922
2.899909
3.048605
3.100021
3.100004
3.099992
3.099983
3.099974
3.099966
3.099959
3.099952
3.247067
3.300178
3.300047
3.300008
3.299994
3.299986
3.299981
3.299977
3.299974
3.424095
3.500072
3.500029
3.500006
3.499997
3.499992
3.499989
3.499987
3.499986
3.650096
3.699989
3.699996
3.699998
3.699997
3.699995
3.699994
3.699993
3.699992
3.824282
3.899892
3.899976
3.899993
3.899997
3.899997
3.899996
3.899996
3.899996
4.049794
4.100089
4.100017
4.100002
4.1
4.099999
4.099999
4.099999
4.099998
4.224379
4.299968
4.300002
4.300001
4.300003
4.300003
4.300003
4.300002
4.300001
4.424154
4.499983
4.499986
4.500002
4.500009
4.500011
4.500011
4.500008
4.500006
4.625103
4.699925
4.69999
4.700015
4.700026
4.70003
4.700028
4.700022
4.700015
4.823335
4.900123
4.900008
4.899989
4.900004
4.900016
4.900006
4.89999
4.899996
0.2308317
0.3515785
0.2337592
0.3775679
0.3492914
0.2335199
0.3529203
0.3561604
0.2587165
0.2576112
0.3510148
0.3510383
0.2335354
0.3566494
0.3567766
0.2582314
0.2572112
0.3508613
0.3504685
0.2335291
0.3567516
0.356733
0.2569694
0.2568377
0.3502645
0.3501199
0.2335283
0.3567241
0.3567205
0.2568131
0.2568003
0.3500733
0.35005
0.2335281
0.3567217
0.3567279
0.2567987
0.2567998
0.3500475
0.3500547
0.2335289
0.3567334
0.3567466
0.2568014
0.2568044
0.350063
0.3500805
0.2335299
0.3567549
0.3567705
0.2568069
0.2568105
0.350093
0.3501134
0.2335307
0.3567776
0.3567868
0.2568129
0.2568155
0.3501252
0.3501414
0.451611
0.5515389
0.4260311
0.4497068
0.5755813
0.5498827
0.6491905
0.7509859
0.6245089
0.6499664
0.7755504
0.7499486
0.8490206
0.9509721
0.8244712
0.8500032
0.9755357
0.9499679
1.049019
1.150978
1.024464
1.05002
1.175536
1.149979
1.249022
1.350979
1.224464
1.250026
1.375536
1.349982
1.225692
1.37592
1.252576
1.230774
1.378049
1.256607
1.259215
1.260517
1.257359
1.260492
1.260661
1.257571
1.260833
1.261002
1.449021
1.550977
1.424464
1.450026
1.575536
1.549979
1.556373
1.556266
1.42837
1.551489
1.549837
1.55263
1.550737
1.540559
1.535342
1.550474
1.550448
1.535084
1.535178
1.550434
1.550419
1.535117
1.535003
1.64902
1.750976
1.624464
1.650024
1.775536
1.749974
1.84902
1.950976
1.824464
1.850024
1.975536
1.949971
2.049021
2.150977
2.024464
2.050024
2.175536
2.14997
2.249022
2.350977
2.224464
2.250025
2.375536
2.349971
2.449022
2.550977
2.424464
2.450026
2.575536
2.549971
2.649022
2.750978
2.624464
2.650026
2.775536
2.749971
2.849022
2.950978
2.824464
2.850027
2.975536
2.949971
3.049022
3.150978
3.024464
3.050027
3.175536
3.149972
3.249022
3.350978
3.224464
3.250027
3.375536
3.349972
3.449022
3.550978
3.424464
3.450027
3.575536
3.549972
3.649022
3.750978
3.624464
3.650028
3.775536
3.749972
3.849022
3.950978
3.824464
3.850028
3.975536
3.949972
4.049022
4.150978
4.024464
4.050028
4.175536
4.149972
4.249022
4.350978
4.224464
4.250028
4.375536
4.349972
4.449022
4.550978
4.424464
4.450028
4.575536
4.549972
4.649022
4.750978
4.624464
4.650028
4.775536
4.749972
4.849022
4.950978
4.824464
4.850028
4.975536
4.949972
0.2337621
0.3771479
0.3495872
0.2337107
0.378956
0.3496277
1.231045
1.378517
1.253916
1.231565
1.378997
1.552213
1.549322
1.429343
1.552197
1.548799
0.2337046
0.3789659
0.3496016
0.2336982
0.3790187
0.349594
1.231602
1.379076
1.254315
1.231742
1.37915
1.55227
1.548683
1.429462
1.552171
1.548509
0.2336977
0.3790275
0.3495735
0.2336924
0.3790319
0.349554
1.231751
1.379171
1.254429
1.231801
1.379184
1.552185
1.548483
1.429479
1.552123
1.548404
0.2336949
0.3790248
0.3495485
0.2336943
0.3790306
0.3495528
1.231804
1.37919
1.25446
1.231818
1.379191
1.552124
1.548394
1.429479
1.552103
1.54837
0.233697
0.3790339
0.3495728
0.2336938
0.3790316
0.3495633
1.231818
1.379191
1.254454
1.231807
1.37919
1.552102
1.54837
1.429476
1.55212
1.548391
0.2336964
0.379022
0.3495694
0.2337083
0.378992
0.349598
1.231805
1.379183
1.254392
1.231751
1.379169
1.552114
1.548397
1.429459
1.552169
1.548468
0.2337075
0.3789964
0.34962
0.2337242
0.378988
0.3496551
1.231739
1.379146
1.254157
1.231573
1.379061
1.552142
1.548482
1.429361
1.552215
1.548624
0.2337329
0.3789809
0.3496483
0.2341574
0.3771375
0.3493152
1.231516
1.378977
1.253314
1.230836
1.378473
1.55209
1.548665
1.428758
1.552002
1.548987
0.2333162
0.3775428
0.3475184
0.3481589
0.2336464
0.3483772
0.3483962
0.346603
0.349071
0.2339883
0.348943
0.3493166
0.3499104
0.3504496
0.2341171
0.349089
0.3499711
0.3503914
0.3521099
0.2583238
0.3503831
0.3506003
0.2308539
0.2334456
0.3548571
0.3561319
0.2581635
0.3506099
0.3504266
0.2334469
0.2308561
0.3561439
0.3549057
0.2338147
0.3500913
0.3494161
0.3522755
0.3510186
0.2341112
0.3494355
0.3501182
0.3510384
0.3523133
0.4488397
0.57559
0.54948
0.4503455
0.5510092
0.6497177
0.7754086
0.7498593
0.6488914
0.750895
0.8500139
0.9759269
0.9499005
0.8490306
0.9508535
1.049976
1.150291
1.150051
1.048741
1.175241
1.15095
1.250026
1.349703
1.349888
1.224997
1.248998
1.374115
1.351039
1.230434
1.377996
1.247127
1.224824
1.375895
1.259104
1.22556
1.226722
1.259419
1.227867
1.256498
1.260624
1.259237
1.257107
1.450069
1.575614
1.550005
1.424786
1.449267
1.55106
1.551112
1.548989
1.4256
1.555911
1.554801
1.533048
1.532271
1.546137
1.544296
1.531585
1.531811
1.542856
1.545072
1.649954
1.752939
1.750066
1.648918
1.750932
1.849973
1.948941
1.95
1.848892
1.975621
1.950913
2.049944
2.174849
2.149989
2.024807
2.049025
2.15124
2.249941
2.375503
2.349805
2.249017
2.375003
2.350838
2.450257
2.575775
2.550008
2.449204
2.55097
2.649988
2.75315
2.750021
2.648805
2.775879
2.750859
2.849967
2.9514
2.949996
2.825112
2.84896
2.97504
2.951001
3.050004
3.148311
3.150029
3.024961
3.049
3.174967
3.151024
3.249951
3.374842
3.350011
3.224717
3.249056
3.351248
3.450061
3.576714
3.549899
3.449108
3.550884
3.649997
3.775017
3.750031
3.648997
3.751049
3.85004
3.976646
3.949922
3.848984
3.975096
3.95076
4.050067
4.174917
4.149997
4.025072
4.049089
4.151181
4.249911
4.375504
4.349819
4.248956
4.375005
4.350846
4.450248
4.57591
4.549968
4.449193
4.550903
4.850084
4.975403
4.950025
4.824815
4.849261
4.951074
0.2675419
0.2694811
0.4748827
0.4245909
0.4246783
0.4757285
0.674993
0.6243832
0.6249811
0.6754562
0.8749983
0.8243667
0.8249945
0.8754538
1.075
1.024369
1.024997
1.075455
1.275
1.22437
1.224998
1.275456
1.475
1.42437
1.424998
1.475455
1.465804
1.477328
1.470034
1.476607
1.464244
1.476205
1.464218
1.476253
1.464262
1.476199
1.464265
1.476251
1.675
1.624369
1.624998
1.675455
1.875
1.82437
1.824998
1.875455
2.075
2.02437
2.024998
2.075455
2.275
2.22437
2.224998
2.275455
2.475
2.42437
2.424998
2.475455
2.675
2.62437
2.624998
2.675455
2.875
2.82437
2.824998
2.875455
3.075
3.02437
3.024998
3.075455
3.275
3.22437
3.224998
3.275455
3.475
3.42437
3.424998
3.475455
3.675
3.62437
3.624998
3.675455
3.875
3.82437
3.824998
3.875455
4.075
4.02437
4.024998
4.075455
4.275
4.22437
4.224998
4.275455
4.475
4.42437
4.424998
4.475455
4.675
4.62437
4.624998
4.675455
4.875
4.82437
4.824998
4.875455
0.2675504
0.267537
1.259638
1.259712
1.25963
1.53769
1.531159
1.536637
1.529897
0.267567
0.2675652
1.259677
1.259914
1.259871
1.53639
1.529505
1.536136
1.529117
0.2675964
0.2675931
1.259984
1.260008
1.260099
1.53608
1.528954
1.535973
1.528778
0.2675528
0.2675663
1.260144
1.26004
1.260175
1.535955
1.528721
1.535924
1.528674
0.2675934
0.2675721
1.260175
1.26003
1.260147
1.535923
1.528673
1.535951
1.528717
0.2675377
0.2675749
1.260099
1.259967
1.259983
1.535966
1.52877
1.536066
1.528937
0.2675775
0.2675488
1.259859
1.259803
1.259638
1.536107
1.529084
1.536324
1.529426
0.2675817
0.2676129
1.259506
1.259196
1.259248
1.536465
1.529691
1.537141
1.530489
0.2669277
0.2673035
0.2340838
0.3501546
0.3501652
0.3524903
0.3525001
1.538464
1.532651
1.547566
1.54375
4.649997
4.749999
4.749965
4.64876
4.774331
4.750996
0.3223713
0.3753924
0.3741279
0.3239029
0.2675432
0.2675026
0.5249421
0.57566
0.5749797
0.524736
0.7249942
0.7756269
0.7749995
0.7245435
0.9249989
0.9756299
0.9750019
0.9245436
1.125
1.175631
1.175002
1.124545
1.325
1.37563
1.375003
1.324545
1.32872
1.319651
1.389252
1.320929
1.39127
1.327059
1.328912
1.320753
1.391715
1.320761
1.391508
1.329088
1.525
1.57563
1.575002
1.524545
1.478847
1.414273
1.479353
1.417852
1.476482
1.480451
1.479942
1.41846
1.47619
1.418157
1.476467
1.480147
1.464477
1.476223
1.464218
1.476356
1.464259
1.4762
1.464265
1.476252
1.464261
1.476199
1.464261
1.476251
1.725
1.77563
1.775002
1.724544
1.925
1.97563
1.975002
1.924545
2.125
2.17563
2.175002
2.124545
2.325
2.37563
2.375002
2.324545
2.525
2.57563
2.575002
2.524545
2.725
2.77563
2.775002
2.724545
2.925
2.97563
2.975002
2.924545
3.125
3.17563
3.175002
3.124545
3.325
3.37563
3.375002
3.324545
3.525
3.57563
3.575002
3.524545
3.725
3.77563
3.775002
3.724545
3.925
3.97563
3.975002
3.924545
4.125
4.17563
4.175002
4.124545
4.325
4.37563
4.375002
4.324545
4.525
4.57563
4.575002
4.524545
4.725
4.77563
4.775002
4.724545
4.925
4.97563
4.924545
4.975002
0.2675548
0.2675603
1.329259
1.320742
1.391748
1.329191
1.320778
1.391778
1.329298
1.320791
1.391797
1.320774
1.39179
1.329327
1.480248
1.418477
1.476118
1.480268
1.418526
1.476019
1.480279
1.418543
1.47598
1.418526
1.476012
1.480258
0.2675711
0.2675939
1.329356
1.320788
1.391804
1.329343
1.320798
1.391805
1.329364
1.320802
1.391808
1.320796
1.391809
1.329371
1.48026
1.418541
1.475989
1.480277
1.418548
1.475968
1.480268
1.41855
1.475958
1.418546
1.47597
1.480255
0.2675815
0.2675879
1.329379
1.320801
1.391811
1.329374
1.320804
1.39181
1.32938
1.320806
1.391811
1.320803
1.391811
1.329382
1.480254
1.418548
1.475963
1.480262
1.41855
1.475955
1.480257
1.41855
1.475949
1.418549
1.475955
1.480249
0.2675628
0.267561
1.329384
1.320805
1.391811
1.329383
1.320806
1.391811
1.329385
1.320806
1.391811
1.320806
1.391812
1.329385
1.48025
1.418549
1.475951
1.480251
1.41855
1.475949
1.48025
1.41855
1.475947
1.41855
1.475949
1.480247
0.2675763
0.2675828
1.329385
1.320806
1.391811
1.329385
1.320806
1.391812
1.329385
1.320805
1.391811
1.320807
1.391811
1.329384
1.48025
1.41855
1.475947
1.480247
1.41855
1.475949
1.480249
1.418549
1.475951
1.41855
1.475949
1.48025
0.2675086
0.2675189
1.329381
1.320806
1.391811
1.329383
1.320804
1.391811
1.329379
1.320801
1.39181
1.320805
1.39181
1.329374
1.480255
1.41855
1.475948
1.480248
1.418549
1.475954
1.480252
1.418548
1.475961
1.41855
1.475953
1.480259
0.2676061
0.2675995
1.329362
1.320802
1.391808
1.32937
1.320796
1.391808
1.329354
1.320786
1.391802
1.320797
1.391804
1.329338
1.480263
1.418549
1.475955
1.480251
1.418545
1.475966
1.480253
1.418538
1.47598
1.418547
1.475963
1.480265
0.2675581
0.267487
1.329288
1.320788
1.391795
1.32932
1.320767
1.391787
1.329244
1.320721
1.39174
1.32077
1.391774
1.329167
1.48025
1.418539
1.475966
1.48024
1.418521
1.475987
1.480203
1.418465
1.47602
1.41852
1.475975
1.480185
0.2663204
0.268354
0.2657892
0.2668546
0.2655861
0.2661929
0.3215618
0.3749038
0.3737162
0.3230952
0.2654524
0.2666584
0.2655451
0.2667085
0.2654726
0.2671335
0.2656359
0.2668747
0.2688874
0.2675934
0.2285171
0.2666506
0.2682956
0.2699996
0.2285423
0.2683225
0.2297602
0.2690068
0.2685241
0.2670645
0.267793
0.2669482
0.2680046
0.2672266
0.2684584
0.267367
0.2682243
0.2672294
0.2684611
0.2673694
0.2682274
0.269729
0.2301101
0.2711175
0.2287238
0.2720432
0.2692459
0.474728
0.4242559
0.4244058
0.4755416
0.5248409
0.575592
0.5749272
0.524616
0.6747945
0.6243355
0.6249323
0.6753603
0.7247781
0.7756657
0.7756613