/*--------------------------------*- C++ -*----------------------------------*\
  =========                 |
  \\      /  F ield         | OpenFOAM: The Open Source CFD Toolbox
   \\    /   O peration     | Website:  https://openfoam.org
    \\  /    A nd           | Version:  7
     \\/     M anipulation  |
\*---------------------------------------------------------------------------*/
FoamFile
{
    version     2.0;
    format      ascii;
    class       volScalarField;
    location    "0.1";
    object      Cz;
}
// * * * * * * * * * * * * * * * * * * * * * * * * * * * * * * * * * * * * * //

dimensions      [0 1 0 0 0 0 0];

internalField   nonuniform List<scalar> 
109978
(
0.04779516
0.04649333
0.04638169
0.04636978
0.04637113
0.04638519
0.04649327
0.04416556
0.04394395
0.04391731
0.04391888
0.04393821
0.04638151
0.0439436
0.04369185
0.0436578
0.04365889
0.04368197
0.04636887
0.04391527
0.04365558
0.04361827
0.04361885
0.04364331
0.04636646
0.0439094
0.04364721
0.04360842
0.04360861
0.04363344
0.04636585
0.04390768
0.04364468
0.04360531
0.04360516
0.04363009
0.04636564
0.04390718
0.0436437
0.04360402
0.04360378
0.04362876
0.04636557
0.04390694
0.04364336
0.0436036
0.04360326
0.04362824
0.04636553
0.04390686
0.0436432
0.04360339
0.04360302
0.043628
0.04636552
0.04390682
0.04364315
0.0436033
0.04360292
0.04362789
0.04636552
0.04390681
0.04364312
0.04360326
0.04360284
0.04362785
0.04636551
0.0439068
0.0436431
0.04360325
0.04360282
0.04362783
0.04636551
0.04390679
0.0436431
0.04360324
0.04360281
0.04362783
0.04636551
0.0439068
0.0436431
0.04360325
0.04360282
0.04362783
0.04636552
0.0439068
0.04364311
0.04360326
0.04360283
0.04362784
0.04636552
0.04390681
0.04364313
0.04360329
0.04360286
0.04362787
0.04636553
0.04390685
0.04364319
0.04360336
0.04360298
0.04362796
0.04636556
0.04390693
0.04364333
0.04360354
0.04360318
0.04362816
0.04636565
0.04390719
0.04364372
0.04360403
0.04360372
0.04362869
0.04636598
0.04390802
0.04364495
0.0436055
0.04360528
0.04363025
0.04636743
0.04391128
0.0436494
0.04361054
0.04361051
0.04363539
0.04637371
0.04392285
0.04366409
0.04362659
0.04362659
0.04365057
0.1424343
0.04394791
0.04369402
0.04365855
0.0436577
0.043678
0.2514074
0.2520584
0.2520506
0.2520463
0.2520469
0.2520532
0.2514064
0.2961941
0.2946276
0.294191
0.2940817
0.2940846
0.2520584
0.2946262
0.2919263
0.2910349
0.2907843
0.2907651
0.2520505
0.2941847
0.2910246
0.2898633
0.2895049
0.2894597
0.2520458
0.2940593
0.290741
0.2894616
0.2890417
0.2889766
0.2520446
0.294018
0.2906416
0.2893122
0.2888616
0.2887841
0.2520442
0.2940029
0.2906039
0.2892533
0.2887884
0.2887043
0.252044
0.2939969
0.2905888
0.2892294
0.2887581
0.2886704
0.252044
0.2939945
0.2905827
0.2892193
0.2887452
0.288656
0.2520439
0.2939936
0.2905801
0.2892152
0.2887398
0.2886498
0.2520439
0.2939932
0.2905791
0.2892134
0.2887375
0.2886472
0.2520439
0.293993
0.2905786
0.2892127
0.2887365
0.2886461
0.2520439
0.293993
0.2905784
0.2892124
0.2887362
0.2886456
0.2520439
0.293993
0.2905784
0.2892122
0.288736
0.2886454
0.2520439
0.293993
0.2905785
0.2892124
0.2887362
0.2886457
0.2520439
0.2939931
0.2905787
0.2892128
0.2887367
0.2886463
0.2520439
0.2939933
0.2905794
0.2892138
0.2887379
0.2886477
0.2520439
0.2939939
0.2905809
0.2892163
0.2887411
0.2886512
0.252044
0.2939955
0.2905848
0.2892225
0.2887488
0.2886597
0.252044
0.2939995
0.2905945
0.2892371
0.2887666
0.288679
0.2520442
0.2940097
0.290617
0.28927
0.2888059
0.2887208
0.252045
0.2940355
0.2906684
0.2893405
0.2888866
0.2888046
0.2520481
0.2940943
0.2907699
0.2894708
0.28903
0.2889481
0.2520641
0.2941834
0.2909001
0.2896281
0.2891966
0.2891068
0.4499763
0.4499565
0.44994
0.4499336
0.4499333
0.4499379
0.449975
0.4989503
0.4980478
0.497618
0.497465
0.4974404
0.4499563
0.4980457
0.4961269
0.4951004
0.4947101
0.4946245
0.4499398
0.4976076
0.4950829
0.4935841
0.4929629
0.4928071
0.4499327
0.4974325
0.4946443
0.4928967
0.4921225
0.4919094
0.4499302
0.4973625
0.4944657
0.4926098
0.4917599
0.491512
0.4499291
0.497334
0.4943921
0.4924894
0.4916046
0.4913388
0.4499288
0.4973222
0.4943616
0.4924387
0.491538
0.4912638
0.4499286
0.4973174
0.4943487
0.4924171
0.4915096
0.4912314
0.4499285
0.4973152
0.4943432
0.4924079
0.4914974
0.4912173
0.4499285
0.4973144
0.4943409
0.4924041
0.4914921
0.4912112
0.4499285
0.4973141
0.49434
0.4924024
0.4914899
0.4912086
0.4499285
0.4973139
0.4943396
0.4924018
0.4914889
0.4912075
0.4499285
0.4973139
0.4943395
0.4924016
0.4914888
0.4912074
0.4499285
0.4973139
0.4943396
0.4924017
0.491489
0.4912076
0.4499285
0.4973141
0.4943401
0.4924026
0.4914901
0.4912089
0.4499285
0.4973146
0.4943414
0.4924047
0.4914929
0.491212
0.4499285
0.4973158
0.4943446
0.4924099
0.4914998
0.4912197
0.4499286
0.4973189
0.4943524
0.4924227
0.4915159
0.4912377
0.4499288
0.4973263
0.4943706
0.4924513
0.4915519
0.4912774
0.4499292
0.4973426
0.494409
0.49251
0.4916242
0.4913558
0.4499306
0.4973755
0.4944802
0.4926147
0.4917493
0.4914886
0.4499341
0.4974306
0.494587
0.4927643
0.4919221
0.4916667
0.4499409
0.4974914
0.4946919
0.4929032
0.4920754
0.4918168
0.649988
0.6499714
0.6499614
0.6499569
0.6499561
0.6499582
0.6499883
0.6996466
0.699254
0.6990087
0.698899
0.6988718
0.6499713
0.6992523
0.6983444
0.6977128
0.6974129
0.6973264
0.6499611
0.699
0.6976979
0.6966834
0.6961519
0.695985
0.6499562
0.6988733
0.697359
0.6960966
0.6953735
0.6951226
0.6499539
0.6988153
0.6972042
0.695827
0.6950008
0.6946931
0.6499529
0.6987895
0.6971358
0.6957086
0.6948386
0.6945056
0.6499524
0.6987785
0.6971062
0.6956573
0.6947682
0.6944239
0.6499523
0.6987737
0.6970934
0.6956351
0.6947377
0.6943882
0.6499522
0.6987717
0.6970881
0.6956257
0.6947246
0.6943727
0.6499522
0.6987708
0.6970857
0.6956215
0.694719
0.6943661
0.6499522
0.6987704
0.6970846
0.6956198
0.6947165
0.6943632
0.6499521
0.6987703
0.6970842
0.695619
0.6947155
0.694362
0.6499521
0.6987702
0.6970842
0.6956189
0.6947152
0.6943616
0.6499521
0.6987703
0.6970842
0.695619
0.6947156
0.6943621
0.6499522
0.6987704
0.6970847
0.6956198
0.6947165
0.6943632
0.6499522
0.6987709
0.6970858
0.6956218
0.6947193
0.6943665
0.6499522
0.698772
0.6970888
0.6956268
0.6947261
0.6943744
0.6499523
0.6987748
0.6970961
0.6956389
0.6947421
0.6943926
0.6499524
0.6987812
0.6971124
0.6956657
0.6947769
0.6944319
0.6499528
0.6987947
0.6971449
0.6957178
0.6948436
0.6945059
0.6499539
0.6988189
0.6972002
0.6958037
0.6949511
0.6946228
0.6499562
0.698854
0.6972737
0.6959132
0.6950836
0.6947628
0.6499597
0.6988866
0.6973353
0.6960001
0.6951829
0.6948613
0.8499968
0.8499919
0.8499881
0.849986
0.8499856
0.8499862
0.8499969
0.8999103
0.8998009
0.8997243
0.8996862
0.8996752
0.8499919
0.8998002
0.8995409
0.8993424
0.8992367
0.899202
0.849988
0.8997209
0.8993366
0.8990056
0.8988074
0.8987366
0.8499857
0.8996768
0.8992166
0.8987864
0.8984967
0.8983798
0.8499845
0.8996548
0.8991572
0.8986774
0.8983336
0.8981827
0.849984
0.8996448
0.89913
0.8986285
0.8982633
0.8980989
0.8499838
0.8996403
0.8991179
0.898607
0.8982328
0.8980627
0.8499837
0.8996384
0.8991127
0.8985977
0.8982195
0.8980469
0.8499836
0.8996375
0.8991103
0.8985937
0.8982138
0.8980401
0.8499836
0.8996372
0.8991094
0.898592
0.8982113
0.8980371
0.8499836
0.899637
0.899109
0.8985912
0.8982102
0.8980357
0.8499836
0.899637
0.8991088
0.8985909
0.8982098
0.8980352
0.8499836
0.8996369
0.8991086
0.8985907
0.8982095
0.898035
0.8499836
0.8996369
0.8991087
0.8985907
0.8982096
0.898035
0.8499836
0.8996369
0.8991087
0.8985909
0.8982098
0.8980353
0.8499836
0.8996371
0.899109
0.8985914
0.8982105
0.8980362
0.8499836
0.8996374
0.8991099
0.8985929
0.8982127
0.8980388
0.8499836
0.8996383
0.8991122
0.8985968
0.898218
0.8980451
0.8499837
0.8996404
0.8991175
0.8986057
0.8982299
0.8980588
0.8499839
0.8996448
0.8991281
0.8986227
0.898252
0.8980839
0.8499844
0.8996523
0.8991449
0.8986487
0.8982847
0.8981196
0.8499854
0.899662
0.8991642
0.8986763
0.8983165
0.8981518
0.8499866
0.8996688
0.8991741
0.8986855
0.8983203
0.8981483
1.050001
1.050003
1.050004
1.050004
1.050004
1.050004
1.050001
1.100089
1.100199
1.100275
1.100313
1.100324
1.050003
1.100199
1.100458
1.100656
1.100762
1.100797
1.050004
1.100279
1.100662
1.100993
1.101191
1.101262
1.050005
1.100323
1.100782
1.101212
1.101502
1.101619
1.050005
1.100345
1.100841
1.101321
1.101665
1.101817
1.050005
1.100354
1.100869
1.10137
1.101736
1.101901
1.050005
1.100359
1.100881
1.101392
1.101767
1.101937
1.050005
1.100361
1.100886
1.101401
1.10178
1.101953
1.050005
1.100362
1.100888
1.101405
1.101785
1.101959
1.050005
1.100362
1.100889
1.101407
1.101788
1.101962
1.050005
1.100362
1.10089
1.101407
1.101789
1.101964
1.050005
1.100362
1.10089
1.101408
1.101789
1.101964
1.050005
1.100362
1.10089
1.101408
1.101789
1.101964
1.050005
1.100362
1.100889
1.101407
1.101789
1.101964
1.050005
1.100362
1.100889
1.101406
1.101788
1.101963
1.050005
1.100362
1.100888
1.101405
1.101786
1.10196
1.050005
1.100361
1.100886
1.101402
1.101781
1.101955
1.050005
1.100359
1.100882
1.101395
1.101771
1.101944
1.050005
1.100356
1.100873
1.101379
1.101751
1.101921
1.050005
1.100349
1.100856
1.101351
1.101713
1.101877
1.050005
1.100338
1.100828
1.101303
1.101648
1.101803
1.050004
1.100321
1.100787
1.101235
1.101554
1.101695
1.050004
1.100303
1.100743
1.101156
1.101441
1.10156
1.250005
1.250016
1.250023
1.250026
1.250026
1.250025
1.250008
1.300353
1.300745
1.300991
1.3011
1.301127
1.250017
1.300747
1.301655
1.302286
1.302586
1.302673
1.250023
1.301
1.302301
1.303316
1.303848
1.304014
1.250026
1.301126
1.30264
1.303903
1.304626
1.304877
1.250028
1.301184
1.302795
1.304172
1.304999
1.305306
1.250029
1.30121
1.302863
1.304291
1.305161
1.305494
1.250029
1.301221
1.302893
1.304342
1.305232
1.305576
1.250029
1.301226
1.302906
1.304364
1.305262
1.305611
1.250029
1.301228
1.302911
1.304374
1.305275
1.305627
1.250029
1.301229
1.302914
1.304378
1.305281
1.305634
1.250029
1.301229
1.302914
1.30438
1.305283
1.305637
1.250029
1.301229
1.302915
1.30438
1.305284
1.305638
1.250029
1.301229
1.302915
1.30438
1.305284
1.305638
1.250029
1.301229
1.302915
1.30438
1.305283
1.305637
1.250029
1.301229
1.302914
1.304379
1.305282
1.305635
1.250029
1.301228
1.302912
1.304376
1.305278
1.305631
1.250029
1.301227
1.302908
1.304369
1.305269
1.305621
1.250029
1.301223
1.3029
1.304355
1.30525
1.305599
1.250029
1.301216
1.30288
1.304322
1.305208
1.305552
1.250028
1.3012
1.302842
1.30426
1.305126
1.305461
1.250028
1.301172
1.302776
1.304154
1.304989
1.305309
1.250026
1.30113
1.302682
1.304004
1.304795
1.305093
1.250024
1.301086
1.302585
1.303844
1.304577
1.304841
1.450024
1.450051
1.450064
1.45007
1.45007
1.450067
1.450021
1.50105
1.501952
1.502382
1.502535
1.50256
1.450051
1.501954
1.503873
1.5049
1.50529
1.505376
1.450065
1.502392
1.504917
1.506416
1.507037
1.507193
1.450071
1.502568
1.505356
1.507103
1.507878
1.50809
1.450073
1.502638
1.505535
1.50739
1.50824
1.508488
1.450074
1.502666
1.505608
1.507511
1.508395
1.508661
1.450075
1.502678
1.505639
1.507562
1.508462
1.508736
1.450075
1.502683
1.505651
1.507583
1.50849
1.508768
1.450075
1.502685
1.505657
1.507592
1.508503
1.508783
1.450075
1.502686
1.505659
1.507596
1.508508
1.508789
1.450075
1.502686
1.50566
1.507598
1.50851
1.508791
1.450075
1.502686
1.505661
1.507598
1.508511
1.508792
1.450075
1.502686
1.505661
1.507598
1.508511
1.508792
1.450075
1.502686
1.50566
1.507598
1.508511
1.508792
1.450075
1.502686
1.50566
1.507597
1.508509
1.50879
1.450075
1.502685
1.505658
1.507594
1.508505
1.508786
1.450075
1.502684
1.505654
1.507588
1.508498
1.508777
1.450075
1.50268
1.505645
1.507574
1.508479
1.508757
1.450074
1.502672
1.505625
1.507541
1.508438
1.508712
1.450074
1.502654
1.505583
1.507475
1.508356
1.508623
1.450073
1.502619
1.505503
1.507355
1.508208
1.508463
1.45007
1.502558
1.50538
1.507172
1.507982
1.508218
1.450064
1.502487
1.505243
1.506965
1.507711
1.507909
1.649727
1.64946
1.649474
1.64948
1.64948
1.649474
1.649728
1.703806
1.705373
1.705809
1.705919
1.705916
1.64946
1.705374
1.708074
1.708965
1.709216
1.709235
1.649474
1.705815
1.708976
1.710137
1.710495
1.71054
1.649481
1.705941
1.709259
1.710539
1.710958
1.711023
1.649483
1.705982
1.709359
1.710688
1.711138
1.711216
1.649484
1.705997
1.709397
1.710747
1.711212
1.711296
1.649485
1.706003
1.709412
1.710771
1.711242
1.711329
1.649485
1.706006
1.709418
1.710781
1.711255
1.711344
1.649485
1.706007
1.70942
1.710785
1.71126
1.71135
1.649485
1.706007
1.709421
1.710787
1.711262
1.711353
1.649485
1.706007
1.709422
1.710787
1.711264
1.711354
1.649485
1.706007
1.709422
1.710788
1.711264
1.711354
1.649485
1.706007
1.709422
1.710788
1.711264
1.711354
1.649485
1.706007
1.709422
1.710788
1.711264
1.711354
1.649485
1.706007
1.709422
1.710787
1.711263
1.711353
1.649485
1.706007
1.709421
1.710786
1.711261
1.711352
1.649485
1.706006
1.709419
1.710783
1.711258
1.711348
1.649485
1.706005
1.709415
1.710776
1.711249
1.711338
1.649485
1.706
1.709404
1.71076
1.71123
1.711317
1.649484
1.705989
1.70938
1.710724
1.711186
1.711271
1.649483
1.705962
1.709325
1.710647
1.711095
1.711176
1.649479
1.705901
1.709216
1.7105
1.710926
1.710998
1.747936
1.705806
1.709069
1.710305
1.710686
1.710731
1.823455
1.821565
1.821562
1.821563
1.821563
1.821562
1.823458
1.855333
1.857336
1.857637
1.857681
1.857677
1.857633
1.821565
1.857336
1.860931
1.861544
1.861646
1.861642
1.861574
1.821562
1.857638
1.861546
1.862271
1.862405
1.862406
1.862325
1.821563
1.857685
1.861654
1.862415
1.862565
1.862569
1.862483
1.821563
1.857695
1.861679
1.862452
1.862609
1.862616
1.862528
1.821563
1.857698
1.861687
1.862464
1.862625
1.862633
1.862545
1.821563
1.857698
1.86169
1.862469
1.862631
1.862639
1.862551
1.821563
1.857699
1.861691
1.86247
1.862633
1.862642
1.862554
1.821563
1.857699
1.861691
1.862472
1.862634
1.862643
1.862555
1.821563
1.857699
1.861691
1.862472
1.862634
1.862644
1.862556
1.821563
1.857699
1.861691
1.862472
1.862635
1.862644
1.862556
1.821563
1.857699
1.861692
1.862472
1.862635
1.862644
1.862556
1.821563
1.857699
1.861692
1.862472
1.862635
1.862644
1.862557
1.821563
1.857699
1.861692
1.862472
1.862635
1.862644
1.862557
1.821563
1.857699
1.861691
1.862472
1.862635
1.862644
1.862556
1.821563
1.857699
1.861691
1.862472
1.862635
1.862644
1.862556
1.821563
1.857699
1.861691
1.862471
1.862634
1.862643
1.862556
1.821563
1.857699
1.861691
1.86247
1.862633
1.862642
1.862554
1.821563
1.857698
1.86169
1.862469
1.862631
1.862639
1.862552
1.821563
1.857697
1.861686
1.862463
1.862623
1.862632
1.862544
1.821563
1.857691
1.861672
1.862444
1.862601
1.862609
1.862523
1.821563
1.857668
1.861628
1.862387
1.862537
1.862543
1.862463
1.821561
1.953591
1.861537
1.862274
1.86241
1.862409
1.862336
0.02211573
0.1776165
0.177612
0.147814
0.022258
0.02142223
0.1765443
0.1784296
0.1466534
0.1461483
0.02140104
0.02138353
0.1784344
0.1784377
0.1459592
0.1458886
0.02138256
0.02138136
0.1784376
0.1784372
0.1458615
0.1458506
0.02138121
0.02138117
0.1784372
0.1784372
0.1458464
0.1458458
0.02138128
0.02138255
0.1784372
0.1784378
0.1458485
0.1458561
0.02138361
0.1784382
0.1458717
0.02225801
0.02142222
0.1765428
0.1466526
0.1784297
0.1461476
0.02140103
0.02138352
0.1784344
0.145959
0.1784377
0.1458884
0.02138255
0.02138131
0.1784376
0.1458612
0.1784372
0.1458499
0.02138116
0.02138093
0.1784372
0.1458451
0.1784371
0.1458427
0.02138091
0.02138085
0.1784371
0.1458416
0.178437
0.1458409
0.02138084
0.02138083
0.178437
0.1458406
0.178437
0.1458404
0.02138083
0.02138082
0.178437
0.1458403
0.178437
0.1458402
0.02138082
0.02138081
0.178437
0.1458401
0.178437
0.1458401
0.02138081
0.02138081
0.178437
0.1458401
0.178437
0.1458401
0.02138081
0.02138081
0.178437
0.1458401
0.178437
0.1458401
0.02138081
0.02138081
0.178437
0.1458401
0.178437
0.1458401
0.02138081
0.02138081
0.178437
0.1458401
0.178437
0.1458401
0.02138081
0.02138081
0.178437
0.1458401
0.178437
0.1458401
0.02138081
0.02138081
0.178437
0.1458401
0.178437
0.1458401
0.02138081
0.02138081
0.178437
0.1458401
0.178437
0.1458401
0.02138081
0.02138081
0.178437
0.14584
0.178437
0.1458401
0.02138081
0.02138081
0.178437
0.1458401
0.178437
0.1458401
0.02138082
0.02138082
0.178437
0.1458401
0.178437
0.1458402
0.02138082
0.02138084
0.178437
0.1458403
0.178437
0.1458405
0.02138085
0.02138091
0.178437
0.1458408
0.1784371
0.1458415
0.02138095
0.02138131
0.1784371
0.145843
0.1784373
0.1458462
0.02138157
0.02138403
0.1784374
0.1458526
0.1784384
0.1458653
0.02138596
0.07090109
0.1784392
0.1458881
0.1784431
0.1459216
0.2270722
0.2270653
0.2492832
0.3754822
0.3754831
0.3497638
0.4245319
0.4245271
0.4499025
0.5754699
0.5754731
0.549954
0.6245265
0.6245274
0.6499768
0.7754687
0.7754752
0.7499876
0.8245245
0.8245304
0.849994
0.9754746
0.9754702
0.9499982
1.024527
1.024528
1.050001
1.17547
1.175475
1.150006
1.224523
1.224533
1.250013
1.375476
1.37547
1.350023
1.424533
1.424524
1.450045
1.575472
1.575469
1.550098
1.624517
1.624518
1.650236
1.772927
1.772935
1.750716
1.822382
1.82239
1.852187
1.977884
1.82157
1.853347
1.853852
1.977742
1.978578
1.821562
1.854041
1.854111
1.978599
1.978617
1.821563
1.854138
1.854149
1.978618
1.978618
1.821563
1.854153
1.854154
1.978619
1.978619
1.821562
1.854152
1.854144
1.978619
1.978617
1.854155
1.821563
1.854157
1.978619
1.978619
1.854159
1.821563
1.85416
1.978619
1.978619
1.85416
1.821563
1.85416
1.978619
1.978619
1.85416
1.821563
1.85416
1.978619
1.978619
1.85416
1.821563
1.85416
1.978619
1.978619
1.85416
1.821563
1.85416
1.978619
1.978619
1.85416
1.821563
1.85416
1.978619
1.978619
1.85416
1.821563
1.85416
1.978619
1.978619
1.85416
1.821563
1.85416
1.978619
1.978619
1.85416
1.821563
1.85416
1.978619
1.978619
1.85416
1.821563
1.85416
1.978619
1.978619
1.85416
1.821563
1.854159
1.978619
1.978619
1.854157
1.821563
1.854154
1.978619
1.978619
1.854147
1.821562
1.854134
1.978618
1.978616
1.854111
1.821557
1.854078
1.978614
1.929099
0.07338011
0.01058487
0.07269189
0.01041493
0.07273158
0.01039862
0.07265041
0.01039291
0.07265382
0.01039249
0.07264671
0.0103923
0.07264709
0.01039226
0.07264625
0.01039222
0.0726463
0.01039222
0.07264646
0.01039222
0.07264632
0.01039223
0.07264967
0.01039231
0.07264805
0.01039253
0.07269202
0.01041487
0.07273223
0.01039861
0.07265041
0.01039291
0.07265382
0.01039249
0.0726467
0.0103923
0.07264708
0.01039226
0.0726462
0.01039222
0.07264626
0.01039221
0.07264609
0.01039221
0.07264611
0.01039221
0.07264606
0.01039221
0.07264607
0.01039221
0.07264605
0.01039221
0.07264605
0.01039221
0.07264605
0.01039221
0.07264605
0.01039221
0.07264604
0.01039221
0.07264605
0.01039221
0.07264604
0.01039221
0.07264605
0.01039221
0.07264604
0.01039221
0.07264605
0.01039221
0.07264604
0.01039221
0.07264605
0.01039221
0.07264604
0.01039221
0.07264605
0.01039221
0.07264604
0.01039221
0.07264605
0.01039221
0.07264604
0.01039221
0.07264605
0.01039221
0.07264604
0.01039221
0.07264605
0.01039221
0.07264604
0.01039221
0.07264605
0.01039221
0.07264605
0.01039221
0.07264605
0.01039221
0.07264605
0.01039221
0.07264605
0.01039221
0.07264607
0.01039221
0.07264607
0.01039221
0.07264617
0.01039221
0.07264613
0.01039221
0.07264684
0.01039223
0.07264652
0.01039226
0.07265362
0.01039246
0.07265027
0.01039311
0.2749895
0.2249782
0.4749969
0.4249917
0.6750056
0.6249989
0.8749997
0.8250025
1.075001
1.025001
1.275007
1.225005
1.475005
1.424998
1.675006
1.625004
1.875372
1.825076
1.854128
1.978617
1.853348
1.82157
1.853852
1.977742
1.978578
1.854041
1.821562
1.854112
1.978599
1.978617
1.854139
1.821563
1.85415
1.978618
1.978619
1.854158
1.821563
1.854159
1.978619
1.978619
1.85416
1.821563
1.85416
1.978619
1.978619
1.85416
1.821563
1.85416
1.978619
1.978619
1.85416
1.821563
1.85416
1.978619
1.978619
1.854159
1.821563
1.854158
1.978619
1.978619
0.07304762
0.01042584
0.0728233
0.01079056
0.07306069
0.01042566
0.07282604
0.01078991
0.1246343
0.1749284
0.07267167
0.01039315
0.0726599
0.01039667
0.07264868
0.01039232
0.07264764
0.01039243
0.07264652
0.01039224
0.07264637
0.01039226
0.07264624
0.01039222
0.07264626
0.01039222
0.07264671
0.01039228
0.07264719
0.01039224
0.07267169
0.01039315
0.0726599
0.01039668
0.07264868
0.01039232
0.07264764
0.01039243
0.0726465
0.01039224
0.07264635
0.01039226
0.07264616
0.01039221
0.07264613
0.01039221
0.07264608
0.01039221
0.07264607
0.01039221
0.07264606
0.01039221
0.07264605
0.01039221
0.07264605
0.01039221
0.07264605
0.01039221
0.07264605
0.01039221
0.07264605
0.01039221
0.07264604
0.01039221
0.07264605
0.01039221
0.07264604
0.01039221
0.07264605
0.01039221
0.07264604
0.01039221
0.07264605
0.01039221
0.07264604
0.01039221
0.07264605
0.01039221
0.07264604
0.01039221
0.07264605
0.01039221
0.07264604
0.01039221
0.07264605
0.01039221
0.07264604
0.01039221
0.07264605
0.01039221
0.07264604
0.01039221
0.07264605
0.01039221
0.07264604
0.01039221
0.07264605
0.01039221
0.07264605
0.01039221
0.07264605
0.01039221
0.07264606
0.01039221
0.07264606
0.01039221
0.07264608
0.01039221
0.0726461
0.01039221
0.07264623
0.01039222
0.07264634
0.01039222
0.07264739
0.01039239
0.07264842
0.01039227
0.07265921
0.03413818
0.01039359
0.07266733
0.3249973
0.3750013
0.5249958
0.574994
0.7249989
0.7749966
0.9249994
0.9750031
1.124998
1.175
1.325
1.374997
1.525007
1.575004
1.725004
1.775015
1.926617
1.989415
1.927328
1.989607
1.92734
1.989603
1.92735
1.989607
1.927346
1.989608
1.927356
1.989607
1.927356
1.989607
1.927354
1.989607
1.927356
1.989608
1.927354
1.989608
1.927354
1.989608
1.927354
1.989608
1.927354
1.989608
1.927354
1.989608
1.927354
1.989608
1.927354
1.989608
1.927354
1.989608
1.927354
1.989608
1.927354
1.989608
1.927354
1.989608
1.927354
1.989608
1.927354
1.989608
1.927354
1.989608
1.927354
1.989608
1.927354
1.989608
1.927354
1.989608
1.927354
1.989608
1.927354
1.989608
1.927354
1.989608
1.927354
1.989608
1.927354
1.989608
1.927354
1.989608
1.927354
1.989608
1.927354
1.989608
1.927354
1.989608
1.927354
1.989608
1.927354
1.989608
1.927354
1.989608
1.927354
1.989608
1.927354
1.989607
1.927356
1.989608
1.927354
1.989608
1.927354
1.989608
1.927353
1.989608
1.927353
1.989608
1.927353
1.989608
1.927352
1.989608
1.927346
1.989608
1.92735
1.989607
1.927341
1.966066
1.989606
1.927333
0.03514528
0.01020186
0.0351852
0.01083468
0.03518225
0.01083449
0.03518649
0.01083525
0.03518529
0.01083506
0.03518634
0.01083518
0.03518507
0.01083502
0.03518632
0.01083518
0.03518504
0.01083502
0.03518632
0.01083518
0.03518504
0.01083502
0.03518636
0.01083519
0.03518507
0.01083503
0.2374819
0.212493
0.4374815
0.4124937
0.6375068
0.6124935
0.8375152
0.8125112
1.037498
1.012484
1.237512
1.2125
1.437495
1.412481
1.63751
1.61249
1.837516
1.812509
0.03517776
0.01083569
0.03517962
0.01083999
0.1625036
0.1875016
0.03518676
0.01083527
0.03518538
0.01083513
0.03518636
0.01083518
0.03518508
0.01083502
0.03518633
0.01083518
0.03518504
0.01083502
0.03518632
0.01083518
0.03518504
0.01083502
0.03518634
0.01083519
0.03518506
0.01083502
0.3625183
0.3875061
0.5624974
0.5875044
0.7624905
0.7875003
0.9625159
0.9875004
1.162493
1.187491
1.362496
1.387491
1.562513
1.587494
1.762493
1.787488
1.964849
1.989796
1.92695
1.989575
1.927175
1.989209
1.926939
1.989573
1.927175
1.98921
1.927308
1.989585
1.927268
1.989601
1.964813
1.989165
1.989165
1.964815
1.927352
1.989607
1.927354
1.989608
1.927355
1.989607
1.927355
1.989607
1.927353
1.989608
1.927352
1.989607
1.927353
1.989608
1.927352
1.989608
1.927356
1.989607
1.927356
1.989607
1.927353
1.989608
1.927351
1.989607
1.927356
1.989607
1.927356
1.989607
1.964814
1.989165
1.964815
1.989165
1.964814
1.989165
1.989165
1.964815
1.927353
1.989608
1.927352
1.989608
1.927354
1.989608
1.927354
1.989608
1.927354
1.989608
1.927354
1.989608
1.927356
1.989608
1.927354
1.989607
1.927356
1.989607
1.927356
1.989607
1.927354
1.989607
1.927356
1.989608
1.964814
1.989165
1.964815
1.989165
1.964814
1.989165
1.964815
1.989165
1.964814
1.989165
1.989165
1.964815
1.964812
1.989164
1.989164
1.964812
0.03498995
0.01086113
0.03512237
0.0108654
0.03507903
0.01086013
0.03515403
0.01089973
0.06173505
0.08718737
0.03518637
0.0108352
0.03518559
0.01083478
0.03518645
0.01083519
0.03518515
0.01083504
0.03518633
0.01083519
0.03518505
0.01083502
0.03518632
0.01083518
0.03518504
0.01083502
0.03518632
0.01083518
0.03518504
0.01083502
0.03518639
0.01083521
0.03518516
0.01083504
0.2624981
0.2875105
0.4624994
0.4875166
0.662496
0.687502
0.8625022
0.8874925
1.06251
1.08749
1.262516
1.287507
1.462501
1.4875
1.662505
1.687486
1.862528
1.887597
1.989608
1.927352
1.927352
1.989584
1.92727
1.989602
1.927308
1.989607
1.989604
1.927326
1.927338
1.989607
1.989608
1.927349
1.927346
1.989607
1.989608
1.92735
1.927354
1.989607
1.989607
1.927356
1.927355
1.989607
1.927356
1.989607
1.927356
1.989607
1.927356
1.989607
1.927356
1.989607
1.927356
1.989607
1.927356
1.989608
1.927354
1.989607
1.927356
1.989607
1.989607
1.927356
1.927356
1.989608
1.927354
1.989607
1.927356
1.989608
1.927354
1.989607
1.927356
1.989607
1.927356
1.989607
1.927356
0.0351742
0.01085844
0.03516397
0.010849
0.1374921
0.1124167
0.03518688
0.01083531
0.03518573
0.01083514
0.03518637
0.01083519
0.03518511
0.01083502
0.03518633
0.01083518
0.03518505
0.01083502
0.03518632
0.01083518
0.03518504
0.01083502
0.03518633
0.01083519
0.03518505
0.01083502
0.3375022
0.3124895
0.5374856
0.512501
0.7374926
0.712512
0.9374996
0.9124807
1.137514
1.112501
1.3375
1.312502
1.537504
1.512499
1.737513
1.7125
1.938249
1.9128
1.96499
1.989132
1.989127
1.964861
1.964922
1.989143
1.989102
1.964851
1.964813
1.989165
1.989165
1.964815
1.964813
1.989165
1.989165
1.964815
1.964814
1.989165
1.964815
1.989165
1.964814
1.989165
1.989165
1.964815
1.964814
1.989165
1.964815
1.989165
1.821556
0.07091455
0.178444
0.1459457
1.854054
1.929086
0.03414099
0.07267503
1.966062
1.927325
1.96481
1.989163
1.989163
1.964811
0.03518534
0.01083442
0.03518216
0.01083456
0.03518648
0.01083524
0.03518529
0.01083506
0.03518634
0.01083518
0.03518506
0.01083502
0.03518632
0.01083518
0.03518504
0.01083502
0.03518632
0.01083518
0.03518504
0.01083502
0.03518632
0.01083518
0.03518504
0.01083502
0.03518632
0.01083518
0.03518503
0.01083502
0.03518632
0.01083518
0.03518503
0.01083502
0.03518632
0.01083518
0.03518503
0.01083502
0.03518632
0.01083518
0.03518503
0.01083502
0.03518632
0.01083518
0.03518503
0.01083502
0.03518632
0.01083518
0.03518503
0.01083502
0.03518632
0.01083518
0.03518503
0.01083502
0.03518632
0.01083518
0.03518503
0.01083502
0.03518632
0.01083518
0.03518503
0.01083502
0.03518632
0.01083518
0.03518503
0.01083502
0.03518632
0.01083518
0.03518503
0.01083502
0.03518632
0.01083518
0.03518503
0.01083502
0.03518632
0.01083518
0.03518503
0.01083502
0.03518632
0.01083518
0.03518504
0.01083502
0.03518632
0.01083518
0.03518504
0.01083502
0.03518633
0.01083518
0.03518504
0.01083502
0.03518646
0.01083521
0.03518513
0.01083506
0.0351763
0.01083439
0.03517894
0.01083667
0.03518676
0.01083527
0.03518538
0.01083513
0.03518636
0.01083518
0.03518507
0.01083502
0.03518632
0.01083518
0.03518504
0.01083502
0.03518632
0.01083518
0.03518504
0.01083502
0.03518632
0.01083518
0.03518504
0.01083502
0.03518632
0.01083518
0.03518504
0.01083502
0.03518632
0.01083518
0.03518504
0.01083502
0.03518632
0.01083518
0.03518504
0.01083502
0.03518632
0.01083518
0.03518504
0.01083502
0.03518632
0.01083518
0.03518504
0.01083502
0.03518632
0.01083518
0.03518504
0.01083502
0.03518632
0.01083518
0.03518504
0.01083502
0.03518632
0.01083518
0.03518504
0.01083502
0.03518632
0.01083518
0.03518504
0.01083502
0.03518632
0.01083518
0.03518504
0.01083502
0.03518632
0.01083518
0.03518504
0.01083502
0.03518632
0.01083518
0.03518504
0.01083502
0.03518632
0.01083518
0.03518504
0.01083502
0.03518632
0.01083518
0.03518504
0.01083502
0.03518632
0.01083518
0.03518504
0.01083502
0.03518632
0.01083518
0.03518504
0.01083502
0.03518636
0.0108352
0.0351851
0.01083503
0.03518752
0.01083625
0.03518799
0.01083571
1.989164
1.989159
1.964823
1.964821
1.989166
1.989164
1.964825
1.96482
1.989165
1.964815
1.989166
1.964818
1.964813
1.989165
1.989165
1.964815
1.989165
1.989165
1.964815
1.964815
1.989165
1.964815
1.989165
1.964816
1.927354
1.989607
1.927356
1.989608
1.989165
1.989165
1.964813
1.964813
1.989165
1.989165
1.964815
1.964815
1.964813
1.989165
1.964813
1.989165
1.989165
1.989165
1.964813
1.964813
1.964813
1.989165
1.964813
1.989165
1.989165
1.989165
1.964815
1.964815
1.964813
1.989165
1.964815
1.989165
1.964814
1.989165
1.964815
1.989165
1.964814
1.989165
1.964815
1.989165
1.964814
1.989165
1.989165
1.964815
1.964814
1.989165
1.964815
1.989165
1.964814
1.989165
1.989165
1.964815
1.964813
1.989165
1.964815
1.989165
1.964813
1.989165
1.989165
1.964815
0.03518651
0.01083527
0.03518567
0.0108349
0.03518645
0.01083519
0.03518515
0.01083504
0.03518633
0.01083519
0.03518505
0.01083502
0.03518632
0.01083518
0.03518504
0.01083502
0.03518632
0.01083518
0.03518504
0.01083502
0.03518632
0.01083518
0.03518504
0.01083502
0.03518632
0.01083518
0.03518503
0.01083502
0.03518632
0.01083518
0.03518503
0.01083502
0.03518632
0.01083518
0.03518503
0.01083502
0.03518632
0.01083518
0.03518503
0.01083502
0.03518632
0.01083518
0.03518503
0.01083502
0.03518632
0.01083518
0.03518503
0.01083502
0.03518632
0.01083518
0.03518503
0.01083502
0.03518632
0.01083518
0.03518503
0.01083502
0.03518632
0.01083518
0.03518503
0.01083502
0.03518632
0.01083518
0.03518503
0.01083502
0.03518632
0.01083518
0.03518503
0.01083502
0.03518632
0.01083518
0.03518503
0.01083502
0.03518632
0.01083518
0.03518503
0.01083502
0.03518632
0.01083518
0.03518504
0.01083502
0.03518632
0.01083518
0.03518504
0.01083502
0.03518633
0.01083519
0.03518505
0.01083502
0.03518654
0.01083531
0.03518541
0.01083509
1.989166
1.989166
1.964814
1.964816
1.989165
1.989165
1.964815
1.964815
1.989165
1.989165
1.964813
1.964815
1.989165
1.964814
1.989165
1.964813
1.989165
1.989165
1.964813
1.964813
1.989165
1.964813
1.989165
1.964813
1.989165
1.964815
1.964814
1.989165
1.989607
1.989607
1.927356
1.927356
1.989608
1.927352
1.989607
1.927354
1.989608
1.927354
1.989607
1.927356
0.03517324
0.01085145
0.03517053
0.01084298
0.03518689
0.01083534
0.03518576
0.01083515
0.03518637
0.01083519
0.03518511
0.01083502
0.03518632
0.01083518
0.03518504
0.01083502
0.03518632
0.01083518
0.03518504
0.01083502
0.03518632
0.01083518
0.03518504
0.01083502
0.03518632
0.01083518
0.03518503
0.01083502
0.03518632
0.01083518
0.03518503
0.01083502
0.03518632