/*--------------------------------*- C++ -*----------------------------------*\
  =========                 |
  \\      /  F ield         | OpenFOAM: The Open Source CFD Toolbox
   \\    /   O peration     | Website:  https://openfoam.org
    \\  /    A nd           | Version:  7
     \\/     M anipulation  |
\*---------------------------------------------------------------------------*/
FoamFile
{
    version     2.0;
    format      ascii;
    class       volScalarField;
    location    "0.1";
    object      Cz;
}
// * * * * * * * * * * * * * * * * * * * * * * * * * * * * * * * * * * * * * //

dimensions      [0 1 0 0 0 0 0];

internalField   nonuniform List<scalar> 
76598
(
0.02105183
0.02083313
0.02086461
0.0208665
0.02086779
0.02086807
0.02086795
0.02086782
0.09740058
0.09495839
0.09425965
0.09416731
0.09418946
0.0942002
0.09418227
0.09415487
0.09555768
0.09166586
0.09077699
0.09087972
0.0909947
0.09104336
0.09100877
0.09078599
0.09501077
0.09092529
0.0902649
0.09190986
0.09190441
0.09203775
0.09253612
0.09108347
0.09495239
0.09105752
0.09193182
0.09275356
0.04193998
0.04230705
0.09537398
0.09527084
0.09497014
0.09114578
0.09187328
0.04193046
0.04486907
0.0208707
0.04638948
0.04516914
0.09494942
0.09108929
0.0917312
0.04210667
0.02100067
0.0948773
0.09086549
0.09146763
0.0919122
0.09425187
0.09578473
0.0960722
0.09606469
0.09478893
0.090446
0.0893496
0.08940042
0.08982321
0.09021072
0.09036234
0.09041715
0.09472578
0.09015881
0.08870296
0.08839585
0.08840905
0.08848777
0.08855249
0.08859766
0.09469511
0.09006673
0.08851362
0.08808702
0.08798426
0.08797856
0.08800438
0.08803705
0.09468268
0.09003301
0.08844757
0.08798077
0.08783969
0.08780573
0.08781597
0.08784142
0.0946767
0.09001789
0.08841954
0.08793742
0.08778173
0.08773657
0.08774009
0.08776191
0.09467377
0.09001076
0.08840692
0.08791854
0.08775669
0.08770687
0.08770727
0.08772749
0.09467243
0.09000742
0.08840102
0.08790985
0.08774531
0.08769347
0.08769259
0.087712
0.09467162
0.09000559
0.08839813
0.08790574
0.08774004
0.08768727
0.08768583
0.08770482
0.09467117
0.09000464
0.08839658
0.08790362
0.08773739
0.08768417
0.08768244
0.08770141
0.09467098
0.09000412
0.08839573
0.08790242
0.08773601
0.08768263
0.08768073
0.08769977
0.0946708
0.09000375
0.08839517
0.08790174
0.08773522
0.0876818
0.08767994
0.08769894
0.09467066
0.09000348
0.08839483
0.08790134
0.08773468
0.0876813
0.0876795
0.08769864
0.09467063
0.09000339
0.08839461
0.08790111
0.08773455
0.08768133
0.08767966
0.08769898
0.09467065
0.0900035
0.08839497
0.08790173
0.08773539
0.08768247
0.08768115
0.08770068
0.09467112
0.09000456
0.08839673
0.08790423
0.08773864
0.0876863
0.08768544
0.08770534
0.09467252
0.09000773
0.08840171
0.087911
0.08774708
0.08769591
0.08769578
0.08771611
0.2485901
0.2971044
0.2974962
0.2975584
0.2975415
0.2975353
0.2975326
0.297536
0.2508051
0.2940533
0.2906638
0.2895352
0.2893229
0.2893665
0.2893919
0.2893558
0.2893239
0.2516852
0.2917473
0.2864523
0.2847249
0.2847441
0.2851881
0.2853116
0.2851008
0.2849042
0.2521408
0.2909922
0.2850799
0.2835886
0.2849064
0.2868331
0.2870058
0.2862278
0.28564
0.2521681
0.2908804
0.2851842
0.2849775
0.2886388
0.2393106
0.2928008
0.2919719
0.2914763
0.2521659
0.2909185
0.2855641
0.2868058
0.2392528
0.2456186
0.2479674
0.2475311
0.2471977
0.2521652
0.2908562
0.2854049
0.2864734
0.239843
0.2220514
0.2519278
0.2504485
0.2521622
0.2906555
0.2846387
0.2838859
0.286363
0.2891563
0.2907219
0.2909393
0.2910394
0.2521581
0.2904342
0.2838295
0.2815197
0.2816412
0.2825147
0.2832346
0.2835981
0.2838315
0.2521548
0.2902818
0.2833357
0.2803337
0.2794862
0.2794598
0.2796503
0.2798461
0.2800197
0.2521528
0.2901964
0.2830853
0.2798018
0.2785908
0.2782247
0.2781905
0.2782815
0.2784072
0.2521518
0.2901522
0.282964
0.2795628
0.2782084
0.2777073
0.277577
0.2776149
0.2777141
0.2521513
0.2901301
0.2829057
0.2794532
0.278039
0.2774815
0.2773093
0.2773223
0.2774084
0.252151
0.2901193
0.2828778
0.2794021
0.2779618
0.2773801
0.2771894
0.2771912
0.2772712
0.2521508
0.2901138
0.2828641
0.2793779
0.2779259
0.2773335
0.2771344
0.2771311
0.2772085
0.2521508
0.2901108
0.282857
0.2793658
0.2779087
0.2773114
0.2771087
0.2771031
0.2771793
0.2521507
0.2901092
0.2828531
0.2793594
0.2778998
0.2773004
0.2770962
0.2770897
0.2771653
0.2521507
0.290108
0.2828506
0.2793556
0.2778949
0.2772945
0.2770896
0.2770828
0.2771584
0.2521506
0.2901072
0.2828489
0.279353
0.2778916
0.2772907
0.2770856
0.2770789
0.2771548
0.2521506
0.2901066
0.2828475
0.279351
0.2778891
0.2772882
0.2770832
0.277077
0.2771535
0.2521506
0.2901061
0.2828465
0.2793497
0.2778877
0.2772869
0.2770825
0.2770771
0.2771546
0.2521506
0.2901061
0.2828466
0.2793501
0.2778888
0.2772892
0.2770862
0.2770821
0.277161
0.2521506
0.2901073
0.2828499
0.279356
0.2778976
0.2773009
0.2771006
0.277099
0.2771799
0.2470092
0.290112
0.2828609
0.2793743
0.2779232
0.2773332
0.2771382
0.2771403
0.2772234
0.4497016
0.4988919
0.4986832
0.4986734
0.4986469
0.4986403
0.4986409
0.4986458
0.4503646
0.4979112
0.4958686
0.494847
0.4945781
0.4945852
0.4946157
0.4946168
0.494623
0.5008448
0.4966552
0.4932872
0.4917241
0.4916095
0.4919527
0.4921187
0.492094
0.4920887
0.501739
0.4961163
0.4921411
0.4906779
0.4914874
0.4928182
0.4930694
0.492918
0.4928639
0.5019083
0.4960141
0.4921532
0.4915893
0.4939419
0.4445937
0.4967786
0.4966418
0.4967983
0.501908
0.4960279
0.4924185
0.4928205
0.4445009
0.4481344
0.4494474
0.4494029
0.4994789
0.5018892
0.4959485
0.4922222
0.4924982
0.444839
0.4238024
0.4502916
0.4993948
0.5018586
0.495734
0.4914656
0.4903952
0.4921211
0.4941405
0.4951673
0.4954907
0.4958891
0.5018244
0.4954843
0.4906003
0.4881357
0.4880157
0.4888339
0.4895357
0.489968
0.4903241
0.5017971
0.4952924
0.4899837
0.4866719
0.4854397
0.485335
0.4855741
0.4858742
0.4861784
0.5017794
0.4951729
0.4896244
0.4858932
0.48411
0.483499
0.4834186
0.4835627
0.4837784
0.5017691
0.4951064
0.4894342
0.4855043
0.4834754
0.4826378
0.4824021
0.4824616
0.4826326
0.5017637
0.495072
0.4893386
0.4853162
0.4831779
0.4822401
0.4819324
0.4819502
0.4820998
0.501761
0.4950547
0.4892917
0.4852263
0.4830389
0.4820565
0.481716
0.4817146
0.4818544
0.5017595
0.4950457
0.4892681
0.4851827
0.4829732
0.481971
0.4816158
0.4816057
0.4817412
0.5017585
0.4950404
0.4892554
0.4851605
0.4829411
0.4819301
0.4815685
0.4815544
0.4816883
0.5017577
0.4950368
0.4892474
0.485148
0.4829241
0.4819092
0.4815448
0.4815295
0.4816627
0.5017573
0.4950344
0.4892421
0.4851399
0.4829138
0.4818972
0.481532
0.4815164
0.4816498
0.501757
0.4950325
0.4892381
0.4851339
0.4829062
0.4818889
0.4815234
0.4815083
0.4816427
0.5017566
0.4950308
0.4892345
0.4851283
0.4828995
0.4818817
0.4815168
0.4815028
0.4816387
0.5017564
0.4950293
0.4892309
0.485123
0.4828932
0.4818755
0.4815119
0.4815001
0.4816387
0.5017561
0.4950279
0.4892282
0.4851196
0.4828901
0.4818739
0.481513
0.4815049
0.4816475
0.5017561
0.4950283
0.4892297
0.4851233
0.4828976
0.4818864
0.4815313
0.4815292
0.4816779
0.501757
0.4950333
0.4892426
0.4851469
0.4829329
0.4819334
0.4815892
0.4815966
0.4817531
0.649932
0.6994685
0.6992125
0.6991278
0.6991064
0.6991038
0.6991072
0.6991143
0.6500056
0.6992324
0.698367
0.6978301
0.6976567
0.6976511
0.6976743
0.6976916
0.6977155
0.7001608
0.6986214
0.697183
0.6963375
0.6962272
0.6964086
0.6965238
0.6965613
0.6966157
0.7004208
0.6983147
0.696577
0.6957817
0.6961517
0.6968137
0.6969786
0.6969853
0.6970497
0.7005529
0.6982398
0.6965614
0.6962391
0.6973442
0.6475834
0.6986595
0.6986489
0.6987505
0.7005558
0.6982337
0.6966897
0.6968302
0.6475146
0.6491891
0.6497823
0.6498005
0.6995256
0.7005391
0.6981719
0.6965445
0.6966129
0.6476354
0.6244634
0.6499348
0.6994346
0.700512
0.6980245
0.6960484
0.6953954
0.6962052
0.6971881
0.6977153
0.6979118
0.6981258
0.700481
0.697847
0.6954475
0.6939071
0.6936945
0.6941332
0.694554
0.6948543
0.6951277
0.700455
0.6976997
0.694972
0.6927535
0.6917107
0.6915506
0.6917087
0.6919464
0.6922016
0.7004372
0.697601
0.6946684
0.692047
0.6904685
0.6898498
0.6897614
0.6899018
0.6901219
0.7004268
0.6975441
0.6944999
0.691679
0.6898266
0.6889522
0.6886997
0.6887526
0.6889234
0.7004218
0.697515
0.6944141
0.6914984
0.689525
0.6885386
0.6882093
0.688219
0.6883671
0.7004197
0.6975009
0.6943719
0.6914114
0.6893836
0.6883475
0.6879831
0.6879727
0.6881106
0.700418
0.6974923
0.6943492
0.6913678
0.6893155
0.6882575
0.6878776
0.6878583
0.6879918
0.7004159
0.6974849
0.6943339
0.6913431
0.6892805
0.6882132
0.6878268
0.6878039
0.6879359
0.7004141
0.6974788
0.6943226
0.6913269
0.6892599
0.6881893
0.6878004
0.6877764
0.6879084
0.7004129
0.6974742
0.6943139
0.691315
0.6892457
0.6881735
0.6877839
0.6877603
0.6878933
0.7004122
0.6974708
0.6943068
0.6913046
0.6892331
0.68816
0.6877707
0.6877483
0.6878831
0.7004116
0.6974678
0.6942997
0.6912936
0.6892194
0.6881454
0.6877569
0.6877367
0.6878747
0.7004108
0.6974641
0.6942911
0.69128
0.6892024
0.6881274
0.6877408
0.6877248
0.6878681
0.7004101
0.69746
0.6942809
0.6912635
0.6891822
0.6881072
0.6877245
0.6877154
0.6878674
0.7004092
0.6974556
0.6942706
0.6912478
0.6891645
0.6880923
0.6877175
0.6877203
0.6878856
0.7004089
0.6974539
0.6942667
0.6912435
0.6891644
0.6881018
0.6877418
0.6877631
0.6879471
0.8499837
0.8998473
0.8997579
0.8997234
0.8997128
0.8997098
0.8997104
0.8997156
0.8499878
0.8997886
0.8995333
0.8993563
0.8992896
0.8992795
0.8992821
0.8992881
0.8993027
0.8999424
0.8996102
0.8992001
0.8989327
0.8988788
0.8989205
0.8989493
0.8989632
0.8989884
0.8999406
0.8995227
0.8990406
0.8987946
0.8988804
0.8990639
0.8991089
0.8991148
0.8991419
0.8999477
0.8995056
0.8990489
0.8989438
0.8992411
0.8491262
0.8996105
0.899604
0.8996287
0.8999492
0.8995069
0.8990923
0.8991219
0.8491088
0.849719
0.849926
0.8499391
0.8998405
0.8999431
0.8994868
0.8990464
0.8990539
0.8491526
0.8247954
0.8499999
0.8998047
0.8999333
0.8994376
0.8988875
0.8986771
0.8988838
0.899162
0.8993187
0.8993755
0.8994342
0.8999229
0.8993775
0.8986883
0.8982015
0.8980968
0.8982087
0.898336
0.8984362
0.8985301
0.8999138
0.8993247
0.8985206
0.8977904
0.8973901
0.8972963
0.897341
0.8974261
0.8975237
0.8999074
0.8992881
0.8984061
0.8975066
0.8968778
0.8965984
0.896549
0.8965999
0.8966855
0.8999049
0.8992698
0.8983444
0.8973582
0.8965977
0.8961988
0.8960793
0.896099
0.8961725
0.8999069
0.8992658
0.898318
0.8972889
0.8964694
0.8960159
0.8958586
0.8958561
0.8959165
0.8999104
0.8992673
0.8983075
0.8972571
0.8964107
0.8959326
0.8957584
0.8957462
0.8958015
0.8999095
0.8992632
0.8982971
0.8972375
0.8963802
0.8958921
0.8957109
0.8956948
0.8957484
0.899904
0.8992515
0.8982816
0.8972197
0.8963596
0.8958687
0.8956858
0.895669
0.8957224
0.8998983
0.8992387
0.8982648
0.8972026
0.8963429
0.895852
0.8956695
0.8956534
0.8957079
0.899895
0.8992295
0.898251
0.8971871
0.8963273
0.895837
0.8956555
0.8956407
0.8956971
0.8998937
0.8992239
0.8982399
0.8971721
0.8963102
0.8958194
0.8956391
0.8956265
0.895686
0.8998928
0.899219
0.8982286
0.8971541
0.8962875
0.895795
0.8956157
0.895607
0.8956716
0.8998916
0.8992129
0.8982135
0.8971287
0.896254
0.895758
0.8955805
0.8955782
0.8956517
0.89989
0.899204
0.8981911
0.8970905
0.8962028
0.8957013
0.8955277
0.895537
0.8956259
0.8998877
0.8991915
0.8981591
0.8970349
0.896128
0.8956196
0.8954542
0.8954835
0.8955977
0.8998846
0.8991753
0.8981177
0.8969619
0.8960294
0.8955133
0.8953636
0.8954261
0.8955795
1.05
1.10004
1.100039
1.100038
1.100032
1.100022
1.100023
1.100045
1.05
1.100157
1.100314
1.100404
1.100427
1.100409
1.100382
1.100364
1.100367
1.100052
1.100336
1.100652
1.100828
1.100829
1.100753
1.10069
1.100655
1.100635
1.100065
1.10046
1.100879
1.101057
1.100933
1.10073
1.100653
1.100618
1.100581
1.100074
1.100517
1.100939
1.101001
1.100687
1.050161
1.100305
1.100291
1.100253
1.100086
1.100539
1.100938
1.100877
1.050209
1.050078
1.050017
1.050009
1.100144
1.100096
1.100566
1.101005
1.100971
1.050232
1.025019
1.050013
1.100186
1.100092
1.100622
1.10118
1.101368
1.101135
1.100843
1.100679
1.100617
1.100556
1.100092
1.100693
1.101394
1.101862
1.101939
1.101808
1.10167
1.101563
1.101466
1.100117
1.100748
1.10157
1.102286
1.102661
1.102734
1.102675
1.102582
1.10248
1.100141
1.100785
1.101691
1.102582
1.103187
1.103443
1.103476
1.103415
1.103323
1.100159
1.100818
1.101771
1.102747
1.10348
1.103852
1.103952
1.10392
1.103839
1.100176
1.100859
1.101831
1.102839
1.103622
1.104042
1.104176
1.104164
1.104095
1.100181
1.100895
1.101871
1.102888
1.103688
1.104128
1.104277
1.104273
1.104209
1.100181
1.100897
1.101878
1.102903
1.103714
1.104165
1.10432
1.104321
1.104259
1.100177
1.100866
1.101855
1.102893
1.103716
1.104175
1.104336
1.104341
1.104281
1.100152
1.100831
1.101823
1.102873
1.103706
1.104172
1.104338
1.104345
1.104287
1.100126
1.10081
1.101799
1.102853
1.103691
1.104161
1.10433
1.10434
1.104285
1.100117
1.100801
1.101784
1.102834
1.103671
1.104142
1.104313
1.104326
1.104275
1.100117
1.100795
1.101769
1.10281
1.103641
1.104109
1.104282
1.1043
1.104256
1.100115
1.100786
1.101747
1.102772
1.10359
1.104052
1.104227
1.104254
1.104222
1.100113
1.100773
1.101712
1.102709
1.103502
1.103951
1.10413
1.104174
1.104165
1.100109
1.100751
1.101653
1.102602
1.10335
1.103778
1.103966
1.104041
1.104073
1.100102
1.100715
1.101559
1.102429
1.103103
1.103495
1.1037
1.103833
1.103935
1.250009
1.299835
1.299611
1.29952
1.299511
1.299476
1.299473
1.299662
1.250011
1.300636
1.301289
1.301668
1.301787
1.301753
1.301677
1.301632
1.301641
1.299832
1.301292
1.302582
1.303301
1.303347
1.303115
1.302937
1.302851
1.302797
1.299605
1.301682
1.303331
1.304036
1.303617
1.302922
1.302691
1.302618
1.302524
1.299518
1.301834
1.303451
1.303707
1.302574
1.25134
1.301221
1.301187
1.301056
1.29955
1.301878
1.303377
1.303179
1.251463
1.250488
1.250121
1.25009
1.300446
1.299686
1.301938
1.303541
1.303424
1.25145
1.225255
1.250042
1.300551
1.299632
1.302098
1.304057
1.304664
1.303817
1.302816
1.30228
1.302077
1.30186
1.299477
1.302305
1.30468
1.306172
1.306346
1.305886
1.305454
1.305148
1.30487
1.299712
1.302447
1.305158
1.307336
1.308344
1.308481
1.30831
1.308065
1.307806
1.299805
1.302525
1.305459
1.30805
1.309595
1.31019
1.310263
1.310114
1.309889
1.299852
1.302603
1.30565
1.308435
1.310248
1.311094
1.311328
1.311264
1.311087
1.300041
1.30272
1.305793
1.308644
1.310563
1.311514
1.311821
1.311798
1.311643
1.299965
1.302842
1.305894
1.308757
1.310714
1.311708
1.312048
1.312044
1.311898
1.299968
1.30285
1.305914
1.308796
1.310778
1.311794
1.31215
1.312156
1.312015
1.300045
1.302742
1.30586
1.308785
1.310795
1.311827
1.312193
1.312204
1.312067
1.29983
1.302638
1.305794
1.308757
1.310789
1.311834
1.312207
1.312223
1.312088
1.299635
1.302589
1.305753
1.308731
1.310775
1.311827
1.312205
1.312225
1.312092
1.299619
1.302579
1.305734
1.30871
1.310755
1.311809
1.31219
1.312214
1.312085
1.299622
1.302576
1.305719
1.308685
1.310723
1.311775
1.312158
1.312186
1.312065
1.29962
1.302566
1.305694
1.308641
1.310664
1.311709
1.312094
1.312132
1.312025
1.299619
1.302551
1.30565
1.308561
1.310552
1.311581
1.311971
1.31203
1.31195
1.299617
1.302523
1.305569
1.308409
1.310336
1.311335
1.311736
1.31184
1.311815
1.299604
1.302467
1.30542
1.30813
1.309935
1.310875
1.311303
1.311498
1.311582
1.449792
1.499174
1.498435
1.498494
1.498493
1.498303
1.498241
1.498431
1.44979
1.501704
1.503211
1.503968
1.504235
1.504174
1.503989
1.503906
1.503967
1.499154
1.5032
1.50634
1.507756
1.507818
1.507401
1.507101
1.507009
1.506997
1.498365
1.503935
1.50777
1.509128
1.50826
1.506858
1.506438
1.506405
1.506391
1.498404
1.504224
1.507914
1.508371
1.505972
1.453411
1.503005
1.503009
1.502806
1.498492
1.504287
1.507715
1.507206
1.453607
1.451213
1.450322
1.450279
1.500471
1.498456
1.504298
1.507916
1.507552
1.453465
1.425636
1.449996
1.500563
1.499145
1.504537
1.508693
1.509677
1.507903
1.505862
1.504823
1.504489
1.504085
1.496556
1.504972
1.509596
1.511956
1.512027
1.51119
1.510482
1.510047
1.509689
1.499362
1.505054
1.510204
1.513424
1.514611
1.514695
1.514449
1.514145
1.51384
1.498556
1.505063
1.510537
1.514202
1.515944
1.516533
1.516602
1.516452
1.516234
1.498571
1.505147
1.510748
1.514604
1.516586
1.517397
1.517618
1.517551
1.517375
1.499703
1.505409
1.510938
1.514826
1.516896
1.517799
1.518089
1.518061
1.517906
1.498462
1.505843
1.511095
1.514948
1.517045
1.517986
1.518306
1.518297
1.518151
1.498474
1.505857
1.511118
1.514989
1.517108
1.518069
1.518404
1.518404
1.518263
1.499728
1.505439
1.51101
1.514971
1.517124
1.518102
1.518446
1.518451
1.518314
1.498519
1.505164
1.510897
1.514934
1.517118
1.51811
1.518461
1.51847
1.518335
1.49832
1.505072
1.51084
1.514907
1.517107
1.518106
1.518462
1.518475
1.518341
1.498367
1.505082
1.510826
1.51489
1.517092
1.518094
1.518452
1.518467
1.518337
1.498389
1.505094
1.510816
1.51487
1.517066
1.518066
1.518427
1.518447
1.518322
1.498381
1.505074
1.510792
1.514833
1.517016
1.518011
1.518374
1.518402
1.518289
1.498384
1.505067
1.510752
1.514757
1.516911
1.517892
1.51826
1.518309
1.518223
1.49841
1.505059
1.510671
1.514597
1.516684
1.517634
1.518018
1.518118
1.518091
1.49838
1.504988
1.510492
1.514258
1.516196
1.517074
1.517499
1.517725
1.517838
1.64946
1.647411
1.644342
1.644862
1.645214
1.644508
1.644172
1.644284
1.649459
1.705292
1.708124
1.709212
1.709659
1.709582
1.709257
1.709147
1.709281
1.647395
1.708108
1.71322
1.714881
1.714867
1.714344
1.714002
1.71401
1.714173
1.644158
1.709132
1.714879
1.71629
1.714925
1.712883
1.712309
1.712558
1.713108
1.644547
1.709565
1.714925
1.715012
1.711301
1.657579
1.706661
1.707249
1.707668
1.645003
1.70966
1.714599
1.713229
1.657802
1.652789
1.650894
1.65097
1.65105
1.644563
1.709518
1.714735
1.713572
1.657365
1.62644
1.647534
1.645341
1.644532
1.709707
1.715515
1.716173
1.713658
1.71087
1.709345
1.709121
1.709032
1.69852
1.710216
1.71637
1.718551
1.718392
1.717516
1.716809
1.716456
1.716228
1.645731
1.710254
1.716846
1.719736
1.720546
1.720562
1.720371
1.720178
1.720007
1.644471
1.710109
1.717049
1.720263
1.721441
1.721793
1.721821
1.721728
1.721602
1.644244
1.710151
1.71718
1.720508
1.721827
1.722311
1.722433
1.72239
1.722289
1.644912
1.710511
1.717331
1.720642
1.722004
1.722539
1.722701
1.722682
1.722593
1.700408
1.711002
1.71746
1.720718
1.722088
1.722643
1.722821
1.722814
1.722731
1.700457
1.711021
1.717475
1.720741
1.722123
1.722688
1.722875
1.722873
1.722793
1.646217
1.710552
1.717379
1.720725
1.72213
1.722706
1.722899
1.7229
1.722822
1.644415
1.71014
1.717268
1.720697
1.722126
1.722711
1.722908
1.722911
1.722834
1.643895
1.710011
1.717219
1.720678
1.722119
1.722709
1.722909
1.722914
1.722838
1.644212
1.710086
1.717218
1.72067
1.722112
1.722703
1.722904
1.722911
1.722836
1.644156
1.710123
1.717214
1.72066
1.722099
1.72269
1.722892
1.7229
1.722829
1.64422
1.71005
1.717191
1.720639
1.722072
1.722659
1.722863
1.722876
1.722812
1.644179
1.710067
1.71717
1.720593
1.722009
1.722588
1.722796
1.722823
1.722774
1.644277
1.71013
1.717127
1.720484
1.721851
1.722408
1.722629
1.722697
1.722693
1.644197
1.71006
1.716986
1.720201
1.721427
1.721916
1.722184
1.722383
1.722513
1.822359
1.821288
1.821636
1.852919
1.8545
1.824327
1.823095
1.822326
1.82236
1.902302
1.904436
1.905163
1.905336
1.905301
1.905207
1.905133
1.905212
1.820816
1.904405
1.908202
1.909075
1.908976
1.908754
1.90862
1.908609
1.908589
1.821267
1.905093
1.90907
1.909699
1.90803
1.907902
1.906812
1.907704
1.907029
1.823491
1.905303
1.909
1.90807
1.907222
1.863211
1.861902
1.862418
1.904461
1.854324
1.905332
1.908932
1.908143
1.863328
1.856611
1.853775
1.854915
1.855947
1.82499
1.905285
1.908976
1.908289
1.862627
1.828834
1.821571
1.905354
1.909209
1.908556
1.908096
1.905791
1.904452
1.904113
1.904105
1.849398
1.905613
1.909651
1.910679
1.910612
1.910195
1.909825
1.909686
1.909632
1.850253
1.90559
1.909929
1.911324
1.911615
1.911597
1.91152
1.911456
1.911412
1.822769
1.905593
1.910002
1.911511
1.911923
1.91202
1.912023
1.911995
1.911962
1.823605
1.905559
1.910036
1.911579
1.91203
1.912165
1.912195
1.912183
1.912157
1.822318
1.905672
1.910085
1.911615
1.912076
1.912224
1.912265
1.91226
1.912237
1.852762
1.905953
1.910137
1.911638
1.912098
1.91225
1.912296
1.912294
1.912273
1.850473
1.905968
1.910142
1.911644
1.912107
1.912261
1.912309
1.912308
1.912288
1.850622
1.905692
1.910099
1.911636
1.912108
1.912266
1.912315
1.912315
1.912295
1.822129
1.905496
1.910051
1.911625
1.912105
1.912266
1.912317
1.912318
1.912298
1.848015
1.905448
1.910032
1.911618
1.912103
1.912266
1.912317
1.912319
1.9123
1.821835
1.905486
1.910034
1.911616
1.912101
1.912264
1.912316
1.912318
1.912299
1.851455
1.905495
1.910034
1.911614
1.912098
1.912261
1.912314
1.912315
1.912297
1.821774
1.905527
1.910031
1.911609
1.912092
1.912254
1.912306
1.91231
1.912293
1.823408
1.905523
1.910026
1.911597
1.912074
1.912234
1.912288
1.912296
1.912284
1.823399
1.905502
1.910012
1.911563
1.912024
1.912176
1.912235
1.912257
1.912261
1.824572
1.90548
1.909945
1.911436
1.911838
1.911964
1.912042
1.912121
1.912188
0.02105787
0.04704444
0.1736954
0.1780136
0.1458656
0.020863
0.04604011
0.04445451
0.1458472
0.1478586
0.1433469
0.1419024
0.02085677
0.04402232
0.04380803
0.1463737
0.1488663
0.1409786
0.140497
0.02086599
0.0437542
0.04372965
0.1492152
0.1493621
0.1403382
0.140261
0.02086764
0.04372243
0.0437204
0.1493613
0.1493652
0.1402378
0.1402283
0.02086807
0.04371973
0.04371978
0.1493633
0.1493623
0.1402268
0.140229
0.02086801
0.0437199
0.04371935
0.1493623
0.1493622
0.1402296
0.1402292
0.02086785
0.04371948
0.04371908
0.1493623
0.1493628
0.1402289
0.1402281
0.02086806
0.04372013
0.04372209
0.1493638
0.1493662
0.14023
0.1402352
0.0473636
0.04616426
0.1776257
0.1450766
0.179413
0.1444898
0.04589586
0.04574839
0.1794157
0.1442381
0.1794497
0.1440681
0.04572105
0.04570638
0.1794568
0.1440109
0.179465
0.1439805
0.04570381
0.04570349
0.1794651
0.1439722
0.1794655
0.1439732
0.04570343
0.04570365
0.1794657
0.1439729
0.1794659
0.143975
0.02097516
0.02111091
0.1433483
0.1712688
0.1713267
0.04574298
0.1455977
0.1445453
0.04534731
0.1440957
0.1438242
0.04512923
0.143718
0.1436517
0.04570318
0.04570229
0.1794659
0.1439725
0.1794656
0.1439659
0.04400714
0.04541594
0.1711621
0.1417011
0.1439109
0.04662983
0.04706661
0.1452374
0.1456742
0.04706122
0.04704598
0.1455295
0.1454616
0.04704349
0.04704145
0.1454547
0.1454516
0.04570116
0.04569956
0.1794656
0.1439601
0.179465
0.1439484
0.0456984
0.04569709
0.1794649
0.1439423
0.1794644
0.1439333
0.04569643
0.04569573
0.1794643
0.1439295
0.1794641
0.1439242
0.04569524
0.04569491
0.179464
0.1439223
0.1794639
0.1439195
0.04569469
0.0456945
0.1794639
0.1439186
0.1794638
0.1439172
0.04569443
0.04569431
0.1794638
0.1439167
0.1794638
0.1439161
0.04569426
0.04569421
0.1794638
0.1439159
0.1794638
0.1439155
0.04569418
0.04569416
0.1794638
0.1439156
0.1794638
0.1439152
0.04569415
0.04569413
0.1794638
0.1439153
0.1794638
0.1439151
0.04569413
0.04569412
0.1794638
0.1439151
0.1794638
0.1439151
0.04569412
0.04569411
0.1794638
0.1439151
0.1794638
0.143915
0.04569411
0.04569411
0.1794638
0.143915
0.1794638
0.143915
0.0456941
0.0456941
0.1794638
0.143915
0.1794638
0.1439149
0.0456941
0.0456941
0.1794638
0.1439149
0.1794638
0.1439149
0.0456941
0.0456941
0.1794638
0.1439149
0.1794638
0.1439149
0.04569411
0.04569413
0.1794638
0.143915
0.1794638
0.1439151
0.04569415
0.04569421
0.1794638
0.1439152
0.1794638
0.1439156
0.2234496
0.2261515
0.2484675
0.3754108
0.3755683
0.3493823
0.2222614
0.2221983
0.3471798
0.3737924
0.3736211
0.2446376
0.2466052
0.3735583
0.3466177
0.3480784
0.4243979
0.4245014
0.4497208
0.5755199
0.5755442
0.5498608
0.4240453
0.4238662
0.5487668
0.5744983
0.5743934
0.4477162
0.4487334
0.5743626
0.5484679
0.5491835
0.6244569
0.6244717
0.6499282
0.7755299
0.775533
0.7499597
0.6246086
0.6244978
0.7494964
0.7747972
0.7747566
0.6489595
0.6494355
0.7747439
0.7493351
0.7496465
0.8244643
0.8244664
0.8499812
0.9755347
0.9755318
0.9499915
0.8248646
0.8248118
0.9499091
0.9749672
0.974978
0.8496301
0.8497981
0.9749804
0.9498786
0.9499361
1.024467
1.024466
1.050004
1.175533
1.175535
1.150013
1.025024
1.02502
1.150267
1.175125
1.175186
1.050123
1.050065
1.175204
1.150372
1.150202
1.224466
1.22447
1.25003
1.375529
1.375527
1.350047
1.225192
1.225241
1.350793
1.375376
1.375499
1.250667
1.250354
1.375535
1.351042
1.350564
1.424455
1.424453
1.450084
1.575494
1.575492
1.550159
1.425484
1.425604
1.551841
1.575922
1.576129
1.451534
1.450816
1.576195
1.552283
1.551261
1.624425
1.624426
1.65034
1.773827
1.773831
1.750928
1.626164
1.626374
1.754342
1.777614
1.777794
1.65338
1.651912
1.777944
1.755355
1.753379
1.821965
1.821966
1.853236
1.952186
1.820811
1.854645
1.85544
1.952483
1.953821
1.821794
1.855752
1.855988
1.954271
1.954549
1.824284
1.856348
1.857004
1.954552
1.955127
1.854494
1.857925
1.8584
1.979054
1.979146
1.955654
1.955952
1.852936
1.858406
1.857947
1.979144
1.979055
1.955955
1.955663
1.822325
1.857109
1.856752
1.955167
1.954757
1.824311
1.856754
1.857127
1.954757
1.95517
1.854644
1.820608
1.85543
1.952483
1.953805
1.855746
1.821667
1.855931
1.954162
1.954447
1.856142
1.822092
1.856547
1.954392
1.954599
1.857329
1.853392
1.858077
1.955247
1.979146
1.955803
1.858346
1.853395
1.8581
1.979125
1.955947
1.978973
1.955797
1.828556
1.828666
1.955108
1.978933
1.978889
1.854088
1.978868
1.978934
1.855741
1.979114
1.954316
1.856088
1.953613
1.954602
1.857334
1.82141
1.856639
1.978984
1.955267
1.954631
1.858296
1.85611
1.979
1.956
1.95462
1.854582
1.854885
1.953073
1.953214
1.855086
1.854974
1.953435
1.952968
1.856435
1.846085
1.856775
1.954595
1.954925
1.857701
1.85164
1.858339
1.955385
1.978769
1.955742
1.858118
1.823628
1.857477
1.979019
1.955775
1.955279
1.85692
1.824196
1.856626
1.954813
1.977535
1.954977
1.856588
1.821386
1.856606
1.954756
1.954505
1.857171
1.849994
1.858163
1.954972
1.978883
1.955685
1.85913
1.850453
1.859531
1.979063
1.956095
1.979138
1.956214
1.859552
1.85289
1.859218
1.979139
1.956221
1.979126
1.956138
1.858407
1.823472
1.857489
1.979122
1.955876
1.955279
1.856665
1.822155
1.856311
1.95464
1.954553
1.856269
1.822006
1.856266
1.954714
1.954678
1.856574
1.824476
1.857115
1.954666
1.97889
1.955185
1.857366
1.822317
1.85692
1.978706
1.955385
1.954908
1.856591
1.823931
1.856458
1.954591
1.977495
1.954872
1.856525
1.822215
1.856701
1.954717
1.954644
1.857201
1.821254
1.856676
1.978948
1.955219
1.954631
0.07250239
0.02342396
0.07186897
0.02274325
0.0719251
0.02262495
0.07178356
0.02251962
0.0717982
0.02245709
0.07176989
0.02250127
0.07177356
0.02244995
0.07176838
0.02250098
0.07177055
0.02244969
0.07176835
0.02250089
0.07177034
0.02244968
0.0717682
0.0225009
0.07177028
0.0224496
0.07572476
0.02217429
0.07415259
0.02207827
0.07625068
0.02210053
0.07628184
0.02204869
0.07623793
0.0221016
0.07623068
0.02204992
0.07176776
0.02250084
0.07176994
0.0224496
0.07176724
0.02250079
0.07176934
0.02244952
0.07176685
0.02250078
0.0717689
0.02244947
0.07176662
0.02250074
0.07176856
0.02244943
0.0717665
0.02250071
0.07176841
0.02244939
0.07176643
0.02250069
0.07176832
0.02244938
0.07176641
0.02250067
0.07176829
0.02244937
0.07176639
0.02250067
0.07176828
0.02244936
0.07176639
0.02250067
0.07176826
0.02244937
0.07176639
0.02250067
0.07176825
0.02244936
0.07176639
0.02250066
0.07176826
0.02244936
0.07176638
0.02250067
0.07176825
0.02244936
0.07176638
0.02250067
0.07176824
0.02244936
0.07176638
0.02250066
0.07176826
0.02244936
0.07176638
0.02250066
0.07176825
0.02244936
0.07176638
0.02250067
0.07176825
0.02244936
0.07176639
0.02250067
0.07176826
0.02244936
0.2749042
0.2248141
0.2477256
0.3490409
0.3490466
0.2474502
0.2476194
0.3486889
0.348868
0.4749881
0.4249783
0.4494489
0.5496624
0.5497016
0.4491528
0.4492645
0.5494852
0.5495935
0.6750034
0.6249971
0.6497922
0.7498699
0.7498956
0.6496285
0.6496818
0.749782
0.7498394
0.8749978
0.8250024
0.849928
0.9499765
0.9499869
0.8498632
0.8498772
0.9499661
0.9499859
1.075001
1.025001
1.050005
1.150066
1.150063
1.050034
1.050013
1.150137
1.150122
1.275008
1.225006
1.250093
1.350206
1.350191
1.250218
1.25016
1.35037
1.350315
1.475007
1.425
1.450275
1.550525
1.550507
1.450513
1.450402
1.550838
1.550721
1.675014
1.625009
1.65085
1.751826
1.751931
1.651289
1.651098
1.752536
1.752356
1.875572
1.825136
1.823094
1.856934
1.856934
1.955052
1.955053
1.855051
1.854707
1.953677
1.953464
1.857228
1.852073
1.8576
1.955204
1.978945
1.955573
0.07215074
0.02281255
0.07198536
0.02335594
0.1240648
0.1746227
0.07183683
0.02253216
0.07180981
0.02257102
0.07177821
0.02250181
0.07177521
0.02245397
0.07176933
0.02250101
0.07177072
0.02244981
0.07176834
0.02250091
0.07177035
0.02244967
0.07176826
0.02250091
0.0717704
0.02244967
0.07242123
0.009726243
0.01043229
0.08547059
0.08646735
0.02236123
0.1234807
0.1870605
0.1871811
0.1111459
0.111804
0.174007
0.07176812
0.02250091
0.07177002
0.02244959
0.07115854
0.01046196
0.02235227
0.08639402
0.07198799
0.02160896
0.1227545
0.1871432
0.174209
0.1117152
0.1235979
0.17356
0.07631567
0.02210394
0.07633183
0.02206087
0.07623721
0.02210144
0.07622931
0.02204931
0.07623738
0.02210165
0.07622906
0.02204991
0.07176764
0.02250083
0.07176943
0.02244956
0.07176714
0.02250079
0.07176888
0.0224495
0.07176678
0.02250075
0.0717686
0.02244946
0.07176659
0.02250071
0.07176843
0.02244942
0.07176648
0.02250069
0.07176834
0.02244939
0.07176642
0.02250067
0.07176829
0.02244937
0.0717664
0.02250067
0.07176828
0.02244937
0.07176639
0.02250067
0.07176826
0.02244937
0.07176638
0.02250067
0.07176825
0.02244936
0.07176638
0.02250066
0.07176826
0.02244936
0.07176638
0.02250066
0.07176825
0.02244936
0.07176638
0.02250067
0.07176824
0.02244936
0.07176638
0.02250066
0.07176825
0.02244936
0.07176638
0.02250066
0.07176825
0.02244936
0.07176637
0.02250067
0.07176825
0.02244936
0.07176638
0.02250067
0.07176825
0.02244936
0.0717664
0.02250067
0.02244936
0.07176828
0.3249541
0.3749772
0.2744812
0.2121842
0.2122247
0.2242976
0.2873392
0.2873262
0.3246
0.3874086
0.3873915
0.3123794
0.3123417
0.3746868
0.2742542
0.2121824
0.2244717
0.2239926
0.2873075
0.2746492
0.3244506
0.3873802
0.3747816
0.3123185
0.3247524
0.3745329
0.5249908
0.5749895
0.4747987
0.4124354
0.4123986
0.4247485
0.4874393
0.4874296
0.5248365
0.5874572
0.5874535
0.5124629
0.512433
0.5748683
0.4746939
0.4123828
0.4248397
0.4246517
0.4874233
0.4748632
0.5247844
0.5874498
0.574897
0.5124221
0.524911
0.5747843
0.7249981
0.7749953
0.674915