/*--------------------------------*- C++ -*----------------------------------*\
  =========                 |
  \\      /  F ield         | OpenFOAM: The Open Source CFD Toolbox
   \\    /   O peration     | Website:  https://openfoam.org
    \\  /    A nd           | Version:  7
     \\/     M anipulation  |
\*---------------------------------------------------------------------------*/
FoamFile
{
    version     2.0;
    format      ascii;
    class       volScalarField;
    location    "0.1";
    object      epsilon;
}
// * * * * * * * * * * * * * * * * * * * * * * * * * * * * * * * * * * * * * //

dimensions      [0 2 -3 0 0 0 0];

internalField   nonuniform List<scalar> 
76598
(
0.004445917
0.004412249
0.004404944
0.004396847
0.004387196
0.00437792
0.004370652
0.004365693
0.0009361688
0.000959909
0.0009667445
0.000967378
0.0009668207
0.0009664179
0.0009663895
0.0009665167
0.0009542585
0.000994275
0.00100371
0.001002272
0.001000577
0.0009996284
0.0009997547
0.001002003
0.0009599734
0.001002641
0.001009767
0.0009915506
0.000990622
0.0009888779
0.0009835191
0.0009988069
0.0009609451
0.001001724
0.000992207
0.0009822922
0.002148634
0.002126647
0.0009544097
0.0009553672
0.0009613033
0.001001432
0.0009930713
0.002157501
0.002015591
0.004239623
0.001941884
0.001991429
0.0009620999
0.001002824
0.000995237
0.00215709
0.004332601
0.0009633109
0.001005877
0.0009999663
0.0009957398
0.0009724068
0.0009572568
0.0009538686
0.0009537736
0.0009645969
0.001010908
0.001023788
0.001023705
0.001019608
0.001015549
0.001013819
0.00101307
0.0009655441
0.001014438
0.001031431
0.00103534
0.001035652
0.001034931
0.00103417
0.001033589
0.0009661307
0.001015709
0.001033792
0.001038983
0.001040495
0.001040707
0.001040436
0.001040041
0.0009664519
0.001016301
0.001034707
0.001040307
0.001042179
0.001042672
0.001042574
0.001042246
0.0009667196
0.001016647
0.001035177
0.001040898
0.001042875
0.001043458
0.001043434
0.001043147
0.0009669024
0.001016893
0.001035461
0.001041223
0.001043223
0.00104383
0.001043821
0.001043539
0.0009670843
0.001017086
0.001035669
0.001041438
0.001043433
0.001044036
0.001044025
0.001043739
0.0009672466
0.001017264
0.001035847
0.001041605
0.001043591
0.00104418
0.001044159
0.001043863
0.0009674076
0.001017438
0.001036019
0.00104177
0.001043735
0.001044312
0.001044273
0.001043964
0.00096757
0.001017618
0.001036195
0.001041933
0.001043884
0.001044442
0.001044387
0.001044061
0.0009677444
0.00101781
0.001036384
0.001042111
0.001044043
0.001044582
0.001044508
0.001044164
0.0009679343
0.001018019
0.00103659
0.001042303
0.001044219
0.001044737
0.001044641
0.001044275
0.0009681431
0.00101825
0.001036819
0.001042516
0.001044411
0.001044904
0.001044784
0.001044393
0.0009683763
0.001018507
0.00103707
0.001042746
0.001044619
0.001045081
0.00104493
0.001044507
0.0009686361
0.001018786
0.00103734
0.001042987
0.001044829
0.001045252
0.001045063
0.001044601
0.0009689225
0.001019083
0.001037615
0.001043219
0.001045014
0.001045386
0.001045149
0.001044637
0.002027518
0.0009677992
0.0009812714
0.0009858899
0.0009862913
0.0009858577
0.000985212
0.000984571
0.01042259
0.01041622
0.01041241
0.01041256
0.01041248
0.01041205
0.0104115
0.01041107
0.0104108
0.01042329
0.01041671
0.01041697
0.01041701
0.010417
0.01041646
0.01041541
0.01041493
0.0104146
0.01042405
0.01041738
0.01041776
0.01041704
0.0104142
0.01041364
0.01041414
0.01041381
0.01041424
0.01042513
0.01041836
0.01041897
0.01041397
0.01041297
0.01042778
0.01042224
0.01041263
0.01041309
0.01042648
0.01041949
0.01042038
0.01041496
0.01043857
0.01050427
0.01037587
0.01040515
0.01040621
0.01042789
0.01042014
0.01042133
0.01041642
0.01044475
0.01064315
0.003758492
0.003657324
0.01042905
0.01042021
0.01042105
0.01041969
0.01042557
0.01042892
0.01042563
0.01042258
0.01042146
0.01042994
0.01042017
0.01042067
0.01042144
0.01042238
0.01042322
0.01042277
0.01042134
0.01042119
0.01043068
0.01042022
0.01042052
0.01042092
0.01042133
0.01042176
0.01042108
0.01042107
0.01042064
0.01043126
0.01042023
0.01042041
0.01042065
0.01042086
0.01042105
0.01042095
0.0104206
0.01042078
0.01043178
0.01042032
0.01042041
0.01042054
0.01042068
0.01042081
0.01042071
0.01042057
0.01042055
0.01043222
0.0104204
0.01042046
0.01042052
0.01042061
0.01042069
0.0104207
0.01042054
0.0104206
0.01043264
0.01042052
0.01042054
0.01042057
0.01042063
0.01042069
0.01042071
0.01042058
0.01042056
0.01043304
0.01042064
0.01042065
0.01042065
0.0104207
0.01042074
0.01042076
0.01042063
0.01042063
0.01043342
0.01042078
0.01042078
0.01042077
0.01042081
0.01042084
0.01042086
0.01042072
0.01042072
0.01043382
0.01042095
0.01042094
0.01042092
0.01042096
0.01042097
0.01042099
0.01042085
0.01042084
0.01043425
0.01042114
0.01042113
0.0104211
0.01042113
0.01042115
0.01042115
0.01042101
0.01042099
0.01043471
0.01042136
0.01042135
0.01042132
0.01042135
0.01042135
0.01042135
0.0104212
0.01042116
0.01043522
0.01042161
0.0104216
0.01042157
0.0104216
0.0104216
0.01042159
0.01042142
0.01042136
0.01043578
0.01042191
0.0104219
0.01042187
0.0104219
0.01042189
0.01042187
0.01042167
0.0104216
0.01043641
0.01042225
0.01042226
0.01042223
0.01042225
0.01042223
0.01042219
0.01042196
0.01042187
0.01043713
0.01042266
0.01042268
0.01042265
0.01042268
0.01042264
0.01042258
0.01042232
0.01042219
0.01043382
0.01042315
0.01042318
0.01042316
0.01042319
0.01042314
0.01042306
0.01042273
0.01042255
0.002044637
0.0009845268
0.001010506
0.001018472
0.001019633
0.001019214
0.001018359
0.001017365
0.01042274
0.01041987
0.01041613
0.01041624
0.01041619
0.01041576
0.01041522
0.0104148
0.01041454
0.0104203
0.01042024
0.01042046
0.01042046
0.01042048
0.01041997
0.01041903
0.01041843
0.0104181
0.01042081
0.01042093
0.01042122
0.01042154
0.010422
0.01042113
0.01041977
0.01041852
0.01041806
0.01042146
0.01042188
0.01042249
0.01042364
0.01042576
0.01042797
0.01042226
0.01041916
0.01040141
0.01042224
0.01042296
0.01042396
0.0104274
0.01043854
0.01050421
0.01037443
0.01040405
0.001247146
0.0104229
0.01042358
0.01042496
0.01042833
0.01044465
0.01064147
0.003751617
0.001245731
0.01042329
0.01042363
0.01042465
0.01042611
0.01042917
0.0104326
0.01042939
0.01042602
0.0104213
0.01042355
0.0104236
0.01042419
0.010425
0.01042599
0.0104268
0.01042642
0.01042516
0.01042481
0.01042379
0.01042362
0.01042402
0.01042446
0.0104249
0.01042532
0.01042496
0.01042478
0.01042442
0.01042398
0.01042364
0.01042391
0.01042418
0.01042441
0.01042462
0.01042455
0.01042445
0.01042431
0.01042417
0.01042371
0.01042391
0.01042407
0.01042423
0.01042436
0.01042434
0.01042432
0.01042424
0.01042435
0.0104238
0.01042394
0.01042406
0.01042416
0.01042425
0.01042426
0.01042427
0.01042422
0.01042452
0.01042391
0.01042403
0.0104241
0.01042418
0.01042424
0.01042427
0.01042428
0.01042425
0.01042469
0.01042403
0.01042413
0.01042418
0.01042425
0.01042429
0.01042432
0.01042433
0.01042431
0.01042487
0.01042418
0.01042426
0.0104243
0.01042435
0.01042439
0.01042442
0.01042442
0.0104244
0.01042505
0.01042435
0.01042442
0.01042445
0.0104245
0.01042453
0.01042455
0.01042455
0.01042453
0.01042525
0.01042453
0.01042461
0.01042463
0.01042467
0.0104247
0.01042471
0.01042471
0.01042468
0.01042547
0.01042475
0.01042482
0.01042484
0.01042488
0.0104249
0.01042491
0.0104249
0.01042486
0.01042572
0.010425
0.01042507
0.01042509
0.01042513
0.01042515
0.01042515
0.01042512
0.01042507
0.01042599
0.01042529
0.01042537
0.01042539
0.01042543
0.01042544
0.01042542
0.01042538
0.0104253
0.01042631
0.01042562
0.01042572
0.01042574
0.01042578
0.01042578
0.01042575
0.01042568
0.01042558
0.01042668
0.01042603
0.01042613
0.01042617
0.0104262
0.01042619
0.01042614
0.01042604
0.0104259
0.01042712
0.01042651
0.01042663
0.01042667
0.01042671
0.01042668
0.01042661
0.01042647
0.01042628
0.002047753
0.0009908297
0.001020346
0.001030273
0.001031837
0.001031389
0.001030337
0.001029034
0.01042268
0.01041983
0.01041615
0.01041626
0.01041621
0.01041578
0.01041524
0.01041483
0.01041457
0.0104202
0.01042019
0.01042046
0.01042047
0.01042049
0.01041997
0.01041903
0.01041843
0.01041809
0.01042054
0.01042086
0.0104212
0.01042157
0.01042199
0.01042113
0.01041975
0.01041851
0.01041806
0.01042125
0.01042182
0.01042248
0.01042365
0.01042578
0.01042778
0.01042226
0.01041916
0.01040114
0.01042181
0.01042288
0.01042393
0.01042736
0.01043864
0.01050389
0.01037311
0.01040212
0.00130933
0.01042242
0.01042347
0.01042491
0.01042828
0.01044436
0.01064046
0.003854031
0.00131504
0.01042287
0.01042352
0.01042457
0.01042608
0.01042916
0.01043274
0.01042933
0.01042631
0.0104214
0.01042319
0.01042348
0.01042411
0.01042496
0.01042602
0.0104268
0.01042652
0.01042517
0.0104248
0.01042348
0.01042349
0.01042396
0.01042444
0.0104249
0.01042535
0.01042498
0.01042481
0.01042445
0.01042371
0.01042351
0.01042384
0.01042416
0.01042441
0.01042464
0.01042457
0.01042448
0.01042434
0.0104239
0.01042357
0.01042385
0.01042406
0.01042422
0.01042437
0.01042435
0.01042433
0.01042425
0.01042409
0.01042366
0.01042388
0.01042404
0.01042416
0.01042425
0.01042427
0.01042428
0.01042423
0.01042426
0.01042376
0.01042396
0.01042408
0.01042418
0.01042424
0.01042427
0.01042428
0.01042425
0.01042442
0.01042388
0.01042407
0.01042417
0.01042424
0.01042429
0.01042432
0.01042433
0.01042431
0.01042459
0.01042402
0.0104242
0.01042429
0.01042435
0.01042439
0.01042442
0.01042442
0.0104244
0.01042478
0.01042418
0.01042435
0.01042444
0.0104245
0.01042453
0.01042455
0.01042455
0.01042453
0.01042497
0.01042436
0.01042453
0.01042462
0.01042467
0.0104247
0.01042471
0.01042471
0.01042468
0.01042518
0.01042457
0.01042475
0.01042483
0.01042489
0.01042491
0.01042491
0.0104249
0.01042486
0.01042541
0.01042481
0.010425
0.01042508
0.01042514
0.01042515
0.01042515
0.01042512
0.01042507
0.01042567
0.01042509
0.01042529
0.01042538
0.01042543
0.01042544
0.01042542
0.01042538
0.0104253
0.01042596
0.01042542
0.01042564
0.01042573
0.01042579
0.01042579
0.01042575
0.01042568
0.01042558
0.01042631
0.01042581
0.01042605
0.01042615
0.01042621
0.01042619
0.01042614
0.01042604
0.0104259
0.01042671
0.01042629
0.01042654
0.01042666
0.01042672
0.01042669
0.01042661
0.01042648
0.01042628
0.002048372
0.0009920715
0.001022361
0.001032708
0.001034372
0.001033882
0.001032716
0.001031261
0.01042268
0.01041981
0.01041614
0.01041626
0.0104162
0.01041577
0.01041524
0.01041483
0.01041457
0.01042022
0.01042018
0.01042043
0.01042046
0.01042048
0.01041995
0.01041903
0.01041843
0.01041809
0.01042057
0.01042085
0.01042118
0.01042155
0.01042197
0.01042114
0.01041975
0.01041851
0.01041806
0.01042126
0.01042179
0.01042245
0.01042362
0.01042578
0.0104278
0.01042225
0.01041917
0.0104011
0.01042182
0.01042285
0.0104239
0.01042733
0.01043858
0.01050381
0.01037299
0.01040201
0.001336158
0.01042243
0.01042344
0.01042487
0.01042827
0.01044433
0.01064026
0.003887269
0.001344576
0.01042289
0.01042348
0.01042454
0.01042606
0.01042917
0.01043283
0.01042934
0.0104265
0.01042142
0.01042322
0.01042343
0.01042406
0.01042495
0.01042602
0.01042679
0.01042653
0.01042514
0.01042474
0.0104235
0.01042345
0.01042389
0.0104244
0.0104249
0.01042537
0.01042499
0.01042483
0.01042445
0.01042372
0.01042346
0.01042377
0.01042411
0.01042438
0.01042463
0.01042458
0.01042448
0.01042433
0.01042393
0.01042353
0.01042377
0.01042401
0.0104242
0.01042436
0.01042435
0.01042433
0.01042425
0.01042411
0.0104236
0.01042381
0.01042399
0.01042413
0.01042424
0.01042426
0.01042427
0.01042422
0.01042429
0.01042372
0.01042388
0.01042403
0.01042415
0.01042423
0.01042426
0.01042427
0.01042424
0.01042445
0.01042384
0.01042398
0.01042411
0.01042421
0.01042428
0.01042431
0.01042433
0.01042431
0.01042462
0.01042398
0.01042411
0.01042423
0.01042432
0.01042438
0.01042441
0.01042442
0.0104244
0.0104248
0.01042414
0.01042427
0.01042438
0.01042446
0.01042451
0.01042454
0.01042454
0.01042452
0.01042499
0.01042432
0.01042445
0.01042455
0.01042463
0.01042468
0.01042471
0.0104247
0.01042467
0.0104252
0.01042453
0.01042466
0.01042477
0.01042485
0.01042489
0.0104249
0.01042489
0.01042485
0.01042544
0.01042477
0.01042491
0.01042502
0.0104251
0.01042513
0.01042514
0.01042511
0.01042506
0.0104257
0.01042505
0.0104252
0.01042531
0.01042539
0.01042542
0.01042542
0.01042537
0.0104253
0.010426
0.01042539
0.01042554
0.01042566
0.01042574
0.01042577
0.01042574
0.01042568
0.01042557
0.01042635
0.01042578
0.01042595
0.01042608
0.01042616
0.01042617
0.01042613
0.01042604
0.01042589
0.01042675
0.01042626
0.01042645
0.01042659
0.01042667
0.01042667
0.0104266
0.01042647
0.01042627
0.002047991
0.000991222
0.001020879
0.001030857
0.001032411
0.001031913
0.001030825
0.001029584
0.01042268
0.01041981
0.01041614
0.01041625
0.0104162
0.01041577
0.01041524
0.01041482
0.01041457
0.01042022
0.01042018
0.01042044
0.01042045
0.01042047
0.01041995
0.01041903
0.01041843
0.01041809
0.01042057
0.01042085
0.01042119
0.01042155
0.01042198
0.01042115
0.01041975
0.01041851
0.01041806
0.01042125
0.01042179
0.01042245
0.01042362
0.01042578
0.01042776
0.01042225
0.01041917
0.01040113
0.01042182
0.01042285
0.0104239
0.01042733
0.01043861
0.01050392
0.01037289
0.0104041
0.001336148
0.01042243
0.01042344
0.01042487
0.01042827
0.01044428
0.01063986
0.003890369
0.001344567
0.01042289
0.01042349
0.01042453
0.01042607
0.01042917
0.01043283
0.01042935
0.0104265
0.01042144
0.01042322
0.01042344
0.01042406
0.01042495
0.01042602
0.01042679
0.01042653
0.01042512
0.01042473
0.0104235
0.01042345
0.0104239
0.0104244
0.0104249
0.01042537
0.01042499
0.01042483
0.01042446
0.01042372
0.01042346
0.01042377
0.01042411
0.01042438
0.01042463
0.01042458
0.01042448
0.01042433
0.01042393
0.01042353
0.01042378
0.01042401
0.0104242
0.01042436
0.01042435
0.01042433
0.01042425
0.0104241
0.01042361
0.01042381
0.01042399
0.01042413
0.01042424
0.01042426
0.01042427
0.01042422
0.01042427
0.01042371
0.01042388
0.01042403
0.01042415
0.01042423
0.01042426
0.01042428
0.01042424
0.01042445
0.01042383
0.01042398
0.01042411
0.01042421
0.01042428
0.01042431
0.01042433
0.01042431
0.01042465
0.01042398
0.01042411
0.01042422
0.01042432
0.01042438
0.01042441
0.01042442
0.0104244
0.0104248
0.01042414
0.01042427
0.01042437
0.01042446
0.01042451
0.01042454
0.01042455
0.01042452
0.01042499
0.01042432
0.01042445
0.01042455
0.01042464
0.01042468
0.01042471
0.0104247
0.01042468
0.0104252
0.01042453
0.01042466
0.01042477
0.01042485
0.01042489
0.01042491
0.01042489
0.01042485
0.01042544
0.01042477
0.01042491
0.01042502
0.0104251
0.01042513
0.01042514
0.01042512
0.01042506
0.0104257
0.01042505
0.0104252
0.01042531
0.01042539
0.01042542
0.01042542
0.01042538
0.0104253
0.010426
0.01042538
0.01042554
0.01042566
0.01042574
0.01042577
0.01042575
0.01042568
0.01042557
0.01042634
0.01042578
0.01042595
0.01042608
0.01042616
0.01042618
0.01042614
0.01042604
0.01042589
0.01042675
0.01042625
0.01042644
0.01042658
0.01042668
0.01042667
0.01042661
0.01042648
0.01042627
0.002047266
0.0009857926
0.001012182
0.001020289
0.001021451
0.001020958
0.001020125
0.001020193
0.01042266
0.01041983
0.01041614
0.01041624
0.01041619
0.01041575
0.01041522
0.0104148
0.01041454
0.0104202
0.01042019
0.01042046
0.01042047
0.0104205
0.01041997
0.01041904
0.01041844
0.01041809
0.01042054
0.01042085
0.01042119
0.01042158
0.010422
0.01042113
0.01041976
0.01041851
0.01041806
0.01042125
0.01042183
0.01042248
0.01042366
0.01042579
0.01042779
0.01042226
0.01041916
0.01040114
0.01042181
0.01042288
0.01042392
0.01042737
0.01043867
0.0105038
0.01037214
0.01040476
0.001309189
0.01042237
0.01042345
0.0104249
0.0104283
0.01044419
0.01064096
0.003877372
0.001315573
0.01042292
0.01042348
0.0104246
0.01042609
0.01042916
0.01043275
0.01042934
0.01042629
0.01042143
0.01042323
0.01042346
0.01042411
0.01042496
0.01042602
0.01042681
0.01042652
0.01042518
0.0104248
0.01042344
0.01042348
0.01042395
0.01042443
0.0104249
0.01042535
0.01042498
0.01042481
0.01042445
0.0104237
0.01042349
0.01042383
0.01042415
0.0104244
0.01042464
0.01042457
0.01042448
0.01042434
0.01042391
0.01042355
0.01042384
0.01042404
0.01042422
0.01042436
0.01042435
0.01042433
0.01042425
0.01042418
0.01042362
0.01042387
0.01042402
0.01042415
0.01042425
0.01042427
0.01042428
0.01042423
0.01042436
0.01042375
0.01042396
0.01042407
0.01042417
0.01042424
0.01042427
0.01042428
0.01042425
0.01042442
0.01042389
0.01042404
0.01042415
0.01042423
0.01042429
0.01042432
0.01042433
0.01042431
0.01042455
0.01042401
0.01042417
0.01042427
0.01042434
0.01042439
0.01042442
0.01042442
0.0104244
0.01042477
0.01042417
0.01042434
0.01042442
0.01042449
0.01042453
0.01042455
0.01042455
0.01042453
0.01042496
0.01042435
0.01042452
0.0104246
0.01042466
0.0104247
0.01042471
0.01042471
0.01042468
0.01042516
0.01042456
0.01042473
0.01042481
0.01042487
0.0104249
0.01042491
0.0104249
0.01042486
0.0104254
0.0104248
0.01042498
0.01042506
0.01042512
0.01042515
0.01042515
0.01042512
0.01042506
0.01042566
0.01042508
0.01042527
0.01042536
0.01042542
0.01042544
0.01042542
0.01042538
0.0104253
0.01042596
0.01042541
0.01042562
0.01042571
0.01042577
0.01042578
0.01042575
0.01042568
0.01042558
0.01042629
0.0104258
0.01042602
0.01042613
0.01042619
0.01042618
0.01042614
0.01042604
0.01042589
0.0104267
0.01042628
0.01042652
0.01042664
0.0104267
0.01042668
0.01042661
0.01042646
0.01042627
0.002038899
0.0009708492
0.0009852872
0.0009903104
0.0009907347
0.0009901013
0.0009893863
0.0009901908
0.0104227
0.01041987
0.01041609
0.01041615
0.01041609
0.01041566
0.01041511
0.01041469
0.01041444
0.01042028
0.01042022
0.01042044
0.01042046
0.01042049
0.01041999
0.01041903
0.01041843
0.01041809
0.01042078
0.01042091
0.01042121
0.01042154
0.01042201
0.01042114
0.01041976
0.01041852
0.01041806
0.01042142
0.01042188
0.01042247
0.01042366
0.01042577
0.01042783
0.01042229
0.01041915
0.01040138
0.01042222
0.01042296
0.01042396
0.01042743
0.01043877
0.01050414
0.01037368
0.01040556
0.001246443
0.01042273
0.01042357
0.01042498
0.01042836
0.01044418
0.01064164
0.003811598
0.001247498
0.01042325
0.0104236
0.01042459
0.01042611
0.01042918
0.0104326
0.01042943
0.01042598
0.01042132
0.0104233
0.01042356
0.01042417
0.01042502
0.01042599
0.01042681
0.01042643
0.01042516
0.01042479
0.01042376
0.01042358
0.01042403
0.01042445
0.01042489
0.01042532
0.01042496
0.01042478
0.01042443
0.0104239
0.01042359
0.01042388
0.01042416
0.0104244
0.01042462
0.01042455
0.01042446
0.01042431
0.01042413
0.01042369
0.01042388
0.01042406
0.01042422
0.01042436
0.01042434
0.01042432
0.01042424
0.01042446
0.01042378
0.0104239
0.01042403
0.01042415
0.01042425
0.01042427
0.01042427
0.01042423
0.01042446
0.01042381
0.01042396
0.01042407
0.01042417
0.01042424
0.01042427
0.01042428
0.01042425
0.01042464
0.01042392
0.01042409
0.01042414
0.01042423
0.01042429
0.01042432
0.01042433
0.01042431
0.01042489
0.01042412
0.01042424
0.01042427
0.01042434
0.01042439
0.01042442
0.01042442
0.0104244
0.01042497
0.01042432
0.01042439
0.01042442
0.01042449
0.01042452
0.01042455
0.01042455
0.01042453
0.01042517
0.0104245
0.01042458
0.01042461
0.01042466
0.01042469
0.01042471
0.01042471
0.01042468
0.01042538
0.0104247
0.01042478
0.01042482
0.01042487
0.0104249
0.01042491
0.0104249
0.01042486
0.01042563
0.01042496
0.01042503
0.01042507
0.01042512
0.01042514
0.01042515
0.01042512
0.01042507
0.01042589
0.01042524
0.01042533
0.01042536
0.01042542
0.01042544
0.01042543
0.01042538
0.0104253
0.01042621
0.01042558
0.01042567
0.01042571
0.01042577
0.01042578
0.01042575
0.01042569
0.01042557
0.0104266
0.01042598
0.01042608
0.01042612
0.01042619
0.01042619
0.01042615
0.01042606
0.01042589
0.01042701
0.01042647
0.01042656
0.01042662
0.01042671
0.01042668
0.01042663
0.01042649
0.01042627
0.002024819
0.002068424
0.002133155
0.002144579
0.002147858
0.002139837
0.002132332
0.002134854
0.01042241
0.01041621
0.01041622
0.01041624
0.01041615
0.01041574
0.01041519
0.01041476
0.01041448
0.01042317
0.01041669
0.01041692
0.01041701
0.01041699
0.01041645
0.01041519
0.01041485
0.01041458
0.01042386
0.01041739
0.01041777
0.0104171
0.01041426
0.01041355
0.01041389
0.01041376
0.01041412
0.01042496
0.01041836
0.01041895
0.01041394
0.0104129
0.01042782
0.01042221
0.01041915
0.0104132
0.0104262
0.01041955
0.01042034
0.01041501
0.01043884
0.0105044
0.01037389
0.01040435
0.01039894
0.01042746
0.0104204
0.01042123
0.01041653
0.01044395
0.01064419
0.00368415
0.003516551
0.01042932
0.01042039
0.01042109
0.01041933
0.01042554
0.0104289
0.01042573
0.01042257
0.01042154
0.01042339
0.01041997
0.01042067
0.01042141
0.01042245
0.01042324
0.01042279
0.01042152
0.01042118
0.01043032
0.01042018
0.01042043
0.0104209
0.01042133
0.01042179
0.01042096
0.01042071
0.01042073
0.01043068
0.01042021
0.01042038
0.01042062
0.01042085
0.01042107
0.01042097
0.01042066
0.01042078
0.01043117
0.01042039
0.01042037
0.01042053
0.01042067
0.0104208
0.01042071
0.01042056
0.01042057
0.01043319
0.01042023
0.01042046
0.01042049
0.01042061
0.01042069
0.0104207
0.01042056
0.01042061
0.01042391
0.01042018
0.01042057
0.01042054
0.01042063
0.01042068
0.0104207
0.01042057
0.01042056
0.01042413
0.01042054
0.01042056
0.01042066
0.01042069
0.01042074
0.01042076
0.01042062
0.01042064
0.01043324
0.01042078
0.01042073
0.01042077
0.0104208
0.01042084
0.01042085
0.01042072
0.01042073
0.01043341
0.01042088
0.01042093
0.0104209
0.01042095
0.01042097
0.01042099
0.01042085
0.01042085
0.0104334
0.01042105
0.01042109
0.01042108
0.01042112
0.01042114
0.01042115
0.01042102
0.010421
0.01043392
0.01042131
0.0104213
0.0104213
0.01042134
0.01042135
0.01042135
0.01042118
0.01042117
0.01043424
0.01042156
0.01042155
0.01042155
0.01042159
0.01042159
0.01042159
0.01042143
0.01042141
0.01043484
0.01042185
0.01042184
0.01042185
0.01042189
0.01042188
0.01042185
0.01042162
0.01042162
0.01043543
0.01042219
0.01042221
0.01042221
0.01042225
0.01042223
0.01042219
0.01042197
0.01042199
0.01043617
0.01042259
0.01042263
0.01042263
0.01042266
0.01042255
0.01042237
0.01042195
0.01042229
0.0104371
0.01042311
0.01042315
0.01042319
0.01042315
0.0104231
0.01042302
0.01042271
0.01042271
0.004459714
0.004532454
0.004519994
0.002053291
0.002043451
0.00441435
0.004417712
0.004470061
0.01042931
0.0009333252
0.0009538844
0.0009609105
0.0009623501
0.0009616734
0.0009604403
0.0009594908
0.0009601298
0.01043038
0.0009538891
0.000992856
0.001002093
0.001000697
0.0009978619
0.0009959843
0.0009956194
0.0009952211
0.01043143
0.0009610129
0.001002589
0.001009362
0.0009909122
0.0009885554
0.0009768026
0.0009858979
0.000978751
0.01043415
0.0009635147
0.001002344
0.0009922353
0.0009820368
0.01039897
0.01040427
0.0104033
0.0009526116
0.01040941
0.0009643921
0.00100227
0.0009932435
0.0103979
0.01047569
0.01037715
0.01039918
0.01039161
0.01043715
0.0009644851
0.00100354
0.0009954575
0.0104079
0.01065461
0.01044218
0.0009657119
0.001006661
0.001000246
0.0009958325
0.0009728677
0.0009596306
0.0009557083
0.0009554107
0.01039659
0.0009688183
0.001011936
0.00102414
0.001023844
0.001019815
0.001015936
0.001014345
0.001013631
0.01039637
0.0009688138
0.001015404
0.001031761
0.001035451
0.001035748
0.00103502
0.001034271
0.001033694
0.01044153
0.0009690644
0.001016451
0.00103409
0.001039086
0.00104054
0.001040721
0.001040433
0.001040035
0.01044122
0.0009689481
0.001017047
0.001035037
0.00104043
0.001042238
0.001042686
0.001042565
0.001042226
0.01044662
0.000970357
0.001017764
0.001035609
0.001041063
0.001042948
0.001043484
0.001043439
0.00104314
0.0103804
0.0009735205
0.001018478
0.001036004
0.001041408
0.001043306
0.001043861
0.001043832
0.00104354
0.01038001
0.0009738668
0.001018705
0.001036202
0.001041629
0.001043517
0.00104407
0.001044038
0.001043744
0.01038241
0.0009710283
0.001018431
0.001036256
0.001041764
0.001043656
0.001044209
0.00104417
0.001043866
0.01044573
0.0009690971
0.001018083
0.001036282
0.001041879
0.001043782
0.001044328
0.001044276
0.001043963
0.01037104
0.000968764
0.001018022
0.001036355
0.001041998
0.001043906
0.001044446
0.001044379
0.001044053
0.01044457
0.0009693336
0.001018258
0.001036526
0.001042148
0.001044032
0.00104456
0.001044482
0.001044141
0.01036416
0.0009696103
0.001018427
0.001036688
0.001042295
0.001044176
0.001044676
0.001044583
0.001044229
0.01044463
0.0009701712
0.001018646
0.00103686
0.001042436
0.001044271
0.00104476
0.001044657
0.0010443
0.01044296
0.0009703652
0.001018862
0.001036982
0.001042465
0.001044261
0.001044733
0.001044658
0.001044324
0.01044709
0.0009704057
0.001018968
0.001036871
0.001042154
0.001043807
0.001044317
0.001044378
0.00104419
0.01044261
0.0009704478
0.001018565
0.001035681
0.001040269
0.001041606
0.001042298
0.001042996
0.001043488
0.004761098
0.001920637
0.004531858
0.01043085
0.01041338
0.004414567
0.001960946
0.002030223
0.002030936
0.002081616
0.01037169
0.01039357
0.004407014
0.002049094
0.0020584
0.002052212
0.002099816
0.01034025
0.01036703
0.00439858
0.002060805
0.002060664
0.002110698
0.00211641
0.01034195
0.01035292
0.004389027
0.002060767
0.002059286
0.002116886
0.002116289
0.01033018
0.01034888
0.00437956
0.002059096
0.002057675
0.002115619
0.00211445
0.01033558
0.01035058
0.004372003
0.002057345
0.002056365
0.002113824
0.002112877
0.0103489
0.01036084
0.004366618
0.002056103
0.002055429
0.002112371
0.002111588
0.01036164
0.01036941
0.004362983
0.002055196
0.002054659
0.002111269
0.002110743
0.01037262
0.01037696
0.001908436
0.001957164
0.01042876
0.0100976
0.01043047
0.01009556
0.001969007
0.001975421
0.01042956
0.01007299
0.01043127
0.01007287
0.001977728
0.001978559
0.01043092
0.01003241
0.01043314
0.01003152
0.001980245
0.001980468
0.01043279
0.009976207
0.01043551
0.009975556
0.001982556
0.001982712
0.01043497
0.009901719
0.01043795
0.009901458
0.004229228
0.004314284
0.01047555
0.01052419
0.01066375
0.00196884
0.01037733
0.01037971
0.001984402
0.01038588
0.01039067
0.001992478
0.01039187
0.01039541
0.001985161
0.001985354
0.01043707
0.009815948
0.0104398
0.009814978
0.002081041
0.00201948
0.01065489
0.009899052
0.01003606
0.001967489
0.001946807
0.01010383
0.01030685
0.001944903
0.001944501
0.01025989
0.01035612
0.00194338
0.001942627
0.01028392
0.01035958
0.001987623
0.001987863
0.01043862
0.009739155
0.01044112
0.009736922
0.001989678
0.001989905
0.01043963
0.009676842
0.01044212
0.00967423
0.001991407
0.001991614
0.01044041
0.009624568
0.0104428
0.00962355
0.001992735
0.001992907
0.01044096
0.009584163
0.01044334
0.009583161
0.001993864
0.001993994
0.01044134
0.00954976
0.01044373
0.009549166
0.001994792
0.001994909
0.01044165
0.009521199
0.01044404
0.00952033
0.001995628
0.001995732
0.01044189
0.009495635
0.01044432
0.009494723
0.001996388
0.00199649
0.0104421
0.009471911
0.01044456
0.009470835
0.001997126
0.001997225
0.01044227
0.009448956
0.01044478
0.009447812
0.001997865
0.001997963
0.01044241
0.009425876
0.01044499
0.009424689
0.001998633
0.001998731
0.01044253
0.009401904
0.01044518
0.00940071
0.001999449
0.001999549
0.01044263
0.009376398
0.01044536
0.009375204
0.002000334
0.002000439
0.01044269
0.009348713
0.01044553
0.009347504
0.002001308
0.002001422
0.01044271
0.009318243
0.01044566
0.009317009
0.002002394
0.00200252
0.01044267
0.009284313
0.01044576
0.009283017
0.002003614
0.002003755
0.01044254
0.009246205
0.01044579
0.009244818
0.002004999
0.002005169
0.01044463
0.00920305
0.01044554
0.00920152
0.004529951
0.01042937
0.01042114
0.004541799
0.01043024
0.01042108
0.01050708
0.01066305
0.01050454
0.01050583
0.01066693
0.01046783
0.01049639
0.01064426
0.01046809
0.01049333
0.004543235
0.01042904
0.0104209
0.004544994
0.01042982
0.01042091
0.01050736
0.01065751
0.01050408
0.01050733
0.01066314
0.01046878
0.01049435
0.01064171
0.01046844
0.01049395
0.004545065
0.010429
0.01042086
0.00454617
0.01042984
0.01042086
0.01050577
0.01065779
0.01050378
0.0105051
0.0106629
0.01046848
0.01049425
0.01064093
0.01046832
0.01049472
0.004545576
0.01042901
0.01042084
0.004545907
0.01042986
0.01042087
0.01050529
0.01065775
0.01050389
0.0105052
0.01066247
0.01046843
0.01049451
0.01063998
0.01046854
0.01049424
0.004545355
0.01042899
0.01042089
0.004546078
0.01042988
0.01042084
0.01050512
0.0106572
0.01050382
0.01050535
0.01066316
0.01046857
0.01049422
0.01064021
0.01046841
0.01049454
0.004545524
0.01042898
0.0104209
0.004542652
0.01042985
0.0104209
0.01050523
0.01065759
0.01050389
0.01050584
0.01066307
0.01046834
0.01049472
0.01064034
0.0104685
0.01049418
0.004542984
0.01042898
0.01042095
0.004539169
0.01042993
0.01042096
0.01050735
0.0106576
0.0105042
0.01050763
0.01066273
0.01046846
0.01049395
0.01064156
0.01046876
0.01049402
0.004538135
0.01042953
0.01042111
0.004444824
0.01043001
0.01042124
0.01050645
0.01066151
0.01050408
0.010509
0.01066953
0.01046794
0.01049369
0.01064398
0.01046736
0.01049675
0.004635025
0.01043026
0.01041346
0.001890273
0.004560117
0.01035881
0.01040315
0.001900991
0.001955346
0.004475973
0.01035133
0.01039916
0.001973893
0.001985188
0.004437647
0.01034182
0.01038723
0.001985131
0.002009
0.002044071
0.01034714
0.01035809
0.004739726
0.004399003
0.002032258
0.002044162
0.00204923
0.01034745
0.01035743
0.004397022
0.004718064
0.002044121
0.002029494
0.004476998
0.01036081
0.01037971
0.002007387
0.00198855
0.004403921
0.01038457
0.01039208
0.00198756
0.002005061
0.01009792
0.01043044
0.01009686
0.00190232
0.001955799
0.0100717
0.01043077
0.01007017
0.001971479
0.001983779
0.01003198
0.01043278
0.01003023
0.001982561
0.001991741
0.009969538
0.01041305
0.009986799
0.002021851
0.00426008
0.002047792
0.009916188
0.01040998
0.009908293
0.004261853
0.002056556
0.004239469
0.002050115
0.01052388
0.01066079
0.002014538
0.004211722
0.004314663
0.01039118
0.004189437
0.004177026
0.01039765
0.004208856
0.0019694
0.01039563
0.001940161
0.001980936
0.009807252
0.0104429
0.009810153
0.004243543
0.002027959
0.001999985
0.009889631
0.01002714
0.004333015
0.00208105
0.00202014
0.01027519
0.01037428
0.001949145
0.001956251
0.01029236
0.01036402
0.001964031
0.00194347
0.009725039
0.01040511
0.009758225
0.002000823
0.002016076
0.009697012
0.01039524
0.009677826
0.002038373
0.004228072
0.002055079
0.009642851
0.01044786
0.009606684
0.004281903
0.002058078
0.002035362
0.009573816
0.01043997
0.009560067
0.002015276
0.004017728
0.002022397
0.009533357
0.01044692
0.009545585
0.002013928
0.00200282
0.009508277
0.01038871
0.009545052
0.00202507
0.004276766
0.002057499
0.009500884
0.01038255
0.009496726
0.004308655