/*--------------------------------*- C++ -*----------------------------------*\
  =========                 |
  \\      /  F ield         | OpenFOAM: The Open Source CFD Toolbox
   \\    /   O peration     | Website:  https://openfoam.org
    \\  /    A nd           | Version:  7
     \\/     M anipulation  |
\*---------------------------------------------------------------------------*/
FoamFile
{
    version     2.0;
    format      ascii;
    class       volScalarField;
    location    "0.1";
    object      nut;
}
// * * * * * * * * * * * * * * * * * * * * * * * * * * * * * * * * * * * * * //

dimensions      [0 2 -1 0 0 0 0];

internalField   nonuniform List<scalar> 
76598
(
0.0002691236
0.0002711998
0.00027115
0.0002709647
0.000270755
0.0002705508
0.000270396
0.0002702952
0.001334957
0.001301323
0.001291612
0.001290195
0.00129034
0.001290347
0.001289999
0.00128955
0.001309716
0.00125615
0.001243836
0.001245108
0.00124649
0.001246971
0.001246383
0.001243241
0.001302328
0.001246123
0.00123698
0.001259456
0.001258911
0.001260603
0.001267424
0.001247349
0.001301714
0.001248178
0.001260166
0.001270867
0.0005723873
0.0005770661
0.001306359
0.001304918
0.001302219
0.001249693
0.001259443
0.0005730661
0.0006131191
0.0002829635
0.0006330286
0.000616053
0.001302221
0.001249266
0.001257768
0.0005763089
0.0002876245
0.001301464
0.001246455
0.001255039
0.001261417
0.001294189
0.001315441
0.001319127
0.001318941
0.00130044
0.001240862
0.001226027
0.00122694
0.001233056
0.001238517
0.001240587
0.001241278
0.00129972
0.001237058
0.00121723
0.001213154
0.001213531
0.001214696
0.001215582
0.00121618
0.001299432
0.001235896
0.001214697
0.00120892
0.001207635
0.001207616
0.001207985
0.00120843
0.001299355
0.001235526
0.00121385
0.00120749
0.001205639
0.00120521
0.00120536
0.001205698
0.001299372
0.001235395
0.001213526
0.001206928
0.001204846
0.001204245
0.001204301
0.001204589
0.001299406
0.001235369
0.00121341
0.001206711
0.001204523
0.001203845
0.001203849
0.001204109
0.001299469
0.001235392
0.001213387
0.001206639
0.001204398
0.001203681
0.001203659
0.001203903
0.001299532
0.001235435
0.001213408
0.001206632
0.001204365
0.001203625
0.001203589
0.001203821
0.001299601
0.001235494
0.001213452
0.001206661
0.001204375
0.001203621
0.001203573
0.001203799
0.001299676
0.001235563
0.00121351
0.001206707
0.001204412
0.001203647
0.001203588
0.001203808
0.001299757
0.00123564
0.001213579
0.001206768
0.001204463
0.001203689
0.001203623
0.001203835
0.001299846
0.001235726
0.00121366
0.00120684
0.001204526
0.001203744
0.00120367
0.001203876
0.001299946
0.001235825
0.001213752
0.001206925
0.001204603
0.001203814
0.001203733
0.001203931
0.001300059
0.001235939
0.001213865
0.001207032
0.001204705
0.001203908
0.001203821
0.00120401
0.001300193
0.001236081
0.001214011
0.001207179
0.001204853
0.001204051
0.001203956
0.001204135
0.001300357
0.001236271
0.001214221
0.001207403
0.001205087
0.001204286
0.001204184
0.001204351
0.0006077373
0.001290376
0.001271661
0.001265203
0.001264048
0.001264225
0.001264763
0.001265408
0.0001004499
0.0001005033
0.0001005485
0.0001005485
0.0001005495
0.00010055
0.0001005502
0.0001005503
0.0001005504
0.0001004489
0.0001005018
0.000100501
0.0001005019
0.0001005038
0.0001005046
0.0001005057
0.0001005043
0.0001005042
0.0001004477
0.0001005016
0.0001005011
0.0001005158
0.0001005563
0.000100553
0.0001005308
0.0001005188
0.0001005087
0.000100446
0.000100502
0.0001005026
0.0001005791
0.0001006217
0.0001004702
0.0001004737
0.0001005427
0.0001005247
0.000100444
0.0001005023
0.0001005037
0.0001006162
0.0001004814
0.0001007139
0.0001013171
0.0001006728
0.0001006173
0.0001004416
0.0001005007
0.0001005027
0.0001006081
0.0001004733
0.0001005791
0.000334503
0.0003411244
0.0001004391
0.0001004979
0.0001004974
0.000100531
0.0001005019
0.0001005072
0.0001005001
0.0001004942
0.0001004929
0.0001004368
0.0001004958
0.0001004936
0.0001004929
0.0001004933
0.0001004913
0.0001004909
0.0001004913
0.0001004881
0.0001004349
0.0001004943
0.0001004919
0.0001004909
0.0001004899
0.0001004891
0.000100492
0.0001004893
0.0001004919
0.0001004334
0.0001004932
0.0001004909
0.0001004901
0.0001004893
0.0001004888
0.0001004889
0.0001004918
0.0001004885
0.0001004322
0.0001004924
0.0001004903
0.0001004897
0.0001004892
0.0001004887
0.0001004893
0.0001004908
0.0001004903
0.0001004311
0.0001004918
0.0001004898
0.0001004894
0.0001004891
0.0001004888
0.0001004886
0.0001004905
0.0001004896
0.0001004303
0.0001004913
0.0001004894
0.0001004892
0.000100489
0.0001004887
0.0001004887
0.0001004902
0.0001004902
0.0001004295
0.0001004909
0.0001004891
0.0001004889
0.0001004888
0.0001004886
0.0001004886
0.0001004902
0.00010049
0.0001004288
0.0001004905
0.0001004888
0.0001004887
0.0001004886
0.0001004885
0.0001004885
0.00010049
0.0001004899
0.0001004281
0.0001004901
0.0001004884
0.0001004884
0.0001004883
0.0001004882
0.0001004882
0.0001004898
0.0001004897
0.0001004275
0.0001004897
0.000100488
0.000100488
0.000100488
0.0001004879
0.0001004879
0.0001004895
0.0001004895
0.0001004268
0.0001004892
0.0001004876
0.0001004876
0.0001004876
0.0001004876
0.0001004876
0.0001004892
0.0001004892
0.0001004261
0.0001004888
0.0001004872
0.0001004872
0.0001004872
0.0001004872
0.0001004872
0.0001004889
0.0001004889
0.0001004253
0.0001004884
0.0001004868
0.0001004867
0.0001004867
0.0001004867
0.0001004868
0.0001004885
0.0001004886
0.0001004245
0.0001004879
0.0001004863
0.0001004862
0.0001004862
0.0001004862
0.0001004863
0.0001004882
0.0001004882
0.0001004236
0.0001004874
0.0001004858
0.0001004857
0.0001004857
0.0001004857
0.0001004858
0.0001004878
0.0001004878
0.0001004299
0.0001004869
0.0001004853
0.0001004852
0.0001004852
0.0001004851
0.0001004853
0.0001004875
0.0001004875
0.0006024892
0.001268229
0.001234446
0.001224225
0.001222173
0.001222277
0.00122301
0.001224025
0.0001004497
0.0001004576
0.0001005033
0.0001005028
0.0001005038
0.0001005043
0.0001005045
0.0001005046
0.0001005047
0.000100456
0.000100457
0.0001004579
0.0001004588
0.0001004604
0.0001004615
0.0001004613
0.0001004613
0.0001004615
0.0001004557
0.0001004572
0.0001004579
0.0001004597
0.0001004627
0.0001004636
0.0001004638
0.0001004621
0.000100462
0.0001004552
0.0001004577
0.0001004587
0.0001004629
0.000100471
0.0001004697
0.0001004742
0.0001004649
0.0001006619
0.0001004545
0.0001004579
0.0001004589
0.0001004695
0.0001004799
0.000100715
0.0001013316
0.0001006925
0.0009948273
0.000100453
0.0001004561
0.0001004577
0.0001004647
0.0001004738
0.0001005784
0.0003359898
0.001009011
0.0001004511
0.0001004534
0.0001004537
0.000100454
0.000100458
0.0001004615
0.0001004539
0.0001004486
0.0001004866
0.0001004494
0.0001004512
0.0001004506
0.0001004497
0.0001004492
0.000100448
0.0001004475
0.0001004446
0.0001004456
0.000100448
0.0001004497
0.0001004489
0.0001004478
0.0001004468
0.0001004457
0.0001004448
0.000100445
0.0001004451
0.0001004469
0.0001004485
0.0001004478
0.0001004469
0.000100446
0.0001004452
0.0001004449
0.0001004448
0.0001004452
0.0001004461
0.0001004478
0.0001004471
0.0001004464
0.0001004458
0.0001004452
0.0001004449
0.0001004449
0.0001004452
0.0001004454
0.0001004472
0.0001004467
0.0001004462
0.0001004456
0.0001004452
0.000100445
0.000100445
0.0001004452
0.0001004448
0.0001004467
0.0001004463
0.0001004459
0.0001004455
0.0001004452
0.000100445
0.000100445
0.0001004451
0.0001004444
0.0001004463
0.0001004459
0.0001004457
0.0001004453
0.0001004451
0.0001004449
0.0001004449
0.000100445
0.0001004439
0.000100446
0.0001004456
0.0001004454
0.0001004451
0.0001004449
0.0001004448
0.0001004447
0.0001004448
0.0001004435
0.0001004456
0.0001004452
0.0001004451
0.0001004448
0.0001004446
0.0001004445
0.0001004445
0.0001004446
0.000100443
0.0001004452
0.0001004449
0.0001004447
0.0001004445
0.0001004443
0.0001004442
0.0001004442
0.0001004443
0.0001004425
0.0001004448
0.0001004444
0.0001004443
0.0001004441
0.000100444
0.0001004439
0.0001004439
0.000100444
0.000100442
0.0001004444
0.000100444
0.0001004439
0.0001004437
0.0001004435
0.0001004435
0.0001004435
0.0001004436
0.0001004415
0.0001004439
0.0001004435
0.0001004434
0.0001004432
0.0001004431
0.000100443
0.0001004431
0.0001004432
0.0001004409
0.0001004435
0.000100443
0.0001004429
0.0001004427
0.0001004426
0.0001004425
0.0001004426
0.0001004428
0.0001004403
0.000100443
0.0001004425
0.0001004424
0.0001004422
0.000100442
0.000100442
0.0001004421
0.0001004423
0.0001004397
0.0001004426
0.000100442
0.0001004418
0.0001004416
0.0001004415
0.0001004415
0.0001004416
0.0001004419
0.0006015146
0.001260043
0.001222411
0.00120999
0.001207497
0.00120762
0.001208561
0.001209917
0.0001004498
0.0001004577
0.0001005032
0.0001005026
0.0001005036
0.0001005041
0.0001005042
0.0001005043
0.0001005043
0.0001004561
0.000100457
0.000100458
0.0001004588
0.0001004605
0.0001004615
0.0001004613
0.0001004613
0.0001004615
0.0001004554
0.0001004574
0.0001004579
0.0001004598
0.0001004627
0.0001004636
0.0001004637
0.000100462
0.000100462
0.0001004552
0.0001004579
0.0001004588
0.0001004629
0.0001004711
0.0001004694
0.0001004742
0.0001004649
0.0001006649
0.0001004537
0.0001004581
0.000100459
0.0001004694
0.0001004808
0.0001007147
0.0001013512
0.000100719
0.0009467017
0.0001004521
0.0001004563
0.0001004577
0.0001004647
0.0001004731
0.0001005709
0.0003272568
0.0009559374
0.0001004505
0.0001004537
0.0001004537
0.000100454
0.0001004579
0.0001004618
0.0001004533
0.0001004492
0.0001004852
0.0001004492
0.0001004515
0.0001004507
0.0001004497
0.0001004493
0.0001004479
0.0001004476
0.0001004442
0.0001004451
0.000100448
0.0001004501
0.0001004491
0.0001004478
0.0001004468
0.0001004456
0.0001004446
0.0001004449
0.0001004449
0.0001004471
0.000100449
0.000100448
0.000100447
0.000100446
0.0001004452
0.0001004449
0.0001004447
0.0001004451
0.0001004464
0.0001004482
0.0001004473
0.0001004465
0.0001004458
0.0001004451
0.0001004449
0.0001004449
0.0001004452
0.0001004458
0.0001004476
0.0001004468
0.0001004462
0.0001004456
0.0001004452
0.000100445
0.000100445
0.0001004451
0.0001004453
0.0001004471
0.0001004465
0.0001004459
0.0001004455
0.0001004452
0.000100445
0.000100445
0.0001004451
0.0001004448
0.0001004467
0.0001004461
0.0001004457
0.0001004453
0.000100445
0.0001004449
0.0001004449
0.000100445
0.0001004443
0.0001004464
0.0001004458
0.0001004454
0.0001004451
0.0001004449
0.0001004448
0.0001004447
0.0001004448
0.0001004439
0.000100446
0.0001004454
0.0001004451
0.0001004448
0.0001004446
0.0001004445
0.0001004445
0.0001004446
0.0001004434
0.0001004456
0.0001004451
0.0001004447
0.0001004445
0.0001004443
0.0001004442
0.0001004442
0.0001004443
0.0001004429
0.0001004452
0.0001004447
0.0001004443
0.0001004441
0.000100444
0.0001004439
0.0001004439
0.000100444
0.0001004424
0.0001004448
0.0001004442
0.0001004439
0.0001004437
0.0001004436
0.0001004435
0.0001004435
0.0001004436
0.0001004419
0.0001004444
0.0001004438
0.0001004434
0.0001004432
0.0001004431
0.000100443
0.0001004431
0.0001004432
0.0001004412
0.0001004439
0.0001004433
0.0001004429
0.0001004427
0.0001004426
0.0001004426
0.0001004426
0.0001004428
0.0001004406
0.0001004435
0.0001004428
0.0001004424
0.0001004422
0.0001004421
0.000100442
0.0001004421
0.0001004423
0.0001004398
0.0001004431
0.0001004423
0.0001004419
0.0001004416
0.0001004415
0.0001004415
0.0001004416
0.0001004419
0.0006013406
0.001258425
0.00121994
0.001207105
0.001204496
0.001204666
0.001205733
0.001207264
0.0001004498
0.0001004576
0.000100503
0.0001005026
0.0001005036
0.0001005041
0.0001005042
0.0001005043
0.0001005043
0.000100456
0.0001004571
0.0001004579
0.0001004588
0.0001004605
0.0001004615
0.0001004613
0.0001004614
0.0001004615
0.0001004554
0.0001004575
0.000100458
0.0001004598
0.0001004626
0.0001004637
0.0001004637
0.000100462
0.000100462
0.0001004552
0.000100458
0.0001004588
0.0001004628
0.0001004711
0.0001004695
0.0001004741
0.0001004649
0.0001006655
0.0001004537
0.0001004581
0.0001004591
0.0001004693
0.0001004807
0.0001007146
0.0001013524
0.0001007217
0.0009273037
0.0001004522
0.0001004564
0.0001004578
0.0001004647
0.0001004732
0.0001005693
0.0003244792
0.0009346122
0.0001004505
0.0001004537
0.0001004539
0.000100454
0.0001004579
0.0001004621
0.0001004533
0.00010045
0.0001004848
0.0001004492
0.0001004516
0.0001004508
0.0001004498
0.0001004493
0.0001004478
0.0001004477
0.0001004441
0.000100445
0.000100448
0.0001004501
0.0001004492
0.0001004479
0.0001004468
0.0001004456
0.0001004446
0.0001004449
0.0001004449
0.0001004471
0.000100449
0.0001004481
0.0001004471
0.0001004461
0.0001004452
0.0001004449
0.0001004447
0.0001004451
0.0001004463
0.0001004483
0.0001004475
0.0001004466
0.0001004458
0.0001004452
0.0001004449
0.0001004449
0.0001004452
0.0001004457
0.0001004477
0.000100447
0.0001004463
0.0001004457
0.0001004452
0.000100445
0.000100445
0.0001004452
0.0001004452
0.0001004472
0.0001004467
0.0001004461
0.0001004456
0.0001004452
0.000100445
0.000100445
0.0001004451
0.0001004447
0.0001004468
0.0001004463
0.0001004458
0.0001004454
0.0001004451
0.0001004449
0.0001004449
0.000100445
0.0001004443
0.0001004464
0.000100446
0.0001004456
0.0001004452
0.0001004449
0.0001004448
0.0001004447
0.0001004448
0.0001004438
0.0001004461
0.0001004456
0.0001004452
0.0001004449
0.0001004447
0.0001004445
0.0001004445
0.0001004446
0.0001004434
0.0001004457
0.0001004453
0.0001004449
0.0001004446
0.0001004444
0.0001004443
0.0001004442
0.0001004443
0.0001004429
0.0001004453
0.0001004449
0.0001004445
0.0001004442
0.000100444
0.0001004439
0.0001004439
0.000100444
0.0001004424
0.0001004449
0.0001004445
0.0001004441
0.0001004438
0.0001004436
0.0001004435
0.0001004435
0.0001004436
0.0001004418
0.0001004445
0.000100444
0.0001004436
0.0001004433
0.0001004431
0.0001004431
0.0001004431
0.0001004432
0.0001004412
0.0001004441
0.0001004435
0.0001004431
0.0001004428
0.0001004426
0.0001004426
0.0001004426
0.0001004428
0.0001004405
0.0001004437
0.000100443
0.0001004426
0.0001004423
0.0001004421
0.0001004421
0.0001004421
0.0001004423
0.0001004398
0.0001004433
0.0001004425
0.0001004421
0.0001004417
0.0001004416
0.0001004415
0.0001004417
0.0001004419
0.0006014317
0.001259533
0.001221766
0.001209294
0.001206817
0.001206999
0.00120798
0.001209261
0.0001004498
0.0001004577
0.0001005031
0.0001005027
0.0001005036
0.0001005041
0.0001005043
0.0001005043
0.0001005043
0.000100456
0.0001004571
0.000100458
0.0001004588
0.0001004605
0.0001004615
0.0001004613
0.0001004614
0.0001004615
0.0001004554
0.0001004575
0.000100458
0.0001004598
0.0001004627
0.0001004637
0.0001004637
0.000100462
0.000100462
0.0001004552
0.0001004579
0.0001004588
0.0001004628
0.0001004711
0.0001004694
0.0001004741
0.0001004649
0.0001006651
0.0001004537
0.0001004581
0.0001004591
0.0001004693
0.0001004809
0.0001007151
0.0001013512
0.0001006992
0.0009273101
0.0001004521
0.0001004564
0.0001004578
0.0001004647
0.0001004731
0.0001005711
0.0003241392
0.0009344925
0.0001004505
0.0001004537
0.0001004539
0.000100454
0.0001004579
0.0001004621
0.0001004533
0.00010045
0.0001004847
0.0001004492
0.0001004516
0.0001004508
0.0001004498
0.0001004493
0.0001004478
0.0001004476
0.000100444
0.0001004449
0.000100448
0.0001004501
0.0001004492
0.0001004479
0.0001004468
0.0001004457
0.0001004446
0.0001004449
0.0001004449
0.0001004471
0.000100449
0.0001004481
0.0001004471
0.0001004461
0.0001004452
0.0001004449
0.0001004447
0.0001004451
0.0001004463
0.0001004482
0.0001004475
0.0001004466
0.0001004458
0.0001004452
0.0001004449
0.0001004449
0.0001004452
0.0001004457
0.0001004477
0.000100447
0.0001004463
0.0001004457
0.0001004452
0.000100445
0.000100445
0.0001004451
0.0001004452
0.0001004472
0.0001004467
0.0001004461
0.0001004456
0.0001004452
0.000100445
0.000100445
0.0001004451
0.0001004448
0.0001004469
0.0001004463
0.0001004458
0.0001004454
0.0001004451
0.0001004449
0.0001004449
0.000100445
0.0001004444
0.0001004465
0.000100446
0.0001004456
0.0001004452
0.0001004449
0.0001004448
0.0001004447
0.0001004448
0.0001004438
0.0001004461
0.0001004456
0.0001004453
0.0001004449
0.0001004447
0.0001004445
0.0001004445
0.0001004446
0.0001004434
0.0001004457
0.0001004453
0.0001004449
0.0001004446
0.0001004444
0.0001004442
0.0001004442
0.0001004443
0.0001004429
0.0001004453
0.0001004449
0.0001004445
0.0001004442
0.000100444
0.0001004439
0.0001004439
0.000100444
0.0001004424
0.0001004449
0.0001004445
0.0001004441
0.0001004438
0.0001004436
0.0001004435
0.0001004435
0.0001004436
0.0001004418
0.0001004445
0.000100444
0.0001004436
0.0001004433
0.0001004431
0.0001004431
0.0001004431
0.0001004432
0.0001004412
0.0001004441
0.0001004435
0.0001004431
0.0001004428
0.0001004426
0.0001004426
0.0001004426
0.0001004428
0.0001004405
0.0001004437
0.000100443
0.0001004426
0.0001004423
0.0001004421
0.0001004421
0.0001004421
0.0001004423
0.0001004398
0.0001004433
0.0001004425
0.0001004421
0.0001004418
0.0001004416
0.0001004415
0.0001004417
0.0001004419
0.0006016785
0.001266586
0.001232382
0.001222011
0.001219967
0.001220158
0.001220857
0.001220576
0.0001004498
0.0001004577
0.0001005033
0.0001005029
0.000100504
0.0001005044
0.0001005046
0.0001005046
0.0001005046
0.0001004561
0.0001004571
0.000100458
0.0001004588
0.0001004605
0.0001004615
0.0001004613
0.0001004613
0.0001004615
0.0001004554
0.0001004575
0.0001004579
0.0001004598
0.0001004627
0.0001004636
0.0001004637
0.000100462
0.000100462
0.0001004552
0.000100458
0.0001004588
0.0001004628
0.000100471
0.0001004695
0.0001004741
0.0001004649
0.0001006649
0.0001004537
0.0001004581
0.000100459
0.0001004693
0.0001004811
0.0001007145
0.0001013576
0.0001006911
0.0009468042
0.0001004519
0.0001004563
0.0001004577
0.0001004646
0.0001004726
0.0001005727
0.0003252381
0.0009555693
0.0001004506
0.0001004537
0.0001004539
0.000100454
0.0001004579
0.0001004618
0.0001004533
0.0001004492
0.000100485
0.0001004493
0.0001004516
0.0001004508
0.0001004498
0.0001004493
0.0001004479
0.0001004476
0.0001004442
0.0001004452
0.0001004481
0.0001004502
0.0001004492
0.0001004479
0.0001004468
0.0001004457
0.0001004446
0.0001004449
0.0001004449
0.0001004472
0.0001004491
0.0001004481
0.0001004471
0.0001004461
0.0001004452
0.0001004449
0.0001004447
0.0001004451
0.0001004464
0.0001004483
0.0001004475
0.0001004466
0.0001004459
0.0001004452
0.0001004449
0.0001004449
0.0001004452
0.0001004459
0.0001004478
0.0001004471
0.0001004464
0.0001004458
0.0001004452
0.000100445
0.000100445
0.0001004451
0.0001004454
0.0001004472
0.0001004467
0.0001004461
0.0001004456
0.0001004452
0.000100445
0.000100445
0.0001004451
0.0001004449
0.0001004468
0.0001004463
0.0001004458
0.0001004454
0.0001004451
0.0001004449
0.0001004449
0.000100445
0.0001004445
0.0001004465
0.000100446
0.0001004456
0.0001004452
0.0001004449
0.0001004448
0.0001004447
0.0001004448
0.0001004441
0.0001004461
0.0001004456
0.0001004452
0.0001004449
0.0001004447
0.0001004445
0.0001004445
0.0001004446
0.0001004435
0.0001004457
0.0001004453
0.0001004449
0.0001004446
0.0001004444
0.0001004442
0.0001004442
0.0001004443
0.000100443
0.0001004453
0.0001004449
0.0001004445
0.0001004442
0.000100444
0.0001004439
0.0001004439
0.000100444
0.0001004425
0.0001004449
0.0001004444
0.0001004441
0.0001004438
0.0001004436
0.0001004435
0.0001004435
0.0001004436
0.000100442
0.0001004445
0.000100444
0.0001004436
0.0001004434
0.0001004431
0.0001004431
0.0001004431
0.0001004432
0.0001004413
0.000100444
0.0001004435
0.0001004431
0.0001004429
0.0001004426
0.0001004426
0.0001004426
0.0001004428
0.0001004406
0.0001004436
0.000100443
0.0001004426
0.0001004423
0.0001004421
0.0001004421
0.0001004421
0.0001004423
0.0001004399
0.0001004432
0.0001004425
0.0001004421
0.0001004418
0.0001004416
0.0001004415
0.0001004416
0.0001004419
0.0006042737
0.001286278
0.001266411
0.001259479
0.001258299
0.001258723
0.001259342
0.001258113
0.0001004499
0.0001004578
0.0001005039
0.000100504
0.0001005052
0.0001005056
0.0001005059
0.0001005059
0.0001005059
0.0001004561
0.0001004571
0.0001004579
0.0001004588
0.0001004605
0.0001004615
0.0001004613
0.0001004613
0.0001004615
0.000100456
0.0001004574
0.000100458
0.0001004597
0.0001004627
0.0001004635
0.0001004637
0.000100462
0.000100462
0.0001004555
0.0001004579
0.0001004588
0.0001004628
0.0001004708
0.0001004692
0.0001004741
0.0001004647
0.0001006623
0.000100455
0.0001004581
0.000100459
0.0001004693
0.0001004809
0.0001007155
0.0001013418
0.0001006795
0.0009953964
0.0001004529
0.0001004563
0.0001004578
0.0001004645
0.0001004722
0.0001005763
0.0003308016
0.001007594
0.0001004508
0.0001004535
0.0001004536
0.0001004539
0.0001004579
0.0001004616
0.0001004539
0.0001004486
0.0001004864
0.0001004495
0.0001004518
0.0001004509
0.0001004499
0.0001004492
0.000100448
0.0001004475
0.0001004445
0.0001004456
0.0001004492
0.00010045
0.0001004493
0.0001004479
0.0001004468
0.0001004457
0.0001004448
0.000100445
0.0001004451
0.0001004475
0.0001004488
0.0001004482
0.0001004471
0.0001004461
0.0001004452
0.0001004449
0.0001004448
0.0001004452
0.0001004467
0.0001004481
0.0001004475
0.0001004467
0.0001004459
0.0001004452
0.0001004449
0.0001004449
0.0001004452
0.0001004455
0.0001004476
0.000100447
0.0001004464
0.0001004457
0.0001004452
0.000100445
0.000100445
0.0001004452
0.0001004451
0.0001004472
0.0001004467
0.0001004462
0.0001004456
0.0001004452
0.000100445
0.000100445
0.0001004451
0.0001004452
0.000100447
0.0001004465
0.0001004459
0.0001004455
0.0001004451
0.0001004449
0.0001004449
0.000100445
0.0001004452
0.0001004464
0.0001004461
0.0001004456
0.0001004452
0.0001004449
0.0001004448
0.0001004447
0.0001004448
0.0001004441
0.000100446
0.0001004457
0.0001004453
0.000100445
0.0001004447
0.0001004445
0.0001004445
0.0001004446
0.0001004436
0.0001004455
0.0001004453
0.000100445
0.0001004446
0.0001004444
0.0001004442
0.0001004442
0.0001004443
0.0001004433
0.0001004452
0.0001004449
0.0001004446
0.0001004442
0.000100444
0.0001004439
0.0001004439
0.000100444
0.0001004428
0.0001004448
0.0001004445
0.0001004442
0.0001004438
0.0001004436
0.0001004435
0.0001004435
0.0001004436
0.0001004423
0.0001004443
0.000100444
0.0001004437
0.0001004434
0.0001004431
0.0001004431
0.0001004431
0.0001004432
0.0001004418
0.0001004439
0.0001004435
0.0001004432
0.0001004429
0.0001004426
0.0001004426
0.0001004426
0.0001004427
0.0001004412
0.0001004435
0.000100443
0.0001004427
0.0001004423
0.0001004421
0.0001004421
0.0001004421
0.0001004423
0.0001004404
0.0001004431
0.0001004425
0.0001004422
0.0001004418
0.0001004415
0.0001004415
0.0001004416
0.0001004419
0.0006086499
0.0005951967
0.0005761921
0.0005725347
0.0005709
0.0005724624
0.0005740743
0.0005730423
0.0001004502
0.0001005032
0.0001005028
0.0001005033
0.0001005044
0.000100505
0.0001005053
0.0001005055
0.0001005057
0.0001004502
0.000100502
0.0001005011
0.000100502
0.0001005038
0.0001005047
0.0001005085
0.0001005052
0.0001005045
0.0001004497
0.0001005018
0.0001005013
0.0001005152
0.0001005555
0.0001005538
0.0001005341
0.0001005193
0.00010051
0.0001004483
0.0001005022
0.0001005027
0.0001005796
0.0001006225
0.0001004697
0.0001004737
0.0001004647
0.0001005234
0.0001004473
0.0001005028
0.0001005038
0.0001006161
0.0001004818
0.0001007158
0.0001013356
0.0001006884
0.0001007031
0.0001004445
0.0001005019
0.0001005025
0.0001006078
0.0001004708
0.0001005743
0.000342249
0.0003555022
0.0001004398
0.0001004992
0.000100498
0.0001005355
0.0001005018
0.0001005071
0.0001005002
0.0001004941
0.0001004931
0.000100457
0.0001004956
0.000100494
0.0001004929
0.0001004929
0.0001004913
0.0001004909
0.0001004893
0.0001004884
0.0001004388
0.0001004947
0.0001004922
0.0001004911
0.00010049
0.0001004893
0.0001004936
0.0001004936
0.0001004908
0.0001004367
0.0001004934
0.0001004913
0.0001004903
0.0001004894
0.0001004887
0.0001004887
0.0001004911
0.0001004885
0.0001004358
0.0001004932
0.0001004906
0.0001004899
0.0001004893
0.0001004887
0.0001004893
0.0001004909
0.0001004901
0.0001004348
0.0001004921
0.0001004903
0.0001004896
0.0001004892
0.0001004888
0.0001004887
0.0001004903
0.0001004894
0.0001004561
0.000100491
0.0001004901
0.0001004893
0.0001004891
0.0001004888
0.0001004887
0.0001004904
0.0001004902
0.000100456
0.0001004912
0.0001004895
0.0001004892
0.0001004889
0.0001004887
0.0001004886
0.0001004903
0.0001004899
0.0001004329
0.0001004911
0.0001004893
0.0001004889
0.0001004887
0.0001004885
0.0001004885
0.00010049
0.0001004898
0.0001004315
0.0001004905
0.000100489
0.0001004885
0.0001004884
0.0001004883
0.0001004883
0.0001004898
0.0001004896
0.0001004312
0.0001004901
0.0001004886
0.0001004882
0.0001004881
0.000100488
0.000100488
0.0001004894
0.0001004893
0.0001004304
0.0001004899
0.0001004882
0.0001004879
0.0001004878
0.0001004876
0.0001004876
0.0001004894
0.0001004891
0.0001004296
0.0001004894
0.0001004878
0.0001004874
0.0001004873
0.0001004872
0.0001004872
0.0001004886
0.0001004884
0.0001004286
0.0001004889
0.0001004874
0.000100487
0.0001004869
0.0001004868
0.0001004869
0.0001004891
0.0001004882
0.0001004273
0.0001004885
0.0001004869
0.0001004865
0.0001004864
0.0001004862
0.0001004863
0.000100488
0.0001004867
0.000100426
0.0001004881
0.0001004864
0.0001004859
0.0001004858
0.0001004866
0.0001004882
0.0001004919
0.0001004864
0.0001004258
0.0001004877
0.000100486
0.0001004855
0.0001004858
0.0001004855
0.0001004853
0.0001004874
0.0001004855
0.0002681331
0.0002637637
0.0002639427
0.0005986312
0.0006007526
0.0002679258
0.0002672988
0.0002635005
0.0001004354
0.001339046
0.001309648
0.001299543
0.001297026
0.001297338
0.001298492
0.001299421
0.001298262
0.0001004343
0.001310227
0.001257967
0.001245872
0.001247097
0.001249943
0.001251603
0.001251642
0.001251838
0.0001004327
0.001300892
0.001246185
0.001237483
0.001260279
0.001261577
0.001276423
0.001264049
0.001273302
0.000100432
0.00129821
0.00124738
0.001260139
0.001271195
0.0001008318
0.0001006952
0.0001006646
0.001308542
0.0001006274
0.001298093
0.001248622
0.001259225
0.0001009686
0.0001010181
0.0001013468
0.0001007384
0.0001007954
0.0001004302
0.001299008
0.001248371
0.001257492
0.000100907
0.0001006471
0.0001004299
0.001298323
0.001245423
0.001254725
0.001261305
0.001293613
0.001312191
0.001316588
0.001316582
0.0001008036
0.001294985
0.001239514
0.001225647
0.001226762
0.001232805
0.00123802
0.001239919
0.001240613
0.0001008421
0.001295411
0.001235843
0.001216865
0.001213004
0.001213451
0.001214597
0.001215463
0.001216048
0.0001004405
0.001295465
0.001234942
0.001214366
0.00120878
0.001207582
0.001207601
0.001207988
0.00120844
0.0001004548
0.001296052
0.001234573
0.001213501
0.001207337
0.00120558
0.001205196
0.001205372
0.001205722
0.0001004445
0.001294625
0.001233955
0.001213058
0.001206739
0.001204767
0.001204217
0.001204298
0.001204599
0.0001009983
0.00129088
0.001233309
0.001212806
0.001206477
0.00120443
0.001203807
0.001203838
0.001204108
0.0001010055
0.001290779
0.001233317
0.001212773
0.001206407
0.001204306
0.001203641
0.001203646
0.001203898
0.0001010371
0.001294565
0.001233991
0.001212939
0.001206448
0.001204287
0.001203592
0.001203577
0.001203818
0.0001004666
0.001297287
0.001234736
0.001213164
0.001206538
0.001204326
0.001203604
0.001203571
0.001203801
0.0001011422
0.001298025
0.001235056
0.001213313
0.001206628
0.001204388
0.001203646
0.001203599
0.001203818
0.0001004776
0.001297602
0.001235135
0.001213424
0.001206727
0.001204468
0.001203713
0.001203655
0.001203861
0.0001012202
0.001297568
0.001235199
0.001213535
0.001206843
0.001204585
0.001203815
0.001203741
0.00120393
0.00010049
0.00129723
0.001235363
0.001213697
0.001207026
0.001204762
0.001203983
0.00120388
0.001204035
0.0001005087
0.001297393
0.001235538
0.00121397
0.001207361
0.001205127
0.001204315
0.001204144
0.001204222
0.0001005203
0.00129782
0.001235858
0.001214562
0.001208177
0.001206029
0.001205136
0.001204744
0.001204595
0.000100533
0.001298236
0.00123692
0.001216443
0.001210856
0.001209059
0.001207894
0.001206708
0.001205665
0.0002509925
0.0006426646
0.0002637831
0.0001004371
0.0001005565
0.0002712391
0.0006287642
0.0006070378
0.0006066733
0.0005914656
0.0001010529
0.0001007912
0.0002711743
0.0006010244
0.0005980231
0.0005999289
0.0005858826
0.0001014339
0.0001011093
0.0002710026
0.0005972763
0.0005968044
0.0005824828
0.0005806032
0.000101412
0.0001012755
0.0002707957
0.0005966817
0.0005964891
0.0005801943
0.0005798966
0.0001015492
0.0001013196
0.0002705871
0.0005964571
0.0005963104
0.0005798018
0.0005797066
0.0001014771
0.0001012915
0.0002704258
0.0005962772
0.0005961655
0.0005796751
0.0005796364
0.0001013076
0.0001011606
0.0002703153
0.0005961401
0.0005960627
0.0005796346
0.0005796231
0.0001011485
0.000101053
0.0002702432
0.0005960575
0.0005960381
0.0005796368
0.0005796327
0.0001010131
0.00010096
0.0006471213
0.0006306364
0.0001004407
0.0001043904
0.0001004383
0.0001044173
0.0006270157
0.0006250088
0.0001004428
0.0001047026
0.000100435
0.0001047092
0.0006247636
0.0006245855
0.0001004417
0.0001052243
0.0001004337
0.0001052434
0.0006247293
0.0006247491
0.000100441
0.0001059523
0.0001004328
0.0001059737
0.0006249849
0.000625007
0.0001004409
0.0001069309
0.0001004321
0.0001069526
0.0002846517
0.0002892345
0.0001010192
0.0001007598
0.000101231
0.0006241368
0.0001013556
0.0001010314
0.0006185721
0.0001008981
0.0001008168
0.0006154298
0.0001007922
0.0001007435
0.000625276
0.0006252815
0.0001004427
0.0001080803
0.0001004314
0.0001081077
0.0006041008
0.0006237745
0.0001006727
0.0001076524
0.000106229
0.0006405095
0.0006462217
0.000104833
0.000102103
0.0006458901
0.0006455601
0.0001025402
0.0001013698
0.0006453776
0.0006452506
0.0001022192
0.0001013139
0.0006255179
0.0006255146
0.0001004463
0.0001091236
0.0001004326
0.0001091635
0.0006256988
0.0006256994
0.0001004509
0.0001099793
0.0001004359
0.000110025
0.0006258576
0.0006258672
0.0001004562
0.0001107043
0.00010044
0.0001107301
0.0006259851
0.0006259979
0.0001004613
0.0001112733
0.0001004442
0.0001112987
0.0006261024
0.0006261129
0.0001004662
0.0001117604
0.0001004484
0.0001117803
0.000626202
0.0006262127
0.0001004708
0.0001121696
0.0001004525
0.0001121936
0.000626293
0.0006263036
0.0001004753
0.0001125374
0.0001004564
0.0001125619
0.0006263772
0.0006263881
0.0001004797
0.0001128813
0.0001004604
0.0001129083
0.0006264597
0.0006264703
0.0001004843
0.0001132158
0.0001004647
0.000113244
0.0006265426
0.0006265532
0.0001004892
0.0001135541
0.0001004693
0.0001135839
0.0006266288
0.0006266394
0.0001004946