/*--------------------------------*- C++ -*----------------------------------*\
  =========                 |
  \\      /  F ield         | OpenFOAM: The Open Source CFD Toolbox
   \\    /   O peration     | Website:  https://openfoam.org
    \\  /    A nd           | Version:  7
     \\/     M anipulation  |
\*---------------------------------------------------------------------------*/
FoamFile
{
    version     2.0;
    format      ascii;
    class       surfaceScalarField;
    location    "0.1";
    object      phi;
}
// * * * * * * * * * * * * * * * * * * * * * * * * * * * * * * * * * * * * * //

dimensions      [0 3 -1 0 0 0 0];

internalField   nonuniform List<scalar> 
228001
(
0.0002105198
-0.0001912341
-1.039055e-05
-8.895175e-06
0.0002050645
-0.0001789239
-1.418848e-05
-1.195219e-05
0.0001826748
-0.0001594343
-1.471809e-05
-8.522456e-06
0.0001519888
-0.0001306553
-1.363474e-05
-7.698762e-06
0.0001154536
-9.648361e-05
-1.276976e-05
-6.20026e-06
8.090204e-05
-6.65799e-05
-9.21088e-06
-5.111257e-06
5.318192e-05
-4.307986e-05
-6.518191e-06
-3.583868e-06
3.430939e-05
-2.772874e-05
-4.21734e-06
-2.363307e-06
-0.003932239
-0.0005373821
-0.0002648168
0.0001908851
-0.0001553072
9.169613e-05
-3.470007e-06
0.001036076
0.001074621
0.001249677
0.00125026
-0.00340651
-0.000941424
-3.046048e-05
0.0002912108
-7.988608e-05
0.0001372224
9.760855e-05
-0.002768368
-0.00123402
-5.803777e-05
0.000320991
-1.480685e-05
0.0001928161
0.0001549156
-0.002003572
-0.001443343
-7.080277e-05
0.0003148596
4.42029e-05
0.0002037233
0.0001865633
-0.001339144
-0.001299726
-6.729391e-05
0.0002650038
7.260242e-05
0.0001974364
0.0001675487
-0.0008612436
-0.0009421324
-6.025228e-05
0.0001896155
6.400965e-05
0.0001485066
0.000122353
-0.0005317773
-0.0006678679
-3.339865e-05
0.0001315062
4.79841e-05
0.0001062981
8.601175e-05
-0.0004260011
-2.066751e-05
8.390991e-05
3.309578e-05
6.638494e-05
5.54929e-05
-0.0003239922
-0.004339578
-0.0008878334
-0.0003400096
0.001175224
0.001160988
0.001347981
0.001345847
-0.003682373
-0.00146331
-0.0001353195
-0.002921652
-0.001957505
-3.723567e-05
-0.001987372
-0.002333921
-4.370254e-05
-0.00110049
-0.002175398
-1.121071e-05
-0.0005484725
-0.001507202
1.305228e-05
-0.0002910097
-0.0009088816
-1.644919e-05
-0.0005457555
-8.132223e-06
-0.0001631231
-0.004888115
-0.001230297
-0.0004429304
0.001332172
0.001305428
0.001516902
0.001519007
-0.004142665
-0.002121511
-8.724943e-05
-0.003199137
-0.002929207
2.817359e-05
-0.001871507
-0.003791672
0.0001301214
-0.0006291604
-0.0008578553
0.0001210892
-0.0007505699
-0.00104524
-0.0008851691
-0.0001004358
-0.0005054173
6.124575e-05
-0.0004401742
-0.0006128856
-0.000538695
2.588066e-05
-0.001069661
3.446287e-05
-0.0005940239
7.575119e-06
6.657404e-05
-0.005735897
-0.001546617
-0.0005031765
0.001541772
0.001503478
0.001753632
0.001756514
-0.004950881
-0.002812665
-9.386249e-05
-0.003948684
-0.004123693
0.0001922885
-0.0003149461
-0.00127407
0.0002836371
-0.0005188115
-0.0004784536
-0.0005498243
-0.001469962
-0.00165733
-0.001760597
-8.601997e-05
-0.001134035
4.725331e-05
-0.0001041488
0.0001706258
-0.0006057529
3.385864e-05
0.000608849
-0.0002108267
8.251097e-05
-0.0001156771
-0.0002543121
-0.0001754045
-0.0001350078
-0.0002759104
-0.0002285249
-0.0003653571
-0.0001299241
4.530859e-05
-5.509398e-05
-0.0001302214
-8.610945e-05
0.0003708654
-0.006942387
-0.001746387
-0.0005935699
0.001821557
0.001770304
0.002070851
0.002073015
-0.006644423
-0.003053428
-5.720132e-05
-0.001214781
-0.004749137
0.0002630555
-0.001767574
-0.001505135
-0.001794545
-0.0009626743
-0.001615766
8.959003e-05
7.447642e-05
0.001797525
0.0004413162
0.0002295458
0.0001691436
0.0001471854
0.0001689379
-0.000894912
-0.0006510184
-0.0007764657
-0.0007057344
-0.000234164
0.0001923007
0.0001642004
-0.0001262839
3.946699e-06
-0.0004784491
0.0003377345
-4.373788e-07
-1.339528e-05
-3.778579e-05
-2.121355e-05
2.71988e-06
-0.0002779749
0.0001808494
7.348865e-06
-8.298661e-06
-2.134123e-05
-1.224652e-05
1.73893e-06
-0.008509356
-0.001657159
-0.0007022156
0.002143126
0.002090521
0.002441817
0.002446878
-0.008730451
-0.002725443
-0.0001068908
-0.00175829
-0.004220067
0.0002792759
-0.002627726
-0.002326568
-0.002826213
0.002005726
-0.002139669
-0.001679913
5.556563e-05
0.0009245876
0.0004622092
-0.000708885
-0.0006738621
-4.049887e-06
-0.009770256
-0.001429324
-0.000803984
0.002425772
0.002378746
0.002764682
0.002777205
-0.01002542
-0.002291516
-0.000178764
-0.01088475
-0.003444459
8.371843e-05
-0.01274314
-0.004154888
-4.203962e-05
0.00169476
0.001000237
0.001727786
0.001632538
-0.01532824
-0.004596942
-0.0001974275
0.002246093
0.001002095
0.002184931
0.001946349
-0.01583963
-0.002834404
-9.12389e-05
0.00152856
-2.819038e-05
0.00138038
0.0005562884
-0.01516339
-0.001745735
-0.0001527915
0.0009748524
-0.0004114632
0.0005935988
6.529401e-05
-0.001198034
-1.341785e-05
0.0008184303
-0.0004722937
0.0004738936
-1.472211e-05
-0.01475724
-0.01069732
-0.001217057
-0.0008549709
0.002651109
0.002612346
0.003029899
0.00304667
-0.01082064
-0.001915275
-0.0002529262
-0.01153293
-0.00269189
-4.027449e-05
-0.01261925
-0.003051401
-1.716976e-05
-0.01389475
-0.003254036
-6.740155e-05
-0.01437762
-0.00228287
-6.866915e-05
-0.01429626
-0.001817197
-9.895509e-06
-0.00134759
-9.850973e-05
-0.0140482
-0.01143058
-0.001007471
-0.0009564066
0.002844426
0.002815205
0.003252696
0.00326507
-0.01149579
-0.001557667
-0.000292388
-0.01201354
-0.002103495
-7.064859e-05
-0.0126751
-0.002361241
-2.859921e-05
-0.01336619
-0.002544606
-1.833874e-05
-0.01359936
-0.002060709
1.10025e-05
-0.01362643
-0.001801188
1.106255e-05
-0.001468099
1.801148e-05
-0.01352393
-0.01200488
-0.00085301
-0.0009684787
0.002990313
0.002967558
0.003423859
0.003437166
-0.01194698
-0.001297217
-0.0003183466
-0.01224912
-0.001721302
-8.00505e-05
-0.01262925
-0.001943415
-3.770546e-05
-0.01305427
-0.002120566
9.798226e-07
-0.01325222
-0.001860759
-1.995857e-06
-0.01332332
-0.001740066
9.978908e-06
-0.001535993
-5.378909e-06
-0.01325005
-0.01244935
-0.0007301797
-0.001049615
0.003119656
0.003098858
0.003572526
0.003585097
-0.01230676
-0.001112668
-0.0003271375
-0.01247238
-0.00147284
-8.284843e-05
-0.0127078
-0.001670522
-3.746848e-05
-0.01297766
-0.001839246
-1.145883e-05
-0.01307778
-0.001762717
2.075529e-06
-0.01309811
-0.001726986
7.251078e-06
-0.001603943
3.825989e-06
-0.01303399
-0.01286055
-0.0006489277
-0.001058493
0.003225275
0.003208427
0.003694817
0.003709271
-0.01263282
-0.0009971237
-0.0003432759
-0.01269757
-0.001320423
-8.766782e-05
-0.01281165
-0.001519233
-3.720856e-05
-0.01295557
-0.001690416
-4.904406e-06
-0.01301099
-0.001706557
-7.417367e-07
-0.01301666
-0.001726832
5.515319e-06
-0.001683286
1.169342e-06
-0.01293849
-0.01319915
-0.0005996898
-0.001108609
0.003322916
0.003307219
0.003806781
0.003821606
-0.01292157
-0.000928314
-0.0003463903
-0.01291912
-0.001235739
-8.713354e-05
-0.01295607
-0.001445529
-3.675043e-05
-0.01301792
-0.001622021
-6.547273e-06
-0.01301573
-0.001707699
-1.049095e-06
-0.01297443
-0.001772164
4.031548e-06
-0.001781924
4.308127e-06
-0.0128801
-0.0135449
-0.0005782907
-0.0011254
0.003412647
0.0033985
0.003910887
0.00392687
-0.013209
-0.0009031661
-0.0003610548
-0.01315418
-0.001202469
-8.809078e-05
-0.01313125
-0.001431617
-3.68353e-05
-0.01312169
-0.001624247
-7.339476e-06
-0.01307543
-0.001752285
-1.67156e-06
-0.01300112
-0.001850841
4.370124e-06
-0.001903792
3.280818e-06
-0.01288254
-0.01387397
-0.0005839978
-0.001150717
0.003501207
0.003486996
0.004012786
0.004029403
-0.01349189
-0.0009146872
-0.0003705566
-0.01338496
-0.00121826
-9.114349e-05
-0.01331657
-0.001463762
-3.624035e-05
-0.01325939
-0.00167531
-6.121953e-06
-0.01316943
-0.001839768
-2.476038e-06
-0.0130585
-0.001966204
4.437867e-06
-0.002053618
3.152873e-06
-0.01291183
-0.01421066
-0.0006085424
-0.00117841
0.003590253
0.003575389
0.004115255
0.004132715
-0.01378939
-0.0009557028
-0.0003802502
-0.01364723
-0.001268751
-9.166631e-05
-0.01353293
-0.001541411
-3.665088e-05
-0.01342599
-0.001776176
-6.078566e-06
-0.01329843
-0.001965843
-1.481781e-06
-0.01314995
-0.002118927
4.243209e-06
-0.002232437
3.831696e-06
-0.01297497
-0.01456205
-0.0006503203
-0.001209924
0.00368363
0.003667248
0.004222457
0.004240417
-0.01410461
-0.001023537
-0.0003896012
-0.01391924
-0.00135794
-9.618188e-05
-0.0137706
-0.001654945
-3.510672e-05
-0.01362717
-0.001913218
-6.392363e-06
-0.01345598
-0.002134725
-2.309857e-06
-0.01326717
-0.002311875
4.137172e-06
-0.00244467
3.78019e-06
-0.01305871
-0.01493921
-0.0007088927
-0.001243254
0.00378337
0.003764955
0.004337101
0.004355613
-0.0144456
-0.00111825
-0.0003988996
-0.01422411
-0.001480765
-9.866017e-05
-0.01403386
-0.001808205
-3.699162e-05
-0.01384367
-0.002097417
-5.99065e-06
-0.01363128
-0.00234528
-1.834004e-06
-0.01340307
-0.00254417
4.079335e-06
-0.00269262
4.195093e-06
-0.01315931
-0.0153514
-0.0007865021
-0.001278526
0.003892331
0.003871261
0.004462406
0.004481534
-0.01481916
-0.001241764
-0.0004087276
-0.01455787
-0.001640219
-0.0001018262
-0.01432274
-0.002004852
-3.848973e-05
-0.01408536
-0.002328706
-6.092561e-06
-0.01382717
-0.002602099
-1.370236e-06
-0.01355476
-0.002821155
4.575667e-06
-0.002981248
4.489092e-06
-0.01327062
-0.01580818
-0.0008840694
-0.001317852
0.004012986
0.003988548
0.004601101
0.004620968
-0.01523347
-0.001396334
-0.0004201407
-0.01492683
-0.001840541
-0.0001063208
-0.01464204
-0.002250196
-3.944167e-05
-0.01435169
-0.002612844
-6.214549e-06
-0.01404161
-0.002911256
-9.285141e-07
-0.01371854
-0.003149125
4.899459e-06
-0.003317279
4.629966e-06
-0.01338714
-0.01631953
-0.001004626
-0.001362078
0.004148294
0.004119766
0.004756644
0.00477746
-0.01569745
-0.001586317
-0.0004320982
-0.01533856
-0.002088446
-0.0001109811
-0.01499816
-0.00255078
-3.981956e-05
-0.01464966
-0.002955966
-5.372885e-06
-0.01427724
-0.003282681
-9.974911e-07
-0.01389206
-0.003539781
5.475688e-06
-0.003710911
4.845431e-06
-0.01350327
-0.01689724
-0.001151983
-0.001412324
0.004301453
0.004267877
0.00493279
0.004954801
-0.01622065
-0.001817062
-0.0004458387
-0.01580373
-0.002390573
-0.0001147996
-0.0153997
-0.002913
-4.180848e-05
-0.01498061
-0.003368836
-6.218134e-06
-0.01453145
-0.003730461
-1.38234e-06
-0.01406977
-0.004006893
5.426555e-06
-0.004174884
4.70689e-06
-0.0136105
-0.0175551
-0.001471586
0.004476413
0.004436473
0.005133962
0.005157372
-0.001329515
-0.01681768
-0.0004588365
-0.002095649
-0.0163354
-0.0001176063
-0.002755243
-0.01585534
-4.216029e-05
-0.003350906
-0.01534875
-5.811097e-06
-0.003869607
-0.01480508
-5.920324e-07
-0.004273542
-0.01424756
6.17388e-06
-0.004570588
5.242113e-06
-0.00472759
-0.0137001
-1.758206e-06
0.0002397403
-0.0009644858
-8.291768e-05
9.335324e-06
0.0002804036
0.0002382448
0.0002814377
-0.003383125
-0.000479305
-7.384885e-05
0.0001406713
-0.0001720514
6.230923e-05
-1.906701e-05
0.0008480415
0.001103672
0.0008810979
0.001091605
-0.002695133
-0.0006958678
3.138601e-05
0.0001751342
-0.0001489907
-4.963086e-06
-4.469028e-05
-0.002056598
-0.0006846213
-4.684088e-05
0.0001691554
-0.0001011912
3.599829e-05
-1.10355e-05
-0.001423608
-0.0006699038
-2.001603e-05
0.0001242224
-6.971547e-05
1.73464e-05
-1.492392e-05
-0.0009603899
-0.0004931709
-1.619803e-05
8.594019e-05
-4.657072e-05
1.88952e-05
-1.211351e-05
-0.0006176819
-0.0003578343
-1.07753e-05
5.590903e-05
-3.109436e-05
1.05801e-05
-9.493185e-06
-0.0002326116
-3.862682e-06
3.529171e-05
-2.072482e-05
5.587797e-06
-7.63008e-06
-0.0003937322
4.697071e-05
5.044537e-05
-0.00120507
-5.284519e-05
-3.766312e-05
-9.382193e-06
7.159144e-05
-8.920825e-06
-1.178111e-07
7.706204e-05
3.626686e-06
-0.004480758
-0.0006916847
-0.0001482232
0.0001102265
3.105647e-05
9.533839e-05
2.445939e-05
0.001208517
0.001223794
0.001179312
0.001183146
-0.003981512
-0.0010168
7.788193e-06
-0.003261996
-0.001433375
-4.004711e-05
-0.002363521
-0.001625511
-2.838808e-05
-0.001581168
-0.001486914
-3.263772e-05
-0.001007037
-0.001100959
-2.659477e-05
-0.000623218
-0.0007577999
-1.725214e-05
-0.0004841362
-8.190317e-06
-0.0003841706
9.32925e-05
5.199177e-05
-0.001282943
-4.735319e-05
-0.0001394259
-6.044481e-06
9.31518e-05
-3.457288e-06
-0.005019059
-0.001011052
-0.0001446687
0.001288913
0.001301761
0.001276406
0.001276007
-0.004335814
-0.001705324
-0.0001300401
-0.003437971
-0.002328728
-3.972567e-05
-0.002289175
-0.002778062
-3.994756e-05
-0.00125818
-0.002509012
-2.010723e-05
-0.0006635496
-0.001682941
4.040034e-07
-0.0003522304
-0.001074579
-1.098937e-05
-0.0006474757
-7.325847e-06
-0.0001896971
0.0001052771
4.31773e-05
-0.001440266
-4.848034e-05
-0.0001777534
-7.534784e-06
0.000105296
-4.249114e-06
-0.005635145
-0.001408441
-0.000204239
0.001448495
0.001471146
0.001433154
0.001441048
-0.00486282
-0.002448656
-0.0001162418
-0.003698201
-0.003462728
-2.445344e-06
-0.002056717
-0.004334356
4.493155e-05
-0.0007152061
-0.0009897945
4.474952e-05
-0.0008900758
-0.0009869199
-0.0009073929
-9.098058e-05
-0.002263538
1.761695e-05
8.569921e-05
-0.00123154
1.474406e-05
-0.0006716855
1.955334e-05
9.793088e-05
0.000120133
5.800457e-05
-0.001656576
-6.499339e-05
-0.0002044238
-9.054566e-06
0.0001199639
-4.704039e-06
-0.00662181
-0.001771364
-0.000225941
0.001673587
0.001705142
0.001656639
0.00167213
-0.005820403
-0.003210987
-0.0001329382
-0.004440623
-0.004736189
8.596905e-05
-0.0004261626
-0.001613691
0.0001143354
-0.0005207451
-0.0004305387
-0.000504725
-0.001732479
-0.001628374
-0.001748962
-2.314875e-05
-7.296271e-05
-0.001342121
2.227569e-05
0.001062175
-0.0006242837
0.000151933
-0.0004103542
-0.0006294759
-0.0004057292
-2.872564e-05
3.097072e-05
-0.0001200483
-5.185033e-05
-0.0001360789
-0.0004825285
-0.0001335836
-0.0004859577
0.0006544354
-0.0002323016
4.293866e-05
-0.0001656608
-0.0002333479
-0.0001529174
-0.0001224744
9.797075e-06
-8.757849e-05
-0.0001181028
-8.708562e-05
0.0004335027
0.0001378289
7.430471e-05
-0.001938576
-7.803609e-05
-0.0002320408
-1.035878e-05
0.0001377614
-5.301396e-06
-0.008054004
-0.001977928
-0.0002707247
0.001978311
0.002019185
0.001959447
0.001980781
-0.007656273
-0.003529931
-0.0001359884
-0.001486529
-0.005529225
0.0001286562
-0.001887683
-0.001457882
-0.001896744
-4.176643e-05
-0.001114861
-0.001991179
4.758673e-05
-4.933549e-05
5.916001e-05
0.001999313
0.0005426869
0.0002299755
0.0001618867
0.0002328797
0.0001560325
-0.0008763693
-0.0007956567
-0.0008803657
-0.0007802068
1.956651e-05
-0.000244565
0.0008426665
-7.767976e-06
-8.361209e-05
-3.477816e-05
-7.84359e-05
-2.936646e-05
-0.0003851148
-0.0002417128
-0.0003811632
2.204221e-06
-0.0005729088
0.0003874414
-4.968878e-05
6.505547e-07
-2.034237e-06
-0.0002904589
0.0001992338
-3.928087e-05
1.006589e-05
0.0001566978
8.447912e-05
-0.002260226
-8.026042e-05
-0.0002629367
-1.143055e-05
0.0001569904
-6.22877e-06
-0.009838846
-0.001874588
-0.0003277992
0.002332975
0.002379726
0.002311889
0.0023365
-0.01006654
-0.003219546
-0.0001895836
-0.002369226
-0.005013888
0.0001403907
-0.002897374
-0.002354116
-0.002822274
-1.619576e-05
0.002170397
-0.002478907
-0.002070154
2.56339e-05
-1.343862e-05
0.0009687127
0.0007298171
-0.0009076567
-0.0007860084
8.573964e-06
-0.002679367
-8.644539e-05
0.0001342025
0.000332911
-8.230063e-05
0.001162503
0.001218496
0.002517538
-0.002401384
-0.0001100527
-7.952348e-05
0.0001670803
-9.365795e-05
0.0001724396
7.922501e-05
-0.002551372
-7.445072e-05
-0.000289476
-1.415423e-05
0.0001736463
-8.488964e-06
-0.01124576
-0.001625416
-0.0003816537
0.002636424
0.002691369
0.002613273
0.002633195
-0.01170135
-0.002669842
-0.000272882
-0.01266454
-0.003957982
-8.999059e-06
-0.01474242
-0.004846317
-1.885453e-05
0.001808303
0.001692663
0.00175431
0.001645736
-0.0178257
-0.005461734
-6.080704e-05
0.002186505
0.002014212
0.002156165
0.002051512
-0.01873361
-0.003480327
8.936078e-05
0.001403576
0.000652171
0.001512574
0.0006393152
-0.01772808
-0.002148282
-0.0001001998
0.0004826212
0.0001549877
0.0004083667
4.418753e-05
-0.001537985
0.0002105324
0.0003270396
7.851625e-05
0.0002426919
0.0001183616
-0.01718065
0.0001853535
6.968738e-05
-0.002802992
-6.42765e-05
-0.0003092768
-1.593265e-05
0.0001878063
-9.923204e-06
-0.01225314
-0.001365737
-0.0004430477
0.002892333
0.002942778
0.002866611
0.002879812
-0.01264793
-0.002184955
-0.0003430222
-0.01348708
-0.003086666
-7.243409e-05
-0.01473981
-0.003575162
-3.560074e-05
-0.01628826
-0.003955578
-2.510921e-05
-0.01695248
-0.002839373
-4.539931e-05
-0.01692131
-0.002206714
1.736314e-05
-0.001677064
-0.0001793657
-0.01670137
0.0001959413
5.802952e-05
-0.003012874
-5.475243e-05
-0.0003264894
-1.728623e-05
0.0001992929
-1.140242e-05
-0.01310842
-0.001135375
-0.0004861655
0.003101359
0.003151951
0.003072247
0.003082258
-0.01340527
-0.001783114
-0.0003973725
-0.01398389
-0.002443566
-0.0001351376
-0.01474566
-0.002773213
-6.877225e-05
-0.01566678
-0.003018857
-3.394092e-05
-0.01600897
-0.002471058
-1.512545e-05
-0.01603249
-0.002155534
-1.659474e-05
-0.001765909
1.763798e-05
-0.01594327
0.0002047194
4.8679e-05
-0.003185227
-4.622227e-05
-0.0003392144
-1.78344e-05
0.0002088664
-1.19416e-05
-0.01372535
-0.0009490838
-0.000524073
0.003275124
0.003322739
0.003243713
0.003253081
-0.01390048
-0.001492746
-0.0004335866
-0.01426287
-0.001997886
-0.0001633419
-0.01471549
-0.002273548
-8.475066e-05
-0.01523246
-0.002488518
-1.238778e-05
-0.0154881
-0.002207222
-1.01905e-05
-0.01558312
-0.002062324
1.178542e-05
-0.001819721
-2.701016e-05
-0.01550768
0.0002117331
4.073813e-05
-0.003326077
-3.990841e-05
-0.0003510438
-1.85871e-05
0.0002163894
-1.310009e-05
-0.01427625
-0.0008216828
-0.0005563665
0.003415541
0.003465762
0.003383525
0.003390772
-0.01435214
-0.001286351
-0.0004576441
-0.01454596
-0.00170627
-0.00018064
-0.01479965
-0.001956206
-0.0001011179
-0.0151192
-0.002150232
-3.0196e-05
-0.01524599
-0.002069602
-8.756826e-06
-0.0152813
-0.002021729
1.966283e-06
-0.001883674
4.535184e-06
-0.01521806
0.0002181825
3.539385e-05
-0.003449606
-3.515825e-05
-0.0003595937
-1.86047e-05
0.0002233072
-1.308319e-05
-0.0147406
-0.0007226852
-0.0005708273
0.003541753
0.003589239
0.003508285
0.003514655
-0.01473825
-0.001157701
-0.0004742726
-0.01480457
-0.001537616
-0.0001899998
-0.01491897
-0.001774933
-0.0001040823
-0.01507541
-0.001968879
-2.981462e-05
-0.01513897
-0.001994965
-1.182494e-05
-0.01514994
-0.002013675
8.43573e-06
-0.001965483
-3.649725e-06
-0.01506331
0.0002235309
3.165206e-05
-0.003557654
-3.275614e-05
-0.0003694501
-1.903461e-05
0.0002289802
-1.391066e-05
-0.01513861
-0.0006757139
-0.0005948925
0.003647486
0.003697409
0.003613614
0.00361941
-0.01507634
-0.001075183
-0.000491173
-0.01506696
-0.001437995
-0.0001961331
-0.01508728
-0.001684181
-0.0001071899
-0.01514238
-0.001887206
-3.311858e-05
-0.01513481
-0.001992613
-1.097542e-05
-0.0150884
-0.002063429
7.379539e-06
-0.002075175
9.055936e-06
-0.01498346
0.0002288801
2.967419e-05
-0.00365986
-3.13284e-05
-0.0003774441
-1.90936e-05
0.0002346225
-1.395401e-05
-0.0155322
-0.000648452
-0.0006109574
0.003751496
0.003800465
0.003716733
0.003721802
-0.0154164
-0.001046335
-0.0005057023
-0.01534069
-0.001401741
-0.0002000563
-0.01528851
-0.001664532
-0.0001086637
-0.01525733
-0.001891618
-3.410742e-05
-0.01519877
-0.002041568
-1.127342e-05
-0.01511241
-0.002153003
7.58178e-06
-0.002215004
7.948783e-06
-0.01497725
0.0002338366
2.868803e-05
-0.003757235
-3.122404e-05
-0.0003850049
-1.939396e-05
0.0002398031
-1.443819e-05
-0.01590274
-0.0006499602
-0.0006269383
0.003849122
0.003899325
0.003813462
0.003818556
-0.01574518
-0.001054419
-0.0005200281
-0.01561248
-0.001420136
-0.00020545
-0.01549959
-0.001700986
-0.0001126802
-0.0154111
-0.001950669
-3.555442e-05
-0.01530291
-0.002141631
-1.060376e-05
-0.01517301
-0.002286881
8.417731e-06
-0.002387963
8.996676e-06
-0.0150059
0.0002388439
2.9015e-05
-0.003854427
-3.212266e-05
-0.0003921916
-1.963154e-05
0.0002450143
-1.474246e-05
-0.01629064
-0.0006731866
-0.0006430159
0.003948619
0.00399995
0.003912271
0.003917635
-0.01609356
-0.001099183
-0.0005325667
-0.01592021
-0.001478592
-0.0002065562
-0.01575557
-0.001788924
-0.0001133589
-0.01560789
-0.002066675
-3.775559e-05
-0.01545267
-0.002288358
-9.973406e-06
-0.0152783
-0.00246462
7.61459e-06
-0.002595726
9.85856e-06
-0.01507656
0.0002440002
3.043284e-05
-0.003954081
-3.405376e-05
-0.0003998221
-1.989616e-05
0.0002503568
-1.505372e-05
-0.01668892
-0.0007190154
-0.0006616531
0.004050284
0.004103513
0.004013177
0.004019508
-0.01645697
-0.001174742
-0.0005459981
-0.01623867
-0.001580125
-0.0002129457
-0.01602431
-0.001921951
-0.0001164424
-0.01583048
-0.00222907
-3.783091e-05
-0.01562975
-0.002482146
-9.244891e-06
-0.01541099
-0.002687729
8.485178e-06
-0.002841727
1.057856e-05
-0.01517179
0.0002495171
3.297188e-05
-0.004059692
-3.686355e-05
-0.0004074693
-2.011062e-05
0.0002560708
-1.518621e-05
-0.01712379
-0.000783323
-0.0006819237
0.00415985
0.004214923
0.004122262
0.004129734
-0.01685578
-0.001282199
-0.0005594566
-0.01659575
-0.0017217
-0.0002171092
-0.01633355
-0.002102418
-0.0001187232
-0.01608499
-0.002444174
-3.944936e-05
-0.01583388
-0.002725836
-9.256887e-06
-0.01556877
-0.002957186
8.42985e-06
-0.00312965
1.097837e-05
-0.01528763
0.0002554936
3.65881e-05
-0.004174173
-4.064433e-05
-0.0004155288
-2.03504e-05
0.0002622378
-1.531061e-05
-0.01759573
-0.0008686329
-0.0007033363
0.004278997
0.004336267
0.004240831
0.004249758
-0.0172891
-0.001423106
-0.0005744514
-0.01698125
-0.001907815
-0.000223568
-0.0166706
-0.002331167
-0.0001203907
-0.01637137
-0.002711771
-3.772304e-05
-0.01606337
-0.003024929
-1.027892e-05
-0.01574528
-0.003279323
8.626031e-06
-0.003465325
1.12744e-05
-0.01541639
0.0002620617
4.133834e-05
-0.004300408
-4.547887e-05
-0.0004243171
-2.060462e-05
0.0002689888
-1.544022e-05
-0.01811744
-0.000978163
-0.0007266998
0.004410666
0.004470628
0.004371837
0.004382683
-0.01776941
-0.001599418
-0.000591857
-0.01741419
-0.002139322
-0.0002300352
-0.01704542
-0.002615395
-0.0001239825
-0.01668279
-0.003042024
-3.859339e-05
-0.01631309
-0.003385276
-1.028393e-05
-0.01593525
-0.003661264
9.005276e-06
-0.003856232
1.150608e-05
-0.01555122
0.0002693586
4.741159e-05
-0.004441909
-5.155076e-05
-0.0004339937
-2.088281e-05
0.000276444
-1.563227e-05
-0.01870392
-0.001114389
-0.0007534055
0.004558539
0.004621792
0.004518873
0.004532269
-0.01830785
-0.001816848
-0.0006107398
-0.0178953
-0.002424811
-0.0002380415
-0.01745926
-0.002965951
-0.0001253033
-0.01702874
-0.003441758
-3.61542e-05
-0.01658641
-0.003817852
-1.075289e-05
-0.0161363
-0.00411619
1.028578e-05
-0.004314264
1.224446e-05
-0.01568566
0.000277553
5.497277e-05
-0.00460308
-5.919431e-05
-0.0004447452
-2.120218e-05
0.0002847587
-1.596467e-05
-0.01936912
-0.001280351
-0.0007851565
0.004726673
0.004792975
0.004685836
0.004702426
-0.01891573
-0.0020816
-0.0006344775
-0.01843564
-0.002773919
-0.000245775
-0.01792328
-0.003389658
-0.000130462
-0.01741249
-0.003921731
-3.703271e-05
-0.01688094
-0.004339212
-1.158015e-05
-0.01634225
-0.004659924
1.047943e-05
-0.004854376
1.247612e-05
-0.01580991
-0.00498837
6.805187e-05
-0.0002129562
0.004900002
4.649752e-05
0.0001867751
-0.02013176
-0.0008192268
-0.001481553
0.004897031
0.004918761
0.004876437
-0.01961331
-0.0006571045
-0.002401778
-0.01905569
-0.0002520158
-0.003197128
-0.01845343
-0.0001318671
-0.003902216
-0.01784152
-3.491539e-05
-0.004504537
-0.01719962
-9.488979e-06
-0.004972215
-0.01654956
1.297558e-05
-0.005316785
1.468966e-05
-0.005498701
-0.01591468
0.0002372538
3.582598e-06
-0.0009463278
-9.170765e-05
-8.575435e-07
0.0002764862
0.0002376816
0.0002838889
-0.003412234
-0.0005514521
-5.184986e-05
0.0008832886
0.00109141
0.0008834888
0.0010835
-0.00270174
-0.0006956143
1.650562e-05
-0.002067093
-0.0006716102
-9.877629e-06
-0.001429437
-0.0006518093
-5.863289e-06
-0.0009616143
-0.0004780864
-5.934065e-06
-0.0006198721
-0.0003469349
-5.58267e-06
-0.0002267171
-2.369851e-06
-0.0003946478
9.250285e-05
2.860422e-05
-0.001194274
-0.0001553656
-1.672274e-05
8.775267e-06
9.174776e-05
7.076539e-06
-0.00441415
-0.0007069083
-7.794526e-05
0.0001237134
4.595472e-05
0.0001283832
4.491063e-05
0.001167368
0.00119797
0.001160885
0.001181595
-0.003918942
-0.00105717
1.829778e-05
-0.003241538
-0.00138727
-2.579569e-05
-0.002342912
-0.00158496
-1.366469e-05
-0.001569331
-0.001436814
-2.121408e-05
-0.001002236
-0.001056166
-1.561059e-05
-0.0006227753
-0.0007303784
-1.32691e-05
-0.0004671326
-5.183096e-06
-0.0003853671
-0.005102044
-0.0003961772
-8.559235e-05
0.0002030565
-6.026032e-05
0.0003013226
-5.755047e-05
0.000235619
2.451053e-05
0.0003367956
2.989815e-05
-0.004886905
-0.000999664
-6.705231e-05
-0.00428157
-0.00171615
-7.639436e-05
-0.003415365
-0.002267536
-2.566423e-05
-0.00229301
-0.002724973
-2.228994e-05
-0.001263171
-0.002473873
-1.288751e-05
-0.0006696495
-0.001640663
-8.619928e-06
-0.0003614217
-0.001037837
-1.175823e-05
-0.000635534
-5.101402e-06
-0.0001952447
-0.005763692
-0.0004274805
-0.0001529751
0.0003743157
-6.082544e-05
0.0003650754
-6.143471e-05
-0.005485003
-0.001382087
-0.000100504
-0.004794935
-0.002442034
-8.042559e-05
-0.003689636
-0.003374844
-4.369852e-07
-0.002086627
-0.004323243
4.019313e-05
-0.0007560231
-0.0009970795
3.988871e-05
-0.0009028018
-0.0009906253
-0.00090911
-0.0001312364
-0.002269908
2.207538e-05
7.037718e-05
-0.001228476
3.769382e-06
-0.0006486712
1.340057e-05
8.966714e-05
-0.00667846
-0.0005252578
-0.0002154722
0.000446078
-6.050656e-05
0.0004233583
-6.240083e-05
-0.006438166
-0.001740957
-0.000107366
-0.00571849
-0.003211416
-8.323073e-05
-0.004413675
-0.00466359
6.990008e-05
-0.0004495798
-0.001644474
8.85885e-05
-0.0005240815
-0.0004415812
-0.0005157308
-0.001753555
-0.001638963
-0.001743207
-2.640618e-05
-9.1979e-05
-0.001340587
1.23129e-05
0.001067191
-0.0006194031
5.139067e-05
-0.0004030934
-0.0006201061
-0.0004073802
-0.000129402
-0.0004683768
-0.0001215468
-0.0004672489
0.0006567155
-0.0002507227
3.920293e-05
-0.0001668758
-0.0002485583
-0.0001481078
-0.0004190771
2.55748e-06
0.0004343611
-0.007900391
-0.0005709168
-0.0002457982
0.0005142826
-7.23987e-05
0.0004867942
-7.034e-05
-0.007820929
-0.001965484
-0.0001256593
-0.007564396
-0.003522985
-8.095207e-05
-0.001491353
-0.005513081
9.529416e-05
-0.0018442
-0.001466488
-0.0018795
-5.088469e-05
-0.001109352
-0.002006914
3.132373e-05
-3.850054e-05
3.106664e-05
0.001970418
0.0005247459
0.0002245896
0.0001619776
0.000231828
0.000155534
-0.0008497595
-0.0007801558
-0.0008588579
-0.0007728862
-0.0002391876
1.751878e-06
0.0008453122
-1.804036e-06
-8.252709e-05
-8.131798e-05
-3.770881e-05
-2.987019e-05
-0.0003797563
-0.00023536
-0.0003789352
-0.0005742604
7.217576e-06
0.0003825738
-5.890467e-05
-7.348877e-06
5.061522e-06
-1.484853e-05
1.671056e-05
-1.461743e-05
1.338755e-05
-0.0002984977
-0.000134254
-0.0002866104
-0.0001397084
0.0004342998
-0.009274205
-0.0005391984
-0.0002837408
0.0005896976
-7.723584e-05
0.0005611026
-7.273181e-05
-0.009548696
-0.001872193
-0.0001465983
-0.009936092
-0.00321102
-0.0001141517
-0.002341363
-0.005073146
9.631406e-05
-0.002856266
-0.002326928
-0.002807394
-3.986876e-05
0.002149449
-0.002448776
-0.002022434
2.026794e-05
-1.601608e-05
0.0009514213
0.00071548
-0.0008898005
-0.0007697238
8.639225e-06
-8.000514e-05
-0.00236605
-0.0001075366
2.460435e-05
0.001261421
0.001267567
-0.001275369
-7.416154e-05
0.0001798523
-0.0003103055
0.0001585239
-8.174125e-05
0.002004612
0.004339359
0.002026214
0.004287225
-0.01125421
-0.01051459
-0.000478584
-0.0003147921
0.0006534675
-7.692918e-05
0.0006263455
-7.574164e-05
-0.01095054
-0.001636521
-0.0001813799
-0.0115867
-0.002676321
-0.0001714177
-0.01259831
-0.004075195
4.664833e-06
-0.0145303
-0.0048968
-3.92995e-06
0.00177543
0.001660071
0.001739839
0.001638524
-0.01744054
-0.005570887
-5.771653e-05
0.002174411
0.002070382
0.002162192
0.002071052
-0.01819114
-0.003684083
2.97417e-05
0.001520328
0.0007168011
0.001526605
0.0007305609
-0.01716567
-0.002316932
-0.0001313972
0.0005649571
9.683939e-05
0.0005529183
0.000107948
-0.001332186
0.0001860558
-0.01708438
-0.01151699
-0.000410265
-0.0003468398
0.0007041424
-7.919882e-05
0.0006811385
-7.431082e-05
-0.01199236
-0.001386786
-0.0002174131
-0.01257533
-0.002200895
-0.0002354789
-0.01347354
-0.003167603
-8.181617e-05
-0.01472221
-0.003658837
-2.489065e-05
-0.01624286
-0.004072796
-2.55484e-06
-0.01703948
-0.002943141
1.027785e-05
-0.01705326
-0.002329492
4.370971e-05
-0.00174297
-9.974677e-05
-0.0167221
-0.01236953
-0.0003490199
-0.0003942168
0.0007474455
-7.774224e-05
0.0007276121
-7.26943e-05
-0.01284752
-0.001152959
-0.0002420051
-0.01336266
-0.001795887
-0.0002872372
-0.01401413
-0.002496048
-0.0001552265
-0.01484432
-0.002830356
-6.706248e-05
-0.01579635
-0.003111653
-4.305168e-05
-0.0161771
-0.002547397
-3.011615e-05
-0.01626812
-0.00222571
-2.936364e-05
-0.001749209
1.645369e-05
-0.01626069
-0.01305017
-0.0002899105
-0.0004158855
0.0007816624
-7.793056e-05
0.0007658548
-7.089107e-05
-0.0134887
-0.0009652644
-0.0002732334
-0.01389121
-0.001509924
-0.0003170395
-0.01432256
-0.002040619
-0.0001874187
-0.01482273
-0.002321875
-9.306727e-05
-0.01537744
-0.002548264
-2.106569e-05
-0.01567157
-0.002257855
-5.600914e-06
-0.01578674
-0.002108199
9.443673e-06
-0.00182679
-1.260394e-05
-0.01572357
-0.01359062
-0.0002534021
-0.0004413357
0.0008103417
-7.752193e-05
0.0007964922
-7.180254e-05
-0.01400707
-0.0008220442
-0.0002831353
-0.01434262
-0.001290873
-0.0003411492
-0.01461033
-0.001742715
-0.0002108336
-0.01492828
-0.001993021
-0.0001120188
-0.01526869
-0.002196912
-4.113821e-05
-0.01542109
-0.002104236
-9.971453e-06
-0.01546988
-0.002062622
5.178897e-06
-0.001887998
1.10945e-05
-0.01541524
-0.01410699
-0.0002281669
-0.0004526496
0.000833971
-7.999634e-05
0.0008217566
-7.331886e-05
-0.0144589
-0.0007343826
-0.0003065835
-0.01470686
-0.001154081
-0.0003631022
-0.01486584
-0.001554916
-0.0002188232
-0.01504042
-0.001804941
-0.0001175737
-0.01522327
-0.002004977
-3.89018e-05
-0.01530828
-0.00202226
-8.794899e-06
-0.01533138
-0.002043514
1.243169e-05
-0.001983886
3.955818e-06
-0.0152431
-0.01452929
-0.0002125021
-0.0004753443
0.0008574465
-7.794885e-05
0.0008454987
-7.273666e-05
-0.01486476
-0.0006809161
-0.0003128932
-0.01506004
-0.001076078
-0.0003738959
-0.01513029