/*--------------------------------*- C++ -*----------------------------------*\
  =========                 |
  \\      /  F ield         | OpenFOAM: The Open Source CFD Toolbox
   \\    /   O peration     | Website:  https://openfoam.org
    \\  /    A nd           | Version:  7
     \\/     M anipulation  |
\*---------------------------------------------------------------------------*/
FoamFile
{
    version     2.0;
    format      ascii;
    class       volVectorField;
    location    "0.1";
    object      U;
}
// * * * * * * * * * * * * * * * * * * * * * * * * * * * * * * * * * * * * * //

dimensions      [0 1 -1 0 0 0 0];

internalField   nonuniform List<vector> 
76598
(
(-0.1210607 -0.004898401 9.420845e-05)
(-0.1185606 -0.002575636 -0.00137361)
(-0.1055146 -0.00286056 -0.0009837614)
(-0.08764194 -0.002956886 -0.000934309)
(-0.06647614 -0.002704403 -0.0007704332)
(-0.04606725 -0.002044896 -0.0005152582)
(-0.0299217 -0.001326827 -0.0003640039)
(-0.01925948 -0.0008996579 -0.0001928719)
(-0.1146164 -0.01160667 -0.003598231)
(-0.1014225 -0.01884221 -7.93402e-05)
(-0.08711909 -0.02560281 -0.0007080338)
(-0.06637641 -0.02931344 -0.001297039)
(-0.044823 -0.02794148 -0.001156675)
(-0.0293192 -0.02104447 -0.001133654)
(-0.0183839 -0.01467402 -0.0005465763)
(-0.01104719 -0.009581231 -0.0003397439)
(-0.1260666 -0.01905442 -0.004602291)
(-0.1118553 -0.03284975 -0.001544121)
(-0.09388841 -0.04198864 -0.0004084702)
(-0.06973526 -0.0499618 -0.0008223977)
(-0.04106681 -0.04327942 -6.355655e-05)
(-0.02043998 -0.03067393 0.0004011714)
(-0.01052142 -0.02205257 -0.0003973425)
(-0.005801557 -0.01387654 -0.000129447)
(-0.1417898 -0.02912185 -0.006897831)
(-0.1258531 -0.04826018 -0.0004438689)
(-0.1056395 -0.0668244 0.0009861628)
(-0.07221221 -0.0797593 0.003428548)
(-0.02894929 -0.07704811 0.002888254)
(-0.006048375 -0.05255763 0.001731098)
(-0.0006888625 -0.02867357 0.0006859849)
(0.002086029 -0.01666659 -0.0001129285)
(-0.1648633 -0.03762576 -0.007578956)
(-0.1492373 -0.06905887 -0.0003460368)
(-0.1261509 -0.09485558 0.004710957)
(-0.08884006 -0.1285216 0.006009285)
(-0.01845716 -0.104218 0.005852635)
(0.0233238 -0.05719952 0.003976788)
(0.01996181 -0.02974283 0.001306086)
(0.01224698 -0.01582016 0.0007334829)
(-0.1973545 -0.04635096 -0.008511767)
(-0.1823363 -0.08566923 0.0008998904)
(-0.1830876 -0.1300576 0.004871696)
(-0.1231353 -0.1573737 0.01398353)
(-0.01546662 -0.2280924 0.004872395)
(0.0824814 -0.07719877 0.005851323)
(0.04065824 -0.01805293 0.0001598211)
(0.02213725 -0.009944558 0.0003947723)
(-0.2351606 -0.04848865 -0.009785662)
(-0.2306501 -0.08421547 0.0003388991)
(-0.2495362 -0.1348916 0.004199143)
(-0.2134824 -0.2001775 0.006986661)
(-0.2534314 -0.3470499 -0.007378692)
(-0.2670822 -0.04214983 -0.01130151)
(-0.2684385 -0.07130478 0.0001147138)
(-0.2934253 -0.1095592 0.003282948)
(-0.3168943 -0.1336755 -0.0001727288)
(-0.3977749 -0.145683 -0.005716536)
(-0.4379902 -0.08650093 -0.0026564)
(-0.4105834 -0.04550154 -0.002808937)
(-0.4015784 -0.02953815 -0.001950029)
(-0.2926765 -0.03593537 -0.01051504)
(-0.2949731 -0.05886137 -0.0008838353)
(-0.3149946 -0.08476726 0.0001787559)
(-0.3375588 -0.09703613 0.0003601545)
(-0.3761224 -0.104835 -0.001294981)
(-0.4023367 -0.06437524 -0.0008844461)
(-0.4009417 -0.04830888 0.000138648)
(-0.3954922 -0.03451802 0.0002417291)
(-0.3129686 -0.03027179 -0.01317645)
(-0.3156098 -0.04823506 -0.001399803)
(-0.3314728 -0.06639703 9.548777e-05)
(-0.3484113 -0.07434808 0.000115794)
(-0.3708964 -0.07764592 5.276617e-05)
(-0.3835719 -0.0625567 0.0004628705)
(-0.3845154 -0.05298811 0.0005994293)
(-0.383386 -0.04053296 0.0004986499)
(-0.3304531 -0.02473517 -0.01164227)
(-0.3300151 -0.03893146 -0.001473583)
(-0.3429361 -0.05223089 0.000341793)
(-0.3515179 -0.05931942 3.244981e-05)
(-0.3661827 -0.06567031 0.0002580274)
(-0.3750401 -0.05375941 8.231959e-05)
(-0.3776474 -0.04870727 0.0001936286)
(-0.377965 -0.04231635 0.0006180955)
(-0.3429671 -0.02155814 -0.01414326)
(-0.3422165 -0.03348667 -0.001444879)
(-0.3511606 -0.04462693 0.0003223305)
(-0.3567114 -0.05058931 0.000198628)
(-0.3667188 -0.05494381 6.82462e-05)
(-0.3716956 -0.05177806 0.0002065962)
(-0.3729315 -0.05002768 0.0002930665)
(-0.3721101 -0.04483537 9.318301e-05)
(-0.355623 -0.01834065 -0.01307664)
(-0.3523733 -0.02890254 -0.001602431)
(-0.3594527 -0.03860151 0.0003373298)
(-0.3615787 -0.04430188 0.0002414322)
(-0.3678956 -0.04956458 0.0002619823)
(-0.370192 -0.04856631 0.0001683947)
(-0.3713203 -0.04831065 0.0001279728)
(-0.3700516 -0.04645778 0.0001498886)
(-0.3653058 -0.01695267 -0.01448478)
(-0.3614114 -0.02679376 -0.00135829)
(-0.3667406 -0.03584081 0.0004314336)
(-0.3670728 -0.04183061 0.00029185)
(-0.370794 -0.04660997 0.0002359066)
(-0.3712191 -0.04855151 0.0001348333)
(-0.3708179 -0.04993976 7.783034e-05)
(-0.3686474 -0.04936632 5.859888e-05)
(-0.3756741 -0.01577233 -0.01398632)
(-0.3701834 -0.02524727 -0.001592208)
(-0.3741039 -0.03395513 0.0004364256)
(-0.3732697 -0.04034704 0.000286994)
(-0.3746411 -0.04582099 0.0002464236)
(-0.3734678 -0.04882895 0.0001041547)
(-0.3721096 -0.05116167 9.17282e-05)
(-0.3690628 -0.05222974 3.287906e-05)
(-0.3852793 -0.01573261 -0.01419853)
(-0.3787295 -0.02527715 -0.001614089)
(-0.381527 -0.03395421 0.0004230976)
(-0.3789415 -0.04088511 0.0003804914)
(-0.3795433 -0.04655958 0.0002634349)
(-0.3765936 -0.0510003 9.191474e-05)
(-0.3743738 -0.05426274 7.807498e-05)
(-0.3702221 -0.05625543 2.36747e-05)
(-0.3949582 -0.01611622 -0.01443203)
(-0.3876343 -0.0259625 -0.001657062)
(-0.3893429 -0.03483731 0.0004325326)
(-0.3861513 -0.04232435 0.0003535791)
(-0.3846352 -0.04889219 0.0003415148)
(-0.3810183 -0.05390161 0.0001053304)
(-0.3773595 -0.0578738 8.394031e-05)
(-0.37246 -0.06082942 3.359485e-05)
(-0.4049087 -0.01706275 -0.01490726)
(-0.3970348 -0.0275444 -0.001687472)
(-0.3977359 -0.03684192 0.000387102)
(-0.3931572 -0.04518546 0.0004734991)
(-0.3911755 -0.05220131 0.0002863633)
(-0.3860974 -0.05816355 8.752372e-05)
(-0.3812916 -0.06292556 7.352572e-05)
(-0.3752694 -0.06643414 2.656398e-05)
(-0.4156115 -0.01839865 -0.0153154)
(-0.4071197 -0.02978388 -0.001708859)
(-0.4068485 -0.03985133 0.0003850187)
(-0.4014136 -0.04886838 0.0004385686)
(-0.3978926 -0.05678799 0.0003412725)
(-0.3916747 -0.06352816 9.117776e-05)
(-0.3856967 -0.0689039 6.945582e-05)
(-0.3786186 -0.07294164 3.407833e-05)
(-0.4273024 -0.02025812 -0.01573769)
(-0.4181311 -0.03284037 -0.001708617)
(-0.416904 -0.04380249 0.0003905773)
(-0.4103087 -0.05384916 0.000439751)
(-0.4054617 -0.06268133 0.0003328591)
(-0.3978665 -0.07017093 0.0001163665)
(-0.39066 -0.07616135 8.548604e-05)
(-0.3823235 -0.0805633 4.106688e-05)
(-0.4402352 -0.02263079 -0.01623766)
(-0.4303471 -0.03670461 -0.001719331)
(-0.4280474 -0.0488491 0.0003633694)
(-0.4201305 -0.06005757 0.0004578303)
(-0.413827 -0.06997459 0.0003444338)
(-0.4046698 -0.07818541 0.0001343897)
(-0.3960638 -0.08470619 9.199636e-05)
(-0.3862673 -0.08940236 4.236572e-05)
(-0.4547205 -0.02558461 -0.01678364)
(-0.4440121 -0.04150005 -0.001698067)
(-0.4405487 -0.05512538 0.0003548451)
(-0.431003 -0.067791 0.0004881703)
(-0.4232283 -0.0788679 0.0003554455)
(-0.4122595 -0.0878017 0.0001470531)
(-0.4018907 -0.0948644 9.715346e-05)
(-0.3903308 -0.09972008 4.151685e-05)
(-0.4711377 -0.0291997 -0.01732154)
(-0.459397 -0.04733893 -0.001668027)
(-0.454652 -0.06284728 0.0003701189)
(-0.4433007 -0.0771324 0.0004948408)
(-0.4337718 -0.0895163 0.0003240504)
(-0.4205642 -0.09935802 0.0001408102)
(-0.4080295 -0.1069762 8.421167e-05)
(-0.3943042 -0.1118398 3.039299e-05)
(-0.4898053 -0.03362139 -0.0180326)
(-0.476935 -0.05443049 -0.001563591)
(-0.4707235 -0.07219389 0.0004183561)
(-0.4573761 -0.08837162 0.000530296)
(-0.445565 -0.1023799 0.0003265721)
(-0.4296839 -0.1133217 0.0001502738)
(-0.4143998 -0.1214834 7.901068e-05)
(-0.3979976 -0.1261517 2.270251e-05)
(-0.1187972 -0.005950794 0.002083359)
(-0.1051209 -0.006156506 -0.003330913)
(-0.0816817 -0.009069056 0.001221568)
(-0.0677726 -0.007621999 -0.002001485)
(-0.04663436 -0.007715338 -0.000392206)
(-0.03246196 -0.005813545 -0.0003092877)
(-0.02090746 -0.004272146 -9.494874e-05)
(-0.01339116 -0.002782295 7.567749e-05)
(-0.1188789 -0.002412386 -0.001739929)
(-0.1150187 -0.01398803 -0.001119355)
(-0.1020286 -0.01454341 0.002010972)
(-0.08880116 -0.02489698 0.000345765)
(-0.06738176 -0.02671868 0.000164466)
(-0.04586679 -0.02611418 7.490313e-05)
(-0.0296985 -0.01904689 -0.0001396649)
(-0.01841897 -0.01379876 0.0001144004)
(-0.01128324 -0.008957968 0.0001253681)
(-0.1318573 -0.003826041 -0.003997047)
(-0.1274608 -0.01926155 0.0009053892)
(-0.1127974 -0.0330282 -0.001046991)
(-0.09444982 -0.04338342 -4.893025e-06)
(-0.06963653 -0.05124265 -0.0008023048)
(-0.03958259 -0.04523583 -0.0001656215)
(-0.02036597 -0.03394712 0.0005983691)
(-0.01102575 -0.02262432 -1.851751e-05)
(-0.005654722 -0.01434263 -4.336661e-06)
(-0.1481016 -0.004111061 -0.003791733)
(-0.1431726 -0.02954557 0.0008198206)
(-0.1266591 -0.04831575 6.271315e-05)
(-0.106634 -0.06838597 -0.000631264)
(-0.07070411 -0.08264303 -0.001464677)
(-0.02826079 -0.07610824 -0.00195648)
(-0.00582491 -0.04719468 -0.001635319)
(0.001487389 -0.02917235 -0.0002561117)
(0.002583136 -0.01676369 -3.513385e-05)
(-0.1700507 -0.006161337 -0.004137549)
(-0.1667272 -0.0388524 0.001144)
(-0.1507218 -0.06900215 -0.001092586)
(-0.1291216 -0.09827895 -0.001465259)
(-0.08547214 -0.127307 -0.004351149)
(-0.0186379 -0.1050592 0.0001565461)
(0.03232806 -0.06232536 0.003567224)
(0.01824937 -0.02990898 -0.0006434175)
(0.01312213 -0.01530958 -0.0003634013)
(-0.1982199 -0.008035216 -0.004694229)
(-0.1996589 -0.04750235 0.0009923586)
(-0.1867464 -0.08517115 -0.0008062886)
(-0.1821675 -0.1306704 -0.003971575)
(-0.1250733 -0.1698042 0.00209207)
(-0.01785521 -0.2363408 0.0009785476)
(0.09150582 -0.0574379 -0.002732501)
(0.04178087 -0.01921241 0.0005705487)
(0.02218412 -0.009883221 -0.0002119935)
(-0.2300858 -0.009162376 -0.005249206)
(-0.2380191 -0.04881976 0.001189924)
(-0.2346905 -0.08443855 -0.0009994278)
(-0.2508216 -0.1362894 -0.001908984)
(-0.2197318 -0.2070112 -0.001932926)
(-0.2970123 -0.3382326 -0.005289818)
(-0.4854676 -0.005645767 -0.01781146)
(-0.420117 -0.0001335185 -0.02471756)
(-0.2601935 -0.008832121 -0.005644519)
(-0.2695081 -0.04282111 0.001837488)
(-0.270814 -0.07036103 -0.00121858)
(-0.2951929 -0.1069849 -0.001884526)
(-0.3194108 -0.1344693 -0.002213142)
(-0.4029117 -0.1423558 0.002125322)
(-0.4494187 -0.0821064 0.007454343)
(-0.4204811 -0.04562518 0.001127886)
(-0.4071168 -0.02996894 0.005311397)
(-0.2859046 -0.007702668 -0.005908448)
(-0.293955 -0.03620548 0.002098985)
(-0.2954195 -0.05774458 -0.001081357)
(-0.3166273 -0.08281778 -6.579648e-05)
(-0.337526 -0.09677308 -0.001114076)
(-0.3779261 -0.108738 -0.0004392682)
(-0.4024829 -0.06856228 -0.000476418)
(-0.4015344 -0.04951199 0.001252741)
(-0.3970571 -0.0357578 -0.004389198)
(-0.3079328 -0.006558439 -0.006014208)
(-0.3141767 -0.03033067 0.002353529)
(-0.3167214 -0.04696643 -0.0007667343)
(-0.3326903 -0.06549292 0.0001919145)
(-0.3472925 -0.07449087 -0.0005840485)
(-0.3712351 -0.07905977 -0.000350927)
(-0.3872521 -0.06322407 0.0005467018)
(-0.3856501 -0.05301008 0.0003780786)
(-0.3848901 -0.04123034 0.0007264744)
(-0.3252894 -0.005549377 -0.006217363)
(-0.3302671 -0.02477204 0.002500584)
(-0.3307592 -0.03858765 -0.001043383)
(-0.3432596 -0.05227312 0.0001979673)
(-0.3517831 -0.05931162 -0.0004799484)
(-0.3669645 -0.065575 0.0003491558)
(-0.3758727 -0.05464323 -8.941862e-06)
(-0.3785759 -0.04960457 0.0004051942)
(-0.3784794 -0.04275521 -0.001039783)
(-0.3400805 -0.004726105 -0.006386032)
(-0.3440785 -0.02145125 0.002447794)
(-0.3436078 -0.03292009 -0.0008519152)
(-0.3527787 -0.04401403 0.0003079591)
(-0.3570969 -0.05066882 -0.0005277467)
(-0.3674049 -0.05522334 -2.391837e-05)
(-0.3725706 -0.05217351 -8.344672e-06)
(-0.3735521 -0.05023615 -1.74308e-05)
(-0.3730756 -0.04525846 -3.892472e-05)
(-0.3522813 -0.004118734 -0.006633229)
(-0.3558184 -0.01837395 0.002533968)
(-0.3547687 -0.02900819 -0.0009815401)
(-0.3606259 -0.03859912 0.0002205683)
(-0.3624978 -0.04448624 -0.0004467605)
(-0.3685523 -0.04951532 8.981449e-05)
(-0.3707928 -0.04876698 -0.0001097722)
(-0.3717546 -0.04842407 4.858236e-05)
(-0.3705829 -0.04666897 -0.0002823085)
(-0.3637755 -0.003748294 -0.00678488)
(-0.3659917 -0.01687531 0.002595897)
(-0.3635952 -0.02655794 -0.001009727)
(-0.3682474 -0.0357173 0.00030827)
(-0.3680923 -0.04185362 -0.0004281951)
(-0.3716182 -0.04662629 5.525967e-05)
(-0.3717812 -0.04876937 -8.723708e-05)
(-0.3713474 -0.05004618 9.334014e-06)
(-0.3691158 -0.04949775 -1.703635e-05)
(-0.3740507 -0.003527961 -0.006966231)
(-0.3760436 -0.01593203 0.002472087)
(-0.3728566 -0.02526513 -0.001126998)
(-0.3755335 -0.03400302 0.000379242)
(-0.3744936 -0.04036317 -0.0003825345)
(-0.3753477 -0.04581577 -2.29841e-07)
(-0.3740927 -0.04898328 -8.426431e-05)
(-0.3726223 -0.05125991 2.358698e-06)
(-0.369543 -0.05233878 -4.796395e-05)
(-0.3840727 -0.003431303 -0.007080253)
(-0.3854544 -0.01566452 0.002514002)
(-0.3812516 -0.02507949 -0.00123892)
(-0.3831092 -0.03398778 0.0003512542)
(-0.3802599 -0.04082542 -0.0004453465)
(-0.3799832 -0.04677743 3.660629e-05)
(-0.3772512 -0.05113121 -0.0001016108)
(-0.3747786 -0.05435562 1.675629e-05)
(-0.3706847 -0.0563562 -4.292351e-05)
(-0.3939073 -0.003462135 -0.007193729)
(-0.3952469 -0.01598658 0.002509112)
(-0.3902291 -0.0257084 -0.001302743)
(-0.3910272 -0.03491845 0.000456314)
(-0.3875949 -0.0422727 -0.0003851854)
(-0.3853504 -0.04889781 -4.880989e-05)
(-0.3816672 -0.05404474 -7.069995e-05)
(-0.3778585 -0.05800452 -1.994021e-06)
(-0.372906 -0.06093258 -2.301391e-05)
(-0.4040078 -0.00360691 -0.007293436)
(-0.4051803 -0.01685225 0.002572026)
(-0.3993765 -0.02722282 -0.001346264)
(-0.3995314 -0.03688172 0.0003976393)
(-0.3946164 -0.04507721 -0.0004238898)
(-0.3914585 -0.05237589 3.264977e-06)
(-0.3866001 -0.05829981 -7.040144e-05)
(-0.3816893 -0.06304734 1.241393e-05)
(-0.3756995 -0.06654969 -1.427333e-05)
(-0.4145263 -0.003856434 -0.007407069)
(-0.4160018 -0.01819108 0.002580587)
(-0.4095064 -0.029401 -0.001362865)
(-0.408767 -0.03982637 0.0004179918)
(-0.4029303 -0.04883296 -0.0004305282)
(-0.3983865 -0.05696986 -2.419155e-05)
(-0.3922082 -0.06360908 -5.6947e-05)
(-0.3861447 -0.06901448 8.672792e-06)
(-0.3790442 -0.07304998 -5.921011e-06)
(-0.425867 -0.004211621 -0.007526477)
(-0.4277562 -0.0200044 0.002626683)
(-0.4204523 -0.03239838 -0.001398804)
(-0.4189058 -0.04380246 0.0003837116)
(-0.4115934 -0.05387813 -0.0004577074)
(-0.4062291 -0.06287765 1.84255e-05)
(-0.3984916 -0.07026565 -6.806498e-05)
(-0.3911502 -0.07628046 9.028015e-06)
(-0.3827534 -0.08068832 -3.758835e-06)
(-0.4383271 -0.004676513 -0.007656056)
(-0.4407533 -0.02235066 0.002698774)
(-0.4325539 -0.03620016 -0.001457675)
(-0.4301555 -0.04884758 0.0003408712)
(-0.421525 -0.06004689 -0.0004749547)
(-0.4146978 -0.07013114 1.91573e-05)
(-0.4053421 -0.07831453 -6.753061e-05)
(-0.3965671 -0.08485363 1.26484e-05)
(-0.3866934 -0.08954965 -3.397452e-06)
(-0.4522754 -0.005273039 -0.007795785)
(-0.4554085 -0.02536998 0.00275798)
(-0.4461146 -0.04090889 -0.001529127)
(-0.4427828 -0.05506132 0.0002757156)
(-0.4324014 -0.06777728 -0.0004715112)
(-0.4241204 -0.07907419 7.226012e-05)
(-0.4129335 -0.0879747 -9.307778e-05)
(-0.4023856 -0.09505326 2.995416e-05)
(-0.3907462 -0.09989751 -9.514622e-08)
(-0.4682694 -0.006017391 -0.007921193)
(-0.4721182 -0.02900646 0.002707976)
(-0.4614243 -0.04667476 -0.001643921)
(-0.4570032 -0.06270697 0.0002482357)
(-0.4445656 -0.07717807 -0.0005354932)
(-0.434677 -0.08973155 7.73684e-05)
(-0.4212075 -0.09955981 -0.0001179246)
(-0.40851 -0.1071997 2.999907e-05)
(-0.3946941 -0.1120476 -8.986781e-06)
(-0.4754829 -0.0215485 0.002639705)
(-0.491204 -0.03347124 0.002645543)
(-0.4790445 -0.05368793 -0.001729788)
(-0.4732036 -0.07202415 0.000248101)
(-0.458604 -0.08849624 -0.000560965)
(-0.4465185 -0.1026148 8.573132e-05)
(-0.4303204 -0.1135761 -0.0001137073)
(-0.4148745 -0.1217565 4.679115e-05)
(-0.3983645 -0.126409 1.182431e-06)
(-0.1182661 -0.006220232 -0.0007108061)
(-0.1065025 -0.007352532 -0.0006729889)
(-0.08276885 -0.009613607 0.00111783)
(-0.06888284 -0.007736454 -1.552571e-05)
(-0.04760279 -0.007673258 -8.478375e-05)
(-0.0328834 -0.005753495 -0.000122846)
(-0.02125881 -0.00434687 -0.0001519371)
(-0.0136056 -0.002784484 -5.647787e-05)
(-0.1208515 -0.005680192 -0.001854756)
(-0.1172338 -0.01522645 -0.00164129)
(-0.1003929 -0.01532539 0.001132985)
(-0.0889716 -0.02417531 -0.0004919271)
(-0.06707532 -0.02645001 -0.0001003287)
(-0.04574563 -0.02583669 -0.0003530442)
(-0.02962031 -0.01881736 -0.0002001234)
(-0.01845759 -0.01347769 -0.0002370122)
(-0.01133955 -0.008878562 -6.034643e-05)
(-0.1282841 -0.009021885 -0.001721091)
(-0.1251856 -0.01888408 -0.0005433934)
(-0.1122408 -0.03401794 -0.000953432)
(-0.09343956 -0.04231172 -9.632245e-05)
(-0.06970182 -0.05044449 -0.0002389061)
(-0.03972237 -0.04397829 -0.0001637093)
(-0.02043155 -0.0326693 -2.16315e-05)
(-0.01122546 -0.02212047 -0.0001132877)
(-0.005835821 -0.01390816 -7.140264e-05)
(-0.1456383 -0.01008871 -0.002311321)
(-0.1405692 -0.0294999 -0.001278374)
(-0.125459 -0.04815423 -0.0009881367)
(-0.1051604 -0.06684325 0.0001904314)
(-0.07160135 -0.08156631 0.0004097534)
(-0.0290292 -0.07643704 0.0003938834)
(-0.007110635 -0.04700396 0.000456229)
(0.0008700842 -0.02827504 -0.0001613441)
(0.002445364 -0.01688332 0.0003231358)
(-0.1687713 -0.0137125 -0.003617435)
(-0.1631749 -0.03804386 -0.001015585)
(-0.1495381 -0.06969812 -0.00102241)
(-0.1266588 -0.09625693 0.001173469)
(-0.08759795 -0.1292337 0.000579601)
(-0.02168009 -0.1070768 0.0004828734)
(0.03277061 -0.06394334 -6.630731e-05)
(0.01922393 -0.031428 0.0007299035)
(0.01285775 -0.01447113 -0.0001618554)
(-0.1980111 -0.01620511 -0.003907717)
(-0.1950673 -0.04746438 -0.0009794533)
(-0.1853654 -0.08584037 -0.001149988)
(-0.1816725 -0.1308201 0.001278249)
(-0.1273308 -0.1755445 0.001639122)
(-0.01602248 -0.2352606 0.0007614182)
(0.09502385 -0.05716491 -0.0005873233)
(0.0430108 -0.02209474 -0.000538509)
(0.02051936 -0.006345659 0.0004285305)
(-0.229911 -0.01615972 -0.004426738)
(-0.2317281 -0.04896978 -0.001033598)
(-0.2335215 -0.08493509 -0.001309031)
(-0.2489565 -0.1371418 0.0009373089)
(-0.2195208 -0.2043838 0.0008818723)
(-0.2970275 -0.3329977 0.001966036)
(-0.507106 -0.001984187 0.001865413)
(-0.4377724 -0.0192464 -0.007759671)
(-0.26021 -0.014566 -0.004867865)
(-0.2637293 -0.04339214 -0.001307677)
(-0.269322 -0.07064209 -0.001691215)
(-0.2941242 -0.1107481 0.0007005361)
(-0.3205014 -0.1339123 -0.0002034563)
(-0.4021932 -0.1433581 -0.0007377676)
(-0.449069 -0.08456176 0.002557194)
(-0.4171771 -0.04627069 -0.002324052)
(-0.4060286 -0.007060196 0.005955876)
(-0.2849811 -0.01254286 -0.005183777)
(-0.2888285 -0.03679275 -0.001862394)
(-0.294876 -0.05816003 -0.001911505)
(-0.314928 -0.08393686 0.0005442069)
(-0.3375817 -0.09763393 -0.0002271536)
(-0.3781564 -0.1083314 0.000877148)
(-0.4016076 -0.06704592 0.0006467966)
(-0.4066962 -0.04857348 0.001850725)
(-0.3949655 -0.03679088 -0.002274264)
(-0.3071776 -0.01075574 -0.005554531)
(-0.3089821 -0.03094866 -0.001761449)
(-0.316305 -0.04725142 -0.002307556)
(-0.3307033 -0.06655575 2.591604e-06)
(-0.347437 -0.07463539 -0.0003142598)
(-0.3714126 -0.07987212 -0.0001340635)
(-0.3866751 -0.06301374 -0.0002603955)
(-0.385427 -0.0532311 -0.000334857)
(-0.384872 -0.03707291 0.000734184)
(-0.3239471 -0.008847644 -0.005820559)
(-0.3261089 -0.02526659 -0.002086856)
(-0.3304173 -0.03868443 -0.002232258)
(-0.3420793 -0.05224932 -6.976386e-05)
(-0.3513581 -0.059425 -0.0002814581)
(-0.366439 -0.06568343 0.0004609969)
(-0.3755911 -0.0545634 2.020155e-05)
(-0.3786232 -0.04894483 0.0002363036)
(-0.3773852 -0.04217813 -0.0001767023)
(-0.338381 -0.00756296 -0.006112446)
(-0.3380891 -0.0215961 -0.002089613)
(-0.3436609 -0.03345299 -0.002450531)
(-0.3505521 -0.04473077 -0.000180797)
(-0.3573258 -0.05084068 -0.0004411625)
(-0.3668414 -0.05550741 7.355219e-05)
(-0.3723321 -0.05207348 3.085757e-05)
(-0.3735301 -0.05055322 -2.127318e-05)
(-0.3727406 -0.04398993 2.883333e-05)
(-0.3516899 -0.006694603 -0.006189628)
(-0.3508557 -0.01864258 -0.002067674)
(-0.3531749 -0.02861156 -0.002431497)
(-0.3586265 -0.03863331 -9.2014e-05)
(-0.3620578 -0.04461135 -0.0004245143)
(-0.3680108 -0.04964983 0.0001395015)
(-0.3706765 -0.04870299 -6.334429e-05)
(-0.3718775 -0.04835128 0.0001055025)
(-0.3706381 -0.04649126 -0.0002621483)
(-0.3626334 -0.006175748 -0.006461797)
(-0.3607998 -0.01711493 -0.002255516)
(-0.3629109 -0.02658975 -0.002572201)
(-0.3660971 -0.03573614 -0.0002096984)
(-0.367739 -0.04198063 -0.0004269503)
(-0.3710191 -0.04684089 6.88618e-05)
(-0.3716634 -0.04872089 -5.203516e-05)
(-0.3712166 -0.05013737 6.234771e-05)
(-0.3691163 -0.04932161 2.498538e-05)
(-0.3725474 -0.005770401 -0.006689419)
(-0.3706271 -0.01617917 -0.002231866)
(-0.3715109 -0.02521234 -0.00261029)
(-0.3733843 -0.03397322 -0.0002313114)
(-0.3734054 -0.04049651 -0.0004136268)
(-0.374693 -0.04592635 0.0001450551)
(-0.373765 -0.04890095 -6.958438e-05)
(-0.372448 -0.05125087 5.989228e-05)
(-0.3694828 -0.05226027 -3.067252e-05)
(-0.382364 -0.005683542 -0.006871066)
(-0.3796891 -0.01604212 -0.002201284)
(-0.3802157 -0.02514606 -0.002672162)
(-0.3809485 -0.03389611 -0.0002358868)
(-0.3795673 -0.0410382 -0.0004451729)
(-0.3795904 -0.0468179 7.595185e-05)
(-0.3770381 -0.05106693 -2.964091e-05)
(-0.3746349 -0.05435289 7.094481e-05)
(-0.3706291 -0.05630567 -7.048353e-06)
(-0.3927335 -0.00586536 -0.007034769)
(-0.3894756 -0.01638173 -0.002262479)
(-0.3891603 -0.02580181 -0.002731766)
(-0.3888201 -0.03482562 -0.0002112163)
(-0.3862053 -0.04252553 -0.0004342458)
(-0.3848949 -0.04901472 0.0001168268)
(-0.3813952 -0.05399732 -1.667786e-05)
(-0.3777104 -0.05798007 4.181248e-05)
(-0.3728432 -0.0609017 5.779538e-06)
(-0.4030082 -0.006197262 -0.007231041)
(-0.3991875 -0.0173113 -0.002336563)
(-0.398503 -0.02732597 -0.002813435)
(-0.3972941 -0.03686073 -0.0002296993)
(-0.3935953 -0.04529963 -0.0004465963)
(-0.3913442 -0.0523506 8.52226e-05)
(-0.3865147 -0.05826918 -3.552355e-06)
(-0.3816198 -0.06302687 5.151786e-05)
(-0.3756525 -0.06652825 1.724147e-05)
(-0.4140173 -0.006686624 -0.007425406)
(-0.4099684 -0.01866615 -0.002445329)
(-0.4085794 -0.02954091 -0.002887836)
(-0.4064529 -0.03983043 -0.0002207829)
(-0.4016571 -0.04900453 -0.0004419295)
(-0.3982837 -0.05688026 8.133654e-05)
(-0.3921074 -0.06363585 -1.272965e-05)
(-0.3860728 -0.06903401 4.545319e-05)
(-0.3789948 -0.07305036 2.019386e-05)
(-0.4260671 -0.007374227 -0.007622364)
(-0.4214755 -0.02055349 -0.002539596)
(-0.419584 -0.03256994 -0.002955521)
(-0.4164857 -0.04383425 -0.0002145303)
(-0.4106158 -0.05397337 -0.0004183339)
(-0.405771 -0.06275862 0.0001257646)
(-0.3982367 -0.07029928 -3.445716e-05)
(-0.3909988 -0.07629903 5.353773e-05)
(-0.3826853 -0.08069287 2.559413e-05)
(-0.4393176 -0.008247156 -0.007840227)
(-0.4341843 -0.02296243 -0.002660919)
(-0.4317769 -0.03640685 -0.003049193)
(-0.4276207 -0.04890502 -0.0001813947)
(-0.4206405 -0.0601608 -0.0004636957)
(-0.414234 -0.06999072 0.0001057974)
(-0.4050477 -0.07834728 -3.174283e-05)
(-0.3964101 -0.08484289 5.674535e-05)
(-0.3866192 -0.08954604 2.175349e-05)
(-0.4540647 -0.009327595 -0.008070644)
(-0.4483855 -0.02598467 -0.002782383)
(-0.4454408 -0.04120687 -0.003110545)
(-0.4400944 -0.05514914 -0.0001614537)
(-0.4318411 -0.06780936 -0.0004141137)
(-0.4234131 -0.07897869 0.0001951851)
(-0.4126799 -0.08802531 -2.829445e-05)
(-0.4021877 -0.09502619 7.917768e-05)
(-0.3906758 -0.09989348 3.155231e-05)
(-0.4707189 -0.01065401 -0.008317086)
(-0.4643319 -0.0297042 -0.00292554)
(-0.4608397 -0.04702936 -0.003277521)
(-0.454132 -0.06279292 -0.0001501603)
(-0.4441456 -0.07723325 -0.0004879421)
(-0.4338626 -0.08970472 0.0001423235)
(-0.4210006 -0.09957852 -7.832544e-05)
(-0.4082788 -0.1071636 3.356696e-05)
(-0.3946295 -0.1120323 2.89975e-06)
(-0.4896315 -0.01227212 -0.00858407)
(-0.4824583 -0.03427593 -0.003009415)
(-0.4784075 -0.05411257 -0.003317992)
(-0.4700977 -0.07211993 -8.182094e-05)
(-0.4581389 -0.08855567 -0.0004254693)
(-0.4456248 -0.1025917 0.0002140902)
(-0.4301029 -0.1135734 -4.995387e-05)
(-0.4146211 -0.1217083 5.417035e-05)
(-0.3983037 -0.1263741 2.095014e-05)
(-0.1166837 -0.006590875 -0.0005576182)
(-0.1057331 -0.006832493 -0.001590302)
(-0.08426979 -0.008837669 0.0001374677)
(-0.06873959 -0.007642667 -0.0003353666)
(-0.04742698 -0.007454507 -6.180433e-05)
(-0.03270152 -0.005641531 -8.205311e-05)
(-0.02107075 -0.00422664 -6.268919e-05)
(-0.01345927 -0.002697099 -1.686006e-05)
(-0.1203974 -0.005888071 8.408515e-05)
(-0.1182075 -0.01487098 -0.0003953111)
(-0.1003948 -0.01477153 0.001263429)
(-0.08944154 -0.02406897 0.000274159)
(-0.06708361 -0.02656038 0.0001625933)
(-0.04598877 -0.02569287 -2.343938e-05)
(-0.02965605 -0.01868562 -8.266584e-05)
(-0.01836658 -0.01360731 -6.747462e-05)
(-0.01128411 -0.008890271 3.421295e-05)
(-0.1270917 -0.008388657 0.0008789003)
(-0.1260148 -0.01800301 0.0002862394)
(-0.1124637 -0.03378612 -0.0002494475)
(-0.09360995 -0.04246036 0.0001576633)
(-0.06982051 -0.05062447 -0.0002198849)
(-0.03938476 -0.04439409 -5.878435e-05)
(-0.02046012 -0.03320337 -9.050307e-05)
(-0.01108532 -0.02253851 -0.0002259476)
(-0.005560453 -0.01400038 -4.060997e-05)
(-0.1438898 -0.008893194 0.00127858)
(-0.1408152 -0.02859135 0.0004668802)
(-0.1260467 -0.04797103 -8.308982e-05)
(-0.1059937 -0.06692419 -0.0003026332)
(-0.07146008 -0.08210058 -0.0003434155)
(-0.02919398 -0.07670432 -0.0003942113)
(-0.006234945 -0.04734839 -0.0003834814)
(0.001232486 -0.02919828 -0.0002647192)
(0.002957265 -0.0168642 -1.177554e-05)
(-0.1675038 -0.01291314 0.001437986)
(-0.1648528 -0.03715675 0.0005729959)
(-0.1503363 -0.06883403 -0.0003732315)
(-0.1280934 -0.0970669 -0.000211049)
(-0.08700577 -0.1287442 -0.0008955544)
(-0.0204333 -0.1069712 0.0001945124)
(0.03325378 -0.06377868 0.0008292367)
(0.0184871 -0.03156807 0.0002828835)
(0.01281044 -0.01418818 -0.000124025)
(-0.1964626 -0.01493211 0.00187423)
(-0.1973244 -0.04650246 0.000539428)
(-0.1863312 -0.08518555 -3.703233e-05)
(-0.1828079 -0.1302317 -0.0009962079)
(-0.1265704 -0.176382 0.0005678764)
(-0.01697481 -0.234612 0.0002901444)
(0.09678632 -0.05800051 -0.0004828644)
(0.04334438 -0.02277459 -0.0003508124)
(0.0213847 -0.006713988 -4.754796e-05)
(-0.2290116 -0.0152814 0.002163792)
(-0.2339814 -0.04808652 0.0007613715)
(-0.2342221 -0.08412186 -2.882871e-05)
(-0.2501663 -0.1358421 -0.0002672953)
(-0.2194298 -0.2036464 0.0006163856)
(-0.3000851 -0.3330968 0.001731801)
(-0.5181168 -0.01198337 -0.01194775)
(-0.4578735 -0.01909646 -0.0009316307)
(-0.2579505 -0.01355435 0.002838398)
(-0.2656077 -0.04216801 0.001063419)
(-0.2700863 -0.07012057 0.0001872642)
(-0.2940292 -0.1081085 1.664623e-05)
(-0.3200989 -0.1349572 -0.0001869328)
(-0.4004593 -0.1442687 0.0002729701)
(-0.4516943 -0.08646186 0.001831915)
(-0.4178528 -0.04963524 -0.002352413)
(-0.4023371 -0.009245134 0.003297213)
(-0.2821953 -0.0115526 0.003055059)
(-0.2900715 -0.03661277 0.001435587)
(-0.295581 -0.05783495 0.0001188031)
(-0.3152523 -0.08326242 0.0002371473)
(-0.3375583 -0.09742413 0.0001553059)
(-0.378063 -0.1083777 0.0009881111)
(-0.4004366 -0.06589348 0.001470255)
(-0.4065252 -0.04755534 0.001597158)
(-0.3955577 -0.03973068 -0.001665511)
(-0.3026871 -0.009920116 0.002240365)
(-0.310004 -0.02981145 0.001577689)
(-0.3163387 -0.04694758 0.0002991143)
(-0.3315837 -0.06590176 0.0001381188)
(-0.3475641 -0.07482657 -8.325326e-05)
(-0.3717348 -0.08057579 -0.0002479226)
(-0.3874957 -0.0635762 -9.585348e-05)
(-0.3853164 -0.05341452 -0.0002665768)
(-0.3848756 -0.03677953 0.0003447492)
(-0.3198539 -0.008401519 0.002322409)
(-0.3266413 -0.02514082 0.001426146)
(-0.3304132 -0.03844242 0.0002801935)
(-0.3420692 -0.05203465 0.0003823045)
(-0.3515773 -0.0591362 9.328045e-05)
(-0.3666067 -0.06547013 0.000481703)
(-0.3759053 -0.05459877 0.000369894)
(-0.37915 -0.0495709 0.0003454262)
(-0.3781858 -0.04338493 -0.00054654)
(-0.3339683 -0.007142939 0.002189029)
(-0.3401643 -0.02130277 0.001714374)
(-0.3432403 -0.03295918 0.0003936681)
(-0.3516006 -0.04422504 0.0003275236)
(-0.3572587 -0.05080157 1.661358e-05)
(-0.3670912 -0.0555854 0.0001474128)
(-0.3725628 -0.05217933 6.516035e-05)
(-0.3734831 -0.05053782 7.003914e-05)
(-0.3730713 -0.04399461 8.458548e-05)
(-0.3464072 -0.006282473 0.002424212)
(-0.3518652 -0.01871674 0.001329686)
(-0.3541894 -0.02890449 9.923139e-05)
(-0.3593895 -0.0384385 0.0004353035)
(-0.3624987 -0.04439505 0.000115679)
(-0.3682931 -0.04940546 0.0002969684)
(-0.3708511 -0.04872697 0.0001917373)
(-0.3718602 -0.04852231 0.0001784464)
(-0.3706418 -0.04669228 -0.0001210319)
(-0.3571297 -0.00574895 0.002043076)
(-0.3622755 -0.01705917 0.001698879)
(-0.3632689 -0.02665607 0.0001771581)
(-0.3672125 -0.03570454 0.0004852856)
(-0.3682497 -0.04182176 0.0001188652)
(-0.3713575 -0.04679883 0.0002489304)
(-0.37187 -0.04877288 0.0001006279)
(-0.3713194 -0.05016282 0.0001251062)
(-0.3691739 -0.04927115 7.921932e-05)
(-0.367204 -0.005405963 0.002030305)
(-0.3720831 -0.01579156 0.00208727)
(-0.372264 -0.02525468 0.0001196662)
(-0.3745475 -0.03394227 0.0005220572)
(-0.3746103 -0.04029008 0.0001473756)
(-0.3751196 -0.04575956 0.0004066082)
(-0.3740895 -0.04889941 0.0001183939)
(-0.3726864 -0.05134469 0.0001303351)
(-0.3695929 -0.05227472 1.710152e-05)
(-0.3770569 -0.005358313 0.002284098)
(-0.3813077 -0.01559277 0.001696975)
(-0.3807744 -0.02507843 0.0002147934)
(-0.3822049 -0.03389961 0.0005014156)
(-0.3804507 -0.04078922 0.0001736977)
(-0.3798645 -0.04678561 0.000335089)
(-0.3773732 -0.05105993 0.0001076009)
(-0.374733 -0.0543644 0.0001545368)
(-0.3707574 -0.05629901 5.084879e-05)
(-0.3870666 -0.005517789 0.00245452)
(-0.3911914 -0.01602484 0.001881204)
(-0.3898509 -0.02569188 0.0001458915)
(-0.3901536 -0.03483849 0.0005099035)
(-0.3878007 -0.04221945 0.0001305448)
(-0.3852705 -0.04883777 0.000437318)
(-0.3817068 -0.05397373 0.0001217468)
(-0.3778738 -0.05802416 0.0001237997)
(-0.3729542 -0.06089913 5.791979e-05)
(-0.3971661 -0.005806513 0.002288906)
(-0.4010006 -0.01697152 0.001630895)
(-0.3990252 -0.02723803 0.0002331137)