/*--------------------------------*- C++ -*----------------------------------*\
  =========                 |
  \\      /  F ield         | OpenFOAM: The Open Source CFD Toolbox
   \\    /   O peration     | Website:  https://openfoam.org
    \\  /    A nd           | Version:  7
     \\/     M anipulation  |
\*---------------------------------------------------------------------------*/
FoamFile
{
    version     2.0;
    format      ascii;
    class       volScalarField;
    location    "0.1";
    object      Ux;
}
// * * * * * * * * * * * * * * * * * * * * * * * * * * * * * * * * * * * * * //

dimensions      [0 1 -1 0 0 0 0];

internalField   nonuniform List<scalar> 
76598
(
-0.1210607
-0.1185606
-0.1055146
-0.08764194
-0.06647614
-0.04606725
-0.0299217
-0.01925948
-0.1146164
-0.1014225
-0.08711909
-0.06637641
-0.044823
-0.0293192
-0.0183839
-0.01104719
-0.1260666
-0.1118553
-0.09388841
-0.06973526
-0.04106681
-0.02043998
-0.01052142
-0.005801557
-0.1417898
-0.1258531
-0.1056395
-0.07221221
-0.02894929
-0.006048375
-0.0006888625
0.002086029
-0.1648633
-0.1492373
-0.1261509
-0.08884006
-0.01845716
0.0233238
0.01996181
0.01224698
-0.1973545
-0.1823363
-0.1830876
-0.1231353
-0.01546662
0.0824814
0.04065824
0.02213725
-0.2351606
-0.2306501
-0.2495362
-0.2134824
-0.2534314
-0.2670822
-0.2684385
-0.2934253
-0.3168943
-0.3977749
-0.4379902
-0.4105834
-0.4015784
-0.2926765
-0.2949731
-0.3149946
-0.3375588
-0.3761224
-0.4023367
-0.4009417
-0.3954922
-0.3129686
-0.3156098
-0.3314728
-0.3484113
-0.3708964
-0.3835719
-0.3845154
-0.383386
-0.3304531
-0.3300151
-0.3429361
-0.3515179
-0.3661827
-0.3750401
-0.3776474
-0.377965
-0.3429671
-0.3422165
-0.3511606
-0.3567114
-0.3667188
-0.3716956
-0.3729315
-0.3721101
-0.355623
-0.3523733
-0.3594527
-0.3615787
-0.3678956
-0.370192
-0.3713203
-0.3700516
-0.3653058
-0.3614114
-0.3667406
-0.3670728
-0.370794
-0.3712191
-0.3708179
-0.3686474
-0.3756741
-0.3701834
-0.3741039
-0.3732697
-0.3746411
-0.3734678
-0.3721096
-0.3690628
-0.3852793
-0.3787295
-0.381527
-0.3789415
-0.3795433
-0.3765936
-0.3743738
-0.3702221
-0.3949582
-0.3876343
-0.3893429
-0.3861513
-0.3846352
-0.3810183
-0.3773595
-0.37246
-0.4049087
-0.3970348
-0.3977359
-0.3931572
-0.3911755
-0.3860974
-0.3812916
-0.3752694
-0.4156115
-0.4071197
-0.4068485
-0.4014136
-0.3978926
-0.3916747
-0.3856967
-0.3786186
-0.4273024
-0.4181311
-0.416904
-0.4103087
-0.4054617
-0.3978665
-0.39066
-0.3823235
-0.4402352
-0.4303471
-0.4280474
-0.4201305
-0.413827
-0.4046698
-0.3960638
-0.3862673
-0.4547205
-0.4440121
-0.4405487
-0.431003
-0.4232283
-0.4122595
-0.4018907
-0.3903308
-0.4711377
-0.459397
-0.454652
-0.4433007
-0.4337718
-0.4205642
-0.4080295
-0.3943042
-0.4898053
-0.476935
-0.4707235
-0.4573761
-0.445565
-0.4296839
-0.4143998
-0.3979976
-0.1187972
-0.1051209
-0.0816817
-0.0677726
-0.04663436
-0.03246196
-0.02090746
-0.01339116
-0.1188789
-0.1150187
-0.1020286
-0.08880116
-0.06738176
-0.04586679
-0.0296985
-0.01841897
-0.01128324
-0.1318573
-0.1274608
-0.1127974
-0.09444982
-0.06963653
-0.03958259
-0.02036597
-0.01102575
-0.005654722
-0.1481016
-0.1431726
-0.1266591
-0.106634
-0.07070411
-0.02826079
-0.00582491
0.001487389
0.002583136
-0.1700507
-0.1667272
-0.1507218
-0.1291216
-0.08547214
-0.0186379
0.03232806
0.01824937
0.01312213
-0.1982199
-0.1996589
-0.1867464
-0.1821675
-0.1250733
-0.01785521
0.09150582
0.04178087
0.02218412
-0.2300858
-0.2380191
-0.2346905
-0.2508216
-0.2197318
-0.2970123
-0.4854676
-0.420117
-0.2601935
-0.2695081
-0.270814
-0.2951929
-0.3194108
-0.4029117
-0.4494187
-0.4204811
-0.4071168
-0.2859046
-0.293955
-0.2954195
-0.3166273
-0.337526
-0.3779261
-0.4024829
-0.4015344
-0.3970571
-0.3079328
-0.3141767
-0.3167214
-0.3326903
-0.3472925
-0.3712351
-0.3872521
-0.3856501
-0.3848901
-0.3252894
-0.3302671
-0.3307592
-0.3432596
-0.3517831
-0.3669645
-0.3758727
-0.3785759
-0.3784794
-0.3400805
-0.3440785
-0.3436078
-0.3527787
-0.3570969
-0.3674049
-0.3725706
-0.3735521
-0.3730756
-0.3522813
-0.3558184
-0.3547687
-0.3606259
-0.3624978
-0.3685523
-0.3707928
-0.3717546
-0.3705829
-0.3637755
-0.3659917
-0.3635952
-0.3682474
-0.3680923
-0.3716182
-0.3717812
-0.3713474
-0.3691158
-0.3740507
-0.3760436
-0.3728566
-0.3755335
-0.3744936
-0.3753477
-0.3740927
-0.3726223
-0.369543
-0.3840727
-0.3854544
-0.3812516
-0.3831092
-0.3802599
-0.3799832
-0.3772512
-0.3747786
-0.3706847
-0.3939073
-0.3952469
-0.3902291
-0.3910272
-0.3875949
-0.3853504
-0.3816672
-0.3778585
-0.372906
-0.4040078
-0.4051803
-0.3993765
-0.3995314
-0.3946164
-0.3914585
-0.3866001
-0.3816893
-0.3756995
-0.4145263
-0.4160018
-0.4095064
-0.408767
-0.4029303
-0.3983865
-0.3922082
-0.3861447
-0.3790442
-0.425867
-0.4277562
-0.4204523
-0.4189058
-0.4115934
-0.4062291
-0.3984916
-0.3911502
-0.3827534
-0.4383271
-0.4407533
-0.4325539
-0.4301555
-0.421525
-0.4146978
-0.4053421
-0.3965671
-0.3866934
-0.4522754
-0.4554085
-0.4461146
-0.4427828
-0.4324014
-0.4241204
-0.4129335
-0.4023856
-0.3907462
-0.4682694
-0.4721182
-0.4614243
-0.4570032
-0.4445656
-0.434677
-0.4212075
-0.40851
-0.3946941
-0.4754829
-0.491204
-0.4790445
-0.4732036
-0.458604
-0.4465185
-0.4303204
-0.4148745
-0.3983645
-0.1182661
-0.1065025
-0.08276885
-0.06888284
-0.04760279
-0.0328834
-0.02125881
-0.0136056
-0.1208515
-0.1172338
-0.1003929
-0.0889716
-0.06707532
-0.04574563
-0.02962031
-0.01845759
-0.01133955
-0.1282841
-0.1251856
-0.1122408
-0.09343956
-0.06970182
-0.03972237
-0.02043155
-0.01122546
-0.005835821
-0.1456383
-0.1405692
-0.125459
-0.1051604
-0.07160135
-0.0290292
-0.007110635
0.0008700842
0.002445364
-0.1687713
-0.1631749
-0.1495381
-0.1266588
-0.08759795
-0.02168009
0.03277061
0.01922393
0.01285775
-0.1980111
-0.1950673
-0.1853654
-0.1816725
-0.1273308
-0.01602248
0.09502385
0.0430108
0.02051936
-0.229911
-0.2317281
-0.2335215
-0.2489565
-0.2195208
-0.2970275
-0.507106
-0.4377724
-0.26021
-0.2637293
-0.269322
-0.2941242
-0.3205014
-0.4021932
-0.449069
-0.4171771
-0.4060286
-0.2849811
-0.2888285
-0.294876
-0.314928
-0.3375817
-0.3781564
-0.4016076
-0.4066962
-0.3949655
-0.3071776
-0.3089821
-0.316305
-0.3307033
-0.347437
-0.3714126
-0.3866751
-0.385427
-0.384872
-0.3239471
-0.3261089
-0.3304173
-0.3420793
-0.3513581
-0.366439
-0.3755911
-0.3786232
-0.3773852
-0.338381
-0.3380891
-0.3436609
-0.3505521
-0.3573258
-0.3668414
-0.3723321
-0.3735301
-0.3727406
-0.3516899
-0.3508557
-0.3531749
-0.3586265
-0.3620578
-0.3680108
-0.3706765
-0.3718775
-0.3706381
-0.3626334
-0.3607998
-0.3629109
-0.3660971
-0.367739
-0.3710191
-0.3716634
-0.3712166
-0.3691163
-0.3725474
-0.3706271
-0.3715109
-0.3733843
-0.3734054
-0.374693
-0.373765
-0.372448
-0.3694828
-0.382364
-0.3796891
-0.3802157
-0.3809485
-0.3795673
-0.3795904
-0.3770381
-0.3746349
-0.3706291
-0.3927335
-0.3894756
-0.3891603
-0.3888201
-0.3862053
-0.3848949
-0.3813952
-0.3777104
-0.3728432
-0.4030082
-0.3991875
-0.398503
-0.3972941
-0.3935953
-0.3913442
-0.3865147
-0.3816198
-0.3756525
-0.4140173
-0.4099684
-0.4085794
-0.4064529
-0.4016571
-0.3982837
-0.3921074
-0.3860728
-0.3789948
-0.4260671
-0.4214755
-0.419584
-0.4164857
-0.4106158
-0.405771
-0.3982367
-0.3909988
-0.3826853
-0.4393176
-0.4341843
-0.4317769
-0.4276207
-0.4206405
-0.414234
-0.4050477
-0.3964101
-0.3866192
-0.4540647
-0.4483855
-0.4454408
-0.4400944
-0.4318411
-0.4234131
-0.4126799
-0.4021877
-0.3906758
-0.4707189
-0.4643319
-0.4608397
-0.454132
-0.4441456
-0.4338626
-0.4210006
-0.4082788
-0.3946295
-0.4896315
-0.4824583
-0.4784075
-0.4700977
-0.4581389
-0.4456248
-0.4301029
-0.4146211
-0.3983037
-0.1166837
-0.1057331
-0.08426979
-0.06873959
-0.04742698
-0.03270152
-0.02107075
-0.01345927
-0.1203974
-0.1182075
-0.1003948
-0.08944154
-0.06708361
-0.04598877
-0.02965605
-0.01836658
-0.01128411
-0.1270917
-0.1260148
-0.1124637
-0.09360995
-0.06982051
-0.03938476
-0.02046012
-0.01108532
-0.005560453
-0.1438898
-0.1408152
-0.1260467
-0.1059937
-0.07146008
-0.02919398
-0.006234945
0.001232486
0.002957265
-0.1675038
-0.1648528
-0.1503363
-0.1280934
-0.08700577
-0.0204333
0.03325378
0.0184871
0.01281044
-0.1964626
-0.1973244
-0.1863312
-0.1828079
-0.1265704
-0.01697481
0.09678632
0.04334438
0.0213847
-0.2290116
-0.2339814
-0.2342221
-0.2501663
-0.2194298
-0.3000851
-0.5181168
-0.4578735
-0.2579505
-0.2656077
-0.2700863
-0.2940292
-0.3200989
-0.4004593
-0.4516943
-0.4178528
-0.4023371
-0.2821953
-0.2900715
-0.295581
-0.3152523
-0.3375583
-0.378063
-0.4004366
-0.4065252
-0.3955577
-0.3026871
-0.310004
-0.3163387
-0.3315837
-0.3475641
-0.3717348
-0.3874957
-0.3853164
-0.3848756
-0.3198539
-0.3266413
-0.3304132
-0.3420692
-0.3515773
-0.3666067
-0.3759053
-0.37915
-0.3781858
-0.3339683
-0.3401643
-0.3432403
-0.3516006
-0.3572587
-0.3670912
-0.3725628
-0.3734831
-0.3730713
-0.3464072
-0.3518652
-0.3541894
-0.3593895
-0.3624987
-0.3682931
-0.3708511
-0.3718602
-0.3706418
-0.3571297
-0.3622755
-0.3632689
-0.3672125
-0.3682497
-0.3713575
-0.37187
-0.3713194
-0.3691739
-0.367204
-0.3720831
-0.372264
-0.3745475
-0.3746103
-0.3751196
-0.3740895
-0.3726864
-0.3695929
-0.3770569
-0.3813077
-0.3807744
-0.3822049
-0.3804507
-0.3798645
-0.3773732
-0.374733
-0.3707574
-0.3870666
-0.3911914
-0.3898509
-0.3901536
-0.3878007
-0.3852705
-0.3817068
-0.3778738
-0.3729542
-0.3971661
-0.4010006
-0.3990252
-0.3986602
-0.3948459
-0.3914169
-0.3866521
-0.3817001
-0.3757492
-0.4081019
-0.4117506
-0.409136
-0.4078693
-0.403134
-0.3983154
-0.3922855
-0.3861651
-0.3790937
-0.4199426
-0.4234264
-0.4201465
-0.4179491
-0.4118457
-0.4060161
-0.3985704
-0.3911505
-0.3828101
-0.4330422
-0.4363472
-0.4322451
-0.429161
-0.4216126
-0.4146473
-0.4055061
-0.3966002
-0.3867647
-0.4477631
-0.4509036
-0.4459047
-0.4417326
-0.4327436
-0.4240021
-0.4131728
-0.4024124
-0.3908405
-0.4644443
-0.4672727
-0.4612161
-0.4558978
-0.4448973
-0.4345052
-0.4214538
-0.4085082
-0.3947758
-0.48366
-0.4861115
-0.4788432
-0.471984
-0.4590395
-0.4463388
-0.4306405
-0.4148909
-0.3984754
-0.1179314
-0.1066291
-0.08346372
-0.06946524
-0.04756673
-0.03294209
-0.0211601
-0.01354237
-0.1203809
-0.1179028
-0.1016495
-0.08967687
-0.06743754
-0.04608134
-0.02975669
-0.01846164
-0.01134655
-0.1281595
-0.1254449
-0.1130769
-0.09414757
-0.06980183
-0.0395457
-0.0206304
-0.01113484
-0.00568041
-0.1457771
-0.1410039
-0.1256436
-0.1055598
-0.0715773
-0.02941733
-0.006135196
0.001224875
0.003031256
-0.169328
-0.1636249
-0.1502403
-0.1275996
-0.08725815
-0.02051872
0.03348301
0.01866967
0.01277844
-0.1988049
-0.1960066
-0.1865254
-0.182124
-0.1270328
-0.01786333
0.09641259
0.04250835
0.02179646
-0.2302164
-0.2325891
-0.2344843
-0.2490722
-0.220258
-0.3009191
-0.5184396
-0.4526842
-0.2615674
-0.2646643
-0.2697899
-0.2939074
-0.3189226
-0.4004198
-0.4519946
-0.4162743
-0.4009532
-0.2860155
-0.2890002
-0.2952181
-0.3144806
-0.3379308
-0.3775739
-0.3989659
-0.4044708
-0.3945609
-0.3080037
-0.3106698
-0.3163546
-0.3310869
-0.3473183
-0.3718287
-0.3879233
-0.3852463
-0.3848049
-0.3245287
-0.3263889
-0.3307268
-0.3418151
-0.3513835
-0.3661516
-0.3754688
-0.3782859
-0.3772595
-0.3394561
-0.3403947
-0.3437966
-0.3510241
-0.3574257
-0.3669514
-0.372366
-0.3736068
-0.3728543
-0.3515371
-0.3516383
-0.3538739
-0.3587987
-0.3624164
-0.3681014
-0.3707835
-0.3717388
-0.3705901
-0.3631977
-0.3622507
-0.3636555
-0.3665879
-0.3682845
-0.3712118
-0.3718944
-0.3712989
-0.3691502
-0.3734197
-0.3719331
-0.3723597
-0.3738968
-0.3743686
-0.374966
-0.3740678
-0.3726958
-0.3696009
-0.3831708
-0.3815395
-0.380958
-0.3813662
-0.3802875
-0.3797216
-0.3773253
-0.3746908
-0.3707454
-0.393233
-0.3911389
-0.3899538
-0.3892671
-0.3872995
-0.3851459
-0.3816421
-0.3778393
-0.3729408
-0.4036233
-0.4011987
-0.399316
-0.397761
-0.3943558
-0.3915868
-0.3867069
-0.3817119
-0.375745
-0.4147978
-0.4119154
-0.4093898
-0.4069462
-0.4025402
-0.398597
-0.3923089
-0.3861822
-0.3790827
-0.4268426
-0.4236086
-0.4204905
-0.4170654
-0.4117167
-0.4058701
-0.3984701
-0.3910991
-0.3827864
-0.440256
-0.4365629
-0.4326832
-0.4282688
-0.421406
-0.4144546
-0.4054045
-0.3965287
-0.3867394
-0.4552959
-0.451044
-0.4464688
-0.4408399
-0.432594
-0.4237458
-0.4130731
-0.4023196
-0.3908185
-0.4726164
-0.4675651
-0.4619915
-0.4549978
-0.4448821
-0.4342012
-0.4213758
-0.4083923
-0.394772
-0.4922329
-0.4862255
-0.4797131
-0.4710461
-0.4589069
-0.4459531
-0.430483
-0.4147523
-0.3984788
-0.1162095
-0.1060197
-0.08445822
-0.06882322
-0.04746593
-0.0327214
-0.02104232
-0.01343627
-0.1208319
-0.1179937
-0.1005435
-0.08972152
-0.067094
-0.04600339
-0.02964043
-0.01836403
-0.01129768
-0.1280852
-0.1253672
-0.112623
-0.09332725
-0.06981504
-0.03940687
-0.02051442
-0.01106628
-0.00556632
-0.1458351
-0.1412649
-0.1257952
-0.1056617
-0.07160423
-0.02928519
-0.006158231
0.001249212
0.003045606
-0.1693448
-0.1636472
-0.1503176
-0.1275964
-0.08717137
-0.02042791
0.03337953
0.0186871
0.01276258
-0.1984422
-0.1960641
-0.1863576
-0.1822709
-0.126941
-0.01835625
0.09628117
0.0411746
0.02170783
-0.2318419
-0.232706
-0.234475
-0.2491467
-0.2206792
-0.3005407
-0.5163744
-0.4468037
-0.2609994
-0.2645765
-0.2697745
-0.2938503
-0.3189257
-0.4003205
-0.4517048
-0.415281
-0.3994097
-0.2861285
-0.2896269
-0.294991
-0.3146087
-0.3377179
-0.3775464
-0.399053
-0.4041049
-0.3943327
-0.3075378
-0.3106681
-0.3165261
-0.3312257
-0.3472656
-0.3718144
-0.3879581
-0.385256
-0.384898
-0.3243962
-0.3263061
-0.330707
-0.3417661
-0.3513603
-0.3661013
-0.3754193
-0.3781781
-0.3772349
-0.3394144
-0.3405109
-0.343612
-0.3511423
-0.3572745
-0.3669836
-0.3723918
-0.373604
-0.3728571
-0.3515145
-0.3518719
-0.3540963
-0.3589129
-0.3624799
-0.3681743
-0.3708317
-0.3717721
-0.3706082
-0.3617187
-0.3619204
-0.3634625
-0.366676
-0.3682015
-0.3712942
-0.3718135
-0.3713234
-0.369152
-0.3717865
-0.3714238
-0.372485
-0.3739058
-0.3741049
-0.3749287
-0.3739694
-0.3726153
-0.3695877
-0.3830148
-0.381655
-0.3808434
-0.3813895
-0.3801086
-0.3799887
-0.3773506
-0.3747523
-0.3707396
-0.3930743
-0.3911886
-0.3898087
-0.3893411
-0.3868959
-0.3852279
-0.3816712
-0.37785
-0.3729448
-0.4035179
-0.4011666
-0.3992644
-0.3977924
-0.394315
-0.3917988
-0.3867937
-0.3817712
-0.3757618
-0.4148125
-0.411886
-0.4093627
-0.4070039
-0.4026935
-0.3985592
-0.3923395
-0.3861918
-0.3790933
-0.4267566
-0.423532
-0.4205155
-0.4170843
-0.4117678
-0.4058902
-0.3985549
-0.3911333
-0.3828166
-0.4401969
-0.4365185
-0.432664
-0.4283375
-0.4215618
-0.4147353
-0.4055545
-0.3965959
-0.3867563
-0.4551792
-0.4509275
-0.4463951
-0.4408558
-0.4328593
-0.4238323
-0.4133006
-0.4023891
-0.3908686
-0.4724934
-0.4675522
-0.4619558
-0.4550668
-0.4451298
-0.434571
-0.421585
-0.4084353
-0.394724
-0.4918294
-0.4860617
-0.4795399
-0.4711456
-0.4595687
-0.4462442
-0.430936
-0.4148557
-0.3984978
-0.1171488
-0.1066683
-0.08299837
-0.0687308
-0.04761352
-0.03287876
-0.0212449
-0.01355396
-0.1202163
-0.1178905
-0.1004689
-0.08918105
-0.06709898
-0.04592073
-0.02967779
-0.0183974
-0.01135123
-0.1271374
-0.125879
-0.1124666
-0.09390814
-0.06972505
-0.03955622
-0.0204563
-0.01116971
-0.005643774
-0.1437848
-0.1404834
-0.1257798
-0.106074
-0.07106694
-0.0289938
-0.006144531
0.001275961
0.0029223
-0.1676801
-0.1645994
-0.1501203
-0.1282108
-0.08706726
-0.02036774
0.03332974
0.01850302
0.01279391
-0.1965293
-0.1974126
-0.1859949
-0.1828275
-0.1259496
-0.01752425
0.09692484
0.04059072
0.0213259
-0.2292223
-0.2338333
-0.2340595
-0.2501856
-0.2202727
-0.2997659
-0.5170396
-0.4586381
-0.2574823
-0.2647589
-0.2694821
-0.2942567
-0.3198666
-0.4006932
-0.4518269
-0.4179746
-0.4024218
-0.2825632
-0.2891348
-0.2959482
-0.3156485
-0.3373239
-0.3782144
-0.4004715
-0.4065962
-0.3958054
-0.3022643
-0.3096735
-0.3159237
-0.331709
-0.3474016
-0.3718213
-0.3873585
-0.3851862
-0.3848953
-0.3202861
-0.3264794
-0.3302686
-0.3421351
-0.3514438
-0.3666526
-0.3758766
-0.3792382
-0.3782299
-0.3346904
-0.340061
-0.3432565
-0.3518941
-0.3572246
-0.3672341
-0.372569
-0.3735451
-0.3730616
-0.3463609
-0.3513323
-0.3537079
-0.3595112
-0.3624486
-0.3683718
-0.3708241
-0.3719124
-0.3706652
-0.3602297
-0.3623483
-0.3641165
-0.3672448
-0.3684751
-0.3714305
-0.3719366
-0.3713622
-0.3691925
-0.3701712
-0.3720971
-0.3728938
-0.3745685
-0.3747007
-0.3752088
-0.3741844
-0.3727262
-0.3696227
-0.3771957
-0.3810447
-0.3806003
-0.3824737
-0.3806121
-0.3799813
-0.3774232
-0.3747836
-0.3707855
-0.3873242
-0.3909492
-0.3900049
-0.3902516
-0.3878421
-0.3853511
-0.3817738
-0.3779113
-0.37298
-0.3970061
-0.4006956
-0.3989686
-0.3987526
-0.39479
-0.3914385
-0.3866884
-0.3817276
-0.3757749
-0.4080058
-0.4116277
-0.4092463
-0.4077917
-0.4030605
-0.3982944
-0.3922931
-0.3861728
-0.3791071
-0.4198698
-0.423257
-0.4201361
-0.4179326
-0.4118113
-0.4059916
-0.3985553
-0.3911552
-0.3828321
-0.4331738
-0.4360596
-0.4321965
-0.4290577
-0.4214169
-0.4147719
-0.4054688
-0.3966034
-0.3867744
-0.4482713
-0.4510255
-0.4460699
-0.4416354
-0.4328489
-0.423851
-0.4131116
-0.4023749
-0.3908702
-0.4645203
-0.4669319
-0.4613035
-0.455722
-0.4447927
-0.4342724
-0.4213592
-0.408374
-0.3948006
-0.4839452
-0.4860497
-0.4791017
-0.4716015
-0.4587669
-0.4459171
-0.4304166
-0.4147647
-0.398572
-0.1206639
-0.1057055
-0.08167249
-0.06797653
-0.04685341
-0.03224148
-0.02076739
-0.01324111
-0.1203368
-0.1173938
-0.1010291
-0.08878456
-0.06721358
-0.04560618
-0.02953601
-0.0183663
-0.01125414
-0.12843
-0.1252453
-0.1120795
-0.09359236
-0.06977611
-0.03973078
-0.02037134
-0.01111372
-0.005640323
-0.14535
-0.1406005
-0.1255668
-0.1052149
-0.07170427
-0.02898238
-0.007124975
0.000801018
0.002315274
-0.1684019
-0.1633572
-0.1493852
-0.1268592
-0.08743264
-0.02158188
0.03222743
0.01925126
0.01313432
-0.1972967
-0.1959048
-0.1851245
-0.1820592
-0.1270621
-0.01729863
0.09542164
0.0408606
0.02030373
-0.2317547
-0.2328823
-0.2337874
-0.249168
-0.2216603
-0.2978088
-0.5143216
-0.4380988
-0.2618012
-0.2643642
-0.269762
-0.2944375
-0.3208541
-0.4025453
-0.4491479
-0.4169519
-0.4057704
-0.2779875
-0.2882682
-0.2930182
-0.31508
-0.3370435
-0.3782084
-0.4017179
-0.406744
-0.3949502
-0.3076316
-0.3099513
-0.316204
-0.3314736
-0.3472514
-0.3716383
-0.3867253
-0.3854616
-0.3847788
-0.3250883
-0.3260032
-0.3304666
-0.3419299
-0.3511285
-0.3664362
-0.3755453
-0.3785802
-0.3774065
-0.3396803
-0.3392085
-0.3432964
-0.3512651
-0.3567563
-0.3670924
-0.3723427
-0.3735978
-0.3726967
-0.3537943
-0.3501915
-0.3535132
-0.3593212
-0.361952
-0.36828
-0.3707574
-0.3719765
-0.3706866
-0.3559946
-0.3616338
-0.3611644
-0.3667971
-0.3673945
-0.3713411
-0.3715245
-0.3713087
-0.3690854
-0.3654608
-0.3710525
-0.370847
-0.3735251
-0.3734859
-0.3747802
-0.3737033
-0.3724874
-0.3694581
-0.3842631
-0.3797288
-0.3805169
-0.3811334
-0.3795005
-0.3798045
-0.377115
-0.3747178
-0.3706558
-0.3941919
-0.3893567
-0.3893912
-0.3888865
-0.3863353
-0.3848919
-0.3813817
-0.3777253
-0.3728562
-0.4034959
-0.4000157
-0.3991252
-0.3976856
-0.3937942
-0.3916219
-0.3866186
-0.3816613
-0.3756978
-0.4126299
-0.4094454
-0.4086478
-0.4065139
-0.4019911
-0.3980702
-0.3920859
-0.3860516
-0.3790065
-0.4271157
-0.4222337
-0.4197257
-0.4165468
-0.4107263
-0.4060077
-0.3984753
-0.3911272
-0.3827735
-0.4389602
-0.4344311
-0.4320369
-0.4276969
-0.4212525
-0.4144408
-0.4053438
-0.3964695
-0.3866394
-0.4531759
-0.4487456
-0.4455153
-0.4400966
-0.4323034
-0.4236107
-0.4131713
-0.4023244
-0.3908278
-0.4702351
-0.4644854
-0.4609091
-0.4542774
-0.4448542
-0.4347442
-0.4214381
-0.4083362
-0.3944344
-0.4918403
-0.4844056
-0.4786167
-0.4703636
-0.4597854
-0.4463826
-0.4310852
-0.4148208
-0.398439
-0.1195469
-0.1085055
-0.09544238
-0.08151777
-0.05977886
-0.04086967
-0.02694522
-0.0169026
-0.116673
-0.1156208
-0.101807
-0.0877186
-0.06701587
-0.04575804
-0.02981671
-0.01863467
-0.01149725
-0.1282293
-0.1264941
-0.1121624
-0.09495662
-0.06939014
-0.04016375
-0.020353
-0.01123575
-0.005749275
-0.1471956
-0.1436348
-0.1264045
-0.1066005
-0.07013052
-0.02828487
-0.005909425
0.001456768
0.002493136
-0.1695637
-0.167659
-0.1504316
-0.1296258
-0.08539245
-0.02019471
0.03267281
0.01817413
0.01247661
-0.1942664
-0.1993787
-0.1861731
-0.1823941
-0.1227005
-0.01457267
0.09514858
0.0427705
0.02467491
-0.228604
-0.2407678
-0.233411
-0.2517952
-0.2204118
-0.3005992
-0.5091649
-0.4438326
-0.2671752
-0.2720636
-0.2691909
-0.2963541
-0.3193978
-0.4032761
-0.450185
-0.421149
-0.4086617
-0.2840998
-0.2896292
-0.2983369
-0.31694
-0.3377874
-0.3781446
-0.4026548
-0.4019046
-0.3974479
-0.2984091
-0.3164115
-0.3153742
-0.3332329
-0.3454698
-0.3719615
-0.3877757
-0.3858515
-0.3850452
-0.32335
-0.3332443
-0.3315089
-0.343972
-0.3513429
-0.3671578
-0.3759093
-0.3787191
-0.3786283
-0.3354817
-0.3481132
-0.3441356
-0.3537548
-0.3571333
-0.3676912
-0.372534
-0.3736656
-0.3730361
-0.3585007
-0.359839
-0.3525916
-0.3616995
-0.3624254
-0.3688141
-0.3707599
-0.3718846
-0.3706259
-0.3631834
-0.3588523
-0.3671666
-0.3680268
-0.3685289
-0.3717639
-0.3718317
-0.37143
-0.3691361
-0.371267
-0.3692038
-0.3751884
-0.3751522
-0.37439
-0.3754767
-0.3742377
-0.3726987
-0.3695902
-0.374352
-0.3897877
-0.3800598
-0.3845026
-0.3805964
-0.380231
-0.3772779
-0.3748386
-0.3707213
-0.3928242
-0.3992005
-0.3906928
-0.391825
-0.3876639
-0.3855835
-0.3818043
-0.377935
-0.3729502
-0.3986996
-0.4060796
-0.3990719
-0.4003225
-0.3943725
-0.3915966
-0.3867169
-0.3817582
-0.3757554
-0.4115538
-0.4163578
-0.4101396
-0.4089447
-0.4026084
-0.3988414
-0.3923687
-0.3862869
-0.3790848
-0.4229847
-0.4286064
-0.420802
-0.4194461
-0.4118012
-0.4061207
-0.3985748
-0.3912019
-0.3828311
-0.4383349
-0.4411738
-0.4322719
-0.430136
-0.4210983
-0.415542
-0.4055799
-0.3967484
-0.3867378
-0.4547398
-0.4565542
-0.4460702
-0.4430218
-0.432873
-0.4240682
-0.4130035
-0.4024242
-0.3908616
-0.4699976
-0.4713986
-0.4614377
-0.4568814
-0.4445676
-0.4347481
-0.4211109
-0.4082432
-0.3946962
-0.490501
-0.4919714
-0.4795315
-0.4726417
-0.4583706
-0.4456812
-0.4302231
-0.4147897
-0.3986984
-0.1214924
-0.12237
-0.1091745
-0.08177724
-0.05461472
-0.03966854
-0.02993867
-0.01913335
-0.1173779
-0.1141163
-0.1021071
-0.08678813
-0.06634984
-0.04463548
-0.02933444
-0.01856311
-0.01135785
-0.1291931
-0.1258178
-0.111721
-0.09417352
-0.06978176
-0.04142609
-0.02091433
-0.01067242
-0.005393789
-0.1459017
-0.1413659
-0.1258466
-0.105718
-0.07209202
-0.0291221
-0.006618435
-0.001783048
0.001255132
-0.1708178
-0.1644476
-0.1487753
-0.1266832
-0.08873233
-0.02679156
0.02360081
0.01933867
0.01250514
-0.1937288
-0.2000962
-0.1816064
-0.1836645
-0.1312094
-0.010535
0.0899245
0.04395188
0.02362091
-0.2273681
-0.2361777
-0.2309955
-0.2497371
-0.2205812
-0.2900404
-0.2646044
-0.2710859
-0.2667162
-0.2947182
-0.3165067
-0.3992466
-0.4376353
-0.4098515
-0.3988386
-0.2879881
-0.2985422
-0.2928838
-0.3163782
-0.3373615
-0.3760936
-0.4018054
-0.400264
-0.396463
-0.3084174
-0.3158995
-0.3145663
-0.332583
-0.3470733
-0.3717197
-0.3836408
-0.3844067
-0.3830272
-0.3256994
-0.329455
-0.3282409
-0.3429838
-0.3506716
-0.3663768
-0.3751921
-0.3776149
-0.3781826
-0.3348447
-0.3449458
-0.340807
-0.3527423
-0.356011
-0.3671422
-0.3717666
-0.3730147
-0.3721224
-0.3583922
-0.3604499
-0.3504906
-0.3607665
-0.3617345
-0.3683406
-0.3703539
-0.3714455
-0.3701318
-0.3607079
-0.3734956
-0.3575611
-0.3677125
-0.3662982
-0.3710318
-0.3709684
-0.3708979
-0.3686024
-0.3820393
-0.386451
-0.3678396
-0.3744775
-0.3730633
-0.3748196
-0.3735688
-0.3721845
-0.3690907
-0.3831866
-0.3889543
-0.3780834
-0.3820132
-0.3789307
-0.3794386
-0.3765108
-0.3744445
-0.3702352
-0.3914448
-0.3941556
-0.3884737
-0.3901477
-0.3863405
-0.3848461
-0.381097
-0.3774199
-0.3724903
-0.3968145
-0.4029106
-0.3963566
-0.3973801
-0.3927105
-0.3912668
-0.3863119
-0.3813294
-0.3753355
-0.4142042
-0.4148864
-0.4085776
-0.4072987
-0.4018813
-0.3975053
-0.3914904
-0.3857694
-0.3786109
-0.4220651
-0.4259861
-0.4167515
-0.4165004
-0.4097761
-0.4060896
-0.3982002
-0.3908371
-0.3824285
-0.4429321
-0.4401876
-0.4312435
-0.428004
-0.4207685
-0.4141771
-0.404946
-0.3961978
-0.3862536
-0.4513209
-0.4545051
-0.4451156
-0.4408934
-0.4315571
-0.4235428
-0.4127011
-0.4020771
-0.3904797
-0.4787587
-0.4708408
-0.4587233
-0.4549131
-0.4445277
-0.4339964
-0.4210496
-0.4078454
-0.3938637
-0.4897374
-0.4868423
-0.4769551
-0.4698571
-0.4586905
-0.4462849
-0.4310443
-0.4146005
-0.3980581
-0.1368174
-0.1238317
-0.1127455
-0.1164296
-0.1177946
-0.1244095
-0.1059525
-0.1181698
-0.1176983
-0.110923
-0.107895
-0.1133843
-0.1103582
-0.1063433
-0.102199
-0.1066656
-0.1042849
-0.1053158
-0.0972309
-0.09204724
-0.09698863
-0.08549819
-0.09503767
-0.0889029
-0.09012616
-0.08193278
-0.07033339
-0.07946087
-0.06330558
-0.07994456
-0.06824465
-0.07461719
-0.06147653
-0.04973267
-0.05728287
-0.04477934
-0.05767493
-0.04702544
-0.05396801
-0.0422329
-0.03312592
-0.03843611
-0.02930695
-0.0389813
-0.031115
-0.03603701
-0.02764491
-0.02139573
-0.02471925
-0.01862508
-0.02577332
-0.01923924
-0.02323512
-0.01761149
-0.0135207
-0.01561594
-0.01176422
-0.0163996
-0.01233012
-0.01468884
-0.0112183
-0.1224876
-0.1222819
-0.11708
-0.1221437
-0.1222402
-0.1221963
-0.1288429
-0.131335
-0.129525
-0.1307242
-0.1331048
-0.1306602
-0.1449037
-0.1483412
-0.1448834
-0.1473779
-0.1508973
-0.147787
-0.1668351
-0.1707489
-0.1669546
-0.1700964
-0.1748613
-0.170509
-0.1956866
-0.1995073
-0.1955272
-0.199637
-0.2044025
-0.1999181
0.1026193
-0.1479532
-0.009744976
0.1039167
-0.1412516
0.05587767
0.08987307
0.06502089
0.03009663
0.04412829
0.03407953
0.01602799
0.02343271
0.01789288
-0.2293516
-0.2333407
-0.2278678
-0.2341174
-0.2369076
-0.2348971
-0.4088087
-0.4757145
-0.2855854
-0.4074854
-0.4726678
-0.5035125
-0.4880151
-0.5162973
-0.4846929
-0.4529333
-0.4468206
-0.4444094
-0.4492577
-0.4276501
-0.4191834
-0.4242056
-0.4145155
-0.2611585
-0.2643025
-0.257954
-0.2647718
-0.2664008
-0.266734
-0.2867508
-0.2896565
-0.2837045
-0.290236
-0.2912922
-0.2928417
-0.3089851
-0.3120752
-0.3057305
-0.3121091
-0.3117623
-0.3141426
-0.3256054
-0.3284079
-0.3229556
-0.3281592
-0.3286258
-0.3303475
-0.3408549
-0.3430277
-0.3379604
-0.343196
-0.3427529
-0.345236
-0.352763
-0.3548694
-0.3503843
-0.3545371
-0.3549211
-0.3568592
-0.364122
-0.366023
-0.361642
-0.3657857
-0.3659273
-0.3681351
-0.3741356
-0.3760516
-0.3720898
-0.3756223
-0.3763063
-0.3781393
-0.384059
-0.3859466
-0.3821707
-0.3855
-0.3864372
-0.3881041
-0.3939782
-0.3958643
-0.3922899
-0.3954207
-0.3966532
-0.3981523
-0.4043663
-0.406247
-0.4027854
-0.4058731
-0.4073688
-0.4086847
-0.415405
-0.417307
-0.4139859
-0.417029
-0.4188745
-0.4199225
-0.4274197
-0.4293607
-0.4261814
-0.4292268
-0.4314516
-0.4322126
-0.440691
-0.4426899
-0.4396584
-0.4427356
-0.445375
-0.44583
-0.4555517
-0.4576437
-0.4547422
-0.4578996
-0.4609717
-0.4611265
-0.4723338
-0.4745517
-0.4717933
-0.4750665
-0.4786274
-0.4784582
-0.4915006
-0.4938397
-0.4912606
-0.4947086
-0.4987664
-0.4982885
-0.1113267
-0.1205095
-0.1207893
-0.1113661
-0.1207646
-0.1193268
0.09433508
-0.1602695
-0.0153957
0.0934724
-0.1565031
-0.4129083
-0.4733569
-0.3004969
-0.4087925
-0.4722835
-0.1123786
-0.1228739
-0.1199556
-0.1126184
-0.1225188
-0.1192583
0.09280255
-0.1564975
-0.01740696
0.09083143
-0.1549202
-0.410134
-0.4739902
-0.2976646
-0.4087376
-0.4730905
-0.1130834
-0.122711
-0.11945
-0.1123867
-0.1228453
-0.1192045
0.09072267
-0.1538325
-0.01743287
0.0902167
-0.1525436
-0.4078441
-0.4727108
-0.2997364
-0.4077566
-0.4724522
-0.1125475
-0.1229644
-0.1195185
-0.1126715
-0.1231722
-0.1197394
0.09074226
-0.1537035
-0.01836804
0.09116735
-0.1539799
-0.4078322
-0.4725019
-0.3001315
-0.4083472
-0.4730088
-0.1132845
-0.1228511
-0.1193238
-0.1131502
-0.1231134
-0.1197455
0.09107911
-0.1542493
-0.01781478
0.09108561
-0.1536341
-0.4086498
-0.4733668
-0.3008101
-0.4076743
-0.4720759
-0.1132233
-0.1225866
-0.1188955
-0.1128284
-0.1226652
-0.1196221
0.0907939
-0.15265
-0.01703128
0.09090991
-0.1536514
-0.4079244
-0.4725001
-0.2999997
-0.4079461
-0.4724483
-0.1123958
-0.1227724
-0.1194222
-0.1130958
-0.1232615
-0.1211087
0.09074408
-0.1547873
-0.01595259
0.09285822
-0.1562133
-0.4088721
-0.4731328
-0.2971459
-0.4098742
-0.4740207
-0.1141622
-0.1217736
-0.1210006
-0.1148348
-0.1213914
-0.1239984
0.09322807
-0.1568622
-0.01832296
0.09380751
-0.1621287
-0.407994
-0.4713601
-0.2998845
-0.4114018
-0.4721052
-0.1277487
-0.1171711
-0.1199057
-0.1227945
-0.1294001
-0.1089804
-0.1102272
-0.1059782
-0.1123177
-0.1121141
-0.1024963
-0.09694231
-0.104788
-0.1002611
-0.08109565
-0.08979515
-0.08077125
-0.09421885
-0.0847975
-0.06295097
-0.07346641
-0.06124655
-0.08420737
-0.06903516
-0.07792761
-0.06312295
-0.04945836
-0.05457969
-0.04177197
-0.06529478
-0.04621093
-0.05700486
-0.04215723
-0.03326292
-0.03684588
-0.02744492
-0.03896913
-0.02873818
-0.01130212
-0.01469842
-0.01148715
-0.01573078
-0.01187323
-0.1212391
-0.1221056
-0.1211977
-0.1211753
-0.121072
-0.1309164
-0.1326608
-0.1311784
-0.129134
-0.1316001
-0.1481691
-0.1528915
-0.149515
-0.1449453
-0.149171
-0.1735464
-0.1728328
-0.1638598
-0.1676566
-0.1812112
-0.1788423
-0.1913503
-0.200161
-0.194806
-0.1952146
-0.2012557
-0.2155569
-0.2096231
0.1032688
-0.1431787
-0.0156882
0.1025885
-0.1508466
0.06662282
0.08354301
0.04944704
0.03260389
0.04293123
0.03076526
0.01754414
0.02075795
0.01589361
-0.2360743
-0.2338934
-0.2380803
-0.2238731
-0.2298794
-0.2363419
-0.4060734
-0.4709997
-0.2533391
-0.4078516
-0.4707978
-0.445787
-0.4492252
-0.4354978
-0.4560065
-0.4273789
-0.4170368
-0.4335201
-0.4188629
-0.2690037
-0.2641786
-0.2517985
-0.2633484
-0.2748259
-0.2801882
-0.2901238
-0.2775358
-0.2922397
-0.2984434
-0.2978085
-0.3031294
-0.3162322
-0.3198667
-0.3109784
-0.3158317
-0.3186576
-0.3325016
-0.3283281
-0.3319923
-0.3290116
-0.3398624
-0.3272958
-0.3461423
-0.3395783
-0.3483701
-0.3439276
-0.3432143
-0.3590227
-0.3548253
-0.3419447
-0.3624722
-0.3665756
-0.3594227
-0.3444105
-0.3739222
-0.3441402
-0.3501088
-0.3779013
-0.3727317
-0.3759337
-0.367336
-0.3755947
-0.3538411
-0.360238
-0.3800589
-0.3631192
-0.3893572
-0.3770075
-0.3904663
-0.3940561
-0.3979998
-0.3916009
-0.3990554
-0.4000388
-0.3949509
-0.3999244
-0.3968951
-0.4030301
-0.3970499
-0.4091735
-0.4121663
-0.4095714
-0.4094613
-0.4221911
-0.4218033
-0.4204438
-0.4215436
-0.4296861
-0.4228263
-0.4199471
-0.4374151
-0.4343146
-0.4520179
-0.4323086
-0.4354033
-0.4465685
-0.4466136
-0.4453519
-0.4439144
-0.4629605
-0.4407718
-0.4595884
-0.4625597