/*--------------------------------*- C++ -*----------------------------------*\
  =========                 |
  \\      /  F ield         | OpenFOAM: The Open Source CFD Toolbox
   \\    /   O peration     | Website:  https://openfoam.org
    \\  /    A nd           | Version:  7
     \\/     M anipulation  |
\*---------------------------------------------------------------------------*/
FoamFile
{
    version     2.0;
    format      ascii;
    class       volScalarField;
    location    "0.1";
    object      Ux;
}
// * * * * * * * * * * * * * * * * * * * * * * * * * * * * * * * * * * * * * //

dimensions      [0 1 -1 0 0 0 0];

internalField   nonuniform List<scalar> 
109978
(
-1.133641
-1.028307
-0.9410361
-0.8708756
-0.8117905
-0.7613076
-1.05179
-0.9809595
-0.9135068
-0.8535317
-0.8009947
-0.7542679
-0.9743482
-0.9284706
-0.8775247
-0.8269049
-0.7816189
-0.7398598
-0.9006764
-0.8723241
-0.8348529
-0.7946732
-0.7567242
-0.7202581
-0.840947
-0.8216463
-0.7935897
-0.761285
-0.7294997
-0.6981174
-0.7882531
-0.7753275
-0.7539767
-0.7285345
-0.7019707
-0.6750009
-0.7437053
-0.734355
-0.7175817
-0.6966402
-0.6745473
-0.6515606
-0.7041681
-0.6972328
-0.6840297
-0.6667563
-0.6485385
-0.6285118
-0.6693276
-0.663884
-0.6533463
-0.638783
-0.6231797
-0.6060609
-0.6380586
-0.6336246
-0.6251128
-0.6126431
-0.5992798
-0.5845681
-0.6098984
-0.6063051
-0.5991461
-0.588343
-0.5767878
-0.5640713
-0.5843059
-0.5813016
-0.5752045
-0.5657757
-0.5556654
-0.5443796
-0.5609167
-0.5583359
-0.5530933
-0.5447756
-0.5358545
-0.5257834
-0.5394465
-0.5371332
-0.5326889
-0.5252234
-0.5172327
-0.508201
-0.5196648
-0.517527
-0.513696
-0.5070167
-0.4997387
-0.491591
-0.501368
-0.4992994
-0.4960016
-0.490024
-0.4833314
-0.4759264
-0.4843777
-0.4823016
-0.4795652
-0.4740593
-0.4679502
-0.4611773
-0.4685649
-0.4662707
-0.4641553
-0.4592333
-0.4535291
-0.447271
-0.4538277
-0.4514077
-0.4494865
-0.4453607
-0.4399749
-0.4341438
-0.440081
-0.437613
-0.4355853
-0.432303
-0.4272247
-0.42177
-0.4272404
-0.4247645
-0.4225264
-0.4200282
-0.4152442
-0.4101499
-0.4152274
-0.4127732
-0.4104366
-0.4084809
-0.4040519
-0.3992205
-0.3847954
-0.4015592
-0.3992142
-0.3976426
-0.3936062
-0.3889333
-0.7461348
-0.5845411
-0.522559
-0.4785857
-0.4434749
-0.4145758
-1.286413
-1.118325
-1.004175
-0.9206575
-0.851837
-0.7949096
-1.110985
-1.024453
-0.9474656
-0.8876057
-0.830879
-0.7817999
-1.016595
-0.9693714
-0.9075651
-0.8603776
-0.8091663
-0.7655743
-0.9164902
-0.8887032
-0.8500255
-0.8166227
-0.7779452
-0.7421452
-0.8517735
-0.8393248
-0.8068009
-0.7806977
-0.7474362
-0.716577
-0.7928458
-0.783873
-0.7609017
-0.7417088
-0.7155641
-0.6901643
-0.7462837
-0.7421521
-0.7228562
-0.7078696
-0.6859088
-0.664324
-0.704734
-0.7019434
-0.6866007
-0.6751626
-0.6571869
-0.6390791
-0.6689802
-0.6677733
-0.6546472
-0.6456391
-0.6304566
-0.6149976
-0.6369233
-0.6363437
-0.6251683
-0.6180951
-0.6052407
-0.5920406
-0.6082512
-0.6082494
-0.5984276
-0.5928008
-0.5817376
-0.5703619
-0.5822499
-0.5825503
-0.5738403
-0.5693494
-0.559743
-0.549879
-0.5585905
-0.5590973
-0.5512491
-0.5476394
-0.5392083
-0.5305937
-0.5369106
-0.5375325
-0.5303992
-0.5274629
-0.520002
-0.51244
-0.5169015
-0.5176433
-0.5111102
-0.5086923
-0.502034
-0.4953751
-0.4984087
-0.4992291
-0.4932043
-0.491202
-0.4852171
-0.4793275
-0.4812664
-0.482132
-0.4764991
-0.4748926
-0.4695168
-0.4642302
-0.4653412
-0.4662496
-0.461005
-0.4596436
-0.454727
-0.4500171
-0.4505139
-0.4514459
-0.4465318
-0.4453921
-0.440868
-0.4366344
-0.4366855
-0.4376337
-0.433005
-0.4320577
-0.427863
-0.4240279
-0.4237695
-0.4247278
-0.4203456
-0.4195659
-0.415661
-0.4121617
-0.4116898
-0.4126663
-0.4085027
-0.407873
-0.4041982
-0.4009774
-0.3945199
-0.4013822
-0.3974019
-0.3968917
-0.393439
-0.3904759
-0.7343751
-0.5820212
-0.5215072
-0.4789173
-0.4427834
-0.4128277
-1.289108
-1.131504
-1.014239
-0.9308748
-0.859681
-0.801077
-1.112002
-1.022661
-0.9505378
-0.8891111
-0.8337374
-0.7840249
-1.027404
-0.9731514
-0.9132741
-0.8616309
-0.8106521
-0.7656699
-0.9130825
-0.888154
-0.853913
-0.8167143
-0.7797969
-0.7422087
-0.8585174
-0.8401896
-0.8113822
-0.7812052
-0.7488285
-0.7165509
-0.7955292
-0.7837775
-0.7650223
-0.7418963
-0.716896
-0.690545
-0.7502355
-0.7425477
-0.7271871
-0.7081342
-0.6869597
-0.6644281
-0.7073318
-0.7020135
-0.6906855
-0.6753431
-0.6581289
-0.6392536
-0.6714535
-0.6679859
-0.6587205
-0.6458944
-0.6312746
-0.6150739
-0.6387824
-0.6364883
-0.6290835
-0.6183293
-0.6059997
-0.5921108
-0.6098046
-0.6084333
-0.602261
-0.5930585
-0.5824524
-0.5703771
-0.5834612
-0.5827257
-0.5775618
-0.5696096
-0.5604334
-0.5498684
-0.5595351
-0.559278
-0.5548782
-0.5479173
-0.5398917
-0.5305561
-0.5376214
-0.5376986
-0.53392
-0.5277732
-0.5206957
-0.5123789
-0.5174818
-0.5177968
-0.5145208
-0.5090539
-0.5027566
-0.4952764
-0.4988904
-0.4993707
-0.4965162
-0.4916247
-0.4859703
-0.4791855
-0.4816718
-0.4822646
-0.4797675
-0.4753704
-0.4702511
-0.464052
-0.4656862
-0.466357
-0.4641503
-0.4601736
-0.4555206
-0.44982
-0.4508162
-0.4515364
-0.4495754
-0.4459492
-0.4416986
-0.4364354
-0.4369621
-0.43771
-0.4359593
-0.4326224
-0.4287187
-0.4238434
-0.424039
-0.4247948
-0.4232246
-0.4201316
-0.4165306
-0.4119981
-0.4119675
-0.4127201
-0.4113054
-0.408419
-0.4050874
-0.4008558
-0.4006764
-0.4014225
-0.4001439
-0.3974352
-0.394352
-0.3903862
-0.7366821
-0.5827309
-0.5194013
-0.4781369
-0.4455043
-0.4165153
-1.30923
-1.131953
-1.013706
-0.9300516
-0.8586228
-0.8011293
-1.115733
-1.01738
-0.9462572
-0.8861798
-0.8313563
-0.7822084
-1.036336
-0.9731366
-0.9123199
-0.8615932
-0.8092378
-0.7644582
-0.9260569
-0.8835577
-0.8509813
-0.8159757
-0.7780371
-0.7416381
-0.8645659
-0.8401619
-0.811245
-0.7814653
-0.7481234
-0.7164007
-0.8027931
-0.7825185
-0.7635179
-0.7415219
-0.7161961
-0.6903786
-0.7560535
-0.7423834
-0.7263615
-0.7082385
-0.6865633
-0.6643663
-0.713179
-0.7015321
-0.6895611
-0.6752678
-0.6577363
-0.6391835
-0.6767696
-0.6677988
-0.6577774
-0.6459343
-0.6310056
-0.6150692
-0.6439045
-0.6362537
-0.6281069
-0.618337
-0.6057544
-0.5921253
-0.6146329
-0.6082738
-0.6013388
-0.593094
-0.582252
-0.5704345
-0.5880699
-0.582575
-0.5766526
-0.5696409
-0.560246
-0.5499482
-0.5639115
-0.5591556
-0.5539932
-0.5479511
-0.5397133
-0.530658
-0.5417811
-0.5375975
-0.5330534
-0.5277975
-0.520515
-0.5124968
-0.5214294
-0.5177209
-0.5136738
-0.5090591
-0.5025656
-0.4954132
-0.5026359
-0.4993199
-0.495683
-0.4915981
-0.4857649
-0.4793422
-0.485229
-0.4822426
-0.4789458
-0.4753061
-0.4700309
-0.4642249
-0.4690674
-0.4663624
-0.4633556
-0.4600802
-0.4552726
-0.4500002
-0.4540281
-0.451565
-0.4488036
-0.4458376
-0.4414305
-0.4366157
-0.4400109
-0.4377578
-0.4352056
-0.4325019
-0.428438
-0.4240174
-0.4269281
-0.4248583
-0.4224848
-0.4200068
-0.4162414
-0.4121627
-0.4147037
-0.4127977
-0.4105788
-0.4082957
-0.4047874
-0.4010049
-0.4032748
-0.4015136
-0.3994288
-0.3973151
-0.3940338
-0.3905124
-0.7299768
-0.5843156
-0.521873
-0.4785553
-0.4429782
-0.4133314
-1.30909
-1.145598
-1.020297
-0.9288246
-0.8591267
-0.7997744
-1.102754
-1.014783
-0.9448722
-0.8845061
-0.8297317
-0.7785965
-1.036015
-0.9698938
-0.9092089
-0.8606837
-0.8099093
-0.7646578
-0.9243481
-0.8820776
-0.8510194
-0.8156498
-0.7788515
-0.7421828
-0.8626924
-0.8399553
-0.8117141
-0.7815225
-0.7487967
-0.7165401
-0.8013608
-0.7820257
-0.7637696
-0.7413686
-0.7164688
-0.6903751
-0.7549675
-0.7421706
-0.7267859
-0.7082069
-0.6868884
-0.6643836
-0.7121836
-0.7012244
-0.6899139
-0.6751948
-0.6580072
-0.6392132
-0.6759175
-0.6675784
-0.6581724
-0.6459009
-0.6312726
-0.6150931
-0.6431164
-0.6360178
-0.628477
-0.6182949
-0.6060046
-0.592151
-0.6139143
-0.6080655
-0.6017136
-0.5930643
-0.5824956
-0.570452
-0.5873992
-0.5823712
-0.5770174
-0.5696128
-0.5604821
-0.549963
-0.5632861
-0.5589633
-0.5543542
-0.5479288
-0.5399444
-0.5306694
-0.5411945
-0.5374118
-0.5334078
-0.5277802
-0.5207416
-0.5125065
-0.5208769
-0.5175427
-0.5140231
-0.5090472
-0.5027882
-0.4954207
-0.5021138
-0.4991484
-0.4960273
-0.4915923
-0.485984
-0.4793482
-0.4847343
-0.482078
-0.4792874
-0.4753063
-0.4702456
-0.464229
-0.4685962
-0.4662012
-0.463687
-0.4600872
-0.4554911
-0.4500043
-0.4535785
-0.451407
-0.4491267
-0.4458498
-0.441652
-0.4366213
-0.4395812
-0.4376023
-0.4355212
-0.4325173
-0.4286623
-0.4240259
-0.4265174
-0.4247047
-0.4227949
-0.4200259
-0.4164708
-0.4121791
-0.4143108
-0.4126437
-0.4108843
-0.4083123
-0.4050216
-0.4010273
-0.4028965
-0.4013571
-0.399732
-0.3973352
-0.3942817
-0.3905574
-0.7202636
-0.585725
-0.5218616
-0.4785907
-0.44549
-0.4169432
-1.311089
-1.141433
-1.019568
-0.9285739
-0.8590034
-0.7997253
-1.10018
-1.014853
-0.9450436
-0.884506
-0.8297463
-0.7785871
-1.03713
-0.9698105
-0.9091384
-0.8606268
-0.809902
-0.76465
-0.92559
-0.8820874
-0.8510276
-0.8156466
-0.7788517
-0.7421812
-0.8634246
-0.839961
-0.8117097
-0.7815188
-0.7487954
-0.7165387
-0.802055
-0.7820268
-0.7637696
-0.7413678
-0.7164683
-0.6903745
-0.7556136
-0.7421711
-0.7267856
-0.7082065
-0.686888
-0.6643833
-0.7127716
-0.7012244
-0.6899139
-0.6751946
-0.6580071
-0.639213
-0.6764691
-0.6675785
-0.6581724
-0.6459009
-0.6312724
-0.6150931
-0.6436333
-0.6360179
-0.628477
-0.6182948
-0.6060045
-0.5921508
-0.6144022
-0.6080655
-0.6017136
-0.5930643
-0.5824956
-0.5704521
-0.5878612
-0.5823712
-0.5770174
-0.5696127
-0.560482
-0.5499629
-0.5637239
-0.5589633
-0.5543542
-0.5479287
-0.5399442
-0.5306693
-0.5416101
-0.5374119
-0.5334078
-0.52778
-0.5207414
-0.5125062
-0.5212729
-0.5175429
-0.514023
-0.5090469
-0.5027878
-0.4954203
-0.502492
-0.4991487
-0.4960272
-0.4915919
-0.4859832
-0.4793473
-0.4850965
-0.4820786
-0.4792871
-0.4753056
-0.4702441
-0.4642276
-0.468944
-0.4662022
-0.4636866
-0.4600863
-0.4554886
-0.4500016
-0.4539133
-0.451409
-0.4491258
-0.4458483
-0.441647
-0.436616
-0.4399043
-0.4376057
-0.4355195
-0.4325152
-0.4286539
-0.4240186
-0.4268308
-0.424711
-0.4227921
-0.420023
-0.4164542
-0.4121631
-0.4146169
-0.4126545
-0.4108794
-0.4083116
-0.404994
-0.401006
-0.4031979
-0.4013762
-0.3997258
-0.3973354
-0.3942329
-0.3905056
-0.7315795
-0.5898022
-0.5235874
-0.4787378
-0.4442518
-0.4152028
-1.305274
-1.131874
-1.01375
-0.9301554
-0.858657
-0.8011598
-1.098449
-1.01744
-0.9463212
-0.886187
-0.8313505
-0.7822099
-1.038316
-0.9731727
-0.9123246
-0.8615801
-0.8092376
-0.7644586
-0.9271514
-0.8835598
-0.8509847
-0.8159737
-0.7780367
-0.7416375
-0.8648566
-0.8401639
-0.8112462
-0.7814635
-0.7481229
-0.7163999
-0.8031515
-0.7825189
-0.7635182
-0.7415212
-0.7161956
-0.6903782
-0.7564593
-0.7423837
-0.7263616
-0.7082382
-0.6865631
-0.6643659
-0.7135976
-0.7015323
-0.689561
-0.6752677
-0.6577361
-0.6391833
-0.6772252
-0.6677987
-0.6577773
-0.6459341
-0.6310055
-0.6150691
-0.644375
-0.6362535
-0.6281068
-0.6183369
-0.6057543
-0.5921254
-0.6151191
-0.6082736
-0.6013387
-0.5930939
-0.5822518
-0.5704343
-0.5885641
-0.5825751
-0.5766524
-0.5696408
-0.5602458
-0.5499482
-0.5644116
-0.5591558
-0.553993
-0.547951
-0.5397132
-0.5306579
-0.5422837
-0.5375976
-0.5330532
-0.5277974
-0.520515
-0.5124969
-0.5219329
-0.5177205
-0.5136738
-0.5090589
-0.5025657
-0.4954135
-0.5031397
-0.4993194
-0.495683
-0.4915981
-0.4857653
-0.4793428
-0.4857319
-0.4822418
-0.4789461
-0.4753063
-0.4700323
-0.4642264
-0.4695685
-0.4663609
-0.4633563
-0.4600804
-0.4552754
-0.4500026
-0.4545273
-0.4515621
-0.4488055
-0.4458384
-0.4414364
-0.4366217
-0.4405081
-0.4377527
-0.4352096
-0.4325003
-0.4284475
-0.4240256
-0.4274244
-0.424849
-0.422492
-0.420006
-0.4162632
-0.4121891
-0.4152014
-0.4127817
-0.4105953
-0.4082806
-0.4048195
-0.4010327
-0.4037719
-0.4014863
-0.3994529
-0.3972987
-0.3941085
-0.3906194
-0.7309386
-0.5912256
-0.5267383
-0.4784983
-0.4433307
-0.4140173
-1.294926
-1.131514
-1.01424
-0.9308056
-0.8596553
-0.8010533
-1.101584
-1.022645
-0.9505387
-0.8891086
-0.8337362
-0.7840193
-1.036983
-0.97315
-0.9132704
-0.8616264
-0.8106484
-0.7656668
-0.9300547
-0.8881549
-0.8539148
-0.8167126
-0.7797952
-0.7422065
-0.8646595
-0.8401902
-0.8113818
-0.7812037
-0.7488275
-0.7165496
-0.8033651
-0.7837778
-0.7650222
-0.7418954
-0.7168952
-0.6905441
-0.7561943
-0.742548
-0.7271866
-0.7081334
-0.6869592
-0.6644277
-0.7134317
-0.7020134
-0.690685
-0.6753423
-0.6581285
-0.6392533
-0.6769639
-0.6679861
-0.6587201
-0.6458938
-0.6312743
-0.6150737
-0.6441569
-0.6364885
-0.629083
-0.6183286
-0.6059994
-0.5921108
-0.6149016
-0.6084335
-0.6022607
-0.5930578
-0.5824522
-0.5703771
-0.5883683
-0.5827257
-0.5775615
-0.5696089
-0.5604332
-0.5498684
-0.5642299
-0.5592781
-0.5548778
-0.5479165
-0.5398914
-0.530556
-0.5421126
-0.5376986
-0.5339197
-0.5277723
-0.5206951
-0.5123788
-0.5217676
-0.5177972
-0.5145205
-0.5090529
-0.5027558
-0.4952761
-0.5029769
-0.4993713
-0.4965158
-0.4916234
-0.485969
-0.4791849
-0.4855679
-0.4822655
-0.479767
-0.4753687
-0.4702493
-0.4640509
-0.469401
-0.4663582
-0.4641497
-0.4601714
-0.4555176
-0.4498179
-0.4543539
-0.4515383
-0.4495745
-0.4459466
-0.4416932
-0.4364307
-0.4403289
-0.437713
-0.4359577
-0.4326186
-0.4287089
-0.4238355
-0.4272397
-0.4248004
-0.4232221
-0.4201262
-0.416511
-0.4119793
-0.4150109
-0.4127296
-0.4113017
-0.4084131
-0.4050461
-0.4008263
-0.4035785
-0.4014444
-0.4001452
-0.3974321
-0.3942702
-0.3902973
-0.7421417
-0.5913603
-0.5266648
-0.4817256
-0.4464632
-0.4168772
-1.309014
-1.118345
-1.004176
-0.9206501
-0.8518312
-0.7949033
-1.115041
-1.024457
-0.9474687
-0.887603
-0.830877
-0.7817965
-1.037651
-0.9693823
-0.9075659
-0.8603751
-0.8091644
-0.7655738
-0.9317662
-0.8887037
-0.8500256
-0.8166211
-0.7779435
-0.7421441
-0.8675968
-0.8393248
-0.8068012
-0.7806969
-0.7474352
-0.7165764
-0.8064459
-0.7838733
-0.7609013
-0.7417081
-0.7155633
-0.6901638
-0.7587913
-0.7421529
-0.7228555
-0.7078694
-0.6859082
-0.6643238
-0.7159559
-0.7019439
-0.6865996
-0.6751625
-0.6571863
-0.639079
-0.6792517
-0.6677739
-0.6546463
-0.6456392
-0.6304565
-0.6149975
-0.6463155
-0.6363445
-0.6251673
-0.6180951
-0.6052406
-0.5920404
-0.6169188
-0.6082499
-0.5984266
-0.5928003
-0.5817374
-0.5703617
-0.5902799
-0.582551
-0.5738391
-0.5693488
-0.5597428
-0.5498788
-0.5660393
-0.5590982
-0.5512479
-0.5476386
-0.539208
-0.5305934
-0.5438333
-0.5375332
-0.5303979
-0.527462
-0.5200018
-0.5124399
-0.5234069
-0.5176437
-0.511109
-0.5086915
-0.5020338
-0.4953749
-0.5045401
-0.4992289
-0.4932034
-0.4912016
-0.4852175
-0.4793276
-0.4870607
-0.4821311
-0.4764984
-0.4748922
-0.4695182
-0.4642314
-0.470831
-0.4662475
-0.4610051
-0.4596431
-0.4547296
-0.4500191
-0.455726
-0.4514415
-0.4465336
-0.4453919
-0.4408749
-0.4366427
-0.4416458
-0.4376253
-0.4330115
-0.4320523
-0.427875
-0.4240388
-0.4285007
-0.4247107
-0.4203578
-0.4195605
-0.4156952
-0.4122111
-0.4162148
-0.4126369
-0.4085358
-0.4078298
-0.4042568
-0.4010392
-0.3945393
-0.4013243
-0.3974471
-0.3968349
-0.3936206
-0.3907838
-0.1225572
-0.1106306
-0.097717
-0.08886717
-0.08221375
-0.07666778
-1.373073
-1.1641
-1.034681
-0.9447502
-0.8744117
-0.8150621
-0.7638398
-1.181475
-1.070683
-0.9832712
-0.9160336
-0.8582357
-0.8061033
-0.7594051
-1.053469
-0.9863722
-0.9290242
-0.8793366
-0.8305925
-0.7850558
-0.742622
-0.9541119
-0.9085536
-0.8711479
-0.8360662
-0.7978861
-0.759856
-0.7229865
-0.8812801
-0.8461851
-0.8189394
-0.7951437
-0.7647585
-0.7329772
-0.7011617
-0.8207186
-0.7904767
-0.7731251
-0.7553075
-0.7317678
-0.705375
-0.6779538
-0.770491
-0.7441676
-0.7292599
-0.7188564
-0.7003086
-0.6782296
-0.6546234
-0.7273187
-0.7030477
-0.6920932
-0.6852633
-0.6705588
-0.651962
-0.6315614
-0.6897355
-0.666874
-0.6586671
-0.6545579
-0.6425487
-0.6268595
-0.6093291
-0.6564495
-0.6343835
-0.6283989
-0.6262131
-0.6164194
-0.6031319
-0.5878573
-0.6266725
-0.6051544
-0.6009002
-0.6000837
-0.5920965
-0.5808287
-0.5672463
-0.5998055
-0.5786376
-0.5757482
-0.57599
-0.569431
-0.5597085
-0.5477497
-0.5753672
-0.5544636
-0.5526502
-0.5537101
-0.5482892
-0.5398476
-0.5292847
-0.5530068
-0.5323095
-0.5313671
-0.5330733
-0.5285824
-0.5212023
-0.5118036
-0.5324168
-0.5119104
-0.511664
-0.5138525
-0.5102334
-0.5036925
-0.4952996
-0.5133881
-0.493048
-0.4933714
-0.4958425
-0.4931009
-0.4872262
-0.4796312
-0.4957466
-0.4755499
-0.4763981
-0.4778142
-0.4768219
-0.4716998
-0.4648271
-0.4793502
-0.4592916
-0.4605501
-0.4623742
-0.4618164
-0.4571551
-0.4508849
-0.4640888
-0.4441572
-0.4457414
-0.4479095
-0.4477213
-0.4434916
-0.4377532
-0.4498672
-0.4300489
-0.431944
-0.4344008
-0.4344648
-0.4306499
-0.425365
-0.4365917
-0.4168945
-0.4190879
-0.421785
-0.4220039
-0.4185888
-0.4136633
-0.4241844
-0.4046208
-0.4070832
-0.4100034
-0.4103299
-0.4072021
-0.4026652
-0.4125975
-0.3999929
-0.3958524
-0.3989681
-0.399355
-0.3964373
-0.3923175
-1.265087
-0.1103005
-1.433931
-1.261138
-1.219224
-1.116683
-0.1224719
-0.1012349
-1.135436
-1.083546
-1.081115
-1.006305
-0.1106215
-0.09103602
-1.008348
-0.9674082
-0.9779098
-0.924031
-0.0977166
-0.08217566
-0.9156783
-0.879123
-0.8991918
-0.8582501
-0.08887369
-0.07552796
-0.8433658
-0.8132872
-0.8359424
-0.8033763
-0.08221577
-0.07038417
-0.7844852
-0.7591735
-0.7825826
-0.07667538
-0.7344126
-1.196024
-1.151306
-1.37312
-1.260086
-1.263432
-1.20866
-1.074584
-1.034954
-1.181456
-1.119775
-1.098152
-1.072951
-0.9856748
-0.9689668
-1.053461
-1.020007
-0.9948668
-0.981515
-0.901565
-0.8924516
-0.9540944
-0.9325525
-0.9099525
-0.9002211
-0.8383426
-0.8362802
-0.8812672
-0.8669515
-0.8464722
-0.8390443
-0.7812337
-0.783866
-0.8207137
-0.8097119
-0.7913217
-0.7848422
-0.7350579
-0.7396601
-0.7704919
-0.76262
-0.7457131
-0.7401429
-0.6935984
-0.6999938
-0.7273201
-0.720883
-0.7055628
-0.700481
-0.6574303
-0.6650186
-0.6897338
-0.6846695
-0.6705638
-0.6659173
-0.6251834
-0.6335622
-0.656447
-0.6523004
-0.6392386
-0.6349122
-0.5963326
-0.6051799
-0.6266728
-0.6232764
-0.6111246
-0.6070297
-0.5702274
-0.5793357
-0.5998057
-0.5969508
-0.5856386
-0.5816657
-0.5464471
-0.5557058
-0.5753684
-0.5729296
-0.5623911
-0.5585067
-0.5247062
-0.5339736
-0.5530066
-0.5508895
-0.5410389
-0.5372469
-0.5047554
-0.5139417
-0.5324159
-0.5305911
-0.5213384
-0.5176369
-0.4863331
-0.4953856
-0.5133864
-0.5118243
-0.5030946
-0.4994717
-0.4692684
-0.4781607
-0.4957417
-0.4944129
-0.4861521
-0.482604
-0.4534287
-0.4621452
-0.4793477
-0.4782278
-0.4703994
-0.4669271
-0.4386856
-0.4472309
-0.464086
-0.463155
-0.4557245
-0.4523358
-0.4249648
-0.433318
-0.4498602
-0.4490973
-0.4420356
-0.4387326
-0.4121624
-0.4203141
-0.4365815
-0.4359722
-0.4292555
-0.4260341
-0.4001971
-0.408127
-0.4241771
-0.4237084
-0.4173232
-0.414164
-0.3889922
-0.3895715
-0.412586
-0.4122471
-0.4061669
-0.403072
-0.2869262
-1.400798
-1.210776
-0.1556284
-1.39736
-1.205635
-0.2669041
-1.397205
-1.200964
-0.1507629
-1.393406
-1.201077
-0.2679454
-1.39928
-1.198059
-0.1508574
-1.394355
-1.198859
-0.2622081
-1.398805
-1.200063
-0.2391313
-1.391987
-1.170263
-0.1570819
-1.392921
-1.198321
-0.2617313
-1.398306
-1.195901
-0.1500725
-1.393647
-1.200159
-0.2675696
-1.398647
-1.198774
-0.1507194
-1.393372
-1.201023
-0.2667152
-1.39732
-1.200972
-0.1555933
-1.397463
-1.205712
-0.287212
-1.40077
-1.210859
-0.1103864
-1.433727
-1.261221
-1.265086
-0.1012501
-1.13547
-1.083574
-1.219229
-1.116697
-0.09103799
-1.008367
-0.9674105
-1.081135
-1.006297
-0.08217501
-0.915666
-0.8791208
-0.9778952
-0.9240379
-0.07552107
-0.8433727
-0.8132927
-0.8991887
-0.8582291
-0.07037855
-0.7844747
-0.7591777
-0.8359184
-0.8033645
-0.9325559
-0.9099687
-0.9002285
-0.9015642
-0.89248
-0.8097157
-0.7913207
-0.7848451
-0.7812405
-0.7838638
-0.7626184
-0.7456979
-0.7401431
-0.7350541
-0.7396462
-0.7208807
-0.7055629
-0.700484
-0.6935863
-0.6999879
-0.6846701
-0.6705707
-0.665925
-0.6574254
-0.6650183
-0.652303
-0.6392383
-0.6349151
-0.6251951
-0.6335559
-0.5729291
-0.5623894
-0.5585078
-0.5464367
-0.5556997
-0.5508896
-0.5410389
-0.5372478
-0.5247013
-0.5339703
-0.5305916
-0.5213391
-0.5176382
-0.5047519
-0.5139393
-0.5118256
-0.5030957
-0.4994747
-0.4863304
-0.4953828
-0.47823
-0.4704019
-0.4669308
-0.4534292
-0.4621454
-0.4631578
-0.4557288
-0.4523416
-0.4386857
-0.4472328
-0.4359791
-0.4292692
-0.4260468
-0.4121939
-0.4203466
-0.4237176
-0.4173467
-0.4141847
-0.4002367
-0.4081876
-0.4122627
-0.4062022
-0.4030992
-0.3890662
-0.3896961
-0.8693833
-1.277461
-0.7252461
-1.079834
-0.7796427
-0.9960017
-0.6264726
-0.9209047
-0.6539018
-0.8723601
-0.5657122
-0.8257202
-0.5878006
-0.7918826
-0.5203199
-0.7553429
-0.5389323
-0.7297078
-0.4835153
-0.6997855
-0.5002365
-0.6792486
-0.4524806
-0.6536964
-0.4676578
-0.6366529
-1.283734
-1.263834
-1.307832
-1.203837
-1.121889
-1.126928
-1.141989
-1.086751
-1.013679
-1.022159
-1.031341
-0.9932131
-0.9242515
-0.9329704
-0.9337373
-0.911693
-0.8551879
-0.8646309
-0.8627801
-0.847935
-0.7974824
-0.8065133
-0.8034654
-0.7934852
-0.7493802
-0.757622
-0.7556394
-0.7469289
-0.707405
-0.7149191
-0.7135217
-0.7065015
-0.6709281
-0.675384
-0.6767671
-0.6709302
-0.6385909
-0.639266
-0.6441063
-0.6392126
-0.6096408
-0.6092463
-0.614849
-0.610676
-0.583444
-0.5836187
-0.588453
-0.5848216
-0.5595504
-0.5602164
-0.5644642
-0.5612391
-0.5376564
-0.5387483
-0.5425177
-0.5395921
-0.5175096
-0.5189866
-0.5223474
-0.5196558
-0.4989239
-0.5007119
-0.503745
-0.5012276
-0.4817336
-0.4837556
-0.4865215
-0.4841317
-0.4657928
-0.4679941
-0.4705313
-0.4682388
-0.4509743
-0.4533113
-0.4556542
-0.4534288
-0.437173
-0.43961
-0.44179
-0.4396179
-0.4243009
-0.4268077
-0.4288495
-0.426712
-0.4122781
-0.4148214
-0.4167561
-0.4146374
-0.4010295
-0.4036031
-0.4054479
-0.4033123
-0.8549282
-0.8831597
-0.8730149
-0.8890176
-0.8776309
-0.8941455
-0.8773139
-0.894571
-0.894521
-0.8788359
-0.8955749
-0.877588
-0.885126
-0.8766449
-0.8643635
-0.8665303
-0.9193498
-0.8714082
-0.7344097
-0.7825556
-1.260099
-1.263418
-1.208667
-1.196033
-1.151302
-1.119773
-1.098157
-1.072953
-1.074577
-1.034948
-1.020009
-0.9948872
-0.9815233
-0.985676
-0.9689691
-0.8669547
-0.8464821
-0.8390518
-0.8383457
-0.8362813
-0.6232795
-0.6111302
-0.6070374
-0.5963271
-0.6051844
-0.5969565
-0.5856291
-0.5816679
-0.5702422
-0.5793345
-0.4944175
-0.4861574
-0.4826084
-0.4692661
-0.4781648
-0.4491039
-0.4420537
-0.4387438
-0.4249708
-0.4333431
-0.9043007
-1.101729
-0.800718
-1.216776
-1.344964
-1.348228
-1.391418
-1.353879
-0.9207349
-0.8699922
-0.7012874
-0.928776
-0.6746043
-0.9885193
-0.6169226
-0.832969
-0.6022467
-0.8678952
-0.558909
-0.7627979
-0.5513455
-0.7873906
-0.5149261
-0.7077605
-0.5110604
-0.7256704
-0.4789886
-0.662211
-0.4769761
-0.6752097
-1.238471
-1.181345
-1.228141
-1.186788
-1.10254
-1.064702
-1.081208
-1.086894
-0.9953623
-0.9713986
-0.9824225
-0.9884356
-0.9112659
-0.8955136
-0.8971857
-0.9099365
-0.8455872
-0.8334162
-0.832827
-0.8465436
-0.7899007
-0.7810835
-0.7786637
-0.7926719
-0.7437727
-0.7359966
-0.7326773
-0.7463918
-0.7029361
-0.6967943
-0.6925927
-0.7063292
-0.6673431
-0.6622813
-0.6575428
-0.671254
-0.6356414
-0.6320557
-0.6263177
-0.6398765
-0.6072087
-0.6057378
-0.5983005
-0.6114071
-0.58148
-0.5822934
-0.5729463
-0.5855066
-0.5580642
-0.5606314
-0.5498495
-0.5618101
-0.5366132
-0.54007
-0.5286996
-0.5397945
-0.5168614
-0.5209669
-0.5092409
-0.5195799
-0.4986176
-0.5028104
-0.491295
-0.5009056
-0.4817089
-0.4857851
-0.4746637
-0.4833508
-0.4660062
-0.4698515
-0.4591976
-0.4669949
-0.4513909
-0.4549119
-0.4447987
-0.4514036
-0.4377676
-0.4409362
-0.4313918
-0.4372078
-0.4250525
-0.4278519
-0.4188877
-0.4240304
-0.413161
-0.4156236
-0.4071953
-0.4118882
-0.4020536
-0.4084647
-0.4007552
-0.3962879
-0.864081
-0.8667389
-0.8878692
-0.8768376
-0.8923343
-0.8771258
-0.8961965
-0.8920876
-0.8771268
-0.8952841
-0.8773587
-0.8943546
-0.8727661
-0.8878317
-0.855825
-0.8842004
-0.86883
-1.277464
-0.701317
-0.9287988
-0.6745787
-0.9885316
-0.626452
-0.9209341
-0.6538898
-0.8723663
-0.9242349
-0.9329245
-0.9337286
-0.9116804
-0.7975003
-0.8064597
-0.8034743
-0.7934729
-0.7899078
-0.781075
-0.7786697
-0.7926641
-0.7493845
-0.7576229
-0.7556451
-0.7469277
-0.6356391
-0.6320893
-0.6263136
-0.6398642
-0.5595453
-0.5602109
-0.5644611
-0.5612359
-0.5580619
-0.560596
-0.5498446
-0.561795
-0.5376546
-0.5387452
-0.5425157
-0.5395898
-0.5366125
-0.5400462
-0.5286967
-0.5397886
-0.5175089
-0.5189842
-0.522347
-0.5196542
-0.5168627
-0.5209594
-0.5092398
-0.5195774
-0.4989245
-0.5007098
-0.5037467
-0.5012273
-0.4986184
-0.5028208
-0.4912944
-0.5008916
-0.4657975
-0.4679939
-0.470531
-0.4682416
-0.4660092
-0.4698545
-0.459199
-0.4670034
-0.4509783
-0.4533107
-0.4556566
-0.4534329
-0.4513965
-0.4549371
-0.4448008
-0.4514178
-0.4243288
-0.4268442
-0.4288557
-0.4267235
-0.4250747
-0.4278667
-0.4189122
-0.423991
-0.4123136
-0.4148427
-0.4167771
-0.4146713
-0.4132022
-0.4156652
-0.4072355
-0.4118911
-0.4010863
-0.4036485
-0.4054812
-0.4033696
-0.4021189
-0.4166531
-0.4007614
-0.396356
-0.2198507
-0.2252922
-0.05330717
-0.06394432
-0.05905045
-0.05979571
-0.0403124
-0.04415076
-0.0434305
-0.04624259
-0.03492446
-0.0381128
-0.03781356
-0.04003098
-0.03133797
-0.03473341
-0.03438847
-0.03606346
-0.02868235
-0.0320897
-0.03193858
-0.03309999
-0.02651259
-0.0299322
-0.0298958
-0.03069017
-0.1474973
-0.1289289
-0.1400386
-0.1858016
-0.1494937
-0.1300538
-0.1488431
-0.1324558
-0.1723177
-0.1373848
-0.1353541
-0.1322777
-0.136171
-0.135135
-0.1408391
-0.1496927
-0.1675308
-0.1337011
-0.06228859
-0.06887076
-0.06346841
-0.06811954
-0.1377117
-0.1299399
-0.04374837
-0.04888161
-0.04454741
-0.04495839
-0.03573579
-0.04179429
-0.03802594
-0.03945993
-0.03133733
-0.03743788
-0.03403235
-0.03583061
-0.02830592
-0.03441201
-0.0312697
-0.03304241
-0.02606366
-0.03205225
-0.02913564
-0.03077075
-0.1443284
-0.1403882
-0.1479248
-0.1431147
-0.1602388
-0.1328561
-0.1447497
-0.1348428
-0.1263731
-0.170982
-0.1605556
-0.1512143
-0.1790714
-0.1475241
-0.153696
-0.1284986
-0.2185612
-0.2248024
-0.9045359
-1.10165
-0.8005575
-1.216783
-1.344598
-1.348138
-1.39137
-1.353817
-0.7252476
-1.079819
-0.779667
-0.9959916
-0.04033101
-0.04415888
-0.04625062
-0.04345232
-0.6169204
-0.8330507
-0.6022985
-0.8679186
-0.5657976
-0.8257834
-0.5879313
-0.7919747
-0.5589729
-0.762807
-0.5512274
-0.7874463
-0.5202519
-0.7553375
-0.5388821
-0.7297022
-0.4835719
-0.699813
-0.5003181
-0.6793499
-0.4790114
-0.6622184
-0.4768416
-0.6752552
-0.9112583
-0.8954864
-0.897176
-0.9099092
-0.7912615
-0.8056257
-0.7969466
-0.7936753
-0.7695895
-0.7714437
-0.7690127
-0.7823
-0.7437845
-0.7359899
-0.7326815
-0.746357
-0.7074028
-0.7149426
-0.7135245
-0.7064981
-0.7029326
-0.6967894
-0.6925862
-0.7063164
-0.6709089
-0.6754417
-0.6767615
-0.6709221
-0.6673227
-0.6622602
-0.6575175
-0.6712593
-0.6385973
-0.6393064
-0.6440961
-0.6392013
-0.6370698
-0.6441277
-0.6384603
-0.6393622
-0.516658
-0.5194984
-0.5163071
-0.5173593
-0.5098174
-0.5083495
-0.5063748
-0.5083426
-0.3983048
-0.4005974
-0.400442
-0.3972947
-0.07773701
-0.0921224
-0.09399178
-0.08944811
-0.8859587
-1.390165
-1.39488
-0.9667436
-0.1539112
-0.1799127
-0.05043692
-0.05505596
-0.04943761
-0.0558565
-0.03905087
-0.04371426
-0.03936344
-0.04153707
-0.03378098
-0.03821818
-0.03450675
-0.03717878
-0.03013327
-0.0344662
-0.03098215
-0.03402951
-0.02740648
-0.03170291
-0.0283823
-0.03152209
-0.02532191
-0.02950602
-0.02631283
-0.02945113
-0.1299418
-0.16104
-0.1357165
-0.1418059
-0.1364921
-0.1329784
-0.1342289
-0.1355374
-0.1441998
-0.1374171
-0.1516397
-0.1543846
-0.1410797
-0.153175
-0.1770838
-0.1414813
-0.1344182
-0.1692372
-0.6537199
-0.4676213
-0.45251
-1.263777
-1.307803
-1.203839
-1.283718
-1.181374
-1.186799
-1.23846
-1.228121
-1.126937
-1.086742
-1.121885
-1.141982
-1.064681
-1.086908
-1.102539
-1.081176
-1.022121
-0.9931863
-1.01366
-1.03132
-0.9713673
-0.9824199
-0.9883617
-0.9953532
-0.8645748
-0.8627736
-0.8479275
-0.8551812
-0.8333799
-0.8328373
-0.8465049
-0.8455979
-0.6092402
-0.6148447
-0.6106659
-0.6096238
-0.5836416
-0.5848091
-0.5834384
-0.5884421
-0.4837508
-0.4865242
-0.4841356
-0.4817212
-0.4396118
-0.4417973
-0.4396305
-0.4371706
-0.4409952
-0.4313937
-0.4372571
-0.4377777
-0.06881348
-0.07725674
-0.07387658
-0.07496349
-0.1423355
-0.1776811
-0.04445036
-0.05057268
-0.04696527
-0.05137221
-0.03630211
-0.04013775
-0.03857212
-0.04190874
-0.03200817
-0.03626714
-0.03445126
-0.03711066
-0.02886606
-0.03335188
-0.03142957
-0.0336198
-0.02652744
-0.0310025
-0.02903448
-0.0310033
-0.1472164
-0.1644097
-0.1603368
-0.1677894
-0.1283782
-0.1523704
-0.141944
-0.1516054
-0.1591812
-0.1315522
-0.1384742
-0.128932
-0.148237
-0.140312
-0.1318294
-0.1667361
-0.150364
-0.1770213
-0.0778254
-0.09220811
-0.08945884
-0.09384584
-0.8848154
-1.389873
-0.9661914
-1.394694
-0.03905688
-0.04372317
-0.04153569
-0.0393795
-0.7668018
-0.7770013
-0.7651455
-0.7682212
-0.6426221
-0.6409102
-0.6499843
-0.6355186
-0.5265666
-0.5256559
-0.5251113
-0.5248202
-0.5206659
-0.5189714
-0.5218296
-0.5156323
-0.4017954
-0.3871422
-0.401774
-0.4015232
-0.4015559
-0.387264
-0.4039326
-0.3949275
-0.4123413
-0.394988
-0.3949231
-0.3952699
-0.3946322
-0.3935304
-1.335508
-1.344801
-1.399709
-1.302115
-1.153807
-1.188892
-1.208795
-1.180862
-1.034685
-1.064927
-1.082823
-1.061256
-0.9410559
-0.9635616
-0.9799625
-0.967145
-0.8704597
-0.8867773
-0.9018009
-0.8925774
-0.8126617
-0.8232827
-0.8366989
-0.8296647
-0.769608
-0.7714592
-0.7822911
-0.7690189
-0.7284057
-0.7274795
-0.7357795
-0.7213374
-0.6903836
-0.6902512
-0.6942643
-0.6838269
-0.6564593
-0.6569982
-0.658149
-0.6511756
-0.6260663
-0.6263573
-0.6267316
-0.6209862
-0.5986138
-0.5982935
-0.5985767
-0.5932127
-0.5735574
-0.5727101
-0.5729692
-0.5681542
-0.550579
-0.5493959
-0.5495838
-0.5455854
-0.5294075
-0.528023
-0.5281118
-0.5252537
-0.5098185
-0.5083444
-0.5083444
-0.5063658
-0.4916557
-0.4902872
-0.4900779
-0.4886607
-0.4747632
-0.4736016
-0.4731616
-0.4720914
-0.4590318
-0.4581099
-0.4574482
-0.4567799
-0.4443598
-0.4437147
-0.4428206
-0.4425545
-0.4306791
-0.4303104
-0.4291792
-0.4292799
-0.4179113
-0.4178092
-0.4164415
-0.4169476
-0.4059742
-0.4061347
-0.404536
-0.405365
-1.467955
-1.411089
-1.46361
-1.429389
-1.233355
-1.25987
-1.243989
-1.242457
-1.094501
-1.124839
-1.106927
-1.103738
-0.9911362
-1.020214
-1.001477
-0.9976988
-0.9101136
-0.9361845
-0.9183479
-0.9142846
-0.8451495
-0.8681122
-0.8517554
-0.8484108
-0.7912608
-0.8056486
-0.7969399
-0.7936548
-0.7452201
-0.752883
-0.7496972
-0.7485009
-0.7046979
-0.7122211