/*--------------------------------*- C++ -*----------------------------------*\
  =========                 |
  \\      /  F ield         | OpenFOAM: The Open Source CFD Toolbox
   \\    /   O peration     | Website:  https://openfoam.org
    \\  /    A nd           | Version:  7
     \\/     M anipulation  |
\*---------------------------------------------------------------------------*/
FoamFile
{
    version     2.0;
    format      ascii;
    class       volScalarField;
    location    "0.1";
    object      Uy;
}
// * * * * * * * * * * * * * * * * * * * * * * * * * * * * * * * * * * * * * //

dimensions      [0 1 -1 0 0 0 0];

internalField   nonuniform List<scalar> 
109978
(
0.3021639
0.3608705
0.3791436
0.3948709
0.4050227
0.4125374
0.2300281
0.308183
0.350817
0.3797703
0.4005398
0.415892
0.1546568
0.2269934
0.2750785
0.3115431
0.3381243
0.3583984
0.1265396
0.193674
0.2432819
0.2810306
0.3106123
0.3338181
0.09712148
0.1539713
0.1978743
0.234778
0.265328
0.2902096
0.08222616
0.1331319
0.1744645
0.2102033
0.240034
0.2652894
0.06855897
0.1128448
0.1498011
0.1827588
0.2114618
0.2366435
0.05972341
0.09926443
0.1330372
0.1640112
0.1916152
0.215653
0.05205754
0.08721337
0.1180751
0.1465892
0.1724897
0.1955455
0.04624567
0.07793641
0.1063244
0.1327134
0.1570315
0.1790898
0.04135829
0.07008024
0.09609052
0.1204909
0.1432751
0.1643327
0.03735027
0.06356191
0.08745886
0.1101248
0.1314504
0.1513197
0.03392697
0.0579389
0.07998486
0.1010431
0.1209701
0.1397068
0.03100882
0.05308861
0.07359229
0.09301311
0.1116859
0.1293798
0.02846382
0.04886402
0.06795772
0.08584493
0.103394
0.1201009
0.02623648
0.04515031
0.06276255
0.07946423
0.09596704
0.1117242
0.02425622
0.04180141
0.05821464
0.07382542
0.08932676
0.1041334
0.02246913
0.03871712
0.05416836
0.06873497
0.0833028
0.09721283
0.02085818
0.03595445
0.05037282
0.06417834
0.07780866
0.09086488
0.01939531
0.0334611
0.04684828
0.06002167
0.07275081
0.08503472
0.01806295
0.03119528
0.04364068
0.05613723
0.06805484
0.07964888
0.01683498
0.02911051
0.04073334
0.05252869
0.0636984
0.07462378
0.0138514
0.02718939
0.03806166
0.04926833
0.05960348
0.0698853
0.4490182
0.4204158
0.4263766
0.4302941
0.4329214
0.4346572
0.1762687
0.2771716
0.3443955
0.367105
0.3870721
0.3990747
0.1028052
0.2589012
0.3185616
0.3602408
0.3869022
0.4070793
0.05940366
0.1621042
0.2219588
0.2626169
0.294718
0.3192935
0.04641933
0.1445185
0.2013769
0.2472741
0.2821635
0.3101541
0.03412788
0.1066397
0.1564387
0.1970139
0.2307562
0.2588937
0.02783794
0.09363052
0.1391073
0.1788805
0.21213
0.2406137
0.02243119
0.07678068
0.116758
0.1521894
0.1831416
0.2103877
0.01901223
0.0677527
0.1039133
0.1369036
0.1661816
0.1924258
0.01616463
0.05877898
0.09117702
0.121048
0.1482217
0.1729576
0.01405786
0.05247339
0.08190826
0.1094048
0.1347479
0.1581355
0.01232515
0.04688282
0.0736287
0.09883049
0.1223701
0.1443292
0.0109381
0.04239342
0.06686377
0.09010638
0.1120192
0.1326444
0.009777193
0.03850615
0.06095629
0.08241359
0.1028348
0.1221637
0.008802053
0.03519085
0.05587938
0.0757384
0.09481741
0.1129229
0.007967967
0.03229504
0.05142653
0.06985186
0.08767757
0.1046454
0.00724852
0.02975534
0.0474991
0.06469018
0.08129102
0.0972138
0.006620045
0.02748717
0.04397107
0.0599727
0.0755197
0.09047131
0.006064413
0.02545135
0.04079302
0.0556732
0.0702822
0.08433166
0.005570598
0.02362284
0.03792667
0.05185419
0.06550285
0.07872382
0.005130247
0.02196238
0.0353118
0.04835961
0.06113029
0.07356989
0.004735289
0.02044823
0.03291386
0.04514466
0.05709319
0.06881138
0.004378238
0.01905439
0.03070841
0.04217888
0.05337971
0.06440418
0.003506015
0.01778303
0.02865719
0.03942256
0.04977592
0.06033336
0.4766251
0.4491265
0.4519905
0.4549664
0.4528911
0.4523755
0.1812452
0.2726871
0.3336872
0.3563536
0.3791579
0.3907449
0.108371
0.261111
0.3261936
0.3703588
0.3980759
0.4175682
0.06100494
0.1606301
0.2201119
0.2618673
0.2949284
0.3206173
0.04651791
0.1450124
0.2019917
0.2480072
0.2843724
0.3117429
0.03274664
0.1058497
0.1556778
0.1962136
0.2305485
0.2588338
0.02746546
0.09323451
0.1393971
0.1788473
0.2125756
0.2408795
0.02158166
0.07604136
0.1165125
0.1515191
0.1827814
0.2100628
0.01847723
0.06727347
0.1040442
0.1367184
0.166226
0.1924401
0.01555956
0.05822437
0.0910876
0.1206958
0.1479818
0.1727487
0.01355761
0.0520491
0.08192462
0.1092506
0.1346784
0.1580611
0.01184261
0.04647258
0.07359189
0.09864805
0.1222325
0.1441842
0.0104961
0.0420411
0.06686007
0.08999399
0.1119322
0.1325343
0.009359549
0.03818013
0.06095303
0.0823253
0.1027272
0.1220419
0.008402116
0.03489594
0.05588728
0.07569785
0.09469446
0.1128145
0.007591309
0.03202238
0.051429
0.06982107
0.08752627
0.1045293
0.006897495
0.0295019
0.04749817
0.06460696
0.08113541
0.09709622
0.006294988
0.02726007
0.0439822
0.05994011
0.07539094
0.09037542
0.005763666
0.0252488
0.04081136
0.05572154
0.07019291
0.08426075
0.005293122
0.02343234
0.03793968
0.05187489
0.06545482
0.07866473
0.004872686
0.02178191
0.03532329
0.04835844
0.0611082
0.07351561
0.004496548
0.02027607
0.03292882
0.04513179
0.05710182
0.06875479
0.004156235
0.01889491
0.03072726
0.04216012
0.05339592
0.06432983
0.00384597
0.01762373
0.02869297
0.03940842
0.04997039
0.0601922
0.4810113
0.4399007
0.4515341
0.469248
0.4833148
0.4851879
0.1781465
0.2641552
0.3298303
0.3537145
0.3765285
0.3900395
0.112512
0.2583067
0.3211845
0.3680068
0.396142
0.4148605
0.06152685
0.1556533
0.2141658
0.2575841
0.2920875
0.3178965
0.04863799
0.143525
0.2018885
0.250082
0.2847788
0.3127705
0.03256503
0.1042757
0.1535787
0.1936933
0.2276833
0.2559551
0.02768576
0.0937085
0.139815
0.1798322
0.2131432
0.24162
0.02155628
0.07592022
0.1159354
0.1508905
0.1818729
0.2090975
0.01855387
0.06772
0.1042663
0.1371548
0.1665074
0.1927251
0.01558868
0.05843594
0.09102637
0.1206568
0.1478186
0.1725306
0.01360559
0.05236249
0.08206502
0.1094491
0.1348114
0.1581723
0.01187297
0.04670814
0.07365944
0.0987358
0.1222627
0.1441897
0.01052248
0.04227237
0.06695703
0.09011584
0.1120181
0.1326133
0.009379324
0.038379
0.06102713
0.08241744
0.1027958
0.1221072
0.008426682
0.0350775
0.05595551
0.07578422
0.09478
0.1128943
0.007612881
0.03218396
0.0514832
0.06989758
0.08762038
0.1046128
0.006913287
0.02964509
0.04753798
0.06467843
0.08123341
0.09718019
0.00630358
0.0273854
0.04401105
0.05998567
0.07547643
0.090447
0.005767704
0.0253619
0.04083895
0.05574764
0.07025809
0.08431882
0.005293464
0.02353907
0.03796936
0.0519055
0.06550127
0.07871474
0.00487019
0.02188418
0.035355
0.04839599
0.06114113
0.0735598
0.004490684
0.02037259
0.03295897
0.04516929
0.05712218
0.06879893
0.004147932
0.01898154
0.03075208
0.0421926
0.05340531
0.06438021
0.003836338
0.01769506
0.02870725
0.03942696
0.04993856
0.06026452
0.4717116
0.4379264
0.4445066
0.4485868
0.4500455
0.4509365
0.1755688
0.2688875
0.3295
0.3496112
0.3752664
0.384842
0.1116773
0.2548558
0.3073597
0.3495771
0.3841037
0.4041701
0.06157514
0.1541422
0.2097882
0.2519989
0.286375
0.311634
0.04854508
0.140519
0.2004325
0.2471442
0.2835221
0.311654
0.03210553
0.1034826
0.1526445
0.1925803
0.2265794
0.2547158
0.02744976
0.09311104
0.1396134
0.1793269
0.2129835
0.2413916
0.0214272
0.07559086
0.115676
0.1505174
0.1815476
0.2087259
0.01849526
0.06752961
0.1042504
0.1370539
0.1664966
0.1926804
0.01553305
0.05826881
0.09095108
0.1205202
0.1477118
0.1724063
0.01357154
0.05225341
0.08205729
0.1094042
0.134801
0.158146
0.01184282
0.04660492
0.07363639
0.0986772
0.1222258
0.1441383
0.010501
0.04219015
0.06695225
0.09008277
0.1120057
0.1325867
0.009360472
0.03830365
0.06102156
0.08238434
0.1027793
0.1220776
0.008410645
0.03501096
0.05595458
0.07575841
0.0947687
0.1128717
0.007597723
0.03212252
0.05148241
0.06987291
0.08760781
0.1045896
0.006898545
0.02958865
0.04753731
0.06465374
0.0812209
0.09715885
0.006289177
0.02733529
0.04401315
0.05997089
0.07546553
0.0904274
0.005754065
0.02531779
0.04084427
0.05574297
0.07025154
0.08430297
0.005280386
0.023498
0.03797559
0.05190171
0.06549938
0.07869804
0.004857767
0.0218457
0.03536223
0.04839045
0.06114275
0.07354087
0.004478818
0.0203354
0.03296809
0.04516276
0.05713219
0.06877464
0.004136453
0.01894693
0.03076321
0.04218464
0.05341822
0.06434747
0.003825573
0.01766234
0.02872445
0.03941662
0.04997876
0.06021856
0.4631466
0.4746125
0.4808702
0.4822731
0.4824617
0.4836618
0.175323
0.2666585
0.3291742
0.3493905
0.3752584
0.3848063
0.110811
0.2558361
0.3078665
0.3495745
0.3841218
0.404164
0.06152933
0.1539392
0.2097654
0.2519712
0.2863758
0.3116353
0.04847835
0.1405999
0.2004911
0.2471516
0.2835282
0.3116549
0.03200861
0.1034757
0.1526495
0.1925811
0.2265813
0.2547167
0.02743765
0.0931168
0.139618
0.1793284
0.2129844
0.241392
0.02142491
0.07559138
0.1156771
0.150518
0.181548
0.2087262
0.0184942
0.06753012
0.1042509
0.1370542
0.1664968
0.1926804
0.01553274
0.05826903
0.09095135
0.1205203
0.1477119
0.1724063
0.01357049
0.05225354
0.08205728
0.1094042
0.1348011
0.158146
0.01184262
0.046605
0.07363645
0.09867723
0.1222258
0.1441384
0.01050052
0.04219009
0.06695215
0.09008275
0.1120057
0.1325867
0.009359907
0.03830364
0.06102152
0.08238429
0.1027793
0.1220777
0.008410048
0.03501082
0.05595449
0.07575834
0.09476876
0.1128719
0.007597022
0.0321223
0.05148217
0.06987276
0.08760781
0.1045901
0.006897767
0.02958827
0.04753701
0.06465358
0.08122102
0.09715971
0.006288263
0.02733463
0.04401242
0.05997051
0.07546517
0.09042874
0.005752983
0.0253167
0.04084289
0.05574257
0.07025147
0.08430629
0.005279056
0.02349622
0.03797321
0.05190113
0.06549772
0.07870299
0.004856124
0.02184272
0.03535773
0.04838932
0.06113975
0.07355193
0.00447675
0.02033106
0.03296043
0.04516191
0.05712335
0.06879252
0.00413403
0.01894027
0.03075021
0.04218214
0.05340232
0.06437722
0.003823086
0.01765504
0.02870523
0.03941806
0.0499424
0.06026818
0.4837577
0.4686738
0.4695486
0.4709142
0.4722244
0.4735992
0.1773362
0.2640611
0.3299363
0.3538579
0.3765617
0.3900787
0.1085928
0.2582689
0.3212649
0.3679895
0.3961149
0.4148512
0.06147067
0.1556462
0.2141727
0.2575961
0.2920882
0.3179031
0.04851797
0.143519
0.2018989
0.250082
0.2847786
0.3127707
0.03244445
0.1042741
0.1535807
0.1936942
0.2276836
0.2559554
0.02754171
0.09370769
0.139817
0.1798325
0.2131436
0.24162
0.02152076
0.07592019
0.115936
0.1508906
0.181873
0.2090974
0.01852677
0.06771994
0.1042667
0.1371549
0.1665075
0.1927252
0.01557082
0.05843592
0.09102649
0.1206569
0.1478186
0.1725306
0.01359362
0.05236243
0.08206505
0.1094491
0.1348115
0.1581724
0.01186588
0.04670822
0.07365954
0.09873582
0.1222628
0.1441897
0.01051952
0.04227227
0.06695707
0.09011583
0.1120181
0.1326133
0.009377824
0.0383791
0.0610272
0.08241746
0.1027959
0.1221071
0.008426196
0.03507757
0.05595562
0.0757843
0.09478004
0.1128941
0.007612029
0.03218413
0.05148339
0.06989762
0.08762047
0.1046123
0.006911688
0.02964546
0.04753858
0.06467836
0.08123362
0.09717898
0.006301417
0.02738583
0.04401202
0.05998534
0.07547716
0.09044449
0.005765189
0.02536264
0.04084093
0.05574656
0.07025982
0.08431373
0.005290635
0.02353985
0.03797315
0.05190298
0.06550644
0.07870465
0.004866835
0.02188583
0.03536208
0.04839087
0.06114914
0.07353924
0.004486524
0.02037265
0.03297149
0.04515614
0.05714973
0.06876052
0.004142675
0.01898327
0.03077268
0.04217613
0.05344385
0.06430652
0.003831616
0.01768853
0.02874139
0.03937841
0.05004827
0.06013734
0.4776285
0.4678267
0.4669529
0.4587515
0.4590279
0.4606741
0.1796453
0.2727128
0.3337003
0.3563187
0.3791639
0.3907357
0.1058876
0.2611338
0.3262056
0.370385
0.39809
0.4175762
0.06227116
0.1606174
0.2201106
0.2618652
0.2949291
0.3206153
0.0479041
0.14502
0.2019977
0.2480107
0.2843747
0.3117439
0.03296949
0.1058489
0.1556792
0.1962147
0.2305494
0.2588338
0.02744146
0.09323547
0.1393983
0.1788481
0.2125761
0.2408797
0.02158401
0.07604126
0.116513
0.1515194
0.1827817
0.2100628
0.01846833
0.06727372
0.1040445
0.1367186
0.1662262
0.19244
0.01555845
0.05822471
0.09108793
0.120696
0.1479819
0.1727487
0.01355883
0.05204943
0.08192462
0.1092506
0.1346785
0.1580611
0.0118427
0.04647272
0.07359185
0.09864809
0.1222325
0.1441842
0.0104954
0.04204092
0.06685989
0.08999387
0.1119322
0.1325344
0.009357578
0.03817995
0.06095286
0.08232514
0.1027273
0.1220421
0.008407747
0.03489581
0.05588709
0.07569765
0.0946946
0.1128147
0.007595517
0.03202202
0.05142864
0.06982076
0.08752646
0.1045297
0.006896897
0.02950139
0.04749778
0.0646066
0.08113557
0.09709686
0.006289031
0.02725903
0.04398142
0.0599393
0.07539093
0.09037659
0.00575449
0.02524715
0.04081008
0.05572066
0.07019259
0.08426316
0.005280903
0.02342945
0.03793706
0.05187314
0.06545393
0.07866984
0.004857985
0.02177707
0.03531805
0.04835468
0.06110476
0.07352681
0.004478639
0.02026778
0.03291991
0.04512667
0.05709438
0.06878134
0.004136777
0.01888112
0.03070792
0.04214415
0.05337254
0.06437763
0.00382567
0.01760583
0.02866472
0.03938618
0.04990226
0.06030898
0.4598346
0.464461
0.4672107
0.4681763
0.4684281
0.4689735
0.1798015
0.2771696
0.3444022
0.3671009
0.3870676
0.3990685
0.1050169
0.258897
0.3185635
0.3602395
0.3868988
0.4070758
0.06266742
0.1621054
0.22196
0.2626179
0.2947185
0.3192934
0.04683173
0.1445177
0.2013782
0.2472743
0.2821632
0.3101535
0.03308554
0.1066396
0.1564401
0.1970146
0.2307564
0.2588934
0.02723508
0.09362984
0.1391086
0.1788809
0.2121304
0.2406137
0.02156195
0.0767802
0.1167586
0.1521898
0.1831417
0.2103875
0.01833576
0.06775299
0.1039135
0.1369038
0.1661818
0.1924259
0.01547306
0.0587789
0.09117706
0.1210481
0.1482218
0.1729574
0.01345124
0.05247311
0.08190804
0.1094048
0.134748
0.1581355
0.01175052
0.04688279
0.07362837
0.0988305
0.1223701
0.1443292
0.01040462
0.04239305
0.06686351
0.09010641
0.1120193
0.1326445
0.009274609
0.03850622
0.0609561
0.08241379
0.1028349
0.1221637
0.008331118
0.03519111
0.0558795
0.07573871
0.09481744
0.1129227
0.007525969
0.0322955
0.0514272
0.06985205
0.08767798
0.1046449
0.006831979
0.02975619
0.04750035
0.06469032
0.08129168
0.09721245
0.006228017
0.0274879
0.04397284
0.05997193
0.07552131
0.0904683
0.005695956
0.02545238
0.0407966
0.05567164
0.0702859
0.08432385
0.005225943
0.02362421
0.03793257
0.05184799
0.06551381
0.07870772
0.004806911
0.0219651
0.03532395
0.0483498
0.06114719
0.07353052
0.004431115
0.02044626
0.0329357
0.04511205
0.05715426
0.0687259
0.004090867
0.01905561
0.03075076
0.04213603
0.05347137
0.06419902
0.00350234
0.01776128
0.02872946
0.03926367
0.05017329
0.05988143
0.4959161
0.5002821
0.5009567
0.5015501
0.5016252
0.5014761
0.1909156
0.3501782
0.384083
0.4035757
0.41593
0.4239225
0.4295974
0.1010609
0.2635953
0.3336744
0.3759183
0.4033456
0.4229746
0.4371905
0.05563907
0.1668405
0.2333308
0.2802672
0.3155846
0.3415212
0.3612247
0.03831223
0.1341282
0.1998086
0.2495216
0.2874095
0.3167087
0.3396025
0.02688145
0.1002054
0.1552709
0.199908
0.2367388
0.2669131
0.2916035
0.02072743
0.08338391
0.1359877
0.1759657
0.2125487
0.2427522
0.2677208
0.01612472
0.06811926
0.1130023
0.1508446
0.1841021
0.2129743
0.2378225
0.01302408
0.05866476
0.09936768
0.133949
0.1653192
0.1930912
0.2172041
0.01058316
0.05030908
0.0868811
0.1190023
0.1474452
0.1735953
0.1967341
0.008746239
0.04421224
0.07742888
0.1072351
0.1334903
0.1581273
0.1802118
0.007246139
0.0390687
0.06944926
0.09677443
0.1210381
0.1441457
0.165147
0.006037483
0.03494506
0.06283322
0.08804037
0.1105581
0.132175
0.1520777
0.005027607
0.03152724
0.0572033
0.08046237
0.1013
0.1215668
0.1403546
0.004180539
0.02870545
0.05234509
0.07409199
0.09300688
0.1121822
0.1299243
0.003462078
0.02629964
0.04810948
0.06848659
0.08555946
0.1037619
0.1205746
0.002846528
0.02421038
0.04440491
0.06314749
0.07901617
0.09626517
0.1121171
0.002311282
0.02235162
0.0412163
0.05773123
0.07345014
0.08956043
0.1044618
0.001848217
0.02067263
0.03820602
0.05357181
0.0684133
0.08347045
0.09748363
0.001438274
0.01915744
0.03547945
0.04977678
0.06394436
0.07792944
0.0910789
0.001074458
0.01778086
0.0330064
0.04632089
0.05983972
0.07286032
0.08522013
0.0007589549
0.01652344
0.03075756
0.04320245
0.05598934
0.06818568
0.0798024
0.0004690948
0.01537108
0.02869653
0.04036438
0.05240833
0.06394384
0.07481639
0.0002125995
0.01423001
0.02678873
0.03773582
0.04915903
0.06006811
0.07035969
0.3307755
0.5031381
0.2366431
0.3929913
0.3559002
0.3796539
0.4959177
0.4968166
0.4447669
0.4455133
0.3848941
0.4093416
0.5002838
0.49566
0.4600507
0.4734937
0.4026823
0.4264828
0.5009576
0.4956382
0.46989
0.4850514
0.4146146
0.4378145
0.501546
0.4956285
0.4762113
0.4917503
0.4224751
0.4459805
0.501623
0.4955056
0.4803278
0.4966627
0.4278206
0.50147
0.4834934
0.2763078
0.2316306
0.1909765
0.3196045
0.1209256
0.2459764
0.1865798
0.1651529
0.1010712
0.201713
0.06566211
0.1450952
0.1371365
0.1315052
0.05564041
0.1211234
0.04364856
0.1079792
0.09747611
0.1048381
0.03831136
0.09329499
0.03109438
0.07873038
0.07416336
0.08914646
0.02687983
0.06932638
0.02492605
0.06372065
0.05818263
0.07735076
0.02072592
0.05777909
0.02028909
0.0513587
0.04616617
0.06887355
0.01612622
0.04767939
0.01738814
0.04368415
0.03764621
0.06214685
0.01302681
0.04124184
0.01503184
0.03752615
0.03082413
0.05684525
0.01058528
0.03577936
0.01327051
0.03298251
0.02547019
0.05251074
0.008742929
0.03166995
0.01180744
0.02922391
0.02105716
0.04890101
0.0072485
0.02824561
0.01061913
0.02615357
0.01742904
0.04582423
0.00603719
0.02544524
0.00963461
0.02356704
0.01435445
0.04316198
0.005029368
0.02301839
0.008821684
0.02136456
0.01176178
0.04081457
0.004180828
0.02090483
0.008152911
0.01947122
0.009542647
0.03873501
0.003462063
0.01906105
0.007596944
0.01782761
0.007613546
0.03687683
0.002846383
0.01745617
0.007116566
0.0163834
0.005912297
0.03520206
0.002313352
0.01604036
0.006697018
0.0150949
0.004420747
0.03367822
0.001847096
0.01477361
0.006328659
0.01393905
0.003119392
0.03228431
0.001438442
0.01363805
0.006003898
0.01289395
0.002011308
0.03099835
0.001077465
0.01261512
0.005713404
0.01194403
0.001060676
0.0298083
0.0007566583
0.01168755
0.005453779
0.01107624
0.0002333412
0.0287127
0.0004702725
0.01084438
0.005216875
0.01027704
-0.0004857189
0.008741485
0.0002137087
0.01007259
0.005014351
0.009571625
0.5783398
0.2421032
0.3490936
0.4761385
0.2307173
0.3732362
0.5991193
0.233725
0.3789296
0.4779487
0.2284184
0.3788309
0.5985924
0.2322308
0.3806198
0.4790777
0.2270335
0.3776646
0.5960943
0.2292997
0.3734735
0.6006735
0.2308822
0.396042
0.485896
0.22806
0.376581
0.5965849
0.2295302
0.3792579
0.4788468
0.2282692
0.3782173
0.5985471
0.2319536
0.3801801
0.4779657
0.228502
0.3789569
0.5991271
0.23418
0.3787954
0.4761384
0.2305688
0.3732726
0.5782994
0.242106
0.3490186
0.5031757
0.2365934
0.3929357
0.3307826
0.4968204
0.4447326
0.4455086
0.3559099
0.3796648
0.4956603
0.4600438
0.4734867
0.3849159
0.4093626
0.4956428
0.4698879
0.4850652
0.4026943
0.4264799
0.4956323
0.4762159
0.4917478
0.4146201
0.4378375
0.4955122
0.4803212
0.4966646
0.4224925
0.4459952
0.0932965
0.03109248
0.07873107
0.09748267
0.1048464
0.05778009
0.02028984
0.05136166
0.05818981
0.07735392
0.04768029
0.01738606
0.04368098
0.04617279
0.06886439
0.04124041
0.01503122
0.03752192
0.03764224
0.06214449
0.03577835
0.01326817
0.03298774
0.03082226
0.05684608
0.03167281
0.01180699
0.02921875
0.02547763
0.05250454
0.02301797
0.008821167
0.02136474
0.01434544
0.04316024
0.02090466
0.008152271
0.019471
0.01175925
0.04081392
0.01906087
0.00759632
0.01782648
0.009541123
0.03873369
0.01745564
0.007115798
0.01637861
0.007611969
0.03687474
0.01477376
0.006327798
0.01393831
0.004416972
0.03367358
0.01363634
0.006002814
0.01288917
0.003114117
0.03227603
0.01168619
0.005451579
0.01107426
0.001049213
0.02979042
0.0108362
0.005212761
0.0102734
0.0002110927
0.02868865
0.01006349
0.005007717
0.009564925
-0.0005164418
0.00872079
0.4853771
0.3994771
0.520378
0.4467992
0.5176164
0.4571766
0.5257717
0.463967
0.5243746
0.4670544
0.5280493
0.4681141
0.5255903
0.4726715
0.5293355
0.4693469
0.5252548
0.4744957
0.5301801
0.4701093
0.5249764
0.4755608
0.5308738
0.4706519
0.5250053
0.4762824
0.2266279
0.2154464
0.2628369
0.2007191
0.1291265
0.1467529
0.1602575
0.1414513
0.07891892
0.09763808
0.09053443
0.105613
0.05648091
0.07124517
0.07009816
0.0834084
0.0417688
0.05192597
0.04966831
0.06896368
0.03325005
0.04121826
0.04037633
0.0591881
0.02651658
0.03636962
0.03334408
0.05194792
0.02188421
0.03120513
0.02791118
0.0465581
0.01831089
0.02219695
0.02345828
0.04224978
0.01555175
0.01291386
0.02029193
0.03874499
0.01348247
0.007775457
0.01779153
0.03581705
0.01193708
0.00582031
0.01579968
0.03334231
0.01068386
0.004203866
0.01418129
0.03121054
0.009659868
0.002858915
0.01281662
0.02935083
0.008775691
0.001723786
0.01163131
0.02771373
0.007991001
0.0007467358
0.01060678
0.02625873
0.007307934
-0.000104189
0.009690904
0.024956
0.006704437
-0.0008486753
0.008876033
0.0237825
0.006189221
-0.001515532
0.008139039
0.02271067
0.005711117
-0.002110782
0.007469837
0.02173575
0.005283736
-0.002647095
0.006870164
0.02083935
0.004888551
-0.003130242
0.00632392
0.0200231
0.004505146
-0.003564679
0.005823745
0.01928591
0.4806507
0.5057366
0.491947
0.5110727
0.4958299
0.5118421
0.4941256
0.5085999
0.5088436
0.4925483
0.5096343
0.4951776
0.5091757
0.493707
0.5008834
0.485883
0.4898953
0.5013497
0.483484
0.4278383
0.3195769
0.1209104
0.2459488
0.2763041
0.2316203
0.2017004
0.06565308
0.1450922
0.1865658
0.1651449
0.1211187
0.04364595
0.1079788
0.1371432
0.1314993
0.06932727
0.02492477
0.06372649
0.07416915
0.0891443
0.02824497
0.01061781
0.02615702
0.02105398
0.04890407
0.02544979
0.009631802
0.02356687
0.01743751
0.04582164
0.01603936
0.006696446
0.01509878
0.005911061
0.03520538
0.01261065
0.005710992
0.0119499
0.002001652
0.03099187
0.4961321
0.4396949
0.5149519
0.410786
0.3791908
0.2716294
0.3251994
0.3422748
0.4894062
0.5028963
0.5201117
0.4591523
0.5236156
0.4611731
0.5245609
0.4654567
0.5291308
0.4705752
0.526176
0.4680685
0.5313453
0.4745092
0.5265506
0.4695754
0.5323453
0.4764387
0.526684
0.4706901
0.5328785
0.4773623
0.1874088
0.1791931
0.1808493
0.1552649
0.1053404
0.1279507
0.1031659
0.1162719
0.06743693
0.1001578
0.07487189
0.07701431
0.04902738
0.08033537
0.05396022
0.05549197
0.03778922
0.06868013
0.04351292
0.04060467
0.03055291
0.05958462
0.03552339
0.03183083
0.02527415
0.05315429
0.02984103
0.02641256
0.02142681
0.0478528
0.02553393
0.02246851
0.01855277
0.04362399
0.02248861
0.01848738
0.01617259
0.03942159
0.01991006
0.01507795
0.01422505
0.03468271
0.01770251
0.01292951
0.01256938
0.03020343
0.01586357
0.0107634
0.01122754
0.02656296
0.01431645
0.008732353
0.01010364
0.02414739
0.01297217
0.006744534
0.009115434
0.02218349
0.01179743
0.005040364
0.008250153
0.02084253
0.01077825
0.003531915
0.007498298
0.01981452
0.009858095
0.001993973
0.00684237
0.01898431
0.009029209
0.0005076363
0.006264237
0.01838887
0.008264343
-0.001321095
0.005744776
0.01786765
0.007592338
-0.002626857
0.005282849
0.01741666
0.006991546
-0.003742699
0.004858356
0.01698212
0.006448044
-0.004531439
0.004448132
0.007576608
-0.004971336
0.005927525
0.5024699
0.4861639
0.5073083
0.4927565
0.509029
0.4951275
0.5104706
0.5010509
0.4951051
0.5088395
0.4946436
0.5104131
0.4919779
0.5104195
0.4804798
0.5051254
0.4858404
0.3994612
0.5201004
0.4591762
0.5236119
0.4611637
0.5257727
0.4639996
0.524387
0.4671058
0.0565028
0.07123838
0.07007789
0.08341767
0.03325817
0.0412386
0.04038517
0.05919038
0.03054999
0.05958883
0.03552487
0.03184551
0.02654257
0.03636736
0.03333499
0.05195422
0.01617402
0.03936821
0.01991784
0.0151488
0.01068273
0.004196722
0.01416659
0.03121095
0.01122465
0.02659633
0.01431406
0.008721549
0.009658495
0.002860032
0.01281402
0.02935081
0.01010388
0.02416939
0.01297011
0.006743511
0.008774393
0.001724866
0.01162925
0.02771337
0.00911618
0.02218833
0.01179647
0.005042545
0.007992968
0.0007471853
0.01060607
0.02625838
0.00824956
0.02084137
0.01077842
0.003529058
0.006703203
-0.0008541911
0.008871169
0.02378119
0.006842948
0.01898214
0.00902894
0.0005166814
0.006187961
-0.001515509
0.008137034
0.02270944
0.006261155
0.01837233
0.008265081
-0.001299864
0.005283782
-0.002665522
0.006844586
0.02082742
0.005278836
0.01741643
0.006983942
-0.003824023
0.004880202
-0.003138095
0.006313488
0.02001151
0.004853157
0.01697636
0.00644067
-0.004576091
0.004492037
-0.003573761
0.005809227
0.01926984
0.004438638
0.01251921
-0.005047261
0.005912526
0.4991592
0.4565532
0.4977115
0.4964071
0.4984049
0.4968308
0.497434
0.4928953
0.4981225
0.4971642
0.4975544
0.4915704
0.498021
0.4975179
0.4977138
0.4914423
0.4980551
0.4975829
0.4978149
0.4913388
0.4980146
0.4976899
0.4978725
0.491237
0.4980085
0.4977097
0.4786974
0.4739241
0.4764229
0.4826919
0.4786235
0.4746847
0.480333
0.4760238
0.4854793
0.4782408
0.4775617
0.4763745
0.479365
0.4780613
0.4769074
0.4803079
0.4827548
0.477092
0.5010554
0.4980581
0.500589
0.4981762
0.4789093
0.4769273
0.4968745
0.4972416
0.4984751
0.4922679
0.4961768
0.4972959
0.4980778
0.4921363
0.4961776
0.497275
0.4979983
0.4920076
0.4963118
0.4972052
0.497847
0.4918732
0.4965079
0.497192
0.4977636
0.4917566
0.4806097
0.4777447
0.4787129
0.4804021
0.4827253
0.4773247
0.4805032
0.4785136
0.4750203
0.4820398
0.4816311
0.4793419
0.4825601
0.4786419
0.4797248
0.4735335
0.4991506
0.4566205
0.4961527
0.4397308
0.5149782
0.4107905
0.3790646
0.2716382
0.3252587
0.3422685
0.5203868
0.4468279
0.5176185
0.4571744
0.4974258
0.4928921
0.4971626
0.4981145
0.5245318
0.465512
0.5290913
0.4706273
0.5280246
0.4681595
0.5255878
0.4726201
0.5261443
0.4680519
0.5313395
0.4744324
0.5293375
0.4693513
0.5252397
0.4745428
0.5301705
0.4701444
0.5249872
0.4755441
0.5266627
0.4707301
0.5328602
0.4773051
0.04902638
0.08034639
0.0539841
0.05548699
0.02156423
0.03873778
0.02712281
0.002405657
0.0246278
0.008890948
0.03513215
0.02174915
0.02530852
0.05315104
0.02983007
0.02653033
0.02188781
0.03121229
0.02786887
0.04655845
0.02141719
0.04785369
0.02553019
0.02248297
0.01833227
0.02228201
0.02343436
0.04226453
0.01855329
0.04363497
0.02249958
0.01854006
0.01555529
0.01295114
0.02028267
0.03873842
0.009951517
0.0243149
0.01375816
-0.004953898
0.003733473
0.01651085
0.007111478
-0.005945095
0.007324121
-0.002486238
0.01742972
0.004953001
0.0009052545
0.01001929
-0.005048726
0.00329018
0.4997256
0.487235
0.4949308
0.487767
0.4795282
0.3607481
0.4042817
0.4669552
0.4680688
0.4816145
0.4989613
0.497144
0.4993533
0.496397
0.498412
0.4972681
0.4991943
0.4920475
0.4979733
0.4974745
0.4990353
0.4919589
0.4978049
0.4975991
0.4988305
0.4918375
0.4976841
0.4976671
0.4986292
0.4917124
0.4976991
0.4977485
0.4984561
0.4916051
0.4752368
0.4812047
0.4792799
0.4783793
0.4770889
0.4771541
0.4779481
0.477476
0.4774615
0.477088
0.4800075
0.4800514
0.4778052
0.4793545
0.4832775
0.4777903
0.4712688
0.4789761
0.4707168
0.5250104
0.5308739
0.2154492
0.2628435
0.200725
0.2266361
0.1791934
0.1552373
0.1874009
0.1808213
0.1467482
0.1414463
0.1291226
0.1602275
0.1279465
0.1162715
0.1053023
0.1031496
0.09762958
0.1056174
0.07893514
0.09050012
0.1001666
0.07489607
0.07694956
0.0674377
0.05192963
0.04964023
0.06897643
0.04180408
0.06869494
0.04354398
0.04064942
0.03780761
0.007777145
0.017775
0.03583258
0.0135016
0.005816007
0.03334789
0.01196687
0.01577484
-0.0001008443
0.009684269
0.02496557
0.007309561
-0.002109209
0.007460985
0.02173788
0.005715804
0.01784237
0.007599529
-0.002622745
0.005728579
0.5005799
0.4987081
0.5012736
0.497712
0.4715448
0.4781704
0.4968405
0.4951969
0.4981255
0.4962258
0.4970062
0.4918547
0.4982914
0.4972534
0.4973079
0.4917212
0.4984707
0.4972892
0.4974584
0.4915857
0.4985459
0.497299
0.4975556
0.4914507
0.4984934
0.4973848
0.4784143
0.4829218
0.4808742
0.4824104
0.4753636
0.4802469
0.4796028
0.4794553
0.483734
0.4763632
0.4787311
0.4772488
0.4782933
0.4779956
0.4752476
0.4821426
0.4684025
0.4801411
0.4998247
0.4872935
0.4879152
0.4949827
0.4798222
0.3608511
0.4672335
0.404521
0.4983953
0.4972657
0.4920479
0.4991887
0.02017415
0.03400705
0.001263017
0.02212954
0.01392347
-0.0003470551
0.008620745
0.0241931
0.004316634
0.01676952
-0.006560171
0.006646762
0.007911468
-0.003119551
0.00415561
0.01706068
-1.720239e-05
0.007528038
-1.7048e-05
0.009386995
0.00938159
0.00748737
0.00296965
0.005351512
0.003592984
0.005323506
0.003736512
-0.003152988
0.01017161
0.001857925
0.2166759
0.1911546
0.2464312
0.1885855
0.1131087
0.1082544
0.1336273
0.1090176
0.06884537
0.05589545
0.07910183
0.07012524
0.05104853
0.03405722
0.05600114
0.05456667
0.03827793
0.02029872
0.03983011
0.04421648
0.030496
0.01286987
0.03045667
0.03870928
0.02462524
0.008890773
0.02174484
0.03513932
0.02047499
0.005813426
0.01723084
0.03209864
0.01703507
0.003204422
0.01397919
0.03003705
0.0144508
0.001550019
0.01173022
0.02823425
0.01256233
0.0004252874
0.009993537
0.02603451
0.01111693
-0.0005322795
0.008561055
0.02376614
0.009913242
-0.001272718
0.00740195
0.02181656
0.008917321
-0.001784056
0.006451021
0.02016167
0.008061519
-0.002163623
0.005633679
0.01873277
0.007324144
-0.002486759
0.004954439
0.01742841
0.00667337
-0.002713018
0.004362511
0.0162054
0.006097487
-0.002881348
0.003853973
0.01508612
0.005588377
-0.002998632
0.003412442
0.01406477
0.005132331
-0.003074122
0.003022841
0.0131488
0.004723463
-0.003123378
0.002684354
0.0123007
0.004358955
-0.003145734
0.002389718
0.01153001
0.004039691
-0.003149738
0.002134203
0.01082779
0.2874847
0.2330284
0.2719968
0.2290314
0.141426
0.1396209
0.1396435
0.1099239
0.08312134
0.09133949
0.08308964
0.05666935
0.05490363
0.06941807
0.05966911
0.02989068
0.03819415
0.05421749
0.043918
0.01545165
0.02834367
0.04491563
0.03447689
0.007640217
0.02153865
0.03872836
0.02712791
0.002422749
0.01813537
0.03503567
0.02231303
-0.001000995
0.01499806
0.03084828
0.01899822
-0.003076036
0.01226842
0.0272516
0.01619019
-0.004373338
0.009946349
0.02432095
0.01376138
-0.004947891
0.008155
0.02215143
0.01183349
-0.005362386
0.006660773
0.02037499
0.0102894
-0.005609847
0.005463722
0.0189862
0.00903905
-0.005872804
0.004522745
0.01771923
0.007984912
-0.006036635
0.003733121
0.01651008
0.007111437
-0.005941661
0.003100005
0.01543957
0.006368482
-0.005900941
0.002582129
0.01448024
0.005729562
-0.005863123
0.002160025
0.01358889
0.00518082
-0.005786884
0.001812954
0.01276712
0.004704932
-0.005680465
0.001526165
0.01200328
0.004289401
-0.005545531
0.0012867
0.01129098
0.003928572