/*--------------------------------*- C++ -*----------------------------------*\
  =========                 |
  \\      /  F ield         | OpenFOAM: The Open Source CFD Toolbox
   \\    /   O peration     | Website:  https://openfoam.org
    \\  /    A nd           | Version:  7
     \\/     M anipulation  |
\*---------------------------------------------------------------------------*/
FoamFile
{
    version     2.0;
    format      ascii;
    class       volScalarField;
    location    "0.1";
    object      Uy;
}
// * * * * * * * * * * * * * * * * * * * * * * * * * * * * * * * * * * * * * //

dimensions      [0 1 -1 0 0 0 0];

internalField   nonuniform List<scalar> 
76598
(
-0.004898401
-0.002575636
-0.00286056
-0.002956886
-0.002704403
-0.002044896
-0.001326827
-0.0008996579
-0.01160667
-0.01884221
-0.02560281
-0.02931344
-0.02794148
-0.02104447
-0.01467402
-0.009581231
-0.01905442
-0.03284975
-0.04198864
-0.0499618
-0.04327942
-0.03067393
-0.02205257
-0.01387654
-0.02912185
-0.04826018
-0.0668244
-0.0797593
-0.07704811
-0.05255763
-0.02867357
-0.01666659
-0.03762576
-0.06905887
-0.09485558
-0.1285216
-0.104218
-0.05719952
-0.02974283
-0.01582016
-0.04635096
-0.08566923
-0.1300576
-0.1573737
-0.2280924
-0.07719877
-0.01805293
-0.009944558
-0.04848865
-0.08421547
-0.1348916
-0.2001775
-0.3470499
-0.04214983
-0.07130478
-0.1095592
-0.1336755
-0.145683
-0.08650093
-0.04550154
-0.02953815
-0.03593537
-0.05886137
-0.08476726
-0.09703613
-0.104835
-0.06437524
-0.04830888
-0.03451802
-0.03027179
-0.04823506
-0.06639703
-0.07434808
-0.07764592
-0.0625567
-0.05298811
-0.04053296
-0.02473517
-0.03893146
-0.05223089
-0.05931942
-0.06567031
-0.05375941
-0.04870727
-0.04231635
-0.02155814
-0.03348667
-0.04462693
-0.05058931
-0.05494381
-0.05177806
-0.05002768
-0.04483537
-0.01834065
-0.02890254
-0.03860151
-0.04430188
-0.04956458
-0.04856631
-0.04831065
-0.04645778
-0.01695267
-0.02679376
-0.03584081
-0.04183061
-0.04660997
-0.04855151
-0.04993976
-0.04936632
-0.01577233
-0.02524727
-0.03395513
-0.04034704
-0.04582099
-0.04882895
-0.05116167
-0.05222974
-0.01573261
-0.02527715
-0.03395421
-0.04088511
-0.04655958
-0.0510003
-0.05426274
-0.05625543
-0.01611622
-0.0259625
-0.03483731
-0.04232435
-0.04889219
-0.05390161
-0.0578738
-0.06082942
-0.01706275
-0.0275444
-0.03684192
-0.04518546
-0.05220131
-0.05816355
-0.06292556
-0.06643414
-0.01839865
-0.02978388
-0.03985133
-0.04886838
-0.05678799
-0.06352816
-0.0689039
-0.07294164
-0.02025812
-0.03284037
-0.04380249
-0.05384916
-0.06268133
-0.07017093
-0.07616135
-0.0805633
-0.02263079
-0.03670461
-0.0488491
-0.06005757
-0.06997459
-0.07818541
-0.08470619
-0.08940236
-0.02558461
-0.04150005
-0.05512538
-0.067791
-0.0788679
-0.0878017
-0.0948644
-0.09972008
-0.0291997
-0.04733893
-0.06284728
-0.0771324
-0.0895163
-0.09935802
-0.1069762
-0.1118398
-0.03362139
-0.05443049
-0.07219389
-0.08837162
-0.1023799
-0.1133217
-0.1214834
-0.1261517
-0.005950794
-0.006156506
-0.009069056
-0.007621999
-0.007715338
-0.005813545
-0.004272146
-0.002782295
-0.002412386
-0.01398803
-0.01454341
-0.02489698
-0.02671868
-0.02611418
-0.01904689
-0.01379876
-0.008957968
-0.003826041
-0.01926155
-0.0330282
-0.04338342
-0.05124265
-0.04523583
-0.03394712
-0.02262432
-0.01434263
-0.004111061
-0.02954557
-0.04831575
-0.06838597
-0.08264303
-0.07610824
-0.04719468
-0.02917235
-0.01676369
-0.006161337
-0.0388524
-0.06900215
-0.09827895
-0.127307
-0.1050592
-0.06232536
-0.02990898
-0.01530958
-0.008035216
-0.04750235
-0.08517115
-0.1306704
-0.1698042
-0.2363408
-0.0574379
-0.01921241
-0.009883221
-0.009162376
-0.04881976
-0.08443855
-0.1362894
-0.2070112
-0.3382326
-0.005645767
-0.0001335185
-0.008832121
-0.04282111
-0.07036103
-0.1069849
-0.1344693
-0.1423558
-0.0821064
-0.04562518
-0.02996894
-0.007702668
-0.03620548
-0.05774458
-0.08281778
-0.09677308
-0.108738
-0.06856228
-0.04951199
-0.0357578
-0.006558439
-0.03033067
-0.04696643
-0.06549292
-0.07449087
-0.07905977
-0.06322407
-0.05301008
-0.04123034
-0.005549377
-0.02477204
-0.03858765
-0.05227312
-0.05931162
-0.065575
-0.05464323
-0.04960457
-0.04275521
-0.004726105
-0.02145125
-0.03292009
-0.04401403
-0.05066882
-0.05522334
-0.05217351
-0.05023615
-0.04525846
-0.004118734
-0.01837395
-0.02900819
-0.03859912
-0.04448624
-0.04951532
-0.04876698
-0.04842407
-0.04666897
-0.003748294
-0.01687531
-0.02655794
-0.0357173
-0.04185362
-0.04662629
-0.04876937
-0.05004618
-0.04949775
-0.003527961
-0.01593203
-0.02526513
-0.03400302
-0.04036317
-0.04581577
-0.04898328
-0.05125991
-0.05233878
-0.003431303
-0.01566452
-0.02507949
-0.03398778
-0.04082542
-0.04677743
-0.05113121
-0.05435562
-0.0563562
-0.003462135
-0.01598658
-0.0257084
-0.03491845
-0.0422727
-0.04889781
-0.05404474
-0.05800452
-0.06093258
-0.00360691
-0.01685225
-0.02722282
-0.03688172
-0.04507721
-0.05237589
-0.05829981
-0.06304734
-0.06654969
-0.003856434
-0.01819108
-0.029401
-0.03982637
-0.04883296
-0.05696986
-0.06360908
-0.06901448
-0.07304998
-0.004211621
-0.0200044
-0.03239838
-0.04380246
-0.05387813
-0.06287765
-0.07026565
-0.07628046
-0.08068832
-0.004676513
-0.02235066
-0.03620016
-0.04884758
-0.06004689
-0.07013114
-0.07831453
-0.08485363
-0.08954965
-0.005273039
-0.02536998
-0.04090889
-0.05506132
-0.06777728
-0.07907419
-0.0879747
-0.09505326
-0.09989751
-0.006017391
-0.02900646
-0.04667476
-0.06270697
-0.07717807
-0.08973155
-0.09955981
-0.1071997
-0.1120476
-0.0215485
-0.03347124
-0.05368793
-0.07202415
-0.08849624
-0.1026148
-0.1135761
-0.1217565
-0.126409
-0.006220232
-0.007352532
-0.009613607
-0.007736454
-0.007673258
-0.005753495
-0.00434687
-0.002784484
-0.005680192
-0.01522645
-0.01532539
-0.02417531
-0.02645001
-0.02583669
-0.01881736
-0.01347769
-0.008878562
-0.009021885
-0.01888408
-0.03401794
-0.04231172
-0.05044449
-0.04397829
-0.0326693
-0.02212047
-0.01390816
-0.01008871
-0.0294999
-0.04815423
-0.06684325
-0.08156631
-0.07643704
-0.04700396
-0.02827504
-0.01688332
-0.0137125
-0.03804386
-0.06969812
-0.09625693
-0.1292337
-0.1070768
-0.06394334
-0.031428
-0.01447113
-0.01620511
-0.04746438
-0.08584037
-0.1308201
-0.1755445
-0.2352606
-0.05716491
-0.02209474
-0.006345659
-0.01615972
-0.04896978
-0.08493509
-0.1371418
-0.2043838
-0.3329977
-0.001984187
-0.0192464
-0.014566
-0.04339214
-0.07064209
-0.1107481
-0.1339123
-0.1433581
-0.08456176
-0.04627069
-0.007060196
-0.01254286
-0.03679275
-0.05816003
-0.08393686
-0.09763393
-0.1083314
-0.06704592
-0.04857348
-0.03679088
-0.01075574
-0.03094866
-0.04725142
-0.06655575
-0.07463539
-0.07987212
-0.06301374
-0.0532311
-0.03707291
-0.008847644
-0.02526659
-0.03868443
-0.05224932
-0.059425
-0.06568343
-0.0545634
-0.04894483
-0.04217813
-0.00756296
-0.0215961
-0.03345299
-0.04473077
-0.05084068
-0.05550741
-0.05207348
-0.05055322
-0.04398993
-0.006694603
-0.01864258
-0.02861156
-0.03863331
-0.04461135
-0.04964983
-0.04870299
-0.04835128
-0.04649126
-0.006175748
-0.01711493
-0.02658975
-0.03573614
-0.04198063
-0.04684089
-0.04872089
-0.05013737
-0.04932161
-0.005770401
-0.01617917
-0.02521234
-0.03397322
-0.04049651
-0.04592635
-0.04890095
-0.05125087
-0.05226027
-0.005683542
-0.01604212
-0.02514606
-0.03389611
-0.0410382
-0.0468179
-0.05106693
-0.05435289
-0.05630567
-0.00586536
-0.01638173
-0.02580181
-0.03482562
-0.04252553
-0.04901472
-0.05399732
-0.05798007
-0.0609017
-0.006197262
-0.0173113
-0.02732597
-0.03686073
-0.04529963
-0.0523506
-0.05826918
-0.06302687
-0.06652825
-0.006686624
-0.01866615
-0.02954091
-0.03983043
-0.04900453
-0.05688026
-0.06363585
-0.06903401
-0.07305036
-0.007374227
-0.02055349
-0.03256994
-0.04383425
-0.05397337
-0.06275862
-0.07029928
-0.07629903
-0.08069287
-0.008247156
-0.02296243
-0.03640685
-0.04890502
-0.0601608
-0.06999072
-0.07834728
-0.08484289
-0.08954604
-0.009327595
-0.02598467
-0.04120687
-0.05514914
-0.06780936
-0.07897869
-0.08802531
-0.09502619
-0.09989348
-0.01065401
-0.0297042
-0.04702936
-0.06279292
-0.07723325
-0.08970472
-0.09957852
-0.1071636
-0.1120323
-0.01227212
-0.03427593
-0.05411257
-0.07211993
-0.08855567
-0.1025917
-0.1135734
-0.1217083
-0.1263741
-0.006590875
-0.006832493
-0.008837669
-0.007642667
-0.007454507
-0.005641531
-0.00422664
-0.002697099
-0.005888071
-0.01487098
-0.01477153
-0.02406897
-0.02656038
-0.02569287
-0.01868562
-0.01360731
-0.008890271
-0.008388657
-0.01800301
-0.03378612
-0.04246036
-0.05062447
-0.04439409
-0.03320337
-0.02253851
-0.01400038
-0.008893194
-0.02859135
-0.04797103
-0.06692419
-0.08210058
-0.07670432
-0.04734839
-0.02919828
-0.0168642
-0.01291314
-0.03715675
-0.06883403
-0.0970669
-0.1287442
-0.1069712
-0.06377868
-0.03156807
-0.01418818
-0.01493211
-0.04650246
-0.08518555
-0.1302317
-0.176382
-0.234612
-0.05800051
-0.02277459
-0.006713988
-0.0152814
-0.04808652
-0.08412186
-0.1358421
-0.2036464
-0.3330968
-0.01198337
-0.01909646
-0.01355435
-0.04216801
-0.07012057
-0.1081085
-0.1349572
-0.1442687
-0.08646186
-0.04963524
-0.009245134
-0.0115526
-0.03661277
-0.05783495
-0.08326242
-0.09742413
-0.1083777
-0.06589348
-0.04755534
-0.03973068
-0.009920116
-0.02981145
-0.04694758
-0.06590176
-0.07482657
-0.08057579
-0.0635762
-0.05341452
-0.03677953
-0.008401519
-0.02514082
-0.03844242
-0.05203465
-0.0591362
-0.06547013
-0.05459877
-0.0495709
-0.04338493
-0.007142939
-0.02130277
-0.03295918
-0.04422504
-0.05080157
-0.0555854
-0.05217933
-0.05053782
-0.04399461
-0.006282473
-0.01871674
-0.02890449
-0.0384385
-0.04439505
-0.04940546
-0.04872697
-0.04852231
-0.04669228
-0.00574895
-0.01705917
-0.02665607
-0.03570454
-0.04182176
-0.04679883
-0.04877288
-0.05016282
-0.04927115
-0.005405963
-0.01579156
-0.02525468
-0.03394227
-0.04029008
-0.04575956
-0.04889941
-0.05134469
-0.05227472
-0.005358313
-0.01559277
-0.02507843
-0.03389961
-0.04078922
-0.04678561
-0.05105993
-0.0543644
-0.05629901
-0.005517789
-0.01602484
-0.02569188
-0.03483849
-0.04221945
-0.04883777
-0.05397373
-0.05802416
-0.06089913
-0.005806513
-0.01697152
-0.02723803
-0.03682903
-0.04501229
-0.05237187
-0.0582526
-0.0630307
-0.06652871
-0.006283326
-0.01832647
-0.02937079
-0.039776
-0.04875388
-0.0569541
-0.06358446
-0.06900038
-0.07303542
-0.006924953
-0.02025611
-0.03235583
-0.04374479
-0.05379286
-0.06296172
-0.07023487
-0.07625711
-0.08068201
-0.007743604
-0.02259556
-0.03613544
-0.048799
-0.06002277
-0.07013399
-0.07826345
-0.08481789
-0.08953857
-0.008779094
-0.02561133
-0.04086249
-0.05502761
-0.06766047
-0.07907892
-0.08799563
-0.09507041
-0.09991572
-0.01004045
-0.02915919
-0.04657201
-0.06262696
-0.07709647
-0.08969156
-0.09955553
-0.1072145
-0.1120582
-0.01162183
-0.03367506
-0.05358039
-0.07196375
-0.08844355
-0.1025932
-0.1136459
-0.1218415
-0.1264516
-0.006366742
-0.009366644
-0.00933947
-0.007859739
-0.007632207
-0.005685502
-0.004283945
-0.00271072
-0.005815662
-0.01491455
-0.01544159
-0.02429762
-0.0260137
-0.02565604
-0.01873739
-0.0135649
-0.008901135
-0.009287623
-0.01784832
-0.0335649
-0.04255052
-0.0507666
-0.04442995
-0.03314779
-0.02254942
-0.01395207
-0.009288415
-0.02871078
-0.0479617
-0.06695965
-0.08200223
-0.07609671
-0.04763714
-0.02919279
-0.01690583
-0.0130233
-0.03704466
-0.06924399
-0.09684999
-0.1289103
-0.1076525
-0.06426949
-0.03164112
-0.0140924
-0.01537562
-0.04663753
-0.08506689
-0.1304852
-0.177445
-0.2350607
-0.0575526
-0.02264166
-0.006657554
-0.01547299
-0.04752822
-0.08436788
-0.136211
-0.2036662
-0.3334489
-0.01308588
-0.02033693
-0.01361484
-0.04215848
-0.07012036
-0.1103585
-0.1344419
-0.1440547
-0.0863425
-0.0511269
-0.008696129
-0.01196677
-0.03593435
-0.05766864
-0.08350464
-0.09780544
-0.1084721
-0.06530799
-0.04566556
-0.03759746
-0.009555566
-0.0305033
-0.04686055
-0.06626258
-0.07459576
-0.08089943
-0.06382968
-0.05383379
-0.0360787
-0.00825908
-0.02472766
-0.03838536
-0.05175383
-0.05916824
-0.06524297
-0.0545428
-0.04886615
-0.04239556
-0.007032295
-0.02133107
-0.03287364
-0.04460148
-0.05077872
-0.05573596
-0.05227536
-0.05082068
-0.04348299
-0.006227147
-0.01796851
-0.02868819
-0.03834496
-0.04444595
-0.04935995
-0.04868036
-0.04832427
-0.04657152
-0.005758559
-0.0165635
-0.02645412
-0.0355589
-0.04183126
-0.04689351
-0.0487724
-0.05021948
-0.04899316
-0.005468427
-0.01627828
-0.02510484
-0.03394223
-0.0403839
-0.04581142
-0.04886183
-0.05132616
-0.05224112
-0.005502925
-0.01617713
-0.02499799
-0.03380867
-0.04089893
-0.04687003
-0.05104374
-0.05437139
-0.05625252
-0.005674301
-0.01623502
-0.02571657
-0.03472119
-0.04234503
-0.04896451
-0.05392762
-0.05800539
-0.06087911
-0.005988181
-0.01714233
-0.02720414
-0.03674893
-0.04520573
-0.05235422
-0.05822505
-0.063017
-0.06651106
-0.006483063
-0.01843076
-0.02940509
-0.03973712
-0.04885944
-0.05681962
-0.06359581
-0.06900729
-0.07302831
-0.007139632
-0.02033114
-0.03239703
-0.04369504
-0.05379226
-0.06282977
-0.07028775
-0.07625418
-0.08067445
-0.007989279
-0.02269732
-0.03616087
-0.0487175
-0.06009021
-0.07004192
-0.07827944
-0.08478424
-0.08951523
-0.009062165
-0.025705
-0.04092342
-0.05497415
-0.06769587
-0.07897037
-0.08799879
-0.09500124
-0.09988272
-0.01041826
-0.02929261
-0.04664998
-0.06262281
-0.07713807
-0.08966121
-0.09954243
-0.1071243
-0.1120067
-0.01211872
-0.03372763
-0.05363206
-0.07190692
-0.08841645
-0.1025068
-0.1135567
-0.121674
-0.1263712
-0.006699815
-0.007376206
-0.008790311
-0.00765587
-0.007461808
-0.005611364
-0.004221893
-0.002660853
-0.005094426
-0.01510616
-0.01492586
-0.02389647
-0.02655587
-0.02557755
-0.01863725
-0.01355048
-0.008879815
-0.009323842
-0.01800218
-0.0334705
-0.04231481
-0.05049833
-0.04425914
-0.03308401
-0.02250901
-0.01388508
-0.009184916
-0.02884465
-0.04796577
-0.06662717
-0.0819918
-0.07624591
-0.04750064
-0.02912844
-0.01685882
-0.01299019
-0.03703651
-0.06907938
-0.09677766
-0.128833
-0.1078507
-0.06421392
-0.03168756
-0.01403057
-0.01498281
-0.04643183
-0.08507034
-0.1304113
-0.1776252
-0.2353999
-0.05738749
-0.0221394
-0.006628508
-0.015341
-0.04756075
-0.08409885
-0.1361443
-0.2036038
-0.3332897
-0.01171538
-0.02599459
-0.01361295
-0.04255366
-0.06999647
-0.1101846
-0.1344296
-0.1441058
-0.08612952
-0.05127209
-0.009188587
-0.01165137
-0.03638596
-0.05755227
-0.08349796
-0.09772632
-0.1085219
-0.06562639
-0.04599786
-0.03930481
-0.009784742
-0.03017728
-0.04694438
-0.06618386
-0.07457765
-0.08083869
-0.06388731
-0.0538923
-0.03633584
-0.008237779
-0.0250206
-0.03845588
-0.05187667
-0.05918465
-0.06523887
-0.05460591
-0.04888072
-0.04262975
-0.006903005
-0.02145029
-0.03286655
-0.04453268
-0.05077773
-0.0557112
-0.05226465
-0.05085751
-0.04351055
-0.005762828
-0.01924085
-0.02881967
-0.03853494
-0.04450215
-0.04930929
-0.04869312
-0.04830328
-0.04658444
-0.005842661
-0.01703859
-0.02670416
-0.03539478
-0.04191467
-0.04676189
-0.04880684
-0.05022827
-0.04901261
-0.00535488
-0.01579796
-0.02492487
-0.03381438
-0.04041014
-0.04581006
-0.04884323
-0.05124307
-0.05223913
-0.006024109
-0.01486074
-0.0250397
-0.03360856
-0.0409166
-0.04668156
-0.05103186
-0.05433716
-0.05624013
-0.005780089
-0.01606335
-0.02572006
-0.03462644
-0.04234575
-0.04890764
-0.05394202
-0.05797672
-0.0608728
-0.006061744
-0.01688947
-0.02722741
-0.03670284
-0.0451158
-0.05224507
-0.05822639
-0.06301685
-0.06650927
-0.006527013
-0.01836413
-0.0294263
-0.03969332
-0.04877545
-0.05677649
-0.0635822
-0.06900069
-0.07302072
-0.007156623
-0.02025503
-0.03240567
-0.04363756
-0.0537676
-0.06281952
-0.07025518
-0.07627826
-0.0806781
-0.007996833
-0.02264733
-0.03616288
-0.04858386
-0.05996518
-0.06983609
-0.07822392
-0.08479908
-0.08950336
-0.009081354
-0.02562499
-0.04094393
-0.05482042
-0.06760256
-0.0790494
-0.08804126
-0.09517105
-0.09990985
-0.01037716
-0.02911781
-0.04657609
-0.06229663
-0.07694756
-0.08937723
-0.0994993
-0.1072644
-0.1119958
-0.01212742
-0.03366381
-0.05376417
-0.07164091
-0.08831784
-0.1026795
-0.1138525
-0.1221326
-0.126431
-0.006653254
-0.007191137
-0.009462514
-0.007547654
-0.007623846
-0.005742283
-0.004274331
-0.002731645
-0.005296382
-0.01479159
-0.01511793
-0.02426287
-0.02653727
-0.0258503
-0.01886652
-0.01366537
-0.008902845
-0.008344963
-0.01824265
-0.03452111
-0.0427242
-0.05082709
-0.04465741
-0.03342092
-0.02263463
-0.01408392
-0.008880497
-0.02838677
-0.04813811
-0.06719914
-0.08218899
-0.07677106
-0.04753743
-0.02913046
-0.01689535
-0.01276985
-0.03749045
-0.06892902
-0.09729783
-0.1290017
-0.1072242
-0.06384715
-0.03146146
-0.01424384
-0.01472564
-0.04648205
-0.08534456
-0.1303419
-0.1771753
-0.2347031
-0.05804988
-0.02164674
-0.006724017
-0.01494026
-0.04832646
-0.08410703
-0.1362651
-0.2034359
-0.3340204
-0.0119497
-0.01985602
-0.01449985
-0.04144916
-0.07052052
-0.1092533
-0.1347837
-0.1444995
-0.0864141
-0.04968809
-0.01016768
-0.01201679
-0.03598547
-0.05776191
-0.08255304
-0.09736004
-0.1084469
-0.06591115
-0.04743005
-0.0394444
-0.009148246
-0.02957643
-0.04654693
-0.06643113
-0.07484168
-0.08068235
-0.06369576
-0.05366737
-0.03680088
-0.0082731
-0.02437023
-0.03832769
-0.05177713
-0.05906178
-0.06533257
-0.05461385
-0.04946876
-0.04326739
-0.007056192
-0.02095114
-0.03305091
-0.04425441
-0.05077926
-0.05562002
-0.0522201
-0.05056719
-0.04396032
-0.007066083
-0.01794973
-0.02896244
-0.03813741
-0.04441815
-0.04928838
-0.04872383
-0.04850376
-0.0466675
-0.006764699
-0.01541805
-0.02662149
-0.03524289
-0.04185823
-0.04688873
-0.04878194
-0.0501347
-0.04925631
-0.004581702
-0.01741001
-0.02513148
-0.0342329
-0.04025638
-0.04576777
-0.04889966
-0.05134319
-0.0522636
-0.004606792
-0.01611934
-0.02504786
-0.0339274
-0.04076755
-0.04685442
-0.05107407
-0.05436076
-0.05629287
-0.00563983
-0.01610814
-0.02575522
-0.03483378
-0.04226826
-0.0489063
-0.0539952
-0.05801597
-0.06088699
-0.00601575
-0.01719492
-0.0273921
-0.03681005
-0.04508789
-0.05241184
-0.05827954
-0.06303666
-0.06651914
-0.006364449
-0.01819496
-0.02936653
-0.03972225
-0.04883048
-0.05692461
-0.06356591
-0.06898162
-0.07299921
-0.006983125
-0.02023686
-0.03246772
-0.04378657
-0.05388612
-0.06296589
-0.07021654
-0.07624174
-0.08065064
-0.007763026
-0.02244218
-0.03604251
-0.04878629
-0.06016442
-0.06996306
-0.07822059
-0.08475403
-0.08946045
-0.008843762
-0.02577773
-0.04101114
-0.05508052
-0.06763671
-0.07902627
-0.08802246
-0.09500444
-0.09985595
-0.01002481
-0.02903517
-0.04673566
-0.06277277
-0.07733281
-0.08970221
-0.09949644
-0.1070432
-0.1119081
-0.01168788
-0.03367707
-0.05353152
-0.0720053
-0.08848791
-0.1024929
-0.1136013
-0.1215542
-0.1262852
-0.00460067
-0.005705436
-0.009423879
-0.007732729
-0.007613584
-0.005571267
-0.004206989
-0.002710682
-0.005578641
-0.01468536
-0.0155261
-0.02442392
-0.02649339
-0.02581856
-0.01866135
-0.01357159
-0.00888449
-0.008823657
-0.01897553
-0.03348868
-0.04234127
-0.05042173
-0.04416821
-0.03254235
-0.02202476
-0.0138148
-0.009597697
-0.02950512
-0.04812225
-0.06671775
-0.08166013
-0.07655118
-0.04683993
-0.02835063
-0.01679902
-0.01326031
-0.03810995
-0.06917993
-0.09621614
-0.1291397
-0.1084233
-0.06397944
-0.03135299
-0.01459815
-0.01553378
-0.04762533
-0.08553332
-0.1307252
-0.1782629
-0.2349067
-0.05714839
-0.02136449
-0.00635203
-0.01543367
-0.0484532
-0.08464496
-0.1372154
-0.2036183
-0.3335846
-0.006369323
-0.0192666
-0.01386347
-0.0450527
-0.07074916
-0.111013
-0.133987
-0.1437972
-0.08463559
-0.04611705
-0.007618023
-0.0124675
-0.03646359
-0.05796592
-0.08417975
-0.09740258
-0.1084594
-0.06740139
-0.04831666
-0.03675656
-0.01035359
-0.0289369
-0.04714514
-0.06631702
-0.07458904
-0.08003369
-0.06312885
-0.05345042
-0.03719688
-0.008591473
-0.02533378
-0.03870334
-0.05258445
-0.0593872
-0.06554913
-0.05458643
-0.04867197
-0.04218406
-0.006771492
-0.02129244
-0.0328235
-0.04458346
-0.0508099
-0.05550944
-0.05207423
-0.05056232
-0.04396114
-0.003802125
-0.02076121
-0.02838022
-0.03910812
-0.0446339
-0.04945567
-0.04871221
-0.04829489
-0.04647818
-0.006981434
-0.0183236
-0.02621147
-0.03545678
-0.04221173
-0.04644951
-0.04881818
-0.05003674
-0.04927565
-0.004395563
-0.01526959
-0.02506677
-0.03346383
-0.04048398
-0.0458258
-0.04889066
-0.0512084
-0.05221862
-0.008052056
-0.0136857
-0.02589839
-0.03338089
-0.04092065
-0.0466395
-0.05107238
-0.05431668
-0.05628503
-0.006728265
-0.0167059
-0.02614127
-0.03459339
-0.04247761
-0.04893971
-0.0539436
-0.05794699
-0.06087229
-0.007437872
-0.01735896
-0.02772244
-0.03675878
-0.04516968
-0.05227624
-0.05827262
-0.06302575
-0.06651374
-0.006888061
-0.01847856
-0.02961532
-0.03981406
-0.0489915
-0.05681622
-0.06354581
-0.06898122
-0.07297558
-0.007724603
-0.0204577
-0.03251257
-0.04377783
-0.05409267
-0.06275885
-0.07025694
-0.07634056
-0.08066182
-0.008596117
-0.02303213
-0.03632288
-0.04849367
-0.05975671
-0.06961224
-0.07815114
-0.08480429
-0.08941891
-0.009358142
-0.02599872
-0.04153534
-0.05476568
-0.06780658
-0.0791696
-0.08815554
-0.09544036
-0.09984326
-0.01060122
-0.02916275
-0.04617967
-0.06176957
-0.07631945
-0.08858203
-0.09926891
-0.1072185
-0.1117784
-0.01345049
-0.03380273
-0.0549744
-0.07072547
-0.08757501
-0.1030631
-0.1143578
-0.1230374
-0.1262211
-0.005143508
-0.004674786
-0.002378866
-0.00457811
-0.003854484
-0.003195133
-0.002491568
-0.001729016
-0.002249152
-0.01241599
-0.01810355
-0.0250656
-0.02866453
-0.02679032
-0.01943116
-0.01397957
-0.009127598
-0.003996314
-0.01944071
-0.03238227
-0.04349644
-0.0516984
-0.04605789
-0.03452423
-0.02289242
-0.01452039
-0.006612955
-0.02956152
-0.04874151
-0.06858708
-0.08301902
-0.07614444
-0.04720766
-0.02853211
-0.016801
-0.009954542
-0.03963192
-0.06883847
-0.09865518
-0.1274526
-0.106665
-0.06235295
-0.03017697
-0.01527246
-0.01029459
-0.04732865
-0.08473475
-0.1308125
-0.1758646
-0.2329036
-0.0586909
-0.02268221
-0.009453942
-0.01091205
-0.05136502
-0.08343051
-0.1366356
-0.2019799
-0.3299006
-0.01325362
-0.009184147
-0.01774915
-0.04198362
-0.0713032
-0.1069015
-0.1347223
-0.1434004
-0.08310415
-0.04680813
-0.03054003
-0.01572766
-0.03572223
-0.05737206
-0.08103265
-0.0969346
-0.1091267
-0.06824348
-0.04874785
-0.0349826
0.02051579
-0.03125009
-0.04553944
-0.06512944
-0.07441211
-0.07993159
-0.06356134
-0.05342491
-0.04133587
-0.006039999
-0.02445815
-0.03887908
-0.05161059
-0.05903378
-0.06504017
-0.05466477
-0.04940235
-0.04265105
-0.007995311
-0.02224504
-0.03265401
-0.04468289
-0.05063738
-0.05538828
-0.05231696
-0.05028891
-0.04526303
-0.015604
-0.01644357
-0.03054754
-0.0379357
-0.04452868
-0.04935692
-0.04880166
-0.04834581
-0.04665891
-0.01372221
-0.01300927
-0.02868844
-0.03475756
-0.04217505
-0.04693327
-0.0488398
-0.0500019
-0.0495059
0.0006953985
-0.02005468
-0.02314366
-0.03489663
-0.04007703
-0.04583104
-0.04898953
-0.05125738
-0.05233557
0.02591667
-0.01693555
-0.02359829
-0.03396538
-0.04066763
-0.0467857
-0.05112138
-0.05434046
-0.05634372
-0.004891833
-0.01540136
-0.02639733
-0.03466686
-0.04244727
-0.04902213
-0.05404593
-0.05796456
-0.06089779
-0.008605215
-0.01739072
-0.02798642
-0.03663372
-0.045284
-0.0524534
-0.0583042
-0.0630445
-0.06651805
-0.00865817
-0.01806506
-0.02956801
-0.03962001
-0.04900289
-0.0567734
-0.06353274
-0.06897975
-0.07296645
-0.009063889
-0.02051271
-0.0326519
-0.04405314
-0.05400007
-0.06301917
-0.07020855
-0.07627505
-0.08063665
-0.009935643
-0.02241963
-0.03610285
-0.04874489
-0.0602326
-0.06965972
-0.078109
-0.08475734
-0.08937308
-0.01025522
-0.02587412
-0.04119379
-0.05526682
-0.06773391
-0.07906756
-0.08813048
-0.09512702
-0.0998241
-0.01281947
-0.02821249
-0.04700756
-0.06275796
-0.07763157
-0.08939049
-0.09930145
-0.1068625
-0.1116509
-0.004145745
-0.03420693
-0.05366313
-0.07294178
-0.08920051
-0.1026548
-0.1138999
-0.1213124
-0.1260294
-0.007085545
-0.00402777
-0.004889419
-0.00517327
-0.002243046
0.0008285104
-0.001802877
-0.001243785
-0.001654572
-0.01075152
-0.01891783
-0.02551227
-0.02914535
-0.02745765
-0.02055509
-0.01494165
-0.009516689
-0.004315262
-0.01922033
-0.03249759
-0.04207241
-0.04996008
-0.04348263
-0.03030867
-0.0215673
-0.01363824
-0.005377263
-0.02917858
-0.04811682
-0.06672214
-0.0797607
-0.07667948
-0.05273861
-0.03110187
-0.01656561
-0.0100293
-0.03902217
-0.06795446
-0.09515028
-0.128379
-0.1155465
-0.06586889
-0.03518111
-0.01589726
-0.007880374
-0.04742316
-0.08515318
-0.1299145
-0.1794892
-0.2279935
-0.05813034
-0.01906173
-0.01061082
0.01123836
-0.04920069
-0.0838734
-0.1348594
-0.2022301
-0.3388221
-0.01278372
-0.04437375
-0.07040578
-0.1098795
-0.1333223
-0.1458028
-0.0873129
-0.04751623
-0.03006205
-0.01185221
-0.03499743
-0.05877875
-0.08436551
-0.09681443
-0.105384
-0.06301815
-0.04575812
-0.035184
-0.001180967
-0.02915113
-0.04825943
-0.06627938
-0.07466667
-0.07944256
-0.06272391
-0.05339346
-0.04060617
-0.0068849
-0.02470908
-0.03909625
-0.05232406
-0.05891326
-0.06508126
-0.05357137
-0.04798322
-0.04235204
-0.007480619
-0.02288468
-0.0318635
-0.04474958
-0.05052555
-0.05505851
-0.05186892
-0.05009689
-0.04482796
-0.008782205
-0.0220991
-0.02845515
-0.03894686
-0.04440864
-0.04909626
-0.048574
-0.04814906
-0.04643905
-0.006304437
-0.01780065
-0.02561616
-0.03548798
-0.04207761
-0.04616709
-0.04867723
-0.04984466
-0.04935397
-0.008935036
-0.01230597
-0.0257116
-0.03354775
-0.0403525
-0.04557374
-0.04887222
-0.05112159
-0.05222097
0.002344761
-0.0117991
-0.02826443
-0.0332326
-0.04073384
-0.04641069
-0.05100157
-0.05424032
-0.05623908
-0.004904057
-0.01490776
-0.02734167
-0.03457535
-0.04238669
-0.04896281
-0.05383823
-0.0578007
-0.06078868
-0.004082511
-0.01551522
-0.0281552
-0.03660844
-0.04524733
-0.05217557
-0.05821523
-0.06295818
-0.06640514
-0.007741593
-0.01767285
-0.02989317
-0.03968295
-0.04872402
-0.05666851
-0.06330373
-0.06887629
-0.07282892
-0.005336524
-0.02128832
-0.03292959
-0.04386091
-0.05427344
-0.06265895
-0.07004808
-0.07620982
-0.08050783
-0.006786045
-0.02189731
-0.03661115
-0.04802417
-0.05939298
-0.06935454
-0.07791435
-0.08468581
-0.08918299
-0.007803351
-0.02587315
-0.04226109
-0.05478723
-0.06759061
-0.07912609
-0.088018
-0.09550021
-0.09962198
-0.009369168
-0.02854864
-0.04685821
-0.06104761
-0.07568624
-0.08817314
-0.09872463
-0.1070129
-0.1112635
0.01377025
-0.03159583
-0.05619967
-0.06854864
-0.08933926
-0.1037635
-0.1148104
-0.1242317
-0.1255453
0.006554111
-0.004744506
-0.01010228
-0.0027886
-0.00293046
-0.0008531195
-0.01813093
0.007960449
-0.002448729
-0.005287083
-0.00762299
0.00638615
-0.001440332
-0.02156979
0.003647558
-0.004454455
-0.001065642
-0.01033497
-0.004120969
-0.001880603
-0.02441263
-0.0003496052
-0.003777768
-0.001101608
-0.01583636
-0.009413628
-0.002056478
-0.02480917
-0.004416831
-0.005109218
-0.001669749
-0.01562804
-0.01249385
-0.001666615
-0.02127516
-0.006589948
-0.003921227
-0.002342769
-0.01550759
-0.0106473
-0.001203999
-0.01501921
-0.00568063
-0.002883286
-0.002177659
-0.01159881
-0.007470866
-0.0008505549
-0.01074848
-0.004215604
-0.002037739
-0.001946607
-0.008469914
-0.005302509
-0.0006342818
-0.006810791
-0.002939267
-0.001225379
-0.001287964
-0.005076382
-0.003372717
-0.01036538
-0.00501426
-0.001764903
-0.004194182
-0.0004716106
-0.007126611
-0.0148964
-0.007632065
-0.00412201
-0.007721024
-0.001446093
-0.01155382
-0.02074794
-0.01159508
-0.005437226
-0.01338965
-0.002631817
-0.0167674
-0.02677296
-0.01582096
-0.007145782
-0.01872138
-0.004064068
-0.02214389
-0.03293298
-0.01733861
-0.008912097
-0.0241908
-0.004926744
-0.02577157
-0.09671245
-0.3961266
-0.2278222
-0.1029441
-0.3998739
-0.03129097
-0.05813852
-0.02781959
-0.01043253
-0.02092938
-0.01082414
-0.004338251
-0.01056398
-0.00466291
-0.03647616
-0.01392202
-0.01004008
-0.02706746
-0.004320889
-0.02514872
-0.2348724
-0.165695
-0.3425727
-0.2437522
-0.1825216
-0.1084287
-0.03833419
-0.1126623
-0.02781093
-0.05516744
0.008857032
-0.05948714
0.01207873
-0.0413597
0.01619348
-0.0494774
0.01579176
-0.03516397
-0.009541273
-0.009839324
-0.02521617
-0.00329532
-0.02222838
-0.03257871
-0.005572626
-0.008931252
-0.02200894
-0.00244282
-0.01860185
-0.0303466
-0.001666191
-0.008059823
-0.01871351
-0.001411619
-0.01579117
-0.02746603
0.001013038
-0.007310758
-0.01578591
-0.0008771664
-0.0130183
-0.02582572
0.003281414
-0.006701848
-0.01323296
-0.0003328343
-0.01154953
-0.02431688
0.004605897
-0.006081288
-0.01183797
-0.0002290101
-0.009974616
-0.02369533
0.005501182
-0.005698022
-0.01047039
-8.401562e-05
-0.009424337
-0.02329231
0.005937937
-0.005462424
-0.01008479
-0.0001031985
-0.008978377
-0.02339239
0.006119996
-0.005356214
-0.009825809
-0.0002014554
-0.008983675
-0.02378335
0.006021165
-0.005360297
-0.01000708
-0.0004075535
-0.009294501
-0.0245147
0.005692542
-0.00547925
-0.01046186
-0.0006935725
-0.009955864
-0.02553904
0.005128737
-0.00569732
-0.01126263
-0.001077025
-0.01090475
-0.02687655
0.004339648
-0.006015183
-0.01236385
-0.001566382
-0.0121608
-0.02854816
0.00327277
-0.006446973
-0.01378913
-0.002183073
-0.01377
-0.03059906
0.00188091
-0.007010124
-0.01559064
-0.002944971
-0.01578349
-0.03310301
9.541023e-05
-0.007725113
-0.0178475
-0.003892238
-0.01825789
-0.03614595
-0.002131295
-0.008626378
-0.02061716
-0.005065103
-0.02131489
-0.01126707
-0.01199294
-0.00524996
-0.009306958
-0.01159851
-0.003603247
-0.09884741
-0.4092503
-0.2337655
-0.1081135
-0.4109145
-0.2406945
-0.1821189
-0.3302766
-0.2425611
-0.1905992
-0.008854885
-0.01625201
-0.0007584709
-0.008538277
-0.01575594
-0.0004712379
-0.1029467
-0.4104717
-0.2350656
-0.1095216
-0.4136279
-0.2425154
-0.1900064
-0.3336498
-0.244178
-0.1920421
-0.007809284
-0.01639926
-0.0001056401
-0.007974362
-0.01596721
0.0003109285
-0.1104749
-0.4142128
-0.2346096
-0.1102006
-0.4152453
-0.2436129
-0.19141
-0.3341454
-0.243743
-0.19184
-0.00756603
-0.01653123
0.0002141178
-0.00790702
-0.01603599
0.0005716969
-0.1110531
-0.4155063
-0.2353615
-0.1113594
-0.4156581
-0.2439825
-0.1925829
-0.3334187
-0.2440219
-0.1934464
-0.007805802
-0.01598788
0.000633386
-0.008030867
-0.016489
7.301463e-05
-0.1111994
-0.4157009
-0.2350474
-0.1112225
-0.4154549
-0.2439347
-0.1936148
-0.3333534
-0.2440722
-0.1923843
-0.008177783
-0.01592824
0.0006619328
-0.008118979
-0.01625305
0.0003329774
-0.1109235
-0.415298
-0.2345978
-0.1106668
-0.4142919
-0.2437232
-0.1922232
-0.3331663
-0.2437071
-0.1917622
-0.008495434
-0.01548561
0.0004998506
-0.009888914
-0.01622629
-5.485304e-05
-0.1090658
-0.4136649
-0.235047
-0.103164
-0.4104155
-0.244073
-0.1923558
-0.332891
-0.2428429