/*--------------------------------*- C++ -*----------------------------------*\
  =========                 |
  \\      /  F ield         | OpenFOAM: The Open Source CFD Toolbox
   \\    /   O peration     | Website:  https://openfoam.org
    \\  /    A nd           | Version:  7
     \\/     M anipulation  |
\*---------------------------------------------------------------------------*/
FoamFile
{
    version     2.0;
    format      ascii;
    class       volScalarField;
    location    "0.1";
    object      Uz;
}
// * * * * * * * * * * * * * * * * * * * * * * * * * * * * * * * * * * * * * //

dimensions      [0 1 -1 0 0 0 0];

internalField   nonuniform List<scalar> 
76598
(
9.420845e-05
-0.00137361
-0.0009837614
-0.000934309
-0.0007704332
-0.0005152582
-0.0003640039
-0.0001928719
-0.003598231
-7.93402e-05
-0.0007080338
-0.001297039
-0.001156675
-0.001133654
-0.0005465763
-0.0003397439
-0.004602291
-0.001544121
-0.0004084702
-0.0008223977
-6.355655e-05
0.0004011714
-0.0003973425
-0.000129447
-0.006897831
-0.0004438689
0.0009861628
0.003428548
0.002888254
0.001731098
0.0006859849
-0.0001129285
-0.007578956
-0.0003460368
0.004710957
0.006009285
0.005852635
0.003976788
0.001306086
0.0007334829
-0.008511767
0.0008998904
0.004871696
0.01398353
0.004872395
0.005851323
0.0001598211
0.0003947723
-0.009785662
0.0003388991
0.004199143
0.006986661
-0.007378692
-0.01130151
0.0001147138
0.003282948
-0.0001727288
-0.005716536
-0.0026564
-0.002808937
-0.001950029
-0.01051504
-0.0008838353
0.0001787559
0.0003601545
-0.001294981
-0.0008844461
0.000138648
0.0002417291
-0.01317645
-0.001399803
9.548777e-05
0.000115794
5.276617e-05
0.0004628705
0.0005994293
0.0004986499
-0.01164227
-0.001473583
0.000341793
3.244981e-05
0.0002580274
8.231959e-05
0.0001936286
0.0006180955
-0.01414326
-0.001444879
0.0003223305
0.000198628
6.82462e-05
0.0002065962
0.0002930665
9.318301e-05
-0.01307664
-0.001602431
0.0003373298
0.0002414322
0.0002619823
0.0001683947
0.0001279728
0.0001498886
-0.01448478
-0.00135829
0.0004314336
0.00029185
0.0002359066
0.0001348333
7.783034e-05
5.859888e-05
-0.01398632
-0.001592208
0.0004364256
0.000286994
0.0002464236
0.0001041547
9.17282e-05
3.287906e-05
-0.01419853
-0.001614089
0.0004230976
0.0003804914
0.0002634349
9.191474e-05
7.807498e-05
2.36747e-05
-0.01443203
-0.001657062
0.0004325326
0.0003535791
0.0003415148
0.0001053304
8.394031e-05
3.359485e-05
-0.01490726
-0.001687472
0.000387102
0.0004734991
0.0002863633
8.752372e-05
7.352572e-05
2.656398e-05
-0.0153154
-0.001708859
0.0003850187
0.0004385686
0.0003412725
9.117776e-05
6.945582e-05
3.407833e-05
-0.01573769
-0.001708617
0.0003905773
0.000439751
0.0003328591
0.0001163665
8.548604e-05
4.106688e-05
-0.01623766
-0.001719331
0.0003633694
0.0004578303
0.0003444338
0.0001343897
9.199636e-05
4.236572e-05
-0.01678364
-0.001698067
0.0003548451
0.0004881703
0.0003554455
0.0001470531
9.715346e-05
4.151685e-05
-0.01732154
-0.001668027
0.0003701189
0.0004948408
0.0003240504
0.0001408102
8.421167e-05
3.039299e-05
-0.0180326
-0.001563591
0.0004183561
0.000530296
0.0003265721
0.0001502738
7.901068e-05
2.270251e-05
0.002083359
-0.003330913
0.001221568
-0.002001485
-0.000392206
-0.0003092877
-9.494874e-05
7.567749e-05
-0.001739929
-0.001119355
0.002010972
0.000345765
0.000164466
7.490313e-05
-0.0001396649
0.0001144004
0.0001253681
-0.003997047
0.0009053892
-0.001046991
-4.893025e-06
-0.0008023048
-0.0001656215
0.0005983691
-1.851751e-05
-4.336661e-06
-0.003791733
0.0008198206
6.271315e-05
-0.000631264
-0.001464677
-0.00195648
-0.001635319
-0.0002561117
-3.513385e-05
-0.004137549
0.001144
-0.001092586
-0.001465259
-0.004351149
0.0001565461
0.003567224
-0.0006434175
-0.0003634013
-0.004694229
0.0009923586
-0.0008062886
-0.003971575
0.00209207
0.0009785476
-0.002732501
0.0005705487
-0.0002119935
-0.005249206
0.001189924
-0.0009994278
-0.001908984
-0.001932926
-0.005289818
-0.01781146
-0.02471756
-0.005644519
0.001837488
-0.00121858
-0.001884526
-0.002213142
0.002125322
0.007454343
0.001127886
0.005311397
-0.005908448
0.002098985
-0.001081357
-6.579648e-05
-0.001114076
-0.0004392682
-0.000476418
0.001252741
-0.004389198
-0.006014208
0.002353529
-0.0007667343
0.0001919145
-0.0005840485
-0.000350927
0.0005467018
0.0003780786
0.0007264744
-0.006217363
0.002500584
-0.001043383
0.0001979673
-0.0004799484
0.0003491558
-8.941862e-06
0.0004051942
-0.001039783
-0.006386032
0.002447794
-0.0008519152
0.0003079591
-0.0005277467
-2.391837e-05
-8.344672e-06
-1.74308e-05
-3.892472e-05
-0.006633229
0.002533968
-0.0009815401
0.0002205683
-0.0004467605
8.981449e-05
-0.0001097722
4.858236e-05
-0.0002823085
-0.00678488
0.002595897
-0.001009727
0.00030827
-0.0004281951
5.525967e-05
-8.723708e-05
9.334014e-06
-1.703635e-05
-0.006966231
0.002472087
-0.001126998
0.000379242
-0.0003825345
-2.29841e-07
-8.426431e-05
2.358698e-06
-4.796395e-05
-0.007080253
0.002514002
-0.00123892
0.0003512542
-0.0004453465
3.660629e-05
-0.0001016108
1.675629e-05
-4.292351e-05
-0.007193729
0.002509112
-0.001302743
0.000456314
-0.0003851854
-4.880989e-05
-7.069995e-05
-1.994021e-06
-2.301391e-05
-0.007293436
0.002572026
-0.001346264
0.0003976393
-0.0004238898
3.264977e-06
-7.040144e-05
1.241393e-05
-1.427333e-05
-0.007407069
0.002580587
-0.001362865
0.0004179918
-0.0004305282
-2.419155e-05
-5.6947e-05
8.672792e-06
-5.921011e-06
-0.007526477
0.002626683
-0.001398804
0.0003837116
-0.0004577074
1.84255e-05
-6.806498e-05
9.028015e-06
-3.758835e-06
-0.007656056
0.002698774
-0.001457675
0.0003408712
-0.0004749547
1.91573e-05
-6.753061e-05
1.26484e-05
-3.397452e-06
-0.007795785
0.00275798
-0.001529127
0.0002757156
-0.0004715112
7.226012e-05
-9.307778e-05
2.995416e-05
-9.514622e-08
-0.007921193
0.002707976
-0.001643921
0.0002482357
-0.0005354932
7.73684e-05
-0.0001179246
2.999907e-05
-8.986781e-06
0.002639705
0.002645543
-0.001729788
0.000248101
-0.000560965
8.573132e-05
-0.0001137073
4.679115e-05
1.182431e-06
-0.0007108061
-0.0006729889
0.00111783
-1.552571e-05
-8.478375e-05
-0.000122846
-0.0001519371
-5.647787e-05
-0.001854756
-0.00164129
0.001132985
-0.0004919271
-0.0001003287
-0.0003530442
-0.0002001234
-0.0002370122
-6.034643e-05
-0.001721091
-0.0005433934
-0.000953432
-9.632245e-05
-0.0002389061
-0.0001637093
-2.16315e-05
-0.0001132877
-7.140264e-05
-0.002311321
-0.001278374
-0.0009881367
0.0001904314
0.0004097534
0.0003938834
0.000456229
-0.0001613441
0.0003231358
-0.003617435
-0.001015585
-0.00102241
0.001173469
0.000579601
0.0004828734
-6.630731e-05
0.0007299035
-0.0001618554
-0.003907717
-0.0009794533
-0.001149988
0.001278249
0.001639122
0.0007614182
-0.0005873233
-0.000538509
0.0004285305
-0.004426738
-0.001033598
-0.001309031
0.0009373089
0.0008818723
0.001966036
0.001865413
-0.007759671
-0.004867865
-0.001307677
-0.001691215
0.0007005361
-0.0002034563
-0.0007377676
0.002557194
-0.002324052
0.005955876
-0.005183777
-0.001862394
-0.001911505
0.0005442069
-0.0002271536
0.000877148
0.0006467966
0.001850725
-0.002274264
-0.005554531
-0.001761449
-0.002307556
2.591604e-06
-0.0003142598
-0.0001340635
-0.0002603955
-0.000334857
0.000734184
-0.005820559
-0.002086856
-0.002232258
-6.976386e-05
-0.0002814581
0.0004609969
2.020155e-05
0.0002363036
-0.0001767023
-0.006112446
-0.002089613
-0.002450531
-0.000180797
-0.0004411625
7.355219e-05
3.085757e-05
-2.127318e-05
2.883333e-05
-0.006189628
-0.002067674
-0.002431497
-9.2014e-05
-0.0004245143
0.0001395015
-6.334429e-05
0.0001055025
-0.0002621483
-0.006461797
-0.002255516
-0.002572201
-0.0002096984
-0.0004269503
6.88618e-05
-5.203516e-05
6.234771e-05
2.498538e-05
-0.006689419
-0.002231866
-0.00261029
-0.0002313114
-0.0004136268
0.0001450551
-6.958438e-05
5.989228e-05
-3.067252e-05
-0.006871066
-0.002201284
-0.002672162
-0.0002358868
-0.0004451729
7.595185e-05
-2.964091e-05
7.094481e-05
-7.048353e-06
-0.007034769
-0.002262479
-0.002731766
-0.0002112163
-0.0004342458
0.0001168268
-1.667786e-05
4.181248e-05
5.779538e-06
-0.007231041
-0.002336563
-0.002813435
-0.0002296993
-0.0004465963
8.52226e-05
-3.552355e-06
5.151786e-05
1.724147e-05
-0.007425406
-0.002445329
-0.002887836
-0.0002207829
-0.0004419295
8.133654e-05
-1.272965e-05
4.545319e-05
2.019386e-05
-0.007622364
-0.002539596
-0.002955521
-0.0002145303
-0.0004183339
0.0001257646
-3.445716e-05
5.353773e-05
2.559413e-05
-0.007840227
-0.002660919
-0.003049193
-0.0001813947
-0.0004636957
0.0001057974
-3.174283e-05
5.674535e-05
2.175349e-05
-0.008070644
-0.002782383
-0.003110545
-0.0001614537
-0.0004141137
0.0001951851
-2.829445e-05
7.917768e-05
3.155231e-05
-0.008317086
-0.00292554
-0.003277521
-0.0001501603
-0.0004879421
0.0001423235
-7.832544e-05
3.356696e-05
2.89975e-06
-0.00858407
-0.003009415
-0.003317992
-8.182094e-05
-0.0004254693
0.0002140902
-4.995387e-05
5.417035e-05
2.095014e-05
-0.0005576182
-0.001590302
0.0001374677
-0.0003353666
-6.180433e-05
-8.205311e-05
-6.268919e-05
-1.686006e-05
8.408515e-05
-0.0003953111
0.001263429
0.000274159
0.0001625933
-2.343938e-05
-8.266584e-05
-6.747462e-05
3.421295e-05
0.0008789003
0.0002862394
-0.0002494475
0.0001576633
-0.0002198849
-5.878435e-05
-9.050307e-05
-0.0002259476
-4.060997e-05
0.00127858
0.0004668802
-8.308982e-05
-0.0003026332
-0.0003434155
-0.0003942113
-0.0003834814
-0.0002647192
-1.177554e-05
0.001437986
0.0005729959
-0.0003732315
-0.000211049
-0.0008955544
0.0001945124
0.0008292367
0.0002828835
-0.000124025
0.00187423
0.000539428
-3.703233e-05
-0.0009962079
0.0005678764
0.0002901444
-0.0004828644
-0.0003508124
-4.754796e-05
0.002163792
0.0007613715
-2.882871e-05
-0.0002672953
0.0006163856
0.001731801
-0.01194775
-0.0009316307
0.002838398
0.001063419
0.0001872642
1.664623e-05
-0.0001869328
0.0002729701
0.001831915
-0.002352413
0.003297213
0.003055059
0.001435587
0.0001188031
0.0002371473
0.0001553059
0.0009881111
0.001470255
0.001597158
-0.001665511
0.002240365
0.001577689
0.0002991143
0.0001381188
-8.325326e-05
-0.0002479226
-9.585348e-05
-0.0002665768
0.0003447492
0.002322409
0.001426146
0.0002801935
0.0003823045
9.328045e-05
0.000481703
0.000369894
0.0003454262
-0.00054654
0.002189029
0.001714374
0.0003936681
0.0003275236
1.661358e-05
0.0001474128
6.516035e-05
7.003914e-05
8.458548e-05
0.002424212
0.001329686
9.923139e-05
0.0004353035
0.000115679
0.0002969684
0.0001917373
0.0001784464
-0.0001210319
0.002043076
0.001698879
0.0001771581
0.0004852856
0.0001188652
0.0002489304
0.0001006279
0.0001251062
7.921932e-05
0.002030305
0.00208727
0.0001196662
0.0005220572
0.0001473756
0.0004066082
0.0001183939
0.0001303351
1.710152e-05
0.002284098
0.001696975
0.0002147934
0.0005014156
0.0001736977
0.000335089
0.0001076009
0.0001545368
5.084879e-05
0.00245452
0.001881204
0.0001458915
0.0005099035
0.0001305448
0.000437318
0.0001217468
0.0001237997
5.791979e-05
0.002288906
0.001630895
0.0002331137
0.0005291312
0.0001555643
0.000388889
0.0001169662
0.0001251885
6.707241e-05
0.002482197
0.001721997
0.0002168801
0.0005394635
0.0001478675
0.0004130562
0.0001095179
0.0001154406
6.891725e-05
0.002549682
0.001656833
0.0002460255
0.000540157
0.0001835286
0.0004552022
0.0001040694
0.0001364672
8.36216e-05
0.002724257
0.001738385
0.0002960786
0.0005892161
0.0001583594
0.0003792492
0.0001142779
0.0001495061
8.226016e-05
0.00296597
0.001839096
0.0003792519
0.0006289988
0.0001762878
0.0004125549
0.0001535475
0.0001855089
0.0001093335
0.003376235
0.001949874
0.0004371528
0.0006578
0.000143942
0.0003670882
0.0001196923
0.0001661079
9.358663e-05
0.00404185
0.002198718
0.0006163617
0.0006958649
0.0001784006
0.0004077675
0.0001684819
0.0002170151
0.0001357098
-0.0007991169
2.459782e-05
6.943726e-07
3.093966e-05
-1.202899e-05
-2.901678e-05
-1.500796e-05
-8.652031e-06
-5.499247e-05
-0.0001258776
1.90862e-05
1.54377e-05
3.237451e-05
-1.931944e-05
1.636023e-05
-1.018847e-05
2.178786e-05
-0.0002781634
-0.0001213777
-0.0001604089
3.520897e-05
2.730659e-05
0.000104581
1.450818e-05
4.589922e-05
6.203658e-06
-0.0004164275
2.508731e-05
-0.00017968
0.000106032
0.000133303
4.362119e-05
0.0001825241
4.174662e-05
0.0001566767
-0.0004304408
4.331653e-05
-0.0003747994
0.000288706
0.0001835117
0.0002096604
2.978187e-05
0.0001236149
-1.176727e-06
-0.000542769
0.0001244206
-0.0003784298
0.0003145061
0.0004520571
4.740845e-05
0.0005056091
-0.0004391119
6.768948e-05
-0.0004728685
2.309544e-05
-0.0003637355
5.552578e-05
0.0004064783
0.001203344
-0.009548875
-0.003262442
-0.0004948881
0.0002689857
-0.0005113863
8.528156e-05
3.541412e-05
-0.0001778107
0.0006154305
-0.0001612177
0.00309479
-0.0005756798
-2.662989e-05
-0.0005593862
0.0002707097
-1.730533e-05
0.0004023568
0.0006589901
0.0006069453
-0.0001476404
-0.0005776627
0.0005786204
-0.0003632869
8.946038e-05
-0.00010824
-0.0001977447
-6.490185e-05
-0.0001752667
5.544256e-06
-0.000638602
0.000343495
-0.0006328638
-0.0001705756
-0.0001683464
0.0001641748
0.0003056883
0.0001472309
-7.951437e-05
-0.0006098285
0.0005292685
-0.0004430711
-0.0001577286
-0.0002737232
-6.352515e-05
-3.594173e-05
-0.0002405827
-0.0001944327
-0.0004896513
0.0008174163
-0.0005965901
-0.0001123804
-0.0003314304
-1.244958e-05
-3.373236e-05
9.115853e-06
-0.0001028724
-0.0002285374
6.701734e-05
-0.0005825082
-0.0002715079
-0.0003900647
-0.0001491275
-6.730093e-05
-3.060797e-05
-3.824505e-05
-0.0002381954
8.02599e-05
-0.0006514994
-0.0002087359
-0.0004154089
-0.0002268903
-8.894451e-05
-1.015086e-05
-6.784484e-05
-0.0006047712
0.001001977
-0.0004827228
-0.0002355505
-0.0005449514
-0.0002235471
-5.441591e-05
-3.153249e-05
-1.380884e-05
-0.0007382905
0.0007964831
-0.0005505847
-0.0001412067
-0.0005135059
-0.0003070744
-6.163707e-05
-2.125103e-05
-1.36091e-05
-0.000815429
0.001025235
-0.0005790594
-0.0001579764
-0.0006303575
-0.0001807099
-2.414451e-05
8.916091e-06
9.733892e-06
-0.0008845807
0.0009482891
-0.0006546176
-0.0001450547
-0.0005762587
-0.0001426831
-4.65286e-05
-9.449926e-06
3.008916e-06
-0.0009177488
0.001098386
-0.0006721232
-0.0001702262
-0.0005100723
-0.0001175133
-3.248642e-05
6.548965e-06
2.255698e-05
-0.0009707895
0.001019511
-0.0007420928
-0.0001565085
-0.0005455229
-0.0001346689
-6.193793e-05
-3.026088e-05
5.739851e-06
-0.001005377
0.001152861
-0.0007642442
-6.15371e-05
-0.0004130744
1.574247e-05
-1.267447e-05
1.686732e-05
5.439988e-05
-0.001100638
0.001083106
-0.0008901929
-4.066173e-05
-0.000559926
-0.0001208785
-0.0001052747
-0.0001299454
1.367776e-05
-0.001133483
0.001324214
-0.0008736924
0.0001873132
-0.0002801741
0.0001278393
2.740366e-05
-4.359068e-05
0.0001117849
-0.0007549574
0.001189397
-2.88145e-05
0.0003501625
2.460006e-05
9.328489e-05
5.695551e-05
2.233513e-05
-7.823619e-05
0.0005066141
-0.0008929995
-9.600534e-05
-2.017453e-05
7.698579e-05
9.586898e-05
0.0001040126
3.650904e-05
0.0003238653
0.0001338195
0.000444051
-0.0001740495
8.766257e-05
-0.0001415614
5.502639e-05
1.571249e-06
2.083083e-05
0.0004846444
-0.0001006235
0.000487962
-3.78754e-05
-1.368218e-05
3.563059e-05
-0.0001488279
6.732965e-05
-8.320489e-05
0.000600368
-5.181551e-05
0.000671002
-0.0003124378
-5.013399e-05
0.0003747546
3.388506e-05
-2.221901e-05
6.34027e-05
0.000752031
-0.0004452615
0.0007271289
-0.0004027203
0.0005897711
7.773069e-05
6.644531e-05
-0.0003019705
1.356441e-05
0.00118857
0.0001562008
0.0007499289
1.043616e-05
0.0008595935
0.0006280912
-0.008145212
0.0003459217
0.001383102
-0.0005046383
0.0008439868
-2.380089e-05
0.0001783964
0.0001026799
-0.0005742821
0.0003815159
-0.00153332
0.0003393987
0.0003797339
0.0007898017
0.0001085623
0.0003983337
-0.0002942849
-0.0004849655
-0.0004191664
0.0005731067
0.001210164
-0.001077072
0.0008366243
-0.0003415714
0.0002661575
4.843182e-05
0.0002202756
0.0001778852
0.0002310248
0.001116475
-0.0007345035
0.001079318
0.0001778309
0.0003973222
-7.337493e-05
-6.661714e-05
-1.44694e-05
0.0001937312
0.001128456
-0.000694842
0.001066142
0.0002507139
0.0005195531
4.225914e-05
0.0001546416
0.0002420267
0.0002575578
0.00126374
-0.0009122392
0.0009319482
8.728343e-05
0.0005762006
0.0001043209
0.0001654921
5.457799e-05
0.0001718527
0.0004124759
0.0005277058
0.0008573452
0.0004662521
0.0005769233
0.0002006543
0.0001727041
8.753795e-05
8.816527e-05
0.0004401123
0.0006168608
0.0009010517
0.0005458564
0.0005764939
0.0002361527
0.0001964445
7.817858e-05
0.0001076707
0.00114255
-0.0008306821
0.0009113901
0.0002694223
0.0007191696
0.000220338
0.0001844688
8.400213e-05
7.446388e-05
0.001088119
-0.0008145617
0.000938508
0.0003916688
0.0007357107
0.0002774389
0.0001590295
8.932249e-05
7.201986e-05
0.0009946005
-0.0008186991
0.0008729563
0.0002936764
0.0007886835
0.0002144239
0.0001324108
7.937583e-05
6.910201e-05
0.0009664336
-0.0009096024
0.00089033
0.0003644495
0.000706466
0.0002583512
0.0001235682
7.261314e-05
6.6439e-05
0.0009689373
-0.0008048788
0.0009003511
0.0003833636
0.0006469759
0.0002856678
0.0001899726
0.0001085388
9.868788e-05
0.0009751849
-0.000856896
0.0009183533
0.000381264
0.0005697514
0.0002297402
0.0001918312
8.751653e-05
9.245098e-05
0.0009924675
-0.0007493638
0.001075156
0.0003958546
0.0006017075
0.0003164927
0.0002492933
0.0001388353
0.0001528419
0.001077421
-0.0009742335
0.0008768545
0.0003190781
0.0004626672
0.0002068678
0.0001555355
9.630894e-05
0.0001261386
0.001200968
-0.0007602257
0.001161038
0.0003251417
0.0005082435
0.0002939479
0.0002967067
0.0002219572
0.0002437073
-0.0008998545
0.00111078
-0.00124177
-1.929102e-05
-7.803068e-05
-7.655931e-05
5.064023e-06
-1.356114e-05
1.560174e-05
0.0004302167
-0.001260638
0.0001599427
-0.0001140652
0.0001349894
0.0002018578
0.0001900276
6.514083e-05
-0.0008720112
-0.0005775488
0.0006771086
3.982804e-05
0.0004272738
5.477738e-05
0.0001426824
0.0001384982
7.082528e-05
-0.001132164
-0.0006068764
0.0002379078
0.0003766478
0.0004667055
0.0005769928
0.0005714887
0.0004451006
0.0001578437
-0.001101215
-0.0008016224
0.0007250286
0.0002363222
0.001010972
0.0006179243
-0.0007730356
-0.0004515141
0.0002284604
-0.001336295
-0.0009122491
0.0004998573
0.001027649
0.0007702565
0.00014541
-0.0001253661
0.0005685036
7.58117e-05
-0.001527272
-0.00122717
0.0005465395
0.000307337
0.0009740933
0.0006701182
-0.006221646
0.00345607
-0.001313299
-0.0006349958
0.000501818
-2.998048e-05
0.0003159977
-0.0004395123
-0.002176162
0.00173533
-0.004106364
-0.001130618
-0.002642026
0.0002942972
-0.0002774665
0.0001911717
-0.0009564098
-0.001263206
-0.001524108
0.001386391
-0.00112357
-0.001265308
0.0005009285
-0.0002362053
0.0002140066
4.728929e-05
9.409622e-05
7.544363e-05
-0.0006184682
-0.001797705
-0.001414435
0.0003376094
-0.0004766741
0.000116099
-0.0003754578
-0.0001985147
-0.0002561395
0.000535423
-0.001541174
-0.001464888
0.0004945912
-0.0002749079
0.0002525128
-0.0002097716
1.32824e-05
-0.0001194302
-8.603068e-05
-0.0008520706
-0.001091304
0.0005310176
-0.000598078
0.0001701658
-0.000212831
-7.11242e-05
-0.0001340122
0.0001756993
0.0006414079
-0.002779846
0.0008388183
-0.0008051721
0.0001687757
-0.000290063
-2.122816e-05
-0.0001067358
-3.501011e-05
0.0006159602
-0.002848318
0.001075536
-0.0008357464
5.17261e-06
-0.0003475387
-4.270328e-05
-8.713111e-05
2.137741e-05
-0.00114591
-0.001134582
0.0004102643
-0.0005139894
5.058339e-05
-0.0002757305
-5.390446e-05
-9.030822e-05
-9.752637e-06
-0.002015564
-0.001417556
0.0004309806
-0.0003773215
2.458584e-06
-0.0002520486
-6.841495e-05
-8.496981e-05
-1.280715e-05
-0.002054017
-0.001195393
0.0001792346
-0.0003258286
1.417934e-05
-0.0002873978
-4.034066e-05
-5.506017e-05
-3.847116e-06
-0.002398314
-0.001843052
0.0001196504
-0.0002745817
-4.96492e-06
-0.0002759575
-7.363871e-05
-8.434461e-05
-1.068261e-05
-0.002498874
-0.001108376
0.0001247109
-0.0003517877
-6.792877e-05
-0.000331972
6.238527e-05
-1.965941e-05
4.252477e-05
-0.002658277
-0.001618257
-1.876023e-05
-0.0002974271
-3.24744e-05
-0.000250353
-6.713363e-05
-0.0001300948
1.213031e-05
-0.003026607
-0.001334608
7.828299e-05
-6.631955e-05
0.0001381722
1.338738e-05
0.0001278531
-2.046906e-05
0.0001206904
-0.003347447
-0.00175099
-0.0004433491
-0.0001173946
-0.0001121233
-0.0003466652
-0.0001490556
-0.0003771812
8.715194e-05
-0.00378343
-0.001011817
0.0001821873
0.000616336
0.0008228645
0.000305525
0.0003446474
-0.0001201783
0.0003314657
-0.001387944
0.003329029
-0.001608028
0.001668078
0.0005199576
0.0004358522
0.0002050701
1.051419e-05
-0.0001185576
0.001621176
-0.001320731
0.0003873978
0.000571117
0.0007293335
0.0005874584
0.0005016655
0.0002166058
0.001718206
0.0003118014
0.001560492
-0.000118205
0.0006266528
0.000215399
0.000149045
0.0001939277
0.0001031385
0.002094638
0.001066829
0.001108652
-0.0001719155
-0.0003543776
-0.0002989893
-0.0003592561
0.0002150242
-0.0002648369
0.002994625
0.000730452
0.001699045
-0.00114424
-0.0003909383
0.001241595
9.291149e-05
-0.0002073066
0.0001677215
0.004045731
4.57776e-05
0.001409321
-0.001292545
0.001188154
0.0004550974
0.0004270547
0.001449517
-0.0003274117
0.005509671
9.145629e-05
0.001925563
-0.0008037818
0.001619665
-4.704445e-05
-0.002569105
0.008075838
0.006246835
0.0001089871
0.002787168
-0.0006642657
0.0003796018
0.0005177439
-0.002868265
0.001591896
-0.006550474
3.629066e-05
0.003548203
0.001982133
-7.069938e-05
0.0005429781
-0.000691973
-0.0002188714
-0.001505515
0.002391372
0.005887552
0.0005861915
0.003338686
-0.0002040622
0.0004475539
-0.0003368003
0.0003082312
0.0002406697
-0.000689283
0.005956306
0.00112746
0.003162778
-0.0002378208
0.0006404015
-0.0003126642
0.0001858363
-0.0001629826
0.0002225281
0.006213149
0.001207278
0.003655386
0.0002028968
0.0007195538
-0.0001655246
3.39726e-05
-1.056465e-05
6.025973e-06
0.007248329
0.0004299429
0.003261877
-0.0002147524
0.000744526
-8.269706e-05
0.0001965081
-6.760266e-05
0.0003139331
0.0006049255
0.004178727
0.00209517
0.0006197879
0.0005397781
3.140709e-05
0.0001040714
-4.149958e-05
5.113114e-06
0.0007864264
0.004100959
0.002273868
0.0007632438
0.0005034493
-0.0001260823
0.0001337614
-1.569829e-05
7.559151e-05
0.007432051
0.0007785539
0.003574931
0.0001519697
0.0007703011
8.7886e-06
8.869695e-05
-3.285474e-05
4.267649e-05
0.007248487
0.002171808
0.003638185
0.0004662356
0.0007131124
-8.927148e-05
9.842101e-05
1.444215e-06
3.880992e-05
0.006810928
0.002601334
0.003308866
0.0002236044
0.0006382833
1.405826e-05
7.497058e-05
8.521523e-06
4.045264e-05
0.007120812
0.002475802
0.003235442
0.0005067588
0.0005702124
-6.914957e-05
0.0001182771
5.614809e-06
4.671896e-05
0.007034994
0.00287001
0.003125906
0.0003934612
0.0006276538
-4.591448e-06
0.0001615226
3.939004e-05
7.68432e-05
0.007170778
0.002749995
0.003349225
0.0003657143
0.0004237218
-3.970742e-05
0.0001501011
-2.470972e-06
6.65994e-05
0.007419885
0.002803528
0.003419863
0.0004318148
0.0006224203
0.0001183483
0.0002810507
5.031116e-05
0.0001610835
0.00768298
0.002814365
0.003104157
0.000219924
0.0002131433
-3.33521e-05
7.349548e-05
-5.495662e-05
0.0001093759
0.008105463
0.003490614
0.003554084
0.0003330255
0.0003333664
0.0001634431
0.0004382524
0.0002239754
0.0003683663
-0.001985151
0.007868565
0.002683114
0.007032544
0.003458916
0.002382082
0.001653365
0.0007822274
0.0009827478
0.001067199
-0.001452779
-0.0001708274
-5.280434e-05
7.049294e-05
0.0004382608
0.0001050009
5.882812e-05
0.01258514
-0.001029463
0.001474138
0.0001592588
0.001159849
0.000303385
-0.0005832836
-0.0002803219
8.268498e-05
0.01331737
-0.0007051799
0.0001682611
0.000693885
0.00157874
0.002022017
0.002164759
0.0006403232
0.0004198559
0.01602891
-0.001162281
0.001294205
0.001438381
0.004312572
0.00161753
-0.003641007
-0.00100844
0.0005546399
0.01964857
-0.001757881
0.00137982
0.00402146
0.002810771
0.002033249
0.000994277
0.0009516215
-0.002007601
0.01876038
-0.001796202
0.001543886
0.001993876
0.00237109
0.0009952592
-0.01162396
0.006990346
0.01994489
-0.002480517
0.002243489
0.001511427
0.002278425
-0.002609729
-0.008924049
-0.003060863
-0.005130296
0.005762434
-0.002971455
0.002542697
0.0001900391
0.001467305
0.0003656478
0.000979269
-0.0008931608
0.004330718
0.02079241
-0.00256704
0.001891574
-0.0002880275
0.0006245083
-0.0001328898
-0.0008605559
-0.0009255113
-0.0007036506
0.01665361
-0.00242735
0.001465775
-0.000804993
0.0007441017
-0.0001031222
0.0001110194
-0.0003191842
0.001063672
0.01679619
-0.002163238
0.001643949
-0.0005460065
0.0007126191
-9.557851e-05
1.752966e-05
-5.702185e-05
3.931037e-05
0.01634501
-0.003356786
0.003274004
-0.0009558149
0.0006659215
7.032783e-05
0.0002150399
-2.117616e-05
0.0003109489
0.009666083
-0.004261311
0.003329012
-0.0009492328
0.0006764422
-0.0002015028
9.144484e-05
-2.039786e-05
2.492935e-05
0.009282171
-0.003584172
0.004535612
-0.0009976151
0.0006124882
-4.132694e-05
0.0001148064
4.600121e-05
7.880225e-05
0.02097123
-0.002881701
0.002694697
-0.0004958121
0.0005689472
-3.033448e-05
9.069072e-05
-7.61987e-06
7.11403e-05
0.0177541
-0.0018285
0.001619601
-0.0002447455
0.000591996
7.502752e-05
0.0001173571
3.785657e-05
6.046399e-05
0.02116617
-0.002558482
0.001400248
-0.0003799596
0.000419498
-0.000175507
9.259102e-05
3.05864e-05
5.363598e-05
0.01684197
-0.002103364
0.001269542
1.230398e-05
0.0006958282
-1.481558e-05
7.325028e-05
-1.365047e-05
5.702908e-05
0.01939469
-0.002535375
0.00127282
-0.0005576713
0.0003758343
-0.0001594822
0.0001756855
5.88697e-05
8.427451e-05
0.01658468
-0.001789943
0.001524231
-0.000108234
0.0005844413
-7.17924e-05
7.908403e-05
-3.540364e-05
7.701519e-05
0.01824105
-0.001421322
0.001451787
0.0002354005
0.0006984033
1.359012e-05
0.0002962377
4.259056e-05
0.0001731098
0.01981181
-0.00260282
0.001170983
-5.71047e-06
1.520005e-06
-0.0002888052
-0.0001549763
-0.0003271735
0.0001666949
0.01548251
-0.001585132
0.001429813
0.001238301
0.001358102
0.0004974317
0.0006677139
2.047091e-05
0.0005388915
0.008214762
0.01477215
0.01432623
0.007953999
0.006483441
0.008126672
0.00498109
0.002855318
0.01068847
0.004418133
0.0006902988
0.0005753302
0.0007979847
0.0005922786
0.0007346239
0.0003120356
0.0002797844
0.01560705
0.004610729
0.0008585056
0.0003818556
0.0002400449
-0.0003177788
-0.0008388165
-0.0002451599
7.356428e-06
0.0167149
0.007020107
0.0005556812
-0.001027824
-0.003446265
-0.003031934
-0.002145688
-0.0004944103
7.283154e-05
0.01535764
0.007900195
-7.740359e-05
-0.004768991
-0.006163184
0.003778894
0.001269033
0.00118281
-0.0009923027
0.005668986
0.009309803
-0.000554099
-0.004790743
0.009468171
0.009696883
0.00754886
0.00247929
0.0002704222
0.01625537
0.01073188
-0.0002445482
-0.004001265
0.007211127
0.00462496
0.02648442
0.0129989
0.000510313
-0.003454864
9.051479e-05
0.005910518
0.002147575
0.002086967
0.003176887
0.02941963
0.008516904
0.002498105
-0.001423416
-0.0002233949
0.0009522131
0.001272879
-0.0001596207
-0.0005376448
0.006089333
0.01424478
0.001553553
-6.486855e-05
-6.293086e-05
0.0002886542
-0.0005189007
-0.001017375
-0.0002930987
0.01957232
0.01354111
0.00129235
-0.0005824372
-2.161791e-06
-4.004293e-05
-2.362132e-05
-0.00017777
-0.0006244979
0.01659874
0.0138827
0.001279148
-0.0007173597
-0.0001662306
-0.0001452542
-0.0002103567
-0.0003522217
-7.054576e-05
0.02544447
0.01557753
0.001524866
-0.0007816196
-0.0002164518
-0.000145913
-0.0001240136
-0.0001058915
-0.0001382456
0.03109901
0.01298689
0.003999904
-0.001181156
-0.0001180101
-0.0003483085
-0.000166591
-0.0001171088
-7.306979e-05
0.02899268
0.01198796
0.002568276
-0.0008729864
-0.0003848741
-0.0005006659
-0.0001008759
-0.0001186978
-3.434623e-05
0.006466521
0.01628744
0.002242463
-0.0005778583
-0.000414841
-0.0002409391
-0.0001756482
-8.033659e-05
-2.486606e-05
0.02155517
0.01643482
0.001617327
-0.0004637923
-0.0003264223
-0.0003466868
-0.0001056852
-0.0001046304
-3.510812e-05
0.007192943
0.01518356
0.001459095
-0.0005119078
-0.0007110792
-0.0002338818
-0.0001081886
-6.385163e-05
-2.180212e-05
0.01632014
0.01565805
0.001497694
-0.0002353725
-0.0003055159
-0.0001487888
-0.0001888268
-0.0001220633
-3.666457e-05
0.001312482
0.01708793
0.001306152
-0.0004602988
-0.0006935857
-0.0003021046
-3.15281e-05
-5.35842e-05
-1.504681e-06
0.01593162
0.01528527
0.001497364
-0.000184155
-0.0002296004
-0.0001839368
-0.0002247968
-0.0001650885
-4.613435e-05
0.009654997
0.01558409
0.001568176
0.0002977336
-0.0001379346
-3.179042e-05
2.556381e-05
-0.0001038373
4.123436e-05
0.009393561
0.01865107
0.001797556
0.0002995045
-0.0004279134
-0.0003263456
-0.000429971
-0.0005401677
1.183466e-05
0.006845309
0.0204234
0.001655013
0.001840564
0.0006202173
0.0008084242
0.0002985759
-0.0003276211
0.0003259591
-0.002394357
-0.004478092
0.006294911
-0.001686741
0.005459718
-0.0004871556
-0.00117904
0.003230803
-0.001302702
0.01080749
0.007416227
0.001866266
-0.000486898
-0.0001263673
0.001409595
-0.01180845
0.01157664
-0.005788557
0.005552087
0.0002105743
-0.002008316
-0.001331368
-0.01213489
0.01052988
0.0008213347
0.006836565
8.017618e-05
-0.002518138
-0.002011892
-0.011745
0.007415518
-0.003901196
0.003333181
-4.152979e-05
-0.001609183
-0.00105603
-0.009022309
0.005214032
-0.001938081
0.002930985
-6.496732e-05
-0.001467617
-0.0008902982
-0.00621785
0.003710431
-0.002342707
0.002319405
-3.883731e-05
-0.001052241
-0.0005965354
-0.003931609
0.002833418
-0.00127501
0.001723943
-6.972759e-06
-0.000624364
-0.0004077162
-0.002546399
0.001899428
-0.0007254572
0.001266807
-0.007461017
-0.007933229
-0.01049544
0.007888413
-0.01077409
0.009932607
-0.0102769
-0.0092601
-0.01454286
0.01388081
-0.01437458
0.01508512
-0.01164933
-0.01080855
-0.01601049
0.01663403
-0.01595833
0.01787144
-0.01326916
-0.01237927
-0.01728021
0.01868367
-0.01716138
0.02013251
-0.01536603
-0.01426497
-0.01820206
0.02065036
-0.01806248
0.02238563
0.002565275
0.006277753
-0.009987592
-0.003290605
-0.005427159
0.003022871
-0.006825421
-0.001764254
-0.0002233465
-0.002316828
-0.001719505
-5.517727e-05
6.91708e-05
-0.0008898137
-0.01773297
-0.01650694
-0.01861183
0.0225956
-0.01877273
0.02459363
-0.01110939
-0.007732595
-0.002719451
0.009329337
0.01321137
-0.0007838386
0.007839507
0.008842062
-0.007043726
-0.004375304
0.00660931
0.0001521188
0.005350191
-0.007296516
0.003259795
-0.007574356
0.01153669
-0.0183366
-0.01827902
-0.01794647
0.02511518
-0.01875548
0.02702582
-0.01926346
-0.01933736
-0.01713923
0.02702147
-0.01840095
0.02838715
-0.02051686
-0.02038201
-0.0162603
0.02859493
-0.01803283
0.02874586
-0.02091159
-0.02070244
-0.01576675
0.02981421
-0.01782198
0.02987941