/*--------------------------------*- C++ -*----------------------------------*\
  =========                 |
  \\      /  F ield         | OpenFOAM: The Open Source CFD Toolbox
   \\    /   O peration     | Website:  https://openfoam.org
    \\  /    A nd           | Version:  7
     \\/     M anipulation  |
\*---------------------------------------------------------------------------*/
FoamFile
{
    version     2.0;
    format      ascii;
    class       volScalarField;
    location    "0.1";
    object      Uz;
}
// * * * * * * * * * * * * * * * * * * * * * * * * * * * * * * * * * * * * * //

dimensions      [0 1 -1 0 0 0 0];

internalField   nonuniform List<scalar> 
109978
(
-0.003469776
0.007351965
0.008206118
0.006334329
0.005357776
0.004814644
-0.02249428
0.001590343
-0.00261142
-0.003902927
-0.003889749
-0.003856328
-0.0189369
0.008270838
0.005394226
0.002931761
0.00198103
0.001411267
-0.01745813
0.006602765
0.002660271
0.0008358944
0.0003517096
-3.892728e-05
-0.01674869
0.008172729
0.004840486
0.003216293
0.002666783
0.002205365
-0.01632469
0.00774304
0.004091754
0.00251974
0.002036759
0.001548844
-0.01560243
0.008310135
0.004513419
0.00314366
0.002756977
0.00224393
-0.01487605
0.008430504
0.004466934
0.003125715
0.002814942
0.002272707
-0.01435386
0.008540573
0.004631434
0.003302865
0.003023317
0.002525652
-0.01385389
0.008554484
0.004712322
0.003380147
0.003120704
0.002688013
-0.0134175
0.008598196
0.004770752
0.003475663
0.003234673
0.002830929
-0.01298625
0.008613378
0.004825477
0.00354841
0.00331777
0.002925744
-0.01258371
0.008601579
0.004869252
0.003605487
0.003386661
0.003006934
-0.01219328
0.008566158
0.004936488
0.003641383
0.003443313
0.003084072
-0.01181699
0.008505507
0.005102845
0.003647891
0.003482096
0.00315846
-0.01144911
0.008421822
0.005429377
0.003635701
0.003504083
0.003217353
-0.01109357
0.008334305
0.006008816
0.003614907
0.003519305
0.003265343
-0.01075315
0.008248795
0.006029783
0.00368386
0.003539657
0.00330449
-0.01043087
0.008165273
0.00599324
0.003775142
0.003559288
0.003336714
-0.01012541
0.008086795
0.005935468
0.003843903
0.003574732
0.003362175
-0.009840456
0.008007015
0.005872032
0.003882358
0.003583902
0.003379767
-0.009574942
0.007929027
0.005815675
0.003890586
0.003604166
0.003388172
-0.001558226
0.007855112
0.00575717
0.003988129
0.003616509
0.003385853
-0.1121721
-0.03216232
-0.0325885
-0.03269344
-0.03295279
-0.03307787
-0.02136383
-0.03189372
-0.02971808
-0.02682945
-0.02802522
-0.03028145
-0.004161211
0.01276731
0.02317778
0.02874457
0.02747716
0.02880031
-0.003845436
-0.01635042
-0.01065581
-0.01395104
-0.013339
-0.01345323
-0.00146649
-0.0002616048
0.008609707
0.009990393
0.01142107
0.01206521
-0.002061403
-0.008664452
-0.003176169
-0.004875035
-0.005026158
-0.004790172
-0.001868377
-0.003800134
0.002464471
0.002706454
0.002800718
0.003087463
-0.002195914
-0.005935724
-0.0007010673
-0.001079338
-0.001645779
-0.001717319
-0.002214911
-0.004602331
0.0005983728
0.001139834
0.0005351577
0.0004246392
-0.002315781
-0.004911221
-0.0001716605
0.0003553261
-0.0004242115
-0.0007016512
-0.0023477
-0.004490952
0.0001354799
0.000834531
9.740142e-05
-0.0002256423
-0.002383993
-0.004419891
2.299352e-05
0.0007018971
-4.059579e-05
-0.0004309587
-0.002400112
-0.004236724
9.771885e-05
0.0007901449
9.160202e-05
-0.0003134125
-0.002414056
-0.004121404
9.353534e-05
0.0007579187
0.0001076223
-0.0003014563
-0.00242056
-0.003995406
0.0001134328
0.0007030049
0.0002085397
-0.0002281414
-0.00242044
-0.003888246
0.0001141364
0.0005656895
0.0003624731
-0.0001502239
-0.002420236
-0.003798107
8.316742e-05
0.0004599658
0.0005558826
-5.508299e-05
-0.002418961
-0.00372358
-2.089989e-05
0.0004225897
0.000712105
2.837814e-05
-0.002416628
-0.003648683
-6.240549e-05
0.000305389
0.0008029895
8.878469e-05
-0.002411833
-0.00357061
-7.685923e-05
0.0002372556
0.000840538
0.0001298513
-0.002404112
-0.003488896
-7.223478e-05
0.000216073
0.0008403516
0.0001522706
-0.002391885
-0.003402368
-5.661447e-05
0.0002153637
0.000830828
0.0001636215
-0.002374606
-0.003311476
-3.64125e-05
0.0002190744
0.0008117659
0.0001789946
-0.003621073
-0.003223702
-1.581394e-05
0.0002288003
0.0007566061
0.0002271852
-0.03005001
-0.00307482
-0.003649462
-0.003494166
-0.002864539
-0.002658756
-0.004257666
-0.01324849
-0.01957888
-0.0199096
-0.02041005
-0.02045743
-0.002510631
0.008918145
0.008776911
0.01030066
0.01065557
0.01110435
0.000982093
0.001582883
-0.001904492
-0.002685065
-0.003993264
-0.003779925
0.00257331
0.006553257
0.004002463
0.005189428
0.004439911
0.004109273
0.001862942
0.003284373
-0.0006550699
-0.0003837236
-0.001032532
-0.0009112117
0.001875117
0.004361697
0.001419689
0.002467636
0.001918621
0.002064837
0.001630974
0.003184504
-0.0001224219
0.0004268938
-0.0001715044
-1.366657e-05
0.001559051
0.003415407
0.0005107877
0.001174179
0.0006864169
0.0008308323
0.001448315
0.00301399
0.0001351185
0.0006094691
0.0001010266
0.0002419814
0.001386191
0.002993843
0.0002586324
0.0007523744
0.000281124
0.0004188548
0.001322062
0.002841055
0.000175611
0.0006090582
0.0001384794
0.0002676823
0.001271943
0.002766895
0.0001951384
0.0006124533
0.0001546893
0.0002759053
0.001223584
0.002677347
0.0001814307
0.0005707573
0.0001155979
0.0002279631
0.001177706
0.002606047
0.0001880799
0.0005687333
9.65609e-05
0.0002126946
0.001133287
0.002536561
0.0001858944
0.0005695161
6.151634e-05
0.0001922613
0.00109029
0.002470629
0.0001804182
0.0005666013
2.718434e-05
0.0001731211
0.001048945
0.002402792
0.0001666825
0.0005132251
-6.083777e-06
0.0001506612
0.001010948
0.002347742
0.0001652015
0.0005352004
-2.739651e-05
0.0001388336
0.0009742725
0.002294115
0.0001612409
0.0005415516
-3.889945e-05
0.0001272965
0.0009389002
0.002242583
0.0001602198
0.0005437698
-3.985681e-05
0.0001165698
0.00090494
0.002190651
0.0001597235
0.0005379024
-3.96521e-05
0.0001053701
0.0008725812
0.002137059
0.0001629251
0.0005346459
-2.190374e-05
9.144965e-05
0.000843
0.002090167
0.0001662111
0.0005218122
-2.120699e-05
7.134013e-05
-0.01316475
0.002237473
0.002429599
0.00258762
0.004413822
0.004674052
-0.002522797
-0.01130375
-0.01834905
-0.01960748
-0.01938643
-0.01917768
0.001626582
0.00331516
0.005673219
0.009677728
0.009909656
0.01018865
0.0009001361
-0.001538875
0.001586087
0.001396534
0.0003635289
0.0004457121
0.001651441
0.001731344
0.003721086
0.00467974
0.00490397
0.005125079
0.0009047612
-0.0006047095
-0.0005689281
-0.001010932
-0.0007489051
-0.0009054417
0.0008539288
1.218127e-05
0.0009589774
0.001105377
0.001522875
0.001598551
0.0006342946
-0.0008484652
-0.0003821661
-0.0006046021
-0.0003957571
-0.0004655148
0.0005767794
-0.0005641248
7.388586e-05
5.351462e-05
0.0002742585
0.0002581876
0.000521582
-0.0007323363
-0.0002335668
-0.0003352023
-0.0001828355
-0.0002651413
0.000479177
-0.0006355725
-0.000109612
-0.0001727149
-1.813859e-05
-9.839751e-05
0.0004471502
-0.0006398635
-0.0001482078
-0.0002317553
-9.580295e-05
-0.0001976299
0.0004163692
-0.0005998408
-0.000106867
-0.0001885424
-5.153518e-05
-0.0001596802
0.0003895865
-0.0005800244
-9.531315e-05
-0.0001847738
-4.999794e-05
-0.0001598677
0.0003657358
-0.0005562145
-7.46208e-05
-0.0001687732
-2.536677e-05
-0.0001387838
0.0003445819
-0.0005377683
-6.181109e-05
-0.0001617396
-1.059674e-06
-0.0001184197
0.0003256779
-0.0005221039
-5.237397e-05
-0.0001520548
3.166393e-05
-9.216778e-05
0.0003081389
-0.0005111958
-5.13613e-05
-0.0001472437
6.148142e-05
-6.955423e-05
0.0002920943
-0.000501858
-4.848854e-05
-0.0001517817
8.379507e-05
-5.223801e-05
0.0002775598
-0.0004928262
-4.425967e-05
-0.0001540956
9.860233e-05
-3.989073e-05
0.0002646271
-0.0004831682
-3.742118e-05
-0.0001513948
0.000108943
-3.060047e-05
0.0002533372
-0.0004730373
-2.899996e-05
-0.0001471218
0.0001150677
-2.58283e-05
0.0002431843
-0.0004640047
-1.935311e-05
-0.0001438913
0.0001230105
-1.969137e-05
0.0002334744
-0.000453854
-9.012592e-06
-0.0001406343
0.0001247319
-1.436979e-05
-0.004611089
0.001452215
0.001692577
0.001758499
0.001727947
0.001585015
-0.001812048
-0.002481049
-0.005943545
-0.008770337
-0.009794132
-0.008172664
-4.416508e-05
0.0008139904
-0.0001911192
-0.000669588
-0.0003606914
4.938244e-05
0.0004671333
0.001667963
0.002741097
0.003715901
0.00279238
0.002731001
0.0007439788
0.001384483
0.001556525
0.002179809
0.001943602
0.002190839
0.0005921485
0.001581775
0.0003981475
0.001102834
0.0003416705
0.0005564324
0.0004597718
0.001362977
0.0005269271
0.001010722
0.0006178529
0.0007798189
0.0003616402
0.001120139
0.0001862675
0.0006133671
0.00018387
0.0003286827
0.0003262606
0.001068813
0.0002482849
0.0006358756
0.0002880346
0.0004135309
0.0002975633
0.0009668721
0.0001474775
0.0004963377
0.0001535984
0.0002739673
0.0002836056
0.0009302143
0.0001543561
0.0004908411
0.0001705311
0.0002844633
0.0002698557
0.000880426
0.0001219016
0.0004396077
0.0001283483
0.0002385078
0.0002592367
0.0008480292
0.0001144758
0.0004206798
0.0001207213
0.000227524
0.0002493387
0.0008160116
0.0001016874
0.0003955591
0.000103542
0.0002063458
0.0002404003
0.0007892731
9.492607e-05
0.0003779832
9.287691e-05
0.0001925828
0.0002321828
0.0007642094
8.803747e-05
0.0003612034
8.205706e-05
0.0001784426
0.0002246377
0.0007411022
8.224925e-05
0.0003452111
7.144439e-05
0.0001652096
0.0002175771
0.0007194509
7.605247e-05
0.0003281807
6.041069e-05
0.0001527532
0.0002111919
0.0007011901
7.312931e-05
0.0003220345
5.168189e-05
0.0001431451
0.00020524
0.0006840048
7.043612e-05
0.0003155074
4.422892e-05
0.0001340983
0.000199609
0.0006675523
6.849878e-05
0.0003088819
3.92569e-05
0.000126428
0.0001947325
0.0006513896
6.616377e-05
0.0003010223
3.434916e-05
0.0001206165
0.0001899823
0.0006351174
6.466832e-05
0.0002938126
3.331524e-05
0.000116736
0.0001857417
0.0006203322
6.140677e-05
0.000284538
2.60544e-05
0.0001127644
0.001284152
-0.01761423
-0.01592381
-0.01307911
-0.01098583
-0.01081266
0.0005338073
0.002226325
0.005591941
0.008702063
0.00977679
0.008157989
0.0006424566
-0.0006165237
0.0001894717
0.0006988888
0.0003558564
-4.80414e-05
0.0002757594
-0.001739483
-0.002810783
-0.003720578
-0.002796324
-0.002728323
6.70104e-05
-0.001378913
-0.001565408
-0.002181979
-0.001945911
-0.002191748
1.085723e-05
-0.001587556
-0.0004053497
-0.001104941
-0.0003431282
-0.0005566475
2.014552e-05
-0.001363909
-0.0005288248
-0.001011476
-0.0006182536
-0.000779678
2.763199e-05
-0.001120788
-0.0001872066
-0.0006136502
-0.0001839626
-0.0003284532
2.772279e-05
-0.001069119
-0.0002485382
-0.0006358668
-0.0002878329
-0.0004132478
2.88332e-05
-0.0009670688
-0.0001476278
-0.0004962182
-0.0001533956
-0.0002736148
2.738045e-05
-0.0009303751
-0.0001543269
-0.0004906555
-0.0001702088
-0.0002841676
2.564314e-05
-0.0008805655
-0.0001219172
-0.0004393646
-0.000128062
-0.0002381163
2.42067e-05
-0.0008482024
-0.0001144325
-0.0004205024
-0.0001203451
-0.0002272141
2.239188e-05
-0.0008161789
-0.0001016649
-0.0003953058
-0.0001031938
-0.000205921
2.090234e-05
-0.0007894641
-9.492511e-05
-0.0003778599
-9.244901e-05
-0.0001922684
1.930144e-05
-0.0007643517
-8.803277e-05
-0.0003610133
-8.161555e-05
-0.0001780361
1.770678e-05
-0.0007412894
-8.218545e-05
-0.0003451642
-7.09066e-05
-0.0001650073
1.630718e-05
-0.0007195967
-7.585878e-05
-0.0003282612
-5.960073e-05
-0.0001526791
1.488177e-05
-0.00070148
-7.270566e-05
-0.0003225071
-5.012657e-05
-0.0001436811
1.350232e-05
-0.0006844762
-6.961037e-05
-0.0003171773
-4.226229e-05
-0.0001361506
1.229496e-05
-0.0006687034
-6.6787e-05
-0.0003128027
-3.392765e-05
-0.0001309847
1.143465e-05
-0.0006530551
-6.280638e-05
-0.0003076493
-2.737596e-05
-0.000132394
1.072659e-05
-0.0006401374
-5.843656e-05
-0.0003113173
-1.160798e-05
-0.0001394043
9.556842e-06
-0.0006266407
-5.20827e-05
-0.0003080985
1.41511e-06
-0.0001646337
0.007907229
-0.003324551
-0.002593941
0.001082145
0.004582987
0.005692503
0.001349204
0.01158165
0.01868872
0.01975482
0.01942728
0.01919978
0.0009679895
-0.003499563
-0.005719026
-0.009702683
-0.009911885
-0.01019082
0.0006023536
0.001607419
-0.001533516
-0.001395276
-0.0003609243
-0.0004471521
-0.000364603
-0.001736763
-0.003717047
-0.00468017
-0.004903165
-0.005124118
-0.000402099
0.0006094383
0.0005721359
0.001011871
0.0007495194
0.0009060451
-0.0002756701
-1.18672e-05
-0.0009584737
-0.001104876
-0.001522386
-0.001597781
-0.0001849798
0.0008484482
0.0003822248
0.0006048485
0.0003960547
0.0004659235
-0.0001667498
0.0005639257
-7.386223e-05
-5.320838e-05
-0.0002739559
-0.0002576391
-0.0001558709
0.0007321148
0.0002335512
0.000335419
0.0001831535
0.0002654742
-0.0001541367
0.0006354297
0.0001096279
0.0001729753
1.843858e-05
9.894816e-05
-0.000155218
0.0006398231
0.0001482198
0.0002319946
9.617912e-05
0.0001979562
-0.0001571228
0.0005997857
0.0001067697
0.0001887635
5.187774e-05
0.0001601788
-0.0001596774
0.0005799174
9.518261e-05
0.0001848749
5.040789e-05
0.0001603015
-0.0001624198
0.0005559879
7.442791e-05
0.0001688844
2.578328e-05
0.0001393131
-0.0001649191
0.0005374942
6.157169e-05
0.0001617727
1.549429e-06
0.0001188679
-0.0001667465
0.0005217731
5.206341e-05
0.0001520087
-3.105603e-05
9.270518e-05
-0.0001678153
0.0005107681
5.100192e-05
0.0001470175
-6.093944e-05
6.980235e-05
-0.0001686609
0.0005012598
4.820683e-05
0.0001512198
-8.342416e-05
5.223933e-05
-0.0001692033
0.0004919385
4.389712e-05
0.0001532825
-9.826235e-05
3.922911e-05
-0.0001691422
0.0004817179
3.715309e-05
0.0001503031
-0.0001072681
3.031579e-05
-0.0001681945
0.0004706432
2.804146e-05
0.0001439864
-0.0001136478
2.627526e-05
-0.0001671519
0.0004594707
1.791242e-05
0.0001378118
-0.0001196504
2.859499e-05
-0.0001654324
0.0004455892
2.199476e-06
0.0001244382
-0.0001305058
3.455544e-05
0.01502168
0.004178509
0.0002233341
-0.00351668
-0.005522208
-0.005891207
0.003872998
0.01319393
0.01954133
0.01986764
0.02037782
0.0204389
0.0009812221
-0.008938819
-0.00877486
-0.01028896
-0.0106538
-0.01109764
-0.0001090036
-0.001587902
0.001914122
0.002684479
0.003992342
0.003780492
-0.001827806
-0.006555352
-0.00400153
-0.005189057
-0.004439703
-0.004108478
-0.0007404521
-0.003284975
0.0006562685
0.0003838615
0.001033084
0.0009118781
-0.0009211249
-0.004361991
-0.001419221
-0.002467548
-0.00191831
-0.002064346
-0.0005345001
-0.003184783
0.0001226684
-0.0004266566
0.0001718638
1.406112e-05
-0.0005647601
-0.003415819
-0.0005105106
-0.001174031
-0.0006860933
-0.0008304774
-0.0004927969
-0.003014364
-0.0001348872
-0.0006092096
-0.0001006079
-0.0002413996
-0.0004941701
-0.002994371
-0.0002583984
-0.0007521953
-0.0002807029
-0.000418591
-0.0004782647
-0.002841497
-0.0001755796
-0.0006088361
-0.0001381004
-0.0002672558
-0.0004744139
-0.002767627
-0.0001951733
-0.0006123746
-0.0001542356
-0.0002756025
-0.0004674581
-0.002678104
-0.0001816518
-0.0005705407
-0.0001151523
-0.000227393
-0.000461818
-0.002606699
-0.0001882781
-0.0005685318
-9.607353e-05
-0.0002122612
-0.0004568074
-0.002536972
-0.0001860367
-0.0005690869
-6.104497e-05
-0.0001916776
-0.0004512007
-0.002470914
-0.0001802954
-0.0005662173
-2.648891e-05
-0.0001725758
-0.000442473
-0.00240269
-0.0001663
-0.0005125264
6.985997e-06
-0.000150206
-0.0004338233
-0.002347701
-0.0001644372
-0.0005345193
2.926061e-05
-0.0001387576
-0.0004245645
-0.002293635
-0.0001598395
-0.0005414383
4.170049e-05
-0.00012877
-0.0004152418
-0.002241892
-0.0001577281
-0.0005465991
4.628706e-05
-0.0001219374
-0.00040637
-0.002189096
-0.0001546044
-0.0005426729
4.988034e-05
-0.000122485
-0.000398113
-0.002137911
-0.0001530125
-0.0005573143
6.17196e-05
-0.0001391711
-0.0003921305
-0.002088171
-0.0001507492
-0.0005506559
9.325313e-05
-0.0002114087
0.03002068
0.009225723
0.00856187
0.007091403
0.007529165
0.008471152
0.01876342
0.03191594
0.02975527
0.02684511
0.02803047
0.03027546
0.00181413
-0.01277795
-0.02317806
-0.02874297
-0.02747006
-0.02879298
0.0001493153
0.01635915
0.01066137
0.01395382
0.01334078
0.01345443
-0.001248425
0.0002602847
-0.008608391
-0.009990417
-0.01142066
-0.01206528
-0.002103292
0.008663998
0.003177075
0.004875778
0.005026991
0.004790821
-0.001930255
0.003798743
-0.00246476
-0.002705761
-0.002799873
-0.00308676
-0.00233693
0.005934191
0.0007004502
0.001079995
0.001646635
0.001718244
-0.00238622
0.004600774
-0.0005992084
-0.001139196
-0.0005343599
-0.0004238247
-0.002560664
0.004909115
0.0001709197
-0.0003546742
0.0004250245
0.0007023718
-0.002656902
0.004489351
-0.0001362405
-0.0008338421
-9.647984e-05
0.0002263573
-0.002761695
0.004419057
-2.378894e-05
-0.0007013303
4.16603e-05
0.000431758
-0.00283836
0.004236073
-9.863326e-05
-0.0007894826
-9.042268e-05
0.0003142507
-0.002902959
0.004120718
-9.453181e-05
-0.000757749
-0.0001064532
0.0003022763
-0.002942256
0.003994708
-0.0001145171
-0.0007033733
-0.0002070725
0.0002293462
-0.002967992
0.00388732
-0.0001155694
-0.0005665585
-0.0003608138
0.0001515707
-0.002981651
0.003796793
-8.513593e-05
-0.0004605049
-0.0005540601
5.633517e-05
-0.002984979
0.00372166
1.855526e-05
-0.0004232113
-0.0007101711
-2.726412e-05
-0.002982753
0.003646919
6.011763e-05
-0.0003055486
-0.0008020077
-8.798107e-05
-0.002971122
0.003568707
7.476709e-05
-0.0002356542
-0.0008402038
-0.0001292139
-0.00295049
0.003486769
7.014434e-05
-0.0002112688
-0.0008413516
-0.0001508726
-0.002927236
0.003399569
5.414822e-05
-0.0002058705
-0.0008285164
-0.0001564606
-0.002900087
0.003307874
3.114885e-05
-0.0002006359
-0.0008050187
-0.0001536734
0.003611203
0.003215632
1.438564e-06
-0.0002113844
-0.000746437
-0.0001154231
0.05018834
0.0393795
0.03405341
0.0314242
0.02984193
0.02894507
0.02174801
-0.009109542
-0.01364137
-0.008457882
-0.005367423
-0.003411363
-0.002884739
0.001285042
-0.01544492
-0.005591047
-0.005474056
-0.006622088
-0.006692135
-0.006396661
-0.005525201
0.003714747
0.00664673
0.008723129
0.005784022
0.005887134
0.005275302
-0.007444795
-0.004857678
-0.000543612
-0.0008994296
-0.003525248
-0.00386592
-0.004491157
-0.007404732
0.004357509
0.00749372
0.008518056
0.005825905
0.005326481
0.004614394
-0.007395069
0.002249181
0.005070131
0.004995991
0.002713762
0.002207139
0.001325965
-0.007140133
0.005325815
0.008218021
0.008298364
0.006242136
0.00568432
0.004777679
-0.006824945
0.005264693
0.008126179
0.007456767
0.005544838
0.004981008
0.004087559
-0.006355514
0.006376806
0.008918332
0.008519635
0.006774034
0.006221839
0.005385431
-0.005891691
0.006670609
0.00918576
0.008568507
0.006906634
0.006387724
0.005540774
-0.005414893
0.007128229
0.009605152
0.009011114
0.007444178
0.006955232
0.006064707
-0.004941478
0.007380024
0.00987346
0.009220251
0.007716121
0.007254049
0.006389289
-0.004475471
0.007588496
0.01012264
0.009470182
0.008007838
0.007585044
0.006759317
-0.004012184
0.007704938
0.01032159
0.009705647
0.0082106
0.007830668
0.007053896
-0.003550212
0.007770329
0.01051621
0.0101539
0.008359561
0.00803206
0.00730621
-0.003094983
0.007806201
0.01070877
0.01090458
0.008437983
0.008175619
0.007506895
-0.002648359
0.007823099
0.01079357
0.01291821
0.008473978
0.008280229
0.007679631
-0.002220052
0.007838142
0.01091893
0.01306833
0.008513801
0.008390218
0.007829392
-0.001809937
0.00783423
0.0110353
0.01315922
0.008559256
0.008498875
0.007966411
-0.001416096
0.007821548
0.01112907
0.01319864
0.008621055
0.008611046
0.008078
-0.001050658
0.007793911
0.01119285
0.01317587
0.00869234
0.008729344
0.008202547
-0.0007032171
0.007772417
0.01123338
0.01308149
0.008757434
0.008861463
0.008268631
-0.000368757
0.0157599
0.01123857
0.01294371
0.008957961
0.00901263
0.00850015
0.03095362
-0.04770762
0.0009355706
0.006414976
0.0248788
0.02635178
-0.05021579
0.003709958
0.02706761
0.03675233
0.02161519
0.02490488
-0.03936311
-0.0003810994
0.04493979
0.04451513
0.02341151
0.02474739
-0.03404467
0.001984813
0.04152674
0.04514493
0.02392865
0.02496077
-0.03141182
0.003929497
0.0395585
0.04596827
0.02404145
0.02510191
-0.02984295
0.004449343
0.03830633
0.04628572
0.02415924
-0.02894255
0.03767947
0.007623192
-0.01150976
-0.02179212
-0.02079843
-0.01683838
-0.04892969
-0.001135613
-0.03252366
-0.001302592
-0.006679007
0.00146573
-0.01163862
-0.002725514
-0.01550016
0.005522179
-0.02103964
-0.002823403
-0.02695749
-0.002514855
-0.01930456
0.007447489
-0.0125616
0.000537581
-0.01660308
-0.004568671
-0.01778943
0.007410129
-0.0145731
-0.0005511697
-0.01901926
-0.006418853
-0.01827625
0.007398332
-0.01219272
0.0002324658
-0.01553719
-0.006922977
-0.01813215
0.007138465
-0.01158403
-1.301332e-06
-0.01505111
-0.007778879
-0.01829637
0.006821724
-0.01051235
2.774798e-05
-0.01356726
-0.008732127
-0.0185243
0.006355426
-0.009788291
-0.0001575964
-0.01278388
-0.00952874
-0.01872836
0.005895675
-0.009070487
-0.0003113219
-0.01191815
-0.01031849
-0.0189204
0.005415722
-0.008492569
-0.0005208726
-0.01125644
-0.0110153
-0.0190608
0.004945021
-0.007968828
-0.0007594292
-0.01063559
-0.01161964
-0.0191373
0.004474034
-0.007529536
-0.001032136
-0.01009508
-0.01210599
-0.01913816
0.004011707
-0.007159631
-0.001321677
-0.00961468
-0.01249291
-0.01908124
0.003549456
-0.006850059
-0.001617905
-0.009188973
-0.01280416
-0.01899755
0.003093866
-0.006574117
-0.001908983
-0.00880238
-0.01305715
-0.01889819
0.002649382
-0.006326197
-0.002192622
-0.008449346
-0.01326744
-0.01879242
0.002219677
-0.006106601
-0.002468763
-0.008127794
-0.01343692
-0.01868182
0.001807907
-0.005902184
-0.002732466
-0.007829218
-0.01357496
-0.0185627
0.001415808
-0.005713388
-0.002979461
-0.007553109
-0.01368442
-0.01843776
0.001044803
-0.005536986
-0.003211627
-0.00729807
-0.01377033
-0.01830665
0.0006940446
-0.005376619
-0.003433244
-0.007063369
-0.01384201
0.0072952
0.0003544979
-0.005234495
-0.003636637
-0.006855849
-0.1801302
0.01145635
0.01768205
0.0001867864
0.0006947874
-0.002310325
-0.005173147
-0.0008158523
0.001327557
0.00198575
0.001375384
-0.003419803
0.003834282
-0.002377584
-0.002183206
0.002700383
0.002220201
-0.0004147387
0.01750395
-0.002803867
-0.005127337
-0.0817912
0.002512342
0.0002806246
-0.003490679
-0.002752635
0.003793716
-0.008008087
0.002075633
0.0003749103
-0.002661126
-0.001944113
0.001200343
-0.003331796
0.002341045
0.001773425
-0.001995732
-0.001661239
0.003431428
0.005211382
0.0008006312
-0.001284322
-0.000180998
-0.0005141824
0.002442582
0.1800799
-0.01142663
-0.01768566
0.04765159
-0.0009625397
-0.006462764
-0.03097489
-0.003695695
-0.02709764
-0.0367319
-0.02487821
-0.02635375
0.0003885183
-0.04492802
-0.04450083
-0.02160765
-0.02490674
-0.001972769
-0.04152033
-0.04514244
-0.02341054
-0.02474608
-0.003926986
-0.03954054
-0.04596907
-0.0239268
-0.02496078
-0.004445002
-0.03830416
-0.04629189
-0.02404507
-0.02510483
0.01255591
-0.0005355786
0.01659457
0.002513855
0.01927239
0.012192
-0.0002357089
0.01553665
0.006408304
0.01826745
0.01158392
-1.189623e-06
0.0150568
0.006921899
0.0181242
0.01051359
-2.721172e-05
0.01356809
0.007778285
0.01829286
0.009788589
0.0001604234
0.01278348
0.008728471
0.01851931
0.009071233
0.0003101058
0.0119188
0.009519381
0.01872737
0.007531544
0.001030758
0.01009593
0.01162336
0.01913688
0.00716021
0.001320305
0.00961452
0.012105
0.01913834
0.00684971
0.0016162
0.009188164
0.01249137
0.01908127
0.006573166
0.001908402
0.008800973
0.0128016
0.0189954
0.006104906
0.002465347
0.00812497
0.01326424
0.01879382
0.005899362
0.002728914
0.007824017
0.01343272
0.0186812
0.005523626
0.003201764
0.007278913
0.01367238
0.01843975
0.005355262
0.003419199
0.007035106
0.01375772
0.0183081
0.005199584
0.00361644
0.006803439
0.01382322
-0.007345775
0.007355275
0.01104794
0.003448909
0.003325025
-0.0145747
0.01051346
0.01337736
0.00789807
-0.001983371
0.01207429
0.01518115
0.009729646
-0.0004297961
0.008645277
0.0154886
0.01081378
6.79698e-05
0.008689447
0.01539852
0.01111886
-0.0002781689
0.008562604
0.01520161
0.01094342
-0.0007831198
0.008503372
-0.004072911
-0.004202489
-0.007720752
-0.03383947
-0.002584295
-0.001654638
0.0001806853
-0.04306377
0.0007779659
0.0004119369
-0.001744786
-0.03906619
-0.0009461693
0.00106827
-0.0005416779
-0.03861976
-0.003246847
0.0007144508
-0.003190835
-0.03671467
-0.004920968
0.0001895459
-0.004217739
-0.03558733
-0.004452508
-0.004362549
-0.005226534
-0.03400239
-0.004630995
-0.007422421
-0.005508636
-0.03268671
-0.005313112
-0.01408137
-0.006358768
-0.03137028
-0.005826217
-0.02402716
-0.006898008
-0.0301279
-0.006211612
-0.02782426
-0.007056621
-0.02892836
-0.006455085
-0.02671299
-0.006973418
-0.02774715
-0.006575795
-0.02563788
-0.006857387
-0.0265936
-0.006615884
-0.02455678
-0.006697785
-0.02547306
-0.006604416
-0.02348098
-0.006539372
-0.02438647
-0.006552917
-0.02243818
-0.006366621
-0.02333613
-0.006450334
-0.02143002
-0.006182439
-0.02231906
-0.006305452
-0.02044458
-0.006001733
-0.02133897
-0.006146505
-0.01948784
-0.005831071
-0.02038939
-0.005982852
-0.01856008
-0.005666708
-0.0194619
-0.005819478
-0.01765847
-0.005515672
-0.01856534
-0.00566672
-0.01680994
-0.005379667
-0.01769582
-0.00551899
-0.01599966
-0.005263992
-0.01684958
-0.01611204
-0.03648249
-0.004477718
-0.01158675
-6.786949e-05
-0.006954832
0.00980516
-0.004196481
0.002798662
-0.009567197
0.005158919
-0.002232284
0.01021521
0.0008408043
0.01657509
0.01165173
0.02126788
0.03378181
-0.03767109
-0.02415757
0.02074342
0.01683893
0.04892442
-0.007633281
0.01150749
0.006666718
-0.001468121
0.01164137
0.001132112
0.03251322
0.02103205
0.002826383
0.02695035
0.002723381
0.01549272
0.01456806
0.0005511828
0.01901403
0.004563335
0.01777786
0.008494502
0.0005245585
0.01125635
0.01031597
0.01891621
0.007970989
0.0007555718
0.01064027
0.0110068
0.0190625
0.006327742
0.002192677
0.008448231
0.01305392
0.01889798
0.005710433
0.002977468
0.00754257
0.01356907
0.01856117
-0.005812741
0.00315001
-0.001175992
0.00409446
-0.01928741
0.008457755
-0.01476406
-0.005349617
-0.02170974
-0.03403845
0.00304226
0.01032249
0.006121124
0.008097265
0.008043882
0.007855541
0.01238604
0.01197212
0.008995471
0.007969817
0.01480147
0.01240422
0.009045182
0.008350562
0.01578004
0.0123684
0.008444016
0.008494381
0.0159924
0.01225987
-0.01878284
-0.04393349
-0.02282044
-0.03142184
-0.003861413
-0.04031148
-0.004459329
-0.006422134
-0.004030755
-0.03909893
-0.004218677
-0.005032471
-0.005239711
-0.03776175
-0.003931182
-0.001746625
-0.007612509
-0.036953
-0.005167134
-0.0008174724
-0.007923415
-0.03549566
-0.005491548
-0.0008926588
-0.007674075
-0.03400291
-0.00473007
-0.003344838
-0.007208624
-0.03264613
-0.004569126
-0.00409656
-0.007064095
-0.03128344
-0.004751017
-0.004118925
-0.006882212
-0.02849243
-0.004812246
-0.003974617
-0.006651242
-0.02377426
-0.004745949
-0.004474507
-0.006494157
-0.01862753
-0.004700182
-0.004844902
-0.006369515
-0.01450882
-0.00469613
-0.005220249
-0.006298055
-0.01217057
-0.004726068
-0.006064827
-0.006199332
-0.0103342
-0.004752569
-0.006627964
-0.006090827
-0.009429595
-0.004787224
-0.007051061
-0.005999579
-0.008851535
-0.004787907
-0.007890854
-0.005902654
-0.00846541
-0.004758416
-0.008799778
-0.005821412
-0.0082628
-0.004720257
-0.01068149
-0.0057204
-0.008143458
-0.004679971
-0.01177964
-0.005619677
-0.008079104
-0.004640422
-0.01275476
-0.005521833
-0.007948998
-0.004611063
-0.01317238
-0.005407418
0.01828567
-0.01290881
-0.004611938
-0.01628433
-0.01025931
-0.009249514
-0.00319709
-0.004525566
0.003282071
-0.007986372
0.009067818
-0.005864532
0.003236661
-0.0007172127
0.006204449
0.005748424
0.01015355
0.01642767
0.03591469
-0.006805718
-0.01092778
-0.003049851
-0.01031211
-0.006106458
-0.008099377
-0.01338667
-0.007880235
0.001986733
-0.0121407
0.0009687098
-0.00105598
0.0005690212
0.0386052
0.004922733
-0.0001347555
0.004247645
0.03557751
0.00791228
0.03549586
0.005482408
0.0009252552
0.004449506
0.004355229
0.005231292
0.03400326
0.006875349
0.0284056
0.004800515
0.004036082
0.006577003
0.0256416
0.006853963
0.02660082
0.006371416
0.01457794
0.004698152
0.005238653
0.006615026
0.02456131
0.006697851
0.02547655
0.006297745
0.01221557
0.004727236
0.00607086
0.006603473
0.0234844
0.006540348
0.0243896
0.006197816
0.01034759
0.004751665
0.006626477
0.006552586
0.02244176
0.006366904
0.0233416
0.006089613
0.009417642
0.004785592
0.007074267
0.006304004
0.02045365
0.006001411
0.02134411
0.005899422
0.008475004
0.004755892
0.008774438
0.006143781
0.01949593
0.005829483
0.02039853
0.005816918
0.00823571
0.004715473
0.01064478
0.005817411
0.01768475
0.005540358
0.01856297
0.005619449
0.008118293
0.004632337
0.0129257
0.005657395
0.01682706
0.00537088
0.01770701
0.005515794
0.007990036
0.004597142
0.01326494
0.005504488
0.01602576
0.005246511
0.01686613
0.005399866
-0.008744814
0.01307342
0.004590748
0.006435362
-0.0007171727
-0.003757273
0.001445809
-0.006666228
0.001334555
-0.001803292
0.001859318
-0.002852039
0.002244612
-0.001111267
0.001397914
-0.001653467
0.002202549
-2.960502e-05
0.001339237
-0.0009942384
0.001942585
7.82391e-05
0.001312712
-0.0009429893
0.001843405
-0.0001698299
0.001288508
-0.0009909555
0.001826661
0.001062791
0.001767912
-0.002782387
0.003294101
0.0001533748
0.0003724268
0.001085291
0.001396982
0.001282103
0.002940004
0.001361638
0.0005619764
0.0003607621
0.0009090165
0.001363603
-0.0006623412
-0.002475163
0.0001140753
-0.002711372
0.00165028
-0.001422951
0.002189925
0.001591908
0.0005956656
-0.00168433
0.00159121
-0.0003105418
0.001366727
0.001285885
0.00155926
0.000585723
0.001428933
0.002127555
0.001538187
0.0008795506
0.001489083
0.00245692
0.001534322
0.001085846
0.001512289
0.002636849
0.001543826
0.00121047
0.001531536
-0.001088528
0.002257015
-0.003358315
-0.001519967
-0.00165327
-0.001538841
-0.002529821
-0.001669911
0.0002112264
-0.002733558
0.00231519
-0.00444935
0.00430243
-0.005748441
-0.001256005
-0.0021149
-0.006036334
0.0007480248
0.005944212
-0.003191875
0.0012014
-0.004028049
0.01959332
-0.008466917
0.01475154
0.005441211
-0.003474253
-0.003327166
0.01455762
-0.01050226
0.001801655
-0.001858557
-0.002240412
0.002853422
-0.008056252
-0.007933774
-0.01238683
-0.01206585
-0.01518669
-0.009775702
0.0004032261
-0.008576626
-0.008954018
-0.007924078
-0.01474631
-0.01228624
-0.01549963
-0.01079632
-4.87375e-05
-0.008740077
-0.01540076
-0.01121454
0.0002360545
-0.00848653
-0.008400528
-0.008541099
-0.01595827
-0.01213325
0.005279522
0.03774446
0.003965536
0.001765285
-0.01392869
0.02214087
-0.02020465
0.01258453
-0.01781732
0.01724812
0.01297389