/*--------------------------------*- C++ -*----------------------------------*\
  =========                 |
  \\      /  F ield         | OpenFOAM: The Open Source CFD Toolbox
   \\    /   O peration     | Website:  https://openfoam.org
    \\  /    A nd           | Version:  7
     \\/     M anipulation  |
\*---------------------------------------------------------------------------*/
FoamFile
{
    version     2.0;
    format      ascii;
    class       surfaceScalarField;
    location    "0.07";
    object      phi;
}
// * * * * * * * * * * * * * * * * * * * * * * * * * * * * * * * * * * * * * //

dimensions      [0 3 -1 0 0 0 0];

internalField   nonuniform List<scalar> 
161064
(
8.295061e-05
0.0005605334
-0.002354854
-2.867258e-05
-0.000120025
-6.990222e-05
7.257825e-05
1.825368e-06
0.000528854
0.0006735693
0.0006531426
0.0001347868
0.002357039
-0.002238589
-0.0001457151
-0.0001381429
-7.329552e-05
7.620497e-05
2.771162e-05
0.0001288733
0.002258666
-0.002226538
-0.0001126713
-9.737963e-05
-6.250244e-05
7.915056e-05
3.240218e-05
0.0001234015
0.002240508
-0.002170108
-0.000161604
-7.512819e-05
-7.506955e-05
6.889796e-05
4.910211e-05
0.0001524957
0.002171497
-0.002111485
-0.0001956872
-8.405404e-05
-5.307428e-05
7.776968e-05
4.253832e-05
0.0001521083
0.002111252
-0.002034613
-0.0002340406
-9.350822e-05
-4.281916e-05
8.646575e-05
5.515497e-05
0.0001471321
0.002002675
-0.001914718
-0.000253704
-8.967453e-05
-3.512507e-05
8.604214e-05
5.737289e-05
0.0001437973
0.001871215
-0.001777513
-0.0002805031
-9.031264e-05
-2.257035e-05
8.802288e-05
6.786499e-05
0.0001203867
0.001719269
-0.001597214
-0.0003005434
-6.403766e-05
-1.872811e-05
8.673602e-05
5.413134e-05
0.0001229199
-0.001376642
-0.0003134693
-6.690311e-05
-4.546456e-06
7.722886e-05
5.790136e-05
0.001503511
0.0001035164
0.001277432
-0.001106663
-0.0003371771
-6.627413e-05
-3.720378e-06
7.212644e-05
6.076099e-05
9.116349e-05
0.0009875345
-0.0008107044
-0.0003627171
-6.664509e-05
2.281818e-05
7.451873e-05
6.403193e-05
7.367343e-05
0.0006696929
-0.0004871075
-0.0003420974
-4.500341e-05
1.679761e-05
5.691869e-05
5.712566e-05
5.660348e-05
0.000348101
-0.0003666194
9.399425e-06
3.259242e-05
5.740908e-05
4.849717e-05
-3.168176e-05
-4.405755e-05
-5.156629e-05
-5.867762e-05
0.0005432152
-0.0001043022
-0.002099679
4.983013e-05
-0.000160715
0.0005498386
0.0006136343
0.0006081777
-0.008759837
-0.0005450285
2.384252e-05
0.0002605198
-0.0003414768
0.0002342968
3.256711e-05
0.00196917
0.002015632
0.002576566
0.002533749
-0.008392739
-0.0003314069
-5.14954e-05
0.0003206194
-0.0003357787
5.880717e-05
-2.784373e-05
-0.008167815
-0.0007054281
9.450514e-05
0.0004191925
-0.0002453043
0.0001496608
6.244984e-05
-0.007817565
-0.0007746974
-2.769275e-05
0.000422186
-0.0002294496
0.000157069
0.0001023351
-0.007447214
-0.001021479
-3.402615e-05
0.0004695633
-0.0001741192
0.0002148667
0.0001748445
-0.006961831
-0.001252738
-7.435202e-05
0.0004876098
-0.0001202979
0.0002567487
0.0002176463
-0.006380341
-0.001547444
-9.936995e-05
0.0005182907
-4.97105e-05
0.0003115352
0.0002852093
-0.005665748
-0.00185844
-0.0001246769
0.0005305252
3.259521e-05
0.0003740268
0.0003313771
-0.004815753
-0.002204615
-0.0001466817
0.0005553259
0.000114868
0.000432208
0.0003989001
-0.003809457
-0.002554589
-0.0001784567
0.0005728095
0.0002098887
0.0004883907
0.0004556607
-0.002689337
-0.00292811
-0.0001442629
0.000592331
0.0003119073
0.0005354424
0.0005125729
-0.000265404
-0.003211618
-7.551164e-05
-0.0004949401
-0.0003516433
-0.0004198132
0.0005743977
0.0004193204
0.0005790289
0.0005568462
-0.0006868447
-3.600097e-05
0.0005916471
-5.094297e-05
1.313509e-06
-2.317712e-05
-6.139885e-05
0.0005563518
2.556871e-05
-0.002138381
-2.992167e-05
-0.0001922552
0.0005546844
0.0006135394
0.0006104132
-0.008943704
-0.0005102064
-0.0006199703
0.002144732
0.002143171
0.002630932
0.002610017
-0.008454975
-0.0005585291
-0.0002616064
-0.008302642
-0.0008277213
-3.003979e-05
-0.007984827
-0.001033067
-5.944483e-05
-0.007647946
-0.001319893
-3.846668e-05
-0.00720278
-0.001646289
-5.161407e-05
-0.006649715
-0.002038979
-6.152969e-05
-0.005956867
-0.002477438
-7.385025e-05
-0.005117126
-0.002970584
-7.377217e-05
-0.004101694
-0.003500244
-6.977682e-05
-0.003017003
-0.004035668
2.286726e-05
-0.0002297457
-0.004536389
0.0001120528
-0.0006432833
-0.0004180474
-0.0005132076
0.0009713213
-0.001079442
5.312946e-06
-3.89184e-05
1.871848e-05
-2.184241e-05
-8.489564e-05
0.0005672941
2.622239e-05
-0.00218344
-4.102611e-05
-0.000189811
0.0005662973
0.0006294834
0.0006249801
-0.00921742
-0.0005245775
-0.0005220461
0.0021982
0.00219233
0.002687855
0.002675452
-0.008764449
-0.000722774
-0.0002887254
-0.0086061
-0.001012621
2.654975e-05
-0.008319262
-0.00127976
-4.014444e-05
-0.007985219
-0.001643153
-1.078374e-05
-0.007575796
-0.00203747
-1.824232e-05
-0.007064921
-0.002538187
-1.166644e-05
-0.006412344
-0.003110726
-1.928884e-05
-0.005596258
-0.003778721
-7.948801e-06
-0.004566813
-0.004520681
-9.007181e-06
-0.00336692
-0.005323997
8.843712e-05
-0.0001923958
-0.006082324
0.0001313675
-0.0007591231
-0.0004608299
-0.0005400041
0.001454953
-0.001509476
-2.948073e-05
4.47896e-05
-1.72399e-05
-4.035669e-05
-9.558432e-05
0.000579645
5.07731e-05
-0.002236125
-6.240687e-05
-0.0001827674
0.0005753917
0.0006412198
0.0006342696
-0.009332265
-0.0005691487
-0.0006321923
0.002257699
0.002252809
0.002748365
0.002750156
-0.008899963
-0.0007929988
-0.0003620765
-0.008794434
-0.001110379
-7.770799e-06
-0.008576273
-0.001438649
-5.927219e-05
-0.008360175
-0.001854447
-4.804088e-06
-0.008013249
-0.002355192
-2.920454e-05
-0.007587753
-0.002949079
-1.460348e-05
-0.007016504
-0.003663573
-1.84013e-05
-0.006267153
-0.00453161
3.537484e-06
-0.005254491
-0.005536777
3.435023e-06
-0.004021342
-0.006704201
0.0001470542
-0.0002184626
-0.007883816
0.0001668615
-0.0009487784
-0.0005541755
-0.0006652932
-0.001998562
-1.924485e-05
0.001959729
-4.495796e-05
4.556547e-05
-1.863796e-05
-0.0001423545
0.0005464547
7.86428e-05
-0.002290549
-6.374357e-05
-0.0001265809
0.0005382962
0.0006570936
0.0006603864
-0.009690933
-0.0005610306
-0.0006369886
0.002323211
0.002316558
0.002839573
0.00284046
-0.009271591
-0.0008621501
-0.0003501905
-0.00919537
-0.001194035
7.43523e-06
-0.00902022
-0.001554436
-5.936335e-05
-0.008832905
-0.002018034
-2.37268e-05
-0.008595837
-0.002572092
-2.016795e-05
-0.008282873
-0.003257551
-4.492577e-06
-0.007835611
-0.004103934
-6.900252e-06
-0.007201849
-0.005177917
1.254572e-05
-0.006248167
-0.006503966
1.350724e-05
-0.004964467
-0.008153758
0.0001658582
-0.000288652
-0.01000291
0.0001579585
-0.001210336
-0.0007084543
-0.000795893
0.00253143
-0.002569366
-6.477275e-05
-6.594209e-05
6.949227e-05
-2.974434e-05
-0.0001597483
0.000546193
5.846824e-05
-0.002347151
-4.517107e-05
-0.0001092639
0.0005462858
0.0006764532
0.0006741862
-0.009921122
-0.0005736136
-0.0006478179
0.002381079
0.002376942
0.002910399
0.002913103
-0.009550361
-0.0008463245
-0.000386587
-0.009543879
-0.00118889
-1.162576e-05
-0.009449917
-0.001575824
-7.257383e-05
-0.009386081
-0.002069871
-1.199946e-05
-0.009286371
-0.002650231
-2.157108e-05
-0.009152242
-0.003387051
-4.628229e-06
-0.008922234
-0.004323172
-1.077027e-05
-0.008535854
-0.005583109
1.881327e-05
-0.007826595
-0.007224581
1.13566e-05
-0.006629368
-0.009621414
0.0002704296
-0.0003949407
-0.01287061
0.0002096066
-0.001574905
-0.0008427511
-0.00115867
0.003238068
-0.003235354
-0.000101464
-9.702665e-05
6.035281e-05
-3.5952e-05
-0.0002235644
0.0006232711
-0.002437924
-5.819031e-05
-0.0001760051
0.0006274106
0.0006930702
0.0006908517
3.751574e-05
-0.01029851
-0.0005285336
-0.0007041021
0.002478646
0.002463635
0.003005716
0.003009538
-0.009934383
-0.000828915
-0.00038154
-0.009969223
-0.001154403
3.533349e-07
-0.00994871
-0.001530617
-6.572026e-05
-0.009975649
-0.002019514
-2.341767e-05
-0.01002434
-0.002580263
-2.127856e-05
-0.01009212
-0.003315449
-3.819019e-06
-0.0101357
-0.004274975
-4.618223e-06
-0.01014062
-0.005590235
1.204553e-05
-0.009991363
-0.007414971
4.113499e-05
-0.009568873
-0.01029151
0.000247606
-0.001000964
-0.01502009
0.0006140698
-0.002728878
-0.001585359
-0.002718262
0.004166028
-0.004510842
-0.0001263813
-0.0001178857
2.118325e-05
-0.0001343539
-0.0002987116
0.0006014921
7.156031e-05
-0.002498435
-4.052299e-05
-0.000167969
0.0005990855
0.0007189334
0.0007158562
-0.01054736
-0.0004936416
-0.0007141348
0.002532838
0.002529673
0.003082209
0.003081888
-0.01022088
-0.0007446014
-0.0004107941
-0.01030774
-0.00105478
-1.277158e-05
-0.01037921
-0.001383529
-7.561701e-05
-0.0105776
-0.001817417
-3.703564e-06
-0.0108219
-0.002316234
-1.973231e-05
-0.01117654
-0.002959569
-1.238739e-06
-0.01166304
-0.003779512
-8.959571e-06
-0.01239279
-0.004874776
1.428932e-05
-0.01356411
-0.006257563
1.39116e-05
-0.01575283
-0.008475489
0.0003727015
-0.002509177
-0.01151526
0.000883019
-0.006676941
-0.004137471
-0.006817088
0.006659507
-0.006370152
-0.0004343482
-0.0003742664
-6.319278e-05
-0.0002932529
-0.001633471
0.000661074
4.460922e-05
-0.002566298
-4.770438e-05
-0.0002046359
0.0006558615
0.0007286032
0.0007284908
-0.01083758
-0.0004148632
-0.0007446029
0.002604675
0.002588241
0.003154376
0.003156114
-0.0105412
-0.000635271
-0.0004057138
-0.01068116
-0.0009011286
-1.368628e-05
-0.01081619
-0.001174449
-7.405224e-05
-0.01109485
-0.001532165
-6.596887e-06
-0.01146781
-0.001925782
-1.748873e-05
-0.01200982
-0.00241687
-6.911635e-07
-0.01276223
-0.003026632
-4.66872e-07
-0.01393709
-0.003715632
1.571425e-05
-0.01573685
-0.004518386
6.059046e-05
-0.01909924
-0.005409574
0.0002964676
-0.005443397
-0.005911727
0.0009121002
-0.006341701
-0.006840953
-0.00698882
0.00431584
-0.007547222
-0.002276652
6.463791e-05
0.0004967048
0.009702652
-0.009767835
0.0002793683
0.0001906783
-0.000632439
0.0001647292
-0.0004338586
-0.000628173
0.008835394
-0.007878124
0.00235755
0.0007045358
-0.001224744
-0.001010815
-0.001155624
-0.0008215979
0.007386847
-0.006805879
0.003193221
0.0008323667
-0.001330752
-0.001169769
-0.001284437
-0.0008925853
0.00643773
-0.006006607
0.003535856
0.0008330622
-0.001313489
-0.001253637
-0.00134033
-0.0009070899
0.005745411
-0.0053834
0.003688554
0.0008294108
-0.001331909
-0.001285268
-0.00135571
-0.0008974163
0.005176011
0.003790031
0.0007532752
-0.001263272
-0.001302639
-0.001388345
-0.004867646
0.0006728288
-0.00261562
-4.983742e-05
-0.0002028817
0.0006683397
0.0007431278
0.0007371196
4.692303e-05
-0.01105042
-0.0003236723
-0.0007720538
0.002654114
0.002644054
0.003217721
0.003215397
-0.01077425
-0.0004941825
-0.0004172579
-0.01095122
-0.0007057233
-1.843577e-05
-0.0111362
-0.0009109398
-7.853333e-05
-0.01150588
-0.00116345
9.709627e-07
-0.01197862
-0.001436883
-1.616739e-05
-0.01264298
-0.0017513
-1.200952e-06
-0.01355786
-0.00210655
-5.207105e-06
-0.01484055
-0.002433848
9.06092e-07
-0.01663403
-0.00273486
9.957076e-06
-0.01934975
-0.002801406
0.0001075522
-0.02306693
-0.002480807
0.0002862555
-0.02627996
-0.0005994976
5.945768e-05
0.001857396
-0.0002613326
0.001360479
0.0007965327
-0.02662518
0.004204714
-0.0001953813
0.0005095051
-0.002265386
-0.0003971132
-0.00151112
-0.02497772
0.00800659
-0.0008626449
-0.0008398664
-0.00320335
-0.001974814
-0.002773373
-0.02303284
0.01058878
-0.0006072017
-0.001753856
-0.003673094
-0.002995579
-0.003503931
-0.02112543
0.01241206
-0.0006514097
-0.002257832
-0.003963052
-0.0035443
-0.003902884
-0.01934519
0.01352835
-0.000625472
-0.002584619
-0.004124027
-0.003844231
-0.004130234
0.01411836
-0.0005172415
-0.002805979
-0.004019767
-0.01767159
-0.004191292
-0.004257685
0.0006274818
6.218156e-05
-0.002640641
-3.92017e-05
-0.0001384944
0.0006189165
0.0007535258
0.0007562319
-0.01122493
-0.0002186644
-0.0007679164
0.002680667
0.00267078
0.003274437
0.003261953
-0.01096016
-0.0003386428
-0.000420311
-0.01116325
-0.0004848081
-1.782679e-05
-0.01137844
-0.0006145344
-8.121554e-05
-0.01177499
-0.0007688018
1.902933e-06
-0.0122706
-0.0009262666
-1.499797e-05
-0.01293868
-0.001085234
2.011925e-06
-0.01381241
-0.001234541
1.721796e-06
-0.0149414
-0.001315432
1.05731e-05
-0.01640829
-0.00128822
2.025391e-05
-0.01828482
-0.0009999882
7.511096e-05
-0.02061916
-0.0002682627
0.0001217909
-0.02268898
0.001223181
0.0002471452
-0.02321234
0.004339762
0.0003883093
-0.02245436
0.006754237
0.0004943672
-0.02121622
0.008749944
0.0006007017
-0.01984113
0.01029367
0.0007433052
-0.01845562
0.01134686
0.0007959732
0.01205382
0.0007769165
-0.01716799
0.0006144371
2.957742e-05
-0.002650782
-1.692407e-05
-0.000106142
0.0006118345
0.0007605264
0.0007574727
-0.01132926
-0.0001128455
-0.0007475586
0.002693727
0.002689379
0.0033025
0.00328539
-0.01107813
-0.0001657028
-0.000424065
-0.01129737
-0.0002476784
-1.788831e-05
-0.01152488
-0.0003072719
-7.975584e-05
-0.01193166
-0.0003663289
4.305071e-06
-0.01242847
-0.0004150563
-1.440044e-05
-0.01307732
-0.0004372538
8.752284e-07
-0.01389
-0.0004189342
-2.923564e-06
-0.01489679
-0.0003078087
-8.390211e-07
-0.01611713
-6.165459e-05
-6.221458e-06
-0.01753239
0.0004270898
-1.18233e-05
-0.01907689
0.001306718
-3.047828e-05
-0.02038305
0.002609249
-7.990792e-05
-0.02070675
0.004737574
-7.411263e-05
-0.02037951
0.006618753
-0.0001917503
-0.01966633
0.00825469
-0.0002179311
-0.01873088
0.009581196
-0.0002229812
-0.01770662
0.01054756
-0.0002249606
0.01124803
-0.0002349103
-0.01666592
0.0006162528
1.406649e-05
-0.002664456
-3.171674e-06
-0.0001012597
0.0006150203
0.0007631556
0.0007603918
-0.0113885
3.956526e-06
-0.0007703456
0.002707361
0.002706586
0.003316239
0.003311857
-0.01113859
5.162701e-06
-0.0004207716
-0.01135276
-1.412107e-05
-1.938599e-05
-0.01157503
-5.966558e-06
-7.903511e-05
-0.0119663
1.966651e-05
5.272382e-06
-0.01243071
6.295244e-05
-1.360329e-05
-0.01301803
0.0001485054
1.560128e-06
-0.01372406
0.0002886237
-1.523255e-06
-0.01455863
0.0005252286
1.531516e-06
-0.01551542
0.0008967223
-1.581783e-06
-0.01654952
0.00145975
1.437734e-06
-0.01755508
0.0023073
4.97625e-06
-0.01843176
0.003453822
3.21026e-05
-0.01876564
0.004985598
8.586351e-05
-0.01865821
0.006423978
8.73428e-05
-0.01825136
0.007752594
9.524981e-05
-0.01765796
0.008859786
0.0001279995
-0.01695643
0.009718599
0.000127444
0.01034914
0.0001183071
-0.01617585
0.0006194925
-5.417713e-06
-0.002684205
1.7254e-05
-0.0001013725
0.0006208561
0.0007684477
0.0007649454
-0.01138173
0.0001099404
-0.0007793382
0.002714088
0.002717744
0.003300415
0.003322835
-0.01112488
0.0001692884
-0.0004209756
-0.01133226
0.0002119628
-1.869776e-05
-0.01154406
0.0002814272
-7.559983e-05
-0.01191176
0.0003812932
6.078036e-06
-0.01233772
0.0005022065
-1.329613e-05
-0.01286388
0.0006743979
2.671451e-07
-0.01347675
0.0009054757
-3.985067e-06
-0.01417778
0.001228991
-2.733036e-06
-0.01494751
0.001672593
-6.13298e-06
-0.01575237
0.002274461
-9.850123e-06
-0.01651187
0.003080292
-1.349255e-05
-0.01710585
0.004068547
-2.074422e-05
-0.01737941
0.005266322
-7.165245e-06
-0.01738185
0.006446287
-1.987361e-05
-0.01716289
0.00756013
-2.649139e-05
-0.01679027
0.008513814
-2.664904e-05
-0.01631617
0.009276725
-3.222683e-05
0.009831593
-4.418066e-05
-0.01575445
0.0006878765
-0.002711947
2.765272e-05
-0.0001809664
0.0006934218
0.0007668679
0.0007562481
-3.915321e-05
-0.01131095
0.0002088864
-0.0007989888
0.002716689
0.002718013
0.00328119
0.003295097
-0.01105039
0.0003284202
-0.0004196846
-0.0112474
0.0004257697
-1.679591e-05
-0.01144144
0.0005488478
-7.337942e-05
-0.01177687
0.0007105557
6.15929e-06
-0.01215592
0.000893687
-1.24252e-05
-0.01261366
0.001131558
5.758489e-07
-0.01313124
0.00142593
-2.869616e-06
-0.01370482
0.00180286
-2.923003e-07
-0.0143125
0.002280302
-2.701755e-08
-0.01492189
0.002881375
2.48033e-06
-0.01547665
0.003628856
6.188477e-06
-0.01593197
0.004511139
1.272986e-05
-0.01619297
0.005506007
2.132027e-05
-0.01627509
0.006503633
2.477479e-05
-0.01620534
0.007463127
2.725244e-05
-0.01602832
0.008302398
3.439481e-05
-0.01577588
0.008988781
3.549858e-05
0.009470841
3.209412e-05
-0.01544722
0.0006850002
-2.380176e-05
-0.00267867
2.721152e-05
-0.0002004555
0.0006842062
0.0007554124
0.0007510973
-0.01119705
0.0003195593
-0.0008271551
0.002693538
0.002700809
0.003250841
0.003268345
-0.01092926
0.0004725009
-0.0004118726
-0.01110167
0.0006181046
-1.992559e-05
-0.01127905
0.0007926186
-6.638907e-05
-0.01158102
0.001005212
7.31263e-06
-0.01191602
0.001239021
-1.033735e-05
-0.01231282
0.001526841
1.517261e-06
-0.01275094
0.001866101
-2.044285e-06
-0.01322609
0.002278255
-2.478621e-07
-0.01371919
0.002774429
-1.022927e-06
-0.01420526
0.003368335
-8.915713e-07
-0.01464517
0.004068927
-1.601878e-07
-0.01499863
0.004863398
1.194837e-06
-0.01523509
0.005739069
3.406644e-06
-0.01536048
0.006625151
3.864349e-06
-0.01539365
0.007491688
4.612369e-06
-0.01536666
0.008269584
5.822464e-06
-0.0153096
0.008929023
2.699952e-06
0.009381023
-4.689785e-06
-0.01521509
0.0006744619
-3.381004e-05
-0.002635902
2.910039e-05
-0.000191247
0.0006743651
0.0007450701
0.0007379617
-0.011043
0.000403771
-0.0007867498
0.002650359
0.002661463
0.003208113
0.003225604
-0.01076195
0.0006010742
-0.0004096278
-0.01092339
0.000796514
-1.696925e-05
-0.01107233
0.001006618
-6.50581e-05
-0.01133794
0.00126353
7.298227e-06
-0.01162822
0.001538056
-8.761817e-06
-0.01196748
0.001864044
2.058349e-06
-0.01233491
0.00223516
-1.623632e-06
-0.01272567
0.002668834
1.815937e-07
-0.01312265
0.003171448
-4.221396e-08
-0.01350762
0.003752365
9.435012e-07
-0.01385653
0.004415758
2.07769e-06
-0.01415013
0.005152943
4.0538e-06
-0.01437103
0.005954096
5.865187e-06
-0.01453179
0.006777594
8.318927e-06
-0.01465509
0.007604345
1.064882e-05
-0.01477426
0.008374343
1.440803e-05
-0.01492435
0.009063846
1.526466e-05
0.009539052
1.684752e-05
-0.01509923
0.0006108337
-1.984367e-05
-0.002579087
2.997219e-05
-0.0001162788
0.000605715
0.0007331401
0.0007355484
-0.01081576
0.0004776088
-0.0007577813
0.00258503
0.002595018
0.003149988
0.00316967
-0.01051857
0.0007192391
-0.0004153551
-0.01067395
0.0009639659
-1.207441e-05
-0.01081377
0.001201515
-5.507717e-05
-0.01105188
0.001491852
9.784813e-06
-0.0113047
0.001797507
-6.627061e-06
-0.01159544
0.002152504
2.280484e-06
-0.0119043
0.002545587
-1.5726e-06
-0.01222712
0.002991868
-2.093611e-07
-0.01254963
0.003494706
-7.415213e-07
-0.01285817
0.004061241
-3.439144e-07
-0.01313667
0.004694281
-2.027471e-08
-0.01337469
0.005390146
8.188851e-07
-0.01356799
0.006145896
1.49574e-06
-0.01373411
0.006940743
2.977688e-06
-0.01390369
0.00776983
4.089167e-06
-0.0141263
0.008590935
6.017598e-06
-0.01445903
0.00939279
3.791329e-06
0.009942123
1.005427e-05
-0.01487216
0.0005776467
-4.992853e-05
-0.002508194
4.964925e-05
-8.13722e-05
0.0005790458
0.0007152019
0.0007179509
-0.01057299
0.00056149
-0.0007514447
0.002519816
0.002535731
0.003082982
0.00310203
-0.01028715
0.0008282335
-0.0003948436
-0.01041411
0.001101158
-1.022822e-05
-0.01052808
0.001371752
-5.62649e-05
-0.01073653
0.001691002
9.299554e-06
-0.01095464
0.002020847
-5.232687e-06
-0.01120254
0.002398014
2.387764e-06
-0.01146155
0.002805852
-1.25038e-06
-0.01172778
0.00325817
-7.014877e-08
-0.01198902
0.003756476
-5.362494e-07
-0.01223446
0.00430681
-1.221249e-07
-0.01245314
0.004912783
1.796243e-07
-0.01264055
0.005576477
1.070174e-06
-0.01279988
0.006303466
1.767268e-06
-0.01295486
0.007091578
4.139781e-06
-0.01315048
0.007959788
5.660549e-06
-0.01346181
0.008888904
1.336855e-05
-0.01400165
0.009913213
1.940949e-05
0.01081272
6.763698e-05
-0.01493988
0.0005636085
-6.130253e-05
-0.002444546
5.865128e-05
-7.940724e-05
0.0005651311
0.0006976708
0.0007001939
-0.01029643
-0.000720445
0.002451905
0.002470743
0.00300452
0.003021928
0.0006292729
-0.009999766
-0.0003840052
0.0009155711
-0.0101091
-1.052327e-05
0.001221015
-0.01020732
-5.186825e-05
0.001521841
-0.01039016
1.016026e-05
0.001863676
-0.01058062
-2.339791e-06
0.002213649
-0.01079294
3.31559e-06
0.002607025
-0.01101102
-1.426571e-07
0.003024075
-0.0112309
8.755848e-07
0.003477167
-0.01144088
4.378585e-07
0.003966024
-0.01163076
8.68466e-07
0.004495823
-0.01178986
1.069524e-06
0.005070806
-0.01191369
1.831128e-06
0.005698479
-0.01200306
1.835248e-06
0.006391001
-0.01208449
3.398172e-06
0.007169605
-0.01219263
1.81282e-06
0.008066113
-0.01243146
7.442936e-06
0.0091203
-0.01296941
2.598454e-05
0.01042518
0.0001681774
-0.01436675
0.01204187
-0.01025934
-0.0003776866
-0.0001499746
0.0001374988
-6.651636e-05
0.0001676723
-0.0001296683
0.000327754
-3.169683e-05
0.0003788406
-3.663157e-05
0.002588218
0.002469227
0.002546261
0.00243604
-0.01134778
-0.001438496
0.0006718687
0.0002366138
5.839925e-05
0.0002102359
5.133456e-06
0.0004373782
0.0002431388
0.0005256464
0.0001385299
-0.01065638
-0.0007982425
6.56268e-05
0.0001037172
-5.803377e-05
9.688032e-05
-7.879017e-05
0.0002723029
3.709631e-05
8.43934e-05
-0.0004163554
-0.01018161
-0.0005781046
-0.0002139894
9.723533e-05
-4.087863e-05
9.213484e-05
-9.657219e-05
0.0001312078
9.232141e-06
0.0006883102
-0.0005633467
-0.009773694
-0.0004617336
-2.659889e-05
5.883244e-05
-7.43343e-05
6.63773e-05
-9.667249e-05
7.294463e-05
-2.991021e-05
0.0006498957
-0.0005667119
-0.009277854
-0.0005876989
-9.702299e-05
6.891793e-05
-6.442803e-05
7.134736e-05
-7.692764e-05
8.548354e-05
-1.557816e-05
0.0006500925
-0.0005300248
-0.008653214
-0.0007039624
-0.0001063506
5.528707e-05
-7.304572e-05
6.109637e-05
-7.95408e-05
8.43873e-05
-1.233647e-05
0.000638946
-0.0004891203
-0.007900835
-0.0008730259
-0.0001477469
5.314063e-05
-7.037616e-05
6.107731e-05
-6.790238e-05
9.39743e-05
4.637246e-06
0.000629428
-0.000435585
-0.006988839
-0.0010393
-0.0001690389
2.653689e-05
-6.161315e-05
4.820464e-05
-7.351601e-05
0.0001011704
2.000896e-05
0.0006102257
-0.0003746739
-0.005917497
-0.001203983
-0.000207113
2.719205e-05
-4.981409e-05
4.086795e-05
-6.779459e-05
0.0001000617
2.35278e-05
0.0005758824
-0.0003101687
-0.00472688
-0.001350912
-0.0001797685
2.295943e-05
-4.082323e-05
2.049415e-05
-7.62357e-05
0.0001008054
3.344729e-05
0.0005206607
-0.0002412436
-0.003574191
-0.001446585
-0.0002201638
2.666361e-05
-4.761588e-05
-1.760879e-05
-8.963109e-05
6.912935e-05
-6.400305e-05
0.0004345675
0.0002025579
-0.0004192259
-0.001802098
-0.0003163312
1.893639e-05
-5.176861e-05
-3.258817e-05
-0.000112154
0.0001202073
5.113508e-05
0.0002748562
1.23352e-05
-0.000464012
-0.0004097402
-0.0004437429
0.0001447252
-1.628424e-05
-0.0001673186
-0.0003817164
1.368084e-06
-0.009942233
-0.0008356172
-0.0001985968
7.77947e-05
-0.0001782369
8.83894e-05
-0.0002061039
0.002360957
0.002385646
0.002435422
0.003634893
-0.01076152
-0.0008181962
0.0002228331
-0.01076255
-0.0008049361
-4.377608e-05
-0.01040448
-0.0008814136
3.974491e-05
-0.009925448
-0.0009520929
-1.63652e-05
-0.009390139
-0.001148126
-8.907843e-06
-0.008762
-0.001382651
-2.380266e-05
-0.008016437
-0.001681068
-3.689153e-05
-0.007127963
-0.002001659
-5.079225e-05
-0.006065927
-0.002351132
-6.156742e-05
-0.004791871
-0.002713124
-9.029991e-05
-0.003203312
-0.003119827
-5.958047e-05
-0.001326034
-0.003614503
-0.000140384
-0.00339005
-5.329999e-05
7.797758e-05
6.666734e-05
-7.863995e-06
-0.0001829545
0.0006348239
0.0004616102
0.0006013037
0.0004657526
-0.01033154
-0.0001518294
-0.002368806
0.000122004
-0.000150102
0.0001099259
-0.0001638628
0.002510613
0.002570829
0.003034441
0.00398271
-0.01050216
-0.0007397989
-0.000527752
-0.01038305
-0.0009128352
-0.0002728075
-0.01010339
-0.001080312
-0.0001108047
-0.00973564
-0.001281496
-9.779386e-05
-0.009284107
-0.001559426
-7.869989e-05
-0.00873636
-0.001902242
-7.976862e-05
-0.008054701
-0.002328245
-9.601122e-05
-0.007212602
-0.002816104
-0.0001015044
-0.006172506
-0.003361678
-0.0001033218
-0.004909507
-0.00397715
-6.875014e-05
-0.003355156
-0.00463614
-1.516993e-05
-0.001536052
-0.005341042
1.948724e-05
-0.004807034
6.781507e-05
2.552172e-05
0.0001326366
-6.149904e-05
-0.0002835418
-0.0103696
-0.0002405236
-0.00251431
0.0001035454
-0.0001857347
8.705508e-05
-0.000176916
0.002565948
0.002570895
0.003949687
0.004058123
-0.01051011
-0.0006700347
-0.0004512955
-0.01038394
-0.0009349527
-0.0003927829
-0.01013931
-0.001237827
-6.05598e-05
-0.00984687
-0.001540596
-7.348708e-05
-0.009478199
-0.001917212
-2.166913e-05
-0.00899568
-0.002368877
-3.412597e-05
-0.008386266
-0.002924227
-2.509865e-05
-0.007613924
-0.003577684
-3.005031e-05
-0.006628255
-0.004343335
-1.196166e-05
-0.005382685
-0.005235633
3.907464e-06
-0.003774634
-0.00622788
7.2126e-05
-0.001773114
-0.007230897
1.970276e-05
-0.006539395
-1.106075e-05
7.679102e-05
0.0002568076
-2.772088e-05
-0.0003355692
-0.01070985
-0.0003051393
-0.002648538
8.914256e-05
-0.0001757802
8.145086e-05
-0.0001776771
0.002631563
0.002647391
0.004153209
0.004173708
-0.01072524
-0.0006997781
-0.0005870635
-0.01053685
-0.001018336
-0.0004670853
-0.01031288
-0.001353521
-0.0001160449
-0.01009134
-0.001728383
-9.302153e-05
-0.009796828
-0.002182279
-3.425116e-05
-0.009413165
-0.002735666
-4.60794e-05
-0.008912235
-0.003413279
-2.648114e-05
-0.008247939
-0.004238276
-2.210406e-05
-0.007349076
-0.005247741
9.080566e-06
-0.006148487
-0.006471968
3.918176e-05
-0.004473641
-0.007891933
0.0001362622
-0.002135588
-0.00946161
5.952283e-05
-0.008612068
4.313206e-05
6.902984e-05
0.0003106745
-5.028344e-05
-0.0004354679
-0.01096684
-0.0003099271
-0.002730342
5.341125e-05
-0.000184933
4.183561e-05
-0.0001924413
0.002704623
0.002727374
0.004273653
0.004278443
-0.01099831
-0.0006891028
-0.0006161895
-0.01082301
-0.001035657
-0.0005081694
-0.01064205
-0.001421301
-0.0001057428
-0.01048366
-0.001843698
-0.0001024393
-0.01030017
-0.002357807
-3.168664e-05
-0.01003724
-0.002986984
-3.177849e-05
-0.00967506
-0.003772964
-6.990606e-06
-0.009166946
-0.004753646
3.557785e-07
-0.008424021
-0.006012356
3.423607e-05
-0.007345731
-0.007607498
7.074742e-05
-0.005577004
-0.0096644
0.0001695991
-0.002919613
-0.01201792
5.688205e-05
-0.01155042
-1.405191e-05
0.0001314172
0.0004184868
4.34738e-06
-0.0005214593
-0.0112948
-0.0002921165
-0.002856103
5.260577e-05
-0.000187331
5.457754e-05
-0.0001917531
0.002793667
0.00280393
0.004400536
0.00440686
-0.01132508
-0.0006871015
-0.0006195412
-0.01117686
-0.001035265
-0.0005351953
-0.01104234
-0.001428182
-0.0001392689
-0.01098678
-0.001863354
-0.000108472
-0.01091734
-0.002407389
-3.18629e-05
-0.01081138
-0.003078063
-3.645264e-05
-0.01065952
-0.003925654
-3.79941e-06
-0.01041944
-0.005010672
6.184404e-06
-0.009973643
-0.006497992
5.86491e-05
-0.0092193
-0.008452575
0.0001020912
-0.007513703
-0.01138626
0.0002866887
-0.004222609
-0.01523237
0.0001329603
-0.004210861
0.0001118385
0.0001504946
0.0004987867
-0.0001238746
-0.0004508354
-0.003665898
-0.004291091
-0.003791589
-0.01159692
-0.000283422
-0.002905913
8.343252e-05
-0.0001905283
9.314679e-05
-0.000201585
0.00285791
0.002867707
0.004489004
0.00449505
-0.01167186
-0.0006505681
-0.0006656912
-0.01155132
-0.000985444
-0.0005519087
-0.01148194
-0.001367449
-0.0001297558
-0.01149819
-0.001793871
-0.0001189494
-0.01155877
-0.002335191
-3.503664e-05
-0.01163478
-0.002991606
-3.172583e-05
-0.01172282
-0.003840478
-9.574383e-07
-0.01179805
-0.004954719
1.466133e-05
-0.01183468
-0.006505159
5.584608e-05
-0.01173219
-0.008648214
0.0001342795
-0.01113968
-0.01202771
0.0002965557
-0.001549648
-0.01724152
0.0004964655
-0.002890268
-0.00158549
-0.002987522
0.0001526126
-0.000587542
-0.005207999
-0.0001175807
-0.01191357
-0.0002537689
-0.003004017
7.803132e-05
-0.0001840701
9.328671e-05
-0.0002011465
0.002925434
0.002943098
0.004615254
0.004618043
-0.01200709
-0.0005872426
-0.0006839354
-0.01194105
-0.0008940681
-0.0005682098
-0.0119383
-0.001236705
-0.000146271
-0.01205583
-0.001626556
-0.0001254025
-0.01225455
-0.002106669
-3.350147e-05
-0.01254949
-0.002683566
-3.282873e-05
-0.01297005
-0.003423257
2.100096e-06
-0.01359164
-0.004362405
2.031424e-05
-0.01451144
-0.005649933
7.886544e-05
-0.01605466
-0.007270901
0.000179813
-0.01826411
-0.009887345
0.0004417902
-0.004371334
-0.01293177
0.0007995012
-0.006528346
-0.005217806
-0.006372853
0.0004452466
-0.006637371
-0.000460635
0.007261582
-0.002077632
-0.000567309
-0.001367458
-0.000967757
-0.01219385
-0.00022393
-0.003064546
9.904408e-05
-0.000186702
9.515053e-05
-0.0002014185
0.002994447
0.003001696
0.004708495
0.004717848
-0.01231526
-0.0004971567
-0.0007132849
-0.01227373
-0.0007588484
-0.0005824593
-0.01232549
-0.001052471
-0.000146165
-0.01251992
-0.001376656
-0.0001295133
-0.01282865
-0.00177072
-3.382543e-05
-0.01326919
-0.002229105
-3.140286e-05
-0.0139028
-0.002790974
6.302145e-07
-0.01479885
-0.003489195
2.238007e-05
-0.01620288
-0.004290012
5.982233e-05
-0.01832011
-0.005260827
0.0001677456
-0.02184915
-0.006387827
0.0003259869
-0.006905308
-0.007011109
0.0007627328
-0.007064054
-0.006821
-0.006830074
0.004158063
-6.169097e-05
-0.00838146
-0.002660421
4.020279e-05
0.0004574906
-0.0002669789
0.01016839
-0.01013555
-0.0005287056
0.0001665874
-0.0002004517
0.0005152257
-0.0001760039
-0.03273936
0.01179083
0.00177062
-0.0007391265
-0.00112256
-0.0002742914
-0.0007204076
-0.00318619
-0.004193637
-0.003149735
-0.004126471
0.009379248
0.009108044
0.009262186
0.008940844
-0.02894092
0.0158277
0.001549025
-0.0008447021
-0.00117565
-0.0002711233
-0.0007346126
-0.004335221
-0.004824072
-0.004234913
-0.004754863
-0.0259193
0.01730307
0.001811718
-0.0009209752
-0.001232149
-0.0003239649
-0.0007735248
-0.004612259
-0.005010135
-0.004345056
-0.004918354
-0.0236468
0.01793346
0.001891819
-0.0009471248
-0.001227562
-0.0002874254
-0.0007386031
-0.004695824
-0.005030998
-0.004300165
-0.004870066
0.01843691
0.001491486
-0.0009225498
-0.000241185
-0.00473037
-0.004371364
-0.02142804
-0.001187745
-0.0006898365
-0.005072028
-0.004932074
-0.01243453
-0.0001906321
-0.003124658
9.376138e-05
-0.0001898078
8.746823e-05
-0.0002081845
0.003054393
0.003073725
0.004801213
0.00481332
-0.01257899
-0.0003978948
-0.0007268494
-0.01256557
-0.0005964594
-0.0005930754
-0.01266077
-0.0008220453
-0.0001536566
-0.01291953
-0.001061432
-0.0001349988
-0.01330702
-0.001346953
-3.530819e-05
-0.01385704
-0.001662454
-3.279808e-05
-0.01462388
-0.002023026
-2.307752e-06
-0.01569947
-0.002428598
9.782634e-06
-0.01722933
-0.002800102
4.086106e-05
-0.01943056
-0.003140967
9.132516e-05
-0.02267774
-0.003216115