/*--------------------------------*- C++ -*----------------------------------*\
  =========                 |
  \\      /  F ield         | OpenFOAM: The Open Source CFD Toolbox
   \\    /   O peration     | Website:  https://openfoam.org
    \\  /    A nd           | Version:  7
     \\/     M anipulation  |
\*---------------------------------------------------------------------------*/
FoamFile
{
    version     2.0;
    format      ascii;
    class       volScalarField;
    location    "0.03";
    object      k;
}
// * * * * * * * * * * * * * * * * * * * * * * * * * * * * * * * * * * * * * //

dimensions      [0 2 -2 0 0 0 0];

internalField   nonuniform List<scalar> 
86107
(
0.003742041
0.003742063
0.003742237
0.00374245
0.003742668
0.003742869
0.003743047
0.003743191
0.003742096
0.003741934
0.003742043
0.003742234
0.003742448
0.003742655
0.003742843
0.003742999
0.003742288
0.003742062
0.003742122
0.003742287
0.003742491
0.003742695
0.003742887
0.003743054
0.003742542
0.003742294
0.003742329
0.003742475
0.003742669
0.003742874
0.003743074
0.00374326
0.003742823
0.003742576
0.003742599
0.003742733
0.003742925
0.003743138
0.003743356
0.003743574
0.003743118
0.00374288
0.003742899
0.003743031
0.003743229
0.003743465
0.003743723
0.003744007
0.003743423
0.003743202
0.003743224
0.003743361
0.003743579
0.003743858
0.003744212
0.003744614
0.003743733
0.00374353
0.003743555
0.003743698
0.003743941
0.003744292
0.003744871
0.003745403
0.003744047
0.003743862
0.003743892
0.003744042
0.003744319
0.003744736
0.003745131
0.003743742
0.003744357
0.003744182
0.0037442
0.00374432
0.003744558
0.003744898
0.003745419
0.003744646
0.003810555
0.003744662
0.003744492
0.003744481
0.003744543
0.003744672
0.003744829
0.003745078
0.003741926
0.003744974
0.003744808
0.003744766
0.003744773
0.003744791
0.003744773
0.003744663
0.00373991
0.003745303
0.003745145
0.003745087
0.003745059
0.003745034
0.003744928
0.003744717
0.00373899
0.003745658
0.003745518
0.00374546
0.003745434
0.003745418
0.003745354
0.003745164
0.003740127
0.003746042
0.003745927
0.003745878
0.003745865
0.003745855
0.003745885
0.00374593
0.003746006
0.003746458
0.003746373
0.003746338
0.00374634
0.003746365
0.003746412
0.003746539
0.003746734
0.003746906
0.003746852
0.003746832
0.003746844
0.003746885
0.003746965
0.003747087
0.003747329
0.003747388
0.003747365
0.003747355
0.00374737
0.003747415
0.003747492
0.003747621
0.003747819
0.003747906
0.003747913
0.003747908
0.003747918
0.003747954
0.003748018
0.00374813
0.003748307
0.003748465
0.0037485
0.003748494
0.003748487
0.003748499
0.003748531
0.003748608
0.003748744
0.003749073
0.003749135
0.003749122
0.003749089
0.003749058
0.003749038
0.00374906
0.003749147
0.003749738
0.003749825
0.003749799
0.003749721
0.003749626
0.003749526
0.00374947
0.00374949
0.003750481
0.0037506
0.003750563
0.00375044
0.003750249
0.003750023
0.003749839
0.003749771
0.003732329
0.003732701
0.003733292
0.003733922
0.003734538
0.003735098
0.003735581
0.003735975
0.003732233
0.003641265
0.003641277
0.003641285
0.00364129
0.003641293
0.003641293
0.003641291
0.003641287
0.00373266
0.003641275
0.003641282
0.003641293
0.003641299
0.003641303
0.003641305
0.003641304
0.0036413
0.003733288
0.003641287
0.003641295
0.003641302
0.003641309
0.003641315
0.003641318
0.003641319
0.003641318
0.003733998
0.0036413
0.003641309
0.003641317
0.003641325
0.003641334
0.00364134
0.003641344
0.003641347
0.003734737
0.003641314
0.003641324
0.003641333
0.003641344
0.003641356
0.003641367
0.003641378
0.003641388
0.003735511
0.003641327
0.003641339
0.00364135
0.003641364
0.003641382
0.003641402
0.003641429
0.003641458
0.003736311
0.003641341
0.003641353
0.003641366
0.003641383
0.003641408
0.003641443
0.003641505
0.003641568
0.003737119
0.003641353
0.003641364
0.003641378
0.003641399
0.003641432
0.003641495
0.003641637
0.003641898
0.003737929
0.003641363
0.003641374
0.003641386
0.003641405
0.003641441
0.003641518
0.003641781
0.003643051
0.003738741
0.003641371
0.00364138
0.003641386
0.003641393
0.003641406
0.003641463
0.003641731
0.003643873
0.00378885
0.003739548
0.003641381
0.003641388
0.003641387
0.003641385
0.003641376
0.00364139
0.003641508
0.003642627
0.003740362
0.003641396
0.003641402
0.0036414
0.003641396
0.003641386
0.003641396
0.003641497
0.003642278
0.003741202
0.003641415
0.003641423
0.003641424
0.003641427
0.003641432
0.003641479
0.003641664
0.003641899
0.003742095
0.003641439
0.003641449
0.003641456
0.003641466
0.003641487
0.003641551
0.003641683
0.003641984
0.003743057
0.003641465
0.003641478
0.003641487
0.003641501
0.003641524
0.003641569
0.003641687
0.003641773
0.003744095
0.003641494
0.003641508
0.003641519
0.003641534
0.003641554
0.003641588
0.003641642
0.003641743
0.003745212
0.003641525
0.003641541
0.00364155
0.003641564
0.003641579
0.003641597
0.003641622
0.003641653
0.003746412
0.00364156
0.003641575
0.003641583
0.003641593
0.003641603
0.003641614
0.003641628
0.003641647
0.003747699
0.003641599
0.003641614
0.003641619
0.003641624
0.003641627
0.003641628
0.003641632
0.00364164
0.003749085
0.003641645
0.003641659
0.003641659
0.003641659
0.003641652
0.003641643
0.003641637
0.003641637
0.00375058
0.003641701
0.003641715
0.003641709
0.003641701
0.003641681
0.003641657
0.003641638
0.003641631
0.003752203
0.003641772
0.003641786
0.003641776
0.003641759
0.003641724
0.003641677
0.003641639
0.003641622
0.003754695
0.003641864
0.003641881
0.00364187
0.003641843
0.003641783
0.003641706
0.003641642
0.003641609
0.003732171
0.003741868
0.003741954
0.003742172
0.003742389
0.003742601
0.003742784
0.003742932
0.003732092
0.003641246
0.003641352
0.003641353
0.003641357
0.003641354
0.003641348
0.003641338
0.003641323
0.003741772
0.003641277
0.003641266
0.003641274
0.003641279
0.003641282
0.003641284
0.003641283
0.003641281
0.00374194
0.003641289
0.00364128
0.003641286
0.003641293
0.003641298
0.003641301
0.003641302
0.003641301
0.003742196
0.003641301
0.003641293
0.003641301
0.003641309
0.003641317
0.003641323
0.003641327
0.00364133
0.003742481
0.003641314
0.003641308
0.003641318
0.003641328
0.003641339
0.003641351
0.003641362
0.003641372
0.00374279
0.003641328
0.003641323
0.003641334
0.003641348
0.003641365
0.003641386
0.003641413
0.003641442
0.003743107
0.003641341
0.003641336
0.00364135
0.003641367
0.003641391
0.003641427
0.00364149
0.003641554
0.00374343
0.003641353
0.003641348
0.003641363
0.003641382
0.003641416
0.003641476
0.00364162
0.003641884
0.003743756
0.003641363
0.003641358
0.003641371
0.003641389
0.003641424
0.003641494
0.003641739
0.003643022
0.003744083
0.003641372
0.003641363
0.003641369
0.003641376
0.003641389
0.003641435
0.003641676
0.003643777
0.003789226
0.003744408
0.003641383
0.003641371
0.003641371
0.003641368
0.003641358
0.003641359
0.003641449
0.003642642
0.003744738
0.003641397
0.003641385
0.003641384
0.003641379
0.003641368
0.003641363
0.003641444
0.003642275
0.003745082
0.003641416
0.003641406
0.003641408
0.00364141
0.003641412
0.003641442
0.003641594
0.003641773
0.003745447
0.003641439
0.003641432
0.003641439
0.003641448
0.003641465
0.003641503
0.003641618
0.003641937
0.003745841
0.003641466
0.003641461
0.00364147
0.003641483
0.003641502
0.003641537
0.003641607
0.003641685
0.003746266
0.003641495
0.003641491
0.003641503
0.003641517
0.003641536
0.003641565
0.003641616
0.003641679
0.003746724
0.003641527
0.003641524
0.003641535
0.003641548
0.003641562
0.003641581
0.003641609
0.003641638
0.003747217
0.003641562
0.003641558
0.003641568
0.003641577
0.003641587
0.003641598
0.003641612
0.003641629
0.003747747
0.003641601
0.003641597
0.003641603
0.003641608
0.00364161
0.003641612
0.003641616
0.003641624
0.00374832
0.003641647
0.003641642
0.003641645
0.003641643
0.003641636
0.003641626
0.00364162
0.00364162
0.003748942
0.003641704
0.003641697
0.003641695
0.003641685
0.003641665
0.00364164
0.003641621
0.003641614
0.003749624
0.003641774
0.003641768
0.003641762
0.003641743
0.003641706
0.003641659
0.003641622
0.003641605
0.003750378
0.003641866
0.003641862
0.003641855
0.003641826
0.003641765
0.003641688
0.003641623
0.003641591
0.003732057
0.003741759
0.003741753
0.003741958
0.003742178
0.0037424
0.003742591
0.003742745
0.003731978
0.003641245
0.003641348
0.003641349
0.003641354
0.003641351
0.003641346
0.003641335
0.003641321
0.003741662
0.003641277
0.003641265
0.003641273
0.003641278
0.003641282
0.003641283
0.003641283
0.003641281
0.003741741
0.003641288
0.00364128
0.003641286
0.003641292
0.003641297
0.003641301
0.003641302
0.003641301
0.003741987
0.003641299
0.003641293
0.003641301
0.003641309
0.003641317
0.003641323
0.003641327
0.003641329
0.003742277
0.003641313
0.003641307
0.003641317
0.003641328
0.003641339
0.003641351
0.003641362
0.003641372
0.0037426
0.003641327
0.003641322
0.003641334
0.003641348
0.003641365
0.003641385
0.003641413
0.003641442
0.003742931
0.00364134
0.003641336
0.00364135
0.003641367
0.003641391
0.003641426
0.003641489
0.003641553
0.003743271
0.003641352
0.003641348
0.003641362
0.003641382
0.003641415
0.003641475
0.003641617
0.003641884
0.003743613
0.003641362
0.003641357
0.00364137
0.003641388
0.003641423
0.003641493
0.003641737
0.003643012
0.003743955
0.003641371
0.003641363
0.003641369
0.003641376
0.003641388
0.003641434
0.003641677
0.003643785
0.003789252
0.003744295
0.003641382
0.003641371
0.003641371
0.003641368
0.003641358
0.003641359
0.003641449
0.003642654
0.003744641
0.003641396
0.003641385
0.003641384
0.003641379
0.003641368
0.003641363
0.003641446
0.003642277
0.003745001
0.003641415
0.003641406
0.003641408
0.003641411
0.003641412
0.00364144
0.003641611
0.00364188
0.003745385
0.003641439
0.003641432
0.003641439
0.003641449
0.003641465
0.003641511
0.003641595
0.003641914
0.003745797
0.003641465
0.00364146
0.003641471
0.003641485
0.003641505
0.003641542
0.003641612
0.003641726
0.003746242
0.003641494
0.003641491
0.003641503
0.003641517
0.003641536
0.003641563
0.003641601
0.003641659
0.003746722
0.003641526
0.003641523
0.003641535
0.003641548
0.003641562
0.003641581
0.003641606
0.003641636
0.003747238
0.003641561
0.003641558
0.003641568
0.003641577
0.003641586
0.003641597
0.00364161
0.003641628
0.003747793
0.003641601
0.003641596
0.003641603
0.003641608
0.00364161
0.003641612
0.003641615
0.003641623
0.003748393
0.003641647
0.003641641
0.003641644
0.003641643
0.003641635
0.003641626
0.00364162
0.00364162
0.003749044
0.003641703
0.003641696
0.003641694
0.003641684
0.003641665
0.00364164
0.003641621
0.003641614
0.003749758
0.003641774
0.003641767
0.003641761
0.003641743
0.003641707
0.003641659
0.003641622
0.003641605
0.003750546
0.003641866
0.003641861
0.003641855
0.003641827
0.003641765
0.003641689
0.003641623
0.003641591
0.003732031
0.003741709
0.003741683
0.003741878
0.003742096
0.003742319
0.003742512
0.003742669
0.003731952
0.003641245
0.003641346
0.003641347
0.003641352
0.00364135
0.003641345
0.003641334
0.00364132
0.003741614
0.003641277
0.003641264
0.003641273
0.003641278
0.003641281
0.003641283
0.003641283
0.00364128
0.003741671
0.003641288
0.003641279
0.003641286
0.003641292
0.003641297
0.0036413
0.003641301
0.0036413
0.003741908
0.003641299
0.003641292
0.003641301
0.003641309
0.003641316
0.003641323
0.003641327
0.003641329
0.003742197
0.003641313
0.003641307
0.003641317
0.003641328
0.003641339
0.003641351
0.003641362
0.003641372
0.003742525
0.003641326
0.003641321
0.003641334
0.003641348
0.003641365
0.003641385
0.003641413
0.003641442
0.00374286
0.003641339
0.003641335
0.003641349
0.003641367
0.003641391
0.003641426
0.00364149
0.003641554
0.003743204
0.003641351
0.003641347
0.003641362
0.003641382
0.003641415
0.003641475
0.003641617
0.003641884
0.00374355
0.003641362
0.003641357
0.00364137
0.003641388
0.003641423
0.003641492
0.003641737
0.003643012
0.003743897
0.00364137
0.003641362
0.003641369
0.003641376
0.003641388
0.003641433
0.003641676
0.00364378
0.003789267
0.003744241
0.003641381
0.00364137
0.003641371
0.003641368
0.003641357
0.003641358
0.003641447
0.003642656
0.003744591
0.003641395
0.003641384
0.003641384
0.003641379
0.003641368
0.003641361
0.003641445
0.003642272
0.003744955
0.003641414
0.003641405
0.003641408
0.003641411
0.003641412
0.00364144
0.003641606
0.003641864
0.003745343
0.003641438
0.003641431
0.003641439
0.003641449
0.003641464
0.003641508
0.003641585
0.003641907
0.00374576
0.003641464
0.003641459
0.00364147
0.003641484
0.003641504
0.00364154
0.003641609
0.003641719
0.003746211
0.003641493
0.00364149
0.003641502
0.003641517
0.003641535
0.003641562
0.003641599
0.003641656
0.003746696
0.003641525
0.003641522
0.003641534
0.003641547
0.003641562
0.003641581
0.003641606
0.003641636
0.003747219
0.00364156
0.003641556
0.003641567
0.003641577
0.003641586
0.003641597
0.00364161
0.003641628
0.003747781
0.003641599
0.003641595
0.003641603
0.003641608
0.00364161
0.003641612
0.003641615
0.003641623
0.003748387
0.003641645
0.00364164
0.003641644
0.003641642
0.003641635
0.003641626
0.00364162
0.00364162
0.003749046
0.003641701
0.003641694
0.003641694
0.003641684
0.003641664
0.00364164
0.003641621
0.003641614
0.003749767
0.003641772
0.003641764
0.00364176
0.003641742
0.003641706
0.003641659
0.003641622
0.003641604
0.003750566
0.003641864
0.003641859
0.003641854
0.003641826
0.003641765
0.003641688
0.003641623
0.00364159
0.003732029
0.003741707
0.003741682
0.003741873
0.003742087
0.003742307
0.003742499
0.003742654
0.003731949
0.003641244
0.003641346
0.003641347
0.003641352
0.00364135
0.003641345
0.003641334
0.00364132
0.003741614
0.003641277
0.003641264
0.003641273
0.003641277
0.003641281
0.003641283
0.003641283
0.00364128
0.003741671
0.003641288
0.003641279
0.003641286
0.003641292
0.003641297
0.0036413
0.003641301
0.0036413
0.003741908
0.003641299
0.003641292
0.003641301
0.003641309
0.003641316
0.003641323
0.003641327
0.003641329
0.003742197
0.003641313
0.003641307
0.003641317
0.003641328
0.003641339
0.00364135
0.003641362
0.003641372
0.003742525
0.003641326
0.003641321
0.003641334
0.003641348
0.003641365
0.003641385
0.003641412
0.003641442
0.00374286
0.003641339
0.003641335
0.003641349
0.003641367
0.003641391
0.003641426
0.00364149
0.003641554
0.003743204
0.003641351
0.003641347
0.003641362
0.003641382
0.003641415
0.003641475
0.003641617
0.003641884
0.00374355
0.003641362
0.003641357
0.00364137
0.003641388
0.003641423
0.003641492
0.003641737
0.003643012
0.003743896
0.00364137
0.003641362
0.003641369
0.003641376
0.003641388
0.003641433
0.003641676
0.003643779
0.003789263
0.003744241
0.003641381
0.00364137
0.003641371
0.003641368
0.003641357
0.003641358
0.003641447
0.003642658
0.003744591
0.003641395
0.003641384
0.003641384
0.003641379
0.003641368
0.003641361
0.003641445
0.003642269
0.003744955
0.003641414
0.003641405
0.003641408
0.003641411
0.003641412
0.003641439
0.003641606
0.00364186
0.003745343
0.003641438
0.003641431
0.003641439
0.003641449
0.003641463
0.003641509
0.003641582
0.003641908
0.003745761
0.003641464
0.003641459
0.003641471
0.003641485
0.003641505
0.003641541
0.00364161
0.003641722
0.003746211
0.003641493
0.00364149
0.003641502
0.003641517
0.003641535
0.003641562
0.003641598
0.003641652
0.003746696
0.003641525
0.003641522
0.003641534
0.003641547
0.003641562
0.003641581
0.003641605
0.003641635
0.00374722
0.00364156
0.003641556
0.003641567
0.003641577
0.003641586
0.003641597
0.00364161
0.003641628
0.00374778
0.003641599
0.003641595
0.003641603
0.003641608
0.00364161
0.003641611
0.003641615
0.003641623
0.003748386
0.003641645
0.003641639
0.003641644
0.003641642
0.003641635
0.003641626
0.003641619
0.00364162
0.003749045
0.003641701
0.003641694
0.003641694
0.003641684
0.003641664
0.00364164
0.003641621
0.003641614
0.003749769
0.003641772
0.003641764
0.003641761
0.003641742
0.003641706
0.003641659
0.003641622
0.003641604
0.003750565
0.003641863
0.003641859
0.003641854
0.003641826
0.003641764
0.003641688
0.003641623
0.00364159
0.003732038
0.003741758
0.003741738
0.003741935
0.00374214
0.003742337
0.003742521
0.003742673
0.003731959
0.003641245
0.003641348
0.003641348
0.003641351
0.003641349
0.003641343
0.003641334
0.00364132
0.003741664
0.003641277
0.003641265
0.003641273
0.003641278
0.003641282
0.003641283
0.003641283
0.00364128
0.003741743
0.003641288
0.00364128
0.003641286
0.003641292
0.003641297
0.003641301
0.003641302
0.003641301
0.003741987
0.003641299
0.003641293
0.003641301
0.003641309
0.003641317
0.003641323
0.003641327
0.003641329
0.003742278
0.003641313
0.003641307
0.003641317
0.003641328
0.003641339
0.003641351
0.003641362
0.003641372
0.003742601
0.003641327
0.003641322
0.003641334
0.003641348
0.003641365
0.003641385
0.003641412
0.003641442
0.003742932
0.00364134
0.003641336
0.00364135
0.003641367
0.003641391
0.003641426
0.003641489
0.003641553
0.003743271
0.003641352
0.003641348
0.003641362
0.003641382
0.003641415
0.003641475
0.003641617
0.003641883
0.003743614
0.003641362
0.003641357
0.00364137
0.003641388
0.003641423
0.003641493
0.003641736
0.00364301
0.003743955
0.003641371
0.003641363
0.003641369
0.003641376
0.003641388
0.003641433
0.003641677
0.003643783
0.003789255
0.003744296
0.003641382
0.003641371
0.003641371
0.003641368
0.003641358
0.003641359
0.003641448
0.00364266
0.003744642
0.003641396
0.003641385
0.003641384
0.003641379
0.003641368
0.003641363
0.003641447
0.003642272
0.003745003
0.003641415
0.003641406
0.003641408
0.003641411
0.003641413
0.00364144
0.003641608
0.003641878
0.003745386
0.003641438
0.003641432
0.003641439
0.003641449
0.003641464
0.003641511
0.003641586
0.003641906
0.003745798
0.003641465
0.00364146
0.003641471
0.003641485
0.003641505
0.003641542
0.003641611
0.003641728
0.003746243
0.003641494
0.003641491
0.003641503
0.003641517
0.003641535
0.003641562
0.003641599
0.003641653
0.003746722
0.003641526
0.003641523
0.003641535
0.003641548
0.003641562
0.003641581
0.003641606
0.003641636
0.003747238
0.003641561
0.003641558
0.003641568
0.003641577
0.003641586
0.003641597
0.00364161
0.003641628
0.003747793
0.0036416
0.003641596
0.003641603
0.003641608
0.00364161
0.003641612
0.003641615
0.003641623
0.003748391
0.003641646
0.003641641
0.003641644
0.003641643
0.003641636
0.003641626
0.00364162
0.00364162
0.00374904
0.003641702
0.003641695
0.003641694
0.003641684
0.003641665
0.003641641
0.003641622
0.003641614
0.003749749
0.003641773
0.003641766
0.003641761
0.003641743
0.003641707
0.00364166
0.003641623
0.003641605
0.003750539
0.003641865
0.00364186
0.003641855
0.003641828
0.003641766
0.003641689
0.003641624
0.003641592
0.003732115
0.00374187
0.00374195
0.003742086
0.003742346
0.003742433
0.003742606
0.003742754
0.003732034
0.003641246
0.003641351
0.003641351
0.003641352
0.003641348
0.003641344
0.003641335
0.003641321
0.003741778
0.003641277
0.003641266
0.003641274
0.003641278
0.003641281
0.003641283
0.003641283
0.003641281
0.003741946
0.003641289
0.00364128
0.003641286
0.003641293
0.003641298
0.003641301
0.003641302
0.003641301
0.003742199
0.003641301
0.003641293
0.003641301
0.003641309
0.003641317
0.003641323
0.003641327
0.00364133
0.003742484
0.003641315
0.003641308
0.003641318
0.003641328
0.003641339
0.003641351
0.003641362
0.003641372
0.003742793
0.003641328
0.003641322
0.003641334
0.003641348
0.003641365
0.003641386
0.003641413
0.003641442
0.003743107
0.003641341
0.003641336
0.00364135
0.003641367
0.003641391
0.003641427
0.00364149
0.003641554
0.003743435
0.003641353
0.003641348
0.003641362
0.003641382
0.003641415
0.003641476
0.003641619
0.003641883
0.00374376
0.003641363
0.003641358
0.00364137
0.003641389
0.003641423
0.003641494
0.003641739
0.003643019
0.003744081
0.003641372
0.003641363
0.00364137
0.003641376
0.003641389
0.003641435
0.003641675
0.003643772
0.00378925
0.003744406
0.003641383
0.003641371
0.003641371
0.003641368
0.003641358
0.003641359
0.003641447
0.003642647
0.003744741
0.003641397
0.003641385
0.003641384
0.003641379
0.003641368
0.003641362
0.003641446
0.003642258
0.003745087
0.003641416
0.003641406
0.003641408
0.003641411
0.003641411
0.003641441
0.003641605
0.003641858
0.003745451
0.003641439
0.003641432
0.003641439
0.003641449
0.003641463
0.003641509
0.003641587
0.003641908
0.003745847
0.003641466
0.003641461
0.003641471
0.003641484
0.003641504
0.003641541
0.003641612
0.003641715
0.003746271
0.003641494
0.003641491
0.003641503
0.003641517
0.003641535
0.003641563
0.003641602
0.003641661
0.003746726
0.003641526
0.003641524
0.003641535
0.003641548
0.003641562
0.003641582
0.003641607
0.003641638
0.003747224
0.003641562
0.003641558
0.003641568
0.003641577
0.003641586
0.003641597
0.003641611
0.003641629
0.003747744
0.0036416
0.003641596
0.003641603
0.003641608
0.00364161
0.003641612
0.003641616
0.003641624
0.00374831
0.003641646
0.003641641
0.003641644
0.003641643
0.003641636
0.003641626
0.00364162
0.00364162
0.003748934
0.003641702
0.003641696
0.003641694
0.003641683
0.003641663
0.00364164
0.003641621
0.003641614
0.003749626
0.003641773
0.003641768
0.003641763
0.003641745
0.003641707
0.003641661
0.003641621
0.003641605
0.003750372
0.003641859
0.003641862
0.003641855
0.00364182
0.00364176
0.003641689
0.003641624
0.003641591
0.003732295
0.003732476
0.003732607
0.003733165
0.003742537
0.003742597
0.003742814
0.003742943
0.003732197
0.003641265
0.003641277
0.003641284
0.00364129
0.003641376
0.003641366
0.003641359
0.003641343
0.003732473
0.003641275
0.003641282
0.003641293
0.003641299
0.003641301
0.003641305
0.003641303
0.0036413
0.003732683
0.003641287
0.003641295
0.003641302
0.003641309
0.003641316
0.003641319
0.003641319
0.003641318
0.003733379
0.0036413
0.003641309
0.003641317
0.003641325
0.003641333
0.00364134
0.003641344
0.003641347
0.003734172
0.003641314
0.003641324
0.003641334
0.003641344
0.003641356
0.003641367
0.003641378
0.003641388
0.003735051
0.003641329
0.003641338
0.00364135
0.003641364
0.003641382
0.003641402
0.003641429
0.003641458
0.003735835
0.003641341
0.003641352
0.003641366
0.003641383
0.003641408
0.003641443
0.003641505
0.003641567
0.00373671
0.003641353
0.003641364
0.003641378
0.003641399
0.003641432
0.003641494
0.003641636
0.003641898
0.003737584
0.003641364
0.003641374
0.003641387
0.003641405
0.003641441
0.003641517
0.00364178
0.003642997
0.003738426
0.003641371
0.00364138
0.003641386
0.003641393
0.003641406
0.003641463
0.003641732
0.003643808
0.003789197
0.00373929
0.003641381
0.003641388
0.003641387
0.003641385
0.003641376
0.00364139
0.003641508
0.003642647
0.003740157
0.003641396
0.003641402
0.0036414
0.003641396
0.003641387
0.003641395
0.003641503
0.003642242
0.003741028
0.003641415
0.003641424
0.003641424
0.003641428
0.003641432
0.003641475
0.003641702
0.003642033
0.003741942
0.003641434
0.00364145
0.003641455
0.003641467
0.003641486
0.003641543
0.003641686
0.003642023
0.003743036
0.003641468
0.003641477
0.003641487
0.003641502
0.003641524
0.003641565
0.003641654
0.003641819
0.003744212
0.0036415
0.003641506
0.003641519
0.003641533
0.003641553
0.003641581
0.003641624
0.003641688
0.003745206
0.003641526
0.00364154
0.00364155
0.003641564
0.003641579
0.003641598
0.003641623
0.003641652
0.003746503
0.003641561
0.003641575
0.003641583
0.003641593
0.003641603
0.003641614
0.003641628
0.003641645
0.003747901
0.003641605
0.003641612
0.003641619
0.003641624
0.003641627
0.003641628
0.003641633
0.00364164
0.003749324
0.003641644
0.003641658
0.003641659
0.003641659
0.003641653
0.003641643
0.003641637
0.003641638
0.003750914
0.003641698
0.003641713
0.003641709
0.0036417
0.003641682
0.003641659
0.00364164
0.003641632
0.003752611
0.003641769
0.003641783
0.003641777
0.00364176
0.003641724
0.003641679
0.003641642
0.003641624
0.003754606
0.00364186
0.003641877
0.003641873
0.003641851
0.00364179
0.003641712
0.003641647
0.003641611
0.003710719
0.003711453
0.003713407
0.003733955
0.003734268
0.003734382
0.003734938
0.003735403
0.003710238
0.003742029
0.003742055
0.003742216
0.003742415
0.003742614
0.003742825
0.003743001
0.003743149
0.003712215
0.003742082
0.003741927
0.003742034
0.003742224
0.003742436
0.00374264
0.003742831
0.003742987
0.003713826
0.003742277
0.003742058
0.003742118
0.003742283
0.003742487
0.003742691
0.003742884
0.003743051
0.003715538
0.003742532
0.003742291
0.003742326
0.003742472
0.003742667
0.003742872
0.003743073
0.003743259
0.003717928
0.003742816
0.003742574
0.003742597
0.003742732
0.003742924
0.003743137
0.003743355
0.003743574
0.00371873
0.00374311
0.003742879
0.003742898
0.00374303
0.003743228
0.003743464
0.003743722
0.003744007
0.00372203
0.003743421
0.003743199
0.003743223
0.00374336
0.003743578
0.003743857
0.003744211
0.003744615
0.003724537
0.00374372
0.003743529
0.003743554
0.003743697
0.00374394
0.003744291
0.003744869
0.003745397
0.003727629
0.003744035
0.003743859
0.003743891
0.003744041
0.003744317
0.003744733
0.003745125
0.003645122
0.00372922
0.003744356
0.00374418
0.003744199
0.003744319
0.003744558
0.003744896
0.003745421
0.003644053
0.003789267
0.003731284
0.003744663
0.003744489
0.00374448
0.003744542
0.00374467
0.003744828
0.003745068
0.003643034
0.003733652
0.003744968
0.003744806
0.003744765
0.003744773
0.003744793
0.003744771
0.003744676
0.003642416
0.003735754
0.003745299
0.003745144
0.003745085
0.00374506
0.003745022
0.003744928
0.003744573
0.003641952
0.003738372
0.003745646
0.003745516
0.003745458
0.003745435
0.003745395
0.003745387
0.003745312
0.003744913
0.003742315
0.003746042
0.00374593
0.003745879
0.003745866
0.003745866
0.003745879
0.003745919
0.003746109
0.003739551
0.003746446
0.003746371
0.003746338
0.00374634
0.003746366
0.00374642
0.003746525
0.003746767
0.003745465
0.003746896
0.003746849
0.003746831
0.003746844
0.003746887
0.003746962
0.003747093
0.003747301
0.003749566
0.003747389
0.003747366
0.003747354
0.00374737
0.003747417
0.003747495
0.003747625
0.003747827
0.003753569
0.003747901
0.003747909
0.003747908
0.003747918
0.003747955
0.003748019
0.003748131
0.003748304
0.003757936
0.003748466
0.003748492
0.003748491
0.003748481
0.003748494
0.003748528
0.003748607
0.003748745
0.003761987
0.003749075
0.003749127
0.003749126
0.003749097
0.003749063
0.003749046
0.003749061
0.00374915
0.003766774
0.003749717
0.003749811
0.003749782
0.00374968
0.003749591
0.003749504
0.00374946
0.003749489
0.003769332
0.003750468
0.003750591
0.003750588
0.00375051
0.003750272
0.003750066
0.00374983
0.003749785
0.00373332
0.003708404
0.00370833
0.003641279
0.003733302
0.003733345
0.003710236
0.003711039
0.003641326
0.003641358
0.003733303
0.003733787
0.003711406
0.003712975
0.003641333
0.003641385
0.003733844
0.003734327
0.003713304
0.003714876
0.003641345
0.003641392
0.00373442
0.003734878
0.003715153
0.00371664
0.003641359
0.003641401
0.003734981
0.003735401
0.003716882
0.003718263
0.00364137
0.00364142
0.003735497
0.003735868
0.003718477
0.00371972
0.003641379
0.003641436
0.003735957
0.003736261
0.00371988
0.003720967
0.003641407
0.003641447
0.003736339
0.003736564
0.003721033
0.003721916
0.003641454
0.003641455
0.00372191
0.003733327
0.003733383
0.003710178
0.003641483
0.003711005
0.003641563
0.003733329
0.003733857
0.003711375
0.003641488
0.00371299
0.003641616
0.003733897
0.003734456
0.003713394
0.003641487
0.003715076
0.003641648
0.003734538
0.00373512
0.003715482
0.003641499
0.003717198
0.003641684
0.00373521
0.003735809
0.003717622
0.003641511
0.003719349
0.00364173
0.003735911
0.003736528
0.003719815
0.003641525
0.003721551
0.003641784
0.003736633
0.003737263
0.003722078
0.003641537
0.003723799
0.003641837
0.003737374
0.003738008
0.003724383
0.003641545
0.00372605
0.003641886
0.003738123
0.003738752
0.003726695
0.003641551
0.003728317
0.003641933
0.003738871
0.003739487
0.003729
0.00364156
0.003730546
0.003641975
0.003828856
0.003742532
0.003743121
0.003644076
0.003831937
0.003643071
0.00373949
0.003789378
0.003739607
0.003740221
0.003731269
0.00364159
0.003732764
0.003642023
0.003741267
0.003740088
0.003719593
0.003642939
0.003741579
0.003642309
0.003740434
0.003740347
0.003740976
0.003733551
0.003641622
0.003735041
0.003642078
0.003720168
0.003738013
0.003695646
0.003642405
0.003739917
0.003642107
0.003725447
0.003741112
0.003741774
0.00373591
0.003641656
0.003737441
0.003642143
0.003698423
0.003737847
0.003732936
0.003642008
0.00372297
0.003641829
0.003643562
0.003731715
0.003643325
0.003741926
0.003742633
0.003738409
0.003641694
0.003740008
0.003642218
0.003742802
0.003743558
0.003741091
0.003641735
0.003742757
0.003642299
0.003743748
0.003744555
0.003743977
0.003641779
0.003745704
0.003642387
0.003744766
0.003745625
0.00374709
0.003641827
0.003748854
0.00364248
0.00374586
0.003746773
0.003750433
0.003641879
0.003752222
0.003642579
0.003747037
0.003748004
0.003754019
0.003641935
0.003755828
0.003642687
0.003748302
0.003749329
0.003757874
0.003641997
0.0037597
0.003642803
0.003749672
0.003750768
0.003762032
0.003642067
0.00376388
0.003642932
0.003751164
0.003752344
0.003766552
0.003642146
0.003768425
0.003643079
0.003752807
0.003754088
0.0037715
0.003642241
0.003773438
0.003643252
0.00371004
0.003709913
0.003641245
0.003709229
0.003709105
0.00364124
0.003824766
0.003642985
0.003739838
0.003643818
0.003828957
0.003643091
0.003739917
0.003789277
0.003643807
0.003709118
0.003709015
0.003641243
0.003709077
0.003708976
0.00364124
0.003831117
0.003643076
0.003739981
0.003643777
0.003828876
0.003643107
0.003740028
0.003789286
0.003642712
0.003642733
0.003709076
0.003708975
0.003641241
0.003709057
0.003708964
0.003641241
0.003829941
0.003643095
0.003740032
0.003643785
0.003827996
0.003643108
0.003740021
0.003789266
0.003709061
0.003708956
0.003641241
0.003709051
0.003708957
0.003641241
0.003828163
0.003643105
0.003740017
0.003643779
0.003827718
0.003643108
0.003740018
0.003789265
0.00370905
0.003708957
0.003641241
0.003709051
0.003708955
0.003641241
0.003827803
0.003643108
0.003740018
0.003643778
0.003827801
0.003643105
0.003740006
0.003789253
0.003709053
0.003708957
0.003641241
0.003709081
0.003708963
0.003641241
0.003827932
0.003643107
0.003740007
0.003643781
0.003829551
0.003643094
0.003740009
0.003789214
0.00370908
0.003708972
0.00364124
0.003709114
0.003709022
0.003641243
0.003828716
0.003643104
0.003740001
0.00364377
0.00383079
0.00364307
0.003739926
0.003789155
0.003709212
0.003709119
0.00364124
0.003710166
0.003709925
0.003641245
0.003829162
0.003643088
0.003739878
0.003643854
0.003823186