/*--------------------------------*- C++ -*----------------------------------*\
  =========                 |
  \\      /  F ield         | OpenFOAM: The Open Source CFD Toolbox
   \\    /   O peration     | Website:  https://openfoam.org
    \\  /    A nd           | Version:  7
     \\/     M anipulation  |
\*---------------------------------------------------------------------------*/
FoamFile
{
    version     2.0;
    format      ascii;
    class       volScalarField;
    location    "0.03";
    object      p;
}
// * * * * * * * * * * * * * * * * * * * * * * * * * * * * * * * * * * * * * //

dimensions      [0 2 -2 0 0 0 0];

internalField   nonuniform List<scalar> 
86107
(
4.914539
4.914291
4.916229
4.917673
4.919977
4.922217
4.926511
4.930153
4.913157
4.912821
4.913242
4.914318
4.91716
4.919251
4.923562
4.927238
4.908424
4.909849
4.91012
4.911518
4.914521
4.916544
4.921685
4.9253
4.903651
4.905386
4.905292
4.906608
4.909765
4.911403
4.916911
4.920175
4.896789
4.89905
4.898838
4.900376
4.903759
4.905926
4.91163
4.914974
4.88898
4.89038
4.890224
4.891106
4.893918
4.895565
4.899838
4.904124
4.879359
4.880674
4.880994
4.882339
4.88475
4.88746
4.890288
4.889028
4.866718
4.867965
4.867079
4.86818
4.867435
4.871773
4.862883
4.872516
4.853343
4.855671
4.854527
4.85716
4.854324
4.860578
4.845998
4.855983
4.836503
4.839808
4.837339
4.839911
4.837143
4.841414
4.825322
4.803531
4.542233
4.819332
4.824342
4.821304
4.827018
4.823058
4.834575
4.818132
4.806758
4.79941
4.80537
4.801997
4.809826
4.806691
4.824708
4.809686
4.812301
4.777904
4.784776
4.781629
4.791052
4.788542
4.811062
4.802696
4.815431
4.75359
4.761218
4.75854
4.769401
4.766741
4.794192
4.765708
4.800097
4.725909
4.733349
4.731513
4.738995
4.739662
4.750112
4.741706
4.740457
4.695039
4.703342
4.702938
4.713015
4.716582
4.736585
4.730573
4.782088
4.659232
4.66774
4.668089
4.676306
4.682783
4.689673
4.694262
4.699414
4.618746
4.628284
4.630492
4.641278
4.651627
4.665393
4.674499
4.688511
4.572009
4.582653
4.586582
4.599214
4.612528
4.626373
4.640382
4.653841
4.51783
4.529934
4.536273
4.552321
4.570283
4.589188
4.609409
4.628259
4.455571
4.470212
4.480658
4.502665
4.526716
4.551184
4.577046
4.599238
4.380222
4.39648
4.410256
4.436995
4.467733
4.500387
4.536457
4.564579
4.293829
4.317383
4.340597
4.383493
4.427077
4.472951
4.517041
4.551783
4.91918
4.924595
4.928277
4.932853
4.938547
4.944111
4.948587
4.955422
4.912167
4.914581
4.917562
4.919572
4.921703
4.923028
4.925988
4.930286
4.933633
4.904961
4.909831
4.912909
4.911668
4.913734
4.916621
4.91879
4.923052
4.926747
4.89814
4.904689
4.911247
4.909768
4.912205
4.91525
4.917412
4.922749
4.926181
4.888844
4.898765
4.905947
4.904083
4.906605
4.909671
4.911507
4.917262
4.920312
4.879459
4.891735
4.899833
4.897788
4.900555
4.903939
4.906174
4.912605
4.914792
4.868043
4.883642
4.890879
4.889009
4.89105
4.894016
4.895391
4.901272
4.903167
4.853388
4.874418
4.881052
4.879922
4.882295
4.885214
4.886894
4.893336
4.884219
4.836651
4.861063
4.868252
4.86595
4.867932
4.86777
4.870733
4.862125
4.865884
4.820226
4.846613
4.856218
4.853332
4.856998
4.855387
4.859164
4.85199
4.856418
4.801787
4.829079
4.840658
4.836422
4.839756
4.840218
4.841196
4.840503
4.828699
4.479061
4.781994
4.811238
4.825329
4.820047
4.826803
4.824522
4.833599
4.821421
4.813485
4.759276
4.790706
4.806393
4.801172
4.809509
4.811285
4.825804
4.828098
4.820646
4.734585
4.768232
4.785909
4.780179
4.790688
4.789772
4.807286
4.807519
4.827332
4.707185
4.74307
4.762215
4.757624
4.767738
4.773696
4.782699
4.806631
4.789916
4.676386
4.714405
4.734716
4.729694
4.739624
4.740407
4.752572
4.736316
4.781238
4.641886
4.682377
4.704491
4.700603
4.712039
4.718002
4.730328
4.733176
4.750188
4.602811
4.64547
4.66911
4.665492
4.676949
4.683579
4.69429
4.696608
4.713761
4.558476
4.603666
4.629514
4.627207
4.641009
4.651389
4.664838
4.675376
4.690967
4.50787
4.555542
4.583902
4.582953
4.599136
4.612402
4.627417
4.641386
4.657024
4.449888
4.49995
4.531219
4.532242
4.552143
4.569704
4.589216
4.609442
4.628469
4.383091
4.435916
4.47123
4.475889
4.5018
4.525776
4.550998
4.576903
4.599434
4.304936
4.359518
4.398155
4.405922
4.437968
4.467488
4.501159
4.536467
4.564796
4.371627
4.271838
4.317525
4.334529
4.379814
4.425378
4.471054
4.515516
4.550825
4.919455
4.918026
4.912782
4.91631
4.917397
4.919533
4.922889
4.926955
4.912148
4.914634
4.914878
4.915407
4.91666
4.918979
4.921168
4.925119
4.92892
4.91042
4.912569
4.91268
4.913041
4.914609
4.916998
4.919147
4.923499
4.927177
4.912179
4.909023
4.909863
4.910272
4.911403
4.914352
4.916442
4.921504
4.925107
4.904983
4.904154
4.904583
4.905566
4.906571
4.909781
4.911452
4.917117
4.920129
4.900427
4.897735
4.89858
4.899323
4.900439
4.903968
4.906008
4.912251
4.91428
4.891681
4.889389
4.889833
4.890566
4.891095
4.894165
4.895385
4.90109
4.902478
4.882507
4.879873
4.880578
4.881442
4.882487
4.885316
4.886823
4.893025
4.882689
4.870718
4.867305
4.867875
4.867575
4.868294
4.868042
4.870937
4.861939
4.863115
4.858649
4.854502
4.855748
4.855174
4.857319
4.855264
4.858483
4.851913
4.853671
4.843307
4.838366
4.839789
4.838673
4.840798
4.840715
4.84568
4.845452
4.843605
4.4071
4.827001
4.821618
4.824168
4.82238
4.827641
4.824185
4.835913
4.822884
4.823577
4.807854
4.801982
4.804971
4.803574
4.810301
4.810189
4.829069
4.822336
4.827465
4.786977
4.780634
4.784352
4.782675
4.791283
4.788844
4.808903
4.807876
4.832912
4.763062
4.756433
4.760418
4.760211
4.768134
4.771987
4.78335
4.801389
4.776116
4.735894
4.728835
4.73277
4.732564
4.739685
4.73925
4.751868
4.73656
4.767902
4.705155
4.697907
4.702374
4.704023
4.712127
4.717436
4.731362
4.731568
4.753906
4.66968
4.662094
4.66689
4.669308
4.677029
4.683185
4.693716
4.695428
4.709475
4.629034
4.621341
4.627123
4.631442
4.641089
4.651583
4.664868
4.674535
4.690997
4.581964
4.574285
4.581342
4.587625
4.599387
4.612946
4.627648
4.640924
4.656302
4.527096
4.519577
4.5284
4.537277
4.552433
4.570464
4.589538
4.60935
4.628506
4.463137
4.456375
4.468115
4.481389
4.502225
4.526984
4.551698
4.57729
4.599948
4.386451
4.380256
4.394648
4.411646
4.438179
4.468451
4.501611
4.536878
4.565519
4.296514
4.293139
4.313957
4.341549
4.380976
4.428068
4.472725
4.517008
4.552575
4.919882
4.919133
4.915238
4.919523
4.920678
4.923492
4.926854
4.930457
4.911969
4.914702
4.91574
4.916805
4.918334
4.920847
4.923176
4.927188
4.930611
4.90851
4.911703
4.912662
4.913319
4.91537
4.917986
4.920328
4.924668
4.928175
4.907659
4.90712
4.909266
4.910114
4.911692
4.914966
4.917165
4.922302
4.925735
4.901595
4.901851
4.903774
4.905007
4.906547
4.910081
4.911848
4.917692
4.920444
4.896181
4.895135
4.89755
4.898509
4.900193
4.904096
4.906219
4.91289
4.91418
4.887198
4.886581
4.888624
4.889607
4.89074
4.894257
4.895429
4.902185
4.901741
4.877913
4.87711
4.879271
4.880469
4.882141
4.885614
4.887072
4.8954
4.879706
4.865289
4.864298
4.86634
4.866561
4.867796
4.868104
4.870821
4.860191
4.858574
4.852027
4.851043
4.854009
4.8542
4.856988
4.856091
4.859391
4.852838
4.849682
4.835984
4.834473
4.837941
4.83785
4.840346
4.842667
4.846043
4.850919
4.846617
4.389428
4.818968
4.817306
4.822216
4.821373
4.827258
4.825376
4.836158
4.824041
4.828398
4.799059
4.79733
4.802861
4.80258
4.810002
4.811626
4.830003
4.824613
4.830828
4.777113
4.775548
4.782134
4.781649
4.791765
4.790051
4.815071
4.801459
4.835492
4.752035
4.750737
4.757706
4.758646
4.767814
4.770535
4.787502
4.783365
4.811451
4.72384
4.72271
4.730135
4.731788
4.740972
4.744263
4.759533
4.75907
4.778556
4.691618
4.690802
4.698886
4.701984
4.711438
4.717755
4.732086
4.734581
4.756153
4.654943
4.654347
4.663201
4.667444
4.677283
4.685612
4.698243
4.70459
4.718352
4.61278
4.612584
4.622649
4.628622
4.640023
4.651485
4.665577
4.676091
4.6929
4.563988
4.564508
4.576288
4.584447
4.598269
4.613132
4.629105
4.643743
4.659949
4.507566
4.508727
4.522706
4.533466
4.550679
4.569713
4.589557
4.609665
4.629177
4.441414
4.444108
4.461498
4.476822
4.499845
4.525872
4.551411
4.577458
4.600449
4.363015
4.366853
4.387604
4.406799
4.435952
4.467157
4.501145
4.536394
4.56527
4.270629
4.277622
4.304839
4.334942
4.376174
4.425651
4.470678
4.515448
4.551048
4.920043
4.920705
4.914856
4.918464
4.91961
4.922146
4.925862
4.92953
4.912002
4.914671
4.914838
4.916086
4.917102
4.919601
4.921697
4.925806
4.929397
4.908061
4.912444
4.912476
4.913396
4.915061
4.917664
4.919816
4.924312
4.927841
4.908726
4.907937
4.909147
4.910188
4.911387
4.914561
4.916669
4.921802
4.925278
4.901328
4.902976
4.903598
4.905331
4.906436
4.909931
4.91163
4.917477
4.920206
4.897293
4.896628
4.897652
4.899004
4.900252
4.904072
4.906124
4.912781
4.913889
4.888169
4.888115
4.888744
4.890144
4.890851
4.894276
4.895415
4.902228
4.901359
4.879156
4.878646
4.879586
4.881052
4.882345
4.885663
4.887095
4.895551
4.878613
4.866624
4.865928
4.866705
4.867163
4.868051
4.868105
4.870922
4.859406
4.857111
4.853956
4.85306
4.854463
4.854858
4.857266
4.856
4.85939
4.852604
4.847812
4.837884
4.836692
4.838359
4.838577
4.840889
4.842689
4.84754
4.851396
4.847505
4.3801
4.821076
4.819779
4.822624
4.822116
4.827872
4.825195
4.837319
4.82359
4.831886
4.801246
4.799913
4.803192
4.803185
4.810456
4.810654
4.830547
4.822089
4.830377
4.77992
4.778577
4.782652
4.782458
4.792805
4.789758
4.81818
4.804026
4.829579
4.755092
4.753907
4.758059
4.759193
4.76806
4.769177
4.7865
4.783108
4.802249
4.727417
4.726399
4.730622
4.732636
4.741286
4.743062
4.759297
4.75402
4.775259
4.695806
4.694968
4.699406
4.702979
4.711552
4.716894
4.731787
4.732895
4.755198
4.659299
4.658787
4.663846
4.668737
4.677593
4.685182
4.697893
4.702573
4.715937
4.617531
4.617374
4.623359
4.629989
4.640223
4.65116
4.665255
4.67499
4.691865
4.569276
4.569714
4.577153
4.586083
4.598715
4.613234
4.629185
4.643304
4.659341
4.512632
4.51382
4.523445
4.535036
4.551016
4.569717
4.589505
4.609214
4.628791
4.447126
4.449542
4.462401
4.478593
4.50036
4.526101
4.551674
4.577414
4.600576
4.368497
4.372237
4.388435
4.40859
4.436542
4.467383
4.501487
4.536401
4.565585
4.277038
4.283643
4.306126
4.337159
4.376994
4.426077
4.471271
4.515576
4.551775
4.920178
4.920946
4.915268
4.919924
4.920988
4.923654
4.927051
4.930537
4.911768
4.914743
4.914621
4.916145
4.917292
4.92033
4.922415
4.926535
4.929916
4.907704
4.912481
4.912509
4.913815
4.91564
4.91845
4.920608
4.925096
4.928397
4.908252
4.907879
4.909012
4.91022
4.911424
4.914756
4.916887
4.922056
4.925428
4.901409
4.90295
4.903622
4.905497
4.906676
4.91029
4.911963
4.917822
4.920432
4.896949
4.89646
4.897541
4.898992
4.900259
4.904113
4.906187
4.912861
4.913881
4.887764
4.887894
4.888637
4.890124
4.890888
4.894344
4.895482
4.902296
4.90136
4.878809
4.878488
4.879464
4.881009
4.882332
4.885643
4.887089
4.895539
4.878376
4.866583
4.865809
4.866674
4.867113
4.868044
4.86803
4.87087
4.859105
4.856816
4.853018
4.85284
4.854258
4.854797
4.857249
4.855873
4.859359
4.852296
4.847231
4.837898
4.836674
4.838377
4.838553
4.840937
4.842508
4.847598
4.850682
4.847878
4.376748
4.820987
4.81981
4.822713
4.82212
4.828066
4.825061
4.837916
4.823655
4.832758
4.801517
4.800008
4.803392
4.803154
4.810643
4.810173
4.830985
4.821644
4.829881
4.779767
4.778671
4.782866
4.78257
4.793435
4.78971
4.819543
4.806732
4.82714
4.754954
4.753864
4.758095
4.759112
4.768019
4.76832
4.786031
4.77911
4.806274
4.726982
4.72634
4.730831
4.733056
4.742177
4.744555
4.761787
4.759097
4.777513
4.693634
4.694358
4.699032
4.702918
4.711664
4.716818
4.73184
4.732129
4.755383
4.657949
4.658411
4.663729
4.669028
4.678238
4.686256
4.699611
4.705199
4.718819
4.616021
4.616818
4.62295
4.63003
4.640454
4.651481
4.665759
4.675351
4.692396
4.566301
4.568945
4.576508
4.586314
4.599212
4.614139
4.630366
4.644769
4.661064
4.511394
4.513257
4.523037
4.535003
4.55114
4.570107
4.589912
4.609842
4.629385
4.445472
4.449106
4.462137
4.479152
4.501406
4.527667
4.553075
4.579051
4.601784
4.367736
4.371302
4.387772
4.407944
4.435864
4.467189
4.500944
4.536914
4.565669
4.274949
4.283045
4.305583
4.338084
4.379108
4.429434
4.4737
4.518644
4.553219
4.919416
4.918741
4.915587
4.918297
4.921666
4.922458
4.928025
4.930251
4.911895
4.914534
4.915388
4.916598
4.917542
4.920385
4.921991
4.92665
4.929722
4.908515
4.911621
4.912365
4.91325
4.914656
4.918622
4.91983
4.925079
4.928161
4.907894
4.907195
4.90916
4.91009
4.911394
4.914741
4.916712
4.922092
4.925378
4.901566
4.901952
4.903667
4.904982
4.90627
4.910137
4.911599
4.917699
4.920343
4.896727
4.895515
4.897622
4.898581
4.90011
4.904053
4.906064
4.912819
4.913976
4.887669
4.887115
4.888653
4.889745
4.890677
4.89425
4.895335
4.902146
4.901542
4.878159
4.877418
4.879347
4.880564
4.882141
4.885576
4.887005
4.895311
4.879069
4.865221
4.864487
4.866438
4.866627
4.867842
4.867962
4.870787
4.859551
4.857818
4.852859
4.851738
4.854117
4.854322
4.857109
4.855972
4.859481
4.85223
4.847962
4.835705
4.834429
4.838029
4.83784
4.840578
4.842416
4.846433
4.849938
4.847363
4.378274
4.81896
4.817312
4.822373
4.821367
4.82781
4.825271
4.83752
4.824384
4.831751
4.798545
4.796907
4.802935
4.802296
4.810408
4.810522
4.830494
4.822332
4.829183
4.777896
4.776113
4.782645
4.781893
4.79346
4.790309
4.819677
4.808633
4.825759
4.751508
4.750593
4.757661
4.758263
4.768083
4.768731
4.787055
4.779577
4.811593
4.724471
4.723893
4.730464
4.732409
4.742276
4.744897
4.762438
4.759934
4.777418
4.694094
4.692665
4.698911
4.702395
4.711525
4.716995
4.732034
4.732221
4.755634
4.65585
4.65589
4.663395
4.668283
4.678138
4.68642
4.70004
4.705645
4.719572
4.614337
4.614391
4.622726
4.629083
4.640075
4.651277
4.665614
4.67533
4.692401
4.566755
4.5673
4.576528
4.585335
4.598872
4.613871
4.63022
4.644779
4.661227
4.507634
4.509014
4.52242
4.533171
4.550391
4.569351
4.589346
4.609348
4.628946
4.442252
4.444517
4.46182
4.476905
4.500559
4.52628
4.552202
4.578093
4.601176
4.362099
4.365704
4.387137
4.405687
4.435898
4.466782
4.501116
4.536165
4.564853
4.269856
4.277411
4.305095
4.334132
4.37694
4.425074
4.471354
4.515385
4.551389
4.919171
4.918386
4.91298
4.918258
4.920132
4.923446
4.926216
4.930294
4.912206
4.914297
4.914733
4.915664
4.91701
4.920051
4.921842
4.926353
4.92946
4.909835
4.912517
4.912815
4.913534
4.915307
4.918314
4.920327
4.925058
4.928274
4.911367
4.908569
4.909539
4.910276
4.911254
4.91453
4.916463
4.921822
4.925077
4.904469
4.903996
4.904546
4.905802
4.906801
4.9104
4.91186
4.917744
4.920485
4.899457
4.8974
4.898342
4.899258
4.900336
4.903927
4.905944
4.912299
4.914064
4.89083
4.889314
4.889591
4.890589
4.89111
4.894287
4.895438
4.901215
4.902344
4.881842
4.879821
4.880325
4.881432
4.882435
4.885231
4.886714
4.892967
4.881641
4.871399
4.867067
4.868083
4.867492
4.868367
4.867886
4.870893
4.861271
4.861922
4.852877
4.854372
4.854897
4.855143
4.857305
4.854979
4.858475
4.851264
4.850816
4.843469
4.838132
4.839957
4.838647
4.841159
4.840569
4.846463
4.845194
4.84659
4.385254
4.826543
4.821594
4.824385
4.822348
4.828336
4.823657
4.837665
4.820753
4.832626
4.808776
4.801432
4.805614
4.803385
4.810825
4.80928
4.829187
4.819395
4.827646
4.786773
4.78121
4.785111
4.783064
4.793635
4.788728
4.817919
4.803743
4.825609
4.762796
4.755825
4.76048
4.75989
4.768122
4.768563
4.78372
4.780603
4.793536
4.735772
4.72923
4.733522
4.734005
4.742385
4.743686
4.759828
4.754507
4.773563
4.695432
4.698554
4.700819
4.704306
4.712045
4.71707
4.730842
4.731915
4.751479
4.66687
4.662873
4.666619
4.670706
4.679018
4.686557
4.6989
4.703905
4.716524
4.626362
4.62199
4.626
4.631861
4.641259
4.652026
4.665544
4.675457
4.691749
4.568371
4.57471
4.579178
4.588965
4.600879
4.615596
4.630965
4.64531
4.660715
4.525132
4.518274
4.527135
4.536555
4.551709
4.57036
4.5893
4.609978
4.628922
4.459497
4.455884
4.468118
4.482986
4.505786
4.531404
4.555803
4.581675
4.603003
4.384002
4.375535
4.392915
4.407763
4.434443
4.46604
4.497749
4.536636
4.563351
4.291398
4.291848
4.314802
4.343201
4.389408
4.43754
4.480525
4.524977
4.555945
4.919771
4.924821
4.927187
4.928352
4.929844
4.920334
4.930035
4.929906
4.911472
4.914272
4.916457
4.918524
4.918147
4.921218
4.921851
4.927172
4.929723
4.903885
4.910365
4.912688
4.911948
4.913036
4.920783
4.91948
4.925881
4.9282
4.895064
4.904541
4.910741
4.909674
4.911322
4.913987
4.916492
4.922067
4.925244
4.888103
4.899208
4.905781
4.904275
4.906324
4.910419
4.911431
4.917785
4.92046
4.880408
4.89345
4.899667
4.898008
4.900389
4.903827
4.905916
4.912522
4.914311
4.865947
4.886007
4.890482
4.889458
4.890922
4.894134
4.895266
4.901358
4.902769
4.851958
4.875416
4.880975
4.880167
4.882283
4.885167
4.88669
4.89322
4.882561
4.836662
4.8614
4.86855
4.866056
4.868064
4.867623
4.870636
4.861336
4.864191
4.831992
4.852519
4.855698
4.853897
4.857114
4.855067
4.85904
4.850941
4.854527
4.795055
4.828662
4.840894
4.83646
4.840328
4.840225
4.842428
4.8406
4.837892
4.40073
4.778076
4.811248
4.825855
4.819928
4.827658
4.823659
4.835377
4.818973
4.829557
4.755806
4.788806
4.807096
4.800704
4.810507
4.810304
4.827799
4.822946
4.827134
4.73601
4.770757
4.786921
4.780692
4.793431
4.789421
4.817642
4.802692
4.825146
4.698545
4.741972
4.762271
4.75711
4.768618
4.769427
4.787123
4.780479
4.81425
4.671353
4.717995
4.73468
4.73166
4.742738
4.744568
4.761382
4.759981
4.777018
4.658924
4.691618
4.703134
4.702355
4.712156
4.717646
4.731472
4.732617
4.754144
4.596077
4.650357
4.668181
4.667887
4.679106
4.686699
4.699879
4.705466
4.719147
4.561487
4.610172
4.627825
4.628852
4.641135
4.651788
4.665558
4.67589
4.692068
4.528985
4.572855
4.581292
4.586399
4.600759
4.614979
4.63085
4.645496
4.661474
4.434837
4.500165
4.529553
4.531939
4.551642
4.569578
4.589214
4.609844
4.628814
4.374558
4.436957
4.471356
4.476929
4.504779
4.528415
4.55433
4.580087
4.602224
4.294054
4.355089
4.396808
4.403143
4.437799
4.466853
4.50077
4.536846
4.564179
4.368111
4.272604
4.316027
4.333984
4.384557
4.428154
4.476026
4.519085
4.55335
4.919355
4.919159
4.92209
4.930659
4.929221
4.941149
4.943266
4.952024
4.912368
4.914197
4.914006
4.916961
4.917197
4.920132
4.921485
4.926241
4.929678
4.910813
4.912768
4.912895
4.912952
4.913617
4.918275
4.919098
4.924713
4.927967
4.904226
4.907814
4.909572
4.91017
4.911169
4.914379
4.916091
4.92171
4.92477
4.900252
4.903431
4.905399
4.905326
4.906448
4.910242
4.911434
4.917391
4.920376
4.894892
4.895463
4.898998
4.898683
4.900279
4.903711
4.905724
4.911709
4.914425
4.882755
4.890097
4.890011
4.890386
4.891041
4.894032
4.895507
4.900126
4.903713
4.871764
4.879871
4.880508
4.881144
4.88232
4.884727
4.887206
4.890653
4.887003
4.85916
4.865514
4.869134
4.86687
4.868464
4.867414
4.871783
4.862674
4.8713
4.845547
4.855093
4.855298
4.854901
4.857188
4.854053
4.860195
4.846089
4.856927
4.828174
4.835618
4.840538
4.837407
4.840675
4.837947
4.843385
4.82811
4.818458
4.450657
4.806477
4.819906
4.824866
4.821297
4.827635
4.822063
4.83521
4.815502
4.816447
4.788007
4.79648
4.806649
4.801964
4.81048
4.808963
4.82708
4.817912
4.824694
4.758777
4.78064
4.786072
4.782177
4.792579
4.788177
4.810951
4.802983
4.824328
4.738157
4.751732
4.762304
4.759379
4.767614
4.771659
4.781706
4.794762
4.771036
4.674716
4.726898
4.734827
4.733226
4.74187
4.741608
4.757457
4.740021
4.768687
4.671892
4.706015
4.701046
4.705264
4.711709
4.718017
4.729681
4.731469
4.746774
4.660612
4.666472
4.666281
4.67083
4.67886
4.686401
4.698494
4.701233
4.716546
4.597018
4.624767
4.626364
4.631973
4.641081
4.652295
4.665138
4.675891
4.691544
4.556427
4.581887
4.580451
4.590095
4.601506
4.616243
4.631001
4.645278
4.660685
4.500898
4.51689
4.528532
4.535157
4.550821
4.569735
4.588145
4.609906
4.628306
4.43622
4.45829
4.471505
4.483069
4.509041
4.532628
4.557035
4.58262
4.603187
4.359211
4.373941
4.396404
4.40426
4.431895
4.464234
4.493823
4.535949
4.560022
4.264474
4.298697
4.321157
4.339919
4.402158
4.442281
4.486447
4.528126
4.555897
4.9158
4.914273
4.91771
4.915672
4.918876
4.912336
4.918804
4.912734
4.919379
4.913843
4.921354
4.909384
4.919364
4.909241
4.920835
4.912339
4.922878
4.907397
4.920516
4.908126
4.92126
4.910195
4.926907
4.906681
4.924217
4.907254
4.923986
4.908292
4.932175
4.906621
4.926986
4.908035
4.927684
4.908592
4.936832
4.907406
4.931071
4.909775
4.930836
4.910279
4.941763
4.909476
4.936131
4.91298
4.93419
4.913063
4.947561
4.912242
4.941429
4.916937
4.938724
4.916663
4.947391
4.911925
4.91774
4.912396
4.911428
4.91703
4.91597
4.908222
4.918587
4.90968
4.908019
4.917272
4.914116
4.904075
4.917984
4.905472
4.905232
4.915279
4.91204
4.89687
4.915683
4.899125
4.899755
4.912207
4.910667
4.888684
4.912193
4.891499
4.892104
4.907656
4.906755
4.877851
4.906464
4.882335
4.882515
4.900929
4.899305
4.864807
4.898437
4.871801
4.871388
4.8916
4.890913
4.849556
4.888979
4.857393
4.857751
4.880237
4.880365
4.833787
4.878542
4.841204
4.844193
4.866893
4.867661
4.815991
4.865948
4.82459
4.828734
4.851508
4.852916
4.179556
4.803748
4.78164
4.818525
4.070849
4.804686
4.785741
4.452603
4.797363
4.85137
4.806614
4.811726
4.834439
4.836378
4.776274
4.843203
4.844464
4.814556
4.794912
4.851102
4.838422
4.776075
4.834306
4.787306
4.792596
4.815312
4.817787
4.828287
4.879115
4.865446
4.822458
4.836147
4.885257
4.877761
4.752744
4.81528
4.765574
4.771125
4.793809
4.796897
4.855195
4.860041
4.83881
4.824138
4.8486
4.887139
4.816072
4.861561
4.851654
4.726459
4.793518
4.741021
4.746634
4.769244
4.773275
4.696755
4.768572
4.712925
4.718547
4.741265
4.74632
4.663484
4.740055
4.681238
4.686756
4.709186
4.715555
4.625667
4.706991
4.645083
4.650296
4.672117
4.679893
4.582865
4.66878
4.603844
4.608591
4.629248
4.638757
4.533985
4.624161
4.556603
4.560641
4.579308
4.590933
4.477854
4.571993
4.50208
4.505146
4.520798
4.534971
4.41319
4.510795
4.438789
4.440602
4.451791
4.469288
4.337399
4.438413
4.364487
4.363874
4.370334
4.392557
4.249737
4.351362
4.277872
4.27712
4.272265
4.302195
4.912915
4.918733
4.915978
4.913623
4.918519
4.915737
4.201762
4.805552
4.790986
4.837125
4.024441
4.812969
4.809837
4.405271
4.858025
4.913741
4.918216
4.915824
4.913422
4.918513
4.916445
4.042308
4.812565
4.815575
4.846801
4.009791
4.819087
4.824065
4.386929
4.858605
4.856923
4.913632
4.918942
4.915779
4.913049
4.919106
4.916035
4.018209
4.817222
4.824935
4.84722
4.003959
4.819659
4.825737
4.379725
4.913101
4.919273
4.915709
4.91248
4.919362
4.915935
4.006017
4.81971
4.825835
4.84776
4.001641
4.820398
4.826128
4.376633
4.912758
4.919691
4.915851
4.912522
4.91933
4.916045
4.002074
4.820446
4.826111
4.847739
4.002847
4.819921
4.82638
4.377867
4.912868
4.919467
4.915579
4.912624
4.918533
4.915713
4.002788
4.819769
4.826277
4.846119
4.015438
4.817395
4.825372
4.387345
4.913229
4.91859
4.915816
4.913472
4.91797
4.915829
4.008812
4.819336
4.824656
4.843619
4.035936
4.813023
4.817231
4.403014
4.913312
4.91848
4.91537
4.913215
4.918483
4.915701
4.020569
4.814718
4.812581
4.828823
4.195291
4.807147
4.793254
4.472637
4.913675
4.917022
4.915627
4.915533
4.912535
4.919197
4.913632
4.918733
4.912523
4.91091
4.920399
4.912191
4.920817
4.908787
4.905754
4.920343
4.907814
4.907651
4.92467
4.902025
4.907332
4.923163
4.906833
4.925914
4.899341
4.928062
4.89795
4.907672
4.926869
4.908033
4.932707
4.93505
4.905098
4.90622
4.929128
4.911879
4.93429
4.928233
4.906632
4.911592
4.93582
4.920533
4.944635
4.944749
4.915939
4.911631
4.915176
4.916241
4.912261
4.917636
4.909135
4.91574
4.916192
4.906772
4.918198
4.921386
4.905822
4.915833
4.914074
4.905999
4.900292
4.918928
4.900845
4.907709
4.911923
4.897367
4.915632
4.892095
4.900274
4.906039
4.884342
4.910003
4.914789
4.879676
4.89995
4.896192
4.875138
4.908919
4.870375
4.8922
4.890883
4.865223
4.898326
4.859114
4.887312
4.880726
4.846186
4.899323
4.847841
4.869553
4.868789
4.846193
4.826405
4.878125
4.829842
4.852086
4.853827
4.816091
4.865973
4.069628
4.808419
4.788227
4.805466
4.07101
4.812833
4.799021
4.506466
4.812219
4.834378
4.836815
4.797562
4.851043
4.799245
4.851458
4.840253
4.808263
4.78679
4.841569
4.864497
4.792842
4.816383
4.820346
4.771921
4.82989
4.837894
4.886657
4.876255
4.810091
4.816254
4.893785
4.891865
4.766035
4.793352
4.79617
4.755789
4.819303
4.745606
4.78299
4.786693
4.715728
4.804057
4.705746
4.778063
4.748246
4.719609
4.696833
4.782549
4.791963
4.677412
4.726289
4.705928
4.675515
4.653272
4.746345
4.639472
4.672072
4.672457
4.612536
4.702235
4.595888
4.629701
4.631055
4.585626
4.670428
4.553866
4.57824
4.585531
4.526784
4.62532
4.499865
4.518817
4.532656
4.479149
4.571844
4.436376
4.450049
4.470218
4.412121
4.509501
4.350937
4.378251
4.390993
4.326186
4.446134
4.252869
4.274106
4.298671
4.24157
4.358771
4.91589
4.915887
4.913277
4.918142
4.917736
4.912755
4.911299
4.920409
4.919217
4.910371
4.910572
4.923755
4.922601
4.909308
4.909579
4.926088
4.924306
4.908335
4.909164
4.928809
4.926298
4.90797
4.910647
4.932416
4.929477
4.909178
4.913626
4.937263
4.934044
4.911788
4.917399
4.942826
4.939239
4.915475
4.949084
4.945353
4.917586
4.91286
4.913254
4.918057
4.917733
4.908831
4.910074
4.918607
4.915409
4.902054
4.903439
4.916562
4.911623
4.893982
4.895133
4.913039
4.907299
4.88521
4.886512
4.908791
4.902436
4.875883
4.877983
4.903817
4.895048
4.864693
4.867317
4.896184
4.885634
4.851411
4.854853
4.886562
4.873911
4.836357
4.839778
4.874995
4.785858
4.825899
4.612472
4.857066
4.779517
4.823323
4.573713
4.78373
4.73121
4.85975
4.819142
4.821714
4.86124
4.494783
4.84384
4.800313
4.800629
4.845767
4.825648
4.779215
4.778426
4.829052
4.804787
4.755932
4.755129
4.810712
4.870487
4.870091
4.782119
4.729903
4.729267
4.790196
4.75653
4.700568
4.699986
4.766747
4.727557
4.667716
4.667048
4.739794
4.694472
4.630545
4.629766
4.708762
4.656632
4.588348
4.587393
4.673047
4.612833
4.540158
4.538982
4.632061
4.561752
4.484801
4.483442
4.58454
4.501851
4.42083
4.419393
4.528823
4.430919
4.346009
4.344596
4.462897
4.346829
4.25829
4.256729
4.383157
4.916042
4.916246
4.767867
4.815524
4.54615
4.856027
4.761585
4.803165
4.510354
4.722692
4.697117
4.432518
4.83966
4.895355
4.885769
4.830377
4.846252
4.895478
4.884048
4.849224
4.90204
4.802966
4.833382
4.853403
4.910189
4.798081
4.868579
4.866117
4.916344
4.916259
4.755798
4.794638
4.504611
4.851981
4.752472
4.788134
4.493432
4.691789
4.680994
4.391669
4.849301
4.902425
4.891778
4.829849
4.852478
4.904451
4.891378
4.848163
4.921254
4.78792
4.837285
4.851651
4.922343
4.786193
4.862247
4.87072
4.916441
4.916384
4.749735
4.785818
4.493083
4.848613
4.747978
4.78351
4.487704
4.678991
4.67437
4.383096
4.85367
4.901825
4.891261
4.830502
4.855351
4.901919
4.88842
4.855693
4.906015
4.793157
4.83335
4.850562
4.905675
4.78379
4.872373
4.860889
4.916633
4.916513
4.746563
4.782227
4.487007
4.847437
4.745891
4.781321
4.484981
4.673167
4.671291
4.378189
4.854078
4.896026
4.890663
4.829984
4.855166
4.897025
4.888349
4.853883
4.897909
4.785975
4.827647
4.849682
4.895079
4.781328
4.880563
4.861627
4.916364
4.916477
4.74562
4.781033
4.484943
4.847439
4.746055
4.781423
4.485603
4.671081
4.671959
4.376738
4.854534
4.8942
4.889679
4.829478
4.853865
4.894366
4.890017
4.852664
4.89169
4.780073
4.826604
4.851859
4.889733
4.778668
4.869363
4.869622
4.916101
4.916297
4.74711
4.7824
4.486576
4.848922
4.748786
4.784572
4.49184
4.673023
4.677468
4.380878
4.853166
4.894457
4.885487
4.827857
4.849774
4.892365
4.887102
4.847257
4.890353
4.779254
4.82548
4.849635
4.890887
4.780491
4.860596
4.879626
4.91621
4.916122
4.750975
4.786412
4.491608
4.852444
4.754053
4.792413
4.502187
4.679028
4.688772
4.390614
4.847789
4.891072
4.879496
4.824389
4.844768
4.888586
4.885186
4.84419
4.8931
4.778672
4.822172
4.849002
4.891199
4.78225
4.856112
4.877782
4.91609
4.916122
4.758452
4.799211
4.504445
4.854973
4.763179
4.810976
4.540206
4.692626
4.717538
4.436207
4.843252
4.88791
4.876702
4.81983
4.838511
4.888415
4.881962
4.844883
4.897582
4.784202
4.823516
4.847739
4.890693
4.793997
4.862053
4.873059
4.915551
4.915849
4.906408
4.930846
4.91885
4.910373
4.949236
4.907507
4.771529
4.818911
4.567292
4.856582
4.772045
4.823593
4.561012
4.725247
4.764965
4.500284
4.842889
4.915851
4.78551
4.81949
4.845131
4.922782
4.788257
4.863885
4.8794
4.916878
4.913264
4.913576
4.916849
4.914853
4.918169
4.917845
4.914866
4.916123
4.915992
4.917843
4.910696
4.911737
4.918048
4.91935
4.908219
4.909678
4.919844
4.922917
4.906446
4.908403
4.92312
4.925131
4.904944
4.907079
4.925628
4.927649
4.904731
4.907125
4.928465
4.931805
4.905841
4.908687
4.932771
4.937211
4.908369
4.911574
4.938132
4.943136
4.912098
4.915669
4.944152
4.912705
4.919186
4.918213
4.912384
4.908931
4.918779
4.917295
4.908235
4.90224
4.91619
4.913924
4.901591
4.894471
4.912838
4.910075
4.893783
4.88659
4.908507
4.905396
4.885551
4.877987
4.902389
4.898687
4.876526
4.866552
4.893891
4.889561
4.864832
4.853168
4.883513
4.878398
4.851145
4.837572
4.871097
4.864852
4.835639
4.819489
4.856372
4.848704
4.817951
4.768427
4.757866
4.653762
4.154535
4.780816
4.669592
4.721238
4.776469
4.279067
4.821428
4.690965
4.806032
4.688472
4.789765
4.533836
4.799939
4.839642
4.83068
4.798603
4.778669
4.820595
4.810596
4.777278
4.755198
4.798965
4.787945
4.753767
4.870419
4.86684
4.72931
4.774339
4.762281
4.72768
4.700527
4.746273
4.733203
4.698511
4.668214
4.714066
4.700073
4.665648
4.631472
4.677061
4.662018
4.628361
4.589738
4.634389
4.618258
4.585973
4.541943
4.58498
4.567728
4.537387
4.486836
4.52765
4.509191
4.481431
4.422704
4.460268
4.440667
4.416222
4.347095
4.380484
4.359357
4.339708
4.256629
4.283141
4.247529
4.260791
4.916311
4.91623
4.812757
4.835053
4.6923
4.057696
4.798914
4.848867
4.701022
4.81615
4.132536
4.874808
4.714575
4.852225
4.701888
4.831825
4.444143
4.862824
4.858669
4.916489
4.916406
4.846518
4.880256
4.71751
4.013172
4.83699
4.887256
4.727086
4.847237
4.020105
4.888059
4.729523
4.8863
4.727407
4.849662
4.392883
4.862012
4.870605
4.916543
4.916597
4.850134
4.884974
4.727672
4.006745
4.848291
4.886047
4.729667
4.850276
4.011709
4.887312
4.731647
4.885768
4.730105
4.851858
4.384254
4.861201
4.875565
4.916569
4.916516
4.851671
4.887223
4.731876
4.002785
4.85205
4.886228
4.731574
4.8524
4.004708
4.887936
4.732839
4.887066
4.732197
4.853213
4.378467
4.865815
4.878898
4.916436
4.916316
4.853055
4.887777
4.732817
4.001725
4.853203
4.887528
4.732716
4.852848
4.00218
4.88782
4.732619
4.887379
4.732537
4.852957
4.377063
4.876489
4.872706
4.916147
4.916171
4.851893
4.887437
4.732142