/*--------------------------------*- C++ -*----------------------------------*\
  =========                 |
  \\      /  F ield         | OpenFOAM: The Open Source CFD Toolbox
   \\    /   O peration     | Website:  https://openfoam.org
    \\  /    A nd           | Version:  7
     \\/     M anipulation  |
\*---------------------------------------------------------------------------*/
FoamFile
{
    version     2.0;
    format      ascii;
    class       volScalarField;
    location    "0.03";
    object      p;
}
// * * * * * * * * * * * * * * * * * * * * * * * * * * * * * * * * * * * * * //

dimensions      [0 2 -2 0 0 0 0];

internalField   nonuniform List<scalar> 
109929
(
0.2740466
0.3559729
0.3833743
0.3992374
0.4084033
0.4163236
0.1477587
0.2177273
0.2514446
0.2665332
0.2790075
0.2950179
0.1631496
0.2652438
0.3195124
0.3479246
0.3691057
0.3852266
0.1245723
0.206672
0.252109
0.2778413
0.2991889
0.3168664
0.1202574
0.2023359
0.2521004
0.2805282
0.3034857
0.3223916
0.1070594
0.1814605
0.2286548
0.2569182
0.2803888
0.2999252
0.1002942
0.1706031
0.2167259
0.2453038
0.2691597
0.2894867
0.09348955
0.1597424
0.2040674
0.23206
0.2559075
0.2765199
0.08810381
0.1509539
0.193506
0.220803
0.2445554
0.26515
0.0835355
0.1433255
0.1841813
0.2105655
0.2339612
0.254364
0.07946541
0.136591
0.1758901
0.201322
0.2242215
0.2445188
0.07587187
0.1306032
0.168469
0.1929565
0.2153162
0.2353648
0.07266993
0.1252606
0.1617464
0.1853862
0.2070944
0.2268115
0.0698196
0.1204447
0.1556932
0.1785335
0.1995241
0.2188181
0.0672683
0.1161213
0.1513755
0.1723071
0.1925449
0.2114576
0.0649457
0.1121707
0.1482692
0.1665834
0.1860992
0.2045842
0.0628006
0.1084773
0.1446556
0.1612144
0.1801442
0.1981681
0.06082453
0.104998
0.1399578
0.1561389
0.1746305
0.1921925
0.05899094
0.1017238
0.135432
0.1513796
0.1695114
0.1866166
0.05728528
0.09869428
0.1312526
0.1469563
0.1647451
0.181424
0.05571148
0.0959154
0.1274635
0.1428821
0.1603043
0.1766114
0.05426802
0.09338249
0.1240558
0.1391679
0.1562007
0.1721671
0.03002476
0.09105314
0.1209195
0.1369198
0.1524715
0.1680823
0.571489
0.5518736
0.5377803
0.5474707
0.5617986
0.5737995
0.130998
0.3248313
0.3708618
0.4426636
0.4776987
0.4989372
0.06703228
0.1023698
0.1121072
0.1186882
0.1340507
0.1528825
0.04975004
0.1920987
0.240887
0.3112509
0.3446454
0.3767424
0.03836567
0.0876589
0.1197349
0.158242
0.183128
0.2117115
0.03343603
0.1160012
0.1584124
0.2133021
0.245334
0.2767242
0.03030594
0.08283934
0.1171223
0.1626173
0.1923361
0.2231456
0.02760522
0.08120239
0.1167277
0.1627767
0.1936142
0.2249709
0.02535792
0.07085806
0.1031444
0.1458951
0.1755991
0.2064156
0.02341112
0.06544979
0.09615294
0.1370716
0.1661109
0.1964834
0.02173434
0.06018016
0.08894609
0.1277453
0.1557347
0.1853613
0.02024451
0.05594481
0.08303674
0.1199817
0.1469503
0.1758315
0.01891803
0.05231383
0.07786414
0.1130657
0.1389955
0.1670351
0.01773585
0.04917288
0.07335027
0.1069206
0.1318857
0.1590507
0.01667722
0.04641324
0.06940025
0.1014144
0.1254857
0.1517666
0.0157157
0.04394792
0.06587299
0.09621627
0.1196827
0.1450855
0.01483934
0.04172666
0.06269333
0.0913578
0.1144092
0.1389618
0.01403917
0.03974673
0.05982796
0.08730139
0.1096281
0.133386
0.01330543
0.03798316
0.05724307
0.08403238
0.1052795
0.128302
0.01263203
0.03638043
0.05488434
0.08104123
0.1012876
0.1236263
0.01201351
0.03491542
0.0527424
0.07822474
0.09761666
0.1193102
0.0114453
0.03356644
0.05078426
0.07544863
0.09420553
0.1153204
0.0109225
0.03234231
0.04900965
0.0729181
0.09110515
0.1116482
0.01404384
0.03122582
0.04736041
0.0705773
0.08803933
0.1082572
0.5978741
0.5120389
0.4957329
0.5223068
0.5502578
0.5682848
0.1372342
0.3138109
0.3660307
0.459917
0.4958078
0.5250901
0.05732637
0.09343035
0.09789078
0.09755789
0.1102854
0.1258419
0.03446641
0.1866752
0.2565808
0.3234396
0.359377
0.3945918
0.02378259
0.07659235
0.1130956
0.1410883
0.170772
0.1968525
0.02069603
0.1105379
0.1666072
0.2102095
0.2500178
0.2755618
0.01749092
0.074543
0.1175023
0.1532361
0.1875475
0.215953
0.01534835
0.07656254
0.1212795
0.1589793
0.1941163
0.222488
0.01365366
0.06585599
0.1063219
0.1410379
0.1742685
0.2022681
0.01229574
0.06147474
0.1001852
0.1335913
0.1659592
0.1936432
0.01118297
0.05653352
0.09296905
0.1245595
0.1556591
0.1826137
0.01025104
0.05264056
0.08720069
0.1172456
0.1472232
0.1734635
0.009462811
0.04922908
0.08205646
0.1106364
0.1394851
0.1649408
0.00878569
0.04625691
0.07753065
0.1047711
0.1325472
0.1572239
0.008198888
0.04363999
0.07351368
0.09953376
0.1262799
0.1501785
0.007687801
0.04131159
0.0699262
0.09482796
0.1206044
0.1437437
0.007239629
0.03922344
0.06669392
0.09056977
0.1154407
0.1378452
0.006843154
0.03733595
0.06374355
0.08667182
0.1107212
0.1324301
0.006492839
0.03562136
0.06103409
0.08309076
0.1063918
0.1274498
0.006181008
0.03405938
0.0585529
0.07980329
0.1024118
0.122861
0.005903897
0.03263953
0.05628927
0.07680124
0.09874889
0.1186301
0.005656247
0.03134553
0.05422552
0.07405476
0.09537533
0.1147243
0.005436907
0.03016636
0.0523386
0.0715499
0.0922811
0.111124
0.005243431
0.02907797
0.05059764
0.06923922
0.08943949
0.1078157
0.6100629
0.5460282
0.5333716
0.5190633
0.5119373
0.5203805
0.1399605
0.3630186
0.4278609
0.5161969
0.5442424
0.5682731
0.05260606
0.0619043
0.05220607
0.05180061
0.06060639
0.06893592
0.02964375
0.1980417
0.2684562
0.3494084
0.3942638
0.4272287
0.01798553
0.06441898
0.09591537
0.1242352
0.1518637
0.1828508
0.01750067
0.1102579
0.1646459
0.2184378
0.2512476
0.2823515
0.01415156
0.07332126
0.1110021
0.1516208
0.1823613
0.2128407
0.0129964
0.07743627
0.1180206
0.1618722
0.1938755
0.2243748
0.01152995
0.06665837
0.1026045
0.1424817
0.1729726
0.2027409
0.01051401
0.06260719
0.09705604
0.1355129
0.1654251
0.1947943
0.009637618
0.05772316
0.08993289
0.1263078
0.1550691
0.1836252
0.008905972
0.05389063
0.08429671
0.1189431
0.1466874
0.1744922
0.008283812
0.05051332
0.07923771
0.1122416
0.1389247
0.1658949
0.007747265
0.04756571
0.07478229
0.106283
0.1319567
0.1580982
0.007280312
0.04496562
0.07082464
0.1009341
0.1256438
0.1509623
0.006870021
0.04265026
0.06728325
0.0960959
0.1199132
0.1444315
0.006506297
0.04057363
0.0640959
0.09170274
0.1146994
0.1384423
0.006181909
0.03870631
0.06121891
0.08774252
0.109949
0.13295
0.005891332
0.03702036
0.05861155
0.08416916
0.1056064
0.1279041
0.005629749
0.03548942
0.05623758
0.08090613
0.1016248
0.1232605
0.005393567
0.03409403
0.05407051
0.07791349
0.09796075
0.1189755
0.005179555
0.03281961
0.05208844
0.07515839
0.09458616
0.1150232
0.004985494
0.03165419
0.05027583
0.0726308
0.09147705
0.1113755
0.004809507
0.03058622
0.0486068
0.07029705
0.08859239
0.1079963
0.6230365
0.5709651
0.564748
0.5774241
0.5898658
0.6014384
0.1400721
0.3706892
0.4522098
0.577236
0.6138272
0.6444669
0.05120102
0.04811537
0.0287698
0.01368989
0.02060408
0.03402318
0.02937267
0.201102
0.2633896
0.319919
0.3600327
0.3964537
0.01694949
0.05703754
0.09077872
0.1132616
0.1397325
0.1675272
0.01684491
0.103358
0.1669817
0.2125431
0.2497002
0.2794063
0.0136569
0.06970329
0.1107219
0.1466062
0.1789581
0.2082172
0.01267447
0.07469463
0.1195094
0.1593168
0.193219
0.2228368
0.01125021
0.06435341
0.103748
0.1399899
0.1720562
0.200916
0.0102668
0.06060884
0.09845891
0.1335862
0.165028
0.1935537
0.009406152
0.05587767
0.09134095
0.1245544
0.1547621
0.1824963
0.008684201
0.05216438
0.08572901
0.1173697
0.1465049
0.1735171
0.008068161
0.04887699
0.08066439
0.110794
0.138817
0.1650248
0.007535916
0.04600431
0.07619027
0.1049423
0.1319062
0.1573154
0.007072215
0.0434695
0.07220626
0.09968652
0.1256426
0.1502578
0.006664515
0.04121435
0.06863548
0.09494684
0.119954
0.1437953
0.006303092
0.03919344
0.06542035
0.0906505
0.1147689
0.137868
0.005980894
0.03737465
0.06250951
0.0867528
0.1100347
0.1324266
0.005692037
0.03572904
0.05986465
0.08320341
0.1057017
0.1274227
0.00543181
0.0342343
0.05745025
0.07996112
0.1017238
0.1228161
0.005196208
0.03287091
0.05524106
0.07698774
0.0980606
0.1185672
0.00498183
0.03162298
0.0532088
0.07425738
0.09467911
0.1146594
0.004785922
0.03047964
0.05133903
0.07175265
0.0915463
0.1110544
0.004606003
0.02942068
0.0495997
0.06944219
0.08863984
0.1077488
0.6096745
0.5129735
0.508238
0.5187723
0.5311087
0.542924
0.1389618
0.3696586
0.4519722
0.5772227
0.6138354
0.6444299
0.05129148
0.04786607
0.02861325
0.01360177
0.0205474
0.03397409
0.02984321
0.2010567
0.2633535
0.3198711
0.3600225
0.3964642
0.01713599
0.05701854
0.09076851
0.1132614
0.139739
0.1675467
0.01694093
0.1033562
0.1669789
0.2125469
0.2497028
0.279411
0.01376902
0.06970177
0.1107206
0.1466064
0.1789577
0.2082164
0.0127864
0.07469379
0.1195089
0.1593159
0.1932179
0.2228365
0.01134859
0.06435297
0.1037477
0.1399892
0.1720553
0.200914
0.01035807
0.06060836
0.09845882
0.1335853
0.1650268
0.1935541
0.009491815
0.05587745
0.09134076
0.124554
0.1547615
0.1824944
0.008765166
0.05216385
0.08572904
0.1173688
0.1465036
0.1735177
0.008144919
0.04887663
0.0806642
0.1107934
0.1388164
0.1650221
0.007608616
0.04600371
0.0761901
0.1049414
0.1319041
0.1573155
0.007141149
0.04346933
0.0722059
0.09968598
0.1256412
0.1502546
0.006730113
0.04121421
0.06863529
0.09494611
0.1199513
0.143794
0.006365762
0.03919408
0.0654207
0.09065056
0.1147664
0.1378641
0.006040919
0.03737625
0.06251121
0.08675296
0.1100321
0.1324207
0.005749851
0.03573329
0.05986904
0.08320648
0.1057002
0.1274134
0.005487742
0.03424269
0.05746009
0.07996788
0.1017266
0.1228041
0.00525087
0.03288677
0.05525948
0.07700133
0.09806932
0.11855
0.005036288
0.03164971
0.05324095
0.07427523
0.09470227
0.114619
0.004841438
0.03052166
0.05139119
0.07177516
0.09159708
0.1109933
0.004663263
0.02947349
0.04967156
0.06943056
0.08871741
0.1076024
0.6035557
0.5055851
0.5339472
0.550589
0.5635825
0.5754519
0.1384424
0.3622502
0.4275954
0.5159917
0.5441305
0.5681911
0.05203739
0.06190814
0.05218413
0.0517396
0.06055802
0.06889165
0.03024374
0.198084
0.2684617
0.3493882
0.3942312
0.4272033
0.01843468
0.06441461
0.09590759
0.1242192
0.1518451
0.1828331
0.01787019
0.110252
0.1646423
0.2184346
0.2512428
0.2823467
0.01439763
0.07331706
0.1109962
0.1516139
0.1823539
0.2128319
0.01326938
0.07743326
0.1180171
0.1618675
0.1938699
0.2243677
0.01177945
0.06665613
0.1026006
0.1424775
0.1729684
0.2027348
0.01075241
0.06260576
0.0970532
0.1355099
0.1654215
0.1947897
0.009862925
0.05772157
0.08992969
0.126305
0.155067
0.1836219
0.009118484
0.05388906
0.08429381
0.1189412
0.1466854
0.1744899
0.00848314
0.05051088
0.07923438
0.1122392
0.1389236
0.1658936
0.007933724
0.04756321
0.07477943
0.106281
0.1319557
0.1580974
0.007454534
0.04496274
0.07082105
0.1009317
0.1256433
0.1509625
0.007032536
0.04264737
0.06727967
0.09609353
0.1199127
0.1444322
0.006657848
0.04056945
0.06409
0.09169926
0.1146982
0.1384441
0.00632337
0.03870052
0.06121068
0.08773737
0.109946
0.1329563
0.006023253
0.03701049
0.05859608
0.08416032
0.1055972
0.1279146
0.005752588
0.03547344
0.0562105
0.08089229
0.1016034
0.1232813
0.005506921
0.03406842
0.05402299
0.07789535
0.09791285
0.1190108
0.005283013
0.03277772
0.05200266
0.07513394
0.09449124
0.115103
0.005078724
0.03160371
0.05014439
0.07264368
0.0912817
0.1115573
0.004890809
0.03051093
0.04838283
0.07032618
0.08827427
0.1082983
0.5807835
0.4413673
0.4952962
0.5413126
0.5624592
0.5770929
0.1375591
0.3138476
0.3660698
0.4599305
0.4957895
0.5250628
0.05411903
0.09328088
0.09781025
0.09748419
0.1102401
0.1258006
0.03067597
0.1867012
0.2565751
0.3234246
0.359357
0.3945678
0.02025299
0.07658052
0.1130833
0.1410747
0.1707543
0.1968342
0.01839646
0.1105361
0.166602
0.2102026
0.2500081
0.2755529
0.01489712
0.07453887
0.1174978
0.1532282
0.1875375
0.2159411
0.01358188
0.07655944
0.1212766
0.1589734
0.1941083
0.2224784
0.01206675
0.06585385
0.1063208
0.1410324
0.1742617
0.2022587
0.0110178
0.06147372
0.1001839
0.1335873
0.1659538
0.1936357
0.01011612
0.05653301
0.09296872
0.1245554
0.1556548
0.1826077
0.009357907
0.05263977
0.08719943
0.1172421
0.147219
0.1734566
0.008706928
0.04922702
0.08205584
0.1106323
0.1394806
0.1649348
0.008142494
0.04625452
0.07752908
0.1047675
0.1325431
0.1572165
0.007649272
0.04363745
0.07351289
0.09952986
0.1262754
0.1501724
0.007214634
0.04130951
0.06992445
0.09482452
0.1205999
0.1437367
0.006828633
0.0392215
0.06669309
0.09056611
0.1154359
0.1378388
0.006483661
0.03733459
0.06374147
0.08666914
0.1107159
0.1324237
0.00617365
0.03562062
0.06103224
0.08308722
0.1063859
0.1274435
0.005893367
0.03405973
0.05854815
0.07979944
0.102405
0.1228531
0.00563931
0.03264095
0.05628178
0.07679271
0.09873911
0.1186207
0.005408083
0.03134407
0.05420442
0.07402023
0.09535444
0.1146843
0.005196434
0.03016328
0.05230057
0.07147957
0.0922448
0.1110468
0.004998645
0.02903903
0.05050053
0.06902732
0.08932179
0.1076571
0.4907627
0.3980437
0.4432619
0.4695837
0.4858592
0.5001512
0.1450107
0.3247266
0.3707758
0.4426114
0.4776639
0.4989158
0.05104271
0.1022758
0.1120192
0.1186095
0.1339889
0.1528256
0.02948618
0.1920572
0.2408373
0.3112009
0.3445973
0.3766942
0.01958542
0.08763375
0.1197017
0.1582036
0.1830918
0.2116752
0.01793216
0.1159904
0.1583938
0.2132811
0.2453113
0.276699
0.01436171
0.08283234
0.1171079
0.1626014
0.1923171
0.2231248
0.01294509
0.08119652
0.1167172
0.1627646
0.1935993
0.2249543
0.01151242
0.07085368
0.1031344
0.1458848
0.1755868
0.2064019
0.01050354
0.06544764
0.09614448
0.1370632
0.1660995
0.196471
0.00967813
0.06017703
0.088936
0.127737
0.1557242
0.1853492
0.008997598
0.05594059
0.08302629
0.1199742
0.1469403
0.1758216
0.008419511
0.05230566
0.07785199
0.1130572
0.1389869
0.1670257
0.007917448
0.04916542
0.07333869
0.1069124
0.1318769
0.1590432
0.007474839
0.04640473
0.06938759
0.1014055
0.1254778
0.151759
0.0070809
0.04394152
0.06586043
0.09620928
0.1196743
0.1450797
0.006728198
0.04171773
0.06267784
0.09134895
0.1143991
0.1389562
0.006411696
0.03973809
0.05980988
0.08728557
0.1096146
0.1333839
0.006125586
0.03796654
0.05721597
0.0840111
0.1052559
0.128304
0.005864351
0.0363573
0.05484126
0.08101373
0.1012452
0.1236414
0.005625268
0.03487826
0.0526722
0.07820313
0.0975291
0.1193575
0.005405022
0.03350902
0.05065297
0.07541944
0.09403988
0.1154142
0.005202234
0.03229075
0.04881713
0.0730179
0.09073295
0.1119885
0.01400569
0.03114343
0.04699393
0.07062559
0.08751122
0.1088315
0.3104772
0.3490884
0.3763287
0.3948845
0.4132517
0.42956
0.01631219
0.1915301
0.2687967
0.331529
0.3616886
0.3810973
0.3978865
0.01317309
0.1388954
0.2217978
0.2796276
0.2952266
0.3095867
0.3193326
0.01038804
0.1404137
0.2383632
0.3037316
0.3380724
0.3604433
0.3769618
0.008179165
0.1093191
0.1970307
0.2529093
0.2847808
0.3059386
0.3235061
0.007355614
0.1019007
0.1887424
0.2482411
0.2822315
0.3048213
0.3235607
0.006504294
0.08919755
0.168964
0.226169
0.2596552
0.2827245
0.3020886
0.005997896
0.08256
0.1581285
0.2145638
0.2479804
0.27161
0.2917608
0.005583378
0.07541423
0.147183
0.2017628
0.2344499
0.2582012
0.2786054
0.005228237
0.06997981
0.1385987
0.191184
0.2230459
0.2467911
0.2672579
0.004941841
0.06548058
0.1311558
0.1816952
0.2125858
0.23603
0.2564699
0.004680065
0.06180704
0.1246884
0.1732571
0.2031246
0.2261294
0.2466454
0.00446295
0.0586482
0.1189959
0.1656991
0.1945559
0.2170451
0.2373662
0.004259603
0.05587593
0.1139395
0.1588748
0.1868
0.2086638
0.2286801
0.004076064
0.0534277
0.1094309
0.1527828
0.1797493
0.2009464
0.2205224
0.003896153
0.05123264
0.1053948
0.147767
0.1733528
0.1938327
0.2129912
0.003739856
0.04923291
0.1017239
0.1434824
0.1675087
0.1872593
0.2059714
0.003581845
0.04738916
0.09828522
0.1391849
0.1620762
0.1811906
0.1994201
0.003434281
0.04566321
0.09499895
0.1345764
0.1570002
0.1755653
0.1933246
0.003292181
0.04407069
0.09190644
0.1301619
0.1522672
0.1703261
0.187641
0.003167019
0.04259796
0.08903964
0.1260816
0.1478318
0.1654264
0.1823432
0.003047922
0.04124455
0.08639375
0.1223367
0.14365
0.160817
0.1774239
0.002928043
0.04000305
0.08395023
0.1189093
0.1397061
0.1564751
0.1727617
0.002819209
0.07274162
0.08161859
0.11556
0.1359618
0.1521648
0.1681929
0.1739631
0.2234042
0.0180496
0.2241509
0.1022934
0.1541647
0.01628752
0.1237641
0.02300779
0.1305791
0.09836799
0.1292057
0.01318116
0.09598822
0.01365724
0.09655787
0.08173831
0.1046966
0.01038453
0.08410854
0.01228882
0.07624953
0.05368342
0.08546682
0.008168039
0.06653827
0.009729515
0.06216992
0.04292799
0.07183133
0.007345376
0.05759822
0.0087383
0.05412814
0.03152192
0.05937501
0.006506047
0.04838337
0.007620641
0.04666684
0.0232682
0.05141633
0.005989939
0.04301976
0.006949169
0.04186103
0.01673954
0.04456933
0.005571735
0.03848309
0.00633723
0.03760277
0.01156784
0.03871364
0.00522608
0.03509957
0.005865893
0.03449601
0.007688736
0.03368196
0.004940966
0.03247019
0.005464526
0.03197254
0.004831916
0.02948588
0.004684503
0.03027627
0.005121086
0.02985716
0.002584461
0.02594185
0.004454453
0.02842013
0.004822086
0.02800858
0.0007282742
0.02286583
0.004250545
0.02681657
0.004556399
0.02636685
-0.0008335407
0.02017495
0.004067612
0.02539313
0.004317803
0.0248893
-0.002171878
0.01782297
0.003895852
0.02410732
0.004102619
0.02355174
-0.003315021
0.01577517
0.003732456
0.0229274
0.003906457
0.02233717
-0.004298738
0.01395834
0.003576506
0.02183495
0.003726224
0.02123093
-0.005151108
0.01233042
0.00342806
0.02082888
0.003558269
0.02022419
-0.005885777
0.01088056
0.003289287
0.01989892
0.003403544
0.01930533
-0.006514802
0.009600623
0.003160926
0.01904515
0.003261636
0.01846738
-0.007045227
0.008473221
0.00304278
0.01826204
0.003130541
0.01770138
-0.007488779
0.007444349
0.002933346
0.01754518
0.003007361
0.01699569
-0.007876581
0.01811687
0.002829943
0.01689827
0.002896951
0.01636063
0.428371
0.007064775
0.2347714
0.9439476
0.01730939
0.2398941
0.4493174
0.01903134
0.2444054
0.945986
0.01885439
0.2454059
0.4479536
0.02033929
0.2475013
0.9267943
0.02085835
0.2379614
0.5198082
0.02166117
0.2291137
0.9397974
0.02129862
0.2246231
0.961239
0.02125892
0.229832
0.5015039
0.0216541
0.2335822
0.9324621
0.02113699
0.2428968
0.451985
0.02029249
0.2476673
0.9448379
0.01903759
0.2459622
0.4491162
0.01892926
0.2443697
0.9426384
0.01705576
0.2397081
0.4282513
0.007077707
0.2346705
0.2228479
0.0180704
0.2238673
0.1737568
0.4343362
0.4470857
0.09592744
0.01365644
0.09653922
0.09829611
0.1291795
0.01749294
0.003000889
0.0169563
-0.007526428
0.007407184
0.01680803
0.002882774
0.01628046
-0.007953538
0.01804154
-0.0003630119
0.0925034
0.2284119
0.2232075
0.3108856
0.2427156
0.2532514
0.280087
0.3032107
0.2496533
0.3492454
0.2638787
0.3266937
0.3038497
0.3812079
0.2811947
0.3764135
0.2830127
0.3736177
0.3304019
0.4117975
0.3053816
0.3949639
0.304668
0.4002735
0.3517297
0.4315385
0.3253654
0.4132983
0.3254275
0.4187619
0.3712674
0.4471302
0.4295906
0.4343502
0.04729288
0.151772
0.05593951
0.2383183
0.03303368
0.1383261
0.04343491
0.1748893
0.02857383
0.1174169
0.03783196
0.1352597
0.01988953
0.09347923
0.02589605
0.1081462
0.01572426
0.0830647
0.02134498
0.08798798
0.01303714
0.06640477
0.0182462
0.06773748
0.01161159
0.05306835
0.01625569
0.05258449
0.01029786
0.04283549
0.01450222
0.04278206
0.009133689
0.03496922
0.01292724
0.03608647
0.00819628
0.02934431
0.01154729
0.03087717
0.007388957
0.02509331
0.01036233
0.02661972
0.006693954
0.02166344
0.00937087
0.02308746
0.006071629
0.01877397
0.008511765
0.02003192
0.005535919
0.01629497
0.007761186
0.01732655
0.005042304
0.01408056
0.007131135
0.01491042
0.004600343
0.01221528
0.006598006
0.01282299
0.004186424
0.01060093
0.006116598
0.01095214
0.003789393
0.009115005
0.005661719
0.009267958
0.003408374
0.00776821
0.005231596
0.007766016
0.003051276
0.006550157
0.004824156
0.006430387
0.0027203
0.005451893
0.004448015
0.005241168
0.002414054
0.004482797
0.004100246
0.004183383
0.002131703
0.003616514
0.003767704
0.003198637
-0.03985191
-0.02470939
-0.05697376
-0.03639583
-0.06097137
-0.03049524
-0.05877646
-0.03869317
-0.04375423
-0.05798287
-0.03539306
-0.05670265
-0.03108768
-0.06375706
-0.03203567
-0.05298153
0.03081166
-0.02193538
0.2425607
0.2530455
0.2800171
0.2281955
0.2231143
0.2637985
0.3266628
0.3038665
0.3030576
0.2495271
0.2829712
0.3736235
0.33046
0.3810749
0.2810905
0.3046662
0.4002905
0.3518547
0.4117
0.3052588
0.3254459
0.418781
0.3712477
0.4314453
0.3253075
0.1236162
0.0229862
0.1304711
0.1022249
0.1540946
0.08410053
0.01229311
0.07627753
0.08173734
0.1046861
0.06657706
0.009736892
0.06221704
0.05370276
0.08547468
0.05760325
0.008734919
0.05411888
0.0429631
0.07183858
0.04837919
0.007621203
0.04666929
0.03150859
0.05939734
0.04304846
0.006955638
0.04188797
0.02331348
0.05143985
0.03850724
0.006339718
0.03761644
0.01680046
0.04457697
0.03510107
0.005863454
0.03449053
0.0115754
0.03870207
0.03247859
0.005460715
0.03196262
0.00767996
0.03366067
0.03028394
0.005124903
0.02986336
0.004821928
0.02950233
0.02843151
0.004828765
0.02801473
0.002598227
0.02595363
0.02682289
0.004562819
0.02636929
0.0007439757
0.02288298
0.02539244
0.004319302
0.02488648
-0.0008189279
0.02017266
0.02410446
0.004107269
0.02355286
-0.002166831
0.01783675
0.02293069
0.003913026
0.02234104
-0.003305116
0.01579886
0.02182344
0.003728039
0.02123123
-0.004287078
0.01397576
0.02083204
0.003564498
0.0202254
-0.005142743
0.01234719
0.01988363
0.00340665
0.01930176
-0.005877152
0.01089261
0.01903913
0.003267249
0.0184579
-0.006513186
0.009603874
0.01823803
0.003130041
0.01767788
-0.007051435
0.008453194
0.114863
0.1874137
0.131367
0.1112343
0.02269975
0.1711021
0.03118127
0.0833062
0.0314725
-0.02139151
0.05192393
0.1908098
0.03768646
0.1821877
0.04285633
0.1463029
0.03113261
0.1359417
0.03426662
0.1104899
0.02387855
0.1111864
0.02692878
0.09239634
0.01650798
0.09181366
0.02353812
0.07099717
0.01415481
0.07627986
0.02055823
0.05602949
0.01209966
0.06090751
0.01845026
0.04634157
0.01075246
0.04852482
0.01644927
0.03905621
0.009535876
0.03920291
0.01468627
0.03336615
0.008528544
0.03271105
0.01319527
0.02869648
0.007686242
0.02801728
0.01190114
0.02485949
0.006936492
0.02429132
0.01076911
0.02156837
0.006251853
0.02113493
0.009812301
0.01875208
0.005654633
0.0184041
0.00898806
0.01621163
0.005113601
0.01594397
0.008277124
0.0139812
0.004633168
0.0137385
0.007646041
0.01206263
0.004205828
0.01190018
0.007061612
0.01027169
0.003805227
0.01021949
0.006521558
0.00865971
0.003426137
0.008722336
0.006014329
0.007217031
0.003069887
0.007397173
0.005544766
0.00593287
0.002739189
0.006213712
0.005111272
0.004800089
0.002436571
0.005156823
0.004703378
0.003789359
0.002158988
0.004210629
0.0043075
0.01036099
0.003306328
0.001908857
-0.03206272
-0.05257607
-0.0329463
-0.06404492
-0.03020721
-0.05767025
-0.04701216
-0.05547831
-0.05410223
-0.03182569
-0.06155049
-0.03149503
-0.06021232
-0.03169296
-0.04242629
-0.02393231
-0.0003976716
0.09285236
0.1150185
0.1874171
0.1312454
0.1115798
0.02264671
0.1712067
0.03113508
0.083638
0.341403
0.4061879
0.3867561
0.03300552
0.138293
0.04341917
0.1748793
0.002408386
0.00448863
0.004095799
0.004191632
0.004702105
0.003794293
0.002161409
0.004214405
0.002130351
0.003615887
0.003765708
0.003201649
0.004318285
0.002770809
0.003301773
0.00190416
0.002721653
0.02215221
0.002741721
0.01632458
0.01619359
0.02207851
0.01089215
0.003458125
0.002712192
0.003460224
0.1952706
0.2710364
0.2133453
0.2032712
0.2049486
0.255305
0.2554469
0.3087072
0.2969295
0.3145138
0.2850341
0.3476065
0.3254066
0.3441169
0.3075449
0.3716817
0.3510013
0.3636983
0.3257343
0.3892566
0.370495
0.3790719
0.3414528
0.4062674
0.3868161
0.3928402
0.02842012
0.06924868
0.03436824
0.06843489
0.01508854
0.04507509
0.01757509
0.04388118
0.01166739
0.03666664
0.01339596
0.03702461
0.00962208
0.03180103
0.01052366
0.03224784
0.008613067
0.02833337
0.009051776
0.02881613
0.007565908
0.02464608
0.007632483
0.02503896
0.00663376
0.02146997
0.006471715
0.02172014
0.00583602
0.01879932
0.00555149
0.01896655
0.005085893
0.01649784
0.004732548
0.01670846
0.004398718
0.01457719
0.004016052
0.014731
0.003775169
0.01286929
0.003374814
0.01303615
0.003206576
0.0113956
0.002793269
0.01156609
0.002690233
0.01013725
0.002281463
0.01031423
0.002237553
0.009085688
0.00183192
0.009266699
0.001845993
0.008205065
0.001440735
0.008415813
0.001502761
0.00747836
0.001102286
0.007693387
0.001208999
0.0068371
0.0008078393
0.007073752
0.0009472693
0.006258828
0.000547082
0.006506194
0.0007049391
0.005724257
0.0003094009
0.005983104
0.0004754868
0.005230676
8.90499e-05
0.005500653
0.0002668849
0.004780889
-0.0001125088
0.005063193
8.10207e-05
0.004372492
-0.0002883984
0.004665751
-8.648121e-05
0.004003314
-0.0004418192
0.004304684
0.2440424
0.2552065
0.2410218
0.2458973
0.2420556
0.2466613
0.2341394
0.2446743
0.2303479
0.2442727
0.2452467
0.2458353
0.2391492
0.2408267
0.2409266
0.2379969
0.2460301
0.2562363
0.1750321
0.18848
0.1899639
0.1789721
0.0361969
0.07892097
0.03834574
0.05747113
0.2551212
0.2554533
0.02007715
0.04636499
0.01850034
0.04301689
0.01408095
0.03674587
0.01298634
0.03547963
0.01110106
0.03212391
0.01067614
0.03125166
0.009645999
0.02900874
0.009054208
0.02841278
0.008464855
0.02533515
0.007660539
0.02520677
0.007295245
0.02204582
0.006329038
0.0221241
0.00621848
0.01927362
0.005220904
0.01938112
0.005257723
0.01690728
0.004302226
0.01696299
0.004465002
0.01500748
0.003590144
0.01492118
0.003829123
0.01321649
0.003039841
0.013126
0.003286575
0.01175556
0.002533618
0.01161597
0.002822404
0.01051031
0.002082083
0.01032451
0.002411981
0.009453773
0.001679202
0.009228373
0.002050488
0.008576597
0.001331548
0.008319232
0.001730338
0.007852765
0.001037214
0.007554161
0.001453231
0.007223886
0.0007772426
0.006915077
0.001204122
0.006662593
0.0005466885
0.006355544
0.0009720191
0.006142149
0.0003295807
0.005844235
0.0007502866
0.005659376
0.0001239782
0.005373877
0.0005443375
0.005219322
-6.444768e-05
0.004947277
0.0003600136
0.00481912
-0.000228897
0.004558561
0.0001923472
0.004453763
-0.000380037
0.004208834
-0.0005181761
0.004114928
4.087515e-05
0.003895978
0.2413268
0.2517078
0.2387656
0.2347484
0.2335212
0.2399343
0.2430022
0.2427304
0.2458209
0.2408102
0.2445953
0.2474141
0.2407854
0.2469997
0.2448612
0.2535189
0.1958264
0.2725781
0.174997
0.1887317
0.1901103
0.1794937
0.03617533
0.07897746
0.03829285
0.05755852
0.3924212
0.4234962
0.4138912
0.3931562
0.01508462
0.04508783
0.01756854
0.04387479
0.04284797
0.1462975
0.03113858
0.1359039
0.0001911406
0.004453915
-0.0003811434
0.004210398
-8.947489e-05
0.004004154
0.004304575
-0.000441429
0.004089938
-0.0005464822
1.795423e-05
0.003885644
-0.02489064
0.0717246
0.07640877
-0.01602524
0.1405967
0.1582561
0.1102394
0.153416
0.2125359
0.2222402
0.2761947
0.2796811
0.2227224
0.2783132
0.3197079
0.3155965
0.2571657
0.3341484
0.3396316
0.3391629
0.2830558
0.36188
0.3565581
0.357544
0.3037648
0.3807621
0.3712203
0.3742585
0.3219231
0.3959427
0.02618517
0.0524646
0.02114587
0.0525953
0.01643496
0.03900564
0.01362066
0.03880526
0.01243543
0.03374682
0.01110361
0.03380234
0.01028635
0.03013267
0.009293002
0.03008409
0.00903746
0.0268704
0.008059651
0.02710159
0.007864558
0.02345342
0.006820002
0.02376023
0.006834011
0.02045369
0.00581026
0.02078806
0.00585398
0.01791268
0.00489361
0.01817346
0.005020485
0.01588572
0.004140291
0.01598096
0.004341203
0.01404792
0.003576977
0.01408567
0.003762804
0.01248238
0.003058457
0.01246008
0.003251127
0.01112531
0.002581436
0.01103661
0.002803915
0.009984922
0.002162028
0.009833577
0.00241485
0.009023139
0.001793452
0.008805245
0.002072454
0.008227913
0.001480863
0.007966669
0.0017674
0.007563795
0.001210013
0.007251577
0.001500751
0.00698671
0.0009720863
0.006656447
0.001262006
0.006462938
0.0007598068
0.006127609
0.001035193
0.005980578
0.0005644825
0.005640388
0.0008214136
0.005533402
0.0003797549
0.005191035
0.0006199948
0.005121502
0.0002060132
0.004778816
0.0004337494
0.004745314
4.679669e-05
0.004405859
0.0002596825
0.004403349
-9.527147e-05
0.004068434
0.2523662
0.2537434
0.2386345
0.2471997
0.2364895
0.240296
0.2409143
0.2445592
0.2399389
0.2418935
0.2355238
0.2470569
0.2469483
0.2456172
0.2440539
0.2513196
0.2549158
0.2508603
0.2133028
0.2031356
0.2551489
0.2046453
0.2793914
0.2781725
0.2760886
0.2223808
0.3084723
0.3142925
0.2551071
0.2967694
0.3153686
0.3339943
0.3195412
0.2568382
0.3474196
0.3439262
0.2847289
0.3252089
0.3389597
0.3617428
0.3395158
0.2827828
0.3714948
0.3634989
0.3072812
0.3508507
0.3573392
0.3806159
0.3564367
0.3035494
0.389084
0.378912
0.3255294
0.3703916
0.3741806
0.3218601
0.3958402
0.3711694
0.151816
0.05593566
0.2382988
0.04724581
0.190792
0.03764925
0.1821786
0.05188108
0.1175146
0.03781416
0.1353147
0.02859081
0.1105232
0.1112495
0.03424385
0.02386742
0.09356846
0.1082303
0.01984514
0.02584481
0.09253237
0.09191673
0.02687202
0.01645375
0.08324429
0.08796483
0.01574471
0.02129264
0.07102389
0.07624276
0.0235811
0.01416209
0.06639615
0.0677626
0.01303615
0.01825666
0.05327004
0.05281292
0.01154791
0.01618812
0.04648342
0.04872986
0.01840792
0.01068444
0.0430168
0.04291379
0.01024664
0.0144551
0.03907808
0.03932622
0.01643235
0.009522926
0.03499099
0.03609374
0.009141449
0.01293586
0.03337201
0.03271936
0.01471562
0.008558696
0.02934752
0.03092579
0.008193928
0.01157187
0.02868799
0.02804844
0.0132665
0.00771995
0.02507852
0.02662363
0.007412
0.01039687
0.02490159
0.02429343
0.01189704
0.006920213
0.02170352
0.02313115
0.006662756
0.009353442
0.02159871
0.02116228
0.0107568
0.006209623
0.01880728
0.02005819
0.00603631
0.008494851
0.01877597
0.01842004
0.009797122
0.005615613
0.01632002
0.0173522
0.005503512
0.007747355
0.01622844
0.01596009
0.008985738
0.005084225
0.01409676
0.01493306
0.005031549
0.00712397
0.01223006
0.01283385
0.004572338
0.006578629
0.01208617
0.01190438
0.007641439
0.004175462
0.01062232
0.01097226
0.004165097
0.006110071
0.009145527
0.009294345
0.00377302
0.005657156
0.008689224
0.008745423
0.00652551
0.003402093
0.007794426
0.007791432
0.00339381
0.005234834
0.007247245
0.007428742
0.006002909
0.003072554
0.006577091
0.006454897
0.003031654
0.004816625
0.00595598
0.006238011
0.005542792
0.002718573
0.005473748
0.005261859
0.002697725
0.004438899
0.004807006
0.002416875
0.005178878
0.005114266
0.1339101
0.09388554
0.0929826
0.1287892
0.05469601
0.08891387
0.07180966
0.1123561
0.2486729
0.2499919
0.01899084
0.05049837
0.02216538
0.04852131
0.01338341
0.03810064