/*--------------------------------*- C++ -*----------------------------------*\
  =========                 |
  \\      /  F ield         | OpenFOAM: The Open Source CFD Toolbox
   \\    /   O peration     | Website:  https://openfoam.org
    \\  /    A nd           | Version:  7
     \\/     M anipulation  |
\*---------------------------------------------------------------------------*/
FoamFile
{
    version     2.0;
    format      ascii;
    class       volVectorField;
    location    "0.03";
    object      U;
}
// * * * * * * * * * * * * * * * * * * * * * * * * * * * * * * * * * * * * * //

dimensions      [0 1 -1 0 0 0 0];

internalField   nonuniform List<vector> 
86107
(
(-0.0302584 0.02996169 4.267838e-05)
(-0.04866095 0.02998468 0.0003301181)
(-0.06861601 0.02842474 0.0004257239)
(-0.0869963 0.02723591 0.000256288)
(-0.1046714 0.02508553 0.0003347294)
(-0.1206386 0.02237533 0.0002601136)
(-0.1346187 0.01864475 0.0001301411)
(-0.1459235 0.01418004 9.695667e-05)
(-0.0314973 0.04848719 -0.0003317992)
(-0.05024216 0.0481863 6.351365e-06)
(-0.07086378 0.04649934 0.0004783407)
(-0.08998089 0.04428336 0.0003359367)
(-0.1085941 0.04098843 0.0003184159)
(-0.1256561 0.03670202 0.0002756736)
(-0.1408789 0.03086995 0.0002379112)
(-0.153521 0.02361707 0.0001777075)
(-0.03179505 0.06975137 -0.0004238181)
(-0.05160635 0.06933023 -0.0004532089)
(-0.07304957 0.06717917 4.49399e-05)
(-0.09321945 0.06430039 -9.47426e-05)
(-0.1132099 0.05993402 -9.03752e-05)
(-0.1318775 0.05407111 -0.0001066228)
(-0.14896 0.04590952 -0.0001035346)
(-0.16369 0.03563836 -8.864617e-05)
(-0.03299992 0.09084198 -0.0002714242)
(-0.05333969 0.09038941 -0.000353859)
(-0.07585208 0.08803805 0.0001660106)
(-0.0972037 0.08469436 8.421327e-06)
(-0.1188283 0.07969301 2.181144e-05)
(-0.13971 0.07270939 -4.957466e-06)
(-0.1593563 0.06271965 -2.072709e-05)
(-0.177283 0.04957544 -2.169753e-05)
(-0.03392316 0.1131709 -0.0002670106)
(-0.05513961 0.1129357 -0.0004008621)
(-0.07872909 0.1107131 0.0001533797)
(-0.1015521 0.1073479 -1.868606e-05)
(-0.1251989 0.1022576 -1.791175e-05)
(-0.1488837 0.09475653 -4.605982e-05)
(-0.1722063 0.08342706 -0.0001077621)
(-0.1949077 0.06751616 -5.715191e-05)
(-0.03499562 0.1359722 -0.0002960259)
(-0.0568176 0.1360953 -0.000393143)
(-0.0814128 0.1342157 0.0001750545)
(-0.1056424 0.1313069 3.151893e-06)
(-0.1314326 0.1269099 -1.630899e-05)
(-0.1585466 0.1198353 2.50945e-05)
(-0.1867422 0.1086789 -0.0001095646)
(-0.2171401 0.08999936 1.090309e-05)
(-0.03577871 0.1595772 -0.000408637)
(-0.0581002 0.160304 -0.0003997969)
(-0.08349876 0.1592766 0.0001545145)
(-0.1088454 0.1575803 -7.823756e-06)
(-0.1366834 0.1552079 -9.886436e-05)
(-0.1671058 0.1502227 3.043691e-05)
(-0.2022481 0.1424052 -0.0001114206)
(-0.2452306 0.121185 0.0002983582)
(-0.03606942 0.1834282 -0.0004067723)
(-0.05854577 0.1847369 -0.0003946852)
(-0.08412894 0.184594 0.0001369322)
(-0.1096223 0.1844558 4.07639e-06)
(-0.1386758 0.1851218 -0.0001817166)
(-0.1715499 0.185138 0.0001481705)
(-0.21588 0.1862326 0.0006591966)
(-0.2751733 0.1631815 -0.0007099933)
(-0.03615766 0.2074573 -0.0003039558)
(-0.05858685 0.2093679 -0.0004053997)
(-0.08379107 0.2102941 0.0001088162)
(-0.1083102 0.2122526 -3.612536e-05)
(-0.1359991 0.2179048 -0.000368994)
(-0.1659678 0.2271088 0.0005081978)
(-0.2089981 0.2466862 0.002736281)
(-0.2948205 0.2600868 0.0009334112)
(-0.03571721 0.2311961 -0.0001558958)
(-0.05760472 0.2332017 -0.0004308024)
(-0.0812858 0.234142 5.552636e-05)
(-0.1020644 0.2363345 -8.512644e-05)
(-0.1231522 0.2436775 -0.0008193412)
(-0.1379729 0.2563395 0.001173551)
(-0.1570362 0.2899441 0.003736286)
(-0.218971 0.3804361 0.01461198)
(-0.91937 0.1103435 -0.02154778)
(-0.03595157 0.25453 -7.81098e-05)
(-0.05771647 0.2558911 -0.0004397089)
(-0.08067838 0.2550034 8.586764e-05)
(-0.09874414 0.25435 -0.0001033065)
(-0.1153731 0.2560095 -0.00051259)
(-0.1179769 0.2597263 0.001054805)
(-0.1160215 0.2723506 0.004504391)
(-0.1255337 0.3108708 0.008591602)
(-0.03699122 0.2782193 -6.025847e-05)
(-0.05939679 0.2786525 -0.0004572803)
(-0.0828244 0.2753026 4.666212e-05)
(-0.1009988 0.2707686 -0.0001269792)
(-0.1176176 0.2644 -0.0009198212)
(-0.119598 0.254949 0.000858161)
(-0.1171986 0.237798 0.002739834)
(-0.1113645 0.2473233 0.01262463)
(-0.039163 0.3030119 -5.063249e-05)
(-0.06310446 0.3025064 -0.000489071)
(-0.08852827 0.2970207 6.168516e-05)
(-0.1095748 0.2889564 -0.000178636)
(-0.1310023 0.2772933 -0.0006824788)
(-0.1422552 0.2573367 0.001578597)
(-0.1605606 0.2302919 0.005598946)
(-0.1646871 0.1883011 0.01366388)
(-0.04208004 0.3297301 -5.182329e-05)
(-0.06806898 0.3287949 -0.000520706)
(-0.09632371 0.3220955 -3.360007e-05)
(-0.1206849 0.3130262 -7.945579e-05)
(-0.1489721 0.2991271 -0.001778054)
(-0.1649675 0.2816377 0.00404666)
(-0.2129088 0.2495351 0.005456592)
(-0.2084927 0.1915342 0.02175808)
(-0.04534019 0.3586254 -4.278942e-05)
(-0.07365712 0.3575283 -0.0005814835)
(-0.1042702 0.3501776 2.874258e-05)
(-0.1325252 0.3407715 -0.0004140628)
(-0.1621177 0.3263645 -0.00107928)
(-0.1895678 0.3115582 0.001017567)
(-0.2224373 0.284128 0.008171173)
(-0.267423 0.2848289 0.006915334)
(-0.04895105 0.3899276 -1.401954e-05)
(-0.07968246 0.3888139 -0.0005787631)
(-0.1130603 0.3812727 0.0001687304)
(-0.1444847 0.3716288 -0.0001323864)
(-0.1780476 0.358692 -0.000433277)
(-0.2104399 0.3429227 0.0009207167)
(-0.2519695 0.3247009 0.001534191)
(-0.2930857 0.3037003 0.005343178)
(-0.05266663 0.4237104 1.518439e-05)
(-0.08574991 0.4226347 -0.0006059021)
(-0.1214381 0.4148941 0.0002270368)
(-0.1551129 0.4053414 -0.0001548351)
(-0.1896575 0.3933836 -0.0003630673)
(-0.2240039 0.3813861 -0.0006127009)
(-0.2605975 0.3669427 -0.001069728)
(-0.3005121 0.3563213 -0.001081137)
(-0.05668238 0.4600184 5.158713e-05)
(-0.09222738 0.4588062 -0.0006137336)
(-0.1303378 0.4505222 0.0003214938)
(-0.1660083 0.4403831 -3.367935e-05)
(-0.2020795 0.4284171 -9.475077e-05)
(-0.2369494 0.4160264 -0.0001489851)
(-0.2729872 0.403777 -0.0004059604)
(-0.3097701 0.3933011 -0.0001591798)
(-0.06109979 0.4990767 9.47421e-05)
(-0.09928091 0.4975079 -0.0006340265)
(-0.1398392 0.4882724 0.0003800713)
(-0.1771988 0.4770831 -2.339727e-06)
(-0.2139952 0.464335 -2.416752e-05)
(-0.2485698 0.4517244 -0.0001394659)
(-0.2827577 0.4400282 -0.0002524009)
(-0.3167753 0.431388 -0.0003664641)
(-0.06617184 0.5411589 0.0001416699)
(-0.1073946 0.5388521 -0.0006599927)
(-0.1507406 0.5279604 0.0004424855)
(-0.1899271 0.5147017 3.795346e-05)
(-0.2274358 0.4998313 6.279168e-05)
(-0.2612611 0.4853026 -1.50619e-05)
(-0.293321 0.4726238 -3.495019e-05)
(-0.324005 0.4634014 -3.090719e-05)
(-0.07228995 0.5869318 0.0002006451)
(-0.1171891 0.5835443 -0.0006696628)
(-0.1639624 0.570329 0.0005405019)
(-0.2053078 0.5540585 0.0001326167)
(-0.2433973 0.5356685 0.0001587807)
(-0.2757906 0.5178243 6.96137e-05)
(-0.304666 0.5028095 6.18364e-05)
(-0.3311813 0.4927738 3.13644e-05)
(-0.07961359 0.6369634 0.0002291976)
(-0.1290807 0.6318443 -0.0007388921)
(-0.1801939 0.6151314 0.000560797)
(-0.2245735 0.5937339 6.154843e-05)
(-0.2636873 0.5695793 0.0001702257)
(-0.2941497 0.5461929 6.612593e-05)
(-0.3183899 0.5275483 0.0001423845)
(-0.3389316 0.5159489 8.915066e-05)
(-0.0891715 0.6929921 0.0003108881)
(-0.1445006 0.6861633 -0.0005970262)
(-0.2020261 0.6656945 0.0009125986)
(-0.2508028 0.6387679 0.0007466954)
(-0.2908836 0.6060702 0.0006389274)
(-0.3178029 0.5738771 0.0005634934)
(-0.3349309 0.5481007 0.00055227)
(-0.3473472 0.5344749 0.00039385)
(-0.02489567 0.004286867 -0.001204391)
(-0.04408115 0.004014005 -0.002465243)
(-0.06673024 0.003604048 -0.002389743)
(-0.08748529 0.003345799 -0.003011843)
(-0.1070701 0.003254298 -0.002772491)
(-0.1247525 0.002935727 -0.003836387)
(-0.1399764 0.002287517 -0.005264823)
(-0.1526684 0.001612398 -0.005698297)
(-0.004258069 0.02494367 0.001367785)
(-0.030357 0.03004415 5.16051e-05)
(-0.05005818 0.02922582 -3.49403e-05)
(-0.06944516 0.02750689 9.926763e-06)
(-0.08787652 0.02616707 -0.0001220707)
(-0.1055269 0.02415621 -6.018635e-05)
(-0.1217892 0.02148308 -5.217743e-05)
(-0.1357953 0.01774072 -1.363656e-05)
(-0.1470918 0.01342661 1.140199e-05)
(-0.004295324 0.04409311 0.002984437)
(-0.03077114 0.04997914 9.295443e-05)
(-0.05098256 0.04894803 2.535099e-05)
(-0.07083641 0.04698406 0.0003725836)
(-0.09000151 0.04487817 0.0003088025)
(-0.1085968 0.0416812 0.0003997594)
(-0.125623 0.0372808 0.0003472534)
(-0.1408682 0.03145979 0.0003169603)
(-0.153511 0.02406179 0.0002464621)
(-0.004094584 0.06792909 0.003069163)
(-0.03080397 0.07075095 8.935479e-05)
(-0.0522624 0.06924076 -0.000367716)
(-0.07301839 0.0671842 2.370351e-05)
(-0.09337034 0.06424762 -0.000118399)
(-0.1131926 0.05986973 5.549762e-06)
(-0.1318711 0.05400278 -2.070349e-05)
(-0.1489304 0.04582798 -2.103607e-07)
(-0.163639 0.03554598 -9.104741e-06)
(-0.004011112 0.09128083 0.003631678)
(-0.03177774 0.09206548 0.0002555437)
(-0.05427571 0.09051809 -0.0003267281)
(-0.07580224 0.08820541 0.0001411435)
(-0.09735686 0.08480114 -1.832543e-05)
(-0.1188276 0.07979209 0.0001136595)
(-0.1397359 0.07278201 7.514893e-05)
(-0.1593846 0.062737 7.454892e-05)
(-0.1772852 0.04956896 4.56791e-05)
(-0.004170309 0.1147568 0.004329381)
(-0.03265487 0.1143893 0.0002111847)
(-0.05614438 0.1129313 -0.0004727772)
(-0.07865413 0.1107281 2.462808e-05)
(-0.1017171 0.1073429 -0.0001505251)
(-0.1251966 0.1022121 -1.18549e-05)
(-0.1489444 0.09475387 -4.40707e-05)
(-0.1722031 0.08328596 -6.698489e-05)
(-0.1949338 0.06743169 -3.418235e-05)
(-0.004436981 0.1392406 0.004506103)
(-0.0337036 0.1372972 0.000246746)
(-0.05782336 0.1361283 -0.0004677627)
(-0.08132467 0.1342273 3.857923e-05)
(-0.1058225 0.1313177 -0.0001307092)
(-0.1313846 0.1268227 -2.314311e-06)
(-0.1586487 0.1197626 1.732602e-05)
(-0.1867109 0.1082117 -9.982548e-05)
(-0.2170257 0.08997627 -6.123858e-05)
(-0.00475904 0.1644327 0.004108163)
(-0.03461184 0.1611186 0.0002202541)
(-0.05905625 0.1603231 -0.0005037051)
(-0.08342373 0.1592413 7.130507e-06)
(-0.1090842 0.1575657 -0.0001468556)
(-0.1366238 0.1550152 -5.066415e-05)
(-0.1675671 0.1504212 3.551707e-05)
(-0.2020627 0.1415277 -0.0002998186)
(-0.2457777 0.1215271 4.405642e-05)
(-0.004845386 0.1899322 0.004960428)
(-0.03495042 0.1853843 0.0001994189)
(-0.05953163 0.1847443 -0.0005066989)
(-0.08406228 0.184552 -6.396393e-06)
(-0.1099318 0.1843988 -0.0001239467)
(-0.1384975 0.1847803 -5.744266e-05)
(-0.1719629 0.1851244 0.0002736252)
(-0.2149744 0.1845061 -0.0001422344)
(-0.2753485 0.164079 -0.000274457)
(-0.004759558 0.2155768 0.006551463)
(-0.03490963 0.2097568 0.0001759607)
(-0.05969724 0.2093426 -0.000515397)
(-0.08376719 0.2102059 -2.093599e-05)
(-0.1088658 0.2121367 -0.0001334006)
(-0.1361142 0.2171157 -0.0001098169)
(-0.1682292 0.2267053 0.0004063291)
(-0.2074574 0.2459068 -0.0002900818)
(-0.296645 0.2511257 0.0003665586)
(-0.0045827 0.2412485 0.008208168)
(-0.03427707 0.2337102 0.0001766632)
(-0.05888743 0.2331947 -0.0005180691)
(-0.0813069 0.2341433 -8.935666e-05)
(-0.1030702 0.2363195 -0.0002141156)
(-0.123425 0.2436503 -0.0005946881)
(-0.143037 0.2562029 -0.0001569961)
(-0.1548574 0.2917316 -0.004622574)
(-0.2339277 0.3745722 0.0005582327)
(-0.9212301 0.1963552 0.009707512)
(-0.004452907 0.2667914 0.009382002)
(-0.03439392 0.2572259 0.0001734577)
(-0.05903734 0.2559206 -0.0005100101)
(-0.08068729 0.2550411 -4.883705e-05)
(-0.09950009 0.2543938 -0.0002121479)
(-0.1156284 0.2561148 -0.0002815061)
(-0.1202704 0.2599688 -0.0003777499)
(-0.1139845 0.2757036 -0.002023772)
(-0.1043712 0.308211 0.001558052)
(-0.004512091 0.2925373 0.01018015)
(-0.03537627 0.281182 0.0001825529)
(-0.06080216 0.2787095 -0.0005157361)
(-0.08280294 0.2753659 -8.504997e-05)
(-0.1020011 0.2708153 -0.0002056225)
(-0.1177425 0.2642897 -0.0006327855)
(-0.1232515 0.2550853 -0.000491612)
(-0.1160449 0.2393482 -0.003321548)
(-0.1055048 0.2390626 0.004767807)
(-0.004732442 0.3191759 0.01113374)
(-0.03744792 0.3062814 0.0001972268)
(-0.06457786 0.30258 -0.0005386662)
(-0.08851568 0.2970386 -4.221972e-05)
(-0.1103772 0.2891016 -0.0001947822)
(-0.1310937 0.2764158 -0.0002803577)
(-0.1447636 0.2585576 -0.000272876)
(-0.1545325 0.2205795 -0.002228062)
(-0.1620951 0.1627314 -0.002411463)
(-0.005055259 0.3474798 0.01199867)
(-0.04023623 0.333302 0.0002126812)
(-0.0697369 0.3288484 -0.0005578505)
(-0.09623454 0.3221407 -0.0001201175)
(-0.1225109 0.3128612 -3.968398e-05)
(-0.1481954 0.2987134 -0.001225566)
(-0.176878 0.2798582 0.001248033)
(-0.1954592 0.2440029 -0.007800617)
(-0.248375 0.2103983 0.01293047)
(-0.005442456 0.3779826 0.01285182)
(-0.04338765 0.3625328 0.0002397215)
(-0.07540552 0.3576189 -0.0006263162)
(-0.104452 0.3504388 -6.359922e-05)
(-0.1338095 0.3407952 -0.0003215366)
(-0.1640512 0.3277252 -0.0005042137)
(-0.1949095 0.310775 -0.001380856)
(-0.2295832 0.2874786 -0.005363713)
(-0.2687226 0.2563884 -0.008372726)
(-0.005859437 0.4109129 0.01373675)
(-0.04682122 0.3941675 0.0002925785)
(-0.08146762 0.3889366 -0.0006444558)
(-0.1130061 0.3815293 3.669266e-06)
(-0.1451953 0.3719235 -0.0001628739)
(-0.1781581 0.3596054 -0.000155335)
(-0.2122173 0.3456862 0.0002618494)
(-0.2487639 0.3293307 -0.001009113)
(-0.2939501 0.3144626 0.003642141)
(-0.006297338 0.4463423 0.01462787)
(-0.05038602 0.4282908 0.000343587)
(-0.08764798 0.4227479 -0.0007008805)
(-0.1214042 0.4151085 -2.684824e-06)
(-0.1556743 0.4054877 -0.0003043146)
(-0.1902129 0.3938869 -0.0001626736)
(-0.2249168 0.381462 -0.0004167611)
(-0.2617942 0.3687608 -0.0004727578)
(-0.3002944 0.3568688 -0.0009638324)
(-0.006770375 0.4844281 0.01551887)
(-0.05422994 0.4649805 0.0004197104)
(-0.09422015 0.4589334 -0.0007276098)
(-0.1301995 0.4507437 4.034803e-05)
(-0.1663473 0.4405977 -0.0002626536)
(-0.2021032 0.4288418 -1.087067e-05)
(-0.2371933 0.4167061 3.263016e-05)
(-0.2730321 0.4049398 3.060242e-05)
(-0.3097331 0.3954539 0.0002075472)
(-0.007298143 0.5252899 0.01643694)
(-0.05846728 0.504452 0.000504179)
(-0.1014196 0.4976309 -0.0007671965)
(-0.1396702 0.4884708 4.673497e-05)
(-0.1775151 0.4772313 -0.0003078441)
(-0.214031 0.4645634 -5.114214e-05)
(-0.2487287 0.4519175 -0.0001272356)
(-0.2829548 0.4404413 -8.505726e-05)
(-0.3167871 0.4316087 -0.0002020952)
(-0.007910287 0.5693008 0.01742926)
(-0.06333978 0.547001 0.0006061205)
(-0.1096993 0.5390054 -0.0008078601)
(-0.1505272 0.5282074 5.687856e-05)
(-0.1901986 0.5149278 -0.0003328145)
(-0.2273739 0.5001094 -3.216994e-05)
(-0.2612847 0.4855995 -8.816565e-05)
(-0.2933099 0.4730181 -2.585689e-06)
(-0.323994 0.4638675 7.482131e-06)
(-0.008651599 0.6167926 0.01845936)
(-0.06920434 0.5932531 0.0007415284)
(-0.1196703 0.5836858 -0.0008339761)
(-0.1636711 0.5705542 8.725056e-05)
(-0.2055557 0.5542124 -0.0003188938)
(-0.2433207 0.5359177 -2.149352e-05)
(-0.2758046 0.5180476 -9.955855e-05)
(-0.304687 0.5031295 -1.882211e-05)
(-0.331216 0.4930435 -3.54609e-05)
(-0.009563377 0.6683508 0.01949111)
(-0.07629682 0.6438904 0.0008626935)
(-0.1318126 0.6321588 -0.0009455288)
(-0.1799156 0.6156104 -5.165004e-06)
(-0.2247797 0.5944704 -0.0005155085)
(-0.2635233 0.5702213 -0.0001195695)
(-0.2940851 0.5468244 -0.000222475)
(-0.3183431 0.5281838 -6.769753e-05)
(-0.3390538 0.5164857 -9.133658e-05)
(-0.01426202 0.7513791 -0.01929015)
(-0.08538277 0.7002762 0.001103207)
(-0.1473111 0.6862597 -0.0008783759)
(-0.2012577 0.6657897 0.0001425551)
(-0.2508923 0.6384452 -7.006471e-05)
(-0.2909626 0.6065048 5.270883e-05)
(-0.3178799 0.5740625 -1.530013e-05)
(-0.335088 0.5489557 4.952797e-05)
(-0.3475084 0.5350036 -1.969669e-05)
(-0.0244748 0.003299252 0.0009498956)
(-0.0516988 0.008649419 -0.0003091077)
(-0.06686715 0.008046886 0.001302948)
(-0.08643302 0.008405348 0.0003591169)
(-0.1029264 0.007559829 0.0005536693)
(-0.1186034 0.006736238 0.0005161161)
(-0.1320642 0.005553117 0.000407033)
(-0.1429094 0.004177871 0.00032573)
(-0.003327145 0.02472521 -0.0008091504)
(-0.02938927 0.02901936 4.806132e-05)
(-0.04900577 0.02853669 0.000976852)
(-0.06933181 0.02593697 0.0009393501)
(-0.08789205 0.02521869 0.000888211)
(-0.1056735 0.02310083 0.0008240859)
(-0.1218346 0.02057551 0.0007521025)
(-0.135964 0.01713502 0.0007302298)
(-0.1474262 0.01295551 0.0005751901)
(-0.009163727 0.05250479 0.0004669753)
(-0.03015514 0.0487991 -0.0009013739)
(-0.04966398 0.04758462 4.74607e-05)
(-0.07042983 0.04620979 0.0002864858)
(-0.08992773 0.04402055 0.0003739766)
(-0.1085225 0.04079472 0.0004699223)
(-0.1257217 0.03649847 0.0004174958)
(-0.1409743 0.03068273 0.0003667588)
(-0.1536666 0.02345204 0.0002836865)
(-0.009081468 0.06931241 -0.001060781)
(-0.02925407 0.0705295 -0.000877781)
(-0.05132778 0.06882245 -0.0002601839)
(-0.07253269 0.06669686 5.904906e-06)
(-0.0931247 0.06373417 6.181902e-05)
(-0.1130444 0.05939925 0.0001673993)
(-0.1318287 0.05356853 0.0001416302)
(-0.1489114 0.0454785 0.0001503129)
(-0.1636591 0.03526552 0.0001133518)
(-0.01022011 0.09185604 -0.0002945588)
(-0.030819 0.09184953 -0.0009434833)
(-0.05312541 0.09027702 -0.000394829)
(-0.07524194 0.08797547 -7.108693e-05)
(-0.09707213 0.08455596 -1.176459e-05)
(-0.118643 0.07956553 0.000103475)
(-0.1396742 0.07257269 8.467434e-05)
(-0.1593537 0.06256635 9.792419e-05)
(-0.1773075 0.04943799 6.168263e-05)
(-0.01031725 0.1134846 -0.0006374285)
(-0.03156234 0.1142854 -0.001030804)
(-0.05493545 0.1127731 -0.0005408555)
(-0.07806165 0.1105795 -0.0001786012)
(-0.1013987 0.1071827 -0.0001258091)
(-0.1249721 0.1020735 4.521734e-06)
(-0.1488413 0.09461732 -7.952645e-06)
(-0.1721375 0.08320843 1.822441e-05)
(-0.1949291 0.06733363 1.006163e-05)
(-0.01069311 0.1364631 -0.0004750752)
(-0.03259828 0.1373504 -0.001019917)
(-0.0566169 0.1360573 -0.0005713088)
(-0.08071223 0.1341815 -0.0001894397)
(-0.1054775 0.1312708 -0.0001344648)
(-0.1311436 0.1268093 1.800641e-06)
(-0.1585133 0.1197602 -1.13752e-05)
(-0.1866705 0.108314 -4.513292e-06)
(-0.2171743 0.09003398 -5.988028e-05)
(-0.01091176 0.1596678 -0.0005788543)
(-0.03330956 0.1611532 -0.0009952789)
(-0.05790238 0.1602572 -0.0006354796)
(-0.0827732 0.1592118 -0.0002158399)
(-0.1086972 0.1575342 -0.0001543343)
(-0.1363196 0.1550397 -9.236726e-07)
(-0.1673122 0.1504327 2.162742e-05)
(-0.2019274 0.1418216 4.2874e-05)
(-0.2459353 0.1215214 6.409091e-05)
(-0.01098386 0.1832234 -0.0006334914)
(-0.0335916 0.1852451 -0.001016204)
(-0.05835449 0.1847228 -0.0006549974)
(-0.08339799 0.1845441 -0.0002272019)
(-0.1095148 0.1844027 -0.0001591372)
(-0.1381778 0.1849177 2.825307e-05)
(-0.1716031 0.1852564 9.223852e-05)
(-0.2147315 0.1848929 0.0002319899)
(-0.2758389 0.163979 6.327049e-05)
(-0.01095009 0.2070187 -0.0006618778)
(-0.033637 0.2095204 -0.00112561)
(-0.05838785 0.2093685 -0.0006534044)
(-0.08308916 0.2101936 -0.000237948)
(-0.1083363 0.2121183 -0.0001564994)
(-0.1356633 0.2172574 0.000121018)
(-0.1672467 0.2268095 0.0001979402)
(-0.2067596 0.2460811 0.000531692)
(-0.2975882 0.2486911 0.000689021)
(-0.01079442 0.2308833 -0.0004363851)
(-0.03332608 0.2335322 -0.001225808)
(-0.05745861 0.2332448 -0.0006270579)
(-0.08068713 0.2341519 -0.0002775264)
(-0.1025135 0.2363163 -0.0002238897)
(-0.1232941 0.2438011 -8.767939e-06)
(-0.1418384 0.2565352 -0.0001144329)
(-0.1565658 0.2926812 -3.238524e-05)
(-0.2414436 0.3736964 0.0009355611)
(-0.9450829 0.2030629 0.003497068)
(-0.01085054 0.2546652 -0.0002555116)
(-0.03360957 0.2571286 -0.001295719)
(-0.05751578 0.2559501 -0.0006140521)
(-0.08005921 0.2550724 -0.0002710256)
(-0.09885522 0.254461 -0.0002407622)
(-0.1153938 0.2562916 6.475519e-05)
(-0.1189337 0.2601518 -0.0001358032)
(-0.115127 0.2760666 0.0008975149)
(-0.1042104 0.3086285 0.001253024)
(-0.01117381 0.2788638 -0.000181274)
(-0.03461611 0.2810796 -0.001341856)
(-0.05919638 0.2787016 -0.0006295735)
(-0.08212546 0.2754158 -0.0002996259)
(-0.101269 0.2709177 -0.0002793533)
(-0.1174241 0.2645229 -8.608571e-06)
(-0.121613 0.2554275 -0.0002588329)
(-0.1180846 0.2399835 0.001370632)
(-0.1081554 0.2372698 0.00127219)
(-0.01181419 0.3041256 -0.0002291243)
(-0.03661431 0.3061185 -0.001429196)
(-0.06283052 0.3025496 -0.0006684419)
(-0.08774146 0.2971046 -0.0003051864)
(-0.10947 0.2892619 -0.0003222579)
(-0.1304429 0.276806 8.887986e-05)
(-0.142876 0.2593 -0.0003718232)
(-0.1560233 0.2222491 0.001834424)
(-0.1627069 0.1614461 -0.0003509861)
(-0.01268163 0.3311554 -0.000276423)
(-0.03930159 0.3331031 -0.001529665)
(-0.06783628 0.3287887 -0.0006962229)
(-0.09533873 0.3221805 -0.0002949569)
(-0.1213918 0.3130215 -0.0002407245)
(-0.1471902 0.2990595 0.0003840697)
(-0.1736186 0.2810457 -0.0001290544)
(-0.1966519 0.2488538 0.004262441)
(-0.2515601 0.2104257 -0.005212236)
(-0.01367204 0.3602711 -0.0003221141)
(-0.0423611 0.3623123 -0.001650648)
(-0.07335572 0.357518 -0.0007689127)
(-0.1034539 0.3503918 -0.0003632289)
(-0.1325876 0.3407664 -0.0003501833)
(-0.1625031 0.3274597 -5.980235e-05)
(-0.191363 0.3107005 -0.0001063862)
(-0.2266134 0.2848685 0.002581562)
(-0.2662288 0.2575926 0.0007938255)
(-0.01475834 0.3917143 -0.0003220985)
(-0.04571689 0.3939388 -0.001743044)
(-0.0793263 0.3888105 -0.0007921152)
(-0.1120362 0.3814223 -0.0003351353)
(-0.1443038 0.3717398 -0.0002431357)
(-0.1772227 0.3590218 0.0001204422)
(-0.2106459 0.3445824 0.0002347905)
(-0.2481423 0.3259312 0.001347113)
(-0.2941683 0.3099319 0.000750511)
(-0.01589296 0.4256352 -0.0003239162)
(-0.0492242 0.4280703 -0.001856886)
(-0.08540031 0.4226226 -0.0008560013)
(-0.1204513 0.4150231 -0.0003882364)
(-0.1549199 0.4053384 -0.0003472163)
(-0.1895363 0.3935409 -0.0001288881)
(-0.2241014 0.380856 -0.0002434481)
(-0.261001 0.3672556 -0.0001090196)
(-0.3004111 0.355676 -0.0002342843)
(-0.01711717 0.4621673 -0.0002776517)
(-0.0530022 0.4647582 -0.001941812)
(-0.09185692 0.4588137 -0.0008864339)
(-0.1292337 0.4506725 -0.0003747427)
(-0.1656911 0.4404851 -0.0003022881)
(-0.2015833 0.4286009 -4.521205e-05)
(-0.236777 0.4163193 -5.149011e-05)
(-0.2727211 0.4040941 0.000183404)
(-0.3095539 0.3944128 9.03769e-05)
(-0.01847428 0.5015457 -0.0002096865)
(-0.05718823 0.5042105 -0.002041563)
(-0.09892466 0.4975063 -0.0009298921)
(-0.138688 0.4884039 -0.0003968889)
(-0.1768968 0.4771377 -0.0003358355)
(-0.2135915 0.4644235 -0.0001043418)
(-0.2484679 0.4516969 -0.0001580193)
(-0.2827461 0.4400587 -6.858559e-05)
(-0.3167343 0.4312305 -0.0001597588)
(-0.02003254 0.5441434 -0.0001304832)
(-0.06201379 0.5467326 -0.002148434)
(-0.1070551 0.538869 -0.000976371)
(-0.1495094 0.5281349 -0.0004116133)
(-0.189583 0.5148437 -0.0003441857)
(-0.2269536 0.5000054 -8.498322e-05)
(-0.2610905 0.4854541 -0.0001099089)
(-0.2931573 0.4727918 -1.827066e-06)
(-0.3239352 0.463635 -2.384142e-05)
(-0.02190409 0.5905845 -1.400493e-05)
(-0.06782249 0.5929403 -0.002260308)
(-0.1168634 0.5834983 -0.001020702)
(-0.1626159 0.5704343 -0.0004345888)
(-0.204944 0.5540815 -0.0003578728)
(-0.2429256 0.5357899 -0.0001030263)
(-0.2756573 0.5178903 -0.0001303901)
(-0.3045627 0.5029258 -4.451407e-05)
(-0.3311688 0.4928391 -5.857393e-05)
(-0.02416579 0.6416363 9.598256e-05)
(-0.074874 0.6435139 -0.002406485)
(-0.128849 0.6318897 -0.001121071)
(-0.1788266 0.6153757 -0.0005210859)
(-0.2241568 0.5942225 -0.0004569739)
(-0.263133 0.5699189 -0.0001574992)
(-0.2939802 0.5465144 -0.0001871719)
(-0.3182463 0.5278477 -8.216944e-05)
(-0.3390176 0.5161924 -8.754619e-05)
(-0.02701873 0.6985271 0.0002245665)
(-0.08378527 0.699881 -0.002524767)
(-0.1442289 0.6858376 -0.001158735)
(-0.2001769 0.6654185 -0.0005735179)
(-0.250359 0.6381262 -0.0004374392)
(-0.2906817 0.6061651 -0.0002660347)
(-0.317835 0.5736936 -0.0002663447)
(-0.3349904 0.5484136 -0.0001787139)
(-0.3474323 0.5345194 -0.000142422)
(-0.02463395 0.002997808 1.793679e-05)
(-0.05233383 0.007674986 -0.0003229627)
(-0.06743037 0.007659638 -9.011014e-05)
(-0.0870718 0.008226111 2.022173e-05)
(-0.1038727 0.007378028 -5.329195e-05)
(-0.11979 0.006598664 -8.486976e-05)
(-0.1332899 0.005439361 -9.759352e-05)
(-0.1442175 0.004101149 -8.240789e-05)
(-0.003090313 0.0246939 9.104588e-05)
(-0.02923512 0.02891096 4.998024e-05)
(-0.04907554 0.02908678 0.0002382132)
(-0.06950466 0.0260077 7.699922e-05)
(-0.08790331 0.02529445 6.460791e-05)
(-0.1055526 0.02303821 4.295638e-05)
(-0.1216408 0.0205773 3.385047e-05)
(-0.1356887 0.01714113 1.630356e-05)
(-0.14709 0.01297509 1.744544e-05)
(-0.008124702 0.05263927 0.0002912653)
(-0.03072668 0.04897515 -0.0001124287)
(-0.04967094 0.04759949 6.371027e-05)
(-0.07054698 0.04620389 1.611307e-05)
(-0.08992436 0.04399507 5.450374e-05)
(-0.1084834 0.04075907 7.28892e-05)
(-0.1256522 0.03646797 7.793761e-05)
(-0.1408663 0.03066154 6.58346e-05)
(-0.1535242 0.02342987 5.22681e-05)
(-0.008784653 0.069944 0.0003059431)
(-0.0294387 0.07080475 6.806855e-05)
(-0.05133705 0.06896429 9.273097e-05)
(-0.07264327 0.06680777 4.582072e-05)
(-0.09316264 0.06379184 4.50694e-05)
(-0.1130464 0.05942408 6.474336e-05)
(-0.1317903 0.05357688 5.321706e-05)
(-0.1488344 0.0454769 4.675971e-05)
(-0.1635506 0.03526185 3.373774e-05)
(-0.0100941 0.09277604 0.0004048262)
(-0.03090763 0.09190776 0.0001160855)
(-0.05314601 0.09031598 5.476046e-05)
(-0.07531935 0.08803296 3.391528e-05)
(-0.09710512 0.0845765 2.398452e-05)
(-0.1186463 0.07956334 5.69288e-05)
(-0.1396528 0.0725582 4.447292e-05)
(-0.1593059 0.06253852 3.982747e-05)
(-0.1772252 0.04943146 2.447821e-05)
(-0.01007234 0.1145142 0.0002658019)
(-0.03154595 0.1142373 0.0001099821)
(-0.05493906 0.1127899 -6.700743e-06)
(-0.07811517 0.1106179 -5.484291e-06)
(-0.1014324 0.107191 -2.907636e-05)
(-0.1249777 0.102053 9.262778e-06)
(-0.1488368 0.09458706 -6.007781e-06)
(-0.1720909 0.08313786 -1.743409e-05)
(-0.1948733 0.06732354 -9.981628e-06)
(-0.01041007 0.137724 0.0002691933)
(-0.03253087 0.1372313 0.000126715)
(-0.05661918 0.1360545 -1.982977e-05)
(-0.0807501 0.1341929 -1.189933e-05)
(-0.1055156 0.1312611 -3.955509e-05)
(-0.1311458 0.1267579 -1.346841e-06)
(-0.158531 0.1197009 -1.719606e-05)
(-0.1866369 0.108195 -6.5732e-05)
(-0.217125 0.09012978 -4.672567e-05)
(-0.01057982 0.1612321 0.0001863967)
(-0.03318934 0.1609793 0.0001100517)
(-0.05789505 0.1602441 -5.223633e-05)
(-0.08280203 0.1591901 -3.182681e-05)
(-0.1087538 0.1574946 -5.605479e-05)
(-0.1363361 0.1549478 -1.793036e-05)
(-0.1673734 0.1503413 -2.445064e-05)
(-0.2018158 0.141487 -0.0001060744)
(-0.2459279 0.1215905 8.918104e-05)
(-0.01067433 0.1851749 0.000219323)
(-0.03350863 0.1850616 0.0001092894)
(-0.05836477 0.1847206 -6.135515e-05)
(-0.08344367 0.1845024 -4.562889e-05)
(-0.1095999 0.1843333 -6.2895e-05)
(-0.1382066 0.1847565 -2.104273e-05)
(-0.1714732 0.1849949 -2.818003e-05)
(-0.2146518 0.184187 -2.688891e-05)
(-0.2745581 0.1645612 0.0001767035)
(-0.01070128 0.2092333 0.0002963302)
(-0.03364543 0.2093179 0.0001085274)
(-0.05843496 0.2093562 -6.309171e-05)
(-0.08317793 0.210118 -5.930545e-05)
(-0.1085019 0.2120045 -7.541179e-05)
(-0.1357936 0.2169337 -6.045006e-05)
(-0.1674006 0.2263136 -0.0001091608)
(-0.2072151 0.2451145 -0.0001783782)
(-0.2974367 0.2480526 0.0004131979)
(-0.01059681 0.2332457 0.0003784991)
(-0.03339864 0.2333041 0.0001198826)
(-0.05757184 0.233228 -6.793326e-05)
(-0.0808335 0.2340927 -9.747156e-05)
(-0.1028436 0.2362105 -0.0001371119)
(-0.1234287 0.2435937 -0.0002481898)
(-0.1424728 0.2559924 -0.0003005355)
(-0.156675 0.2916389 -0.001077645)
(-0.2426978 0.3735703 0.0002511802)
(-0.9462967 0.2035637 0.00211512)
(-0.01066155 0.2572186 0.0004034991)
(-0.03368134 0.2568819 0.0001266956)
(-0.0576463 0.255949 -7.13361e-05)
(-0.08023493 0.2550475 -0.0001061406)
(-0.09918046 0.2543732 -0.0001863057)
(-0.1156112 0.2561944 -0.0002409768)
(-0.1194039 0.2598845 -0.0003781489)
(-0.1149741 0.2763838 -0.0006532379)
(-0.1029228 0.3090366 0.0002388903)
(-0.01097969 0.2817032 0.0004295816)
(-0.03468978 0.2808305 0.0001368053)
(-0.05935015 0.2787226 -7.868983e-05)
(-0.08233651 0.275405 -0.0001336731)
(-0.1016776 0.2707991 -0.0002523739)
(-0.1178424 0.2643704 -0.0003111309)
(-0.1222511 0.2546714 -0.0005303447)
(-0.1178719 0.2401981 -0.0005548244)
(-0.108229 0.2365451 -0.0006442356)
(-0.01161563 0.3072678 0.0004546578)
(-0.03671101 0.3058823 0.0001384205)
(-0.0629959 0.3026165 -9.44536e-05)
(-0.08801513 0.2971543 -0.0001608806)
(-0.1098988 0.2892456 -0.0003709008)
(-0.1312556 0.276885 -0.0004046839)
(-0.1432044 0.2585982 -0.001212781)
(-0.1591941 0.2238485 -0.0007295149)
(-0.1643032 0.1643419 -0.003027543)
(-0.01247376 0.334582 0.0005112542)
(-0.03940899 0.3328626 0.0001681058)
(-0.06799796 0.3288703 -7.241569e-05)
(-0.0955961 0.3222101 -0.0001206888)
(-0.1216938 0.3129694 -0.0002631119)
(-0.1481149 0.2986817 -0.0001072383)
(-0.1722826 0.2805177 -0.0007366252)
(-0.2027272 0.247816 0.001657728)
(-0.2343987 0.2138255 -0.007595686)
(-0.01345803 0.3640164 0.0005482184)
(-0.04250181 0.3620857 0.000165495)
(-0.07357608 0.3576557 -9.830156e-05)
(-0.1038411 0.3505339 -0.0001904894)
(-0.1333673 0.3409308 -0.0004179456)
(-0.1638378 0.327609 -0.0006730547)
(-0.194492 0.3114528 -0.001395557)
(-0.2304228 0.2890369 -0.002987668)
(-0.2746239 0.264391 -0.004534662)
(-0.01453245 0.3957761 0.0006121349)
(-0.04585298 0.3937057 0.0002042411)
(-0.07947854 0.3889882 -4.862584e-05)
(-0.1122478 0.3816403 -9.007181e-05)
(-0.1445893 0.3720595 -0.0001962006)
(-0.1776199 0.3596672 -0.0001341524)
(-0.2110018 0.3457778 -0.0003066975)
(-0.2483708 0.3290444 -7.248395e-05)
(-0.2887981 0.3131773 -0.0002502384)
(-0.01565542 0.4300248 0.000673197)
(-0.04937035 0.4278113 0.0002341413)
(-0.08556125 0.4227979 -5.181557e-05)
(-0.1206754 0.4152056 -0.0001039556)
(-0.1552572 0.405548 -0.0002430135)
(-0.1900137 0.3938327 -0.0002778117)
(-0.2248328 0.381282 -0.0005370591)
(-0.2617821 0.3677025 -0.0007733052)
(-0.3010713 0.356374 -0.001138183)
(-0.01687068 0.4669367 0.0007478789)
(-0.05315376 0.4644919 0.0002867843)
(-0.0919925 0.459015 -1.729342e-05)
(-0.1293821 0.4508812 -4.179769e-05)
(-0.165845 0.4407317 -0.0001369129)
(-0.2017292 0.4289738 -6.077178e-05)
(-0.23689 0.4168899 -0.0001364185)
(-0.272834 0.4050402 -3.829765e-05)
(-0.3094073 0.3956117 -0.0001538348)
(-0.01822627 0.5066949 0.000832364)
(-0.05735925 0.5039251 0.0003353379)
(-0.09906987 0.4977174 1.30913e-06)
(-0.1388318 0.4885985 -2.465346e-05)
(-0.1770412 0.4773279 -0.0001254074)
(-0.2137217 0.4646362 -6.086783e-05)
(-0.2486199 0.4519443 -0.0001452014)
(-0.2828957 0.4403078 -0.0001558805)
(-0.3168258 0.4315267 -0.0002702107)