/*--------------------------------*- C++ -*----------------------------------*\
  =========                 |
  \\      /  F ield         | OpenFOAM: The Open Source CFD Toolbox
   \\    /   O peration     | Website:  https://openfoam.org
    \\  /    A nd           | Version:  7
     \\/     M anipulation  |
\*---------------------------------------------------------------------------*/
FoamFile
{
    version     2.0;
    format      ascii;
    class       volScalarField;
    location    "0.1";
    object      Cx;
}
// * * * * * * * * * * * * * * * * * * * * * * * * * * * * * * * * * * * * * //

dimensions      [0 1 0 0 0 0 0];

internalField   nonuniform List<scalar> 
90967
(
0.4992631
0.6997275
0.8997399
1.099893
1.299962
1.499988
0.4996154
0.699594
0.899512
1.099786
1.299921
1.499972
0.4995575
0.6995127
0.8993839
1.099717
1.299891
1.499959
0.4994592
0.6994146
0.8993151
1.099677
1.299871
1.499949
0.4994158
0.6993649
0.8992792
1.099655
1.299858
1.499942
0.4994001
0.6993444
0.8992623
1.099643
1.299851
1.499937
0.4993943
0.699336
0.8992543
1.099637
1.299846
1.499935
0.4993923
0.6993326
0.8992508
1.099634
1.299844
1.499933
0.4993918
0.6993315
0.8992494
1.099632
1.299843
1.499932
0.499392
0.6993316
0.8992496
1.099633
1.299843
1.499932
0.4993931
0.6993333
0.8992512
1.099634
1.299844
1.499932
0.4993959
0.699337
0.8992552
1.099637
1.299846
1.499934
0.4994023
0.6993458
0.8992636
1.099644
1.299851
1.499936
0.4994179
0.6993661
0.8992812
1.099657
1.299858
1.49994
0.4994583
0.699414
0.8993182
1.09968
1.299872
1.499947
0.4995459
0.6995096
0.8993899
1.099723
1.299893
1.499957
0.4996025
0.699597
0.8995254
1.099794
1.299924
1.49997
0.499242
0.6997232
0.8997436
1.099894
1.299963
1.499986
0.4501788
0.6489119
0.8489459
1.048986
1.248999
1.449001
1.649001
0.4121204
0.6122012
0.8122036
1.012204
1.212204
1.412204
1.612204
0.4488053
0.6497481
0.8499445
1.049985
1.249995
1.449997
1.649999
0.4507606
0.6504192
0.8500161
1.049987
1.249992
1.449994
1.649995
0.2590696
0.5000545
0.6995341
0.8996836
1.099827
1.299914
1.499959
0.2584717
0.4995413
0.6989324
0.8993184
1.099633
1.299814
1.499909
0.2581542
0.4989262
0.6983879
0.898989
1.09945
1.299716
1.499857
0.2580875
0.498633
0.6980755
0.8987702
1.099315
1.299638
1.499813
0.2580771
0.4985148
0.6979212
0.8986447
1.099228
1.299583
1.499781
0.2580744
0.4984672
0.6978491
0.898578
1.099177
1.299548
1.499758
0.2580735
0.4984477
0.6978162
0.8985442
1.099148
1.299527
1.499744
0.2580731
0.4984397
0.6978018
0.8985281
1.099134
1.299515
1.499736
0.258073
0.4984373
0.6977968
0.8985219
1.099128
1.29951
1.499732
0.2580729
0.4984384
0.6977977
0.8985227
1.099128
1.29951
1.499731
0.2580731
0.4984433
0.6978049
0.8985304
1.099135
1.299515
1.499734
0.2580732
0.4984544
0.6978218
0.8985485
1.099151
1.299527
1.499741
0.2580736
0.498478
0.6978572
0.8985848
1.099181
1.299548
1.499753
0.2580747
0.4985285
0.6979308
0.8986553
1.099235
1.299584
1.499775
0.2580772
0.4986397
0.6980833
0.898788
1.099329
1.299642
1.499806
0.258085
0.4988898
0.6983951
0.8990244
1.099476
1.299725
1.49985
0.258118
0.4994456
0.6989859
0.8994002
1.099676
1.299827
1.499902
0.2583601
0.5001846
0.6996164
0.8997679
1.09985
1.299915
1.499952
0.2589017
0.449719
0.6498112
0.8499052
1.049919
1.249923
1.449919
1.649907
0.2590084
0.4996773
0.6993125
0.899669
1.099847
1.299936
1.499987
0.4517902
0.7013531
0.9003718
1.099963
1.299961
1.499982
0.2586868
0.5001289
0.6996749
0.8996433
1.099754
1.299855
1.49992
0.3080813
0.4985212
0.6986599
0.8990716
1.099437
1.299677
1.499821
0.306606
0.4968353
0.6975777
0.898423
1.099075
1.299473
1.499707
0.306071
0.496102
0.696914
0.8979437
1.098778
1.299297
1.499605
0.3059447
0.4958266
0.6965857
0.8976658
1.098581
1.29917
1.499527
0.3059112
0.4957211
0.6964317
0.8975167
1.098464
1.299087
1.499473
0.3058994
0.4956784
0.6963607
0.8974406
1.098399
1.299038
1.499439
0.3058952
0.495661
0.6963296
0.897404
1.098365
1.299011
1.499419
0.305894
0.4956558
0.6963187
0.8973903
1.098351
1.298999
1.499409
0.3058948
0.495658
0.6963212
0.8973923
1.098352
1.298999
1.499408
0.3058978
0.4956682
0.6963372
0.8974103
1.098368
1.299011
1.499415
0.3059044
0.4956912
0.6963744
0.8974518
1.098405
1.299038
1.499432
0.3059182
0.4957393
0.6964509
0.8975348
1.098475
1.299088
1.499463
0.3059481
0.4958408
0.6966071
0.8976944
1.098602
1.299174
1.499513
0.3060184
0.4960625
0.6969272
0.8979923
1.098814
1.299308
1.49959
0.3062217
0.4965699
0.6975939
0.8985198
1.099141
1.299497
1.499694
0.3069382
0.4977527
0.6986689
0.8992302
1.099535
1.299707
1.499812
0.3089315
0.4994587
0.699925
0.8999722
1.099852
1.29986
1.499908
0.2582125
0.4500828
0.7001773
0.8998868
1.099832
1.299922
1.49997
0.7041499
0.9045988
1.100341
1.299912
1.499993
0.2583977
0.4990432
0.6987303
0.8993855
1.099678
1.299856
1.49997
0.4522717
0.702361
0.9007039
1.099964
1.299943
1.499972
0.2584034
0.4996976
0.6995129
0.8995454
1.09968
1.299805
1.499889
0.3066732
0.4969338
0.6979576
0.8987263
1.099236
1.299551
1.499742
0.3041583
0.4942465
0.6963182
0.8977594
1.098684
1.29924
1.499564
0.3033616
0.4930786
0.6952996
0.8970121
1.098202
1.298955
1.499397
0.3031623
0.4926459
0.6947949
0.8965688
1.097874
1.298744
1.499267
0.3031094
0.4924832
0.6945592
0.8963336
1.097683
1.298609
1.499178
0.3030914
0.4924184
0.6944512
0.8962142
1.097577
1.298529
1.499122
0.303085
0.4923926
0.694404
0.8961574
1.097524
1.298485
1.49909
0.3030833
0.492385
0.694388
0.8961364
1.097502
1.298466
1.499075
0.3030844
0.4923886
0.6943924
0.8961401
1.097504
1.298466
1.499073
0.3030887
0.4924038
0.6944174
0.8961689
1.097531
1.298485
1.499085
0.3030979
0.492438
0.6944744
0.8962349
1.097591
1.29853
1.499112
0.3031174
0.4925094
0.694592
0.8963673
1.097706
1.298613
1.499163
0.3031603
0.4926602
0.6948316
0.8966248
1.097916
1.298755
1.499248
0.3032622
0.4929909
0.6953232
0.8971242
1.098276
1.298979
1.499376
0.3035613
0.4937567
0.6963426
0.8978912
1.098781
1.299279
1.499549
0.3045797
0.4955783
0.6978745
0.8989275
1.099376
1.299595
1.499733
0.307635
0.4983963
0.6999677
0.9001185
1.099853
1.29981
1.499869
0.256911
0.4498913
0.7006678
0.8999676
1.099705
1.299837
1.499927
0.7005055
0.9067589
1.10054
1.299863
1.499986
0.2580824
0.4983886
0.69815
0.8991143
1.099527
1.299787
1.499955
0.4523058
0.7025426
0.9008464
1.099964
1.299934
1.499968
0.2583425
0.4995002
0.6993824
0.8994682
1.099631
1.299775
1.499871
0.3061785
0.4963302
0.6975426
0.8984919
1.099107
1.299475
1.499697
0.3034152
0.4932497
0.6955939
0.8973239
1.098437
1.299098
1.49948
0.3024677
0.4918828
0.69437
0.8964115
1.097847
1.298741
1.49927
0.3022325
0.4913709
0.6937618
0.8958634
1.09744
1.298471
1.499103
0.3021705
0.491178
0.6934776
0.8955734
1.0972
1.298298
1.498989
0.3021493
0.4911017
0.6933479
0.895427
1.097069
1.298197
1.498918
0.302142
0.4910717
0.6932919
0.8953582
1.097004
1.298143
1.498878
0.3021404
0.4910637
0.6932738
0.8953333
1.096978
1.29812
1.498859
0.302142
0.4910686
0.6932801
0.8953388
1.096981
1.298121
1.498857
0.3021469
0.4910868
0.6933107
0.8953748
1.097014
1.298145
1.498872
0.3021576
0.4911272
0.6933799
0.8954568
1.097089
1.298202
1.498907
0.3021803
0.4912115
0.6935226
0.8956218
1.097236
1.298308
1.498972
0.3022301
0.4913897
0.6938136
0.8959454
1.097514
1.298493
1.499082
0.3023482
0.4917789
0.6944089
0.8965765
1.097942
1.298773
1.499247
0.3026948
0.4926746
0.6956315
0.8974571
1.098537
1.299144
1.499464
0.3038795
0.4947853
0.6974403
0.898729
1.099272
1.299527
1.499688
0.3071861
0.4980161
0.6999926
0.9001921
1.099849
1.299779
1.499846
0.2567521
0.449812
0.7006236
0.9000436
1.099644
1.299789
1.499905
0.7011575
0.9068239
1.100553
1.29985
1.499983
0.2580188
0.4981475
0.6979257
0.8989895
1.099459
1.299756
1.499947
0.4522991
0.7025429
0.9008465
1.099964
1.299934
1.499968
0.2583353
0.4995004
0.6993831
0.8994685
1.099631
1.299775
1.499871
0.3061786
0.4963307
0.6975435
0.8984924
1.099107
1.299475
1.499697
0.3034154
0.4932503
0.6955948
0.8973244
1.098438
1.299098
1.49948
0.302468
0.4918832
0.6943706
0.8964119
1.097847
1.298742
1.49927
0.3022326
0.4913715
0.6937625
0.8958639
1.097441
1.298471
1.499104
0.3021706
0.4911788
0.6934787
0.8955742
1.097201
1.298298
1.49899
0.3021498
0.4911032
0.6933501
0.8954286
1.09707
1.298198
1.498919
0.3021434
0.4910752
0.6932961
0.8953614
1.097006
1.298144
1.498879
0.3021431
0.4910705
0.6932813
0.8953386
1.096981
1.298122
1.49886
0.3021458
0.4910778
0.69329
0.8953458
1.096985
1.298123
1.498858
0.3021507
0.4910963
0.6933212
0.8953826
1.097019
1.298148
1.498873
0.3021609
0.4911357
0.6933901
0.8954647
1.097094
1.298204
1.498909
0.3021833
0.4912199
0.6935328
0.8956297
1.097242
1.298311
1.498974
0.3022338
0.4913997
0.6938254
0.8959543
1.09752
1.298496
1.499083
0.3023535
0.4917922
0.6944232
0.8965866
1.097947
1.298776
1.499249
0.3027009
0.492689
0.6956457
0.8974662
1.098541
1.299146
1.499466
0.3038838
0.4947952
0.6974493
0.898734
1.099274
1.299528
1.499689
0.3071877
0.4980195
0.6999953
0.9001923
1.099849
1.29978
1.499849
0.256739
0.4497968
0.7006232
0.9000409
1.099641
1.299789
1.499909
0.7011575
0.9068239
1.100553
1.29985
1.499983
0.2580139
0.4981476
0.6979259
0.8989897
1.099459
1.299756
1.499947
0.4523125
0.7023627
0.9007042
1.099965
1.299943
1.499971
0.2583509
0.4996996
0.6995156
0.8995462
1.099679
1.299805
1.49989
0.3066747
0.4969371
0.697961
0.8987279
1.099236
1.299551
1.499743
0.3041597
0.4942497
0.6963212
0.8977611
1.098685
1.29924
1.499565
0.3033623
0.4930805
0.6953016
0.8970137
1.098203
1.298956
1.499398
0.3031628
0.4926472
0.6947967
0.8965704
1.097875
1.298745
1.499268
0.3031101
0.4924852
0.694562
0.8963362
1.097684
1.29861
1.499179
0.3030932
0.4924234
0.6944573
0.8962191
1.097581
1.29853
1.499123
0.3030904
0.4924055
0.6944176
0.8961671
1.097529
1.298488
1.499091
0.3030969
0.4924135
0.6944135
0.8961528
1.097511
1.298471
1.499077
0.3031042
0.492429
0.6944273
0.896162
1.097516
1.298472
1.499076
0.3031071
0.4924435
0.6944538
0.8961926
1.097543
1.298492
1.499088
0.303113
0.4924723
0.6945086
0.8962584
1.097604
1.298537
1.499116
0.3031309
0.4925415
0.6946255
0.8963912
1.09772
1.29862
1.499167
0.3031769
0.4926988
0.6948707
0.8966519
1.097932
1.298763
1.499251
0.3032893
0.493048
0.695374
0.897156
1.098292
1.298986
1.49938
0.3035946
0.4938229
0.6963965
0.8979215
1.098795
1.299285
1.499552
0.3046026
0.4956232
0.6979092
0.8989452
1.099384
1.299599
1.499736
0.3076423
0.4984103
0.6999776
0.9001188
1.099851
1.299813
1.499877
0.2567773
0.4498379
0.7006654
0.8999549
1.099691
1.299839
1.499943
0.7005054
0.9067587
1.10054
1.299863
1.499985
0.2580344
0.498389
0.6981506
0.8991146
1.099528
1.299787
1.499955
0.4520476
0.7013544
0.9003724
1.099967
1.299963
1.499975
0.2585405
0.5001383
0.6996809
0.8996441
1.099749
1.299854
1.499927
0.3080938
0.4985358
0.6986691
0.8990743
1.099436
1.299676
1.499824
0.3066081
0.4968452
0.6975847
0.898426
1.099075
1.299473
1.499708
0.3060726
0.4961059
0.6969177
0.8979458
1.098779
1.299297
1.499606
0.3059453
0.4958286
0.6965882
0.8976677
1.098582
1.299171
1.499527
0.305912
0.495724
0.6964352
0.8975199
1.098466
1.299088
1.499474
0.3059026
0.4956864
0.6963696
0.8974469
1.098402
1.29904
1.49944
0.3059097
0.4956896
0.6963528
0.8974175
1.098372
1.299014
1.499421
0.3059496
0.4957447
0.6963709
0.8974149
1.098363
1.299004
1.499412
0.3059886
0.4958006
0.696396
0.8974261
1.098367
1.299006
1.499411
0.3059741
0.4957906
0.6964118
0.8974463
1.098385
1.299018
1.499419
0.3059628
0.4957897
0.6964404
0.8974864
1.098422
1.299046
1.499436
0.3059645
0.4958227
0.6965127
0.8975694
1.098493
1.299096
1.499466
0.3060025
0.4959396
0.6966802
0.8977342
1.098621
1.299182
1.499516
0.3061324
0.4962443
0.6970346
0.8980427
1.098837
1.299317
1.499592
0.3063818
0.496812
0.6977183
0.8985729
1.099164
1.299505
1.499694
0.307031
0.4979043
0.698751
0.8992659
1.099553
1.299713
1.49981
0.3089513
0.4994901
0.6999469
0.8999765
1.099858
1.299865
1.499912
0.2571586
0.449946
0.7001713
0.899867
1.09982
1.299927
1.499987
0.70415
0.9045971
1.100341
1.299913
1.499988
0.2582309
0.4990448
0.6987318
0.8993859
1.099678
1.299855
1.499968
0.4515449
0.6521234
0.8492092
1.048991
1.249018
1.448973
1.648994
0.2588187
0.5001061
0.6995476
0.899683
1.099803
1.299901
1.499994
0.2578831
0.4996203
0.6989523
0.8993217
1.099628
1.299812
1.499916
0.2564382
0.4989564
0.6983997
0.8989923
1.09945
1.299716
1.499859
0.2562791
0.4986388
0.6980796
0.8987719
1.099316
1.299638
1.499814
0.2562519
0.4985164
0.6979231
0.8986458
1.099229
1.299584
1.499781
0.2562471
0.4984692
0.6978517
0.8985799
1.099178
1.299549
1.499759
0.256246
0.4984549
0.6978235
0.8985485
1.099151
1.299528
1.499745
0.2562503
0.4984784
0.6978255
0.8985386
1.099138
1.299517
1.499737
0.256299
0.4986418
0.6978667
0.8985441
1.099136
1.299514
1.499733
0.2564954
0.4988679
0.6979039
0.8985545
1.099139
1.299514
1.499733
0.2563868
0.4987513
0.6979066
0.8985638
1.099147
1.29952
1.499736
0.2563484
0.498723
0.6979097
0.8985801
1.099163
1.299531
1.499743
0.2563201
0.4986767
0.6979344
0.8986152
1.099193
1.299553
1.499756
0.256302
0.4987233
0.6980198
0.8986905
1.09925
1.29959
1.499776
0.2564004
0.4990946
0.6982336
0.8988367
1.099347
1.299648
1.499806
0.2566641
0.4996058
0.6985868
0.8990825
1.099499
1.29973
1.499844
0.2565695
0.4998646
0.699116
0.8994488
1.09971
1.299829
1.499881
0.2567951
0.5002562
0.6996487
0.8997921
1.099909
1.299916
1.499898
0.2575824
0.4499825
0.6500757
0.850123
1.050057
1.250066
1.450078
1.650076
0.2586087
0.4996844
0.6993142
0.8996756
1.099847
1.299929
1.499987
0.4260264
0.6245028
0.8244691
1.024453
1.224753
1.424185
1.624474
0.2340943
0.4993675
0.6997368
0.8997398
1.099878
1.299953
1.500009
0.2577897
0.4998038
0.6996073
0.8995138
1.099784
1.29992
1.499975
0.2335726
0.4995965
0.6995198
0.8993853
1.099717
1.299891
1.49996
0.2335453
0.4994628
0.6994166
0.8993158
1.099678
1.299871
1.499949
0.2335433
0.4994163
0.6993657
0.8992796
1.099655
1.299858
1.499942
0.2335429
0.4994006
0.6993451
0.8992628
1.099643
1.299851
1.499937
0.2335428
0.4993965
0.6993382
0.8992554
1.099637
1.299846
1.499935
0.2335434
0.4994081
0.6993408
0.8992539
1.099635
1.299844
1.499933
0.2335739
0.4995091
0.6993605
0.8992571
1.099635
1.299843
1.499932
0.2331989
0.49968
0.6993788
0.8992614
1.099636
1.299844
1.499932
0.2339647
0.4996969
0.6993819
0.899264
1.099638
1.299845
1.499933
0.2340256
0.4997338
0.6993826
0.8992676
1.099641
1.299847
1.499934
0.233769
0.4996262
0.699385
0.8992753
1.099648
1.299852
1.499937
0.2336924
0.4995849
0.6994072
0.8992946
1.099661
1.29986
1.49994
0.2339341
0.4997911
0.699481
0.8993383
1.099688
1.299873
1.499944
0.2319899
0.5000053
0.6995968
0.8994187
1.099737
1.299893
1.499946
0.2332239
0.4999706
0.6996599
0.8995618
1.099828
1.299922
1.499935
0.2577709
0.4994735
0.699735
0.8998189
1.100033
1.29995
1.499829
0.2337442
0.4490491
0.649691
0.8498783
1.050017
1.249964
1.449919
1.650042
0.2336751
0.4489374
0.649637
0.8498973
1.050008
1.24997
1.449993
1.650079
0.3481452
0.3775802
0.23331
0.3475128
0.4503376
0.5510041
0.4260263
0.5755735
0.4488329
0.5494723
0.6489444
0.7508799
0.6245028
0.775548
0.6497582
0.7498448
0.8489654
0.950946
0.8244693
0.9755348
0.8499444
0.9499316
1.049005
1.15097
1.024463
1.175535
1.049999
1.149958
1.249018
1.350976
1.224464
1.375536
1.250017
1.349967
1.449022
1.550978
1.424464
1.575536
1.450024
1.549971
1.649023
1.624464
1.650027
0.3465814
0.348946
0.2340752
0.3483325
0.2335938
0.3481737
0.3492122
0.3493173
0.2335825
0.3480349
0.2335557
0.3479181
0.3493022
0.3492918
0.233552
0.3478632
0.2335449
0.3478191
0.3492855
0.3492794
0.2335445
0.3478024
0.2335434
0.3477882
0.3492778
0.3492761
0.2335433
0.3477837
0.233543
0.3477792
0.3492758
0.3492754
0.233543
0.3477777
0.2335429
0.3477763
0.3492753
0.3492753
0.2335429
0.3477758
0.2335429
0.3477753
0.3492753
0.3492753
0.2335429
0.3477751
0.2335428
0.347775
0.3492753
0.3492753
0.2335429
0.3477748
0.2335428
0.3477749
0.3492754
0.3492753
0.2335429
0.3477748
0.2335429
0.3477751
0.3492753
0.3492753
0.2335428
0.3477747
0.2335429
0.3477756
0.3492753
0.3492754
0.2335428
0.3477749
0.2335429
0.3477766
0.3492754
0.3492757
0.2335429
0.3477755
0.233543
0.3477789
0.349276
0.3492774
0.233543
0.3477773
0.2335432
0.3477844
0.3492784
0.3492828
0.2335432
0.3477825
0.2335439
0.3477987
0.3492877
0.3492911
0.2335438
0.3477991
0.2335459
0.3478395
0.3493005
0.3491728
0.2335459
0.3478566
0.2335565
0.3479729
0.3488785
0.3464828
0.2335602
0.3480889
0.233621
0.3485077
0.3479276
0.3740116
0.2335821
0.3488153
0.376891
0.3876691
0.3734807
0.2299725
0.374515
0.5877924
0.4234497
0.5753949
0.4245546
0.5747969
0.7877956
0.6244155
0.7755016
0.6248121
0.7749297
0.9877961
0.8244754
0.975513
0.8249217
0.9749801
1.187796
1.024483
1.175515
1.024962
1.174999
1.387796
1.224484
1.375515
1.224978
1.375008
1.587796
1.424485
1.575515
1.424986
1.575014
1.624485
1.624992
0.3456258
0.2336887
0.3488802
0.3771665
0.2341533
0.3493166
0.3789776
0.2337324
0.3496387
0.230346
0.3747986
0.2298378
0.3747573
0.3789822
0.2337238
0.3496483
0.3790131
0.2337088
0.3496331
0.2298285
0.3746963
0.2298084
0.3744913
0.3790221
0.2337053
0.3496133
0.3790372
0.2337011
0.3495946
0.2298056
0.3744508
0.2297999
0.3743673
0.3790416
0.2336982
0.3495802
0.3790324
0.233697
0.3495585
0.2297994
0.3743565
0.2297989
0.3743397
0.3790282
0.2336974
0.3495659
0.3790384
0.2336979
0.3495743
0.2297989
0.3743397
0.2297994
0.3743565
0.3790482
0.2336945
0.3495729
0.379048
0.2337005
0.3496055
0.2297999
0.3743673
0.2298055
0.3744508
0.3790341
0.2337045
0.3496277
0.378965
0.2337302
0.3496664
0.2298084
0.3744913
0.2298286
0.3746969
0.3789566
0.2337372
0.3496453
0.3771662
0.2341532
0.34932
0.2298382
0.3747587
0.2303651
0.3748272
0.3775815
0.2333175
0.3475466
0.3481745
0.5755735
0.4488516
0.5494789
0.4503507
0.551007
0.7755479
0.6497613
0.7498458
0.648945
0.7508799
0.9755301
0.8499443
0.9499298
0.8489652
0.9509456
1.17559
1.04999
1.14991
1.049003
1.150964
1.375056
1.249844
1.350055
1.248966
1.351005
1.57555
1.450127
1.549991
1.449031
1.55098
1.650031
1.649024
0.3485002
0.2338535
0.3488748
0.3466864
0.3495713
0.3488496
0.2336508
0.3486232
0.3502272
0.3499398
0.3480308
0.2335474
0.3478503
0.3494026
0.3493047
0.3478089
0.2335434
0.3477898
0.3492876
0.3492797
0.347784
0.233543
0.3477792
0.3492776
0.3492758
0.3477778
0.2335429
0.3477764
0.3492754
0.349275
0.3477765
0.233543
0.3477777
0.3492751
0.3492753
0.3477835
0.2335532
0.3478098
0.349276
0.3492814
0.3479354
0.2342402
0.3484668
0.3493075
0.3493984
0.3495574
0.2342663
0.3492065
0.3497757
0.3496521
0.3488721
0.2338714
0.3490133
0.3499415
0.3501835
0.3486446
0.2338488
0.3487154
0.3498738
0.3500382
0.348258
0.23372
0.3483106
0.3495925
0.3496006
0.3501812
0.2319988
0.3502249
0.3499224
0.3499276
0.3496264
0.234106
0.3495049
0.34989
0.3502602
0.348815
0.2577182
0.3490024
0.3500098
0.3475127
0.3493882
0.3768934
0.3485125
0.3740181
0.2299954
0.3745818
0.3876727
0.3735696
0.4245981
0.574793
0.412126
0.5879182
0.4236515
0.5753644
0.6248142
0.7749294
0.6123057
0.7878543
0.6244104
0.7755017
0.8249193
0.974987
0.8122993
0.9873425
0.8244756
0.9755481
1.024996
1.174965
1.01056
1.024681
1.175317
1.224972
1.375009
1.224449
1.375514
1.424982
1.575004
1.58795
1.424481
1.575516
1.625011
1.612259
1.624646
0.3490401
0.3458002
0.2663208
0.2682704
0.2654375
0.266655
0.2655394
0.2667037
0.2653622
0.2670685
0.26539
0.2671068
0.2653491
0.2670833
0.2653647
0.2671093
0.265346
0.2670797
0.2653589
0.2671081
0.2653452
0.2670791
0.2653575
0.2671078
0.265345
0.2670789
0.2653572
0.2671077
0.265345
0.2670789
0.2653571
0.2671077
0.265345
0.2670789
0.265357
0.2671077
0.265345
0.2670789
0.265357
0.2671077
0.265345
0.2670789
0.265357
0.2671077
0.265345
0.2670789
0.265357
0.2671077
0.265345
0.2670789
0.2653571
0.2671077
0.2653451
0.2670789
0.265357
0.2671077
0.2653452
0.2670788
0.2653571
0.2671078
0.2653457
0.267079
0.2653573
0.2671079
0.2653474
0.2670794
0.2653582
0.2671088
0.2653549
0.2670822
0.2653623
0.2671068
0.265401
0.2670418
0.2653863
0.266833
0.2659686
0.2666148
0.2656242
0.2656051
0.5509673
0.4245407
0.5749629
0.4488793
0.5494491
0.4258707
0.5754609
0.7508945
0.624964
0.7750012
0.6497173
0.7498674
0.6244859
0.7755007
0.9509684
0.8249893
0.9750063
0.8499361
0.9499631
0.8245206
0.9755051
1.150993
1.024993
1.175007
1.049993
1.149985
1.024526
1.175502
1.350998
1.224993
1.375007
1.250008
1.349989
1.224523
1.375496
1.550999
1.424993
1.575007
1.450011
1.549988
1.424516
1.575489
1.624993
1.650007
1.624509
0.2873289
0.286787
0.2873717
0.2867778
0.4876953
0.4877782
0.4121214
0.412281
0.4876994
0.4122784
0.4877789
0.6876984
0.687795
0.6122017
0.6122961
0.6877041
0.6122855
0.6877953
0.8877016
0.8877959
0.8122037
0.8123008
0.8877045
0.8122922
0.887796
1.087703
1.087796
1.012204
1.012301
1.087703
1.012294
1.087796
1.287704
1.287796
1.212204
1.2123
1.287702
1.212295
1.287796
1.487704
1.487796
1.412204
1.412299
1.487701
1.412296
1.487796
1.612204
1.612299
1.612296
0.265655
0.265246
0.2659805
0.2664231
0.2675742
0.2675055
0.3506818
0.3766504
0.2576783
0.3505864
0.3784162
0.2850367
0.2849819
0.2849879
0.2849812
0.2675797
0.2675772
0.3503201
0.3784159
0.2571599
0.3499091
0.3784143
0.2850151
0.2849991
0.28503
0.2850135
0.2675789
0.2675898
0.3497214
0.3784119
0.2567772
0.3495839
0.3784009
0.2849767
0.2849652
0.2849878
0.2849586
0.2675761
0.2675938
0.3495411
0.3783972
0.2567389
0.349517
0.3783918
0.2849728
0.2849584
0.2849745
0.2849588
0.2675571
0.2675665
0.3495172
0.3783919
0.2567522
0.3495418
0.3783976
0.2849727
0.2849585
0.284973
0.2849587
0.2675996
0.2676053
0.3495848
0.3784014
0.256911
0.3497229
0.3784125
0.2849763
0.2849585
0.2849745
0.2849587
0.2676039
0.2676003
0.3499081
0.378415
0.2581984
0.3503101
0.378417
0.2850128
0.2849777
0.2849973
0.2850154
0.2675776
0.2675609
0.3505552
0.3784178
0.2584832
0.3507213
0.3766485
0.2850411
0.285038
0.2850318
0.2850425
0.266961
0.2673682
0.3493566
0.234008
0.3492635
0.3504478
0.3503845
0.3489822
0.2332122
0.3495188
0.3500663
0.3498438
0.5494846
0.4259436
0.5753502
0.4503337
0.5509784
0.4245702
0.5736182
0.7498516
0.6243126
0.775495
0.6488682
0.7508901
0.6225434
0.7749968
0.9499543
0.8243767
0.975706
0.8488687
0.9510025
0.8226466
0.9771542
1.150051
1.024931
1.150147
1.049043
1.15094
1.027113
1.175032
1.350059
1.250072
1.349995
1.248976
1.351052
1.224933
1.375156
1.549976
1.449808
1.575039
1.449007
1.550941
1.425056
1.572769
1.624388
1.649016
1.625102
0.2850589
0.2849852
0.285017
0.28506
0.2657826
0.2668462
0.2655798
0.2661701
0.2669724
0.2673415
0.2654198
0.2670466
0.2653955
0.2668581
0.2653598
0.2670821
0.2653652
0.2671097
0.2653485
0.2670794
0.265359
0.2671092
0.2653459
0.267079
0.2653576
0.267108
0.2653452
0.2670789
0.2653571
0.2671077
0.265345
0.2670789
0.2653571
0.2671077
0.265345
0.2670789
0.265357
0.2671077
0.265345
0.2670789
0.265357
0.2671077
0.265345
0.2670789
0.265357
0.2671077
0.265345
0.2670789
0.2653571
0.2671077
0.265345
0.2670789
0.265357
0.2671077
0.265345
0.2670788
0.2653571
0.2671077
0.265345
0.267079
0.2653572
0.2671077
0.2653451
0.2670789
0.2653575
0.2671077
0.2653456
0.2670795
0.2653585
0.267108
0.2653475
0.2670816
0.2653623
0.2671089
0.2653568
0.2670589
0.2653802
0.2671049
0.2654223
0.2665492
0.265521
0.2666677
0.2665946
0.2673923
0.2700018
0.2668736
0.3135879
0.3115301
0.3876701
0.3876957
0.3136052
0.3876937
0.3115262
0.2699811
0.2666454
0.2665979
0.2673653
0.2850654
0.2849865
0.2850979
0.2849851
0.5122832
0.5121917
0.5877932
0.5877024
0.5122906
0.5876953
0.5121922
0.7122896
0.7122033
0.7877958
0.7877047
0.712299
0.7877008
0.7122034
0.9122934
0.912204
0.987796
0.987704
0.9123009
0.987702
0.9122039
1.112295
1.112204
1.187796
1.187703
1.1123
1.187703
1.112204
1.312296
1.312204
1.387796
1.387702
1.3123
1.387704
1.312204
1.512296
1.512204
1.587796
1.587701
1.512299
1.587704
1.512204
0.2675906
0.2675788
0.2850412
0.2849813
0.2849725
0.2850319
0.267577
0.2675743
0.2850128
0.2849776
0.285014
0.2849973
0.2675879
0.2675934
0.2849764
0.2849584
0.2849587
0.2849745
0.2675737
0.2675775
0.2849728
0.2849585
0.2849588
0.284973
0.2675752
0.2675906
0.2849729
0.2849583
0.2849589
0.2849744
0.2675971
0.2675931
0.2849768
0.2849653
0.2849587
0.2849878
0.2675731
0.2675743
0.2850152
0.2850368
0.2850173
0.2850301
0.2675605
0.2675293
0.2850386
0.284989
0.2850378
0.2850296
0.2663417
0.2684159
0.3215989
0.3749114
0.3737312
0.3231176
0.2658008
0.2668636
0.2655998
0.2662113
0.4747297
0.4242584
0.4244127
0.4755418
0.524838
0.5755854
0.5749164
0.524614
0.6749673
0.6243309
0.6249367
0.6754295
0.7249764
0.7756148
0.7749876
0.724526
0.8749927
0.8243574
0.8249856
0.8754491
0.9249947
0.9756271
0.9749979
0.9245404
1.074995
1.024367
1.024993
1.075454
1.124994
1.17563
1.175
1.124544
1.274434
1.224374
1.225001
1.275226
1.325003
1.375858
1.325
1.375565
1.324526
1.475001
1.424371
1.424995
1.475453
1.525005
1.575631
1.575006
1.524546
1.62437
1.624999
0.2656639
0.2666744
0.2655895
0.2667876
0.2666422
0.2282147
0.268219
0.2688214
0.2673748
0.269796
0.2296647
0.268469
0.2698322
0.2296601
0.2685021
0.2687737
0.2675971
0.2282083
0.2665872
0.2682758
0.2653962
0.2671654
0.2655912
0.2671235
0.2653604
0.2670792
0.2653619
0.267112
0.2653452
0.2670788
0.2653591
0.2671069
0.2653448
0.2670777
0.2653564
0.2671067
0.265344
0.2670777
0.2653563
0.2671064
0.2653441
0.2670775
0.2653559
0.2671063
0.2653439
0.2670775
0.265356
0.2671063
0.2653439
0.2670775
0.2653559
0.2671063
0.2653438
0.2670775
0.2653559
0.2671063
0.2653439
0.2670775
0.265356
0.2671063
0.2653447
0.2670775
0.2653562
0.2671063
0.2653456
0.2670778
0.2653616
0.2671063
0.2653827
0.2670792
0.2653717
0.2671109
0.2654218
0.2670952
0.2654585
0.2671147
0.2698362
0.2678135
0.2667946
0.2287387
0.269159
0.2686251
0.267599
0.2666357
0.228398
0.2682489
0.2688452
0.2681344
0.2285809
0.2679042
0.2683189
0.2666791
0.2678772
0.2670119
0.2676409
0.269029
0.2295827
0.2685133
0.2285322
0.2703016
0.2682976
0.2667846
0.2674002
0.2700101
0.2669431
0.2873585
0.286789
0.2873252
0.2867894
0.3136023
0.3876933
0.311528
0.3876667
0.3135832
0.3876447
0.3115349
0.2708305
0.2272068
0.2674687
0.2682061
0.2678047
0.412279
0.4876762
0.4120675
0.4847864
0.4116749
0.4878398
0.5155218
0.5120671
0.5877878
0.5876914
0.5122898
0.6876991
0.6152157
0.6877847
0.6121979
0.6876522
0.6122825
0.6877953
0.7122901
0.7121444
0.7877957
0.7116876
0.7877009
0.7122035
0.8876997
0.8155453
0.8877805
0.8122036
0.8876967
0.8122921
0.8877963
0.9122909
0.9848493
0.9121884
0.9877926
0.91229
0.9876454
0.9122055
1.01215
1.011685
1.087769
1.18785
1.188313
1.112231
1.287706
1.212207
1.212352
1.287795
1.312298
1.387796
1.387704
1.312204
1.487701
1.412204
1.412296
1.487794
1.512293
1.588339
1.516245
1.587754
1.587639
1.512203
1.612371
1.612069
1.611671
0.2658295
0.2657114
0.2669375
0.2664964
0.2273083
0.2300799
0.4747275
0.4242516
0.4244071
0.4755397
0.6749672
0.6243309
0.6249365
0.6754295
0.8749929
0.8243574
0.8249856
0.8754492
1.074998
1.024367
1.024995
1.075454
1.274999
1.224369
1.224997
1.275455
1.475
1.42437
1.424998
1.475455
1.62437
1.624998
0.2251655
0.2269337
0.2251969
0.2268954
0.225156
0.2269523
0.2251713
0.2269334
0.2251559
0.2269523
0.2251702
0.2269351
0.2251559
0.2269527
0.2251701
0.2269356
0.2251559
0.2269526
0.22517
0.2269356
0.2251559
0.2269526
0.22517
0.2269355
0.2251559
0.2269525
0.22517
0.2269355
0.2251558
0.2269525
0.22517
0.2269354
0.2251558
0.2269525
0.22517
0.2269354
0.2251558
0.2269525
0.22517
0.2269354
0.2251558
0.2269525
0.22517
0.2269354
0.2251558
0.2269525
0.22517
0.2269354
0.2251559
0.2269525
0.22517
0.2269355
0.2251559
0.2269526
0.22517
0.2269355
0.2251559
0.2269526
0.22517
0.2269356
0.2251559
0.2269526
0.2251701
0.2269356
0.2251559
0.226952
0.2251701
0.2269349
0.2251569
0.2269509
0.2251707
0.2269241
0.2251939
0.2269168
0.2251922
0.226801
0.2366887
0.2351221
0.4377489
0.4124665
0.4374419
0.6377939
0.6125244
0.6374729
0.8377954
0.8125264
0.8374739
1.037796
1.012527
1.037474
1.237796
1.212526
1.237474
1.437796
1.412526
1.437474
1.637796
1.612526
1.637474
0.2252121
0.2267401
0.2252651
0.2267085
0.5495457
0.4489042
0.549341
0.7498885
0.6496392
0.7498039
0.949978
0.8498962
0.9499376
1.149996
1.049967
1.149976
1.350001
1.249991
1.349991
1.550003
1.450001
1.549998
1.650006
0.2269258
0.2269391
0.2354748
0.2355171
0.3508039
0.2586049
0.3507521
0.2269207
0.226934
0.235552
0.2355753
0.35053
0.2582308
0.3502933
0.227042
0.2270413
0.2354626
0.2354523
0.3501436
0.2580344
0.3500524
0.2269465
0.2270482
0.2354488
0.2354488
0.3500117
0.2580138
0.3499942
0.2269811
0.2270254
0.2354488
0.2354487
0.3499942
0.2580187
0.3500118
0.22705
0.2270245
0.2354488
0.2354488
0.3500524
0.2580824
0.3501437
0.2270266
0.2269376
0.23549
0.2355421
0.3502937
0.2583983
0.3505314
0.2269467
0.2269457
0.2356079
0.2356078
0.3507588
0.2590246
0.350845
0.2269568
0.2270687
0.2354548
0.2354513
0.5493276
0.4488483
0.5495053
0.7498044
0.6497431
0.7498886
0.9499581
0.8499466
0.9500035
1.149936
1.050043
1.149938
1.349986
1.249968
1.349996
1.550012
1.449994
1.550046
0.3215692
0.3748887
0.3737178
0.3230394
0.2252174
0.2269347
0.2251969
0.2268652
0.2269515
0.2269479
0.5248371
0.5755853
0.5749161
0.5246133
0.7249764
0.7756148
0.7749876
0.7245259
0.9249951
0.9756273
0.9749988
0.9245404
1.124999
1.17563
1.175002
1.124544
1.325
1.37563
1.375002
1.324545
1.525
1.57563
1.575002
1.524545
0.2251576
0.2269493
0.2251703
0.2269248
0.225156
0.2269517
0.22517
0.2269348
0.2251559
0.2269526
0.2251701
0.2269355
0.2251559
0.2269526
0.22517
0.2269356
0.2251559
0.2269526
0.22517
0.2269355
0.2251559
0.2269525
0.22517
0.2269355
0.2251558
0.2269525
0.22517
0.2269354
0.2251558
0.2269525
0.22517
0.2269354
0.2251558
0.2269525
0.22517
0.2269354
0.2251558
0.2269525
0.22517
0.2269354
0.2251558
0.2269525
0.22517
0.2269354
0.2251558
0.2269525
0.22517
0.2269354
0.2251559
0.2269526
0.22517
0.2269355
0.2251559
0.2269526
0.22517
0.2269356
0.2251559
0.2269526
0.2251701
0.2269356
0.2251559
0.2269522
0.2251701
0.2269352
0.225156
0.2269511
0.2251707
0.2269338
0.2251637
0.2269075
0.2251861
0.2268894
0.2255889
0.2275781
0.2264073
0.227243
0.3209678
0.3739247
0.3226769
0.3743274
0.3729818
0.324515
0.3216036
0.2705239
0.229969
0.2740033
0.2285121
0.2728504
0.2729175
0.3619764
0.3873803
0.3623362
0.2253734
0.2268799
0.2252966
0.2269999
0.3245113
0.37398
0.3212134
0.3730064
0.3743319
0.3209786
0.3226386
0.2354553
0.2354618
0.2728412
0.2285132
0.2729244
0.2705287
0.2740052
0.5621996
0.5874715
0.5625226
0.4748095
0.4245165
0.4750124
0.4239627
0.4246182
0.4744662
0.4747877
0.5248962