/*--------------------------------*- C++ -*----------------------------------*\
  =========                 |
  \\      /  F ield         | OpenFOAM: The Open Source CFD Toolbox
   \\    /   O peration     | Website:  https://openfoam.org
    \\  /    A nd           | Version:  7
     \\/     M anipulation  |
\*---------------------------------------------------------------------------*/
FoamFile
{
    version     2.0;
    format      ascii;
    class       volScalarField;
    location    "0.1";
    object      Cy;
}
// * * * * * * * * * * * * * * * * * * * * * * * * * * * * * * * * * * * * * //

dimensions      [0 1 0 0 0 0 0];

internalField   nonuniform List<scalar> 
90967
(
0.4992635
0.4996159
0.4995587
0.4994617
0.4994208
0.4994092
0.6997275
0.6995948
0.6995147
0.6994187
0.6993729
0.6993581
0.89974
0.8995127
0.8993859
0.8993195
0.8992878
0.8992766
1.099892
1.099786
1.099719
1.099681
1.099662
1.099655
1.299962
1.299921
1.299892
1.299873
1.299863
1.299859
1.499987
1.499972
1.49996
1.499951
1.499946
1.499944
1.699996
1.699992
1.699989
1.699986
1.699984
1.699983
1.900001
1.900003
1.900005
1.900006
1.900006
1.900006
2.100006
2.100013
2.10002
2.100025
2.100028
2.100029
2.300012
2.300027
2.300041
2.300053
2.300059
2.300061
2.500023
2.500051
2.500078
2.500099
2.500111
2.500114
2.700042
2.700095
2.700144
2.700182
2.700204
2.700208
2.90008
2.900178
2.900267
2.900334
2.900371
2.900378
3.100153
3.100336
3.100495
3.10061
3.100673
3.100685
3.3003
3.300644
3.300926
3.301119
3.301218
3.301238
3.500572
3.501188
3.501657
3.501957
3.502104
3.502134
3.700817
3.701631
3.702236
3.70265
3.702837
3.702872
3.901788
3.902477
3.903122
3.903504
3.903647
3.90366
4.048801
4.046045
4.04602
4.046077
4.046097
4.046098
4.046077
4.204258
4.204252
4.204252
4.204252
4.204252
4.204252
4.204252
4.450006
4.450358
4.450363
4.450357
4.450356
4.450357
4.450365
0.2590681
0.2584716
0.2581544
0.2580878
0.2580777
0.258076
0.2580779
0.4507446
0.500053
0.4995428
0.4989309
0.4986425
0.4985335
0.498501
0.6504181
0.6995338
0.698936
0.6983971
0.6980937
0.6979549
0.6979051
0.850016
0.899685
0.8993234
0.8990004
0.8987925
0.8986846
0.8986421
1.049987
1.099829
1.099638
1.099462
1.099338
1.099267
1.099238
1.249992
1.299916
1.29982
1.299729
1.299661
1.29962
1.299601
1.449994
1.499962
1.499918
1.499875
1.499841
1.499819
1.499809
1.649995
1.699988
1.699974
1.69996
1.699948
1.69994
1.699936
1.849995
1.900007
1.900015
1.900024
1.900031
1.900034
1.900033
2.049996
2.100026
2.10006
2.100094
2.100121
2.100136
2.100139
2.249996
2.300056
2.300126
2.300197
2.300253
2.300286
2.300294
2.449997
2.500105
2.500239
2.500371
2.500476
2.500537
2.500551
2.649999
2.700196
2.70044
2.70068
2.700868
2.700976
2.701
2.850002
2.900362
2.900809
2.90124
2.901569
2.901754
2.901795
3.050009
3.100675
3.101496
3.102263
3.102828
3.103137
3.103206
3.250023
3.301282
3.302797
3.304151
3.305092
3.305582
3.305692
3.450052
3.502507
3.505327
3.507667
3.509151
3.509868
3.51003
3.650126
3.705203
3.710445
3.714295
3.716407
3.717314
3.717507
3.850195
3.912326
3.919997
3.924612
3.926666
3.927372
3.927472
4.051196
4.065502
4.07244
4.075527
4.076653
4.076937
4.076962
4.076827
4.448859
4.489122
4.488697
4.488923
4.488963
4.488968
4.488977
0.2586912
0.3080818
0.3066083
0.3060756
0.3059537
0.3059269
0.4517831
0.500128
0.4985246
0.4968459
0.4961218
0.4958633
0.495783
0.7013524
0.6996752
0.6986687
0.6975987
0.6969538
0.6966569
0.696547
0.9003722
0.8996473
0.8990842
0.898451
0.8979965
0.8977575
0.8976605
1.099963
1.099759
1.099453
1.099107
1.098837
1.098678
1.098609
1.299962
1.299862
1.299697
1.299512
1.299361
1.299267
1.299224
1.499983
1.499932
1.49985
1.499759
1.499684
1.499634
1.499609
1.699994
1.699978
1.699952
1.699923
1.699898
1.69988
1.699868
1.900003
1.900016
1.900037
1.90006
1.900078
1.900086
1.900085
2.100012
2.100059
2.100136
2.100218
2.100285
2.100324
2.100332
2.300025
2.300123
2.300283
2.300454
2.300593
2.300675
2.300695
2.500047
2.500232
2.500533
2.500854
2.501112
2.501264
2.501302
2.700086
2.700429
2.700981
2.701561
2.702024
2.702293
2.702358
2.900161
2.900791
2.901795
2.902837
2.90365
2.904113
2.904226
3.100301
3.101465
3.103298
3.105156
3.106562
3.107336
3.107524
3.300574
3.302747
3.306113
3.309407
3.311763
3.312994
3.313296
3.501088
3.505252
3.511523
3.517296
3.521028
3.522817
3.523261
3.701799
3.710337
3.721516
3.730556
3.735605
3.737779
3.738305
3.903326
3.920177
3.936222
3.947779
3.953162
3.955047
3.955439
4.049675
4.072812
4.127975
4.134552
4.137218
4.137947
4.138062
4.334044
4.336108
4.3357
4.335647
4.335655
4.449456
4.488195
4.489389
4.490783
4.49107
4.491146
4.491169
0.2583938
0.3066739
0.3041616
0.3033681
0.3031741
0.3031288
0.4522759
0.499696
0.4969386
0.4942624
0.4931075
0.4926975
0.4925663
0.7023608
0.699514
0.6979717
0.6963507
0.6953598
0.6949001
0.6947256
0.9007046
0.8995517
0.8987461
0.8978041
0.897096
0.8967119
0.8965545
1.099965
1.099688
1.099262
1.098739
1.0983
1.098032
1.097917
1.299945
1.299816
1.299585
1.299307
1.299066
1.298909
1.298836
1.499975
1.499907
1.499791
1.499655
1.499534
1.499452
1.499411
1.699992
1.69997
1.699935
1.699893
1.699854
1.699825
1.699805
1.900004
1.900024
1.900059
1.900099
1.90013
1.900145
1.900143
2.100018
2.100087
2.100207
2.100342
2.100455
2.100522
2.100537
2.300038
2.300182
2.30043
2.300709
2.300944
2.301085
2.301122
2.500072
2.500343
2.500811
2.501332
2.501768
2.50203
2.502099
2.700133
2.700632
2.701489
2.702436
2.703217
2.703683
2.703805
2.900245
2.901161
2.902719
2.904422
2.905805
2.906614
2.906825
3.100458
3.102141
3.104976
3.108028
3.110445
3.111813
3.11217
3.300865
3.303973
3.309149
3.314626
3.318759
3.32094
3.321507
3.501588
3.507438
3.516961
3.526325
3.532591
3.535604
3.536395
3.702326
3.714053
3.73028
3.744085
3.751972
3.7554
3.756293
3.903317
3.924776
3.947758
3.96505
3.97329
3.976231
3.976918
4.04677
4.075973
4.134543
4.144704
4.148879
4.150083
4.150321
4.336099
4.341308
4.340677
4.340605
4.340621
4.44993
4.48839
4.490631
4.492981
4.493501
4.493652
4.493689
0.2583352
0.3061795
0.3034192
0.3024757
0.3022464
0.3021924
0.4522993
0.4994989
0.4963364
0.4932691
0.4919178
0.4914322
0.4912743
0.7025419
0.6993837
0.6975598
0.6956338
0.6944433
0.6938885
0.693675
0.9008473
0.899476
0.8985162
0.8973792
0.8965152
0.8960386
0.8958411
1.099965
1.099641
1.099139
1.098506
1.097969
1.097638
1.097491
1.299936
1.299789
1.299517
1.299183
1.298882
1.298682
1.298587
1.499971
1.499893
1.499757
1.499594
1.499445
1.499341
1.499287
1.699991
1.699966
1.699925
1.699876
1.699829
1.699792
1.699768
1.900005
1.900029
1.900073
1.900122
1.900163
1.900185
1.900183
2.100021
2.100103
2.100249
2.100417
2.100561
2.10065
2.100671
2.300044
2.300215
2.300517
2.300864
2.301162
2.301347
2.301398
2.500084
2.500407
2.500973
2.501622
2.502177
2.50252
2.502616
2.700156
2.700749
2.701786
2.702966
2.703966
2.704577
2.704748
2.900288
2.901374
2.903259
2.905385
2.907168
2.908242
2.908541
3.100535
3.102523
3.105949
3.109775
3.112952
3.114821
3.115334
3.301003
3.304645
3.310866
3.317759
3.323192
3.326126
3.326913
3.501805
3.508565
3.519847
3.531327
3.539233
3.543075
3.544109
3.702511
3.715776
3.734453
3.7507
3.760129
3.764265
3.765374
3.903444
3.926583
3.952556
3.972431
3.982013
3.985466
3.986296
4.046642
4.077066
4.137033
4.148596
4.153442
4.154845
4.15513
4.335681
4.340657
4.340083
4.340019
4.340038
4.449965
4.488429
4.49087
4.493431
4.494036
4.49422
4.494263
0.2583325
0.3061799
0.3034201
0.3024776
0.3022493
0.3021947
0.4523016
0.4994993
0.4963374
0.4932714
0.4919226
0.4914387
0.4912797
0.7025418
0.6993837
0.6975609
0.6956365
0.6944484
0.693895
0.6936807
0.9008473
0.8994762
0.8985171
0.8973812
0.8965185
0.896043
0.895845
1.099965
1.099642
1.099139
1.098507
1.097971
1.097641
1.097493
1.299936
1.299789
1.299518
1.299184
1.298883
1.298683
1.298589
1.499971
1.499893
1.499757
1.499594
1.499445
1.499342
1.499288
1.699991
1.699966
1.699925
1.699876
1.699829
1.699793
1.699768
1.900006
1.900029
1.900073
1.900122
1.900163
1.900185
1.900183
2.100021
2.100103
2.100249
2.100417
2.100562
2.10065
2.100672
2.300045
2.300216
2.300517
2.300864
2.301163
2.301348
2.3014
2.500084
2.500407
2.500974
2.501624
2.502179
2.502522
2.502619
2.700156
2.70075
2.701788
2.702969
2.70397
2.704582
2.704753
2.900288
2.901375
2.903263
2.905392
2.907178
2.908253
2.908551
3.100535
3.102525
3.105955
3.109787
3.112969
3.114841
3.115352
3.301003
3.304649
3.310877
3.31778
3.323222
3.326159
3.326943
3.501806
3.508571
3.519862
3.531357
3.539276
3.543123
3.54415
3.702512
3.715783
3.734471
3.750733
3.760176
3.764317
3.765418
3.903445
3.926587
3.952568
3.972453
3.982045
3.985503
3.986326
4.046641
4.077219
4.137035
4.148602
4.153452
4.154857
4.155139
4.335681
4.340657
4.340082
4.340018
4.340037
4.449964
4.488429
4.49087
4.49343
4.494034
4.494217
4.494259
0.2583552
0.3066751
0.3041653
0.3033781
0.3031896
0.3031407
0.4522917
0.4996959
0.4969416
0.494271
0.493128
0.4927276
0.4925907
0.7023596
0.699514
0.6979749
0.6963594
0.6953774
0.6949241
0.6947459
0.9007043
0.8995522
0.8987485
0.8978101
0.8971067
0.8967256
0.8965666
1.099965
1.099689
1.099263
1.098742
1.098306
1.098039
1.097923
1.299945
1.299817
1.299586
1.299309
1.299068
1.298912
1.29884
1.499975
1.499907
1.499791
1.499656
1.499536
1.499454
1.499412
1.699992
1.69997
1.699935
1.699893
1.699855
1.699826
1.699806
1.900005
1.900024
1.900059
1.900098
1.90013
1.900146
1.900144
2.100019
2.100086
2.100207
2.100342
2.100456
2.100524
2.100539
2.300038
2.300182
2.300431
2.300711
2.300946
2.301088
2.301125
2.500072
2.500345
2.500813
2.501336
2.501773
2.502036
2.502105
2.700133
2.700634
2.701494
2.702444
2.70323
2.703696
2.703817
2.900245
2.901165
2.902729
2.90444
2.90583
2.906642
2.90685
3.100459
3.102147
3.104994
3.108063
3.110495
3.111868
3.112219
3.300868
3.303984
3.309182
3.314689
3.31885
3.321041
3.321596
3.501592
3.507456
3.517013
3.526424
3.532735
3.535765
3.536532
3.702329
3.714077
3.730342
3.744204
3.752151
3.755602
3.75646
3.90332
3.924792
3.947802
3.965138
3.973432
3.976396
3.977048
4.046632
4.076717
4.134555
4.144731
4.148927
4.150141
4.150365
4.336099
4.341307
4.340675
4.340603
4.340618
4.449962
4.488389
4.490629
4.492977
4.493493
4.493641
4.493672
0.2585409
0.3080835
0.3066174
0.3061156
0.3060334
0.3059793
0.4520334
0.5001294
0.498529
0.4968643
0.496185
0.4959795
0.4958637
0.7013478
0.6996757
0.6986738
0.6976138
0.6969901
0.6967114
0.6965908
0.9003648
0.899648
0.8990876
0.8984595
0.898013
0.8977797
0.8976795
1.099963
1.099759
1.099455
1.099112
1.098844
1.098687
1.098617
1.299962
1.299862
1.299698
1.299514
1.299364
1.299271
1.299227
1.499983
1.499932
1.49985
1.49976
1.499685
1.499635
1.499611
1.699995
1.699978
1.699952
1.699924
1.699899
1.699881
1.699869
1.900004
1.900014
1.900036
1.90006
1.900078
1.900087
1.900085
2.100019
2.100052
2.100133
2.100218
2.100286
2.100325
2.100333
2.300025
2.300124
2.300284
2.300456
2.300596
2.300678
2.300698
2.500046
2.500238
2.500538
2.500859
2.501118
2.50127
2.501308
2.700086
2.700433
2.700988
2.701572
2.702038
2.702308
2.702372
2.900159
2.900796
2.901808
2.902859
2.903681
2.904147
2.904256
3.100303
3.101471
3.103322
3.105205
3.10663
3.107412
3.107591
3.300586
3.302755
3.30616
3.309505
3.311907
3.313154
3.313433
3.501095
3.505282
3.511612
3.517476
3.521301
3.523125
3.523515
3.701809
3.710392
3.721645
3.730821
3.736036
3.738278
3.7387
3.903341
3.920218
3.936328
3.948026
3.953632
3.955627
3.955866
4.047118
4.074772
4.128011
4.134653
4.137443
4.138237
4.138266
4.334043
4.336105
4.335694
4.335642
4.335646
4.449694
4.488193
4.489385
4.490773
4.491052
4.491123
4.491126
0.2588479
0.257824
0.2564689
0.2563083
0.2564607
0.2563927
0.2562677
0.451662
0.5000501
0.4995454
0.4989536
0.498774
0.4989098
0.4986954
0.6521282
0.699536
0.6989405
0.6984123
0.698141
0.6980358
0.697967
0.8490888
0.8996888
0.8993267
0.8990072
0.8988071
0.898706
0.8986598
1.048993
1.09983
1.09964
1.099465
1.099343
1.099274
1.099244
1.248987
1.299916
1.299821
1.29973
1.299663
1.299622
1.299603
1.44899
1.499962
1.499918
1.499875
1.499841
1.49982
1.49981
1.648991
1.699987
1.699973
1.69996
1.699949
1.699941
1.699936
1.848991
1.9
1.900012
1.900023
1.900031
1.900034
1.900033
2.048994
2.099991
2.100052
2.100093
2.100121
2.100137
2.10014
2.249014
2.300063
2.300128
2.300198
2.300255
2.300288
2.300296
2.448995
2.50012
2.500244
2.500374
2.50048
2.500541
2.500555
2.649005
2.700203
2.700446
2.700688
2.700877
2.700986
2.701009
2.849004
2.900372
2.90082
2.901257
2.901593
2.901781
2.901819
3.049012
3.100673
3.101515
3.102307
3.102892
3.103208
3.103266
3.249048
3.301244
3.302836
3.304255
3.305253
3.305764
3.305842
3.449098
3.502539
3.505434
3.507904
3.509534
3.510311
3.510382
3.649287
3.705328
3.710643
3.714748
3.71723
3.718302
3.718249
3.849083
3.912442
3.920215
3.925205
3.928107
3.92925
3.928735
4.04833
4.069919
4.08217
4.088904
4.09191
4.093069
4.092838
4.091981
4.449302
4.489096
4.488687
4.488894
4.488871
4.488915
4.488846
0.2340768
0.2335824
0.2335522
0.2335536
0.2342262
0.2342407
0.233554
0.4260371
0.4992351
0.4996154
0.499567
0.499532
0.4996618
0.4995215
0.649974
0.6997464
0.6995967
0.6995196
0.6994369
0.6994069
0.6993835
0.8242449
0.8997507
0.899514
0.8993878
0.8993243
0.8992955
0.8992827
1.024463
1.099893
1.099787
1.09972
1.099682
1.099664
1.099657
1.224464
1.299962
1.299921
1.299892
1.299874
1.299864
1.29986
1.424464
1.499987
1.499972
1.49996
1.499951
1.499947
1.499944
1.624464
1.699996
1.699992
1.699989
1.699986
1.699984
1.699983
1.824464
1.899998
1.900002
1.900004
1.900006
1.900007
1.900006
2.02445
2.099984
2.10001
2.100019
2.100025
2.100028
2.100029
2.224944
2.30001
2.300027
2.300042
2.300053
2.30006
2.300061
2.424651
2.500014
2.500053
2.500079
2.5001
2.500113
2.500115
2.624561
2.70005
2.700098
2.700147
2.700186
2.700208
2.700212
2.82435
2.900091
2.900182
2.900274
2.900345
2.900384
2.900389
3.02424
3.100152
3.100346
3.100519
3.100649
3.100717
3.100721
3.224597
3.300285
3.300673
3.301
3.301244
3.301363
3.301353
3.424449
3.500591
3.501273
3.501869
3.502337
3.502555
3.502477
3.624121
3.700875
3.701814
3.702756
3.7037
3.70413
3.703803
3.850327
3.901939
3.902752
3.904149
3.90659
3.907691
3.906237
4.023208
4.059437
4.06208
4.063308
4.066751
4.069988
4.068235
4.063966
4.425922
4.441925
4.441237
4.441238
4.440846
4.441128
4.441117
4.440018
0.3481626
0.233318
0.3775332
0.3475135
0.3465864
0.3489474
0.2340767
0.2335938
0.3483357
0.3481743
0.3492126
0.3493174
0.2335825
0.2335557
0.3480351
0.3479183
0.3493022
0.3492919
0.2335521
0.2335449
0.3478634
0.3478194
0.3492856
0.3492796
0.2335445
0.2335435
0.347803
0.347789
0.3492781
0.3492766
0.2335434
0.2335432
0.3477849
0.3477813
0.3492767
0.3492769
0.2335431
0.2335434
0.3477812
0.3477818
0.349278
0.2335436
0.3477855
0.4503414
0.551005
0.4260043
0.4488226
0.5755722
0.5494699
0.6489446
0.7508799
0.6245023
0.6497576
0.775548
0.7498447
0.8489654
0.950946
0.8244692
0.8499444
0.9755348
0.9499316
1.049005
1.15097
1.024463
1.049999
1.175535
1.149958
1.249018
1.350976
1.224464
1.250018
1.375536
1.349967
1.449022
1.550977
1.424464
1.450024
1.575536
1.549971
1.649022
1.750978
1.624464
1.650027
1.775536
1.749972
1.849022
1.950978
1.824464
1.850028
1.975536
1.949973
2.049023
2.150978
2.024464
2.050029
2.175536
2.149974
2.249023
2.350978
2.224464
2.25003
2.375536
2.349976
2.449023
2.550979
2.424464
2.450033
2.575536
2.54998
2.649024
2.750979
2.624464
2.650037
2.775537
2.749986
2.849025
2.950982
2.824465
2.850045
2.975537
2.949998
3.049028
3.150986
3.024466
3.05006
3.175538
3.150021
3.249034
3.350996
3.224466
3.25009
3.37554
3.350069
3.449048
3.551006
3.424469
3.450154
3.575546
3.550179
3.649049
3.750856
3.624475
3.650317
3.775558
3.750506
3.848513
3.948453
3.824493
3.850972
3.97562
3.952239
4.047918
4.171817
4.024433
4.056019
4.189989
4.204272
4.377835
4.373049
4.361433
4.204253
4.378092
4.378169
4.359888
4.358774
4.204252
4.378176
4.378176
4.358773
4.35885
4.204252
4.378176
4.378176
4.358863
4.358875
4.204252
4.378176
4.378176
4.358877
4.358877
4.204252
4.378176
4.378176
4.358878
4.358878
4.204252
4.378176
4.378177
4.358879
4.358885
4.378178
4.358891
4.44986
4.426173
4.444369
0.2341577
0.3771269
0.3492971
0.2337372
0.3789545
0.3496249
4.372494
4.359646
4.374112
4.358368
0.2337316
0.378964
0.3496643
0.2337036
0.3790214
0.3496216
4.37411
4.358361
4.374147
4.358428
0.2337011
0.3790299
0.3495885
0.2336931
0.3790321
0.3495641
4.374153
4.358441
4.374161
4.358452
0.2336957
0.3790248
0.3495535
0.2336954
0.37903
0.3495619
4.374161
4.358453
4.374161
4.358454
0.2336949
0.3790351
0.3495562
0.2336954
0.3790304
0.3495605
4.374161
4.358454
4.374161
4.358453
0.2336995
0.3790198
0.3495797
0.2337066
0.3789927
0.3495859
4.374161
4.358452
4.374153
4.358441
0.2337081
0.3789957
0.3496268
0.2337241
0.3789917
0.3496559
4.374148
4.358428
4.37411
4.35836
0.2337308
0.378989
0.3496319
0.2341595
0.3771432
0.3493174
4.374112
4.358366
4.3725
4.359604
0.2333173
0.3775411
0.3475124
0.3481587
0.2335938
0.3483333
0.3481742
0.3465838
0.3489466
0.2335557
0.348035
0.3479194
0.3492123
0.3493172
0.2335479
0.3478675
0.3478356
0.3493024
0.3492942
0.2338179
0.3478746
0.3481178
0.349299
0.3493427
0.2331954
0.3490372
0.349534
0.3495549
0.3497654
0.2335745
0.3484664
0.3479405
0.3493972
0.3493085
0.3478196
0.3492838
0.4488045
0.5767425
0.5493919
0.4503243
0.5509095
0.6497539
0.7749648
0.7499085
0.6489326
0.7509809
0.8499639
0.9755348
0.949931
0.8489809
0.9509451
1.049998
1.175535
1.149958
1.049004
1.15097
1.250017
1.375536
1.349967
1.249018
1.350976
1.450024
1.575536
1.549971
1.449022
1.550977
1.650026
1.775536
1.749972
1.649022
1.750978
1.850027
1.975527
1.949969
1.849022
1.950977
2.05001
2.175814
2.149872
2.04902
2.150969
2.249945
2.375369
2.350129
2.248996
2.351015
2.450012
2.575544
2.549986
2.448941
2.551002
2.850058
2.975395
2.949998
2.849026
2.95099
3.05011
3.175747
3.149959
3.049083
3.150927
3.450161
3.575563
3.550165
3.449054
3.551001
3.650446
3.776729
3.750533
3.649034
3.750811
3.851188
3.950323
3.952295
3.848542
3.948508
4.056207
4.190016
4.048067
4.171842
4.372971
4.361339
4.204274
4.377677
4.359706
4.358685
4.204267
4.204783
4.377382
4.378013
4.358738
4.358844
4.204642
4.204766
4.378141
4.378174
4.358852
4.358701
4.204627
4.205577
4.378173
4.377989
4.358472
4.358471
4.206797
4.377356
4.377356
4.358702
4.358851
4.377988
4.378155
4.358838
4.358522
4.204793
4.378123
4.377039
4.358137
4.204505
4.37521
4.444326
4.44984
0.266321
0.2684234
0.4747266
0.4242598
0.424405
0.4755423
0.6749671
0.624331
0.6249364
0.6754295
0.8749929
0.8243574
0.8249856
0.8754492
1.074998
1.024367
1.024995
1.075454
1.274999
1.224369
1.224997
1.275455
1.475
1.42437
1.424998
1.475455
1.675
1.62437
1.624998
1.675455
1.875
1.82437
1.824998
1.875455
2.075
2.02437
2.024998
2.075455
2.275
2.22437
2.224998
2.275455
2.475
2.42437
2.424998
2.475455
2.675
2.62437
2.624998
2.675455
2.875
2.82437
2.824998
2.875455
3.075001
3.02437
3.024999
3.075455
3.275002
3.22437
3.225
3.275456
3.475006
3.424371
3.425003
3.475457
3.675016
3.624373
3.625009
3.675456
3.875068
3.824322
3.825035
3.875218
4.076176
4.023802
4.025419
4.074047
4.046301
4.171744
4.171749
4.059141
4.060801
4.19045
4.191723
4.04597
4.171746
4.171755
4.061694
4.062281
4.191795
4.191931
4.046055
4.171756
4.171759
4.06264
4.062876
4.191951
4.191988
4.046091
4.171759
4.17176
4.062997
4.063069
4.191992
4.191999
4.046099
4.17176
4.17176
4.063098
4.063111
4.192
4.192001
4.046091
4.17176
4.171759
4.063104
4.063078
4.192
4.191996
4.171759
4.063022
4.191991
4.292479
4.204792
4.207521
4.295207
4.291019
4.204256
4.295742
4.208975
4.208981
4.291025
4.295743
4.291019
4.204252
4.295745
4.208982
4.208982
4.291019
4.295745
4.291019
4.204252
4.295745
4.208982
4.208982
4.291019
4.295744
4.291018
4.204253
4.295744
4.208982
4.208982
4.291018
4.295744
4.291018
4.204253
4.295744
4.208982
4.208982
4.291018
4.295744
4.291018
4.204253
4.295744
4.208982
4.208982
4.291018
4.295744
4.295744
4.208982
4.291018
4.474607
4.425617
4.423843
4.475976
0.2675307
0.2674677
4.059546
4.190533
4.048529
4.061239
4.191844
4.290443
4.209549
4.290451
4.209559
0.2675646
0.2675621
4.06243
4.191921
4.047114
4.063159
4.192064
4.290442
4.20956
4.290442
4.209559
0.2675974
0.2675964
4.06355
4.192085
4.046631
4.063787
4.192122
4.290442
4.209558
4.290442
4.209558
0.2675526
0.2675664
4.063901
4.192126
4.046641
4.063954
4.192132
4.290442
4.209558
4.290442
4.209558
0.2675976
0.2675743
4.063955
4.192132
4.046642
4.063902
4.192126
4.290442
4.209558
4.290442
4.209558
0.2675358
0.2675711
4.063789
4.192122
4.046772
4.063552
4.192085
4.290442
4.209558
4.290442
4.209558
0.2675733
0.2675482
4.063164
4.192064
4.049671
4.06244
4.191922
4.290442
4.209559
4.290442
4.209559
0.2675829
0.2676144
4.061258
4.191846
4.050108
4.05959
4.190546
4.290442
4.209559
4.290442
4.209558
0.2669058
0.2672934
2.649988
2.775339
2.750056
2.648965
2.751055
3.250046
3.375905
3.349935
3.249023
3.351011
4.061345
4.190559
4.192134
4.049071
4.046869
4.171916
4.17749
4.06269
4.192064
4.192114
4.046402
4.046441
4.174852
4.176635
4.064477
4.19212
4.19249
4.046799
4.048321
4.174819
4.17672
4.068979
4.192937
4.16745
4.05201
4.055025
4.183575
4.190491
4.069794
4.167869
4.167756
4.056099
4.055805
4.190788
4.190553
4.065726
4.166904
4.192534
4.053765
4.050017
4.189859
4.176772
4.192227
4.047277
4.172657
4.290637
4.20954
4.290459
4.209365
0.321563
0.3749184
0.3737156
0.3231316
0.2669127
0.267282
0.5248368
0.5755855
0.5749159
0.5246141
0.7249763
0.7756148
0.7749876
0.7245259
0.9249951
0.9756273
0.9749989
0.9245404
1.124999
1.17563
1.175001
1.124544
1.325
1.37563
1.375002
1.324545
1.525
1.57563
1.575002
1.524545
1.725
1.77563
1.775002
1.724545
1.925
1.97563
1.975002
1.924545
2.125
2.17563
2.175002
2.124545
2.325
2.37563
2.375002
2.324545
2.525001
2.57563
2.575002
2.524545
2.725001
2.77563
2.775003
2.724545
2.925001
2.97563
2.975003
2.924545
3.125002
3.175631
3.175004
3.124545
3.325004
3.375631
3.375007
3.324545
3.525008
3.575634
3.575013
3.524547
3.725019
3.775609
3.775034
3.724541
3.925097
3.975113
3.975221
3.924159
4.127932
4.174256
4.177696
4.124058
4.291174
4.204425
4.295728
4.208966
4.208825
4.291034
4.295575
4.322305
4.37573
4.372085
4.325724
4.290635
4.20954
4.209365
4.29046
4.29102
4.204254
4.295745
4.208982
4.208981
4.291019
4.295745
4.291019
4.204252
4.295745
4.208982
4.208982
4.291019
4.295745
4.291018
4.204252
4.295744
4.208982
4.208982
4.291018
4.295744
4.291018
4.204253
4.295744
4.208982
4.208982
4.291019
4.295744
4.291018
4.204253
4.295744
4.208982
4.208982
4.291018
4.295744
4.291018
4.204253
4.295744
4.208982
4.208982
4.291018
4.295744
0.2675517
0.26756
4.290442
4.20956
4.209559
4.290442
0.2675727
0.267599
4.290442
4.209559
4.209559
4.290442
0.2675819
0.2675882
4.290442
4.209558
4.209558
4.290442
0.2675609
0.2675593
4.290442
4.209558
4.209558
4.290442
0.2675783
0.2675808
4.290442
4.209558
4.209558
4.290442
0.2675099
0.2675218
4.290442
4.209558
4.209558
4.290442
0.2676036
0.2675993
4.290442
4.209559
4.209559
4.290442
0.2675556
0.267482
4.290443
4.209549
4.209558
4.290449
0.2663141
0.2683915
0.2657932
0.2668575
0.265588
0.2662037
0.3215505
0.3749098
0.3737137
0.3231098
0.2654375
0.2666582
0.2655413
0.2667041
0.265419
0.2670454
0.2653945
0.2668574
0.265361
0.2670672
0.2653889
0.2671056
0.2653585
0.2670807
0.2653641
0.2671085
0.2653482
0.2670819
0.2653636
0.2671079
0.265348
0.2670779
0.2653596
0.2671078
0.2653584
0.267078
0.2653622
0.2671071
0.2653814
0.267084
0.2654307
0.2671104
0.2667614
0.2670992
0.2654627
0.267828
0.2698229
0.2678128
0.2287292
0.2667927
0.2691555
0.2654219
0.2670949
0.2654582
0.2671146
0.2653831
0.2670793
0.2653722
0.2671109
0.267078
0.2653625
0.4747215
0.4242638
0.424414
0.475544
0.5246683
0.576227
0.5755548
0.574674
0.5245493
0.675001
0.6260635
0.6243265
0.6248833
0.6739201
0.6754291
0.7252059
0.7756777
0.7237605
0.7751518
0.7245549
0.8749818
0.8243542
0.8249889
0.8754421
0.9249915
0.9756268
0.974998
0.9245385
1.074998
1.024367
1.024994
1.075454
1.124999
1.17563
1.175002
1.124544
1.274999
1.224369
1.224997
1.275455
1.325
1.37563
1.375002
1.324545
1.475
1.42437
1.424998
1.475455
1.525
1.57563
1.575002
1.524545
1.675
1.62437
1.624998
1.675455
1.725
1.77563
1.775002
1.724545
1.874999
1.82437
1.824998
1.875455
1.925
1.97563
1.975001
1.924545
2.074995
2.024369
2.024995
2.075454
2.124999
2.175629
2.175005
2.124547
2.274999
2.224143
2.224436
2.275002
2.275475
2.474807
2.424303
2.424834
2.474355
2.475424
2.525211
2.575636
2.525483
2.57501
2.52459
3.67485
3.62461
3.625582
3.675388
3.724808
3.776949
3.775627
3.725101
3.775029
3.724511
4.12796
4.174273
4.177714
4.124078
4.29248
4.204795
4.207522
4.295209
4.291173
4.208971
4.204425
4.295691
4.208826
4.290918
4.295574
4.322035
4.37319
4.375746
4.37195
4.325657
4.208998
4.204645
4.295612
4.211246
4.290572
4.295234
4.288784
4.204784
4.295736
4.290997
4.295377
4.291019
4.211246
4.204299
4.295743
4.209122
4.291014
4.295745
4.291019
4.204385
4.295745
4.20944
4.291019
4.295745
4.291019
4.211216
4.204323
4.295745
4.209013
4.291019
4.295744
4.291018
4.21126
4.204364
4.295706
4.209016
4.290896
4.295744
4.295608
4.290538
4.295215
4.295608
4.290538
4.295215
4.291018
4.295705
4.290896
4.295743
4.291018
4.295743
4.291018
4.295744
4.291017
4.295743
4.291018
4.295731
4.291016
4.209478
4.210588
4.29553
4.290888
4.295722
4.209115
4.295266
4.290524
4.474635
4.42572
4.424066
4.475982
0.2274437
0.2305855
0.2654392
0.2666618
0.2655441
0.2667062
0.2653622
0.2670686
0.2653901
0.2671068
0.2653491
0.2670833
0.2653647
0.2671093
0.2653461
0.2670798
0.2653589
0.2671081
0.2653453
0.2670791
0.2653576
0.2671078
0.2653453
0.2670789
0.2653574
0.2671078
0.2670791
0.265358
0.4374663
0.4120304
0.4123918
0.4377329
0.637509
0.6121029
0.6124779
0.6377578
0.8375116
0.8121116
0.8124829
0.837762
1.037512
1.012113
1.012484
1.037763
1.237512
1.212113
1.212484
1.237763
1.437512
1.412113
1.412484
1.437763
1.637512
1.612113
1.612484
1.637763
1.837512
1.812113
1.812484
1.837763
2.037512
2.012113
2.012484
2.037763
2.237512
2.212113
2.212484
2.237763
2.437512
2.412113
2.412484
2.437763
2.637512
2.612113
2.612484
2.637763
2.837512
2.812113
2.812484
2.837763
3.037512
3.012113
3.012484
3.037763
3.237512
3.212113
3.212484
3.237763
3.437512
3.412113
3.412484
3.437763
3.637512
3.612114
3.612484
3.637763
3.837513
3.812114
3.812484
3.837756
4.037585
4.012064
4.012508
4.037628
4.209431
4.210399
4.204258
4.204976
4.204983
4.204252
4.204982
4.204983
4.204252
4.204983
4.204983
4.204252
4.204983
4.204983
4.204253
4.204984
4.204984
4.204253
4.204984
4.204984
4.204253
4.204984
4.204984
4.437345
4.412212
4.412047
4.437934
4.450181
4.442098
4.441408
4.450366
4.44127
4.441259
4.450358
4.441266
4.441269
4.450356
4.44127
4.44127
4.450356
4.44127
4.441271
4.45036
4.441274
4.441281
4.4413
0.227006
0.2269521
4.210575
4.210573
4.441524
4.449302
4.440669
0.2270163
0.2269694
4.210572
4.21057
4.440487
4.449694
4.440462
0.2269842
0.2269846
4.210575
4.210576
4.440467
4.449962
4.440467
0.2270023
0.2269659
4.210576
4.210576
4.440468
4.449964
4.440467
0.2269979
0.2269173
4.210576
4.210576
4.440467
4.449965
4.440468
0.2269634
0.227012
4.210576
4.210576
4.440467
4.44993
4.440466
0.2269634
0.2270007
4.210574
4.210573
4.440461
4.449457
4.440486
0.2270647
0.2270656
4.210569
4.21057
4.440663
4.448843
4.441503
0.2269796
0.2269265
4.210575
4.210571
4.441283
4.449744
4.450021
4.441247
4.450335
4.450361
4.441139
4.450349
4.450264
4.440843
4.449922
4.44992
4.441199
4.450253
4.450306
4.440795
4.450196
4.449689
0.2657989
0.2668655
0.2655915
0.2662166
0.3621613
0.3877531
0.3873648
0.362073
0.2269408
0.2269313
0.2654204
0.2670468
0.2653958
0.266859
0.2653598
0.2670821
0.2653652
0.2671097
0.2653485
0.2670794
0.265359
0.2671092
0.2653459
0.267079
0.2653576
0.267108
0.2653453
0.2670789
0.2653573
0.2671077
0.2653454
0.267079
0.2653577
0.2671078
0.5624794
0.5878755
0.5875097
0.5622323
0.7624868
0.7878851
0.7875152
0.7622359
0.9624877
0.9878865
0.987516
0.9622372
1.162488
1.187887
1.187516
1.162237
1.362488
1.387887
1.387516
1.362237
1.562488
1.587887
1.587516
1.562237
1.762488
1.787887
1.787516
1.762237
1.962488
1.987887
1.987516
1.962237
2.162488
2.187887
2.187516
2.162237
2.362488
2.387887
2.387516
2.362237
2.562488
2.587887
2.587516
2.562237
2.762488
2.787887
2.787516
2.762237
2.962488
2.987887
2.987516
2.962237
3.162488
3.187887
3.187516
3.162237
3.362488
3.387887
3.387516
3.362237
3.562488
3.587887
3.587516
3.562237
3.762488
3.787888
3.787517
3.762237
3.962492
3.98784
3.98753
3.962198
4.16657
4.192384
4.194842
4.163491
4.128262
4.1217
4.172042
4.179294
4.129025
4.178335
4.123263
4.130374
4.126952
4.182204
4.127114
4.180996
4.131866
4.204276
4.204981
4.204966
4.360327
4.387703
4.386519
4.361652
4.321673
4.328145
4.376342
4.371033
4.320721
4.371767
4.327919
4.210575
4.210571
4.31901
4.372898
4.368173
4.369652
4.317806
4.204253
4.204983
4.204982
4.320347
4.328223
4.378163
4.370638
4.320441
4.370431
4.328206
4.320312
4.328185
4.378167
4.370314
4.320295
4.370361
4.328195
4.204252
4.204983
4.204983
4.320288
4.328182
4.378178
4.370307
4.32029
4.370299
4.32818
4.320288
4.328179
4.378179
4.3703
4.320288
4.370301
4.328179
4.204252
4.204983
4.204983
4.320288
4.328178
4.378176
4.370302
4.320288
4.370302
4.328178
4.320288
4.328178
4.378176
4.370302
4.320288
4.370303
4.328178
4.204252
4.204984
4.204984
4.320288
4.328178
4.378176
4.370303
4.320288
4.370303
4.328178
4.320288
4.328178
4.378177
4.370303
4.320288
4.370303
4.328178
4.204253
4.204984
4.204984
4.320288
4.328178
4.378177
4.370303
4.320288
4.370303
4.328178
4.320288
4.328178
4.378177
4.370303
4.320288
4.370303
4.328178
4.204253
4.204984
4.204984
4.320288
4.328178
4.378177
4.370303
4.320288
4.370304
4.328178
4.320289
4.328178
4.378177
4.370306
4.320289
4.370305
4.328178
4.328178
4.370309
4.32029
0.2270131
0.2269685
4.317404
4.36741
4.373827
4.317488
4.367118
4.210574
4.210575
4.317375
4.374018
4.366972
4.367016
4.317363
0.2270141
0.2270892
4.317358
4.366959
4.374126
4.317359
4.366952
4.210574
4.210573
4.317358
4.374131
4.366949
4.366951
4.317357
0.2270367
0.2270132
4.317353
4.366948
4.374162
4.317354
4.366947
4.210576
4.210576
4.317353
4.374162
4.366947
4.366947
4.317353
0.226912
0.2269195
4.317352
4.366947
4.374161
4.317353
4.366947
4.210576
4.210576
4.317352
4.374161
4.366947
4.366947
4.317352
0.2269263
0.2270355
4.317352
4.366947
4.374161
4.317352
4.366947
4.210576
4.210576
4.317352
4.374161