/*--------------------------------*- C++ -*----------------------------------*\
  =========                 |
  \\      /  F ield         | OpenFOAM: The Open Source CFD Toolbox
   \\    /   O peration     | Website:  https://openfoam.org
    \\  /    A nd           | Version:  7
     \\/     M anipulation  |
\*---------------------------------------------------------------------------*/
FoamFile
{
    version     2.0;
    format      ascii;
    class       volScalarField;
    location    "0.1";
    object      Cz;
}
// * * * * * * * * * * * * * * * * * * * * * * * * * * * * * * * * * * * * * //

dimensions      [0 1 0 0 0 0 0];

internalField   nonuniform List<scalar> 
90967
(
0.09770016
0.0955845
0.09490837
0.09474931
0.09470872
0.09470171
0.09558429
0.09164653
0.09047076
0.09016339
0.09007965
0.09006008
0.09490717
0.09046902
0.08901754
0.08861832
0.08850325
0.0884739
0.09474569
0.09015703
0.08861231
0.08816594
0.08803107
0.08799514
0.09469986
0.09006411
0.08848478
0.08801675
0.08787088
0.08783113
0.09468318
0.09003014
0.08843647
0.08795846
0.08780702
0.08776524
0.09467682
0.09001702
0.08841731
0.08793474
0.08778054
0.08773769
0.09467425
0.09001181
0.08840972
0.08792531
0.08776993
0.08772666
0.09467357
0.0900105
0.08840778
0.08792282
0.087767
0.08772358
0.09467411
0.09001159
0.08840941
0.08792491
0.08776934
0.08772592
0.09467609
0.09001563
0.0884154
0.08793237
0.08777779
0.08773463
0.09468049
0.09002488
0.08842919
0.0879496
0.08779702
0.08775447
0.09469056
0.09004578
0.08845962
0.08798705
0.08783839
0.087797
0.09471422
0.09009481
0.08852934
0.08807085
0.08792981
0.08789079
0.09477659
0.09022116
0.08870169
0.08827114
0.08814381
0.0881093
0.09498312
0.09061356
0.0892063
0.08883148
0.08872653
0.08869922
0.09580532
0.09200166
0.09089175
0.09061383
0.09053962
0.09052104
0.09857609
0.09657698
0.09592756
0.09577101
0.09572392
0.09571189
0.04760265
0.04589887
0.04569465
0.04566945
0.04566489
0.04566479
0.04566961
0.009970258
0.009969694
0.009969315
0.009969357
0.009969385
0.009969392
0.009969403
0.04764338
0.0469058
0.04679047
0.0467692
0.04676432
0.04676427
0.04676829
0.2508447
0.2516918
0.2521377
0.2521598
0.2521542
0.2521545
0.25216
0.2508439
0.2946695
0.2917693
0.290715
0.2903566
0.2902378
0.2902153
0.2516917
0.2917682
0.2863483
0.2841511
0.283385
0.2831261
0.2830624
0.2521376
0.2907101
0.2841441
0.2812327
0.280151
0.2797677
0.279665
0.2521595
0.2903431
0.2833605
0.2801269
0.2788651
0.2783992
0.2782687
0.2521533
0.2902058
0.2830663
0.2796941
0.2783417
0.2778285
0.2776808
0.2521516
0.2901512
0.2829486
0.2795167
0.278121
0.2775834
0.2774263
0.252151
0.2901287
0.2828999
0.2794422
0.2780269
0.2774773
0.2773155
0.2521509
0.2901198
0.2828804
0.279412
0.2779882
0.2774335
0.2772693
0.2521508
0.2901172
0.2828747
0.2794033
0.277977
0.2774207
0.2772556
0.2521508
0.2901187
0.2828782
0.2794089
0.2779842
0.2774288
0.2772638
0.2521508
0.2901251
0.2828925
0.2794312
0.2780127
0.2774609
0.2772971
0.252151
0.2901401
0.2829259
0.279483
0.2780786
0.277535
0.277374
0.2521514
0.2901735
0.2830002
0.2795968
0.2782217
0.2776951
0.2775399
0.2521525
0.2902503
0.2831694
0.2798511
0.2785354
0.2780411
0.2778971
0.2521554
0.2904355
0.283571
0.2804375
0.2792391
0.2788034
0.2786798
0.2521642
0.2909151
0.2845836
0.2818529
0.280873
0.2805332
0.2804411
0.2521889
0.2922354
0.2872509
0.2853656
0.2847499
0.2845404
0.2844861
0.2519939
0.295325
0.292805
0.2920076
0.2917351
0.2916112
0.2915772
0.2510799
0.248159
0.2473839
0.247307
0.247291
0.2472625
0.2472512
0.2472707
0.2508965
0.2964102
0.2944934
0.2938017
0.2935695
0.2934961
0.2934838
0.4503841
0.5008386
0.5016881
0.5018202
0.5018005
0.5017925
0.4503827
0.4982334
0.4966217
0.4957606
0.4953798
0.495229
0.4951946
0.5008379
0.4966195
0.493067
0.4909756
0.4900436
0.4896836
0.489589
0.5016864
0.4957524
0.4909639
0.4878831
0.4864178
0.4858388
0.4856755
0.5018158
0.4953583
0.4900024
0.4863763
0.4845489
0.4838021
0.4835818
0.5017901
0.4951797
0.4895846
0.4857117
0.4837002
0.4828541
0.4825975
0.5017709
0.4951003
0.4894023
0.4854192
0.4833204
0.4824236
0.482147
0.5017632
0.4950659
0.4893231
0.4852913
0.4831526
0.4822316
0.4819449
0.5017602
0.4950516
0.4892903
0.485238
0.4830821
0.4821503
0.4818591
0.5017593
0.4950471
0.4892799
0.4852214
0.4830601
0.4821247
0.4818318
0.5017596
0.4950489
0.4892844
0.485229
0.4830702
0.4821363
0.4818437
0.5017613
0.4950575
0.4893055
0.4852641
0.483117
0.4821899
0.4818997
0.5017654
0.4950785
0.4893561
0.4853475
0.4832272
0.4823162
0.4820317
0.5017746
0.4951256
0.4894685
0.485531
0.4834675
0.4825896
0.4823173
0.5017954
0.4952302
0.4897164
0.4859319
0.4839861
0.4831739
0.4829254
0.5018428
0.4954632
0.4902685
0.4868128
0.4851024
0.4844105
0.4842046
0.5019281
0.495977
0.4915102
0.4887582
0.4874867
0.4869874
0.4868452
0.5019023
0.4970526
0.493922
0.4921924
0.4914643
0.4911808
0.4911045
0.5010853
0.4986308
0.4975141
0.4971802
0.4970955
0.4970077
0.496972
0.4517779
0.4496594
0.4997304
0.5001129
0.4999756
0.4998053
0.4997316
0.5040142
0.5003335
0.5009781
0.5011013
0.5010945
0.4503974
0.498666
0.4972089
0.4963484
0.4960296
0.4959119
0.4958844
0.6500086
0.7001459
0.7003705
0.700469
0.700454
0.7004449
0.6500092
0.6993027
0.6985464
0.698034
0.6977622
0.6976427
0.6976111
0.7001455
0.6985444
0.6969281
0.695683
0.6950009
0.6947091
0.6946274
0.7003687
0.6980265
0.695672
0.6936715
0.6924915
0.6919776
0.6918276
0.7004644
0.6977426
0.6949628
0.6924518
0.6908619
0.6901338
0.6899149
0.7004439
0.6975991
0.694618
0.6918558
0.6900335
0.6891622
0.6888941
0.700426
0.6975309
0.6944574
0.6915821
0.6896562
0.6887191
0.6884256
0.7004182
0.6975
0.6943851
0.6914594
0.6894871
0.6885199
0.6882142
0.700415
0.6974868
0.6943541
0.691407
0.6894151
0.6884348
0.6881233
0.700414
0.6974826
0.6943441
0.6913902
0.6893918
0.6884073
0.6880938
0.7004142
0.6974839
0.6943477
0.6913966
0.6894009
0.6884179
0.6881047
0.7004158
0.6974915
0.6943665
0.6914292
0.6894462
0.6884713
0.6881611
0.7004196
0.6975099
0.6944115
0.6915071
0.6895542
0.6885986
0.6882956
0.7004283
0.6975504
0.6945106
0.6916783
0.6897909
0.6888764
0.6885886
0.7004474
0.6976372
0.6947227
0.6920473
0.6903016
0.6894727
0.6892156
0.7004879
0.6978167
0.6951655
0.6928385
0.6914016
0.6907414
0.6905393
0.7005495
0.6981666
0.6960431
0.6942804
0.6932391
0.6927856
0.6926535
0.7005145
0.6987687
0.6974508
0.6964784
0.6959669
0.6957408
0.6956741
0.7003067
0.6994801
0.69914
0.6990146
0.6989657
0.698897
0.6988634
0.6491921
0.6498876
0.6997364
0.6997528
0.6997602
0.6996587
0.699602
0.7045624
0.7067024
0.7067588
0.7067732
0.706767
0.6500162
0.699474
0.6988588
0.6984165
0.6982118
0.6981259
0.698104
0.849989
0.899937
0.899921
0.8999133
0.899907
0.8999038
0.8499885
0.8998066
0.8995875
0.8994235
0.8993288
0.8992852
0.8992731
0.8999368
0.8995868
0.8991268
0.8987378
0.8985019
0.8983936
0.8983622
0.8999203
0.8994206
0.8987333
0.8980839
0.8976513
0.8974474
0.8973863
0.8999116
0.899321
0.8984865
0.8976349
0.8970134
0.8967013
0.8966058
0.8999031
0.8992677
0.898357
0.8973975
0.8966594
0.896271
0.8961495
0.8998968
0.8992417
0.8982945
0.8972861
0.8964973
0.8960749
0.8959403
0.8998939
0.8992296
0.8982657
0.8972355
0.896425
0.8959879
0.8958469
0.8998926
0.8992245
0.8982533
0.897214
0.8963945
0.8959511
0.8958073
0.8998922
0.8992229
0.8982495
0.8972071
0.8963847
0.8959391
0.8957944
0.8998924
0.8992236
0.8982509
0.8972096
0.8963882
0.8959434
0.895799
0.899893
0.8992266
0.8982584
0.8972229
0.8964073
0.8959664
0.8958233
0.8998945
0.8992338
0.8982765
0.8972551
0.8964534
0.8960221
0.8958828
0.8998979
0.8992496
0.8983155
0.8973252
0.8965554
0.8961461
0.8960151
0.8999049
0.8992827
0.8983973
0.8974744
0.896783
0.8964275
0.8963138
0.8999192
0.899348
0.8985603
0.8977781
0.897212
0.8969192
0.8968279
0.8999409
0.8994666
0.898857
0.8982917
0.897911
0.8977274
0.8976719
0.8999668
0.8996528
0.8992942
0.8990026
0.8988297
0.8987463
0.8987206
0.899984
0.8998484
0.8997496
0.8996988
0.8996708
0.8996431
0.8996308
0.8489967
0.8499218
0.899865
0.89979
0.8997474
0.8997135
0.8996971
0.9004161
0.9006544
0.9006763
0.900672
0.9006699
0.849991
0.8998542
0.8996709
0.8995247
0.899452
0.8994201
0.8994123
1.05
1.100063
1.100079
1.100087
1.100093
1.100096
1.050001
1.100194
1.100412
1.100576
1.100671
1.100715
1.100727
1.100063
1.100413
1.100873
1.101262
1.101498
1.101607
1.101638
1.10008
1.100579
1.101266
1.101916
1.102349
1.102553
1.102614
1.100088
1.100679
1.101513
1.102365
1.102987
1.103299
1.103395
1.100097
1.100732
1.101642
1.102602
1.103341
1.10373
1.103851
1.100103
1.100758
1.101705
1.102714
1.103503
1.103925
1.10406
1.100106
1.10077
1.101734
1.102765
1.103575
1.104012
1.104153
1.100107
1.100775
1.101747
1.102787
1.103607
1.10405
1.104193
1.100108
1.100778
1.101751
1.102794
1.103617
1.104062
1.104207
1.100108
1.100777
1.10175
1.102792
1.103614
1.104058
1.104203
1.100107
1.100774
1.101743
1.102779
1.103595
1.104036
1.104179
1.100106
1.100767
1.101725
1.102748
1.103551
1.103982
1.10412
1.100102
1.100752
1.101687
1.10268
1.103451
1.10386
1.10399
1.100095
1.10072
1.101607
1.102533
1.103226
1.103581
1.103694
1.100082
1.100655
1.101446
1.102231
1.102799
1.103092
1.103181
1.100061
1.100537
1.101149
1.101717
1.102099
1.102283
1.102336
1.100034
1.100349
1.100708
1.100999
1.101174
1.101257
1.10128
1.100016
1.10015
1.100246
1.100292
1.100317
1.100344
1.100355
1.048988
1.049936
1.100127
1.100192
1.100226
1.100256
1.100274
1.09958
1.099338
1.099314
1.099317
1.099318
1.05
1.10014
1.100313
1.100448
1.100512
1.100539
1.100547
1.25001
1.299854
1.29963
1.299534
1.299551
1.299558
1.250013
1.300698
1.301455
1.301968
1.30224
1.302361
1.302392
1.299855
1.301457
1.303074
1.304319
1.305002
1.305294
1.305376
1.299632
1.301975
1.304329
1.30633
1.307511
1.308025
1.308175
1.299536
1.302258
1.305038
1.307549
1.30914
1.309868
1.310087
1.299556
1.302402
1.305383
1.308145
1.309967
1.310839
1.311107
1.299574
1.30247
1.305544
1.308419
1.310345
1.311282
1.311575
1.299582
1.302501
1.305616
1.308542
1.310514
1.311481
1.311787
1.299586
1.302515
1.305648
1.308595
1.310586
1.311566
1.311878
1.29959
1.302521
1.305659
1.308613
1.31061
1.311594
1.311907
1.299591
1.30252
1.305656
1.308607
1.310602
1.311584
1.311897
1.299588
1.302512
1.305638
1.308575
1.310557
1.311531
1.311841
1.299583
1.302493
1.305593
1.308497
1.31045
1.311405
1.311707
1.299574
1.302453
1.305495
1.308328
1.310215
1.311129
1.311416
1.299556
1.302368
1.305285
1.307962
1.309708
1.310537
1.310792
1.29952
1.302192
1.304846
1.307175
1.308614
1.309274
1.309473
1.299461
1.301844
1.30397
1.305736
1.306783
1.307238
1.307364
1.299492
1.30124
1.302558
1.303534
1.304054
1.304284
1.304342
1.299695
1.300521
1.300857
1.300981
1.301038
1.301111
1.301136
1.24896
1.249951
1.300252
1.300223
1.300209
1.300308
1.300365
1.295433
1.293289
1.293229
1.293213
1.293218
1.250006
1.300519
1.301123
1.301553
1.301748
1.301828
1.30185
1.449794
1.499162
1.498313
1.498192
1.498233
1.498225
1.44979
1.50177
1.503381
1.504242
1.504623
1.50477
1.504808
1.499167
1.503386
1.506937
1.509028
1.509961
1.510321
1.510415
1.49832
1.504251
1.509039
1.51212
1.513586
1.514165
1.514328
1.498185
1.504643
1.509999
1.513625
1.515453
1.5162
1.51642
1.49821
1.504821
1.510416
1.514289
1.516301
1.517147
1.517404
1.498229
1.5049
1.510599
1.514582
1.516681
1.517577
1.517854
1.498237
1.504936
1.510679
1.51471
1.516849
1.517769
1.518056
1.498242
1.504952
1.510713
1.514764
1.516919
1.517851
1.518142
1.498259
1.504956
1.510724
1.514782
1.516942
1.517877
1.518169
1.498277
1.504951
1.510721
1.514776
1.516933
1.517865
1.518157
1.49826
1.504946
1.5107
1.514741
1.516886
1.517812
1.518102
1.498248
1.504924
1.510649
1.514657
1.516777
1.517687
1.517971
1.498235
1.504878
1.510538
1.514476
1.516538
1.517415
1.517687
1.498216
1.504778
1.510293
1.514078
1.516024
1.516835
1.517082
1.498195
1.504546
1.509746
1.513205
1.514917
1.515609
1.515811
1.498138
1.504032
1.50851
1.511271
1.512554
1.513058
1.513189
1.498147
1.502965
1.506099
1.507846
1.508609
1.50891
1.508959
1.498929
1.501384
1.502491
1.502843
1.502996
1.503127
1.503107
1.448334
1.45004
1.500253
1.499873
1.500065
1.500286
1.500299
1.49598
1.499654
1.499002
1.49888
1.498882
1.449782
1.501327
1.502772
1.503619
1.503926
1.504037
1.504063
1.649459
1.647385
1.644068
1.643886
1.643999
1.643951
1.643875
1.649537
1.705335
1.708234
1.709288
1.709641
1.709721
1.709775
1.647343
1.708238
1.713657
1.715853
1.716618
1.716875
1.71694
1.644151
1.709294
1.715859
1.718771
1.719854
1.720238
1.72034
1.643878
1.709659
1.716641
1.719875
1.721137
1.721603
1.721733
1.643878
1.709795
1.716934
1.720307
1.721659
1.722172
1.72232
1.643882
1.709849
1.717052
1.720484
1.72188
1.722417
1.722574
1.643883
1.709872
1.717102
1.720559
1.721974
1.722523
1.722685
1.643883
1.709884
1.717123
1.720591
1.722013
1.722567
1.722731
1.643904
1.709873
1.717128
1.720602
1.722025
1.72258
1.722745
1.644029
1.70984
1.717124
1.720598
1.722018
1.722572
1.722737
1.643936
1.709862
1.717113
1.720575
1.72199
1.72254
1.722703
1.643907
1.709845
1.717081
1.720522
1.721924
1.722466
1.722627
1.643898
1.70982
1.717007
1.720409
1.721782
1.722307
1.722461
1.64389
1.709753
1.716841
1.720158
1.721471
1.721964
1.722106
1.643934
1.709541
1.716439
1.71958
1.720777
1.721212
1.721331
1.644085
1.709026
1.715429
1.718181
1.719172
1.719519
1.719597
1.644095
1.70776
1.712775
1.714699
1.715387
1.715637
1.715633
1.644651
1.704717
1.70722
1.708096
1.708658
1.708956
1.708755
1.647194
1.65072
1.650694
1.650503
1.650594
1.650906
1.650782
1.650493
1.649428
1.70359
1.705495
1.706181
1.706427
1.706474
1.70649
1.822359
1.820583
1.820543
1.820539
1.821173
1.821158
1.820537
1.822391
1.902325
1.904421
1.905094
1.905266
1.905358
1.905323
1.847877
1.904457
1.908361
1.909532
1.909842
1.909929
1.909947
1.820813
1.905104
1.909535
1.910984
1.911385
1.911501
1.91153
1.820535
1.905255
1.909844
1.911388
1.911835
1.91197
1.912006
1.820536
1.9053
1.909936
1.911516
1.911984
1.912129
1.912169
1.820536
1.905317
1.90997
1.911564
1.912042
1.912193
1.912235
1.820536
1.905324
1.909984
1.911583
1.912066
1.91222
1.912262
1.820536
1.905329
1.909991
1.911592
1.912075
1.91223
1.912273
1.820549
1.905351
1.909997
1.911596
1.912078
1.912233
1.912276
1.822064
1.905402
1.91
1.911596
1.912076
1.912231
1.912274
1.821372
1.905381
1.909998
1.911589
1.912069
1.912223
1.912266
1.821931
1.905382
1.909988
1.911575
1.912052
1.912203
1.912245
1.82146
1.905351
1.909966
1.911544
1.912014
1.912161
1.912203
1.821215
1.905317
1.909917
1.911475
1.91193
1.91207
1.912109
1.821677
1.905291
1.909796
1.911306
1.911731
1.911858
1.911891
1.822589
1.905133
1.90941
1.910808
1.911182
1.911289
1.911311
1.822204
1.904277
1.908022
1.909138
1.909454
1.909552
1.909537
1.848286
1.901466
1.903433
1.904143
1.904557
1.904727
1.904549
1.8226
1.854344
1.855477
1.855763
1.8566
1.85758
1.857024
1.855903
1.823016
1.854452
1.855632
1.855938
1.856067
1.856047
1.856046
1.856225
0.04781195
0.1780357
0.178033
0.1467642
0.04751655
0.04619985
0.1776405
0.1794158
0.1453566
0.1445746
0.04590327
0.04575091
0.1794175
0.1794497
0.1442709
0.1440685
0.04571896
0.04570315
0.1794566
0.179464
0.1440024
0.1439556
0.0456987
0.04569699
0.179464
0.1794639
0.1439419
0.1439296
0.04569611
0.04569591
0.1794639
0.1794641
0.1439269
0.1439243
0.04569629
0.04569723
0.1794641
0.1794649
0.1439258
0.1439292
0.04569929
0.1794654
0.1439368
0.04751797
0.04620012
0.1776392
0.1453582
0.1794158
0.1445748
0.04590329
0.04575088
0.1794175
0.1442708
0.1794497
0.1440684
0.04571892
0.04570307
0.1794566
0.1440021
0.179464
0.1439552
0.04569855
0.04569673
0.179464
0.1439412
0.1794638
0.1439282
0.04569566
0.0456951
0.1794638
0.1439245
0.1794638
0.14392
0.04569477
0.0456945
0.1794638
0.1439188
0.1794638
0.1439172
0.04569442
0.04569429
0.1794638
0.1439167
0.1794638
0.143916
0.04569424
0.04569424
0.1794638
0.1439158
0.1794638
0.1439156
0.04569419
0.04569419
0.1794638
0.1439155
0.1794638
0.1439156
0.04569423
0.04569427
0.1794638
0.1439154
0.1794638
0.1439158
0.04569421
0.04569433
0.1794638
0.1439156
0.1794638
0.1439165
0.0456943
0.04569459
0.1794638
0.1439159
0.1794638
0.1439178
0.04569461
0.04569506
0.1794638
0.1439169
0.1794639
0.143921
0.04569524
0.04569628
0.1794639
0.1439198
0.1794641
0.1439285
0.04569691
0.04569983
0.1794641
0.1439279
0.1794645
0.1439487
0.04570316
0.04572222
0.1794645
0.1439549
0.1794665
0.144018
0.04575229
0.04591605
0.1794669
0.1440719
0.1794669
0.14432
0.04622668
0.04760697
0.1794627
0.1446281
0.1793343
0.1455782
0.04786754
0.02286461
0.1790877
0.1470238
0.1768502
0.009973549
0.02187406
0.1775236
0.1742355
0.009970089
0.02170323
0.02156992
0.1740937
0.1737089
0.009969317
0.02156021
0.02154718
0.17363
0.173422
0.009969369
0.02154511
0.02154207
0.1733835
0.1733069
0.009969381
0.0215416
0.02154087
0.1732969
0.1732779
0.009969443
0.02154081
0.02154065
0.1732759
0.1732722
0.009969402
0.02154065
0.02154093
0.1732722
0.1732747
0.02154126
0.173277
0.0487745
0.1776924
0.1470425
0.2261715
0.2261691
0.2490714
0.3755755
0.3755736
0.3496599
0.2260609
0.2244584
0.375517
0.3748321
0.4245078
0.4245053
0.4498404
0.5755451
0.5755456
0.5499131
0.4245781
0.4248142
0.5754827
0.5749512
0.6244717
0.6244722
0.6499508
0.7755311
0.7755332
0.7499693
0.6245396
0.6249119
0.7754672
0.7749981
0.8244651
0.8244665
0.8499855
0.9755342
0.9755324
0.9499937
0.8245313
0.8249516
0.9754679
0.9750234
1.024467
1.024466
1.050006
1.175534
1.175535
1.150015
1.024532
1.024976
1.175469
1.175048
1.224466
1.22447
1.250032
1.375529
1.375526
1.350049
1.224533
1.225002
1.37546
1.375088
1.424456
1.424452
1.450087
1.575494
1.575496
1.550161
1.424517
1.425048
1.575422
1.575184
1.624425
1.624431
1.650342
1.773826
1.773836
1.750931
1.624483
1.625166
1.774015
1.775536
1.821964
1.821968
1.85324
1.952187
1.820584
1.854646
1.855426
1.952486
1.953801
1.82055
1.85573
1.855932
1.954097
1.954249
1.820537
1.855998
1.856046
1.954281
1.954296
1.820697
1.856063
1.856094
1.9543
1.954298
1.822064
1.856158
1.856223
1.954268
1.954261
1.820548
1.856136
1.856083
1.954295
1.954301
1.856066
1.9543
1.854663
1.82214
1.855471
1.952506
1.953991
1.855816
1.821398
1.855985
1.954453
1.954439
1.856021
1.820535
1.85605
1.954305
1.954298
1.85606
1.820536
1.856072
1.954301
1.954303
1.856075
1.820536
1.85608
1.954304
1.954305
1.856081
1.820536
1.856083
1.954305
1.954305
1.856083
1.820536
1.856084
1.954305
1.954305
1.856085
1.820539
1.856087
1.954306
1.954305
1.856096
1.821158
1.856146
1.954304
1.954297
1.856235
1.821383
1.856184
1.954263
1.954289
1.85612
1.821899
1.85611
1.954452
1.954531
1.85612
1.821639
1.856067
1.954448
1.954503
1.856105
1.821226
1.856099
1.954378
1.954375
1.856246
1.822587
1.856185
1.954241
1.954222
1.856052
1.82251
1.855736
1.954276
1.954405
1.855493
1.848177
1.854522
1.95419
1.952783
1.853
1.823148
1.952314
1.977134
1.82323
1.825761
1.99002
1.97809
1.825922
1.826289
1.990015
1.990447
1.978039
1.978383
1.826364
1.826574
1.990182
1.990345
1.978431
1.978453
1.826612
1.826697
1.990178
1.99022
1.978454
1.978409
1.82675
1.826768
1.990634
1.978184
1.978185
1.826727
1.82672
1.97841
1.978459
1.82672
1.826746
1.990035
1.97846
1.978451
1.826826
1.99
1.978341
1.852948
1.951246
0.07302181
0.02378215
0.07188247
0.02274531
0.07197117
0.02262834
0.07178405
0.0225179
0.07180143
0.02245739
0.07176926
0.02250078
0.07177358
0.02244992
0.07176714
0.02250072
0.07176952
0.02244954
0.07176664
0.02250075
0.07176863
0.02244943
0.07176648
0.02250071
0.07176843
0.02244939
0.07176642
0.02250068
0.07176832
0.02244937
0.0717664
0.02250067
0.07176829
0.02244937
0.07176639
0.02250067
0.07176827
0.02244936
0.0717664
0.02250067
0.07176828
0.02244936
0.07176645
0.02250067
0.07176824
0.02244937
0.07176642
0.02250068
0.07176829
0.02244937
0.07176657
0.02250069
0.07176828
0.02244939
0.0717667
0.02250068
0.07176841
0.02244946
0.07176719
0.02250078
0.07176866
0.02244953
0.07176886
0.02250083
0.07176956
0.02244977
0.07177911
0.0225017
0.07177457
0.02245413
0.07185092
0.02253259
0.0718132
0.022574
0.07234177
0.02284714
0.07207741
0.02339707
0.04622207
0.02277748
0.02271989
0.1456999
0.1448681
0.176505
0.1781987
0.04573172
0.0227116
0.02270662
0.1445479
0.1443428
0.1781956
0.1782006
0.04567558
0.02270586
0.02270491
0.1442802
0.1442322
0.1782001
0.1781927
0.04566655
0.02270475
0.02270446
0.1442161
0.1441991
0.1781888
0.1781807
0.04566435
0.02270448
0.02270438
0.1441928
0.1441874
0.1781787
0.1781756
0.04566649
0.02270443
0.02270466
0.1441881
0.1441923
0.1781751
0.1781755
0.02270492
0.1442031
0.1781765
0.0874503
0.01011618
0.08745327
0.0101159
0.08515311
0.009971711
0.009970498
0.08516073
0.08515311
0.08515896
0.009972063
0.08512909
0.009969631
0.009970523
0.08514957
0.08514532
0.08514389
0.009970233
0.08510895
0.009969505
0.009969882
0.08514302
0.08514277
0.08511495
0.009969882
0.08510494
0.009969545
0.009969866
0.08514232
0.08514313
0.08510654
0.009969968
0.08510403
0.009969603
0.009969963
0.08514281
0.08514377
0.08510482
0.009969986
0.0851039
0.009969619
0.009969974
0.0851434
0.08514413
0.08510444
0.009969992
0.009969979
0.08514363
0.08510442
0.07208184
0.0235035
0.07234744
0.02287004
0.2749731
0.2249498
0.2490687
0.2258618
0.3529606
0.3495965
0.3754704
0.2877004
0.2122829
0.2122807
0.2877038
0.4749942
0.4249888
0.449754
0.4244932
0.5516656
0.5499493
0.5755069
0.4877028
0.412295
0.4122826
0.4877089
0.6750042
0.6249984
0.6499224
0.6245236
0.7510398
0.7500072
0.7755035
0.687705
0.6122995
0.6122905
0.6877077
0.874998
0.8250026
0.8499604
0.8245206
0.9510113
0.9500235
0.9754916
0.8877062
0.8122974
0.8122908
0.8877055
1.075001
1.025001
1.049976
1.024508
1.151003
1.150039
1.175479
1.087708
1.012295
1.012293
1.087703
1.275008
1.225006
1.249992
1.224496
1.350807
1.350077
1.375476
1.28771
1.212293
1.212295
1.287702
1.475007
1.425
1.450051
1.424493
1.548234
1.550251
1.575504
1.487714
1.412288
1.412294
1.487702
1.675014
1.625009
1.650424
1.624526
1.749481
1.750968
1.77413
1.687718
1.612292
1.6123
1.687711
1.875577
1.825137
1.856081
1.821738
1.856076
1.954628
1.954612
1.856082
1.822203
1.856158
1.954492
1.954319
1.855194
1.823584
1.822318
1.952407
1.953708
1.977194
1.972926
1.855672
1.822108
1.822126
1.95406
1.954231
1.974763
1.973491
1.855993
1.822035
1.822304
1.954302
1.954426
1.974753
1.975074
1.857251
1.822935
1.852439
1.954755
1.955155
1.97513
1.978312
1.857527
1.85332
1.853243
1.955284
1.955256
1.978267
1.978212
1.856317
1.852031
1.822462
1.955037
1.954591
1.978086
1.97499
1.821997
1.954383
1.977308
1.886293
1.812285
1.81229
1.886293
0.07239967
0.02285645
0.07206656
0.02351078
0.1244268
0.1748673
0.07184831
0.0225339
0.07181315
0.02256899
0.07177934
0.02250219
0.07177509
0.02245352
0.07176882
0.02250099
0.07176973
0.02244962
0.07176709
0.02250076
0.07176871
0.0224495
0.07176663
0.02250071
0.07176837
0.02244942
0.07176647
0.02250069
0.07176833
0.02244939
0.07176642
0.02250067
0.07176829
0.02244937
0.07176639
0.02250067
0.07176827
0.02244937
0.07176639
0.02250067
0.07176827
0.02244936
0.0717664
0.02250067
0.07176832
0.02244936
0.0717664
0.02250068
0.07176828
0.02244937
0.07176643
0.02250068
0.07176836
0.02244938
0.07176646
0.0225007
0.0717685
0.02244943
0.07176663
0.02250076
0.07176883
0.02244944
0.07176714
0.02250089
0.07176968
0.02244952
0.07176912
0.02250126
0.07177369
0.02244986
0.07178392
0.02252045
0.07180206
0.02245706
0.07188845
0.02275525
0.07198797
0.02262963
0.07281799
0.02385875
0.07503497
0.02321107
0.08524868
0.0100239
0.009973695
0.08517232
0.08525026
0.0851707
0.01002434
0.07501735
0.02329022
0.07281579
0.02385509
0.1137051
0.1877138
0.1137063
0.1877126
0.08515516
0.009970527
0.009970851
0.08514972
0.08515515
0.08514564
0.009971079
0.08512681
0.009969509
0.009969967
0.08514302
0.08514529
0.0851163
0.009970107
0.0851085
0.009969494
0.00996987
0.0851424
0.08514274
0.0851066
0.009969882
0.08510492
0.00996955
0.009969922
0.08514305
0.08514294
0.08510471
0.00996997
0.08510408
0.009969607
0.009969974
0.08514359
0.08514376
0.08510446
0.009969987
0.0851039
0.00996962
0.009969979
0.08514365
0.08514407
0.08510442
0.009969993
0.3249892
0.3749956
0.312281
0.3877081
0.3122887
0.3877002
0.5249942
0.5749917
0.5122863
0.5877114
0.5122976
0.587706
0.7249986
0.7749956
0.7122904
0.7877066
0.7122979
0.7877053
0.9250002
0.9750026
0.9122918
0.9877044
0.9122965
0.9877072
1.124999
1.175
1.112294
1.187703
1.112294
1.187709
1.325002
1.374998
1.312295
1.3877
1.312292
1.38771
1.525011
1.575007
1.512297
1.587706
1.512291
1.587717
1.72502
1.775044
1.712298
1.787716
1.712295
1.787717
1.926967
1.976207
1.927602
1.977142
1.927932
1.976485
1.927598
1.977139
1.927931
1.976487
1.928116
1.977253
1.928028
1.97737
1.92815
1.977463
1.928184
1.977429
1.928214
1.97748
1.928196
1.97754
1.928219
1.977495
1.928223
1.977544
1.928228
1.977497
1.928224
1.977548
1.928229
1.977497
1.928228
1.977548
1.928232
1.977497
1.928229
1.977548
1.928234
1.977488
1.928235
1.977546
1.928161
1.977472
1.92826
1.97768
1.928042
1.977637
1.925803
1.928181
1.978156
1.928238
1.977469
1.928251
1.97754
1.928233
1.977496
1.92823
1.977546
1.977496
1.928229
1.92814
1.97725
1.928031
1.977373
1.928227
1.923888
1.977781
1.928654
1.977529
1.929049
1.924305
1.977907
1.929028
1.924307
1.977967
1.928692
1.977596
1.923892
1.928301
1.977861
1.928233
1.977501
1.928249
1.977545
1.928229
1.977496
1.928228
1.977547
1.928231
1.977497
1.928228
1.977548
1.928231
1.977497
1.928229
1.977548
1.928231
1.977497
1.928229
1.977548
1.928231
1.977497
1.928229
1.977548
1.928231
1.977497
1.928229
1.977548
1.928231
1.977497
1.928229
1.977548
1.928232
1.977497
1.92823
1.977548
1.928231
1.977497
1.92823
1.977548
1.928232
1.977497
1.92823
1.977548
1.928232
1.977497
1.92823
1.977548
1.928234
1.977496
1.928231
1.977546
1.928239
1.977469
1.928251
1.97754
1.928043
1.977637
1.928181
1.925804
1.978155
1.928621
1.977586
1.9283
1.925333
1.977839
1.92865
1.977705
1.925695
1.928383
1.977849
1.928332
1.977626
1.928173
1.977614
1.928674
1.923832
1.977893
1.925297
1.928956
1.977843
1.927183
1.976148
1.924968
1.976777
1.912542
1.989899
1.912548
1.989884
1.914747
1.914825
1.98998
1.990011
1.914749
1.914888
1.989974
1.924933
1.925024
1.976891
1.927193
1.976238
1.914844
1.990182
1.990045
1.915687
1.915107
1.990343
1.915522
1.990447
1.990016
1.914857
1.990177
1.914869
1.915684
1.99
1.990023
1.914918
1.914854
1.99003
1.914872
1.99004
1.99003
1.915117
1.914883
1.99003
1.914887
1.915524
1.990006
1.99003
1.914855
1.914884
1.99003
1.914887
1.916069
1.990004
1.990012
1.91486
1.91496
1.990028
1.990042
1.915182
1.990665
1.990042
1.915184
1.990665
1.914891
1.990012
1.914961
1.990028
1.914892
1.99003
1.914894
1.990029
1.914892
1.99003
1.914894
1.990028
1.91489
1.915219
1.989666
1.990003
1.914974
1.990026
1.914943
1.990037
1.915228
1.92793
1.976587
1.927649
1.977132
0.03445134
0.009448756
0.07188192
0.02274481
0.07197032
0.02262811
0.07178403
0.0225179
0.07180139
0.02245738
0.07176927
0.02250079
0.0717736
0.02244992
0.07176717
0.02250073
0.07176954
0.02244955
0.07176676
0.02250077
0.07176871
0.02244945
0.07176697
0.02250076
0.07176876
0.02244948
0.02250102
0.07177002
0.03523119
0.01031262
0.03522545
0.01029265
0.0352318
0.01030359
0.03522688
0.01028138
0.03523071
0.01030352
0.03522531
0.01028086
0.0352305
0.01030342
0.03522495
0.01028078
0.03523045
0.0103034
0.03522489
0.01028076
0.03523045
0.01030339
0.03522489
0.01028075
0.03523045
0.0103034
0.03522488
0.01028076
0.03523046
0.0103034
0.03522488
0.01028076
0.03523046
0.01030339
0.03522489
0.01028076
0.03523046
0.01030339
0.03522489
0.01028076
0.03523046
0.01030339
0.03522489
0.01028076
0.03523046
0.0103034
0.03522489
0.01028076
0.03523046
0.0103034
0.03522488
0.01028076
0.03523046
0.01030339
0.03522489
0.01028076
0.03523048
0.0103034
0.03522491
0.01028076
0.0352305
0.01030345
0.03522501
0.01028078
0.03523094
0.01030359
0.03522523
0.01028091
0.03523274
0.0103041
0.0352267
0.01028463
0.03523488
0.01032135
0.03522945
0.01033881
0.01050284
0.03566917
0.009971949
0.0338256
0.0338242
0.009969731
0.03382198
0.03382212
0.009969359
0.03382151
0.03382214
0.009969471
0.03382173
0.03382227
0.009969491
0.03382173
0.03382234
0.009969498
0.03382179
0.03382241
0.009969506
0.03382187
0.03382249
0.03523139
0.01039311
0.03523464
0.01036365
0.04715325
0.1455609
0.1447455
0.04682326
0.1443648
0.1441602
0.04677598
0.1440578
0.1440016
0.04676592
0.1439751
0.1439606
0.0467639
0.1439546
0.1439521
0.04676554
0.1439528
0.1439567
0.1439652
0.2374842
0.2124899
0.2124987
0.2374959
0.2490555
0.3505726
0.3495641
0.437484
0.4124915
0.4125145
0.4375012
0.449765
0.5502177
0.549861
0.63751
0.6124902
0.6125037
0.6374962
0.6499196
0.7499938
0.7499473
0.8375171
0.8125092
0.812504
0.8374961
0.8499764
0.9499999
0.9499879
1.037501
1.012482
1.012504
1.037496
1.050012
1.150009
1.150023
1.237514
1.212498
1.212504
1.237496
1.250052
1.349984
1.35008
1.437498
1.412479
1.412506
1.437503
1.450138
1.549602
1.550234
1.637513
1.612487
1.612503
1.637496
1.650434
1.749138
1.750939
1.837523
1.812508
1.812513
1.83753
1.855261
1.952326
1.952823
1.855836
1.95309
1.953176
1.856001
1.953208
1.95321
1.856081
1.953169
1.953173
1.856043
1.953222
1.953235
1.856079
1.953236
1.953248
0.0723858
0.02285441
0.07206402
0.0235013
0.03521456
0.0103171
0.03521435
0.010323
0.1624948
0.1875026
0.07184804
0.02253388
0.07181302
0.02256892
0.07177935
0.0225022
0.07177511
0.02245352
0.07176882
0.02250099
0.07176974
0.02244963
0.07176714
0.02250077
0.07176879
0.02244951
0.0717668
0.02250075
0.07176861
0.02244944
0.07176717
0.0225009
0.07176944
0.02244952
0.03523309
0.01030479
0.03522699
0.01028434
0.03523102
0.01030375
0.03522538
0.01028094
0.03523054
0.01030347
0.03522501
0.01028075
0.03523046
0.0103034
0.0352249
0.01028076
0.03523045
0.01030339
0.03522488
0.01028075
0.03523045
0.0103034
0.03522488
0.01028076
0.03523046
0.0103034
0.03522488
0.01028076
0.03523046
0.01030339
0.03522489
0.01028076
0.03523046
0.01030339
0.03522489
0.01028076
0.03523046
0.01030339
0.03522489
0.01028076
0.03523046
0.0103034
0.03522489
0.01028076
0.03523046
0.0103034
0.03522489
0.01028076
0.03523045
0.01030339
0.03522489
0.01028076
0.03523046
0.0103034
0.0352249
0.01028076
0.03523051
0.01030344
0.03522496
0.01028079
0.03523064
0.01030356
0.03522523
0.01028086
0.03523161
0.01030404
0.03522662
0.01028125
0.03523601
0.01032156
0.03523259
0.01029465
0.03535893
0.01097227
0.03552132
0.0105501
0.07187969
0.02177549
0.02304921
0.07647224
0.07137071
0.07605184
0.02253844
0.1241105
0.1775284
0.1749857