/*--------------------------------*- C++ -*----------------------------------*\
  =========                 |
  \\      /  F ield         | OpenFOAM: The Open Source CFD Toolbox
   \\    /   O peration     | Website:  https://openfoam.org
    \\  /    A nd           | Version:  7
     \\/     M anipulation  |
\*---------------------------------------------------------------------------*/
FoamFile
{
    version     2.0;
    format      ascii;
    class       volScalarField;
    location    "0.1";
    object      k;
}
// * * * * * * * * * * * * * * * * * * * * * * * * * * * * * * * * * * * * * //

dimensions      [0 2 -2 0 0 0 0];

internalField   nonuniform List<scalar> 
90967
(
0.003789674
0.003788829
0.003789889
0.003789769
0.003789759
0.003789383
0.003790335
0.003790954
0.003792846
0.003792949
0.003793029
0.003792742
0.003790281
0.003791628
0.003793885
0.003794174
0.00379449
0.003794382
0.003790375
0.003791837
0.00379436
0.003794864
0.003795411
0.003795562
0.003790278
0.003791943
0.003794683
0.003795436
0.003796284
0.003796752
0.003790086
0.003791931
0.003794908
0.003795961
0.003797161
0.003798028
0.003789696
0.003791762
0.003795014
0.003796432
0.003798065
0.003799416
0.003789048
0.003791373
0.00379494
0.0037968
0.003798953
0.003800895
0.003788038
0.003790684
0.003794623
0.003797015
0.003799794
0.003802454
0.003786583
0.003789594
0.003793984
0.00379702
0.003800558
0.003804083
0.003784576
0.003787987
0.00379293
0.003796753
0.003801226
0.003805811
0.003781906
0.003785763
0.003791377
0.003796153
0.003801762
0.00380764
0.003778385
0.003782787
0.003789208
0.003795155
0.003802186
0.003809744
0.00377393
0.003779032
0.003786408
0.003793761
0.003802454
0.003812033
0.003768321
0.003774288
0.003782775
0.0037918
0.003802628
0.003814854
0.003761755
0.003768886
0.003778689
0.00378963
0.003802824
0.00381809
0.003754208
0.003762176
0.003773133
0.003785716
0.003801145
0.003819758
0.003746412
0.00375574
0.003767603
0.003782013
0.003799651
0.003821368
0.003735637
0.003760657
0.003789433
0.00382067
0.003855118
0.003895008
0.003942091
0.003692362
0.003823973
0.003949742
0.00407466
0.004206932
0.004354894
0.004531388
0.003697691
0.003700895
0.003705913
0.003711368
0.003716612
0.003722665
0.003729673
0.003853799
0.003844753
0.0038446
0.003843133
0.003841442
0.00383962
0.003837314
0.003417474
0.003413601
0.003413442
0.003413411
0.003413395
0.003413399
0.003413444
0.003417996
0.003413591
0.003413435
0.00341338
0.003413382
0.003413398
0.003413437
0.003417734
0.003413592
0.003413415
0.003413389
0.0034134
0.003413444
0.003413504
0.003417817
0.003413603
0.003413444
0.003413415
0.003413441
0.003413499
0.003413589
0.003417825
0.003413621
0.003413463
0.00341345
0.00341349
0.003413577
0.003413698
0.003417907
0.00341365
0.003413507
0.003413518
0.003413574
0.003413691
0.003413851
0.003418038
0.00341371
0.003413579
0.003413628
0.003413717
0.003413876
0.00341408
0.003418059
0.003413832
0.003413699
0.003413807
0.00341395
0.00341418
0.003414444
0.003418081
0.003414056
0.003413898
0.003414089
0.003414313
0.003414656
0.003415027
0.003418115
0.003414396
0.003414227
0.003414532
0.003414871
0.003415383
0.003415942
0.003418169
0.003414858
0.003414764
0.003415225
0.003415737
0.003416494
0.003417338
0.003418272
0.003415577
0.00341561
0.003416288
0.003417058
0.003418211
0.003419562
0.003418429
0.003416675
0.003416917
0.003417928
0.003419111
0.003420882
0.003423009
0.003418649
0.003418299
0.003418851
0.003420323
0.00342214
0.003424976
0.003428575
0.003418938
0.003420598
0.003421654
0.003423891
0.003426851
0.003431467
0.003437815
0.003419309
0.003423778
0.003425492
0.003428802
0.003433441
0.003441075
0.003452243
0.003420367
0.003427717
0.003430509
0.003435372
0.003443172
0.003456349
0.003478121
0.003421261
0.0034335
0.003435505
0.003442457
0.003453856
0.003475322
0.003513609
0.003429201
0.003427618
0.003436751
0.003448901
0.003464584
0.003497017
0.003561208
0.003710488
0.00369235
0.003410946
0.003411042
0.003411159
0.003411365
0.003411792
0.003412579
0.00384764
0.003793966
0.003789627
0.003791382
0.003790517
0.003790211
0.003418011
0.003413442
0.003413402
0.003413397
0.003413381
0.003413371
0.003413417
0.003413706
0.003413239
0.003413233
0.003413202
0.003413205
0.003413219
0.003413259
0.003413629
0.003413229
0.003413239
0.003413222
0.003413225
0.003413272
0.003413327
0.003413621
0.003413249
0.003413254
0.003413243
0.00341327
0.003413321
0.003413411
0.003413634
0.003413269
0.003413292
0.003413281
0.003413324
0.003413401
0.00341352
0.003413643
0.003413301
0.003413341
0.003413349
0.003413412
0.003413513
0.003413673
0.003413656
0.003413351
0.003413428
0.003413461
0.003413564
0.0034137
0.003413904
0.003413686
0.003413439
0.003413562
0.00341364
0.003413805
0.003414005
0.003414271
0.003413743
0.003413599
0.00341378
0.00341392
0.003414177
0.003414481
0.003414855
0.003413854
0.003413876
0.003414126
0.003414359
0.003414745
0.003415209
0.003415775
0.003414054
0.003414336
0.003414678
0.003415046
0.003415618
0.003416312
0.003417154
0.003414396
0.003415071
0.003415529
0.003416099
0.003416949
0.003418015
0.003419359
0.003414933
0.003416211
0.003416837
0.003417726
0.003418997
0.003420635
0.003422687
0.003415764
0.003417863
0.003418734
0.00342008
0.003422
0.003424633
0.003428233
0.003416881
0.003420302
0.003421534
0.003423682
0.00342677
0.00343117
0.003437183
0.003418618
0.003423268
0.00342512
0.003428388
0.003432943
0.003440095
0.003450983
0.003420146
0.003427725
0.003430288
0.003434938
0.003443277
0.003456477
0.003478258
0.003423967
0.003433614
0.003434327
0.00344432
0.003456648
0.003480497
0.003525197
0.003420814
0.003427006
0.003430411
0.003434021
0.003446822
0.003470737
0.00352481
0.003703901
0.003708304
0.003711999
0.003716244
0.003721802
0.003691482
0.003410894
0.003411059
0.003411226
0.003411333
0.003411665
0.00341236
0.003851656
0.003794035
0.003791411
0.003793434
0.003792734
0.003792411
0.003417703
0.003413427
0.003413392
0.003413394
0.003413366
0.003413368
0.00341339
0.003413587
0.003413208
0.003413219
0.003413199
0.003413206
0.003413222
0.003413262
0.00341353
0.003413177
0.003413193
0.003413216
0.003413226
0.003413273
0.003413328
0.003413549
0.003413188
0.003413216
0.003413234
0.003413266
0.00341332
0.003413411
0.003413561
0.003413212
0.003413245
0.003413273
0.003413317
0.003413399
0.003413519
0.003413573
0.003413252
0.003413291
0.00341334
0.003413402
0.003413509
0.00341367
0.003413589
0.003413311
0.003413375
0.003413454
0.00341355
0.003413695
0.003413899
0.003413613
0.003413412
0.003413504
0.003413635
0.003413787
0.003413999
0.003414265
0.003413659
0.003413585
0.003413717
0.003413919
0.003414156
0.003414476
0.00341485
0.003413738
0.003413876
0.00341406
0.003414364
0.003414723
0.003415208
0.003415774
0.003413864
0.003414357
0.003414609
0.003415061
0.003415599
0.003416318
0.003417163
0.003414064
0.003415117
0.003415463
0.003416132
0.003416944
0.003418045
0.003419396
0.003414349
0.003416298
0.003416785
0.003417791
0.003419026
0.003420711
0.003422792
0.003414775
0.00341799
0.003418714
0.003420206
0.003422102
0.003424807
0.003428456
0.003415216
0.003420528
0.003421596
0.003423927
0.003427004
0.003431532
0.003437738
0.00341606
0.003423539
0.003425276
0.00342878
0.003433344
0.003440716
0.00345175
0.003416138
0.003428204
0.003430597
0.003435428
0.003444015
0.003457745
0.003480525
0.003419485
0.00343384
0.003434511
0.003445468
0.003457724
0.003482242
0.003527017
0.003420236
0.003426631
0.00342991
0.003423825
0.003444742
0.003469031
0.003524613
0.003706616
0.003711847
0.003715125
0.003718867
0.00372372
0.003691097
0.003410869
0.003411091
0.003411283
0.003411361
0.003411684
0.003412368
0.003852684
0.003794118
0.003791671
0.00379401
0.003793239
0.003792993
0.003417748
0.003413391
0.003413388
0.003413391
0.003413364
0.003413364
0.003413388
0.00341364
0.00341317
0.003413189
0.003413189
0.003413198
0.003413217
0.003413258
0.003413533
0.003413132
0.003413169
0.003413198
0.003413217
0.003413269
0.003413325
0.003413533
0.003413141
0.003413173
0.003413209
0.003413255
0.003413313
0.003413408
0.003413549
0.003413157
0.003413206
0.003413245
0.003413305
0.003413393
0.003413516
0.003413557
0.003413187
0.003413249
0.00341331
0.00341339
0.003413502
0.003413669
0.003413574
0.003413236
0.003413334
0.003413423
0.003413541
0.003413687
0.003413898
0.003413596
0.003413329
0.003413463
0.003413603
0.003413781
0.003413992
0.003414265
0.003413639
0.003413495
0.003413677
0.003413886
0.003414154
0.00341447
0.003414852
0.003413718
0.003413779
0.003414019
0.003414331
0.003414727
0.003415204
0.003415781
0.003413845
0.003414252
0.00341457
0.003415028
0.003415609
0.003416317
0.003417172
0.00341405
0.003415005
0.003415427
0.0034161
0.003416965
0.003418056
0.003419424
0.003414342
0.003416181
0.003416753
0.003417762
0.003419058
0.003420725
0.003422812
0.00341478
0.003417862
0.003418679
0.003420173
0.003422136
0.003424814
0.003428513
0.003415236
0.003420411
0.003421573
0.003423892
0.003427025
0.003431519
0.003437712
0.003416131
0.003423362
0.003425188
0.003428641
0.003433242
0.003440651
0.003451873
0.003416226
0.00342819
0.003430627
0.003435444
0.003444352
0.003458445
0.003481743
0.00341987
0.003433605
0.003434396
0.003445728
0.003458152
0.003483144
0.003529261
0.003420481
0.003426373
0.003430587
0.003423628
0.003445928
0.003470414
0.003526217
0.00370647
0.00371151
0.003714875
0.003718643
0.003723631
0.003691049
0.003410859
0.003411094
0.003411283
0.003411361
0.003411687
0.003412373
0.003852778
0.003794117
0.003791671
0.003794007
0.003793238
0.003792993
0.003417737
0.003413391
0.003413388
0.003413391
0.003413364
0.003413365
0.003413388
0.003413639
0.00341317
0.003413189
0.003413189
0.003413198
0.003413217
0.003413258
0.003413533
0.003413132
0.003413169
0.003413198
0.003413217
0.003413269
0.003413325
0.003413533
0.003413141
0.003413173
0.003413209
0.003413255
0.003413313
0.003413408
0.003413549
0.003413157
0.003413206
0.003413245
0.003413305
0.003413393
0.003413516
0.003413557
0.003413187
0.003413249
0.003413311
0.00341339
0.003413502
0.003413669
0.003413574
0.003413236
0.003413334
0.003413423
0.003413541
0.003413687
0.003413898
0.003413596
0.003413329
0.003413463
0.003413604
0.003413781
0.003413992
0.003414266
0.003413639
0.003413495
0.003413676
0.003413887
0.003414154
0.00341447
0.003414853
0.003413718
0.003413778
0.00341402
0.003414331
0.003414727
0.003415204
0.003415781
0.003413846
0.003414252
0.00341457
0.003415028
0.003415609
0.003416317
0.003417172
0.003414048
0.003415005
0.003415427
0.0034161
0.003416965
0.003418055
0.003419424
0.003414341
0.003416183
0.003416753
0.003417763
0.003419058
0.003420725
0.003422812
0.003414779
0.003417864
0.003418679
0.003420174
0.003422137
0.003424815
0.003428514
0.003415233
0.003420415
0.003421573
0.003423893
0.003427023
0.003431518
0.003437711
0.003416133
0.003423361
0.003425187
0.003428641
0.003433248
0.00344066
0.003451882
0.003416232
0.003428192
0.003430642
0.003435453
0.003444351
0.003458436
0.003481737
0.003419862
0.003433602
0.003434394
0.003445719
0.003458152
0.00348317
0.003529305
0.003420453
0.003426383
0.00343059
0.003423658
0.003445935
0.003470419
0.003526256
0.003706483
0.003711511
0.003714883
0.003718645
0.003723633
0.003691064
0.003410859
0.003411095
0.003411283
0.003411362
0.003411687
0.003412373
0.003852529
0.003794031
0.003791407
0.003793429
0.003792729
0.003792404
0.003417727
0.003413427
0.003413392
0.003413394
0.003413366
0.003413369
0.00341339
0.003413587
0.003413208
0.003413219
0.003413199
0.003413206
0.003413223
0.003413262
0.00341353
0.003413178
0.003413193
0.003413216
0.003413226
0.003413273
0.003413328
0.003413548
0.003413188
0.003413215
0.003413234
0.003413266
0.00341332
0.003413411
0.003413561
0.003413212
0.003413245
0.003413273
0.003413317
0.003413399
0.003413518
0.003413573
0.003413252
0.003413291
0.00341334
0.003413402
0.003413509
0.00341367
0.003413589
0.00341331
0.003413375
0.003413454
0.00341355
0.003413695
0.003413899
0.003413613
0.003413411
0.003413504
0.003413635
0.003413787
0.003413999
0.003414265
0.003413657
0.003413585
0.003413718
0.003413919
0.003414156
0.003414476
0.00341485
0.003413736
0.003413876
0.00341406
0.003414365
0.003414724
0.003415209
0.003415775
0.003413865
0.003414356
0.003414609
0.003415061
0.003415599
0.003416319
0.003417164
0.003414063
0.003415114
0.003415465
0.003416132
0.003416945
0.003418047
0.003419398
0.003414352
0.003416294
0.003416787
0.003417791
0.003419027
0.003420714
0.003422795
0.003414772
0.003417987
0.003418718
0.003420206
0.003422105
0.003424811
0.003428461
0.003415213
0.003420527
0.003421604
0.00342393
0.003427013
0.003431545
0.003437748
0.003416064
0.003423538
0.00342528
0.003428787
0.003433351
0.003440726
0.003451758
0.003416138
0.003428196
0.003430579
0.003435431
0.003444045
0.003457813
0.003480591
0.003419488
0.003433845
0.003434532
0.003445529
0.00345778
0.003482211
0.003526936
0.003420297
0.003426537
0.003429883
0.003423697
0.003444714
0.003469098
0.003524692
0.003706624
0.003711836
0.003715116
0.003718869
0.003723706
0.003691068
0.003410869
0.003411091
0.003411282
0.003411361
0.003411685
0.003412367
0.003851312
0.003793964
0.003789622
0.003791365
0.003790474
0.003790174
0.003417999
0.003413443
0.003413403
0.003413398
0.003413384
0.003413371
0.003413417
0.003413709
0.003413239
0.003413232
0.003413202
0.003413205
0.00341322
0.00341326
0.003413629
0.00341323
0.003413239
0.003413222
0.003413225
0.003413272
0.003413327
0.00341362
0.003413249
0.003413254
0.003413243
0.00341327
0.003413321
0.003413411
0.003413633
0.003413269
0.003413292
0.003413281
0.003413324
0.003413401
0.00341352
0.003413642
0.003413301
0.00341334
0.003413349
0.003413412
0.003413513
0.003413674
0.003413656
0.003413351
0.003413428
0.003413462
0.003413564
0.0034137
0.003413904
0.003413686
0.00341344
0.003413562
0.00341364
0.003413805
0.003414005
0.003414271
0.003413741
0.003413601
0.003413778
0.00341392
0.003414177
0.003414482
0.003414856
0.003413853
0.003413872
0.003414128
0.003414357
0.003414746
0.003415209
0.003415776
0.003414054
0.003414332
0.003414679
0.003415044
0.003415618
0.003416312
0.003417155
0.003414392
0.003415076
0.003415528
0.003416098
0.003416949
0.003418015
0.00341936
0.003414929
0.003416221
0.003416838
0.003417726
0.003418998
0.003420636
0.003422689
0.003415761
0.003417877
0.003418731
0.003420082
0.003422003
0.003424637
0.003428237
0.003416868
0.003420326
0.003421526
0.003423681
0.003426767
0.003431177
0.003437186
0.003418612
0.003423263
0.003425117
0.003428385
0.003432965
0.003440115
0.003451004
0.003420155
0.003427723
0.003430339
0.003434942
0.003443214
0.003456417
0.003478238
0.003423949
0.003433587
0.003434287
0.003444225
0.003456618
0.00348067
0.003525583
0.003420987
0.003426434
0.003430477
0.003434394
0.003446861
0.003470742
0.003524959
0.003703902
0.003708305
0.003712041
0.003716238
0.003721794
0.00369129
0.003410895
0.003411058
0.003411229
0.003411334
0.00341166
0.003412362
0.00385787
0.003848533
0.003850806
0.003850078
0.003847239
0.003845451
0.003843545
0.003417338
0.003413604
0.003413445
0.003413411
0.003413395
0.003413395
0.003413447
0.003417791
0.003413591
0.003413434
0.003413379
0.003413382
0.003413398
0.003413437
0.003417965
0.003413593
0.003413415
0.003413389
0.0034134
0.003413443
0.003413503
0.003417789
0.003413603
0.003413444
0.003413415
0.003413441
0.003413499
0.003413588
0.003417809
0.003413621
0.003413463
0.00341345
0.00341349
0.003413577
0.003413697
0.003417787
0.00341365
0.003413507
0.003413517
0.003413574
0.003413691
0.00341385
0.003417762
0.00341371
0.003413579
0.003413628
0.003413717
0.003413876
0.003414079
0.003417736
0.00341383
0.0034137
0.003413807
0.00341395
0.00341418
0.003414444
0.003417697
0.003414047
0.003413901
0.00341409
0.003414313
0.003414657
0.003415027
0.003417742
0.003414394
0.003414229
0.003414538
0.003414872
0.003415387
0.003415942
0.003417552
0.003414851
0.003414754
0.003415228
0.003415736
0.003416496
0.003417339
0.003417465
0.003415577
0.003415603
0.003416293
0.003417059
0.003418216
0.003419565
0.003417375
0.003416677
0.003416908
0.003417934
0.003419113
0.003420889
0.003423014
0.003417269
0.003418291
0.003418862
0.003420328
0.003422151
0.003424997
0.003428591
0.003417059
0.003420586
0.003421684
0.003423908
0.003426872
0.003431487
0.003437821
0.00341667
0.003423789
0.003425478
0.003428827
0.00343348
0.003441199
0.003452346
0.003416001
0.003427777
0.00343048
0.003435433
0.003443229
0.003456344
0.003478018
0.003416766
0.003433472
0.003435432
0.003442424
0.003453832
0.003475567
0.003514288
0.003430651
0.003427909
0.003437584
0.003446853
0.00346016
0.003495809
0.003562078
0.003700037
0.003692192
0.003410944
0.003411038
0.003411159
0.003411364
0.003411795
0.003412571
0.004008035
0.004013594
0.004015082
0.004013904
0.003999168
0.003999376
0.004005589
0.003427038
0.003789593
0.003788922
0.003789905
0.003789779
0.003789833
0.003789412
0.003435348
0.003790446
0.003790983
0.003792822
0.003792948
0.003793037
0.003792753
0.003427203
0.003790286
0.003791666
0.003793887
0.003794187
0.003794491
0.003794387
0.003427008
0.003790371
0.003791842
0.003794355
0.003794865
0.003795411
0.003795564
0.003426966
0.003790273
0.003791947
0.003794682
0.003795439
0.003796284
0.003796753
0.003427021
0.003790085
0.003791932
0.003794907
0.003795962
0.003797162
0.003798029
0.00342718
0.003789693
0.003791762
0.003795014
0.003796434
0.003798066
0.003799417
0.003427229
0.00378905
0.003791375
0.003794943
0.0037968
0.003798954
0.003800896
0.003427173
0.003788064
0.003790694
0.003794628
0.003797018
0.003799796
0.003802455
0.00342881
0.003786651
0.003789575
0.00379399
0.003797017
0.00380056
0.003804084
0.00342739
0.003784652
0.003788017
0.003792936
0.003796759
0.003801229
0.003805815
0.003427009
0.003781943
0.003785806
0.003791373
0.003796159
0.003801765
0.003807644
0.003426061
0.003778422
0.003782815
0.003789209
0.003795159
0.003802191
0.003809751
0.003426155
0.003773963
0.003779049
0.003786413
0.003793766
0.003802464
0.003812045
0.003429413
0.003768355
0.003774292
0.00378277
0.003791785
0.003802632
0.003814875
0.003427971
0.003761869
0.003768849
0.003778701
0.003789669
0.003802909
0.003818144
0.003430725
0.003754244
0.003762157
0.003773126
0.003785661
0.003801113
0.003819844
0.003423199
0.003746474
0.003755699
0.003767604
0.003782841
0.003800796
0.003821328
0.003420424
0.003459712
0.003484218
0.003518259
0.003541466
0.00362354
0.003769238
0.003843316
0.003619841
0.003411286
0.003411528
0.00341206
0.003411701
0.00341362
0.00341347
0.003414102
0.003848176
0.004025327
0.003429607
0.00342035
0.003836949
0.003847455
0.004008009
0.004035169
0.003422908
0.003419074
0.003842844
0.003849104
0.004013507
0.004038441
0.003422286
0.003420088
0.003844718
0.003848952
0.004015081
0.004038806
0.003423303
0.003420057
0.003844601
0.003848587
0.004014503
0.00403787
0.003422932
0.003420111
0.003844118
0.00384776
0.004012857
0.004035412
0.003423206
0.003420034
0.0038431
0.003846524
0.004010032
0.004031906
0.003423295
0.003420013
0.003841604
0.004006057
0.003423611
0.00383431
0.003842183
0.003426837
0.003540796
0.003426889
0.003548552
0.00384056
0.003840732
0.003427073
0.003546684
0.003427043
0.003545826
0.003841047
0.003841047
0.003426939
0.003545752
0.003426957
0.003545718
0.003841059
0.003841045
0.003426984
0.003545824
0.003426965
0.003545854
0.003840901
0.003840875
0.003426956
0.003545729
0.003426939
0.003545791
0.00384039
0.003840433
0.003427016
0.003545536
0.003426919
0.003545596
0.00383938
0.003839578
0.003427176
0.003545156
0.003426856
0.003545116
0.003837871
0.003838185
0.003427227
0.003544489
0.003426759
0.003544198
0.003835628
0.003836077
0.003427178
0.003543556
0.003426647
0.003542701
0.003832491
0.00383305
0.0034271
0.003542014
0.003426505
0.003540541
0.003828114
0.003828839
0.003426995
0.003539163
0.003426262
0.003537614
0.003822314
0.003823157
0.003426915
0.003535188
0.003425985
0.003533777
0.003814658
0.003815604
0.003426847
0.003529951
0.003426003
0.003528334
0.00380477
0.003805651
0.003426961
0.003523323
0.003426079
0.003521122
0.003792116
0.003792852
0.003427381
0.003514817
0.003425881
0.003511633
0.003776798
0.003777292
0.003428258
0.003504393
0.003425655
0.003499504
0.003758194
0.003757991
0.003431256
0.003489358
0.003424138
0.003482742
0.003738962
0.003736644
0.003431137
0.003466228
0.003421329
0.003462172
0.003725851
0.00368819
0.003421616
0.003449434
0.003421973
0.003636208
0.003639155
0.003588879
0.003411948
0.003767449
0.003637801
0.003648554
0.00341218
0.003415735
0.003898471
0.003647887
0.003659019
0.003412606
0.0034172
0.004030192
0.003658615
0.003670019
0.003412935
0.003418577
0.00416787
0.003670023
0.00368163
0.003413505
0.003420438
0.004322417
0.003682453
0.003694661
0.003414192
0.003421956
0.004506537
0.003696393
0.003710599
0.003415402
0.003425422
0.003713727
0.003417429
0.003698111
0.003619868
0.003411229
0.003946956
0.00342664
0.003418667
0.00396824
0.003426836
0.003419228
0.003592506
0.003412512
0.003587941
0.003412728
0.003958739
0.003425834
0.00342006
0.003964121
0.003425739
0.003420365
0.003586538
0.003412375
0.003586529
0.003412597
0.003964332
0.003425709
0.003420147
0.003965902
0.003425573
0.003420151
0.003586389
0.003412397
0.003586524
0.003412617
0.003965848
0.00342557
0.003420147
0.003966061
0.003425573
0.003420143
0.00358648
0.003412475
0.003586697
0.00341259
0.003966104
0.003425565
0.003420145
0.003965838
0.00342558
0.003420144
0.00358671
0.003412583
0.003586512
0.003412483
0.003965786
0.00342556
0.003420153
0.003964144
0.003425707
0.00342015
0.003586555
0.003412619
0.003586408
0.0034124
0.003963958
0.003425723
0.003420348
0.003958856
0.003425847
0.003420062
0.003586537
0.003412598
0.003586569
0.003412373
0.0039684
0.003426855
0.003419233
0.003946969
0.003426642
0.003418606
0.003587948
0.003412705
0.003592724
0.003412519
0.004025343
0.003429624
0.003420426
0.003848146
0.004035347
0.003422794
0.003419085
0.003836923
0.003847548
0.004038508
0.003422316
0.003420085
0.003842897
0.003849119
0.004038816
0.003423286
0.003419995
0.00384473
0.003848981
0.004032889
0.003422756
0.003420168
0.003844696
0.003849163
0.004013087
0.003423979
0.00342079
0.00384496
0.003847972
0.004030923
0.00342367
0.003420127
0.003842948
0.003846612
0.003423628
0.003841591
0.003541001
0.003427605
0.003549572
0.003834359
0.00384382
0.00354586
0.003427908
0.003546342
0.003843811
0.003842523
0.003545862
0.003427017
0.003545624
0.003841371
0.003841086
0.003545803
0.003426966
0.003545837
0.003841064
0.003841032
0.003545723
0.003426937
0.003545786
0.003840886
0.00384086
0.003545533
0.003426917
0.003545592
0.003840386
0.003840428
0.003545151
0.003426848
0.003545109
0.003839372
0.003839569
0.003544476
0.003426714
0.003544151
0.003837865
0.003838182
0.003543474
0.003425996
0.003543616
0.003835657
0.003836276
0.003544531
0.003426101
0.003542196
0.003832651
0.00383339
0.003540036
0.003425744
0.003538376
0.003828754
0.003829999
0.003530516
0.003425584
0.003529253
0.003814986
0.003816434
0.003523381
0.003425397
0.003521301
0.003804795
0.003805899
0.003505827
0.003433358
0.003503496
0.003777301
0.003777814
0.003488942
0.003421204
0.003483751
0.00375827
0.003758851
0.003466874
0.003420801
0.003464503
0.003740362
0.003738414
0.003450601
0.003419632
0.003726508
0.003688421
0.003589002
0.003412017
0.003636497
0.003639342
0.003412235
0.003415586
0.0036944
0.003779261
0.003639541
0.003649159
0.003412608
0.003417274
0.003826322
0.003914101
0.003648211
0.003659362
0.003412928
0.003418782
0.003952609
0.004028999
0.003658714
0.00367079
0.003413563
0.003420806
0.004070339
0.00367002
0.003683326
0.003414196
0.003421507
0.003682487
0.003694928
0.00341542
0.003425899
0.004474123
0.003696511
0.003708512
0.003418253
0.004527456
0.003710243
0.003411232
0.003698207
0.003440158
0.003973092
0.0036245
0.003937612
0.00362654
0.003936917
0.003629902
0.003942813
0.003630816
0.003941579
0.003632563
0.003944089
0.003631309
0.003942849
0.003632549
0.003944027
0.003631629
0.003942747
0.003632193
0.00394366
0.003631351
0.003942387
0.003630981
0.003942626
0.003630372
0.003941295
0.003628695
0.003940728
0.003628375
0.003939306
0.003626269
0.003937854
0.003626049
0.003936377
0.003623311
0.003933701
0.0036227
0.003932242
0.003618422
0.003927701
0.003617964
0.003926327
0.003611858
0.003919554
0.003611861
0.00391813
0.003603484
0.003908884
0.003604206
0.003907281
0.003592691
0.003894835
0.003594951
0.003893074
0.003579647
0.003876616
0.003584349
0.00387467
0.003563348
0.003853205
0.003572242
0.003851114
0.003543916
0.003823812
0.003553741
0.003821812
0.003520463
0.00378607
0.003526886
0.003783699
0.003493631
0.00374003
0.003498161
0.003736108
0.003472634
0.003696224
0.003468276
0.00369334
0.003739457
0.003711861
0.003744796
0.003459757
0.003471502
0.003427212
0.003443005
0.003762936
0.003778265
0.003810651
0.00348425
0.003502445
0.003428268
0.003456555
0.003791972
0.003851321
0.003882428
0.003514456
0.003539206
0.003434787
0.003481254
0.003823619
0.003926212
0.003962312
0.003549147
0.003583254
0.00344589
0.003523086
0.003858938
0.004011712
0.004057851
0.003595334
0.00364681
0.003473593
0.003606876
0.003900145
0.004114937
0.004177078
0.003673162
0.003765706
0.003548872
0.003804312
0.004245633
0.003847696
0.003746281
0.0033902
0.003563292
0.003419799
0.003499777
0.003373915
0.003709226
0.003523048
0.003430728
0.003431418
0.00334924
0.003535857
0.00343398
0.003840175
0.003558694
0.003444467
0.003436595
0.003416819
0.003566261
0.003493324
0.00396891
0.003592789
0.003461655
0.003445632
0.003482791
0.003595915
0.003555696
0.004097849
0.003627429
0.003482621
0.003461928
0.003550403
0.003627591
0.003625828
0.004237231
0.003664066
0.003512845
0.003499304
0.003623819
0.003661723
0.003710884
0.004397305
0.003705046
0.003573156
0.003586957
0.00370996
0.003701348
0.003754725
0.003694833
0.00381801
0.003413557
0.003640698
0.003412697
0.003642466
0.003465895
0.003465075
0.003440519
0.003419643
0.00343089
0.003443361
0.003419651
0.003236168
0.003429707
0.003237212
0.003423585
0.0034649
0.003465235
0.003427853
0.003423487
0.003421009
0.00342999
0.003423898
0.003235782
0.003420821
0.00323573
0.003420234
0.003466155
0.003466941
0.003429281
0.00342303
0.003420292
0.003429747
0.003422746
0.003235783
0.003419665
0.00323616
0.003418759
0.003466974
0.003467606
0.003430351
0.003422576
0.003420458
0.003430436
0.003422555
0.003235952
0.003418721
0.003235759
0.003418673
0.003466732
0.003467657
0.003430425
0.003422555
0.003420475
0.003430338
0.003422573
0.003235996
0.003418705
0.0032358
0.00341866
0.003467135
0.003467509
0.00342976
0.003422742
0.003420243
0.003429293
0.003423023
0.003236281
0.003418939
0.003236116
0.003418738
0.003466672
0.003467167
0.003429953
0.0034239
0.003420777
0.003427826
0.003423512
0.00323611
0.00341925
0.003236029
0.003421393
0.003467381
0.003467262
0.00344279
0.003419651
0.003428428
0.003440701
0.003419758
0.00323604
0.003421895
0.003235993
0.003426227
0.003450084
0.003461207
0.00353657
0.003425278
0.003534899
0.003823965
0.00382453
0.003515849
0.003433528
0.003513761
0.003793
0.003793295
0.00347098
0.00342719
0.003440721
0.003735402
0.003739075
0.003711762
0.003725297
0.003502717
0.003428169
0.003455105
0.003760139
0.003762748
0.003764205
0.003772483
0.003543282
0.003434789
0.003474779
0.003789671
0.003794098
0.00382667
0.003858875
0.003576235
0.003445135
0.003473828
0.003825294
0.003831896
0.003872371
0.003956369
0.003671238
0.003487483
0.003517231
0.003865092
0.003869491
0.003999171
0.004063874
0.003768201
0.003591789
0.003797638
0.003903135
0.003902102
0.004100941
0.004139142
0.003747961
0.003942163
0.004247846
0.003255688
0.003425496
0.00323792
0.003427836
0.003615673
0.003953681
0.003634805
0.003931665
0.00344994
0.003461429
0.00362686
0.003943252
0.003626656
0.003941112
0.003631069
0.003943935
0.003629884
0.0039425
0.003632936
0.003944303
0.003631646
0.003942961
0.003632857
0.003944144
0.00363172
0.003942862
0.003632618
0.003943801
0.003631719
0.003942548
0.003632062
0.003942929
0.003631367
0.003941718
0.003630863
0.003941269
0.003630256
0.003940072
0.003628793
0.003938632
0.003628549
0.003937433
0.003625728
0.00393465
0.003626185
0.003933458
0.003621472
0.003928931
0.003622714
0.003927728
0.003615524
0.003920924
0.003617976
0.003919703
0.003607186
0.003910059
0.00361183
0.003908615
0.003596375
0.003895133
0.003601843
0.003893507
0.003584448
0.003875849
0.003589396
0.003874141
0.003569238
0.003851448
0.003575253
0.003848944
0.003550782
0.003820202
0.003557243
0.003817312
0.003526684
0.003777446
0.003532256
0.003775188
0.003490562
0.003725428
0.003494522
0.00372359
0.003455338
0.003662082
0.00344679
0.003675514
0.003319235
0.003611419
0.003522024
0.003438866
0.003453175
0.003344745
0.003503487
0.003412229
0.003639432
0.003412076
0.003639476
0.003255923
0.003426719
0.00342846
0.003237977
0.003381009
0.003744233
0.003555129
0.003447263
0.003433999
0.003407247
0.003538233
0.003445434
0.003868361
0.0035861
0.003460216
0.003445526
0.003467795
0.003571288
0.003510125
0.003990907
0.003617253
0.003482636
0.003460697
0.003529607
0.003603868
0.003578508
0.00411502
0.003649997
0.003530273
0.003484871
0.003596049
0.003638214
0.00365566
0.00424937
0.003686384
0.003613038
0.003530781
0.003672393
0.003675407
0.003749735
0.004405337
0.003730574
0.003810849
0.003671558
0.003766236
0.003718868
0.003467545
0.003467766
0.003236074
0.003421907
0.00342649
0.003235978
0.003466874
0.003466873
0.003236098
0.003419262
0.003421422
0.00323577
0.003466802
0.003467421
0.003235974
0.003418954
0.003418734
0.003235823
0.003466906
0.003467818
0.003235782
0.003418704
0.003418661
0.003235963
0.00346673
0.003467537
0.003235967
0.003418719
0.003418672
0.003236016
0.003466834
0.003467618
0.003235954
0.003419636
0.003418757
0.003236079
0.003464638
0.00346498
0.003235865
0.003420755
0.003420199
0.00323586
0.003465746
0.003464826
0.003236176
0.003428803
0.003423157
0.003237077
0.003440128
0.003972643
0.003442898
0.003979519
0.003437144
0.003968346
0.003615579
0.003953649
0.003635166
0.003931652
0.003434676
0.003969103
0.003439443
0.003976062
0.003437208
0.00398833
0.003438948
0.003981077
0.003436354
0.003974372
0.003440093
0.003978864
0.00343987
0.003993346
0.003440926
0.003986555
0.003436135
0.003976807
0.003442033
0.003980334
0.003439255
0.003993656
0.003440619
0.003987713
0.003435471
0.003976413
0.003442845