/*--------------------------------*- C++ -*----------------------------------*\
  =========                 |
  \\      /  F ield         | OpenFOAM: The Open Source CFD Toolbox
   \\    /   O peration     | Website:  https://openfoam.org
    \\  /    A nd           | Version:  7
     \\/     M anipulation  |
\*---------------------------------------------------------------------------*/
FoamFile
{
    version     2.0;
    format      ascii;
    class       volScalarField;
    location    "0.1";
    object      p;
}
// * * * * * * * * * * * * * * * * * * * * * * * * * * * * * * * * * * * * * //

dimensions      [0 2 -2 0 0 0 0];

internalField   nonuniform List<scalar> 
90967
(
1.786153
2.912726
4.152024
5.306124
6.472967
7.592903
1.782308
2.958221
4.171278
5.354853
6.521059
7.656063
1.821718
2.982154
4.230202
5.414533
6.604184
7.748769
1.838295
3.03596
4.291564
5.505977
6.709482
7.875583
1.878381
3.093298
4.381284
5.615067
6.848874
8.036391
1.917562
3.167304
4.481376
5.751106
7.013402
8.23439
1.971069
3.248575
4.603802
5.907153
7.210256
8.468723
2.028607
3.341895
4.737524
6.086047
7.433586
8.73846
2.091489
3.443396
4.886585
6.283478
7.687917
9.049604
2.153838
3.548996
5.04321
6.4923
7.956895
9.385995
2.214243
3.653426
5.203804
6.716666
8.258179
9.775247
2.268828
3.740269
5.343025
6.915877
8.536698
10.1432
2.311739
3.806257
5.460065
7.109658
8.843124
10.59367
2.320206
3.80283
5.484121
7.182419
9.0172
10.92049
2.277736
3.728133
5.409497
7.176226
9.152509
11.30262
2.136945
3.483843
5.085211
6.836344
8.919536
11.3454
1.856976
3.045163
4.458099
6.137661
8.281579
11.0264
1.351086
2.253034
3.319011
4.667827
6.638796
9.548285
0.7407634
1.389063
2.106087
3.052577
4.439496
6.659634
10.21671
0.06070322
0.1150783
0.1854162
0.2728632
0.4041586
0.6348811
1.134362
28.79762
28.80209
28.81117
28.82507
28.8421
28.86164
28.88146
1.528075
2.745014
3.942266
5.120291
6.275839
7.403868
8.500586
0.3122787
1.776849
2.92399
4.148133
5.306174
6.471492
7.592129
0.3391714
1.720936
2.949509
4.159748
5.35002
6.517564
7.651662
0.3481488
1.762181
2.972014
4.220261
5.410835
6.602074
7.745803
0.3571095
1.768108
3.024866
4.276546
5.500477
6.706733
7.873072
0.3635736
1.808485
3.081427
4.366599
5.609397
6.847392
8.034835
0.3725664
1.840806
3.157005
4.46435
5.745489
7.011726
8.232807
0.3827543
1.889397
3.239414
4.585988
5.901542
7.209551
8.466855
0.3922367
1.943404
3.331659
4.719891
6.079542
7.432638
8.736698
0.404218
2.006573
3.429888
4.869274
6.276774
7.686485
9.047558
0.4195594
2.077615
3.53078
5.024241
6.483766
7.954743
9.381403
0.4355277
2.141805
3.634383
5.182762
6.705007
8.254153
9.769662
0.447643
2.197711
3.721225
5.318142
6.898134
8.524098
10.13017
0.4563456
2.239547
3.789012
5.431804
7.083998
8.81595
10.56342
0.4577456
2.245838
3.784653
5.44658
7.137421
8.959021
10.84188
0.4512967
2.203382
3.71126
5.36358
7.104784
9.04234
11.1306
0.4293232
2.072867
3.452676
5.018012
6.71221
8.708601
10.98256
0.3826989
1.78949
2.982659
4.335525
5.914326
7.877078
10.27564
0.3074549
1.333839
2.111488
3.090643
4.294852
5.998189
8.386362
0.199053
0.6313792
1.055007
1.53442
2.163956
3.085474
4.502336
6.714161
28.7997
28.79831
28.80514
28.81613
28.82869
28.849
28.86834
1.523058
2.967
4.106465
5.293334
6.441849
7.56315
0.3327553
1.832436
2.911136
4.153138
5.3067
6.47334
7.589423
0.6695769
1.720511
2.984341
4.162377
5.35609
6.51755
7.65347
0.6284812
1.770822
2.996117
4.221391
5.416451
6.600918
7.746656
0.6610206
1.772287
3.056424
4.276122
5.509879
6.70496
7.875216
0.6654127
1.81306
3.109261
4.366757
5.616067
6.845092
8.035834
0.6806791
1.850277
3.185484
4.463982
5.753894
7.008188
8.23415
0.6939191
1.899298
3.267686
4.584857
5.908827
7.204803
8.467142
0.7135526
1.9511
3.361175
4.717306
6.086659
7.425938
8.735191
0.7357906
2.011051
3.461573
4.86465
6.28323
7.67801
9.044328
0.7589208
2.073099
3.564541
5.016043
6.487183
7.940984
9.370587
0.7814066
2.134576
3.667824
5.172577
6.706573
8.237879
9.756101
0.8004701
2.186315
3.750928
5.299282
6.885507
8.487571
10.08808
0.815331
2.226679
3.817546
5.413456
7.07195
8.783552
10.5256
0.8147112
2.223822
3.800521
5.405153
7.08558
8.860524
10.69689
0.801346
2.179799
3.732641
5.328799
7.069306
8.975317
11.03455
0.7483799
2.041645
3.426117
4.913308
6.533342
8.405265
10.49632
0.662695
1.752155
2.99813
4.258254
5.814331
7.705043
10.06035
0.4897954
1.336902
1.973447
2.792954
3.732141
5.044002
6.788049
0.2470398
0.5786033
0.9007594
1.125545
1.698003
2.575722
4.198735
28.81096
28.82116
28.833
28.8472
28.87152
28.79709
28.79796
28.80363
28.81533
28.82938
28.84532
28.8668
1.518767
2.970396
4.119489
5.290025
6.444957
7.562082
0.3280535
1.833918
2.895362
4.154203
5.300493
6.470421
7.586609
0.5825955
1.709476
2.95708
4.157715
5.347822
6.51591
7.649482
0.54421
1.762385
2.964438
4.21761
5.406677
6.597954
7.742621
0.5558776
1.749664
3.01859
4.266759
5.49669
6.700923
7.870291
0.5609488
1.796179
3.068324
4.359233
5.602177
6.841336
8.030871
0.5756359
1.822689
3.14312
4.452652
5.738216
7.003356
8.228422
0.5916569
1.872658
3.223761
4.573124
5.891871
7.199901
8.460593
0.6086847
1.924967
3.315493
4.704272
6.067891
7.419448
8.727036
0.6276975
1.985554
3.414616
4.850839
6.26272
7.669576
9.033004
0.6474786
2.047054
3.515928
5.000183
6.463672
7.928529
9.354486
0.6674858
2.107516
3.617523
5.153976
6.679255
8.219566
9.732095
0.6848796
2.156277
3.697289
5.275762
6.851818
8.457783
10.04842
0.6998526
2.193305
3.761929
5.381495
7.026877
8.73142
10.45546
0.7029627
2.187705
3.740924
5.363486
7.021299
8.780934
10.58631
0.6964375
2.140474
3.670004
5.268233
6.968216
8.825624
10.81938
0.6593443
2.006335
3.362832
4.829601
6.387022
8.187295
10.17285
0.5912421
1.70805
2.914207
4.106448
5.554559
7.298342
9.438667
0.4617719
1.322093
1.884749
2.605027
3.402384
4.521899
6.011743
0.2642162
0.5547393
0.7991469
0.8873695
1.314472
1.971594
3.220817
28.80776
28.8217
28.83048
28.85106
28.86741
28.79553
28.79739
28.8016
28.81505
28.82746
28.84661
28.86414
1.52195
2.975656
4.114113
5.291288
6.442962
7.56133
0.3312815
1.839369
2.896033
4.153657
5.300718
6.470422
7.586705
0.6115593
1.699053
2.967583
4.15749
5.350398
6.51515
7.650227
0.5591451
1.745485
2.971999
4.212877
5.408596
6.596378
7.742823
0.5868207
1.737908
3.028737
4.262508
5.50003
6.698956
7.870941
0.5862226
1.779625
3.077657
4.352634
5.603842
6.838508
8.030733
0.6003385
1.812868
3.152551
4.446206
5.74077
6.999924
8.228342
0.6148888
1.861984
3.232338
4.566413
5.893519
7.195659
8.459617
0.6347275
1.913594
3.323698
4.696972
6.069224
7.414091
8.72489
0.6548133
1.972538
3.422228
4.842626
6.263234
7.663223
9.029943
0.6752213
2.032799
3.522767
4.99044
6.461879
7.919198
9.347121
0.6949445
2.092486
3.623856
5.143207
6.675508
8.208156
9.721995
0.7121051
2.140092
3.701446
5.261089
6.840825
8.436965
10.02418
0.7272589
2.177518
3.765922
5.366556
7.013441
8.709049
10.4287
0.727795
2.169356
3.737864
5.337836
6.990395
8.727317
10.51365
0.7194209
2.123536
3.670769
5.244146
6.939018
8.776262
10.75185
0.6764037
1.98774
3.34363
4.777096
6.299372
8.04662
9.972593
0.6057985
1.695104
2.914524
4.06833
5.497409
7.200619
9.307325
0.4688839
1.311381
1.839749
2.505558
3.2183
4.232919
5.592335
0.2724109
0.5556929
0.8139003
0.8737629
1.29788
1.948891
3.217289
28.80821
28.82208
28.83105
28.85019
28.86902
28.7951
28.79716
28.80131
28.81508
28.82783
28.84629
28.86394
1.522051
2.975611
4.113978
5.291211
6.44305
7.561763
0.3312105
1.839105
2.896085
4.153617
5.300731
6.470545
7.586884
0.6116434
1.69911
2.967556
4.157441
5.350282
6.515112
7.650276
0.5591807
1.745316
2.972042
4.212806
5.408638
6.596408
7.742921
0.5868855
1.737891
3.028735
4.262442
5.499981
6.698874
7.870939
0.5861938
1.779555
3.077655
4.352557
5.60385
6.83848
8.030781
0.600332
1.8128
3.152524
4.446102
5.740726
6.999839
8.22832
0.6148496
1.861906
3.232269
4.566323
5.893466
7.195591
8.459622
0.6347086
1.91343
3.323646
4.69682
6.069148
7.413975
8.724859
0.6547126
1.972406
3.422081
4.842495
6.263104
7.663072
9.029841
0.6751507
2.032512
3.522659
4.990206
6.461793
7.918966
9.346976
0.6945077
2.092289
3.623606
5.143009
6.675388
8.207866
9.72175
0.7116476
2.13981
3.701149
5.260841
6.840629
8.436545
10.0238
0.7267441
2.17742
3.765583
5.366401
7.013216
8.708534
10.42814
0.727459
2.169133
3.737481
5.337392
6.989812
8.726518
10.51269
0.7191969
2.123481
3.670533
5.243915
6.938462
8.775249
10.75063
0.676484
1.987516
3.343353
4.776401
6.298444
8.045303
9.970573
0.6056537
1.695273
2.914714
4.06866
5.497422
7.199269
9.305209
0.4687018
1.311219
1.839202
2.504516
3.216991
4.231385
5.589993
0.2725575
0.555192
0.8147791
0.8749851
1.2998
1.950365
3.21771
28.80741
28.82188
28.83051
28.84929
28.8683
28.79494
28.79715
28.80078
28.81463
28.82711
28.84528
28.86312
1.522824
2.969806
4.119002
5.289292
6.444978
7.561735
0.3294166
1.833619
2.894961
4.153751
5.300147
6.470425
7.586872
0.5827668
1.709267
2.956912
4.157378
5.347421
6.515827
7.649403
0.5439518
1.762426
2.96433
4.217469
5.406636
6.597909
7.742804
0.5558041
1.749664
3.018535
4.266607
5.496555
6.700831
7.870305
0.5609027
1.79618
3.068329
4.359162
5.602193
6.841259
8.030918
0.5756457
1.822701
3.143072
4.452599
5.738154
7.003297
8.228386
0.5916692
1.872759
3.22371
4.573068
5.891802
7.199818
8.4605
0.6087134
1.92529
3.315454
4.704309
6.067778
7.419374
8.72686
0.6276489
1.985998
3.414518
4.850802
6.26249
7.669327
9.032593
0.6475243
2.048539
3.51561
5.000398
6.463269
7.928266
9.353999
0.6675647
2.108038
3.617088
5.153668
6.678543
8.218934
9.731291
0.6851767
2.156865
3.696981
5.275322
6.850877
8.456848
10.04718
0.7001606
2.193416
3.761392
5.380499
7.025265
8.729679
10.45339
0.7031884
2.187933
3.740472
5.362465
7.019459
8.778415
10.583
0.696666
2.140619
3.669403
5.26652
6.965289
8.821394
10.81389
0.6595301
2.007098
3.362174
4.828089
6.38356
8.18171
10.16506
0.5913784
1.707485
2.912509
4.103169
5.548737
7.289858
9.427312
0.4621407
1.321795
1.884107
2.603568
3.399024
4.514903
6.0002
0.2700084
0.5570503
0.7977346
0.8849674
1.309526
1.964564
3.212914
28.80764
28.82114
28.83061
28.85216
28.86779
28.79514
28.79728
28.80149
28.81516
28.82748
28.847
28.86391
1.520518
2.967285
4.106125
5.292007
6.442625
7.565104
0.3366478
1.830934
2.911725
4.152772
5.306102
6.473488
7.59003
0.6703377
1.720841
2.984396
4.162067
5.355329
6.517546
7.653626
0.6288472
1.770333
2.996314
4.221167
5.416505
6.601024
7.747037
0.6612667
1.772079
3.056393
4.275848
5.509596
6.70471
7.87522
0.6654943
1.812732
3.10926
4.36646
5.616101
6.844963
8.035963
0.6807194
1.850137
3.185452
4.463685
5.753743
7.007913
8.23407
0.6938743
1.899111
3.267595
4.584525
5.908677
7.204522
8.467036
0.7137301
1.950934
3.361117
4.716921
6.086427
7.425563
8.734988
0.7361405
2.011355
3.461414
4.864131
6.282775
7.677462
9.04398
0.7601966
2.073359
3.564657
5.015364
6.486685
7.940159
9.369929
0.7809822
2.134015
3.667381
5.171437
6.705513
8.236557
9.754857
0.7994217
2.1855
3.750449
5.297924
6.884256
8.485791
10.08619
0.8139348
2.225783
3.816598
5.411646
7.069784
8.780527
10.52237
0.813945
2.222971
3.799591
5.403276
7.08293
8.85683
10.69206
0.8017036
2.178686
3.731638
5.325844
7.064407
8.967478
11.02602
0.7503822
2.041408
3.425608
4.910629
6.529522
8.399241
10.48557
0.6623896
1.75113
2.996629
4.254046
5.805188
7.688
10.03855
0.4890368
1.336678
1.972396
2.788542
3.72938
5.04047
6.772701
0.2639151
0.5733131
0.9024412
1.128848
1.702293
2.575795
4.189853
28.81032
28.82141
28.83239
28.84619
28.86975
28.79634
28.7975
28.80283
28.81483
28.82806
28.84326
28.86485
1.500074
2.70841
3.890057
5.060306
6.225385
7.348653
8.445986
0.2890846
1.775766
2.923376
4.147347
5.304421
6.471345
7.593416
0.282699
1.720011
2.949163
4.159233
5.348609
6.5176
7.651344
0.2759202
1.761799
2.971781
4.219857
5.41083
6.602127
7.746563
0.2817883
1.767959
3.024735
4.276205
5.500073
6.706508
7.873108
0.2856171
1.808251
3.081341
4.366287
5.609476
6.847208
8.035047
0.2930019
1.840799
3.156949
4.464121
5.745338
7.011516
8.232736
0.2994773
1.889452
3.239329
4.585757
5.901398
7.209313
8.466724
0.3069762
1.943946
3.331661
4.71976
6.079267
7.432383
8.736355
0.3138003
2.007843
3.430067
4.869043
6.276281
7.68603
9.046956
0.3194621
2.082711
3.531521
5.024689
6.483145
7.95424
9.380449
0.3303774
2.143793
3.633945
5.182122
6.703729
8.252775
9.768002
0.3397966
2.200522
3.720597
5.317469
6.896338
8.522078
10.12749
0.347308
2.24096
3.7879
5.429987
7.080949
8.812274
10.55893
0.3496754
2.248176
3.783639
5.444687
7.133713
8.953935
10.83461
0.3463886
2.208986
3.710547
5.36048
7.099022
9.033594
11.11825
0.332918
2.083005
3.452021
5.014982
6.704477
8.695707
10.96288
0.3040953
1.792491
2.979814
4.329682
5.900823
7.854135
10.24505
0.2675953
1.332519
2.108125
3.081973
4.273729
5.948863
8.324598
0.2077038
0.6287773
0.9911588
1.380467
1.892257
2.648829
3.875023
5.657039
28.79753
28.79794
28.80461
28.81642
28.82831
28.84945
28.86822
1.324106
2.517855
3.705281
4.878936
5.875947
7.166179
8.272445
0.1327709
1.785533
2.912817
4.150616
5.30266
6.470016
7.595303
0.3065367
1.785785
2.957972
4.170809
5.352561
6.522627
7.656329
0.148971
1.820597
2.981971
4.229633
5.414388
6.604323
7.749536
0.1527939
1.838277
3.035849
4.291164
5.505226
6.70939
7.875524
0.1550973
1.877903
3.093424
4.380781
5.615209
6.848741
8.036557
0.1582991
1.917258
3.167204
4.480969
5.75086
7.013086
8.234279
0.1610347
1.970312
3.248367
4.603225
5.906987
7.209885
8.468587
0.1642388
2.027741
3.341451
4.736949
6.085671
7.433104
8.738116
0.1697307
2.089378
3.442786
4.885501
6.282812
7.687102
9.048966
0.1786328
2.15342
3.54826
5.04234
6.491439
7.955848
9.384996
0.179119
2.212451
3.652626
5.201878
6.715025
8.256237
9.773385
0.1765055
2.268356
3.740157
5.341141
6.913935
8.53424
10.14036
0.183035
2.309734
3.805374
5.456589
7.105766
8.838001
10.58813
0.1842291
2.319385
3.801732
5.481378
7.179095
9.012626
10.91331
0.1836521
2.274037
3.727152
5.402854
7.165189
9.135978
11.2837
0.1717511
2.138589
3.4833
5.081721
6.834559
8.917633
11.3317
0.1595937
1.855008
3.041655
4.449389
6.102894
8.211468
10.94738
0.3003957
1.354267
2.255287
3.288469
4.653866
6.648512
9.528978
0.1015016
0.6661996
1.122775
1.635536
2.307885
3.168421
4.773773
8.381804
28.79839
28.79985
28.80406
28.81388
28.82826
28.84156
28.86642
28.89088
0.8443765
1.003992
0.1248905
0.7937435
1.491
2.020655
1.324621
2.159074
1.468582
1.992929
2.69679
3.175655
2.518543
3.337619
2.687689
3.173868
3.893615
4.358438
3.706177
4.523159
3.887665
4.361328
5.072233
5.519994
4.882898
5.683723
5.067806
5.523876
6.229823
6.662984
6.03907
6.824849
6.226508
6.667388
7.360708
7.776137
7.171107
7.934736
7.357396
7.779929
8.461943
8.271081
8.455374
0.8307497
0.9149498
0.134826
0.7201335
0.1418509
0.7536658
0.9041403
0.9272278
0.1423972
0.7260255
0.1497023
0.7464914
0.9350081
0.9377476
0.1500605
0.741872
0.153237
0.7441195
0.9479981
0.9521483
0.1531322
0.752421
0.1553841
0.7584726
0.9697457
0.9722015
0.1551403
0.7727054
0.1575073
0.772115
0.9862696
1.000326
0.158349
0.7894459
0.1588358
0.7924327
1.011406
1.027267
0.1610458
0.8086193
0.1605216
0.8095916
1.040618
1.057963
0.1641882
0.828358
0.1653067
0.8324829
1.072963
1.090143
0.1688666
0.8531476
0.1698433
0.8607416
1.10777
1.128069
0.1728956
0.8849088
0.1740383
0.893219
1.139917
1.16074
0.1778056
0.9161831
0.178245
0.9247859
1.165801
1.183861
0.1822283
0.9442848
0.1813654
0.9522614
1.17772
1.198196
0.1851877
0.9676453
0.1832963
0.9720875
1.168938
1.195243
0.1855894
0.9763722
0.1827246
0.9810674
1.138296
1.162468
0.1828497
0.9691224
0.1773228
0.9679754
1.062788
1.081401
0.1743603
0.9214516
0.1653274
0.9210668
0.9351476
0.9249013
0.1569565
0.83263
0.1426684
0.8159237
0.7234047
0.6217414
0.1271192
0.6666491
0.1068801
0.6052766
0.4222683
0.1481442
0.08603925
0.4263017
0.1076728
0.04609565
28.80347
28.79944
28.80176
0.09431767
28.80265
28.80916
28.80004
28.80533
0.154973
28.80842
28.81699
28.80614
28.81334
0.2313657
28.81755
28.82889
28.81455
28.82608
0.3437286
28.82973
28.84379
28.82672
28.84105
0.5338775
28.84658
28.86194
28.84441
28.86038
0.9362477
28.86717
28.88377
28.86515
28.87956
28.8921
28.88613
28.79904
28.79863
28.79997
1.010894
0.1294415
0.8509513
1.110529
0.1284652
0.8508715
28.7992
28.80425
28.79886
28.80175
1.109881
0.1332479
0.8544667
1.152073
0.1358905
0.8566534
28.79762
28.80227
28.79712
28.79915
1.172406
0.1359045
0.8479613
1.181803
0.1360607
0.8542172
28.79634
28.79956
28.79587
28.79821
1.178563
0.1369347
0.8517886
1.179639
0.1366921
0.8523696
28.79554
28.79907
28.79527
28.7982
1.179752
0.1367399
0.8523907
1.178249
0.136891
0.8516702
28.79529
28.79809
28.79548
28.79926
1.181649
0.1358441
0.8542328
1.172378
0.1358036
0.8479106
28.7958
28.79811
28.79611
28.79943
1.152008
0.1357803
0.8567218
1.109823
0.1332734
0.8542729
28.7968
28.79895
28.79729
28.80203
1.109919
0.1285118
0.850999
1.010448
0.1292858
0.8501866
28.79847
28.80135
28.7987
28.80384
1.003974
0.1237124
0.7955049
0.8450557
2.15832
1.468266
1.992395
1.490595
2.020202
3.336623
2.687107
3.172957
2.696374
3.175285
4.519264
3.887571
4.35901
3.894623
4.35701
5.650452
5.06897
5.495979
5.072036
5.512286
6.699992
6.281348
6.64944
6.226785
6.700817
7.935718
7.361998
7.776415
7.371895
7.783011
8.458697
8.465437
0.7241288
0.1429231
0.7538111
0.82612
0.9046685
0.7514315
0.1533895
0.7457591
0.9105829
0.9218259
0.7431867
0.1532529
0.7448727
0.9316989
0.9388899
0.7517137
0.1553218
0.7587258
0.9475747
0.9526688
0.7722492
0.1574844
0.7723513
0.9690157
0.9724441
0.7893988
0.1588283
0.7924192
0.986308
1.000376
0.808587
0.1605508
0.8095315
1.011419
1.027059
0.8285973
0.165058
0.8333355
1.040146
1.056962
0.8575626
0.1837057
0.8663439
1.071135
1.087388
0.9082212
0.1850696
0.9010624
1.107756
1.120431
0.9268072
0.1767477
0.9371683
1.138304
1.161105
0.9722349
0.1793619
0.9799805
1.170337
1.205537
0.9793166
0.1842268
0.9860574
1.165703
1.193037
0.9412772
0.1624424
0.9481087
1.077238
1.085571
0.8440569
0.1326781
0.8229182
0.9395997
0.9319428
0.6527299
0.2674523
0.6043667
0.7277058
0.630466
0.4341756
0.1068199
0.4296667
0.1470574
28.79888
28.80053
0.04635927
28.80098
28.79817
28.80478
0.06272557
0.1459292
28.80014
28.81035
28.8025
28.81227
0.1483824
0.2221482
28.80683
28.81731
28.81382
28.82142
0.2223762
0.2495165
28.81474
28.82826
28.82418
28.84321
0.3093935
28.82625
28.84497
28.8433
28.86315
28.84778
28.86124
28.86513
28.87893
0.9861274
28.86576
28.88157
28.88477
1.16954
28.88682
28.80023
28.79973
0.3145924
0.3822603
0.2330813
0.4310476
0.2638986
0.4177748
0.2113309
0.4893308
0.2634975
0.439288
0.2128406
0.5037339
0.27497
0.4446755
0.215406
0.5094477
0.2790335
0.4490748
0.2209756
0.5196494
0.2868347
0.4573537
0.2259596
0.5264694
0.2938773
0.4621935
0.2304778
0.5355103
0.3016215
0.4675023
0.2380914
0.5492288
0.3134685
0.4776955
0.2466458
0.5652896
0.3281656
0.488745
0.254057
0.5809983
0.3420843
0.501431
0.2616089
0.5960378
0.3555271
0.5119193
0.2701508
0.608276
0.3668557
0.5245646
0.2795519
0.6130006
0.3721478
0.5380811
0.2863072
0.6058135
0.3731295
0.5442612
0.2920582
0.5828712
0.3673533
0.5406611
0.285433
0.5407453
0.347481
0.5175146
0.2719403
0.468002
0.3081896
0.4695983
0.2388868
0.3504747
0.2490383
0.3637864
0.1673752
0.2104883
0.1698628
0.1916869
0.951051
0.1949739
0.2786354
0.6679465
0.8172628
0.1382938
0.1731729
1.542294
0.3385915
0.4290675
1.127106
1.271397
0.2075197
0.266286
2.287979
0.5040383
0.6255598
1.634598
1.826849
0.3025617
0.3845921
3.327055
0.7271575
0.9155993
2.315352
2.65394
0.441612
0.5645869
5.002589
1.078574
1.396179
3.387182
4.024065
0.6609504
0.8943384
7.8091
1.668854
2.327199
5.205813
6.537516
1.059306
1.610909
2.827514
8.52906
1.908607
28.80279
0.02276755
0.008203685
28.80297
28.81565
0.07494777
28.79757
0.02837268
0.02838696
28.79268
28.8088
28.82468
0.1411414
28.80081
0.04576387
0.04734673
28.79445
28.81628
28.83361
0.2274048
28.80909
0.06540162
0.06838051
28.80165
28.82627
28.84624
0.3423581
28.82206
0.09580955
0.09580882
28.81425
28.83999
28.86287
0.5067262
28.84093
0.1460004
0.1359848
28.83291
28.85794
28.8789
0.7916869
28.86447
0.2242532
0.2087122
28.85973
28.87753
28.88966
0.3963627
28.88462
28.7964
28.80002
28.79995
28.79687
0.3430417
0.3484013
0.3811749
0.1106596
0.2067942
0.3740079
0.107548
28.80136
0.007887927
28.80119
0.007335204
0.3365198
0.3415769
0.3145521
0.1041932
0.263758
0.2901293
0.09848111
28.79971
0.00654395
28.79904
0.006551808
0.3338599
0.3444103
0.2695371
0.09560395
0.2699048
0.261606
0.09360347
28.79792
0.005774587
28.79748
0.005722636
0.3388175
0.3470943
0.2567783
0.09395759
0.2725672
0.2540646
0.09366302
28.79729
0.005645062
28.79719
0.005645349
0.3389799
0.3470207
0.2540361
0.09365975
0.2724022
0.2566913
0.0939444
28.79612
0.005630078
28.79702
0.005639989
0.3383731
0.345604
0.2614761
0.0935986
0.2643392
0.269445
0.09557362
28.79699
0.005642537
28.79713
0.005663861
0.3343894
0.3408359
0.289912
0.09844221
0.24664
0.3147121
0.1040323
28.79783
0.005991806
28.79829
0.006169659
0.3417808
0.3453323
0.3723699
0.107114
0.1993925
0.3795433
0.1104591
28.79939
0.006772621
28.80013
0.006887145
0.3347967
0.3362702
0.9598309
0.1757951
0.9663259
1.170365
1.191392
0.9812885
0.186898
0.9867285
1.152145
1.165865
0.8120021
0.1375209
0.1593565
0.7339156
0.9425978
0.197092
0.2354999
1.271608
0.1934863
0.2502018
1.391515
1.541637
0.3044563
0.3714652
1.834296
0.2881508
0.3828523
2.115197
2.291999
0.4704586
0.5911763
2.525547
0.4767839
1.086275
2.992954
3.183355
0.5447658
0.6702179
3.774762
1.411671
1.746261
4.195659
4.767713
0.7288451
1.060309
6.41255
2.672167
1.596837
6.363886
7.681934
1.221523
2.268119
1.892669
10.09511
2.83566
28.80133
0.008519802
28.8007
0.008488105
0.2639281
0.4185251
0.2527656
0.4005558
0.3349907
0.3362356
0.2117417
0.4770419
0.2597534
0.4277249
0.2104758
0.4952566
0.267466
0.4398251
0.2118854
0.5052797
0.2752724
0.444098
0.216197
0.5124118
0.280676
0.450361
0.2211609
0.5223046
0.288342
0.4574906
0.2272935
0.5342361
0.2988513
0.4647158
0.2329238
0.5480392
0.3095584
0.472657
0.2403589
0.5638208
0.3212346
0.4829076
0.2489747
0.5809358
0.3344603
0.49405
0.2568563
0.600744
0.3506371
0.5048136
0.2636283
0.6188586
0.366257
0.5140096
0.2704044
0.6275939
0.3758423
0.5230363
0.2779895
0.6246198
0.3792639
0.5299068
0.2797982
0.6118757
0.3779957
0.5288188
0.2805688
0.5818688
0.365933
0.5123831
0.2689806
0.527701
0.3375422
0.4746134
0.2485144
0.4334804
0.2889556
0.4066441
0.2120633
0.2904426
0.2048253
0.2962584
0.1134613
0.06932215
0.06648479
0.1234379
28.80112
0.03950721
28.80636
0.02059077
0.01307624
28.81212
28.79897
28.80116
28.80059
28.80039
28.80139
28.80175
0.008836433
0.008669608
28.80109
28.79537
0.08898366
28.81256
0.03461572
0.03594571
28.81978
28.79915
28.80339
0.1587381
28.82085
0.04797059
0.05472971
28.82734
28.80611
28.81608
0.247547
28.83305
0.06798252
0.08087947
28.83822
28.81728
28.83181
0.3661817
28.84866
0.09769357
0.121501
28.85186
28.83246
28.85428
0.548516
28.86808
0.1490989
0.1908841
28.8691
28.85428
28.87772
0.8756415
28.88991
0.2723337
0.3212449
28.88905
28.87921
0.3416612
0.3457016
28.79974
0.006782049
0.006923888
28.8005
0.334264
0.3406946
28.79809
0.005997009
0.006178351
28.79854
0.3380244
0.3453093
28.79714
0.005643361
0.005665026
28.79717
0.339269
0.3472617
28.7961
0.005630427
0.005640773
28.79698
0.3391064
0.3471789
28.79736
0.005643627
0.005644393
28.79729
0.3344457
0.3446465
28.79777
0.005772626
0.005720855
28.79726
0.3362047
0.3413463
28.79942
0.006531567
0.006533731
28.79873
0.343563
0.3485702
28.80091
0.00770945
0.007274404
28.801
0.3137467
0.3826505
0.6651637
0.9938863
0.9693417
0.6910557
0.2630693
0.417034
0.249798
0.3999412
1.617378
1.319314
1.301291
1.622355
1.914149
2.161922
2.156613
1.915579
2.815237
2.512448
2.501897
2.807263
3.105547
3.336581
3.333048
3.100422
3.999757
3.698729
3.68675
3.994826
4.291922
4.518598
4.512096
4.284769
5.160578
4.871906
4.855186
5.160523
5.445629
5.670573
5.66188
5.4428
6.338676
6.036993
6.021701
6.315794
6.535272
6.84393
6.424381
6.828481
6.597578
7.462328
7.181009
7.168397
7.45672
7.730137
7.939296
7.936353
7.724347
8.274361
8.261094
0.2446742
0.4325879
0.2679201
0.413476
0.2223861
0.07818763
0.4643173
0.3024931
0.4068962
0.2441134
0.08470065
0.465955
0.314605
0.06586332
0.408557
0.2382567
0.4770732
0.07323506
0.2670513
0.4209399
0.2125268
0.4952162
0.2724862
0.4416906
0.2125303
0.504884
0.276084
0.443397
0.2158986
0.5086823
0.2783296
0.4492584
0.2165289
0.5121049
0.2804523
0.4507072
0.2209279
0.5193547
0.2866745
0.4572669
0.2211787
0.5222362
0.2883063
0.4575136
0.2259674
0.526432
0.2938203
0.4622523
0.2272915
0.5341869
0.2987765
0.4647509
0.2303588
0.5354894
0.3015228
0.4674887
0.2328312
0.5479699
0.3093437
0.4726757
0.2376296
0.5491956
0.3131731
0.4776522
0.2395686
0.5636039
0.320457
0.4828635
0.2453379
0.5639038
0.3254514
0.4865902
0.2475218
0.5711059
0.3272078
0.4914748
0.3092062
0.5694216
0.330022
0.1130392
0.510122
0.2859015
0.5751271
0.3451214
0.09482963
0.4979997
0.2917724
0.5968721
0.08803018
0.3753606
0.4956222
0.2818774
0.4497659
0.3156153
0.4573894
0.2680426
0.09822089
0.4171414
0.1004835
0.3275982
0.3858776
0.1108838
0.06696299
0.06547589
0.118858
28.80226
0.02264026
0.008094761
28.8023
28.80091
0.02036357
0.03976165
28.80437
0.01293608
28.81427
28.79895
28.80095
28.79924
28.79953
28.79925
28.80087
0.02758214
0.09428788
28.80065
0.01355524
28.79867
28.80386
28.80332
0.1324726
28.81197
28.82113
28.79894
28.824
0.0205662
0.1610327
28.80021
0.04721563
28.79429
28.81667
28.80287
0.2017114
28.82069
0.05468484
28.82629
28.80601
28.83255
0.02811987
0.2263337
28.8085
0.06353977
28.8011
28.82672
28.81396
0.03663782
0.2517241
28.83188
0.07461217
28.82949
28.81714
28.82689
28.82806
28.83026
28.84526
28.85246
28.84328
28.86481
28.84424
28.83733
28.85832
28.85535
28.86815
28.86963
28.85494
28.87912
28.86499
28.85936
28.87731
28.88145
0.2681092
0.2963162
28.8922
28.89422
28.88325
0.4114856
28.89522
28.90123
28.79576
28.79969
28.7997
28.79634
0.104128
0.1617645
1.618048
1.319722
1.301407
1.623016
2.815839
2.513127
2.502639
2.808174
4.00221
3.700321
3.687936
3.995719
5.173792
4.877466
4.865893
5.167994
6.325439
6.035332
6.022984
6.32052
7.449861
7.16825
7.155718
7.445809
8.270422
8.257212
0.03190664
0.1849278
0.06498332
0.1521644
0.03603934
0.2147514
0.07698524
0.169935
0.03717435
0.2238584
0.08195024
0.1738789
0.03865158
0.2256388
0.08378974
0.1748193
0.03941817
0.2290824
0.08523821
0.1776374
0.04099793
0.2308602
0.0868024
0.1794314
0.04266487
0.2336366
0.0888701
0.18189
0.04441642
0.2383581
0.09112686
0.1864351
0.04603281
0.2440491
0.09417086
0.1919693
0.04945733
0.2503804
0.09606508
0.1968985
0.05418979
0.2542839
0.09798742
0.2034224
0.05741254
0.2571365
0.09939943
0.2078103
0.05987428
0.2561613
0.09937014
0.2098561
0.06078021
0.2497036
0.09683221
0.2086449
0.06148711
0.2368199
0.09163986
0.2033546
0.06061374
0.2168734
0.08570499
0.188377
0.05807004
0.1845842
0.07550092
0.164665
0.0529193
0.1360221
0.06038074
0.1368573
0.03949041
0.07824519
0.04090176
0.08435163
0.006762553
0.003228872
0.05662691
0.04715454
0.04172899
0.09887703
0.08377459
0.05553621
0.1551338
0.1254349
0.06919418
0.229688
0.1810573
0.106466
0.3518855
0.2829921
0.1883751
0.5904022
0.472754
0.3566845
1.117342
0.8797832
0.8330259
28.79849
28.8018
28.79912
28.79965
28.79959
28.79949
28.80224
28.80641
28.80426
28.80891
28.81914
28.8128
28.82463
28.83474
28.82885
28.83907
28.855
28.84568
28.85913
28.87733
28.86563
28.87944
28.8857
0.08100007
0.08366164
0.003385397
0.003362015
28.80105
28.79794
28.8013
0.07729448
0.07803347
0.00300018
0.003041339
28.79889
28.79661
28.79876
0.07092346
0.07402803
0.002753532
0.00275571
28.79713
28.79526
28.79691
0.06931667
0.07424152
0.002720719
0.002731034
28.79656
28.79496
28.79676
0.06977346
0.07374063
0.002717992
0.002728831
28.79677
28.79506
28.7965
0.07019577
0.07319398
0.002708141
0.002719724
28.79681
28.79536
28.79698
0.07206168
0.07358549
0.002827709
0.002851671
28.7985
28.79686
28.79871
0.0707947
0.0755583
0.003054456
0.003079647
28.80087
28.79949
28.80121
0.08544241
0.08354883
0.003387083
0.003319574
28.80268
28.79859
28.79994
28.80888
28.80189
28.80642
28.82051
28.81137
28.8176
28.83621
28.82623
28.83349
28.86067
28.83806
28.85684
28.87888
28.86414
28.87893
0.6655504
0.9941507
0.9696075
0.690922
0.04066928
0.180852
0.06572751
0.1519379
0.08558789
0.08221848
1.914661
2.162817
2.157471
1.916124
3.106538
3.337404
3.333494
3.101529
4.292522
4.523264
4.519335
4.286466
5.459202
5.683928
5.680229
5.453141
6.60543
6.824741
6.821573
6.599521
7.723287
7.93428
7.931604
7.717209
0.03451586
0.2126316
0.0762951
0.1701973
0.0375979
0.2208306
0.0818004
0.172342
0.03872828
0.2249431
0.08360032
0.1747112
0.03990017
0.2268561
0.08455504
0.1763961
0.04079042
0.2301709
0.08606603
0.1790202
0.04137127
0.2345896
0.08814582
0.1815225
0.04207849
0.2393584
0.09015394
0.1849652
0.04355379
0.2443632
0.09252772
0.1893357
0.04490677
0.2500277
0.0955567
0.1934861
0.04620413
0.2556149
0.09790505
0.1974225
0.04736681
0.2601237
0.1006136
0.2005939
0.04637266
0.2613451
0.1013659
0.2003175
0.04323476
0.2565674
0.09904207
0.1954193
0.04110589
0.2447458
0.09370922
0.1898181
0.03643054
0.2240498
0.08828726
0.1778436
0.02850853
0.1965112
0.08106651
0.1590982
0.02253309
0.159153
0.06948777
0.13308
0.02783806
0.098811
0.0477156
0.09181942
0.02053716
0.008644058
0.002411427
0.03124972
0.2271358
0.3043237
0.1160456
0.1194641
0.2582499
0.1095811
0.2585011
0.10391
0.03865444
0.06533676
0.03598923
0.06575072
0.1041148
0.05237365
0.03877594
0.04075182
28.80025
28.7979
28.79993
28.80198
28.79989
28.80259
28.80066
28.80291
28.80191
28.80083
28.79984
0.003463973
0.00336959
28.80137
28.8002
28.80027
28.80061
28.80088
0.109747
0.07400359
0.07597144
28.80213
28.79991
28.80615
28.80303
28.79972
28.80532
28.80375
28.80124
28.80721
28.80577
28.80767
28.80491
28.80558
28.80129
0.177751
0.107604
0.1066546
28.80901
28.80389
28.81318
28.80794
28.80331
28.81326
28.8105
28.80778
28.81507
28.81395
28.81664
28.81444
28.81382
28.8076
0.2582668
0.1518629
0.1472919
28.81985
28.81169
28.82325
28.8173
28.81199
28.82405
28.82087
28.81832
28.82848
28.82462
28.82821
28.82774
28.8253
28.81754
0.3712959
0.2318651
0.2238708
28.8351
28.82316
28.83684
28.82945
28.82336
28.8382
28.83607
28.83198
28.84507
28.83905
28.84374
28.84518
28.83997
28.83052
0.560124
0.3821024
0.374548
28.85488
28.83896
28.85484
28.8469
28.83928
28.85676
28.85409
28.85189
28.86671
28.85783
28.86201
28.86665
28.85942