/*--------------------------------*- C++ -*----------------------------------*\
  =========                 |
  \\      /  F ield         | OpenFOAM: The Open Source CFD Toolbox
   \\    /   O peration     | Website:  https://openfoam.org
    \\  /    A nd           | Version:  7
     \\/     M anipulation  |
\*---------------------------------------------------------------------------*/
FoamFile
{
    version     2.0;
    format      ascii;
    class       volVectorField;
    location    "0.1";
    object      U;
}
// * * * * * * * * * * * * * * * * * * * * * * * * * * * * * * * * * * * * * //

dimensions      [0 1 -1 0 0 0 0];

internalField   nonuniform List<vector> 
90967
(
(-1.916715 -0.003066078 -0.03454536)
(-1.890785 -0.002499069 -0.001119595)
(-1.899122 -0.0149989 -0.0001859892)
(-1.885823 -0.0155592 -0.000130601)
(-1.877972 -0.02402809 -0.0006542144)
(-1.859551 -0.03202096 -0.0009243224)
(-1.935877 -0.005777911 -0.03985985)
(-1.910447 -0.01099598 -0.0008654533)
(-1.918394 -0.01703753 0.003819271)
(-1.910427 -0.02586417 0.001175865)
(-1.902379 -0.03742289 0.001095437)
(-1.887339 -0.05155582 0.0004989723)
(-1.938856 -0.00631487 -0.04593267)
(-1.91681 -0.0104526 -0.003022569)
(-1.928911 -0.02161869 0.002587074)
(-1.921477 -0.03034393 0.0007178935)
(-1.918968 -0.04813992 0.0002888431)
(-1.907052 -0.06772564 0.0001629951)
(-1.94518 -0.003157105 -0.04350788)
(-1.925354 -0.01027229 -0.002388683)
(-1.939918 -0.0192525 0.003076262)
(-1.937342 -0.03348849 0.000878526)
(-1.938717 -0.0529239 0.0005699792)
(-1.932743 -0.07857944 0.0001924737)
(-1.949935 -0.0003740921 -0.04430114)
(-1.933546 -0.004444677 -0.002593154)
(-1.953002 -0.0155622 0.002900424)
(-1.955553 -0.02958464 0.0008160365)
(-1.963923 -0.05315852 0.0003170502)
(-1.964598 -0.08303357 9.390564e-05)
(-1.953524 0.00671694 -0.04438305)
(-1.941198 0.004511916 -0.002672856)
(-1.966327 -0.004222617 0.003005161)
(-1.976016 -0.02003873 0.0007611661)
(-1.992271 -0.04475581 0.0003346364)
(-2.002086 -0.0791117 5.591044e-05)
(-1.953851 0.01772645 -0.04533585)
(-1.946288 0.01954159 -0.00271837)
(-1.978816 0.01300693 0.002949617)
(-1.99727 -0.001331437 0.0007928509)
(-2.023917 -0.02744452 0.0002621503)
(-2.044864 -0.06512142 4.90452e-05)
(-1.948724 0.0333794 -0.04584707)
(-1.947349 0.04107738 -0.002569147)
(-1.988489 0.03965674 0.002891408)
(-2.01807 0.02760424 0.0008307726)
(-2.057498 0.002078062 0.0002858243)
(-2.092542 -0.03848639 4.450687e-05)
(-1.93552 0.05388038 -0.04673267)
(-1.942042 0.07064978 -0.002353668)
(-1.993329 0.07692886 0.002881691)
(-2.036476 0.06992336 0.0009260368)
(-2.092043 0.04642186 0.0002887186)
(-2.144831 0.004370422 4.608275e-05)
(-1.911404 0.08031967 -0.04751582)
(-1.927281 0.1099313 -0.002251329)
(-1.990697 0.126718 0.002962218)
(-2.049978 0.128234 0.001260502)
(-2.125215 0.1090178 0.0005235171)
(-2.2004 0.06602026 0.0002465784)
(-1.873128 0.113593 -0.04764138)
(-1.898886 0.1606725 -0.00245204)
(-1.977414 0.1917163 0.003046206)
(-2.056597 0.2058855 0.001646852)
(-2.156365 0.195593 0.0009219783)
(-2.260367 0.1548057 0.0004135687)
(-1.816481 0.1552407 -0.04714979)
(-1.851804 0.2249201 -0.002604818)
(-1.947843 0.2754594 0.003297256)
(-2.050272 0.3064917 0.002474652)
(-2.17975 0.3086182 0.002192012)
(-2.319075 0.2723532 0.001743027)
(-1.734494 0.2036427 -0.04629616)
(-1.780452 0.3033868 -0.003148635)
(-1.897188 0.3805404 0.003458868)
(-2.028645 0.4362226 0.00304458)
(-2.196899 0.4587145 0.003336603)
(-2.384006 0.4357664 0.003248709)
(-1.621297 0.2610963 -0.04459148)
(-1.677096 0.3996613 -0.002768825)
(-1.814245 0.5121894 0.004286313)
(-1.976669 0.600729 0.005238964)
(-2.189618 0.6513168 0.006968386)
(-2.435693 0.6461701 0.008880254)
(-1.467735 0.3224814 -0.04225555)
(-1.533587 0.5087922 -0.002989266)
(-1.691885 0.6671003 0.004322375)
(-1.891762 0.8030413 0.00586872)
(-2.161709 0.8984802 0.009453085)
(-2.490672 0.9278363 0.01450001)
(-1.268624 0.3940231 -0.03899497)
(-1.341402 0.6371651 -0.001044034)
(-1.512203 0.8580837 0.005878173)
(-1.743028 1.059846 0.009804417)
(-2.071067 1.225832 0.01695807)
(-2.499707 1.31791 0.02919965)
(-1.009284 0.4630254 -0.03394646)
(-1.089603 0.7613627 -0.004954335)
(-1.266311 1.051887 -0.0007290665)
(-1.520665 1.338793 0.002448377)
(-1.903702 1.603836 0.01518248)
(-2.462515 1.792906 0.04418771)
(-0.6805897 0.5386727 -0.05023092)
(-0.7555953 0.9108375 -0.04998922)
(-0.9094701 1.28879 -0.06591421)
(-1.144487 1.693982 -0.08014823)
(-1.524339 2.139351 -0.09154051)
(-2.146146 2.598859 -0.08837098)
(-0.3966368 0.5399479 -0.05777127)
(-0.5073838 0.9317005 -0.07543185)
(-0.6373516 1.356554 -0.08490105)
(-0.8349242 1.820633 -0.09096752)
(-1.148348 2.369199 -0.1008184)
(-1.6607 2.99607 -0.1115947)
(-2.55339 3.6207 -0.1263918)
(-0.07791769 0.5373226 -0.01182795)
(-0.1331908 0.9827727 -0.0238204)
(-0.208814 1.466395 -0.04171988)
(-0.322535 2.006554 -0.05462387)
(-0.5153901 2.662165 -0.0593594)
(-0.8771919 3.491275 -0.05669742)
(-1.64333 4.586876 -0.04586478)
(0.04550131 -0.02938641 -0.0007724222)
(0.08961112 -0.02348191 -0.001423531)
(0.1402032 -0.02428949 -0.0006829422)
(0.1953341 -0.02828044 -0.004860962)
(0.2459882 -0.03131368 -0.003463252)
(0.3038115 -0.04071918 -0.005302812)
(0.3708879 -0.05433854 -0.005065426)
(-1.879626 -0.02830254 -0.0182125)
(-1.838113 -0.0008416823 -0.01324086)
(-1.822717 0.00475038 -0.01280995)
(-1.795366 -0.000777258 -0.01189196)
(-1.768657 -0.0008887399 -0.01477589)
(-1.738849 -0.00246168 -0.01473374)
(-1.703848 -0.003728498 -0.01483645)
(-1.907487 -0.01634604 -0.0295577)
(-1.924598 -0.0140165 -0.004929593)
(-1.909501 -0.01057254 0.007304834)
(-1.916013 -0.01840844 -0.0006881458)
(-1.904687 -0.01811429 -0.0003776843)
(-1.897295 -0.026493 -0.0002069886)
(-1.878812 -0.03421739 -6.513201e-05)
(-1.898269 0.01021052 -0.01220686)
(-1.936573 0.006282348 0.01018419)
(-1.926494 -0.007062547 -0.008974828)
(-1.923679 -0.01507802 0.001789632)
(-1.915774 -0.02544159 -0.002777652)
(-1.905955 -0.03690449 -8.057548e-05)
(-1.890866 -0.05112841 -0.000917378)
(-1.913326 0.004226666 -0.01182574)
(-1.941903 -0.00679861 0.006872232)
(-1.93103 -0.0102208 -0.003803943)
(-1.933708 -0.02210522 0.0003737765)
(-1.925951 -0.03075109 -0.001496994)
(-1.922654 -0.04890219 -0.0003549147)
(-1.910293 -0.06778911 -0.0004780875)
(-1.912978 0.001105274 -0.01013114)
(-1.948048 -0.0005684657 0.009462219)
(-1.940993 -0.009656064 -0.007653528)
(-1.944829 -0.01860257 0.00082266)
(-1.942343 -0.03295528 -0.002673284)
(-1.942565 -0.05329962 -0.0004543781)
(-1.936293 -0.07816745 -0.0009798944)
(-1.917475 0.002457225 -0.008559136)
(-1.95207 0.0004437717 0.008214364)
(-1.948636 -0.004346652 -0.00672629)
(-1.957985 -0.01563068 0.0006905055)
(-1.959678 -0.02885434 -0.002248656)
(-1.967971 -0.05407122 -0.0004821084)
(-1.96802 -0.08283506 -0.0007324754)
(-1.916305 0.00454947 -0.008380484)
(-1.955364 0.008504137 0.007767429)
(-1.955486 0.004791902 -0.006946972)
(-1.971336 -0.004319711 0.0006955905)
(-1.979535 -0.01909105 -0.002599024)
(-1.996258 -0.04550397 -0.0004712381)
(-2.005462 -0.07899344 -0.0008818201)
(-1.912484 0.007896266 -0.007541526)
(-1.955869 0.01843676 0.006955192)
(-1.959122 0.01964222 -0.006702656)
(-1.983731 0.01310183 0.0008104263)
(-1.999741 -0.0003222333 -0.00245269)
(-2.027833 -0.02803896 -0.0004071759)
(-2.047886 -0.06484719 -0.0007589805)
(-1.903044 0.01333857 -0.007021885)
(-1.951495 0.03394771 0.006982785)
(-1.958646 0.04079785 -0.006660245)
(-1.993241 0.03999247 0.0009035528)
(-2.01948 0.02865857 -0.002383916)
(-2.060947 0.001912556 -0.0002551081)
(-2.095027 -0.03801694 -0.0006407766)
(-1.885747 0.02033907 -0.00668463)
(-1.939419 0.05472226 0.007032692)
(-1.951279 0.07002575 -0.006395606)
(-1.997802 0.07749953 0.001159384)
(-2.036821 0.0709004 -0.002169851)
(-2.094806 0.04687607 -7.183066e-05)
(-2.146412 0.00532257 -0.0004342073)
(-1.857633 0.02802623 -0.006716917)
(-1.915914 0.08233827 0.006965931)
(-1.934463 0.1088244 -0.006100712)
(-1.994279 0.1281045 0.001638035)
(-2.049203 0.1289109 -0.001584558)
(-2.126992 0.1098125 0.0005968234)
(-2.200691 0.06746423 0.0003551717)
(-1.815386 0.03693237 -0.007449773)
(-1.876154 0.1165159 0.007109371)
(-1.904624 0.159102 -0.0060092)
(-1.979552 0.1942864 0.001993434)
(-2.054342 0.2071421 -0.0009675041)
(-2.156828 0.1969338 0.001263792)
(-2.259068 0.1571663 0.0008506386)
(-1.75495 0.04764764 -0.008269607)
(-1.817014 0.1582551 0.007733885)
(-1.856215 0.2225016 -0.005570853)
(-1.948051 0.2789081 0.002938798)
(-2.045894 0.3085852 0.000922981)
(-2.177734 0.3108675 0.004095604)
(-2.315239 0.2750114 0.004607237)
(-1.670866 0.06018001 -0.009133297)
(-1.73272 0.2071671 0.008346776)
(-1.783922 0.3004412 -0.006028568)
(-1.895424 0.385283 0.00311083)
(-2.021808 0.4406725 0.00131449)
(-2.191237 0.4645656 0.004844648)
(-2.376142 0.4416668 0.005420388)
(-1.557726 0.07338668 -0.009842817)
(-1.616545 0.2652336 0.009570514)
(-1.679102 0.3943947 -0.004353837)
(-1.809939 0.5170615 0.005366446)
(-1.966109 0.6063427 0.006676466)
(-2.177878 0.6604885 0.01393395)
(-2.419775 0.6565073 0.02063009)
(-1.4074 0.0860539 -0.01040153)
(-1.460911 0.3276717 0.009770594)
(-1.534795 0.504326 -0.00608857)
(-1.685126 0.6742103 0.003172382)
(-1.877812 0.8144316 0.003104264)
(-2.141895 0.9171253 0.00958021)
(-2.461107 0.9530589 0.01541858)
(-1.215898 0.09601612 -0.0110599)
(-1.257731 0.40229 0.008721407)
(-1.336488 0.6318843 -0.0008469422)
(-1.50048 0.8663167 0.008778746)
(-1.721964 1.073884 0.01691582)
(-2.039363 1.252255 0.03568539)
(-2.448691 1.362368 0.06619019)
(-0.9700644 0.1054385 -0.009826064)
(-0.9942847 0.4687261 0.008878534)
(-1.073121 0.7672645 -0.01081692)
(-1.238878 1.072105 -0.004576819)
(-1.484846 1.370849 -0.008580523)
(-1.850166 1.653966 -0.0003364005)
(-2.36021 1.871173 0.01494502)
(-0.6785431 0.1117984 -0.01203055)
(-0.6683095 0.5602743 -0.01181442)
(-0.7214226 0.9166633 0.005476925)
(-0.8720627 1.314987 0.007560367)
(-1.10806 1.740187 0.01902818)
(-1.500527 2.211239 0.04318651)
(-2.11787 2.703983 0.1016259)
(-0.3896248 0.1538822 -0.02477954)
(-0.3360337 0.5356379 0.005202806)
(-0.3899997 0.8887143 0.008070536)
(-0.5046185 1.313884 0.008092484)
(-0.6900363 1.786534 0.01397244)
(-1.015559 2.359102 0.0279304)
(-1.598013 3.021449 0.08209614)
(-2.660674 3.676616 0.2556857)
(0.007023104 -0.03397613 -0.001837885)
(0.06243069 -0.04694954 -0.0006118317)
(0.1017588 -0.04668971 -0.002353549)
(0.1433999 -0.04759273 -0.004295002)
(0.1855333 -0.05089656 -0.001178365)
(0.2302096 -0.05857118 -0.0002457912)
(0.2861149 -0.07407665 -0.001462033)
(-1.864706 -0.06108299 -0.04347335)
(-1.93344 -0.03383529 -0.01201383)
(-1.881676 -0.01732313 0.006851047)
(-1.889791 -0.002343101 -0.007791311)
(-1.868353 -0.01104005 -0.0004784121)
(-1.852502 -0.01041488 -0.002914498)
(-1.920568 -0.02141151 -0.007227698)
(-1.925714 -0.02543819 -0.01241487)
(-1.897444 0.002175615 0.0113945)
(-1.925151 -0.0209839 -0.001076946)
(-1.904073 -0.01601251 0.0005122151)
(-1.899029 -0.02570732 -0.0003013642)
(-1.879321 -0.03182745 -0.0003920057)
(-1.924741 -0.02020517 -0.02292879)
(-1.907135 0.003051529 -0.01066671)
(-1.920975 -0.02381357 -0.01245595)
(-1.913027 -0.01649735 -0.001751613)
(-1.914517 -0.02706802 -0.003471895)
(-1.903142 -0.03741362 -0.001075503)
(-1.890946 -0.05096425 -0.001645006)
(-1.929141 0.001636025 -0.02317957)
(-1.909158 -0.008088923 -0.01415474)
(-1.924416 -0.009382262 -0.004132718)
(-1.927047 -0.02278877 -0.001773836)
(-1.923826 -0.02966142 -0.000969476)
(-1.920895 -0.04872653 -0.0001735984)
(-1.909728 -0.06677161 -0.0003192756)
(-1.937016 -0.0004081991 -0.02584642)
(-1.914753 -0.0005648092 -0.01304027)
(-1.934858 -0.01296103 -0.009277748)
(-1.934974 -0.01861799 -0.0018986)
(-1.940217 -0.0345533 -0.002328933)
(-1.939803 -0.05308536 -0.0003593371)
(-1.935658 -0.07828468 -0.0007630773)
(-1.939839 0.003435653 -0.02566626)
(-1.919013 0.000771423 -0.01455225)
(-1.942443 -0.004148379 -0.00783724)
(-1.948299 -0.01510647 -0.002151533)
(-1.95754 -0.02927852 -0.001464309)
(-1.965375 -0.05352398 -0.0001899117)
(-1.967289 -0.08262151 -0.0003185274)
(-1.939914 0.006521833 -0.02464105)
(-1.922697 0.009051675 -0.01469917)
(-1.950264 0.004183165 -0.008623821)
(-1.960416 -0.003418658 -0.002077852)
(-1.977873 -0.0201238 -0.001873345)
(-1.993167 -0.04481793 -0.0001325853)
(-2.004836 -0.07912 -0.0004135356)
(-1.936412 0.01203588 -0.02381736)
(-1.921784 0.01876096 -0.0150721)
(-1.955107 0.02003948 -0.008535662)
(-1.972275 0.01401834 -0.001908064)
(-1.998416 -0.0008027497 -0.001581849)
(-2.024557 -0.02721487 5.152768e-05)
(-2.047314 -0.06473912 -0.000150724)
(-1.926761 0.01890392 -0.02352464)
(-1.916094 0.03407246 -0.01422422)
(-1.955606 0.04171399 -0.008904718)
(-1.981199 0.04066705 -0.001661115)
(-2.018391 0.02840792 -0.001484432)
(-2.057346 0.002749209 0.0003306201)
(-2.094472 -0.03781008 0.0001490485)
(-1.908676 0.02789158 -0.02330386)
(-1.90252 0.05483899 -0.01328592)
(-1.949134 0.07178227 -0.00912069)
(-1.985342 0.07796834 -0.001336821)
(-2.035865 0.07123534 -0.001181014)
(-2.090959 0.04796293 0.0007177905)
(-2.145831 0.006116536 0.0006314756)
(-1.879251 0.03918258 -0.02306744)
(-1.878209 0.0821748 -0.01228427)
(-1.93276 0.1112802 -0.009086366)
(-1.981537 0.1282328 -0.0008290559)
(-2.048041 0.1296724 -0.0005468948)
(-2.122703 0.1109755 0.001629647)
(-2.199741 0.06853314 0.001865407)
(-1.834767 0.0529818 -0.02271405)
(-1.839313 0.1164628 -0.01159049)
(-1.902885 0.1622064 -0.008884969)
(-1.966764 0.1945833 -0.0003747016)
(-2.052971 0.2090952 6.904538e-05)
(-2.152382 0.1994314 0.002495421)
(-2.258047 0.1604534 0.002995356)
(-1.771243 0.06946206 -0.02217828)
(-1.781195 0.1587296 -0.0105665)
(-1.853921 0.225739 -0.00813594)
(-1.934653 0.278828 0.0008014678)
(-2.043333 0.310695 0.002028697)
(-2.171838 0.313149 0.005458594)
(-2.312235 0.2778706 0.007361672)
(-1.683214 0.08836975 -0.02151701)
(-1.698873 0.2086754 -0.009553009)
(-1.781551 0.3045052 -0.007936376)
(-1.882182 0.3866175 0.001232505)
(-2.019105 0.446228 0.002494081)
(-2.185769 0.472297 0.00647448)
(-2.374193 0.4539785 0.008696687)
(-1.565246 0.109864 -0.02073136)
(-1.584199 0.267468 -0.008141647)
(-1.674414 0.3972539 -0.006188595)
(-1.793946 0.5172576 0.003878467)
(-1.958388 0.6101965 0.007531984)
(-2.165218 0.6648169 0.0149711)
(-2.407003 0.6614859 0.02331262)
(-1.408646 0.1310553 -0.01937988)
(-1.433095 0.3309014 -0.007015793)
(-1.530831 0.5104312 -0.007927454)
(-1.670725 0.6800061 0.001896734)
(-1.872049 0.8302714 0.003778577)
(-2.134442 0.9423762 0.01017902)
(-2.458935 0.9970147 0.0165374)
(-1.210646 0.1553645 -0.01828086)
(-1.229213 0.4077134 -0.007055997)
(-1.323645 0.6313788 -0.004905867)
(-1.473808 0.8688619 0.004636401)
(-1.692432 1.079852 0.0127587)
(-1.996542 1.260076 0.02920798)
(-2.390909 1.366631 0.05872783)
(-0.9483163 0.1720204 -0.01360604)
(-0.9784035 0.4671056 -0.003833097)
(-1.066497 0.7824894 -0.01590013)
(-1.212537 1.088035 -0.009079435)
(-1.464554 1.41121 -0.01514751)
(-1.830408 1.724579 -0.01348764)
(-2.354166 2.010451 -0.01112564)
(-0.6554956 0.2105104 -0.01423232)
(-0.6425491 0.5855283 -0.01605068)
(-0.6885545 0.8947281 -0.005060788)
(-0.8184616 1.303506 -0.009272725)
(-1.029173 1.716226 -0.0005917657)
(-1.390304 2.171365 0.02082304)
(-1.966724 2.603807 0.08210777)
(-0.4015572 0.2267437 -0.02344873)
(-0.2950113 0.522307 0.0162111)
(-0.3052701 1.039161 -0.03380129)
(-0.3250254 1.475344 -0.01846653)
(-0.4804933 2.028419 -0.03534806)
(-0.747477 2.719999 -0.04720359)
(-1.254878 3.636207 -0.06042147)
(0.1169369 -0.009018738 -0.002201571)
(0.1424309 -0.003147438 -0.006542874)
(0.1862802 -0.009692766 -0.002723566)
(0.2315168 -0.0126242 -0.003808149)
(0.2920901 -0.01169931 -0.008359822)
(0.006331964 -0.03150244 0.004377533)
(0.0596921 -0.04107999 0.001559187)
(0.09765741 -0.04559904 0.0006093606)
(0.1412678 -0.04610229 -0.003198512)
(0.1870045 -0.04933495 -0.001067792)
(0.2307623 -0.05665745 -3.522314e-05)
(0.2887473 -0.06914476 0.0006005431)
(-1.894347 -0.07695018 -0.05127915)
(-1.948921 -0.04746323 -0.005421405)
(-1.896238 -0.0158339 -0.001962715)
(-1.905071 -0.001193109 -0.001871293)
(-1.885668 -0.009742755 -0.0009513698)
(-1.869398 -0.009526405 -0.0009411401)
(-1.915754 -0.008277053 0.002580202)
(-1.925868 -0.02007452 -0.0008122973)
(-1.896257 0.01279662 0.006936355)
(-1.927243 -0.0170673 -0.0003794445)
(-1.903669 -0.01460442 0.0008609534)
(-1.897382 -0.02353919 0.0002870899)
(-1.877333 -0.03090637 -3.240569e-05)
(-1.910337 -0.005344481 0.01664848)
(-1.924748 0.004120858 0.0009728156)
(-1.92227 -0.02415304 -5.889133e-05)
(-1.916681 -0.01556687 0.0001371303)
(-1.915331 -0.02636642 -0.0005414561)
(-1.90395 -0.03691795 2.970804e-05)
(-1.891016 -0.05043153 -0.0002908131)
(-1.907034 0.006204414 0.01873733)
(-1.925747 -0.006496126 0.0024045)
(-1.923663 -0.006257547 0.003592834)
(-1.932137 -0.02182406 0.0002704388)
(-1.925038 -0.02905865 0.0005459944)
(-1.922195 -0.04823737 0.0004056127)
(-1.910029 -0.06659721 0.0001278593)
(-1.921231 0.002504598 0.02081029)
(-1.933228 0.001697979 0.003331338)
(-1.936419 -0.01216997 0.001621978)
(-1.940599 -0.0179335 0.0005251408)
(-1.941917 -0.03397153 2.280837e-05)
(-1.941313 -0.05282107 0.0004088402)
(-1.936189 -0.07812149 -1.53486e-05)
(-1.919668 0.003081337 0.02084803)
(-1.937421 0.0005788353 0.003002834)
(-1.942104 -0.002919624 0.00234291)
(-1.954451 -0.01521803 0.0003116888)
(-1.958956 -0.02851541 0.0004286212)
(-1.967064 -0.05346009 0.0004778007)
(-1.967847 -0.08244716 0.0002262404)
(-1.920522 0.006266743 0.02102528)
(-1.941577 0.009639832 0.003271384)
(-1.950087 0.004831538 0.002047196)
(-1.967092 -0.003471599 0.0003770708)
(-1.97934 -0.01948721 0.0002683055)
(-1.99493 -0.04465622 0.0005286515)
(-2.00548 -0.07892451 0.0002032731)
(-1.916576 0.01054017 0.02076421)
(-1.940581 0.01928135 0.003162236)
(-1.954328 0.02016941 0.002223798)
(-1.979122 0.01390372 0.0004165211)
(-1.999692 -0.0001321699 0.0004842147)
(-2.026411 -0.02701851 0.0006390625)
(-2.047918 -0.0643561 0.0004117925)
(-1.906987 0.01734584 0.02061195)
(-1.934645 0.03496106 0.003175048)
(-1.954432 0.0413043 0.002232202)
(-1.988118 0.04077908 0.0004906024)
(-2.019495 0.02903438 0.0006056846)
(-2.059186 0.00315096 0.0008547468)
(-2.09504 -0.03724465 0.0006607747)
(-1.889043 0.02602394 0.02045804)
(-1.920464 0.05567979 0.003150811)
(-1.947536 0.07094426 0.002314617)
(-1.992101 0.07842655 0.0006363633)
(-2.036734 0.07203097 0.0008734255)
(-2.092745 0.04878969 0.001190963)
(-2.146298 0.007208578 0.00108872)
(-1.859924 0.03713568 0.0202276)
(-1.895433 0.08287623 0.003187156)
(-1.930775 0.1100351 0.00241745)
(-1.987892 0.1290987 0.0009484439)
(-2.048561 0.1307128 0.001396705)
(-2.124246 0.1124078 0.001928563)
(-2.199981 0.07038009 0.002047837)
(-1.8158 0.0505616 0.01992996)
(-1.855644 0.11696 0.003348498)
(-1.900592 0.1607716 0.002506023)
(-1.972435 0.1960828 0.00131556)
(-2.053017 0.2108206 0.001990863)
(-2.153473 0.2021949 0.002782692)
(-2.257905 0.1640073 0.003174181)
(-1.752738 0.066477 0.01939319)
(-1.796152 0.158766 0.00369981)
(-1.851247 0.2240563 0.002847212)
(-1.939114 0.2810072 0.00221819)
(-2.042417 0.3134718 0.00342758)
(-2.171804 0.317808 0.004962627)
(-2.311212 0.2841308 0.006288342)
(-1.665527 0.08430268 0.01853022)
(-1.712231 0.2083415 0.00390513)
(-1.77843 0.3031825 0.00277899)
(-1.884822 0.3900362 0.002718706)
(-2.016751 0.451266 0.004269657)
(-2.183803 0.4803945 0.006487362)
(-2.371251 0.4647947 0.008634546)
(-1.548183 0.1043352 0.01728572)
(-1.594949 0.2665912 0.004384127)
(-1.67002 0.3960598 0.003548979)
(-1.793674 0.5223903 0.004435039)
(-1.953061 0.6189153 0.007358338)
(-2.159768 0.679158 0.01171931)
(-2.401029 0.6821613 0.0170228)
(-1.392738 0.1233038 0.015466)
(-1.440792 0.3288484 0.004237609)
(-1.524405 0.5102633 0.002176587)
(-1.665619 0.68829 0.003243697)
(-1.860776 0.8448085 0.005424117)
(-2.120676 0.9646045 0.0100807)
(-2.44312 1.027686 0.01645321)
(-1.196413 0.1461343 0.01249789)
(-1.231485 0.4057119 0.003870443)
(-1.312734 0.6329158 0.003594825)
(-1.460162 0.8831259 0.005420384)
(-1.670541 1.10423 0.01010422)
(-1.971672 1.299347 0.01838669)
(-2.364451 1.425657 0.03321769)
(-0.9359071 0.158415 0.009861985)
(-0.9745097 0.4615424 0.004216766)
(-1.048075 0.785198 0.0003741169)
(-1.181786 1.101463 0.005036122)
(-1.421499 1.435821 0.006534953)
(-1.776255 1.764823 0.01333854)
(-2.28878 2.071342 0.02596653)
(-0.6507178 0.2037546 0.001227172)
(-0.6310689 0.5878454 -0.001148378)
(-0.6609355 0.8990067 0.00680776)
(-0.77317 1.32779 0.01085324)
(-0.9651316 1.75638 0.01900105)
(-1.309425 2.236895 0.03009682)
(-1.862488 2.706224 0.0512156)
(-0.4166403 0.2225096 -0.01097885)
(-0.2792246 0.5181069 0.004175508)
(-0.2853216 1.035935 0.00617939)
(-0.2796388 1.46259 0.02246725)
(-0.4233973 2.011961 0.03627609)
(-0.6718692 2.702804 0.05560712)
(-1.147472 3.613366 0.08803514)
(0.1309632 -0.0114255 -0.0005473436)
(0.1442809 -0.002114331 -0.001320686)
(0.1903116 -0.01194979 0.000477893)
(0.2355387 -0.01533294 -0.0003794881)
(0.296294 -0.01888224 0.001511614)
(0.005561712 -0.03236478 0.001042583)
(0.05918818 -0.04101316 0.0005046323)
(0.09665977 -0.04627635 0.0004120198)
(0.1416874 -0.04568197 -0.001403384)
(0.1889264 -0.04990737 0.0002132312)
(0.2321902 -0.0562074 0.0004933232)
(0.2905046 -0.07101846 0.001410561)
(-1.903323 -0.0738952 -0.04300611)
(-1.945469 -0.04723744 -0.002843759)
(-1.895301 -0.01733271 0.0001018962)
(-1.905766 -0.0004853064 -0.001872213)
(-1.884711 -0.009743153 -0.000178813)
(-1.869612 -0.008834229 -0.000947614)
(-1.920877 -0.01021231 -0.001233633)
(-1.925296 -0.02029747 -0.002448781)
(-1.894101 0.01160479 0.0002875181)
(-1.927491 -0.01776293 -0.0006227123)
(-1.903536 -0.0141661 -0.0005545457)
(-1.897159 -0.0239764 -0.0003418866)
(-1.877347 -0.03057622 -0.0004562503)
(-1.919409 -0.0111904 -0.005542006)
(-1.920595 0.004668328 -0.001473352)
(-1.921693 -0.02646365 -0.004411667)
(-1.914047 -0.01585081 -0.001023369)
(-1.914833 -0.0269717 -0.001850454)
(-1.902877 -0.03697659 -0.0005629984)
(-1.890947 -0.05020941 -0.0008355762)
(-1.925941 0.005417554 -0.003628097)
(-1.920768 -0.006132058 2.683882e-05)
(-1.924154 -0.00680127 -0.00324351)
(-1.929974 -0.02209027 -0.0007849042)
(-1.924652 -0.02894854 -0.00125847)
(-1.921476 -0.04813194 -0.0003868023)
(-1.909819 -0.06624787 -0.0004638995)
(-1.935359 0.001292394 -0.006112645)
(-1.927409 0.001103587 -0.001098579)
(-1.935926 -0.01308943 -0.004501554)
(-1.937164 -0.01770234 -0.001383339)
(-1.941582 -0.0346827 -0.001964301)
(-1.940262 -0.05263934 -0.0005295367)
(-1.935969 -0.0780989 -0.0006382388)
(-1.937858 0.004034114 -0.004879558)
(-1.931033 0.001073534 -0.0004168672)
(-1.942821 -0.003134349 -0.004463467)
(-1.951082 -0.01481669 -0.001243651)
(-1.958781 -0.02868653 -0.001822761)
(-1.966167 -0.0531374 -0.0004525295)
(-1.967657 -0.08232651 -0.0004649231)
(-1.938065 0.006536192 -0.005199446)
(-1.934684 0.009101893 -0.0009313483)
(-1.950765 0.004538175 -0.004692906)
(-1.962977 -0.003020397 -0.001413083)
(-1.979298 -0.01988414 -0.002125836)
(-1.993804 -0.04430232 -0.0004773146)
(-2.005331 -0.07890287 -0.0005108512)
(-1.934137 0.01126321 -0.004899944)
(-1.933858 0.01877835 -0.0007260882)
(-1.955199 0.02046385 -0.004601814)
(-1.974914 0.01426507 -0.001381668)
(-1.999712 -0.0002449539 -0.002067042)
(-2.025218 -0.02660236 -0.0004074335)
(-2.047791 -0.06421608 -0.0004108913)
(-1.924119 0.01762684 -0.004983847)
(-1.928339 0.03453766 -0.0006002018)
(-1.955322 0.04177932 -0.004596513)
(-1.98368 0.04097786 -0.001341032)
(-2.019543 0.02902527 -0.002072166)
(-2.057836 0.003603589 -0.0003257711)
(-2.0949 -0.03701532 -0.0003206033)
(-1.905885 0.02622214 -0.004861044)
(-1.914544 0.05531204 -0.0004022859)
(-1.948379 0.07167149 -0.00450724)
(-1.98755 0.07848826 -0.001260541)
(-2.036761 0.07231566 -0.001971903)
(-2.091264 0.04941439 -0.0002066199)
(-2.146129 0.00776287 -0.000157909)
(-1.876384 0.03717723 -0.004809746)
(-1.889785 0.08253832 -0.0002754299)
(-1.931408 0.1108805 -0.00441907)
(-1.983168 0.1290023 -0.001136696)
(-2.048409 0.1312585 -0.001794641)
(-2.122534 0.1131838 4.694499e-05)
(-2.199612 0.07120609 0.0001872684)
(-1.831813 0.05065819 -0.004611211)
(-1.850197 0.1164922 -0.0002067955)
(-1.900977 0.1617718 -0.004286836)
(-1.967622 0.1960515 -0.001027671)
(-2.052665 0.2119938 -0.001594523)
(-2.151613 0.2036803 0.0002556868)
(-2.257427 0.1659604 0.0004804059)
(-1.767984 0.06657142 -0.004515588)
(-1.790802 0.1579969 -0.000127433)
(-1.851076 0.2249662 -0.004094618)
(-1.933959 0.280872 -0.0007605525)
(-2.041356 0.3149225 -0.001007582)
(-2.169276 0.3196066 0.001008981)
(-2.309872 0.2865173 0.001671279)
(-1.67958 0.08446171 -0.004444132)
(-1.707169 0.2073682 -0.0002371513)
(-1.777848 0.3043397 -0.004037871)
(-1.879551 0.3905546 -0.0008126257)
(-2.015207 0.4542718 -0.001064451)
(-2.181098 0.4847361 0.000910882)
(-2.3699 0.4711551 0.001557136)
(-1.560924 0.1045253 -0.00435737)
(-1.589741 0.2651008 -0.0001866574)
(-1.668137 0.3965458 -0.003675226)
(-1.78702 0.5226385 -0.0003929167)
(-1.949116 0.6220086 -0.000107972)
(-2.153978 0.6836675 0.002476952)
(-2.395825 0.6882488 0.004817311)
(-1.404138 0.1236286 -0.004306792)
(-1.436389 0.3270365 -0.000722776)
(-1.522361 0.5117337 -0.004342615)
(-1.659097 0.6904061 -0.001761796)
(-1.856068 0.8517835 -0.002334192)
(-2.114722 0.9757607 -0.001178112)
(-2.439205 1.045779 -0.0004132049)
(-1.20582 0.146612 -0.004098613)
(-1.226119 0.4032675 -0.000796038)
(-1.307735 0.6321509 -0.003093648)
(-1.448879 0.8832678 8.348003e-05)
(-1.656268 1.106475 0.001740446)
(-1.95303 1.3039 0.005808951)
(-2.343797 1.433143 0.01245377)
(-0.942339 0.1597047 -0.003733656)
(-0.9729022 0.4591005 -0.001965676)
(-1.045948 0.7891933 -0.006223475)
(-1.17241 1.105835 -0.004456434)
(-1.410936 1.446861 -0.006801154)
(-1.763341 1.78368 -0.007442954)
(-2.27552 2.105482 -0.008331131)
(-0.6564246 0.2090702 -0.0030607)
(-0.625985 0.5895471 -0.002335997)
(-0.6530808 0.8991894 -0.0006229584)
(-0.7558247 1.329777 0.001661203)
(-0.9377327 1.757589 0.005223083)
(-1.271734 2.237567 0.01039635)
(-1.81588 2.704095 0.01937628)
(-0.4204387 0.2268026 -0.01048763)
(-0.2800541 0.5226605 -5.454233e-05)
(-0.2896595 1.052552 -0.004407352)
(-0.2734306 1.479734 -0.001316714)
(-0.4159109 2.034936 -0.0003336236)
(-0.6615506 2.728248 0.002590981)
(-1.135562 3.641595 0.008429688)
(0.1328409 -0.01090989 -6.694185e-05)
(0.1441177 -0.001055988 -0.0009640884)
(0.1903722 -0.01132296 -0.0007942176)
(0.2346634 -0.01441763 -0.0007958123)
(0.2963785 -0.01769615 -0.001632565)
(0.005419394 -0.03285669 0.0002275153)
(0.05866072 -0.04058321 0.0001922751)
(0.09573705 -0.04622979 -2.102608e-05)
(0.1410842 -0.0451487 -0.000614451)
(0.1889716 -0.04981708 -0.0005169665)
(0.2320158 -0.05619666 -0.0004136611)
(0.2909841 -0.07055472 -0.0006006698)
(-1.903787 -0.07280762 -0.03895884)
(-1.945462 -0.04725454 0.003013578)
(-1.895289 -0.01735705 0.0001194339)
(-1.905766 -0.0005241493 0.002094594)
(-1.884776 -0.009791413 0.0002800322)
(-1.869648 -0.00882896 0.0008966651)
(-1.920617 -0.009343451 0.0007033134)
(-1.925325 -0.02026907 0.002614549)
(-1.894138 0.01159862 -0.0002035143)
(-1.927506 -0.01777211 0.0007701565)
(-1.903559 -0.01418881 0.0006019319)
(-1.897166 -0.02399532 0.000425211)
(-1.877369 -0.03054106 0.0003761989)
(-1.919409 -0.01120307 0.00554952)
(-1.920622 0.004657058 0.001581251)
(-1.921665 -0.02645022 0.004480821)
(-1.914042 -0.01586521 0.001174976)
(-1.914845 -0.02696315 0.001969576)
(-1.902903 -0.0369815 0.0006446345)
(-1.89097 -0.05019602 0.0008255267)
(-1.925893 0.005409496 0.003718887)
(-1.920777 -0.006152277 7.039285e-05)
(-1.92418 -0.006802818 0.003297681)
(-1.929991 -0.0221011 0.0008696141)
(-1.924677 -0.0289658 0.001276105)
(-1.921486 -0.04814971 0.000427845)
(-1.909833 -0.06624124 0.0004266951)
(-1.935329 0.001277343 0.006142028)
(-1.927409 0.001092396 0.001156547)
(-1.93593 -0.01308992 0.004534795)
(-1.937166 -0.01770614 0.001452099)
(-1.941598 -0.03467351 0.002005002)
(-1.940277 -0.05263562 0.0005679578)
(-1.935983 -0.07809 0.0006269628)
(-1.937824 0.004036219 0.004907212)
(-1.931031 0.001077175 0.000459164)
(-1.942831 -0.003130454 0.004488356)
(-1.951095 -0.01481657 0.001281128)
(-1.958798 -0.02869107 0.001827166)
(-1.966177 -0.05314063 0.0004634298)
(-1.96767 -0.08232441 0.00044209)
(-1.938024 0.00654478 0.005198947)
(-1.934678 0.00911741 0.0009461615)
(-1.950777 0.004552046 0.004704689)
(-1.962983 -0.003007282 0.00143251)
(-1.979318 -0.01987654 0.002132329)
(-1.993816 -0.04429415 0.0004798726)
(-2.00535 -0.07890307 0.0004900549)
(-1.934085 0.01128506 0.004893143)
(-1.93386 0.01883482 0.0007270764)
(-1.955213 0.02048057 0.004623036)
(-1.974927 0.01428985 0.001391474)
(-1.999739 -0.0002411746 0.002068569)
(-2.025231 -0.02659258 0.0003967948)
(-2.047813 -0.06421745 0.0003861436)
(-1.924047 0.01767015 0.004946942)
(-1.928339 0.03458918 0.0005703371)
(-1.955367 0.04181503 0.004605667)
(-1.98369 0.04100363 0.00133005)
(-2.01959 0.02903389 0.002063119)
(-2.05785 0.003614422 0.0003009544)
(-2.094932 -0.03701989 0.0002872611)
(-1.905799 0.02626245 0.004820872)
(-1.914568 0.05541713 0.0003552552)
(-1.948411 0.07169218 0.004545334)
(-1.987585 0.07852265 0.00125779)
(-2.03681 0.07232278 0.001983248)
(-2.091282 0.04942533 0.0001836433)
(-2.146167 0.007755617 0.0001240234)
(-1.876321 0.03725531 0.004600846)
(-1.889783 0.08254189 5.919588e-05)
(-1.931518 0.1109325 0.004414625)
(-1.983176 0.1290083 0.001089742)
(-2.048494 0.131261 0.001765472)
(-2.122551 0.1131873 -9.124535e-05)
(-2.199662 0.07119744 -0.0002386572)
(-1.831659 0.05073703 0.004592858)
(-1.85027 0.1164472 0.0001994371)
(-1.901024 0.1618122 0.004349485)
(-1.967676 0.1960416 0.001026049)
(-2.052736 0.2120016 0.001632467)
(-2.15164 0.2036759 -0.0002831874)
(-2.25748 0.165949 -0.0005252844)
(-1.767804 0.0665716 0.004450554)
(-1.790898 0.1579726 9.89065e-05)
(-1.85113 0.2249694 0.004134483)
(-1.934013 0.2808471 0.0007585459)
(-2.041437 0.3149183 0.001015258)
(-2.169307 0.319597 -0.001042312)
(-2.309934 0.286506 -0.001729555)
(-1.679417 0.08441514 0.004426994)
(-1.707259 0.207348 0.0002414407)
(-1.777883 0.3043384 0.004098744)
(-1.879618 0.3905477 0.0008235288)
(-2.01527 0.4542823 0.001100217)
(-2.18113 0.4847329 -0.000926271)
(-2.369961 0.4711511 -0.001606939)
(-1.560752 0.1044639 0.004317659)