/*--------------------------------*- C++ -*----------------------------------*\
  =========                 |
  \\      /  F ield         | OpenFOAM: The Open Source CFD Toolbox
   \\    /   O peration     | Website:  https://openfoam.org
    \\  /    A nd           | Version:  7
     \\/     M anipulation  |
\*---------------------------------------------------------------------------*/
FoamFile
{
    version     2.0;
    format      ascii;
    class       volScalarField;
    location    "0.1";
    object      Ux;
}
// * * * * * * * * * * * * * * * * * * * * * * * * * * * * * * * * * * * * * //

dimensions      [0 1 -1 0 0 0 0];

internalField   nonuniform List<scalar> 
109978
(
-0.2817408
-0.2785057
-0.2772958
-0.2769982
-0.2757835
-0.2739635
-0.2858236
-0.2851732
-0.2841236
-0.2837467
-0.2823379
-0.2803721
-0.2873672
-0.2860406
-0.2848578
-0.2843266
-0.2830892
-0.2812684
-0.2883573
-0.287298
-0.2861101
-0.2855341
-0.2843385
-0.2825151
-0.2900846
-0.2889817
-0.287724
-0.287076
-0.2858627
-0.2840017
-0.2920769
-0.2910146
-0.2897168
-0.2890075
-0.2877384
-0.2858158
-0.294474
-0.2933996
-0.2920662
-0.2912913
-0.2899546
-0.2879617
-0.2972334
-0.296137
-0.2947714
-0.2939202
-0.2925095
-0.2904475
-0.3003626
-0.2992349
-0.2978341
-0.2969037
-0.2954158
-0.2932838
-0.3038672
-0.3026967
-0.3012582
-0.3002462
-0.2986794
-0.2964669
-0.3077559
-0.3065363
-0.3050638
-0.3039644
-0.3023107
-0.2999836
-0.3120392
-0.3107622
-0.3092525
-0.3080661
-0.3063103
-0.3038506
-0.3167261
-0.3153901
-0.3138403
-0.3125572
-0.3106633
-0.307969
-0.321829
-0.3204305
-0.3188382
-0.3174519
-0.3153913
-0.3121903
-0.3273613
-0.3259
-0.3242533
-0.3227462
-0.3204879
-0.3158917
-0.3333414
-0.3318086
-0.3301047
-0.3284483
-0.325888
-0.3214554
-0.3397868
-0.3381784
-0.3364111
-0.3345932
-0.3312305
-0.32738
-0.3467186
-0.3450255
-0.3431838
-0.3412179
-0.3367915
-0.3337747
-0.3541561
-0.35237
-0.3504223
-0.3482666
-0.3438046
-0.340672
-0.3621198
-0.3602346
-0.3581604
-0.3556637
-0.3512369
-0.3479562
-0.3706321
-0.3686448
-0.3664433
-0.3633561
-0.3592072
-0.3557727
-0.3797216
-0.3776362
-0.3752799
-0.3709434
-0.3677169
-0.3640951
-0.3824665
-0.3872492
-0.3847216
-0.380261
-0.3768524
-0.3729554
-0.2815194
-0.2776317
-0.2773816
-0.2762495
-0.2748047
-0.2736673
-0.2825343
-0.2858913
-0.2824569
-0.2828453
-0.2811351
-0.2798786
-0.2811845
-0.2859177
-0.2842109
-0.2838147
-0.2821568
-0.2806181
-0.2824209
-0.2870167
-0.2845361
-0.284761
-0.2828452
-0.2815459
-0.2835016
-0.2882407
-0.2860779
-0.2861927
-0.2843702
-0.2829274
-0.2854257
-0.2900155
-0.2876754
-0.2878656
-0.2859656
-0.2845617
-0.2873029
-0.292074
-0.2897083
-0.2899071
-0.2880304
-0.2865782
-0.2896994
-0.294544
-0.2920869
-0.2922927
-0.2903798
-0.2889148
-0.2924043
-0.2973396
-0.294828
-0.2950417
-0.2931131
-0.2916136
-0.2954969
-0.3005239
-0.297944
-0.2981579
-0.2961966
-0.2946644
-0.2989501
-0.3040729
-0.3014351
-0.3016484
-0.2996527
-0.2980764
-0.30279
-0.3080136
-0.3053138
-0.3055227
-0.3034831
-0.3018619
-0.3070202
-0.312347
-0.309587
-0.3097882
-0.3076961
-0.3060214
-0.3116534
-0.3170911
-0.3142675
-0.3144577
-0.3123106
-0.3105782
-0.3167042
-0.322256
-0.3193626
-0.3195349
-0.3173092
-0.3155222
-0.3221891
-0.3278585
-0.3248937
-0.3250469
-0.3227484
-0.3209669
-0.3281332
-0.3339127
-0.3308713
-0.3309874
-0.328627
-0.3266965
-0.3345477
-0.3404387
-0.3373128
-0.3373847
-0.3349343
-0.3328056
-0.3414468
-0.3474599
-0.3442453
-0.3442805
-0.3417947
-0.3394747
-0.3488539
-0.3549939
-0.3516712
-0.3516755
-0.349032
-0.3466396
-0.3567939
-0.3630672
-0.3596199
-0.3595766
-0.356687
-0.3543395
-0.3652978
-0.3717122
-0.3681416
-0.3680262
-0.3649809
-0.3625184
-0.3743901
-0.3809584
-0.3772603
-0.3770571
-0.3738319
-0.3712306
-0.3898273
-0.3908485
-0.3870163
-0.3867579
-0.3833002
-0.3804499
-0.2842881
-0.2845639
-0.2850155
-0.2831891
-0.2815925
-0.2805705
-0.2830437
-0.2852408
-0.2837709
-0.2830663
-0.2815807
-0.2800711
-0.2840281
-0.2856497
-0.2858581
-0.2841115
-0.2828267
-0.2807789
-0.2869401
-0.2870594
-0.2864108
-0.2849724
-0.2835447
-0.2817224
-0.2880356
-0.2882218
-0.2879618
-0.2863851
-0.2850603
-0.2830896
-0.2900574
-0.2900088
-0.2896178
-0.288069
-0.28666
-0.2847285
-0.2919875
-0.2920243
-0.2916902
-0.2901212
-0.2887271
-0.2867443
-0.2944365
-0.2944724
-0.2941015
-0.2925213
-0.2910816
-0.2890818
-0.2971769
-0.2972485
-0.2968784
-0.2952798
-0.2938193
-0.2917818
-0.3003253
-0.3004215
-0.3000256
-0.2984049
-0.2969056
-0.2948324
-0.3038415
-0.3039631
-0.3035485
-0.3019018
-0.3003666
-0.298251
-0.3077572
-0.3079013
-0.307459
-0.3057814
-0.304204
-0.3020418
-0.3120709
-0.3122365
-0.3117642
-0.310052
-0.3084298
-0.3062154
-0.3167982
-0.3169849
-0.3164779
-0.3147265
-0.3130543
-0.3107867
-0.3219495
-0.3221565
-0.3216109
-0.3198147
-0.3180888
-0.315746
-0.3275408
-0.3277671
-0.3271788
-0.3253326
-0.3235526
-0.3211004
-0.3335878
-0.3338318
-0.3331964
-0.3312943
-0.3294456
-0.3268925
-0.3401068
-0.3403691
-0.3396804
-0.3377168
-0.3357799
-0.3331228
-0.3471199
-0.3474007
-0.3466527
-0.3446259
-0.3425695
-0.3397734
-0.3546474
-0.3549472
-0.3541327
-0.3520329
-0.3498648
-0.3468873
-0.3627167
-0.3630346
-0.3621458
-0.3599571
-0.3576753
-0.3544993
-0.3713571
-0.3716907
-0.3707185
-0.3684242
-0.3659985
-0.3626424
-0.3806058
-0.3809512
-0.3798873
-0.3774643
-0.3748653
-0.3713281
-0.390494
-0.3908498
-0.3896882
-0.38712
-0.3842969
-0.3805707
-0.283103
-0.2853598
-0.2852808
-0.2824338
-0.2799382
-0.2782763
-0.2852294
-0.285138
-0.2833391
-0.282967
-0.2814936
-0.2801432
-0.286832
-0.285743
-0.2856141
-0.2841418
-0.2827268
-0.2808225
-0.2880158
-0.2872305
-0.2858711
-0.2849805
-0.2833109
-0.2817316
-0.2888762
-0.288409
-0.287464
-0.2864336
-0.2848648
-0.2831103
-0.2907708
-0.2902415
-0.2890645
-0.2881047
-0.2864176
-0.2847321
-0.2927471
-0.292237
-0.2911401
-0.2901551
-0.2884953
-0.286752
-0.2952101
-0.2947028
-0.2935404
-0.292548
-0.2908355
-0.2890833
-0.2979786
-0.2974731
-0.2963109
-0.2953014
-0.2935731
-0.2917829
-0.3011475
-0.3006487
-0.2994535
-0.2984226
-0.2966545
-0.2948294
-0.3046855
-0.3041865
-0.302971
-0.3019162
-0.3001124
-0.2982427
-0.3086189
-0.3081217
-0.3068769
-0.3057928
-0.3039439
-0.3020253
-0.3129511
-0.3124514
-0.3111773
-0.3100603
-0.3081611
-0.3061855
-0.3176962
-0.3171938
-0.3158857
-0.314731
-0.3127757
-0.3107363
-0.3228661
-0.3223583
-0.3210124
-0.3198142
-0.3177924
-0.3156824
-0.3284763
-0.3279613
-0.3265737
-0.325327
-0.3232341
-0.3210484
-0.3345425
-0.3340179
-0.3325834
-0.3312798
-0.329109
-0.3268262
-0.3410829
-0.3405465
-0.3390593
-0.3376915
-0.3354319
-0.333039
-0.3481191
-0.3475689
-0.3460236
-0.3445855
-0.3422302
-0.3397152
-0.355673
-0.3551054
-0.3534929
-0.3519769
-0.3495064
-0.3468683
-0.3637698
-0.363183
-0.3614946
-0.3598888
-0.3572838
-0.354518
-0.3724391
-0.3718297
-0.3700573
-0.3683496
-0.3656016
-0.3626808
-0.3817127
-0.3810784
-0.3792123
-0.3773878
-0.3744782
-0.3713821
-0.3916261
-0.3909642
-0.3889957
-0.3870418
-0.3839459
-0.3806439
-0.2810506
-0.2850188
-0.2847837
-0.2818165
-0.2793319
-0.2780529
-0.2858052
-0.2850819
-0.2834896
-0.2828848
-0.281651
-0.2801123
-0.2867363
-0.2854154
-0.2858278
-0.2841199
-0.2828334
-0.2808283
-0.2878015
-0.2871774
-0.2860575
-0.2849759
-0.2834646
-0.2817519
-0.2886033
-0.2883103
-0.2876721
-0.2864265
-0.2850254
-0.2831371
-0.2904993
-0.2901184
-0.2892684
-0.2881001
-0.2865862
-0.2847662
-0.2924605
-0.2921086
-0.2913507
-0.2901516
-0.2886691
-0.2867884
-0.2949202
-0.2945693
-0.2937535
-0.2925472
-0.291011
-0.2891206
-0.2976821
-0.2973358
-0.2965287
-0.2953021
-0.2937512
-0.2918209
-0.3008462
-0.3005093
-0.2996746
-0.2984245
-0.2968339
-0.2948679
-0.3043792
-0.3040453
-0.3031957
-0.3019188
-0.3002937
-0.2982823
-0.3083068
-0.3079796
-0.3071051
-0.3057964
-0.3041274
-0.3020654
-0.3126329
-0.3123087
-0.3114091
-0.3100646
-0.3083479
-0.3062281
-0.3173718
-0.3170505
-0.316121
-0.3147356
-0.3129649
-0.3107801
-0.3225348
-0.3222147
-0.321252
-0.3198203
-0.3179886
-0.3157293
-0.3281377
-0.3278173
-0.3268172
-0.3253333
-0.3234336
-0.3210891
-0.3341961
-0.3338735
-0.3328315
-0.3312884
-0.3293127
-0.3268724
-0.3407279
-0.3404014
-0.3393122
-0.3377029
-0.3356404
-0.333094
-0.3477534
-0.3474223
-0.3462804
-0.3445968
-0.342436
-0.3397688
-0.3552948
-0.3549567
-0.3537556
-0.3519885
-0.3497184
-0.3469177
-0.3633794
-0.3630327
-0.3617653
-0.3599016
-0.3575096
-0.3545604
-0.3720339
-0.3716734
-0.3703314
-0.3683588
-0.3658323
-0.3627238
-0.3812928
-0.380919
-0.3794963
-0.3773935
-0.3747172
-0.3714247
-0.3911852
-0.39079
-0.3892776
-0.3870314
-0.3841853
-0.3807037
-0.2809609
-0.2861334
-0.2838898
-0.2821578
-0.2798114
-0.277035
-0.286187
-0.2850566
-0.2834061
-0.2830025
-0.2817056
-0.2800256
-0.2868849
-0.2854258
-0.285831
-0.284101
-0.2828272
-0.2808369
-0.2879793
-0.2871763
-0.2860533
-0.2849849
-0.283467
-0.2817463
-0.2887613
-0.288312
-0.2876718
-0.2864259
-0.2850249
-0.2831364
-0.2906236
-0.2901188
-0.2892685
-0.2881008
-0.286586
-0.2847655
-0.2925741
-0.292109
-0.2913508
-0.2901516
-0.2886689
-0.2867881
-0.2950311
-0.2945696
-0.2937536
-0.2925473
-0.2910109
-0.2891204
-0.2977888
-0.2973359
-0.2965288
-0.2953021
-0.2937511
-0.2918208
-0.3009506
-0.3005095
-0.2996747
-0.2984245
-0.2968338
-0.2948678
-0.3044806
-0.3040455
-0.3031958
-0.3019188
-0.3002936
-0.2982822
-0.3084053
-0.3079798
-0.3071051
-0.3057964
-0.3041274
-0.3020653
-0.3127286
-0.3123089
-0.3114091
-0.3100646
-0.3083478
-0.306228
-0.3174646
-0.3170507
-0.3161211
-0.3147356
-0.3129648
-0.3107799
-0.3226247
-0.3222151
-0.3212521
-0.3198203
-0.3179884
-0.315729
-0.3282247
-0.3278178
-0.3268175
-0.3253334
-0.3234334
-0.3210886
-0.3342798
-0.3338744
-0.3328319
-0.3312887
-0.3293123
-0.3268716
-0.3408088
-0.3404031
-0.339313
-0.3377034
-0.3356397
-0.3330927
-0.347833
-0.3474252
-0.3462816
-0.3445981
-0.3424348
-0.3397665
-0.3553742
-0.3549619
-0.3537578
-0.3519913
-0.3497164
-0.3469132
-0.36346
-0.3630407
-0.3617675
-0.3599062
-0.357505
-0.3545538
-0.3721179
-0.3716883
-0.3703365
-0.3683698
-0.365826
-0.3627096
-0.381382
-0.380939
-0.3794979
-0.3774111
-0.3747017
-0.3714042
-0.3912837
-0.3908267
-0.3892862
-0.3870678
-0.3841675
-0.3806579
-0.2809971
-0.2857065
-0.2825836
-0.2831645
-0.2801558
-0.2775589
-0.2861537
-0.2851088
-0.283324
-0.2829552
-0.2815709
-0.2800854
-0.2873619
-0.2857431
-0.2856219
-0.2841372
-0.2827197
-0.2808192
-0.2884124
-0.2872277
-0.2858699
-0.2849781
-0.2833177
-0.2817255
-0.2892327
-0.2884092
-0.2874647
-0.2864323
-0.2848642
-0.2831089
-0.2911054
-0.290241
-0.2890643
-0.2881039
-0.2864179
-0.2847313
-0.2930709
-0.2922368
-0.2911399
-0.2901546
-0.2884951
-0.2867518
-0.2955309
-0.2947025
-0.2935401
-0.2925476
-0.2908355
-0.2890833
-0.2982959
-0.2974728
-0.2963106
-0.2953011
-0.2935731
-0.291783
-0.3014627
-0.3006482
-0.2994531
-0.2984223
-0.2966545
-0.2948297
-0.3049989
-0.304186
-0.3029707
-0.3019159
-0.3001125
-0.298243
-0.3089309
-0.3081212
-0.3068764
-0.3057926
-0.303944
-0.3020256
-0.3132615
-0.312451
-0.3111767
-0.31006
-0.3081612
-0.3061859
-0.3180052
-0.3171932
-0.315885
-0.3147307
-0.3127758
-0.3107367
-0.3231729
-0.3223575
-0.3210117
-0.3198138
-0.3177926
-0.3156829
-0.3287802
-0.3279601
-0.3265728
-0.3253264
-0.3232342
-0.3210491
-0.3348432
-0.3340162
-0.3325824
-0.331279
-0.3291095
-0.3268272
-0.3413804
-0.3405436
-0.3390579
-0.33769
-0.3354327
-0.3330407
-0.3484131
-0.3475645
-0.3460222
-0.3445833
-0.3422325
-0.339718
-0.3559624
-0.3550965
-0.3534902
-0.3519718
-0.3495094
-0.3468748
-0.3640567
-0.3631709
-0.3614945
-0.3598803
-0.3572916
-0.3545288
-0.372721
-0.3718039
-0.3700521
-0.368327
-0.3656115
-0.3627095
-0.3819961
-0.381049
-0.3792238
-0.3773504
-0.3745054
-0.3714231
-0.3919006
-0.3908992
-0.388987
-0.3869503
-0.3839654
-0.380756
-0.280324
-0.2860881
-0.2836914
-0.2848418
-0.2819748
-0.280871
-0.2873501
-0.2852432
-0.2837484
-0.2830765
-0.2815519
-0.2801079
-0.2873341
-0.2856555
-0.2858571
-0.2841072
-0.2828266
-0.2807592
-0.2882038
-0.2870612
-0.2864094
-0.2849731
-0.2835409
-0.2817205
-0.2888503
-0.2882235
-0.287962
-0.2863842
-0.2850587
-0.2830866
-0.2907476
-0.2900099
-0.2896179
-0.2880685
-0.2866588
-0.2847272
-0.2926667
-0.2920252
-0.2916904
-0.2901207
-0.2887264
-0.2867435
-0.2951148
-0.2944729
-0.2941016
-0.2925209
-0.2910811
-0.2890815
-0.2978678
-0.2972488
-0.2968784
-0.2952794
-0.293819
-0.2917816
-0.3010221
-0.3004219
-0.3000255
-0.2984046
-0.2969054
-0.2948325
-0.3045488
-0.3039635
-0.3035482
-0.3019013
-0.3003664
-0.2982512
-0.3084718
-0.3079017
-0.3074585
-0.3057809
-0.3042039
-0.3020419
-0.3127943
-0.3122366
-0.3117637
-0.3100514
-0.3084297
-0.3062155
-0.3175304
-0.3169849
-0.3164773
-0.3147258
-0.3130542
-0.3107868
-0.3226925
-0.3221565
-0.3216102
-0.319814
-0.3180886
-0.315746
-0.3282951
-0.3277673
-0.3271782
-0.3253319
-0.3235521
-0.3211002
-0.3343536
-0.333832
-0.3331959
-0.3312938
-0.3294452
-0.3268919
-0.3408862
-0.3403695
-0.3396802
-0.3377165
-0.3357794
-0.3331221
-0.3479141
-0.3474017
-0.3466528
-0.3446264
-0.3425687
-0.3397717
-0.3554594
-0.3549492
-0.3541336
-0.3520356
-0.3498645
-0.3468841
-0.3635494
-0.3630383
-0.3621468
-0.3599638
-0.3576753
-0.3544942
-0.3722111
-0.371698
-0.37072
-0.3684414
-0.366003
-0.3626303
-0.3814791
-0.3809627
-0.3798855
-0.3775029
-0.3748728
-0.3713065
-0.3913818
-0.3908735
-0.3896845
-0.3871989
-0.3843335
-0.3805096
-0.2807734
-0.2821134
-0.2834598
-0.2826074
-0.2805532
-0.2793076
-0.2884936
-0.2858968
-0.2824482
-0.2828607
-0.2811162
-0.2798689
-0.286677
-0.2859229
-0.2842117
-0.2838105
-0.2821537
-0.2806045
-0.2885651
-0.2870177
-0.2845347
-0.2847595
-0.2828427
-0.2815416
-0.2890849
-0.288242
-0.2860792
-0.2861901
-0.284369
-0.282925
-0.2911494
-0.2900154
-0.2876748
-0.2878639
-0.2859648
-0.2845611
-0.2930793
-0.2920735
-0.2897076
-0.2899055
-0.2880299
-0.2865785
-0.2955562
-0.2945431
-0.2920861
-0.2922913
-0.2903794
-0.2889154
-0.2983201
-0.2973385
-0.2948266
-0.2950405
-0.2931129
-0.2916144
-0.3014793
-0.3005226
-0.2979424
-0.2981572
-0.2961968
-0.2946653
-0.3050085
-0.3040714
-0.3014334
-0.3016477
-0.299653
-0.2980774
-0.3089295
-0.3080124
-0.3053118
-0.305522
-0.3034834
-0.3018631
-0.3132491
-0.3123458
-0.3095845
-0.3097874
-0.3076965
-0.3060227
-0.3179824
-0.3170897
-0.3142646
-0.3144569
-0.3123108
-0.3105794
-0.3231422
-0.3222547
-0.3193597
-0.3195339
-0.3173094
-0.3155238
-0.3287424
-0.3278568
-0.3248904
-0.3250456
-0.3227482
-0.3209678
-0.3347994
-0.3339106
-0.3308681
-0.330986
-0.3286274
-0.3266992
-0.3413305
-0.3404349
-0.3373089
-0.3373821
-0.3349349
-0.332808
-0.3483597
-0.3474547
-0.3442422
-0.3442775
-0.3417986
-0.3394784
-0.3559052
-0.3549823
-0.3516661
-0.3516675
-0.3490338
-0.3466507
-0.3639942
-0.3630511
-0.3596203
-0.3595613
-0.356697
-0.3543582
-0.372651
-0.3716729
-0.3681348
-0.3679792
-0.3649874
-0.362581
-0.3819341
-0.3809137
-0.3772892
-0.3769569
-0.3738702
-0.3713418
-0.3898168
-0.390732
-0.3869946
-0.3864235
-0.3832671
-0.3808511
-0.2832366
-0.3135031
-0.315318
-0.3149939
-0.3136295
-0.3115825
-0.2925449
-0.2779773
-0.2825084
-0.2840427
-0.2837264
-0.2825345
-0.2806485
-0.292526
-0.2748778
-0.2823363
-0.2847797
-0.2850049
-0.2838809
-0.2821594
-0.293038
-0.2749451
-0.2823962
-0.2852878
-0.2857835
-0.284857
-0.2830814
-0.2941121
-0.2764326
-0.2831511
-0.2863869
-0.2869975
-0.2861234
-0.2843535
-0.2958245
-0.2777487
-0.2846693
-0.2879843
-0.288555
-0.2877142
-0.2859324
-0.2977594
-0.2795571
-0.2865899
-0.2899881
-0.2905297
-0.2896803
-0.2878727
-0.3001221
-0.2817003
-0.2888969
-0.2923685
-0.292873
-0.2920027
-0.2901557
-0.3028482
-0.2842215
-0.2915896
-0.2951119
-0.2955858
-0.2946798
-0.2927868
-0.3059589
-0.2871414
-0.2946589
-0.2982214
-0.2986585
-0.2977099
-0.2957745
-0.3094527
-0.2904561
-0.2981211
-0.3017027
-0.3020981
-0.3011087
-0.2991329
-0.3133486
-0.2941673
-0.3019699
-0.3055621
-0.3059174
-0.3048908
-0.3028812
-0.3176347
-0.2982898
-0.3062158
-0.3098012
-0.3101228
-0.309068
-0.3070358
-0.32234
-0.3028234
-0.3108629
-0.3144346
-0.3147369
-0.3136521
-0.3116304
-0.3274691
-0.3077811
-0.3159208
-0.3194772
-0.3197689
-0.318663
-0.3166404
-0.3330387
-0.3131759
-0.321408
-0.3249529
-0.3252276
-0.3241653
-0.3218256
-0.3390641
-0.3190246
-0.3273385
-0.3308744
-0.3311314
-0.3300638
-0.3270566
-0.3455605
-0.3253485
-0.3337309
-0.3372683
-0.3375078
-0.3363678
-0.3320245
-0.3525537
-0.332157
-0.3406139
-0.3441584
-0.3444468
-0.3431232
-0.3381988
-0.360056
-0.339475
-0.3480039
-0.3515392
-0.3518294
-0.3500736
-0.3452504
-0.3680868
-0.347333
-0.3559199
-0.3594389
-0.3596591
-0.3565595
-0.3535063
-0.3766796
-0.3557603
-0.3643932
-0.3679091
-0.368053
-0.364303
-0.3614668
-0.3858601
-0.3647957
-0.3734549
-0.3769943
-0.3771071
-0.372763
-0.3699309
-0.3956735
-0.3934757
-0.3831266
-0.3866967
-0.3868872
-0.3819337
-0.3789524
-0.2935232
-0.3087841
-0.2839968
-0.292608
-0.2741245
-0.2744132
-0.2924478
-0.291332
-0.2926581
-0.2932923
-0.2776909
-0.2760317
-0.2925163
-0.2907363
-0.2931597
-0.2936639
-0.2807071
-0.2772237
-0.2930335
-0.2912774
-0.2941964
-0.2948205
-0.281819
-0.2782666
-0.2941112
-0.2924559
-0.2955612
-0.2962211
-0.2838513
-0.2798853
-0.2958227
-0.2939872
-0.2973798
-0.2980967
-0.2859993
-0.2818063
-0.2977591
-0.2959104
-0.2995725
-0.3002889
-0.2885693
-0.2841308
-0.3001198
-0.2982125
-0.3021412
-0.3028687
-0.291481
-0.2868038
-0.3028474
-0.3008753
-0.3050804
-0.3057954
-0.2947622
-0.2898497
-0.3059584
-0.3039262
-0.3083993
-0.3090996
-0.2984119
-0.2932737
-0.3094517
-0.3073588
-0.3121008
-0.3127779
-0.302445
-0.2971001
-0.3133407
-0.3111868
-0.3161986
-0.3168471
-0.3068746
-0.3013299
-0.3176333
-0.3154185
-0.3207023
-0.3213144
-0.3117153
-0.3059708
-0.3223393
-0.3200643
-0.325627
-0.3261947
-0.3169728
-0.3110373
-0.3274691
-0.3251322
-0.3309819
-0.3314988
-0.3226606
-0.3165349
-0.333039
-0.3306353
-0.3367818
-0.3372434
-0.3287963
-0.3224878
-0.3390635
-0.3365886
-0.3430425
-0.3434451
-0.3353972
-0.3289045
-0.34556
-0.3430084
-0.3497852
-0.3501239
-0.3424821
-0.3358099
-0.3525461
-0.3499162
-0.3570286
-0.3572981
-0.3500669
-0.3432325
-0.3600423
-0.3573341
-0.3647974
-0.3649878
-0.3581902
-0.3511884
-0.3680747
-0.365286
-0.373118
-0.3732191
-0.3668827
-0.3597079
-0.3766715
-0.3738006
-0.3820225
-0.382025
-0.376173
-0.3688091
-0.3858606
-0.3829129
-0.3915532
-0.3914444
-0.3860941
-0.3871482
-0.3956887
-0.3926661
-0.4017405
-0.4015235
-0.2975573
-0.285837
-0.2912744
-0.3016221
-0.287742
-0.2927232
-0.3026528
-0.2866691
-0.2921336
-0.3014603
-0.286559
-0.2920587
-0.3028287
-0.2863979
-0.2916379
-0.303337
-0.2864021
-0.2917787
-0.3026792
-0.2864426
-0.2911709
-0.3027066
-0.2868002
-0.2916386
-0.3020398
-0.2860951
-0.2911574
-0.3029937
-0.2863183
-0.2916177
-0.302159
-0.2860034
-0.2910364
-0.3038692
-0.2859249
-0.2920306
-0.3022063
-0.286381
-0.2916104
-0.3019091
-0.2869555
-0.2912767
-0.3007895
-0.2873631
-0.2921253
-0.2979597
-0.2864272
-0.2912786
-0.3089117
-0.2836169
-0.292585
-0.2935443
-0.2913537
-0.2926703
-0.2933121
-0.2741316
-0.2744287
-0.2907447
-0.2931693
-0.2936709
-0.2777089
-0.2760415
-0.291282
-0.2941896
-0.294822
-0.2807162
-0.2772281
-0.295914
-0.2995714
-0.3002887
-0.2860013
-0.2818061
-0.2982153
-0.30214
-0.3028683
-0.2885719
-0.28413
-0.3008773
-0.3050787
-0.3057949
-0.2914823
-0.286801
-0.3039286
-0.3083964
-0.3090989
-0.2947633
-0.2898458
-0.3073619
-0.3120983
-0.3127778
-0.2984127
-0.2932742
-0.3111913
-0.3162071
-0.3168503
-0.3024508
-0.2970956
-0.3154211
-0.3207026
-0.3213145
-0.306864
-0.3013242
-0.3200662
-0.3256259
-0.3261942
-0.3117115
-0.3059665
-0.325134
-0.3309747
-0.3314975
-0.3169686
-0.3110302
-0.3306371
-0.3367794
-0.3372424
-0.3226583
-0.3165319
-0.3365903
-0.3430404
-0.3434442
-0.3287946
-0.3224842
-0.3430095
-0.3497819
-0.3501218
-0.3353962
-0.3289051
-0.3499168
-0.3570353
-0.3572976
-0.3424922
-0.3358194
-0.3573347
-0.3648075
-0.3649876
-0.3500789
-0.3432442
-0.3737912
-0.3820304
-0.3820177
-0.3669087
-0.3597323
-0.3828934
-0.3915473
-0.391429
-0.3762059
-0.3688414
-0.3926243
-0.4017277
-0.4014987
-0.3861426
-0.3871993
-0.2971134
-0.300189
-0.2900731
-0.3100546
-0.2831174
-0.3198211
-0.2793221
-0.2867042
-0.3047585
-0.3117816
-0.3134688
-0.3227621
-0.2797409
-0.2836767
-0.3056465
-0.3112459
-0.315317
-0.3215846
-0.2810518
-0.2813653
-0.3053433
-0.309795
-0.3149933
-0.3201881
-0.2802295
-0.2800128
-0.3039252
-0.3078257
-0.3135843
-0.3181344
-0.2792469
-0.278308
-0.3019962
-0.311658
-0.2770592
-0.2841958
-0.2850543
-0.287594
-0.2850939
-0.287189
-0.2865605
-0.2849486
-0.2876037
-0.2897567
-0.2887331
-0.286556
-0.2892753
-0.2911159
-0.2900657
-0.2884523
-0.2903659
-0.292812
-0.2917567
-0.2900692
-0.2919582
-0.2948123
-0.2937322
-0.2918585
-0.2939032
-0.2971916
-0.2961407
-0.2940513
-0.2962124
-0.2999123
-0.2988948
-0.2966141
-0.2988925
-0.303005
-0.3020575
-0.2995588
-0.3019465
-0.3064706
-0.3056163
-0.3028811
-0.3053736
-0.31032
-0.3095316
-0.3065929
-0.3091842
-0.3145629
-0.3138637
-0.3107049
-0.3133921
-0.319213
-0.3186496
-0.3152228
-0.318007
-0.3242811
-0.3238549
-0.320156
-0.3230385
-0.3297811
-0.3295304
-0.3255173
-0.3284945
-0.3357257
-0.3356583
-0.3313224
-0.3344109
-0.3421343
-0.3423242
-0.3375871
-0.3408022
-0.3490314
-0.3494774
-0.3443259
-0.3476783
-0.3564322
-0.3570765
-0.3515669
-0.3550725
-0.3643657
-0.36524
-0.359331
-0.3630022
-0.3728557
-0.3739769
-0.3676474
-0.3714666
-0.3819355
-0.3833843
-0.3765472
-0.3805154
-0.3916346
-0.3934384
-0.3860834
-0.390085
-0.3011145
-0.2972256
-0.3013809
-0.3012096
-0.3020196
-0.3015615
-0.3033191
-0.3029296
-0.3027257
-0.3019925
-0.3014376
-0.303025
-0.3015334
-0.3023369
-0.3002851
-0.3008068
-0.3006526
-0.3002283
-0.3198232
-0.2792999
-0.2866969
-0.2901019
-0.3100555
-0.322752
-0.279722
-0.2836771
-0.3047595
-0.3117923
-0.3215754
-0.2810592
-0.2814104
-0.3056608
-0.3112565
-0.3202265
-0.2803942
-0.2799895
-0.3053488
-0.3097971
-0.3180386
-0.2789612
-0.2783155
-0.3039199
-0.307814
-0.277291
-0.3019941
-0.2924643
-0.2955565
-0.2962212
-0.2818236
-0.2782702
-0.2939919
-0.2973745
-0.2980977
-0.2838521
-0.2798836
-0.3652838
-0.3731289
-0.3732175
-0.3582068
-0.3512079
-0.2807437
-0.3089122
-0.287346
-0.2945873
-0.2947398
-0.2912294
-0.2875329
-0.2868581
-0.3005264
-0.30004
-0.285689
-0.2859321
-0.2852575
-0.2857831
-0.286082
-0.2889116
-0.2884197
-0.2872064
-0.2878688
-0.2899806
-0.2903299
-0.2887807
-0.2896061
-0.2911989
-0.2915819
-0.290077
-0.291122
-0.2929242
-0.2934206
-0.2918594
-0.2930446
-0.2950275
-0.2955307
-0.29395
-0.2953857
-0.2974865
-0.2980235
-0.2964144
-0.2980938
-0.3003047
-0.3008641
-0.2992278
-0.3011795
-0.3034967
-0.3040811
-0.3024088
-0.3046515
-0.3070576
-0.3076759
-0.3059966
-0.3085228
-0.3109938
-0.3116577
-0.3099835
-0.3127986
-0.3153149
-0.3160369
-0.3143757
-0.3174809
-0.320029
-0.3208246
-0.3191417
-0.322586
-0.3251547
-0.3260328
-0.3243348
-0.3281258
-0.3307172
-0.3316786
-0.3299859
-0.3341214
-0.3367211
-0.337772
-0.3360801
-0.3405823
-0.343196
-0.3443368
-0.3425944
-0.3475339
-0.3501577
-0.351389
-0.3496185
-0.3549983
-0.3576334
-0.3589543
-0.3571761
-0.3629995
-0.3656436
-0.3670543
-0.3652538
-0.3715601
-0.3742106
-0.3757154
-0.3738785
-0.3807179
-0.3833517
-0.384965
-0.3830358
-0.3905716
-0.4038957
-0.3929009
-0.3948876
-0.2992197
-0.3019089
-0.3018255
-0.3027514
-0.3014404
-0.3018713
-0.3027799
-0.3036627
-0.3025562
-0.3037902
-0.3030546
-0.3014439
-0.2999674
-0.3014695
-0.3013433
-0.2985748
-0.2972555
-0.3003035
-0.2809459
-0.3089395
-0.2874061
-0.294611
-0.2946688
-0.2912958
-0.2875335
-0.2869461
-0.2842016
-0.2851004
-0.287624
-0.2851147
-0.2857021
-0.2859523
-0.2852743
-0.2858065
-0.2871972
-0.2865767
-0.2849545
-0.2876203
-0.2860902
-0.2889286
-0.2884318
-0.2872229
-0.2897624
-0.2887443
-0.286562
-0.2892862
-0.2948135
-0.2937269
-0.2918561
-0.2939068
-0.2930548
-0.2950278
-0.2955304
-0.2939597
-0.2971906
-0.2961434
-0.2940546
-0.296211
-0.2953909
-0.2974852
-0.2980222
-0.2964197
-0.2999111
-0.2988974
-0.2966164
-0.2988906
-0.2980991
-0.3003017
-0.3008624
-0.2992318
-0.3030032
-0.3020572
-0.2995618
-0.3019434
-0.3011893
-0.3034926
-0.3040779
-0.3024171
-0.3064666
-0.3056226
-0.3028872
-0.3053686
-0.3046698
-0.3070545
-0.3076711
-0.3060166
-0.3145632
-0.3138703
-0.3107023
-0.3133894
-0.3127989
-0.3153112
-0.3160346
-0.3143852
-0.3192102
-0.3186506
-0.3152229
-0.3180029
-0.3174847
-0.3200256
-0.3208201
-0.3191546
-0.3297771
-0.3295342
-0.3255116
-0.328492
-0.3281284
-0.3307129
-0.331674
-0.3299947
-0.334122
-0.3367163
-0.3377685
-0.3360893
-0.3421319
-0.3423239
-0.3375881
-0.3407947
-0.3405924
-0.3431942
-0.3443315
-0.342616
-0.3490296
-0.3495306
-0.3443253
-0.347715
-0.3819373
-0.3834175
-0.376549
-0.3805343
-0.3807202
-0.3833823
-0.3849708
-0.3830758
-0.3916512
-0.3934848
-0.3860954
-0.3901663
-0.3905837
-0.3970573
-0.3929156
-0.3949095
-0.2864754
-0.2901874
-0.3109388
-0.312833
-0.316234
-0.3083011
-0.3152985
-0.3135964
-0.310355
-0.3135384
-0.3159594
-0.3118284
-0.308549
-0.3176776
-0.315782
-0.3046671
-0.3129483
-0.3080111
-0.312833
-0.3192595
-0.3188401
-0.3099004
-0.3037441
-0.3177816
-0.3126746
-0.3052245
-0.3160299
-0.309927
-0.3109563
-0.3132133
-0.3184847
-0.3036577
-0.3144646
-0.3146555
-0.3099946
-0.3166365
-0.3141722
-0.3087014
-0.2866885
-0.2902428
-0.2847939
-0.2785411
-0.2872538
-0.277253
-0.2833951
-0.2894941
-0.286877
-0.289767
-0.2841714
-0.2883742
-0.2865445
-0.2829441
-0.2839163
-0.2889392
-0.2833514
-0.2883947
-0.2838704
-0.2891523
-0.2882834
-0.2832706
-0.2878771
-0.289999
-0.290336
-0.2887918
-0.2888072
-0.2940811
-0.2880361
-0.2931689
-0.290783
-0.2955034
-0.2899917
-0.2948345
-0.2911156
-0.2963285
-0.2954719
-0.290321
-0.293381
-0.2979818
-0.2925645
-0.2972733
-0.2938061
-0.2989531
-0.298142
-0.2929857
-0.2997322
-0.3040202
-0.2988555
-0.3032869
-0.3003722
-0.3053106
-0.3045681
-0.2995074
-0.310323
-0.309551
-0.3065839
-0.3092075
-0.3085051
-0.3109827
-0.3116591
-0.3099552
-0.3085614
-0.3131899
-0.3125381
-0.3076491
-0.3122204
-0.3158786
-0.3112561
-0.3151914
-0.3132834
-0.3177444
-0.3171657
-0.3123507
-0.317211
-0.3206396
-0.3162186
-0.3199564
-0.3242773
-0.3238627
-0.320153
-0.3230386
-0.3225806
-0.3251511
-0.3260294
-0.3243204
-0.3240413
-0.3281267
-0.3277022
-0.3230645
-0.3285343
-0.331417
-0.3274715
-0.3307945
-0.3357227
-0.3356597
-0.3313211
-0.3344069
-0.3475403
-0.3501703
-0.3513807
-0.3496128
-0.3564261
-0.3571362
-0.3515607
-0.355103
-0.3549956
-0.3576471
-0.3589487
-0.3571753
-0.3728553
-0.3740295
-0.3676415
-0.3715065
-0.3715533
-0.3742404
-0.3757155
-0.3738954
-0.3775376
-0.3802284
-0.3800722
-0.3764987
-0.3844844
-0.385176
-0.3831002
-0.3846134
-0.387573
-0.3901236
-0.3898895
-0.3865574
-0.3949077
-0.395266
-0.39457
-0.3934617
-0.3020494
-0.3067472
-0.3059985
-0.3168141
-0.3085902
-0.3173337
-0.3060057
-0.3039038
-0.3063049
-0.3177728
-0.3077481
-0.3061122
-0.3145039
-0.3067281
-0.3096823
-0.3138635
-0.3084351
-0.3162109
-0.3184185
-0.305336
-0.3003967
-0.2845083
-0.3087622
-0.2834815
-0.3126696
-0.3021215
-0.2829956
-0.2883484
-0.3024135
-0.3090885
-0.2806785
-0.2860419
-0.3130284
-0.3022029
-0.2806987
-0.2872046
-0.3023845
-0.3075756
-0.2791899
-0.285392
-0.3117561
-0.3005199
-0.2793853
-0.2858076
-0.3011729
-0.3058884
-0.277728
-0.2840096
-0.3101395
-0.2988182
-0.2780079
-0.2844002
-0.2996501
-0.3041148
-0.2761377
-0.282561
-0.3081883
-0.297005
-0.2763816
-0.2826278
-0.2977452
-0.2742088
-0.2807293
-0.290076
-0.2884465
-0.2903879
-0.2911205
-0.2912076
-0.2900955
-0.2896171
-0.29158
-0.2917614
-0.2919621
-0.2928144
-0.2900682
-0.2929169
-0.2934196
-0.2918567
-0.2911127
-0.3653066
-0.3593247
-0.3630349
-0.3643612
-0.3656643
-0.3670505
-0.3652589
-0.3629961
-0.315494
-0.3081941
-0.3149629
-0.3130668
-0.3164402
-0.3078867
-0.3062067
-0.3175314
-0.3171506
-0.3047744
-0.3088426
-0.3167088
-0.3070999
-0.3171744
-0.3106836
-0.3075572
-0.3057122
-0.3120655
-0.3024617
-0.3068867
-0.2838988
-0.274526
-0.2656931
-0.2911524
-0.2862866
-0.296252
-0.2892601
-0.2896016
-0.2808974
-0.2728487
-0.2846127
-0.2749082
-0.2861758
-0.2879803
-0.2820364
-0.2878333
-0.282837
-0.2874011
-0.2874199
-0.2832755
-0.2832171
-0.2880952
-0.2870322
-0.2829401
-0.2834098
-0.2882081
-0.2829057
-0.2874223
-0.2845012
-0.289424
-0.2886386
-0.2838844
-0.2895395
-0.2943082
-0.2935787
-0.2888425
-0.2899113
-0.2950205
-0.2892129
-0.2938543
-0.2919788
-0.2966519
-0.2959267
-0.2912538
-0.2924302
-0.2974646
-0.291694
-0.2962886
-0.2947884
-0.299345
-0.2986341
-0.2940413
-0.2953366
-0.3002692
-0.2945587
-0.2991004
-0.3015703
-0.305847
-0.3051427
-0.300781
-0.3023234
-0.3069572
-0.301469
-0.3059092
-0.309954
-0.3138884
-0.3131738
-0.3091257
-0.310938
-0.3151901
-0.3099956
-0.3142754
-0.314768
-0.3185411
-0.3177736
-0.3139287
-0.3158784
-0.3199083
-0.3148915
-0.3190758
-0.3257101
-0.3290735
-0.3282791
-0.3248369
-0.3270956
-0.3306646
-0.3260049
-0.329962
-0.333406
-0.3367357
-0.3322551
-0.3361186
-0.3798846
-0.3815574
-0.3803739
-0.37904
-0.3825785
-0.3842421
-0.3810268
-0.3839791
-0.3900083
-0.3913346
-0.3901606
-0.3891646
-0.392936
-0.3942953
-0.3913093
-0.3939886
-0.406201
-0.3895721
-0.4062162
-0.40308
-0.4030177
-0.3896924
-0.4085664
-0.3963246
-0.4022787
-0.3963726
-0.3982916
-0.4006561
-0.4003256
-0.3973345
-0.3003825
-0.2844265
-0.2835069
-0.3087241
-0.2806852
-0.3024055
-0.2860467
-0.3090682
-0.2791878
-0.3023862
-0.2853825
-0.3075672
-0.2777335
-0.3011794
-0.2840269
-0.3058791
-0.276125
-0.2996589
-0.2825857
-0.3041078
-0.2742036
-0.2977726
-0.28075
-0.3020063
-0.2841412
-0.2884238
-0.2829279
-0.2865189
-0.2826634
-0.2876244
-0.2824265
-0.287112
-0.2838661
-0.2891442
-0.2832638
-0.2882761
-0.2852912
-0.2905678
-0.2845602
-0.2895734
-0.2868741
-0.2921329
-0.2861394
-0.2912385
-0.288795
-0.2940587
-0.2880267
-0.2931588
-0.2911076
-0.2963214
-0.2903133
-0.295469
-0.2938016
-0.2989481
-0.2929817
-0.2981391
-0.2968846
-0.3019417
-0.2960424
-0.3011626
-0.3003675
-0.3053058
-0.2995035
-0.3045663
-0.3042584
-0.3090525
-0.3033681
-0.3083578
-0.3085585
-0.3131908
-0.307647
-0.3125399
-0.3132771
-0.3177383
-0.3123478
-0.3171603
-0.3184316
-0.3227064
-0.3174817
-0.3221844
-0.3240302
-0.32811
-0.3230609
-0.3276904
-0.3300985
-0.333974
-0.3291125
-0.3336351
-0.3366598
-0.3403072
-0.335656
-0.340078
-0.3437182
-0.3471684
-0.342701
-0.34699
-0.3513003
-0.3545533
-0.3502721
-0.3544404
-0.359442
-0.3625076
-0.3584025
-0.3624335
-0.368154
-0.3710428
-0.3671278
-0.3709672