/*--------------------------------*- C++ -*----------------------------------*\
  =========                 |
  \\      /  F ield         | OpenFOAM: The Open Source CFD Toolbox
   \\    /   O peration     | Website:  https://openfoam.org
    \\  /    A nd           | Version:  7
     \\/     M anipulation  |
\*---------------------------------------------------------------------------*/
FoamFile
{
    version     2.0;
    format      ascii;
    class       volScalarField;
    location    "0.1";
    object      Ux;
}
// * * * * * * * * * * * * * * * * * * * * * * * * * * * * * * * * * * * * * //

dimensions      [0 1 -1 0 0 0 0];

internalField   nonuniform List<scalar> 
90967
(
-1.916715
-1.890785
-1.899122
-1.885823
-1.877972
-1.859551
-1.935877
-1.910447
-1.918394
-1.910427
-1.902379
-1.887339
-1.938856
-1.91681
-1.928911
-1.921477
-1.918968
-1.907052
-1.94518
-1.925354
-1.939918
-1.937342
-1.938717
-1.932743
-1.949935
-1.933546
-1.953002
-1.955553
-1.963923
-1.964598
-1.953524
-1.941198
-1.966327
-1.976016
-1.992271
-2.002086
-1.953851
-1.946288
-1.978816
-1.99727
-2.023917
-2.044864
-1.948724
-1.947349
-1.988489
-2.01807
-2.057498
-2.092542
-1.93552
-1.942042
-1.993329
-2.036476
-2.092043
-2.144831
-1.911404
-1.927281
-1.990697
-2.049978
-2.125215
-2.2004
-1.873128
-1.898886
-1.977414
-2.056597
-2.156365
-2.260367
-1.816481
-1.851804
-1.947843
-2.050272
-2.17975
-2.319075
-1.734494
-1.780452
-1.897188
-2.028645
-2.196899
-2.384006
-1.621297
-1.677096
-1.814245
-1.976669
-2.189618
-2.435693
-1.467735
-1.533587
-1.691885
-1.891762
-2.161709
-2.490672
-1.268624
-1.341402
-1.512203
-1.743028
-2.071067
-2.499707
-1.009284
-1.089603
-1.266311
-1.520665
-1.903702
-2.462515
-0.6805897
-0.7555953
-0.9094701
-1.144487
-1.524339
-2.146146
-0.3966368
-0.5073838
-0.6373516
-0.8349242
-1.148348
-1.6607
-2.55339
-0.07791769
-0.1331908
-0.208814
-0.322535
-0.5153901
-0.8771919
-1.64333
0.04550131
0.08961112
0.1402032
0.1953341
0.2459882
0.3038115
0.3708879
-1.879626
-1.838113
-1.822717
-1.795366
-1.768657
-1.738849
-1.703848
-1.907487
-1.924598
-1.909501
-1.916013
-1.904687
-1.897295
-1.878812
-1.898269
-1.936573
-1.926494
-1.923679
-1.915774
-1.905955
-1.890866
-1.913326
-1.941903
-1.93103
-1.933708
-1.925951
-1.922654
-1.910293
-1.912978
-1.948048
-1.940993
-1.944829
-1.942343
-1.942565
-1.936293
-1.917475
-1.95207
-1.948636
-1.957985
-1.959678
-1.967971
-1.96802
-1.916305
-1.955364
-1.955486
-1.971336
-1.979535
-1.996258
-2.005462
-1.912484
-1.955869
-1.959122
-1.983731
-1.999741
-2.027833
-2.047886
-1.903044
-1.951495
-1.958646
-1.993241
-2.01948
-2.060947
-2.095027
-1.885747
-1.939419
-1.951279
-1.997802
-2.036821
-2.094806
-2.146412
-1.857633
-1.915914
-1.934463
-1.994279
-2.049203
-2.126992
-2.200691
-1.815386
-1.876154
-1.904624
-1.979552
-2.054342
-2.156828
-2.259068
-1.75495
-1.817014
-1.856215
-1.948051
-2.045894
-2.177734
-2.315239
-1.670866
-1.73272
-1.783922
-1.895424
-2.021808
-2.191237
-2.376142
-1.557726
-1.616545
-1.679102
-1.809939
-1.966109
-2.177878
-2.419775
-1.4074
-1.460911
-1.534795
-1.685126
-1.877812
-2.141895
-2.461107
-1.215898
-1.257731
-1.336488
-1.50048
-1.721964
-2.039363
-2.448691
-0.9700644
-0.9942847
-1.073121
-1.238878
-1.484846
-1.850166
-2.36021
-0.6785431
-0.6683095
-0.7214226
-0.8720627
-1.10806
-1.500527
-2.11787
-0.3896248
-0.3360337
-0.3899997
-0.5046185
-0.6900363
-1.015559
-1.598013
-2.660674
0.007023104
0.06243069
0.1017588
0.1433999
0.1855333
0.2302096
0.2861149
-1.864706
-1.93344
-1.881676
-1.889791
-1.868353
-1.852502
-1.920568
-1.925714
-1.897444
-1.925151
-1.904073
-1.899029
-1.879321
-1.924741
-1.907135
-1.920975
-1.913027
-1.914517
-1.903142
-1.890946
-1.929141
-1.909158
-1.924416
-1.927047
-1.923826
-1.920895
-1.909728
-1.937016
-1.914753
-1.934858
-1.934974
-1.940217
-1.939803
-1.935658
-1.939839
-1.919013
-1.942443
-1.948299
-1.95754
-1.965375
-1.967289
-1.939914
-1.922697
-1.950264
-1.960416
-1.977873
-1.993167
-2.004836
-1.936412
-1.921784
-1.955107
-1.972275
-1.998416
-2.024557
-2.047314
-1.926761
-1.916094
-1.955606
-1.981199
-2.018391
-2.057346
-2.094472
-1.908676
-1.90252
-1.949134
-1.985342
-2.035865
-2.090959
-2.145831
-1.879251
-1.878209
-1.93276
-1.981537
-2.048041
-2.122703
-2.199741
-1.834767
-1.839313
-1.902885
-1.966764
-2.052971
-2.152382
-2.258047
-1.771243
-1.781195
-1.853921
-1.934653
-2.043333
-2.171838
-2.312235
-1.683214
-1.698873
-1.781551
-1.882182
-2.019105
-2.185769
-2.374193
-1.565246
-1.584199
-1.674414
-1.793946
-1.958388
-2.165218
-2.407003
-1.408646
-1.433095
-1.530831
-1.670725
-1.872049
-2.134442
-2.458935
-1.210646
-1.229213
-1.323645
-1.473808
-1.692432
-1.996542
-2.390909
-0.9483163
-0.9784035
-1.066497
-1.212537
-1.464554
-1.830408
-2.354166
-0.6554956
-0.6425491
-0.6885545
-0.8184616
-1.029173
-1.390304
-1.966724
-0.4015572
-0.2950113
-0.3052701
-0.3250254
-0.4804933
-0.747477
-1.254878
0.1169369
0.1424309
0.1862802
0.2315168
0.2920901
0.006331964
0.0596921
0.09765741
0.1412678
0.1870045
0.2307623
0.2887473
-1.894347
-1.948921
-1.896238
-1.905071
-1.885668
-1.869398
-1.915754
-1.925868
-1.896257
-1.927243
-1.903669
-1.897382
-1.877333
-1.910337
-1.924748
-1.92227
-1.916681
-1.915331
-1.90395
-1.891016
-1.907034
-1.925747
-1.923663
-1.932137
-1.925038
-1.922195
-1.910029
-1.921231
-1.933228
-1.936419
-1.940599
-1.941917
-1.941313
-1.936189
-1.919668
-1.937421
-1.942104
-1.954451
-1.958956
-1.967064
-1.967847
-1.920522
-1.941577
-1.950087
-1.967092
-1.97934
-1.99493
-2.00548
-1.916576
-1.940581
-1.954328
-1.979122
-1.999692
-2.026411
-2.047918
-1.906987
-1.934645
-1.954432
-1.988118
-2.019495
-2.059186
-2.09504
-1.889043
-1.920464
-1.947536
-1.992101
-2.036734
-2.092745
-2.146298
-1.859924
-1.895433
-1.930775
-1.987892
-2.048561
-2.124246
-2.199981
-1.8158
-1.855644
-1.900592
-1.972435
-2.053017
-2.153473
-2.257905
-1.752738
-1.796152
-1.851247
-1.939114
-2.042417
-2.171804
-2.311212
-1.665527
-1.712231
-1.77843
-1.884822
-2.016751
-2.183803
-2.371251
-1.548183
-1.594949
-1.67002
-1.793674
-1.953061
-2.159768
-2.401029
-1.392738
-1.440792
-1.524405
-1.665619
-1.860776
-2.120676
-2.44312
-1.196413
-1.231485
-1.312734
-1.460162
-1.670541
-1.971672
-2.364451
-0.9359071
-0.9745097
-1.048075
-1.181786
-1.421499
-1.776255
-2.28878
-0.6507178
-0.6310689
-0.6609355
-0.77317
-0.9651316
-1.309425
-1.862488
-0.4166403
-0.2792246
-0.2853216
-0.2796388
-0.4233973
-0.6718692
-1.147472
0.1309632
0.1442809
0.1903116
0.2355387
0.296294
0.005561712
0.05918818
0.09665977
0.1416874
0.1889264
0.2321902
0.2905046
-1.903323
-1.945469
-1.895301
-1.905766
-1.884711
-1.869612
-1.920877
-1.925296
-1.894101
-1.927491
-1.903536
-1.897159
-1.877347
-1.919409
-1.920595
-1.921693
-1.914047
-1.914833
-1.902877
-1.890947
-1.925941
-1.920768
-1.924154
-1.929974
-1.924652
-1.921476
-1.909819
-1.935359
-1.927409
-1.935926
-1.937164
-1.941582
-1.940262
-1.935969
-1.937858
-1.931033
-1.942821
-1.951082
-1.958781
-1.966167
-1.967657
-1.938065
-1.934684
-1.950765
-1.962977
-1.979298
-1.993804
-2.005331
-1.934137
-1.933858
-1.955199
-1.974914
-1.999712
-2.025218
-2.047791
-1.924119
-1.928339
-1.955322
-1.98368
-2.019543
-2.057836
-2.0949
-1.905885
-1.914544
-1.948379
-1.98755
-2.036761
-2.091264
-2.146129
-1.876384
-1.889785
-1.931408
-1.983168
-2.048409
-2.122534
-2.199612
-1.831813
-1.850197
-1.900977
-1.967622
-2.052665
-2.151613
-2.257427
-1.767984
-1.790802
-1.851076
-1.933959
-2.041356
-2.169276
-2.309872
-1.67958
-1.707169
-1.777848
-1.879551
-2.015207
-2.181098
-2.3699
-1.560924
-1.589741
-1.668137
-1.78702
-1.949116
-2.153978
-2.395825
-1.404138
-1.436389
-1.522361
-1.659097
-1.856068
-2.114722
-2.439205
-1.20582
-1.226119
-1.307735
-1.448879
-1.656268
-1.95303
-2.343797
-0.942339
-0.9729022
-1.045948
-1.17241
-1.410936
-1.763341
-2.27552
-0.6564246
-0.625985
-0.6530808
-0.7558247
-0.9377327
-1.271734
-1.81588
-0.4204387
-0.2800541
-0.2896595
-0.2734306
-0.4159109
-0.6615506
-1.135562
0.1328409
0.1441177
0.1903722
0.2346634
0.2963785
0.005419394
0.05866072
0.09573705
0.1410842
0.1889716
0.2320158
0.2909841
-1.903787
-1.945462
-1.895289
-1.905766
-1.884776
-1.869648
-1.920617
-1.925325
-1.894138
-1.927506
-1.903559
-1.897166
-1.877369
-1.919409
-1.920622
-1.921665
-1.914042
-1.914845
-1.902903
-1.89097
-1.925893
-1.920777
-1.92418
-1.929991
-1.924677
-1.921486
-1.909833
-1.935329
-1.927409
-1.93593
-1.937166
-1.941598
-1.940277
-1.935983
-1.937824
-1.931031
-1.942831
-1.951095
-1.958798
-1.966177
-1.96767
-1.938024
-1.934678
-1.950777
-1.962983
-1.979318
-1.993816
-2.00535
-1.934085
-1.93386
-1.955213
-1.974927
-1.999739
-2.025231
-2.047813
-1.924047
-1.928339
-1.955367
-1.98369
-2.01959
-2.05785
-2.094932
-1.905799
-1.914568
-1.948411
-1.987585
-2.03681
-2.091282
-2.146167
-1.876321
-1.889783
-1.931518
-1.983176
-2.048494
-2.122551
-2.199662
-1.831659
-1.85027
-1.901024
-1.967676
-2.052736
-2.15164
-2.25748
-1.767804
-1.790898
-1.85113
-1.934013
-2.041437
-2.169307
-2.309934
-1.679417
-1.707259
-1.777883
-1.879618
-2.01527
-2.18113
-2.369961
-1.560752
-1.5898
-1.668171
-1.787072
-1.949192
-2.154022
-2.395897
-1.404018
-1.436461
-1.522434
-1.659168
-1.856102
-2.114727
-2.439254
-1.205722
-1.22606
-1.307765
-1.448872
-1.656323
-1.953049
-2.34385
-0.9422922
-0.9730124
-1.046143
-1.172571
-1.410955
-1.763207
-2.275428
-0.6562596
-0.6258573
-0.6528612
-0.7556392
-0.9377402
-1.271763
-1.815934
-0.4201007
-0.2797574
-0.2898437
-0.273641
-0.4161149
-0.6615402
-1.135523
0.1330696
0.1440957
0.190548
0.2347394
0.2964155
0.005257079
0.05871316
0.09581273
0.1411446
0.1890975
0.2320665
0.2910235
-1.902948
-1.948855
-1.896211
-1.905182
-1.885869
-1.86949
-1.919281
-1.925837
-1.896252
-1.927259
-1.903721
-1.897476
-1.877461
-1.910291
-1.924671
-1.922237
-1.916646
-1.915387
-1.904039
-1.891086
-1.906885
-1.925778
-1.923659
-1.932158
-1.925056
-1.922235
-1.910079
-1.921207
-1.933224
-1.936403
-1.940595
-1.94193
-1.941349
-1.936215
-1.919659
-1.937424
-1.942097
-1.954464
-1.958962
-1.967085
-1.967867
-1.920547
-1.941571
-1.950075
-1.967093
-1.979333
-1.994946
-2.00549
-1.916599
-1.940559
-1.954313
-1.979132
-1.999681
-2.026428
-2.047922
-1.907032
-1.934612
-1.954399
-1.988124
-2.019459
-2.059199
-2.095034
-1.889052
-1.920397
-1.947501
-1.992124
-2.036702
-2.092772
-2.146297
-1.860076
-1.895273
-1.93058
-1.987903
-2.048459
-2.124274
-2.19997
-1.816026
-1.855481
-1.900563
-1.972492
-2.052975
-2.153527
-2.257923
-1.753181
-1.79595
-1.851228
-1.939122
-2.042361
-2.171856
-2.311247
-1.665867
-1.712047
-1.778432
-1.884817
-2.016711
-2.183871
-2.371324
-1.548418
-1.594811
-1.670002
-1.79365
-1.952979
-2.159812
-2.401112
-1.392947
-1.440614
-1.524309
-1.665521
-1.860634
-2.120687
-2.443248
-1.196714
-1.231348
-1.312518
-1.460026
-1.670201
-1.971501
-2.364421
-0.9359795
-0.974298
-1.047797
-1.181445
-1.421012
-1.776018
-2.288798
-0.6509565
-0.631083
-0.6610894
-0.7731259
-0.9646666
-1.308834
-1.862098
-0.4182267
-0.2790726
-0.2848807
-0.2788298
-0.4224609
-0.6715742
-1.147795
0.1310901
0.1441208
0.1900046
0.2355702
0.2961547
0.005546799
0.0591423
0.09657179
0.1415553
0.188863
0.2322461
0.2905738
-1.880167
-1.93338
-1.88148
-1.889656
-1.868722
-1.852823
-1.921071
-1.925915
-1.897771
-1.925229
-1.904254
-1.899135
-1.879486
-1.924773
-1.907148
-1.92089
-1.912905
-1.914605
-1.903328
-1.891088
-1.928897
-1.909227
-1.924594
-1.927104
-1.923937
-1.920933
-1.909796
-1.93698
-1.914756
-1.934857
-1.934966
-1.94026
-1.939874
-1.935717
-1.939745
-1.919032
-1.942482
-1.948341
-1.957593
-1.965409
-1.967332
-1.939866
-1.922691
-1.950272
-1.960428
-1.977909
-1.993204
-2.004882
-1.936332
-1.921779
-1.955137
-1.97231
-1.998468
-2.024595
-2.047364
-1.926655
-1.916103
-1.955716
-1.981224
-2.018464
-2.057381
-2.09453
-1.908418
-1.902684
-1.949318
-1.985428
-2.035968
-2.091022
-2.145909
-1.879587
-1.878084
-1.933158
-1.981491
-2.048202
-2.122737
-2.199837
-1.834006
-1.839838
-1.903192
-1.966905
-2.053136
-2.152476
-2.258173
-1.770375
-1.781852
-1.854221
-1.934768
-2.043515
-2.171935
-2.312396
-1.682394
-1.699415
-1.781753
-1.882329
-2.019229
-2.185885
-2.374394
-1.564582
-1.58459
-1.674608
-1.794081
-1.958507
-2.16534
-2.407209
-1.408145
-1.433429
-1.531142
-1.670778
-1.871952
-2.13444
-2.459231
-1.211152
-1.228902
-1.32397
-1.473748
-1.692429
-1.996397
-2.390773
-0.9478559
-0.9786153
-1.067029
-1.212534
-1.463756
-1.82936
-2.353837
-0.6548586
-0.6423834
-0.6879475
-0.8182064
-1.029558
-1.38928
-1.964683
-0.4205649
-0.2863343
-0.3065209
-0.3271253
-0.4824737
-0.7467843
-1.252546
0.116968
0.1424163
0.1869308
0.2318766
0.2919201
0.006100627
0.05974474
0.09775733
0.1414482
0.1873832
0.2307139
0.2887696
-1.927118
-1.880614
-1.872174
-1.852033
-1.822596
-1.799206
-1.766947
-1.909108
-1.925288
-1.909557
-1.916164
-1.904745
-1.898147
-1.8792
-1.906304
-1.936318
-1.926491
-1.923433
-1.915975
-1.906231
-1.891163
-1.93253
-1.94206
-1.931151
-1.933811
-1.926003
-1.922747
-1.910447
-1.934378
-1.948026
-1.940965
-1.944807
-1.942382
-1.942677
-1.93637
-1.938764
-1.952059
-1.948642
-1.958029
-1.959706
-1.968016
-1.968073
-1.938134
-1.955354
-1.955455
-1.971341
-1.979536
-1.996301
-2.005496
-1.935029
-1.955846
-1.959061
-1.983752
-1.999734
-2.027874
-2.047914
-1.925315
-1.951497
-1.958586
-1.99324
-2.019422
-2.060986
-2.095038
-1.907633
-1.939713
-1.950996
-1.99783
-2.036742
-2.094877
-2.146431
-1.879312
-1.916495
-1.933225
-1.994297
-2.048865
-2.127094
-2.200667
-1.836243
-1.87716
-1.904105
-1.979724
-2.054172
-2.156966
-2.259117
-1.776097
-1.817902
-1.85563
-1.948201
-2.045677
-2.177883
-2.315313
-1.689402
-1.733225
-1.783527
-1.895532
-2.021628
-2.191404
-2.376302
-1.573338
-1.616791
-1.678786
-1.809961
-1.965862
-2.178009
-2.419985
-1.420892
-1.461591
-1.534052
-1.684987
-1.877345
-2.141941
-2.461413
-1.225447
-1.258631
-1.334658
-1.500022
-1.720799
-2.038959
-2.448832
-0.9768181
-0.9951602
-1.072273
-1.23863
-1.483559
-1.84877
-2.358743
-0.6858774
-0.6682944
-0.7198935
-0.8699516
-1.103311
-1.495202
-2.114861
-0.4035471
-0.32449
-0.3814129
-0.4677069
-0.6330118
-0.9554645
-1.525027
-2.523772
0.008010747
0.06237085
0.1013834
0.1428965
0.1855053
0.2307635
0.2870674
-1.901202
-1.906046
-1.907756
-1.894237
-1.901663
-1.892782
-1.837405
-1.896428
-1.915421
-1.8924
-1.899638
-1.886593
-1.878484
-1.859398
-1.901563
-1.933948
-1.910345
-1.917761
-1.910621
-1.902932
-1.887553
-1.925718
-1.939152
-1.917511
-1.92908
-1.921714
-1.918985
-1.907103
-1.930041
-1.945197
-1.925373
-1.939828
-1.937417
-1.938843
-1.932832
-1.934234
-1.949949
-1.933646
-1.953047
-1.955645
-1.963951
-1.964656
-1.933884
-1.953515
-1.941206
-1.966327
-1.976053
-1.992316
-2.002141
-1.930809
-1.953835
-1.946326
-1.978852
-1.997327
-2.02396
-2.04492
-1.922478
-1.948716
-1.947405
-1.988524
-2.018104
-2.057541
-2.092593
-1.906648
-1.93557
-1.942384
-1.993428
-2.036596
-2.092121
-2.144915
-1.86432
-1.911483
-1.927026
-1.990732
-2.049975
-2.125274
-2.200476
-1.83465
-1.87272
-1.899597
-1.977504
-2.056778
-2.156484
-2.260516
-1.776061
-1.815022
-1.85266
-1.947741
-2.05044
-2.179855
-2.319244
-1.693077
-1.734027
-1.7811
-1.897154
-2.028761
-2.197051
-2.384309
-1.582102
-1.621556
-1.677463
-1.814352
-1.976792
-2.189738
-2.435874
-1.435847
-1.467014
-1.533882
-1.691424
-1.89127
-2.161828
-2.491491
-1.218787
-1.269056
-1.340664
-1.51246
-1.743331
-2.07063
-2.498672
-0.9975709
-1.00901
-1.089019
-1.263726
-1.515623
-1.902165
-2.46515
-0.6831682
-0.6819983
-0.7519421
-0.9075769
-1.145608
-1.514866
-2.128595
-0.4277252
-0.3790375
-0.4872858
-0.6406559
-0.8617917
-1.250116
-1.923769
-3.0905
0.004231491
0.04619435
0.09237444
0.140553
0.1782756
0.2396897
0.2851253
0.3440396
-1.927968
-1.89795
-1.923076
-1.918691
-1.901991
-1.926312
-1.901147
-1.920564
-1.901088
-1.915231
-1.915471
-1.934672
-1.906064
-1.929111
-1.907509
-1.917228
-1.92794
-1.92829
-1.908956
-1.923648
-1.91099
-1.909093
-1.920755
-1.918984
-1.899348
-1.912735
-1.904027
-1.90038
-1.909273
-1.902013
-1.88553
-1.89438
-1.893955
-1.886276
-1.88969
-1.879474
-1.865021
-1.870864
-1.877366
-1.866702
-1.863568
-1.838822
-1.854982
-1.920997
-1.912373
-1.898209
-1.923504
-1.921028
-1.924731
-1.931714
-1.930156
-1.915628
-1.930597
-1.926028
-1.93086
-1.938627
-1.937454
-1.929519
-1.935107
-1.929464
-1.934514
-1.941648
-1.941658
-1.930632
-1.939139
-1.932299
-1.939422
-1.946944
-1.946214
-1.934578
-1.943893
-1.934214
-1.943608
-1.946608
-1.948617
-1.933937
-1.946261
-1.933183
-1.946049
-1.941338
-1.947007
-1.930872
-1.946125
-1.928891
-1.945401
-1.931188
-1.939043
-1.922483
-1.940703
-1.918854
-1.938787
-1.912433
-1.922659
-1.905758
-1.929409
-1.900165
-1.923514
-1.882699
-1.89494
-1.878293
-1.907936
-1.869551
-1.896908
-1.836203
-1.852009
-1.838095
-1.867431
-1.822823
-1.855649
-1.770935
-1.78975
-1.777659
-1.806077
-1.756565
-1.79544
-1.681496
-1.701162
-1.693906
-1.719858
-1.667178
-1.70838
-1.562966
-1.580112
-1.582584
-1.603998
-1.549665
-1.590395
-1.406121
-1.416707
-1.436508
-1.448243
-1.392523
-1.431898
-1.209647
-1.209634
-1.250402
-1.2506
-1.193916
-1.231212
-0.9572585
-0.9402435
-1.014275
-0.9926049
-0.9348791
-0.9727367
-0.6592197
-0.6113552
-0.7304213
-0.6841791
-0.6065265
-0.6528937
-0.4140211
-0.1320642
-0.4220023
-0.3911403
-0.08397592
-0.05303518
0.04140875
0.0006757976
0.03981805
-0.1104793
0.04539517
0.08888437
0.04726176
0.08483285
-0.1911272
0.09240068
0.1313826
0.09374699
0.1276878
-0.3026022
0.1363454
0.1758597
0.1336704
0.1746243
-0.4775362
0.1828404
0.2213571
0.1814629
0.2203826
-0.7954879
0.2326829
0.2722639
0.2291671
0.2713136
-1.444095
0.2876723
0.3343715
0.2838416
0.335024
0.3563965
0.3566007
0.03472694
0.0041876
0.0355512
-1.88061
-1.946472
-1.903666
-1.917203
-1.920571
-1.897398
0.001341297
0.04327486
-0.001248968
0.04616152
-1.853722
-1.921215
-1.886446
-1.879454
-1.920525
-1.887166
-0.0002888213
0.03943814
-0.0006286022
0.04413001
-1.890189
-1.914684
-1.884537
-1.897789
-1.915096
-1.887096
-0.0003930681
0.03941089
-0.0005808467
0.04503628
-1.897595
-1.91617
-1.888188
-1.898995
-1.915848
-1.888287
-0.0005347627
0.04105754
-0.0003189348
0.04437572
-1.89917
-1.915763
-1.888176
-1.89751
-1.916168
-1.888162
-0.0002440919
0.0443813
-0.0005965864
0.04129004
-1.897546
-1.915049
-1.887131
-1.889825
-1.91451
-1.884447
-0.0006375165
0.04502516
-0.0004174864
0.03952848
-1.878999
-1.920284
-1.886976
-1.853782
-1.920885
-1.886049
-0.0006805725
0.04420023
-0.000263124
0.03939085
-1.917221
-1.920451
-1.896981
-1.880652
-1.946165
-1.903942
-0.00118935
0.04625911
0.001308215
0.04329828
-1.897831
-1.922541
-1.918279
-1.928088
-1.920682
-1.900624
-1.915639
-1.901919
-1.926975
-1.928323
-1.907438
-1.916639
-1.915888
-1.934723
-1.920605
-1.909553
-1.907269
-1.92771
-1.928271
-1.899272
-1.900954
-1.90523
-1.921891
-1.926563
-1.878905
-1.890345
-1.887346
-1.924426
-1.907731
-1.869644
-1.884832
-1.865074
-1.885606
-1.878764
-1.855992
-1.862769
-1.925575
-1.926069
-1.926602
-1.921087
-1.928989
-1.903822
-1.926541
-1.93607
-1.943521
-1.941938
-1.936789
-1.92915
-1.934652
-1.941614
-1.938549
-1.939119
-1.932051
-1.939359
-1.941724
-1.941586
-1.943801
-1.934062
-1.94353
-1.946786
-1.946107
-1.946227
-1.933136
-1.946014
-1.946597
-1.948573
-1.946066
-1.928825
-1.94533
-1.941238
-1.946917
-1.940576
-1.919217
-1.938802
-1.931076
-1.939053
-1.929522
-1.898583
-1.923885
-1.912124
-1.925299
-1.89518
-1.868773
-1.896494
-1.883695
-1.900274
-1.867928
-1.823402
-1.856447
-1.838216
-1.859428
-1.722068
-1.665652
-1.706477
-1.682355
-1.704535
-1.604731
-1.55064
-1.591227
-1.562127
-1.581474
-1.236375
-1.153555
-1.225364
-1.215939
-1.212415
-0.9877757
-0.9247846
-0.9682296
-0.9582331
-0.9477985
-0.6720374
-0.6215545
-0.6308046
-0.6779986
-0.6314068
-0.3979341
-0.08147996
-0.4223217
-0.1311345
0.0006274782
0.04025161
-0.0541567
0.04168133
0.04989166
0.08213219
-0.08039561
-0.1064297
0.04923072
0.09054099
0.09500394
0.1265669
-0.1088747
-0.1820005
0.09436905
0.1342449
0.1342714
0.1745563
-0.1739706
-0.3061491
0.1369232
0.1804587
0.1814873
0.2165178
-0.3067607
0.1810105
0.2275111
0.2275805
0.271227
0.2338435
0.2742682
0.2845022
0.3355234
-1.3912
0.2890489
0.3324285
0.3560451
-1.631851
0.3437882
0.03527159
0.03502178
-1.936561
-1.928161
-1.923168
-1.927392
-1.927671
-1.920547
-1.931993
-1.95596
-1.934552
-1.945569
-1.940581
-1.96655
-1.94583
-1.957332
-1.943589
-1.969179
-1.950459
-1.960006
-1.947849
-1.974124
-1.952555
-1.964643
-1.947185
-1.972822
-1.956176
-1.962784
-1.942043
-1.966329
-1.955513
-1.955712
-1.931054
-1.955918
-1.945532
-1.944719
-1.910869
-1.937843
-1.927164
-1.925992
-1.880683
-1.907866
-1.893041
-1.896329
-1.83409
-1.862441
-1.846262
-1.849936
-1.769093
-1.79938
-1.781684
-1.78534
-1.679329
-1.712016
-1.692696
-1.696597
-1.559439
-1.595577
-1.57484
-1.578332
-1.399235
-1.441764
-1.422092
-1.422457
-1.197667
-1.245059
-1.222703
-1.226286
-0.9452082
-0.9939676
-0.9773654
-0.9755629
-0.6638469
-0.6966822
-0.6924176
-0.6742516
-0.3852241
-0.3952096
-0.3979838
-0.3620315
-0.4197573
-0.1543685
-0.19122
-0.3827643
-0.4193201
-0.09125604
-0.1171519
-0.4707574
-0.2461973
-0.2667387
-0.4891467
-0.5183804
-0.142751
-0.1788117
-0.5863822
-0.3428412
-0.3720475
-0.638482
-0.6826076
-0.2056866
-0.2859927
-0.8013565
-0.4758135
-0.5573981
-0.8693174
-0.9476343
-0.3262404
-0.4826053
-1.164758
-0.70826
-0.8919782
-1.24944
-1.395707
-0.559792
-0.8657125
-1.826926
-1.128893
-1.549339
-1.902315
-2.1989
-1.029543
-1.685512
-1.940981
-3.104137
-2.048066
0.01347638
-0.03466047
-0.03579926
0.02528405
0.07710995
-0.05406584
0.06036339
-0.08463696
-0.03925696
0.05754654
0.07882515
0.1302856
-0.09370385
0.123199
-0.1406787
-0.09463279
0.1173374
0.1297486
0.182338
-0.1645163
0.1813926
-0.2155544
-0.1873842
0.1748793
0.1794879
0.2374186
-0.2940676
0.2402425
-0.3451179
-0.3479584
0.2329049
0.2339835
0.2991916
-0.5416168
0.3009864
-0.5830722
-0.6234746
0.2948225
0.2919992
0.3727687
-1.017554
0.3665269
-1.017562
-1.148906
0.36572
0.3588442
0.4439372
-1.901188
0.4522767
0.01689904
0.007013184
0.007195691
0.01671807
-1.857738
-1.863713
-0.3522474
-0.1326307
-0.4005985
-0.345182
-0.1231548
0.002278888
-0.04867587
0.002593148
-0.04699889
-1.860532
-1.867549
-0.2783896
-0.1427424
-0.4206026
-0.2661373
-0.1434408
0.002017657
-0.04541108
0.002064278
-0.04463575
-1.866277
-1.883287
-0.2545571
-0.1452146
-0.4181506
-0.254075
-0.146144
0.002016181
-0.04321395
0.002410887
-0.04393807
-1.871723
-1.890201
-0.2533858
-0.1475767
-0.4201419
-0.2533954
-0.1475733
0.002266032
-0.04160299
0.002094492
-0.04270055
-1.872222
-1.890588
-0.2533698
-0.1475782
-0.4203927
-0.2533514
-0.1475972
0.002327602
-0.04131589
0.002186105
-0.04253891
-1.871109
-1.88897
-0.2540819
-0.1461782
-0.4167424
-0.2545586
-0.1452918
0.002464181
-0.04187664
0.002401631
-0.04321851
-1.869075
-1.883292
-0.2661398
-0.1435677
-0.4016458
-0.2782773
-0.1429388
0.002372559
-0.0436453
0.002279785
-0.04519146
-1.879134
-1.902226
-0.3429456
-0.1229859
-0.3992962
-0.3503104
-0.1329389
0.002292599
-0.0472378
0.002128192
-0.04681804
-1.872346
-1.914076
-1.805769
-1.757882
-1.794128
-1.782765
-1.796168
-1.445832
-1.381399
-1.4312
-1.413333
-1.420182
-0.4193561
-0.08778979
-0.1139496
-0.3917265
-0.4188577
-0.1467803
-0.1717501
-0.5187947
-0.14433
-0.1751451
-0.5052587
-0.4743933
-0.2200855
-0.2440744
-0.6880406
-0.2045147
-0.2682025
-0.6483459
-0.6021061
-0.3154172
-0.3606002
-0.9196196
-0.3061608
-0.514925
-0.8554065
-0.8037115
-0.4270654
-0.4719445
-1.378588
-0.6691305
-0.8249696
-1.149689
-1.147109
-0.5857219
-0.8025181
-2.206705
-1.161266
-1.664737
-1.640189
-1.799708
-0.9820599
-1.470101
-2.042978
-2.534605
-1.91607
-0.002325538
-0.04727957
0.002475075
-0.04273593
-1.940165
-1.942871
-1.934352
-1.943684
-1.873151
-1.914856
-1.930233
-1.943611
-1.936983
-1.934838
-1.935885
-1.958889
-1.948246
-1.949881
-1.940418
-1.966454
-1.948856
-1.957382
-1.944307
-1.97033
-1.951271
-1.96109
-1.948369
-1.974777
-1.955637
-1.965181
-1.949703
-1.97717
-1.956195
-1.967011
-1.946797
-1.975244
-1.954332
-1.964196
-1.937993
-1.967426
-1.946645
-1.95523
-1.920452
-1.950948
-1.930485
-1.937668
-1.89177
-1.923686
-1.903431
-1.908906
-1.846896
-1.880384
-1.861071
-1.864042
-1.780994
-1.816079
-1.796467
-1.792368
-1.689785
-1.720899
-1.703788
-1.698221
-1.567872
-1.594567
-1.579198
-1.573889
-1.404106
-1.430877
-1.412883
-1.407065
-1.195493
-1.219994
-1.20139
-1.197658
-0.9285458
-0.9437919
-0.9284248
-0.928466
-0.6072969
-0.596586
-0.5990843
-0.5995148
-0.2312867
-0.1256187
-0.1091645
-0.2580915
0.01287312
-0.05932094
0.05651165
-0.03529465
-0.03323664
0.05059836
0.02661627
0.01763737
0.01340618
0.01082389
0.01454032
-0.002560344
-0.04879878
-0.04431835
0.002452744
0.08559678
-0.09212691
0.1117357
-0.08986254
-0.08044433
0.1067015
0.08680885
0.1418447
-0.1525009
0.1642807
-0.1625628
-0.1379316
0.1610385
0.1443355
0.197441
-0.2498451
0.216946
-0.2839374
-0.2338307
0.2159352
0.1990446
0.255369
-0.4092488
0.2718145
-0.5090441
-0.3973913
0.2743866
0.2574254
0.3200405
-0.6819777
0.332286
-0.932893
-0.687741
0.3407663
0.318894
0.3984204
-1.204527
0.4037908
-1.733094
-1.279772
0.4208795
0.3885775
-1.879745
-1.902706
0.002313767
-0.0473672
-0.04675336
0.00211134
-1.869442
-1.883592
0.002374547
-0.04362241
-0.04518328
0.00210173
-1.871116
-1.889432
0.002229229
-0.04188302
-0.0432188
0.002145147
-1.871828
-1.890411
0.002153712
-0.04131722
-0.04254244
0.002375851
-1.871261
-1.889757
0.002186916
-0.04160166
-0.04269526
0.002360626
-1.866014
-1.883552
0.002129235
-0.04320969
-0.04395043
0.002341775
-1.860478
-1.866843
0.00206858
-0.04545817
-0.04469779
0.002164757
-1.857771
-1.863538
0.002278487
-0.04789856
-0.04651373
0.002539786
-1.936058
-1.927102
-1.916216
-1.914252
-1.908266
-1.907196
-1.940252
-1.942921
-1.934727
-1.943765
-1.887853
-1.904204
-1.900523
-1.898456
-1.89439
-1.924632
-1.90533
-1.907283
-1.888194
-1.920568
-1.905028
-1.908818
-1.902285
-1.941531
-1.915195
-1.922032
-1.889372
-1.932458
-1.914132
-1.911857
-1.900073
-1.937336
-1.909364
-1.921444
-1.871468
-1.924865
-1.897365
-1.902707
-1.874304
-1.936877
-1.878254
-1.915417
-1.831695
-1.922905
-1.856675
-1.893448
-1.888589
-1.908077
-1.894997
-1.891619
-1.905259
-1.851912
-1.892255
-1.869858
-1.868013
-1.859007
-1.887666
-1.867671
-1.874983
-1.870189
-1.860319
-1.926097
-1.929166
-1.925461
-1.920625
-1.943241
-1.915658
-1.934765
-1.932284
-1.948683
-1.941601
-1.929825
-1.942871
-1.945438
-1.901505
-1.938202
-1.931656
-1.970958
-1.884955
-1.957753
-1.932681
-1.941459
-1.968852
-1.947433
-1.957316
-1.941106
-1.967422
-1.946335
-1.958498
-1.943656
-1.969228
-1.950362
-1.959965
-1.944392
-1.970266
-1.951072
-1.961112
-1.947707
-1.973922
-1.952325
-1.964459
-1.948301
-1.974707
-1.955437
-1.965125
-1.947193
-1.972838
-1.956063
-1.962804
-1.949693
-1.977158
-1.956147
-1.967003
-1.941983
-1.966274
-1.955443
-1.95565
-1.946714
-1.975182
-1.954224
-1.964125
-1.930936
-1.955823
-1.945391
-1.944586
-1.937842
-1.967366
-1.946521
-1.955124
-1.910751
-1.937338
-1.927757
-1.925056
-1.921666
-1.950919
-1.926646
-1.93887
-1.875786
-1.911155
-1.901789
-1.820431
-1.884868
-1.822234
-1.864329
-1.864736
-1.775248
-1.833504
-1.852142
-1.88365
-1.791746
-1.871194
-1.848276
-0.9501077
-0.9802535
-0.9943347
-0.9695436
-0.9241405
-0.9009636
-0.9442306
-0.8975387
-0.9301982
-0.9308443
-0.2268786
-0.1248506
-0.1083027
-0.2576479
0.01359991
-0.03594815
-0.03536686
0.02472406
0.01290733
-0.03407711
-0.0601954
0.05197933
-0.03306422
0.04926558
0.02654161
0.01729651
0.001009566
0.0126495
0.01100154
0.0140618
-0.0781961
-0.09261088
0.05773773
-0.06811914
0.05180938
0.08157367
0.01017098
-0.1114707
0.1141182
0.104892
0.08318439
0.1303666
-0.1009347
-0.1162757
0.1248975
-0.09831018
0.1170625
0.1302502
0.1419232
-0.1801346
0.164826
-0.1562973
0.1611233
0.1446872
0.1826265
-0.1729173
-0.1642619
0.1823835
-0.1953659
0.1750818
0.1813769
0.1974636
-0.3295102
-0.2463959
0.2094401
-0.2238983
0.2125012
0.199316
0.2326605
0.2564975
0.2306921
0.2544974
0.2005466
0.2645677
0.2990601
0.2904289
0.2752173
0.2913501
0.321166
0.3327633
0.3402294
0.317886
0.3722752
0.3678685
0.3660083
0.360841
0.3982366
-1.695203
-1.139304
0.4016641
0.4168926
0.3939856
-1.893823
0.4453307
0.4624647
0.01708699
0.006278832
0.008447282
0.01656452
-1.929662
-1.900847
-1.887368
-1.904132
-1.900642
-1.898006
-1.888209
-1.920171
-1.904761
-1.908555
-1.889371
-1.93131
-1.914059
-1.910632
-1.884274
-1.925535
-1.908922
-1.904153
-1.872415
-1.914538
-1.900131
-1.890278
-1.854997
-1.895866
-1.883766
-1.870454
-1.871223
-1.861933
-1.883577
-1.978667
-1.917194
-1.956019
-1.912356
-2.027494
-1.958102
-1.998903
-1.925049
-2.04451
-1.983672
-2.012521
-1.928855
-2.047862
-1.989169
-2.015177
-1.932392
-2.052822
-1.992561
-2.020128
-1.931512
-2.051286
-1.991578
-2.018307
-1.925457
-2.045011
-1.986748
-2.011304
-1.914265
-2.035832
-1.976737
-2.001792
-1.894919
-2.019866
-1.959079
-1.985299
-1.863775
-1.992892
-1.930479
-1.956982
-1.818942
-1.949926
-1.884484
-1.914356
-1.755511
-1.889468
-1.819371
-1.853646
-1.66748
-1.804859
-1.729234
-1.768322
-1.549617
-1.690095
-1.606621
-1.653174
-1.395664
-1.537312
-1.446326
-1.499827
-1.199846
-1.343672
-1.25309
-1.303188
-0.9562913
-1.096521
-1.013967
-1.053931
-0.6791649
-0.793737
-0.7351544
-0.7621966
-0.412104
-0.4586772
-0.434325
-0.4434545
-0.02793791
-0.02607245
-0.04561004
-0.08434901
-0.07815837
-0.09247299
-0.1711732
-0.1584048
-0.1629541
-0.2760709
-0.2653558
-0.2805518
-0.4066913
-0.3992593
-0.4797576
-0.6265732
-0.6177588
-0.8609513
-1.025182
-1.018548
-1.665849
-1.813027
-1.815545
0.003076091
0.0006979351
0.000162663
0.004060661
0.07625112
0.04716671
0.07653839
0.1174558
0.09364309
0.120873
0.1613066
0.1423999
0.1760572
0.214428
0.1799527
0.2155714
0.2665399
0.228239
0.2660565
0.3321158
0.2837073
0.3269133
0.35629
-1.842656
-1.856923
-0.02075406
-0.02115403
0.02800099
0.008137804
0.02736951
-1.867728
-1.889691
-0.01731966
-0.01730204
0.02562059
0.006127268
0.02531475
-1.889454
-1.916784
-0.01574161
-0.01566681
0.02484014
0.005569949
0.02448475
-1.895686
-1.922871
-0.0155744
-0.0155617
0.02453284
0.005270683
0.02430792
-1.895694
-1.922725
-0.01552314
-0.01552546
0.02432691
0.005403825
0.02452129
-1.89383
-1.921222
-0.01547592
-0.01548851
0.02444615
0.005535899
0.02480933
-1.887254
-1.913346
-0.01581311
-0.01594979