/*--------------------------------*- C++ -*----------------------------------*\
  =========                 |
  \\      /  F ield         | OpenFOAM: The Open Source CFD Toolbox
   \\    /   O peration     | Website:  https://openfoam.org
    \\  /    A nd           | Version:  7
     \\/     M anipulation  |
\*---------------------------------------------------------------------------*/
FoamFile
{
    version     2.0;
    format      ascii;
    class       volScalarField;
    location    "0.1";
    object      Uy;
}
// * * * * * * * * * * * * * * * * * * * * * * * * * * * * * * * * * * * * * //

dimensions      [0 1 -1 0 0 0 0];

internalField   nonuniform List<scalar> 
109978
(
-0.007544347
-0.01318003
-0.01144895
-0.01330307
-0.01370525
-0.01392275
-0.0005088837
-0.003783923
-0.004302914
-0.005940925
-0.006526909
-0.007104907
-0.001012315
-0.002280103
-0.004333532
-0.005634694
-0.006677006
-0.007713446
-0.001662687
-0.003270245
-0.00500473
-0.006579433
-0.007971
-0.009341326
-0.002238893
-0.004142003
-0.006047461
-0.007846431
-0.009584568
-0.01129236
-0.002724355
-0.004975124
-0.007160459
-0.009286524
-0.0113703
-0.01342765
-0.003211738
-0.005826333
-0.008356357
-0.01082037
-0.01325638
-0.01565456
-0.003691678
-0.006677911
-0.009567415
-0.01239449
-0.01517869
-0.01793074
-0.00417964
-0.007551096
-0.01081886
-0.01401055
-0.01715314
-0.02025927
-0.00467546
-0.008442772
-0.0120917
-0.01565896
-0.01916527
-0.02262764
-0.005183388
-0.00936062
-0.01339857
-0.01734972
-0.02122788
-0.02504449
-0.005707033
-0.01030342
-0.01473868
-0.01908241
-0.02333777
-0.0275175
-0.006249353
-0.01127664
-0.0161194
-0.02086571
-0.02549994
-0.02999315
-0.006812235
-0.01228122
-0.01754429
-0.02270464
-0.02772603
-0.03260677
-0.007397223
-0.01332519
-0.0190197
-0.02459872
-0.02999208
-0.03522791
-0.008008062
-0.01440858
-0.02055202
-0.02656222
-0.03237006
-0.03806027
-0.008647392
-0.01554012
-0.02214743
-0.02861172
-0.03479477
-0.04097538
-0.009318958
-0.01672179
-0.02380642
-0.03070932
-0.03731106
-0.04400723
-0.01002773
-0.01796165
-0.02554378
-0.03292193
-0.04004446
-0.04719211
-0.01077797
-0.01926797
-0.02737552
-0.03524976
-0.04288693
-0.05053769
-0.01157357
-0.02064489
-0.02931396
-0.03766815
-0.04586997
-0.0540408
-0.01241299
-0.02210164
-0.03133449
-0.04015501
-0.04902058
-0.05772374
-0.01343158
-0.02364275
-0.03343297
-0.04293636
-0.05238231
-0.06162067
-0.01142503
0.002415004
0.00137763
0.001107285
0.0009580131
0.0008319604
-0.005610356
-0.004451844
-0.001391012
-0.001983072
-0.002073283
-0.002804325
-0.00062739
-0.0009404929
-0.001912014
-0.00301048
-0.003910714
-0.004758213
-0.000463272
-0.00248228
-0.003000503
-0.004331134
-0.005364516
-0.006544289
-0.0003907617
-0.002217895
-0.003893485
-0.005353098
-0.006984977
-0.008476383
-0.0005165522
-0.003144496
-0.004889054
-0.006767689
-0.008597743
-0.01043198
-0.0006064832
-0.003533566
-0.005777904
-0.007949709
-0.01019979
-0.01236984
-0.0007158971
-0.004167063
-0.006733602
-0.009299523
-0.01186493
-0.01438801
-0.0008260725
-0.004707073
-0.007665396
-0.01058607
-0.01352799
-0.01640804
-0.0009428968
-0.005312149
-0.008644016
-0.01194916
-0.01524871
-0.01849365
-0.001062717
-0.005911743
-0.009632091
-0.01331883
-0.01699569
-0.02061038
-0.001186483
-0.006540655
-0.01065473
-0.01473774
-0.01879335
-0.02278465
-0.001314715
-0.007186115
-0.01170482
-0.01619208
-0.02063917
-0.02502429
-0.001447983
-0.007856748
-0.01279253
-0.01769166
-0.02253868
-0.0273103
-0.001587094
-0.008551625
-0.0139193
-0.01924422
-0.0245095
-0.02968403
-0.00173285
-0.009274374
-0.01508942
-0.02085646
-0.02654333
-0.03217468
-0.001885464
-0.01002827
-0.01630584
-0.02252791
-0.02864216
-0.03472065
-0.002045928
-0.01081956
-0.01758057
-0.02428223
-0.03087135
-0.03745967
-0.002215699
-0.01164976
-0.01891395
-0.0261049
-0.03320431
-0.04020822
-0.002395437
-0.0125224
-0.02031262
-0.02800223
-0.03561255
-0.0428962
-0.002586345
-0.01344809
-0.02179393
-0.03003272
-0.03814749
-0.04598167
-0.002790767
-0.01442729
-0.02336247
-0.03219064
-0.04084274
-0.04933762
-0.003010466
-0.01547222
-0.02502685
-0.03447794
-0.0437545
-0.05279974
-0.003747256
-0.0165626
-0.02677204
-0.03687641
-0.04660926
-0.05649035
-0.01365234
0.006403876
0.004239281
0.004083052
0.003852913
0.003657414
-0.005255062
-0.003503164
-0.001978117
-0.001835255
-0.002097995
-0.002720572
-0.0002996736
-7.586858e-05
-0.001779522
-0.002554269
-0.003776048
-0.00458202
-0.0004600222
-0.002225625
-0.003090258
-0.004292514
-0.005347473
-0.006538343
-0.0003406168
-0.002105013
-0.003844563
-0.005315203
-0.006929217
-0.008429094
-0.0005349372
-0.003005066
-0.004841695
-0.006765605
-0.008573346
-0.01042828
-0.0005952202
-0.003427755
-0.00573425
-0.00795414
-0.01017982
-0.01237098
-0.0007178494
-0.004081004
-0.006699567
-0.009309561
-0.0118519
-0.01439618
-0.0008222044
-0.004631271
-0.007643563
-0.01059952
-0.01351947
-0.01641762
-0.0009423803
-0.005246611
-0.008629901
-0.01196322
-0.01524321
-0.01850458
-0.001061457
-0.005849423
-0.009625342
-0.01333226
-0.01699212
-0.02062459
-0.001186271
-0.006480845
-0.01065501
-0.01475038
-0.01879444
-0.02280724
-0.001314641
-0.007125406
-0.01171012
-0.01620243
-0.02064346
-0.0250462
-0.001448447
-0.00779361
-0.01280081
-0.01770328
-0.02255068
-0.02735526
-0.001588475
-0.008484915
-0.01392859
-0.01925457
-0.02452019
-0.02974611
-0.001736018
-0.009203898
-0.01509985
-0.02086432
-0.02656362
-0.03221421
-0.001890655
-0.00995303
-0.01631871
-0.02253621
-0.02868583
-0.03475615
-0.00205348
-0.01073702
-0.01759288
-0.02428194
-0.03090667
-0.03739771
-0.002225802
-0.01155941
-0.01892688
-0.02610883
-0.03322401
-0.04018605
-0.002408414
-0.01242491
-0.02032677
-0.02802475
-0.03563691
-0.04312192
-0.002603111
-0.01333985
-0.02180273
-0.03004319
-0.03817081
-0.04616717
-0.002811437
-0.01431133
-0.02336681
-0.03218355
-0.04084984
-0.04936201
-0.00303616
-0.01534551
-0.02502842
-0.03445621
-0.04369834
-0.05274412
-0.003281246
-0.01644624
-0.02679595
-0.03686321
-0.04674175
-0.05634647
-0.01342278
0.005639295
0.003797037
0.003797981
0.00338688
0.003197523
-0.005180425
-0.004308484
-0.002191314
-0.002088456
-0.002229589
-0.00284157
-0.0003580395
-0.0003960287
-0.001729429
-0.002815582
-0.003806198
-0.004666609
-0.0005196135
-0.002608134
-0.00318304
-0.004464641
-0.005407134
-0.006607392
-0.0003097442
-0.00216452
-0.003855082
-0.005350599
-0.006945497
-0.008448046
-0.0005584127
-0.003153587
-0.004898652
-0.006825873
-0.008603855
-0.01045114
-0.0005909451
-0.0034711
-0.005759864
-0.007953899
-0.01019117
-0.01236951
-0.0007308442
-0.004147722
-0.006735879
-0.009328488
-0.01187302
-0.01440326
-0.0008268498
-0.004670842
-0.007667011
-0.01059953
-0.01353136
-0.01641556
-0.0009492925
-0.005289739
-0.008654618
-0.01196979
-0.01525822
-0.01850528
-0.001065351
-0.005886515
-0.009644385
-0.01333482
-0.01700273
-0.02061942
-0.001189835
-0.006518554
-0.01067269
-0.01475472
-0.01880366
-0.02279819
-0.001317078
-0.007162597
-0.01172531
-0.01620669
-0.02064942
-0.02503221
-0.001450205
-0.0078321
-0.01281519
-0.01770772
-0.02255382
-0.02733199
-0.001589109
-0.008524943
-0.01394249
-0.01925904
-0.02452186
-0.0297091
-0.001735268
-0.00924595
-0.01511346
-0.02086938
-0.02656139
-0.03217646
-0.001888942
-0.009997513
-0.01633197
-0.02254229
-0.02867735
-0.0347305
-0.002051329
-0.01078442
-0.01760603
-0.0242907
-0.03089072
-0.03740166
-0.002223232
-0.01160981
-0.01894005
-0.02611745
-0.03320376
-0.04018083
-0.00240584
-0.01247838
-0.02034116
-0.02803278
-0.03562187
-0.04307288
-0.002600962
-0.01339684
-0.02181988
-0.03005437
-0.03816903
-0.04613727
-0.002809735
-0.01437121
-0.02338605
-0.03219485
-0.0408608
-0.04937409
-0.003034409
-0.01540987
-0.02504983
-0.03446247
-0.0437139
-0.05279129
-0.003277653
-0.01651954
-0.0268196
-0.03686911
-0.04672422
-0.05641247
-0.01356207
0.003438148
0.0039287
0.00313945
0.00280118
0.002611262
-0.005126373
-0.003881741
-0.002201924
-0.001668814
-0.002194215
-0.002692994
-0.0003235611
-0.0002648616
-0.00162357
-0.002820072
-0.003783885
-0.004658458
-0.0004727985
-0.002551722
-0.003137434
-0.004400502
-0.005398428
-0.00658696
-0.0002963518
-0.002105686
-0.003840588
-0.005342976
-0.006939358
-0.008439329
-0.0005504626
-0.003134478
-0.004880821
-0.006823312
-0.008601832
-0.01045109
-0.0005872231
-0.003441979
-0.005751009
-0.007954377
-0.01018776
-0.01236969
-0.0007320757
-0.004132257
-0.006726873
-0.009333145
-0.01187052
-0.01440641
-0.0008283246
-0.004652866
-0.007661324
-0.01060346
-0.01352881
-0.01641827
-0.0009517237
-0.005275505
-0.008650436
-0.01197514
-0.01525676
-0.01850878
-0.001067436
-0.005871639
-0.009641722
-0.01333982
-0.01700183
-0.0206234
-0.001192096
-0.006504157
-0.01067157
-0.0147598
-0.0188038
-0.02280373
-0.001319394
-0.007147448
-0.01172512
-0.01621143
-0.0206501
-0.02503766
-0.001452669
-0.007816144
-0.01281585
-0.01771259
-0.0225557
-0.02734101
-0.001591635
-0.008507861
-0.01394346
-0.01926354
-0.0245236
-0.02971911
-0.001737494
-0.009227667
-0.01511459
-0.02087307
-0.02656424
-0.0321833
-0.001890894
-0.009977768
-0.01633319
-0.02254586
-0.02868268
-0.03473736
-0.002053083
-0.01076292
-0.01760649
-0.02429191
-0.0308933
-0.03740002
-0.002224923
-0.01158612
-0.01893912
-0.02611805
-0.03320218
-0.04017978
-0.002407477
-0.01245326
-0.02033954
-0.02803561
-0.03562077
-0.04309304
-0.002602586
-0.0133683
-0.021814
-0.03005282
-0.03815985
-0.04615003
-0.002811033
-0.01434228
-0.02337859
-0.03219374
-0.04084414
-0.04938404
-0.003036262
-0.01537668
-0.02503504
-0.03445197
-0.04367628
-0.05278493
-0.003278444
-0.01648929
-0.02680879
-0.03687717
-0.04669641
-0.05643062
-0.0137687
0.006866827
0.003504958
0.002862187
0.002644331
0.002479108
-0.005141924
-0.003883797
-0.002138687
-0.001525322
-0.002403415
-0.002693201
-0.0003346964
-0.0002530166
-0.001632918
-0.002884607
-0.003688403
-0.004670229
-0.0004532418
-0.002547776
-0.003127432
-0.004393383
-0.00540608
-0.006586509
-0.0003001108
-0.002104606
-0.003841515
-0.005346169
-0.006932016
-0.008439955
-0.0005341982
-0.003133618
-0.004879535
-0.006822852
-0.00860107
-0.010451
-0.0005899235
-0.003441685
-0.00575086
-0.007954156
-0.01018697
-0.01236951
-0.0007304003
-0.004132077
-0.006726641
-0.009332911
-0.01187025
-0.01440627
-0.0008296536
-0.004652756
-0.007661185
-0.01060328
-0.01352861
-0.01641818
-0.0009530519
-0.005275425
-0.008650322
-0.01197502
-0.01525666
-0.01850871
-0.001068977
-0.005871592
-0.009641717
-0.01333979
-0.01700174
-0.02062335
-0.001193679
-0.006504137
-0.01067154
-0.01475978
-0.01880379
-0.0228037
-0.001321026
-0.007147488
-0.01172523
-0.01621148
-0.02065015
-0.02503767
-0.001454307
-0.007816226
-0.01281599
-0.01771278
-0.02255589
-0.0273411
-0.001593356
-0.008508081
-0.01394375
-0.0192639
-0.02452402
-0.02971931
-0.001739259
-0.009228047
-0.0151152
-0.02087378
-0.02656508
-0.03218376
-0.001892634
-0.009978487
-0.01633426
-0.02254705
-0.0286843
-0.03473814
-0.002054811
-0.01076415
-0.01760839
-0.02429389
-0.03089626
-0.03740123
-0.002226666
-0.01158826
-0.01894266
-0.02612149
-0.0332076
-0.04018161
-0.002409395
-0.01245634
-0.02034471
-0.02803952
-0.03562966
-0.04309414
-0.002604785
-0.01337366
-0.02182382
-0.03006038
-0.03817795
-0.04615327
-0.002813613
-0.01434845
-0.02339107
-0.03219814
-0.04087048
-0.0493781
-0.003039055
-0.015387
-0.02505745
-0.03446343
-0.04372566
-0.05278664
-0.003281504
-0.01649766
-0.02683325
-0.03687319
-0.04675733
-0.05639448
-0.01367387
0.006117276
0.00252712
0.002547465
0.002856693
0.002800565
-0.005232357
-0.004327951
-0.002170243
-0.002042656
-0.002224791
-0.002889361
-0.0003573012
-0.0003858179
-0.0017451
-0.002819806
-0.003829836
-0.004602604
-0.0004485379
-0.002607052
-0.00317926
-0.004456807
-0.005406844
-0.006605183
-0.0002998278
-0.002163968
-0.003856028
-0.005350741
-0.006948031
-0.008441883
-0.0005396452
-0.003152995
-0.004897549
-0.006824476
-0.008603604
-0.01045014
-0.0005893042
-0.003471033
-0.005759711
-0.007953751
-0.01019134
-0.01236893
-0.0007293737
-0.004147575
-0.00673558
-0.00932821
-0.0118729
-0.01440311
-0.0008283424
-0.004670844
-0.007666877
-0.01059943
-0.01353137
-0.01641549
-0.0009511651
-0.005289747
-0.008654477
-0.01196963
-0.01525815
-0.01850522
-0.001067395
-0.005886553
-0.009644307
-0.01333471
-0.01700266
-0.02061935
-0.001191984
-0.006518575
-0.01067254
-0.0147546
-0.01880354
-0.0227981
-0.001319291
-0.007162687
-0.01172516
-0.01620656
-0.02064919
-0.02503208
-0.001452501
-0.007832021
-0.01281493
-0.0177075
-0.02255343
-0.02733185
-0.001591536
-0.008524776
-0.01394202
-0.01925858
-0.02452108
-0.02970876
-0.001737436
-0.009245642
-0.01511268
-0.02086876
-0.02656017
-0.0321762
-0.001890823
-0.009996743
-0.01633013
-0.02254098
-0.02867464
-0.03472977
-0.002052996
-0.01078343
-0.01760319
-0.02428932
-0.03088649
-0.03740211
-0.002224842
-0.01160747
-0.01893388
-0.02611401
-0.03319377
-0.04017925
-0.002407262
-0.01247643
-0.02033246
-0.02803195
-0.03560697
-0.0430785
-0.002602667
-0.01339132
-0.02180128
-0.03004766
-0.03813413
-0.04613633
-0.002811098
-0.0143702
-0.0233645
-0.03220741
-0.04080998
-0.04940668
-0.003037328
-0.01540098
-0.02500592
-0.03445602
-0.04360153
-0.05279157
-0.003277946
-0.01652949
-0.02678241
-0.03693452
-0.04659267
-0.05653974
-0.01282534
0.006060791
0.004219887
0.003683192
0.003747979
0.003516277
-0.005330144
-0.003466965
-0.001955681
-0.001813642
-0.00207599
-0.00264467
-0.0004266216
-5.178811e-05
-0.001779801
-0.00255094
-0.003767775
-0.004602198
-0.000436686
-0.002219134
-0.003084745
-0.004287241
-0.005345365
-0.006531945
-0.0003342466
-0.002100816
-0.003843185
-0.005312687
-0.006926746
-0.008429056
-0.0005332393
-0.003003378
-0.004840214
-0.006763891
-0.008572187
-0.01042749
-0.0006036753
-0.003426638
-0.005733402
-0.00795309
-0.01017905
-0.0123706
-0.0007348404
-0.0040805
-0.00669893
-0.009308808
-0.01185136
-0.01439585
-0.0008385174
-0.004630959
-0.00764311
-0.01059899
-0.01351908
-0.0164174
-0.0009579152
-0.005246474
-0.008629591
-0.0119628
-0.01524292
-0.01850438
-0.001075057
-0.005849461
-0.009625195
-0.013332
-0.01699185
-0.02062438
-0.001198757
-0.006480891
-0.01065489
-0.01475016
-0.01879423
-0.02280706
-0.00132556
-0.007125449
-0.01171012
-0.01620231
-0.02064327
-0.02504599
-0.001458375
-0.007793803
-0.01280087
-0.01770326
-0.02255061
-0.02735506
-0.001597244
-0.008485027
-0.01392867
-0.01925466
-0.0245202
-0.02974596
-0.001743084
-0.009204088
-0.01510015
-0.02086472
-0.02656397
-0.03221441
-0.001896571
-0.009953389
-0.01631916
-0.02253693
-0.02868674
-0.03475675
-0.002058835
-0.01073797
-0.01759382
-0.02428342
-0.03090884
-0.03739862
-0.002230928
-0.01156108
-0.01892855
-0.026111
-0.03322857
-0.04018872
-0.002413688
-0.01242783
-0.02032975
-0.02802782
-0.03564594
-0.04312585
-0.00260924
-0.01334448
-0.02180855
-0.03004804
-0.03819193
-0.0461768
-0.00281864
-0.01431816
-0.02337616
-0.03218543
-0.04089146
-0.04937251
-0.003044097
-0.01535678
-0.02504771
-0.03445943
-0.0437812
-0.05278125
-0.003287092
-0.01646091
-0.02682719
-0.03686609
-0.04686414
-0.05635803
-0.01452991
0.005600558
0.004011504
0.002792285
0.002920546
0.002791802
-0.005222591
-0.004425837
-0.001366389
-0.001957444
-0.00208898
-0.002730365
-0.0004434254
-0.0009269973
-0.001909124
-0.003003869
-0.003890953
-0.004767903
-0.0004736978
-0.002475058
-0.00299457
-0.004324267
-0.005360275
-0.006539403
-0.0003322448
-0.002213971
-0.003890987
-0.005350184
-0.006982344
-0.008474938
-0.0005272713
-0.003144561
-0.004886621
-0.006765828
-0.008596298
-0.01043077
-0.0005940273
-0.003532795
-0.005776988
-0.007948774
-0.01019923
-0.01236941
-0.0007251466
-0.004167148
-0.006732918
-0.00929882
-0.01186468
-0.01438786
-0.0008292567
-0.004707291
-0.00766476
-0.01058569
-0.01352785
-0.01640795
-0.0009484522
-0.005312113
-0.008643395
-0.01194869
-0.01524843
-0.01849361
-0.001066546
-0.005911703
-0.009631694
-0.01331846
-0.01699544
-0.02061022
-0.001191187
-0.006541179
-0.01065445
-0.01473749
-0.01879309
-0.02278446
-0.001319127
-0.007186778
-0.01170461
-0.01619196
-0.02063889
-0.02502402
-0.001453214
-0.007856925
-0.0127923
-0.01769156
-0.02253826
-0.02731018
-0.001593042
-0.008551648
-0.01391882
-0.01924396
-0.0245085
-0.02968354
-0.001740322
-0.009274353
-0.01508855
-0.02085626
-0.02654198
-0.03217465
-0.001894368
-0.01002784
-0.01630355
-0.02252687
-0.0286389
-0.03472026
-0.00205767
-0.01081901
-0.01757692
-0.02428205
-0.03086623
-0.03746311
-0.002231164
-0.0116477
-0.01890488
-0.02610164
-0.0331896
-0.0402062
-0.002414789
-0.01252187
-0.0202991
-0.02800616
-0.035587
-0.04290541
-0.002612067
-0.01344334
-0.02176155
-0.03002798
-0.03807778
-0.04597946
-0.002822698
-0.0144326
-0.02332441
-0.032229
-0.04072163
-0.04940346
-0.003052126
-0.01546469
-0.02493771
-0.03447838
-0.04338536
-0.05274446
-0.003756206
-0.01659958
-0.02671858
-0.03707494
-0.04620675
-0.056776
-0.01547867
-0.002294029
-0.002407994
-0.002616171
-0.002578571
-0.002668646
-0.002167496
0.001804368
-0.006222943
-0.00828301
-0.008982295
-0.00959845
-0.01004578
-0.002282842
-0.0004635171
-0.00403794
-0.005695934
-0.00692952
-0.007838399
-0.008631894
-0.002415151
-0.001369157
-0.003531185
-0.005076164
-0.006243032
-0.007381031
-0.008477568
-0.002497932
-0.001781643
-0.003746335
-0.00541427
-0.006831263
-0.008268256
-0.009709239
-0.002647042
-0.002363596
-0.004472745
-0.006324125
-0.00801975
-0.009780177
-0.01154417
-0.002716389
-0.00276009
-0.005246346
-0.007360518
-0.009411815
-0.01152078
-0.01364164
-0.002817104
-0.003252127
-0.006113709
-0.008553786
-0.01094938
-0.01343061
-0.01589015
-0.002915322
-0.003695462
-0.006969197
-0.009763266
-0.01252353
-0.01540902
-0.01819926
-0.00302168
-0.004175775
-0.007862438
-0.01102887
-0.01416407
-0.01744732
-0.02057569
-0.003124275
-0.004651587
-0.008771875
-0.01232132
-0.01584029
-0.01951527
-0.02300203
-0.003226314
-0.005149823
-0.009711762
-0.01365948
-0.01756843
-0.02163164
-0.02548519
-0.003322709
-0.005659003
-0.01067702
-0.01503775
-0.01934216
-0.02379993
-0.02801943
-0.003421195
-0.006188743
-0.01167595
-0.01647166
-0.02117342
-0.02603026
-0.03064644
-0.003526004
-0.006737663
-0.01270797
-0.01796138
-0.02308298
-0.02831533
-0.03323224
-0.003634985
-0.007307856
-0.01378053
-0.01950685
-0.02508887
-0.03071328
-0.03566521
-0.003745449
-0.007895709
-0.0148958
-0.02111429
-0.02716707
-0.03313197
-0.03870943
-0.003862002
-0.008507005
-0.01606115
-0.02278924
-0.0293159
-0.03562481
-0.04171502
-0.003986346
-0.009148769
-0.01728084
-0.02453968
-0.03157146
-0.03798536
-0.04476915
-0.004117236
-0.009818408
-0.01855543
-0.02635804
-0.03385172
-0.04093107
-0.04807947
-0.004262979
-0.01052612
-0.01989645
-0.0282659
-0.03625906
-0.04384323
-0.05174845
-0.004420607
-0.01128134
-0.02131497
-0.03025608
-0.03881327
-0.04691222
-0.05540959
-0.00459332
-0.01210054
-0.0228248
-0.03233789
-0.04149838
-0.05011666
-0.05916093
-0.004803621
-0.01471186
-0.02442248
-0.03453411
-0.04438601
-0.05352968
-0.06293995
0.0004385316
-0.01353359
-0.0001006918
-0.002284588
-0.01054968
0.007835783
-0.002132053
-0.0002519179
0.002703643
-0.0006725512
-0.01301689
0.009275167
-0.00227896
-0.0003361718
0.002180906
-0.0007489133
-0.01420425
0.00943173
-0.002416916
-0.0007992708
0.00209503
-0.0008952043
-0.01408803
0.008872787
-0.002496099
-0.0009932428
0.001972361
-0.001376007
-0.01494496
0.00861699
-0.002645231
-0.001515747
0.001970483
-0.00161296
-0.01542425
0.008255797
-0.002714821
-0.001781712
0.001915341
-0.001957143
-0.01599766
0.007931793
-0.002816834
-0.002089759
0.001868079
-0.002269745
-0.01651632
0.007598231
-0.002915658
-0.00238922
0.001811472
-0.002598881
-0.01706486
0.007271643
-0.003021951
-0.002708376
0.001752214
-0.002930511
-0.01762287
0.006938389
-0.0031242
-0.003033028
0.001685097
-0.003273703
-0.0181845
0.006593119
-0.003224444
-0.003369097
0.00161206
-0.003626728
-0.01875625
0.006243596
-0.003323477
-0.003715068
0.001532654
-0.003991661
-0.01934874
0.005882573
-0.003421045
-0.004074904
0.001444024
-0.004366466
-0.01995646
0.005511388
-0.00352584
-0.004446282
0.001346621
-0.004757604
-0.02057668
0.005126284
-0.003633658
-0.004835289
0.001242556
-0.005164075
-0.02122487
0.004724782
-0.003745392
-0.005245958
0.001130479
-0.005589788
-0.02189964
0.004301592
-0.003861863
-0.005681216
0.00100952
-0.006035283
-0.02260318
0.003859379
-0.003984952
-0.006138544
0.000878906
-0.006506327
-0.02333969
0.003392449
-0.004117158
-0.00662224
0.0007361699
-0.007008374
-0.02411032
0.002897724
-0.004264031
-0.007134861
0.0005799647
-0.007543934
-0.02492444
0.002367631
-0.004422661
-0.007682165
0.0004075071
-0.008114103
-0.02577936
0.001817647
-0.004594701
-0.008267255
0.0002098419
-0.008729608
-0.02665555
-0.007572185
-0.004807448
-0.00889468
9.744361e-06
-0.009371061
-0.002893384
-0.006790466
-0.0002735361
-0.005535606
-0.004758588
-0.002048733
-0.004680437
-0.006506201
0.0003454466
-0.003875727
-0.005031535
4.691235e-05
-0.004372505
-0.005688612
0.000285938
-0.004696916
-0.005543657
0.0002198958
-0.003742501
-0.005355751
0.0003810391
-0.004825701
-0.005341596
0.000397299
-0.004204922
-0.005499278
0.0004319116
-0.003890336
-0.005474943
0.0004165524
-0.004378236
-0.005579161
0.0003344284
-0.004871341
-0.005742216
0.0002747573
-0.003315153
-0.005175539
-8.376307e-06
-0.004682756
-0.006566057
0.0004094467
-0.005397822
-0.004677834
-0.001959902
-0.002981925
-0.006803945
-0.0002754063
-0.01346364
-5.290132e-05
-0.002314235
0.0004636419
-0.0002158322
0.002705517
-0.0006677887
-0.01056298
0.007838268
-0.000324791
0.002184418
-0.000747105
-0.01300943
0.009280741
-0.0007945379
0.002093252
-0.000895411
-0.01419862
0.009433089
-0.001776825
0.001915151
-0.001957288
-0.01541948
0.008254944
-0.002090441
0.001867849
-0.002269064
-0.01599535
0.007931401
-0.002388877
0.001811485
-0.002598553
-0.01651376
0.007598458
-0.00270686
0.001751556
-0.002930885
-0.01706013
0.007271597
-0.003032901
0.001683558
-0.003276964
-0.01761766
0.006936406
-0.003380269
0.001614249
-0.003624561
-0.01819177
0.00659674
-0.003707839
0.001532376
-0.00399107
-0.01875218
0.006243888
-0.004072453
0.001443665
-0.00436709
-0.01934429
0.005883378
-0.004447107
0.001345675
-0.004756668
-0.01995443
0.005510973
-0.004833566
0.001242473
-0.005164229
-0.02057864
0.005124978
-0.005246607
0.001130377
-0.005589233
-0.02122395
0.004723344
-0.005679602
0.001007493
-0.006036128
-0.02189735
0.004299486
-0.00614394
0.000878146
-0.006509379
-0.02260654
0.003855131
-0.006627717
0.0007356889
-0.007007344
-0.02334422
0.003383735
-0.007681813
0.000407779
-0.008109692
-0.02493787
0.002348501
-0.008263431
0.0002090376
-0.008718947
-0.0257946
0.001794401
-0.008894285
4.484617e-06
-0.009367288
-0.02667702
-0.007609031
0.002395745
-0.008865995
-0.0134409
0.009628039
-0.01546406
0.002903012
-0.001398129
0.003461471
-0.01810847
0.01036892
-0.002315286
0.0005414544
-0.006687814
0.007396655
-0.01883113
0.01036257
-0.002392883
0.001072382
-0.008455532
0.00831098
-0.01896109
0.01044693
-0.002609579
0.0007750555
-0.008979041
0.008679797
-0.01929678
0.01026172
-0.002621159
0.0008972009
-0.00936847
0.008520652
-0.01953313
-0.002621097
-0.009488632
0.001413094
-0.009270416
0.0016619
0.008435012
-0.0005348233
-0.01110934
-0.001048224
0.009477376
-0.0007554729
-0.01136494
-0.0008558057
0.009666238
-0.0007028638
-0.01139974
-0.0006927952
0.009696729
-0.0007006559
-0.01164299
-0.0009333721
0.009492629
-0.0008290301
-0.01188123
-0.001051203
0.009283935
-0.0009645269
-0.01211853
-0.00123871
0.009081168
-0.001096984
-0.0123547
-0.001414244
0.008887886
-0.001229688
-0.01257776
-0.001604256
0.008701097
-0.001371095
-0.01279681
-0.001796436
0.008522525
-0.00152107
-0.01305401
-0.001996653
0.008350069
-0.001675502
-0.01331896
-0.002205103
0.008180282
-0.001831156
-0.0135677
-0.002422607
0.008012449
-0.00199647
-0.01383174
-0.002650554
0.007845024
-0.002172193
-0.01407655
-0.002894486
0.007681959
-0.002363053
-0.01433764
-0.003149753
0.00750648
-0.002560946
-0.01453774
-0.00342137
0.007307316
-0.00277498
-0.01476366
-0.003714601
0.007097854
-0.003003668
-0.01508006
-0.004023808
0.006850368
-0.00324906
-0.01538503
-0.004355704
0.006585047
-0.003516463
-0.01571113
-0.004706366
0.006335306
-0.003808155
-0.01597636
-0.005086846
0.006054164
-0.004156882
-0.01625017
-0.005505536
0.005865377
-0.00782809
-0.006491655
-0.006583804
-0.006978565
-0.005712219
-0.006603429
-0.006834529
-0.005245375
-0.005933363
-0.006521139
-0.006113108
-0.006171514
-0.006369038
-0.005921572
-0.007666781
-0.006876356
0.002579342
-0.006804731
0.002948944
-0.001408031
0.00347267
-0.0134302
0.009638823
0.00053507
-0.006679028
0.007406612
-0.01809607
0.01036429
0.001065576
-0.008452968
0.008351798
-0.01883481
0.01036983
0.0007489283
-0.009031543
0.008647391
-0.01895153
0.01045728
0.0009619178
-0.009285138
0.008576286
-0.01928384
0.01025033
-0.009574003
-0.01955145
-0.0009878682
0.001970604
-0.001374966
-0.0140783
0.008866936
-0.001519974
0.00196882
-0.001609929
-0.01494931
0.008618702
-0.007136529
0.000579667
-0.007540701
-0.02411886
0.002886707
0.00022204
-0.00383716
0.003120562
-0.01197613
0.001005521
0.005309465
0.004019481
-0.01443741
0.002318369
-0.007182075
-9.194421e-06
0.009362741
0.0002707851
-0.01138645
-0.0008787485
0.009215705
-0.0002967009
-0.0111781
-0.0006320242
0.009407391
-0.0004475117
-0.01116723
-0.000660656
0.009123976
-0.0004234106
-0.01125083
-0.0008072234
0.008904107
-0.0006025067
-0.01142195
-0.0009482383
0.008605593
-0.0008084158
-0.01162469
-0.001084289
0.008341238
-0.0009961743
-0.01184806
-0.001220292
0.008075063
-0.001193707
-0.01208865
-0.001359757
0.007818647
-0.001393587
-0.01234569
-0.00150202
0.007564279
-0.001596263
-0.01259329
-0.001650219
0.007312924
-0.001806177
-0.01284643
-0.001803878
0.007065838
-0.002020346
-0.01312096
-0.00196229
0.006823145
-0.002244415
-0.01344663
-0.002128206
0.006582737
-0.002481714
-0.01379541
-0.002302169
0.006340496
-0.002727058
-0.01414596
-0.002482623
0.006097207
-0.002982064
-0.0145278
-0.002674621
0.005850781
-0.003257219
-0.014984
-0.002880334
0.005594277
-0.003549169
-0.01545347
-0.003105072
0.005323891
-0.00385611
-0.01593197
-0.003347227
0.005031039
-0.00418605
-0.01647547
-0.003608918
0.004720019
-0.004547282
-0.01706899
-0.003890402
0.004391448
-0.004954845
-0.01775908
-0.004234555
-0.003022089
-0.01836127
-0.00539841
-0.007510429
-0.007962583
-0.006105459
-0.004919898
-0.007074017
-0.006840686
-0.006516095
-0.005531248
-0.005980142
-0.005748504
-0.006286038
-0.006264424
-0.006556173
-0.007930093
-0.007843581
-0.006341301
0.00276141
-0.008936595
0.0003310078
-0.003861144
0.003118314
-0.01204154
0.0007820906
0.0053144
0.004024268
-0.01448828
0.001415116
-0.009290297
0.001614285
0.008452464
-3.299413e-05
0.009363542
0.0002727002
-0.01138274
-0.0005364896
-0.01110823
-0.001050172
0.00947634
-0.0008799323
0.009217128
-0.0002963973
-0.01117853
-0.0007573913
-0.0113653
-0.0008525812
0.009662116
-0.0008338789
-0.01189034
-0.001057273
0.009281202
-0.000947319
0.008605444
-0.0008064188
-0.01162225
-0.0009647486
-0.01211714
-0.001238462
0.009080674
-0.001083906
0.008340848
-0.0009954145
-0.01184537
-0.001097067
-0.01235276
-0.001413955
0.008887489
-0.001219008
0.008073616
-0.001193678
-0.0120864
-0.001232336
-0.01257629
-0.001603912
0.008701079
-0.001358661
0.007817209
-0.001393587
-0.01233889
-0.001373379
-0.0127883
-0.001796711
0.008522798
-0.001503341
0.007567627
-0.001580359
-0.01257916
-0.00167753
-0.01331069
-0.002206743
0.008180781
-0.001803909
0.007065262
-0.002022362
-0.01311146
-0.001832348
-0.01356608
-0.002423066
0.008013245
-0.001960967
0.006822354
-0.00224248
-0.01343695
-0.002173951
-0.01407464
-0.00290085
0.007680643
-0.002301398
0.006339261
-0.002725854
-0.01414243
-0.002482546
0.006095784
-0.002982815
-0.01452212
-0.002566074
-0.01454048
-0.003421624
0.007311737
-0.00267778
0.005852837
-0.003256262
-0.01496544
-0.002774935
-0.01471162
-0.003727351
0.007084806
-0.003802358
-0.01600257
-0.005092338
0.00604934
-0.003902979
0.004381717
-0.004954008
-0.01777759
-0.004164387
-0.01626206
-0.00551372
0.005790826
-0.004245632
0.006076436
-0.01846417
-0.005400473
-0.01100208
-0.01261708
-0.01512125
-0.01603597
-0.01558508
-0.01303393
-0.01537065
-0.01440592
-0.01550441
-0.01415075
-0.01514491
-0.01410395
-0.01357148
-0.01602477
-0.01540195
-0.01356398
-0.01438477
-0.01303622
-0.01599925
-0.0185717
-0.01655864
-0.01643713
-0.0128509
-0.01549677
-0.01445702
-0.01403336
-0.01545963
-0.01374966
-0.01483161
-0.01628644
-0.01589927
-0.01434593
-0.01500773
-0.01539025
-0.01506001
-0.01541888
-0.01594372
-0.01731132
-0.01102003
-0.01254728
0.001354843
0.001674724
-8.6538e-05
-3.738864e-05
-0.0005972516
0.003081226
0.001013522
-0.004081057
0.00115399
-0.002817013
0.003580202
0.0006366642
-0.0008921462
0.003095419
0.0002444127
-0.003965471
0.0004725922
-0.003532133
0.003426945
-0.0005736732
-0.0006384728
0.009400996
-0.0004273534
-0.01116907
0.0003647511
-0.003896791
-0.0007956128
0.003433032
-0.001144771
0.003026554
-1.685151e-05
-0.004373716
0.0003282938
-0.004065458
0.003430499
-0.0008755436
-0.001232217
0.003017341
-7.811206e-05
-0.004528747
0.0002926822
-0.004241746
0.003443313
-0.0009571947
-0.001416567
0.003007882
-0.0002121777
-0.004889352
0.0002054256
-0.004646987
0.003502371
-0.001134546
-0.001515034
-0.01303756
-0.002008569
0.008352516
-0.001647185
0.007313549
-0.001803013
-0.01287702
0.0001024107
-0.005115731
0.003605524
-0.001335143
-0.001732097
0.003013932
-0.0004463164
-0.005562524
4.815328e-05
-0.005380066
0.003673598
-0.001446101
-0.001851094
0.00301951
-0.0005353089
-0.005827661
-0.001995266
-0.01382551
-0.002650543
0.007839399
-0.002131159
0.006586793
-0.002476582
-0.01381372
-6.962258e-05
-0.005971503
0.003842591
-0.001685712
-0.002117785
0.003043054
-0.0007326576
-0.0064273
-0.002363571
-0.01433745
-0.00314979
0.007507093
-0.002889273
0.005601298
-0.003523119
-0.01547458
-0.002992159
-0.01504142
-0.004037238
0.006847529
-0.003120887
0.005332262
-0.003833476
-0.01594892
-0.003504263
-0.01569449
-0.004719777
0.006342797
-0.003628232
0.004722557
-0.004526466
-0.01709308
-0.0006540371
-0.008889825
0.004728128
-0.002822384
-0.003473645
0.003153505
-0.001702003
-0.009553287
-0.0007869986
-0.009428392
0.004909709
-0.003069143
-0.003761502
0.00317139
-0.0101202
-0.001936582
-0.01805403
-0.01700864
-0.01612321