/*--------------------------------*- C++ -*----------------------------------*\
  =========                 |
  \\      /  F ield         | OpenFOAM: The Open Source CFD Toolbox
   \\    /   O peration     | Website:  https://openfoam.org
    \\  /    A nd           | Version:  7
     \\/     M anipulation  |
\*---------------------------------------------------------------------------*/
FoamFile
{
    version     2.0;
    format      ascii;
    class       volScalarField;
    location    "0.1";
    object      Uy;
}
// * * * * * * * * * * * * * * * * * * * * * * * * * * * * * * * * * * * * * //

dimensions      [0 1 -1 0 0 0 0];

internalField   nonuniform List<scalar> 
90967
(
-0.003066078
-0.002499069
-0.0149989
-0.0155592
-0.02402809
-0.03202096
-0.005777911
-0.01099598
-0.01703753
-0.02586417
-0.03742289
-0.05155582
-0.00631487
-0.0104526
-0.02161869
-0.03034393
-0.04813992
-0.06772564
-0.003157105
-0.01027229
-0.0192525
-0.03348849
-0.0529239
-0.07857944
-0.0003740921
-0.004444677
-0.0155622
-0.02958464
-0.05315852
-0.08303357
0.00671694
0.004511916
-0.004222617
-0.02003873
-0.04475581
-0.0791117
0.01772645
0.01954159
0.01300693
-0.001331437
-0.02744452
-0.06512142
0.0333794
0.04107738
0.03965674
0.02760424
0.002078062
-0.03848639
0.05388038
0.07064978
0.07692886
0.06992336
0.04642186
0.004370422
0.08031967
0.1099313
0.126718
0.128234
0.1090178
0.06602026
0.113593
0.1606725
0.1917163
0.2058855
0.195593
0.1548057
0.1552407
0.2249201
0.2754594
0.3064917
0.3086182
0.2723532
0.2036427
0.3033868
0.3805404
0.4362226
0.4587145
0.4357664
0.2610963
0.3996613
0.5121894
0.600729
0.6513168
0.6461701
0.3224814
0.5087922
0.6671003
0.8030413
0.8984802
0.9278363
0.3940231
0.6371651
0.8580837
1.059846
1.225832
1.31791
0.4630254
0.7613627
1.051887
1.338793
1.603836
1.792906
0.5386727
0.9108375
1.28879
1.693982
2.139351
2.598859
0.5399479
0.9317005
1.356554
1.820633
2.369199
2.99607
3.6207
0.5373226
0.9827727
1.466395
2.006554
2.662165
3.491275
4.586876
-0.02938641
-0.02348191
-0.02428949
-0.02828044
-0.03131368
-0.04071918
-0.05433854
-0.02830254
-0.0008416823
0.00475038
-0.000777258
-0.0008887399
-0.00246168
-0.003728498
-0.01634604
-0.0140165
-0.01057254
-0.01840844
-0.01811429
-0.026493
-0.03421739
0.01021052
0.006282348
-0.007062547
-0.01507802
-0.02544159
-0.03690449
-0.05112841
0.004226666
-0.00679861
-0.0102208
-0.02210522
-0.03075109
-0.04890219
-0.06778911
0.001105274
-0.0005684657
-0.009656064
-0.01860257
-0.03295528
-0.05329962
-0.07816745
0.002457225
0.0004437717
-0.004346652
-0.01563068
-0.02885434
-0.05407122
-0.08283506
0.00454947
0.008504137
0.004791902
-0.004319711
-0.01909105
-0.04550397
-0.07899344
0.007896266
0.01843676
0.01964222
0.01310183
-0.0003222333
-0.02803896
-0.06484719
0.01333857
0.03394771
0.04079785
0.03999247
0.02865857
0.001912556
-0.03801694
0.02033907
0.05472226
0.07002575
0.07749953
0.0709004
0.04687607
0.00532257
0.02802623
0.08233827
0.1088244
0.1281045
0.1289109
0.1098125
0.06746423
0.03693237
0.1165159
0.159102
0.1942864
0.2071421
0.1969338
0.1571663
0.04764764
0.1582551
0.2225016
0.2789081
0.3085852
0.3108675
0.2750114
0.06018001
0.2071671
0.3004412
0.385283
0.4406725
0.4645656
0.4416668
0.07338668
0.2652336
0.3943947
0.5170615
0.6063427
0.6604885
0.6565073
0.0860539
0.3276717
0.504326
0.6742103
0.8144316
0.9171253
0.9530589
0.09601612
0.40229
0.6318843
0.8663167
1.073884
1.252255
1.362368
0.1054385
0.4687261
0.7672645
1.072105
1.370849
1.653966
1.871173
0.1117984
0.5602743
0.9166633
1.314987
1.740187
2.211239
2.703983
0.1538822
0.5356379
0.8887143
1.313884
1.786534
2.359102
3.021449
3.676616
-0.03397613
-0.04694954
-0.04668971
-0.04759273
-0.05089656
-0.05857118
-0.07407665
-0.06108299
-0.03383529
-0.01732313
-0.002343101
-0.01104005
-0.01041488
-0.02141151
-0.02543819
0.002175615
-0.0209839
-0.01601251
-0.02570732
-0.03182745
-0.02020517
0.003051529
-0.02381357
-0.01649735
-0.02706802
-0.03741362
-0.05096425
0.001636025
-0.008088923
-0.009382262
-0.02278877
-0.02966142
-0.04872653
-0.06677161
-0.0004081991
-0.0005648092
-0.01296103
-0.01861799
-0.0345533
-0.05308536
-0.07828468
0.003435653
0.000771423
-0.004148379
-0.01510647
-0.02927852
-0.05352398
-0.08262151
0.006521833
0.009051675
0.004183165
-0.003418658
-0.0201238
-0.04481793
-0.07912
0.01203588
0.01876096
0.02003948
0.01401834
-0.0008027497
-0.02721487
-0.06473912
0.01890392
0.03407246
0.04171399
0.04066705
0.02840792
0.002749209
-0.03781008
0.02789158
0.05483899
0.07178227
0.07796834
0.07123534
0.04796293
0.006116536
0.03918258
0.0821748
0.1112802
0.1282328
0.1296724
0.1109755
0.06853314
0.0529818
0.1164628
0.1622064
0.1945833
0.2090952
0.1994314
0.1604534
0.06946206
0.1587296
0.225739
0.278828
0.310695
0.313149
0.2778706
0.08836975
0.2086754
0.3045052
0.3866175
0.446228
0.472297
0.4539785
0.109864
0.267468
0.3972539
0.5172576
0.6101965
0.6648169
0.6614859
0.1310553
0.3309014
0.5104312
0.6800061
0.8302714
0.9423762
0.9970147
0.1553645
0.4077134
0.6313788
0.8688619
1.079852
1.260076
1.366631
0.1720204
0.4671056
0.7824894
1.088035
1.41121
1.724579
2.010451
0.2105104
0.5855283
0.8947281
1.303506
1.716226
2.171365
2.603807
0.2267437
0.522307
1.039161
1.475344
2.028419
2.719999
3.636207
-0.009018738
-0.003147438
-0.009692766
-0.0126242
-0.01169931
-0.03150244
-0.04107999
-0.04559904
-0.04610229
-0.04933495
-0.05665745
-0.06914476
-0.07695018
-0.04746323
-0.0158339
-0.001193109
-0.009742755
-0.009526405
-0.008277053
-0.02007452
0.01279662
-0.0170673
-0.01460442
-0.02353919
-0.03090637
-0.005344481
0.004120858
-0.02415304
-0.01556687
-0.02636642
-0.03691795
-0.05043153
0.006204414
-0.006496126
-0.006257547
-0.02182406
-0.02905865
-0.04823737
-0.06659721
0.002504598
0.001697979
-0.01216997
-0.0179335
-0.03397153
-0.05282107
-0.07812149
0.003081337
0.0005788353
-0.002919624
-0.01521803
-0.02851541
-0.05346009
-0.08244716
0.006266743
0.009639832
0.004831538
-0.003471599
-0.01948721
-0.04465622
-0.07892451
0.01054017
0.01928135
0.02016941
0.01390372
-0.0001321699
-0.02701851
-0.0643561
0.01734584
0.03496106
0.0413043
0.04077908
0.02903438
0.00315096
-0.03724465
0.02602394
0.05567979
0.07094426
0.07842655
0.07203097
0.04878969
0.007208578
0.03713568
0.08287623
0.1100351
0.1290987
0.1307128
0.1124078
0.07038009
0.0505616
0.11696
0.1607716
0.1960828
0.2108206
0.2021949
0.1640073
0.066477
0.158766
0.2240563
0.2810072
0.3134718
0.317808
0.2841308
0.08430268
0.2083415
0.3031825
0.3900362
0.451266
0.4803945
0.4647947
0.1043352
0.2665912
0.3960598
0.5223903
0.6189153
0.679158
0.6821613
0.1233038
0.3288484
0.5102633
0.68829
0.8448085
0.9646045
1.027686
0.1461343
0.4057119
0.6329158
0.8831259
1.10423
1.299347
1.425657
0.158415
0.4615424
0.785198
1.101463
1.435821
1.764823
2.071342
0.2037546
0.5878454
0.8990067
1.32779
1.75638
2.236895
2.706224
0.2225096
0.5181069
1.035935
1.46259
2.011961
2.702804
3.613366
-0.0114255
-0.002114331
-0.01194979
-0.01533294
-0.01888224
-0.03236478
-0.04101316
-0.04627635
-0.04568197
-0.04990737
-0.0562074
-0.07101846
-0.0738952
-0.04723744
-0.01733271
-0.0004853064
-0.009743153
-0.008834229
-0.01021231
-0.02029747
0.01160479
-0.01776293
-0.0141661
-0.0239764
-0.03057622
-0.0111904
0.004668328
-0.02646365
-0.01585081
-0.0269717
-0.03697659
-0.05020941
0.005417554
-0.006132058
-0.00680127
-0.02209027
-0.02894854
-0.04813194
-0.06624787
0.001292394
0.001103587
-0.01308943
-0.01770234
-0.0346827
-0.05263934
-0.0780989
0.004034114
0.001073534
-0.003134349
-0.01481669
-0.02868653
-0.0531374
-0.08232651
0.006536192
0.009101893
0.004538175
-0.003020397
-0.01988414
-0.04430232
-0.07890287
0.01126321
0.01877835
0.02046385
0.01426507
-0.0002449539
-0.02660236
-0.06421608
0.01762684
0.03453766
0.04177932
0.04097786
0.02902527
0.003603589
-0.03701532
0.02622214
0.05531204
0.07167149
0.07848826
0.07231566
0.04941439
0.00776287
0.03717723
0.08253832
0.1108805
0.1290023
0.1312585
0.1131838
0.07120609
0.05065819
0.1164922
0.1617718
0.1960515
0.2119938
0.2036803
0.1659604
0.06657142
0.1579969
0.2249662
0.280872
0.3149225
0.3196066
0.2865173
0.08446171
0.2073682
0.3043397
0.3905546
0.4542718
0.4847361
0.4711551
0.1045253
0.2651008
0.3965458
0.5226385
0.6220086
0.6836675
0.6882488
0.1236286
0.3270365
0.5117337
0.6904061
0.8517835
0.9757607
1.045779
0.146612
0.4032675
0.6321509
0.8832678
1.106475
1.3039
1.433143
0.1597047
0.4591005
0.7891933
1.105835
1.446861
1.78368
2.105482
0.2090702
0.5895471
0.8991894
1.329777
1.757589
2.237567
2.704095
0.2268026
0.5226605
1.052552
1.479734
2.034936
2.728248
3.641595
-0.01090989
-0.001055988
-0.01132296
-0.01441763
-0.01769615
-0.03285669
-0.04058321
-0.04622979
-0.0451487
-0.04981708
-0.05619666
-0.07055472
-0.07280762
-0.04725454
-0.01735705
-0.0005241493
-0.009791413
-0.00882896
-0.009343451
-0.02026907
0.01159862
-0.01777211
-0.01418881
-0.02399532
-0.03054106
-0.01120307
0.004657058
-0.02645022
-0.01586521
-0.02696315
-0.0369815
-0.05019602
0.005409496
-0.006152277
-0.006802818
-0.0221011
-0.0289658
-0.04814971
-0.06624124
0.001277343
0.001092396
-0.01308992
-0.01770614
-0.03467351
-0.05263562
-0.07809
0.004036219
0.001077175
-0.003130454
-0.01481657
-0.02869107
-0.05314063
-0.08232441
0.00654478
0.00911741
0.004552046
-0.003007282
-0.01987654
-0.04429415
-0.07890307
0.01128506
0.01883482
0.02048057
0.01428985
-0.0002411746
-0.02659258
-0.06421745
0.01767015
0.03458918
0.04181503
0.04100363
0.02903389
0.003614422
-0.03701989
0.02626245
0.05541713
0.07169218
0.07852265
0.07232278
0.04942533
0.007755617
0.03725531
0.08254189
0.1109325
0.1290083
0.131261
0.1131873
0.07119744
0.05073703
0.1164472
0.1618122
0.1960416
0.2120016
0.2036759
0.165949
0.0665716
0.1579726
0.2249694
0.2808471
0.3149183
0.319597
0.286506
0.08441514
0.207348
0.3043384
0.3905477
0.4542823
0.4847329
0.4711511
0.1044639
0.2651027
0.3965045
0.5225952
0.6219859
0.6836518
0.6882358
0.1235448
0.3271015
0.5117275
0.6904582
0.851837
0.9758095
1.045831
0.1465667
0.4032116
0.6320611
0.8831318
1.106332
1.30382
1.43311
0.1597619
0.4590356
0.789307
1.106039
1.447156
1.783935
2.105708
0.2090368
0.5894589
0.8990885
1.32957
1.757236
2.237281
2.703974
0.2269476
0.5230124
1.05268
1.479994
2.035339
2.728596
3.641852
-0.01096514
-0.0009986442
-0.01124306
-0.01438873
-0.01764914
-0.03312844
-0.04060722
-0.04637655
-0.04517316
-0.04991648
-0.05637111
-0.07068708
-0.07552436
-0.04752523
-0.01592577
-0.0013021
-0.009728808
-0.009560151
-0.008177457
-0.02008953
0.01271284
-0.01714874
-0.01469975
-0.02355452
-0.03086704
-0.005358937
0.00405057
-0.02418323
-0.01563058
-0.02639952
-0.03698536
-0.05038128
0.006230947
-0.00654771
-0.006299084
-0.02189865
-0.02912457
-0.04828606
-0.06657469
0.002446966
0.001655524
-0.01220391
-0.01798779
-0.03397541
-0.05287024
-0.07810556
0.003048502
0.0005234577
-0.002946992
-0.0152741
-0.02854444
-0.05350683
-0.08244772
0.006220955
0.00957799
0.004810971
-0.003516958
-0.0194945
-0.04469342
-0.07892578
0.01047973
0.01918765
0.02014555
0.01384501
-0.0001493893
-0.02705768
-0.06436198
0.01729404
0.03488672
0.04130784
0.04074248
0.0290303
0.003119823
-0.03724947
0.02589092
0.05549729
0.07094217
0.07835553
0.07202138
0.04875756
0.007200894
0.03708142
0.08291884
0.1100375
0.1290999
0.1307245
0.1123996
0.07038252
0.05059164
0.1171642
0.1607646
0.1961545
0.2108436
0.2022154
0.1640156
0.06647368
0.1588
0.2240377
0.2810538
0.3135016
0.3178498
0.284158
0.08436646
0.2083535
0.3032171
0.390088
0.4513216
0.4804737
0.4648603
0.1043338
0.266531
0.396105
0.5224673
0.6190288
0.6793299
0.6823009
0.1232748
0.3286807
0.5103186
0.6882916
0.8449332
0.96483
1.027937
0.1462341
0.4058792
0.6330739
0.8833855
1.104646
1.299916
1.426157
0.158485
0.4618546
0.7851644
1.101433
1.435852
1.765131
2.071828
0.2038617
0.5880819
0.8992794
1.328529
1.75779
2.238611
2.707432
0.2235189
0.5204212
1.035584
1.461851
2.011021
2.701736
3.612824
-0.0114355
-0.002188482
-0.01190932
-0.01530269
-0.01884694
-0.03270754
-0.04104646
-0.0463056
-0.04576204
-0.04987234
-0.05605867
-0.07105539
-0.06851815
-0.03396881
-0.01750722
-0.002845184
-0.01131431
-0.01024074
-0.0128405
-0.02536426
0.002039656
-0.02108731
-0.01628032
-0.02584603
-0.03146552
-0.02037687
0.002885455
-0.02381717
-0.01652053
-0.02703274
-0.03745187
-0.05084777
0.001617584
-0.008159012
-0.009426229
-0.0229096
-0.02978834
-0.04883498
-0.06670867
-0.0004659301
-0.0007655142
-0.01298026
-0.01868874
-0.03451166
-0.05310788
-0.0782279
0.003414446
0.0007287143
-0.004165332
-0.01516774
-0.02932074
-0.05357772
-0.08262229
0.006511523
0.009014956
0.004188966
-0.003437698
-0.02011198
-0.04483093
-0.07911192
0.01204297
0.01882726
0.0200446
0.01402163
-0.0008132543
-0.02723225
-0.06475404
0.01902493
0.03422123
0.04178878
0.04071111
0.02842327
0.002748497
-0.03782243
0.02809253
0.05533406
0.07180992
0.07802078
0.07122829
0.04795825
0.006095702
0.03960603
0.08216515
0.1114155
0.1282582
0.1296979
0.1109834
0.06851631
0.05356124
0.1163199
0.1623629
0.1946154
0.2091346
0.1994398
0.1604423
0.06943418
0.1586558
0.2257701
0.2787995
0.3107292
0.313178
0.2778785
0.0880969
0.2085404
0.3045543
0.3866067
0.4462897
0.472333
0.4540138
0.1096084
0.2675653
0.3972141
0.5172458
0.6102892
0.665005
0.6616302
0.1308263
0.3313878
0.5104548
0.6801236
0.8304129
0.9425347
0.9972659
0.1554626
0.4078621
0.6313403
0.8686731
1.079934
1.260689
1.367147
0.1723548
0.4667242
0.782802
1.088655
1.411926
1.725172
2.011428
0.2103807
0.5851872
0.894142
1.302066
1.713745
2.169369
2.602912
0.226646
0.5235356
1.040044
1.477988
2.032119
2.723315
3.637902
-0.008986537
-0.002523009
-0.009209677
-0.01335018
-0.01164142
-0.03203626
-0.04115419
-0.04577195
-0.04598715
-0.04937162
-0.05743036
-0.06952249
-0.05900357
-0.01970263
-0.003723977
-0.009710715
-0.006558921
-0.007405439
-0.008680717
-0.0003364297
-0.013951
-0.01082853
-0.01890721
-0.01918248
-0.02675353
-0.03385073
0.001177555
0.006043151
-0.007179882
-0.01520947
-0.02542893
-0.03734562
-0.05065789
-0.002508673
-0.007062849
-0.01029704
-0.02232507
-0.03102913
-0.04908772
-0.06766165
-0.005268434
-0.000791956
-0.009732436
-0.01871593
-0.03290592
-0.05343643
-0.07805528
-0.004118072
0.0003325919
-0.004404598
-0.01574932
-0.02892383
-0.05417501
-0.0828231
-0.001792852
0.008347248
0.004755926
-0.004401647
-0.0190826
-0.04556978
-0.07897454
0.001566717
0.01820925
0.01958478
0.01298886
-0.000349411
-0.02811386
-0.0648564
0.00593434
0.03349778
0.04079533
0.03990373
0.02866147
0.001861298
-0.03801896
0.0128214
0.05419304
0.07000271
0.07725653
0.07088672
0.04679659
0.005318179
0.02081156
0.08212431
0.1087936
0.128075
0.1289408
0.1097848
0.06747294
0.02876097
0.1174654
0.1590663
0.1944518
0.2071941
0.1969776
0.1571857
0.03970284
0.1585523
0.2223435
0.2789848
0.3086343
0.3109465
0.2750605
0.05159251
0.207558
0.3002899
0.3854396
0.4408064
0.4647705
0.4418261
0.06336107
0.2648418
0.3943064
0.5171506
0.6065407
0.6608437
0.656789
0.07526668
0.3273715
0.5044877
0.6743614
0.8150473
0.9180845
0.9539282
0.08540761
0.4034309
0.6319344
0.8666012
1.074357
1.253312
1.363385
0.09026811
0.4707758
0.7676022
1.073293
1.373531
1.6592
1.875458
0.08977362
0.5616062
0.9165286
1.314843
1.739765
2.211084
2.704233
0.1495859
0.5432369
0.9227758
1.372411
1.854601
2.428137
3.10654
3.811238
-0.03544878
-0.04702433
-0.04673819
-0.047699
-0.05065734
-0.05854189
-0.07436796
-0.007212079
-0.007735433
-0.008823257
-0.01236316
-0.01379867
-0.008553873
-0.01314061
0.00740173
-0.002492473
-0.003396367
-0.01602246
-0.01815453
-0.02386919
-0.03149626
0.00191945
-0.006763007
-0.01060687
-0.01700759
-0.02505185
-0.03715217
-0.05119178
-0.004576433
-0.006546575
-0.01029431
-0.02197313
-0.03083871
-0.04832264
-0.06766139
0.001450904
-0.003791992
-0.01019482
-0.01950188
-0.03325689
-0.05294159
-0.07847621
0.00408864
-0.0004814806
-0.004429717
-0.01573515
-0.02965208
-0.05327953
-0.08303199
0.006812907
0.006606296
0.004542957
-0.004316954
-0.01997208
-0.04479879
-0.07908621
0.011592
0.0177109
0.01955447
0.01292874
-0.00133479
-0.02751224
-0.06513441
0.01802829
0.03361571
0.0411369
0.03970353
0.02763746
0.002063353
-0.03848829
0.02378705
0.05391884
0.07068923
0.0768521
0.06992166
0.04637868
0.004351797
0.02053398
0.08043053
0.1099006
0.1268061
0.1282604
0.109024
0.06601144
0.05207599
0.1149643
0.1604771
0.1919291
0.2059048
0.1956257
0.1547938
0.05988918
0.1543771
0.2249544
0.275481
0.3065807
0.3087261
0.2724071
0.06511468
0.2028153
0.3036783
0.3804633
0.4362764
0.4587155
0.4357806
0.07716146
0.2609086
0.3997368
0.5122945
0.6012861
0.6521243
0.6467464
0.09034617
0.3216427
0.5088154
0.6668266
0.8027586
0.8979303
0.9277044
0.08704313
0.394134
0.6373069
0.8588381
1.063418
1.23194
1.322171
0.118609
0.4634468
0.7611668
1.05338
1.336839
1.598016
1.790348
0.1025858
0.5404014
0.9101477
1.287537
1.713753
2.181114
2.625482
0.1235576
0.5937615
1.008845
1.461753
1.966079
2.460072
3.124074
4.083415
-0.02905151
-0.03229834
-0.02880339
-0.03008678
-0.02712908
-0.03553335
-0.03976026
-0.04891857
-0.03137777
-0.02938321
-0.01847978
-0.03333133
-0.03074975
0.03002862
-0.007494176
0.003245967
-0.04577319
0.04267569
-0.03386679
0.03243155
-0.007707515
0.006091912
-0.03165832
0.04131765
-0.05084297
0.0259023
-0.008786506
0.004450632
-0.05148174
0.03263588
-0.04884467
0.02496441
-0.01004898
0.004498115
-0.0488684
0.03206358
-0.05454042
0.0208779
-0.01128451
0.003592045
-0.05442857
0.02785575
-0.05718321
0.01721305
-0.01214756
0.00297806
-0.05658563
0.02387946
-0.06296591
-0.01313429
-0.06232323
-0.03980803
0.007027259
0.005483804
0.003536333
-0.003564218
-0.004123673
-0.03864609
0.02290712
0.002346943
0.0005740194
-0.0001554023
-0.003525682
-0.03690702
0.03038281
0.002373155
-0.002051568
-0.000970172
-0.001747807
-0.03405843
0.03213242
0.002094756
-0.001531332
0.001062759
0.001721089
-0.0323742
0.03665981
0.004246176
0.001400022
0.003020758
0.00497863
-0.02984365
0.04220539
0.006880762
0.0065408
0.006826302
0.01188348
-0.02806664
0.05022947
0.01167972
0.01555287
0.01227632
0.02145228
-0.02293864
0.06166551
0.01839396
0.02751043
0.01868554
0.0335037
-0.01503468
0.07681623
0.02557416
0.04364797
0.02718447
0.04952597
-0.003352739
0.09662358
0.0342244
0.06408875
0.03860123
0.07105104
0.009527752
0.1201332
0.04503705
0.08929975
0.05163431
0.0967565
0.02626717
0.145961
0.05702665
0.1200483
0.06583111
0.128202
0.05163411
0.176246
0.06955403
0.1552309
0.07977165
0.1644086
0.08345443
0.2114213
0.08099501
0.1933568
0.09328718
0.2045954
0.1203573
0.2475529
0.09041219
0.2306504
0.1026032
0.2452726
0.1606071
0.2853041
0.09501558
0.2661907
0.1082449
0.2850675
0.2076986
0.3122999
0.09611868
0.2925393
0.1026949
0.3099182
0.2626645
0.3014774
0.08466103
0.3083449
0.08168122
0.3013696
0.3254515
0.3747537
0.06490499
0.3393554
0.3646192
0.3825544
-0.02782408
-0.02453516
-0.02603831
0.7778391
-0.01548539
-0.03452712
-0.01394233
-0.02440446
1.228826
-0.01235716
-0.03780164
-0.01110041
-0.02433423
1.750728
-0.01049366
-0.04645346
-0.005190507
-0.03539141
2.373849
-0.01384868
-0.05291552
-0.01504419
-0.0354373
3.173969
-0.01991428
-0.06160528
-0.01559881
-0.04280563
4.256682
-0.02975924
-0.07319492
-0.02135434
-0.05440967
-0.04442513
-0.0322691
-0.03842748
-0.02857498
-0.03438699
-0.02949936
-0.03390745
-0.02709496
-0.04148887
-0.008828632
-0.003335995
-0.02364108
-0.02457367
-0.02389373
-0.02515009
-0.04356222
-0.0301878
-0.01600859
-0.04449303
-0.0225167
-0.002058332
-0.01998871
-0.02399223
-0.02077046
-0.02304768
-0.05025135
-0.01814196
0.001856618
-0.04675438
-0.01688032
0.004266728
-0.020363
-0.02354453
-0.02101276
-0.02362081
-0.04583676
-0.01783677
0.003916371
-0.04542228
-0.01722432
0.004587818
-0.02101411
-0.02393355
-0.02194618
-0.02348903
-0.04552843
-0.0172741
0.004608519
-0.04578216
-0.01776322
0.003960823
-0.02200669
-0.02330782
-0.02109113
-0.02400322
-0.04662707
-0.01671838
0.004184303
-0.05012462
-0.01799855
0.001838255
-0.0211223
-0.02363806
-0.02043222
-0.02359017
-0.04437962
-0.02236358
-0.001778443
-0.04364599
-0.02995758
-0.01568138
-0.02078964
-0.02304743
-0.02022149
-0.02402459
-0.04138304
-0.008987905
-0.002459926
-0.02950348
-0.03233656
-0.02731154
-0.02391291
-0.02529014
-0.02373782
-0.02471345
-0.02916705
-0.01688153
-0.03197234
-0.03000201
0.003319613
-0.04414076
0.04289379
-0.02938269
0.03008318
0.006130724
-0.03231734
0.04117746
-0.03454135
0.03215339
0.004553981
-0.05089804
0.03354344
-0.05076382
0.02599507
-0.002429973
-0.0481535
0.0332644
-0.04909948
0.02585972
-0.03417905
-0.05662644
0.03310584
-0.05285187
0.0190836
0.002778697
-0.05570977
0.02490945
-0.05449506
0.0183489
-0.0618687
-0.06242141
0.001987701
0.0008181801
-0.0001618684
-0.04181653
0.008581575
0.001479619
-0.01272994
-0.005391848
-0.0390634
0.02116134
-0.002641441
-0.002712682
-0.002831915
-0.03623794
0.02937116
-0.00182754
0.0008129186
0.0009319191
-0.03394581
0.03157893
0.00121107
0.002952822
0.004759305
-0.03243724
0.03647413
0.006416513
0.00677658
0.01173031
-0.02986397
0.04210884
0.01545639
0.01209985
0.02134761
-0.02807549
0.05026202
0.0274741
0.01766975
0.03314598
-0.02268928
0.06198828
0.04306577
0.02718102
0.04841757
-0.01450567
0.07552194
0.06554926
0.03879457
0.06621557
-0.0003907603
0.09524965
0.09286495
0.05238143
0.09525474
0.01387317
0.118514
0.1549987
0.07675844
0.1643632
0.05257387
0.1770296
0.1916865
0.09489334
0.2046139
0.08258913
0.209651
0.2676514
0.1043385
0.2891167
0.1580231
0.2900454
0.291981
0.05836641
0.3171394
0.2071658
0.311659
0.3201594
0.1352003
0.2977663
0.2610894
0.3097875
0.337654
0.3636124
0.3317374
0.376951
-0.02443931
-0.02624733
0.3835062
-0.02769396
-0.0153496
-0.02508033
0.5440484
0.7901907
-0.01570775
-0.03596029
-0.01076375
-0.02626763
0.9730266
1.235602
-0.01280261
-0.04009703
-0.004713056
-0.03354676
1.44992
1.761475
-0.009883743
-0.05248561
-0.01493728
-0.03116926
2.02311
-0.01346289
-0.04613347
-0.008477333
-0.05172606
-0.01839972
-0.0643523
-0.02784713
-0.05948615
4.257537
-0.03263174
-0.06752605
-0.0454424
4.604422
-0.03303312
-0.03487239
-0.04077369
-0.008535964
-0.02912655
-0.03003782
-0.05491199
-0.04508953
-0.01889031
-0.02903146
-0.0437846
-0.02860641
-0.007357596
-0.02536949
-0.03696325
-0.02577224
-0.002252103
-0.02262443
-0.03257632
-0.02213342
0.0005713765
-0.02014612
-0.0312027
-0.01976973
0.00327613
-0.01720426
-0.02749237
-0.01672843
0.005918896
-0.01506356
-0.02403437
-0.01347121
0.008116601
-0.009383298
-0.01871261
-0.007361089
0.01382442
-0.0002661716
-0.01057063
0.00203039
0.02281689
0.0114551
2.197417e-05
0.01403682
0.03401933
0.02513459
0.01327412
0.02890303
0.04717659
0.04282364
0.02988504
0.04727358
0.06361813
0.06588384
0.0500993
0.07020706
0.08365177
0.09277303
0.07261223
0.09617102
0.1060577
0.121016
0.09710101
0.1244467
0.1301424
0.1462755
0.1180706
0.1528147
0.1523889
0.1651779
0.1374351
0.1778613
0.169342
0.1641185
0.1504696
0.1834515
0.1749685
0.1543228
0.1451291
0.1602238
0.1618667
0.5973265
0.5455598
0.7583263
0.5944844
0.6463599
0.5505593
0.7515099
0.9730044
0.9829842
1.185807
1.011367
1.055427
0.9948903
1.19382
1.391922
1.451995
1.67668
1.45941
1.511339
1.465366
1.709517
1.866503
1.979795
2.264965
1.95214
2.026782
2.01015
2.350042
2.440369
2.619606
3.010106
2.540891
2.640013
2.699827
3.197427
3.11997
3.421323
3.989098
3.240484
3.386913
3.609416
4.381363
4.448638
4.079612
4.860708
-0.00933553
0.1821266
0.1280334
-0.002255099
-0.0119695
0.5960387
0.0006195324
0.5290046
0.5782306
0.004769834
-0.001411441
-0.01316397
1.031239
-0.0003170192
0.9429297
0.977924
0.00555718
-0.0003572686
-0.01253928
1.508309
-0.00114996
1.406912
1.4342
0.003812231
0.002191584
-0.01081217
2.056171
-0.001565423
1.945721
1.977106
0.001353047
0.003654536
-0.008597234
2.737368
-0.001540081
2.614795
2.67136
-0.001353542
0.00585936
-0.006194836
3.642202
-0.0014949
3.494008
3.628497
-0.003986758
0.009017463
-0.001749472
4.709474
-0.005601697
-0.04379248
-0.0250491
-0.02503099
-0.04576768
0.01029371
-0.008780224
0.3340558
0.3558867
0.1441724
0.3415425
0.3544471
-0.0003577009
0.1718784
-0.0002772031
0.1603591
0.02037384
0.02277609
0.2519503
0.3471452
0.2267336
0.2524122
0.3332559
-0.0003244868
0.1433915
-1.642905e-05
0.1384866
0.02618102
0.03055119
0.238523
0.3255325
0.2234073
0.2387422
0.3227032
-0.0003291615
0.1291274
-0.0001965512
0.1282758
0.02771007
0.03294596
0.2414469
0.3232533
0.2269802
0.2411884
0.3230343
-0.000306249
0.128782
-0.0001674406
0.1286784
0.02794027
0.03389049
0.241124
0.323016
0.2267761
0.2413746
0.3232394
-0.0002126547
0.1287146
-0.0002207665
0.1287337
0.02783909
0.03373934
0.2388486
0.3227611
0.2226428
0.2386211
0.3255861
-0.000193656
0.1278986
-0.0003053284
0.128279
0.02433696
0.03033075
0.2522311
0.3332433
0.2267071
0.251776
0.3469485
-0.0001391095
0.1310286
-0.0003733569
0.134398
0.02269145
0.02667725
0.3383914
0.3532833
0.1514289
0.3343252
0.3549106
-5.069306e-05
0.1441541
-0.0004394862
0.147905
0.02220312
0.02596819
0.1217973
0.06068394
0.1275456
0.03075925
0.1476304
0.2288346
0.07917704
0.2489861
0.1208243
0.246522
0.6455939
0.5488247
0.7467168
0.5380218
0.5926503
0.5444904
0.7046081
1.052567
0.992238
1.189086
0.9260873
0.9679614
0.9574614
1.140773
1.534355
1.463674
1.702539
1.358324
1.416788
1.426635
1.697344
1.925122
2.005427
2.152511
1.865489
1.949894
1.983945
2.338109
2.514527
2.669893
2.906972
2.443572
2.53416
2.679409
3.14031
3.399293
3.593491
4.373265
3.042105
3.142001
3.499153
3.973151
4.863904
3.624265
4.450807
-0.001396153
0.1801562
-0.0001071483
0.164664
-0.01509316
-0.02434699
-0.02920773
-0.05278146
0.02259335
0.02673604
0.005219018
0.006737771
0.0005752767
-0.0240662
0.01599685
0.02466955
0.01533012
-0.006031303
0.02202833
0.03149908
0.02072413
-0.000264206
0.02372943
0.03278307
0.02229483
0.00109367
0.02758423
0.03711611
0.02611676
0.004497295
0.03220114
0.04223762
0.03128572
0.007453575
0.03824404
0.04786109
0.03764413
0.01124037
0.04741019
0.05600669
0.04648316
0.01844536
0.05948983
0.06769597
0.05902279
0.0281912
0.07504651
0.08290172
0.07521354
0.04101793
0.0927052
0.1007366
0.09445824
0.0557316
0.1125163
0.1212244
0.1164565
0.07016731
0.1354563
0.1410291
0.1421552
0.08102228
0.1605815
0.1599056
0.170942
0.09154206
0.1829639
0.1826103
0.1970187
0.09874437
0.2005573
0.2047049
0.2189357
0.1006883
0.1988737
0.2166477
0.220191
0.09497916
0.1532737
0.186953
0.1734371
0.101789
0.1544017
0.1559343
0.1394425
0.1664187
-0.001590295
0.3050896
-0.002621434
0.383197
0.2665738
-0.01033897
0.0008585852
-0.00661281
-0.02175078
-0.02168649
-0.00825614
-0.001468052
0.1881717
0.1711678
-0.0001521058
0.005480895
0.6975524
-0.003107842
0.7631127
0.676699
-0.01338587
0.002044748
0.004942483
1.118461
-0.001610575
1.205869
1.069405
-0.01320712
0.002767461
0.002867246
1.593062
-0.0002585513
1.735491
1.536141
-0.01155612
0.003514182
0.0003203852
2.155672
0.001547692
2.403215
2.110808
-0.00919995
0.003594811
-0.001350422
2.871106
0.0031686
3.261116
2.863674
-0.006466503
0.004529555
-0.002192703
3.834429
0.003500341
4.415127
3.902943
-0.003850276
0.006361986
0.02257556
0.02713607
-4.080133e-05
0.1445551
0.1489241
-0.0004371668
0.02396442
0.03001861
-0.0001284342
0.1310312
0.1344835
-0.0003386379
0.02724716
0.03311393
-0.0001523513
0.1278516
0.1282326
-0.0002117611
0.02830519
0.03402945
-0.000180049
0.1287214
0.128739
-0.000141501
0.0276868
0.03320876
-0.0003695049
0.1287871
0.1286775
-0.0002244735
0.02684811
0.03084944
-0.000355
0.1291717
0.1283423
-0.0002006544
0.02013034
0.0223926
-0.000344368
0.1431098
0.1383492
-3.981652e-05
0.01038517
-0.008593145
-0.0003511999
0.169066
0.1572325
-0.0003686025
-0.008137587
-0.02931632
-0.02169601
0.001780214
0.008518329
-0.009888822
-0.01389839
-0.0232432
-0.02891067
-0.05161949
0.02354263
-0.02189056
-0.01567889
0.01319057
-0.005239258
0.001553461
0.01619745
-0.01187392
0.02727433
-0.02223328
-0.01153384
0.01990871
0.003070872
0.0008272468
0.01648912
-0.006832609
0.02311605
-0.02888001
-0.01763844
0.01758548
-0.003230765
-0.001130478
0.005181212
-0.008153486
0.00199494
-0.03062901
-0.03591688
0.01288535
-0.02491138
-0.006617182
-0.01334084
-0.01149877
0.02936281
-0.0358735
-0.03852477
0.0136557
0.03928545
0.02517634
-0.04073089
0.08367096
-0.005387349
0.02426052
-0.02206442
-0.01725963
0.01767406
0.000145507
-0.005129128
0.009669701
-0.008523069
-0.03588696
-0.02454315
-0.03153409
-0.051793
-0.04014012
-0.01525707
0.00629526
-0.0007261584
0.01983268
-0.001557403
-0.01171228
-0.02463585
-0.02352762
-0.03670906
-0.03140211
-0.01074738
-0.01307473
0.01652512
0.01128543
0.008620432
0.01174962
-0.01965178
-0.0247844
-0.04197789
-0.02629666
-0.0037707
0.02108776
0.03109289
0.02026796
-0.002162821
-0.0225228
-0.03270006
-0.02200815
0.0005632754
0.02336122
0.03260396
0.02202521
0.0007880323
-0.02021593
-0.0312878
-0.01988212
0.003177417
0.02742714
0.03700995
0.02598738
0.004360335
-0.01723121
-0.02753922
-0.01675858
0.005888828
0.03212548
0.04218637
0.03121953
0.007411646
-0.01508568
-0.02404357
-0.0134748
0.00809185
0.03826451
0.04788876
0.03767917
0.01126608
-0.009175747
-0.01849967
-0.007122968
0.01400929
0.04776492
0.05669094
0.04723434
0.01884331
-6.208899e-05
-0.009275376
0.003184411
0.0236085
0.06059546
0.06964636
0.06032393
0.0305533
0.0112904
0.01490903
0.01740263
0.02008452
0.0331827
0.02705229
0.02465491
0.03244323
0.03711649
0.05642418
0.09063889
0.1039308
0.05661673
0.0941676
0.05282955
0.1734455
0.1246387
0.1774796
0.1767879
0.2054322
0.1030511
0.2299358
0.09562847
0.2266494
0.1039903
0.1506151
0.1498905
0.136413
0.1562031
-0.009172324
0.178873
0.1230915
-0.002254372
-0.001592908
0.3784234
0.3082824
-0.002641166
0.2690134
-0.009632917
0.0009425916
-0.00584931
-0.02712172
-0.02214097
-0.02190787
-0.008233429
0.5271395
0.6124848
0.007339183
0.5740255
0.009965452
-0.01009469
-0.004982106
0.7198213
-0.005215755
-0.01502927
-0.001160754
-0.01316912
0.9150053
1.049276
-0.0007084754
0.9847352
0.00499941
-0.0008292968
0.004937971
1.129979
-0.002145786
1.080937
-0.01316579
0.002479119
-0.01259105
1.387551
1.51231
-0.001686657
1.434375
0.003847505
0.001924733
0.003111032
1.729241
1.604071
0.002298256
1.537188
-0.0106895
0.002679464
0.01791751
0.007948022
0.006523011
-0.03667586
-0.03979554
0.01159216
-0.009649413
-0.02981045
-0.01988263
0.007344256
-0.001075671
0.002130187
-0.006555444
0.006896875
-0.00633269
-0.002936197
-0.003958321
0.007106562
-0.002729011
4.439593
3.827401
-0.02357005
-0.009290464
0.005463837