/*--------------------------------*- C++ -*----------------------------------*\
  =========                 |
  \\      /  F ield         | OpenFOAM: The Open Source CFD Toolbox
   \\    /   O peration     | Website:  https://openfoam.org
    \\  /    A nd           | Version:  7
     \\/     M anipulation  |
\*---------------------------------------------------------------------------*/
FoamFile
{
    version     2.0;
    format      ascii;
    class       volScalarField;
    location    "0.1";
    object      Uz;
}
// * * * * * * * * * * * * * * * * * * * * * * * * * * * * * * * * * * * * * //

dimensions      [0 1 -1 0 0 0 0];

internalField   nonuniform List<scalar> 
109978
(
-0.005141519
0.003282878
0.002544129
0.002576707
0.002643343
0.002576713
-0.01086432
0.006079746
0.004341054
0.003537577
0.003442848
0.003298096
-0.01126061
0.004108845
0.003712186
0.003136375
0.003100971
0.00305936
-0.01126491
0.003952235
0.003842174
0.003264699
0.00316177
0.003107747
-0.01144105
0.00391522
0.003814356
0.003298418
0.00317388
0.003116452
-0.01154168
0.003896038
0.003800618
0.003308756
0.003185357
0.003134695
-0.01166759
0.00387016
0.00378649
0.00331557
0.003196025
0.003155534
-0.0118004
0.003855131
0.003785659
0.00332966
0.003213914
0.003182569
-0.0119405
0.003839148
0.003784265
0.003345432
0.003236631
0.003212486
-0.0120921
0.003826378
0.003786694
0.003363849
0.003261821
0.003242517
-0.01225455
0.003814926
0.003791025
0.003384519
0.003290612
0.003264129
-0.01242865
0.003812326
0.003798409
0.003405488
0.003320017
0.003279771
-0.01261769
0.003810661
0.00380634
0.003425265
0.003340065
0.003304556
-0.01282123
0.003809556
0.00381552
0.003447378
0.003349378
0.003340848
-0.01304148
0.003810919
0.003822143
0.003463098
0.003367255
0.003067308
-0.01327912
0.003810148
0.00382784
0.003474429
0.003426985
0.003163246
-0.01353418
0.003813147
0.003835935
0.003483862
0.003372742
0.003240673
-0.01380918
0.003813336
0.003842261
0.003500622
0.003117813
0.003291225
-0.01410391
0.003810252
0.003842449
0.003563574
0.003203684
0.003354648
-0.01442046
0.003806393
0.003838766
0.003614505
0.003284398
0.003430139
-0.01475908
0.003799117
0.003840442
0.003548035
0.003324746
0.003497216
-0.01511795
0.00379145
0.00384948
0.003172489
0.003375306
0.003567083
-0.007741112
0.003765772
0.003836552
0.003238995
0.003433487
0.003643651
-0.01030809
-0.00936332
-0.01083698
-0.01087651
-0.01115686
-0.01215489
-0.003822741
-0.002599391
-1.234484e-05
-0.0001340722
0.0002607452
0.0001277832
-0.002775523
-0.001242561
0.0002887464
0.0004139325
0.0002671643
0.0002420009
-0.002666949
-0.002574338
2.447603e-05
-0.0001014212
8.549627e-05
3.744486e-05
-0.002635131
-0.00205239
0.000104652
0.0001833947
0.0001154426
9.793322e-05
-0.002799106
-0.002345255
3.128472e-05
4.432601e-05
6.99481e-05
3.891025e-05
-0.002769664
-0.002283216
5.43348e-05
0.0001364913
0.0001047916
7.852933e-05
-0.002823286
-0.002383268
1.802695e-05
8.940054e-05
8.267562e-05
5.675267e-05
-0.002867793
-0.002403271
2.178455e-05
0.0001114999
9.516529e-05
6.630933e-05
-0.002915138
-0.002456186
5.886435e-06
9.706267e-05
8.472201e-05
5.100222e-05
-0.002961
-0.002490735
4.233155e-06
9.991586e-05
8.411424e-05
4.494274e-05
-0.003006886
-0.002531662
-1.207312e-06
9.461253e-05
7.634561e-05
3.424534e-05
-0.003052533
-0.002568993
-1.302766e-06
9.189143e-05
7.243067e-05
3.671363e-05
-0.003096444
-0.002609173
-2.467622e-06
8.617198e-05
6.605842e-05
4.567654e-05
-0.003139656
-0.002650433
-2.835796e-06
8.141465e-05
6.944568e-05
7.378757e-05
-0.003182264
-0.002693998
-4.907041e-06
7.352643e-05
7.814768e-05
0.0002063798
-0.003226228
-0.002739174
-7.302906e-06
6.870883e-05
8.902336e-05
0.0002723172
-0.00327139
-0.002786242
-9.135243e-06
7.021718e-05
0.0001124946
0.0002893777
-0.003316651
-0.00283755
-1.217239e-05
7.899425e-05
0.0002324283
0.0001895925
-0.003363821
-0.002892991
-1.612564e-05
8.138226e-05
0.0003061502
0.0003268923
-0.003412657
-0.002953111
-2.195652e-05
7.837407e-05
0.0003219366
0.0006141362
-0.003461997
-0.003015603
-2.471264e-05
8.049349e-05
0.000340264
0.0006620977
-0.003510284
-0.003077983
-1.74991e-05
0.0001141843
0.0003636531
0.0006331211
-0.002349263
-0.003144687
-2.874929e-06
0.0002359217
0.0004292759
0.000476901
-0.0008407879
-0.003012699
-0.003489159
-0.003042134
-0.003236465
-0.003999011
-0.0002314969
0.0009148468
-3.761917e-05
0.0002032275
-4.524391e-06
-9.925484e-06
0.0004575657
0.001727655
0.0003863737
0.0006383969
0.0002074441
0.0002159367
0.0004899249
0.001457808
0.000168606
0.0004390523
0.0001069242
9.965234e-05
0.000484363
0.00159991
0.0002430577
0.0005479151
0.000171892
0.0001697799
0.000484696
0.001531764
0.0002126964
0.0004783028
0.0001485061
0.0001392309
0.0005035763
0.00160714
0.0002343508
0.0005158664
0.0001671602
0.0001603658
0.0005118581
0.001604468
0.0002268136
0.0004945781
0.0001551093
0.0001469768
0.0005190217
0.001638815
0.000231321
0.0005030287
0.0001571592
0.0001512018
0.000524812
0.001653674
0.000225921
0.0004952772
0.0001493598
0.0001451718
0.0005313619
0.001676324
0.0002242409
0.0004961363
0.0001469317
0.0001449561
0.0005384975
0.001695294
0.0002193866
0.0004923859
0.0001410839
0.0001404869
0.0005464035
0.001716277
0.0002146327
0.0004914448
0.0001352789
0.0001352975
0.000555753
0.00173794
0.000209528
0.0004906849
0.0001304273
0.0001356038
0.0005667289
0.001761222
0.0002045612
0.0004887033
0.0001220328
0.0001175615
0.0005791657
0.001785945
0.0002005343
0.0004897532
0.0001204331
0.0001171016
0.0005926908
0.001811668
0.0001962017
0.0004894552
0.0001071405
0.000122143
0.0006075715
0.00183901
0.0001921448
0.0004887325
9.204518e-05
0.0001068023
0.0006239299
0.00186922
0.0001896245
0.0004953539
9.37872e-05
0.0001761289
0.0006418399
0.001901209
0.0001864637
0.0004906809
9.906965e-05
0.0001390177
0.000659985
0.001934537
0.0001824974
0.0004794994
8.703419e-05
1.301143e-05
0.0006805928
0.001971477
0.0001819134
0.0004847366
7.920827e-05
-1.694136e-06
0.0007030498
0.002005292
0.0001806796
0.000493028
7.276128e-05
-1.471361e-05
0.0007279422
0.00204887
0.0001832613
0.0005216097
0.0001206866
1.446804e-05
7.508298e-05
-0.0003055599
-0.001742002
-0.0007137749
-0.0004959282
-0.0003558564
-0.0001745124
-0.0001234347
-0.0001456115
0.0001312356
1.873405e-05
4.811343e-05
0.0001108484
2.898673e-05
8.934187e-05
4.326486e-05
8.983492e-05
5.274759e-05
0.0001261286
-0.000366266
-8.290829e-06
-0.0001222625
1.606701e-05
-2.064027e-05
0.0001526586
-0.0002836102
5.747732e-05
-5.942485e-05
5.089812e-05
9.928176e-06
0.0001417629
-0.0004056314
1.718998e-05
-0.0001383759
1.957822e-05
-2.506112e-05
0.0001417562
-0.0003659308
3.166292e-05
-0.0001083523
3.669429e-05
-7.676744e-06
0.0001396113
-0.000402259
1.348837e-05
-0.0001369706
2.208985e-05
-2.150493e-05
0.0001408476
-0.0003971494
1.479451e-05
-0.0001297078
2.743877e-05
-1.615666e-05
0.0001417522
-0.0004078782
6.235174e-06
-0.0001394205
2.135119e-05
-2.148392e-05
0.0001441785
-0.0004098631
4.208308e-06
-0.0001401164
2.175296e-05
-1.973514e-05
0.000147117
-0.00041455
1.490283e-07
-0.0001439595
2.027087e-05
-1.926365e-05
0.0001508198
-0.0004174788
-1.899003e-06
-0.0001459168
2.132052e-05
-1.537729e-05
0.0001551286
-0.0004206528
-3.956535e-06
-0.0001479983
2.319469e-05
-9.277362e-06
0.0001596079
-0.0004235851
-5.579138e-06
-0.0001497744
2.536078e-05
8.859135e-07
0.0001644148
-0.0004264646
-7.013383e-06
-0.0001511025
2.885568e-05
1.825275e-05
0.0001697335
-0.0004293833
-8.052665e-06
-0.0001518771
3.445246e-05
3.220552e-05
0.0001755605
-0.0004322984
-8.652893e-06
-0.0001526473
4.223891e-05
3.862173e-05
0.0001821046
-0.0004352643
-8.473609e-06
-0.0001529521
5.728397e-05
3.315562e-05
0.000189283
-0.0004378758
-7.408743e-06
-0.0001512616
7.306934e-05
4.771801e-05
0.0001969442
-0.0004414056
-7.713592e-06
-0.0001512967
8.225891e-05
6.552545e-05
0.0002055561
-0.0004433732
-5.437674e-06
-0.0001477745
9.331452e-05
6.832368e-05
0.0002145625
-0.0004476643
-5.910182e-06
-0.0001508645
9.854034e-05
4.95723e-05
0.0002238703
-0.0004450428
4.561535e-06
-0.0001302114
0.0001261706
3.292505e-05
3.445701e-05
5.923359e-05
-7.478099e-05
-7.602739e-06
-5.787875e-05
8.703736e-05
2.00875e-05
0.0003728404
-3.149054e-05
0.00029406
-7.689818e-05
8.227652e-05
9.175822e-05
0.0003228216
1.990994e-05
0.0001574717
5.024195e-05
6.854273e-05
0.000124281
0.0004132582
5.776146e-05
0.0002202346
3.639608e-05
7.989905e-05
0.0001364314
0.0004594595
5.935172e-05
0.000230257
4.959891e-05
9.271386e-05
0.0001389674
0.0004654441
6.769534e-05
0.0002368887
5.21114e-05
9.508917e-05
0.000138828
0.0004845307
6.98687e-05
0.0002464851
5.557682e-05
0.0001005636
0.0001388784
0.0004891733
7.211523e-05
0.0002475485
5.551747e-05
0.0001002743
0.0001398857
0.0004988062
7.348067e-05
0.0002514384
5.612669e-05
0.0001020683
0.0001406393
0.0005041607
7.373974e-05
0.0002524044
5.530631e-05
0.0001016237
0.000141536
0.0005106264
7.412791e-05
0.0002549883
5.529193e-05
0.0001015527
0.0001422881
0.0005160926
7.35949e-05
0.0002561463
5.425647e-05
0.0001006792
0.000143354
0.0005219687
7.305418e-05
0.0002576992
5.291058e-05
9.948085e-05
0.0001446567
0.0005279553
7.230482e-05
0.0002595139
5.197939e-05
9.909894e-05
0.0001462914
0.0005342334
7.143254e-05
0.0002607619
4.961455e-05
9.401106e-05
0.0001482062
0.0005409889
7.085972e-05
0.0002632628
4.92156e-05
9.309936e-05
0.0001503552
0.0005480637
6.994868e-05
0.0002650985
4.606893e-05
9.133493e-05
0.0001527342
0.000555663
6.91242e-05
0.0002668255
4.227122e-05
8.92671e-05
0.0001553338
0.0005637969
6.859882e-05
0.0002699767
4.11699e-05
9.631829e-05
0.0001582228
0.0005722181
6.778876e-05
0.0002712835
3.84997e-05
9.177234e-05
0.0001612669
0.0005805544
6.643386e-05
0.0002710859
3.399185e-05
8.005673e-05
0.000165243
0.0005896733
6.552826e-05
0.0002738742
3.042968e-05
7.95518e-05
0.0001691935
0.0005978189
6.370931e-05
0.0002752871
2.612131e-05
8.030432e-05
0.000174548
0.0006081223
6.161977e-05
0.0002794751
2.330019e-05
8.620733e-05
-9.868647e-05
-0.001047415
0.0004526598
0.000115205
-0.0002753683
-1.880842e-05
7.149154e-06
-0.0003979081
5.731192e-05
-0.0002222633
3.477464e-07
-0.0001397233
-6.410324e-06
-0.0003293502
-3.650659e-05
-0.0001743825
-4.397383e-05
-7.217439e-05
6.767938e-06
-0.0004154294
-5.638726e-05
-0.0002171367
-4.145765e-05
-8.57796e-05
7.848422e-06
-0.0004611587
-6.228145e-05
-0.0002323751
-5.061348e-05
-9.371484e-05
1.048819e-05
-0.0004659277
-6.812219e-05
-0.0002370813
-5.244127e-05
-9.555096e-05
1.10852e-05
-0.0004848824
-7.044149e-05
-0.0002467202
-5.561493e-05
-0.0001004835
1.165308e-05
-0.0004891829
-7.224322e-05
-0.0002474112
-5.524254e-05
-0.0001000015
1.262169e-05
-0.0004987928
-7.349309e-05
-0.000251164
-5.578231e-05
-0.0001017037
1.342569e-05
-0.0005040841
-7.36283e-05
-0.0002520019
-5.4844e-05
-0.0001011901
1.441613e-05
-0.0005105408
-7.392565e-05
-0.0002544692
-5.477958e-05
-0.0001010497
1.561863e-05
-0.0005160106
-7.331706e-05
-0.0002555462
-5.363694e-05
-0.0001001208
1.697275e-05
-0.0005219528
-7.274464e-05
-0.000257066
-5.226233e-05
-9.885791e-05
1.846908e-05
-0.0005279409
-7.190639e-05
-0.0002588048
-5.119181e-05
-9.841745e-05
2.008257e-05
-0.0005342619
-7.104361e-05
-0.0002600911
-4.879068e-05
-9.331915e-05
2.184176e-05
-0.0005409874
-7.030054e-05
-0.0002624836
-4.806812e-05
-9.226903e-05
2.376139e-05
-0.0005481393
-6.931825e-05
-0.0002644692
-4.487731e-05
-9.080221e-05
2.572892e-05
-0.0005556179
-6.793321e-05
-0.0002659321
-4.007486e-05
-8.838755e-05
2.751706e-05
-0.0005640273
-6.705769e-05
-0.000269799
-3.836363e-05
-9.692246e-05
2.917527e-05
-0.0005720876
-6.41845e-05
-0.0002702004
-3.226869e-05
-9.133338e-05
3.078587e-05
-0.0005817414
-6.1607e-05
-0.0002741982
-2.517315e-05
-8.593351e-05
3.267094e-05
-0.0005896973
-5.419688e-05
-0.0002719983
-8.03838e-06
-8.058212e-05
3.432967e-05
-0.0006037279
-5.122221e-05
-0.0002940598
5.689965e-06
-0.0001092253
3.644211e-05
-0.0006104701
-3.209497e-05
-0.0002779453
6.142034e-05
-8.653831e-05
-0.0002216437
0.001073645
-0.0001153622
6.605602e-05
0.000187677
0.0001214152
-4.630664e-05
0.0001082755
0.0001341245
-0.0002044977
7.127433e-05
-4.085734e-05
-0.0001704922
-3.329063e-05
-8.574635e-05
-4.328282e-05
-0.0001001194
-5.929471e-05
-0.000151268
0.0003623464
4.999488e-06
0.0001155114
-1.135956e-05
1.982974e-05
-0.0001617293
0.0002822014
-5.83427e-05
5.75962e-05
-5.151959e-05
-1.070702e-05
-0.0001681233
0.0004045299
-1.827846e-05
0.0001372091
-1.962596e-05
2.489135e-05
-0.0001746886
0.0003653491
-3.234197e-05
0.0001077101
-3.691053e-05
7.57471e-06
-0.0001760699
0.0004018193
-1.396442e-05
0.0001366556
-2.21538e-05
2.155019e-05
-0.0001774593
0.0003968829
-1.505616e-05
0.0001296058
-2.739584e-05
1.624896e-05
-0.0001778624
0.0004076841
-6.379367e-06
0.0001394845
-2.122473e-05
2.167098e-05
-0.0001785056
0.0004096933
-4.289845e-06
0.000140279
-2.151879e-05
1.995917e-05
-0.0001785153
0.0004143341
-1.597165e-07
0.0001442468
-1.996938e-05
1.96115e-05
-0.0001785686
0.0004172804
1.902226e-06
0.0001462346
-2.090061e-05
1.574495e-05
-0.0001786449
0.0004204782
3.999722e-06
0.000148429
-2.266359e-05
9.829865e-06
-0.0001787218
0.0004232989
5.674142e-06
0.0001502879
-2.466371e-05
-2.502503e-07
-0.0001789487
0.0004262979
7.254778e-06
0.0001518261
-2.793905e-05
-1.734076e-05
-0.0001793605
0.0004293264
8.460485e-06
0.0001526838
-3.327367e-05
-3.132119e-05
-0.0001796983
0.0004324636
9.523404e-06
0.000153835
-4.066221e-05
-3.753054e-05
-0.000179738
0.000435573
9.823559e-06
0.0001541476
-5.571582e-05
-3.239183e-05
-0.0001793845
0.000438656
1.000174e-05
0.0001533824
-7.036728e-05
-4.750747e-05
-0.0001789302
0.000442307
1.119401e-05
0.0001537174
-8.067497e-05
-6.785806e-05
-0.000177289
0.0004452661
1.172532e-05
0.000153768
-9.360988e-05
-7.391633e-05
-0.0001763247
0.0004485783
1.204275e-05
0.0001563575
-0.0001133875
-6.672045e-05
-0.0001731055
0.0004468179
4.425122e-06
0.0001462948
-0.0001595158
-7.184827e-05
0.0003149115
0.001796767
0.0005533711
0.001554878
0.001306065
0.001715465
-0.0002870056
-0.0009221307
1.509078e-05
-0.0002172626
-4.239973e-05
8.809294e-05
-0.000683882
-0.00173347
-0.0003900861
-0.0006372187
-0.0002115769
-0.0002177376
-0.0004501698
-0.001461169
-0.0001724277
-0.0004420641
-0.0001115371
-9.397854e-05
-0.0004567559
-0.001599276
-0.0002444048
-0.0005477779
-0.0001720385
-0.0001689263
-0.0004366786
-0.001532075
-0.0002133232
-0.0004782706
-0.0001480484
-0.0001379588
-0.000446729
-0.001606968
-0.0002343787
-0.000515254
-0.0001661106
-0.000159289
-0.0004470941
-0.001604135
-0.0002267194
-0.000493738
-0.0001539538
-0.0001458327
-0.0004542207
-0.001638723
-0.0002310409
-0.0005020749
-0.0001559803
-0.0001500891
-0.00045901
-0.001653567
-0.0002253736
-0.0004941401
-0.0001480505
-0.0001440222
-0.0004652546
-0.001676232
-0.0002235698
-0.0004948611
-0.0001455725
-0.0001438056
-0.0004710237
-0.001695169
-0.000218562
-0.0004909866
-0.0001396088
-0.0001392714
-0.0004776468
-0.001716665
-0.000213855
-0.0004900198
-0.0001338112
-0.0001339665
-0.0004844413
-0.001738486
-0.000208664
-0.0004892275
-0.0001289118
-0.0001342667
-0.0004914414
-0.00176182
-0.0002037635
-0.000487352
-0.0001205457
-0.0001162479
-0.0004990764
-0.001786698
-0.000199655
-0.0004884054
-0.0001187007
-0.0001156546
-0.0005074546
-0.001812613
-0.0001953755
-0.0004884754
-0.0001055619
-0.0001211134
-0.0005163484
-0.001840122
-0.0001908663
-0.0004875782
-8.974777e-05
-0.0001056421
-0.0005257751
-0.001870883
-0.0001880727
-0.0004949418
-9.085362e-05
-0.0001780668
-0.0005358333
-0.001902724
-0.000182618
-0.0004893865
-9.248606e-05
-0.0001370276
-0.0005458339
-0.001937839
-0.0001763734
-0.0004827749
-7.549275e-05
-1.813284e-05
-0.0005563701
-0.001973998
-0.0001679951
-0.0004820714
-4.058148e-05
5.846347e-06
-0.0005660222
-0.002015224
-0.0001608716
-0.00052775
1.362422e-05
-1.896739e-05
-0.0005785671
-0.002052191
-0.0001384891
-0.0005136367
0.0001680567
4.637958e-05
0.00236064
0.004167518
0.004343571
0.005096642
0.004747909
0.005010744
-0.001553893
0.002619108
3.027693e-06
0.0001292868
-0.0002556984
-0.0001522522
-0.002920358
0.001245224
-0.0002881204
-0.0004143906
-0.0002698518
-0.0002367074
-0.003257188
0.002576095
-2.692356e-05
9.970693e-05
-8.591664e-05
-3.844937e-05
-0.003338477
0.00204948
-0.0001048048
-0.0001848985
-0.0001160614
-9.757735e-05
-0.003485159
0.002343582
-3.302509e-05
-4.559881e-05
-7.035514e-05
-3.885899e-05
-0.003475304
0.002281942
-5.578621e-05
-0.0001375384
-0.0001049733
-7.824696e-05
-0.003528911
0.002381943
-1.91774e-05
-9.019625e-05
-8.26245e-05
-5.638802e-05
-0.003574143
0.002402523
-2.266736e-05
-0.0001118887
-9.48737e-05
-6.58782e-05
-0.003625155
0.002455421
-6.742199e-06
-9.709867e-05
-8.426529e-05
-5.053473e-05
-0.003674738
0.002489708
-5.199651e-06
-9.962028e-05
-8.350269e-05
-4.437571e-05
-0.003724342
0.002530304
1.975233e-07
-9.40937e-05
-7.556984e-05
-3.360626e-05
-0.003777776
0.002568217
3.91091e-07
-9.113645e-05
-7.144971e-05
-3.604477e-05
-0.003833113
0.002608403
1.479736e-06
-8.531852e-05
-6.491747e-05
-4.49046e-05
-0.003890715
0.002649482
1.914581e-06
-8.039466e-05
-6.809412e-05
-7.24762e-05
-0.003952277
0.002693213
3.890165e-06
-7.238371e-05
-7.670398e-05
-0.0002040334
-0.004018301
0.002738764
6.543106e-06
-6.709717e-05
-8.711461e-05
-0.0002704612
-0.00408749
0.002786281
8.395937e-06
-6.831029e-05
-0.0001104225
-0.0002870067
-0.004160821
0.002838311
1.214561e-05
-7.569729e-05
-0.0002311135
-0.0001833565
-0.004237258
0.002894746
1.682029e-05
-7.575133e-05
-0.0003015775
-0.0003244101
-0.004318011
0.002958761
2.589406e-05
-6.527709e-05
-0.0003144691
-0.0006094019
-0.00439956
0.003025934
3.341083e-05
-5.571765e-05
-0.0003380776
-0.0006675464
-0.004487244
0.003099826
4.573489e-05
-3.590439e-05
-0.0003949178
-0.0006646178
0.002340556
0.003174126
5.983236e-05
-3.531312e-05
-0.000578814
-0.0006638349
0.01923386
0.02967282
0.03044864
0.0303763
0.03040061
0.03032822
0.00716092
0.01204199
0.0137665
0.01380625
0.01355959
0.01359453
0.01348155
0.005621832
0.003268648
0.01085479
0.01075825
0.01078808
0.01070959
0.01068353
0.004940317
0.002833819
0.008704886
0.009960247
0.009284062
0.009305739
0.009214684
0.004745634
0.002456097
0.007531724
0.009192477
0.008780624
0.008840667
0.008823461
0.004944297
0.00235843
0.00751824
0.009305747
0.008719749
0.008813094
0.008791453
0.004882704
0.002195002
0.007446136
0.009290264
0.00872913
0.008839287
0.008856223
0.004917862
0.002148723
0.00752402
0.009428596
0.008834036
0.008967225
0.008982014
0.004934365
0.002050683
0.007599513
0.00951871
0.00892696
0.009071536
0.009093725
0.004949284
0.001999683
0.007701564
0.009647631
0.009047261
0.009195294
0.009222292
0.004947717
0.00194392
0.007806028
0.009760366
0.00915283
0.009309998
0.009344767
0.004939565
0.001900394
0.007921927
0.00988208
0.009266212
0.009432572
0.009490667
0.004901668
0.001857153
0.008047532
0.009989591
0.009376958
0.009551527
0.009638656
0.00485858
0.001822718
0.008173377
0.01009909
0.009494554
0.009691352
0.009792666
0.004805733
0.00178991
0.008295018
0.01020421
0.009604637
0.009815066
0.009820302
0.004745815
0.001759514
0.008417245
0.01031558
0.009725852
0.009967113
0.01032354
0.004671219
0.00174467
0.008534867
0.01043304
0.009845223
0.01003879
0.01182092
0.004587696
0.001734252
0.008650724
0.01054925
0.009967408
0.0100571
0.01386368
0.004498467
0.001719548
0.008771102
0.01067665
0.0101099
0.01043922
0.0143145
0.004390013
0.001693476
0.008892177
0.01079386
0.01018652
0.01173974
0.01404998
0.004269202
0.001662241
0.009014846
0.01092659
0.01023002
0.01406551
0.01280788
0.004131459
0.001620254
0.009123793
0.01105774
0.01030356
0.01462633
0.0129079
0.003974064
0.00159546
0.009260194
0.01123782
0.01044272
0.01506482
0.01314149
0.003816255
0.009028895
0.00936421
0.01134373
0.01090638
0.0151916
0.01357797
-0.01055915
-0.0005827878
0.001449528
-0.001394269
-0.01001096
-0.01669673
-0.007153652
-0.007234097
-0.002804267
-0.005964714
-0.01615501
-0.01297099
-0.005624169
-0.004556243
-0.003339523
-0.004070351
-0.01584174
-0.01303859
-0.004946521
-0.004557289
-0.00329874
-0.003784937
-0.01515639
-0.01308628
-0.004750403
-0.004076347
-0.003158083
-0.003556375
-0.01545357
-0.01322259
-0.004946695
-0.004391115
-0.003158885
-0.003726769
-0.01556088
-0.01331712
-0.004883912
-0.004359593
-0.003088618
-0.00375565
-0.01573104
-0.01340521
-0.004919835
-0.004489473
-0.002994265
-0.003792228
-0.01588876
-0.01349011
-0.004936202
-0.004564387
-0.002885154
-0.0038052
-0.01603652
-0.01357157
-0.004951431
-0.004665907
-0.00277283
-0.003833187
-0.01618152
-0.01364156
-0.004949369
-0.004763645
-0.002651296
-0.003864771
-0.01632712
-0.01369756
-0.004933434
-0.004870835
-0.002518708
-0.003904389
-0.01647152
-0.01374742
-0.004903982
-0.004983164
-0.002375737
-0.003951204
-0.01662096
-0.01378667
-0.004860665
-0.005104191
-0.002222669
-0.004009223
-0.01676707
-0.01381915
-0.004808965
-0.005232476
-0.002059533
-0.00407786
-0.01691173
-0.01384942
-0.004746586
-0.005367005
-0.001885383
-0.004158145
-0.01705222
-0.01387468
-0.004673995
-0.005493366
-0.001697692
-0.004246061
-0.01719206
-0.01389548
-0.004591235
-0.005618129
-0.001496575
-0.004340753
-0.01733168
-0.01391002
-0.004497409
-0.005754112
-0.001279906
-0.00444207
-0.01746267
-0.01392361
-0.00439024
-0.005900809
-0.001048689
-0.004551011
-0.01760009
-0.01393083
-0.004269674
-0.006061735
-0.0008013536
-0.004669908
-0.01773811
-0.01393409
-0.004134458
-0.006238831
-0.0005377774
-0.004804008
-0.01787717
-0.01392693
-0.003982344
-0.006431014
-0.0002577386
-0.004946663
-0.01801503
0.001271921
-0.003833134
-0.006639042
4.488183e-05
-0.005097005
-0.01025764
0.0001270342
0.002636068
0.006579361
0.002466334
0.0002665544
-0.01185779
-0.00199057
0.00114937
0.009757417
0.002315013
8.475307e-05
-0.01144861
-0.002372608
0.0004363471
0.009220647
0.002260007
0.0002217284
-0.01132428
-0.00228848
0.0001861372
0.009258105
0.00229065
-4.675938e-05
-0.01182101
-0.002352312
-4.426045e-05
0.009841758
0.002228035
-0.0001992717
-0.01081846
-0.002288434
-0.0002624148
0.009734863
0.002220742
-0.0004324123
-0.01027644
-0.002390953
-0.0001187819
0.01245473
0.002172772
-0.001102538
-0.006915966
-0.002511702
-0.0002471325
0.01064896
-0.0001142913
-0.002678629
0.0007579972
-0.001336499
0.001378673
0.01054641
0.00723264
0.002806634
0.005969607
0.01001732
0.01669444
0.004553552
0.003348185
0.004076806
0.01615015
0.01297016
0.004556353
0.003293869
0.003788097
0.01584152
0.01304099
0.004358327
0.003086936
0.003752611
0.01556207
0.01331831
0.004487618
0.002992699
0.003790193
0.01573333
0.01340588
0.004562372
0.002884347
0.003803264
0.01588918
0.01349126
0.004663799
0.00277169
0.003830142
0.01603819
0.01357249
0.004761764
0.002650901
0.003860167
0.01618385
0.01363915
0.00486974
0.002521874
0.003908207
0.01632704
0.01369709
0.004982408
0.002375102
0.003950815
0.01646284
0.01374656
0.005103162
0.00222126
0.004008127
0.0166207
0.01378602
0.005232337
0.002056284
0.004078687
0.01676827
0.01382056
0.005365897
0.001883695
0.004156574
0.01691504
0.01384904
0.005490727
0.001696512
0.004244248
0.01705258
0.01387392
0.005614074
0.001495535
0.004335913
0.01719267
0.01389485
0.005748078
0.001277232
0.004437821
0.01733422
0.01390876
0.005893292
0.001046476
0.004548031
0.01745925
0.01392094
0.006219581
0.0005349198
0.004794489
0.01773132
0.01393104
0.006411233
0.0002529544
0.004933874
0.01787114
0.01392548
0.006593351
-5.724835e-05
0.005065158
0.01801297
-0.001309448
-3.660519e-06
-0.003169993
-0.001357521
0.002404166
-0.01921481
0.01499292
0.001721488
0.004941226
-0.0001690355
0.0005131372
-0.02969065
0.0174708
-0.005758695
0.008334702
-0.001082864
0.0001830737
-0.03044262
0.01702028
-0.008214789
0.009022014
-0.001041874
0.0001673742
-0.0303733
0.0172711
-0.008485994
0.009568892
-0.001145388
0.0001349795
-0.03049253
0.01714514
-0.008932922
0.009453841
-0.001205225
-0.03028567
-0.008788381
-0.00520956
-0.00592888
-0.006858393
-0.006249309
-0.004474357
-0.008121927
-0.004308696
-0.006196142
-0.004234134
-0.007609548
-0.0037776
-0.006821042
-0.004128184
-0.007557907
-0.003830761
-0.00747251
-0.004120169
-0.007783915
-0.00382606
-0.007799847
-0.004095529
-0.007989349
-0.00378999
-0.008052221
-0.004109328
-0.008053931
-0.003786121
-0.0083055
-0.004123925
-0.008172285
-0.003787738
-0.008562166
-0.004152064
-0.008198576
-0.003802764
-0.008833051
-0.004192122
-0.008183297
-0.003830717
-0.009117014
-0.004240433
-0.008273088
-0.003872343
-0.009418003
-0.004297238
-0.008337454
-0.003925384
-0.009720922
-0.004365024
-0.008306072
-0.003989337
-0.01002691
-0.004435707
-0.008312716
-0.004052793
-0.01035313
-0.004518817
-0.008251343
-0.00412312
-0.01072237
-0.004602528
-0.008222571
-0.004188888
-0.01107141
-0.004683533
-0.008049121
-0.004234465
-0.01139548
-0.004770859
-0.00792926
-0.004272982
-0.01173278
-0.004859051
-0.007989583
-0.0043122
-0.01202373
-0.004954344
-0.008036259
-0.004357579
-0.0123145
-0.005057395
-0.008092287
-0.00440492
-0.01269449
-0.005169036
-0.008006503
-0.004455256
-0.01307275
-0.005301146
-0.007906319
-0.004517133
-0.01370434
0.0005358721
0.002383654
-0.0005813156
0.0009183565
-0.0003776226
-0.0002548628
0.0003599168
-0.0004123504
8.708735e-05
-0.0001088204
5.773182e-05
0.0001038195
7.265442e-05
-0.0008372526
-0.001537553
-7.696786e-05
-0.005227363
-0.001473414
-0.01486602
-0.001684706
-0.004943446
0.001362688
-0.002406947
-0.0174766
0.005760349
-0.008338077
0.0001680481
-0.000513438
-0.01701862
0.008221036
-0.009050648
0.001084831
-0.0001878323
-0.01723271
0.00860109
-0.009489725
0.001042107
-0.0001759608
-0.01722625
0.008751243
-0.009556644
0.001138159
-0.0001370718
0.008942283
0.001205703
0.004079141
0.003153705
0.00355498
0.01518134
0.0130846
0.004392085
0.003154544
0.003729678
0.01545682
0.013224
0.006051311
0.0007996026
0.00466544
0.01759307
0.01392764
-0.007223892
0.001190635
0.007904091
-0.002244848
-0.007136985
-0.005509879
-0.007794676
-0.002283896
0.004623572
0.002557359
-0.005015019
-0.007968561
-0.004352235
-0.007723373
-0.004497301
-0.006326189
-0.004502946
-0.007523022
-0.004309992
-0.006707938
-0.004421292
-0.007362477
-0.004273056
-0.007515346
-0.004222292
-0.007388264
-0.00422771
-0.007767808
-0.004258757
-0.007629953
-0.004201688
-0.007988023
-0.004234123
-0.007830141
-0.00419241
-0.008222253
-0.004221918
-0.00804417
-0.004187558
-0.008484937
-0.004209489
-0.008309297
-0.004195911
-0.008750718
-0.004211669
-0.008612485
-0.004221505
-0.009017689
-0.00422889
-0.008850166
-0.004257043
-0.009295464
-0.004257236
-0.009078806
-0.004305499
-0.009603722
-0.00429833
-0.009314407
-0.004364022
-0.009939457
-0.004351023
-0.009688309
-0.004430274
-0.01030241
-0.004410439
-0.01008282
-0.004508704
-0.01068888
-0.004476839
-0.0104391
-0.004593213
-0.01112449
-0.004540377
-0.01086723
-0.004679499
-0.01158491
-0.00460647
-0.01148563
-0.004770949
-0.01208299
-0.004674911
-0.01207706
-0.004865934
-0.01261248
-0.004748466
-0.01262775
-0.004970454
-0.01318864
-0.004828394
-0.01327149
-0.005087282
-0.01381322
-0.004920223
-0.01399882
-0.005221634
-0.01448702
-0.005029788
-0.01493621
-0.005382366
0.01831342
-0.01562193
-0.005153596
0.001027422
-9.865583e-05
-0.0005769206
0.0003817591
0.0002534349
0.0001729535
-0.0005223047
0.000101049
0.001125506
0.0002432121
0.0009109548
-2.125474e-05
-0.0007722887
-0.0005422137
-0.0006131561
-0.001695991
-0.0002045704
0.0030998
0.007216648
-0.00117662
-0.007911964
0.002224477
0.007185434
0.005508686
0.007804565
0.002309768
0.00518622
0.005925339
0.006851649
0.006251268
0.005019954
0.007954843
0.004354475
0.007709991
0.004473012
0.008109229
0.004307404
0.006191602
0.004498392
0.006318713
0.004504989
0.007515772
0.004232336
0.007607822
0.003780905
0.006806377
0.004097823
0.008012278
0.003789674
0.008056851
0.004202746
0.007996479
0.004232133
0.007817043
0.004109212
0.008055101
0.003787446
0.008310257
0.004192298
0.008229504
0.00422057
0.00803596
0.004123475
0.008169849
0.00378836
0.008568771
0.004186025
0.008493692
0.0042068
0.008301358
0.004150411
0.008202316
0.003801702
0.008840329
0.004194214
0.008761252
0.004207897
0.008589181
0.004190685
0.008165594
0.003830475
0.009120185
0.004219979
0.009031
0.004223198
0.008786105
0.004295692
0.008315176
0.003924013
0.009733015
0.004304332
0.009611503
0.004298063
0.009293107
0.0043661
0.008309649
0.00399097
0.01003821
0.004364185
0.00995143
0.004350252
0.009658576
0.004522757
0.008248011
0.004122012
0.01072877
0.004509079
0.01069726
0.004476527
0.01042619
0.004591051
0.01113357
0.004539476
0.01085537
0.004683392
0.008065027
0.004232737
0.01141697
0.004678067
0.01160067
0.004602574
0.01143378
0.004791968
0.007813267
0.004264912
0.0116658
0.005150657
0.008036155
0.00445862
0.01311497
0.005205043
0.01450953
0.005021109
0.01497883
0.0052695
0.007933762
0.004486515
0.01356343
0.005361906
0.01430425
0.01585433
0.00511945
0.006205004
-0.01509859
0.00124539
0.001382825
-0.0001341356
-4.863234e-05
-0.0020324
0.0005755496
0.0002190728
-0.002310551
-0.001349482
0.001195801
-0.0007274192
0.001446153
0.0009016846
-0.0004065696
3.013275e-05
-1.603832e-05
0.0007443871
-0.0009251391
-0.00124993
0.001316308
-0.0006264101
0.0005005191
-5.933175e-05
0.0004114518
-0.0005218345
0.002060241
-0.0004184886
-0.000466959
0.0001020143
-0.0003809527
-0.001331426
-0.0001360648
-0.0007732465
0.0001989906
-0.001631506
-0.00136595
-0.006214809
0.01507062
0.001575862
-0.0001719843
-0.001322934
-0.0001889668
-0.002938075
0.01287
-0.003286268
0.01183323
-0.0035272
0.01219399
0.01304676
-0.003259144
-0.004687045
0.01243216
-0.004743461
0.01242636
-0.004743728
0.01257445
0.01262736
-0.004790413
0.004308454
0.006695683
0.004409517
0.007367387
-0.00499808
0.01265487
-0.005071511
0.01270476
-0.005181125
0.01260458
-0.005408247
0.01271161
-0.005165266
0.01273553
0.01274987
-0.005277972
-0.005372461
0.01266362
-0.005630057
0.01280941
-0.005351604
0.01281991
0.01280024
-0.005498147
-0.005826047
0.01282534
-0.006158469
0.01300584
-0.005786369
0.01303127
0.01294278
-0.00599164
0.004259373
0.008217046
0.00386334
0.009417186
0.004273113
0.009302318
0.004254204
0.009203814
-0.006301487
0.01329466
0.01311467
-0.00656875
-0.006680177
0.01319404
-0.007118804
0.01333191
-0.0065838
0.0134434
0.01319744
-0.006885619
-0.00701028
0.01333907
-0.007483571
0.01345263
0.004435925
0.008298834
0.004055641
0.01034675
0.004429311
0.01032031
0.004396275
0.01015024
-0.007238154