/*--------------------------------*- C++ -*----------------------------------*\
  =========                 |
  \\      /  F ield         | OpenFOAM: The Open Source CFD Toolbox
   \\    /   O peration     | Website:  https://openfoam.org
    \\  /    A nd           | Version:  7
     \\/     M anipulation  |
\*---------------------------------------------------------------------------*/
FoamFile
{
    version     2.0;
    format      ascii;
    class       volScalarField;
    location    "0.1";
    object      Uz;
}
// * * * * * * * * * * * * * * * * * * * * * * * * * * * * * * * * * * * * * //

dimensions      [0 1 -1 0 0 0 0];

internalField   nonuniform List<scalar> 
90967
(
-0.03454536
-0.001119595
-0.0001859892
-0.000130601
-0.0006542144
-0.0009243224
-0.03985985
-0.0008654533
0.003819271
0.001175865
0.001095437
0.0004989723
-0.04593267
-0.003022569
0.002587074
0.0007178935
0.0002888431
0.0001629951
-0.04350788
-0.002388683
0.003076262
0.000878526
0.0005699792
0.0001924737
-0.04430114
-0.002593154
0.002900424
0.0008160365
0.0003170502
9.390564e-05
-0.04438305
-0.002672856
0.003005161
0.0007611661
0.0003346364
5.591044e-05
-0.04533585
-0.00271837
0.002949617
0.0007928509
0.0002621503
4.90452e-05
-0.04584707
-0.002569147
0.002891408
0.0008307726
0.0002858243
4.450687e-05
-0.04673267
-0.002353668
0.002881691
0.0009260368
0.0002887186
4.608275e-05
-0.04751582
-0.002251329
0.002962218
0.001260502
0.0005235171
0.0002465784
-0.04764138
-0.00245204
0.003046206
0.001646852
0.0009219783
0.0004135687
-0.04714979
-0.002604818
0.003297256
0.002474652
0.002192012
0.001743027
-0.04629616
-0.003148635
0.003458868
0.00304458
0.003336603
0.003248709
-0.04459148
-0.002768825
0.004286313
0.005238964
0.006968386
0.008880254
-0.04225555
-0.002989266
0.004322375
0.00586872
0.009453085
0.01450001
-0.03899497
-0.001044034
0.005878173
0.009804417
0.01695807
0.02919965
-0.03394646
-0.004954335
-0.0007290665
0.002448377
0.01518248
0.04418771
-0.05023092
-0.04998922
-0.06591421
-0.08014823
-0.09154051
-0.08837098
-0.05777127
-0.07543185
-0.08490105
-0.09096752
-0.1008184
-0.1115947
-0.1263918
-0.01182795
-0.0238204
-0.04171988
-0.05462387
-0.0593594
-0.05669742
-0.04586478
-0.0007724222
-0.001423531
-0.0006829422
-0.004860962
-0.003463252
-0.005302812
-0.005065426
-0.0182125
-0.01324086
-0.01280995
-0.01189196
-0.01477589
-0.01473374
-0.01483645
-0.0295577
-0.004929593
0.007304834
-0.0006881458
-0.0003776843
-0.0002069886
-6.513201e-05
-0.01220686
0.01018419
-0.008974828
0.001789632
-0.002777652
-8.057548e-05
-0.000917378
-0.01182574
0.006872232
-0.003803943
0.0003737765
-0.001496994
-0.0003549147
-0.0004780875
-0.01013114
0.009462219
-0.007653528
0.00082266
-0.002673284
-0.0004543781
-0.0009798944
-0.008559136
0.008214364
-0.00672629
0.0006905055
-0.002248656
-0.0004821084
-0.0007324754
-0.008380484
0.007767429
-0.006946972
0.0006955905
-0.002599024
-0.0004712381
-0.0008818201
-0.007541526
0.006955192
-0.006702656
0.0008104263
-0.00245269
-0.0004071759
-0.0007589805
-0.007021885
0.006982785
-0.006660245
0.0009035528
-0.002383916
-0.0002551081
-0.0006407766
-0.00668463
0.007032692
-0.006395606
0.001159384
-0.002169851
-7.183066e-05
-0.0004342073
-0.006716917
0.006965931
-0.006100712
0.001638035
-0.001584558
0.0005968234
0.0003551717
-0.007449773
0.007109371
-0.0060092
0.001993434
-0.0009675041
0.001263792
0.0008506386
-0.008269607
0.007733885
-0.005570853
0.002938798
0.000922981
0.004095604
0.004607237
-0.009133297
0.008346776
-0.006028568
0.00311083
0.00131449
0.004844648
0.005420388
-0.009842817
0.009570514
-0.004353837
0.005366446
0.006676466
0.01393395
0.02063009
-0.01040153
0.009770594
-0.00608857
0.003172382
0.003104264
0.00958021
0.01541858
-0.0110599
0.008721407
-0.0008469422
0.008778746
0.01691582
0.03568539
0.06619019
-0.009826064
0.008878534
-0.01081692
-0.004576819
-0.008580523
-0.0003364005
0.01494502
-0.01203055
-0.01181442
0.005476925
0.007560367
0.01902818
0.04318651
0.1016259
-0.02477954
0.005202806
0.008070536
0.008092484
0.01397244
0.0279304
0.08209614
0.2556857
-0.001837885
-0.0006118317
-0.002353549
-0.004295002
-0.001178365
-0.0002457912
-0.001462033
-0.04347335
-0.01201383
0.006851047
-0.007791311
-0.0004784121
-0.002914498
-0.007227698
-0.01241487
0.0113945
-0.001076946
0.0005122151
-0.0003013642
-0.0003920057
-0.02292879
-0.01066671
-0.01245595
-0.001751613
-0.003471895
-0.001075503
-0.001645006
-0.02317957
-0.01415474
-0.004132718
-0.001773836
-0.000969476
-0.0001735984
-0.0003192756
-0.02584642
-0.01304027
-0.009277748
-0.0018986
-0.002328933
-0.0003593371
-0.0007630773
-0.02566626
-0.01455225
-0.00783724
-0.002151533
-0.001464309
-0.0001899117
-0.0003185274
-0.02464105
-0.01469917
-0.008623821
-0.002077852
-0.001873345
-0.0001325853
-0.0004135356
-0.02381736
-0.0150721
-0.008535662
-0.001908064
-0.001581849
5.152768e-05
-0.000150724
-0.02352464
-0.01422422
-0.008904718
-0.001661115
-0.001484432
0.0003306201
0.0001490485
-0.02330386
-0.01328592
-0.00912069
-0.001336821
-0.001181014
0.0007177905
0.0006314756
-0.02306744
-0.01228427
-0.009086366
-0.0008290559
-0.0005468948
0.001629647
0.001865407
-0.02271405
-0.01159049
-0.008884969
-0.0003747016
6.904538e-05
0.002495421
0.002995356
-0.02217828
-0.0105665
-0.00813594
0.0008014678
0.002028697
0.005458594
0.007361672
-0.02151701
-0.009553009
-0.007936376
0.001232505
0.002494081
0.00647448
0.008696687
-0.02073136
-0.008141647
-0.006188595
0.003878467
0.007531984
0.0149711
0.02331262
-0.01937988
-0.007015793
-0.007927454
0.001896734
0.003778577
0.01017902
0.0165374
-0.01828086
-0.007055997
-0.004905867
0.004636401
0.0127587
0.02920798
0.05872783
-0.01360604
-0.003833097
-0.01590013
-0.009079435
-0.01514751
-0.01348764
-0.01112564
-0.01423232
-0.01605068
-0.005060788
-0.009272725
-0.0005917657
0.02082304
0.08210777
-0.02344873
0.0162111
-0.03380129
-0.01846653
-0.03534806
-0.04720359
-0.06042147
-0.002201571
-0.006542874
-0.002723566
-0.003808149
-0.008359822
0.004377533
0.001559187
0.0006093606
-0.003198512
-0.001067792
-3.522314e-05
0.0006005431
-0.05127915
-0.005421405
-0.001962715
-0.001871293
-0.0009513698
-0.0009411401
0.002580202
-0.0008122973
0.006936355
-0.0003794445
0.0008609534
0.0002870899
-3.240569e-05
0.01664848
0.0009728156
-5.889133e-05
0.0001371303
-0.0005414561
2.970804e-05
-0.0002908131
0.01873733
0.0024045
0.003592834
0.0002704388
0.0005459944
0.0004056127
0.0001278593
0.02081029
0.003331338
0.001621978
0.0005251408
2.280837e-05
0.0004088402
-1.53486e-05
0.02084803
0.003002834
0.00234291
0.0003116888
0.0004286212
0.0004778007
0.0002262404
0.02102528
0.003271384
0.002047196
0.0003770708
0.0002683055
0.0005286515
0.0002032731
0.02076421
0.003162236
0.002223798
0.0004165211
0.0004842147
0.0006390625
0.0004117925
0.02061195
0.003175048
0.002232202
0.0004906024
0.0006056846
0.0008547468
0.0006607747
0.02045804
0.003150811
0.002314617
0.0006363633
0.0008734255
0.001190963
0.00108872
0.0202276
0.003187156
0.00241745
0.0009484439
0.001396705
0.001928563
0.002047837
0.01992996
0.003348498
0.002506023
0.00131556
0.001990863
0.002782692
0.003174181
0.01939319
0.00369981
0.002847212
0.00221819
0.00342758
0.004962627
0.006288342
0.01853022
0.00390513
0.00277899
0.002718706
0.004269657
0.006487362
0.008634546
0.01728572
0.004384127
0.003548979
0.004435039
0.007358338
0.01171931
0.0170228
0.015466
0.004237609
0.002176587
0.003243697
0.005424117
0.0100807
0.01645321
0.01249789
0.003870443
0.003594825
0.005420384
0.01010422
0.01838669
0.03321769
0.009861985
0.004216766
0.0003741169
0.005036122
0.006534953
0.01333854
0.02596653
0.001227172
-0.001148378
0.00680776
0.01085324
0.01900105
0.03009682
0.0512156
-0.01097885
0.004175508
0.00617939
0.02246725
0.03627609
0.05560712
0.08803514
-0.0005473436
-0.001320686
0.000477893
-0.0003794881
0.001511614
0.001042583
0.0005046323
0.0004120198
-0.001403384
0.0002132312
0.0004933232
0.001410561
-0.04300611
-0.002843759
0.0001018962
-0.001872213
-0.000178813
-0.000947614
-0.001233633
-0.002448781
0.0002875181
-0.0006227123
-0.0005545457
-0.0003418866
-0.0004562503
-0.005542006
-0.001473352
-0.004411667
-0.001023369
-0.001850454
-0.0005629984
-0.0008355762
-0.003628097
2.683882e-05
-0.00324351
-0.0007849042
-0.00125847
-0.0003868023
-0.0004638995
-0.006112645
-0.001098579
-0.004501554
-0.001383339
-0.001964301
-0.0005295367
-0.0006382388
-0.004879558
-0.0004168672
-0.004463467
-0.001243651
-0.001822761
-0.0004525295
-0.0004649231
-0.005199446
-0.0009313483
-0.004692906
-0.001413083
-0.002125836
-0.0004773146
-0.0005108512
-0.004899944
-0.0007260882
-0.004601814
-0.001381668
-0.002067042
-0.0004074335
-0.0004108913
-0.004983847
-0.0006002018
-0.004596513
-0.001341032
-0.002072166
-0.0003257711
-0.0003206033
-0.004861044
-0.0004022859
-0.00450724
-0.001260541
-0.001971903
-0.0002066199
-0.000157909
-0.004809746
-0.0002754299
-0.00441907
-0.001136696
-0.001794641
4.694499e-05
0.0001872684
-0.004611211
-0.0002067955
-0.004286836
-0.001027671
-0.001594523
0.0002556868
0.0004804059
-0.004515588
-0.000127433
-0.004094618
-0.0007605525
-0.001007582
0.001008981
0.001671279
-0.004444132
-0.0002371513
-0.004037871
-0.0008126257
-0.001064451
0.000910882
0.001557136
-0.00435737
-0.0001866574
-0.003675226
-0.0003929167
-0.000107972
0.002476952
0.004817311
-0.004306792
-0.000722776
-0.004342615
-0.001761796
-0.002334192
-0.001178112
-0.0004132049
-0.004098613
-0.000796038
-0.003093648
8.348003e-05
0.001740446
0.005808951
0.01245377
-0.003733656
-0.001965676
-0.006223475
-0.004456434
-0.006801154
-0.007442954
-0.008331131
-0.0030607
-0.002335997
-0.0006229584
0.001661203
0.005223083
0.01039635
0.01937628
-0.01048763
-5.454233e-05
-0.004407352
-0.001316714
-0.0003336236
0.002590981
0.008429688
-6.694185e-05
-0.0009640884
-0.0007942176
-0.0007958123
-0.001632565
0.0002275153
0.0001922751
-2.102608e-05
-0.000614451
-0.0005169665
-0.0004136611
-0.0006006698
-0.03895884
0.003013578
0.0001194339
0.002094594
0.0002800322
0.0008966651
0.0007033134
0.002614549
-0.0002035143
0.0007701565
0.0006019319
0.000425211
0.0003761989
0.00554952
0.001581251
0.004480821
0.001174976
0.001969576
0.0006446345
0.0008255267
0.003718887
7.039285e-05
0.003297681
0.0008696141
0.001276105
0.000427845
0.0004266951
0.006142028
0.001156547
0.004534795
0.001452099
0.002005002
0.0005679578
0.0006269628
0.004907212
0.000459164
0.004488356
0.001281128
0.001827166
0.0004634298
0.00044209
0.005198947
0.0009461615
0.004704689
0.00143251
0.002132329
0.0004798726
0.0004900549
0.004893143
0.0007270764
0.004623036
0.001391474
0.002068569
0.0003967948
0.0003861436
0.004946942
0.0005703371
0.004605667
0.00133005
0.002063119
0.0003009544
0.0002872611
0.004820872
0.0003552552
0.004545334
0.00125779
0.001983248
0.0001836433
0.0001240234
0.004600846
5.919588e-05
0.004414625
0.001089742
0.001765472
-9.124535e-05
-0.0002386572
0.004592858
0.0001994371
0.004349485
0.001026049
0.001632467
-0.0002831874
-0.0005252844
0.004450554
9.89065e-05
0.004134483
0.0007585459
0.001015258
-0.001042312
-0.001729555
0.004426994
0.0002414407
0.004098744
0.0008235288
0.001100217
-0.000926271
-0.001606939
0.004317659
0.0001547879
0.003715023
0.0003928219
0.000147632
-0.002484053
-0.004859856
0.004183645
0.0005973104
0.00432987
0.001725685
0.002361543
0.001186102
0.000376497
0.00384144
0.0004847122
0.003052907
-0.000163016
-0.001666354
-0.005736724
-0.01240331
0.003657809
0.00186387
0.006226996
0.004414885
0.006975106
0.007674114
0.008404509
0.003011584
0.002279971
0.0006661477
-0.001661728
-0.004937508
-0.0099815
-0.01903246
-0.008500055
0.001613824
0.004529947
0.00152259
0.001020897
-0.001660518
-0.007693427
7.25816e-05
0.0009129076
0.0006116472
0.0006059208
0.001546872
-0.0004283193
-0.0002566025
-5.384943e-06
0.000536752
0.00041743
0.0003959325
0.0006086045
-0.03198069
0.00556986
0.002239756
0.00222398
0.001170287
0.0006461614
0.002299987
0.001224895
-0.006958171
0.000507392
-0.0009070591
-0.0002773718
-9.533638e-05
-0.01662459
-0.0008776671
9.623484e-05
5.834213e-05
0.0006897844
7.57e-05
0.0002540495
-0.01862364
-0.002183525
-0.003554659
-0.0001785823
-0.0005637531
-0.0003918638
-0.000188667
-0.02078098
-0.003254485
-0.00159846
-0.0004475089
1.877044e-05
-0.0003682775
-7.898449e-07
-0.02081229
-0.00292497
-0.002324779
-0.0002705068
-0.0004370686
-0.0004730427
-0.0002585116
-0.02101582
-0.003245313
-0.002041233
-0.0003575104
-0.0002646739
-0.0005268298
-0.0002232636
-0.02074124
-0.003122591
-0.002205365
-0.0003983389
-0.0004857893
-0.000649623
-0.0004393008
-0.02060112
-0.003103334
-0.00222388
-0.0004858889
-0.0006179525
-0.0008767412
-0.0006956932
-0.02039777
-0.003020717
-0.002254625
-0.0005928321
-0.0008667975
-0.001207979
-0.001122077
-0.0204171
-0.003019848
-0.002453869
-0.000933054
-0.001420149
-0.001962657
-0.002099462
-0.01955567
-0.00312344
-0.002390978
-0.001236273
-0.001962554
-0.00279589
-0.003215588
-0.0189696
-0.003479108
-0.002773027
-0.002149576
-0.003418917
-0.004983615
-0.006344735
-0.01811802
-0.0037409
-0.002653949
-0.002648621
-0.004224252
-0.006481445
-0.008672259
-0.01699221
-0.004243451
-0.003445145
-0.004395455
-0.007330199
-0.01174419
-0.01707423
-0.01533982
-0.004088774
-0.002113892
-0.003223174
-0.005356866
-0.009987827
-0.01644245
-0.01286945
-0.003816866
-0.003638146
-0.005478402
-0.01016208
-0.01852814
-0.03329143
-0.009739388
-0.004064739
-0.0004409627
-0.005229504
-0.006546523
-0.01304069
-0.02594028
-0.001098627
0.001135311
-0.006751287
-0.01055274
-0.01856865
-0.03004238
-0.05123298
-0.006538476
0.002043117
-0.006600737
-0.02327712
-0.03758528
-0.05649184
-0.08848237
0.0004573695
0.001112811
-0.0007681754
0.0006170937
-0.001633449
-0.0010447
-0.0005279578
-0.0004362329
0.001408532
-0.0001172032
-0.0002442519
-0.001404047
-0.01432725
0.01236782
-0.006281395
0.008500388
0.0005113188
0.002851277
-0.001654551
0.01263177
-0.01128579
0.001264974
-0.0004618393
0.00055838
2.794475e-05
0.02279734
0.01086551
0.01252725
0.001988156
0.003731098
0.00120091
0.001602022
0.02359469
0.01433719
0.004204755
0.001868407
0.0009580642
0.0002361202
0.000240623
0.02597864
0.01311159
0.009300314
0.001986361
0.00238454
0.0004152747
0.0007514999
0.02571343
0.0146064
0.007860525
0.002197217
0.001461564
0.0002121015
0.0002956629
0.0246354
0.01471101
0.008635935
0.002102879
0.001884319
0.0001441669
0.0004003396
0.02377453
0.01503917
0.008567272
0.001915088
0.00158351
-5.219424e-05
0.0001351721
0.0234962
0.01416547
0.008943644
0.00163913
0.001480412
-0.0003457097
-0.0001668663
0.0232489
0.01308382
0.009260985
0.001302142
0.00118975
-0.000735999
-0.0006508479
0.02247558
0.01112191
0.009367464
0.0006496938
0.0005273068
-0.001684855
-0.001891276
0.02228547
0.0113067
0.009240693
0.000310691
-3.509161e-05
-0.002522249
-0.003014877
0.02138949
0.01014978
0.008343665
-0.0008513492
-0.002004876
-0.005484553
-0.007383134
0.02088095
0.009298432
0.008135633
-0.001256839
-0.002421143
-0.006457803
-0.008693778
0.02038222
0.007988779
0.006341485
-0.003873504
-0.007403334
-0.01488932
-0.02325179
0.0187698
0.006419064
0.008004221
-0.001982373
-0.003707444
-0.01007302
-0.01644524
0.01751503
0.005593317
0.005077265
-0.004741287
-0.01240383
-0.0287015
-0.05829911
0.01315533
0.003241976
0.01593266
0.008604691
0.0147357
0.01308671
0.01077037
0.01375685
0.0159229
0.005447175
0.009600143
0.001819055
-0.01838876
-0.08067441
-0.004007587
-0.002917703
0.03451145
0.02043902
0.04012293
0.05318282
0.0639169
0.002344295
0.007609512
0.002257112
0.002610662
0.008449547
-0.001847849
-0.001642091
-0.0006609014
0.002829934
0.0006197459
-0.0003153479
-0.0005838645
0.008633754
0.01899446
0.0191675
0.0275537
0.02359019
0.02028053
0.0214108
-0.006341644
0.006849861
-0.007777618
0.0004767862
-0.0003737472
-5.366487e-05
-0.000227188
-0.0005069293
-0.0101082
0.008774932
-0.001438267
0.00317143
0.000188401
0.000907621
-0.007967942
-0.006047177
0.003721537
-0.0002913888
0.001374134
0.0003015997
0.0004008273
-0.002568184
-0.0093555
0.007616241
-0.0007499038
0.002734279
0.0004828985
0.0009750962
-0.004225628
-0.008117901
0.006697566
-0.0006616269
0.002220142
0.0004722353
0.0007086327
-0.003024643
-0.007778646
0.00692711
-0.0006992077
0.002593807
0.0004639083
0.0008698028
-0.002698298
-0.006954299
0.006682259
-0.0008180562
0.002435739
0.0003888761
0.0007401214
-0.001740851
-0.007023905
0.006642566
-0.0009719593
0.002360857
0.0002191031
0.0006182086
-0.0009045541
-0.006157307
0.006391391
-0.001162086
0.002152012
4.692461e-05
0.0004151199
-0.00530661
-0.005992856
0.006060025
-0.001813293
0.001555358
-0.0006587782
-0.0003821728
0.002422063
-0.005632371
0.005876718
-0.001951476
0.0009513937
-0.001283657
-0.0008688998
0.005242428
-0.006236619
0.005168005
-0.002894092
-0.0009710583
-0.004132876
-0.004635142
0.009350028
-0.007229963
0.00586941
-0.003041015
-0.001259328
-0.004779322
-0.005378661
0.01320091
-0.009047906
0.004314401
-0.005398288
-0.0066951
-0.01399024
-0.020641
0.01809522
-0.008254152
0.006153916
-0.002964676
-0.002596271
-0.00887095
-0.01491902
0.02027465
-0.007759681
0.001026588
-0.009132757
-0.0173391
-0.03649869
-0.06651461
0.03118395
-0.007373812
0.01119991
0.004731716
0.01107762
0.005220471
-0.0117657
0.04135631
0.01106833
-0.006268378
-0.007831066
-0.02386532
-0.05378149
-0.108179
0.02037235
-0.02261413
-0.03911219
-0.06394667
-0.07046675
-0.08082389
-0.09001542
-0.151056
-0.004005574
0.0004899554
0.002167017
0.004802309
0.002039285
0.0002664966
0.0005865217
0.008330296
0.02146185
0.01617139
0.01824741
0.05609621
0.003874112
0.02605428
-0.008464637
0.03555103
0.000624105
0.0001757783
-0.0003263177
-0.0004415898
0.0005423645
-0.006773648
0.03852976
0.0006954462
-0.003671178
-0.001036626
-0.0009862503
-0.0004849375
-0.01511594
0.04612508
0.002998963
-0.002549311
-0.0008680865
-0.0004086394
-0.0001923132
-0.01775675
0.04351388
0.002386474
-0.003021673
-0.0008516076
-0.0005388819
-0.0001813078
-0.01880628
0.04439836
0.002606789
-0.002845915
-0.0008359708
-0.000318573
-0.0001007725
-0.01940249
0.04443625
0.002696165
-0.002960351
-0.0007492675
-0.0003120308
-5.507252e-05
-0.02040516
0.04546337
0.00275751
-0.002887202
-0.0007805886
-0.0002354752
-4.770458e-05
-0.02100229
0.04586297
0.002585967
-0.002820096
-0.0008059969
-0.0002486676
-4.046003e-05
-0.01991099
0.04596415
0.002292627
-0.002756348
-0.0008877388
-0.000235278
-4.362986e-05
-0.03384166
0.04500104
0.002083452
-0.002798899
-0.001222401
-0.0004552967
-0.0002512965
-0.01342781
0.0461596
0.002225482
-0.002855825
-0.001614244
-0.0008470744
-0.000411599
-0.02080434
0.04588844
0.002302817
-0.003077795
-0.002503314
-0.002139999
-0.001769587
-0.007981036
0.04565737
0.002997921
-0.003258869
-0.002977839
-0.003210721
-0.003218955
-0.004649137
0.04405388
0.002634713
-0.004199456
-0.005292324
-0.007047274
-0.008979953
-0.008465379
0.04051995
0.00275577
-0.003990253
-0.005320768
-0.00871312
-0.01409559
-0.03462869
0.03510178
0.0006295842
-0.005729426
-0.01008029
-0.01774818
-0.02969547
0.00579826
0.03216046
0.004899382
0.001537435
1.037202e-06
-0.0112538
-0.04161704
0.01674923
0.04946969
0.04962951
0.06648611
0.07878848
0.08784183
0.08689227
0.0367198
-0.01211388
-0.04011049
-0.04709109
-0.06779578
-0.07553584
-0.08096952
-0.1322384
0.001038268
0.0006115359
-0.002133428
-0.00598795
0.00106163
-0.01730314
-0.01088734
-0.0004298767
-0.04381823
-0.02963652
0.01845606
0.04528221
-0.01284525
0.01222974
-0.008215204
-0.009008759
0.02412975
0.002669184
-0.001003797
0.009404072
-0.02154842
-0.003004582
0.01096671
0.01512326
-0.005590962
0.006709883
-0.01796844
-0.007298631
0.01240224
0.01165809
-0.004388145
0.006607459
-0.02290346
-0.009795434
0.00185828
0.007609975
-0.005571821
0.005986148
-0.02497586
-0.01131745
0.002487852
0.00665551
-0.00555203
0.005327464
-0.02576893
-0.01212033
0.001163609
0.006065297
-0.006276538
-0.02606693
0.001414291
-0.05511329
-0.06065047
0.01002528
0.004912872
0.0241744
0.02275795
-0.0617831
-0.06071641
0.01860489
0.03942123
0.01612044
0.0384117
-0.06295915
-0.06168163
0.01702485
0.04012769
0.01830515
0.04197305
-0.06111748
-0.06097296
0.0176686
0.04432502
0.01884874
0.04396789
-0.06194936
-0.06120153
0.01886212
0.04356511
0.01978724
0.04385512
-0.06028103
-0.06086655
0.01943557
0.04291279
0.02083029
0.0443594
-0.05879167
-0.06129808
0.02045751
0.04112072
0.02164318
0.04366785
-0.05931697
-0.06169968
0.02125198
0.04102866
0.02205714
0.0437845
-0.06036709
-0.06239878
0.02184796
0.04127074
0.02233662
0.04414343
-0.06159505
-0.06276242
0.0214812
0.04268345
0.0217576
0.04555922
-0.06269133
-0.06362413
0.02010416
0.04478716
0.01985366
0.04722025
-0.06398545
-0.0647024
0.01752969
0.04769681
0.01731141
0.04954405
-0.06601117
-0.06531024
0.01388549
0.05053014
0.01338823
0.05287765
-0.06776931
-0.06590242
0.009552089
0.05330286
0.007645377
0.05622868
-0.0682364
-0.0657646
0.003706939
0.05618007
-0.0007789677
0.05922848
-0.06693865
-0.06553889
-0.004541362
0.05766488
-0.0126197
0.05948776
-0.0616829
-0.06326757
-0.01469632
0.05589758
-0.02847717
0.05558925
-0.05173664
-0.05589088
-0.02835142
0.04198037
-0.04426125
0.02771806
-0.04913886
-0.002157029
-0.04524492
0.02779408
-0.001735173
-0.007973312
-0.002890956
0.002010713
-0.001989051
-0.01714578
-0.002345862
-0.003833762
0.01108291
-0.02126172
-0.02916405
-0.0006784731
-0.004817076
0.01069072
-0.0220813
-0.04139503
-0.0006592004
-0.006664051
0.02368422
-0.02881455
-0.05165279
-0.001744414
-0.006912446
0.03038468
-0.03718026
-0.05605379
-0.002684698
-0.007856229
0.02714539
-0.04398395
-0.04963586
-0.003633131
-0.008734697
0.02751476
-0.05763589
-0.003957734
0.004893016
0.0002109508
-0.001373047
0.0002804603
-0.03948419
0.004386521
0.009401013
8.052599e-05
0.009485353
0.009683714
-0.0009392559
0.0004235212
0.003809615
-0.00124663
-0.03405127
0.0002957466
0.001688765
0.008196701
0.006432296
0.00527736
0.001013465
-0.0008858139
0.002693169
-0.0004589345
-0.04157149
0.001521879
0.001322297
0.0227645
0.002048144
-0.001019755
-0.0002263012
-0.0001495462
0.002074567
-0.0005588297
-0.02956656
-0.001927645
-0.0007341256
0.02698228
0.001674161
-0.000129209
-0.000745143
8.539021e-05
0.001575708
9.479815e-05
-0.02690743
-0.001619399
0.0002093322
0.0297354
0.001968605
0.0007514544
-0.001461713
-0.0002318685
0.0006789998
-0.0001890189
-0.02249897
-0.001921147
0.001162935
0.0417803
-0.001405417
-0.001090479
-0.002076414
0.0004389938
0.0002633994
7.340582e-05
-0.008070295
-0.006373189
-0.004944661
0.03426538
-0.0001804806
-0.001483805
-0.002681935
0.0003887993
-0.0008330698
0.0009057706
0.0002588149
-0.00917873
-0.009307599
0.03963813
-0.004384191
-0.009243726
-0.003776535
0.001511585
0.001161853
-8.607636e-05
0.02978829
-0.01943082
-0.0455236
0.04357486
0.009058448
-0.02337481
-0.002660433
0.0126462
-0.012352
0.001722119
-0.01106939
-0.01471854
0.0009075104
-0.009638485
0.001126787
-0.01170647
-0.01022183
0.005358218
-0.006232749
0.03673257
0.00143567
-0.00405281
0.006371368
-0.004941427
0.04264975
-0.004338595
-0.01492164
0.008158889
-0.01843097
0.01238859
-0.001689277
-0.006887409
0.005402228
-0.006928354
-0.001673013
0.006329619
-0.0008542063
-0.03351376
-0.02014474
0.05227933
0.05242802
-0.03706099
-0.01521625
-0.04026694
0.0544307
0.05560948
-0.03883974
-0.01885971
-0.04256158
0.06223401
0.06146069
-0.04400289
-0.01892107
-0.04399571
0.06101348
0.06094347
-0.0433717
-0.01978384
-0.04377073
0.06196661
0.06121858
-0.04289209
-0.02080966
-0.04432706
0.06031971
0.0608846
-0.04103869
-0.02159049
-0.04353557
0.05885628
0.06138689
-0.04104516
-0.02154592
-0.04404034
0.05950276
0.06197949
-0.04311188
-0.02393088
-0.04409637
0.06055315
0.06291126
-0.04539071
-0.02366848
-0.04607671
0.06120781
0.06316576
-0.04309124
-0.009964729
-0.04450149
0.05862045
0.05796843
-0.04597288
-0.01849186
-0.04799338
0.06355847
0.06059743
-0.05087218
-0.002253111
-0.05508639
0.0669159
0.06486103
-0.06387452
-0.02465505
-0.06427618
0.06530625
0.06610794
-0.05798611
0.02052657
-0.05327385
0.06159439
0.0551443
-0.03913914
0.02647646
-0.02792514
0.03752366
0.04208082
-0.02980433
0.001183962
0.04679207
0.001947645
-0.001725158
0.002058544
0.006755169
0.003438688
-0.01144011
0.01971776
0.01135421
0.04139152
0.002622522
0.004156673
-0.01037588
0.02325674
0.03855318
0.06390445
0.0001655793
0.005368969
-0.02142528
0.0316754
0.05601964
0.05413822
0.0007147687
0.007844669
-0.02313616
0.03311821
0.07003962
0.0001839884
0.006899021
-0.03108907
0.04342122
0.001510175
0.009129189
-0.02737926
0.06268144
0.05159772
0.00414779
0.008706296
0.006746418
0.04477043
-0.001565361
-0.0009968089
-0.0002305873
0.04474543
-0.0260141
-0.003326775
-0.04227511
0.01349254
-0.03674468
-0.006125845
-0.04651864
0.01257045
-0.04647814
-0.007729299
-0.04646586
0.01657893
-0.04724874
-0.006172802
-0.04531443
0.01828817
-0.0462389
-0.006127786
-0.04622166
0.01832311
-0.04700273
-0.004477971
-0.04565405
0.01998596
-0.04641034
-0.002904087
-0.04515993
0.0228008
-0.04599858
-0.002672506
-0.04627174
0.0236654
-0.04710218
-0.003184164
-0.04807288
0.02459059
-0.04890396
-0.002135271
-0.04994571
0.02469144
-0.05049595
-0.001133837
-0.05149238
0.02628321
-0.05179876
0.0008453355
-0.05293066
0.02831261
-0.05280199
0.005547249
-0.05412006
0.02987535
-0.05257478
0.01189974
-0.05557259
0.03119904
-0.05173986
0.01953284
-0.05705148
0.03242158
-0.0499041
0.02849341
-0.05589968
0.03421802
-0.0467211
0.03811267
-0.05310953
0.0351832
-0.04215965
0.03802191
-0.04784936
0.03146206
-0.04070328
0.01622256
-0.03570728
0.01873391
-0.03812011
-0.05283789
-0.01681601
-0.01951172
0.01432237
0.03034169
-0.04968885
-0.008832344
-0.07196027
-0.04276927
-0.03569715
0.03990671
0.04407427
-0.03853046
-0.0004408141
-0.0849519
-0.05696627
-0.0471088
0.04348251
0.04441828
-0.01172727
0.02060527
-0.09459147
-0.0616775
-0.05374275
0.0418396
0.04039377
0.002512223
0.0317546
-0.1057405
-0.06320337
-0.05565239
0.03869536
0.04143712
0.007022145
0.03020512
-0.1172796
-0.06205216
-0.04577919
0.05749504
0.07444703
0.0003436847
0.02292156
-0.0559542
0.1312182
-0.008652959
-0.006017773
-0.003573288
-0.002192249
-0.003592663
-0.007224745
-0.01012862
0.003756733
-0.0322992
-0.03201562
0.002754781
-0.009594331
-0.008404942
-0.01769482
0.006922205
-0.03142437
-0.02667521
0.004391766
-0.01299562
-0.009878033
-0.02435971
0.008589663
-0.02771119
-0.02071248
0.004032477
-0.01532875
-0.0108962
-0.02757678
0.007122993
-0.02741893
-0.02250834
0.002320154
-0.01677051
-0.0115142
-0.02958224
0.003649057
-0.03755825
-0.0335238
-0.0003645765
-0.01803658
-0.01158205
-0.03698217
-0.0009014361
-0.056356
-0.05589857
-0.004053498
-0.01983355
-0.006102291
-0.09583236
-0.008960666
-0.001910244
0.001223015
-0.0005539709
0.002179941
0.001372324
-0.01937279
0.01241891
-0.004998921
-0.02005147
0.03216958
0.01214249
0.0007892455
0.001478622
-0.0004786752
0.002506476
0.01732676
0.004494007
0.03050673
-0.01056748
0.003984904
0.01607971
0.01543349
0.0007976781
-0.0001639496
0.0002974364
0.002384109
0.009227088
-0.007508518
0.01114344
-0.008462242
0.006485209
0.00334109
0.01161804
0.0007096131
6.770471e-05
0.0002247407
0.001433503
0.009471979
-0.009498245
0.002122371
-0.01122198
0.008499276
4.019301e-05
0.0113058
0.0003295627
-0.0007578356
9.632266e-05
0.001160189
0.01049038
-0.007906244
-1.062067e-05
-0.01129705
0.01043352
-0.002110433
0.01121949
-0.00032693
-0.0008433047
-9.159884e-05
0.001016446
0.01263301
-0.006517687
-0.003319289
-0.01161146
0.01095787
-0.01105676
0.00845751
-0.0004837577
-0.0009294403
-0.000560914
0.00066792
0.003487975
-0.01012456
-0.01601139
-0.01542292
0.02309271
-0.03009796
0.01088101
-0.0004133995
-0.001670125
-0.0006043723
0.0001207194
0.005686753
-0.01581505
-0.03215113
-0.01196496
0.02696727
-0.0149137
0.005257922
-0.0003224589
-0.001433458
-0.000955968
-0.0005542316
-0.002487974
0.0356547
-0.04059911
-0.02068216
-0.04324622
0.05396861
0.05766301
-0.05495628
-0.008965552
-0.05918537
0.06099168
0.06478186
-0.02916325
0.0493744
0.007358257
0.05804247
0.05588047
0.01920782
0.08583481
-0.04296008
0.03841091
-0.0009135075
0.07488423
0.07234393
0.06499946
0.1026652
-0.05305824
0.01152732
-0.02422418
0.0824665
0.08144935
0.07826338
0.06905135
-0.07124127
-0.008088246
0.006040551
0.08907516
0.09065266
0.09369391
0.08238128
-0.07806334
0.01645995
0.0173559
0.1041343
0.1026607
0.1023121
0.08586871
-0.08484399
0.02397633
-0.04416026
0.1024091
0.1136491
0.09828552
0.0602883
-0.0004458592
0.124848
0.05629292
-0.004240629
-0.003354588
0.0004336359
0.002555375
-0.001127968
-0.03915155
0.01116758
-0.03879761
0.002788708
-0.03544732
-0.003640906
-0.04601675
0.01798404
-0.04612278
-0.006017131
-0.04454276
0.01886996
-0.04600647
-0.007123424
-0.04532905
0.01834708
-0.04662798
-0.006004764
-0.04516839
0.018742
-0.04636192
-0.00557838
-0.04574145
0.01913876
-0.04687018
-0.004950708
-0.04646118
0.01987433
-0.04760994
-0.004917772
-0.04741247
0.02025446
-0.04874357
-0.004369473
-0.04828564
0.02091065
-0.04971087
-0.003577426
-0.04927918
0.02148105
-0.05079241
-0.002399009
-0.05039401
0.02273917
-0.05195306
-0.001375473
-0.05178577
0.02390406
-0.0532227
0.0003157828
-0.05357799
0.02439389
-0.05388891
0.004505889
-0.05525446
0.02486538
-0.05328294
0.00971508
-0.05764502
0.02609182
-0.05333617
0.01446254
-0.05963449
0.02825026
-0.05363847
0.01914689
-0.06127582
0.02887846
-0.054162
0.02183832
-0.06083014
0.02669405
-0.05401997
0.02118009
-0.04842747
0.02184793
-0.04452296
0.02457905
-0.01234483
0.003907757
-0.02970125
-0.01539261
-0.008202034
-0.006400435
-0.02571
-0.01798079
-0.006316316
-0.0004518966
0.000326364
-0.0004243774
-3.751149e-05
0.001049754
0.004576274
0.004430596
-0.002933293
-0.0002269079
0.003730221
-0.01356677
-0.01028366
-0.02862545
-0.02480211
-0.009466333
0.002541025
0.004510004
-0.01797225
-0.01220112
-0.02421585
-0.01767465
-0.01064126
0.002149513
0.00332735
-0.02140856
-0.01456483
-0.01736294
-0.01186297
-0.01228837
8.075063e-05
0.001302522
-0.02425603
-0.0169317
-0.0220197
-0.01487496
-0.01360666
-0.001315356
-0.001768723
-0.03064833
-0.01910267
-0.04141025
-0.02610867
-0.01480799
-0.004470038
-0.004912705
-0.04091148
-0.02144196
-0.07490001
-0.05473303
-0.01832525
-0.00981443
-0.005542329
0.01608128
0.0003338239
0.001492486
0.0007258729
0.0009755009
-0.003175681
0.01043829
0.0003303721
0.001680816
-0.0001010044
0.0005149452
-0.0127318
0.006814284
0.0004830926