/*--------------------------------*- C++ -*----------------------------------*\
  =========                 |
  \\      /  F ield         | OpenFOAM: The Open Source CFD Toolbox
   \\    /   O peration     | Website:  https://openfoam.org
    \\  /    A nd           | Version:  7
     \\/     M anipulation  |
\*---------------------------------------------------------------------------*/
FoamFile
{
    version     2.0;
    format      ascii;
    class       volVectorField;
    location    "0.1";
    object      C;
}
// * * * * * * * * * * * * * * * * * * * * * * * * * * * * * * * * * * * * * //

dimensions      [0 1 0 0 0 0 0];

internalField   nonuniform List<vector> 
80136
(
(0.4992635 0.499264 0.09770055)
(0.6997283 0.4996165 0.09558581)
(0.8997417 0.4995601 0.09491135)
(1.099896 0.4994644 0.09475538)
(1.299969 0.4994254 0.09471964)
(1.499999 0.4994156 0.09471847)
(1.700017 0.4994163 0.09472969)
(0.4996162 0.6997279 0.09558518)
(0.6995959 0.6995956 0.09164918)
(0.8995158 0.6995167 0.0904768)
(1.099793 0.6994227 0.09017517)
(1.299934 0.6993793 0.09009935)
(1.499996 0.6993664 0.09008789)
(1.700036 0.6993649 0.09009629)
(0.4995586 0.8997402 0.09490847)
(0.6995156 0.8995135 0.09047277)
(0.8993897 0.8993878 0.08902609)
(1.099728 0.8993232 0.08863497)
(1.299911 0.8992939 0.08853086)
(1.499995 0.8992846 0.08851302)
(1.700054 0.8992836 0.0885232)
(0.4994605 1.099892 0.09474716)
(0.6994181 1.099787 0.09016137)
(0.8993222 1.09972 0.0886222)
(1.099691 1.099683 0.08818533)
(1.299895 1.099666 0.08806361)
(1.499994 1.099661 0.08804199)
(1.700066 1.09966 0.088055)
(0.4994171 1.299961 0.09470129)
(0.6993688 1.299921 0.09006825)
(0.8992871 1.299891 0.08849443)
(1.09967 1.299873 0.08803597)
(1.299885 1.299864 0.08790369)
(1.499991 1.299861 0.08787929)
(1.70007 1.299861 0.08789425)
(0.4994015 1.499986 0.09468432)
(0.6993482 1.49997 0.09003352)
(0.8992701 1.499957 0.08844443)
(1.099658 1.499947 0.08797466)
(1.299877 1.499942 0.08783534)
(1.499986 1.49994 0.08780805)
(1.700067 1.49994 0.08782336)
(0.4993954 1.699994 0.09467743)
(0.6993394 1.699988 0.09001899)
(0.8992614 1.699982 0.08842243)
(1.09965 1.699977 0.08794595)
(1.299871 1.699974 0.08780106)
(1.499979 1.699972 0.0877702)
(1.700057 1.699972 0.0877843)
(0.4993931 1.899997 0.09467428)
(0.6993352 1.899994 0.09001217)
(0.8992566 1.899992 0.08841154)
(1.099645 1.899989 0.0879306)
(1.299865 1.899987 0.0877813)
(1.499971 1.899986 0.08774678)
(1.700042 1.899985 0.08775865)
(0.499392 2.099999 0.09467268)
(0.6993331 2.099997 0.09000878)
(0.8992536 2.099995 0.08840589)
(1.099641 2.099994 0.087922)
(1.299859 2.099993 0.08776939)
(1.499963 2.099992 0.08773151)
(1.700027 2.099992 0.0877408)
(0.4993914 2.299999 0.09467201)
(0.6993318 2.299998 0.09000707)
(0.8992515 2.299998 0.08840276)
(1.099638 2.299997 0.08791704)
(1.299855 2.299996 0.08776226)
(1.499955 2.299996 0.08772202)
(1.700012 2.299996 0.08772905)
(0.499391 2.5 0.09467154)
(0.699331 2.499999 0.0900061)
(0.8992501 2.499999 0.08840114)
(1.099636 2.499998 0.08791453)
(1.29985 2.499998 0.08775848)
(1.499948 2.499998 0.08771659)
(1.699999 2.499998 0.08772173)
(0.4993908 2.7 0.09467142)
(0.6993303 2.7 0.09000576)
(0.899249 2.699999 0.08840045)
(1.099634 2.699999 0.08791343)
(1.299847 2.699999 0.08775671)
(1.499942 2.699999 0.08771389)
(1.699989 2.699999 0.08771751)
(0.4993906 2.9 0.09467132)
(0.6993299 2.9 0.09000565)
(0.8992481 2.9 0.08840032)
(1.099632 2.9 0.08791315)
(1.299845 2.9 0.08775618)
(1.499938 2.9 0.08771291)
(1.699982 2.899999 0.08771538)
(0.4993905 3.1 0.09467132)
(0.6993295 3.1 0.09000565)
(0.8992474 3.1 0.08840033)
(1.099631 3.1 0.08791321)
(1.299843 3.1 0.08775614)
(1.499935 3.1 0.08771265)
(1.699977 3.1 0.0877143)
(0.4993904 3.3 0.09467136)
(0.6993293 3.3 0.09000576)
(0.899247 3.3 0.08840052)
(1.09963 3.3 0.08791348)
(1.299842 3.3 0.08775645)
(1.499933 3.3 0.08771278)
(1.699974 3.3 0.08771409)
(0.4993903 3.5 0.09467141)
(0.6993291 3.5 0.09000594)
(0.8992466 3.5 0.08840083)
(1.09963 3.5 0.08791391)
(1.299841 3.5 0.08775699)
(1.499932 3.5 0.08771323)
(1.699971 3.5 0.08771422)
(0.4993903 3.7 0.09467151)
(0.6993288 3.7 0.09000612)
(0.8992463 3.700001 0.08840111)
(1.099629 3.700001 0.08791441)
(1.29984 3.700001 0.08775761)
(1.499931 3.700001 0.087714)
(1.69997 3.700001 0.08771483)
(0.4993902 3.9 0.09467159)
(0.6993288 3.900001 0.09000638)
(0.899246 3.900001 0.08840165)
(1.099629 3.900002 0.08791519)
(1.299839 3.900002 0.08775873)
(1.49993 3.900002 0.08771533)
(1.699968 3.900002 0.08771635)
(0.4993902 4.1 0.09467179)
(0.6993287 4.100001 0.09000692)
(0.8992457 4.100002 0.08840272)
(1.099628 4.100003 0.08791685)
(1.299839 4.100003 0.08776097)
(1.499929 4.100004 0.08771813)
(1.699967 4.100005 0.08771957)
(0.4993902 4.300001 0.09467232)
(0.6993285 4.300002 0.0900082)
(0.8992456 4.300003 0.08840492)
(1.099628 4.300004 0.08792021)
(1.299838 4.300007 0.08776578)
(1.499927 4.300009 0.08772444)
(1.699966 4.300012 0.08772715)
(0.4993904 4.500001 0.09467337)
(0.699329 4.500003 0.09001076)
(0.8992458 4.500005 0.08840961)
(1.099628 4.500009 0.08792787)
(1.299837 4.500013 0.08777704)
(1.499925 4.500019 0.08773925)
(1.699963 4.500026 0.08774527)
(0.4993913 4.700002 0.0946756)
(0.6993304 4.700005 0.09001646)
(0.8992474 4.70001 0.08842024)
(1.099629 4.700017 0.08794535)
(1.299836 4.700027 0.08780346)
(1.499922 4.70004 0.08777537)
(1.699959 4.700054 0.08778996)
(0.4993934 4.900003 0.0946804)
(0.6993344 4.900009 0.09002797)
(0.8992524 4.900018 0.08844222)
(1.099633 4.900032 0.08798451)
(1.299836 4.900053 0.08786781)
(1.499915 4.900081 0.08786888)
(1.699947 4.900113 0.08790879)
(0.4507566 0.2590658 0.2508445)
(0.650419 0.2584716 0.2516918)
(0.8500162 0.2581545 0.2521379)
(1.049987 0.2580881 0.2521603)
(1.249992 0.2580785 0.2521558)
(1.449995 0.2580778 0.2521583)
(1.649996 0.2580807 0.2521667)
(1.849999 0.2580849 0.2521748)
(0.2590726 0.450749 0.2508441)
(0.5000561 0.5000536 0.2946711)
(0.6995374 0.4995447 0.291774)
(0.8996907 0.4989358 0.290726)
(1.099841 0.4986521 0.2903788)
(1.299939 0.4985499 0.2902763)
(1.500007 0.4985247 0.2902716)
(1.700076 0.498529 0.2903016)
(0.2584719 0.6504184 0.2516918)
(0.4995441 0.6995351 0.2917715)
(0.6989399 0.6989394 0.2863584)
(0.8993341 0.698405 0.2841745)
(1.099663 0.698109 0.2834306)
(1.299871 0.6979794 0.2832015)
(1.500018 0.6979372 0.2831673)
(1.700172 0.6979318 0.2831984)
(0.2581543 0.850016 0.2521377)
(0.4989303 0.899686 0.290715)
(0.6983994 0.8993265 0.2841589)
(0.899013 0.8990081 0.2812669)
(1.099496 0.8988079 0.2802175)
(1.299804 0.8987093 0.2798778)
(1.500026 0.8986743 0.2798194)
(1.70026 0.8986687 0.2798597)
(0.2580876 1.049987 0.2521596)
(0.4986381 1.099829 0.2903487)
(0.6980899 1.099639 0.2833775)
(0.8988005 1.099466 0.280167)
(1.099373 1.099347 0.2789439)
(1.299749 1.099284 0.278531)
(1.500026 1.099261 0.2784567)
(1.700319 1.099257 0.2785082)
(0.2580772 1.249992 0.2521534)
(0.4985204 1.299914 0.2902113)
(0.6979372 1.299817 0.2830829)
(0.8986785 1.299726 0.2797336)
(1.099293 1.29966 0.2784202)
(1.299706 1.299623 0.277962)
(1.500015 1.299609 0.2778759)
(1.700341 1.299605 0.2779356)
(0.2580745 1.449994 0.2521517)
(0.4984727 1.499957 0.2901553)
(0.6978653 1.499908 0.2829618)
(0.8986121 1.49986 0.279549)
(1.099242 1.499824 0.278187)
(1.299671 1.499803 0.2776986)
(1.499993 1.499793 0.2775998)
(1.700324 1.49979 0.2776617)
(0.2580736 1.649994 0.2521511)
(0.4984523 1.699978 0.290131)
(0.6978308 1.699953 0.2829077)
(0.8985758 1.699928 0.279463)
(1.099209 1.699908 0.2780719)
(1.299641 1.699895 0.2775603)
(1.49996 1.699889 0.2774466)
(1.700275 1.699886 0.2775039)
(0.2580732 1.849995 0.2521508)
(0.498443 1.899989 0.2901196)
(0.6978135 1.899975 0.2828815)
(0.8985546 1.899962 0.2794191)
(1.099186 1.899951 0.2780091)
(1.299614 1.899943 0.2774786)
(1.49992 1.899939 0.2773492)
(1.700206 1.899937 0.2773975)
(0.258073 2.049995 0.2521508)
(0.4984382 2.099994 0.290114)
(0.6978039 2.099987 0.282868)
(0.8985412 2.09998 0.2793952)
(1.099168 2.099973 0.2779726)
(1.299589 2.099969 0.2774279)
(1.49988 2.099967 0.277285)
(1.70013 2.099966 0.2773226)
(0.258073 2.249995 0.2521507)
(0.4984356 2.299997 0.2901109)
(0.6977979 2.299993 0.2828608)
(0.8985318 2.299989 0.2793823)
(1.099155 2.299986 0.277952)
(1.299567 2.299983 0.2773978)
(1.499841 2.299982 0.2772446)
(1.700058 2.299982 0.2772724)
(0.2580729 2.449995 0.2521507)
(0.4984338 2.499998 0.2901096)
(0.6977939 2.499996 0.2828574)
(0.8985249 2.499994 0.2793759)
(1.099143 2.499992 0.2779415)
(1.299548 2.499991 0.2773818)
(1.499808 2.499991 0.2772222)
(1.699997 2.499992 0.277242)
(0.2580729 2.649995 0.2521506)
(0.4984328 2.699999 0.290109)
(0.6977909 2.699998 0.282856)
(0.8985196 2.699997 0.2793732)
(1.099134 2.699996 0.2779371)
(1.299533 2.699996 0.2773751)
(1.499782 2.699995 0.2772116)
(1.699949 2.699996 0.2772257)
(0.2580729 2.849995 0.2521506)
(0.4984319 2.9 0.2901088)
(0.6977889 2.899999 0.2828557)
(0.8985155 2.899998 0.2793727)
(1.099127 2.899998 0.2779363)
(1.299522 2.899998 0.2773736)
(1.499762 2.899998 0.2772081)
(1.699913 2.899998 0.277218)
(0.2580729 3.049995 0.2521506)
(0.4984314 3.1 0.290109)
(0.6977872 3.1 0.2828561)
(0.8985125 3.1 0.2793735)
(1.099122 3.1 0.2779375)
(1.299513 3.099999 0.2773748)
(1.499747 3.099999 0.2772085)
(1.699889 3.099998 0.2772154)
(0.2580728 3.249995 0.2521506)
(0.4984309 3.3 0.2901092)
(0.6977861 3.3 0.2828566)
(0.8985102 3.3 0.2793745)
(1.099118 3.3 0.2779392)
(1.299507 3.300001 0.277377)
(1.499737 3.3 0.2772105)
(1.699872 3.299999 0.2772153)
(0.2580728 3.449995 0.2521506)
(0.4984306 3.5 0.2901095)
(0.6977852 3.500001 0.2828573)
(0.8985085 3.500001 0.2793758)
(1.099116 3.500002 0.2779412)
(1.299502 3.500002 0.2773795)
(1.49973 3.500002 0.2772131)
(1.699861 3.500001 0.2772169)
(0.2580728 3.649995 0.2521507)
(0.4984304 3.700001 0.2901097)
(0.6977844 3.700002 0.2828582)
(0.8985071 3.700003 0.2793774)
(1.099113 3.700004 0.2779435)
(1.299499 3.700005 0.2773827)
(1.499725 3.700006 0.2772167)
(1.699854 3.700006 0.2772202)
(0.2580728 3.849995 0.2521507)
(0.4984301 3.900001 0.2901102)
(0.6977839 3.900003 0.2828594)
(0.8985058 3.900005 0.2793797)
(1.099111 3.900007 0.2779471)
(1.299495 3.900009 0.2773876)
(1.49972 3.900012 0.2772226)
(1.699848 3.900013 0.2772264)
(0.2580728 4.049995 0.2521507)
(0.49843 4.100002 0.290111)
(0.6977834 4.100004 0.2828616)
(0.8985047 4.100008 0.2793838)
(1.099109 4.100012 0.2779537)
(1.299492 4.100017 0.2773968)
(1.499716 4.100022 0.2772343)
(1.699843 4.100027 0.2772402)
(0.2580728 4.249995 0.2521507)
(0.4984302 4.300003 0.2901127)
(0.6977832 4.300007 0.2828662)
(0.8985034 4.300013 0.2793927)
(1.099106 4.300021 0.2779679)
(1.299487 4.30003 0.277417)
(1.499709 4.300041 0.2772604)
(1.699836 4.300053 0.2772715)
(0.2580728 4.449995 0.2521508)
(0.4984309 4.500004 0.2901167)
(0.697784 4.500011 0.2828765)
(0.8985029 4.500022 0.2794122)
(1.099102 4.500035 0.2779993)
(1.299478 4.500053 0.2774627)
(1.499696 4.500074 0.2773206)
(1.699822 4.5001 0.2773444)
(0.2580729 4.649995 0.2521509)
(0.4984334 4.700007 0.2901252)
(0.6977878 4.700018 0.2828984)
(0.8985046 4.700034 0.279454)
(1.099097 4.700058 0.2780687)
(1.299463 4.70009 0.2775665)
(1.499671 4.700131 0.2774611)
(1.699793 4.700182 0.2775174)
(0.3503394 4.950055 0.2470138)
(0.4984394 4.900011 0.2901424)
(0.697798 4.900027 0.2829425)
(0.8985125 4.900053 0.2795399)
(1.099093 4.900092 0.2782176)
(1.299436 4.900147 0.2778022)
(1.499614 4.900224 0.2777943)
(1.699722 4.900324 0.2779352)
(0.4517877 0.2586853 0.4503843)
(0.7013544 0.3080829 0.50084)
(0.900375 0.3066107 0.5016914)
(1.099969 0.3060804 0.5018272)
(1.299972 0.3059615 0.5018129)
(1.500003 0.3059378 0.5018112)
(1.700034 0.3059358 0.501822)
(0.2586931 0.4517852 0.4503822)
(0.5001316 0.5001291 0.4982358)
(0.6996817 0.4985284 0.4966291)
(0.8996579 0.496855 0.4957781)
(1.099782 0.4961393 0.4954144)
(1.299909 0.4958918 0.4952871)
(1.500027 0.4958218 0.495276)
(1.700171 0.495814 0.4953069)
(0.3080824 0.7013529 0.5008387)
(0.4985266 0.6996774 0.4966247)
(0.698675 0.6986754 0.4930834)
(0.8991043 0.6976146 0.4910146)
(1.099502 0.6969843 0.4901197)
(1.299801 0.696705 0.4898088)
(1.500066 0.6966095 0.4897616)
(1.70039 0.6965918 0.4898087)
(0.3066076 0.9003725 0.5016875)
(0.4968434 0.8996491 0.4957599)
(0.697601 0.8990904 0.4909884)
(0.8984742 0.8984673 0.4879424)
(1.099176 0.8980292 0.4865343)
(1.29967 0.8978098 0.4860312)
(1.500094 0.8977279 0.4859446)
(1.700606 0.897711 0.4860137)
(0.3060729 1.099963 0.5018171)
(0.4961122 1.099759 0.4953669)
(0.6969438 1.099455 0.4900312)
(0.8980095 1.099116 0.486447)
(1.098908 1.098859 0.4846898)
(1.29955 1.098716 0.4840382)
(1.5001 1.09866 0.4839193)
(1.700755 1.098647 0.4840105)
(0.3059468 1.299961 0.5017912)
(0.4958381 1.299858 0.4951877)
(0.696619 1.29969 0.4896122)
(0.8977398 1.299505 0.4857809)
(1.098728 1.29936 0.4838411)
(1.299453 1.299275 0.4830952)
(1.500077 1.29924 0.4829511)
(1.70081 1.299231 0.4830581)
(0.3059132 1.499981 0.5017718)
(0.4957324 1.499922 0.4951065)
(0.6964654 1.499828 0.4894236)
(0.897592 1.499727 0.4854748)
(1.098613 1.499647 0.4834374)
(1.299373 1.499598 0.48263)
(1.500024 1.499576 0.4824606)
(1.700771 1.499568 0.4825719)
(0.3059011 1.69999 0.5017635)
(0.4956883 1.699958 0.4950685)
(0.6963916 1.699906 0.4893345)
(0.8975107 1.699851 0.4853248)
(1.098538 1.699805 0.4832291)
(1.299304 1.699777 0.4823751)
(1.499947 1.699764 0.4821766)
(1.700655 1.699756 0.4822794)
(0.305896 1.899995 0.5017599)
(0.495668 1.899977 0.4950502)
(0.6963542 1.899949 0.4892895)
(0.8974633 1.899918 0.4852454)
(1.098485 1.899893 0.483111)
(1.299241 1.899877 0.4822194)
(1.499855 1.899868 0.4819901)
(1.700491 1.899863 0.4820755)
(0.3058936 2.099997 0.5017582)
(0.4956578 2.099988 0.4950408)
(0.6963334 2.099972 0.4892658)
(0.8974332 2.099955 0.4852011)
(1.098445 2.099941 0.4830412)
(1.299183 2.099932 0.4821209)
(1.499758 2.099927 0.4818641)
(1.70031 2.099925 0.4819291)
(0.3058923 2.299999 0.5017574)
(0.4956521 2.299993 0.4950362)
(0.6963206 2.299985 0.4892534)
(0.8974121 2.299975 0.4851771)
(1.098413 2.299968 0.4830016)
(1.299132 2.299963 0.4820623)
(1.499668 2.299961 0.481785)
(1.70014 2.299962 0.481831)
(0.3058915 2.499999 0.501757)
(0.4956485 2.499996 0.4950339)
(0.6963119 2.499992 0.4892475)
(0.8973964 2.499987 0.4851656)
(1.098387 2.499983 0.4829822)
(1.299089 2.49998 0.4820327)
(1.49959 2.49998 0.4817426)
(1.699994 2.499982 0.4817733)
(0.305891 2.7 0.5017568)
(0.495646 2.699998 0.4950331)
(0.6963056 2.699995 0.4892454)
(0.8973845 2.699993 0.4851618)
(1.098367 2.699991 0.482976)
(1.299053 2.69999 0.4820226)
(1.499527 2.69999 0.4817261)
(1.699881 2.699992 0.4817457)
(0.3058907 2.9 0.5017569)
(0.4956442 2.899999 0.4950333)
(0.696301 2.899998 0.4892457)
(0.8973752 2.899996 0.4851624)
(1.098351 2.899996 0.4829771)
(1.299026 2.899995 0.4820236)
(1.49948 2.899995 0.481725)
(1.699798 2.899995 0.4817369)
(0.3058904 3.1 0.5017569)
(0.495643 3.1 0.4950337)
(0.6962974 3.099999 0.489247)
(0.8973683 3.099999 0.4851652)
(1.098338 3.099999 0.4829819)
(1.299005 3.099999 0.4820302)
(1.499445 3.099998 0.4817313)
(1.69974 3.099997 0.4817383)
(0.3058902 3.3 0.501757)
(0.4956419 3.3 0.4950344)
(0.6962948 3.3 0.4892488)
(0.897363 3.300001 0.4851687)
(1.098329 3.300001 0.4829877)
(1.298991 3.300002 0.4820383)
(1.499421 3.300001 0.4817401)
(1.699701 3.299998 0.4817442)
(0.3058901 3.5 0.5017571)
(0.4956412 3.5 0.495035)
(0.6962927 3.500002 0.4892506)
(0.8973591 3.500003 0.4851722)
(1.098323 3.500004 0.4829933)
(1.29898 3.500005 0.4820462)
(1.499405 3.500005 0.4817491)
(1.699675 3.500003 0.4817515)
(0.3058901 3.7 0.5017572)
(0.4956405 3.700001 0.4950356)
(0.6962912 3.700003 0.4892522)
(0.8973559 3.700006 0.4851757)
(1.098317 3.700009 0.482999)
(1.298971 3.700011 0.4820539)
(1.499393 3.700013 0.4817581)
(1.699658 3.700013 0.4817601)
(0.3058899 3.9 0.5017573)
(0.4956402 3.900002 0.4950364)
(0.6962898 3.900006 0.4892544)
(0.8973529 3.90001 0.4851798)
(1.098312 3.900016 0.4830058)
(1.298964 3.900022 0.4820635)
(1.499383 3.900027 0.4817703)
(1.699645 3.900031 0.4817733)
(0.3058899 4.100001 0.5017575)
(0.4956397 4.100003 0.4950375)
(0.6962885 4.100009 0.4892577)
(0.89735 4.100018 0.4851868)
(1.098307 4.100028 0.4830174)
(1.298955 4.100039 0.4820804)
(1.499372 4.100051 0.481792)
(1.699633 4.100063 0.4817989)
(0.30589 4.300001 0.5017578)
(0.4956397 4.300006 0.49504)
(0.6962877 4.300015 0.4892648)
(0.8973467 4.300029 0.4852013)
(1.098299 4.300046 0.483042)
(1.298943 4.300067 0.4821161)
(1.499355 4.300091 0.4818389)
(1.699616 4.300119 0.4818556)
(0.3058903 4.500002 0.5017587)
(0.4956407 4.500009 0.4950458)
(0.6962885 4.500023 0.4892809)
(0.897344 4.500045 0.4852338)
(1.098288 4.500074 0.4830966)
(1.298922 4.500112 0.4821965)
(1.499325 4.500158 0.4819455)
(1.699584 4.500216 0.4819855)
(0.3058914 4.700003 0.5017608)
(0.4956446 4.700013 0.4950586)
(0.6962942 4.700034 0.4893158)
(0.8973445 4.700068 0.4853041)
(1.098273 4.700116 0.4832164)
(1.298883 4.700181 0.4823768)
(1.499263 4.700267 0.4821892)
(1.699515 4.700379 0.4822842)
(0.305894 4.900004 0.5017652)
(0.4956547 4.900019 0.4950847)
(0.6963116 4.90005 0.4893863)
(0.8973556 4.9001 0.4854474)
(1.098256 4.900175 0.4834677)
(1.298812 4.900283 0.4827699)
(1.499132 4.900435 0.4827367)
(1.69936 4.900645 0.4829642)
(0.4522727 0.2583967 0.6500081)
(0.7023631 0.3066755 0.7001475)
(0.9007086 0.3041648 0.7003741)
(1.099973 0.3033739 0.700476)
(1.29996 0.3031833 0.7004657)
(1.500006 0.3031412 0.700461)
(1.700053 0.3031337 0.7004656)
(0.2584005 0.4522751 0.6500097)
(0.4997008 0.4996981 0.699305)
(0.6995229 0.4969444 0.6985535)
(0.8995665 0.4942751 0.6980504)
(1.099721 0.4931311 0.697794)
(1.299886 0.4927345 0.697695)
(1.500049 0.492615 0.6976831)
(1.700257 0.4925915 0.6977045)
(0.3066746 0.7023613 0.7001463)
(0.4969414 0.699517 0.6985492)
(0.6979795 0.6979814 0.6969434)
(0.8987743 0.6963735 0.6957199)
(1.099332 0.6954029 0.6950736)
(1.29974 0.6949671 0.6948291)
(1.500117 0.6948116 0.6947946)
(1.7006 0.6947765 0.6948405)
(0.3041605 0.9007051 0.7003699)
(0.494258 0.8995543 0.6980332)
(0.6963518 0.898755 0.6956946)
(0.8978353 0.8978279 0.6937284)
(1.098839 0.8971443 0.6926067)
(1.299546 0.8967889 0.6921713)
(1.500171 0.8966532 0.6921033)
(1.700955 0.8966211 0.6921794)
(0.3033643 1.099965 0.7004657)
(0.4930931 1.099688 0.6977501)
(0.6953425 1.099264 0.6949888)
(0.8971102 1.098752 0.6925198)
(1.098404 1.098333 0.6910039)
(1.299354 1.09809 0.6903783)
(1.500186 1.097994 0.6902725)
(1.701212 1.097969 0.6903773)
(0.3031651 1.299944 0.7004449)
(0.4926621 1.299811 0.6976056)
(0.6948431 1.299574 0.6946416)
(0.8966799 1.299297 0.6919205)
(1.098103 1.299064 0.6901739)
(1.299195 1.298922 0.6894114)
(1.500152 1.298862 0.6892717)
(1.701313 1.298843 0.6893965)
(0.3031123 1.499972 0.7004265)
(0.4924992 1.499893 0.6975347)
(0.694608 1.499759 0.6944731)
(0.8964471 1.499606 0.6916292)
(1.097916 1.499476 0.6897652)
(1.299066 1.499396 0.688923)
(1.500069 1.499359 0.6887514)
(1.701254 1.499343 0.6888814)
(0.3030937 1.699986 0.7004181)
(0.4924322 1.699941 0.6974999)
(0.6944958 1.699865 0.6943885)
(0.8963199 1.69978 0.6914786)
(1.097796 1.699708 0.6895439)
(1.298955 1.699662 0.6886422)
(1.499944 1.69964 0.688433)
(1.701067 1.699627 0.688552)
(0.3030862 1.899993 0.7004141)
(0.492402 1.899968 0.6974821)
(0.6944391 1.899925 0.6943436)
(0.8962464 1.899878 0.6913942)
(1.097712 1.899837 0.6894115)
(1.298853 1.899812 0.6884606)
(1.499793 1.899798 0.6882107)
(1.7008 1.899789 0.6883061)
(0.3030827 2.099996 0.7004121)
(0.4923869 2.099982 0.6974726)
(0.694408 2.099958 0.6943188)
(0.8961999 2.099932 0.6913453)
(1.097649 2.09991 0.6893298)
(1.29876 2.099895 0.6883409)
(1.499636 2.099889 0.6880535)
(1.700506 2.099885 0.6881205)
(0.3030808 2.299998 0.7004112)
(0.4923787 2.29999 0.6974678)
(0.6943889 2.299977 0.6943057)
(0.8961675 2.299963 0.6913187)
(1.097598 2.299951 0.6892835)
(1.298678 2.299943 0.6882697)
(1.49949 2.29994 0.6879548)
(1.700228 2.299942 0.6879953)
(0.3030797 2.499999 0.7004108)
(0.4923735 2.499995 0.6974658)
(0.6943761 2.499987 0.6943002)
(0.8961436 2.49998 0.6913073)
(1.097558 2.499973 0.6892637)
(1.298608 2.49997 0.6882379)
(1.499364 2.49997 0.687907)
(1.699993 2.499973 0.687927)
(0.303079 2.699999 0.7004108)
(0.49237 2.699997 0.6974654)
(0.6943668 2.699993 0.6942995)
(0.8961254 2.699989 0.6913063)
(1.097525 2.699986 0.689262)
(1.298551 2.699985 0.6882343)
(1.499263 2.699985 0.6878974)
(1.69981 2.699988 0.6879039)
(0.3030786 2.9 0.7004108)
(0.4923674 2.899999 0.697466)
(0.6943599 2.899997 0.6943016)
(0.8961114 2.899995 0.6913113)
(1.0975 2.899993 0.689271)
(1.298508 2.899993 0.6882477)
(1.499187 2.899993 0.6879115)
(1.699676 2.899994 0.6879101)
(0.3030781 3.1 0.700411)
(0.4923654 3.1 0.6974672)
(0.6943547 3.099999 0.694305)
(0.8961006 3.099998 0.6913188)
(1.09748 3.099998 0.6892846)
(1.298475 3.099998 0.6882682)
(1.499132 3.099997 0.6879362)
(1.699583 3.099995 0.6879311)
(0.3030778 3.3 0.7004112)
(0.4923639 3.3 0.6974684)
(0.6943506 3.300001 0.6943086)
(0.8960925 3.300001 0.6913265)
(1.097466 3.300002 0.6892985)
(1.298452 3.300002 0.6882891)
(1.499093 3.300002 0.687962)
(1.69952 3.299998 0.6879554)
(0.3030777 3.5 0.7004115)
(0.4923628 3.500001 0.6974696)
(0.6943476 3.500002 0.6943118)
(0.8960864 3.500004 0.6913332)
(1.097456 3.500007 0.6893102)
(1.298434 3.500008 0.6883066)
(1.499066 3.500009 0.6879841)
(1.699479 3.500005 0.6879771)
(0.3030775 3.7 0.7004116)
(0.492362 3.700002 0.6974703)
(0.6943453 3.700004 0.6943143)
(0.8960814 3.700009 0.6913385)
(1.097447 3.700014 0.6893195)
(1.298421 3.700018 0.6883205)
(1.499047 3.700021 0.6880015)
(1.699452 3.700021 0.6879953)
(0.3030774 3.900001 0.7004117)
(0.4923613 3.900003 0.697471)
(0.694343 3.900008 0.694316)
(0.8960768 3.900016 0.6913428)
(1.097439 3.900025 0.6893274)
(1.298409 3.900034 0.6883327)
(1.499031 3.900043 0.6880174)
(1.699431 3.900049 0.6880134)
(0.3030772 4.100001 0.7004118)
(0.4923605 4.100005 0.6974714)
(0.694341 4.100014 0.694318)
(0.8960719 4.100026 0.6913478)
(1.09743 4.100042 0.6893374)
(1.298395 4.10006 0.6883489)
(1.499014 4.10008 0.6880397)
(1.699412 4.1001 0.6880407)
(0.3030772 4.300001 0.7004119)
(0.4923604 4.300008 0.6974726)
(0.6943393 4.300022 0.6943219)
(0.8960664 4.300042 0.6913578)
(1.097418 4.30007 0.6893572)
(1.298375 4.300103 0.6883808)
(1.498987 4.300141 0.6880841)
(1.699384 4.300186 0.6880965)
(0.3030776 4.500002 0.7004125)
(0.4923616 4.500012 0.6974758)
(0.6943399 4.500033 0.6943321)
(0.8960612 4.500065 0.6913816)
(1.0974 4.500111 0.6894028)
(1.29834 4.500169 0.6884537)
(1.498938 4.500242 0.6881858)
(1.699333 4.500333 0.6882242)
(0.3030789 4.700004 0.7004142)
(0.4923667 4.700018 0.6974844)
(0.6943472 4.700048 0.6943571)
(0.8960604 4.700097 0.6914381)
(1.097376 4.700169 0.6895088)
(1.298279 4.700268 0.6886232)
(1.498842 4.700402 0.6884221)
(1.699228 4.700579 0.6885199)
(0.3030822 4.900005 0.700418)
(0.4923806 4.900025 0.6975037)
(0.6943708 4.900067 0.694412)
(0.896075 4.900138 0.6915599)
(1.097348 4.90025 0.6897401)
(1.298172 4.900413 0.6890023)
(1.498645 4.900645 0.6889611)
(1.698998 4.900974 0.6891959)
(0.4523064 0.258336 0.8499891)
(0.7025451 0.3061812 0.8999377)
(0.900852 0.3034228 0.8999227)
(1.099974 0.302482 0.8999167)
(1.299954 0.3022563 0.8999128)
(1.500007 0.3022058 0.8999121)
(1.700062 0.3021961 0.8999148)
(0.2583415 0.4522993 0.8499884)
(0.4995045 0.4995011 0.8998076)
(0.6993943 0.4963431 0.8995908)
(0.8994933 0.4932838 0.8994312)
(1.09968 0.4919444 0.8993442)
(1.299871 0.4914732 0.8993116)
(1.500062 0.4913284 0.8993119)
(1.700307 0.4912974 0.8993254)
(0.3061803 0.7025426 0.8999371)
(0.4963394 0.6993875 0.8995888)
(0.6975688 0.6975716 0.8991336)
(0.8985492 0.6956607 0.8987551)
(1.099222 0.6944935 0.8985376)
(1.299703 0.6939657 0.898456)
(1.500149 0.693774 0.8984561)
(1.700726 0.693728 0.8984899)
(0.3034177 0.9008479 0.8999208)
(0.4932634 0.8994791 0.8994232)
(0.6956339 0.8985271 0.8987428)
(0.8974147 0.8974076 0.8981096)
(1.098624 0.8965723 0.8977075)
(1.299472 0.8961292 0.8975499)
(1.500222 0.8959566 0.8975463)
(1.701173 0.8959127 0.897608)
(0.3024709 1.099965 0.899912)
(0.4919 1.099642 0.8993233)
(0.6944208 1.099142 0.8984955)
(0.8965284 1.09852 0.8976624)
(1.098091 1.098008 0.8970789)
(1.299233 1.097707 0.8968285)
(1.500247 1.097582 0.8968148)
(1.701505 1.097547 0.8969058)
(0.3022359 1.299935 0.8999032)
(0.4913902 1.299783 0.8992686)
(0.693819 1.299505 0.8983619)
(0.8959956 1.299169 0.8974166)
(1.097717 1.298879 0.8967132)
(1.299029 1.298697 0.8963878)
(1.500207 1.298617 0.8963594)
(1.701643 1.29859 0.8964715)
(0.3021737 1.499967 0.8998963)
(0.491197 1.499876 0.8992397)
(0.6935353 1.499718 0.8982907)
(0.8957084 1.499533 0.8972858)
(1.097484 1.499373 0.8965162)
(1.298866 1.499271 0.8961406)
(1.500104 1.499222 0.89609)
(1.701577 1.499201 0.8962079)
(0.3021519 1.699983 0.8998928)
(0.4911173 1.699931 0.8992239)
(0.6933998 1.699841 0.8982503)
(0.8955522 1.699739 0.8972082)
(1.097334 1.69965 0.8963921)
(1.298726 1.699592 0.8959707)
(1.499948 1.699563 0.8958867)
(1.701344 1.699545 0.8959923)
(0.302143 1.899992 0.8998908)
(0.4910817 1.899962 0.8992144)
(0.6933315 1.899912 0.8982253)
(0.8954623 1.899854 0.8971573)
(1.097231 1.899805 0.8963041)
(1.298599 1.899772 0.895839)
(1.499758 1.899755 0.8957142)
(1.701008 1.899743 0.8957933)
(0.302139 2.099996 0.8998897)
(0.4910639 2.099979 0.8992089)
(0.6932942 2.099951 0.8982098)
(0.8954059 2.099919 0.8971243)
(1.097153 2.099892 0.8962437)
(1.298483 2.099873 0.8957423)
(1.49956 2.099865 0.8955783)
(1.700638 2.09986 0.895625)
(0.3021369 2.299998 0.8998892)
(0.4910543 2.299989 0.899206)
(0.6932717 2.299973 0.8982016)
(0.8953671 2.299955 0.8971067)
(1.097091 2.29994 0.8962102)
(1.29838 2.299931 0.8956855)
(1.499375 2.299928 0.8954925)
(1.700288 2.29993 0.8955089)
(0.3021357 2.499999 0.899889)
(0.4910485 2.499994 0.8992052)
(0.6932568 2.499985 0.8981996)
(0.8953386 2.499976 0.8971025)
(1.097042 2.499968 0.8962019)
(1.298293 2.499964 0.8956691)
(1.499217 2.499963 0.8954614)
(1.699993 2.499968 0.8954557)
(0.302135 2.699999 0.8998891)
(0.4910445 2.699996 0.8992059)
(0.6932462 2.699992 0.8982021)
(0.895317 2.699987 0.8971086)
(1.097002 2.699983 0.8962136)
(1.298223 2.699982 0.8956858)
(1.499091 2.699982 0.8954771)
(1.699764 2.699986 0.8954593)
(0.3021345 2.9 0.8998894)
(0.4910415 2.899998 0.8992076)
(0.693238 2.899996 0.8982073)
(0.8953003 2.899994 0.897121)
(1.096972 2.899992 0.8962375)
(1.298169 2.899992 0.8957232)
(1.498997 2.899992 0.8955234)
(1.699597 2.899993 0.895502)
(0.3021339 3.1 0.8998898)
(0.4910392 3.099999 0.8992096)
(0.6932317 3.099999 0.8982136)
(0.8952874 3.099998 0.8971358)
(1.096948 3.099998 0.896266)
(1.298129 3.099998 0.8957684)
(1.498929 3.099997 0.8955823)
(1.699481 3.099995 0.8955627)
(0.3021335 3.3 0.8998901)
(0.4910373 3.3 0.8992115)
(0.6932268 3.300001 0.8982196)
(0.8952777 3.300002 0.8971496)
(1.096931 3.300003 0.8962923)
(1.2981 3.300003 0.8958105)
(1.498881 3.300002 0.8956381)
(1.699403 3.299998 0.8956228)
(0.3021334 3.5 0.8998904)
(0.491036 3.500001 0.8992131)
(0.6932233 3.500003 0.8982244)
(0.8952703 3.500005 0.8971604)
(1.096918 3.500008 0.8963128)
(1.298079 3.50001 0.8958432)
(1.498848 3.500011 0.8956817)
(1.699352 3.500007 0.8956708)
(0.3021332 3.7 0.8998906)
(0.4910353 3.700002 0.899214)
(0.6932206 3.700005 0.898227)
(0.8952644 3.700011 0.897167)
(1.096908 3.700017 0.8963258)
(1.298063 3.700022 0.8958646)
(1.498824 3.700026 0.8957108)
(1.699318 3.700026 0.8957033)
(0.302133 3.900001 0.8998906)
(0.4910343 3.900004 0.8992139)
(0.6932178 3.90001 0.8982274)
(0.8952588 3.900019 0.8971691)
(1.096898 3.90003 0.8963314)
(1.298048 3.900042 0.8958754)
(1.498805 3.900053 0.8957269)
(1.699293 3.900061 0.8957228)
(0.3021328 4.100001 0.8998903)
(0.4910331 4.100006 0.8992128)
(0.693215 4.100016 0.8982251)
(0.8952525 4.100031 0.8971665)
(1.096887 4.100051 0.8963306)
(1.298031 4.100073 0.8958784)
(1.498783 4.100098 0.895735)
(1.699268 4.100122 0.8957357)
(0.3021326 4.300002 0.8998898)
(0.4910326 4.300009 0.8992103)
(0.6932127 4.300025 0.8982197)
(0.8952456 4.30005 0.8971592)
(1.096871 4.300083 0.8963247)
(1.298006 4.300124 0.8958775)
(1.49875 4.300172 0.8957418)
(1.699234 4.300228 0.8957511)
(0.3021329 4.500003 0.899889)
(0.4910337 4.500014 0.8992066)
(0.6932131 4.500038 0.8982115)
(0.8952389 4.500076 0.8971484)
(1.096849 4.500131 0.8963173)
(1.297963 4.500202 0.8958806)
(1.498689 4.500292 0.8957606)
(1.699172 4.500405 0.8957876)
(0.3021344 4.700004 0.899888)
(0.4910394 4.700021 0.8992021)
(0.6932215 4.700055 0.898202)
(0.8952376 4.700112 0.8971383)
(1.096819 4.700197 0.8963189)
(1.297888 4.700317 0.8959081)
(1.498571 4.700481 0.8958237)
(1.699043 4.700701 0.8958874)
(0.302138 4.900006 0.8998873)
(0.4910552 4.900028 0.8991986)
(0.6932495 4.900075 0.8981958)
(0.8952553 4.900157 0.8971403)
(1.096786 4.900286 0.8963553)
(1.297758 4.90048 0.8960092)
(1.498331 4.900762 0.8960088)
(1.698764 4.901166 0.8961503)
(0.4522981 0.2583287 1.050001)
(0.7025453 0.3061818 1.100063)
(0.9008522 0.3034238 1.100078)
(1.099975 0.3024834 1.100085)
(1.299955 0.3022577 1.100091)
(1.500007 0.3022071 1.100095)
(1.700063 0.3021974 1.100096)
(0.258339 0.4523031 1.050001)
(0.4995056 0.4995017 1.100193)
(0.6993951 0.4963449 1.10041)
(0.8994939 0.4932865 1.100573)
(1.099681 0.4919478 1.100665)
(1.299871 0.4914769 1.100708)
(1.500062 0.4913315 1.100723)
(1.700308 0.4913005 1.100729)
(0.3061808 0.7025428 1.100063)
(0.4963407 0.6993884 1.100412)
(0.6975703 0.6975738 1.100869)
(0.8985505 0.6956639 1.101253)
(1.099223 0.6944973 1.101484)
(1.299704 0.6939696 1.101591)
(1.500151 0.6937774 1.101633)
(1.70073 0.6937309 1.101652)
(0.3034183 0.9008481 1.100079)
(0.4932649 0.8994799 1.100576)
(0.695636 0.8985287 1.101259)
(0.8974165 0.8974099 1.1019)
(1.098626 0.8965749 1.102323)
(1.299475 0.8961315 1.102525)
(1.500227 0.8959582 1.102606)
(1.701181 0.8959135 1.102647)
(0.3024716 1.099965 1.100088)
(0.4919019 1.099642 1.100674)
(0.6944233 1.099143 1.101501)
(0.8965308 1.098522 1.102338)
(1.098094 1.09801 1.102942)
(1.299238 1.097708 1.10325)
(1.500254 1.097581 1.103374)
(1.701517 1.097546 1.10344)
(0.3022368 1.299935 1.100096)
(0.4913924 1.299783 1.100725)
(0.693822 1.299505 1.101623)
(0.8959985 1.29917 1.10256)
(1.097721 1.29888 1.103269)
(1.299036 1.298697 1.103644)
(1.500218 1.298616 1.103796)
(1.701659 1.298588 1.103881)