/*--------------------------------*- C++ -*----------------------------------*\
  =========                 |
  \\      /  F ield         | OpenFOAM: The Open Source CFD Toolbox
   \\    /   O peration     | Website:  https://openfoam.org
    \\  /    A nd           | Version:  7
     \\/     M anipulation  |
\*---------------------------------------------------------------------------*/
FoamFile
{
    version     2.0;
    format      ascii;
    class       volScalarField;
    location    "0.1";
    object      Cx;
}
// * * * * * * * * * * * * * * * * * * * * * * * * * * * * * * * * * * * * * //

dimensions      [0 1 0 0 0 0 0];

internalField   nonuniform List<scalar> 
80136
(
0.4992635
0.6997283
0.8997417
1.099896
1.299969
1.499999
1.700017
0.4996162
0.6995959
0.8995158
1.099793
1.299934
1.499996
1.700036
0.4995586
0.6995156
0.8993897
1.099728
1.299911
1.499995
1.700054
0.4994605
0.6994181
0.8993222
1.099691
1.299895
1.499994
1.700066
0.4994171
0.6993688
0.8992871
1.09967
1.299885
1.499991
1.70007
0.4994015
0.6993482
0.8992701
1.099658
1.299877
1.499986
1.700067
0.4993954
0.6993394
0.8992614
1.09965
1.299871
1.499979
1.700057
0.4993931
0.6993352
0.8992566
1.099645
1.299865
1.499971
1.700042
0.499392
0.6993331
0.8992536
1.099641
1.299859
1.499963
1.700027
0.4993914
0.6993318
0.8992515
1.099638
1.299855
1.499955
1.700012
0.499391
0.699331
0.8992501
1.099636
1.29985
1.499948
1.699999
0.4993908
0.6993303
0.899249
1.099634
1.299847
1.499942
1.699989
0.4993906
0.6993299
0.8992481
1.099632
1.299845
1.499938
1.699982
0.4993905
0.6993295
0.8992474
1.099631
1.299843
1.499935
1.699977
0.4993904
0.6993293
0.899247
1.09963
1.299842
1.499933
1.699974
0.4993903
0.6993291
0.8992466
1.09963
1.299841
1.499932
1.699971
0.4993903
0.6993288
0.8992463
1.099629
1.29984
1.499931
1.69997
0.4993902
0.6993288
0.899246
1.099629
1.299839
1.49993
1.699968
0.4993902
0.6993287
0.8992457
1.099628
1.299839
1.499929
1.699967
0.4993902
0.6993285
0.8992456
1.099628
1.299838
1.499927
1.699966
0.4993904
0.699329
0.8992458
1.099628
1.299837
1.499925
1.699963
0.4993913
0.6993304
0.8992474
1.099629
1.299836
1.499922
1.699959
0.4993934
0.6993344
0.8992524
1.099633
1.299836
1.499915
1.699947
0.4507566
0.650419
0.8500162
1.049987
1.249992
1.449995
1.649996
1.849999
0.2590726
0.5000561
0.6995374
0.8996907
1.099841
1.299939
1.500007
1.700076
0.2584719
0.4995441
0.6989399
0.8993341
1.099663
1.299871
1.500018
1.700172
0.2581543
0.4989303
0.6983994
0.899013
1.099496
1.299804
1.500026
1.70026
0.2580876
0.4986381
0.6980899
0.8988005
1.099373
1.299749
1.500026
1.700319
0.2580772
0.4985204
0.6979372
0.8986785
1.099293
1.299706
1.500015
1.700341
0.2580745
0.4984727
0.6978653
0.8986121
1.099242
1.299671
1.499993
1.700324
0.2580736
0.4984523
0.6978308
0.8985758
1.099209
1.299641
1.49996
1.700275
0.2580732
0.498443
0.6978135
0.8985546
1.099186
1.299614
1.49992
1.700206
0.258073
0.4984382
0.6978039
0.8985412
1.099168
1.299589
1.49988
1.70013
0.258073
0.4984356
0.6977979
0.8985318
1.099155
1.299567
1.499841
1.700058
0.2580729
0.4984338
0.6977939
0.8985249
1.099143
1.299548
1.499808
1.699997
0.2580729
0.4984328
0.6977909
0.8985196
1.099134
1.299533
1.499782
1.699949
0.2580729
0.4984319
0.6977889
0.8985155
1.099127
1.299522
1.499762
1.699913
0.2580729
0.4984314
0.6977872
0.8985125
1.099122
1.299513
1.499747
1.699889
0.2580728
0.4984309
0.6977861
0.8985102
1.099118
1.299507
1.499737
1.699872
0.2580728
0.4984306
0.6977852
0.8985085
1.099116
1.299502
1.49973
1.699861
0.2580728
0.4984304
0.6977844
0.8985071
1.099113
1.299499
1.499725
1.699854
0.2580728
0.4984301
0.6977839
0.8985058
1.099111
1.299495
1.49972
1.699848
0.2580728
0.49843
0.6977834
0.8985047
1.099109
1.299492
1.499716
1.699843
0.2580728
0.4984302
0.6977832
0.8985034
1.099106
1.299487
1.499709
1.699836
0.2580728
0.4984309
0.697784
0.8985029
1.099102
1.299478
1.499696
1.699822
0.2580729
0.4984334
0.6977878
0.8985046
1.099097
1.299463
1.499671
1.699793
0.3503394
0.4984394
0.697798
0.8985125
1.099093
1.299436
1.499614
1.699722
0.4517877
0.7013544
0.900375
1.099969
1.299972
1.500003
1.700034
0.2586931
0.5001316
0.6996817
0.8996579
1.099782
1.299909
1.500027
1.700171
0.3080824
0.4985266
0.698675
0.8991043
1.099502
1.299801
1.500066
1.70039
0.3066076
0.4968434
0.697601
0.8984742
1.099176
1.29967
1.500094
1.700606
0.3060729
0.4961122
0.6969438
0.8980095
1.098908
1.29955
1.5001
1.700755
0.3059468
0.4958381
0.696619
0.8977398
1.098728
1.299453
1.500077
1.70081
0.3059132
0.4957324
0.6964654
0.897592
1.098613
1.299373
1.500024
1.700771
0.3059011
0.4956883
0.6963916
0.8975107
1.098538
1.299304
1.499947
1.700655
0.305896
0.495668
0.6963542
0.8974633
1.098485
1.299241
1.499855
1.700491
0.3058936
0.4956578
0.6963334
0.8974332
1.098445
1.299183
1.499758
1.70031
0.3058923
0.4956521
0.6963206
0.8974121
1.098413
1.299132
1.499668
1.70014
0.3058915
0.4956485
0.6963119
0.8973964
1.098387
1.299089
1.49959
1.699994
0.305891
0.495646
0.6963056
0.8973845
1.098367
1.299053
1.499527
1.699881
0.3058907
0.4956442
0.696301
0.8973752
1.098351
1.299026
1.49948
1.699798
0.3058904
0.495643
0.6962974
0.8973683
1.098338
1.299005
1.499445
1.69974
0.3058902
0.4956419
0.6962948
0.897363
1.098329
1.298991
1.499421
1.699701
0.3058901
0.4956412
0.6962927
0.8973591
1.098323
1.29898
1.499405
1.699675
0.3058901
0.4956405
0.6962912
0.8973559
1.098317
1.298971
1.499393
1.699658
0.3058899
0.4956402
0.6962898
0.8973529
1.098312
1.298964
1.499383
1.699645
0.3058899
0.4956397
0.6962885
0.89735
1.098307
1.298955
1.499372
1.699633
0.30589
0.4956397
0.6962877
0.8973467
1.098299
1.298943
1.499355
1.699616
0.3058903
0.4956407
0.6962885
0.897344
1.098288
1.298922
1.499325
1.699584
0.3058914
0.4956446
0.6962942
0.8973445
1.098273
1.298883
1.499263
1.699515
0.305894
0.4956547
0.6963116
0.8973556
1.098256
1.298812
1.499132
1.69936
0.4522727
0.7023631
0.9007086
1.099973
1.29996
1.500006
1.700053
0.2584005
0.4997008
0.6995229
0.8995665
1.099721
1.299886
1.500049
1.700257
0.3066746
0.4969414
0.6979795
0.8987743
1.099332
1.29974
1.500117
1.7006
0.3041605
0.494258
0.6963518
0.8978353
1.098839
1.299546
1.500171
1.700955
0.3033643
0.4930931
0.6953425
0.8971102
1.098404
1.299354
1.500186
1.701212
0.3031651
0.4926621
0.6948431
0.8966799
1.098103
1.299195
1.500152
1.701313
0.3031123
0.4924992
0.694608
0.8964471
1.097916
1.299066
1.500069
1.701254
0.3030937
0.4924322
0.6944958
0.8963199
1.097796
1.298955
1.499944
1.701067
0.3030862
0.492402
0.6944391
0.8962464
1.097712
1.298853
1.499793
1.7008
0.3030827
0.4923869
0.694408
0.8961999
1.097649
1.29876
1.499636
1.700506
0.3030808
0.4923787
0.6943889
0.8961675
1.097598
1.298678
1.49949
1.700228
0.3030797
0.4923735
0.6943761
0.8961436
1.097558
1.298608
1.499364
1.699993
0.303079
0.49237
0.6943668
0.8961254
1.097525
1.298551
1.499263
1.69981
0.3030786
0.4923674
0.6943599
0.8961114
1.0975
1.298508
1.499187
1.699676
0.3030781
0.4923654
0.6943547
0.8961006
1.09748
1.298475
1.499132
1.699583
0.3030778
0.4923639
0.6943506
0.8960925
1.097466
1.298452
1.499093
1.69952
0.3030777
0.4923628
0.6943476
0.8960864
1.097456
1.298434
1.499066
1.699479
0.3030775
0.492362
0.6943453
0.8960814
1.097447
1.298421
1.499047
1.699452
0.3030774
0.4923613
0.694343
0.8960768
1.097439
1.298409
1.499031
1.699431
0.3030772
0.4923605
0.694341
0.8960719
1.09743
1.298395
1.499014
1.699412
0.3030772
0.4923604
0.6943393
0.8960664
1.097418
1.298375
1.498987
1.699384
0.3030776
0.4923616
0.6943399
0.8960612
1.0974
1.29834
1.498938
1.699333
0.3030789
0.4923667
0.6943472
0.8960604
1.097376
1.298279
1.498842
1.699228
0.3030822
0.4923806
0.6943708
0.896075
1.097348
1.298172
1.498645
1.698998
0.4523064
0.7025451
0.900852
1.099974
1.299954
1.500007
1.700062
0.2583415
0.4995045
0.6993943
0.8994933
1.09968
1.299871
1.500062
1.700307
0.3061803
0.4963394
0.6975688
0.8985492
1.099222
1.299703
1.500149
1.700726
0.3034177
0.4932634
0.6956339
0.8974147
1.098624
1.299472
1.500222
1.701173
0.3024709
0.4919
0.6944208
0.8965284
1.098091
1.299233
1.500247
1.701505
0.3022359
0.4913902
0.693819
0.8959956
1.097717
1.299029
1.500207
1.701643
0.3021737
0.491197
0.6935353
0.8957084
1.097484
1.298866
1.500104
1.701577
0.3021519
0.4911173
0.6933998
0.8955522
1.097334
1.298726
1.499948
1.701344
0.302143
0.4910817
0.6933315
0.8954623
1.097231
1.298599
1.499758
1.701008
0.302139
0.4910639
0.6932942
0.8954059
1.097153
1.298483
1.49956
1.700638
0.3021369
0.4910543
0.6932717
0.8953671
1.097091
1.29838
1.499375
1.700288
0.3021357
0.4910485
0.6932568
0.8953386
1.097042
1.298293
1.499217
1.699993
0.302135
0.4910445
0.6932462
0.895317
1.097002
1.298223
1.499091
1.699764
0.3021345
0.4910415
0.693238
0.8953003
1.096972
1.298169
1.498997
1.699597
0.3021339
0.4910392
0.6932317
0.8952874
1.096948
1.298129
1.498929
1.699481
0.3021335
0.4910373
0.6932268
0.8952777
1.096931
1.2981
1.498881
1.699403
0.3021334
0.491036
0.6932233
0.8952703
1.096918
1.298079
1.498848
1.699352
0.3021332
0.4910353
0.6932206
0.8952644
1.096908
1.298063
1.498824
1.699318
0.302133
0.4910343
0.6932178
0.8952588
1.096898
1.298048
1.498805
1.699293
0.3021328
0.4910331
0.693215
0.8952525
1.096887
1.298031
1.498783
1.699268
0.3021326
0.4910326
0.6932127
0.8952456
1.096871
1.298006
1.49875
1.699234
0.3021329
0.4910337
0.6932131
0.8952389
1.096849
1.297963
1.498689
1.699172
0.3021344
0.4910394
0.6932215
0.8952376
1.096819
1.297888
1.498571
1.699043
0.302138
0.4910552
0.6932495
0.8952553
1.096786
1.297758
1.498331
1.698764
0.4522981
0.7025453
0.9008522
1.099975
1.299955
1.500007
1.700063
0.258339
0.4995056
0.6993951
0.8994939
1.099681
1.299871
1.500062
1.700308
0.3061808
0.4963407
0.6975703
0.8985505
1.099223
1.299704
1.500151
1.70073
0.3034183
0.4932649
0.695636
0.8974165
1.098626
1.299475
1.500227
1.701181
0.3024716
0.4919019
0.6944233
0.8965308
1.098094
1.299238
1.500254
1.701517
0.3022368
0.4913924
0.693822
0.8959985
1.097721
1.299036
1.500218
1.701659
0.3021745
0.491199
0.693538
0.8957113
1.097488
1.298873
1.500116
1.701595
0.3021522
0.4911185
0.6934018
0.8955545
1.097339
1.298733
1.499959
1.701361
0.3021432
0.4910825
0.693333
0.8954641
1.097234
1.298605
1.499768
1.701022
0.3021393
0.4910649
0.6932957
0.8954074
1.097155
1.298487
1.499567
1.700647
0.3021373
0.4910557
0.6932737
0.8953687
1.097093
1.298383
1.499379
1.700293
0.3021365
0.4910508
0.6932596
0.8953407
1.097044
1.298295
1.499219
1.699995
0.3021362
0.4910476
0.6932498
0.8953195
1.097004
1.298225
1.499093
1.699765
0.3021357
0.4910447
0.6932418
0.8953029
1.096974
1.298171
1.498998
1.699597
0.3021348
0.4910418
0.6932348
0.8952897
1.09695
1.29813
1.498929
1.699481
0.3021342
0.4910394
0.6932295
0.8952797
1.096933
1.298101
1.498881
1.699403
0.3021342
0.4910384
0.6932263
0.8952725
1.09692
1.29808
1.498848
1.699352
0.3021344
0.4910383
0.6932242
0.8952669
1.09691
1.298064
1.498825
1.699318
0.3021342
0.4910372
0.6932212
0.8952611
1.0969
1.298049
1.498805
1.699293
0.3021335
0.4910351
0.6932175
0.8952544
1.096888
1.298032
1.498783
1.699268
0.302133
0.4910337
0.6932143
0.8952469
1.096873
1.298007
1.49875
1.699234
0.3021332
0.4910344
0.6932144
0.89524
1.096851
1.297964
1.49869
1.699172
0.3021346
0.49104
0.6932226
0.8952388
1.096821
1.29789
1.498573
1.699044
0.3021382
0.4910557
0.6932503
0.8952564
1.096789
1.297763
1.498336
1.698768
0.4523099
0.7023648
0.9007092
1.099974
1.29996
1.500006
1.700054
0.2583572
0.4997043
0.6995257
0.8995682
1.099722
1.299887
1.500051
1.70026
0.3066773
0.496947
0.6979848
0.8987778
1.099335
1.299743
1.500122
1.700608
0.3041634
0.4942649
0.6963585
0.8978407
1.098844
1.299553
1.500182
1.700972
0.3033672
0.4931004
0.6953504
0.8971173
1.098412
1.299365
1.500204
1.701238
0.3031694
0.4926715
0.6948529
0.8966886
1.098112
1.299209
1.500176
1.701348
0.303116
0.4925077
0.6946174
0.896456
1.097927
1.299082
1.500095
1.701294
0.3030948
0.492436
0.6945022
0.8963275
1.097806
1.29897
1.499969
1.701105
0.3030864
0.4924041
0.6944435
0.8962525
1.097721
1.298866
1.499814
1.700831
0.3030837
0.49239
0.6944126
0.8962055
1.097656
1.29877
1.499651
1.700527
0.3030827
0.4923838
0.6943952
0.8961741
1.097605
1.298685
1.499499
1.70024
0.3030836
0.4923827
0.6943859
0.8961518
1.097564
1.298614
1.499369
1.699999
0.303085
0.4923833
0.6943799
0.8961352
1.097532
1.298556
1.499266
1.699812
0.3030848
0.4923811
0.6943732
0.8961211
1.097506
1.298512
1.499189
1.699677
0.3030824
0.4923756
0.6943654
0.8961089
1.097486
1.298479
1.499134
1.699584
0.3030807
0.4923713
0.6943593
0.8960996
1.097471
1.298455
1.499095
1.699521
0.3030814
0.4923719
0.6943573
0.8960937
1.09746
1.298437
1.499068
1.69948
0.3030837
0.4923755
0.6943577
0.8960898
1.097452
1.298424
1.499049
1.699452
0.3030835
0.4923744
0.694355
0.8960848
1.097444
1.298411
1.499032
1.699432
0.3030806
0.4923683
0.6943491
0.896078
1.097434
1.298398
1.499015
1.699412
0.3030786
0.4923642
0.6943441
0.896071
1.097421
1.298377
1.498988
1.699385
0.3030783
0.4923639
0.6943433
0.8960654
1.097404
1.298343
1.498941
1.699335
0.3030795
0.4923686
0.6943503
0.896065
1.097382
1.298285
1.498847
1.699232
0.3030828
0.4923824
0.6943735
0.8960801
1.097358
1.298185
1.498658
1.699008
0.4520472
0.7013516
0.9003738
1.099971
1.29997
1.500003
1.700036
0.258543
0.5001399
0.6996868
0.8996602
1.099782
1.299912
1.500029
1.700172
0.3080957
0.4985467
0.6986872
0.8991098
1.099504
1.299805
1.500071
1.700397
0.3066195
0.4968636
0.6976151
0.898482
1.099181
1.299677
1.500104
1.70062
0.306082
0.49613
0.6969586
0.8980191
1.098916
1.29956
1.500115
1.700778
0.3059641
0.4958686
0.6966396
0.8977523
1.098738
1.299466
1.500097
1.700841
0.3059238
0.4957611
0.6964865
0.8976053
1.098625
1.299388
1.500047
1.700805
0.3059028
0.4956905
0.6964046
0.8975219
1.098549
1.299319
1.499969
1.700687
0.3058871
0.4956689
0.6963622
0.8974724
1.098495
1.299254
1.499873
1.700517
0.3058945
0.4956637
0.6963416
0.8974419
1.098455
1.299194
1.499772
1.700328
0.3058962
0.4956632
0.6963325
0.8974225
1.098423
1.299141
1.499677
1.700149
0.3059033
0.4956736
0.6963325
0.8974101
1.098398
1.299097
1.499596
1.699999
0.3059207
0.4956882
0.6963348
0.8974012
1.098377
1.299061
1.499532
1.699883
0.3059148
0.4956891
0.6963303
0.8973915
1.098361
1.299032
1.499484
1.699799
0.3059059
0.4956707
0.6963186
0.8973813
1.098347
1.299011
1.499448
1.699741
0.305897
0.4956571
0.6963096
0.8973733
1.098336
1.298995
1.499424
1.699702
0.3059019
0.4956635
0.6963107
0.8973699
1.098329
1.298983
1.499407
1.699676
0.3059186
0.4956857
0.6963182
0.897369
1.098324
1.298975
1.499395
1.699658
0.3059184
0.4956848
0.6963161
0.8973656
1.098318
1.298967
1.499384
1.699646
0.3059008
0.4956598
0.6963039
0.8973589
1.098312
1.298958
1.499373
1.699634
0.3058929
0.4956467
0.6962957
0.8973528
1.098303
1.298945
1.499356
1.699616
0.3058916
0.4956444
0.6962945
0.89735
1.098293
1.298925
1.499326
1.699584
0.3058928
0.495648
0.696301
0.8973524
1.098281
1.29889
1.499268
1.699518
0.305896
0.4956586
0.6963195
0.8973656
1.098269
1.298828
1.499148
1.69937
0.4516404
0.6519574
0.8491982
1.049001
1.248984
1.44899
1.649001
1.848995
0.2588554
0.5000706
0.6995524
0.8996922
1.099829
1.299952
1.500008
1.700064
0.2578511
0.49962
0.6989607
0.8993397
1.099663
1.299875
1.50002
1.700173
0.2564929
0.4989846
0.6984193
0.8990201
1.099499
1.299807
1.50003
1.700266
0.2562843
0.4986691
0.6981077
0.8988085
1.099378
1.299753
1.500032
1.700329
0.2562735
0.4986144
0.6979688
0.8986901
1.099299
1.299712
1.500024
1.700354
0.2562596
0.4986078
0.6979034
0.8986253
1.09925
1.299679
1.500003
1.700338
0.2562115
0.4984791
0.6978563
0.8985865
1.099217
1.29965
1.49997
1.700288
0.2561633
0.4984665
0.6978269
0.8985627
1.099194
1.299622
1.499929
1.700216
0.2562422
0.4984499
0.6978132
0.8985487
1.099176
1.299597
1.499887
1.700137
0.2562466
0.4984549
0.6978116
0.898541
1.099163
1.299575
1.499848
1.700061
0.2562223
0.4985095
0.6978239
0.8985383
1.099153
1.299556
1.499814
1.699998
0.2563177
0.4985851
0.6978377
0.8985369
1.099144
1.299541
1.499787
1.69995
0.2562621
0.4985778
0.6978341
0.8985323
1.099137
1.299528
1.499766
1.699914
0.2562754
0.4984982
0.6978154
0.8985248
1.099129
1.299518
1.49975
1.699889
0.2562494
0.4984517
0.6978016
0.8985188
1.099124
1.29951
1.499739
1.699873
0.2562505
0.498472
0.6978065
0.898518
1.09912
1.299505
1.499732
1.699862
0.2562864
0.4985774
0.6978258
0.8985203
1.099118
1.299501
1.499726
1.699854
0.2563161
0.4985768
0.6978247
0.8985187
1.099116
1.299498
1.499722
1.699849
0.2562607
0.498469
0.6978024
0.8985126
1.099113
1.299494
1.499716
1.699843
0.2562463
0.4984386
0.697791
0.8985086
1.099109
1.299488
1.499709
1.699836
0.2562447
0.4984353
0.6977901
0.8985086
1.099106
1.29948
1.499696
1.699821
0.2562446
0.4984393
0.6977971
0.898514
1.099105
1.299468
1.499671
1.69979
0.2562454
0.4984496
0.697813
0.898527
1.099108
1.299449
1.499622
1.699724
0.4265545
0.6234521
0.8244487
1.02459
1.22443
1.424448
1.624591
1.824431
0.234077
0.499261
0.6997664
0.8997425
1.099862
1.300003
1.499998
1.699983
0.2336255
0.4997293
0.6996093
0.8995184
1.099792
1.299936
1.499996
1.700034
0.2336878
0.4996223
0.6995271
0.8993927
1.099729
1.299911
1.499995
1.700054
0.2335477
0.4994824
0.699427
0.8993253
1.099692
1.299896
1.499994
1.700067
0.2335679
0.4995391
0.6993869
0.8992919
1.099671
1.299886
1.499992
1.700071
0.2338796
0.4996621
0.6993717
0.8992757
1.09966
1.299879
1.499988
1.700068
0.2576238
0.4996148
0.6993553
0.8992658
1.099653
1.299873
1.499981
1.700058
0.233722
0.4994846
0.6993431
0.8992598
1.099648
1.299867
1.499973
1.700043
0.2335491
0.4994031
0.6993375
0.8992567
1.099644
1.299862
1.499965
1.700027
0.2335433
0.4994059
0.6993382
0.8992554
1.099641
1.299858
1.499957
1.700012
0.2335627
0.4995106
0.6993475
0.8992559
1.09964
1.299854
1.49995
1.699999
0.2578117
0.4996675
0.6993577
0.8992568
1.099638
1.299851
1.499945
1.69999
0.233737
0.4995896
0.6993563
0.8992556
1.099636
1.299848
1.49994
1.699982
0.233682
0.4994625
0.6993448
0.8992527
1.099634
1.299846
1.499937
1.699977
0.2335459
0.4994023
0.6993361
0.8992504
1.099632
1.299843
1.499934
1.699974
0.2335443
0.4994218
0.6993392
0.8992502
1.099632
1.299842
1.499932
1.699972
0.2336004
0.4995899
0.699352
0.8992517
1.099631
1.299841
1.499931
1.69997
0.2341787
0.4995897
0.6993516
0.8992514
1.09963
1.29984
1.49993
1.699969
0.2335709
0.4994206
0.6993379
0.8992488
1.09963
1.299839
1.499929
1.699968
0.2335434
0.4993943
0.6993321
0.8992479
1.099629
1.299838
1.499927
1.699965
0.2335428
0.499393
0.6993329
0.8992496
1.09963
1.299837
1.499924
1.699961
0.2335429
0.4993968
0.6993392
0.8992564
1.099635
1.299836
1.499917
1.699951
0.2335429
0.4993972
0.6993201
0.8992172
1.099602
1.299841
1.499953
1.699988
0.3481457
0.3775714
0.2333141
0.3475243
0.4503363
0.5510039
0.4260214
0.5755732
0.4488271
0.5494713
0.6489444
0.7508799
0.6245027
0.775548
0.6497581
0.749845
0.8489654
0.9509461
0.8244693
0.9755348
0.8499447
0.9499321
1.049005
1.15097
1.024463
1.175535
1.049999
1.149959
1.249018
1.350976
1.224464
1.375536
1.250018
1.349969
1.449022
1.550978
1.424464
1.575536
1.450026
1.549975
1.649023
1.750979
1.624464
1.775536
1.65003
1.749978
1.849024
1.824464
1.850035
0.3465821
0.3489462
0.2340766
0.3483369
0.2335939
0.3481744
0.3492123
0.3493173
0.2335825
0.3480352
0.2335557
0.3479183
0.3493022
0.3492919
0.2335521
0.3478634
0.2335449
0.3478194
0.3492856
0.3492794
0.2335444
0.3478027
0.2335435
0.3477884
0.3492779
0.3492762
0.2335433
0.347784
0.2335431
0.3477794
0.3492758
0.3492754
0.233543
0.3477781
0.233543
0.3477765
0.3492754
0.3492753
0.2335429
0.3477762
0.2335429
0.3477755
0.3492753
0.3492753
0.2335429
0.3477754
0.2335429
0.3477751
0.3492753
0.3492753
0.2335429
0.347775
0.2335429
0.3477749
0.3492753
0.3492753
0.2335429
0.3477749
0.2335429
0.3477748
0.3492753
0.3492753
0.2335429
0.3477748
0.2335429
0.3477747
0.3492753
0.3492753
0.2335429
0.3477747
0.2335429
0.3477746
0.3492753
0.3492753
0.2335429
0.3477746
0.2335429
0.3477746
0.3492753
0.3492753
0.2335429
0.3477746
0.2335429
0.3477746
0.3492753
0.3492753
0.2335429
0.3477746
0.2335429
0.3477746
0.3492753
0.3492753
0.2335429
0.3477745
0.2335429
0.3477745
0.3492753
0.3492753
0.2335429
0.3477745
0.2335429
0.3477745
0.3492753
0.3492753
0.2335429
0.3477745
0.2335429
0.3477745
0.3492753
0.3492753
0.2335429
0.3477745
0.2335429
0.3477745
0.3492752
0.3492752
0.2335429
0.3477745
0.2335429
0.3477746
0.3492752
0.3492752
0.2335429
0.3477745
0.2335429
0.3477746
0.3492752
0.3492752
0.2335429
0.3477746
0.2335429
0.3477748
0.3492752
0.3492753
0.2335429
0.347775
0.2335429
0.3477755
0.3771585
0.2341564
0.3493225
0.3789745
0.233736
0.3496472
0.3789787
0.2337288
0.3496698
0.3790149
0.2337057
0.3496242
0.3790238
0.2337027
0.3496062
0.3790375
0.2337008
0.3495941
0.379042
0.2336977
0.349576
0.3790306
0.2337003
0.3495689
0.3790265
0.2337001
0.3495735
0.3790362
0.2337012
0.3495827
0.379045
0.2336993
0.3495936
0.3790494
0.2336989
0.3495993
0.3790341
0.2337053
0.3496385
0.3789675
0.2337328
0.3496742
0.3789707
0.23374
0.3496457
0.3774107
0.2341558
0.349315
0.3779344
0.2333135
0.3474538
0.348084
0.5499444
0.4487462
0.5494505
0.4502619
0.5510035
0.7754061
0.6498146
0.7499041
0.6490016
0.7509428
0.9755512
0.8499495
0.9499272
0.8489677
0.9509437
1.175569
1.049936
1.149875
1.048941
1.150909
1.375409
1.250102
1.350032
1.249079
1.35104
1.575553
1.450031
1.549969
1.449024
1.550976
1.850119
1.849085
0.3484058
0.233847
0.3487354
0.3494845
0.3500296
0.348232
0.2335536
0.3478943
0.3495746
0.3493266
0.3478259
0.2335527
0.3478283
0.349294
0.3492953
0.3479726
0.2338578
0.3485312
0.349382
0.3498781
0.3484032
0.2335601
0.347926
0.3498856
0.3493711
0.3478017
0.2335433
0.3477822
0.349287
0.3492777
0.3477835
0.2335501
0.3478079
0.349278
0.3492888
0.3479514
0.2338075
0.3485084
0.3493778
0.349913
0.3487908
0.2339324
0.3490958
0.3503978
0.3503429
0.3485983
0.2338442
0.3486807
0.3498612
0.3500283
0.348161
0.2335517
0.3478522
0.3495544
0.349311
0.347792
0.2335435
0.3477836
0.3492819
0.3492781
0.3477958
0.2335709
0.3478682
0.3492827
0.3493164
0.3482578
0.2341787
0.3491389
0.3495923
0.3503319
0.3491388
0.2336003
0.3482576
0.3503319
0.3495923
0.3478679
0.2335441
0.3477945
0.3493163
0.3492819
0.3477795
0.2335428
0.347776
0.3492767
0.3492754
0.347775
0.2335429
0.3477751
0.3492749
0.349275
0.3477753
0.2335428
0.347776
0.3492754
0.3492758
0.3477767
0.2335429
0.3477784
0.3492762
0.3492777
0.2663174
0.2682696
0.4747266
0.4242512
0.4244046
0.4755395
0.6749672
0.6243309
0.6249365
0.6754295
0.8749929
0.8243574
0.8249856
0.8754492
1.074998
1.024367
1.024995
1.075454
1.274999
1.224369
1.224997
1.275455
1.475
1.42437
1.424998
1.475455
1.675
1.62437
1.624998
1.675455
1.82437
1.824998
0.2654378
0.2666551
0.2655402
0.2667038
0.2653622
0.2670685
0.26539
0.2671068
0.2653491
0.2670833
0.2653647
0.2671093
0.265346
0.2670797
0.2653589
0.2671081
0.2653453
0.2670791
0.2653576
0.2671078
0.2653451
0.2670789
0.2653572
0.2671077
0.265345
0.2670789
0.2653571
0.2671077
0.265345
0.2670789
0.2653571
0.2671077
0.265345
0.2670789
0.2653571
0.2671077
0.265345
0.2670789
0.265357
0.2671077
0.265345
0.2670789
0.265357
0.2671077
0.265345
0.2670789
0.265357
0.2671077
0.265345
0.2670789
0.265357
0.2671077
0.265345
0.2670789
0.265357
0.2671077
0.265345
0.2670789
0.265357
0.2671077
0.265345
0.2670789
0.265357
0.2671077
0.265345
0.2670789
0.265357
0.2671077
0.265345
0.2670789
0.265357
0.2671077
0.265345
0.2670789
0.265357
0.2671077
0.265345
0.2670789
0.265357
0.2671077
0.265345
0.2670789
0.265357
0.2671077
0.265345
0.2670789
0.265357
0.2671077
0.265345
0.2670788
0.265357
0.2671077
0.2675709
0.2675015
0.2675753
0.267573
0.2675792
0.2675921
0.2675775
0.267594
0.2675567
0.2675641
0.2675969
0.2676015
0.2675997
0.2675994
0.2675777
0.267561
0.2669678
0.2673718
1.77557
1.649967
1.749895
1.648959
1.750918
0.3483313
0.2336172
0.3482422
0.3465783
0.3489798
0.348888
0.2340175
0.3491219
0.3501553
0.3503985
0.3484493
0.2575052
0.348255
0.3504101
0.3503081
0.3215625
0.3748877
0.3737119
0.3230381
0.2657869
0.2668465
0.2655816
0.2661705
0.2669861
0.2673561
0.5248367
0.5755852
0.5749159
0.5246132
0.7249764
0.7756148
0.7749876
0.7245259
0.9249951
0.9756273
0.9749989
0.9245404
1.124999
1.17563
1.175002
1.124544
1.325
1.37563
1.375002
1.324545
1.525
1.57563
1.575002
1.524545
1.725001
1.77563
1.775003
1.724545
0.2654199
0.2670466
0.2653956
0.2668581
0.2653598
0.2670821
0.2653652
0.2671097
0.2653485
0.2670794
0.265359
0.2671092
0.2653459
0.267079
0.2653576
0.267108
0.2653452
0.2670789
0.2653572
0.2671077
0.2653451
0.2670789
0.2653571
0.2671077
0.265345
0.2670789
0.2653571
0.2671077
0.265345
0.2670789
0.2653571
0.2671077
0.265345
0.2670789
0.265357
0.2671077
0.265345
0.2670789
0.265357
0.2671077
0.265345
0.2670789
0.265357
0.2671077
0.265345
0.2670789
0.265357
0.2671077
0.265345
0.2670789
0.265357
0.2671077
0.265345
0.2670789
0.265357
0.2671077
0.265345
0.2670789
0.265357
0.2671077
0.265345
0.2670789
0.265357
0.2671077
0.265345
0.2670789
0.265357
0.2671077
0.265345
0.2670789
0.265357
0.2671077
0.265345
0.2670789
0.265357
0.2671077
0.265345
0.2670789
0.265357
0.2671077
0.265345
0.2670789
0.265357
0.2671077
0.265345
0.2670788
0.265357
0.2671077
0.265345
0.2670789
0.2671077
0.2653571
0.2675891
0.2675764
0.2675769
0.2675784
0.267588
0.2675934
0.2675728
0.2675733
0.2675748
0.2675882
0.2675972
0.2675953
0.2675707
0.2675741
0.2675598
0.2675295
0.2663502
0.2684202
0.2657925
0.2668605
0.265589
0.2662095
0.4746469
0.4249941
0.4242136
0.4768721
0.4241336
0.4755425
0.5247797
0.5742926
0.5755836
0.5256682
0.5749188
0.5246049
0.6751785
0.623075
0.6243155
0.6749404
0.6249503
0.67546
0.7251404
0.7756082
0.7749886
0.724589
0.8749901
0.8243511
0.8249741
0.8754475
0.9249978
0.9756336
0.9750104
0.9245422
1.074833
1.024374
1.024994
1.07539
1.124784
1.17546
1.175639
1.124862
1.174978
1.124511
1.275214
1.224539
1.22436
1.275138
1.22502
1.275488
1.325165
1.375624
1.375003
1.324609
0.2665438
0.26715
0.2656135
0.2676183
0.2685444
0.2283624
0.2682033
0.2283616
0.2685533
0.2682278
0.2655738
0.2675973
0.2665506
0.2671909
0.2653946
0.2670823
0.2653712
0.267124
0.2653479
0.2670798
0.2653627
0.2671076
0.2653498
0.2670823
0.2653706
0.2671083
0.2665578
0.2281869
0.2682448
0.2687469
0.2676202
0.2655667
0.2670927
0.2654025
0.2671885
0.2653476
0.2670815
0.2653684
0.2671076
0.2653452
0.2670777
0.2653565
0.2671067
0.2653453
0.2670777
0.2653566
0.2671068
0.265573
0.2670944
0.2654054
0.2671908
0.2665736
0.2282182
0.2682538
0.2688044
0.2676235
0.2655719
0.2675945
0.2665483
0.2671909
0.2653918
0.267082
0.2653695
0.2671229
0.2653466
0.2670802
0.2653613
0.2671082
0.2653498
0.2670792
0.2653587
0.267109
0.2653591
0.2670943
0.2654091
0.267111
0.2666072
0.2671632
0.2656011
0.2676331
0.2689717
0.2299087
0.2685431
0.2285498
0.2703357
0.2683006
0.2689718
0.2299087
0.2685431
0.2703357
0.2285499
0.2683006
0.2666073
0.2671633
0.2656013
0.2676331
0.2653598
0.2670954
0.26541
0.267112
0.265349
0.2670782
0.2653578
0.267108
0.2653452
0.2670789
0.2653575
0.2671078
0.265344
0.2670776
0.265356
0.2671066
0.265344
0.2670776
0.265356
0.2671065
0.2653441
0.2670779
0.2671065
0.2653564
0.4993982
0.6993431
0.8992553
1.09961
1.299783
1.499845
1.699882
0.2580739
0.4984525
0.6978209
0.8985344
1.099094
1.299383
1.499481
1.699539
0.3058997
0.4956771
0.6963525
0.8973936
1.098246
1.298691
1.498848
1.698989
0.3030892
0.4924109
0.6944282
0.8961311
1.09734
1.298003
1.498244
1.698483
0.3021459
0.4910901
0.6933176
0.8953236
1.096777
1.297556
1.497872
1.698191
0.302146
0.4910904
0.6933179
0.8953238
1.096782
1.297565
1.497881
1.698198
0.30309
0.4924125
0.6944287
0.8961339
1.097355
1.298027
1.498273
1.698506
0.3059028
0.495681
0.6963585
0.8973992
1.098265
1.298728
1.498893
1.699023
0.2562471
0.498469
0.6978386
0.8985408
1.099115
1.299424
1.499527
1.699571
0.233543
0.4993903
0.6990851
0.8986733
1.099087
1.299852
1.500465
1.700503
0.3492754
0.3492757
0.2335429
0.3477758
0.2719987
0.347777
0.3477798
0.2335431
0.3477837
0.349279
0.3492814
0.265345
0.2670789
0.2671077
0.265357
0.265345
0.2670789
0.2653571
0.2671077
0.2653454
0.267079
0.267108
0.2653573
0.2653446
0.2670784
0.265357
0.267107
0.2273063
0.2300799
0.2269209
0.2269293
0.2269207
0.2269339
0.227042
0.2270413
0.2269465
0.2270482
0.2269811
0.2270254
0.2270499
0.2270245
0.2270266
0.2269376
0.2269467
0.2269457
0.2269573
0.2270692
0.2270554
0.2269412
0.226925
0.226935
0.2269802
0.2269141
0.226983
0.2270238
0.2270292
0.2269977
0.227042
0.2269835
0.2269591
0.226949
0.2270355
0.2270234
0.2269374
0.2270656
0.2274802
0.2305644
0.32159
0.3748388
0.3735362
0.3231206
0.225221
0.2269377
0.2251989
0.2268715
0.7624605
0.7878748
0.7874883
0.7622179
0.8375049
0.8121059
0.8377597
0.8124693
0.9624944
0.9878921
0.9622395
0.9875294
1.037539
1.012123
1.037781
1.01251
1.474997
1.424363
1.424986
1.475454
1.525003
1.575637
1.575014
1.524546
1.82454
1.824361
1.825021
0.2252335
0.2269621
0.2251893
0.2269599
0.2251573
0.2269528
0.2251709
0.2269362
0.2655722
0.2670953
0.2654067
0.2671922
0.2665556
0.2283892
0.2682206
0.2686023
0.2676227
0.2251616
0.2269539
0.2251723
0.2269394
0.2251566
0.2269532
0.2269356
0.2251713
0.2251563
0.2269526
0.2269355
0.2251703
0.2251563
0.2269526
0.2269355
0.2251703
0.265348
0.2670818
0.2653694
0.2671077
0.2251613
0.2269538
0.2269393
0.2251719
0.2701629
0.2297015
0.2684946
0.2699011
0.2298194
0.2685705
0.2702468
0.2285236
0.2682867
0.2295833
0.2690116
0.2685588
0.2667786
0.2676897
0.2668472
0.2677067
0.268591
0.2283653
0.2682051
0.2283805
0.2685633
0.2682434
0.2254417
0.2271098
0.2269831
0.2256674
0.2251571
0.2269528
0.2251708
0.2269362
0.225156
0.2269527
0.2269355
0.2251701
0.2653458
0.2670781
0.2653572
0.2671078
0.225156
0.2269525
0.2269355
0.22517
0.2251582
0.2269564
0.2251761
0.2269368
0.2252343
0.2269622
0.2269618
0.2251884
0.2251564
0.2269526
0.2251704
0.2269355
0.2251559
0.2269525
0.2269354
0.22517
0.2653449
0.2670777
0.2653561
0.2671076
0.2653438
0.2670775
0.2653559
0.2671063
0.2653438
0.2670776
0.2653561
0.2671063
0.2653448
0.2670787
0.2653569
0.2671075
0.2251563
0.2269527
0.2251704
0.2269356
0.2269527
0.2251704
0.2251563
0.2269356
0.227254
0.2271733
0.2269996
0.2270577
0.2269901
0.2270286
0.2269169
0.2269879
0.2269434
0.2269372
0.2269015
0.2269034
0.2269511
0.2269541
0.2271072
0.2270058
0.2270267
0.2270427
0.2269706
0.227016
1.624376
1.624997
1.675392
1.674835
1.775461
1.775639
1.77498
1.724512
1.724786
1.724862
0.2666613
0.2655421
0.2667074
0.2654433
0.2670618
0.265442
0.2668632
0.2654328
0.2285772
0.2682924
0.2688411
0.2681571