/*--------------------------------*- C++ -*----------------------------------*\
  =========                 |
  \\      /  F ield         | OpenFOAM: The Open Source CFD Toolbox
   \\    /   O peration     | Website:  https://openfoam.org
    \\  /    A nd           | Version:  7
     \\/     M anipulation  |
\*---------------------------------------------------------------------------*/
FoamFile
{
    version     2.0;
    format      ascii;
    class       volScalarField;
    location    "0.1";
    object      Cy;
}
// * * * * * * * * * * * * * * * * * * * * * * * * * * * * * * * * * * * * * //

dimensions      [0 1 0 0 0 0 0];

internalField   nonuniform List<scalar> 
80136
(
0.499264
0.4996165
0.4995601
0.4994644
0.4994254
0.4994156
0.4994163
0.6997279
0.6995956
0.6995167
0.6994227
0.6993793
0.6993664
0.6993649
0.8997402
0.8995135
0.8993878
0.8993232
0.8992939
0.8992846
0.8992836
1.099892
1.099787
1.09972
1.099683
1.099666
1.099661
1.09966
1.299961
1.299921
1.299891
1.299873
1.299864
1.299861
1.299861
1.499986
1.49997
1.499957
1.499947
1.499942
1.49994
1.49994
1.699994
1.699988
1.699982
1.699977
1.699974
1.699972
1.699972
1.899997
1.899994
1.899992
1.899989
1.899987
1.899986
1.899985
2.099999
2.099997
2.099995
2.099994
2.099993
2.099992
2.099992
2.299999
2.299998
2.299998
2.299997
2.299996
2.299996
2.299996
2.5
2.499999
2.499999
2.499998
2.499998
2.499998
2.499998
2.7
2.7
2.699999
2.699999
2.699999
2.699999
2.699999
2.9
2.9
2.9
2.9
2.9
2.9
2.899999
3.1
3.1
3.1
3.1
3.1
3.1
3.1
3.3
3.3
3.3
3.3
3.3
3.3
3.3
3.5
3.5
3.5
3.5
3.5
3.5
3.5
3.7
3.7
3.700001
3.700001
3.700001
3.700001
3.700001
3.9
3.900001
3.900001
3.900002
3.900002
3.900002
3.900002
4.1
4.100001
4.100002
4.100003
4.100003
4.100004
4.100005
4.300001
4.300002
4.300003
4.300004
4.300007
4.300009
4.300012
4.500001
4.500003
4.500005
4.500009
4.500013
4.500019
4.500026
4.700002
4.700005
4.70001
4.700017
4.700027
4.70004
4.700054
4.900003
4.900009
4.900018
4.900032
4.900053
4.900081
4.900113
0.2590658
0.2584716
0.2581545
0.2580881
0.2580785
0.2580778
0.2580807
0.2580849
0.450749
0.5000536
0.4995447
0.4989358
0.4986521
0.4985499
0.4985247
0.498529
0.6504184
0.6995351
0.6989394
0.698405
0.698109
0.6979794
0.6979372
0.6979318
0.850016
0.899686
0.8993265
0.8990081
0.8988079
0.8987093
0.8986743
0.8986687
1.049987
1.099829
1.099639
1.099466
1.099347
1.099284
1.099261
1.099257
1.249992
1.299914
1.299817
1.299726
1.29966
1.299623
1.299609
1.299605
1.449994
1.499957
1.499908
1.49986
1.499824
1.499803
1.499793
1.49979
1.649994
1.699978
1.699953
1.699928
1.699908
1.699895
1.699889
1.699886
1.849995
1.899989
1.899975
1.899962
1.899951
1.899943
1.899939
1.899937
2.049995
2.099994
2.099987
2.09998
2.099973
2.099969
2.099967
2.099966
2.249995
2.299997
2.299993
2.299989
2.299986
2.299983
2.299982
2.299982
2.449995
2.499998
2.499996
2.499994
2.499992
2.499991
2.499991
2.499992
2.649995
2.699999
2.699998
2.699997
2.699996
2.699996
2.699995
2.699996
2.849995
2.9
2.899999
2.899998
2.899998
2.899998
2.899998
2.899998
3.049995
3.1
3.1
3.1
3.1
3.099999
3.099999
3.099998
3.249995
3.3
3.3
3.3
3.3
3.300001
3.3
3.299999
3.449995
3.5
3.500001
3.500001
3.500002
3.500002
3.500002
3.500001
3.649995
3.700001
3.700002
3.700003
3.700004
3.700005
3.700006
3.700006
3.849995
3.900001
3.900003
3.900005
3.900007
3.900009
3.900012
3.900013
4.049995
4.100002
4.100004
4.100008
4.100012
4.100017
4.100022
4.100027
4.249995
4.300003
4.300007
4.300013
4.300021
4.30003
4.300041
4.300053
4.449995
4.500004
4.500011
4.500022
4.500035
4.500053
4.500074
4.5001
4.649995
4.700007
4.700018
4.700034
4.700058
4.70009
4.700131
4.700182
4.950055
4.900011
4.900027
4.900053
4.900092
4.900147
4.900224
4.900324
0.2586853
0.3080829
0.3066107
0.3060804
0.3059615
0.3059378
0.3059358
0.4517852
0.5001291
0.4985284
0.496855
0.4961393
0.4958918
0.4958218
0.495814
0.7013529
0.6996774
0.6986754
0.6976146
0.6969843
0.696705
0.6966095
0.6965918
0.9003725
0.8996491
0.8990904
0.8984673
0.8980292
0.8978098
0.8977279
0.897711
1.099963
1.099759
1.099455
1.099116
1.098859
1.098716
1.09866
1.098647
1.299961
1.299858
1.29969
1.299505
1.29936
1.299275
1.29924
1.299231
1.499981
1.499922
1.499828
1.499727
1.499647
1.499598
1.499576
1.499568
1.69999
1.699958
1.699906
1.699851
1.699805
1.699777
1.699764
1.699756
1.899995
1.899977
1.899949
1.899918
1.899893
1.899877
1.899868
1.899863
2.099997
2.099988
2.099972
2.099955
2.099941
2.099932
2.099927
2.099925
2.299999
2.299993
2.299985
2.299975
2.299968
2.299963
2.299961
2.299962
2.499999
2.499996
2.499992
2.499987
2.499983
2.49998
2.49998
2.499982
2.7
2.699998
2.699995
2.699993
2.699991
2.69999
2.69999
2.699992
2.9
2.899999
2.899998
2.899996
2.899996
2.899995
2.899995
2.899995
3.1
3.1
3.099999
3.099999
3.099999
3.099999
3.099998
3.099997
3.3
3.3
3.3
3.300001
3.300001
3.300002
3.300001
3.299998
3.5
3.5
3.500002
3.500003
3.500004
3.500005
3.500005
3.500003
3.7
3.700001
3.700003
3.700006
3.700009
3.700011
3.700013
3.700013
3.9
3.900002
3.900006
3.90001
3.900016
3.900022
3.900027
3.900031
4.100001
4.100003
4.100009
4.100018
4.100028
4.100039
4.100051
4.100063
4.300001
4.300006
4.300015
4.300029
4.300046
4.300067
4.300091
4.300119
4.500002
4.500009
4.500023
4.500045
4.500074
4.500112
4.500158
4.500216
4.700003
4.700013
4.700034
4.700068
4.700116
4.700181
4.700267
4.700379
4.900004
4.900019
4.90005
4.9001
4.900175
4.900283
4.900435
4.900645
0.2583967
0.3066755
0.3041648
0.3033739
0.3031833
0.3031412
0.3031337
0.4522751
0.4996981
0.4969444
0.4942751
0.4931311
0.4927345
0.492615
0.4925915
0.7023613
0.699517
0.6979814
0.6963735
0.6954029
0.6949671
0.6948116
0.6947765
0.9007051
0.8995543
0.898755
0.8978279
0.8971443
0.8967889
0.8966532
0.8966211
1.099965
1.099688
1.099264
1.098752
1.098333
1.09809
1.097994
1.097969
1.299944
1.299811
1.299574
1.299297
1.299064
1.298922
1.298862
1.298843
1.499972
1.499893
1.499759
1.499606
1.499476
1.499396
1.499359
1.499343
1.699986
1.699941
1.699865
1.69978
1.699708
1.699662
1.69964
1.699627
1.899993
1.899968
1.899925
1.899878
1.899837
1.899812
1.899798
1.899789
2.099996
2.099982
2.099958
2.099932
2.09991
2.099895
2.099889
2.099885
2.299998
2.29999
2.299977
2.299963
2.299951
2.299943
2.29994
2.299942
2.499999
2.499995
2.499987
2.49998
2.499973
2.49997
2.49997
2.499973
2.699999
2.699997
2.699993
2.699989
2.699986
2.699985
2.699985
2.699988
2.9
2.899999
2.899997
2.899995
2.899993
2.899993
2.899993
2.899994
3.1
3.1
3.099999
3.099998
3.099998
3.099998
3.099997
3.099995
3.3
3.3
3.300001
3.300001
3.300002
3.300002
3.300002
3.299998
3.5
3.500001
3.500002
3.500004
3.500007
3.500008
3.500009
3.500005
3.7
3.700002
3.700004
3.700009
3.700014
3.700018
3.700021
3.700021
3.900001
3.900003
3.900008
3.900016
3.900025
3.900034
3.900043
3.900049
4.100001
4.100005
4.100014
4.100026
4.100042
4.10006
4.10008
4.1001
4.300001
4.300008
4.300022
4.300042
4.30007
4.300103
4.300141
4.300186
4.500002
4.500012
4.500033
4.500065
4.500111
4.500169
4.500242
4.500333
4.700004
4.700018
4.700048
4.700097
4.700169
4.700268
4.700402
4.700579
4.900005
4.900025
4.900067
4.900138
4.90025
4.900413
4.900645
4.900974
0.258336
0.3061812
0.3034228
0.302482
0.3022563
0.3022058
0.3021961
0.4522993
0.4995011
0.4963431
0.4932838
0.4919444
0.4914732
0.4913284
0.4912974
0.7025426
0.6993875
0.6975716
0.6956607
0.6944935
0.6939657
0.693774
0.693728
0.9008479
0.8994791
0.8985271
0.8974076
0.8965723
0.8961292
0.8959566
0.8959127
1.099965
1.099642
1.099142
1.09852
1.098008
1.097707
1.097582
1.097547
1.299935
1.299783
1.299505
1.299169
1.298879
1.298697
1.298617
1.29859
1.499967
1.499876
1.499718
1.499533
1.499373
1.499271
1.499222
1.499201
1.699983
1.699931
1.699841
1.699739
1.69965
1.699592
1.699563
1.699545
1.899992
1.899962
1.899912
1.899854
1.899805
1.899772
1.899755
1.899743
2.099996
2.099979
2.099951
2.099919
2.099892
2.099873
2.099865
2.09986
2.299998
2.299989
2.299973
2.299955
2.29994
2.299931
2.299928
2.29993
2.499999
2.499994
2.499985
2.499976
2.499968
2.499964
2.499963
2.499968
2.699999
2.699996
2.699992
2.699987
2.699983
2.699982
2.699982
2.699986
2.9
2.899998
2.899996
2.899994
2.899992
2.899992
2.899992
2.899993
3.1
3.099999
3.099999
3.099998
3.099998
3.099998
3.099997
3.099995
3.3
3.3
3.300001
3.300002
3.300003
3.300003
3.300002
3.299998
3.5
3.500001
3.500003
3.500005
3.500008
3.50001
3.500011
3.500007
3.7
3.700002
3.700005
3.700011
3.700017
3.700022
3.700026
3.700026
3.900001
3.900004
3.90001
3.900019
3.90003
3.900042
3.900053
3.900061
4.100001
4.100006
4.100016
4.100031
4.100051
4.100073
4.100098
4.100122
4.300002
4.300009
4.300025
4.30005
4.300083
4.300124
4.300172
4.300228
4.500003
4.500014
4.500038
4.500076
4.500131
4.500202
4.500292
4.500405
4.700004
4.700021
4.700055
4.700112
4.700197
4.700317
4.700481
4.700701
4.900006
4.900028
4.900075
4.900157
4.900286
4.90048
4.900762
4.901166
0.2583287
0.3061818
0.3034238
0.3024834
0.3022577
0.3022071
0.3021974
0.4523031
0.4995017
0.4963449
0.4932865
0.4919478
0.4914769
0.4913315
0.4913005
0.7025428
0.6993884
0.6975738
0.6956639
0.6944973
0.6939696
0.6937774
0.6937309
0.9008481
0.8994799
0.8985287
0.8974099
0.8965749
0.8961315
0.8959582
0.8959135
1.099965
1.099642
1.099143
1.098522
1.09801
1.097708
1.097581
1.097546
1.299935
1.299783
1.299505
1.29917
1.29888
1.298697
1.298616
1.298588
1.499967
1.499876
1.499718
1.499534
1.499374
1.499271
1.499222
1.499199
1.699983
1.699931
1.699842
1.699739
1.69965
1.699592
1.699563
1.699544
1.899992
1.899962
1.899912
1.899854
1.899805
1.899772
1.899755
1.899743
2.099996
2.099979
2.099951
2.099919
2.099892
2.099874
2.099865
2.099861
2.299998
2.299989
2.299973
2.299955
2.29994
2.299931
2.299928
2.29993
2.499999
2.499994
2.499985
2.499975
2.499968
2.499963
2.499963
2.499968
2.699999
2.699997
2.699992
2.699987
2.699983
2.699981
2.699982
2.699986
2.9
2.899998
2.899996
2.899994
2.899992
2.899991
2.899991
2.899992
3.1
3.099999
3.099999
3.099998
3.099998
3.099997
3.099997
3.099994
3.3
3.3
3.300001
3.300001
3.300003
3.300003
3.300002
3.299997
3.5
3.500001
3.500003
3.500005
3.500008
3.50001
3.50001
3.500006
3.700001
3.700002
3.700005
3.700011
3.700017
3.700022
3.700026
3.700026
3.900001
3.900004
3.90001
3.900019
3.90003
3.900042
3.900052
3.900061
4.100001
4.100006
4.100016
4.100031
4.100051
4.100073
4.100098
4.100123
4.300002
4.300009
4.300025
4.30005
4.300083
4.300124
4.300172
4.300228
4.500003
4.500014
4.500038
4.500076
4.50013
4.500201
4.500292
4.500405
4.700004
4.70002
4.700054
4.70011
4.700195
4.700314
4.700478
4.700699
4.900006
4.900028
4.900073
4.900152
4.90028
4.900473
4.900755
4.901162
0.2583501
0.3066792
0.3041699
0.3033809
0.3031903
0.3031471
0.3031402
0.4522938
0.4997014
0.4969533
0.494287
0.4931463
0.4927499
0.4926282
0.4926053
0.7023612
0.6995211
0.69799
0.6963849
0.6954168
0.6949811
0.6948235
0.6947874
0.9007053
0.8995568
0.8987604
0.8978353
0.897153
0.896797
0.896659
0.8966244
1.099965
1.099689
1.099267
1.098756
1.098337
1.098093
1.097995
1.097967
1.299944
1.299812
1.299576
1.299299
1.299066
1.298923
1.298861
1.298839
1.499971
1.499893
1.49976
1.499607
1.499478
1.499397
1.499359
1.499341
1.699985
1.699941
1.699866
1.699781
1.699709
1.699664
1.699641
1.699626
1.899993
1.899967
1.899925
1.899878
1.899839
1.899813
1.8998
1.899791
2.099997
2.099982
2.099959
2.099933
2.099911
2.099897
2.09989
2.099887
2.299998
2.29999
2.299977
2.299963
2.299951
2.299943
2.299941
2.299943
2.499999
2.499995
2.499987
2.499979
2.499973
2.499969
2.499969
2.499973
2.7
2.699997
2.699993
2.699989
2.699985
2.699984
2.699984
2.699986
2.899999
2.899998
2.899997
2.899994
2.899992
2.899991
2.899991
2.899991
3.099999
3.1
3.099999
3.099998
3.099997
3.099996
3.099995
3.099993
3.3
3.3
3.300001
3.300001
3.300001
3.300001
3.3
3.299996
3.500001
3.500001
3.500002
3.500004
3.500006
3.500008
3.500007
3.500004
3.700001
3.700002
3.700004
3.700009
3.700013
3.700018
3.70002
3.70002
3.9
3.900003
3.900009
3.900016
3.900025
3.900034
3.900042
3.900049
4.1
4.100005
4.100014
4.100027
4.100043
4.100061
4.10008
4.1001
4.300001
4.300008
4.300022
4.300043
4.30007
4.300104
4.300142
4.300187
4.500002
4.500012
4.500033
4.500065
4.50011
4.500169
4.500241
4.500333
4.700004
4.700018
4.700046
4.700094
4.700165
4.700263
4.700397
4.700576
4.900005
4.900024
4.900061
4.900126
4.900232
4.900393
4.900628
4.900963
0.25854
0.3081021
0.3066282
0.3061107
0.305992
0.3059581
0.3059647
0.4520357
0.5001524
0.4985616
0.4968883
0.4961884
0.4959413
0.4958581
0.4958602
0.7013562
0.6996902
0.6986963
0.6976384
0.6970144
0.6967349
0.6966337
0.6966169
0.9003723
0.8996552
0.8991003
0.8984794
0.8980434
0.8978232
0.8977379
0.8977185
1.099964
1.099761
1.099459
1.099122
1.098865
1.098721
1.098663
1.098647
1.299966
1.299859
1.299691
1.299508
1.299363
1.299278
1.299241
1.299228
1.499992
1.499925
1.49983
1.499729
1.499649
1.499601
1.499578
1.499567
1.699989
1.699959
1.699907
1.699852
1.699808
1.699781
1.699768
1.699759
1.899983
1.899975
1.899949
1.899919
1.899895
1.89988
1.899873
1.899868
2.099995
2.099987
2.099972
2.099956
2.099943
2.099935
2.099931
2.09993
2.300002
2.299993
2.299985
2.299976
2.299968
2.299964
2.299963
2.299965
2.500007
2.499996
2.499991
2.499986
2.499982
2.49998
2.49998
2.499983
2.7
2.699997
2.699995
2.699992
2.699989
2.699988
2.699988
2.699989
2.899992
2.899999
2.899997
2.899996
2.899994
2.899992
2.899991
2.899991
3.099998
3.1
3.1
3.099998
3.099997
3.099996
3.099994
3.099992
3.3
3.3
3.3
3.3
3.3
3.299999
3.299997
3.299994
3.500002
3.5
3.500001
3.500002
3.500003
3.500003
3.500003
3.5
3.700003
3.7
3.700002
3.700005
3.700008
3.70001
3.700012
3.700011
3.899998
3.900003
3.900007
3.900011
3.900016
3.900021
3.900027
3.900031
4.099998
4.100004
4.10001
4.100019
4.100029
4.10004
4.100052
4.100064
4.300001
4.300006
4.300016
4.300031
4.300048
4.300069
4.300093
4.300121
4.500002
4.50001
4.500025
4.500048
4.500077
4.500115
4.500161
4.500218
4.700003
4.700014
4.700036
4.700069
4.700116
4.700179
4.700265
4.700379
4.900004
4.900019
4.900046
4.90009
4.900157
4.900261
4.900416
4.900633
0.25885
0.2578523
0.2564808
0.2563221
0.2563263
0.2562732
0.2562965
0.2563266
0.4515566
0.5001869
0.4996695
0.4990058
0.4988047
0.4987026
0.4985983
0.4986772
0.6521292
0.69956
0.6989747
0.6984367
0.6981541
0.6980243
0.6979696
0.6979726
0.8492071
0.8996996
0.8993384
0.89902
0.8988222
0.8987233
0.8986847
0.8986783
1.048994
1.09983
1.099643
1.09947
1.099353
1.099289
1.099264
1.099258
1.24899
1.299904
1.299817
1.299728
1.299663
1.299626
1.299611
1.299605
1.449116
1.499967
1.49991
1.499862
1.499827
1.499806
1.499797
1.499793
1.649162
1.699985
1.699955
1.699929
1.69991
1.699899
1.699894
1.699891
1.848701
1.899985
1.899976
1.899963
1.899953
1.899947
1.899945
1.899943
2.048981
2.099995
2.099987
2.09998
2.099975
2.099972
2.099971
2.099971
2.248992
2.299995
2.299992
2.299989
2.299986
2.299984
2.299984
2.299986
2.449107
2.499992
2.499994
2.499993
2.499992
2.49999
2.49999
2.499992
2.649005
2.699994
2.699996
2.699996
2.699994
2.699993
2.699993
2.699994
2.848872
2.900003
2.899999
2.899997
2.899996
2.899995
2.899994
2.899993
3.048988
3.100008
3.100001
3.099999
3.099997
3.099996
3.099995
3.099993
3.248992
3.3
3.3
3.299999
3.299999
3.299998
3.299997
3.299995
3.448993
3.499995
3.499999
3.5
3.5
3.5
3.499999
3.499998
3.648999
3.699987
3.699999
3.700002
3.700003
3.700004
3.700004
3.700004
3.848988
3.900014
3.900005
3.900005
3.900007
3.900009
3.900011
3.900013
4.04899
4.100007
4.100006
4.100009
4.100014
4.100018
4.100023
4.100028
4.248992
4.300004
4.300009
4.300016
4.300025
4.300034
4.300045
4.300056
4.448992
4.500006
4.500016
4.500028
4.500043
4.500061
4.500081
4.500105
4.648992
4.70001
4.700025
4.700045
4.70007
4.700102
4.700141
4.70019
4.951008
4.900015
4.900035
4.900061
4.900096
4.900148
4.900223
4.900326
0.2344281
0.2341208
0.233579
0.2336024
0.2341794
0.2335727
0.2336021
0.2341817
0.42601
0.4995308
0.49981
0.4996176
0.4996668
0.4996278
0.4994746
0.4996167
0.6246297
0.6997347
0.6996154
0.6995326
0.6994474
0.699404
0.6993827
0.6993878
0.8242455
0.899759
0.8995188
0.8993923
0.8993291
0.8992995
0.8992887
0.8992876
1.024463
1.099891
1.099788
1.099721
1.099685
1.099668
1.099662
1.099661
1.224481
1.299934
1.29992
1.299892
1.299874
1.299865
1.299862
1.299861
1.424498
1.499977
1.499971
1.499957
1.499949
1.499944
1.499942
1.499942
1.650093
1.700006
1.699989
1.699982
1.699978
1.699976
1.699975
1.699975
1.823188
1.900023
1.899995
1.899992
1.89999
1.899989
1.899989
1.899989
2.024459
2.100001
2.099997
2.099996
2.099995
2.099994
2.099995
2.099995
2.224464
2.299997
2.299998
2.299998
2.299997
2.299997
2.299997
2.299998
2.424496
2.499969
2.499997
2.499998
2.499998
2.499998
2.499998
2.499998
2.650098
2.700004
2.699999
2.699999
2.699998
2.699998
2.699998
2.699998
2.824251
2.90001
2.9
2.899999
2.899999
2.899998
2.899997
2.899997
3.02424
3.100017
3.100001
3.099999
3.099999
3.099998
3.099998
3.099997
3.224464
3.300001
3.3
3.3
3.299999
3.299999
3.299998
3.299998
3.424464
3.499993
3.499999
3.5
3.5
3.499999
3.499999
3.499999
3.624591
3.699966
3.699998
3.7
3.7
3.7
3.7
3.7
3.824431
3.900035
3.900002
3.900001
3.900001
3.900001
3.900002
3.900002
4.024448
4.100007
4.100002
4.100002
4.100003
4.100004
4.100005
4.100006
4.224464
4.300001
4.300003
4.300005
4.300008
4.30001
4.300012
4.300014
4.424464
4.500003
4.500007
4.500012
4.500018
4.500023
4.500028
4.500032
4.624464
4.700006
4.700015
4.700027
4.70004
4.700051
4.70006
4.700068
4.824464
4.900004
4.899996
4.899998
4.900024
4.900052
4.900067
4.900085
0.3481641
0.2333142
0.3775483
0.3475111
0.3465861
0.3489474
0.2340754
0.2335938
0.3483328
0.3481741
0.3492126
0.3493175
0.2335825
0.2335557
0.3480352
0.3479184
0.3493023
0.349292
0.2335521
0.2335449
0.3478637
0.34782
0.3492858
0.3492798
0.2335445
0.2335435
0.3478036
0.3477902
0.3492785
0.3492773
0.2335434
0.2335434
0.3477866
0.3477839
0.3492776
0.3492782
0.2335434
0.2335439
0.3477847
0.3477868
0.3492793
0.3492813
0.2335443
0.2335465
0.3477908
0.3477973
0.3492834
0.2335474
0.3478024
0.4503432
0.5510053
0.4260106
0.4488298
0.5755725
0.5494712
0.6489447
0.75088
0.6245024
0.6497579
0.775548
0.7498449
0.8489654
0.950946
0.8244692
0.8499445
0.9755348
0.9499317
1.049005
1.15097
1.024463
1.049999
1.175535
1.149958
1.249018
1.350976
1.224464
1.250017
1.375536
1.349967
1.449022
1.550977
1.424464
1.450024
1.575536
1.54997
1.649022
1.750978
1.624464
1.650026
1.775536
1.749971
1.849022
1.950978
1.824464
1.850027
1.975536
1.949972
2.049022
2.150978
2.024464
2.050027
2.175536
2.149972
2.249022
2.350978
2.224464
2.250028
2.375536
2.349972
2.449022
2.550978
2.424464
2.450028
2.575536
2.549972
2.649022
2.750978
2.624464
2.650028
2.775536
2.749972
2.849022
2.950978
2.824464
2.850028
2.975536
2.949972
3.049022
3.150978
3.024464
3.050028
3.175536
3.149972
3.249022
3.350978
3.224464
3.250028
3.375536
3.349972
3.449022
3.550978
3.424464
3.450028
3.575536
3.549972
3.649022
3.750978
3.624464
3.650028
3.775536
3.749972
3.849022
3.950978
3.824464
3.850028
3.975536
3.949972
4.049022
4.150978
4.024464
4.050028
4.175536
4.149972
4.249022
4.350978
4.224464
4.250028
4.375536
4.349972
4.449022
4.550978
4.424464
4.450028
4.575536
4.549972
4.649022
4.750978
4.624464
4.650028
4.775536
4.749973
4.849022
4.950978
4.824464
4.850028
4.975536
4.949973
0.2341551
0.3771381
0.3492961
0.233734
0.3789571
0.3496179
0.233727
0.3789671
0.3496438
0.2337067
0.3790196
0.3496306
0.2337037
0.3790282
0.3495957
0.2336934
0.379032
0.3495648
0.2336961
0.3790245
0.3495573
0.2336917
0.3790324
0.3495504
0.233692
0.3790371
0.3495485
0.2336922
0.3790325
0.3495527
0.2336951
0.3790225
0.3495621
0.2337076
0.3789923
0.3495915
0.2337071
0.3789965
0.3496185
0.2337221
0.3789889
0.3496573
0.233727
0.3789828
0.3496602
0.2341842
0.377139
0.3494361
0.2334363
0.3775424
0.3478958
0.3484436
0.2581185
0.3495846
0.3493981
0.3476253
0.3501629
0.2336073
0.3493182
0.3483844
0.3502596
0.3496311
0.2335741
0.3479716
0.3479318
0.3493487
0.3493395
0.2341794
0.3482913
0.349156
0.3496044
0.3503371
0.2336013
0.3491525
0.3482718
0.3503357
0.349596
0.2335732
0.3478976
0.3478991
0.3493257
0.3493261
0.3491633
0.3503389
0.6497152
0.7754078
0.7498446
0.6488861
0.7508868
0.8500023
0.9755338
0.9499365
0.849024
0.950948
1.049999
1.175537
1.149958
1.049005
1.15097
1.249998
1.375659
1.349893
1.249003
1.350897
1.850093
1.975503
1.949991
1.849115
1.950993
2.050027
2.175536
2.149972
2.049022
2.150977
2.250028
2.375541
2.349973
2.249023
2.350978
2.450009
2.576716
2.5499
2.449007
2.550884
2.649999
2.775009
2.750026
2.648997
2.751054
2.850038
2.975395
2.949973
2.849023
2.950986
3.050083
3.175535
3.149976
3.04908
3.150979
3.250027
3.375536
3.349972
3.249022
3.350978
3.450029
3.575552
3.549969
3.449023
3.550976
3.649965
3.775569
3.749888
3.648959
3.750917
3.850112
3.975409
3.950035
3.849083
3.951041
4.050032
4.175536
4.149971
4.049024
4.150976
4.250027
4.375536
4.349972
4.249022
4.350978
4.450028
4.575536
4.549973
4.449022
4.550978
4.650028
4.775536
4.749974
4.649023
4.750978
4.850029
4.975536
4.949975
4.849023
4.950979
0.2663352
0.2684262
0.2654391
0.2666617
0.2655435
0.2667062
0.2653622
0.2670686
0.2653901
0.2671068
0.2653491
0.2670833
0.2653647
0.2671093
0.2653461
0.2670798
0.265359
0.2671081
0.2653454
0.2670791
0.2653577
0.2671078
0.2653457
0.267079
0.2653576
0.2671079
0.2653477
0.2670794
0.2653589
0.2671085
0.2670812
0.2653649
0.4747278
0.4242605
0.4244082
0.4755425
0.6749672
0.624331
0.6249365
0.6754296
0.8749929
0.8243574
0.8249856
0.8754492
1.074998
1.024367
1.024995
1.075454
1.274999
1.224369
1.224997
1.275455
1.475
1.42437
1.424998
1.475455
1.675
1.62437
1.624998
1.675455
1.875
1.82437
1.824998
1.875455
2.075
2.02437
2.024998
2.075455
2.275
2.22437
2.224998
2.275455
2.475
2.42437
2.424998
2.475455
2.675
2.62437
2.624998
2.675455
2.875
2.82437
2.824998
2.875455
3.075
3.02437
3.024998
3.075455
3.275
3.22437
3.224998
3.275455
3.475
3.42437
3.424998
3.475455
3.675
3.62437
3.624998
3.675455
3.875
3.82437
3.824998
3.875455
4.075
4.02437
4.024998
4.075455
4.275
4.22437
4.224998
4.275455
4.475
4.42437
4.424998
4.475455
4.675
4.62437
4.624998
4.675455
4.875
4.82437
4.824998
4.875455
0.2675373
0.2674897
0.2675687
0.2675669
0.2675971
0.267594
0.267551
0.2675663
0.2675978
0.2675762
0.267539
0.2675749
0.2675775
0.2675487
0.2675861
0.2676156
0.2669454
0.2673254
0.2341813
0.3482769
0.3491592
0.3495975
0.3503373
0.4489585
0.5755904
0.549502
0.4504101
0.5510167
1.450032
1.57667
1.54993
1.449032
1.550934
1.650138
1.749795
1.749892
1.649019
1.750998
0.2657985
0.2668654
0.2655905
0.266217
0.3215785
0.3749199
0.3737242
0.3231345
0.2669428
0.2673177
0.2654203
0.2670468
0.2653958
0.266859
0.2653598
0.2670821
0.2653652
0.2671098
0.2653486
0.2670794
0.265359
0.2671092
0.2653459
0.267079
0.2653577
0.267108
0.2653455
0.267079
0.2653575
0.2671078
0.2653459
0.2670792
0.2653583
0.267108
0.2653489
0.2670806
0.2653628
0.2671089
0.5248372
0.5755855
0.574916
0.5246141
0.7249763
0.7756148
0.7749876
0.7245259
0.9249951
0.9756273
0.9749989
0.9245404
1.124999
1.17563
1.175002
1.124544
1.325
1.37563
1.375002
1.324545
1.525
1.57563
1.575002
1.524545
1.725
1.77563
1.775002
1.724545
1.925
1.97563
1.975002
1.924545
2.125
2.17563
2.175002
2.124545
2.325
2.37563
2.375002
2.324545
2.525
2.57563
2.575002
2.524545
2.725
2.77563
2.775002
2.724545
2.925
2.97563
2.975002
2.924545
3.125
3.17563
3.175002
3.124545
3.325
3.37563
3.375002
3.324545
3.525
3.57563
3.575002
3.524545
3.725
3.77563
3.775002
3.724545
3.925
3.97563
3.975002
3.924545
4.125
4.17563
4.175002
4.124545
4.325
4.37563
4.375002
4.324545
4.525
4.57563
4.575002
4.524545
4.725
4.77563
4.775002
4.724545
4.925
4.97563
4.924545
4.975002
0.2675536
0.2675628
0.2675726
0.2675951
0.2675819
0.2675881
0.2675611
0.2675627
0.2675785
0.2675829
0.26751
0.2675191
0.2676062
0.2676
0.2675646
0.2675009
0.2663455
0.2684039
0.3215885
0.3749124
0.3737312
0.3231237
0.2703496
0.2285215
0.2678554
0.2296065
0.2691354
0.2681609
0.2703394
0.2298721
0.2685311
0.2298753
0.2703259
0.2683405
0.2689671
0.2295989
0.2685257
0.2285085
0.2703156
0.2682959
0.2666143
0.2671659
0.265607
0.2676335
0.2653675
0.2670989
0.2654173
0.2671138
0.2653672
0.2670953
0.2654128
0.2671137
0.2666086
0.2671643
0.2656037
0.2676336
0.268973
0.2299089
0.2685433
0.2285501
0.2703365
0.268301
0.2689725
0.2299089
0.2685433
0.22855
0.2703365
0.2683008
0.2666081
0.2671637
0.2656025
0.2676333
0.6747936
0.6243347
0.624932
0.6753594
0.7247773
0.7756661
0.7756588
0.7243301
0.7751848
0.7244817
0.8749975
0.8244265
0.825158
0.8754456
0.9249847
0.9756253
0.9749955
0.9245346
1.074998
1.024367
1.024994
1.075454
1.125
1.175631
1.175005
1.124545
1.875164
1.823747
1.824397
1.825228
1.875519
1.925004
1.975623
1.974991
1.924541
2.074999
2.024368
2.024994
2.075455
2.125
2.17563
2.175002
2.124545
2.275
2.22437
2.224998
2.275455
2.474996
2.424377
2.425009
2.475459
2.524837
2.576245
2.575603
2.574772
2.524481
3.075004
3.024438
3.02517
3.075452
3.12499
3.175628
3.174999
3.124539
3.275
3.224369
3.224997
3.275455
3.475001
3.42437
3.424998
3.475456
3.525004
3.575637
3.575014
3.524547
3.674835
3.624376
3.624997
3.675391
3.724786
3.77546
3.775639
3.724862
3.774979
3.724512
3.875214
3.82454
3.824361
3.825021
3.875138
3.875488
3.925165
3.975624
3.975003
3.924609
4.074996
4.024363
4.024986
4.075453
4.124999
4.17563
4.175002
4.124544
4.275
4.22437
4.224998
4.275455
4.725
4.77563
4.775002
4.724545
4.875
4.82437
4.824998
4.875455
4.925
4.97563
4.924545
4.975002
5.100006
5.100014
5.100021
5.100023
5.100044
5.100098
5.100159
5.150005
5.100016
5.100039
5.100078
5.100137
5.100227
5.100363
5.100549
5.100006
5.100026
5.100068
5.100138
5.10025
5.100421
5.100677
5.101045
5.100007
5.100034
5.100089
5.100188
5.100354
5.100611
5.10099
5.101544
5.100008
5.100038
5.1001
5.10021
5.100397
5.100682
5.10112
5.101792
5.100008
5.100036
5.100095
5.100201
5.100382
5.100667
5.101107
5.101784
5.100007
5.10003
5.100076
5.10016
5.100311
5.100562
5.100949
5.101519
5.100006
5.100022
5.100051
5.100098
5.100183
5.100339
5.100607
5.101005
5.151009
5.100018
5.100036
5.100049
5.100071
5.100139
5.100286
5.10051
5.024464
5.099988
5.099748
5.099468
5.099414
5.09943
5.099469
5.09959
5.049022
5.150978
5.024464
5.050028
5.175034
5.149974
5.050029
5.175536
5.149977
5.049024
5.150981
5.075
5.02437
5.075455
5.024998
5.125
5.17563
5.175002
5.124545
5.075
5.02437
5.075456
5.024998
5.125
5.175631
5.175003
5.124545
0.2274479
0.2305863
0.2270189
0.2269846
0.2270163
0.2269694
0.2269842
0.2269846
0.2270023
0.2269659
0.2269979
0.2269173
0.2269634
0.227012
0.2269634
0.2270007
0.2270647
0.2270657
0.2269798
0.2269266
0.2269559
0.2270027
0.2270132
0.2269685
0.2270141
0.2270892
0.2270367
0.2270132
0.226912
0.2269195
0.2269262
0.2270355
0.2269243
0.226948
0.2269269
0.2269415
0.2270222
0.2269376
0.2274353
0.2303445
0.2660188
0.2673858
0.2668263
0.2662917
0.3621551
0.3877494
0.3873611
0.3620635
0.2252343
0.2269614
0.2251883
0.2269612
0.2251583
0.2269561
0.2269366
0.2251762
0.2251584
0.2269564
0.226937
0.2251761
0.2252344
0.2269624
0.2269619
0.2251885
0.2653657
0.2670961
0.2654122
0.2671137
0.265366
0.2670965
0.2654131
0.2671137
0.2299105
0.2685451
0.2703422
0.6375331
0.6121127
0.6125039
0.6377747
0.9624862
0.9878863
0.9875148
0.9622359
1.274995
1.224376
1.225008
1.275458
1.324834
1.374341
1.375599
1.374804
1.324477
1.962475
1.987885
1.98751
1.962232
2.037511
2.012112
2.037763
2.012482
2.162489
2.187887
2.162237
2.187516
2.237511
2.212113
2.237763
2.212484
2.325001
2.375632
2.375006
2.324545
2.437526
2.412116
2.437768
2.41249
2.675026
2.626137
2.624373
2.62496
2.674369
2.675463
2.725032
2.774949
2.775669
2.723093
2.775233
2.724536
2.874826
2.824437
2.82516
2.875379
2.92479
2.975665
2.975673
2.92433
2.975197
2.924495
3.037481
3.01203
3.037687
3.011751
3.162486
3.187887
3.187515
3.162236
3.237512
3.212113
3.237763
3.212484
3.325
3.37563
3.375002
3.324545
3.437512
3.412113
3.437763
3.412484
3.562495
3.587893
3.58753
3.56224
3.637539
3.612124
3.637781
3.612511
4.162489
4.187887
4.187515
4.162237
4.237512
4.212113
4.237763
4.212484
4.325
4.37563
4.375002
4.324545
4.475
4.42437
4.424998
4.475455
4.525
4.57563
4.575002
4.524545
4.675
4.62437
4.624998
4.675455
4.762489
4.787887
4.787516
4.762237
4.987887
4.987515
4.962489
4.962237
0.2272892
0.2270797
0.2269778
0.2268983
0.2269832
0.2269135
0.2270878
0.2270117
0.2269633
0.2269668
0.2270553
0.2270545
0.226995
0.2269456
0.2268917
0.2270024
0.2269375
0.2269165
0.226954
0.2269738
0.2671651
0.2656042
0.2676343
0.2666101
0.2299101
0.2685448
0.2703408
0.2683018
0.2689753
0.2285508
0.4242584
0.4244182
0.4755423
0.4747331
0.5755912
0.5749276
0.5246161
0.5248436
1.425475
1.424413
1.425201
1.475461
1.475002
0.2269997
0.2270407
0.226976
0.226898
0.226923
0.226922
0.2269286
0.2269195
0.2269818
0.227015
0.226914
0.2269958
0.2269183
0.2269234
0.2270199
0.2271029
0.2270405
0.2269911
0.2272924
0.2270564
0.2264022
0.2273141
0.2279061
0.225525
0.2560332
0.2862395
0.2596451
0.2843306
0.3368189
0.3113226
0.3109328
0.337456
0.2254425
0.2271071
0.2256679
0.2269828
0.2251562
0.2269506
0.2269367
0.2251666
0.2251562
0.2269508
0.2269368
0.2251667
0.2254427
0.2271079
0.2269839
0.225669
0.6625155
0.6879566
0.6622867
0.6882456
0.8624623
0.8878665
0.8621973
0.8874887
0.9375063
0.9121172
0.9124713
0.937783
1.861719
1.887798
1.862126
1.88748
1.937487
1.912105
1.912459
1.937775
2.062487
2.087877
2.062214
2.087514
2.137512
2.112123
2.137786
2.112486
2.262488
2.287877
2.262214
2.287514
3.062462
3.087867
3.062198
3.08749
3.262487
3.287877
3.262215
3.287515
3.462487
3.487877
3.462214
3.487515
3.537515
3.512123
3.512486
3.537787
3.662523
3.687965
3.662293
3.688268
4.262487
4.287877
4.262215
4.287515
4.737512
4.712123
4.712486
4.737785
4.862488
4.887877
4.862214
4.887514
4.937512
4.912123
4.912486
4.937785
5.162489
5.187887
5.187516
5.162237
5.224464
5.249023
5.224966
5.250028
5.275
5.22437
5.224998
5.275455
5.250029
5.249025
5.22437
5.224998
5.275456
5.275
0.225166
0.2269354
0.225198
0.2268962
0.225156
0.2269523
0.2251713
0.2269334
0.2251559
0.2269523
0.2251702
0.2269351
0.2251559
0.2269527
0.2251701
0.2269356
0.2251559
0.2269526
0.22517
0.2269356
0.2251559
0.2269526
0.22517
0.2269355
0.2251559
0.2269525
0.22517
0.2269355
0.2251567
0.2269526
0.2251706
0.2269357
0.4374666
0.4120305
0.4123924
0.437733
0.637509
0.6121029
0.6124779
0.6377578
0.8375116
0.8121116
0.8124829
0.837762
1.037512
1.012113
1.012484
1.037763
1.237512
1.212113