/*--------------------------------*- C++ -*----------------------------------*\
  =========                 |
  \\      /  F ield         | OpenFOAM: The Open Source CFD Toolbox
   \\    /   O peration     | Website:  https://openfoam.org
    \\  /    A nd           | Version:  7
     \\/     M anipulation  |
\*---------------------------------------------------------------------------*/
FoamFile
{
    version     2.0;
    format      ascii;
    class       volScalarField;
    location    "0.1";
    object      Cz;
}
// * * * * * * * * * * * * * * * * * * * * * * * * * * * * * * * * * * * * * //

dimensions      [0 1 0 0 0 0 0];

internalField   nonuniform List<scalar> 
80136
(
0.09770055
0.09558581
0.09491135
0.09475538
0.09471964
0.09471847
0.09472969
0.09558518
0.09164918
0.0904768
0.09017517
0.09009935
0.09008789
0.09009629
0.09490847
0.09047277
0.08902609
0.08863497
0.08853086
0.08851302
0.0885232
0.09474716
0.09016137
0.0886222
0.08818533
0.08806361
0.08804199
0.088055
0.09470129
0.09006825
0.08849443
0.08803597
0.08790369
0.08787929
0.08789425
0.09468432
0.09003352
0.08844443
0.08797466
0.08783534
0.08780805
0.08782336
0.09467743
0.09001899
0.08842243
0.08794595
0.08780106
0.0877702
0.0877843
0.09467428
0.09001217
0.08841154
0.0879306
0.0877813
0.08774678
0.08775865
0.09467268
0.09000878
0.08840589
0.087922
0.08776939
0.08773151
0.0877408
0.09467201
0.09000707
0.08840276
0.08791704
0.08776226
0.08772202
0.08772905
0.09467154
0.0900061
0.08840114
0.08791453
0.08775848
0.08771659
0.08772173
0.09467142
0.09000576
0.08840045
0.08791343
0.08775671
0.08771389
0.08771751
0.09467132
0.09000565
0.08840032
0.08791315
0.08775618
0.08771291
0.08771538
0.09467132
0.09000565
0.08840033
0.08791321
0.08775614
0.08771265
0.0877143
0.09467136
0.09000576
0.08840052
0.08791348
0.08775645
0.08771278
0.08771409
0.09467141
0.09000594
0.08840083
0.08791391
0.08775699
0.08771323
0.08771422
0.09467151
0.09000612
0.08840111
0.08791441
0.08775761
0.087714
0.08771483
0.09467159
0.09000638
0.08840165
0.08791519
0.08775873
0.08771533
0.08771635
0.09467179
0.09000692
0.08840272
0.08791685
0.08776097
0.08771813
0.08771957
0.09467232
0.0900082
0.08840492
0.08792021
0.08776578
0.08772444
0.08772715
0.09467337
0.09001076
0.08840961
0.08792787
0.08777704
0.08773925
0.08774527
0.0946756
0.09001646
0.08842024
0.08794535
0.08780346
0.08777537
0.08778996
0.0946804
0.09002797
0.08844222
0.08798451
0.08786781
0.08786888
0.08790879
0.2508445
0.2516918
0.2521379
0.2521603
0.2521558
0.2521583
0.2521667
0.2521748
0.2508441
0.2946711
0.291774
0.290726
0.2903788
0.2902763
0.2902716
0.2903016
0.2516918
0.2917715
0.2863584
0.2841745
0.2834306
0.2832015
0.2831673
0.2831984
0.2521377
0.290715
0.2841589
0.2812669
0.2802175
0.2798778
0.2798194
0.2798597
0.2521596
0.2903487
0.2833775
0.280167
0.2789439
0.278531
0.2784567
0.2785082
0.2521534
0.2902113
0.2830829
0.2797336
0.2784202
0.277962
0.2778759
0.2779356
0.2521517
0.2901553
0.2829618
0.279549
0.278187
0.2776986
0.2775998
0.2776617
0.2521511
0.290131
0.2829077
0.279463
0.2780719
0.2775603
0.2774466
0.2775039
0.2521508
0.2901196
0.2828815
0.2794191
0.2780091
0.2774786
0.2773492
0.2773975
0.2521508
0.290114
0.282868
0.2793952
0.2779726
0.2774279
0.277285
0.2773226
0.2521507
0.2901109
0.2828608
0.2793823
0.277952
0.2773978
0.2772446
0.2772724
0.2521507
0.2901096
0.2828574
0.2793759
0.2779415
0.2773818
0.2772222
0.277242
0.2521506
0.290109
0.282856
0.2793732
0.2779371
0.2773751
0.2772116
0.2772257
0.2521506
0.2901088
0.2828557
0.2793727
0.2779363
0.2773736
0.2772081
0.277218
0.2521506
0.290109
0.2828561
0.2793735
0.2779375
0.2773748
0.2772085
0.2772154
0.2521506
0.2901092
0.2828566
0.2793745
0.2779392
0.277377
0.2772105
0.2772153
0.2521506
0.2901095
0.2828573
0.2793758
0.2779412
0.2773795
0.2772131
0.2772169
0.2521507
0.2901097
0.2828582
0.2793774
0.2779435
0.2773827
0.2772167
0.2772202
0.2521507
0.2901102
0.2828594
0.2793797
0.2779471
0.2773876
0.2772226
0.2772264
0.2521507
0.290111
0.2828616
0.2793838
0.2779537
0.2773968
0.2772343
0.2772402
0.2521507
0.2901127
0.2828662
0.2793927
0.2779679
0.277417
0.2772604
0.2772715
0.2521508
0.2901167
0.2828765
0.2794122
0.2779993
0.2774627
0.2773206
0.2773444
0.2521509
0.2901252
0.2828984
0.279454
0.2780687
0.2775665
0.2774611
0.2775174
0.2470138
0.2901424
0.2829425
0.2795399
0.2782176
0.2778022
0.2777943
0.2779352
0.4503843
0.50084
0.5016914
0.5018272
0.5018129
0.5018112
0.501822
0.4503822
0.4982358
0.4966291
0.4957781
0.4954144
0.4952871
0.495276
0.4953069
0.5008387
0.4966247
0.4930834
0.4910146
0.4901197
0.4898088
0.4897616
0.4898087
0.5016875
0.4957599
0.4909884
0.4879424
0.4865343
0.4860312
0.4859446
0.4860137
0.5018171
0.4953669
0.4900312
0.486447
0.4846898
0.4840382
0.4839193
0.4840105
0.5017912
0.4951877
0.4896122
0.4857809
0.4838411
0.4830952
0.4829511
0.4830581
0.5017718
0.4951065
0.4894236
0.4854748
0.4834374
0.48263
0.4824606
0.4825719
0.5017635
0.4950685
0.4893345
0.4853248
0.4832291
0.4823751
0.4821766
0.4822794
0.5017599
0.4950502
0.4892895
0.4852454
0.483111
0.4822194
0.4819901
0.4820755
0.5017582
0.4950408
0.4892658
0.4852011
0.4830412
0.4821209
0.4818641
0.4819291
0.5017574
0.4950362
0.4892534
0.4851771
0.4830016
0.4820623
0.481785
0.481831
0.501757
0.4950339
0.4892475
0.4851656
0.4829822
0.4820327
0.4817426
0.4817733
0.5017568
0.4950331
0.4892454
0.4851618
0.482976
0.4820226
0.4817261
0.4817457
0.5017569
0.4950333
0.4892457
0.4851624
0.4829771
0.4820236
0.481725
0.4817369
0.5017569
0.4950337
0.489247
0.4851652
0.4829819
0.4820302
0.4817313
0.4817383
0.501757
0.4950344
0.4892488
0.4851687
0.4829877
0.4820383
0.4817401
0.4817442
0.5017571
0.495035
0.4892506
0.4851722
0.4829933
0.4820462
0.4817491
0.4817515
0.5017572
0.4950356
0.4892522
0.4851757
0.482999
0.4820539
0.4817581
0.4817601
0.5017573
0.4950364
0.4892544
0.4851798
0.4830058
0.4820635
0.4817703
0.4817733
0.5017575
0.4950375
0.4892577
0.4851868
0.4830174
0.4820804
0.481792
0.4817989
0.5017578
0.49504
0.4892648
0.4852013
0.483042
0.4821161
0.4818389
0.4818556
0.5017587
0.4950458
0.4892809
0.4852338
0.4830966
0.4821965
0.4819455
0.4819855
0.5017608
0.4950586
0.4893158
0.4853041
0.4832164
0.4823768
0.4821892
0.4822842
0.5017652
0.4950847
0.4893863
0.4854474
0.4834677
0.4827699
0.4827367
0.4829642
0.6500081
0.7001475
0.7003741
0.700476
0.7004657
0.700461
0.7004656
0.6500097
0.699305
0.6985535
0.6980504
0.697794
0.697695
0.6976831
0.6977045
0.7001463
0.6985492
0.6969434
0.6957199
0.6950736
0.6948291
0.6947946
0.6948405
0.7003699
0.6980332
0.6956946
0.6937284
0.6926067
0.6921713
0.6921033
0.6921794
0.7004657
0.6977501
0.6949888
0.6925198
0.6910039
0.6903783
0.6902725
0.6903773
0.7004449
0.6976056
0.6946416
0.6919205
0.6901739
0.6894114
0.6892717
0.6893965
0.7004265
0.6975347
0.6944731
0.6916292
0.6897652
0.688923
0.6887514
0.6888814
0.7004181
0.6974999
0.6943885
0.6914786
0.6895439
0.6886422
0.688433
0.688552
0.7004141
0.6974821
0.6943436
0.6913942
0.6894115
0.6884606
0.6882107
0.6883061
0.7004121
0.6974726
0.6943188
0.6913453
0.6893298
0.6883409
0.6880535
0.6881205
0.7004112
0.6974678
0.6943057
0.6913187
0.6892835
0.6882697
0.6879548
0.6879953
0.7004108
0.6974658
0.6943002
0.6913073
0.6892637
0.6882379
0.687907
0.687927
0.7004108
0.6974654
0.6942995
0.6913063
0.689262
0.6882343
0.6878974
0.6879039
0.7004108
0.697466
0.6943016
0.6913113
0.689271
0.6882477
0.6879115
0.6879101
0.700411
0.6974672
0.694305
0.6913188
0.6892846
0.6882682
0.6879362
0.6879311
0.7004112
0.6974684
0.6943086
0.6913265
0.6892985
0.6882891
0.687962
0.6879554
0.7004115
0.6974696
0.6943118
0.6913332
0.6893102
0.6883066
0.6879841
0.6879771
0.7004116
0.6974703
0.6943143
0.6913385
0.6893195
0.6883205
0.6880015
0.6879953
0.7004117
0.697471
0.694316
0.6913428
0.6893274
0.6883327
0.6880174
0.6880134
0.7004118
0.6974714
0.694318
0.6913478
0.6893374
0.6883489
0.6880397
0.6880407
0.7004119
0.6974726
0.6943219
0.6913578
0.6893572
0.6883808
0.6880841
0.6880965
0.7004125
0.6974758
0.6943321
0.6913816
0.6894028
0.6884537
0.6881858
0.6882242
0.7004142
0.6974844
0.6943571
0.6914381
0.6895088
0.6886232
0.6884221
0.6885199
0.700418
0.6975037
0.694412
0.6915599
0.6897401
0.6890023
0.6889611
0.6891959
0.8499891
0.8999377
0.8999227
0.8999167
0.8999128
0.8999121
0.8999148
0.8499884
0.8998076
0.8995908
0.8994312
0.8993442
0.8993116
0.8993119
0.8993254
0.8999371
0.8995888
0.8991336
0.8987551
0.8985376
0.898456
0.8984561
0.8984899
0.8999208
0.8994232
0.8987428
0.8981096
0.8977075
0.8975499
0.8975463
0.897608
0.899912
0.8993233
0.8984955
0.8976624
0.8970789
0.8968285
0.8968148
0.8969058
0.8999032
0.8992686
0.8983619
0.8974166
0.8967132
0.8963878
0.8963594
0.8964715
0.8998963
0.8992397
0.8982907
0.8972858
0.8965162
0.8961406
0.89609
0.8962079
0.8998928
0.8992239
0.8982503
0.8972082
0.8963921
0.8959707
0.8958867
0.8959923
0.8998908
0.8992144
0.8982253
0.8971573
0.8963041
0.895839
0.8957142
0.8957933
0.8998897
0.8992089
0.8982098
0.8971243
0.8962437
0.8957423
0.8955783
0.895625
0.8998892
0.899206
0.8982016
0.8971067
0.8962102
0.8956855
0.8954925
0.8955089
0.899889
0.8992052
0.8981996
0.8971025
0.8962019
0.8956691
0.8954614
0.8954557
0.8998891
0.8992059
0.8982021
0.8971086
0.8962136
0.8956858
0.8954771
0.8954593
0.8998894
0.8992076
0.8982073
0.897121
0.8962375
0.8957232
0.8955234
0.895502
0.8998898
0.8992096
0.8982136
0.8971358
0.896266
0.8957684
0.8955823
0.8955627
0.8998901
0.8992115
0.8982196
0.8971496
0.8962923
0.8958105
0.8956381
0.8956228
0.8998904
0.8992131
0.8982244
0.8971604
0.8963128
0.8958432
0.8956817
0.8956708
0.8998906
0.899214
0.898227
0.897167
0.8963258
0.8958646
0.8957108
0.8957033
0.8998906
0.8992139
0.8982274
0.8971691
0.8963314
0.8958754
0.8957269
0.8957228
0.8998903
0.8992128
0.8982251
0.8971665
0.8963306
0.8958784
0.895735
0.8957357
0.8998898
0.8992103
0.8982197
0.8971592
0.8963247
0.8958775
0.8957418
0.8957511
0.899889
0.8992066
0.8982115
0.8971484
0.8963173
0.8958806
0.8957606
0.8957876
0.899888
0.8992021
0.898202
0.8971383
0.8963189
0.8959081
0.8958237
0.8958874
0.8998873
0.8991986
0.8981958
0.8971403
0.8963553
0.8960092
0.8960088
0.8961503
1.050001
1.100063
1.100078
1.100085
1.100091
1.100095
1.100096
1.050001
1.100193
1.10041
1.100573
1.100665
1.100708
1.100723
1.100729
1.100063
1.100412
1.100869
1.101253
1.101484
1.101591
1.101633
1.101652
1.100079
1.100576
1.101259
1.1019
1.102323
1.102525
1.102606
1.102647
1.100088
1.100674
1.101501
1.102338
1.102942
1.10325
1.103374
1.10344
1.100096
1.100725
1.101623
1.10256
1.103269
1.103644
1.103796
1.103881
1.100101
1.100749
1.101677
1.102652
1.103395
1.103784
1.103938
1.104028
1.100103
1.100758
1.101697
1.10268
1.103423
1.1038
1.103934
1.104013
1.100104
1.10076
1.1017
1.10268
1.103411
1.103762
1.103864
1.103917
1.100104
1.10076
1.101698
1.102673
1.103389
1.103716
1.103784
1.103805
1.100104
1.10076
1.101698
1.102669
1.103379
1.10369
1.103732
1.103723
1.100105
1.100761
1.1017
1.102675
1.103388
1.103698
1.103729
1.103699
1.100105
1.100763
1.101706
1.10269
1.103415
1.103739
1.103775
1.103737
1.100106
1.100765
1.101715
1.102711
1.103456
1.103803
1.103858
1.103821
1.100106
1.100768
1.101724
1.102733
1.1035
1.103875
1.103954
1.103927
1.100107
1.100771
1.101733
1.102753
1.103541
1.103941
1.104043
1.104027
1.100107
1.100773
1.101739
1.102768
1.10357
1.10399
1.104111
1.104105
1.100107
1.100774
1.101741
1.102776
1.103587
1.104019
1.104151
1.104153
1.100107
1.100773
1.10174
1.102775
1.103589
1.104026
1.104166
1.104172
1.100106
1.10077
1.101732
1.102762
1.103573
1.104011
1.104153
1.104163
1.100105
1.100763
1.101716
1.102733
1.103532
1.103963
1.104104
1.104118
1.100102
1.10075
1.101683
1.102675
1.103449
1.103863
1.104
1.104017
1.100098
1.100728
1.101627
1.102571
1.103295
1.103674
1.103795
1.103812
1.100091
1.100693
1.101534
1.102395
1.103026
1.103331
1.10341
1.103412
1.250011
1.299854
1.299628
1.299527
1.29954
1.299547
1.299546
1.250012
1.300697
1.301449
1.301955
1.302216
1.302325
1.302352
1.30235
1.299855
1.301452
1.30306
1.304289
1.304948
1.305216
1.305291
1.305296
1.299631
1.301968
1.304308
1.306281
1.307421
1.307898
1.308038
1.308058
1.299535
1.302249
1.30501
1.307481
1.309015
1.309691
1.309897
1.309935
1.299555
1.302391
1.305347
1.308059
1.30981
1.310615
1.310863
1.310914
1.299573
1.302458
1.305501
1.308316
1.310154
1.311008
1.311269
1.311323
1.29958
1.302488
1.305567
1.308422
1.310291
1.311153
1.311406
1.311449
1.299582
1.302498
1.305592
1.308461
1.310335
1.311188
1.311419
1.311441
1.299583
1.302502
1.305601
1.308474
1.310345
1.311183
1.311389
1.311384
1.299584
1.302504
1.305606
1.308482
1.310353
1.311182
1.311368
1.311336
1.299585
1.302506
1.305612
1.308494
1.310372
1.311205
1.311383
1.311333
1.299586
1.302509
1.305621
1.308514
1.310408
1.311257
1.311443
1.311387
1.299586
1.302512
1.305631
1.308539
1.310456
1.311332
1.31154
1.311489
1.299586
1.302515
1.305641
1.308565
1.310508
1.311416
1.311652
1.311614
1.299586
1.302518
1.305651
1.308589
1.310554
1.311491
1.311755
1.311733
1.299587
1.30252
1.305658
1.308605
1.310588
1.311548
1.311834
1.311825
1.299588
1.30252
1.30566
1.308613
1.310606
1.31158
1.31188
1.31188
1.299588
1.302519
1.305658
1.30861
1.310606
1.311585
1.311892
1.311898
1.299586
1.302515
1.305647
1.308592
1.310581
1.311557
1.311866
1.311874
1.299584
1.302505
1.305622
1.308547
1.310517
1.31148
1.311783
1.311791
1.29958
1.302485
1.305571
1.308455
1.310381
1.311311
1.311597
1.3116
1.299573
1.302449
1.305475
1.308273
1.310108
1.310965
1.311207
1.311194
1.29956
1.302385
1.305302
1.307937
1.309585
1.310282
1.310417
1.310349
1.449794
1.499171
1.498314
1.498181
1.498197
1.498197
1.498193
1.449791
1.501767
1.503375
1.504227
1.504593
1.504728
1.504753
1.504737
1.499165
1.503377
1.506921
1.508993
1.509897
1.510227
1.510307
1.5103
1.498315
1.504242
1.509015
1.512066
1.513487
1.514021
1.514163
1.514168
1.498185
1.504634
1.509969
1.513554
1.515324
1.516012
1.516205
1.516219
1.498215
1.504812
1.510381
1.514205
1.516146
1.516921
1.517143
1.517164
1.498246
1.504896
1.510561
1.514486
1.516503
1.517317
1.51755
1.517571
1.498247
1.504938
1.510638
1.514604
1.516652
1.517476
1.517705
1.517718
1.498251
1.504944
1.510667
1.514651
1.516707
1.517529
1.517745
1.517744
1.498241
1.504942
1.510677
1.514669
1.516727
1.517541
1.517741
1.517721
1.498242
1.504944
1.510683
1.514679
1.516739
1.517549
1.517734
1.517696
1.498248
1.504949
1.51069
1.514692
1.516758
1.517571
1.517751
1.5177
1.498249
1.504953
1.510698
1.514709
1.516788
1.517614
1.517801
1.517745
1.498252
1.504952
1.510706
1.51473
1.516828
1.517675
1.517879
1.517828
1.498244
1.504954
1.510715
1.514752
1.51687
1.517743
1.517971
1.517931
1.498242
1.504956
1.510723
1.514771
1.516908
1.517805
1.518056
1.51803
1.498244
1.504958
1.510728
1.514785
1.516936
1.517852
1.518121
1.518106
1.498249
1.504957
1.51073
1.514792
1.516951
1.517878
1.518159
1.518153
1.498249
1.504956
1.510727
1.514789
1.51695
1.517881
1.518169
1.518166
1.498243
1.504953
1.510718
1.514772
1.516927
1.517856
1.518144
1.518144
1.498239
1.504943
1.510693
1.514729
1.516867
1.517785
1.518067
1.518066
1.498236
1.504923
1.510642
1.514637
1.516734
1.517621
1.517888
1.517883
1.49823
1.504883
1.510536
1.514441
1.516445
1.517261
1.51749
1.517476
1.498218
1.504808
1.510328
1.514038
1.515833
1.516483
1.516624
1.51659
1.649515
1.647447
1.644079
1.643885
1.643892
1.643874
1.643874
1.643878
1.64946
1.705322
1.708225
1.709278
1.709615
1.709721
1.709744
1.709712
1.647392
1.708224
1.713647
1.715832
1.71658
1.716819
1.71687
1.716861
1.644075
1.709284
1.715845
1.718739
1.719794
1.720149
1.720236
1.720234
1.643878
1.709653
1.716624
1.719835
1.721063
1.721494
1.721605
1.721606
1.643882
1.709786
1.716916
1.72026
1.721573
1.722045
1.722169
1.722173
1.643995
1.709848
1.717036
1.720433
1.721784
1.722274
1.722403
1.722406
1.64399
1.709902
1.717086
1.720504
1.72187
1.722366
1.722494
1.722493
1.644052
1.709889
1.717102
1.720532
1.721903
1.722399
1.722521
1.722514
1.643893
1.70988
1.717106
1.720543
1.721916
1.722409
1.722523
1.722508
1.643883
1.709881
1.717109
1.720549
1.721924
1.722415
1.722523
1.722499
1.643968
1.709886
1.717115
1.720557
1.721934
1.722426
1.722532
1.722502
1.643845
1.709884
1.71712
1.720566
1.721949
1.722448
1.722557
1.722525
1.643977
1.709878
1.717123
1.720576
1.72197
1.72248
1.722598
1.722568
1.64389
1.709883
1.717127
1.720587
1.721991
1.722515
1.722645
1.722621
1.643883
1.709887
1.71713
1.720597
1.722011
1.722547
1.72269
1.722673
1.643884
1.709887
1.717134
1.720605
1.722026
1.722572
1.722724
1.722714
1.643892
1.709876
1.717135
1.720609
1.722034
1.722586
1.722744
1.722738
1.643902
1.709875
1.717133
1.720607
1.722033
1.722587
1.722749
1.722746
1.643885
1.709884
1.717127
1.720597
1.72202
1.722574
1.722736
1.722733
1.643883
1.709879
1.717113
1.720573
1.721987
1.722534
1.722694
1.722691
1.643883
1.709866
1.717081
1.720517
1.721908
1.722438
1.722589
1.722586
1.643882
1.709839
1.71701
1.720386
1.721716
1.722201
1.722336
1.722337
1.643879
1.709782
1.716849
1.720067
1.721224
1.72159
1.721693
1.721728
1.823665
1.822389
1.820566
1.820768
1.821921
1.820557
1.820765
1.821913
1.822361
1.90236
1.904457
1.905101
1.905283
1.90532
1.905297
1.905313
1.820816
1.904443
1.908363
1.90953
1.909834
1.909913
1.909926
1.909925
1.821223
1.905105
1.909532
1.910977
1.911369
1.911477
1.911501
1.911501
1.820535
1.905257
1.909841
1.911379
1.911817
1.911942
1.911973
1.911972
1.820561
1.905323
1.909937
1.911505
1.911963
1.912098
1.912131
1.912131
1.821862
1.905375
1.909976
1.911553
1.912019
1.912158
1.912192
1.912192
1.848383
1.905378
1.909989
1.911572
1.912041
1.912181
1.912215
1.912214
1.822242
1.905353
1.909989
1.911578
1.912049
1.91219
1.912223
1.912221
1.820536
1.905329
1.909987
1.91158
1.912053
1.912193
1.912224
1.91222
1.820536
1.905329
1.909988
1.911582
1.912055
1.912194
1.912224
1.912218
1.820567
1.905355
1.909993
1.911585
1.912057
1.912197
1.912226
1.912219
1.847978
1.905386
1.909998
1.911587
1.912061
1.912202
1.912232
1.912224
1.821503
1.905367
1.909997
1.91159
1.912066
1.91221
1.912242
1.912234
1.821216
1.90534
1.909994
1.911592
1.912071
1.912218
1.912253
1.912247
1.820536
1.905329
1.909992
1.911594
1.912075
1.912226
1.912264
1.91226
1.820536
1.905333
1.909994
1.911595
1.912079
1.912232
1.912272
1.91227
1.820769
1.905365
1.909999
1.911597
1.912081
1.912235
1.912277
1.912276
1.821922
1.905365
1.909999
1.911596
1.912081
1.912236
1.912279
1.912278
1.820559
1.905333
1.909993
1.911594
1.912078
1.912233
1.912275
1.912274
1.820536
1.905326
1.909987
1.911587
1.912069
1.912223
1.912265
1.912264
1.820536
1.905322
1.909978
1.911572
1.912048
1.912197
1.912237
1.912237
1.820536
1.905314
1.909957
1.911532
1.911989
1.912125
1.912163
1.912167
1.820536
1.905291
1.909888
1.911396
1.911787
1.911884
1.911918
1.91195
0.04781163
0.1780361
0.178033
0.1467635
0.04751716
0.0462
0.1776405
0.1794158
0.1453581
0.144575
0.04590332
0.04575098
0.1794175
0.1794497
0.1442711
0.1440689
0.04571908
0.04570334
0.1794566
0.1794641
0.1440029
0.1439567
0.04569898
0.04569749
0.1794641
0.179464
0.1439435
0.1439323
0.0456969
0.04569727
0.1794641
0.1794645
0.1439306
0.1439302
0.04569811
0.04570003
0.1794648
0.1794663
0.1439342
0.1439411
0.04570285
0.04570618
0.1794672
0.179471
0.143951
0.1439623
0.04570798
0.1794719
0.1439679
0.04751728
0.04620002
0.1776392
0.1453567
0.1794158
0.1445747
0.04590329
0.04575092
0.1794175
0.1442709
0.1794497
0.1440686
0.04571895
0.04570312
0.1794566
0.1440024
0.179464
0.1439554
0.0456986
0.04569677
0.179464
0.1439415
0.1794638
0.1439285
0.04569571
0.04569515
0.1794638
0.1439248
0.1794638
0.1439203
0.04569481
0.04569454
0.1794638
0.1439191
0.1794638
0.1439173
0.04569445
0.04569431
0.1794638
0.1439169
0.1794638
0.1439161
0.04569426
0.04569421
0.1794638
0.143916
0.1794638
0.1439156
0.04569418
0.04569416
0.1794638
0.1439155
0.1794638
0.1439153
0.04569416
0.04569414
0.1794638
0.1439153
0.1794638
0.1439152
0.04569414
0.04569413
0.1794638
0.1439152
0.1794638
0.1439151
0.04569413
0.04569412
0.1794638
0.1439151
0.1794638
0.1439151
0.04569412
0.04569412
0.1794638
0.1439151
0.1794638
0.1439151
0.04569412
0.04569412
0.1794638
0.1439151
0.1794638
0.1439151
0.04569412
0.04569413
0.1794638
0.1439151
0.1794638
0.1439151
0.04569413
0.04569413
0.1794638
0.1439151
0.1794638
0.1439151
0.04569413
0.04569413
0.1794638
0.1439151
0.1794638
0.1439151
0.04569413
0.04569414
0.1794638
0.1439151
0.1794638
0.1439152
0.04569414
0.04569414
0.1794638
0.1439152
0.1794638
0.1439152
0.04569416
0.04569417
0.1794638
0.1439153
0.1794638
0.1439154
0.04569419
0.04569423
0.1794638
0.1439154
0.1794638
0.1439157
0.04569427
0.04569434
0.1794638
0.1439159
0.1794638
0.1439164
0.04569444
0.04569461
0.1794638
0.1439169
0.1794639
0.143918
0.2261712
0.2261696
0.2490725
0.375575
0.375574
0.3496595
0.4245075
0.4245054
0.4498412
0.5755452
0.5755455
0.5499131
0.6244714
0.6244726
0.6499508
0.7755311
0.7755332
0.7499694
0.8244651
0.8244664
0.849986
0.9755341
0.9755325
0.9499936
1.024467
1.024466
1.050006
1.175533
1.175535
1.150014
1.224466
1.22447
1.250031
1.375529
1.375526
1.35005
1.424456
1.424453
1.450086
1.575496
1.575493
1.550162
1.624432
1.624426
1.650347
1.774022
1.773833
1.750933
1.822683
1.821968
1.853248
1.95226
1.848035
1.854657
1.855511
1.9528
1.95421
1.820789
1.855748
1.855961
1.954417
1.954325
1.820558
1.856009
1.856054
1.954286
1.954301
1.821921
1.856079
1.856048
1.954375
1.954603
1.820768
1.856049
1.856093
1.954604
1.954376
1.820556
1.856077
1.85607
1.954306
1.954305
1.856012
1.954592
1.855745
1.821654
1.855908
1.954164
1.954441
1.85601
1.820536
1.856051
1.954348
1.954301
1.85606
1.820536
1.856075
1.954301
1.954303
1.85609
1.821657
1.856092
1.954324
1.954459
1.85615
1.820567
1.856111
1.954504
1.954331
1.856091
1.820536
1.856086
1.954307
1.954306
1.856085
1.820536
1.85609
1.954306
1.954307
1.856108
1.822105
1.856139
1.954329
1.9545
1.856187
1.821883
1.856129
1.954695
1.954633
1.85613
1.82164
1.856073
1.954452
1.954504
1.856099
1.820536
1.856092
1.954373
1.95431
1.856086
1.820536
1.856085
1.954306
1.954305
1.856086
1.820559
1.856093
1.954305
1.95431
1.856107
1.821922
1.856064
1.95438
1.954607
1.856064
1.820769
1.856107
1.954607
1.95438
1.856093
1.820535
1.856085
1.95431
1.954305
1.856084
1.820536
1.856084
1.954305
1.954305
1.856083
1.820536
1.856083
1.954305
1.954305
1.856082
1.820536
1.85608
1.954305
1.954305
1.856079
1.820536
1.856075
1.954305
1.954304
0.07302125
0.02378211
0.07188214
0.02274503
0.07197082
0.02262818
0.07178406
0.02251791
0.07180141
0.02245738
0.0717693
0.02250079
0.0717736
0.02244993
0.07176725
0.02250074
0.0717696
0.02244956
0.071767
0.0225008
0.07176889
0.02244949
0.0717678
0.02250087
0.07176932
0.02244964
0.07177144
0.02250142
0.07177195
0.02245043
0.02250301
0.07177834
0.07188227
0.02274512
0.07197066
0.02262826
0.07178405
0.02251789
0.07180142
0.02245738
0.07176926
0.02250079
0.07177359
0.02244992
0.07176715
0.02250072
0.07176953
0.02244954
0.07176665
0.02250076
0.07176864
0.02244944
0.07176649
0.02250071
0.07176845
0.02244939
0.07176643
0.02250068
0.07176832
0.02244938
0.07176641
0.02250067
0.07176829
0.02244937
0.07176639
0.02250067
0.07176827
0.02244937
0.07176638
0.02250067
0.07176826
0.02244936
0.07176639
0.02250066
0.07176827
0.02244936
0.07176638
0.02250067
0.07176825
0.02244936
0.07176638
0.02250066
0.07176825
0.02244936
0.07176638
0.02250066
0.07176826
0.02244936
0.07176638
0.02250067
0.07176825
0.02244936
0.07176639
0.02250067
0.07176826
0.02244936
0.07176639
0.02250067
0.07176826
0.02244936
0.07176638
0.02250067
0.07176825
0.02244936
0.07176638
0.02250067
0.07176825
0.02244936
0.07176639
0.02250067
0.07176827
0.02244936
0.07176639
0.02250067
0.07176827
0.02244937
0.07176641
0.02250067
0.07176828
0.02244937
0.07176646
0.02250068
0.07176831
0.02244938
0.2749732
0.2249522
0.4749941
0.4249887
0.6750043
0.6249984
0.8749979
0.8250026
1.075001
1.025001
1.275008
1.225006
1.475007
1.425
1.675015
1.625009
1.875583
1.825141
1.821914
1.856072
1.856018
1.954371
1.954594
1.854658
1.820608
1.855437
1.952508
1.95381
1.856114
1.822503
1.856138
1.954537
1.954657
1.856231
1.848313
1.856226
1.95474
1.954711
0.07238535
0.02285486
0.0720652
0.02350164
0.07239917
0.02285602
0.07206521
0.02351042
0.124424
0.1748683
0.07184818
0.02253389
0.07181308
0.02256894
0.07177935
0.0225022
0.07177512
0.02245351
0.07176885
0.022501
0.07176979
0.02244963
0.07176723
0.02250079
0.07176892
0.02244952
0.07176711
0.02250083
0.07176911
0.0224495
0.07176829
0.0225012
0.07177095
0.02244973
0.07177309
0.0225026
0.07177681
0.02245083
0.07184825
0.0225339
0.07181311
0.02256896
0.07177934
0.0225022
0.0717751
0.02245352
0.07176881
0.02250099
0.07176974
0.02244963
0.0717671
0.02250076
0.07176873
0.0224495
0.07176664
0.02250071
0.07176838
0.02244942
0.07176647
0.02250069
0.07176833
0.02244939
0.07176642
0.02250067
0.07176829
0.02244937
0.0717664
0.02250067
0.07176827
0.02244937
0.07176639
0.02250067
0.07176827
0.02244936
0.07176639
0.02250066
0.07176826
0.02244936
0.07176638
0.02250067
0.07176826
0.02244936
0.07176638
0.02250067
0.07176825
0.02244936
0.07176638
0.02250067
0.07176825
0.02244936
0.07176638
0.02250067
0.07176826
0.02244936
0.07176638
0.02250067
0.07176825
0.02244936
0.07176638
0.02250067
0.07176825
0.02244936
0.07176638
0.02250067
0.07176826
0.02244936
0.07176638
0.02250067
0.07176825
0.02244936
0.07176639
0.02250067
0.07176826
0.02244936
0.07176639
0.02250067
0.07176827
0.02244936
0.07176639
0.02250067
0.07176827
0.02244937
0.07176642
0.02250068
0.07176831
0.02244938
0.07176647
0.0225007
0.02244939
0.07176837
0.324989
0.3749957
0.5249944
0.5749917
0.7249987
0.7749956
0.9250002
0.9750025
1.124999
1.175
1.325002
1.374998
1.525011
1.575007
1.725022
1.775046
1.926971
1.976206
1.927604
1.977142
1.927933
1.976491
1.928841
1.925242
1.977559
1.923794
1.928441
1.977781
1.929038
1.924422
1.977907
1.924419
1.929081
1.97787
1.928655
1.923792
1.977893
1.92523
1.928942
1.977848
1.928294
1.977498
1.928245
1.977643
1.928228
1.977494
1.928228
1.977546
1.928228
1.977494
1.928231
1.977547
1.928303
1.9775
1.928249
1.977646
1.928658
1.925424
1.977901
1.925411
1.928923
1.977853
1.928658
1.925424
1.977901
1.925412
1.928922
1.977853
1.928303
1.9775
1.92825
1.977646
1.92828
1.977483
1.928218
1.977639
1.928584
1.925304
1.977786
1.925303
1.928589
1.977834
1.92825
1.977596
1.928291
1.977551
1.928233
1.977496
1.928228
1.977546
1.92823
1.977497
1.928228
1.977548
1.92823
1.977496
1.928229
1.977548
1.928314
1.923923
1.977817
1.928712
1.97765
1.928258
1.977495
1.928234
1.977552
1.928231
1.977496
1.92823
1.977548
1.928231
1.977497
1.928229
1.977548
1.928231
1.977497
1.928229
1.977548
1.928258
1.977497
1.928236
1.977554
1.928311
1.923893
1.977815
1.928708
1.977649
1.928255
1.977596
1.928297
1.977554
1.928235
1.977496
1.92823
1.977546
1.928233
1.977499
1.928231
1.97755
1.928233
1.977499
1.928231
1.97755
1.928231
1.977494
1.928233
1.977548
1.928304
1.9775
1.92825
1.977646
1.928659
1.925424
1.977901
1.925412
1.928923
1.977854
1.928659
1.925424
1.977901
1.928923
1.925412
1.977854
1.928304
1.9775
1.928251
1.977646
1.928233
1.977496
1.928234
1.977549
1.928231
1.977497
1.92823
1.977548
1.928233
1.977499
1.928231
1.977551
1.928232
1.977497
1.928229
1.977548
1.928231
1.977497
1.928229
1.977548
1.928231
1.977497
1.977548
1.92823
0.09468918
0.09004932
0.08849039
0.08808743
0.08805527
0.08815348
0.08827891
0.2521528
0.2901744
0.2830228
0.2797033
0.2785255
0.278337
0.278602
0.2789755
0.5017737
0.4951322
0.4895134
0.4857129
0.4839581
0.4835868
0.4839296
0.4844741
0.7004254
0.6975403
0.6945155
0.6917929
0.6902042
0.6898092
0.6901394
0.6906534
0.8998874
0.899199
0.8982014
0.8971754
0.8964814
0.8962983
0.8964842
0.8967568
1.100081
1.100643
1.101398
1.102125
1.102593
1.102745
1.102717
1.10268
1.299541
1.302284
1.305021
1.307365
1.30866
1.309013
1.308888
1.308687
1.498198
1.504678
1.509951
1.513265
1.514611
1.514895
1.514827
1.514732
1.643874
1.70967
1.716502
1.719285
1.71994
1.719972
1.720022
1.720215
1.820536
1.905238
1.909638
1.910856
1.911031
1.911001
1.911025
1.91115
0.04569483
0.04569522
0.1794639
0.143919
0.1230237
0.1439214
1.856072
1.820535
1.856064
1.954304
1.954302
0.07176656
0.0225007
0.0224494
0.0717684
0.0717666
0.02250073
0.07176855
0.02244941
1.928232
1.977499
1.97755
1.928231
1.928231
1.977497
1.928229
1.977548
0.03445105
0.009448768
0.2374864
0.2124951
0.437484
0.4124915
0.63751
0.6124902
0.8375171
0.8125092
1.037501
1.012482
1.237514
1.212498
1.437498
1.412479
1.637513
1.612487
1.837523
1.812508
0.1625011
0.1875151
0.3625156
0.3875082
0.5624952
0.5875069
0.7624874
0.7875026
0.9625134
0.9875028
1.162491
1.187493
1.362494
1.387494
1.562511
1.587496
1.762491
1.787491
1.965555
1.990575
1.927624
1.977239
1.927998
1.976493
1.964785
1.989683
1.964784
1.989678
1.96478
1.9897
1.964773
1.989727
1.964767
1.989697
1.989719
1.964772
1.964767
1.989697
1.989719
1.964772
1.96478
1.9897
1.989727
1.964774
1.928231
1.977496
1.928233
1.977549
1.928231
1.977496
1.928232
1.977549
1.925421
1.977898
1.928911
1.964781
1.9897
1.964773
1.989727
1.964768
1.989697
1.964774
1.98972
1.928254
1.977497
1.928234
1.977554
1.928294
1.925325
1.97779
1.928614
1.977646
1.964767
1.989697
1.964772
1.98972
1.964769
1.989697
1.98972
1.964773
1.96477
1.989698
1.98972
1.964775
1.96477
1.989698
1.98972
1.964775
1.928231
1.977496
1.92823
1.977548
1.964767
1.989696
1.989719
1.964772
1.929126
1.924314
1.977927
1.92908
1.924418
1.977991
1.928983
1.925259
1.977805
1.923794
1.928681
1.977963
1.928325
1.977601
1.928332
1.977651
1.928606
1.925304
1.977787
1.925329
1.928598
1.977837
1.964748
1.989683
1.989698
1.963987
1.964768
1.989697
1.964774
1.98972
1.964769
1.989696
1.989719
1.964775
1.928233
1.977497
1.92823
1.97755
1.964769
1.989697
1.989719
1.964775
1.964767
1.989697
1.964772
1.989719
1.96478
1.9897
1.989727
1.964774
1.96477
1.989698
1.964775
1.989721
1.96477
1.989697
1.989719
1.964775
1.928233
1.977497
1.92823
1.97755
1.928231
1.977497
1.92823
1.977548
1.928231
1.977497
1.92823
1.977548
1.928233
1.977499
1.928231
1.97755
1.96477
1.989698
1.964775
1.989721
1.989698
1.964775
1.96477
1.989721
0.06166189
0.08716027
0.262496
0.287513
0.4624969
0.4875189
0.6624935
0.6875041
0.8624993
0.8874951
1.062508
1.087493
1.262513
1.287509
1.462499
1.487503
1.662503
1.687489
1.862543
1.887625
1.977501
1.928248
1.977645
1.928299
1.925421
1.977899
1.928912
1.977852
1.92865
1.92541
1.977255
1.928032