/*--------------------------------*- C++ -*----------------------------------*\
  =========                 |
  \\      /  F ield         | OpenFOAM: The Open Source CFD Toolbox
   \\    /   O peration     | Website:  https://openfoam.org
    \\  /    A nd           | Version:  7
     \\/     M anipulation  |
\*---------------------------------------------------------------------------*/
FoamFile
{
    version     2.0;
    format      ascii;
    class       volScalarField;
    location    "0.1";
    object      nut;
}
// * * * * * * * * * * * * * * * * * * * * * * * * * * * * * * * * * * * * * //

dimensions      [0 2 -1 0 0 0 0];

internalField   nonuniform List<scalar> 
80136
(
0.001338182
0.001309114
0.00129984
0.001297697
0.001297207
0.001297192
0.001297347
0.001309105
0.001254991
0.00123887
0.001234723
0.001233682
0.001233525
0.001233641
0.001299801
0.001238815
0.001218922
0.001213545
0.001212114
0.00121187
0.001212011
0.001297584
0.001234534
0.00121337
0.001207363
0.00120569
0.001205394
0.001205574
0.001296956
0.001233256
0.001211615
0.001205311
0.001203493
0.001203158
0.001203365
0.001296725
0.001232781
0.00121093
0.00120447
0.001202555
0.001202181
0.001202393
0.001296633
0.001232584
0.00121063
0.001204078
0.001202087
0.001201663
0.001201858
0.001296592
0.001232493
0.001210483
0.00120387
0.001201818
0.001201344
0.001201509
0.001296573
0.00123245
0.001210408
0.001203755
0.001201658
0.001201138
0.001201267
0.001296567
0.00123243
0.001210369
0.001203691
0.001201563
0.001201012
0.00120111
0.001296564
0.00123242
0.00121035
0.00120366
0.001201516
0.001200941
0.001201014
0.001296567
0.001232419
0.001210345
0.001203649
0.001201496
0.001200909
0.001200961
0.001296569
0.001232422
0.001210348
0.00120365
0.001201493
0.0012009
0.001200937
0.001296574
0.001232426
0.001210352
0.001203655
0.001201497
0.001200901
0.001200927
0.001296578
0.001232432
0.001210359
0.001203663
0.001201506
0.001200908
0.001200929
0.001296583
0.001232439
0.001210368
0.001203674
0.001201518
0.001200919
0.001200936
0.001296589
0.001232446
0.001210376
0.001203685
0.001201531
0.001200934
0.001200949
0.001296594
0.001232454
0.001210388
0.0012037
0.001201551
0.001200957
0.001200974
0.001296601
0.001232466
0.001210407
0.001203728
0.001201586
0.001201
0.001201023
0.001296613
0.001232488
0.001210442
0.001203778
0.001201656
0.00120109
0.001201131
0.001296631
0.001232527
0.00121051
0.001203887
0.001201815
0.001201297
0.001201383
0.001296666
0.001232609
0.00121066
0.001204131
0.001202182
0.001201797
0.001202
0.001296735
0.001232771
0.001210966
0.001204673
0.00120307
0.001203085
0.001203635
0.0006104554
0.0006022994
0.0005979421
0.0005970315
0.0005969012
0.0005968931
0.0005969353
0.0005969937
0.0006105505
0.0001005077
0.0001005068
0.0001005067
0.0001005067
0.0001005067
0.0001005067
0.0001005067
0.0006023039
0.000100507
0.0001005053
0.0001005051
0.0001005052
0.0001005052
0.0001005052
0.0001005052
0.000597941
0.000100507
0.0001005053
0.000100505
0.0001005051
0.0001005051
0.0001005052
0.0001005051
0.0005970267
0.0001005071
0.0001005054
0.0001005051
0.0001005052
0.0001005053
0.0001005053
0.0001005053
0.0005968864
0.0001005071
0.0001005055
0.0001005053
0.0001005054
0.0001005054
0.0001005054
0.0001005054
0.0005968525
0.0001005072
0.0001005056
0.0001005053
0.0001005054
0.0001005055
0.0001005055
0.0001005055
0.0005968433
0.0001005073
0.0001005056
0.0001005053
0.0001005055
0.0001005055
0.0001005055
0.0001005055
0.0005968426
0.0001005073
0.0001005057
0.0001005054
0.0001005055
0.0001005056
0.0001005056
0.0001005056
0.0005968443
0.0001005074
0.0001005057
0.0001005054
0.0001005055
0.0001005056
0.0001005056
0.0001005056
0.000596848
0.0001005075
0.0001005057
0.0001005054
0.0001005056
0.0001005056
0.0001005056
0.0001005056
0.0005968523
0.0001005075
0.0001005058
0.0001005054
0.0001005056
0.0001005056
0.0001005056
0.0001005056
0.0005968567
0.0001005076
0.0001005058
0.0001005054
0.0001005056
0.0001005056
0.0001005056
0.0001005056
0.0005968617
0.0001005076
0.0001005059
0.0001005055
0.0001005056
0.0001005056
0.0001005057
0.0001005056
0.0005968675
0.0001005076
0.0001005059
0.0001005055
0.0001005056
0.0001005056
0.0001005057
0.0001005056
0.0005968732
0.0001005075
0.0001005059
0.0001005055
0.0001005056
0.0001005056
0.0001005057
0.0001005057
0.0005968795
0.0001005077
0.0001005059
0.0001005055
0.0001005056
0.0001005056
0.0001005057
0.0001005057
0.0005968831
0.0001005076
0.0001005059
0.0001005055
0.0001005056
0.0001005056
0.0001005057
0.0001005057
0.0005968916
0.0001005076
0.0001005059
0.0001005055
0.0001005056
0.0001005056
0.0001005057
0.0001005057
0.0005968955
0.0001005076
0.0001005059
0.0001005055
0.0001005056
0.0001005056
0.0001005057
0.0001005057
0.0005969033
0.0001005075
0.0001005059
0.0001005055
0.0001005056
0.0001005056
0.0001005057
0.0001005057
0.0005969073
0.0001005075
0.0001005058
0.0001005055
0.0001005056
0.0001005056
0.0001005057
0.0001005057
0.0005969153
0.0001005074
0.0001005058
0.0001005054
0.0001005055
0.0001005056
0.0001005056
0.0001005056
0.0001005761
0.0001005074
0.0001005058
0.0001005055
0.0001005057
0.0001005057
0.000100506
0.0001005057
0.0006052361
0.001284504
0.001264273
0.001256981
0.001255348
0.001255024
0.001254996
0.000605344
0.0001004621
0.0001005081
0.0001005074
0.0001005072
0.0001005072
0.0001005073
0.0001005073
0.0012845
0.0001005113
0.0001004621
0.0001004621
0.0001004621
0.0001004621
0.0001004621
0.0001004621
0.001264231
0.0001005107
0.0001004621
0.0001004621
0.0001004621
0.0001004621
0.0001004621
0.0001004621
0.00125688
0.0001005109
0.0001004621
0.0001004621
0.0001004621
0.0001004621
0.0001004621
0.0001004621
0.001255148
0.0001005112
0.0001004621
0.0001004621
0.0001004621
0.0001004621
0.0001004621
0.0001004621
0.00125469
0.0001005117
0.0001004621
0.0001004621
0.0001004621
0.0001004621
0.0001004621
0.0001004621
0.001254525
0.0001005122
0.0001004621
0.0001004621
0.0001004621
0.0001004621
0.0001004621
0.0001004621
0.001254459
0.0001005127
0.0001004621
0.0001004621
0.0001004621
0.0001004621
0.0001004621
0.0001004621
0.001254429
0.0001005131
0.0001004621
0.0001004621
0.0001004621
0.0001004621
0.0001004621
0.0001004621
0.001254414
0.0001005136
0.0001004621
0.0001004621
0.0001004621
0.0001004621
0.0001004621
0.0001004621
0.001254407
0.0001005139
0.0001004621
0.0001004621
0.0001004621
0.0001004621
0.0001004621
0.0001004621
0.001254404
0.0001005143
0.0001004621
0.0001004621
0.0001004621
0.0001004621
0.0001004621
0.0001004621
0.001254404
0.0001005146
0.0001004621
0.0001004621
0.0001004621
0.0001004621
0.0001004621
0.0001004621
0.001254404
0.0001005146
0.0001004621
0.0001004621
0.0001004621
0.0001004621
0.0001004621
0.0001004622
0.001254406
0.0001005148
0.0001004621
0.0001004621
0.0001004621
0.0001004621
0.0001004622
0.0001004622
0.001254408
0.0001005149
0.0001004621
0.0001004621
0.0001004622
0.0001004622
0.0001004622
0.0001004622
0.001254412
0.0001005149
0.0001004622
0.0001004622
0.0001004622
0.0001004622
0.0001004622
0.0001004622
0.001254414
0.0001005148
0.0001004622
0.0001004622
0.0001004622
0.0001004622
0.0001004622
0.0001004622
0.001254418
0.0001005147
0.0001004622
0.0001004622
0.0001004622
0.0001004622
0.0001004622
0.0001004622
0.001254423
0.0001005144
0.0001004622
0.0001004622
0.0001004622
0.0001004622
0.0001004622
0.0001004622
0.001254432
0.0001005142
0.0001004622
0.0001004622
0.0001004622
0.0001004622
0.0001004622
0.0001004622
0.00125445
0.0001005138
0.0001004622
0.0001004622
0.0001004622
0.0001004622
0.0001004622
0.0001004622
0.001254491
0.0001005133
0.0001004622
0.0001004622
0.0001004622
0.0001004622
0.0001004622
0.0001004622
0.0006012681
0.001265161
0.001230647
0.001219774
0.001217154
0.001216577
0.001216473
0.000601321
0.0001004621
0.0001005076
0.0001005063
0.0001005061
0.0001005061
0.0001005061
0.0001005061
0.001265151
0.0001005106
0.0001004621
0.0001004621
0.0001004621
0.0001004621
0.0001004621
0.0001004621
0.00123059
0.0001005094
0.0001004621
0.0001004621
0.0001004621
0.0001004621
0.0001004621
0.0001004621
0.001219643
0.0001005096
0.0001004621
0.0001004621
0.0001004621
0.0001004621
0.0001004621
0.0001004621
0.001216907
0.0001005099
0.0001004621
0.0001004621
0.0001004621
0.0001004621
0.0001004621
0.0001004621
0.001216183
0.0001005103
0.0001004621
0.0001004621
0.0001004621
0.0001004621
0.0001004621
0.0001004621
0.001215929
0.0001005107
0.0001004621
0.0001004621
0.0001004621
0.0001004621
0.0001004621
0.0001004621
0.001215829
0.0001005112
0.0001004621
0.0001004621
0.0001004621
0.0001004621
0.0001004621
0.0001004621
0.001215784
0.0001005116
0.0001004621
0.0001004621
0.0001004621
0.0001004621
0.0001004621
0.0001004621
0.001215762
0.000100512
0.0001004621
0.0001004621
0.0001004621
0.0001004621
0.0001004621
0.0001004621
0.001215751
0.0001005124
0.0001004621
0.0001004621
0.0001004621
0.0001004621
0.0001004621
0.0001004621
0.001215745
0.0001005127
0.0001004621
0.0001004621
0.0001004621
0.0001004621
0.0001004621
0.0001004621
0.001215743
0.000100513
0.0001004621
0.0001004621
0.0001004621
0.0001004621
0.0001004621
0.0001004621
0.001215742
0.0001005132
0.0001004621
0.0001004621
0.0001004621
0.0001004621
0.0001004621
0.0001004621
0.001215742
0.0001005134
0.0001004621
0.0001004621
0.0001004621
0.0001004621
0.0001004622
0.0001004622
0.001215744
0.0001005134
0.0001004621
0.0001004621
0.0001004621
0.0001004622
0.0001004622
0.0001004622
0.001215746
0.0001005134
0.0001004622
0.0001004621
0.0001004622
0.0001004622
0.0001004622
0.0001004622
0.001215749
0.0001005133
0.0001004622
0.0001004622
0.0001004622
0.0001004622
0.0001004622
0.0001004622
0.001215751
0.0001005132
0.0001004622
0.0001004622
0.0001004622
0.0001004622
0.0001004622
0.0001004622
0.001215755
0.000100513
0.0001004622
0.0001004622
0.0001004622
0.0001004622
0.0001004622
0.0001004622
0.001215765
0.0001005127
0.0001004622
0.0001004622
0.0001004622
0.0001004622
0.0001004622
0.0001004622
0.001215786
0.0001005124
0.0001004622
0.0001004622
0.0001004622
0.0001004622
0.0001004622
0.0001004622
0.001215835
0.0001005121
0.0001004622
0.0001004622
0.0001004622
0.0001004622
0.0001004622
0.0001004622
0.0006004324
0.001258364
0.001220444
0.001207509
0.001204407
0.001203714
0.001203581
0.0006005095
0.0001004621
0.0001005074
0.0001005061
0.0001005058
0.0001005058
0.0001005058
0.0001005058
0.001258353
0.0001005105
0.0001004621
0.0001004621
0.0001004621
0.0001004621
0.0001004621
0.0001004621
0.001220376
0.000100509
0.0001004621
0.0001004621
0.0001004621
0.0001004621
0.0001004621
0.0001004621
0.001207359
0.0001005093
0.0001004621
0.0001004621
0.0001004621
0.0001004621
0.0001004621
0.0001004621
0.00120413
0.0001005096
0.0001004621
0.0001004621
0.0001004621
0.0001004621
0.0001004621
0.0001004621
0.001203277
0.00010051
0.0001004621
0.0001004621
0.0001004621
0.0001004621
0.0001004621
0.0001004621
0.001202979
0.0001005104
0.0001004621
0.0001004621
0.0001004621
0.0001004621
0.0001004621
0.0001004621
0.00120286
0.0001005108
0.0001004621
0.0001004621
0.0001004621
0.0001004621
0.0001004621
0.0001004621
0.001202807
0.0001005113
0.0001004621
0.0001004621
0.0001004621
0.0001004621
0.0001004621
0.0001004621
0.001202782
0.0001005117
0.0001004621
0.0001004621
0.0001004621
0.0001004621
0.0001004621
0.0001004621
0.00120277
0.0001005121
0.0001004621
0.0001004621
0.0001004621
0.0001004621
0.0001004621
0.0001004621
0.001202764
0.0001005124
0.0001004621
0.0001004621
0.0001004621
0.0001004621
0.0001004621
0.0001004621
0.001202761
0.0001005127
0.0001004621
0.0001004621
0.0001004621
0.0001004621
0.0001004621
0.0001004621
0.001202757
0.0001005129
0.0001004621
0.0001004621
0.0001004621
0.0001004621
0.0001004621
0.0001004621
0.001202756
0.000100513
0.0001004621
0.0001004621
0.0001004621
0.0001004621
0.0001004622
0.0001004622
0.001202759
0.0001005131
0.0001004621
0.0001004621
0.0001004621
0.0001004622
0.0001004622
0.0001004622
0.001202761
0.0001005131
0.0001004622
0.0001004621
0.0001004622
0.0001004622
0.0001004622
0.0001004622
0.001202763
0.000100513
0.0001004622
0.0001004622
0.0001004622
0.0001004622
0.0001004622
0.0001004622
0.001202764
0.0001005128
0.0001004622
0.0001004622
0.0001004622
0.0001004622
0.0001004622
0.0001004622
0.001202766
0.0001005126
0.0001004622
0.0001004622
0.0001004622
0.0001004622
0.0001004622
0.0001004622
0.001202775
0.0001005124
0.0001004622
0.0001004622
0.0001004622
0.0001004622
0.0001004622
0.0001004622
0.001202798
0.0001005121
0.0001004622
0.0001004622
0.0001004622
0.0001004622
0.0001004622
0.0001004622
0.001202852
0.0001005118
0.0001004622
0.0001004622
0.0001004622
0.0001004622
0.0001004622
0.0001004622
0.0006003326
0.001258373
0.001220458
0.001207528
0.001204426
0.001203732
0.001203599
0.0006004749
0.0001004621
0.0001005074
0.0001005061
0.0001005058
0.0001005057
0.0001005058
0.0001005058
0.001258361
0.0001005105
0.0001004621
0.0001004621
0.0001004621
0.0001004621
0.0001004621
0.0001004621
0.001220385
0.000100509
0.0001004621
0.0001004621
0.0001004621
0.0001004621
0.0001004621
0.0001004621
0.001207368
0.0001005093
0.0001004621
0.0001004621
0.0001004621
0.0001004621
0.0001004621
0.0001004621
0.001204141
0.0001005096
0.0001004621
0.0001004621
0.0001004621
0.0001004621
0.0001004621
0.0001004621
0.001203287
0.00010051
0.0001004621
0.0001004621
0.0001004621
0.0001004621
0.0001004621
0.0001004621
0.001202984
0.0001005104
0.0001004621
0.0001004621
0.0001004621
0.0001004621
0.0001004621
0.0001004621
0.001202862
0.0001005109
0.0001004621
0.0001004621
0.0001004621
0.0001004621
0.0001004621
0.0001004621
0.001202811
0.0001005113
0.0001004621
0.0001004621
0.0001004621
0.0001004621
0.0001004621
0.0001004621
0.001202788
0.0001005117
0.0001004621
0.0001004621
0.0001004621
0.0001004621
0.0001004621
0.0001004621
0.001202781
0.000100512
0.0001004621
0.0001004621
0.0001004621
0.0001004621
0.0001004621
0.0001004621
0.001202781
0.0001005124
0.0001004621
0.0001004621
0.0001004621
0.0001004621
0.0001004621
0.0001004621
0.001202778
0.0001005127
0.0001004621
0.0001004621
0.0001004621
0.0001004621
0.0001004621
0.0001004621
0.00120277
0.0001005129
0.0001004621
0.0001004621
0.0001004621
0.0001004621
0.0001004621
0.0001004621
0.001202766
0.000100513
0.0001004621
0.0001004621
0.0001004621
0.0001004621
0.0001004621
0.0001004622
0.001202771
0.0001005131
0.0001004621
0.0001004621
0.0001004621
0.0001004622
0.0001004622
0.0001004622
0.001202778
0.000100513
0.0001004622
0.0001004621
0.0001004622
0.0001004622
0.0001004622
0.0001004622
0.00120278
0.000100513
0.0001004622
0.0001004622
0.0001004622
0.0001004622
0.0001004622
0.0001004622
0.001202774
0.0001005128
0.0001004622
0.0001004622
0.0001004622
0.0001004622
0.0001004622
0.0001004622
0.001202771
0.0001005126
0.0001004622
0.0001004622
0.0001004622
0.0001004622
0.0001004622
0.0001004622
0.001202778
0.0001005124
0.0001004622
0.0001004622
0.0001004622
0.0001004622
0.0001004622
0.0001004622
0.001202801
0.0001005121
0.0001004622
0.0001004622
0.0001004622
0.0001004622
0.0001004622
0.0001004622
0.001202854
0.0001005118
0.0001004622
0.0001004622
0.0001004622
0.0001004622
0.0001004622
0.0001004622
0.0006006267
0.001265212
0.001230718
0.00121987
0.00121725
0.001216657
0.001216563
0.0006007249
0.0001004621
0.0001005076
0.0001005063
0.0001005061
0.0001005061
0.0001005061
0.0001005061
0.001265189
0.0001005106
0.0001004621
0.0001004621
0.0001004621
0.0001004621
0.0001004621
0.0001004621
0.001230631
0.0001005093
0.0001004621
0.0001004621
0.0001004621
0.0001004621
0.0001004621
0.0001004621
0.001219683
0.0001005096
0.0001004621
0.0001004621
0.0001004621
0.0001004621
0.0001004621
0.0001004621
0.001216966
0.0001005099
0.0001004621
0.0001004621
0.0001004621
0.0001004621
0.0001004621
0.0001004621
0.001216233
0.0001005103
0.0001004621
0.0001004621
0.0001004621
0.0001004621
0.0001004621
0.0001004621
0.001215945
0.0001005107
0.0001004621
0.0001004621
0.0001004621
0.0001004621
0.0001004621
0.0001004621
0.001215833
0.0001005112
0.0001004621
0.0001004621
0.0001004621
0.0001004621
0.0001004621
0.0001004621
0.001215799
0.0001005116
0.0001004621
0.0001004621
0.0001004621
0.0001004621
0.0001004621
0.0001004621
0.001215788
0.000100512
0.0001004621
0.0001004621
0.0001004621
0.0001004621
0.0001004621
0.0001004621
0.001215804
0.0001005124
0.0001004621
0.0001004621
0.0001004621
0.0001004621
0.0001004621
0.0001004621
0.001215828
0.0001005128
0.0001004621
0.0001004621
0.0001004621
0.0001004621
0.0001004621
0.0001004621
0.001215829
0.000100513
0.0001004621
0.0001004621
0.0001004621
0.0001004621
0.0001004621
0.0001004621
0.001215801
0.0001005132
0.0001004621
0.0001004621
0.0001004621
0.0001004621
0.0001004621
0.0001004621
0.001215781
0.0001005134
0.0001004621
0.0001004621
0.0001004621
0.0001004621
0.0001004622
0.0001004622
0.001215796
0.0001005134
0.0001004621
0.0001004621
0.0001004621
0.0001004622
0.0001004622
0.0001004622
0.001215831
0.0001005134
0.0001004622
0.0001004621
0.0001004622
0.0001004622
0.0001004622
0.0001004622
0.001215833
0.0001005133
0.0001004622
0.0001004622
0.0001004622
0.0001004622
0.0001004622
0.0001004622
0.001215797
0.0001005132
0.0001004622
0.0001004622
0.0001004622
0.0001004622
0.0001004622
0.0001004622
0.001215775
0.000100513
0.0001004622
0.0001004622
0.0001004622
0.0001004622
0.0001004622
0.0001004622
0.001215774
0.0001005128
0.0001004622
0.0001004622
0.0001004622
0.0001004622
0.0001004622
0.0001004622
0.001215794
0.0001005124
0.0001004622
0.0001004622
0.0001004622
0.0001004622
0.0001004622
0.0001004622
0.001215844
0.0001005121
0.0001004622
0.0001004622
0.0001004622
0.0001004622
0.0001004622
0.0001004622
0.000603238
0.001284768
0.001264513
0.001257398
0.001255767
0.001255302
0.001255395
0.0006032797
0.0001004621
0.0001005081
0.0001005074
0.0001005073
0.0001005073
0.0001005073
0.0001005073
0.001284682
0.0001005113
0.0001004621
0.0001004621
0.0001004621
0.0001004621
0.0001004621
0.0001004621
0.001264394
0.0001005107
0.0001004621
0.0001004621
0.0001004621
0.0001004621
0.0001004621
0.0001004621
0.001257006
0.0001005109
0.0001004621
0.0001004621
0.0001004621
0.0001004621
0.0001004621
0.0001004621
0.001255386
0.0001005112
0.0001004621
0.0001004621
0.0001004621
0.0001004621
0.0001004621
0.0001004621
0.001254835
0.0001005116
0.0001004621
0.0001004621
0.0001004621
0.0001004621
0.0001004621
0.0001004621
0.001254548
0.0001005121
0.0001004621
0.0001004621
0.0001004621
0.0001004621
0.0001004621
0.0001004621
0.001254336
0.0001005127
0.0001004621
0.0001004621
0.0001004621
0.0001004621
0.0001004621
0.0001004621
0.001254441
0.0001005131
0.0001004621
0.0001004621
0.0001004621
0.0001004621
0.0001004621
0.0001004621
0.001254468
0.0001005135
0.0001004621
0.0001004621
0.0001004621
0.0001004621
0.0001004621
0.0001004621
0.001254569
0.0001005138
0.0001004621
0.0001004621
0.0001004621
0.0001004621
0.0001004621
0.0001004621
0.001254812
0.0001005142
0.0001004621
0.0001004621
0.0001004621
0.0001004621
0.0001004621
0.0001004621
0.001254735
0.0001005146
0.0001004621
0.0001004621
0.0001004621
0.0001004621
0.0001004621
0.0001004621
0.001254617
0.0001005148
0.0001004621
0.0001004621
0.0001004621
0.0001004621
0.0001004621
0.0001004622
0.001254498
0.0001005149
0.0001004621
0.0001004621
0.0001004621
0.0001004621
0.0001004622
0.0001004622
0.00125457
0.0001005149
0.0001004622
0.0001004621
0.0001004622
0.0001004622
0.0001004622
0.0001004622
0.001254804
0.0001005148
0.0001004622
0.0001004622
0.0001004622
0.0001004622
0.0001004622
0.0001004622
0.001254806
0.000100515
0.0001004622
0.0001004622
0.0001004622
0.0001004622
0.0001004622
0.0001004622
0.001254568
0.0001005146
0.0001004622
0.0001004622
0.0001004622
0.0001004622
0.0001004622
0.0001004622
0.001254464
0.0001005144
0.0001004622
0.0001004622
0.0001004622
0.0001004622
0.0001004622
0.0001004622
0.00125445
0.0001005143
0.0001004622
0.0001004622
0.0001004622
0.0001004622
0.0001004622
0.0001004622
0.001254469
0.0001005138
0.0001004622
0.0001004622
0.0001004622
0.0001004622
0.0001004622
0.0001004622
0.001254517
0.0001005136
0.0001004622
0.0001004622
0.0001004622
0.0001004622
0.0001004622
0.0001004622
0.0006075005
0.0005937972
0.0005749435
0.0005727635
0.0005728228
0.0005720947
0.0005724164
0.0005728311
0.0006075758
0.0001005076
0.0001005068
0.0001005067
0.0001005067
0.0001005067
0.0001005067
0.0001005067
0.000593782
0.000100507
0.0001005053
0.0001005051
0.0001005052
0.0001005052
0.0001005052
0.0001005052
0.0005751099
0.000100507
0.0001005053
0.000100505
0.0001005051
0.0001005052
0.0001005052
0.0001005052
0.0005722451
0.0001005071
0.0001005054
0.0001005051
0.0001005053
0.0001005053
0.0001005053
0.0001005053
0.0005720998
0.0001005072
0.0001005055
0.0001005053
0.0001005054
0.0001005054
0.0001005055
0.0001005054
0.0005719114
0.0001005071
0.0001005056
0.0001005053
0.0001005054
0.0001005055
0.0001005055
0.0001005055
0.0005712543
0.0001005072
0.0001005056
0.0001005053
0.0001005055
0.0001005055
0.0001005055
0.0001005055
0.000570593
0.0001005074
0.0001005057
0.0001005054
0.0001005055
0.0001005055
0.0001005056
0.0001005055
0.0005716825
0.0001005075
0.0001005057
0.0001005054
0.0001005055
0.0001005055
0.0001005056
0.0001005055
0.000571747
0.0001005075
0.0001005057
0.0001005054
0.0001005055
0.0001005056
0.0001005056
0.0001005056
0.0005714202
0.0001005074
0.0001005057
0.0001005054
0.0001005055
0.0001005056
0.0001005056
0.0001005056
0.0005727374
0.0001005077
0.0001005058
0.0001005055
0.0001005056
0.0001005056
0.0001005056
0.0001005056
0.0005719736
0.0001005078
0.0001005058
0.0001005055
0.0001005056
0.0001005056
0.0001005056
0.0001005056
0.0005721634
0.0001005075
0.0001005059
0.0001005055
0.0001005056
0.0001005056
0.0001005056
0.0001005056
0.0005718145
0.0001005076
0.0001005059
0.0001005055
0.0001005056
0.0001005056
0.0001005056
0.0001005056
0.0005718333
0.0001005076
0.0001005059
0.0001005055
0.0001005056
0.0001005056
0.0001005057
0.0001005057
0.0005723358
0.0001005078
0.0001005059
0.0001005055
0.0001005056
0.0001005056
0.0001005057
0.0001005057
0.0005727464
0.0001005074
0.0001005059
0.0001005055
0.0001005057
0.0001005057
0.0001005057
0.0001005057
0.0005719894
0.0001005076
0.0001005059
0.0001005055
0.0001005056
0.0001005056
0.0001005057
0.0001005057
0.0005718013
0.0001005075
0.0001005059
0.0001005055
0.0001005057
0.0001005057
0.0001005058
0.0001005057
0.0005717811
0.0001005076
0.0001005058
0.0001005054
0.0001005056
0.0001005056
0.0001005056
0.0001005056
0.0005717883
0.0001005075
0.000100506
0.0001005057
0.0001005064
0.0001005062
0.0001005062
0.0001005058
0.0005718052
0.0001005074
0.0001005058
0.0001005054
0.0001005055
0.0001005055
0.0001005055
0.0001005056
0.0002717363
0.000267523
0.0002600704
0.0002603951
0.0002683284
0.0002599912
0.0002603968
0.000268366
0.0002669092
0.001337354
0.001308522
0.001299664
0.001297167
0.001296662
0.001296983
0.001296752
0.0002607075
0.001308713
0.001254826
0.001238779
0.00123459
0.001233515
0.001233339
0.001233344
0.0002615672
0.001299619
0.001238743
0.001218882
0.001213486
0.001212006
0.001211674
0.001211683
0.000259644
0.001297528
0.001234497
0.001213353
0.001207336
0.001205608
0.001205193
0.001205198
0.0002599252
0.001296625
0.001233181
0.001211616
0.00120533
0.001203473
0.001203018
0.001203018
0.0002642139
0.001295912
0.001232651
0.00121096
0.00120456
0.001202647
0.00120218
0.001202184
0.0005906479
0.001295868
0.001232474
0.001210706
0.001204258
0.001202326
0.001201863
0.001201876
0.0002620603
0.001296222
0.001232475
0.001210623
0.001204146
0.00120221
0.001201764
0.001201795
0.000259684
0.001296548
0.001232509
0.001210595
0.001204104
0.001202175
0.001201751
0.001201807
0.0002596093
0.001296547
0.001232498
0.001210576
0.001204079
0.001202158
0.001201753
0.001201838
0.0002598818
0.0012962
0.001232426
0.001210545
0.00120405
0.001202125
0.001201727
0.001201834
0.0005932344
0.001295772
0.001232369
0.001210511
0.001204002
0.001202057
0.00120165
0.001201762
0.0002622892
0.001296044
0.001232385
0.001210485
0.001203941
0.001201959
0.001201523
0.001201627
0.0002615417
0.001296411
0.001232429
0.001210463
0.001203878
0.001201849
0.001201369
0.001201454
0.0002596762
0.001296574
0.001232456
0.001210439
0.001203817
0.001201745
0.001201225
0.001201286
0.000259662
0.001296517
0.001232436
0.001210418
0.001203772
0.001201667
0.001201116
0.001201156
0.0002604456
0.001296087
0.001232375
0.001210401
0.001203749
0.001201628
0.001201055
0.001201079
0.0002683948
0.001296094
0.001232386
0.001210414
0.001203759
0.001201625
0.001201039
0.001201058
0.0002600487
0.00129654
0.001232472
0.001210459
0.001203803
0.001201674
0.001201089
0.001201105
0.0002596771
0.001296638
0.001232552
0.001210553
0.001203923
0.001201815
0.001201237
0.00120125
0.0002596758
0.001296693
0.001232678
0.001210763
0.00120422
0.001202173
0.001201618
0.001201621
0.000259683
0.001296805
0.001232974
0.001211312
0.001205037
0.001203169
0.00120265
0.001202585
0.0002596885
0.001297127
0.001233932
0.001213194
0.001207816
0.001206479
0.001206011
0.001205582
0.0006521468
0.0002564164
0.000256416
0.0001005521
0.0006481087
0.0006300018
0.0002668863
0.0002602707
0.0001006405
0.0001006391
0.0006259228
0.0006238296
0.0002601152
0.0002597499
0.000100633
0.0001006364
0.0006233914
0.0006231763
0.0002596998
0.0002596047
0.0001006308
0.0001006359
0.0006231169
0.0006230976
0.0002595978
0.0002595879
0.0001006297
0.000100636
0.0006230901
0.0006230963
0.0002595858
0.0002595874
0.0001006288
0.0001006359
0.000623108
0.0006231353
0.0002595875
0.0002595968
0.000100628
0.0001006353
0.0006231744
0.0006232209
0.0002596016
0.0002596331
0.0001006283
0.0001006344
0.0006232456
0.000259645
0.0001006284
0.00064811
0.0006300017
0.0002669033
0.0001006347
0.0002602725
0.0001006317
0.0006259221
0.0006238287
0.0002601162
0.0001006278
0.0002597501
0.0001006289
0.00062339
0.0006231738
0.0002597004
0.0001006271
0.0002596049
0.0001006285
0.0006231122
0.0006230889
0.0002595989
0.000100627
0.0002595886
0.0001006289
0.0006230751
0.0006230693
0.0002595871
0.0001006271
0.0002595873
0.0001006294
0.0006230657
0.0006230638
0.000259586
0.0001006271
0.0002595902
0.0001006297
0.000623064
0.000623064
0.0002595887
0.0001006271
0.0002595943
0.00010063
0.0006230649
0.0006230661
0.0002595936
0.0001006271
0.0002595985
0.0001006305
0.0006230676
0.0006230694
0.0002595974
0.0001006271
0.0002596037
0.0001006312
0.0006230715
0.0006230731
0.0002596027
0.0001006271
0.0002596096
0.0001006319
0.0006230759
0.0006230774
0.0002596084
0.0001006271
0.0002596158
0.0001006326
0.0006230807
0.000623082
0.0002596144
0.0001006271
0.0002596224
0.0001006335
0.0006230862
0.000623087
0.0002596208
0.0001006272
0.0002596288
0.0001006342
0.0006230918
0.0006230928
0.0002596274
0.0001006284
0.0002596355
0.0001006349
0.0006230963
0.0006230975
0.0002596349
0.00010063
0.0002596422
0.0001006349
0.0006231019
0.0006231029
0.0002596418
0.0001006316
0.0002596493
0.0001006358
0.0006231081
0.0006231087
0.0002596489
0.0001006338
0.0002596557
0.0001006366
0.0006231129
0.0006231137
0.0002596562
0.0001006357
0.0002596627
0.000100637
0.0006231186
0.000623119
0.000259663
0.0001006383
0.0002596693
0.0001006382
0.0006231238
0.0006231243
0.0002596697
0.0001006404
0.0002596757
0.0001006383
0.0006231294
0.0006231296
0.0002596763
0.0001006428
0.0002596818
0.0001006394
0.0006231354
0.0006231361
0.0002596824
0.0001006452
0.0002596884
0.0001006395
0.0006231424
0.0006231446
0.0002596882
0.0001006484
0.000259695
0.0001006405
0.0002679809
0.0002679992
0.0001004627
0.0002621952
0.000262222
0.0001004627
0.0002620973
0.0002621233
0.0001004627
0.0002618187
0.0002618061
0.0001004626
0.000261777
0.000261764
0.0001004627
0.0002616359
0.000261739
0.0001004627
0.0002616724
0.0002616948
0.0001004627
0.0002616131
0.000261732
0.0001004627
0.0002616161
0.0002617289
0.0001004627
0.0002616198
0.0002617447
0.0001004627
0.0002616596
0.0002617172
0.0001004627
0.0002618319
0.0002617127
0.0001004627
0.0002618246
0.0002617997
0.0001004626
0.0002620311
0.0002621781
0.0001004626
0.0002620984
0.0002622766
0.0001004627
0.000268381
0.0002679921
0.0001004627
0.0002580945
0.0002564073
0.0001005518
0.0006511633
0.0005974221
0.0001006403
0.0001007279
0.0006437516
0.0006243613
0.0002604588
0.0001006328
0.0001006366
0.0006215122
0.0006227782
0.0002600059
0.0001006308
0.0001006361
0.0006233229
0.0006231145
0.0002683292
0.0001006304
0.0001006359
0.0006221032
0.0006189608
0.000260384
0.0001006282
0.0001006359
0.0006189543
0.0006220814
0.0002599983
0.0001006278
0.0001006355
0.0006230455
0.0006230721
0.0001006277
0.0006191201
0.000100628
0.0002637546
0.0001006286
0.0006250022
0.0006211918
0.0001006271
0.0002597248
0.0001006288
0.0006224731
0.0006231126
0.0001006271
0.0002597146
0.0001006288
0.0006231186
0.0006230867
0.0001006272
0.0002639143
0.0001006292
0.0006228088
0.0006209506
0.0001006268
0.0002598339
0.0001006307
0.0006203376
0.0006227247
0.0001006272
0.0002596091
0.0001006317
0.0006230467
0.0006230721
0.0001006272
0.0002597061
0.0001006315
0.0006230762
0.0006230583
0.0001006273
0.0002632542
0.000100632
0.000622752
0.0006204041
0.0001007159
0.0002649764
0.0001006319
0.0006177345
0.0006185852
0.0001006273
0.0002637686
0.0001006331
0.0006210738
0.0006203607
0.0001006288
0.0002597564
0.0001006347
0.0006221714
0.0006230316
0.0001006301
0.0002596506
0.0001006354
0.0006230999
0.0006231033
0.0001006319
0.0002600339
0.0001006345
0.0006231096
0.0006230447
0.0001006322
0.0002683992
0.0001006338
0.000622092
0.0006189735
0.0001006364
0.0002604565
0.0001006388
0.000618977
0.0006220991
0.0001006393
0.0002596862
0.0001006374
0.0006230593
0.0006231257
0.0001006404
0.0002596742
0.0001006379
0.0006231278
0.0006231303
0.0001006428
0.00025968
0.0001006393
0.0006231356
0.0006231355
0.0001006456
0.0002596858
0.0001006399
0.0006231405
0.0006231444
0.0001006474
0.0002596932
0.000100641
0.0006231555
0.0006231599
0.0001007457
0.0003217494
0.0001008405
0.0003075073
0.0001008383
0.0003059011
0.0001008263
0.0003043872
0.000100823
0.0003035548
0.0001008248
0.0003041543
0.0001008234
0.000303454
0.0001008246
0.0003041558
0.0001008244
0.0003034507
0.0001008237
0.0003041586
0.0001008252
0.0003034511
0.0001008236
0.0003041613
0.0001008258
0.0003034545
0.0001008224
0.0003041701
0.0001008269
0.000303466
0.0003041928
0.0001008272
0.0001008364
0.0003075084
0.0001008359
0.000305902
0.0001008232
0.0003043871
0.000100822
0.0003035548
0.0001008227
0.0003041546
0.0001008244
0.0003034542
0.0001008232
0.0003041566
0.0001008271
0.0003034514
0.0001008235