/*--------------------------------*- C++ -*----------------------------------*\
  =========                 |
  \\      /  F ield         | OpenFOAM: The Open Source CFD Toolbox
   \\    /   O peration     | Website:  https://openfoam.org
    \\  /    A nd           | Version:  7
     \\/     M anipulation  |
\*---------------------------------------------------------------------------*/
FoamFile
{
    version     2.0;
    format      ascii;
    class       surfaceScalarField;
    location    "0.1";
    object      phi;
}
// * * * * * * * * * * * * * * * * * * * * * * * * * * * * * * * * * * * * * //

dimensions      [0 3 -1 0 0 0 0];

internalField   nonuniform List<scalar> 
238548
(
1.506913e-05
-1.491457e-05
3.538413e-08
1.470524e-06
2.610442e-06
1.891393e-06
2.587156e-06
-1.511196e-06
-2.660281e-06
-1.968532e-06
-2.609458e-06
2.158248e-05
-1.417573e-05
-3.839912e-07
8.303392e-07
2.969411e-06
1.510513e-06
2.736111e-06
2.800735e-05
-1.299946e-05
-6.600208e-07
1.636072e-07
3.236213e-06
1.099713e-06
2.735067e-06
3.377525e-05
-1.169874e-05
-5.764839e-07
-4.159985e-07
3.445248e-06
7.002202e-07
2.777843e-06
3.867189e-05
-9.96807e-06
-6.057583e-07
-1.051512e-06
3.673989e-06
2.901523e-07
2.764533e-06
4.248697e-05
-7.89906e-06
-4.322605e-07
-1.556122e-06
3.615632e-06
-1.40791e-07
2.597482e-06
-5.35047e-06
-3.045718e-07
-2.174161e-06
3.563577e-06
-6.641483e-07
2.310438e-06
4.510627e-05
1.573577e-05
-2.209917e-05
4.440496e-07
-1.047547e-06
-3.222973e-06
-1.736941e-06
-2.98775e-06
2.219666e-05
-2.070878e-05
7.215826e-08
2.887779e-05
-1.922821e-05
-4.523658e-07
3.48019e-05
-1.722177e-05
-4.010836e-07
4.000436e-05
-1.475114e-05
-4.194158e-07
4.416791e-05
-1.174788e-05
-3.147855e-07
-8.097214e-06
-2.213369e-07
4.713596e-05
1.647873e-05
-3.007644e-05
8.498925e-07
-5.686938e-07
-3.909472e-06
-1.579861e-06
-3.293294e-06
2.352555e-05
-2.832911e-05
5.735147e-07
3.056893e-05
-2.629692e-05
2.535584e-08
3.702529e-05
-2.367503e-05
-3.096598e-09
4.276315e-05
-2.038804e-05
-1.009688e-07
4.749626e-05
-1.641279e-05
-6.821462e-08
-1.158506e-05
-6.549815e-08
5.104955e-05
1.765151e-05
-3.868592e-05
7.361067e-07
-1.499406e-07
-4.483537e-06
-1.419523e-06
-3.725116e-06
2.527541e-05
-3.658559e-05
6.325902e-07
3.294715e-05
-3.403196e-05
6.330828e-08
4.004624e-05
-3.081378e-05
3.966758e-08
4.650528e-05
-2.678468e-05
-6.240068e-08
5.201813e-05
-2.188329e-05
-4.238009e-08
-1.589027e-05
-5.020861e-08
5.637355e-05
1.913861e-05
-4.807768e-05
8.608506e-07
2.351946e-07
-5.257388e-06
-1.329877e-06
-4.255611e-06
2.748734e-05
-4.575415e-05
8.198501e-07
3.594579e-05
-4.26609e-05
1.705099e-07
4.393193e-05
-3.893687e-05
1.369741e-07
5.135077e-05
-3.421037e-05
6.85721e-09
5.791067e-05
-2.845553e-05
1.236305e-08
-2.134025e-05
-1.665346e-08
6.337724e-05
2.095501e-05
-5.831969e-05
9.291533e-07
6.581471e-07
-6.094381e-06
-1.29754e-06
-4.908329e-06
3.013852e-05
-5.581227e-05
8.746597e-07
3.952797e-05
-5.224338e-05
1.930591e-07
4.854457e-05
-4.811306e-05
1.596153e-07
5.712322e-05
-4.280795e-05
1.895309e-08
6.498533e-05
-3.634118e-05
2.353633e-08
-2.822523e-05
-1.428259e-08
7.188459e-05
2.302565e-05
-6.965408e-05
1.284208e-06
1.025335e-06
-7.122081e-06
-1.271665e-06
-5.606998e-06
3.303904e-05
-6.677486e-05
9.492554e-07
4.351354e-05
-6.297436e-05
2.565496e-07
5.371734e-05
-5.851462e-05
1.978104e-07
6.367246e-05
-5.280611e-05
4.308302e-08
7.309969e-05
-4.580814e-05
3.977217e-08
-3.691323e-05
-7.792727e-09
8.179546e-05
2.521276e-05
-8.186889e-05
1.431287e-06
1.526831e-06
-8.198833e-06
-1.267939e-06
-6.489197e-06
3.621029e-05
-7.875522e-05
9.828883e-07
4.781724e-05
-7.486662e-05
2.853722e-07
5.932929e-05
-7.024397e-05
2.173438e-07
7.082761e-05
-6.435909e-05
5.469867e-08
8.207945e-05
-5.711066e-05
5.069158e-08
-4.778629e-05
-1.88751e-09
9.29544e-05
2.72316e-05
-9.519299e-05
1.612807e-06
2.055563e-06
-9.24867e-06
-1.108848e-06
-7.218274e-06
3.932349e-05
-9.191518e-05
1.06816e-06
5.215863e-05
-8.80253e-05
3.236127e-07
6.507191e-05
-8.339873e-05
2.415397e-07
7.823222e-05
-7.758342e-05
6.407884e-08
9.144923e-05
-7.037968e-05
5.20526e-08
-6.110325e-05
-1.918923e-08
0.0001047854
2.928378e-05
-0.0001096133
1.74412e-06
2.695533e-06
-1.035104e-05
-9.408562e-07
-8.011103e-06
4.240617e-05
-0.0001061605
1.122998e-06
5.646218e-05
-0.0001024279
3.466302e-07
7.077666e-05
-9.797292e-05
2.597705e-07
8.563766e-05
-9.251953e-05
7.515861e-08
0.0001009381
-8.574549e-05
6.534448e-08
-7.711e-05
1.060814e-08
0.0001169343
3.116197e-05
-0.0001250785
1.893648e-06
3.443205e-06
-1.155017e-05
-7.047917e-07
-8.778598e-06
4.523857e-05
-0.0001214547
1.217665e-06
6.044689e-05
-0.0001180069
3.707501e-07
7.608038e-05
-0.0001138825
2.761459e-07
9.253259e-05
-0.0001090467
7.497678e-08
0.0001097791
-0.0001030466
5.462333e-08
-9.556324e-05
-2.892364e-08
0.0001282613
3.285474e-05
-0.0001414481
1.924926e-06
4.284701e-06
-1.278069e-05
-3.740292e-07
-9.539985e-06
4.773164e-05
-0.0001376622
1.330636e-06
6.394848e-05
-0.0001346071
3.834287e-07
8.074274e-05
-0.0001309681
2.914001e-07
9.856964e-05
-0.000126954
8.055827e-08
0.0001175109
-0.0001220453
5.739435e-08
-0.0001160666
-5.219017e-09
0.0001380195
3.430615e-05
-0.00015849
1.781147e-06
5.236873e-06
-1.40305e-05
2.091049e-08
-1.027262e-05
4.981876e-05
-0.0001545793
1.404656e-06
6.683895e-05
-0.0001520031
3.759032e-07
8.455016e-05
-0.000148979
2.997527e-07
0.0001034533
-0.0001459346
7.745661e-08
0.0001236931
-0.0001423344
4.941013e-08
-0.0001381083
-2.516317e-08
0.0001457599
3.499325e-05
-0.0001758193
1.763806e-06
6.379347e-06
-1.547425e-05
5.565153e-07
-1.08893e-05
5.131528e-05
-0.0001724103
1.508986e-06
6.888366e-05
-0.0001699658
3.944491e-07
8.729491e-05
-0.0001677002
3.100371e-07
0.0001069446
-0.0001656622
7.797489e-08
0.0001280664
-0.0001635017
4.561022e-08
-0.0001611607
-2.077343e-08
0.0001511395
3.567305e-05
-0.0001936086
1.567711e-06
7.29967e-06
-1.635328e-05
1.023015e-06
-1.142078e-05
5.230429e-05
-0.0001905114
1.470016e-06
7.020962e-05
-0.0001882419
3.70819e-07
8.895018e-05
-0.0001867476
3.069526e-07
0.0001089634
-0.0001857493
7.391827e-08
0.0001304799
-0.0001850598
4.175177e-08
-0.0001846439
-2.565848e-08
0.0001539888
3.646531e-05
-0.0002117605
2.329905e-06
8.09429e-06
-1.77979e-05
1.33938e-06
-1.227889e-05
5.271359e-05
-0.0002082535
1.493919e-06
7.072406e-05
-0.0002066827
4.304972e-07
8.944311e-05
-0.0002057798
3.132505e-07
0.000109471
-0.000205851
7.39229e-08
0.0001309305
-0.0002065539
3.463013e-08
-0.0002080242
-3.043028e-08
0.0001543412
3.641458e-05
-0.000229494
2.058257e-06
9.596127e-06
-1.922988e-05
2.039321e-06
-1.314484e-05
5.260497e-05
-0.0002259177
1.474012e-06
7.037788e-05
-0.0002248645
4.089523e-07
8.883042e-05
-0.0002245415
3.09318e-07
0.0001084744
-0.0002255681
7.315051e-08
0.0001294046
-0.0002275198
3.588621e-08
-0.0002307286
-2.944536e-08
0.0001521386
3.58203e-05
-0.0002468483
2.074893e-06
1.052617e-05
-1.993442e-05
2.410592e-06
-1.354303e-05
5.188017e-05
-0.0002433691
1.391595e-06
6.927424e-05
-0.0002426534
3.949033e-07
8.724479e-05
-0.0002427923
2.802859e-07
0.0001062059
-0.0002445834
5.426848e-08
0.0001261765
-0.000247499
8.692015e-09
-0.0002521901
-4.504353e-08
0.000147683
3.497266e-05
-0.0002638775
1.96237e-06
1.195425e-05
-2.111574e-05
3.401038e-06
-1.414525e-05
5.064082e-05
-0.0002603997
1.362565e-06
6.750396e-05
-0.000259908
3.916095e-07
8.474086e-05
-0.0002603209
2.918033e-07
0.0001026968
-0.0002626091
6.984611e-08
0.0001212824
-0.0002661276
4.300598e-08
-0.0002718132
-2.827265e-08
0.000140934
3.385195e-05
-0.0002804097
1.844198e-06
1.296453e-05
-2.176777e-05
3.898527e-06
-1.425914e-05
4.914404e-05
-0.0002769176
1.225879e-06
6.544852e-05
-0.000276544
3.315672e-07
8.191661e-05
-0.0002769925
2.036095e-07
9.876211e-05
-0.000279472
1.750009e-08
0.0001155791
-0.0002828742
-7.031388e-08
-0.0002889826
-6.811205e-08
0.0001328166
3.266552e-05
-0.0002963931
1.782778e-06
1.432783e-05
-2.267486e-05
4.684496e-06
-1.480238e-05
4.730366e-05
-0.0002927367
1.18099e-06
6.29622e-05
-0.0002925713
3.687982e-07
7.85508e-05
-0.0002928949
3.138932e-07
9.410595e-05
-0.0002951264
9.938595e-08
0.0001090457
-0.0002979969
1.830921e-07
-0.0003030192
9.532372e-09
0.000123073
3.114163e-05
-0.0003120714
1.362322e-06
1.547574e-05
-2.328988e-05
5.407468e-06
-1.44189e-05
4.555312e-05
-0.0003082317
1.083585e-06
6.094314e-05
-0.0003082117
2.504316e-07
7.618118e-05
-0.0003081702
3.74081e-08
9.104021e-05
-0.0003099661
-1.917393e-08
0.0001038858
-0.0003104407
-4.016125e-07
-0.0003137057
-3.064065e-08
0.0001146029
2.921839e-05
1.227127e-06
1.696424e-05
-2.431272e-05
6.722846e-06
-1.503137e-05
-0.0003268599
4.334419e-05
1.295199e-06
-0.0003236527
5.84006e-05
4.23894e-07
-0.0003236919
7.33952e-05
6.466947e-07
-0.0003238114
8.788516e-05
3.303954e-07
-0.0003247863
0.0001003863
1.288431e-06
-0.0003242301
3.250916e-07
-0.0003201074
0.0001064631
-6.424797e-08
-4.12668e-07
2.954287e-06
-8.096239e-07
8.50367e-09
5.879069e-08
-6.677717e-08
-8.050709e-08
-5.755463e-07
-4.322658e-07
-5.799485e-07
-2.803245e-07
-3.809931e-06
4.680011e-06
-5.881053e-07
2.997212e-07
5.927834e-08
-1.454469e-07
-2.152082e-07
-3.813889e-07
-6.118644e-06
7.307502e-06
-6.004751e-07
8.477387e-09
1.52163e-07
-1.676657e-07
-1.999756e-07
-4.77659e-07
-8.21935e-06
8.83451e-06
-5.751031e-07
6.681751e-07
2.170901e-07
-2.114568e-07
-2.36216e-07
-5.903109e-07
-9.603176e-06
1.028638e-05
2.651771e-08
2.371007e-07
2.430173e-07
-3.18709e-07
-2.808337e-07
-6.707199e-07
-1.12846e-05
1.209978e-05
-5.1001e-07
8.125895e-07
2.871306e-07
-4.185311e-07
-3.156671e-07
-7.478441e-07
-1.27988e-05
1.341493e-05
3.131662e-07
3.827683e-07
2.213905e-07
-3.852978e-07
-4.00335e-07
-7.58134e-07
-1.384893e-05
1.112577e-07
1.031247e-06
-4.585422e-07
2.956832e-07
-3.85924e-07
1.401334e-05
6.673297e-08
4.084177e-07
8.834305e-07
-3.019776e-06
1.421382e-08
6.933012e-08
-5.91581e-08
8.327276e-08
5.685046e-07
4.255421e-07
5.594839e-07
1.698183e-05
-1.695637e-05
-5.157235e-09
2.016322e-06
2.244715e-06
2.042866e-06
2.56963e-06
-2.106997e-06
-2.258614e-06
-2.094586e-06
-2.398239e-06
2.457821e-05
-1.596992e-05
-3.724496e-07
1.736409e-06
2.633143e-06
1.816968e-06
2.175488e-06
3.163778e-05
-1.473432e-05
-7.030804e-07
1.489922e-06
2.535744e-06
1.45223e-06
2.239928e-06
3.815997e-05
-1.321587e-05
-5.595561e-07
1.340702e-06
2.026396e-06
1.642631e-06
1.66702e-06
4.371343e-05
-1.133516e-05
-6.462121e-07
6.053648e-07
2.436847e-06
9.728974e-07
1.80702e-06
4.799604e-05
-9.060117e-06
-5.549717e-07
9.668278e-07
1.713625e-06
1.228417e-06
9.91311e-07
-6.145481e-06
-3.950288e-07
-1.129669e-07
1.889534e-06
3.915917e-07
1.142844e-06
5.092096e-05
2.756713e-07
3.860542e-06
6.221999e-07
-4.733828e-06
-3.430496e-07
1.370357e-07
-3.477211e-08
2.161967e-07
1.775067e-05
-2.545425e-05
5.744647e-07
-1.937074e-06
-2.740925e-06
-2.038697e-06
-2.666497e-06
2.593109e-05
-2.418174e-05
1.035951e-07
3.362858e-05
-2.25597e-05
-3.244597e-07
4.057662e-05
-2.015613e-05
-4.088595e-07
4.658243e-05
-1.726847e-05
-4.919225e-07
5.140179e-05
-1.379097e-05
-4.033089e-07
-9.504778e-06
-2.851913e-07
5.482489e-05
3.857919e-07
6.242135e-06
6.788507e-07
-7.450011e-06
-5.907009e-08
1.748221e-07
-1.711159e-07
1.985981e-07
1.877647e-05
-3.449047e-05
9.863172e-07
-1.962299e-06
-3.286775e-06
-1.857139e-06
-2.770428e-06
2.757254e-05
-3.29704e-05
5.661334e-07
3.563222e-05
-3.070912e-05
1.151094e-07
4.316968e-05
-2.759126e-05
-1.054166e-07
4.981182e-05
-2.37716e-05
-2.399723e-07
5.532677e-05
-1.913625e-05
-2.379219e-07
-1.351137e-05
-1.874403e-07
5.945532e-05
5.706013e-07
9.053372e-06
8.520734e-07
-1.028617e-05
-5.24231e-07
2.802165e-07
-2.0356e-07
2.577044e-07
2.024907e-05
-4.4135e-05
1.183056e-06
-2.067291e-06
-3.639193e-06
-2.256677e-06
-3.088299e-06
2.974345e-05
-4.256447e-05
7.323196e-07
3.844577e-05
-3.973509e-05
3.86988e-07
4.672905e-05
-3.592614e-05
9.129414e-08
5.418938e-05
-3.122329e-05
-7.102857e-08
6.062097e-05
-2.550145e-05
-1.087372e-07
-1.852046e-05
-1.106855e-07
6.569047e-05
7.318292e-07
1.189163e-05
8.716451e-07
-1.337804e-05
-5.996739e-07
3.656449e-07
-2.388584e-07
3.558266e-07
2.175845e-05
-5.443854e-05
1.412615e-06
-2.108283e-06
-3.999991e-06
-2.387622e-06
-3.510731e-06
3.232614e-05
-5.326216e-05
9.498794e-07
4.189574e-05
-4.972367e-05
5.895361e-07
5.121052e-05
-4.535651e-05
2.526053e-07
5.97748e-05
-3.983288e-05
5.220615e-08
6.742665e-05
-3.311723e-05
-2.372932e-08
-2.483942e-05
-6.061409e-08
7.378961e-05
8.765266e-07
1.472406e-05
1.114705e-06
-1.610979e-05
-1.265532e-06
5.675221e-07
-2.985413e-07
3.910601e-07
2.38451e-05
-6.576747e-05
1.530965e-06
-2.371282e-06
-4.225742e-06
-3.00651e-06
-3.514388e-06
3.54445e-05
-6.506159e-05
1.074762e-06
4.605866e-05
-6.085331e-05
7.086115e-07
5.655935e-05
-5.604515e-05
3.476216e-07
6.64546e-05
-4.982778e-05
1.186456e-07
7.562056e-05
-4.22825e-05
2.289746e-08
-3.28406e-05
-4.338948e-08
8.36508e-05
1.01635e-06
1.791404e-05
9.452494e-07
-1.936762e-05
-1.11625e-06
6.494315e-07
-4.411801e-07
4.00001e-07
2.637221e-05
-7.869746e-05
1.420606e-06
-2.477716e-06
-4.658046e-06
-3.026803e-06
-3.415939e-06
3.871659e-05
-7.78072e-05
1.350568e-06
5.068945e-05
-7.334824e-05
7.786897e-07
6.253991e-05
-6.814726e-05
4.495304e-07
7.403451e-05
-6.144931e-05
1.700641e-07
8.501287e-05
-5.328145e-05
6.037377e-08
-4.293307e-05
-2.756489e-08
9.512514e-05
1.308341e-06
2.123999e-05
4.431934e-07
-2.334107e-05
-6.373604e-07
8.650199e-07
-4.159912e-07
5.379117e-07
2.912605e-05
-9.261276e-05
1.592106e-06
-2.160252e-06
-5.817277e-06
-2.779601e-06
-4.614366e-06
4.245268e-05
-9.169186e-05
1.541025e-06
5.572224e-05
-8.719744e-05
8.65106e-07
6.905924e-05
-8.179455e-05
5.27715e-07
8.233715e-05
-7.488191e-05
2.09457e-07
9.54352e-05
-6.642111e-05
9.235782e-08
-5.556824e-05
-1.41754e-08
0.0001080827
1.474455e-06
2.580302e-05
4.787885e-07
-2.779962e-05
-9.236921e-07
9.578405e-07
-5.550285e-07
5.64258e-07
3.135196e-05
-0.0001077224
1.584154e-06
-2.067065e-06
-6.283942e-06
-3.095945e-06
-4.766615e-06
4.602026e-05
-0.0001069711
1.679157e-06
6.075589e-05
-0.0001025281
9.1876e-07
7.571301e-05
-9.710029e-05
5.902322e-07
9.09176e-05
-9.025799e-05
2.356375e-07
0.000106286
-8.18406e-05
1.03178e-07
-7.103856e-05
-3.93907e-08
0.0001217765
1.723457e-06
3.025059e-05
2.545742e-07
-3.234273e-05
-1.045125e-06
1.123164e-06
-6.323942e-07
6.684954e-07
3.38427e-05
-0.000124153
1.626943e-06
-1.952938e-06
-6.926439e-06
-3.152441e-06
-5.262985e-06
4.962622e-05
-0.0001234571
1.825647e-06
6.577837e-05
-0.0001193104
9.768099e-07
8.234403e-05
-0.0001140535
6.474189e-07
9.952091e-05
-0.0001076274
2.677332e-07
0.0001173172
-9.970208e-05
1.305997e-07
-8.965186e-05
5.917759e-09
0.0001359352
1.968624e-06
3.487191e-05
9.010596e-08
-3.685535e-05
-1.413434e-06
1.305785e-06
-7.329058e-07
7.652881e-07
3.587653e-05
-0.0001419594
1.636843e-06
-1.798689e-06
-7.419502e-06
-3.203546e-06
-5.39144e-06
5.288838e-05
-0.0001411685
1.917304e-06
7.039721e-05
-0.0001374803
1.031923e-06
8.849494e-05
-0.0001325627
6.877426e-07
0.0001075103
-0.0001268454
2.777367e-07
0.0001275476
-0.0001198043
1.196169e-07
-0.0001110916
-7.023311e-08
0.0001490286
2.190441e-06
3.928406e-05
-2.378904e-07
-4.110641e-05
-1.543318e-06
1.462699e-06
-8.891695e-07
8.396018e-07
3.754077e-05
-0.0001607437
1.763611e-06
-1.554237e-06
-7.934459e-06
-3.095177e-06
-6.011297e-06
5.579889e-05
-0.000160006
1.910079e-06
7.444569e-05
-0.0001568305
1.086916e-06
9.391589e-05
-0.0001524465
7.050421e-07
0.0001145227
-0.0001476693
2.977406e-07
0.0001365341
-0.000141883
1.247751e-07
-0.0001349174
-3.060845e-08
0.0001603853
2.458205e-06
4.386206e-05
-6.005816e-07
-4.593963e-05
-1.279683e-06
1.59971e-06
-1.027055e-06
9.269761e-07
3.922453e-05
-0.000180051
1.991247e-06
-1.42667e-06
-9.396379e-06
-3.029722e-06
-6.274351e-06
5.837046e-05
-0.0001797027
1.955548e-06
7.782324e-05
-0.0001770729
1.165705e-06
9.835566e-05
-0.0001734052
7.261868e-07
0.0001201887
-0.0001697367
3.11834e-07
0.0001436946
-0.0001654584
1.189888e-07
-0.0001605228
-5.775655e-08
0.0001693326
2.676905e-06
4.898703e-05
-4.313268e-07
-5.064211e-05
-2.255624e-06
1.706008e-06
-1.13888e-06
1.098011e-06
3.959466e-05
-0.0001990368
2.296208e-06
-1.241983e-06
-9.707636e-06
-3.233657e-06
-6.957911e-06
6.012153e-05
-0.000200563
1.842548e-06
8.015631e-05
-0.0001979345
1.221331e-06
0.0001015456
-0.0001951997
7.153542e-07
0.0001242409
-0.0001926715
3.175916e-07
0.0001487762
-0.0001900585
1.104855e-07
-0.0001873055
-4.942129e-08
0.0001755877
3.081118e-06
5.377983e-05
1.84748e-06
-5.688084e-05
-3.908195e-06
1.975857e-06
-1.21365e-06
1.318452e-06
4.076631e-05
-0.0002184612
2.522474e-06
-3.314019e-06
-8.614369e-06
-5.141936e-06
-5.226138e-06
6.146984e-05
-0.0002216888
1.892352e-06
8.17529e-05
-0.0002191334
1.286784e-06
0.0001034966
-0.0002173703
7.339811e-07
0.0001265909
-0.0002160215
3.296695e-07
0.0001515768
-0.0002151123
1.097909e-07
-0.0002145911
-4.908196e-08
0.0001788857
3.242224e-06
6.030356e-05
4.146944e-07
-6.309656e-05
-2.71843e-06
1.918879e-06
-1.441197e-06
1.376888e-06
4.15776e-05
-0.0002398815
1.897002e-06
-2.250192e-06
-8.16017e-06
-3.698833e-06
-5.615158e-06
6.153261e-05
-0.0002423007
2.151004e-06
8.230828e-05
-0.0002406884
1.209941e-06
0.0001040242
-0.0002395281
7.552718e-07
0.0001271718
-0.0002394076
3.125869e-07
0.000152097
-0.0002401013
9.851118e-08
-0.0002417645
-5.607064e-08
0.0001792963
3.503359e-06
6.458622e-05
-2.253645e-06
-6.566406e-05
-2.195545e-06
1.912796e-06
-1.448679e-06
1.559612e-06
4.180986e-05
-0.000260139
2.479361e-06
-9.428746e-08
-1.147045e-05
-2.858509e-06
-7.549957e-06
6.165567e-05
-0.000262822
2.149581e-06
8.19614e-05
-0.0002618762
1.291194e-06
0.00010334
-0.0002613636
7.663728e-07
0.0001260226
-0.0002623434
3.2638e-07
0.0001503256
-0.0002644708
1.025893e-07
-0.0002681572
-4.762471e-08
0.0001767363
3.827203e-06
7.051721e-05
9.327678e-07
-7.422364e-05
-3.934738e-06
1.952041e-06
-1.369774e-06
2.299011e-06
4.132376e-05
-0.000279671
2.524789e-06
-2.573861e-06
-9.104038e-06
-4.694701e-06
-5.868966e-06
6.087708e-05
-0.0002830745
2.091005e-06
8.06969e-05
-0.0002825818
1.2808e-06
0.0001015053
-0.0002826159
7.242882e-07
0.0001233858
-0.0002844752
3.056509e-07
0.0001465788
-0.0002877299
7.480029e-08
-0.0002931302
-5.723278e-08
0.0001715642
4.133286e-06
7.626493e-05
-2.560983e-06
-7.740939e-05
-3.20567e-06
1.749e-06
-1.506034e-06
2.534914e-06
4.0236e-05
-0.0002988799
2.577534e-06
6.091073e-07
-1.212714e-05
-2.390681e-06
-7.733353e-06
5.944439e-05
-0.0003029244
2.004139e-06
7.863946e-05
-0.0003026758
1.290636e-06
9.86021e-05
-0.0003030197
7.33022e-07
0.0001193168
-0.0003054534
3.335553e-07
0.0001408845
-0.0003093697
1.152511e-07
-0.0003159703
-2.358282e-08
0.0001637197
4.460729e-06
8.229846e-05
2.79276e-07
-8.553444e-05
-4.756589e-06
2.017359e-06
-1.560414e-06
2.795677e-06
3.917855e-05
-0.0003176961
2.57514e-06
-1.458974e-06
-9.733128e-06
-4.281267e-06
-5.619978e-06
5.776184e-05
-0.0003221095
1.827844e-06
7.624853e-05
-0.0003220787
1.247911e-06
9.5297e-05
-0.0003224997
6.35346e-07
0.0001147091
-0.0003251521
3.041932e-07
0.0001342765
-0.0003290555
4.815399e-08
-0.0003360757
1.243285e-09
0.000154313
4.838038e-06
8.777464e-05
-3.042213e-06
-8.917727e-05
-3.734401e-06
2.154405e-06
-1.625266e-06
2.812087e-06
3.819573e-05
-0.0003359518
2.568003e-06
1.518353e-06
-1.28979e-05
-1.91688e-06
-7.428654e-06
5.569333e-05
-0.0003402922
1.866086e-06
7.343165e-05
-0.0003407598
1.311679e-06
9.144932e-05
-0.0003409745
7.711278e-07
0.0001093694
-0.0003434206
4.480234e-07
0.0001266184
-0.0003464351
3.138715e-07
-0.0003525581
1.520679e-07
0.0001429581
5.222304e-06
9.458496e-05
-8.158437e-07
-9.791831e-05
-4.598877e-06
2.606169e-06
-1.683607e-06
2.603225e-06
3.583364e-05
-0.0003537528
2.448838e-06
3.092288e-07
-1.057984e-05
-2.279571e-06
-6.568955e-06
5.35565e-05
-0.0003584446
1.513116e-06
7.08731e-05
-0.0003590846
1.258761e-06
8.844613e-05
-0.0003590975
5.875329e-07
0.000105527
-0.0003610476
5.271283e-07
0.0001207293
-0.0003621995
1.605778e-07
-0.0003656125
5.281256e-07
0.0001332253
1.278426e-05
-3.684676e-06
-9.296336e-06
1.274891e-06
0.0001118645
-0.0001129425
3.301384e-05
2.70578e-06
-0.0003701193
-7.280388e-06
3.039039e-06
-1.100294e-06
5.115407e-05
1.486556e-06
-0.0003767761
6.811413e-05
1.5486e-06
-0.0003771694
8.56859e-05
1.219602e-06
-0.000377242
0.0001023244
1.116583e-06
-0.0003784721
0.000116067
1.622588e-06
-0.0003762759
1.165928e-06
-0.0003736733
0.0001232867
-3.952743e-07
1.512856e-07
2.57113e-06
-7.062634e-07
-1.316684e-07
-4.954113e-07
-4.24117e-07
-5.696839e-07
2.104788e-05
-7.013791e-06
1.611508e-08
-3.725535e-07
1.129669e-06
-1.199319e-07
9.069482e-08
-3.188755e-06
-4.168399e-06
-3.278967e-06
-4.141962e-06
2.635112e-05
-5.861653e-06
-6.198779e-07
-4.685671e-07
1.260828e-06
-1.089696e-08
3.96929e-07
3.176832e-05
-5.979515e-06
-1.116536e-07
-1.4272e-06
1.816668e-06
-2.403297e-07
5.248095e-07
3.615603e-05
-4.938931e-06
-3.602047e-07
-1.098362e-06
1.718251e-06
2.676679e-07
2.383176e-08
3.970666e-05
-3.981214e-06
-2.688176e-07
-1.967731e-06
2.380915e-06
-2.899086e-07
5.760832e-07
-2.669819e-06
-1.897198e-07
-1.630858e-06
1.946118e-06
1.502309e-07
9.530083e-08
4.200537e-05
3.940028e-07
-1.842787e-07
7.548898e-07
-2.584245e-06
1.324953e-07
4.971947e-07
4.22804e-07
5.671279e-07
1.586664e-05
-1.559759e-05
1.026939e-08
1.774051e-06
2.07022e-06
1.761174e-06
2.115732e-06
-1.870669e-06
-2.131126e-06
-1.822693e-06
-2.181162e-06
2.398409e-05
-1.520866e-05
-2.950098e-07
3.151887e-05
-1.364201e-05
-4.574956e-07
3.800099e-05
-1.264534e-05
-3.758489e-07
4.35513e-05
-1.071228e-05
-4.231785e-07
4.790536e-05
-8.519227e-06
-3.710277e-07
-5.791615e-06
-2.548201e-07
5.088692e-05
7.851379e-06
-2.20335e-05
3.189109e-08
3.410757e-07
3.35439e-07
-1.213339e-06
-2.360706e-07
3.208025e-06
4.22424e-06
3.293053e-06
4.197788e-06
1.685758e-05
-2.445145e-05
4.221448e-07
2.521041e-05
-2.35197e-05
6.183816e-08
3.332764e-05
-2.190832e-05
-1.753705e-07
4.037263e-05
-1.981618e-05
-2.829946e-07
4.647779e-05
-1.694748e-05
-3.618816e-07
5.137216e-05
-1.351587e-05
-3.010656e-07
-9.322026e-06
-2.148118e-07
5.483221e-05
7.9088e-06
-2.91565e-05
8.061053e-07
4.881478e-07
-2.338632e-07
-1.494149e-06
-3.52041e-07
1.752856e-05
-3.375192e-05
6.670301e-07
2.690281e-05
-3.269709e-05
3.692943e-07
3.550293e-05
-3.049893e-05
1.056332e-07
4.327619e-05
-2.756897e-05
-1.258492e-07
5.00839e-05
-2.373764e-05
-2.575075e-07
5.569958e-05
-1.911497e-05
-2.544563e-07
-1.349729e-05
-1.953346e-07
5.988267e-05
9.073987e-06
-3.777142e-05
4.139198e-07
1.367692e-06
1.659487e-07
-1.879454e-06
-5.272004e-07
1.91981e-05
-4.349229e-05
7.993435e-07
2.911529e-05
-4.239871e-05
5.167924e-07
3.838811e-05
-3.977202e-05
3.873079e-07
4.691839e-05
-3.60977e-05
8.97916e-08
5.458508e-05
-3.138395e-05
-9.135555e-08
6.113316e-05
-2.563347e-05
-1.383289e-07
-1.861333e-05
-1.299652e-07
6.626855e-05
9.668238e-06
-4.709747e-05
5.183639e-07
1.771784e-06
1.838692e-07
-2.181366e-06
-6.348298e-07
2.077465e-05
-5.416264e-05
9.765915e-07
3.167761e-05
-5.305948e-05
7.077363e-07
4.18778e-05
-4.998504e-05
6.024377e-07
5.145881e-05
-4.569857e-05
2.725475e-07
6.025266e-05
-4.016795e-05
4.240349e-08
6.804018e-05
-3.339555e-05
-4.909592e-08
-2.504559e-05
-8.208035e-08
7.449388e-05
1.085605e-05
-5.726918e-05
4.999676e-07
2.606753e-06
2.778531e-07
-3.187678e-06
-8.812086e-07
2.291929e-05
-6.578243e-05
1.08759e-06
3.479941e-05
-6.471373e-05
8.490017e-07
4.607389e-05
-6.129434e-05
7.435127e-07
5.685033e-05
-5.651898e-05
3.916726e-07
6.699611e-05
-5.031722e-05
1.222221e-07
7.631475e-05
-4.269324e-05
1.965166e-09
-3.315767e-05
-6.561883e-08
8.444914e-05
1.202443e-05
-6.801448e-05
6.84168e-07
2.88491e-06
2.135048e-07
-3.979231e-06
-1.082423e-06
2.513918e-05
-7.848772e-05
1.011208e-06
3.816741e-05
-7.74721e-05
1.080812e-06
5.069788e-05
-7.389499e-05
8.489911e-07
6.288623e-05
-6.876374e-05
5.060561e-07
7.463856e-05
-6.208743e-05
1.880347e-07
8.579379e-05
-5.383175e-05
4.374567e-08
-4.338634e-05
-5.417893e-08
9.604911e-05
1.339948e-05
-7.950612e-05
1.03582e-06
2.491495e-06
2.238776e-07
-4.505989e-06
-1.153019e-06
2.76213e-05
-9.226413e-05
1.146797e-06
4.183641e-05
-9.141755e-05
1.271473e-06
5.571157e-05
-8.785981e-05
9.548789e-07
6.944225e-05
-8.256664e-05
6.000286e-07
8.30001e-05
-7.567721e-05
2.414926e-07
9.63054e-05
-6.712618e-05
8.156851e-08
-5.617167e-05
-4.035091e-08
0.0001091169
1.435355e-05
-9.218354e-05
1.071196e-06
3.197494e-06
5.38271e-07
-5.270567e-06
-1.212452e-06
2.983912e-05
-0.000107276
1.110548e-06
4.543918e-05
-0.0001067122
1.373818e-06
6.076508e-05
-0.000103294
1.027189e-06
7.614435e-05
-9.803152e-05
6.759758e-07
9.163595e-05
-9.121567e-05
2.826183e-07
0.0001072233
-8.271053e-05
1.002544e-07
-7.180344e-05
-6.316808e-08
0.000122879
1.54304e-05
-0.0001058965
1.182751e-06
3.678807e-06
7.567011e-07
-5.970934e-06
-1.364753e-06
3.211894e-05
-0.0001234635
1.125952e-06
4.902368e-05
-0.0001232838
1.49271e-06
6.578093e-05
-0.0001201721
1.097815e-06
8.281883e-05
-0.0001151663
7.443904e-07
0.0001003096
-0.0001087655
3.26896e-07
0.0001183558
-0.0001007637
1.376928e-07
-9.062541e-05
-1.414544e-08
0.0001371978
1.62891e-05
-0.0001205586
9.8096e-07
4.493108e-06
1.017935e-06
-6.690958e-06
-1.427953e-06
3.415428e-05
-0.0001408082
1.116463e-06
5.230166e-05
-0.0001410754
1.561539e-06
7.041434e-05
-0.0001384143
1.161551e-06
8.900342e-05
-0.000133862
7.945363e-07
0.0001083339
-0.0001281678
3.496922e-07
0.0001286206
-0.000121065
1.342263e-07
-0.0001122339
-7.741868e-08
0.0001502365
1.710744e-05
-0.0001356518
5.180373e-07
5.104833e-06
1.285955e-06
-7.267659e-06
-1.655432e-06
3.60004e-05
-0.0001591176
1.180103e-06
5.518638e-05
-0.0001598986
1.547497e-06
7.449814e-05
-0.0001578501
1.21103e-06
9.445813e-05
-0.0001539339
8.170995e-07
0.0001154135
-0.0001491976
3.722667e-07
0.0001376905
-0.0001433613
1.442932e-07
-0.0001362821
-4.107791e-08
0.0001617491
1.792959e-05
-0.0001513609
8.016499e-07
5.357754e-06
4.584914e-08
-7.323148e-06
-1.102478e-06
3.75534e-05
-0.0001781619
1.411801e-06
5.760431e-05
-0.0001795809
1.587057e-06
7.785529e-05
-0.0001782266
1.291374e-06
9.889951e-05
-0.0001750964
8.446045e-07
0.0001211157
-0.0001714901
3.883448e-07
0.0001449105
-0.0001671755
1.383616e-07
-0.0001621281
-6.539187e-08
0.0001707644
1.742345e-05
-0.0001690752
7.769618e-07
6.801464e-06
9.57244e-07
-7.664254e-06
-5.805761e-07
3.807688e-05
-0.000197983
1.464027e-06
5.919795e-05
-0.0002002299
1.370611e-06
8.022275e-05
-0.000199333
1.303069e-06
0.0001020995
-0.0001970824
8.246896e-07
0.0001252112
-0.0001946691
3.851557e-07
0.0001500422
-0.0001920195
1.236472e-07
-0.0001891712
-6.317855e-08
0.000177099
1.822688e-05
-0.0001864229
8.77045e-07
9.039107e-06
1.588488e-06
-1.041025e-05
-1.973441e-06
3.912455e-05
-0.0002180741
1.716014e-06
6.040639e-05
-0.0002210962
1.47696e-06
8.178645e-05
-0.0002207934
1.367319e-06
0.0001040371
-0.000219447
8.482216e-07
0.0001275774
-0.0002182717
3.920611e-07
0.0001528808
-0.0002173316
1.185009e-07
-0.000216728
-6.785335e-08
0.0001804566
1.886359e-05
-0.000202802
5.965021e-07
8.801459e-06
1.280833e-06
-1.069202e-05
-2.471159e-06
3.968097e-05
-0.000238218
1.223677e-06
6.08805e-05
-0.0002418119
1.667319e-06
8.233518e-05
-0.0002423527
1.314766e-06
0.000104617
-0.0002418233
8.498603e-07
0.0001281722
-0.0002418821
3.679189e-07
0.0001534177
-0.0002425728
9.440194e-08
-0.0002441685
-8.554615e-08
0.0001808875
1.872112e-05
-0.0002193923
1.320318e-06
8.180087e-06
-5.191229e-07
-1.03887e-05
-7.232576e-07
3.95418e-05
-0.0002581828
1.623542e-06
6.065831e-05
-0.000262444
1.66525e-06
8.190838e-05
-0.000263675
1.363598e-06
0.000103883
-0.0002638865
8.55092e-07
0.0001270029
-0.0002650492
3.738326e-07
0.0001516354
-0.0002671963
9.354044e-08
-0.0002708199
-8.280911e-08
0.0001783224
1.836346e-05
-0.0002361351
1.396539e-06
1.091919e-05
1.785224e-06
-1.266427e-05
-3.05734e-06
3.892868e-05
-0.0002778757
1.652565e-06
5.977642e-05
-0.0002827716
1.571077e-06
8.061723e-05
-0.0002845572
1.322306e-06
0.0001020198
-0.0002853522
7.87574e-07
0.0001243474
-0.000287396
3.250455e-07
0.0001478643
-0.0002906772
3.902122e-08
-0.0002960159
-1.138484e-07
0.0001731167
1.797624e-05
-0.0002524618
1.143464e-06
1.02808e-05
7.390028e-07
-1.219161e-05
-1.621059e-06
3.812704e-05
-0.0002971251
1.676218e-06
5.838079e-05
-0.0003025554
1.534206e-06
7.857312e-05
-0.0003047891
1.330278e-06
9.9094e-05
-0.0003059415
8.01608e-07
0.0001202384
-0.0003085678
3.610587e-07
0.0001421114
-0.0003125264
9.144548e-08
-0.0003190649
-6.721734e-08
0.0001652046
1.737161e-05
-0.0002681259
1.007464e-06
1.288606e-05
2.068925e-06
-1.444647e-05
-3.223553e-06
3.699417e-05
-0.0003158015
1.629094e-06
5.664343e-05
-0.000321713
1.336254e-06
7.617568e-05
-0.0003242934
1.220111e-06
9.577794e-05
-0.0003255541
6.458068e-07
0.0001156197
-0.0003283771
2.719016e-07
0.0001354698
-0.0003323023
-2.571744e-08
-0.0003392358
-8.902731e-08
0.0001557306
1.685486e-05
-0.0002828013
1.176183e-06
1.196994e-05
8.441469e-07
-1.4162e-05
-2.007604e-06
3.573538e-05
-0.0003337633
1.649165e-06
5.458166e-05
-0.0003400991
1.406024e-06
7.331406e-05
-0.0003430371
1.323095e-06
9.185266e-05
-0.0003441562
8.349594e-07
0.0001101611
-0.0003467219
4.846119e-07
0.0001276668
-0.0003497996
3.05447e-07
-0.0003558151
1.617687e-07
0.000144237
1.571425e-05
-0.0002976403
3.849559e-07
1.405102e-05
2.71621e-06
-1.471949e-05
-3.308045e-06
3.410259e-05
-0.0003512262
1.523501e-06
5.25358e-05
-0.0003580501
1.030943e-06
7.091809e-05
-0.000361324
1.163507e-06
8.897512e-05
-0.0003621838
5.58286e-07
0.0001064412
-0.0003641183
4.576775e-07
0.0001217946
-0.0003651248
1.3272e-07
-0.0003683854
4.399162e-07
0.0001344527
1.405766e-05
-5.811757e-08
-0.0003129471
-1.370898e-05
-1.195391e-06
1.482266e-05
1.389146e-06
3.194802e-05
1.716129e-06
-0.000368127
5.005764e-05
1.074715e-06
-0.0003757479
6.811893e-05
1.542306e-06
-0.0003793789
8.594528e-05
1.327827e-06
-0.0003801182
0.0001027786
1.263171e-06
-0.0003810979
0.0001166787
1.606227e-06
-0.0003790087
1.476724e-06
-0.0003762434
0.000124226
-4.08582e-07
5.006457e-08
2.55374e-06
-6.531052e-07
-2.505007e-08
-5.244819e-07
-4.258549e-07
-5.667289e-07
2.157462e-05
-6.480522e-06
1.688693e-08
-3.354264e-06
-4.197772e-06
-3.35394e-06
-4.188886e-06
2.656025e-05
-5.437784e-06
-1.677256e-07
3.211747e-05
-5.605107e-06
-6.378883e-08
3.653727e-05
-4.662159e-06
-1.178641e-07
4.012134e-05
-3.763982e-06
-8.893871e-08
-2.502739e-06
-6.818983e-08