/*--------------------------------*- C++ -*----------------------------------*\
  =========                 |
  \\      /  F ield         | OpenFOAM: The Open Source CFD Toolbox
   \\    /   O peration     | Website:  https://openfoam.org
    \\  /    A nd           | Version:  7
     \\/     M anipulation  |
\*---------------------------------------------------------------------------*/
FoamFile
{
    version     2.0;
    format      ascii;
    class       volVectorField;
    location    "0.1";
    object      U;
}
// * * * * * * * * * * * * * * * * * * * * * * * * * * * * * * * * * * * * * //

dimensions      [0 1 -1 0 0 0 0];

internalField   nonuniform List<vector> 
109978
(
(0.009023478 -0.008974388 3.27837e-05)
(0.01804911 -0.007927617 -0.0003100351)
(0.0269528 -0.006868854 -0.0004411549)
(0.03570466 -0.005917616 -0.0005545075)
(0.04455926 -0.005147358 -0.0006464737)
(0.05314684 -0.004287591 -0.0006643616)
(0.008020477 -0.01802833 0.0003385258)
(0.01769401 -0.01762918 1.755892e-05)
(0.02688288 -0.01723358 -3.058931e-05)
(0.03574729 -0.01692899 -0.0002321347)
(0.04449314 -0.01661119 -0.0004652079)
(0.05304183 -0.01621952 -0.0006630021)
(0.007019714 -0.02694237 0.0004411731)
(0.01736328 -0.0268084 4.64984e-05)
(0.02675594 -0.02658834 4.463966e-06)
(0.03569185 -0.02640783 -0.0001361887)
(0.04453255 -0.02623313 -0.000368325)
(0.05328736 -0.02604923 -0.000554365)
(0.006118206 -0.03575721 0.0005254676)
(0.01716315 -0.03572415 0.0002406187)
(0.02671214 -0.03553564 0.0001333221)
(0.03575351 -0.0354087 -5.836169e-06)
(0.04463871 -0.03525123 -0.0001909977)
(0.05341431 -0.03507493 -0.000378719)
(0.005413027 -0.04473278 0.0006022005)
(0.01697219 -0.04456971 0.0004708426)
(0.02672227 -0.04443175 0.0003507481)
(0.0358379 -0.04429576 0.0001727823)
(0.04480071 -0.04415505 -1.783572e-05)
(0.05360308 -0.04395916 -0.0001521138)
(0.004702789 -0.05348316 0.0006656321)
(0.01674784 -0.05326572 0.0006659421)
(0.02676154 -0.0533092 0.0005252457)
(0.03596242 -0.05314448 0.00033587)
(0.04497556 -0.05296459 0.0001142386)
(0.05384671 -0.05276692 -3.630237e-05)
(0.003958701 -0.06220479 0.0007164397)
(0.016563 -0.06197234 0.000835698)
(0.02683416 -0.06224513 0.0007146828)
(0.03611785 -0.06204611 0.0005174501)
(0.04519005 -0.06182959 0.0002809865)
(0.05410688 -0.06158634 0.0001262215)
(0.003178949 -0.07101267 0.0007029158)
(0.01645747 -0.07085386 0.001003098)
(0.0269536 -0.07119225 0.0008887182)
(0.03630662 -0.0709733 0.0006801003)
(0.04543865 -0.07072698 0.0004402318)
(0.05440467 -0.07044091 0.0002605098)
(0.002440447 -0.07997931 0.0007361491)
(0.0163731 -0.07988131 0.001173828)
(0.02708462 -0.08018186 0.001072363)
(0.0365169 -0.07995875 0.000844924)
(0.04571728 -0.07968642 0.0006010253)
(0.05474072 -0.0793647 0.0004184655)
(0.001800916 -0.08901042 0.0007523254)
(0.01631772 -0.08904388 0.001332978)
(0.02717052 -0.08914953 0.001230521)
(0.03674384 -0.08900678 0.001002206)
(0.0460251 -0.08870191 0.0007544662)
(0.0551142 -0.08834497 0.0005693612)
(0.001164465 -0.09814451 0.0008041661)
(0.01627124 -0.09830599 0.001473898)
(0.027339 -0.09825969 0.00137569)
(0.03700912 -0.09811018 0.001158962)
(0.04636577 -0.09778395 0.00090404)
(0.05552329 -0.09739546 0.0007181359)
(0.0005114555 -0.1073626 0.000870938)
(0.01621609 -0.1076307 0.00160057)
(0.02749717 -0.1073786 0.001519834)
(0.03729764 -0.1072918 0.001309557)
(0.04673581 -0.1069379 0.001049221)
(0.05596764 -0.1065178 0.0008619058)
(-0.0001188123 -0.1166571 0.0009361334)
(0.01617554 -0.1170426 0.001723583)
(0.02767269 -0.1165649 0.001662824)
(0.03759794 -0.1165498 0.001465281)
(0.04713124 -0.1161708 0.001189286)
(0.05644392 -0.1157194 0.0009994435)
(-0.0007276524 -0.1260256 0.001010932)
(0.01615413 -0.1265494 0.001839484)
(0.02788415 -0.1258949 0.001794426)
(0.03789331 -0.1258635 0.001598476)
(0.04755419 -0.1254907 0.001325305)
(0.05695308 -0.1250053 0.001132694)
(-0.001304481 -0.1354614 0.001084225)
(0.01615204 -0.1361685 0.001959749)
(0.02811131 -0.1353204 0.001925872)
(0.03828174 -0.1353861 0.001734743)
(0.04801188 -0.1348788 0.001457635)
(0.05749387 -0.1343778 0.001261192)
(-0.001847361 -0.1449463 0.001158643)
(0.0161543 -0.1458729 0.002077493)
(0.02835349 -0.1449075 0.002047987)
(0.03860895 -0.1448043 0.001853787)
(0.04848014 -0.144388 0.001587434)
(0.05806195 -0.1438499 0.001386076)
(-0.002351611 -0.1545139 0.001241428)
(0.01617289 -0.1556737 0.002196229)
(0.02864112 -0.1546771 0.002180503)
(0.03897278 -0.1543104 0.001977803)
(0.04895322 -0.1540132 0.001709095)
(0.05865583 -0.1534239 0.001506915)
(-0.002823715 -0.1641686 0.001321303)
(0.01622702 -0.165563 0.002306059)
(0.02891262 -0.1645184 0.002301024)
(0.03937853 -0.1639786 0.002096538)
(0.04950015 -0.1638562 0.001840277)
(0.05928941 -0.1630866 0.001622729)
(-0.003275342 -0.1739342 0.001409669)
(0.01628426 -0.1755345 0.002393875)
(0.02920567 -0.1744732 0.002426166)
(0.03978794 -0.1737894 0.002203901)
(0.05004778 -0.1736992 0.001940746)
(0.05993189 -0.1728641 0.001733358)
(-0.003714713 -0.1838115 0.001505341)
(0.01634262 -0.1855881 0.002457768)
(0.02950343 -0.1845365 0.002541218)
(0.04021466 -0.1837322 0.002304528)
(0.05055889 -0.1834947 0.002039854)
(0.06058889 -0.1827742 0.001842729)
(-0.004138512 -0.1937951 0.001601728)
(0.01640931 -0.19577 0.002544299)
(0.02982947 -0.1947499 0.002658126)
(0.04066054 -0.1937781 0.002404941)
(0.05109976 -0.1933926 0.00214545)
(0.06124628 -0.192826 0.001940301)
(-0.004526874 -0.2038782 0.001690684)
(0.01647779 -0.2060562 0.002656228)
(0.030167 -0.2050837 0.002769503)
(0.04112412 -0.203933 0.002507183)
(0.05168529 -0.2034184 0.002252453)
(0.06198229 -0.2031664 0.002062395)
(0.01738061 -0.2239804 0.01281907)
(0.01653011 -0.2164668 0.002773235)
(0.03050874 -0.2155487 0.002891304)
(0.04158828 -0.2142053 0.002600367)
(0.05226298 -0.2136371 0.002352161)
(0.06271228 -0.2134589 0.002156409)
(0.01048759 -0.001665959 0.0006001255)
(0.01840411 -0.002099796 0.001100154)
(0.02714717 -0.002005421 0.001703669)
(0.0358527 -0.002072021 0.002207414)
(0.04457935 -0.002168412 0.002733672)
(0.0533448 -0.002165494 0.003594098)
(0.0016962 -0.01054473 -0.0005486837)
(0.01301126 -0.01296279 1.095931e-05)
(0.02151957 -0.01297188 4.288503e-05)
(0.03029327 -0.01284305 0.0001346603)
(0.03894759 -0.01282735 6.9787e-05)
(0.04765042 -0.01280773 3.797656e-05)
(0.00213293 -0.0184745 -0.00109085)
(0.01302994 -0.02149998 -4.171632e-05)
(0.02150913 -0.02140822 -1.538617e-05)
(0.03032913 -0.02141564 -5.360032e-05)
(0.03908948 -0.0213168 -3.97203e-05)
(0.0478525 -0.02119831 -4.793164e-05)
(0.002037715 -0.02724177 -0.001640866)
(0.01297234 -0.0302921 -0.0001257954)
(0.02162351 -0.03023532 6.024388e-05)
(0.03038202 -0.03016388 3.407766e-05)
(0.03915297 -0.030085 2.680296e-05)
(0.04790625 -0.02997311 2.914426e-05)
(0.002076007 -0.03601106 -0.002162153)
(0.01303486 -0.0390318 -4.644952e-05)
(0.02163269 -0.03906713 5.313948e-05)
(0.03047337 -0.03897982 -8.975109e-06)
(0.039283 -0.03887393 1.051464e-05)
(0.048079 -0.03872097 8.596461e-06)
(0.002174636 -0.0448484 -0.002692977)
(0.01311228 -0.04786598 -1.227935e-05)
(0.02165998 -0.04794446 4.878748e-05)
(0.03057577 -0.04779811 -2.163222e-05)
(0.03941496 -0.04769783 -1.458554e-06)
(0.04824168 -0.04751394 1.9108e-06)
(0.002259266 -0.05373958 -0.003364894)
(0.01326771 -0.05671957 9.614246e-05)
(0.0216936 -0.05683935 4.675076e-05)
(0.03072503 -0.0566524 1.288028e-05)
(0.03957071 -0.05654119 4.039076e-06)
(0.04846343 -0.05632449 1.699547e-05)
(0.002338793 -0.06263154 -0.004229197)
(0.01338626 -0.06567237 0.0001660889)
(0.02172383 -0.06576569 3.063525e-05)
(0.03088206 -0.06557518 2.047717e-05)
(0.03974681 -0.06543674 -1.549173e-05)
(0.04870128 -0.06519589 4.296251e-06)
(0.00238539 -0.07151741 -0.004985376)
(0.01350694 -0.07468174 0.0002246384)
(0.02178917 -0.07471597 4.764362e-05)
(0.03106415 -0.07452901 4.73172e-05)
(0.03995482 -0.07435883 -7.685003e-06)
(0.04897898 -0.07409308 1.394827e-05)
(0.00246408 -0.08044668 -0.005625256)
(0.0135869 -0.08376649 0.0002573151)
(0.02187475 -0.08373654 5.899157e-05)
(0.03125089 -0.08355592 5.566833e-05)
(0.04018851 -0.08335362 -1.404933e-05)
(0.04928022 -0.08306168 6.726958e-06)
(0.002507189 -0.08936341 -0.006091984)
(0.01368412 -0.09287039 0.0002714747)
(0.0219972 -0.09281669 7.59874e-05)
(0.03146068 -0.09262413 6.979079e-05)
(0.04045529 -0.09239718 -7.50732e-06)
(0.04961741 -0.09207837 1.096935e-05)
(0.002577234 -0.09844101 -0.006614813)
(0.01380198 -0.1020237 0.0003027024)
(0.02211818 -0.1019736 9.207306e-05)
(0.03168506 -0.1017613 8.503977e-05)
(0.0407409 -0.1015173 -5.172751e-06)
(0.04998146 -0.1011696 1.011586e-05)
(0.002650319 -0.1075851 -0.007172186)
(0.01393437 -0.111263 0.0003273505)
(0.02225663 -0.1112007 0.0001054293)
(0.03193297 -0.1109731 9.976308e-05)
(0.04105451 -0.1107062 2.973579e-07)
(0.05037865 -0.1103304 1.345751e-05)
(0.002712336 -0.1168021 -0.007728496)
(0.01407788 -0.1205775 0.0003569993)
(0.02240426 -0.1205039 0.0001178557)
(0.03219686 -0.1202609 0.00011173)
(0.04139161 -0.1199766 5.10909e-06)
(0.05080383 -0.1195722 1.621664e-05)
(0.00274744 -0.1260933 -0.008237189)
(0.01423079 -0.1299836 0.0003920974)
(0.02256911 -0.1298868 0.0001254231)
(0.03247905 -0.1296287 0.0001247539)
(0.04175187 -0.1293233 1.017682e-05)
(0.05126025 -0.1288954 2.094259e-05)
(0.002754621 -0.1354962 -0.008588091)
(0.0143941 -0.1394799 0.0004314718)
(0.02275431 -0.1393544 0.0001325504)
(0.03278056 -0.1390868 0.0001380731)
(0.04213435 -0.1387575 1.69922e-05)
(0.05173855 -0.1383089 2.758329e-05)
(0.002726271 -0.1449585 -0.008858238)
(0.0145535 -0.1490479 0.0004760782)
(0.02295629 -0.1489117 0.0001351648)
(0.03309757 -0.1486318 0.0001466003)
(0.04253956 -0.1482892 1.884413e-05)
(0.05224473 -0.1478179 3.478744e-05)
(0.002731941 -0.1545135 -0.00918329)
(0.01472413 -0.1586972 0.0005228576)
(0.02316367 -0.1585593 0.0001385485)
(0.03342615 -0.1582669 0.0001581891)
(0.04295857 -0.1579129 1.926984e-05)
(0.05277384 -0.1574206 4.272288e-05)
(0.002763607 -0.1641451 -0.009563311)
(0.01490221 -0.1684383 0.000568156)
(0.02337848 -0.1683048 0.0001425843)
(0.03376831 -0.1680019 0.0001711297)
(0.04339696 -0.1676342 2.105324e-05)
(0.05332496 -0.1671206 5.225291e-05)
(0.002829891 -0.1739006 -0.009991089)
(0.01510225 -0.1782984 0.0005995794)
(0.02359089 -0.1781539 0.0001486211)
(0.03412224 -0.1778456 0.0001819408)
(0.04385145 -0.1774622 2.344393e-05)
(0.05389362 -0.1769325 6.459052e-05)
(0.002873201 -0.1837787 -0.01039515)
(0.01530454 -0.188277 0.0006387242)
(0.02382064 -0.1881008 0.0001542342)
(0.03448622 -0.1877968 0.0001922522)
(0.04432136 -0.1873992 2.2927e-05)
(0.05448077 -0.1868588 7.301393e-05)
(0.00291202 -0.1937885 -0.01078514)
(0.01551809 -0.1983534 0.0006669124)
(0.0240581 -0.1981512 0.0001704935)
(0.03485108 -0.197854 0.000203108)
(0.04480125 -0.1974451 2.474853e-05)
(0.05507924 -0.1968959 8.028932e-05)
(0.002939187 -0.203858 -0.01110934)
(0.01573238 -0.2085539 0.0007061303)
(0.02430475 -0.2083126 0.0001907808)
(0.03522068 -0.2080236 0.00021462)
(0.04529204 -0.2076038 1.959972e-05)
(0.05569503 -0.2070478 8.612983e-05)
(0.0007572876 -0.2190259 0.008603884)
(0.01595869 -0.2188666 0.0007291909)
(0.02457187 -0.2185922 0.0002101641)
(0.03559088 -0.21831 0.0002252329)
(0.04579117 -0.2178806 2.105283e-05)
(0.05632291 -0.2173207 9.395533e-05)
(0.0105322 -0.001574482 6.869683e-06)
(0.01862714 -0.002617133 0.000325159)
(0.02751981 -0.002588614 0.0004706846)
(0.03646615 -0.002618236 0.0005757101)
(0.04533615 -0.002770019 0.0007031542)
(0.05425574 -0.002963794 0.001117389)
(0.001584541 -0.01063704 -1.219744e-05)
(0.01304033 -0.01297732 -2.15049e-05)
(0.02176794 -0.01272851 0.0002074182)
(0.03039149 -0.0126142 0.0003043973)
(0.03901827 -0.01251351 0.0003013693)
(0.04770866 -0.0125202 0.0003074363)
(0.002653634 -0.01873596 -0.0003609649)
(0.01278976 -0.02174342 -0.0002341218)
(0.02166422 -0.02155668 -3.088328e-05)
(0.03028937 -0.02141034 -7.363205e-05)
(0.03915115 -0.02149377 -3.591094e-05)
(0.04790276 -0.02143046 -5.275689e-05)
(0.002588684 -0.02765274 -0.0004499674)
(0.01276973 -0.03038722 -0.0003729962)
(0.02157238 -0.03021246 8.307683e-05)
(0.03041503 -0.03018571 6.280019e-05)
(0.03922484 -0.03009464 7.791773e-05)
(0.04795241 -0.02999193 8.204728e-05)
(0.002652545 -0.03665528 -0.0005535847)
(0.01273501 -0.03910853 -0.0003529419)
(0.02180536 -0.03910835 7.195772e-05)
(0.0304567 -0.03905797 -3.082654e-05)
(0.03936044 -0.03894974 2.416488e-05)
(0.04810736 -0.03881187 8.954602e-06)
(0.002827113 -0.04567864 -0.0007449091)
(0.01282196 -0.04793159 -0.0003760199)
(0.02192546 -0.04799108 7.55684e-05)
(0.03061031 -0.04784835 -6.207856e-05)
(0.03951223 -0.04772804 1.857527e-05)
(0.04827787 -0.04754313 9.944695e-06)
(0.00305523 -0.05469928 -0.001071241)
(0.01300588 -0.05680281 -0.0003358428)
(0.0219468 -0.05690154 4.970845e-05)
(0.03076222 -0.05670319 -6.471806e-05)
(0.03966674 -0.05657949 7.997167e-06)
(0.04849364 -0.05636202 1.770181e-06)
(0.00319866 -0.06371271 -0.001261399)
(0.01315211 -0.0658096 -0.0003505916)
(0.02201059 -0.0658173 2.741836e-05)
(0.03093504 -0.06562431 -7.555759e-05)
(0.03985425 -0.06546278 -2.526918e-06)
(0.04873771 -0.06521804 -6.4328e-06)
(0.003358602 -0.07273002 -0.001406528)
(0.01324095 -0.07483318 -0.0003665273)
(0.02212165 -0.07475979 2.147304e-05)
(0.03111947 -0.07458288 -7.733458e-05)
(0.04007373 -0.07438735 -3.577181e-06)
(0.04901547 -0.07411873 -5.084366e-06)
(0.003478189 -0.08181299 -0.00156729)
(0.01328833 -0.0839015 -0.0004006999)
(0.02224253 -0.08377871 1.258808e-05)
(0.0313102 -0.08360562 -8.817917e-05)
(0.04031924 -0.08337994 -9.823401e-06)
(0.04932164 -0.08308572 -1.161735e-05)
(0.003599831 -0.09097513 -0.001677141)
(0.01335628 -0.09300926 -0.0004255053)
(0.02239219 -0.0928649 1.173491e-05)
(0.03152247 -0.09267683 -9.10029e-05)
(0.04059414 -0.09242641 -1.050966e-05)
(0.04966079 -0.09210435 -1.14283e-05)
(0.003696451 -0.1002066 -0.001797264)
(0.01344506 -0.1021798 -0.0004566479)
(0.0225442 -0.1020285 4.037578e-06)
(0.03175264 -0.1018191 -0.0001005477)
(0.04089206 -0.1015483 -1.49821e-05)
(0.05002978 -0.101197 -1.568211e-05)
(0.003814379 -0.1094977 -0.001916486)
(0.01355207 -0.1114236 -0.0004917517)
(0.02272079 -0.1112562 -1.31148e-06)
(0.03200476 -0.1110278 -0.0001064422)
(0.04121559 -0.1107376 -1.708411e-05)
(0.05043038 -0.1103581 -1.697618e-05)
(0.003964803 -0.1188837 -0.002056622)
(0.01365973 -0.1207241 -0.0005345869)
(0.02290888 -0.1205601 -6.125993e-06)
(0.03227286 -0.1203112 -0.0001134496)
(0.04156075 -0.1200061 -1.995684e-05)
(0.05085915 -0.1195998 -1.960375e-05)
(0.004139347 -0.1283591 -0.002220143)
(0.01378208 -0.1301003 -0.0005622259)
(0.0231023 -0.1299457 -9.638079e-06)
(0.03256068 -0.1296744 -0.0001178432)
(0.04192731 -0.1293562 -1.997611e-05)
(0.05131605 -0.1289241 -2.080721e-05)
(0.004299556 -0.1379338 -0.002376453)
(0.01390998 -0.1395603 -0.0005968778)
(0.0233004 -0.1394164 -1.335232e-05)
(0.03286465 -0.1391242 -0.0001240406)
(0.04231326 -0.138793 -2.450344e-05)
(0.05179914 -0.1383375 -2.37906e-05)
(0.00448591 -0.1476076 -0.002601976)
(0.01405204 -0.1491209 -0.0006154554)
(0.02350108 -0.1489777 -1.489326e-05)
(0.03318619 -0.1486686 -0.0001253496)
(0.04271621 -0.148321 -2.602843e-05)
(0.05230692 -0.1478443 -2.442131e-05)
(0.004631667 -0.1573679 -0.002784647)
(0.01420627 -0.1587928 -0.0006426218)
(0.02371222 -0.158634 -1.808887e-05)
(0.03352356 -0.1583128 -0.0001300532)
(0.04313832 -0.157947 -2.73678e-05)
(0.05283749 -0.1574507 -2.461525e-05)
(0.004763166 -0.1672211 -0.002984208)
(0.01437058 -0.1685865 -0.0006725381)
(0.02393744 -0.1683876 -2.366419e-05)
(0.03387556 -0.1680595 -0.0001344347)
(0.04357878 -0.1676735 -2.984932e-05)
(0.05338947 -0.1671596 -2.705391e-05)
(0.004834575 -0.1772106 -0.003110409)
(0.0145347 -0.178466 -0.000682416)
(0.02419162 -0.1782429 -3.277328e-05)
(0.03424027 -0.1779072 -0.0001395512)
(0.04403863 -0.1775044 -3.400748e-05)
(0.05396086 -0.1769745 -3.220218e-05)
(0.004979117 -0.1872866 -0.003273187)
(0.0147103 -0.1884381 -0.0007061052)
(0.02444509 -0.1882023 -4.444624e-05)
(0.0346172 -0.1878593 -0.0001418883)
(0.04451189 -0.1874418 -3.783719e-05)
(0.05454898 -0.1868962 -3.488474e-05)
(0.005154108 -0.1974294 -0.003387166)
(0.01487875 -0.1985162 -0.0007351294)
(0.02471579 -0.1982704 -6.43881e-05)
(0.03500454 -0.197922 -0.000145594)
(0.04500211 -0.197493 -4.222055e-05)
(0.05515322 -0.1969344 -3.607927e-05)
(0.005354084 -0.2076717 -0.003572887)
(0.0150496 -0.2087048 -0.0006941426)
(0.02497988 -0.208445 -9.574975e-05)
(0.03539985 -0.2080936 -0.0001413712)
(0.04550014 -0.2076528 -4.894672e-05)
(0.05576894 -0.2070826 -3.766346e-05)
(0.005423649 -0.2180605 -0.003702284)
(0.01521439 -0.219008 -0.0007016983)
(0.02526232 -0.2187332 -0.0001231568)
(0.03580282 -0.2183845 -0.0001458785)
(0.04601404 -0.2179369 -5.558072e-05)
(0.05639741 -0.2173551 -3.94189e-05)
(0.01037395 -0.001535924 -3.057724e-05)
(0.01868479 -0.00232652 3.913854e-05)
(0.02754007 -0.002343564 0.0001595131)
(0.03651207 -0.002333325 0.0002530018)
(0.0452744 -0.002562287 0.0002121853)
(0.05411605 -0.002793592 0.0002162619)
(0.001557634 -0.01049465 2.014914e-05)
(0.01296202 -0.01294834 -2.780222e-05)
(0.02187889 -0.01257468 5.873445e-05)
(0.03039678 -0.01242522 0.0001201377)
(0.03897619 -0.01227327 7.102099e-05)
(0.04765365 -0.01230718 8.725882e-05)
(0.002353057 -0.01885409 -4.388046e-05)
(0.01256408 -0.02187891 -9.815937e-05)
(0.0216736 -0.02152409 -4.645262e-05)
(0.03013742 -0.02132783 -1.64185e-05)
(0.03913827 -0.02153308 -3.506096e-05)
(0.0478875 -0.02149009 -6.426267e-05)
(0.002477566 -0.02764111 -0.0002704535)
(0.01255674 -0.03039619 -0.000188926)
(0.02139975 -0.03018841 7.649852e-06)
(0.03035736 -0.03012926 5.074939e-05)
(0.03919042 -0.03005821 2.152037e-05)
(0.04792827 -0.02995569 1.801193e-05)
(0.002421679 -0.03671781 -0.0002330397)
(0.0125219 -0.03903284 -0.0001099218)
(0.02184253 -0.03908266 6.786658e-05)
(0.03035613 -0.03900653 1.604515e-05)
(0.03936183 -0.03895926 1.653938e-05)
(0.04809238 -0.03882183 -3.205083e-07)
(0.002654498 -0.04575432 -0.0002151776)
(0.01255892 -0.04786957 -0.0001427382)
(0.02195035 -0.04793134 4.930759e-05)
(0.03057222 -0.04783715 -1.43808e-05)
(0.03952124 -0.04773115 7.426413e-06)
(0.04826679 -0.04753781 6.403532e-07)
(0.002871341 -0.05483468 -0.0001864071)
(0.01279868 -0.05671754 -9.236389e-05)
(0.02203004 -0.05690708 6.889209e-05)
(0.03073634 -0.05668173 -1.013659e-06)
(0.03967187 -0.05657624 1.303442e-05)
(0.04848749 -0.05635435 8.228494e-06)
(0.003121923 -0.06386748 -0.0001136691)
(0.01300096 -0.06573102 -6.353034e-05)
(0.02206657 -0.06581468 5.974564e-05)
(0.03090605 -0.065604 4.644381e-07)
(0.03985128 -0.0654615 4.859478e-06)
(0.04873177 -0.06521495 2.380324e-06)
(0.003365794 -0.07295626 -9.230119e-05)
(0.01313393 -0.07476385 -3.582492e-05)
(0.02214942 -0.07475303 6.313658e-05)
(0.03109398 -0.07455864 1.178604e-05)
(0.04006286 -0.07437953 1.063455e-05)
(0.0490098 -0.0741103 8.688843e-06)
(0.003549315 -0.0820494 -0.0001883262)
(0.01320597 -0.08386083 -5.482997e-05)
(0.02225921 -0.08377026 6.466167e-05)
(0.03128343 -0.08358781 1.090725e-05)
(0.04030115 -0.0833747 8.073534e-06)
(0.04931399 -0.08308092 5.638808e-06)
(0.003475813 -0.0911719 -0.0002232812)
(0.01327645 -0.09296557 -5.241133e-05)
(0.02240267 -0.0928515 7.051674e-05)
(0.03149346 -0.09265628 1.542344e-05)
(0.04057085 -0.09241754 1.198312e-05)
(0.04965115 -0.09209624 8.473623e-06)
(0.003607067 -0.1003469 -0.0002901874)
(0.01337303 -0.1021335 -4.341611e-05)
(0.02254309 -0.1020161 7.476469e-05)
(0.0317213 -0.1017991 1.930155e-05)
(0.04086176 -0.1015407 1.30204e-05)
(0.05001733 -0.1011901 8.497875e-06)
(0.003767493 -0.1096855 -0.0003340542)
(0.01348488 -0.1113883 -5.397589e-05)
(0.02271163 -0.1112437 8.103013e-05)
(0.03197228 -0.1110102 2.163326e-05)
(0.0411797 -0.1107292 1.580918e-05)
(0.05041544 -0.1103505 1.029597e-05)
(0.003877635 -0.1190766 -0.0003530663)
(0.01359427 -0.1206992 -4.414722e-05)
(0.02289641 -0.1205483 8.568813e-05)
(0.03223841 -0.1202981 2.605543e-05)
(0.04152119 -0.1199988 1.784287e-05)
(0.05084142 -0.1195934 1.178276e-05)
(0.00400982 -0.1285516 -0.000373356)
(0.01372125 -0.1301008 -4.721602e-05)
(0.02308666 -0.1299333 9.022353e-05)
(0.03252481 -0.1296669 2.803975e-05)
(0.04188542 -0.1293488 2.030517e-05)
(0.05129631 -0.128918 1.344063e-05)
(0.004165957 -0.138115 -0.0004105499)
(0.01384342 -0.1395914 -3.764274e-05)
(0.02330216 -0.1394021 9.322689e-05)
(0.03282641 -0.1391236 3.156277e-05)
(0.04227251 -0.1387859 2.281958e-05)
(0.05177675 -0.1383327 1.574566e-05)
(0.004369302 -0.147786 -0.0004350033)
(0.01397203 -0.1491556 -6.435207e-05)
(0.02352337 -0.1489616 9.97675e-05)
(0.03314412 -0.1486691 2.919005e-05)
(0.04267845 -0.1483159 2.486683e-05)
(0.05228356 -0.1478402 1.691479e-05)
(0.004532261 -0.1575287 -0.0004232867)
(0.01410062 -0.1588206 -7.596329e-05)
(0.02375537 -0.1586163 0.0001068496)
(0.03347533 -0.1583098 3.017295e-05)
(0.04310226 -0.1579425 2.67364e-05)
(0.05281254 -0.1574463 1.915686e-05)
(0.004685085 -0.1674088 -0.0003444165)
(0.01422527 -0.1685484 -0.0001065539)
(0.02399821 -0.168371 0.0001170332)
(0.0338213 -0.168048 2.932573e-05)
(0.04354284 -0.167669 2.8795e-05)
(0.05336337 -0.1671534 2.118729e-05)
(0.004985085 -0.1773724 -0.0002285925)
(0.0144132 -0.1784059 -0.0001159289)
(0.024218 -0.1782297 0.0001234344)
(0.03418078 -0.1778927 3.406186e-05)
(0.04399751 -0.1775017 3.137463e-05)
(0.05393312 -0.1769692 2.609199e-05)
(0.005083307 -0.1869974 -0.0001490633)
(0.01458653 -0.18841 -7.098335e-05)
(0.02447124 -0.188191 0.0001230831)
(0.03455293 -0.1878459 4.171747e-05)
(0.04446717 -0.1874414 3.152443e-05)
(0.05452089 -0.1868938 2.876069e-05)
(0.00514961 -0.1969448 -0.000202912)
(0.01475908 -0.1984227 -5.57208e-05)
(0.02473612 -0.1982638 0.0001271854)
(0.03493426 -0.1978982 5.208837e-05)
(0.04494973 -0.1974918 3.63479e-05)
(0.05512347 -0.1969312 3.802377e-05)
(0.005366547 -0.2072815 -0.0002535523)
(0.01500404 -0.208603 -5.232969e-05)
(0.02494784 -0.2084325 0.0001306944)
(0.03532885 -0.2080679 5.538129e-05)
(0.04543417 -0.2076513 3.134005e-05)
(0.05573891 -0.207082 3.661583e-05)
(0.005459943 -0.2178239 -0.0003185167)
(0.01517929 -0.218929 -2.145855e-05)
(0.02521849 -0.2187088 0.0001428149)
(0.03571958 -0.2183541 7.456312e-05)
(0.04593539 -0.2179248 4.282488e-05)
(0.0563647 -0.21735 5.71835e-05)
(0.01041649 -0.001522298 -9.400756e-06)
(0.01867446 -0.002342584 3.653625e-05)
(0.02759583 -0.002176088 8.982703e-05)
(0.03650863 -0.002351475 5.997281e-05)
(0.04533565 -0.002389332 0.0001687917)
(0.0541467 -0.00265086 8.714424e-05)
(0.001530127 -0.01044423 1.657417e-05)
(0.01294776 -0.01294282 -3.887805e-06)
(0.02192557 -0.01253729 2.598453e-05)
(0.03037196 -0.01241105 3.641666e-05)
(0.03897629 -0.01222039 1.995881e-05)
(0.04766667 -0.01225334 4.505201e-05)
(0.002482575 -0.01870379 -5.953695e-05)
(0.01248684 -0.02192449 -3.241353e-05)
(0.02166411 -0.02150534 -2.261558e-05)
(0.03003731 -0.02116671 6.111496e-06)
(0.0391554 -0.02150984 4.346088e-06)
(0.04787913 -0.0215128 -1.460118e-05)
(0.002260522 -0.02774457 -5.377462e-05)
(0.01254294 -0.03036955 -3.857404e-05)
(0.02120124 -0.03020764 -4.856884e-06)
(0.03032994 -0.03010442 1.820345e-05)
(0.03919377 -0.03005401 2.185399e-05)
(0.04793301 -0.02994903 2.069246e-05)
(0.002407092 -0.03671968 -6.503039e-05)
(0.01248957 -0.03901907 -1.989167e-05)
(0.02182069 -0.03909786 1.416876e-05)
(0.03031096 -0.03899101 -4.672557e-06)
(0.03937839 -0.03897728 8.351213e-06)
(0.04808939 -0.03884878 -3.391974e-06)
(0.002411605 -0.0457391 -0.0001413386)
(0.01252784 -0.04787538 -3.413791e-05)
(0.02194193 -0.04792037 1.386161e-05)
(0.03056928 -0.04784197 -1.510856e-05)
(0.03954891 -0.04773998 8.958493e-06)
(0.04827309 -0.04754526 1.767756e-06)
(0.002704606 -0.0548449 -0.0001094573)
(0.0127364 -0.05671949 -4.182678e-05)
(0.02205094 -0.05691859 1.32138e-05)
(0.03073106 -0.05669083 -2.145838e-05)
(0.03969843 -0.05658634 2.928117e-06)
(0.04849244 -0.0563654 -5.710116e-06)
(0.003012175 -0.06385803 -6.353127e-05)
(0.01295606 -0.0657478 -3.648012e-05)
(0.0220832 -0.06582314 7.076065e-06)
(0.03090484 -0.06561276 -2.360258e-05)
(0.03987957 -0.06546745 3.486065e-07)
(0.04873933 -0.06522033 -7.300457e-06)
(0.003294954 -0.07291542 -4.345493e-05)
(0.01307573 -0.07481884 -5.374353e-05)
(0.02217897 -0.07475459 5.547245e-06)
(0.03109209 -0.0745726 -2.900367e-05)
(0.04009418 -0.07438482 -2.172e-06)
(0.04901757 -0.07411642 -1.004862e-05)
(0.003448351 -0.08203359 3.269545e-05)
(0.01310284 -0.0839123 -8.254947e-05)
(0.02231866 -0.08377117 6.060884e-06)
(0.03127908 -0.08360239 -3.636801e-05)
(0.04033782 -0.08337891 -4.476986e-06)
(0.04932281 -0.08308634 -1.300114e-05)
(0.003487156 -0.09112473 1.258653e-06)
(0.01318679 -0.0929904 -8.716679e-05)
(0.02247056 -0.09285422 3.862149e-06)
(0.03148868 -0.09266859 -4.044655e-05)
(0.04061166 -0.09242134 -6.164727e-06)
(0.04966034 -0.09210105 -1.464289e-05)
(0.003366252 -0.1002743 -4.753993e-07)
(0.01327825 -0.1021733 -0.0001127912)
(0.02261716 -0.102017 3.695465e-06)
(0.03171591 -0.1018126 -4.820591e-05)
(0.04090643 -0.1015443 -8.36338e-06)
(0.05002711 -0.1011949 -1.760281e-05)
(0.003484417 -0.1096227 -7.224078e-06)
(0.01336915 -0.1114155 -0.0001250303)
(0.02280724 -0.1112443 2.426196e-06)
(0.03196475 -0.1110204 -5.258694e-05)
(0.04122975 -0.1107321 -9.871074e-06)
(0.05042558 -0.1103544 -1.961689e-05)
(0.003604745 -0.1190071 -3.157227e-06)
(0.01347563 -0.1207081 -0.0001325793)
(0.02299017 -0.1205501 2.897453e-07)
(0.03223073 -0.1203043 -5.696292e-05)
(0.04157301 -0.1200012 -1.18505e-05)
(0.05085232 -0.1195965 -2.188941e-05)
(0.003703583 -0.1284591 -6.015084e-06)
(0.01359312 -0.1300836 -0.0001422057)
(0.02318851 -0.1299372 -8.145764e-07)
(0.03251672 -0.1296684 -6.055392e-05)
(0.04193926 -0.1293509 -1.317488e-05)
(0.05130732 -0.1289202 -2.363759e-05)
(0.003820764 -0.1380088 -1.863692e-05)
(0.01373258 -0.139567 -0.0001458503)
(0.0233806 -0.1394058 -3.008922e-06)
(0.03282048 -0.1391226 -6.304426e-05)
(0.04232322 -0.138788 -1.545802e-05)
(0.05178894 -0.1383339 -2.550524e-05)
(0.003943678 -0.1476584 -3.41505e-05)
(0.01385447 -0.1491483 -0.0001453902)
(0.02360575 -0.1489631 -4.871731e-06)
(0.03313795 -0.1486697 -6.376833e-05)
(0.0427296 -0.1483168 -1.698395e-05)
(0.05229598 -0.1478409 -2.698107e-05)
(0.004050537 -0.157375 -3.22309e-05)
(0.01398575 -0.158823 -0.0001504135)
(0.0238297 -0.1586159 -7.315345e-06)
(0.03347029 -0.1583127 -6.586971e-05)
(0.04315322 -0.1579434 -1.897807e-05)
(0.0528254 -0.157447 -2.89304e-05)
(0.004138677 -0.1672229 -2.245787e-05)
(0.01409404 -0.1686145 -0.0001400884)
(0.02408476 -0.1683705 -1.111982e-05)
(0.03381425 -0.1680561 -6.721032e-05)
(0.04359664 -0.1676696 -2.163124e-05)
(0.05337605 -0.1671537 -3.179684e-05)
(0.004289336 -0.177178 8.800455e-06)
(0.01421085 -0.1784164 -0.0001561182)
(0.02435299 -0.1782369 -1.336915e-05)
(0.03417515 -0.1778958 -7.265307e-05)
(0.04405676 -0.177503 -2.492821e-05)
(0.05394739 -0.1769688 -3.576292e-05)
(0.004786524 -0.1870139 -1.44295e-05)
(0.01444188 -0.1883623 -0.0001549907)
(0.02456965 -0.1881983 -1.719269e-05)
(0.03455234 -0.1878415 -7.757089e-05)
(0.04452479 -0.1874378 -2.989348e-05)
(0.05453504 -0.1868854 -4.107884e-05)
(0.004920383 -0.1969967 -3.579231e-05)
(0.01462504 -0.1984813 -0.0001663556)
(0.02483501 -0.1982618 -2.128835e-05)
(0.03493995 -0.1979073 -8.456763e-05)
(0.04501308 -0.1974927 -3.574039e-05)
(0.05514081 -0.1969262 -4.798686e-05)
(0.004940832 -0.2074375 5.787922e-05)
(0.01477952 -0.2086503 -0.0002057246)
(0.02509915 -0.2084261 -2.254839e-05)
(0.03532578 -0.2080665 -9.79316e-05)
(0.04550541 -0.2076407 -4.62075e-05)
(0.05575442 -0.207057 -5.875745e-05)
(-0.0008061293 -0.223233 -5.836774e-05)
(0.01494462 -0.2189675 -0.0002076421)
(0.02537128 -0.2187205 -3.271773e-05)
(0.03572784 -0.2183625 -0.0001065382)
(0.04602078 -0.2179372 -5.801959e-05)
(0.05638798 -0.217341 -7.211299e-05)
(0.01037844 -0.001507079 7.556076e-06)
(0.01867774 -0.002335294 -8.268037e-06)
(0.02757085 -0.002263724 -9.820966e-06)
(0.03644983 -0.001969824 -3.765453e-05)
(0.04515306 -0.001942134 -6.778175e-08)
(0.05406881 -0.002288052 6.69703e-05)
(0.001519301 -0.01062116 -7.205652e-07)
(0.01294355 -0.0129403 -2.258741e-07)
(0.02192183 -0.01254315 -3.334586e-05)
(0.03037747 -0.01241857 -4.327528e-05)
(0.03898292 -0.01222274 -2.996787e-05)
(0.04766254 -0.01224995 -4.292804e-05)
(0.002119904 -0.01892982 -6.972891e-07)
(0.01248973 -0.0219197 3.251478e-05)
(0.02166329 -0.02150254 2.138999e-05)
(0.03003822 -0.0211668 -5.88948e-06)
(0.03915434 -0.02151105 -4.030352e-06)
(0.04787965 -0.0215158 1.345609e-05)
(0.001925503 -0.02791692 1.164546e-06)
(0.01254817 -0.03036649 4.147024e-05)
(0.02120477 -0.03020796 3.610396e-06)
(0.03033135 -0.03010447 -2.223017e-05)
(0.039194 -0.03005388 -2.482804e-05)
(0.0479331 -0.02994895 -2.24222e-05)
(0.002044222 -0.03682606 3.845513e-05)
(0.01249718 -0.03902227 2.222415e-05)
(0.02181497 -0.03909574 -1.849492e-05)
(0.03031166 -0.03899093 3.895318e-06)
(0.03937745 -0.0389773 -1.064889e-05)
(0.04808966 -0.03884927 1.811576e-06)
(0.002193682 -0.04576062 2.529488e-05)
(0.01252292 -0.04788008 3.323579e-05)
(0.02193787 -0.04791954 -1.598151e-05)
(0.03056893 -0.0478431 1.33812e-05)
(0.03954807 -0.04774023 -1.146879e-05)
(0.04827309 -0.04754538 -3.690257e-06)
(0.002347168 -0.05482174 -4.890863e-05)
(0.01273914 -0.05671618 4.047206e-05)
(0.02205059 -0.0569198 -1.753191e-05)
(0.03073186 -0.05669107 1.875801e-05)
(0.03969815 -0.05658661 -5.917616e-06)
(0.04849262 -0.05636568 3.477645e-06)
(0.00272196 -0.0638883 -9.228292e-05)
(0.01296141 -0.06574117 3.454076e-05)
(0.02207814 -0.06582263 -1.222874e-05)
(0.03090531 -0.06561219 1.998426e-05)
(0.03987867 -0.06546746 -3.954138e-06)
(0.04873947 -0.06522035 4.429856e-06)
(0.003006802 -0.07294833 -2.971727e-05)
(0.01308446 -0.07480859 4.992083e-05)
(0.02217279 -0.07475403 -1.094178e-05)
(0.0310924 -0.07457182 2.370142e-05)
(0.04009332 -0.07438483 -2.007506e-06)
(0.04901762 -0.07411651 6.604366e-06)
(0.003183932 -0.08200955 4.197785e-06)
(0.01311543 -0.08389234 8.116441e-05)
(0.02230405 -0.08377145 -9.773524e-06)
(0.03127904 -0.08359927 2.912936e-05)
(0.04033604 -0.0833789 -2.150044e-07)
(0.04932286 -0.08308605 8.430004e-06)
(0.003181059 -0.0910683 -4.548171e-06)
(0.01318647 -0.09299345 7.195575e-05)
(0.02244808 -0.09285353 -6.113392e-06)