/*--------------------------------*- C++ -*----------------------------------*\
  =========                 |
  \\      /  F ield         | OpenFOAM: The Open Source CFD Toolbox
   \\    /   O peration     | Website:  https://openfoam.org
    \\  /    A nd           | Version:  7
     \\/     M anipulation  |
\*---------------------------------------------------------------------------*/
FoamFile
{
    version     2.0;
    format      ascii;
    class       volScalarField;
    location    "0.1";
    object      Ux;
}
// * * * * * * * * * * * * * * * * * * * * * * * * * * * * * * * * * * * * * //

dimensions      [0 1 -1 0 0 0 0];

internalField   nonuniform List<scalar> 
80136
(
0.0003148744
0.0004932102
0.0006795715
0.0008461839
0.0009941939
0.00111399
0.001201337
0.0003382576
0.0005175876
0.00071816
0.0008946542
0.001052669
0.001185673
0.001285467
0.0003458004
0.0005544005
0.0007635929
0.0009566585
0.001131754
0.001280886
0.001398323
0.0003700028
0.0005970172
0.0008252012
0.00103796
0.001233297
0.001404972
0.001545585
0.0003993116
0.0006497304
0.0008996768
0.001137701
0.001359979
0.001560793
0.00173222
0.0004379692
0.0007113232
0.000988363
0.001254153
0.00150839
0.001744325
0.001954918
0.0004903164
0.0007748788
0.001087473
0.001382837
0.001674971
0.001952943
0.002209908
0.0005374281
0.0008480658
0.0011931
0.00152222
0.001855595
0.002181282
0.002494266
0.0005785036
0.0009181824
0.001298273
0.001664032
0.002040876
0.002419069
0.002790647
0.0006219075
0.0009875985
0.001402527
0.001804392
0.00222548
0.002657056
0.003093969
0.0006610212
0.001051503
0.00149834
0.001934876
0.002397096
0.002878743
0.003376314
0.0006953277
0.001109101
0.001581932
0.002049757
0.002548041
0.00307166
0.003624852
0.0007292231
0.001157024
0.001651365
0.002144302
0.002670554
0.003227238
0.00382201
0.0007220166
0.001197346
0.001697549
0.002213145
0.002758595
0.003337678
0.003961565
0.0007348485
0.001221089
0.001730148
0.002255418
0.002810896
0.003400035
0.004037265
0.0007794346
0.001224219
0.001747935
0.00226778
0.002826357
0.003413305
0.00405005
0.0007689335
0.001228699
0.001739477
0.00225553
0.002804284
0.003378112
0.003998759
0.000749276
0.001214763
0.001713005
0.002218916
0.002751093
0.003301409
0.003892054
0.0007268376
0.001188315
0.001670702
0.002160004
0.00266774
0.003184228
0.003730457
0.0006961699
0.001155949
0.001619969
0.002092659
0.002575439
0.003050537
0.003540412
0.0006745732
0.001112622
0.001559272
0.002011987
0.002463625
0.002896831
0.003319935
0.0006377459
0.001067584
0.001506305
0.001947313
0.002395768
0.002783848
0.003142241
0.0005777031
0.001018825
0.001430036
0.001879396
0.002299109
0.002702037
0.003011492
0.0002808153
0.0004742315
0.0007957351
0.0009958794
0.00116539
0.001385435
0.001534636
0.001612139
3.603053e-05
0.0003206194
0.0005090523
0.0006873357
0.0008536332
0.001005778
0.001125249
0.001213915
1.588571e-05
0.0003251825
0.0005296972
0.0007175836
0.0008987792
0.001054497
0.001187412
0.001286325
3.107454e-05
0.0003357305
0.0005683023
0.0007632291
0.0009597535
0.001132176
0.001281817
0.001398838
5.450252e-05
0.000358016
0.0006166284
0.000824975
0.001042833
0.001234584
0.001406932
0.001547507
6.103553e-05
0.0003750688
0.0006713965
0.000898218
0.001142673
0.0013611
0.001562829
0.001734498
8.532936e-05
0.000412498
0.0007349292
0.0009870636
0.001259781
0.001509929
0.001746873
0.00195808
7.491061e-05
0.0004815405
0.0007917278
0.001087623
0.001387893
0.001676732
0.001955709
0.002213432
6.041542e-05
0.0005406215
0.0008658745
0.001194935
0.001527585
0.001857885
0.002184567
0.002498756
9.27109e-05
0.0005807347
0.0009336293
0.001300164
0.001669123
0.002043189
0.002422478
0.002794985
9.467529e-05
0.0006310255
0.001003419
0.001405388
0.00180977
0.002228155
0.002661136
0.003099363
9.652411e-05
0.0006660114
0.00106653
0.001500675
0.001940262
0.002399581
0.002882673
0.00338091
7.518528e-05
0.0006824345
0.001127527
0.001582371
0.002055715
0.002550474
0.003076007
0.003629877
5.224648e-05
0.0007059298
0.001184241
0.00165124
0.002151348
0.002672921
0.003231494
0.003826441
7.384557e-05
0.0006768332
0.001227775
0.001694855
0.002220548
0.002760704
0.003342067
0.003966025
0.0002197886
0.0007010578
0.001259718
0.001728932
0.002264001
0.002813174
0.003404434
0.004041474
0.0001278259
0.0007677934
0.001239731
0.001747792
0.002274002
0.002828429
0.003417464
0.004054127
-8.011743e-05
0.0007569959
0.001256242
0.001740442
0.002262935
0.002806593
0.003382222
0.004002618
0.0001721128
0.0007500917
0.001242909
0.001714901
0.002226616
0.002753204
0.003305408
0.003895772
-5.03292e-05
0.0007183347
0.00121767
0.001672443
0.002167642
0.002670121
0.003187922
0.003733507
0.0001619419
0.0006992877
0.001186911
0.001621871
0.002100229
0.002576317
0.003053753
0.003543928
-2.480491e-05
0.0006938968
0.001144243
0.001563983
0.002019905
0.002467394
0.002899496
0.003320305
0.0001214527
0.000618277
0.001103101
0.001502984
0.001952532
0.002388823
0.002784148
0.003148591
0.001635383
0.0005237765
0.001057574
0.00143178
0.001886625
0.002314808
0.002700706
0.002993911
0.0002672275
0.0005353683
0.0006538504
0.0008376902
0.00096584
0.001085944
0.001168755
2.911849e-05
0.0002982375
0.0004919026
0.000686523
0.0008569296
0.001004938
0.001129048
0.00121848
9.857057e-05
0.0003212531
0.0005103861
0.0007137657
0.0008952969
0.001052903
0.001188354
0.00128862
9.852666e-05
0.0003147557
0.0005454678
0.0007572545
0.0009549423
0.001130638
0.001281691
0.001399921
0.0001184818
0.0003487531
0.0005898245
0.0008199889
0.001035998
0.001232791
0.001405943
0.001548078
0.0001234137
0.0003726117
0.000640951
0.0008930615
0.001135006
0.001359137
0.001561597
0.001735063
0.000141031
0.000414608
0.0007029911
0.00098206
0.001251461
0.001507805
0.001745443
0.00195878
0.0001571296
0.0004571703
0.0007689882
0.001078861
0.001380388
0.001674118
0.001954379
0.002214288
0.0001780807
0.0005054917
0.0008416766
0.001183686
0.001519736
0.001854725
0.002183072
0.00249986
0.000190044
0.000542888
0.000912157
0.001287705
0.0016615
0.002039525
0.002420442
0.002795437
0.0002043211
0.0005836867
0.0009824435
0.001390982
0.00180198
0.002224019
0.002659249
0.003099752
0.0002135936
0.0006190263
0.001046326
0.001485847
0.001932038
0.0023949
0.002879324
0.00338001
0.0002224251
0.0006527545
0.001102674
0.001569326
0.002046598
0.002545697
0.003072875
0.003628208
0.0002342401
0.000680902
0.001150754
0.001638233
0.002140425
0.002667779
0.003227694
0.003824758
0.0002209211
0.000672291
0.001182422
0.001684686
0.002208148
0.002755689
0.003338186
0.003963834
0.0002337051
0.0006992064
0.001207011
0.001718428
0.002250087
0.002807846
0.00340038
0.004039457
0.0002452929
0.0007192613
0.001215704
0.001732152
0.002263108
0.002822813
0.003413712
0.004051971
0.0002446366
0.0007126396
0.001213695
0.001724103
0.002249867
0.002800561
0.00337835
0.004000513
0.0002390505
0.0006995789
0.00119683
0.001698391
0.00221265
0.002747427
0.003301603
0.003893855
0.0002333523
0.0006863396
0.001170434
0.001657634
0.002153809
0.0026644
0.003184135
0.003731589
0.0002237078
0.000665006
0.001136202
0.001608322
0.002086055
0.002571886
0.003050889
0.003542783
0.0002175356
0.0006443306
0.001095095
0.001549516
0.00200552
0.002461925
0.0028955
0.003318448
0.0001968702
0.0006083783
0.001050435
0.001495546
0.001941002
0.002389011
0.002785033
0.003149351
0.0001669278
0.0005554173
0.000996127
0.001427892
0.00187158
0.002308381
0.002693665
0.002991856
0.00026821
0.0005529623
0.0006582374
0.0008484878
0.0009786076
0.001101165
0.001182958
2.174926e-05
0.0002973811
0.0004916416
0.0006870636
0.0008563114
0.001003312
0.001127273
0.001215885
8.812998e-05
0.0003210312
0.00051017
0.0007134463
0.0008958433
0.001053094
0.001188288
0.001288265
8.477269e-05
0.0003086424
0.0005446073
0.0007566086
0.0009554522
0.001130401
0.001281594
0.001399683
0.0001112719
0.0003479031
0.0005906641
0.0008199872
0.001037169
0.001233186
0.001406448
0.001548811
0.0001145634
0.0003713064
0.000641448
0.0008925697
0.001136172
0.001359488
0.001562372
0.001736445
0.0001275478
0.000407681
0.0007029652
0.0009807053
0.001252725
0.001508301
0.001746593
0.001961018
0.000139926
0.0004430016
0.0007670111
0.001076325
0.001381392
0.001674443
0.001955645
0.002216994
0.0001549568
0.0004844508
0.0008381799
0.001180108
0.001520537
0.001855062
0.002184731
0.002503465
0.0001681671
0.000523687
0.0009080856
0.001284013
0.001662076
0.002039586
0.002421802
0.00279836
0.000181286
0.0005630769
0.0009778664
0.001387024
0.001802592
0.002224167
0.00266119
0.003103717
0.0001911771
0.0005974558
0.001041802
0.001481749
0.001932457
0.002394599
0.002880494
0.003382015
0.00019764
0.000626654
0.001098948
0.001565252
0.002047369
0.002545494
0.003074321
0.003630524
0.0002069614
0.0006560759
0.001147655
0.001634584
0.002141223
0.00266744
0.003228569
0.003825885
0.0002142957
0.0006796551
0.001183058
0.001684623
0.002209606
0.002755724
0.003339113
0.003964792
0.0002169901
0.0006924239
0.001207076
0.001716759
0.002251298
0.002807578
0.003400936
0.004039877
0.0002180703
0.0006916145
0.001211854
0.001727878
0.002263782
0.002821953
0.003414095
0.004052079
0.0002212777
0.0006967035
0.001210879
0.001721073
0.002250464
0.002799813
0.003378458
0.004000317
0.0002195021
0.0006898776
0.001195366
0.001696071
0.002213461
0.002746488
0.003301635
0.003893571
0.0002127682
0.000673997
0.001168785
0.001655421
0.002154561
0.002663653
0.003183735
0.003730646
0.0002053398
0.0006554754
0.001135539
0.001605677
0.002086178
0.002569711
0.003050211
0.003542315
0.0001979919
0.000633533
0.001095151
0.001548816
0.00200651
0.00246158
0.002893899
0.003315356
0.0001836057
0.0006038601
0.001050085
0.001489874
0.001937982
0.002381596
0.002782228
0.003150092
0.0001706997
0.0005749664
0.001001572
0.001432706
0.001872314
0.002311137
0.002689129
0.002980455
0.0002682025
0.0005522843
0.0006570566
0.0008496795
0.0009764378
0.001102542
0.001183703
2.07119e-05
0.0002947017
0.0004873774
0.000686149
0.0008561367
0.001002822
0.001128217
0.00121678
8.929257e-05
0.0003209358
0.0005055566
0.000711816
0.0008944149
0.00105214
0.0011884
0.001288561
8.304634e-05
0.0003037448
0.0005387908
0.0007539488
0.0009534445
0.00112953
0.001281389
0.001399902
0.0001121248
0.0003438666
0.0005842923
0.0008173227
0.00103472
0.001232359
0.001406158
0.001549148
0.0001152583
0.0003663274
0.0006343453
0.0008894644
0.001133443
0.001358767
0.001562213
0.001737168
0.0001300832
0.0004043737
0.0006956189
0.0009775941
0.001249806
0.001507617
0.001746526
0.0019621
0.0001418065
0.0004405434
0.0007602938
0.001072782
0.001378476
0.001673731
0.001955691
0.002218373
0.0001561236
0.000481595
0.0008309105
0.001175996
0.001517442
0.001854232
0.002184761
0.002505104
0.0001685459
0.000520923
0.000901191
0.001279609
0.001659003
0.002038559
0.002421521
0.0027997
0.0001811879
0.0005604047
0.0009709671
0.001382281
0.001799499
0.002223029
0.002660956
0.003105017
0.0001922945
0.0005962591
0.001034932
0.001476767
0.00192911
0.002393083
0.002879409
0.00338242
0.000202474
0.0006283229
0.001091721
0.00156071
0.002043837
0.002543929
0.003073253
0.003630314
0.0002097516
0.0006537135
0.001138122
0.001628894
0.002136854
0.00266543
0.003227068
0.003825471
0.0002129362
0.0006705474
0.001172187
0.001678786
0.002204937
0.002753659
0.003337525
0.003963918
0.0002184022
0.000684994
0.001194792
0.001710545
0.002246138
0.002805238
0.00339929
0.004039033
0.0002220046
0.0006912844
0.001203013
0.001722111
0.002259124
0.002819733
0.003412482
0.004051118
0.0002210547
0.0006893883
0.001199178
0.001714121
0.002245255
0.002797222
0.003376814
0.00399933
0.000217775
0.000679405
0.001182347
0.001688889
0.002207774
0.002744097
0.003299992
0.003892738
0.0002136566
0.000666213
0.001156524
0.001648685
0.002149086
0.002661128
0.003182104
0.003729722
0.0002067652
0.0006470138
0.00112273
0.001599251
0.002080719
0.002567953
0.003048962
0.003541863
0.0001990488
0.000624608
0.001082445
0.00154213
0.002000606
0.002459007
0.002892106
0.003314534
0.0001871871
0.0005957801
0.001037513
0.001484778
0.00193367
0.00238143
0.002781832
0.00314984
0.0001731052
0.0005634611
0.0009870655
0.001425502
0.001865145
0.002307566
0.002685768
0.002979503
0.0002684688
0.0005531398
0.0006567512
0.0008503046
0.0009760192
0.001101427
0.001184709
2.005626e-05
0.0002947748
0.0004875187
0.0006861074
0.000856214
0.001002596
0.001128072
0.001216891
8.927628e-05
0.0003211372
0.0005057762
0.0007117831
0.000894618
0.001052094
0.001188139
0.001288894
8.315816e-05
0.0003038892
0.0005388437
0.0007539484
0.0009534735
0.001129508
0.00128146
0.001400026
0.000112004
0.0003438008
0.0005842734
0.0008172399
0.001034779
0.00123242
0.00140624
0.001549413
0.0001150921
0.0003663148
0.0006343898
0.0008894036
0.001133524
0.001358858
0.001562423
0.001737477
0.0001288712
0.0004030979
0.0006952674
0.0009772477
0.001249806
0.001507733
0.001746818
0.001962548
0.0001413366
0.000440022
0.0007600755
0.001072581
0.001378521
0.001673914
0.001956091
0.002218939
0.0001563122
0.0004817575
0.0008307663
0.001175912
0.001517562
0.001854499
0.002185327
0.002505875
0.0001680307
0.0005203108
0.0009007313
0.001279257
0.001658998
0.002038757
0.002422106
0.00280043
0.0001796466
0.0005591721
0.000970508
0.001381735
0.001799618
0.002223227
0.002661704
0.003105995
0.0001895267
0.0005936479
0.001034077
0.001475883
0.001929052
0.00239314
0.002880017
0.003382927
0.0002001311
0.0006266551
0.001091744
0.001560373
0.002044155
0.002544101
0.003073857
0.003630825
0.0002106141
0.0006552479
0.001138989
0.001629464
0.002137282
0.002665807
0.003227575
0.003825885
0.0002160899
0.0006740815
0.001173326
0.001679831
0.002205462
0.002754036
0.003337944
0.003964214
0.0002191732
0.0006862203
0.001195426
0.001711045
0.002246456
0.002805554
0.003399567
0.004039289
0.0002205953
0.0006899474
0.001203016
0.001722032
0.002259321
0.002819819
0.003412712
0.004051287
0.0002184118
0.0006873202
0.001199065
0.001713668
0.002245389
0.002797301
0.003376867
0.00399936
0.0002219952
0.0006831669
0.001183139
0.001689656
0.002207926
0.002744299
0.003300296
0.003893093
0.0002130385
0.0006657995
0.001157022
0.001649047
0.002149496
0.002661372
0.003181861
0.003729338
0.0002066024
0.0006459534
0.001122292
0.001597887
0.002080165
0.002567971
0.003049877
0.003543242
0.0002002617
0.000626495
0.001084838
0.00154438
0.002002338
0.002459484
0.002890929
0.003312476
0.0001862252
0.0005924878
0.001035285
0.001478731
0.001930897
0.002381116
0.002785275
0.003155186
0.0001767206
0.0005697691
0.0009931452
0.00143296
0.001870762
0.00230822
0.002682086
0.002971995
0.000268717
0.000553383
0.0006589443
0.0008481021
0.0009779479
0.00110107
0.001181765
2.003135e-05
0.0002970193
0.000491517
0.0006869071
0.0008559266
0.001002705
0.001127178
0.001214634
8.770921e-05
0.0003202266
0.0005098313
0.0007132719
0.0008958103
0.001052755
0.001188036
0.001288483
8.445927e-05
0.0003077555
0.000543996
0.0007563357
0.0009551879
0.00113025
0.00128176
0.001399734
0.0001106207
0.0003465865
0.0005898808
0.0008196254
0.001037011
0.00123323
0.001406797
0.001549473
0.0001147513
0.0003702745
0.0006403722
0.0008923189
0.001135927
0.001359753
0.001562984
0.001737422
0.0001292992
0.0004083107
0.0007017687
0.0009805061
0.001252478
0.001508718
0.00174741
0.001962404
0.0001415329
0.0004425675
0.0007654896
0.001076233
0.001381052
0.001675064
0.001956631
0.002218822
0.0001549357
0.0004814685
0.0008358984
0.001179873
0.001520182
0.001855844
0.002185982
0.00250577
0.0001674494
0.0005221445
0.0009069674
0.001283702
0.001662161
0.002040312
0.00242299
0.00280076
0.0001779965
0.0005621678
0.0009785777
0.001386605
0.001803461
0.002225078
0.002662871
0.003106526
0.0001894178
0.000600272
0.001043509
0.001481023
0.001933402
0.002395133
0.002881377
0.003384133
0.0002032386
0.0006353858
0.001101888
0.00156711
0.00204891
0.002546612
0.003075464
0.003632059
0.0002059462
0.000654266
0.001146827
0.001634533
0.002141579
0.002668011
0.003229192
0.003827284
0.0002117497
0.00067617
0.001183692
0.00168558
0.002210446
0.002756523
0.003339668
0.003965524
0.0002168246
0.0006909286
0.001206397
0.001717097
0.002251632
0.002808004
0.003401364
0.004040622
0.0002200054
0.0006966553
0.00121431
0.001728443
0.002264466
0.002822435
0.003414463
0.004052588
0.0002202566
0.0006968849
0.00121041
0.001720048
0.002250517
0.002799796
0.00337857
0.004000618
0.0002176834
0.0006810132
0.001191417
0.001695598
0.002212231
0.002746984
0.003301841
0.003894455
0.0002173131
0.0006762613
0.001168513
0.001656091
0.002154316
0.002664015
0.003183545
0.003730803
0.0002127378
0.0006604889
0.001135683
0.001605443
0.00208546
0.002570863
0.003051132
0.003544496
0.0002055509
0.0006379793
0.001095712
0.001550303
0.002006271
0.002462217
0.002893403
0.003315315
0.0001881406
0.0006042015
0.001047577
0.001484346
0.001935562
0.002383413
0.002783529
0.003154165
0.0001710299
0.0005707649
0.0009973785
0.001429538
0.001869645
0.00231081
0.00268785
0.002980859
0.000266024
0.0005392903
0.00065181
0.0008417738
0.00096111
0.001079474
0.001174146
2.570845e-05
0.0002985395
0.0004923886
0.0006865237
0.0008564463
0.001003171
0.001129286
0.001217411
0.000100318
0.0003228638
0.0005113807
0.0007134687
0.0008961968
0.001052356
0.001186835
0.00129008
9.823541e-05
0.0003147882
0.0005450432
0.0007571521
0.0009547712
0.001130304
0.001282147
0.001400113
0.0001172551
0.0003484621
0.0005895348
0.0008195707
0.001036139
0.001232971
0.001406364
0.001549214
0.0001219505
0.0003724348
0.0006408954
0.0008927298
0.001135162
0.001359499
0.001562611
0.001736497
0.0001334438
0.0004051121
0.0007012394
0.0009804456
0.001251327
0.001508308
0.001746741
0.001960847
0.0001551568
0.0004527023
0.0007672351
0.001078139
0.001380225
0.001674951
0.001956036
0.002216956
0.0001794231
0.0005058687
0.0008394355
0.001183779
0.001519734
0.001855955
0.002185336
0.002503291
0.0001879854
0.0005413177
0.0009102655
0.001286784
0.001661596
0.002040498
0.002422703
0.002798886
0.0001951143
0.0005767248
0.0009817816
0.001388993
0.001803132
0.002225075
0.002662291
0.003104061
0.0001993245
0.0006026791
0.001045102
0.001481865
0.00193277
0.002395203
0.002881506
0.00338267
0.0002159451
0.000643949
0.001106417
0.001569014
0.00204904
0.002546881
0.003075211
0.003630433
0.0002348093
0.0006883129
0.001154816
0.00164006
0.002142409
0.002669133
0.003229454
0.00382673
0.0002413973
0.0007006694
0.001186593
0.001690159
0.002210097
0.002757479
0.003339562
0.003965027
0.0002406469
0.0007083397
0.001209514
0.001720671
0.002251382
0.002809004
0.003401407
0.0040406
0.0002394048
0.0007062544
0.001216591
0.001731226
0.002263844
0.002823406
0.003414499
0.004052803
0.000224726
0.000694085
0.001214465
0.001720551
0.002250645
0.00280045
0.003378669
0.004000799
0.0002629256
0.0007253547
0.001193922
0.00170188
0.002211258
0.002748755
0.0033025
0.003895733
0.000233309
0.0006831813
0.001171463
0.001658659
0.002154842
0.002665328
0.003183425
0.003730664
0.0002300022
0.0006611532
0.001134256
0.001602571
0.00208285
0.002573439
0.003054686
0.003549418
0.0002318956
0.0006559768
0.001103307
0.001557706
0.002010799
0.002464285
0.00289151
0.003312064
0.0001988124
0.0005936661
0.001041355
0.001465825
0.001927248
0.002392542
0.002800123
0.003173645
0.0001882002
0.000589637
0.001014087
0.001454356
0.001890546
0.002312152
0.002677976
0.002963393
0.0002821325
0.0004923837
0.0007031568
0.0009873128
0.001098628
0.001285174
0.001503655
0.001512433
3.361077e-05
0.0003176218
0.0005101321
0.0006867658
0.0008517963
0.001004156
0.001126288
0.001206088
5.426217e-05
0.0003237783
0.0005281418
0.0007174419
0.0008999239
0.001053043
0.001184547
0.001289818
5.842426e-05
0.0003353781
0.0005661042
0.000762918
0.0009589051
0.00113165
0.001282266
0.001398203
5.922819e-05
0.0003542842
0.0006136085
0.0008240808
0.00104247
0.001234568
0.001407268
0.001548986
6.888296e-05
0.0003769926
0.00066609
0.000897978
0.001141818
0.001361488
0.001563892
0.001736179
9.118085e-05
0.0004093391
0.000728605
0.0009860298
0.001258714
0.001510564
0.001748286
0.001960595
0.0001235516
0.0004793101
0.0007831236
0.001087629
0.001386233
0.001677906
0.001957411
0.00221681
7.203565e-05
0.0005488516
0.0008514264
0.001195956
0.00152554
0.00185949
0.002186885
0.002502977
6.766638e-05
0.0005868651
0.0009262772
0.001299707
0.001668545
0.002044418
0.002424743
0.002799543
5.145221e-05
0.0005868109
0.001010684
0.001399098
0.001812062
0.002229171
0.002664719
0.00310468
0.0001553116
0.0006087747
0.001080794
0.001490845
0.001943193
0.002399499
0.002884621
0.003384839
0.0001725831
0.0006982721
0.001138187
0.00158514
0.00205975
0.002552358
0.003078621
0.003632721
3.235596e-05
0.0007229286
0.001176532
0.001653108
0.002152022
0.002674272
0.003232945
0.003829234
0.0001801636
0.0007044046
0.001227493
0.001700638
0.002222292
0.002762744
0.00334338
0.003967487
0.0001656933
0.0007338807
0.001254132
0.001733535
0.002264482
0.002814504
0.003405401
0.00404301
8.633779e-05
0.0007315061
0.001259373
0.001744658
0.002276587
0.002829028
0.003418397
0.004055156
0.0001754205
0.0007120907
0.001255246
0.001732723
0.002263387
0.002805972
0.003382494
0.00400307
0.0001268872
0.0007806834
0.001217555
0.001720082
0.002221476
0.002755016
0.003305843
0.003898017
4.323757e-05
0.0007273154
0.001212129
0.001675128
0.00216699
0.002671371
0.003187186
0.003733323
0.0001787524
0.0007271167
0.001188097
0.001621268
0.002097396
0.002579473
0.003057243
0.003550958
-2.178483e-05
0.0007432312
0.001143803
0.001575274
0.002021332
0.002470774
0.002896924
0.003317811
0.0001860515
0.0006315697
0.001098607
0.001478503
0.001941637
0.002396051
0.002794625
0.00316913
8.571934e-05
0.0005917601
0.001045533
0.001438321
0.001886431
0.002319337
0.002693968
0.002988397
0.0002514689
0.0003899092
0.0007767626
0.001068397
0.001206787
0.001405178
0.001661513
0.001705109
1.189996e-05
0.0003151808
0.000495256
0.0006827283
0.0008388394
0.0009891057
0.001123094
0.001191237
1.386765e-05
0.0003356627
0.0005201065
0.0007174545
0.0008968647
0.001052535
0.001181923
0.00128827
2.019165e-05
0.000352231
0.0005512798
0.0007643245
0.0009554055
0.00113079
0.001282599
0.001397208
9.349115e-06
0.0003688005
0.0005986951
0.0008247386
0.001038405
0.001233536
0.001405391
0.001547105
1.821673e-05
0.0003939061
0.0006535744
0.0008989011
0.001138078
0.001360336
0.001562236
0.001733951
-2.508895e-05
0.0004313751
0.0007122065
0.0009874112
0.001254139
0.0015092
0.001746006
0.001957589
9.969253e-05
0.0004913109
0.0007698944
0.001087974
0.001381955
0.001676301
0.001954987
0.00221348
9.297994e-05
0.0005634808
0.0008357491
0.001196605
0.001520914
0.001857595
0.002184027
0.002498693
-2.312946e-05
0.0005962917
0.0009130539
0.001299299
0.001663929
0.002042411
0.002421891
0.002795483
-4.484265e-05
0.0005972971
0.000993759
0.001397872
0.001807114
0.002226708
0.002661136
0.00309939
-7.778153e-05
0.0006148302
0.001060004
0.001489012
0.001937638
0.002397092
0.002881536
0.003380343
-0.0001444867
0.000690385
0.001130466
0.001582381
0.002055387
0.002549766
0.003074865
0.003627703
-2.66789e-05
0.0007232834
0.001179679
0.001651695
0.002148848
0.002672065
0.003229568
0.003824874
-8.790378e-06
0.000759724
0.001190229
0.001704947
0.0022145
0.002760919
0.003339233
0.003963114
-5.731837e-05
0.0007687111
0.001221478
0.001735333
0.002257374
0.002812551
0.003401392
0.00403889
-7.104835e-05
0.0007505652
0.001233284
0.001745353
0.002269114
0.002827038
0.003414309
0.004051234
-0.0001123166
0.0007049057
0.001258894
0.001730405
0.002259758
0.002803769
0.003378798
0.003999167
-0.0006035116
0.0008166007
0.001164705
0.001720692
0.002211054
0.002753366
0.003302188
0.003895109
-8.627713e-05
0.000750798
0.001184054
0.00167499
0.002160853
0.002669669
0.003183014
0.003729245
-0.0001182977
0.0006948007
0.001146621
0.001609106
0.002085366
0.002579972
0.003057633
0.003552685
-6.115673e-05
0.0007112937
0.001120692
0.001574306
0.002019822
0.002470109
0.00288977
0.003309307
-6.741482e-05
0.000597612
0.001055796
0.001429761
0.001912097
0.002418209
0.002822193
0.003197815
-6.773325e-05
0.0006287638
0.001041531
0.001473914
0.001924055
0.002326696
0.002662661
0.002947156
0.0001715368
0.0002118641
1.332608e-05
0.0001635978
0.0002527978
0.0003985272
0.0002471108
0.0004995386
0.0002528642
0.0003803394
0.0004996228
0.0005970098
0.0005411659
0.00080713
0.0004288961
0.0005538072
0.0007135496
0.0007999132
0.0007801015
0.0009840419
0.0006044909
0.0007326267
0.0009214756
0.0009998836
0.0009881958
0.001223416
0.0007919201
0.0009018734
0.001140287
0.001185088
0.001189472
0.001419171
0.0009342287
0.001041854
0.001253419
0.001293503
0.001359883
0.001542954
0.001086426
0.001162285
0.001399255
0.001410949
0.001546595
0.001625368
0.001157247
0.001225355
0.001443607
0.001601666
0.001244452
0.000127968
0.0002025687
1.278188e-05
0.0001272262
4.074641e-05
0.0002202032
9.662927e-05
0.0002493006
1.671513e-05
8.430583e-05
5.290783e-05
0.0002652385
6.270056e-05
0.0003181741
-3.956588e-06
6.03552e-05
7.116991e-05
0.0003061624
2.436041e-05
0.0003538279
1.511657e-05
2.401509e-05
6.655523e-05
0.0003554315
-4.418248e-06
0.0004179266
1.180977e-05
-1.713723e-06
7.160278e-05
0.0004175999
-3.573849e-05
0.0004770468
-2.582842e-05
-2.355466e-05
6.966522e-05
0.0004907056
-6.32812e-05
0.000549608
-3.190663e-05
-5.131193e-05
0.0001105074
0.000562291
-0.0001053837
0.0006427865
-3.98331e-05
-7.608524e-05
7.673858e-05
0.0006670067
-0.0001389326
0.0007197213
-5.435109e-05
-0.0001181527
8.576628e-05
0.0007514049
-0.0001881183
0.0008013107
-6.865662e-05
-0.0001636698
8.307979e-05
0.0008437638
-0.0002446596
0.0008938736
-8.366623e-05
-0.0002157218
8.364988e-05
0.0009352453
-0.0003049692
0.0009872304
-9.691103e-05
-0.0002794034
8.225515e-05
0.00103488
-0.0003748322
0.001081336
-0.0001088464
-0.0003488359
9.029616e-05
0.001114256
-0.0004525509
0.001238089
-0.0001015812
-0.0004220693
9.353181e-05
0.001211162
-0.0004881144
0.001262156
-8.562061e-05
-0.0004920558
9.899641e-05
0.00127416
-0.0005635268
0.001343935
-6.586043e-05
-0.0005599791
0.0001563829
0.001375063
-0.0007033207
0.001516149
-8.090716e-05
-0.0006619961
0.0001991399
0.001511001
-0.0007245806
0.001515842
-4.232021e-05
-0.0007028009
0.0002652453
0.001582515
-0.000874635
0.001652862
2.804204e-05
-0.0008263491
0.0002746116
0.001676869
-0.0009107293
0.001651154
5.98188e-06
-0.0008723295
0.0003028312
0.001703156
-0.001053691
0.001747496
2.196661e-06
-0.0009804997
0.0003080556
0.001794816
-0.001130659
0.001758781
-5.480277e-05
-0.00106686
0.0002130884
0.001748521
-0.001258267
0.001894115
-0.000163269
-0.001225667
0.0002121347
0.001872628
0.0001901496
1.503644e-05
0.0001689054
0.0001878696
4.907808e-06
0.0001644104
0.0001673339
4.253799e-06
0.0001464091
0.0001811065
3.789626e-06
0.0001434352
0.0001743136
5.376535e-06
0.0001402521
0.0001826008
3.344075e-06
0.0001394115
0.0001726772
5.08238e-06
0.0001400505
0.0001833851
3.462869e-06
0.0001395628
0.0001819684
4.238704e-06
0.0001396499
0.0001827376
3.813614e-06
0.0001397951
0.000183329
3.983731e-06
0.0001393877
0.0001737
3.820516e-06
0.0001403525
0.0001803871
4.369292e-06
0.0001447373
0.000167976
3.982443e-06
0.0001474308
0.0001876681
5.028568e-06
0.0001669115
0.0001909221
1.318969e-05
0.0001699984
0.0001981932
1.268232e-05
0.0001599232
0.0001713015
0.0004356512
0.0002370842
0.000380561
0.000252306
0.0004106921
0.0007795737
0.0004326345
0.0005603242
0.0005111424
0.0006036613
0.001026882
0.00060883
0.0007347029
0.0007398791
0.0008411858
0.001222453
0.0008004688
0.00090311
0.0008961717
0.001029214
0.001480382
0.0009351485
0.001049714
0.001152402
0.001131907
0.001562513
0.001065254
0.001169326
0.001370769
0.001397923
0.001232081
0.00149681
0.000101437
6.716768e-05
0.0002698417
0.0001079922
0.0002456697
4.521112e-05
5.884085e-05
0.000305889
4.679163e-05
0.0002887698
2.751979e-05
6.738103e-05
0.0003579338
3.025797e-05
0.0003815693
8.888065e-06
8.431727e-05
0.000449091
1.629438e-05
0.0004432245
-7.166493e-05
7.156276e-05
0.0006328497
-0.0001356734
0.000568569
-0.0001092328
9.997492e-05
0.0007407606
-0.0001582916
0.000695306
-0.0001832389
0.0001055438
0.0008351161
-0.0002078994
0.0008656272
-0.000222546
-2.470423e-05
0.0008046347
-0.0001719654
0.000919001
-0.0002487094
0.0002779445
0.00114518
-0.000275251
0.001117563
-0.0001581863
0.0003659394
0.001241647
-0.0003162789
0.001064828
-0.0004313676
0.0001406132
0.001177812
-0.0005072718
0.001182463
-0.0005074802
0.000153459
0.00126342
-0.0005086811
0.001222764
-0.0005836322
0.0002362423
0.001460767
-0.0006085803
0.001534685
-0.0005217351
0.0003156707
0.00148779
-0.0004112422
0.001582976
-0.0007639877
0.0003249378
0.001431451
-0.0009370857
0.001194486
-0.0009144104
0.000151072
0.001668005
-0.0009554252
0.001695147
-0.0008862122
0.0002372346
0.001686744
-0.0008806548
0.001633346
-0.00100022
0.0003071399
0.001843609
-0.001058702
0.001807743
-0.001057409
0.0003319262
0.00184586
-0.001120101
0.001776692
-0.00114347
0.0003340963
0.001912627
-0.001209076
0.001851136
6.434536e-05
6.871899e-05
0.000276983
0.000221658
0.0002161171
0.0002758735
0.000472452
0.000441889
0.000424359
0.0004509446
0.0006240957
0.0006676583
0.000635837
0.0006095224
0.0008179137
0.0008809335
0.0008307317
0.0007703971
0.0009575467
0.001062305
0.0009896155
0.0008812527
0.001044943
0.001227049
0.001155161
0.001031031
0.001133727
0.001335609
0.001253817
0.001052434
0.001431143
0.001359683
9.668749e-05
-2.785925e-07
3.002487e-06
9.463915e-05
0.0001111043
-7.216181e-05
-6.473732e-05
0.0001156072
0.0001127663
-0.0001442648
-0.0001452958
0.0001211484
0.0001335308
-0.0001922064
-0.0002033147
0.0001668948
0.0001105935
-0.0002656404
-0.0002889846
0.0001835933
0.0001326658
-0.0003298846
-0.0003587715
0.0002217894
0.0001514957
-0.0004114037
-0.0004422811
0.0002540895
0.0001662126
-0.0005162968
-0.000552966
0.0002694794
0.0001854676
-0.0005973291
-0.0006390402
0.0003202694
0.0001958338
-0.0007081802
-0.0007546708
0.0003539007
0.000209161
-0.0008304264
-0.0008763373
0.0003857892
0.000215396
-0.0009600436
-0.001013875
0.0004217005
0.0002442358
-0.001113102
-0.001156485
0.0004524632
0.0002277961
-0.001279763
-0.001323848
0.0004628531
0.0003226574
-0.001328309
-0.001405032
0.0006285517
0.0002628444
-0.001523442
-0.001615348
0.0006219221
0.0002709464
-0.001770978
-0.001838799
0.0005652142
0.0003303215
-0.001805673
-0.001905748
0.000731716
0.000378988
-0.002052781
-0.00215395
0.000675169
0.0004116679
-0.002101365
-0.002213743
0.0008069117
0.0004375419