/*--------------------------------*- C++ -*----------------------------------*\
  =========                 |
  \\      /  F ield         | OpenFOAM: The Open Source CFD Toolbox
   \\    /   O peration     | Website:  https://openfoam.org
    \\  /    A nd           | Version:  7
     \\/     M anipulation  |
\*---------------------------------------------------------------------------*/
FoamFile
{
    version     2.0;
    format      ascii;
    class       volScalarField;
    location    "0.1";
    object      Ux;
}
// * * * * * * * * * * * * * * * * * * * * * * * * * * * * * * * * * * * * * //

dimensions      [0 1 -1 0 0 0 0];

internalField   nonuniform List<scalar> 
109978
(
0.009023478
0.01804911
0.0269528
0.03570466
0.04455926
0.05314684
0.008020477
0.01769401
0.02688288
0.03574729
0.04449314
0.05304183
0.007019714
0.01736328
0.02675594
0.03569185
0.04453255
0.05328736
0.006118206
0.01716315
0.02671214
0.03575351
0.04463871
0.05341431
0.005413027
0.01697219
0.02672227
0.0358379
0.04480071
0.05360308
0.004702789
0.01674784
0.02676154
0.03596242
0.04497556
0.05384671
0.003958701
0.016563
0.02683416
0.03611785
0.04519005
0.05410688
0.003178949
0.01645747
0.0269536
0.03630662
0.04543865
0.05440467
0.002440447
0.0163731
0.02708462
0.0365169
0.04571728
0.05474072
0.001800916
0.01631772
0.02717052
0.03674384
0.0460251
0.0551142
0.001164465
0.01627124
0.027339
0.03700912
0.04636577
0.05552329
0.0005114555
0.01621609
0.02749717
0.03729764
0.04673581
0.05596764
-0.0001188123
0.01617554
0.02767269
0.03759794
0.04713124
0.05644392
-0.0007276524
0.01615413
0.02788415
0.03789331
0.04755419
0.05695308
-0.001304481
0.01615204
0.02811131
0.03828174
0.04801188
0.05749387
-0.001847361
0.0161543
0.02835349
0.03860895
0.04848014
0.05806195
-0.002351611
0.01617289
0.02864112
0.03897278
0.04895322
0.05865583
-0.002823715
0.01622702
0.02891262
0.03937853
0.04950015
0.05928941
-0.003275342
0.01628426
0.02920567
0.03978794
0.05004778
0.05993189
-0.003714713
0.01634262
0.02950343
0.04021466
0.05055889
0.06058889
-0.004138512
0.01640931
0.02982947
0.04066054
0.05109976
0.06124628
-0.004526874
0.01647779
0.030167
0.04112412
0.05168529
0.06198229
0.01738061
0.01653011
0.03050874
0.04158828
0.05226298
0.06271228
0.01048759
0.01840411
0.02714717
0.0358527
0.04457935
0.0533448
0.0016962
0.01301126
0.02151957
0.03029327
0.03894759
0.04765042
0.00213293
0.01302994
0.02150913
0.03032913
0.03908948
0.0478525
0.002037715
0.01297234
0.02162351
0.03038202
0.03915297
0.04790625
0.002076007
0.01303486
0.02163269
0.03047337
0.039283
0.048079
0.002174636
0.01311228
0.02165998
0.03057577
0.03941496
0.04824168
0.002259266
0.01326771
0.0216936
0.03072503
0.03957071
0.04846343
0.002338793
0.01338626
0.02172383
0.03088206
0.03974681
0.04870128
0.00238539
0.01350694
0.02178917
0.03106415
0.03995482
0.04897898
0.00246408
0.0135869
0.02187475
0.03125089
0.04018851
0.04928022
0.002507189
0.01368412
0.0219972
0.03146068
0.04045529
0.04961741
0.002577234
0.01380198
0.02211818
0.03168506
0.0407409
0.04998146
0.002650319
0.01393437
0.02225663
0.03193297
0.04105451
0.05037865
0.002712336
0.01407788
0.02240426
0.03219686
0.04139161
0.05080383
0.00274744
0.01423079
0.02256911
0.03247905
0.04175187
0.05126025
0.002754621
0.0143941
0.02275431
0.03278056
0.04213435
0.05173855
0.002726271
0.0145535
0.02295629
0.03309757
0.04253956
0.05224473
0.002731941
0.01472413
0.02316367
0.03342615
0.04295857
0.05277384
0.002763607
0.01490221
0.02337848
0.03376831
0.04339696
0.05332496
0.002829891
0.01510225
0.02359089
0.03412224
0.04385145
0.05389362
0.002873201
0.01530454
0.02382064
0.03448622
0.04432136
0.05448077
0.00291202
0.01551809
0.0240581
0.03485108
0.04480125
0.05507924
0.002939187
0.01573238
0.02430475
0.03522068
0.04529204
0.05569503
0.0007572876
0.01595869
0.02457187
0.03559088
0.04579117
0.05632291
0.0105322
0.01862714
0.02751981
0.03646615
0.04533615
0.05425574
0.001584541
0.01304033
0.02176794
0.03039149
0.03901827
0.04770866
0.002653634
0.01278976
0.02166422
0.03028937
0.03915115
0.04790276
0.002588684
0.01276973
0.02157238
0.03041503
0.03922484
0.04795241
0.002652545
0.01273501
0.02180536
0.0304567
0.03936044
0.04810736
0.002827113
0.01282196
0.02192546
0.03061031
0.03951223
0.04827787
0.00305523
0.01300588
0.0219468
0.03076222
0.03966674
0.04849364
0.00319866
0.01315211
0.02201059
0.03093504
0.03985425
0.04873771
0.003358602
0.01324095
0.02212165
0.03111947
0.04007373
0.04901547
0.003478189
0.01328833
0.02224253
0.0313102
0.04031924
0.04932164
0.003599831
0.01335628
0.02239219
0.03152247
0.04059414
0.04966079
0.003696451
0.01344506
0.0225442
0.03175264
0.04089206
0.05002978
0.003814379
0.01355207
0.02272079
0.03200476
0.04121559
0.05043038
0.003964803
0.01365973
0.02290888
0.03227286
0.04156075
0.05085915
0.004139347
0.01378208
0.0231023
0.03256068
0.04192731
0.05131605
0.004299556
0.01390998
0.0233004
0.03286465
0.04231326
0.05179914
0.00448591
0.01405204
0.02350108
0.03318619
0.04271621
0.05230692
0.004631667
0.01420627
0.02371222
0.03352356
0.04313832
0.05283749
0.004763166
0.01437058
0.02393744
0.03387556
0.04357878
0.05338947
0.004834575
0.0145347
0.02419162
0.03424027
0.04403863
0.05396086
0.004979117
0.0147103
0.02444509
0.0346172
0.04451189
0.05454898
0.005154108
0.01487875
0.02471579
0.03500454
0.04500211
0.05515322
0.005354084
0.0150496
0.02497988
0.03539985
0.04550014
0.05576894
0.005423649
0.01521439
0.02526232
0.03580282
0.04601404
0.05639741
0.01037395
0.01868479
0.02754007
0.03651207
0.0452744
0.05411605
0.001557634
0.01296202
0.02187889
0.03039678
0.03897619
0.04765365
0.002353057
0.01256408
0.0216736
0.03013742
0.03913827
0.0478875
0.002477566
0.01255674
0.02139975
0.03035736
0.03919042
0.04792827
0.002421679
0.0125219
0.02184253
0.03035613
0.03936183
0.04809238
0.002654498
0.01255892
0.02195035
0.03057222
0.03952124
0.04826679
0.002871341
0.01279868
0.02203004
0.03073634
0.03967187
0.04848749
0.003121923
0.01300096
0.02206657
0.03090605
0.03985128
0.04873177
0.003365794
0.01313393
0.02214942
0.03109398
0.04006286
0.0490098
0.003549315
0.01320597
0.02225921
0.03128343
0.04030115
0.04931399
0.003475813
0.01327645
0.02240267
0.03149346
0.04057085
0.04965115
0.003607067
0.01337303
0.02254309
0.0317213
0.04086176
0.05001733
0.003767493
0.01348488
0.02271163
0.03197228
0.0411797
0.05041544
0.003877635
0.01359427
0.02289641
0.03223841
0.04152119
0.05084142
0.00400982
0.01372125
0.02308666
0.03252481
0.04188542
0.05129631
0.004165957
0.01384342
0.02330216
0.03282641
0.04227251
0.05177675
0.004369302
0.01397203
0.02352337
0.03314412
0.04267845
0.05228356
0.004532261
0.01410062
0.02375537
0.03347533
0.04310226
0.05281254
0.004685085
0.01422527
0.02399821
0.0338213
0.04354284
0.05336337
0.004985085
0.0144132
0.024218
0.03418078
0.04399751
0.05393312
0.005083307
0.01458653
0.02447124
0.03455293
0.04446717
0.05452089
0.00514961
0.01475908
0.02473612
0.03493426
0.04494973
0.05512347
0.005366547
0.01500404
0.02494784
0.03532885
0.04543417
0.05573891
0.005459943
0.01517929
0.02521849
0.03571958
0.04593539
0.0563647
0.01041649
0.01867446
0.02759583
0.03650863
0.04533565
0.0541467
0.001530127
0.01294776
0.02192557
0.03037196
0.03897629
0.04766667
0.002482575
0.01248684
0.02166411
0.03003731
0.0391554
0.04787913
0.002260522
0.01254294
0.02120124
0.03032994
0.03919377
0.04793301
0.002407092
0.01248957
0.02182069
0.03031096
0.03937839
0.04808939
0.002411605
0.01252784
0.02194193
0.03056928
0.03954891
0.04827309
0.002704606
0.0127364
0.02205094
0.03073106
0.03969843
0.04849244
0.003012175
0.01295606
0.0220832
0.03090484
0.03987957
0.04873933
0.003294954
0.01307573
0.02217897
0.03109209
0.04009418
0.04901757
0.003448351
0.01310284
0.02231866
0.03127908
0.04033782
0.04932281
0.003487156
0.01318679
0.02247056
0.03148868
0.04061166
0.04966034
0.003366252
0.01327825
0.02261716
0.03171591
0.04090643
0.05002711
0.003484417
0.01336915
0.02280724
0.03196475
0.04122975
0.05042558
0.003604745
0.01347563
0.02299017
0.03223073
0.04157301
0.05085232
0.003703583
0.01359312
0.02318851
0.03251672
0.04193926
0.05130732
0.003820764
0.01373258
0.0233806
0.03282048
0.04232322
0.05178894
0.003943678
0.01385447
0.02360575
0.03313795
0.0427296
0.05229598
0.004050537
0.01398575
0.0238297
0.03347029
0.04315322
0.0528254
0.004138677
0.01409404
0.02408476
0.03381425
0.04359664
0.05337605
0.004289336
0.01421085
0.02435299
0.03417515
0.04405676
0.05394739
0.004786524
0.01444188
0.02456965
0.03455234
0.04452479
0.05453504
0.004920383
0.01462504
0.02483501
0.03493995
0.04501308
0.05514081
0.004940832
0.01477952
0.02509915
0.03532578
0.04550541
0.05575442
-0.0008061293
0.01494462
0.02537128
0.03572784
0.04602078
0.05638798
0.01037844
0.01867774
0.02757085
0.03644983
0.04515306
0.05406881
0.001519301
0.01294355
0.02192183
0.03037747
0.03898292
0.04766254
0.002119904
0.01248973
0.02166329
0.03003822
0.03915434
0.04787965
0.001925503
0.01254817
0.02120477
0.03033135
0.039194
0.0479331
0.002044222
0.01249718
0.02181497
0.03031166
0.03937745
0.04808966
0.002193682
0.01252292
0.02193787
0.03056893
0.03954807
0.04827309
0.002347168
0.01273914
0.02205059
0.03073186
0.03969815
0.04849262
0.00272196
0.01296141
0.02207814
0.03090531
0.03987867
0.04873947
0.003006802
0.01308446
0.02217279
0.0310924
0.04009332
0.04901762
0.003183932
0.01311543
0.02230405
0.03127904
0.04033604
0.04932286
0.003181059
0.01318647
0.02244808
0.03148934
0.04060799
0.04966045
0.003253924
0.01326681
0.02260595
0.03171508
0.04090411
0.05002705
0.003375058
0.01336959
0.02278105
0.03196587
0.04122519
0.05042587
0.00349686
0.0134764
0.0229697
0.03223207
0.04156935
0.05085242
0.003631201
0.01359637
0.02316584
0.03251815
0.04193541
0.05130775
0.003737786
0.01371564
0.02338222
0.03281986
0.04232249
0.05178878
0.003866498
0.01384083
0.02360222
0.03313789
0.04272764
0.05229596
0.003970646
0.0139646
0.02383687
0.03346953
0.04315177
0.05282486
0.004144181
0.01410129
0.02406788
0.03381661
0.04359097
0.05337534
0.004358783
0.0142776
0.02429793
0.03417496
0.04404705
0.05394461
0.004445477
0.01445562
0.0245448
0.03454554
0.04451614
0.05453157
0.004573488
0.01461323
0.02481289
0.03492495
0.04499868
0.05513317
0.004634701
0.01478761
0.02505082
0.03531052
0.04548503
0.05574621
-0.0007757598
0.01495576
0.02531569
0.03569899
0.04598048
0.05636635
0.01043755
0.01870101
0.02757335
0.03648318
0.04530343
0.0540798
0.00153303
0.01296102
0.02187992
0.030389
0.03897854
0.04765857
0.002271097
0.01256389
0.02167458
0.03013567
0.03913791
0.04788503
0.001981136
0.01255408
0.02140295
0.03035761
0.0391919
0.04792853
0.001855631
0.01252352
0.0218431
0.03035884
0.03936212
0.04809273
0.002369724
0.01256009
0.02195174
0.03057344
0.0395219
0.04826743
0.002394255
0.01279742
0.02202913
0.03073666
0.03967265
0.04848816
0.002821686
0.01299491
0.02207027
0.03090706
0.03985294
0.04873291
0.003162758
0.01313315
0.02215454
0.03109488
0.04006563
0.04901119
0.003536146
0.01319415
0.02226837
0.03128258
0.04030566
0.04931544
0.003495501
0.01323361
0.02243115
0.03148982
0.04057901
0.04965279
0.003607387
0.01330637
0.0225925
0.03171526
0.04087326
0.05001911
0.00375386
0.01342685
0.02276116
0.03196656
0.04119293
0.05041742
0.00398324
0.01354847
0.02294125
0.03223364
0.04153453
0.05084368
0.004099983
0.013666
0.02313786
0.0325196
0.04189976
0.0512985
0.004352852
0.01379848
0.02334567
0.03282209
0.04228564
0.05177912
0.004474746
0.01394233
0.02355732
0.03314044
0.04269064
0.05228566
0.004648925
0.01409056
0.02378413
0.03347283
0.04311424
0.05281502
0.004707583
0.01424877
0.02400851
0.03381884
0.04355312
0.05336498
0.004885748
0.01438858
0.02427152
0.03417913
0.0440124
0.05393591
0.004930143
0.01456672
0.02450096
0.03454923
0.04447698
0.05452076
0.005135511
0.01475581
0.02475926
0.03493828
0.0449671
0.05512805
0.005172768
0.01494285
0.02499933
0.03531323
0.04544687
0.05572992
-0.0008164755
0.01518471
0.02526095
0.03573741
0.04598875
0.05638202
0.0104505
0.01857582
0.02748607
0.03642704
0.04533202
0.05416192
0.001547192
0.01303953
0.02176988
0.03039016
0.03901857
0.04770919
0.002613272
0.01279031
0.02166261
0.03028815
0.0391506
0.04790182
0.002597685
0.01277126
0.02157268
0.03041571
0.03922496
0.04795264
0.002619973
0.01273848
0.02180083
0.03045783
0.0393601
0.04810772
0.002818098
0.01282714
0.02191888
0.03061167
0.03951192
0.04827866
0.003016782
0.01300856
0.02194575
0.03076442
0.03966729
0.04849486
0.003326219
0.01316304
0.02200719
0.03093837
0.03985501
0.04873935
0.003627825
0.01325587
0.0221193
0.03112331
0.04007589
0.04901758
0.00386588
0.01329946
0.02224739
0.03131397
0.04032285
0.0493241
0.003983726
0.01334773
0.02242148
0.03152588
0.04060147
0.04966384
0.004148571
0.01343149
0.02258341
0.0317561
0.04090162
0.05003325
0.004321371
0.01353785
0.0227643
0.03200901
0.04122653
0.05043425
0.004485031
0.01365001
0.02294935
0.03227757
0.04157201
0.05086319
0.004630567
0.01376447
0.02315269
0.03256547
0.0419399
0.05132037
0.004765407
0.01390667
0.02334107
0.03286954
0.04232459
0.05180307
0.004898642
0.01405235
0.02353881
0.03319102
0.04272642
0.05231064
0.005032049
0.01421328
0.02373751
0.03352685
0.04314565
0.05284001
0.005158487
0.01436938
0.02395747
0.03387654
0.04358313
0.05339104
0.005336855
0.01454189
0.02418247
0.03423632
0.04403688
0.05395984
0.005520179
0.0147015
0.02444162
0.03460735
0.04450688
0.05454546
0.005668853
0.01487198
0.02469875
0.03498601
0.04498596
0.0551427
0.005821712
0.01502775
0.02497469
0.03536862
0.04547178
0.05574875
-0.001340876
0.01519189
0.02522684
0.03574173
0.04594403
0.05634123
0.01061271
0.01860472
0.02738624
0.03624233
0.04503762
0.05376383
0.001577963
0.01300956
0.02152018
0.03029104
0.03894536
0.04764846
0.002485809
0.01303142
0.02150775
0.03032855
0.03908855
0.04785197
0.002592788
0.01297302
0.02162307
0.03038202
0.03915272
0.04790574
0.00273357
0.01303605
0.02163267
0.03047392
0.0392832
0.04807936
0.00284821
0.01311245
0.02166425
0.03057741
0.0394164
0.04824268
0.002899978
0.01326987
0.02169977
0.03072723
0.03957291
0.04846495
0.002977821
0.01338925
0.02173518
0.03088577
0.03975052
0.04870349
0.003106036
0.01350967
0.02180466
0.03106831
0.03996004
0.0489819
0.00322335
0.0135844
0.02189527
0.03125551
0.04019538
0.04928358
0.003345924
0.01367551
0.02202733
0.0314654
0.04046472
0.0496216
0.003453132
0.01379286
0.02215425
0.03169038
0.04075246
0.04998645
0.003541328
0.0139248
0.02229963
0.03193874
0.04106813
0.05038424
0.00364165
0.01406731
0.02244769
0.03220318
0.04140567
0.05081
0.00373069
0.01421781
0.02261706
0.03248521
0.0417668
0.05126642
0.003817649
0.01438041
0.02280029
0.03278647
0.04214852
0.05174461
0.003916014
0.01453888
0.02300031
0.03310231
0.04255302
0.05225015
0.004020018
0.01470741
0.02320417
0.03342999
0.04297152
0.05277927
0.004128851
0.01488006
0.02341522
0.03376805
0.04340671
0.05332833
0.004248898
0.01508607
0.02361768
0.03412129
0.04386082
0.05389688
0.004350188
0.01528933
0.02383067
0.0344741
0.04431981
0.05447486
0.004429327
0.0155154
0.0240674
0.03484555
0.0448106
0.05507776
0.004498007
0.01571355
0.02429415
0.03517364
0.04526177
0.05564316
-0.001162698
0.01597502
0.02459935
0.03560574
0.04586978
0.05633546
0.008470851
0.02010258
0.03050446
0.04087778
0.05101165
0.06112116
0.000130414
0.009551695
0.01861458
0.02753945
0.0363098
0.04514661
0.05401613
0.0004323703
0.008749548
0.01828325
0.0272484
0.03614277
0.04496044
0.05373867
0.0001635589
0.008233925
0.01813541
0.02718867
0.03611185
0.0449576
0.05373612
8.203689e-06
0.007853983
0.01805217
0.02719648
0.03618032
0.04504862
0.05384606
-0.0001707551
0.007591386
0.01798649
0.0272473
0.03628797
0.04520003
0.05402252
-0.0002826071
0.007386232
0.01794208
0.02734121
0.03642701
0.04538968
0.05425727
-0.0003976374
0.007181451
0.01790615
0.02747145
0.03659526
0.04561334
0.0545226
-0.0004949122
0.006999555
0.01789735
0.02763498
0.03679296
0.04586734
0.05482905
-0.0006677394
0.00682367
0.01793249
0.02779057
0.03701013
0.046149
0.05516939
-0.0008178779
0.006659609
0.01800229
0.02794282
0.03725153
0.04645997
0.05554481
-0.0009602818
0.006519989
0.0180724
0.02811832
0.03753346
0.04680466
0.0559555
-0.001043092
0.006411754
0.01816154
0.02831551
0.03784638
0.04718005
0.0564005
-0.001142082
0.00632442
0.01826645
0.02854338
0.03816361
0.0475799
0.05687712
-0.001120014
0.006240622
0.01838441
0.02878875
0.03850146
0.04800864
0.0573867
-0.001009485
0.006154522
0.0185039
0.0290534
0.03884119
0.04847553
0.05792948
-0.0008903852
0.006073827
0.01863568
0.02934435
0.0391938
0.04896369
0.05850113
-0.0008742439
0.006026011
0.01877771
0.02963438
0.03958208
0.04946379
0.05909894
-0.0009116876
0.005994012
0.01893321
0.02993832
0.039993
0.04998866
0.05972143
-0.001118203
0.005990643
0.01910489
0.03026211
0.04042038
0.05051788
0.06038062
-0.001192562
0.005988552
0.01930135
0.03060238
0.04086733
0.05106848
0.06106101
-0.001156862
0.005980581
0.01952713
0.0309683
0.0413392
0.05165351
0.06174962
-0.001010509
0.005974445
0.01977175
0.03134778
0.04183769
0.05227644
0.06245932
-0.0008906325
0.01737265
0.02479933
0.03350136
0.04325087
0.0537094
0.06383374
0.008275875
0.008922991
0.0003014944
0.006541098
0.008772709
0.01855171
0.008481759
0.01803135
0.009913162
0.01531143
0.01838174
0.02860302
0.02010701
0.02785629
0.01873623
0.02416112
0.02778168
0.03839814
0.0305024
0.03861533
0.02749421
0.0328648
0.03741108
0.04817247
0.04087593
0.04847416
0.03623215
0.04149584
0.04704738
0.05788582
0.05100388
0.05804158
0.0449702
0.05014663
0.05671117
0.06110749
0.05346011
0.005807918
0.009349266
0.0001314871
0.005949397
0.001196713
0.007073789
0.004325466
0.01067988
0.0004355739
0.005639268
0.001440947
0.007835317
0.003239123
0.01172204
0.000153119
0.005352181
0.001299618
0.008599649
0.002169214
0.01260441
1.018711e-05
0.00506949
0.001525194
0.009170773
0.001177034
0.01345959
-0.0001770979
0.004762498
0.001683881
0.009616659
0.0001455303
0.01437406
-0.0002821731
0.00453093
0.001713159
0.01005953
-0.0008618615
0.01513321
-0.0003953283
0.004382644
0.001760409
0.01045273
-0.001820815
0.01593565
-0.0005024746
0.004332385
0.001754566
0.01087371
-0.002705845
0.01659532
-0.0006625714
0.004149833
0.001705456
0.01129336
-0.003602136
0.01720697
-0.0008197008
0.003971281
0.001809956
0.01175737
-0.004479125
0.01772428
-0.0009670717
0.003826721
0.001818777
0.01222319
-0.005332179
0.0181749
-0.001070424
0.003707043
0.001795862
0.01267088
-0.006131303
0.01855218
-0.001179626
0.003603809
0.001770666
0.01311335
-0.006912254
0.018884
-0.001262996
0.003518673
0.001774004
0.01353078
-0.007645665
0.01918159
-0.001240704
0.003432519
0.001847435
0.01394381
-0.008348683
0.01943641
-0.001058039
0.003337788
0.001883394
0.01433324
-0.008987453
0.0196493
-0.00102534
0.003241848
0.001908092
0.01473891
-0.009595008
0.01981335
-0.001061579
0.003136359
0.001847432
0.01513721
-0.01016006
0.01992732
-0.001174823
0.003067721
0.001828506
0.01552175
-0.01071381
0.02000083
-0.001195557
0.00300434
0.001753812
0.01587749
-0.01121161
0.02003299
-0.001166089
0.002962487
0.00186842
0.01622549
-0.01169176
0.02001192
-0.001023992
0.002908459
0.001925511
0.01653099
-0.01214072
0.008398509
-0.000919897
0.002885117
0.001967962
0.01680809
0.007986416
0.0006269475
0.006329939
0.00839598
0.0004130728
0.006385586
0.008418152
0.0004195704
0.006322673
0.008387115
0.0004051277
0.006287568
0.008343298
0.0004290545
0.006246564
0.008281079
0.0004167296
0.006220433
0.008249253
0.0004564212
0.006210854
0.00826055
0.0004423404
0.006190026
0.008240247
0.0004552785
0.006201876
0.008286159
0.0004521725
0.006189068
0.008306334
0.0004120317
0.006217255
0.008338522
0.0004327196
0.006238141
0.008383275
0.0003945653
0.006280038
0.008417394
0.000427002
0.006323529
0.008389233
0.0004114176
0.006388194
0.007976233
0.0006227591
0.006330383
0.00892001
0.0003018015
0.006542869
0.008276698
0.0180349
0.009913338
0.01532025
0.008790167
0.01855806
0.02785289
0.01873662
0.02415016
0.01837784
0.02861169
0.04849807
0.03623768
0.04149295
0.03741158
0.04817399
0.05807372
0.04497488
0.05014535
0.04705129
0.05788711
0.05346528
0.05671489
0.005948876
0.001192078
0.007073672
0.005809328
0.009345723
0.005641005
0.001479225
0.007841614
0.00432739
0.01068489
0.005069852
0.001544254
0.009163506
0.002170945
0.01260163
0.004535153
0.001739997
0.01005647
0.0001460967
0.01436466
0.004389396
0.001784889
0.01045008
-0.0008680872
0.01513192
0.004331513
0.00178328
0.01086511
-0.001819249
0.01593654
0.004150427
0.001694687
0.01125272
-0.002712119
0.01659617
0.003966215
0.001789502
0.01164575
-0.00360138
0.01720244
0.003823792
0.001791584
0.01207515
-0.004490488
0.01773338
0.00370275
0.00179576
0.01251725
-0.005327934
0.0181706
0.003601268
0.001770944
0.01295307
-0.006144341
0.01855413
0.003514603
0.001830061
0.0133726
-0.006908063
0.01889937
0.003429599
0.001884631
0.013777
-0.007645207
0.0191843
0.003226543
0.001916696
0.01457357
-0.008993956
0.01965749
0.003120127
0.001844547
0.0150012
-0.009584197
0.01980801
0.003049922
0.001762259
0.01543362
-0.01017124
0.01993849
0.00299496
0.001777348
0.01583243
-0.01070051
0.02001872
0.002906194
0.001922991
0.01648444
-0.01170106
0.0199972
0.002884198
0.00197434
0.01675253
-0.01215045
0.0256368
0.00262044
0.003745015
0.003465768
0.001673361
0.001773226
0.004449536
0.004249064
0.0002611475
0.0006553937
0.005555572
0.004995685
-0.001008618
-1.157694e-05
0.006279037
0.005701716
-0.002244725
-0.0006135889
0.006780676
0.006354558
-0.003413294
-0.001297635
0.007289245
0.006989236
-0.004544601
-0.001924922
0.007656826
0.007631545
-0.00565507
-0.002468998
0.007905291
0.008344646
-0.00659317
-0.002840129
0.008042066
0.008966344
-0.007444687
-0.003270095
0.008184382
0.009599934
-0.008293981
-0.003637196
0.008246526
0.01019361
-0.008941317
-0.004042135
0.008269849
0.01077573
-0.009558777
-0.004420956
0.008241855
0.01133912
-0.01012968
-0.004781869
0.008181747
0.01186003
-0.0106795
-0.00507302
0.008020859
0.01233419
-0.01113988
-0.005344776
0.007841995
0.01278824
-0.01154167
-0.005554784
0.00759221
0.01322057
-0.01188334
-0.005767623
0.007335312
0.01363016
-0.01220346
-0.005903763
0.006984046
0.01401596
-0.01246026
-0.006050243
0.006620706
0.01437121
-0.01271354
-0.006160302
0.006160688
0.01469295
-0.0129031
-0.0062784
0.005724945
0.01498314
-0.01303013
-0.006336636
0.005201653
0.01526523
-0.01308442
-0.006376826
0.004682102
0.002644953
0.002673951
0.002689725
0.002753332
0.00278169
0.002802728
0.002789548
0.002807338
0.002806573
0.002791788
0.002849539
0.002794389
0.002822888
0.002769952
0.002742266
0.002688672
0.002603897
0.002469217
0.03865704
0.02749492
0.03286366
0.02777994
0.03840543
0.005353739
0.001308821
0.008598861
0.003239328
0.01171932
0.004763889
0.001718324
0.009608569
0.001177077
0.013459
0.003327948
0.001923525
0.01416449
-0.008350637
0.01943061
0.002951837
0.001853172
0.01618834
-0.01121
0.02002777
0.002301821
0.004149892
0.00303077
0.002485126
0.002601657
0.002457966
0.001971952
0.005390807
0.00428129
0.001323056
0.001696309
0.006666686
0.005369964
0.0003479769
0.001310616
0.00772507
0.006412749
-0.0007748541
0.0009590839
0.008529094
0.007278066
-0.001870138
0.0006162047
0.009128571
0.008111296
-0.002824127
0.0003005763
0.00958167
0.008893526
-0.003829799
4.408374e-05
0.009910244
0.009595243
-0.004789317
-4.738242e-05
0.01013409
0.01027607
-0.005762625
-0.0001382063
0.01029071
0.01093867
-0.006573893
-0.0001827575
0.0104341
0.01155539
-0.00734851
-0.0001869403
0.01051481
0.01216011
-0.008044334
-0.0001582286
0.01054811
0.01273125
-0.00869193
-0.0001109241
0.01052073
0.01328274
-0.00927654
-8.800882e-05
0.01043669
0.01378975
-0.00982383
-6.315848e-05
0.01031121
0.01427856
-0.01029437
-4.188899e-05
0.01014243
0.01471525
-0.01076791
1.646617e-05
0.009931131
0.01513726
-0.01116631
9.497363e-05
0.009665843
0.01551295
-0.01156515
0.0002025002
0.009325273
0.01587181
-0.01188977
0.0003162306
0.008899193
0.01617562
-0.0122124
0.0004461527
0.008450404
0.01647698
-0.01244089
0.0005636316
0.007945115
0.01673521
-0.01267444
0.000730329
0.002024122
-0.01282977
0.01700029
0.002751521
0.002712691
0.002731414
0.002774257
0.002817572
0.002797537
0.002777573
0.002791218
0.002837779
0.002802279
0.00281321
0.002793668
0.002766221
0.002751754
0.002638885
0.002680026
0.002623165
0.00374438
0.004399783
0.009183686
0.007369122
0.003874428
0.03761188
0.0411511
0.03631614
0.04279475
0.03945083
0.04945461
0.04341621
0.04374712
0.003468282
0.00167484
0.001768406
0.004452718
0.001971666
0.005392917
0.004281398
0.001324523
0.004249565
0.0002550166
0.0006672875
0.005545418
0.001705737
0.006672699
0.005379648
0.0003479622
0.0009538592
0.00853227
0.007278615
-0.001873838
0.006984502
-0.004541232
-0.001922321
0.007656523
0.0002997822
0.009575978
0.008890332
-0.003830358
0.007629193
-0.00565417
-0.002473771
0.007897199
4.821798e-05
0.009910011
0.009600502
-0.004799866
0.008336059
-0.006581993
-0.002855478
0.008041473
-5.627936e-05
0.01013599
0.01026812
-0.005760801
0.008955021
-0.007458011
-0.00327388
0.008161786
-0.000149556
0.01028978
0.01093203
-0.00658832
0.009588033
-0.008297902
-0.003655316
0.008233565
-0.0002042046
0.01042264
0.01154159
-0.00734393
0.01017807
-0.008970075
-0.004050404
0.008236011
0.01075891
-0.009547208
-0.004441982
0.008234548
-0.0001891684
0.01053599
0.01270515
-0.008680159
0.01131799
-0.01015373
-0.004787187
0.008152076
-0.0001342613
0.010507
0.01326201
-0.009301123
3.271978e-06
0.009915099
0.01510672
-0.01117804
0.01360282
-0.01219906
-0.005933289
0.006988531
7.71998e-05
0.009656241
0.01548277
-0.01155959
0.01496817
-0.01302217
-0.006338897
0.005199713
0.0005542017
0.007946708
0.01672745
-0.01268346
0.01525516
-0.01308843
-0.006379734
0.004679929
0.0007180062
0.007422372
-0.01283755
0.01699109
-0.0007791952
0.001794453
-0.0008196638
0.002858217
0.002847801
-0.01489228
-0.001248483
-0.006379239
-0.0131163
-0.00639247
0.0007256972
0.0008299489
0.0006251852
0.0002692125
0.000167953
0.00078139
0.000619487
-4.226256e-05
-0.0002445135
0.0008860204
0.0007650952
-0.0003384996
-0.0006414388
0.001021294
0.0009201628
-0.0006075232
-0.00107344
0.0011289
0.001037899
-0.000868735
-0.001466521
0.001219699
0.001111939
-0.001113764
-0.001847836
0.001310257
0.001194436
-0.001325412
-0.002190298
0.00139693
0.001244805
-0.001506657
-0.002493838
0.0014786
0.001251407
-0.001672778
-0.0027642
0.001516323
0.001296026
-0.001805073
-0.002989374
0.001543053
0.001300198
-0.001926041
-0.003209818
0.001549398
0.001321018
-0.00202391
-0.00342566
0.001560666
0.001357497
-0.002111366
-0.003633494
0.001552866
0.001413394
-0.002175298
-0.003799557
0.001555853
0.001470122
-0.002234287
-0.00397347
0.001539743
0.001528217
-0.00227283
-0.004119262
0.001535888
0.001587479
-0.00230985
-0.0042672
0.001519596
0.001666586
-0.0023257
-0.004374335
0.001528442
0.001745184
-0.002338762
-0.004483286
0.001531097
0.00184073
-0.002332666
-0.004549727
0.001548136
0.00193945
-0.002334535
-0.004622202
0.00154498
0.002058603
-0.002323071
-0.00464918
0.001550839
0.00218042
-0.00231182
-0.004680213
0.001549586
0.00075773
0.0009116472
0.0008429556
0.0008557481
0.0006897534
0.0009687738
0.0007626008
0.0008753893
0.0007626597
0.0009407646
0.0008351416
0.0009671405
0.0009031324
0.0007527537
0.0008776343
0.0007864615
0.0007895924
0.0008207245
0.0009836746
0.000963129
0.001030747
0.0004379216
0.0008237558
0.0007517792
0.001217788
0.00141057
0.001435708
0.0002901391
0.00137377
0.001722816
0.001722532
8.948969e-05
0.001679576
0.001947425
0.002036331
-0.0001146946
0.001896443
0.00214008
0.002273806
-0.0002731346
0.002120283
0.002300533
0.002478286
-0.0003828593
0.00233081
0.002416298
0.002652388
-0.0004746829
0.002489957
0.002502766
0.002784535
-0.0005459008
0.002648338
0.002573888
0.002914976
-0.0005862997
0.002798503
0.002645073
0.003036978
-0.0006070054
0.002920061
0.002691324
0.003124653
-0.0006155052
0.003036027
0.002726422
0.003193947
-0.0006063187
0.003160682
0.002748501
0.003249088
-0.0005737145
0.003276008
0.00275764
0.003296343
-0.0005188394
0.003401412
0.002754712
0.003327845
-0.000431758
0.003521316
0.002737382
0.00334458
-0.0003331323
0.003644127
0.002709966
0.003344144
-0.0002260089
0.003750248
0.002670028
0.003327685
-0.0001271146
0.003859734
0.002625912
0.003291047
-2.341034e-05
0.003961809
0.002576763
0.003234906
7.651921e-05
0.004072366
0.002523415
0.003151345
0.0001867944
0.004171271
0.002454238
0.003038316
0.0002877521
0.004267246
0.002380356
0.002903917
0.0003983989
0.002752075
0.002304343
0.004376356
0.0004971074
0.0008325015
0.0008523574
0.0009849613
0.0006795015
0.000838079
0.0007894058
0.000861262
0.0007905165
0.0009674213
0.0007624126
0.0007143566
0.0009230769
0.0007070271
0.0009455818
0.0007056933
0.0009202181
0.0007395746
0.0008455383
0.002302614
0.004152337
0.003031032
0.002484907
0.01143944
0.008904943
0.009032156
0.01352321
0.01333234
0.01942981
0.01654571
0.01372059
0.0202221
0.02015944
0.01826183
0.02349516
0.02225039
0.0297113
0.02566402
0.02379383
0.03517261
0.03513136
0.0366435
0.03523095
0.03994185
0.04268208
0.04496534
0.04012875
0.04610789
0.05117207
0.04518905
0.05211764
0.04792084
0.05903509
0.0521283
0.05336836
0.05441326
0.06096261
0.05391673
0.0006254536
0.0002690828
0.0007806422
0.0001671991
0.001214738
0.001411935
0.00143509
0.0002903291
0.0006305591
-4.042654e-05
0.0008784737
-0.0002412038
0.001369649
0.001723885
0.001718138
8.801209e-05
0.005698329
-0.002245696
-0.0006112365
0.006787427
0.002330608
0.002419665
0.002653233
-0.000471294
0.001194968
-0.001323731
0.001396319
-0.00219391
0.002500863
0.002507546
0.002788712
-0.0005408555
0.002656694
0.002572484
0.002915823
-0.0005862701
0.001261079
-0.001670184
0.001519023
-0.002761951
0.001310233
-0.001921589
0.001553667
-0.003208649
-0.0002118502
0.01051453
0.01214559
-0.008067301
0.001307789
-0.002025893
0.001559486
-0.003439975
0.003154713
0.002747133
0.003247099
-0.0005738615
0.01184836
-0.01069667
-0.005099342
0.008028443
-0.000101153
0.01044068
0.01378058
-0.009829832
0.01232014
-0.01116923
-0.005352178
0.007834464
-8.49561e-05
0.01030203
0.01426153
-0.0103183
0.013204
-0.01191799
-0.005759067
0.007309661
0.01399529
-0.01248232
-0.006056386
0.00658546
0.0001976861
0.009327938
0.0158591
-0.01194309
0.01436498
-0.01271334
-0.006179132
0.006178528
0.0003134517
0.008938395
0.01617853
-0.01221999
0.002302769
0.002754612
0.004376281
0.0004904897
0.0008146325
0.0007375623