/*--------------------------------*- C++ -*----------------------------------*\
  =========                 |
  \\      /  F ield         | OpenFOAM: The Open Source CFD Toolbox
   \\    /   O peration     | Website:  https://openfoam.org
    \\  /    A nd           | Version:  7
     \\/     M anipulation  |
\*---------------------------------------------------------------------------*/
FoamFile
{
    version     2.0;
    format      ascii;
    class       volScalarField;
    location    "0.1";
    object      Uy;
}
// * * * * * * * * * * * * * * * * * * * * * * * * * * * * * * * * * * * * * //

dimensions      [0 1 -1 0 0 0 0];

internalField   nonuniform List<scalar> 
109978
(
-0.008974388
-0.007927617
-0.006868854
-0.005917616
-0.005147358
-0.004287591
-0.01802833
-0.01762918
-0.01723358
-0.01692899
-0.01661119
-0.01621952
-0.02694237
-0.0268084
-0.02658834
-0.02640783
-0.02623313
-0.02604923
-0.03575721
-0.03572415
-0.03553564
-0.0354087
-0.03525123
-0.03507493
-0.04473278
-0.04456971
-0.04443175
-0.04429576
-0.04415505
-0.04395916
-0.05348316
-0.05326572
-0.0533092
-0.05314448
-0.05296459
-0.05276692
-0.06220479
-0.06197234
-0.06224513
-0.06204611
-0.06182959
-0.06158634
-0.07101267
-0.07085386
-0.07119225
-0.0709733
-0.07072698
-0.07044091
-0.07997931
-0.07988131
-0.08018186
-0.07995875
-0.07968642
-0.0793647
-0.08901042
-0.08904388
-0.08914953
-0.08900678
-0.08870191
-0.08834497
-0.09814451
-0.09830599
-0.09825969
-0.09811018
-0.09778395
-0.09739546
-0.1073626
-0.1076307
-0.1073786
-0.1072918
-0.1069379
-0.1065178
-0.1166571
-0.1170426
-0.1165649
-0.1165498
-0.1161708
-0.1157194
-0.1260256
-0.1265494
-0.1258949
-0.1258635
-0.1254907
-0.1250053
-0.1354614
-0.1361685
-0.1353204
-0.1353861
-0.1348788
-0.1343778
-0.1449463
-0.1458729
-0.1449075
-0.1448043
-0.144388
-0.1438499
-0.1545139
-0.1556737
-0.1546771
-0.1543104
-0.1540132
-0.1534239
-0.1641686
-0.165563
-0.1645184
-0.1639786
-0.1638562
-0.1630866
-0.1739342
-0.1755345
-0.1744732
-0.1737894
-0.1736992
-0.1728641
-0.1838115
-0.1855881
-0.1845365
-0.1837322
-0.1834947
-0.1827742
-0.1937951
-0.19577
-0.1947499
-0.1937781
-0.1933926
-0.192826
-0.2038782
-0.2060562
-0.2050837
-0.203933
-0.2034184
-0.2031664
-0.2239804
-0.2164668
-0.2155487
-0.2142053
-0.2136371
-0.2134589
-0.001665959
-0.002099796
-0.002005421
-0.002072021
-0.002168412
-0.002165494
-0.01054473
-0.01296279
-0.01297188
-0.01284305
-0.01282735
-0.01280773
-0.0184745
-0.02149998
-0.02140822
-0.02141564
-0.0213168
-0.02119831
-0.02724177
-0.0302921
-0.03023532
-0.03016388
-0.030085
-0.02997311
-0.03601106
-0.0390318
-0.03906713
-0.03897982
-0.03887393
-0.03872097
-0.0448484
-0.04786598
-0.04794446
-0.04779811
-0.04769783
-0.04751394
-0.05373958
-0.05671957
-0.05683935
-0.0566524
-0.05654119
-0.05632449
-0.06263154
-0.06567237
-0.06576569
-0.06557518
-0.06543674
-0.06519589
-0.07151741
-0.07468174
-0.07471597
-0.07452901
-0.07435883
-0.07409308
-0.08044668
-0.08376649
-0.08373654
-0.08355592
-0.08335362
-0.08306168
-0.08936341
-0.09287039
-0.09281669
-0.09262413
-0.09239718
-0.09207837
-0.09844101
-0.1020237
-0.1019736
-0.1017613
-0.1015173
-0.1011696
-0.1075851
-0.111263
-0.1112007
-0.1109731
-0.1107062
-0.1103304
-0.1168021
-0.1205775
-0.1205039
-0.1202609
-0.1199766
-0.1195722
-0.1260933
-0.1299836
-0.1298868
-0.1296287
-0.1293233
-0.1288954
-0.1354962
-0.1394799
-0.1393544
-0.1390868
-0.1387575
-0.1383089
-0.1449585
-0.1490479
-0.1489117
-0.1486318
-0.1482892
-0.1478179
-0.1545135
-0.1586972
-0.1585593
-0.1582669
-0.1579129
-0.1574206
-0.1641451
-0.1684383
-0.1683048
-0.1680019
-0.1676342
-0.1671206
-0.1739006
-0.1782984
-0.1781539
-0.1778456
-0.1774622
-0.1769325
-0.1837787
-0.188277
-0.1881008
-0.1877968
-0.1873992
-0.1868588
-0.1937885
-0.1983534
-0.1981512
-0.197854
-0.1974451
-0.1968959
-0.203858
-0.2085539
-0.2083126
-0.2080236
-0.2076038
-0.2070478
-0.2190259
-0.2188666
-0.2185922
-0.21831
-0.2178806
-0.2173207
-0.001574482
-0.002617133
-0.002588614
-0.002618236
-0.002770019
-0.002963794
-0.01063704
-0.01297732
-0.01272851
-0.0126142
-0.01251351
-0.0125202
-0.01873596
-0.02174342
-0.02155668
-0.02141034
-0.02149377
-0.02143046
-0.02765274
-0.03038722
-0.03021246
-0.03018571
-0.03009464
-0.02999193
-0.03665528
-0.03910853
-0.03910835
-0.03905797
-0.03894974
-0.03881187
-0.04567864
-0.04793159
-0.04799108
-0.04784835
-0.04772804
-0.04754313
-0.05469928
-0.05680281
-0.05690154
-0.05670319
-0.05657949
-0.05636202
-0.06371271
-0.0658096
-0.0658173
-0.06562431
-0.06546278
-0.06521804
-0.07273002
-0.07483318
-0.07475979
-0.07458288
-0.07438735
-0.07411873
-0.08181299
-0.0839015
-0.08377871
-0.08360562
-0.08337994
-0.08308572
-0.09097513
-0.09300926
-0.0928649
-0.09267683
-0.09242641
-0.09210435
-0.1002066
-0.1021798
-0.1020285
-0.1018191
-0.1015483
-0.101197
-0.1094977
-0.1114236
-0.1112562
-0.1110278
-0.1107376
-0.1103581
-0.1188837
-0.1207241
-0.1205601
-0.1203112
-0.1200061
-0.1195998
-0.1283591
-0.1301003
-0.1299457
-0.1296744
-0.1293562
-0.1289241
-0.1379338
-0.1395603
-0.1394164
-0.1391242
-0.138793
-0.1383375
-0.1476076
-0.1491209
-0.1489777
-0.1486686
-0.148321
-0.1478443
-0.1573679
-0.1587928
-0.158634
-0.1583128
-0.157947
-0.1574507
-0.1672211
-0.1685865
-0.1683876
-0.1680595
-0.1676735
-0.1671596
-0.1772106
-0.178466
-0.1782429
-0.1779072
-0.1775044
-0.1769745
-0.1872866
-0.1884381
-0.1882023
-0.1878593
-0.1874418
-0.1868962
-0.1974294
-0.1985162
-0.1982704
-0.197922
-0.197493
-0.1969344
-0.2076717
-0.2087048
-0.208445
-0.2080936
-0.2076528
-0.2070826
-0.2180605
-0.219008
-0.2187332
-0.2183845
-0.2179369
-0.2173551
-0.001535924
-0.00232652
-0.002343564
-0.002333325
-0.002562287
-0.002793592
-0.01049465
-0.01294834
-0.01257468
-0.01242522
-0.01227327
-0.01230718
-0.01885409
-0.02187891
-0.02152409
-0.02132783
-0.02153308
-0.02149009
-0.02764111
-0.03039619
-0.03018841
-0.03012926
-0.03005821
-0.02995569
-0.03671781
-0.03903284
-0.03908266
-0.03900653
-0.03895926
-0.03882183
-0.04575432
-0.04786957
-0.04793134
-0.04783715
-0.04773115
-0.04753781
-0.05483468
-0.05671754
-0.05690708
-0.05668173
-0.05657624
-0.05635435
-0.06386748
-0.06573102
-0.06581468
-0.065604
-0.0654615
-0.06521495
-0.07295626
-0.07476385
-0.07475303
-0.07455864
-0.07437953
-0.0741103
-0.0820494
-0.08386083
-0.08377026
-0.08358781
-0.0833747
-0.08308092
-0.0911719
-0.09296557
-0.0928515
-0.09265628
-0.09241754
-0.09209624
-0.1003469
-0.1021335
-0.1020161
-0.1017991
-0.1015407
-0.1011901
-0.1096855
-0.1113883
-0.1112437
-0.1110102
-0.1107292
-0.1103505
-0.1190766
-0.1206992
-0.1205483
-0.1202981
-0.1199988
-0.1195934
-0.1285516
-0.1301008
-0.1299333
-0.1296669
-0.1293488
-0.128918
-0.138115
-0.1395914
-0.1394021
-0.1391236
-0.1387859
-0.1383327
-0.147786
-0.1491556
-0.1489616
-0.1486691
-0.1483159
-0.1478402
-0.1575287
-0.1588206
-0.1586163
-0.1583098
-0.1579425
-0.1574463
-0.1674088
-0.1685484
-0.168371
-0.168048
-0.167669
-0.1671534
-0.1773724
-0.1784059
-0.1782297
-0.1778927
-0.1775017
-0.1769692
-0.1869974
-0.18841
-0.188191
-0.1878459
-0.1874414
-0.1868938
-0.1969448
-0.1984227
-0.1982638
-0.1978982
-0.1974918
-0.1969312
-0.2072815
-0.208603
-0.2084325
-0.2080679
-0.2076513
-0.207082
-0.2178239
-0.218929
-0.2187088
-0.2183541
-0.2179248
-0.21735
-0.001522298
-0.002342584
-0.002176088
-0.002351475
-0.002389332
-0.00265086
-0.01044423
-0.01294282
-0.01253729
-0.01241105
-0.01222039
-0.01225334
-0.01870379
-0.02192449
-0.02150534
-0.02116671
-0.02150984
-0.0215128
-0.02774457
-0.03036955
-0.03020764
-0.03010442
-0.03005401
-0.02994903
-0.03671968
-0.03901907
-0.03909786
-0.03899101
-0.03897728
-0.03884878
-0.0457391
-0.04787538
-0.04792037
-0.04784197
-0.04773998
-0.04754526
-0.0548449
-0.05671949
-0.05691859
-0.05669083
-0.05658634
-0.0563654
-0.06385803
-0.0657478
-0.06582314
-0.06561276
-0.06546745
-0.06522033
-0.07291542
-0.07481884
-0.07475459
-0.0745726
-0.07438482
-0.07411642
-0.08203359
-0.0839123
-0.08377117
-0.08360239
-0.08337891
-0.08308634
-0.09112473
-0.0929904
-0.09285422
-0.09266859
-0.09242134
-0.09210105
-0.1002743
-0.1021733
-0.102017
-0.1018126
-0.1015443
-0.1011949
-0.1096227
-0.1114155
-0.1112443
-0.1110204
-0.1107321
-0.1103544
-0.1190071
-0.1207081
-0.1205501
-0.1203043
-0.1200012
-0.1195965
-0.1284591
-0.1300836
-0.1299372
-0.1296684
-0.1293509
-0.1289202
-0.1380088
-0.139567
-0.1394058
-0.1391226
-0.138788
-0.1383339
-0.1476584
-0.1491483
-0.1489631
-0.1486697
-0.1483168
-0.1478409
-0.157375
-0.158823
-0.1586159
-0.1583127
-0.1579434
-0.157447
-0.1672229
-0.1686145
-0.1683705
-0.1680561
-0.1676696
-0.1671537
-0.177178
-0.1784164
-0.1782369
-0.1778958
-0.177503
-0.1769688
-0.1870139
-0.1883623
-0.1881983
-0.1878415
-0.1874378
-0.1868854
-0.1969967
-0.1984813
-0.1982618
-0.1979073
-0.1974927
-0.1969262
-0.2074375
-0.2086503
-0.2084261
-0.2080665
-0.2076407
-0.207057
-0.223233
-0.2189675
-0.2187205
-0.2183625
-0.2179372
-0.217341
-0.001507079
-0.002335294
-0.002263724
-0.001969824
-0.001942134
-0.002288052
-0.01062116
-0.0129403
-0.01254315
-0.01241857
-0.01222274
-0.01224995
-0.01892982
-0.0219197
-0.02150254
-0.0211668
-0.02151105
-0.0215158
-0.02791692
-0.03036649
-0.03020796
-0.03010447
-0.03005388
-0.02994895
-0.03682606
-0.03902227
-0.03909574
-0.03899093
-0.0389773
-0.03884927
-0.04576062
-0.04788008
-0.04791954
-0.0478431
-0.04774023
-0.04754538
-0.05482174
-0.05671618
-0.0569198
-0.05669107
-0.05658661
-0.05636568
-0.0638883
-0.06574117
-0.06582263
-0.06561219
-0.06546746
-0.06522035
-0.07294833
-0.07480859
-0.07475403
-0.07457182
-0.07438483
-0.07411651
-0.08200955
-0.08389234
-0.08377145
-0.08359927
-0.0833789
-0.08308605
-0.0910683
-0.09299345
-0.09285353
-0.09266807
-0.09242152
-0.09210112
-0.1002432
-0.1021691
-0.1020177
-0.1018117
-0.1015446
-0.101195
-0.1095924
-0.111405
-0.1112471
-0.1110192
-0.1107327
-0.1103546
-0.1189849
-0.120713
-0.1205512
-0.120306
-0.1200019
-0.1195974
-0.1284411
-0.1301103
-0.1299363
-0.1296728
-0.1293519
-0.1289216
-0.1380008
-0.1395903
-0.1394059
-0.1391268
-0.1387896
-0.1383361
-0.1476384
-0.149156
-0.1489656
-0.1486719
-0.1483194
-0.1478437
-0.1573578
-0.1588104
-0.1586223
-0.1583134
-0.1579472
-0.1574513
-0.1672129
-0.1685497
-0.1683769
-0.1680551
-0.1676755
-0.1671611
-0.1771583
-0.1784167
-0.1782357
-0.1779038
-0.1775108
-0.1769797
-0.186946
-0.1884135
-0.1881987
-0.1878581
-0.1874528
-0.1869069
-0.1970571
-0.1984683
-0.1982682
-0.1979179
-0.1975074
-0.196948
-0.2074156
-0.2086385
-0.2084427
-0.2080881
-0.2076719
-0.2071051
-0.2235502
-0.2189543
-0.2187305
-0.2183763
-0.2179521
-0.2173744
-0.001521193
-0.002296443
-0.002280485
-0.002173594
-0.002396308
-0.002431598
-0.01059604
-0.01295
-0.01257791
-0.01243092
-0.012294
-0.01230528
-0.01884723
-0.0218761
-0.02152392
-0.02132431
-0.02152451
-0.02149119
-0.02791607
-0.03039736
-0.03018811
-0.03013025
-0.03006088
-0.0299562
-0.03687415
-0.03903524
-0.03908351
-0.03900767
-0.03895888
-0.03882165
-0.04571586
-0.04786968
-0.04793216
-0.04783816
-0.04773163
-0.04753834
-0.05479325
-0.05672133
-0.05690764
-0.05668345
-0.05657709
-0.05635499
-0.06388081
-0.06574005
-0.06581642
-0.0656072
-0.06546271
-0.06521617
-0.07300699
-0.07477357
-0.07475224
-0.07456311
-0.07438063
-0.07411195
-0.08209156
-0.08389178
-0.08376688
-0.08359537
-0.08337589
-0.08308313
-0.09115973
-0.09301564
-0.09284774
-0.09266579
-0.09241892
-0.09209876
-0.1003358
-0.1021618
-0.1020156
-0.1018063
-0.1015421
-0.1011923
-0.1096702
-0.1113866
-0.1112464
-0.1110136
-0.1107306
-0.1103522
-0.1190584
-0.120703
-0.12055
-0.1203005
-0.1199999
-0.1195947
-0.128516
-0.1300999
-0.1299345
-0.1296676
-0.1293493
-0.1289188
-0.1380879
-0.1395715
-0.1394042
-0.1391218
-0.1387863
-0.1383329
-0.1477215
-0.1491389
-0.1489635
-0.1486674
-0.1483159
-0.1478397
-0.1574391
-0.1587939
-0.1586183
-0.1583077
-0.1579433
-0.1574462
-0.1672342
-0.168573
-0.1683708
-0.1680472
-0.167668
-0.1671497
-0.1769943
-0.1784256
-0.1782322
-0.1778924
-0.1775056
-0.1769696
-0.1870176
-0.1883637
-0.1881904
-0.1878319
-0.1874342
-0.1868769
-0.1971832
-0.1984509
-0.1982636
-0.1979042
-0.1975056
-0.1969358
-0.2075727
-0.2085963
-0.2084215
-0.2080412
-0.2076255
-0.2070184
-0.2228058
-0.2189232
-0.218724
-0.2183574
-0.2179707
-0.217354
-0.00154183
-0.002597942
-0.002577132
-0.00255895
-0.002763936
-0.00296263
-0.01051476
-0.01297714
-0.01273007
-0.01261409
-0.01251549
-0.0125189
-0.01861995
-0.02173968
-0.02155736
-0.02141013
-0.02149243
-0.02143172
-0.02756875
-0.03038456
-0.03021404
-0.03018558
-0.03009503
-0.02999168
-0.03666192
-0.0391051
-0.03910958
-0.03905746
-0.03895031
-0.0388124
-0.04570418
-0.04793629
-0.0479932
-0.04784993
-0.04772918
-0.04754381
-0.05481001
-0.05680771
-0.05690502
-0.05670535
-0.05658101
-0.0563631
-0.06391529
-0.06581108
-0.06582058
-0.06562721
-0.06546444
-0.06521933
-0.07300895
-0.0748459
-0.07476206
-0.07458754
-0.07438922
-0.07412055
-0.08207518
-0.08394027
-0.08378063
-0.08361289
-0.08338206
-0.08308787
-0.09119872
-0.09305163
-0.09286682
-0.09268492
-0.09242878
-0.09210671
-0.1004417
-0.1022
-0.1020312
-0.1018247
-0.1015508
-0.1011993
-0.1097804
-0.1114285
-0.1112595
-0.1110311
-0.1107398
-0.1103599
-0.1191729
-0.1207348
-0.1205629
-0.1203148
-0.1200084
-0.119602
-0.1286477
-0.1301034
-0.1299483
-0.1296774
-0.1293584
-0.1289264
-0.1382434
-0.1395485
-0.1394191
-0.1391254
-0.1387958
-0.1383406
-0.1478957
-0.1491054
-0.1489798
-0.1486689
-0.1483247
-0.1478488
-0.1576422
-0.1587759
-0.158636
-0.1583139
-0.1579529
-0.1574577
-0.1674051
-0.1685533
-0.1683895
-0.1680615
-0.1676826
-0.1671707
-0.1772102
-0.1784513
-0.1782475
-0.1779161
-0.1775197
-0.1769927
-0.187259
-0.1884484
-0.1882141
-0.187877
-0.1874683
-0.1869285
-0.1974465
-0.1985398
-0.1982882
-0.1979469
-0.1975319
-0.1969822
-0.2078542
-0.2087242
-0.2084691
-0.2081325
-0.2077216
-0.2071784
-0.2245781
-0.2190128
-0.2187549
-0.218418
-0.218014
-0.2174756
-0.001583837
-0.002474228
-0.002576421
-0.002695838
-0.002779765
-0.002816065
-0.01065677
-0.01296188
-0.01297246
-0.01284176
-0.01282494
-0.01280595
-0.01862821
-0.0214979
-0.02140776
-0.02141496
-0.02131414
-0.02119534
-0.02746016
-0.03029427
-0.03023658
-0.03016459
-0.03008497
-0.0299726
-0.03638456
-0.03903824
-0.03906937
-0.03898136
-0.03887471
-0.03872086
-0.04532655
-0.04787453
-0.04794732
-0.04780094
-0.0476991
-0.04751477
-0.05422238
-0.05673019
-0.05684358
-0.05665623
-0.05654332
-0.05632607
-0.0631203
-0.06568674
-0.06577013
-0.06558023
-0.06543921
-0.06519786
-0.07209761
-0.07469653
-0.07471958
-0.07453476
-0.07436159
-0.07409571
-0.08113371
-0.08378816
-0.08374013
-0.08356297
-0.08335663
-0.08306459
-0.09024845
-0.09289385
-0.09282081
-0.09263212
-0.09240057
-0.09208166
-0.09943102
-0.1020439
-0.1019779
-0.1017687
-0.1015206
-0.1011727
-0.1086826
-0.1112761
-0.1112049
-0.1109789
-0.1107094
-0.1103337
-0.1180148
-0.1205866
-0.1205071
-0.1202651
-0.1199794
-0.1195751
-0.1274337
-0.129989
-0.1298888
-0.1296316
-0.1293257
-0.128898
-0.1369323
-0.1394774
-0.1393556
-0.1390882
-0.1387601
-0.1383117
-0.1465252
-0.1490438
-0.1489123
-0.148633
-0.1482919
-0.1478203
-0.156203
-0.1586924
-0.1585598
-0.1582692
-0.1579185
-0.1574268
-0.1659865
-0.1684248
-0.1683044
-0.1680019
-0.1676384
-0.1671237
-0.1759008
-0.178278
-0.1781585
-0.1778521
-0.1774792
-0.1769509
-0.1858696
-0.188258
-0.1881007
-0.1877938
-0.1874015
-0.1868538
-0.195965
-0.1983593
-0.1981651
-0.1978816
-0.197496
-0.1969568
-0.2061441
-0.2085498
-0.2082962
-0.2079957
-0.2075602
-0.2069447
-0.2231053
-0.2188818
-0.2186173
-0.2183596
-0.2180047
-0.2174691
-0.0001208098
-0.0004254347
-0.0001692757
-4.839113e-05
9.328478e-05
9.206731e-05
-0.008443278
-0.009507694
-0.008681556
-0.008125227
-0.007684399
-0.007356325
-0.007090192
-0.02011328
-0.01858022
-0.0181978
-0.01797028
-0.01778145
-0.0175866
-0.01738797
-0.03048441
-0.02751771
-0.02715279
-0.02698165
-0.02685208
-0.02671873
-0.02658985
-0.04082374
-0.0363794
-0.03610748
-0.03592975
-0.03579496
-0.03565899
-0.03549703
-0.05100136
-0.04533951
-0.04502672
-0.04483284
-0.04466867
-0.04450706
-0.04432594
-0.06119386
-0.05434112
-0.05394683
-0.0537302
-0.05354215
-0.05333948
-0.05311979
-0.0713371
-0.06335623
-0.06292052
-0.06267624
-0.06246061
-0.06222546
-0.06196028
-0.08144336
-0.07240976
-0.07199487
-0.07164988
-0.07140806
-0.07114325
-0.07083964
-0.09148204
-0.08150487
-0.08116726
-0.08067319
-0.08041492
-0.08012305
-0.079786
-0.1015048
-0.09066526
-0.09040916
-0.0897577
-0.08947612
-0.0891549
-0.08878347
-0.1116161
-0.09987979
-0.09968908
-0.09895755
-0.09861238
-0.09825882
-0.09785329
-0.1218627
-0.1091609
-0.1090211
-0.1082701
-0.107811
-0.1074315
-0.1069941
-0.1322208
-0.1185105
-0.1184302
-0.1176868
-0.117089
-0.1166848
-0.1162163
-0.1427985
-0.1279382
-0.1279208
-0.1272026
-0.1264751
-0.1260207
-0.1255232
-0.1536658
-0.1374445
-0.1374951
-0.1368118
-0.1359816
-0.135453
-0.1349226
-0.1647365
-0.1470431
-0.1471569
-0.1465061
-0.1455983
-0.1449708
-0.1444169
-0.1756199
-0.1567402
-0.156925
-0.1562668
-0.1553427
-0.1545971
-0.1540123
-0.1863778
-0.1665442
-0.1667942
-0.1661243
-0.1652125
-0.1643641
-0.1637193
-0.1967402
-0.1764356
-0.1767587
-0.1760818
-0.1751899
-0.1742526
-0.1735422
-0.2075001
-0.1864411
-0.1868173
-0.1861501
-0.1852766
-0.1842824
-0.1834854
-0.2186768
-0.1965518
-0.1969507
-0.1963347
-0.1954858
-0.1944627
-0.1935772
-0.2302773
-0.2067843
-0.207168
-0.2066454
-0.2058751
-0.2048668
-0.2039478
-0.2419015
-0.2240017
-0.22478
-0.2243034
-0.2238031
-0.223605
-0.2229022
-0.008253612
-0.0003228336
-0.008918421
-0.006521797
-0.005861466
-0.009400096
-0.0001218854
-0.001148844
-0.005966051
-0.007044956
-0.004446389
-0.01077675
-0.0004502994
-0.001394096
-0.005629899
-0.007786312
-0.00349081
-0.01185374
-0.0001714729
-0.00121452
-0.005289981
-0.008555533
-0.002587582
-0.01288088
-5.610921e-05
-0.001375892
-0.004913342
-0.009014015
-0.001695237
-0.0139141
8.861437e-05
-0.001706945
-0.004518474
-0.009317689
-0.0007856242
9.249478e-05
-0.004359043
-0.008902292
-0.01856229
-0.00844509
-0.009989904
-0.01815585
-0.0152959
-0.01849067
-0.02867192
-0.02011663
-0.0189016
-0.02818558
-0.02413876
-0.02788727
-0.03861615
-0.03044284
-0.02774708
-0.03903468
-0.03295568
-0.03752453
-0.04860282
-0.04081402
-0.03654669
-0.04929606
-0.04179128
-0.04721881
-0.05865733
-0.05099401
-0.04539528
-0.05963598
-0.05065112
-0.05696684
-0.06874647
-0.06119863
-0.05425047
-0.07014735
-0.0595294
-0.06677156
-0.07897803
-0.0713431
-0.0631045
-0.08061229
-0.06845709
-0.07672601
-0.08912648
-0.08147056
-0.07196273
-0.09108497
-0.07746837
-0.08654204
-0.09913252
-0.09149163
-0.0808995
-0.1015895
-0.08651453
-0.09628771
-0.1092266
-0.1015277
-0.0899324
-0.1120895
-0.09566558
-0.1059672
-0.1194182
-0.111627
-0.09901242
-0.1227355
-0.1048831
-0.1157357
-0.1296994
-0.121867
-0.1081613
-0.1334488
-0.1141579
-0.1255736
-0.1400048
-0.1321207
-0.1173823
-0.1442229
-0.1234863
-0.1355506
-0.1504259
-0.1424855
-0.126679
-0.1550639
-0.132893
-0.1456511
-0.1609382
-0.1531033
-0.1360657
-0.1660375
-0.1423812
-0.1558881
-0.1715305
-0.1642143
-0.14555
-0.1771092
-0.1519902
-0.1662257
-0.1822138
-0.1750867
-0.1551326
-0.1882715
-0.1616955
-0.176718
-0.1929849
-0.1859222
-0.1648227
-0.1994325
-0.1715088
-0.187352
-0.2038486
-0.1965245
-0.1746063
-0.2105566
-0.1814052
-0.1981349
-0.2148149
-0.2074887
-0.1845006
-0.221758
-0.1914085
-0.2090023
-0.2258973
-0.2186186
-0.1944982
-0.2333038
-0.2015057
-0.2200046
-0.2370896
-0.2302312
-0.2046173
-0.24502
-0.2117225
-0.231136
-0.2394036
-0.2418317
-0.2148352
-0.2568076
-0.2220448
-0.0006025368
-0.007929847
-0.006287797
-0.0004347986
-0.008319274
-0.006347469
-0.0004261515
-0.008357266
-0.006285788
-0.0004363082
-0.008323181
-0.006226266
-0.0004195187
-0.008280348
-0.006206849
-0.0004148068
-0.008290641
-0.006151982
-0.0003982072
-0.00823248
-0.006154446
-0.0004378159
-0.008243813
-0.006124103
-0.0004172037
-0.008245575
-0.006114593
-0.0004106164
-0.008229909
-0.006164835
-0.0003943586
-0.008312841
-0.006145078
-0.0004066182
-0.008293206
-0.006203484
-0.000418546
-0.008333883
-0.006227972
-0.0004194191
-0.008346999
-0.006286855
-0.0004352959
-0.00832247
-0.006350491
-0.0006084125
-0.007938497
-0.006288273
-0.0003183025
-0.008930115
-0.006518995
-0.008254453
-0.001147825
-0.005965403
-0.007037917
-0.005871932
-0.009401083
-0.001387244
-0.005629731
-0.007781543
-0.004445132
-0.0107758
-0.001363174
-0.004907258
-0.009014973
-0.002589094
-0.01288202
-0.001683644
-0.004512726
-0.009319352
-0.00169585
-0.01391595
-0.004354529
-0.0007860678
-0.009990811
-0.01816459
-0.01529604
-0.008907183
-0.01856169
-0.01890143
-0.02818415
-0.02414056
-0.01849214
-0.02866163
-0.03654656
-0.04925665
-0.04179125
-0.03752867
-0.04859449
-0.05424916
-0.07009242
-0.05953399
-0.05696574
-0.06873124
-0.06310557
-0.0805366
-0.0684682
-0.06676662
-0.07897127
-0.07196542
-0.09105098
-0.07746719
-0.07668352
-0.08912871
-0.08090015
-0.1015376
-0.08651585
-0.08651753
-0.09913713
-0.08993646
-0.1120824
-0.0956382
-0.09623817
-0.1092239
-0.09901545
-0.122714
-0.1048478
-0.1059445
-0.1194235
-0.1081646
-0.1334456
-0.1141091
-0.1156966
-0.1296892
-0.1173846
-0.1441716
-0.1234452
-0.1255624
-0.139997
-0.1266848
-0.1550684
-0.1328402
-0.1355386
-0.1504204
-0.1360707
-0.1660613
-0.1423301
-0.1456317
-0.1609275
-0.1551433
-0.188268
-0.1616466
-0.1662302
-0.1822018
-0.1648331
-0.1994799
-0.1714669
-0.1767052
-0.1929597
-0.1746185
-0.2105073
-0.1813892
-0.1873496
-0.2038423
-0.1845123
-0.2217744
-0.1913899
-0.1981203
-0.2148076
-0.2046257
-0.2450039
-0.2117177
-0.2200068
-0.2370625
-0.2148434
-0.2568079
-0.2220433
-0.2311229
-0.2344955
-0.002601419
-0.003721214
-0.01145077
-0.008954944
-0.009016576
-0.01356821
-0.02024007
-0.02006826
-0.0182201
-0.02366405
-0.02905978
-0.03066494
-0.02731514
-0.03366787
-0.03773404
-0.04092226
-0.03627379
-0.04341695
-0.04646538
-0.05097696
-0.04527837
-0.05318592
-0.05517837
-0.06089326
-0.05429288
-0.06302445
-0.06390899
-0.07069093
-0.06327193
-0.0728767
-0.0728121
-0.08051269
-0.07229126
-0.0828185
-0.08186086
-0.09042461
-0.08138869
-0.09279447
-0.09092718
-0.1004165
-0.09060214
-0.1028268
-0.100042
-0.1103776
-0.09984919
-0.1128951
-0.1092274
-0.120351
-0.1091615
-0.1230329
-0.1184725
-0.1303545
-0.1185461
-0.1332242
-0.1278196
-0.1404387
-0.1280126
-0.1434483
-0.137243
-0.1505488
-0.1375576
-0.1537468
-0.1467622
-0.1607323
-0.1471827
-0.1641101
-0.1563735
-0.1709482
-0.1569119
-0.1745593
-0.1660944
-0.1812622
-0.1667321
-0.1850821
-0.1759006
-0.1916242
-0.1766519
-0.1956957
-0.1858001
-0.2020594
-0.1866302
-0.2063836
-0.1958119
-0.2125327
-0.1967199
-0.2171608
-0.2059419
-0.2230892
-0.2068906
-0.228031
-0.2162133
-0.2337151
-0.2171936
-0.2390138
-0.002634522
-0.00267022
-0.002733498
-0.002700363
-0.002763486
-0.002748975
-0.002751559
-0.002736413
-0.002774748
-0.002741292
-0.002720621
-0.002805688
-0.002713668
-0.002756947
-0.002660906
-0.002690735
-0.002580987
-0.002486495
-0.001204496
-0.005288724
-0.008560363
-0.003490622
-0.01185562
-0.02774515
-0.03902203
-0.03295569
-0.02788923
-0.03860121
-0.04539754
-0.05959072
-0.05065207
-0.04721805
-0.05865128
-0.1455555
-0.1771316
-0.1519383
-0.1558763
-0.1715181
-0.1945092
-0.2333204
-0.2015031
-0.2089883
-0.2258801
-0.004376261
-0.009181959
-0.007342374
-0.003952567
-0.002583509
-0.002488855
-0.01335636
-0.01952125
-0.01655063
-0.01375858
-0.02227024
-0.03002296
-0.0256533
-0.02375658
-0.03098808
-0.04027905
-0.03464105
-0.03388104
-0.03970154
-0.05052871
-0.04367522
-0.0436619
-0.04845038
-0.06068503
-0.05272188
-0.05328899
-0.0572329
-0.07076899
-0.0617026
-0.06296616
-0.06606253
-0.08088608
-0.07066992
-0.07257327
-0.07503499
-0.09103742
-0.07975905
-0.08214847
-0.08400608
-0.1013006
-0.08892649
-0.09171257
-0.09303016
-0.111558
-0.09812688
-0.1013112
-0.1021215
-0.1218512
-0.1074054
-0.1109601
-0.1112957
-0.1321959
-0.116773
-0.1206397
-0.1205588
-0.1426221
-0.1262258
-0.1303716
-0.1299215
-0.1530977
-0.1357648
-0.1401823
-0.1393922
-0.163659
-0.1453754
-0.1500745
-0.1489593
-0.1742834
-0.1550865
-0.1600448
-0.1586235
-0.1850114
-0.1648729
-0.1701024
-0.1683772
-0.1958043
-0.1747685
-0.1802536
-0.1782277
-0.2066578
-0.1847346
-0.1904969
-0.1881936
-0.217572
-0.1948655
-0.2008369
-0.1982873
-0.2285724
-0.2050722
-0.2112659
-0.2085119
-0.2396475
-0.2154142
-0.2218146
-0.2188654
-0.2440756
-0.2324718
-0.2258594
-0.00266963
-0.00267932
-0.002727912
-0.002765189
-0.002725195
-0.002752369
-0.00273153
-0.002727305
-0.002718831
-0.002756484
-0.002741417
-0.002723335
-0.002751557
-0.002707349
-0.002629928
-0.002661272
-0.002602688
-0.003719304
-0.002277243
-0.004192225
-0.003025188
-0.002496844
-0.005544146
0.001171599
0.00076439
-0.007713347
-0.0005293052
-0.009755014
-0.007313569
0.0007255856
-0.01145014
-0.008961475
-0.009016412
-0.01357176
-0.01335363
-0.01952588
-0.01655268
-0.01376335
-0.02024221
-0.0200756
-0.01822514
-0.02366267
-0.02227405
-0.03003052
-0.02565262
-0.02376959
-0.03970118
-0.05053261
-0.04367646
-0.04367175
-0.05518238
-0.06089526
-0.05429348
-0.06302797
-0.05724023
-0.07076863
-0.06170914
-0.06296656
-0.06391646
-0.07068842
-0.06327459
-0.07286953
-0.06607821
-0.08087409
-0.07068474
-0.07255654
-0.07281678
-0.08049489
-0.07229316
-0.08281255
-0.0750405
-0.09104425
-0.07977066
-0.0821362
-0.08185631
-0.09042206
-0.08138867
-0.09277309
-0.08401687
-0.1013021
-0.08894526
-0.09169872
-0.09093242
-0.1004045
-0.09061035
-0.1028047
-0.09304159
-0.1115658
-0.09814504
-0.1013014
-0.100043
-0.1103804
-0.09985821
-0.1128793
-0.1092372
-0.120349
-0.1091681
-0.1230222
-0.1113035
-0.1322035
-0.1167846
-0.1206403
-0.1184795
-0.130363
-0.1185536
-0.1332173
-0.1205704
-0.1426116
-0.1262446
-0.1303616
-0.1586251
-0.1850035
-0.164883
-0.1701071
-0.1660858
-0.181257
-0.166731
-0.1850911
-0.168381
-0.1958112
-0.1747741
-0.1802679
-0.2059496
-0.2231174
-0.2069001
-0.2280381
-0.2085193
-0.2396503
-0.2154145
-0.221826
-0.2162173
-0.2337313
-0.2171945
-0.2390047
-0.2188757
-0.2507497
-0.2324645
-0.225861
-0.2537319
-0.2368235
-0.2536519
-0.2251803
-0.2251785
-0.232087
-0.2321949
-0.2275784
-0.2444283
-0.2275769
-0.0007393976
-0.0008304084
-0.00945456
-0.008384572
-0.008808764
-0.009519567
-0.01804044
-0.0175884
-0.01819581
-0.0180976
-0.0266605
-0.02653039
-0.02732122
-0.02673965
-0.03518979
-0.03533676
-0.03640829
-0.03532477
-0.04371537
-0.04420497
-0.04546749
-0.04390932
-0.05225468
-0.05308958
-0.05451426
-0.052515
-0.06084371
-0.06192871
-0.06354567
-0.06114912
-0.06950583
-0.07078215
-0.07262552
-0.06985761
-0.07824809
-0.07970303
-0.08184845
-0.07859739
-0.08705248
-0.0886739
-0.09106241
-0.08739866
-0.09591543
-0.09768782
-0.1003212
-0.096248
-0.1048517
-0.1067512
-0.1096292
-0.1051742
-0.1138697
-0.115878
-0.1189776
-0.114177
-0.1229741
-0.1250629
-0.1283807
-0.1232673
-0.1321669
-0.1343306
-0.1378354
-0.1324407
-0.1414442
-0.1436618
-0.1473609
-0.1416995
-0.1508242
-0.153093
-0.1569623
-0.1510625
-0.1603023
-0.1625912
-0.166641
-0.1605288
-0.169891
-0.1721987
-0.1763951
-0.1700951
-0.1795813
-0.1818828
-0.1862255
-0.1797624
-0.1893971
-0.191694
-0.1961601
-0.1895522
-0.1993227
-0.2015783
-0.2061913
-0.1994505
-0.2093879
-0.211582
-0.2163384
-0.2094697
-0.0007533616
-0.000826538
-0.0007310382
-0.0009217268
-0.0006812232
-0.0009446022
-0.0006886167
-0.0009515542
-0.000677898
-0.0009346631
-0.0008343797
-0.0007686139
-0.0008871059
-0.0007246412
-0.0008770537
-0.0007622483
-0.0007888352
-0.000841474
-0.006043114
-0.007806288
-0.008189629
-0.00613293
-0.0007810825
-0.0008306372
-0.01477681
-0.01681232
-0.01765756
-0.01479967
-0.02340562
-0.02567591
-0.02690644
-0.02347521
-0.03199703
-0.03451789
-0.03616912
-0.03218785
-0.04072658
-0.04339182
-0.04545512
-0.04088126
-0.04948037
-0.05229449
-0.05472214
-0.04963702
-0.0582688
-0.06122515
-0.06396679
-0.05841993
-0.06714675
-0.07018186
-0.07319998
-0.06723257
-0.07617632
-0.07920802
-0.0825072
-0.07611863
-0.08521435
-0.08828611
-0.0918273
-0.08505176
-0.0943538
-0.09743682
-0.1011893
-0.09406612
-0.10358
-0.1066433
-0.1106195
-0.1031506
-0.1128935
-0.1159257
-0.120115
-0.1122964
-0.1222803
-0.1252528
-0.1296589
-0.1214806
-0.1317684
-0.1346736
-0.1392858
-0.1307406
-0.1413418
-0.1441571
-0.1489692
-0.1400614
-0.15104
-0.1537472
-0.158753
-0.149512
-0.1608225
-0.163395
-0.1685899
-0.1590477
-0.1707259
-0.1731541
-0.1785244
-0.1687179
-0.180712
-0.1829832
-0.1885081
-0.1784677
-0.1908353
-0.192945
-0.1986127
-0.1883663
-0.2010425
-0.2029768
-0.2087767
-0.1983564
-0.2114036
-0.2131264
-0.2190667
-0.2084916
-0.2294239
-0.2233685
-0.221854
-0.2188039
-0.0008799315
-0.0007508481
-0.0009700039
-0.000658138
-0.0008871483
-0.000723223
-0.0009042846
-0.0007333294
-0.00071261
-0.0009324081
-0.0006535952
-0.000981512
-0.0006598061
-0.0009830377
-0.0007121485
-0.0008577591
-0.0007251947
-0.0008173002
-0.004374179
-0.009183537
-0.007341787
-0.003951056
-0.00344947
-0.001761562
-0.001721899
-0.004546606
-0.001898871
-0.005618619
-0.004291913
-0.001461817
-0.004172533
-0.0004611972
-0.0005872216
-0.005795701
-0.001546241
-0.007212355
-0.005426636
-0.000682041
-0.0006579323
0.0005014817
0.001079077
-0.001076703
-0.001654555
-0.002234221
-0.00266644
0.000399483
-0.006074271
0.001810843
0.001552285
-0.00845365
-3.155225e-05
-0.01069349
-0.008077254
0.001195546
-0.006586446
0.002446977
0.002210665
-0.009453784
-0.008384666
-0.009518958
-0.008808445
-0.01477607
-0.01681162
-0.01765693
-0.0148023
-0.01804855
-0.01758719
-0.0180996
-0.01819516
-0.02340432
-0.0256722
-0.02690284
-0.02347429
-0.03773319
-0.04093818
-0.03627319
-0.04342696
-0.05827335
-0.06122658
-0.06397605
-0.05842137
-0.06084559
-0.06192974
-0.06114895
-0.06355238
-0.06716032
-0.07019293
-0.07322269
-0.06723758
-0.07617152
-0.0792068
-0.08250881
-0.07611356
-0.0782484
-0.07969938
-0.07859517
-0.08184501
-0.0959172
-0.09768732
-0.09625031
-0.1003252
-0.1021358
-0.1218533
-0.107411
-0.110955
-0.1048505
-0.106754
-0.1051767
-0.1096454
-0.1128892
-0.11592
-0.1201083
-0.1122859
-0.1278164
-0.1404168
-0.128014
-0.143444
-0.1299298
-0.1530967
-0.1357704
-0.1401677
-0.1372297
-0.1505439
-0.1375473
-0.1537489
-0.1393934
-0.163655
-0.1453734
-0.1500803
-0.1563701
-0.1709593
-0.1568979
-0.1745584
-0.1759068
-0.1916415
-0.1766559
-0.195692
-0.1782358
-0.2066491
-0.1847487
-0.1904918
-0.1858078
-0.2020632