/*--------------------------------*- C++ -*----------------------------------*\
  =========                 |
  \\      /  F ield         | OpenFOAM: The Open Source CFD Toolbox
   \\    /   O peration     | Website:  https://openfoam.org
    \\  /    A nd           | Version:  7
     \\/     M anipulation  |
\*---------------------------------------------------------------------------*/
FoamFile
{
    version     2.0;
    format      ascii;
    class       volScalarField;
    location    "0.1";
    object      Uy;
}
// * * * * * * * * * * * * * * * * * * * * * * * * * * * * * * * * * * * * * //

dimensions      [0 1 -1 0 0 0 0];

internalField   nonuniform List<scalar> 
80136
(
-0.0003058499
-0.0002989246
-0.0002686954
-0.0002474974
-0.0002078834
-0.0001647444
-0.000109846
-0.0004932943
-0.0004715658
-0.0004412773
-0.000394276
-0.0003386386
-0.0002684423
-0.0001830908
-0.0007077917
-0.0006813252
-0.0006359306
-0.0005740494
-0.000492298
-0.0003934224
-0.0002732213
-0.0009303372
-0.0009012411
-0.0008439021
-0.0007648176
-0.0006626395
-0.000536662
-0.0003830204
-0.001178226
-0.001146097
-0.001076053
-0.0009826514
-0.0008595371
-0.0007074497
-0.0005202226
-0.001442545
-0.001414965
-0.001331598
-0.001226929
-0.001086067
-0.0009117074
-0.0006937658
-0.001738238
-0.001709704
-0.001618501
-0.001504739
-0.001349989
-0.001157245
-0.0009128057
-0.002059078
-0.00202911
-0.001937419
-0.00181808
-0.001655753
-0.001451872
-0.001189391
-0.002405602
-0.002381031
-0.002290812
-0.002171384
-0.002008163
-0.001801182
-0.00153219
-0.002785108
-0.002765853
-0.002680599
-0.002565575
-0.002409297
-0.00220905
-0.001949434
-0.003192409
-0.003178925
-0.003104472
-0.002999335
-0.002858692
-0.002676495
-0.002443906
-0.003627965
-0.003622876
-0.003560708
-0.003469709
-0.003350924
-0.003196016
-0.003002277
-0.004086276
-0.004085234
-0.004041926
-0.003969529
-0.003878254
-0.003758797
-0.003612124
-0.004555361
-0.004572202
-0.00454351
-0.004493425
-0.004432193
-0.00435296
-0.004259321
-0.005032017
-0.005082762
-0.00505606
-0.005032491
-0.005001316
-0.004964661
-0.004925651
-0.005527884
-0.005584774
-0.005576772
-0.005575621
-0.005576632
-0.005582232
-0.00559855
-0.00601822
-0.00607823
-0.006096322
-0.006113369
-0.006145228
-0.00618867
-0.00625715
-0.006497152
-0.006572877
-0.006604738
-0.006641891
-0.006700376
-0.006778513
-0.006894299
-0.006963604
-0.007055615
-0.007100214
-0.007148911
-0.007226608
-0.007324675
-0.007477509
-0.007426428
-0.007527087
-0.007579628
-0.007638793
-0.007727792
-0.00784301
-0.008015205
-0.007864175
-0.007979062
-0.008039053
-0.008092926
-0.008184492
-0.00827258
-0.008451135
-0.008300121
-0.00841325
-0.008483268
-0.008542671
-0.008615838
-0.008707021
-0.008810425
-0.008715028
-0.008844928
-0.008920672
-0.008952532
-0.009025578
-0.008963654
-0.009053623
-2.966646e-05
-1.809583e-05
-3.786099e-05
-3.997683e-05
-7.110885e-06
-4.28523e-05
-6.380098e-06
-2.407362e-05
-0.0002812504
-0.0003130741
-0.0002889879
-0.0002565786
-0.0002341135
-0.000200326
-0.0001607479
-0.000107474
-0.0004708838
-0.0005143164
-0.0004810873
-0.0004530849
-0.0004030098
-0.0003453439
-0.0002753683
-0.0001876615
-0.0008086311
-0.000725834
-0.0006819818
-0.0006367253
-0.0005731775
-0.000492084
-0.0003931832
-0.0002730514
-0.001168608
-0.0009534654
-0.0009034271
-0.0008483629
-0.0007673166
-0.0006648115
-0.0005382833
-0.0003840132
-0.001522934
-0.00119825
-0.001146483
-0.001078016
-0.0009834582
-0.000860372
-0.0007077625
-0.0005202697
-0.001798343
-0.001455927
-0.001419078
-0.001333509
-0.001228787
-0.001087527
-0.0009126013
-0.0006941586
-0.00220267
-0.001753323
-0.001715535
-0.001620103
-0.001506798
-0.001351482
-0.001158145
-0.0009130842
-0.002616231
-0.002084553
-0.002033987
-0.001939863
-0.001820596
-0.00165778
-0.001453369
-0.001190196
-0.00314655
-0.002434243
-0.002385492
-0.002293597
-0.002174217
-0.00201057
-0.001803166
-0.001533166
-0.003663737
-0.00282074
-0.002770127
-0.002684268
-0.002568842
-0.002412329
-0.002211708
-0.001951363
-0.004178575
-0.003237102
-0.003180446
-0.003108959
-0.003002799
-0.002862301
-0.002679826
-0.002446775
-0.004657866
-0.003689131
-0.003624848
-0.00356683
-0.003473743
-0.003355141
-0.003199873
-0.003005803
-0.005212566
-0.004153312
-0.004086811
-0.004048274
-0.003973941
-0.003882977
-0.003763315
-0.003616542
-0.005839133
-0.004631425
-0.004576403
-0.004550385
-0.004498474
-0.004437412
-0.004357956
-0.004264235
-0.006477353
-0.005078255
-0.005091286
-0.005060426
-0.005038218
-0.005006836
-0.004970353
-0.004931322
-0.00720665
-0.005584401
-0.005593278
-0.005581553
-0.005581806
-0.005582622
-0.005588376
-0.005604823
-0.007474945
-0.006115035
-0.006087484
-0.006104806
-0.006120581
-0.006152306
-0.006195916
-0.006264434
-0.008514074
-0.006581007
-0.006580678
-0.006612146
-0.006648991
-0.006707681
-0.00678567
-0.006902113
-0.008884188
-0.007061383
-0.007064406
-0.007108947
-0.007157822
-0.007235652
-0.007334979
-0.007487479
-0.009883907
-0.007523172
-0.007537432
-0.007588138
-0.007646331
-0.007736239
-0.007849349
-0.008024839
-0.01026754
-0.007975842
-0.007987509
-0.008050192
-0.008106805
-0.008198223
-0.008294525
-0.008467916
-0.01134916
-0.008415571
-0.008414093
-0.008492454
-0.008546688
-0.008625963
-0.008699373
-0.008824841
-0.0116244
-0.008841411
-0.008860422
-0.008936972
-0.008984027
-0.009053935
-0.009047176
-0.009092804
-2.844732e-05
-8.918503e-05
-7.049496e-05
-7.941242e-05
-6.338328e-05
-5.173483e-05
-3.438184e-05
-0.0002680331
-0.0002880971
-0.0002873729
-0.0002381307
-0.0002290754
-0.0001899795
-0.0001514583
-0.0001020647
-0.000540392
-0.0004888829
-0.0004643062
-0.0004326162
-0.0003903803
-0.0003329005
-0.0002637779
-0.0001796538
-0.0007033127
-0.0007126458
-0.0006782829
-0.0006293267
-0.0005694498
-0.0004874493
-0.0003895595
-0.0002704747
-0.0009481583
-0.0009405607
-0.000901311
-0.000842138
-0.00076347
-0.0006608051
-0.0005345893
-0.0003810124
-0.001195834
-0.001191023
-0.001145471
-0.001075328
-0.000981813
-0.0008585931
-0.0007060334
-0.0005185453
-0.001477651
-0.001463701
-0.001414548
-0.001333222
-0.001227334
-0.001086525
-0.0009112666
-0.0006926106
-0.001774235
-0.001762014
-0.001708491
-0.001620754
-0.001505521
-0.001351103
-0.001157279
-0.000911918
-0.00208801
-0.002086494
-0.002030026
-0.001940349
-0.001819883
-0.001657818
-0.001453028
-0.001189982
-0.002428266
-0.002438524
-0.002382347
-0.00229442
-0.002173793
-0.002010781
-0.001803032
-0.001532815
-0.002806843
-0.002822399
-0.002768016
-0.002684497
-0.002568693
-0.002412646
-0.002211934
-0.00195212
-0.003207718
-0.003232815
-0.003182561
-0.00310835
-0.003003179
-0.00286256
-0.002680287
-0.002447549
-0.003639984
-0.003673428
-0.003627229
-0.003564336
-0.003473983
-0.003354958
-0.003200123
-0.003005514
-0.00406116
-0.004130005
-0.004090272
-0.004045111
-0.003974273
-0.003882798
-0.003763547
-0.003616707
-0.00454152
-0.00460899
-0.004579237
-0.00454724
-0.004498608
-0.004437064
-0.004358061
-0.004263862
-0.005059393
-0.005100957
-0.005085409
-0.005062143
-0.005037655
-0.005006936
-0.00497028
-0.004931154
-0.005526807
-0.005594979
-0.005586742
-0.005582299
-0.005581018
-0.005582511
-0.005588262
-0.005604498
-0.005994889
-0.006088815
-0.006086117
-0.00610103
-0.006120073
-0.00615168
-0.006195623
-0.006263928
-0.006465339
-0.006574513
-0.006582191
-0.006610678
-0.006649006
-0.006707119
-0.006785515
-0.006901607
-0.006946907
-0.007054294
-0.007067371
-0.007107305
-0.007157905
-0.007234396
-0.007333902
-0.007485458
-0.007392241
-0.007519032
-0.007537535
-0.007586428
-0.00764624
-0.007735326
-0.007849241
-0.00802433
-0.007836724
-0.007970154
-0.007991776
-0.008047359
-0.008105133
-0.008192981
-0.008288503
-0.008459118
-0.008225028
-0.008399673
-0.008425074
-0.008489563
-0.008547382
-0.008624127
-0.008701426
-0.008826121
-0.008681691
-0.008826572
-0.008858009
-0.008928935
-0.008973376
-0.009034515
-0.009017684
-0.009059904
-2.179681e-05
-7.68135e-05
-6.05012e-05
-7.162188e-05
-5.704557e-05
-4.679656e-05
-3.046184e-05
-0.0002727557
-0.0002883322
-0.0002858947
-0.0002348945
-0.0002227546
-0.0001856316
-0.0001482258
-9.918313e-05
-0.0005683156
-0.0004900453
-0.0004633694
-0.0004321248
-0.0003897091
-0.0003319431
-0.0002631871
-0.000178978
-0.0007139738
-0.0007156103
-0.0006789708
-0.0006295511
-0.0005686752
-0.0004866872
-0.0003887012
-0.0002695012
-0.0009675244
-0.0009438001
-0.000902949
-0.0008436798
-0.0007640694
-0.0006610644
-0.0005343788
-0.0003804141
-0.001203992
-0.001190422
-0.001144736
-0.001075993
-0.0009817517
-0.000858524
-0.000705407
-0.0005174488
-0.001483055
-0.001461166
-0.001413243
-0.001333922
-0.001227476
-0.001086775
-0.0009108471
-0.0006916712
-0.001781189
-0.001757807
-0.001706879
-0.001621099
-0.001505568
-0.001351288
-0.001156786
-0.0009106808
-0.002107594
-0.00208356
-0.00202985
-0.001941029
-0.001820304
-0.001658296
-0.001452965
-0.001189344
-0.002458522
-0.002436512
-0.00238318
-0.002295431
-0.002174476
-0.002011356
-0.001803156
-0.00153209
-0.002839175
-0.002820781
-0.002769004
-0.002685754
-0.002569592
-0.00241348
-0.002212502
-0.001952218
-0.003243968
-0.003232346
-0.003184142
-0.003110059
-0.003004428
-0.0028636
-0.002681283
-0.002448329
-0.003683741
-0.003673098
-0.003629443
-0.003566178
-0.003475364
-0.003355989
-0.003201046
-0.003006252
-0.004144354
-0.004132217
-0.004096391
-0.004047167
-0.003976055
-0.003883833
-0.003764729
-0.003617858
-0.004613645
-0.004608749
-0.004582591
-0.004548668
-0.004499754
-0.004437855
-0.004358889
-0.004264706
-0.00508772
-0.005090986
-0.00508133
-0.005062006
-0.005037733
-0.005007462
-0.004971141
-0.004932081
-0.005583398
-0.00558588
-0.005585432
-0.005582069
-0.005581074
-0.005582877
-0.005588792
-0.005605268
-0.006080633
-0.006085386
-0.006089229
-0.006101927
-0.006121266
-0.006152523
-0.006196974
-0.006265167
-0.006553481
-0.006568569
-0.006583175
-0.006610987
-0.006649331
-0.00670744
-0.006786
-0.006902583
-0.007027535
-0.007048494
-0.007069185
-0.007108793
-0.007160276
-0.00723681
-0.007337735
-0.007488772
-0.007490276
-0.007512308
-0.007538596
-0.007586586
-0.007646107
-0.007735549
-0.007848987
-0.008025987
-0.007936114
-0.007965025
-0.00799577
-0.008051213
-0.008112601
-0.008200361
-0.008301536
-0.00846885
-0.008361011
-0.008395014
-0.00842794
-0.008489495
-0.008545238
-0.008624793
-0.008696614
-0.008829955
-0.008787082
-0.008820433
-0.008864169
-0.0089365
-0.008991893
-0.009052809
-0.009057571
-0.009084977
-2.100635e-05
-7.764475e-05
-5.833131e-05
-7.332523e-05
-5.659225e-05
-4.701016e-05
-3.058313e-05
-0.0002717008
-0.0002840816
-0.0002859701
-0.0002301467
-0.0002222779
-0.0001829534
-0.0001463127
-9.778251e-05
-0.0005645839
-0.000484207
-0.0004589577
-0.000426925
-0.000386095
-0.0003283023
-0.0002600516
-0.0001767181
-0.000709313
-0.0007120437
-0.0006769499
-0.0006265987
-0.0005668451
-0.0004845341
-0.0003868728
-0.0002679788
-0.000966624
-0.0009409305
-0.0009014541
-0.0008414355
-0.000762475
-0.0006593922
-0.0005327016
-0.0003787547
-0.001204144
-0.00118878
-0.001143981
-0.001074907
-0.0009810845
-0.0008577217
-0.0007044179
-0.0005162081
-0.001485164
-0.001461564
-0.001412758
-0.001333581
-0.00122709
-0.001086344
-0.0009101184
-0.0006905739
-0.001780966
-0.001758239
-0.001705992
-0.001621134
-0.001505362
-0.001351169
-0.001156309
-0.0009098515
-0.002106982
-0.00208404
-0.002029351
-0.001941416
-0.00182035
-0.001658499
-0.001452871
-0.001189196
-0.002458847
-0.002437885
-0.00238313
-0.002296193
-0.002174763
-0.002011783
-0.001803295
-0.001532108
-0.002840892
-0.002821593
-0.002769066
-0.002686334
-0.002569969
-0.002414018
-0.002212954
-0.001952962
-0.003249172
-0.003232603
-0.003185156
-0.00311049
-0.003005004
-0.002864194
-0.002681935
-0.002449265
-0.003682439
-0.003669967
-0.00362925
-0.003565638
-0.003475683
-0.003356259
-0.003201577
-0.003006553
-0.004133174
-0.004127832
-0.004095427
-0.004046488
-0.003976253
-0.003884136
-0.003765215
-0.003618413
-0.004608668
-0.004605505
-0.004582428
-0.004548199
-0.004500027
-0.004438069
-0.004359346
-0.004264907
-0.005096814
-0.005093665
-0.005081757
-0.005062483
-0.005038024
-0.005007866
-0.004971522
-0.004932426
-0.005583269
-0.005586711
-0.005584866
-0.005582273
-0.005581234
-0.005583127
-0.005589206
-0.005605503
-0.00606984
-0.006080313
-0.006088023
-0.006101199
-0.006121537
-0.006152885
-0.006197478
-0.006265597
-0.006553931
-0.006567824
-0.006583838
-0.006610917
-0.006649875
-0.006707735
-0.006786581
-0.006902952
-0.00703136
-0.007049155
-0.007070895
-0.007109399
-0.007161387
-0.007237341
-0.007338367
-0.007489035
-0.007490269
-0.007511927
-0.00753942
-0.007586829
-0.007647086
-0.007736418
-0.007850221
-0.008027152
-0.007937568
-0.007964403
-0.007996663
-0.008050637
-0.008112477
-0.008198989
-0.008300132
-0.008466822
-0.008359922
-0.008393304
-0.00842913
-0.008489955
-0.00854736
-0.008627091
-0.008700339
-0.008834083
-0.008779365
-0.008815758
-0.008860817
-0.008932215
-0.008986418
-0.009045007
-0.009047592
-0.00907532
-2.0091e-05
-7.770314e-05
-5.850899e-05
-7.315937e-05
-5.735013e-05
-4.66376e-05
-3.032303e-05
-0.000272165
-0.0002840926
-0.0002861484
-0.0002303839
-0.0002221651
-0.0001836482
-0.0001458153
-9.756159e-05
-0.0005643948
-0.0004842316
-0.0004590406
-0.0004270453
-0.0003861425
-0.0003284699
-0.0002598978
-0.000176674
-0.0007089387
-0.0007118206
-0.000676836
-0.0006266166
-0.0005667824
-0.0004846924
-0.0003867032
-0.0002677959
-0.0009663669
-0.0009409276
-0.0009013301
-0.0008414404
-0.0007624104
-0.0006593445
-0.0005325268
-0.0003785678
-0.001202635
-0.001188326
-0.001143613
-0.001074794
-0.0009809763
-0.0008576632
-0.0007042518
-0.000515938
-0.001484442
-0.001461154
-0.001412536
-0.001333437
-0.001227001
-0.001086233
-0.0009099272
-0.0006902665
-0.001782626
-0.001758547
-0.001706287
-0.001621225
-0.001505381
-0.00135113
-0.001156168
-0.0009095242
-0.002106631
-0.002083709
-0.002029104
-0.001941328
-0.001820258
-0.001658453
-0.001452757
-0.001188947
-0.002456946
-0.002437618
-0.002382562
-0.002296251
-0.002174683
-0.002011837
-0.001803281
-0.001531967
-0.002838414
-0.002821282
-0.002768483
-0.00268643
-0.002569944
-0.002414171
-0.002213067
-0.001953076
-0.003249317
-0.003233592
-0.003185708
-0.003111026
-0.00300536
-0.002864535
-0.002682318
-0.002449744
-0.00368858
-0.003672662
-0.003631424
-0.003566589
-0.003476379
-0.003356725
-0.003201952
-0.003007117
-0.004140162
-0.004129543
-0.004097523
-0.004047052
-0.003976944
-0.003884498
-0.003765692
-0.003618948
-0.004608496
-0.004605383
-0.004582552
-0.004548324
-0.004500229
-0.00443831
-0.004359608
-0.004265376
-0.00509113
-0.005092358
-0.005080708
-0.005062344
-0.005038125
-0.005008058
-0.004971905
-0.0049328
-0.005578937
-0.005585667
-0.005583637
-0.005581992
-0.005580981
-0.005583041
-0.005589195
-0.005605631
-0.006076429
-0.00608154
-0.006089815
-0.006101631
-0.006122464
-0.006153373
-0.006198285
-0.006266015
-0.006555734
-0.006567737
-0.006584131
-0.006610248
-0.006649351
-0.006706803
-0.006785891
-0.006902307
-0.007026738
-0.007048782
-0.007070916
-0.007110333
-0.0071636
-0.007239014
-0.007340763
-0.007490102
-0.007491267
-0.007511216
-0.007538239
-0.007584264
-0.00764403
-0.00773256
-0.007846948
-0.008024231
-0.007938068
-0.007965646
-0.007999377
-0.008053745
-0.008119916
-0.008204362
-0.008307843
-0.008469638
-0.008359606
-0.00839065
-0.008424513
-0.008483621
-0.008537603
-0.008616954
-0.008690484
-0.008826513
-0.008777866
-0.008816941
-0.008864955
-0.008937548
-0.009001802
-0.009056026
-0.009065107
-0.00907944
-1.953435e-05
-7.6654e-05
-6.067658e-05
-7.227744e-05
-5.73757e-05
-4.728216e-05
-3.052348e-05
-0.0002724415
-0.0002874309
-0.0002852356
-0.0002345581
-0.0002230376
-0.0001849264
-0.0001481684
-9.865396e-05
-0.0005666183
-0.0004890775
-0.0004629134
-0.0004316447
-0.0003893703
-0.0003313688
-0.0002623938
-0.0001781184
-0.0007130638
-0.000714838
-0.000678569
-0.000629225
-0.0005684652
-0.0004864867
-0.0003881071
-0.0002687022
-0.0009669638
-0.000942774
-0.0009025857
-0.0008431214
-0.0007636866
-0.0006604899
-0.0005335812
-0.0003793905
-0.00120572
-0.001189536
-0.00114465
-0.001075495
-0.0009814879
-0.0008581123
-0.0007047671
-0.0005165607
-0.001483566
-0.001460181
-0.001413197
-0.001333372
-0.001227253
-0.001086318
-0.0009102501
-0.0006908212
-0.001777678
-0.001756394
-0.001706847
-0.001620814
-0.001505563
-0.001351102
-0.001156401
-0.0009100323
-0.002106376
-0.002084613
-0.002029612
-0.001941658
-0.001820284
-0.00165849
-0.001452828
-0.001189297
-0.002460821
-0.002441567
-0.002383317
-0.002297402
-0.002174832
-0.002012092
-0.001803376
-0.001532365
-0.002843473
-0.002825467
-0.002768971
-0.002687516
-0.002570023
-0.002414378
-0.002213123
-0.001953399
-0.003256665
-0.003236422
-0.003187802
-0.00311193
-0.003005828
-0.00286481
-0.002682481
-0.002450072
-0.003680925
-0.003670578
-0.00363131
-0.003566396
-0.003476585
-0.00335683
-0.003202227
-0.003007342
-0.00413279
-0.004129916
-0.00409643
-0.00404737
-0.003977012
-0.003884758
-0.003765992
-0.003619343
-0.004615475
-0.004609829
-0.004584141
-0.004549618
-0.004500905
-0.004438817
-0.004360172
-0.004265856
-0.005096653
-0.005094097
-0.005082112
-0.005063145
-0.005038901
-0.005008747
-0.004972607
-0.004933523
-0.005584508
-0.005586824
-0.005584928
-0.005582691
-0.005581934
-0.005583771
-0.005590084
-0.005606463
-0.006068898
-0.006078933
-0.006090991
-0.006102161
-0.00612406
-0.006154708
-0.006199746
-0.006267508
-0.006559158
-0.00656946
-0.006586901
-0.006611754
-0.006651325
-0.006708508
-0.006787609
-0.006903943
-0.007047192
-0.007058234
-0.007075667
-0.007114362
-0.007166588
-0.007241921
-0.007343404
-0.007493163
-0.00749523
-0.007514744
-0.007541525
-0.007588177
-0.007648139
-0.007737115
-0.007850724
-0.008027849
-0.007935196
-0.007966868
-0.007999527
-0.008055981
-0.008121846
-0.008207064
-0.008310105
-0.008475155
-0.008350367
-0.008391629
-0.008425532
-0.008490799
-0.008547507
-0.008628516
-0.008699843
-0.008834359
-0.008762301
-0.008811684
-0.008858842
-0.008936784
-0.0089959
-0.009053429
-0.009059528
-0.009089131
-2.439697e-05
-8.981824e-05
-7.207495e-05
-7.854847e-05
-6.850266e-05
-4.910545e-05
-3.238108e-05
-0.0002693714
-0.0002879285
-0.0002886769
-0.0002396087
-0.0002282052
-0.0001951609
-0.0001469404
-9.950105e-05
-0.0005500907
-0.0004881137
-0.0004644588
-0.0004327933
-0.0003906655
-0.0003327769
-0.0002626038
-0.0001792434
-0.0007010275
-0.0007112918
-0.0006777192
-0.0006292706
-0.0005690193
-0.0004881443
-0.0003884036
-0.0002692227
-0.0009476536
-0.0009407245
-0.0009007157
-0.0008419419
-0.0007631017
-0.0006602777
-0.0005335292
-0.0003799207
-0.001185942
-0.00118888
-0.001143755
-0.00107466
-0.0009812863
-0.0008581967
-0.0007051852
-0.0005172662
-0.001475706
-0.001461089
-0.001413783
-0.00133228
-0.001226948
-0.001085905
-0.0009104021
-0.0006913319
-0.001782337
-0.001761365
-0.001710409
-0.001620674
-0.001505702
-0.001350891
-0.001156726
-0.0009107282
-0.002091161
-0.002086728
-0.002029646
-0.001940701
-0.001819706
-0.001657909
-0.001452708
-0.001189444
-0.002419668
-0.002442233
-0.002380172
-0.002296377
-0.002173779
-0.00201158
-0.001803197
-0.001532824
-0.002793482
-0.002825006
-0.00276496
-0.002686235
-0.002568792
-0.002413753
-0.002212711
-0.001953301
-0.003212619
-0.003240068
-0.00318613
-0.003111458
-0.003005119
-0.002864403
-0.002682114
-0.002450107
-0.003669074
-0.003681411
-0.003635977
-0.003567337
-0.003476911
-0.003356733
-0.003201992
-0.003007705
-0.004102217
-0.004131368
-0.004098808
-0.004046084
-0.003976993
-0.00388428
-0.003765645
-0.003619122
-0.004549386
-0.004607955
-0.004581177
-0.00454784
-0.00450012
-0.004438341
-0.004359745
-0.004265848
-0.005016611
-0.005098205
-0.005079936
-0.005062515
-0.005038603
-0.00500849
-0.004972402
-0.004933247
-0.00550386
-0.005593629
-0.005580773
-0.00558244
-0.005580861
-0.005583134
-0.005589351
-0.005605793
-0.00602988
-0.00608591
-0.006096041
-0.006102208
-0.006125499
-0.006155014
-0.006200283
-0.006267126
-0.006491186
-0.006573345
-0.006587491
-0.006609419
-0.006649695
-0.006705609
-0.006785149
-0.006901124
-0.006928229
-0.007063305
-0.007070771
-0.007115401
-0.007170685
-0.007244366
-0.007346457
-0.007492507
-0.007406145
-0.007520877
-0.007537918
-0.007581211
-0.007639349
-0.007725816
-0.007840896
-0.008018115
-0.00783911
-0.007977134
-0.008004727
-0.008061766
-0.00814243
-0.008218206
-0.008323742
-0.008472938
-0.008233004
-0.008390809
-0.008409966
-0.008471024
-0.008513934
-0.008591908
-0.00866673
-0.00880584
-0.008634765
-0.008821387
-0.008869466
-0.008946426
-0.009054829
-0.009085899
-0.009098367
-0.009074432
-3.453435e-05
-4.381436e-05
-5.195465e-05
-4.406003e-05
-3.182708e-05
-2.086663e-05
-2.71196e-05
-6.258557e-07
-0.0002898957
-0.0003100195
-0.0002882036
-0.0002579965
-0.000237571
-0.0002112826
-0.0001540185
-0.0001008634
-0.0005243026
-0.0005095551
-0.0004805035
-0.0004515425
-0.0004021857
-0.0003427672
-0.0002734132
-0.0001855314
-0.0007379488
-0.0007240991
-0.0006812445
-0.000636483
-0.0005732139
-0.0004933293
-0.0003917903
-0.0002710724
-0.001083053
-0.0009490526
-0.0009027913
-0.0008470992
-0.0007666103
-0.0006635528
-0.0005366672
-0.000382134
-0.00139568
-0.001193469
-0.001145886
-0.001076727
-0.0009829929
-0.0008597868
-0.0007066487
-0.000518607
-0.001696511
-0.001451033
-0.001418982
-0.001331756
-0.001228465
-0.001086589
-0.0009114974
-0.0006925839
-0.002122354
-0.001743523
-0.001717922
-0.001618707
-0.001507098
-0.001351072
-0.001157484
-0.0009117743
-0.002345152
-0.002087182
-0.002033232
-0.001941326
-0.00182029
-0.001658171
-0.001453016
-0.001190022
-0.002662097
-0.002461791
-0.002377753
-0.002299502
-0.002173839
-0.002012135
-0.00180339
-0.001533485
-0.003132421
-0.002847709
-0.002760306
-0.002689636
-0.002568481
-0.002414202
-0.002212681
-0.001953569
-0.003851621
-0.003244129
-0.003192677
-0.003113126
-0.00300601
-0.002864748
-0.002682184
-0.002450201
-0.004498439
-0.003666269
-0.003640338
-0.003566182
-0.003477566
-0.003356773
-0.003202267
-0.003007933
-0.004460403
-0.00414217
-0.004092579
-0.004047604
-0.003976683
-0.003884609
-0.003765885
-0.003619452
-0.005187533
-0.004634846
-0.004581545
-0.004551966
-0.004500838
-0.004439169
-0.004360314
-0.004266445
-0.006105621
-0.005101406
-0.005083774
-0.005063691
-0.005039586
-0.005009213
-0.004973134
-0.004934035
-0.006533314
-0.005590399
-0.005580924
-0.005582857
-0.005581805
-0.00558393
-0.005590292
-0.005606777
-0.007391326
-0.006066006
-0.006103078
-0.006100973
-0.006127811
-0.006156225
-0.0062019
-0.006268824
-0.00762788
-0.006575611
-0.006594718
-0.006611349
-0.006652675
-0.006708006
-0.006787464
-0.006903447
-0.008161715
-0.007102522
-0.007074446
-0.007123754
-0.007173687
-0.007248159
-0.007349486
-0.00749692
-0.009181819
-0.007528557
-0.007546997
-0.007588511
-0.007647208
-0.007734523
-0.007848093
-0.008024981
-0.009410754
-0.007986463
-0.008000253
-0.008066598
-0.008143619
-0.008222793
-0.008327246
-0.008485546
-0.0102458
-0.008402526
-0.008406865
-0.008490794
-0.008544223
-0.008626066
-0.008695905
-0.008829138
-0.01081071
-0.008818555
-0.008850912
-0.008955531
-0.009041748
-0.009086565
-0.009093292
-0.009118953
3.382073e-07
-2.968728e-05
-3.745593e-06
8.17557e-06
2.12778e-05
8.865031e-06
2.711486e-05
4.7702e-05
-0.0002537817
-0.0003066784
-0.0003003253
-0.0002693386
-0.0002454459
-0.0002217685
-0.0001641446
-9.823022e-05
-0.0005834265
-0.000488747
-0.0004728109
-0.000441496
-0.000398635
-0.0003322142
-0.0002676362
-0.0001874659
-0.0008141608
-0.0007070087
-0.0006812302
-0.0006357748
-0.0005737102
-0.0004939181
-0.0003927127
-0.0002706571
-0.001084677
-0.0009360772
-0.0008995886
-0.0008441138
-0.0007646849
-0.0006612234
-0.0005352134
-0.0003818678
-0.001398089
-0.001176451
-0.001145115
-0.001075058
-0.0009821802
-0.0008590032
-0.0007064092
-0.0005184312
-0.001734058
-0.001427458
-0.001416008
-0.001329268
-0.001226772
-0.001085008
-0.0009105844
-0.0006921133
-0.002200862
-0.001724981
-0.00171464
-0.001616766
-0.001505236
-0.001349554
-0.001156563
-0.0009113134
-0.002248222
-0.002060064
-0.002029452
-0.001938466
-0.001817866
-0.001656026
-0.001451463
-0.001188898
-0.002947951
-0.002429089
-0.002372356
-0.002296382
-0.002170806
-0.002009701
-0.001801389
-0.001532415
-0.003353985
-0.002797898
-0.00275494
-0.002685312
-0.002565017
-0.002411152
-0.00221005
-0.001951333
-0.003917594
-0.003214367
-0.003186929
-0.003110104
-0.003002317
-0.002861425
-0.002678987
-0.002447524
-0.0044673
-0.003644557
-0.003636522
-0.003564828
-0.003473837
-0.003353266
-0.003198637
-0.003005083
-0.005001192
-0.004056768
-0.004095569
-0.004039209
-0.003972973
-0.003879823
-0.00376163
-0.003615324
-0.005745642
-0.00452923
-0.004579725
-0.004542568
-0.004496083
-0.004433844
-0.004355454
-0.004261926
-0.006179132
-0.005051978
-0.00507433
-0.00505853
-0.005033971
-0.005003784
-0.004967764
-0.004928649
-0.006986202
-0.005548245
-0.005570077
-0.005580365
-0.005575221
-0.005577925
-0.005583977
-0.005600497
-0.008329751
-0.005964444
-0.006097296
-0.006091817
-0.006122279
-0.006149939
-0.006195975
-0.006262067
-0.008144585
-0.006458667
-0.006588629
-0.006599387
-0.006644361
-0.00669841
-0.006778531
-0.006894224
-0.008998321
-0.007015143
-0.007061062
-0.007118666
-0.007172924
-0.007244494
-0.007346414
-0.007489068
-0.009425477
-0.007436228
-0.007529487
-0.007573486
-0.007630354
-0.007714602
-0.007829993
-0.008007889
-0.01014763
-0.007887755
-0.008005457
-0.008067333
-0.008185394
-0.00824069
-0.008347153
-0.008476185
-0.01061322
-0.008288152
-0.008387413
-0.008455529
-0.008486669
-0.008553359
-0.008631073
-0.008780683
-0.01116813
-0.008721597
-0.008888317
-0.008969505
-0.009357961
-0.009253278
-0.00924083
-0.009089862
-0.0001691432
-1.228108e-05
-0.0002155764
-0.0001620313
-0.0001263891
-0.0001990987
-1.374406e-05
-3.913353e-05
-0.0001206289
-0.0002232925
-7.938089e-05
-0.0002322704
-1.222154e-05
-5.085549e-05
-7.296953e-05
-0.000248087
-2.550316e-05
-0.0002544011
1.417172e-05
-5.28977e-05
-2.876124e-05
-0.0002640222
2.34852e-05
-0.0002546153
-1.529714e-05
-3.357855e-05
1.721124e-05
-0.000277006
7.459043e-05
-0.0002901281
-2.117476e-06
-2.258627e-05
5.68143e-05
-0.0002949042
0.0001054019
-0.0002699686
1.922976e-05
-2.737746e-05
9.754968e-05
-0.0002918628
0.0001639526
-0.0002787007
6.87484e-06
-1.520844e-05
0.0001455714
-0.0002770896
0.000189388
1.937292e-05
0.000181815
-0.0002519769
-0.0004023945
-0.0002525061
-0.0002594193
-0.0004962276
-0.0003753442
-0.0005053242
-0.0006283448
-0.0005484164
-0.0004388806
-0.0008191014
-0.0005720292
-0.0007799902
-0.0009063744
-0.0008112919
-0.0006364678
-0.001042363
-0.0007949198
-0.0009769802
-0.001134393
-0.001077048
-0.0008732654
-0.001382805
-0.001031536
-0.001247081
-0.001419182
-0.001390704
-0.001116428
-0.001807106
-0.001291228
-0.001560571
-0.001730707
-0.001710069
-0.001397509
-0.002215355
-0.001587689
-0.001902043
-0.002080424
-0.00204689
-0.001698053
-0.002645348
-0.001905813
-0.002290827
-0.002444753
-0.002494183
-0.001993102
-0.003072168
-0.002221525
-0.002679584
-0.002836199
-0.00286499
-0.002374488
-0.003590579
-0.00258645
-0.00312123
-0.003248322
-0.003346581
-0.00274629
-0.004136403
-0.00297609
-0.003617368
-0.003707939
-0.00385019
-0.003147331
-0.004725715
-0.003396866
-0.004158299
-0.004200865
-0.004384218
-0.003571757
-0.005354989
-0.003863273
-0.004776777
-0.004734314
-0.004959074
-0.00401841
-0.005923048
-0.004309306
-0.005393402
-0.005444723
-0.005556594
-0.004515903
-0.006553276
-0.004773309
-0.005781134
-0.005868944
-0.006234542
-0.00506659
-0.007168442
-0.005317368
-0.006334939
-0.006434999
-0.006890039
-0.005536151
-0.007819239
-0.005845388
-0.007045962
-0.007083295
-0.007600263
-0.005956069
-0.008355217
-0.006370662
-0.007480403
-0.007584247
-0.008320462
-0.00648605
-0.008964664
-0.006937516
-0.00808318
-0.008121997
-0.008963388
-0.006832688
-0.00956917
-0.007401326
-0.008554664
-0.008635168
-0.009556044
-0.007388
-0.0101385
-0.007874933
-0.009083526
-0.00905493
-0.0101617
-0.007762819
-0.01061464
-0.00827449
-0.00958448
-0.009596076
-0.01062083
-0.008282831
-0.01137342
-0.008623204
-0.01006661
-0.0101281
-0.01111651
-0.00875228
-0.01196857
-0.008994373
-1.310965e-05
-0.0001874269
-0.0001666025
-4.630165e-06
-0.0001872743
-0.0001549945
-2.759488e-06
-0.0001666699
-0.0001469707
-4.431751e-06
-0.0001825627
-0.0001399461
-4.827046e-06
-0.0001766632
-0.0001396291
-4.38798e-06
-0.000183841
-0.0001376869
-4.990136e-06
-0.0001747484
-0.0001382911
-3.972657e-06
-0.0001842396
-0.0001375641
-4.152159e-06
-0.0001810802
-0.0001378751
-4.242469e-06
-0.0001835199
-0.000137684
-4.275914e-06
-0.0001829584
-0.0001370746
-4.959742e-06
-0.0001814993
-0.0001392953
-4.745702e-06
-0.0001763417
-0.00014016
-5.056231e-06
-0.0001783882
-0.0001465942
-5.874902e-06
-0.0001822651
-0.0001616733
-1.144616e-05
-0.0001898445
-0.0001667953
-8.716893e-06
-0.0002146428
-0.0001648906
-0.0001738801
-6.713423e-05
-0.0001205675
-0.0002001908
-0.0001339076
-0.0002017493
-5.116717e-05
-9.112844e-05
-0.0002477086
-8.054911e-05
-0.0002140889
-4.705409e-05
-2.843703e-05
-0.0002714896
-2.673066e-05
-0.0002775625
-8.026458e-05
-7.721482e-06
-0.0002800999
-1.044234e-05
-0.0002748918
-5.46709e-05
6.582607e-05
-0.0002809096
8.790463e-05
-0.0002300631
-4.170954e-05
0.000117792
-0.0003117787
0.0001170498
-0.0003080986
0.0001944665
0.0002263217
-0.0004346353
-0.0007579587
-0.0005780543
-0.000491126
-0.0006395477
-0.0006402652
-0.001073405
-0.0007921314
-0.0007784451
-0.0008698526
-0.0008631827
-0.001368765
-0.001023234
-0.001060079
-0.001208109
-0.001118735
-0.001789719
-0.00130131
-0.001254676
-0.001534972
-0.001992647
-0.003002758
-0.002212731
-0.002325861
-0.002385306
-0.002289619
-0.003541938
-0.002570788
-0.002740785
-0.002863039
-0.002641701
-0.003857836
-0.002933486
-0.003332246
-0.003484573
-0.003149648
-0.003429609
-0.003452216
-0.003528726
-0.003914105
-0.003589985
-0.005257838
-0.003914614
-0.004285644
-0.004450369
-0.003927959
-0.005594531
-0.004371031
-0.004866278
-0.004929808
-0.004451936
-0.006595519
-0.004799206
-0.005699954
-0.00542725
-0.005018409
-0.007169202
-0.005346046
-0.005962311
-0.005977222
-0.005424055
-0.007864825
-0.0058113
-0.006723699
-0.006927162
-0.005992596
-0.009134532
-0.006297522
-0.006734965
-0.007220488
-0.00646112
-0.009598301
-0.006840585
-0.007612921
-0.007408174