/*--------------------------------*- C++ -*----------------------------------*\
  =========                 |
  \\      /  F ield         | OpenFOAM: The Open Source CFD Toolbox
   \\    /   O peration     | Website:  https://openfoam.org
    \\  /    A nd           | Version:  7
     \\/     M anipulation  |
\*---------------------------------------------------------------------------*/
FoamFile
{
    version     2.0;
    format      ascii;
    class       volScalarField;
    location    "0.1";
    object      Uz;
}
// * * * * * * * * * * * * * * * * * * * * * * * * * * * * * * * * * * * * * //

dimensions      [0 1 -1 0 0 0 0];

internalField   nonuniform List<scalar> 
80136
(
1.120279e-06
-7.20742e-08
-2.331463e-06
-2.120833e-06
-2.834115e-06
2.510723e-07
-1.2522e-07
-2.000487e-06
3.668253e-07
-7.786562e-06
-4.256361e-06
-3.96502e-06
-2.189286e-06
-1.566683e-06
1.246639e-06
7.239115e-06
-1.093705e-06
2.113379e-06
8.061131e-07
1.729683e-06
9.791454e-07
-7.379508e-06
5.034207e-06
-4.709161e-06
-1.801554e-07
-1.059823e-06
1.429451e-07
-1.163407e-07
-7.813953e-06
7.47221e-06
-4.279137e-06
6.297371e-07
-6.313909e-07
5.989001e-07
2.001075e-07
-8.762689e-06
7.246777e-06
-5.255373e-06
1.737627e-07
-1.086762e-06
3.516511e-07
1.263821e-08
2.69381e-06
6.101667e-06
-4.38708e-06
2.584632e-07
-9.451145e-07
3.953593e-07
-2.916277e-08
3.792336e-06
4.552111e-06
-4.643416e-06
-7.012953e-10
-9.884608e-07
3.840536e-07
5.532179e-08
8.460231e-06
4.920119e-06
-4.258983e-06
2.230828e-08
-9.809628e-07
3.460345e-07
-2.859407e-07
1.058599e-05
4.171532e-06
-4.443826e-06
-1.155139e-07
-9.390088e-07
5.496674e-07
2.886365e-07
1.373317e-05
5.132114e-06
-4.551535e-06
-9.371407e-08
-1.081113e-06
3.769455e-07
-2.046501e-08
1.176202e-05
7.621081e-06
-5.175726e-06
1.977891e-08
-1.125518e-06
4.20004e-07
3.909013e-07
3.209999e-06
8.444337e-06
-6.551565e-06
-8.194654e-08
-1.390769e-06
2.292978e-07
1.653552e-08
-4.107627e-06
1.183261e-05
-6.987844e-06
1.074642e-07
-1.459472e-06
1.377098e-07
8.002495e-08
-1.406574e-05
1.020066e-05
-8.489283e-06
-1.917078e-07
-1.744479e-06
9.144895e-09
-1.791174e-07
1.904556e-05
8.775388e-06
-5.842337e-06
-2.07674e-07
-1.599109e-06
-2.184296e-07
-2.501903e-07
2.921295e-06
7.589661e-06
-7.311432e-06
-4.748069e-07
-1.812978e-06
-1.907892e-07
-4.417846e-07
3.379809e-08
6.025332e-06
-8.116564e-06
-1.095061e-06
-2.265814e-06
-9.730698e-07
-9.061428e-07
-1.498548e-06
6.430605e-06
-8.027859e-06
-7.384957e-07
-2.163208e-06
-2.160811e-07
-8.910258e-07
-6.198905e-06
4.182484e-06
-9.75446e-06
-2.814547e-06
-3.98636e-06
-3.902151e-06
-3.036603e-06
-6.233439e-06
3.215733e-06
-9.014131e-06
-5.440412e-07
-2.803982e-06
1.723147e-06
-2.01524e-06
-1.682128e-05
3.302114e-06
-1.301564e-05
-8.967314e-06
-9.86377e-06
-1.876809e-05
-1.067348e-05
-2.346352e-05
1.093298e-05
-9.824092e-06
4.286254e-06
-4.555189e-06
1.980189e-05
-7.165539e-06
2.209637e-05
5.448589e-05
2.462846e-05
7.372302e-05
5.063692e-05
7.462368e-05
5.600469e-05
8.513369e-05
-2.192276e-05
8.219111e-08
1.330051e-06
-4.732305e-06
6.249807e-08
-4.058093e-06
-2.967872e-06
-2.464876e-06
-6.613714e-05
9.824584e-07
1.901578e-06
-3.867198e-06
-1.790849e-06
-3.492432e-06
-2.190299e-06
-1.594906e-06
-3.428484e-05
7.077127e-06
6.277444e-06
1.231697e-06
1.704692e-06
-3.037113e-07
-1.314769e-08
-3.745595e-07
-5.902298e-05
4.968841e-06
4.540433e-06
1.324274e-06
1.480037e-06
-4.012871e-08
4.036039e-07
-1.046196e-07
-5.831582e-05
7.824778e-06
7.228598e-06
3.17715e-06
3.059754e-06
1.236993e-06
1.514451e-06
6.437214e-07
-0.0001279057
6.999222e-06
6.819579e-06
3.248924e-06
3.285635e-06
1.441825e-06
1.88513e-06
8.293975e-07
-0.0001062833
4.825453e-06
9.396902e-06
3.381473e-06
4.148596e-06
1.839022e-06
2.410606e-06
1.25353e-06
-0.0001119387
5.074851e-06
1.008066e-05
3.391843e-06
4.534926e-06
1.936075e-06
2.775868e-06
1.521099e-06
-0.0001193741
4.372085e-06
1.110912e-05
3.243636e-06
4.86297e-06
1.868362e-06
2.656495e-06
9.670742e-07
-0.0001389478
2.978812e-06
1.182861e-05
2.991576e-06
5.104093e-06
1.913003e-06
2.885421e-06
1.853366e-06
-0.0001685999
2.544228e-06
1.246105e-05
2.907628e-06
5.165976e-06
1.587666e-06
2.301582e-06
-1.852524e-08
-0.0001957101
3.09598e-06
1.236613e-05
2.999521e-06
5.129356e-06
1.589235e-06
2.206608e-06
7.212399e-07
-0.0001920482
2.651061e-06
1.274969e-05
3.434264e-06
5.157119e-06
1.546869e-06
1.882195e-06
9.500696e-09
-0.0002391218
1.174169e-05
1.244739e-05
4.311067e-06
5.063056e-06
1.504497e-06
1.69487e-06
1.129e-07
-0.0003726871
1.077694e-05
1.116392e-05
4.592646e-06
5.045591e-06
1.60678e-06
1.576757e-06
9.833919e-08
-0.0002566305
5.345724e-06
1.50657e-05
3.831747e-06
5.333359e-06
1.303746e-06
1.408446e-06
-1.351712e-07
-0.000285226
1.274221e-05
1.491901e-05
5.01997e-06
5.480244e-06
1.595809e-06
1.413721e-06
3.117224e-08
-0.0003186615
1.58835e-05
1.363512e-05
5.17589e-06
4.878456e-06
1.150621e-06
8.428959e-07
-4.050561e-07
-0.0003742732
1.629206e-05
1.255483e-05
5.684044e-06
5.108975e-06
1.680385e-06
1.426358e-06
-8.754801e-08
-0.0004066746
1.753182e-05
9.315327e-06
5.086869e-06
3.045684e-06
6.524318e-07
-9.549335e-07
-6.047218e-07
-0.0004311327
1.694568e-05
9.847236e-06
6.418324e-06
5.473379e-06
2.148388e-06
3.646227e-06
-5.501358e-07
-0.0003880783
1.441746e-05
5.009893e-06
4.660112e-06
-1.170754e-06
5.126567e-07
-8.754738e-06
3.802346e-07
5.593232e-05
2.342325e-05
7.399677e-06
8.587037e-06
1.013031e-05
3.494764e-06
2.093417e-05
-5.462771e-06
-1.876628e-05
1.00663e-05
-2.255285e-05
3.220847e-06
-1.117562e-05
-8.190274e-06
-5.781996e-06
2.032185e-05
-5.617291e-07
-1.163456e-05
-1.656434e-05
-1.168369e-05
-1.277179e-05
-1.166884e-05
-8.095258e-06
-8.309387e-06
1.659634e-05
1.529575e-06
-1.766457e-06
-2.568519e-06
-4.143778e-06
-2.96704e-06
-2.053317e-06
2.712412e-05
2.270935e-05
5.557212e-06
2.083897e-06
-4.654676e-07
-1.596602e-06
-1.468487e-06
-1.061798e-06
1.490804e-05
2.757081e-05
5.51581e-06
5.447952e-06
1.487828e-06
5.733427e-07
6.523555e-07
3.293322e-07
1.901361e-05
3.251906e-05
7.217306e-06
7.283449e-06
2.755174e-06
1.71822e-06
1.619255e-06
1.098837e-06
1.207973e-05
3.517535e-05
8.437758e-06
8.273944e-06
3.500999e-06
2.277002e-06
2.312693e-06
1.53929e-06
1.268296e-05
2.765172e-05
1.419019e-05
7.968843e-06
4.69284e-06
2.663466e-06
2.912079e-06
2.014029e-06
2.363354e-05
3.094423e-05
1.827207e-05
8.562813e-06
5.581718e-06
2.918962e-06
3.43183e-06
2.531335e-06
2.819325e-05
2.798073e-05
1.97171e-05
8.191198e-06
6.009714e-06
2.794145e-06
3.332295e-06
1.805257e-06
3.25289e-05
2.754547e-05
2.20262e-05
8.164997e-06
6.437533e-06
2.907459e-06
3.677912e-06
2.954503e-06
2.071004e-05
2.619477e-05
2.227678e-05
8.09813e-06
6.392385e-06
2.491773e-06
2.967962e-06
7.397329e-07
-7.935601e-06
2.969979e-05
1.978551e-05
8.332391e-06
5.894645e-06
2.44911e-06
2.761658e-06
1.539916e-06
2.816015e-06
3.850162e-05
1.89983e-05
9.796022e-06
5.731676e-06
2.397654e-06
2.34904e-06
5.700737e-07
4.033533e-05
4.550976e-05
1.140298e-05
1.020768e-05
4.564245e-06
2.210939e-06
1.849784e-06
5.764191e-07
3.001977e-05
5.521078e-05
1.367895e-05
1.202609e-05
4.992006e-06
2.394679e-06
1.781638e-06
3.795757e-07
-6.248312e-06
2.885293e-05
2.14938e-05
9.04331e-06
5.317386e-06
1.840246e-06
1.296149e-06
4.714973e-08
4.366604e-05
4.810197e-05
2.141236e-05
1.160717e-05
5.764874e-06
2.200787e-06
1.437449e-06
5.375574e-08
5.422298e-05
5.012279e-05
1.965704e-05
1.164356e-05
4.523906e-06
1.543933e-06
2.316567e-07
-6.2148e-07
3.907169e-05
5.231915e-05
1.861857e-05
1.233804e-05
5.140044e-06
2.241962e-06
1.038271e-06
-3.409522e-07
3.74599e-05
5.362005e-05
1.447412e-05
1.127487e-05
1.7841e-06
2.410769e-07
-2.431871e-06
-1.663757e-06
4.465024e-05
5.368061e-05
1.680236e-05
1.32733e-05
5.049624e-06
2.866408e-06
1.625327e-06
-9.297744e-07
1.355128e-05
5.357001e-05
5.69713e-06
9.814012e-06
-3.852308e-06
-1.398902e-06
-8.31407e-06
-1.245057e-06
7.923803e-06
6.179109e-05
2.565028e-06
1.575848e-05
6.783616e-06
5.072658e-06
6.025844e-06
-3.673367e-06
-4.401309e-06
-3.428988e-07
-5.934552e-06
-3.701929e-06
-4.750203e-06
-2.641227e-06
-2.365762e-06
4.061299e-06
9.380491e-07
-8.084764e-07
-1.998301e-06
-3.568811e-07
-1.637071e-06
-7.888386e-07
-5.223676e-07
8.729785e-07
1.86008e-06
7.152161e-07
-8.765855e-07
-3.485873e-07
-1.203207e-06
-3.909725e-07
-2.525059e-07
9.864984e-06
4.128562e-06
2.897632e-06
1.038633e-06
1.045584e-06
1.347568e-07
5.354058e-07
5.321989e-07
1.081771e-06
2.211922e-06
1.889485e-06
1.153582e-06
1.157128e-06
4.453254e-07
9.883126e-07
8.490477e-07
2.705242e-06
3.458273e-06
3.374916e-06
2.188121e-06
2.129646e-06
1.245994e-06
1.776893e-06
1.53645e-06
6.591996e-06
3.73519e-06
4.182147e-06
2.409532e-06
2.455368e-06
1.435284e-06
2.163639e-06
1.857226e-06
1.435028e-05
4.656205e-06
6.054818e-06
2.839093e-06
3.112309e-06
1.739034e-06
2.619001e-06
2.243805e-06
2.225437e-05
6.273981e-06
7.645355e-06
3.15955e-06
3.505935e-06
1.853455e-06
2.996802e-06
2.743229e-06
2.000932e-05
5.583581e-06
7.800982e-06
2.997269e-06
3.654354e-06
1.695529e-06
2.844804e-06
2.166359e-06
2.0811e-05
5.004098e-06
7.968151e-06
2.652322e-06
3.613727e-06
1.591194e-06
2.986242e-06
2.943132e-06
1.958254e-05
4.0122e-06
7.820929e-06
2.389148e-06
3.457832e-06
1.121276e-06
2.248677e-06
1.206114e-06
1.899282e-05
2.311522e-06
6.386987e-06
1.637566e-06
2.810858e-06
7.42565e-07
1.863374e-06
1.404116e-06
2.116333e-05
4.021742e-06
6.690294e-06
2.047486e-06
2.652595e-06
5.17863e-07
1.304689e-06
4.620188e-07
-8.852318e-06
5.022373e-07
2.034073e-06
1.036819e-06
1.558987e-06
-2.622526e-08
6.567814e-07
6.315071e-08
4.665821e-06
2.813727e-06
4.046562e-06
1.628693e-06
1.749552e-06
-8.012914e-08
3.607994e-07
-2.819588e-07
2.077432e-05
2.270111e-06
5.798238e-06
9.780829e-07
1.451058e-06
-7.13734e-07
-3.560466e-07
-9.8157e-07
1.565344e-05
4.955586e-06
5.900493e-06
1.698999e-06
1.569945e-06
-6.232627e-07
-4.743538e-07
-1.153116e-06
1.060509e-05
4.074652e-06
3.829256e-06
6.604016e-07
-1.119968e-07
-1.957046e-06
-2.158855e-06
-2.543978e-06
1.08262e-05
4.231204e-06
3.963278e-06
1.120869e-06
4.555179e-07
-1.377525e-06
-1.547186e-06
-2.379122e-06
4.805982e-06
1.161794e-06
-6.728619e-08
-1.823357e-06
-3.792888e-06
-4.932483e-06
-6.426199e-06
-5.767569e-06
8.511729e-06
2.716261e-06
1.590609e-06
2.498761e-07
-6.091018e-07
-2.383539e-06
-2.158471e-06
-4.489213e-06
-5.367358e-06
-2.285018e-06
-5.437366e-06
-5.459622e-06
-1.094647e-05
-1.028677e-05
-1.674897e-05
-1.18188e-05
-2.279185e-05
-6.239074e-07
-2.991557e-06
-4.49665e-07
-1.959391e-07
-4.000549e-06
9.745973e-07
-9.554204e-06
7.614156e-07
1.375596e-06
-3.067554e-06
2.928578e-07
-1.509805e-06
-2.275078e-06
-1.2294e-06
9.732993e-07
1.178133e-06
-1.210455e-06
-2.411507e-06
-2.009845e-06
-2.384461e-06
-2.546297e-06
-1.397693e-06
1.274194e-06
4.478366e-06
1.534774e-06
7.722305e-07
3.301206e-07
-1.727407e-07
-4.119649e-07
-4.194576e-08
6.460234e-06
6.398271e-06
2.509133e-06
1.766462e-06
6.188085e-07
1.64275e-07
-4.467571e-08
2.682866e-07
6.571713e-06
8.191044e-06
3.390914e-06
3.178391e-06
1.634803e-06
1.141955e-06
8.830904e-07
9.778604e-07
7.964075e-06
9.353933e-06
4.181261e-06
3.987454e-06
2.292615e-06
1.747641e-06
1.463831e-06
1.537433e-06
7.994238e-06
1.040651e-05
4.729829e-06
4.659067e-06
2.802955e-06
2.242516e-06
1.944919e-06
1.964641e-06
6.651276e-06
9.541867e-06
5.170659e-06
4.839598e-06
3.176787e-06
2.554245e-06
2.320486e-06
2.387016e-06
6.665095e-06
9.865924e-06
5.640405e-06
4.956285e-06
3.409965e-06
2.662214e-06
2.52427e-06
2.627082e-06
7.729796e-06
9.600188e-06
6.25671e-06
4.997423e-06
3.668377e-06
2.703577e-06
2.571933e-06
2.445824e-06
8.39023e-06
8.979753e-06
6.606348e-06
4.612061e-06
3.674891e-06
2.536757e-06
2.537552e-06
2.576401e-06
8.651588e-06
9.30481e-06
7.111123e-06
4.779971e-06
3.779186e-06
2.384141e-06
2.207058e-06
1.587093e-06
3.208756e-06
7.919471e-06
5.378575e-06
4.07806e-06
3.183375e-06
1.949037e-06
1.742782e-06
1.284654e-06
4.035002e-06
9.882356e-06
5.427059e-06
4.723147e-06
3.148872e-06
1.958838e-06
1.530693e-06
8.766999e-07
7.66467e-06
1.068074e-05
4.468699e-06
4.448451e-06
2.600364e-06
1.540838e-06
9.759681e-07
3.468882e-07
9.449421e-06
1.330491e-05
5.612998e-06
5.235766e-06
2.881455e-06
1.686415e-06
9.679335e-07
3.342855e-07
4.447997e-06
9.383142e-06
5.175506e-06
4.226543e-06
2.323831e-06
1.055072e-06
3.16521e-07
-2.813031e-07
1.413359e-05
1.353634e-05
7.403318e-06
5.335712e-06
2.99271e-06
1.549824e-06
6.063581e-07
2.953795e-08
8.947591e-06
1.315669e-05
4.542975e-06
4.452284e-06
1.109731e-06
1.931808e-07
-9.511304e-07
-1.061832e-06
1.217677e-05
1.42834e-05
6.350203e-06
5.924102e-06
2.836597e-06
2.070924e-06
6.808004e-07
3.256123e-07
1.002023e-05
1.278593e-05
2.698767e-06
2.773371e-06
-2.276906e-06
-2.022098e-06
-3.843986e-06
-2.208198e-06
1.153094e-05
1.527331e-05
6.534945e-06
7.991017e-06
4.68697e-06
4.94806e-06
2.824519e-06
2.330476e-06
8.400694e-06
1.206324e-05
-9.979014e-07
1.701798e-07
-9.368913e-06
-5.596251e-06
-9.295318e-06
-2.013452e-06
1.327799e-05
1.947129e-05
9.770628e-06
1.367083e-05
1.235342e-05
1.352248e-05
1.052629e-05
7.930537e-06
1.054319e-06
-1.329238e-07
4.797811e-06
1.459425e-06
3.463758e-06
2.951185e-06
1.978444e-06
3.894001e-07
2.803316e-07
2.706743e-06
3.870903e-06
3.294736e-06
3.533533e-06
3.002003e-06
2.300674e-06
9.399718e-07
-2.487788e-06
3.020617e-07
1.084617e-06
1.289944e-06
2.184294e-06
1.644314e-06
1.531466e-06
-3.837873e-06
-3.986203e-06
-6.380086e-07
6.879427e-08
9.686985e-07
1.421752e-06
1.442773e-06
1.522318e-06
-2.843895e-06
-5.204385e-06
-1.037533e-06
-1.01417e-06
2.569034e-07
8.941224e-07
1.073502e-06
1.435065e-06
-4.521706e-06
-5.913582e-06
-1.822802e-06
-1.606913e-06
-2.693743e-07
4.307211e-07
8.465113e-07
1.369438e-06
-4.493151e-06
-6.08111e-06
-1.92213e-06
-1.897246e-06
-5.596544e-07
2.205856e-07
7.406759e-07
1.477135e-06
-3.019978e-06
-4.720493e-06
-2.550512e-06
-1.787371e-06
-8.578214e-07
1.515874e-07
6.939252e-07
1.538314e-06
-1.301204e-06
-4.451269e-06
-3.094037e-06
-2.009111e-06
-1.1812e-06
5.309054e-09
6.312808e-07
1.671282e-06
-2.532812e-06
-5.494074e-06
-3.159184e-06
-2.46955e-06
-1.237185e-06
-1.344343e-07
6.722437e-07
1.716666e-06
-3.463163e-06
-8.30966e-06
-3.634398e-06
-3.631449e-06
-1.702606e-06
-6.120779e-07
4.412673e-07
1.593037e-06
-5.319468e-06
-9.530872e-06
-3.403709e-06
-4.051705e-06
-1.727235e-06
-8.039274e-07
3.567676e-07
1.354178e-06
-1.117213e-05
-1.225841e-05
-6.530835e-06
-5.431345e-06
-2.90031e-06
-1.507004e-06
-2.617398e-07
7.770238e-07
-3.952164e-06
-1.028947e-05
-5.69589e-06
-5.13939e-06
-2.950183e-06
-1.62989e-06
-4.525535e-07
4.918474e-07
-1.09357e-05
-1.445874e-05
-7.741315e-06
-6.566797e-06
-3.923967e-06
-2.349825e-06
-1.186957e-06
-2.499162e-07
-1.102972e-05
-1.467123e-05
-7.537503e-06
-6.710879e-06
-4.007427e-06
-2.545493e-06
-1.395858e-06
-5.385292e-07
-1.109077e-05
-1.493972e-05
-8.178201e-06
-7.317858e-06
-4.885929e-06
-3.310834e-06
-2.344653e-06
-1.411875e-06
-1.2544e-05
-1.478999e-05
-7.615197e-06
-7.14023e-06
-4.71775e-06
-3.202247e-06
-2.291588e-06
-1.536328e-06
-1.031118e-05
-1.353679e-05
-1.103765e-05
-8.201209e-06
-7.274816e-06
-5.042949e-06
-4.542496e-06
-3.30644e-06
-1.805156e-05
-1.63499e-05
-1.052216e-05
-7.835221e-06
-5.996736e-06
-3.873513e-06
-3.273445e-06
-2.544921e-06
-2.656435e-05
-2.245043e-05
-1.557595e-05
-1.284294e-05
-1.212502e-05
-9.376675e-06
-9.422356e-06
-7.405297e-06
-2.339776e-05
-1.906588e-05
-1.242467e-05
-8.943386e-06
-6.853197e-06
-4.546938e-06
-3.937396e-06
-3.550838e-06
-2.452222e-05
-2.477853e-05
-1.820016e-05
-1.782662e-05
-2.106762e-05
-1.736191e-05
-1.960524e-05
-1.63693e-05
-1.415615e-05
-1.724663e-05
-8.657747e-06
-9.522156e-06
-6.949464e-06
-6.561001e-06
-4.873497e-06
-5.857385e-06
3.679514e-06
2.812042e-06
8.904091e-06
4.34572e-06
1.153658e-05
-3.947235e-07
1.336632e-06
-1.224395e-06
4.111597e-07
2.528985e-06
3.692449e-06
2.118467e-06
2.740011e-06
1.018373e-06
1.990269e-06
-6.95492e-07
-8.817461e-07
8.799319e-07
2.60799e-06
1.670805e-06
3.592533e-06
1.2176e-06
1.398151e-06
-8.095654e-06
-1.943766e-06
-1.218552e-06
6.341094e-07
5.117358e-07
1.324447e-06
7.0623e-07
1.28473e-06
1.098673e-06
-1.026212e-07
1.537525e-07
6.572261e-07
5.330428e-07
1.426921e-06
8.019328e-07
1.337649e-06
-5.73515e-07
-1.424331e-06
-1.222345e-06
-3.17661e-07
-2.764784e-07
6.766082e-07
3.192265e-07
1.151621e-06
4.54531e-06
3.916235e-08
-8.130182e-07
-5.924004e-08
-3.573049e-07
7.646026e-07
2.810811e-07
1.298691e-06
-8.126956e-06
-4.502601e-07
-3.381298e-06
-1.983385e-07
-9.752731e-07
6.697496e-07
1.182345e-07
1.361893e-06
-2.11213e-05
-1.576651e-06
-5.849481e-06
-6.439634e-07
-1.564607e-06
5.090292e-07
-1.563583e-07
1.233041e-06
-1.646657e-05
-1.911444e-06
-4.99478e-06
-7.777882e-07
-1.43014e-06
5.870455e-07
9.080772e-08
1.698755e-06
-1.159268e-05
-4.285196e-06
-4.638657e-06
-1.969073e-06
-1.727062e-06
6.888696e-08
-3.099322e-07
8.865163e-07
-5.287526e-07
-3.290498e-06
-2.640137e-06
-1.755433e-06
-1.346443e-06
2.613675e-07
6.856083e-08
1.639399e-06
-1.155897e-05
-7.868262e-06
-6.028749e-06
-3.466683e-06
-2.459686e-06
-5.188539e-07
-5.454424e-07
4.454574e-07
-2.852437e-05
-8.422492e-06
-7.892661e-06
-3.410103e-06
-2.696884e-06
-4.045596e-07
-4.24513e-07
8.268676e-07
-2.119617e-05
-5.558356e-06
-7.946606e-06
-3.267787e-06
-3.174559e-06
-8.396526e-07
-9.218113e-07
-2.925834e-08
-1.56703e-05
-6.360902e-06
-7.050545e-06
-3.467961e-06
-3.072165e-06
-8.253633e-07
-8.812597e-07
8.841221e-08
-1.040432e-05
-6.014959e-06
-7.417732e-06
-3.71158e-06
-3.900055e-06
-1.486446e-06
-1.614955e-06
-6.922593e-07
1.778232e-06
-8.182539e-06
-4.268722e-06
-3.935628e-06
-2.994533e-06
-9.860377e-07
-1.139718e-06
-2.066841e-07
-4.197605e-05
-3.490588e-06
-1.33043e-05
-4.114681e-06
-6.695643e-06
-3.020759e-06
-3.56754e-06
-1.858984e-06
-1.175949e-05
-6.416092e-06
-7.295319e-06
-2.841695e-06
-3.081087e-06
3.059799e-07
-3.996916e-07
8.380775e-07
-1.486371e-05
-1.002752e-05
-1.277907e-05
-8.602221e-06
-1.324682e-05
-8.084123e-06
-9.144318e-06
-4.45785e-06
-2.29749e-05
-7.452081e-06
-6.460005e-06
5.732026e-07
1.678488e-06
6.784033e-06
5.114361e-06
6.133915e-06
-6.231845e-06
-1.220773e-05
-1.734976e-05
-1.588949e-05
-3.494378e-05
-2.193826e-05
-2.549761e-05
-9.08325e-06
9.901971e-07
2.039039e-06
8.367741e-06
1.313469e-05
2.432058e-05
2.994648e-05
2.624485e-05
2.363405e-05
8.593205e-06
-1.158239e-05
2.459161e-05
2.055089e-06
1.059004e-05
1.211208e-05
7.017101e-06
-5.96992e-06
-2.242124e-07
1.26452e-05
1.704354e-05
1.227418e-05
1.188122e-05
1.118262e-05
7.96556e-06
1.287902e-05
-1.349459e-05
1.446517e-07
3.700337e-06
4.260607e-06
7.196471e-06
3.575217e-06
2.554582e-06
-2.137414e-05
-1.97103e-05
-4.379446e-06
-6.322274e-07
1.589741e-06
2.485444e-06
2.232782e-06
2.213945e-06
-5.014897e-06
-2.354233e-05
-3.543809e-06
-3.603595e-06
-3.924826e-08
1.070544e-06
7.46403e-07
1.324014e-06
-1.285273e-05
-2.624706e-05
-5.783132e-06
-5.150658e-06
-1.321994e-06
-1.774549e-07
-4.597128e-08
9.132361e-07
-1.979291e-05
-2.715451e-05
-5.920324e-06
-5.649778e-06
-1.856304e-06
-4.558196e-07
-4.309075e-07
9.048102e-07
-1.461125e-05
-1.7355e-05
-1.268914e-05
-4.668485e-06
-3.153666e-06
-6.406987e-07
-8.180147e-07
7.470222e-07
-9.35644e-06
-1.54813e-05
-1.808863e-05
-4.871681e-06
-4.222396e-06
-8.623723e-07
-1.258486e-06
5.942618e-07
-1.222467e-05
-1.931737e-05
-1.771101e-05
-5.692476e-06
-4.185175e-06
-9.511098e-07
-1.008867e-06
1.100939e-06
-9.708931e-06
-3.361052e-05
-1.425142e-05
-8.266097e-06
-4.374553e-06
-1.660725e-06
-1.504017e-06
1.43568e-07
-2.541354e-05
-3.849245e-05
-1.081457e-05
-9.066342e-06
-3.800684e-06
-1.5943e-06
-9.860592e-07
1.176169e-06
-4.85948e-05
-3.882469e-05
-2.034565e-05
-1.066684e-05
-5.587688e-06
-2.393387e-06
-1.722906e-06
-7.666168e-08
1.30465e-06
-3.214281e-05
-2.085285e-05
-9.97485e-06
-5.667416e-06
-2.258966e-06
-1.537021e-06
3.365746e-07
-4.921092e-06
-4.70535e-05
-1.758944e-05
-1.176347e-05
-5.985463e-06
-2.84151e-06
-2.067862e-06
-5.072496e-07
-2.365692e-05
-5.158594e-05
-1.898461e-05
-1.283154e-05
-6.112468e-06
-3.035117e-06
-2.024156e-06
-5.261787e-07
-3.388755e-05
-4.855932e-05
-1.953642e-05
-1.26092e-05
-6.945975e-06
-3.558121e-06
-2.812284e-06
-1.217776e-06
-4.270674e-05
-4.822709e-05
-1.520749e-05
-1.303024e-05
-6.069006e-06
-3.275368e-06
-2.327554e-06
-9.629997e-07
2.625347e-06
-2.999874e-05
-3.105649e-05
-1.132894e-05
-1.045254e-05
-4.958112e-06
-4.883235e-06
-2.568699e-06
-5.61664e-05
-4.705336e-05
-2.246321e-05
-1.230502e-05
-7.097391e-06
-2.626104e-06
-2.146593e-06
-5.710949e-07
-9.313862e-05
-6.328443e-05
-2.928199e-05
-1.985123e-05
-1.697613e-05
-1.086311e-05
-1.081908e-05
-6.460814e-06
-8.568684e-05
-5.184552e-05
-2.710928e-05
-1.217719e-05
-6.058064e-06
-2.437106e-07
1.565538e-08
1.580139e-06
-6.771671e-05
-7.143515e-05
-2.918928e-05
-2.957533e-05
-3.799255e-05
-2.663503e-05
-2.836036e-05
-1.794418e-05
2.537932e-08
-5.097054e-05
-8.354205e-06
-1.214495e-05
-3.868476e-06
4.087849e-07
1.360921e-06
3.994637e-06
1.019485e-05
-1.461968e-05
2.231076e-05
-0.0001023541
5.940195e-06
-4.803621e-05
-0.0001711344
-0.0001062257
-1.647136e-05
-4.146707e-07
2.336486e-07
5.919591e-06
5.527329e-06
-2.220645e-06
4.03895e-06
8.712998e-06
3.325188e-05
-2.146858e-06
-5.4522e-07
4.339993e-06
2.690217e-06
5.333453e-06
3.582096e-06
1.199804e-06
-2.358735e-05
-3.35199e-06
-5.912181e-06
-2.188128e-07
-4.469536e-07
2.513681e-07
6.328823e-07
1.648508e-06
7.049076e-05
-6.454331e-06
-3.69226e-06
-7.861454e-07
-6.560507e-07
9.496404e-07
5.176588e-07
1.044733e-06
9.945937e-05
-1.158925e-05
-5.761936e-06
-2.690618e-06
-2.074372e-06
-4.10192e-07
-5.078686e-07
6.724191e-07
9.363533e-05
-9.114312e-06
-6.699222e-06
-2.422609e-06
-2.505373e-06
-3.878432e-07
-7.531113e-07
6.716795e-07
0.0001785074
1.297224e-07
-9.843527e-06
-1.498521e-06
-3.396402e-06
-5.644813e-07
-1.118979e-06
4.974484e-07
4.93521e-05
7.185304e-06
-1.302853e-05
-9.327947e-07
-4.082766e-06
-6.630388e-07
-1.500405e-06
3.365325e-07
4.734535e-05
1.346202e-07
-1.226998e-05
-1.986355e-06
-4.080485e-06
-7.611481e-07
-1.26626e-06
8.003405e-07
9.58053e-05
-1.026798e-05
-8.434681e-06
-3.998149e-06
-4.099033e-06
-1.371196e-06
-1.664585e-06
-2.051972e-07
0.0002822389
-1.300686e-05
-6.059897e-06
-4.460561e-06
-3.743592e-06
-1.21913e-06
-1.144418e-06
1.082815e-06
0.0003823249
-2.479283e-05
-1.308449e-05
-6.636941e-06
-5.13162e-06
-1.957748e-06
-1.668886e-06
-1.599955e-07
4.529267e-05
-2.529386e-05
-1.095638e-05
-6.507151e-06
-4.931969e-06
-1.803243e-06
-1.48378e-06
3.92806e-07
5.488722e-05
9.582646e-08
-1.52357e-05
-4.175166e-06
-5.819287e-06
-1.945259e-06
-1.889244e-06
-3.186212e-07
0.0004838748
-1.015947e-05
-1.493205e-05
-5.965917e-06
-5.946423e-06
-2.196985e-06
-1.961843e-06
-3.106751e-07
0.0001668676
-1.486785e-05
-1.492342e-05
-5.625876e-06
-6.594711e-06
-2.613661e-06
-2.559212e-06
-9.596706e-07
0.0008131559
-4.782426e-05
-1.013207e-05
-9.893366e-06
-6.09079e-06
-2.805994e-06
-2.395149e-06
-8.665435e-07
0.0003870788
3.502612e-05
-2.260233e-05
-1.426355e-06
-9.663268e-06
-3.864962e-06
-4.67897e-06
-2.398828e-06
0.0001180514
-1.212504e-05
-1.804147e-05
-6.2436e-06
-7.32897e-06
-2.240818e-06
-2.608187e-06
-1.005098e-06
0.0007386088
-1.720643e-05
-1.993107e-05
-1.16929e-05
-1.95024e-05
-1.157432e-05
-1.249857e-05
-6.784441e-06
0.0003604701
-1.717858e-05
-1.674886e-05
-5.51277e-06
-5.274197e-06
1.93749e-06
8.138035e-07
1.182674e-06
0.0007138263
-3.288433e-05
-2.97963e-05
-2.574286e-05
-7.420011e-05
-4.460745e-05
-4.705158e-05
-1.950246e-05
-0.0007486733
-2.007061e-05
-1.816996e-06
4.143509e-06
1.778363e-05
3.575616e-05
3.064224e-05
1.877372e-05
-4.670969e-05
-0.0001013182
-0.0001104359
-0.0001767281
-0.0002120487
-0.0001885392
-0.000272901
-0.0002760461
2.489847e-05
-1.6119e-07
2.243142e-06
4.166669e-06
6.639293e-06
1.529551e-06
1.017362e-06
4.928466e-06
9.745019e-05
-2.210663e-06
-1.514136e-07
7.184808e-06
4.027582e-06
4.232569e-06
3.227455e-06
1.357526e-06
0.0001263374
-1.658495e-06
-7.266262e-06
1.383091e-06
-1.180995e-06
-9.45238e-07
-1.237425e-06
2.263566e-07
0.000185813
1.884119e-06
-5.390027e-06
4.031018e-06
2.88437e-07
1.227737e-06
2.462626e-07
3.95566e-07
0.0002200155
-1.323027e-06
-6.598253e-06
3.049701e-06
-2.739778e-07
6.76449e-07
-2.599661e-07
2.781723e-07
0.0002791987
2.168749e-06
-7.115494e-06
4.306324e-06
-5.001013e-08
1.211283e-06
-1.935957e-08
4.38828e-07
0.0002042669
-6.202648e-06
-6.160476e-06
3.789561e-06
-7.72382e-08
1.130828e-06
-1.805933e-08
6.28145e-07
0.0005080652
-1.099264e-05
-6.72291e-06
4.030804e-06
-9.237136e-08
1.144639e-06
-2.638226e-08
6.093905e-07
0.0004873326
-1.469648e-05
-6.15229e-06
4.059277e-06
5.733663e-08
1.27616e-06
8.148882e-08
1.224382e-06
0.0004675613
-6.472259e-06
-6.070566e-06
4.161841e-06
2.369142e-07
1.09585e-06
-1.943362e-07
4.478075e-07
0.0007689184
1.19711e-07
-5.804845e-06
5.059384e-06
3.956633e-07
1.377478e-06
1.203569e-08
1.244228e-06
0.0004590643
-2.158921e-05
-5.335186e-06
3.362599e-06
3.40866e-07
9.77336e-07
-2.129562e-07
1.242075e-07
0.0008527891
-3.749363e-05
-7.347159e-06
2.096489e-06
6.102135e-08
9.539916e-07
-8.438371e-08
4.910993e-07
0.0008639483
2.618333e-06
-1.346388e-05
7.343787e-06
-4.843343e-07
1.393637e-06
-2.076157e-07
1.151267e-07
0.0008970083
9.497751e-07
-1.096077e-05
6.605053e-06
-1.435338e-07
1.426184e-06
4.995823e-09
2.858315e-07
0.0009948693
2.685249e-07
-1.006951e-05
7.012944e-06
-2.788895e-07
1.42979e-06
-1.802504e-07
1.784083e-07
0.001343007
-2.362414e-05
-6.995539e-06
3.13986e-06
6.184741e-07
1.536752e-06
4.212033e-07
5.987777e-07
0.001365959
8.595142e-06
-9.068562e-06
1.004216e-05
-1.219677e-06
1.231039e-06
-8.589441e-07
2.60655e-07
0.00112881
-3.007967e-06
-6.37447e-06
8.628049e-06
2.31607e-06
4.465749e-06
2.483092e-06
2.613976e-06
0.001307961
1.600064e-05
-4.009244e-06
7.654906e-06
-8.34443e-06
-2.955235e-06
-5.84324e-06
4.024916e-08
0.00144638
1.61924e-06
4.15443e-06
1.652857e-05
1.283996e-05
1.786213e-05
1.365884e-05
1.171807e-05
0.001605763
1.156953e-05
-1.772628e-05
-1.700315e-06
-6.199966e-05
-3.119348e-05
-3.621101e-05
2.494146e-07
0.001694745
1.211295e-05
1.35092e-05
4.107473e-05
6.143455e-05
8.051793e-05
6.644914e-05
4.529536e-05
-3.713283e-07
-1.160873e-05
1.227553e-05
9.554147e-07
-3.254623e-06
-3.895527e-05
1.995464e-05
-6.83673e-05
1.484599e-06
-3.957256e-06
-1.110224e-05
-3.512502e-05
8.668554e-05
-0.0001198682
4.327089e-05
-2.015245e-05
-9.215305e-06
-4.016691e-05
0.0001197729
-0.0001347367
4.082086e-05
-5.636349e-05
-5.413105e-06
-6.885847e-05
0.0001388713
-0.0001122549
1.97951e-05
-2.265163e-05
-4.86413e-06
-3.529518e-05
0.0001873311
-0.0001620744
5.932423e-05
-6.491395e-05
2.743214e-05
-7.113208e-05
0.0002017657
-0.0001743338
3.722034e-05
-3.011967e-05
1.149444e-05
-3.690471e-05
0.0002275923
-0.000222067
7.890118e-05
-7.864074e-05
3.215069e-05
0.0002161937
4.467425e-05
3.407726e-06
3.660588e-05
-2.221793e-05
4.872546e-07
6.859832e-05
1.118409e-08
1.217203e-05
4.124335e-05
-7.843734e-05
-4.146624e-05
0.0001222558
2.148226e-05
1.145463e-05
3.121292e-05
-0.0001158267
-4.35935e-05
0.0001189021
2.640719e-05
3.778394e-06
4.677665e-05
-0.0001892403
-7.374472e-05
0.0001509029
4.936867e-05
7.523867e-06
4.788787e-05
-0.0002440292
-8.069792e-05
0.0002739887
9.130422e-05
6.229948e-08
6.463114e-05
-0.000263813
-6.837005e-05
0.0003176787
6.185189e-05
2.635792e-06
9.206463e-05
-0.0003050585
-9.552483e-05
0.0003636554
2.939343e-05
1.017689e-05
8.520444e-05
-0.0004207543
-0.0001892963
0.0004327174
8.073182e-05
-6.487688e-06
0.0001090423
-0.0004648865
-0.0001790674
0.0005137216
9.139674e-05
-8.247483e-06
0.000129447
-0.000538278
-0.0002271983
0.0006008359
0.000126998
-8.80004e-06
0.000147248
-0.0006087811
-0.0002450857
0.0007072621
0.0001623884
-1.772299e-05
0.0001725912
-0.0006639981
-0.0002718906
0.000786185
0.0002155042
-3.311319e-05
0.0001707513
-0.0007469497
-0.0003046109
0.0008343489
0.000265751
-5.284699e-05
0.000132843
-0.0007774504
-0.0002309514
0.000909941
0.0003531053
-0.0001426572
0.0001957659
-0.0009137461
-0.0001955535
0.0008954441
0.0002206063
-9.284406e-05
0.0002888734
-0.0009450036
-0.0002870226
0.001030281
0.0001931759
-7.947085e-05
0.0001985781
-0.0009850122
-0.000429024
0.001019892
0.0003718347
-0.0001651363
0.000302276
-0.001092455
-0.0002976363
0.001252573
0.0002414184
-8.911336e-05
0.0002427737
-0.001158935
-0.0005241005
0.001292942
0.0004670196
-0.0001336275
0.0003259539
-0.001255492
-0.0003306605
0.001363986
0.0002837318
-9.719588e-05
0.0002914149
-0.001390006
-0.0006256846
0.001301859
0.0005254776
-0.0001079978
0.0003015976
-0.001560542
-0.0004233741
0.001473558
0.0004387359
-0.0001421541
0.0002489505
-0.001476005
-0.0005448224
0.001581051
0.0006694519
2.032463e-06
-1.417409e-06
7.234588e-06
-1.661431e-05
1.544798e-05
-2.529517e-06
8.519036e-06
-5.665107e-06
-3.158404e-06
-1.617682e-05
1.549569e-05
2.036201e-06
1.386966e-05
-1.399137e-05
-1.624144e-06
-1.258327e-05
1.379531e-05
8.139676e-07
1.535022e-05
-1.389409e-05
3.836418e-07
-1.369358e-05
1.444415e-05
7.105607e-07
1.58985e-05
-1.395465e-05
7.808746e-07
-1.411093e-05
1.49606e-05
1.578843e-06
1.483985e-05
-1.367411e-05
-3.571231e-07
-1.175006e-05
1.332774e-05
2.320353e-06
1.561926e-05
-1.529462e-05
-1.362005e-07
-1.12176e-05
6.439587e-06
6.503538e-07
2.500178e-05
-1.814451e-05
3.997152e-06
2.867979e-06
4.034974e-06
-4.41268e-06
1.02237e-05
-1.072899e-05
-2.034587e-06
1.318657e-06
4.684387e-05
-2.269935e-06
3.213012e-06
4.506856e-06
4.341807e-05
0.0001170891
-3.55588e-05
2.983027e-05
1.428649e-05
4.449169e-05
0.0001268713
-2.649076e-05
3.271599e-05
1.094721e-05
3.050854e-05
0.0001996405
-3.977575e-05
1.627958e-05
-4.516475e-06
5.330767e-05
0.0002418998
-6.727827e-05
9.505317e-05
1.044476e-05
6.579183e-05
0.0001929533
6.62494e-07
2.16902e-05
-1.829481e-05
3.65701e-05
-4.440622e-05
1.178015e-06
4.168595e-05
-0.0001187342
-1.966887e-05
-1.273047e-05
-4.696514e-05
3.285524e-05
-0.0001285035
-5.129733e-05
-1.598216e-05
-4.881457e-05
3.161521e-05
-0.0001641759
-2.037377e-05
-1.322185e-05
-4.334201e-05
7.262869e-05
-0.0002605501
-7.772662e-05
-1.423714e-05
-6.690858e-05
0.000137638
-0.0004402776
-9.098854e-05
-1.131772e-05
-8.466347e-05
0.0001488317
-0.0005127678
-0.0001132292
-1.521663e-05
-0.0001533035
0.0001689913
-0.0003846629
-0.0001302934
-6.40545e-06
-9.321238e-05
0.0001979704
-0.0007929205
-0.0001560252
1.109236e-05
-0.0001341324
0.0001532373