/*--------------------------------*- C++ -*----------------------------------*\
  =========                 |
  \\      /  F ield         | OpenFOAM: The Open Source CFD Toolbox
   \\    /   O peration     | Website:  https://openfoam.org
    \\  /    A nd           | Version:  7
     \\/     M anipulation  |
\*---------------------------------------------------------------------------*/
FoamFile
{
    version     2.0;
    format      ascii;
    class       volScalarField;
    location    "0.1";
    object      Uz;
}
// * * * * * * * * * * * * * * * * * * * * * * * * * * * * * * * * * * * * * //

dimensions      [0 1 -1 0 0 0 0];

internalField   nonuniform List<scalar> 
109978
(
3.27837e-05
-0.0003100351
-0.0004411549
-0.0005545075
-0.0006464737
-0.0006643616
0.0003385258
1.755892e-05
-3.058931e-05
-0.0002321347
-0.0004652079
-0.0006630021
0.0004411731
4.64984e-05
4.463966e-06
-0.0001361887
-0.000368325
-0.000554365
0.0005254676
0.0002406187
0.0001333221
-5.836169e-06
-0.0001909977
-0.000378719
0.0006022005
0.0004708426
0.0003507481
0.0001727823
-1.783572e-05
-0.0001521138
0.0006656321
0.0006659421
0.0005252457
0.00033587
0.0001142386
-3.630237e-05
0.0007164397
0.000835698
0.0007146828
0.0005174501
0.0002809865
0.0001262215
0.0007029158
0.001003098
0.0008887182
0.0006801003
0.0004402318
0.0002605098
0.0007361491
0.001173828
0.001072363
0.000844924
0.0006010253
0.0004184655
0.0007523254
0.001332978
0.001230521
0.001002206
0.0007544662
0.0005693612
0.0008041661
0.001473898
0.00137569
0.001158962
0.00090404
0.0007181359
0.000870938
0.00160057
0.001519834
0.001309557
0.001049221
0.0008619058
0.0009361334
0.001723583
0.001662824
0.001465281
0.001189286
0.0009994435
0.001010932
0.001839484
0.001794426
0.001598476
0.001325305
0.001132694
0.001084225
0.001959749
0.001925872
0.001734743
0.001457635
0.001261192
0.001158643
0.002077493
0.002047987
0.001853787
0.001587434
0.001386076
0.001241428
0.002196229
0.002180503
0.001977803
0.001709095
0.001506915
0.001321303
0.002306059
0.002301024
0.002096538
0.001840277
0.001622729
0.001409669
0.002393875
0.002426166
0.002203901
0.001940746
0.001733358
0.001505341
0.002457768
0.002541218
0.002304528
0.002039854
0.001842729
0.001601728
0.002544299
0.002658126
0.002404941
0.00214545
0.001940301
0.001690684
0.002656228
0.002769503
0.002507183
0.002252453
0.002062395
0.01281907
0.002773235
0.002891304
0.002600367
0.002352161
0.002156409
0.0006001255
0.001100154
0.001703669
0.002207414
0.002733672
0.003594098
-0.0005486837
1.095931e-05
4.288503e-05
0.0001346603
6.9787e-05
3.797656e-05
-0.00109085
-4.171632e-05
-1.538617e-05
-5.360032e-05
-3.97203e-05
-4.793164e-05
-0.001640866
-0.0001257954
6.024388e-05
3.407766e-05
2.680296e-05
2.914426e-05
-0.002162153
-4.644952e-05
5.313948e-05
-8.975109e-06
1.051464e-05
8.596461e-06
-0.002692977
-1.227935e-05
4.878748e-05
-2.163222e-05
-1.458554e-06
1.9108e-06
-0.003364894
9.614246e-05
4.675076e-05
1.288028e-05
4.039076e-06
1.699547e-05
-0.004229197
0.0001660889
3.063525e-05
2.047717e-05
-1.549173e-05
4.296251e-06
-0.004985376
0.0002246384
4.764362e-05
4.73172e-05
-7.685003e-06
1.394827e-05
-0.005625256
0.0002573151
5.899157e-05
5.566833e-05
-1.404933e-05
6.726958e-06
-0.006091984
0.0002714747
7.59874e-05
6.979079e-05
-7.50732e-06
1.096935e-05
-0.006614813
0.0003027024
9.207306e-05
8.503977e-05
-5.172751e-06
1.011586e-05
-0.007172186
0.0003273505
0.0001054293
9.976308e-05
2.973579e-07
1.345751e-05
-0.007728496
0.0003569993
0.0001178557
0.00011173
5.10909e-06
1.621664e-05
-0.008237189
0.0003920974
0.0001254231
0.0001247539
1.017682e-05
2.094259e-05
-0.008588091
0.0004314718
0.0001325504
0.0001380731
1.69922e-05
2.758329e-05
-0.008858238
0.0004760782
0.0001351648
0.0001466003
1.884413e-05
3.478744e-05
-0.00918329
0.0005228576
0.0001385485
0.0001581891
1.926984e-05
4.272288e-05
-0.009563311
0.000568156
0.0001425843
0.0001711297
2.105324e-05
5.225291e-05
-0.009991089
0.0005995794
0.0001486211
0.0001819408
2.344393e-05
6.459052e-05
-0.01039515
0.0006387242
0.0001542342
0.0001922522
2.2927e-05
7.301393e-05
-0.01078514
0.0006669124
0.0001704935
0.000203108
2.474853e-05
8.028932e-05
-0.01110934
0.0007061303
0.0001907808
0.00021462
1.959972e-05
8.612983e-05
0.008603884
0.0007291909
0.0002101641
0.0002252329
2.105283e-05
9.395533e-05
6.869683e-06
0.000325159
0.0004706846
0.0005757101
0.0007031542
0.001117389
-1.219744e-05
-2.15049e-05
0.0002074182
0.0003043973
0.0003013693
0.0003074363
-0.0003609649
-0.0002341218
-3.088328e-05
-7.363205e-05
-3.591094e-05
-5.275689e-05
-0.0004499674
-0.0003729962
8.307683e-05
6.280019e-05
7.791773e-05
8.204728e-05
-0.0005535847
-0.0003529419
7.195772e-05
-3.082654e-05
2.416488e-05
8.954602e-06
-0.0007449091
-0.0003760199
7.55684e-05
-6.207856e-05
1.857527e-05
9.944695e-06
-0.001071241
-0.0003358428
4.970845e-05
-6.471806e-05
7.997167e-06
1.770181e-06
-0.001261399
-0.0003505916
2.741836e-05
-7.555759e-05
-2.526918e-06
-6.4328e-06
-0.001406528
-0.0003665273
2.147304e-05
-7.733458e-05
-3.577181e-06
-5.084366e-06
-0.00156729
-0.0004006999
1.258808e-05
-8.817917e-05
-9.823401e-06
-1.161735e-05
-0.001677141
-0.0004255053
1.173491e-05
-9.10029e-05
-1.050966e-05
-1.14283e-05
-0.001797264
-0.0004566479
4.037578e-06
-0.0001005477
-1.49821e-05
-1.568211e-05
-0.001916486
-0.0004917517
-1.31148e-06
-0.0001064422
-1.708411e-05
-1.697618e-05
-0.002056622
-0.0005345869
-6.125993e-06
-0.0001134496
-1.995684e-05
-1.960375e-05
-0.002220143
-0.0005622259
-9.638079e-06
-0.0001178432
-1.997611e-05
-2.080721e-05
-0.002376453
-0.0005968778
-1.335232e-05
-0.0001240406
-2.450344e-05
-2.37906e-05
-0.002601976
-0.0006154554
-1.489326e-05
-0.0001253496
-2.602843e-05
-2.442131e-05
-0.002784647
-0.0006426218
-1.808887e-05
-0.0001300532
-2.73678e-05
-2.461525e-05
-0.002984208
-0.0006725381
-2.366419e-05
-0.0001344347
-2.984932e-05
-2.705391e-05
-0.003110409
-0.000682416
-3.277328e-05
-0.0001395512
-3.400748e-05
-3.220218e-05
-0.003273187
-0.0007061052
-4.444624e-05
-0.0001418883
-3.783719e-05
-3.488474e-05
-0.003387166
-0.0007351294
-6.43881e-05
-0.000145594
-4.222055e-05
-3.607927e-05
-0.003572887
-0.0006941426
-9.574975e-05
-0.0001413712
-4.894672e-05
-3.766346e-05
-0.003702284
-0.0007016983
-0.0001231568
-0.0001458785
-5.558072e-05
-3.94189e-05
-3.057724e-05
3.913854e-05
0.0001595131
0.0002530018
0.0002121853
0.0002162619
2.014914e-05
-2.780222e-05
5.873445e-05
0.0001201377
7.102099e-05
8.725882e-05
-4.388046e-05
-9.815937e-05
-4.645262e-05
-1.64185e-05
-3.506096e-05
-6.426267e-05
-0.0002704535
-0.000188926
7.649852e-06
5.074939e-05
2.152037e-05
1.801193e-05
-0.0002330397
-0.0001099218
6.786658e-05
1.604515e-05
1.653938e-05
-3.205083e-07
-0.0002151776
-0.0001427382
4.930759e-05
-1.43808e-05
7.426413e-06
6.403532e-07
-0.0001864071
-9.236389e-05
6.889209e-05
-1.013659e-06
1.303442e-05
8.228494e-06
-0.0001136691
-6.353034e-05
5.974564e-05
4.644381e-07
4.859478e-06
2.380324e-06
-9.230119e-05
-3.582492e-05
6.313658e-05
1.178604e-05
1.063455e-05
8.688843e-06
-0.0001883262
-5.482997e-05
6.466167e-05
1.090725e-05
8.073534e-06
5.638808e-06
-0.0002232812
-5.241133e-05
7.051674e-05
1.542344e-05
1.198312e-05
8.473623e-06
-0.0002901874
-4.341611e-05
7.476469e-05
1.930155e-05
1.30204e-05
8.497875e-06
-0.0003340542
-5.397589e-05
8.103013e-05
2.163326e-05
1.580918e-05
1.029597e-05
-0.0003530663
-4.414722e-05
8.568813e-05
2.605543e-05
1.784287e-05
1.178276e-05
-0.000373356
-4.721602e-05
9.022353e-05
2.803975e-05
2.030517e-05
1.344063e-05
-0.0004105499
-3.764274e-05
9.322689e-05
3.156277e-05
2.281958e-05
1.574566e-05
-0.0004350033
-6.435207e-05
9.97675e-05
2.919005e-05
2.486683e-05
1.691479e-05
-0.0004232867
-7.596329e-05
0.0001068496
3.017295e-05
2.67364e-05
1.915686e-05
-0.0003444165
-0.0001065539
0.0001170332
2.932573e-05
2.8795e-05
2.118729e-05
-0.0002285925
-0.0001159289
0.0001234344
3.406186e-05
3.137463e-05
2.609199e-05
-0.0001490633
-7.098335e-05
0.0001230831
4.171747e-05
3.152443e-05
2.876069e-05
-0.000202912
-5.57208e-05
0.0001271854
5.208837e-05
3.63479e-05
3.802377e-05
-0.0002535523
-5.232969e-05
0.0001306944
5.538129e-05
3.134005e-05
3.661583e-05
-0.0003185167
-2.145855e-05
0.0001428149
7.456312e-05
4.282488e-05
5.71835e-05
-9.400756e-06
3.653625e-05
8.982703e-05
5.997281e-05
0.0001687917
8.714424e-05
1.657417e-05
-3.887805e-06
2.598453e-05
3.641666e-05
1.995881e-05
4.505201e-05
-5.953695e-05
-3.241353e-05
-2.261558e-05
6.111496e-06
4.346088e-06
-1.460118e-05
-5.377462e-05
-3.857404e-05
-4.856884e-06
1.820345e-05
2.185399e-05
2.069246e-05
-6.503039e-05
-1.989167e-05
1.416876e-05
-4.672557e-06
8.351213e-06
-3.391974e-06
-0.0001413386
-3.413791e-05
1.386161e-05
-1.510856e-05
8.958493e-06
1.767756e-06
-0.0001094573
-4.182678e-05
1.32138e-05
-2.145838e-05
2.928117e-06
-5.710116e-06
-6.353127e-05
-3.648012e-05
7.076065e-06
-2.360258e-05
3.486065e-07
-7.300457e-06
-4.345493e-05
-5.374353e-05
5.547245e-06
-2.900367e-05
-2.172e-06
-1.004862e-05
3.269545e-05
-8.254947e-05
6.060884e-06
-3.636801e-05
-4.476986e-06
-1.300114e-05
1.258653e-06
-8.716679e-05
3.862149e-06
-4.044655e-05
-6.164727e-06
-1.464289e-05
-4.753993e-07
-0.0001127912
3.695465e-06
-4.820591e-05
-8.36338e-06
-1.760281e-05
-7.224078e-06
-0.0001250303
2.426196e-06
-5.258694e-05
-9.871074e-06
-1.961689e-05
-3.157227e-06
-0.0001325793
2.897453e-07
-5.696292e-05
-1.18505e-05
-2.188941e-05
-6.015084e-06
-0.0001422057
-8.145764e-07
-6.055392e-05
-1.317488e-05
-2.363759e-05
-1.863692e-05
-0.0001458503
-3.008922e-06
-6.304426e-05
-1.545802e-05
-2.550524e-05
-3.41505e-05
-0.0001453902
-4.871731e-06
-6.376833e-05
-1.698395e-05
-2.698107e-05
-3.22309e-05
-0.0001504135
-7.315345e-06
-6.586971e-05
-1.897807e-05
-2.89304e-05
-2.245787e-05
-0.0001400884
-1.111982e-05
-6.721032e-05
-2.163124e-05
-3.179684e-05
8.800455e-06
-0.0001561182
-1.336915e-05
-7.265307e-05
-2.492821e-05
-3.576292e-05
-1.44295e-05
-0.0001549907
-1.719269e-05
-7.757089e-05
-2.989348e-05
-4.107884e-05
-3.579231e-05
-0.0001663556
-2.128835e-05
-8.456763e-05
-3.574039e-05
-4.798686e-05
5.787922e-05
-0.0002057246
-2.254839e-05
-9.79316e-05
-4.62075e-05
-5.875745e-05
-5.836774e-05
-0.0002076421
-3.271773e-05
-0.0001065382
-5.801959e-05
-7.211299e-05
7.556076e-06
-8.268037e-06
-9.820966e-06
-3.765453e-05
-6.778175e-08
6.69703e-05
-7.205652e-07
-2.258741e-07
-3.334586e-05
-4.327528e-05
-2.996787e-05
-4.292804e-05
-6.972891e-07
3.251478e-05
2.138999e-05
-5.88948e-06
-4.030352e-06
1.345609e-05
1.164546e-06
4.147024e-05
3.610396e-06
-2.223017e-05
-2.482804e-05
-2.24222e-05
3.845513e-05
2.222415e-05
-1.849492e-05
3.895318e-06
-1.064889e-05
1.811576e-06
2.529488e-05
3.323579e-05
-1.598151e-05
1.33812e-05
-1.146879e-05
-3.690257e-06
-4.890863e-05
4.047206e-05
-1.753191e-05
1.875801e-05
-5.917616e-06
3.477645e-06
-9.228292e-05
3.454076e-05
-1.222874e-05
1.998426e-05
-3.954138e-06
4.429856e-06
-2.971727e-05
4.992083e-05
-1.094178e-05
2.370142e-05
-2.007506e-06
6.604366e-06
4.197785e-06
8.116441e-05
-9.773524e-06
2.912936e-05
-2.150044e-07
8.430004e-06
-4.548171e-06
7.195575e-05
-6.113392e-06
3.071399e-05
8.082934e-07
9.306747e-06
4.535092e-05
5.853661e-05
-2.692301e-06
3.213799e-05
2.156946e-06
1.056494e-05
5.971459e-05
8.536708e-05
-4.506273e-06
3.669861e-05
2.859066e-06
1.199674e-05
6.640156e-05
8.924567e-05
-4.601513e-06
3.864924e-05
3.777254e-06
1.298141e-05
7.952985e-05
9.327895e-05
-3.830065e-06
4.068224e-05
4.300181e-06
1.396572e-05
9.332267e-05
7.647879e-05
-1.366017e-06
3.970424e-05
5.579544e-06
1.445655e-05
9.933722e-05
9.227361e-05
-1.857718e-06
4.160422e-05
6.029617e-06
1.485548e-05
9.112013e-05
9.005362e-05
-1.460387e-06
4.201608e-05
6.443975e-06
1.539518e-05
7.525834e-05
0.0001256433
-4.007693e-06
4.648616e-05
5.994071e-06
1.545919e-05
3.341661e-05
0.0001354275
-1.874222e-06
5.041112e-05
7.473588e-06
1.82467e-05
-3.140903e-05
0.0001220706
6.703816e-07
4.94903e-05
3.119294e-06
1.375483e-05
-7.052468e-05
0.0001392589
5.846441e-06
5.90307e-05
9.622774e-06
2.521824e-05
-9.949823e-05
0.000158804
1.707698e-07
5.430294e-05
-7.22024e-06
7.855077e-06
-4.298441e-05
0.0001992008
1.072992e-05
8.428734e-05
2.471384e-05
6.324488e-05
1.14365e-05
-3.504604e-05
-0.000151504
-9.338673e-05
-0.0001256794
1.450507e-05
-1.129665e-05
2.463804e-05
-5.695385e-05
-0.0001177148
-7.587954e-05
-9.106898e-05
-2.334835e-05
9.600958e-05
4.360074e-05
1.405662e-05
3.351884e-05
6.19935e-05
3.195986e-06
0.0001856254
-8.278574e-06
-5.277771e-05
-2.400556e-05
-2.001718e-05
-1.615114e-05
0.0001079373
-7.00303e-05
-1.769669e-05
-1.865544e-05
-1.787445e-06
8.137361e-05
0.0001445966
-5.365332e-05
1.17703e-05
-1.028343e-05
-2.737006e-06
-4.083919e-05
8.949793e-05
-7.327762e-05
-2.451548e-06
-1.60437e-05
-1.086324e-05
-2.221551e-05
5.72132e-05
-6.668088e-05
-5.017415e-06
-8.95076e-06
-5.294222e-06
-4.301793e-05
2.501058e-05
-7.124812e-05
-1.867258e-05
-1.52744e-05
-1.255744e-05
2.634788e-05
2.540226e-05
-7.431306e-05
-2.088633e-05
-1.397811e-05
-1.026611e-05
9.486698e-05
-1.651957e-05
-8.016758e-05
-3.256421e-05
-1.87128e-05
-1.469595e-05
0.0001702945
-2.511247e-05
-8.693359e-05
-3.772497e-05
-2.104441e-05
-1.542932e-05
0.0001948875
-3.919858e-05
-9.267507e-05
-4.522305e-05
-2.442806e-05
-1.855842e-05
0.0002208606
-3.972108e-05
-9.843124e-05
-4.891489e-05
-2.731364e-05
-2.02479e-05
0.0002408182
-5.152963e-05
-0.0001036455
-5.358819e-05
-3.041825e-05
-2.29177e-05
0.0002857988
-2.265532e-05
-0.0001094522
-5.296686e-05
-3.368499e-05
-2.505551e-05
0.0002709062
5.547002e-07
-0.0001158587
-5.17901e-05
-3.622846e-05
-2.748098e-05
0.0002595475
3.850733e-05
-0.0001227916
-4.971846e-05
-3.870188e-05
-3.010782e-05
0.0001842522
4.652263e-05
-0.0001289156
-5.237302e-05
-4.204486e-05
-3.426e-05
0.000128573
4.714964e-05
-0.0001350377
-5.670913e-05
-4.674106e-05
-4.064931e-05
2.743267e-05
2.58706e-05
-0.0001408377
-6.579132e-05
-5.263035e-05
-4.899811e-05
3.173975e-05
2.68035e-05
-0.0001503755
-7.630243e-05
-6.35095e-05
-6.416288e-05
1.044807e-05
-2.868305e-05
-0.0001598407
-9.377786e-05
-7.649811e-05
-8.32315e-05
-0.000211787
-3.958406e-05
-0.0001736799
-0.0001159385
-0.0001066294
-0.0001293414
2.393006e-05
-0.0001929582
-0.0002975067
-0.0002559347
-0.0002793485
-0.0004230923
-2.390414e-05
2.17725e-05
-0.0002076263
-0.0003048188
-0.0002961519
-0.0003123848
0.0002412675
0.0002351129
2.981054e-05
7.121209e-05
3.188254e-05
5.057535e-05
0.0002842944
0.0003722486
-8.519359e-05
-6.188655e-05
-7.81642e-05
-8.313954e-05
0.0002663697
0.0003514281
-7.350009e-05
2.997656e-05
-2.530715e-05
-1.010255e-05
0.0003087974
0.000371119
-7.726616e-05
6.01207e-05
-1.984891e-05
-1.112674e-05
0.0003897459
0.0003260593
-5.360216e-05
6.186687e-05
-9.901189e-06
-3.226688e-06
0.0005616892
0.0003389786
-3.267948e-05
7.15245e-05
1.854264e-09
4.42795e-06
0.0005944061
0.0003515233
-2.793174e-05
7.265371e-05
4.106995e-07
2.85944e-06
0.0007042601
0.000384161
-2.212556e-05
8.291077e-05
5.69773e-06
8.674417e-06
0.000820758
0.0004199545
-2.498069e-05
8.681401e-05
5.523134e-06
8.521078e-06
0.0009424728
0.000466692
-2.128753e-05
9.686197e-05
8.903211e-06
1.199713e-05
0.001028021
0.0004946507
-1.671241e-05
0.0001022039
1.029436e-05
1.321817e-05
0.0010486
0.000530792
-1.24165e-05
0.0001074706
1.22276e-05
1.44699e-05
0.001104459
0.0005604309
-9.77906e-06
0.0001118192
1.156908e-05
1.549844e-05
0.001116498
0.0005872796
-6.018886e-06
0.00011604
1.495257e-05
1.683222e-05
0.001179423
0.0005968783
-3.741679e-06
0.0001161502
1.542322e-05
1.650862e-05
0.001189829
0.0006205824
-1.402264e-07
0.0001191267
1.521572e-05
1.467394e-05
0.001234929
0.0006332147
6.263894e-06
0.0001208846
1.455432e-05
1.307737e-05
0.0009275819
0.0006980052
1.439386e-05
0.0001278345
1.652149e-05
1.517876e-05
0.001065316
0.0007052452
2.476326e-05
0.0001216089
1.005623e-05
3.662802e-06
0.001140942
0.0007246473
4.464181e-05
0.000122062
1.321318e-05
4.486746e-06
0.001523879
0.0007142308
6.204807e-05
9.931702e-05
-1.543859e-05
-4.709199e-05
-0.001648196
0.000688286
0.0001055457
0.0001179152
3.670098e-05
3.659448e-05
-0.0001134871
-0.0005434889
-0.000819711
-0.001065503
-0.001291573
-0.00150538
0.0001302063
-1.079364e-05
-4.388522e-05
-0.0001375119
-6.98823e-05
-4.154305e-05
0.0005114858
3.857043e-05
1.477768e-05
5.165002e-05
3.799886e-05
4.625937e-05
0.0007807739
0.0001209971
-6.121536e-05
-3.552704e-05
-2.80976e-05
-3.096608e-05
0.001017631
4.039503e-05
-5.409265e-05
6.33196e-06
-1.199558e-05
-1.015136e-05
0.001247635
3.823298e-06
-5.009492e-05
1.838816e-05
-3.493457e-07
-3.71685e-06
0.001522471
-0.0001007238
-4.86198e-05
-1.600788e-05
-6.112047e-06
-1.904214e-05
0.001765722
-0.0001742405
-3.243032e-05
-2.424205e-05
1.312061e-05
-6.560869e-06
0.002001624
-0.0002319518
-5.07578e-05
-5.078291e-05
4.785703e-06
-1.62677e-05
0.002212412
-0.0002577322
-6.36714e-05
-5.868451e-05
1.058848e-05
-9.086058e-06
0.002401231
-0.0002466375
-8.377453e-05
-7.063038e-05
3.340665e-06
-1.335585e-05
0.002583173
-0.0002683898
-0.0001018583
-8.477817e-05
5.051313e-07
-1.242349e-05
0.002783629
-0.0002892021
-0.0001167586
-9.917155e-05
-5.502132e-06
-1.594262e-05
0.002951703
-0.0003224365
-0.0001290231
-0.0001116029
-1.049533e-05
-1.902049e-05
0.00315183
-0.0003469472
-0.0001376502
-0.0001238579
-1.584272e-05
-2.365829e-05
0.003367219
-0.0003954245
-0.000143845
-0.0001379633
-2.268237e-05
-3.062101e-05
0.003574238
-0.0004412334
-0.0001457021
-0.000146519
-2.446558e-05
-3.743656e-05
0.003748242
-0.0004986528
-0.0001476464
-0.0001591809
-2.445961e-05
-4.557138e-05
0.003878086
-0.0005469322
-0.0001512941
-0.0001724756
-2.518232e-05
-5.364983e-05
0.00389053
-0.0006074384
-0.0001574128
-0.0001859104
-2.694657e-05
-6.566141e-05
0.004031069
-0.0006388511
-0.0001631385
-0.0001928904
-2.142429e-05
-6.813822e-05
0.004180758
-0.0006774657
-0.0001802295
-0.0002061455
-2.298516e-05
-7.476955e-05
0.004381188
-0.0006961536
-0.0001979979
-0.000212899
-1.617319e-05
-7.82113e-05
-0.003771911
-0.0007364927
-0.0002254712
-0.0002424749
-5.50865e-05
-0.0001925438
-0.001423934
-0.004021593
-0.005611992
-0.007169339
-0.008470864
-0.009753644
0.001463747
-7.151027e-05
-0.001362064
-0.002172017
-0.002778527
-0.003416654
-0.004107042
0.004049455
0.00123759
-5.151476e-05
-0.0009749548
-0.001534681
-0.002021842
-0.002472292
0.005716655
0.002026972
0.0008463837
-8.296079e-05
-0.0006819706
-0.001150525
-0.001571359
0.00730176
0.002624736
0.001390624
0.0004978727
-0.0001059673
-0.0006346478
-0.001078758
0.00870683
0.003247388
0.001875812
0.0009594735
0.0003990342
-0.0001246654
-0.0006164858
0.01009244
0.003888733
0.002313861
0.001368044
0.0008275032
0.0003165962
-0.000158127
0.01131494
0.004518412
0.002752179
0.001771695
0.001255571
0.0007469175
0.0002734
0.01253432
0.005163588
0.003176891
0.002148417
0.001648533
0.001133816
0.0006807546
0.01370254
0.005772164
0.003606866
0.0025155
0.002039955
0.001521079
0.001073915
0.01478519
0.006401602
0.00402535
0.00287157
0.002408237
0.001886212
0.001437673
0.01577364
0.006947277
0.004434235
0.003201479
0.002766858
0.002243719
0.001796598
0.01675302
0.007442706
0.004842242
0.003531588
0.003110825
0.00258399
0.002136193
0.01770607
0.00792626
0.005234309
0.003853939
0.003435717
0.002914345
0.00246923
0.0187959
0.008364999
0.005621946
0.004171938
0.003754949
0.003233047
0.002787688
0.02003612
0.008804429
0.005988915
0.004476217
0.004035509
0.003540358
0.003095644
0.02132565
0.009247329
0.006342274
0.004784982
0.004341794
0.003837288
0.003394957
0.02231828
0.009641695
0.006679893
0.005077765
0.004624664
0.004124764
0.003677684
0.02300352
0.01001882
0.007008656
0.005363409
0.004897097
0.004384653
0.003954567
0.02330394
0.01034169
0.007338579
0.005626653
0.005160874
0.004628906
0.004210388
0.02384614
0.0106294
0.007707154
0.005889587
0.005427836
0.004891167
0.004475576
0.02456833
0.01091175
0.008138517
0.006117024
0.005646253
0.005077427
0.004668335
0.02547791
0.01121194
0.008656899
0.006379586
0.005926271
0.005318471
0.004916234
0.02630502
-0.01284598
-0.01033949
-0.01060001
-0.01051175
-0.01093804
-0.01114705
4.495913e-05
-0.0005952691
0.0006053382
5.375693e-06
-0.0002409316
-0.000869739
0.001415622
-0.004379967
-0.000135868
-0.0008928827
-0.0004331892
-0.0008081533
0.004062443
-0.005390494
0.0002042152
-0.001599569
-0.0002038645
-0.0007561567
0.005613015
-0.007698092
0.0006744914
-0.002144633
3.385175e-05
-0.000746416
0.007182761
-0.009281403
0.001157152
-0.002554294
0.0002495643
-0.0007904594
0.008473077
-0.01030199
0.001660177
-0.002835793
0.0002865112
0.009751075
0.001700744
0.0002482751
0.0008877356
-0.00145898
0.0001327131
0.004151018
0.0008833208
0.0004286058
0.0008126532
-0.004071321
-0.0001892326
0.005038865
0.001580853
0.0001846911
0.0007205671
-0.005705087
-0.0006346356
0.006805954
0.002146455
-6.183306e-05
0.0006959668
-0.007304792
-0.001001956
0.007914055
0.002617129
-0.0003314517
0.0007213473
-0.008705977
-0.00139938
0.009045359
0.00297991
-0.0004084555
0.0007026946
-0.01009209
-0.001787272
0.01031664
0.003316258
-0.0005910972
0.0006356849
-0.01130209
-0.001886509
0.01134256
0.003702811
-0.0007428049
0.0005302936
-0.0125357
-0.001823177
0.01236117
0.00409664
-0.0009108221
0.0004166046
-0.01369938
-0.00204421
0.01345198
0.004502207
-0.001029358
0.0003096469
-0.01478806
-0.002301335
0.01417651
0.004861821
-0.001132904
0.0002205889
-0.01575089
-0.002527665
0.01498142
0.005242476
-0.001223321
0.0001310979
-0.01673297
-0.002743032
0.01572669
0.005603676
-0.00130272
6.113127e-05
-0.01762525
-0.002942047
0.01643492
0.005948412
-0.001368654
-4.92052e-06
-0.01850794
-0.003103838
0.01707395
0.006279593
-0.00140551
-5.735362e-05
-0.01955078
-0.003254972
0.01763838
0.006601588
-0.001429518
-0.000112971
-0.02090119
-0.003424992
0.0180836
0.006897138
-0.001433317
-0.0001478559
-0.02191128
-0.003607733
0.01849332
0.007204449
-0.001422842
-0.0001779071
-0.02268112
-0.003818964
0.0189197
0.007522796
-0.001392559
-0.0001827043
-0.02319433
-0.003975653
0.01929683
0.00784021
-0.001346955
-0.0001791763
-0.02384779
-0.004116814
0.01959303
0.008165424
-0.001295593
-0.0001579693
-0.02458032
-0.004235949
0.01962284
0.008464316
-0.0012455
-0.000110223
-0.02547968
-0.004374425
0.01957074
0.008750751
-0.001164769
0.01018722
-0.02628974
-0.004481732
0.01953897
0.008997884
0.0005155851
-0.0004888505
1.394775e-05
-0.0004873189
0.0004646657
-1.850359e-05
0.0005348051
-0.0005486121
6.595427e-06
-0.0006084631
0.0005519488
-2.335461e-06
0.0004921659
-0.0005115479
4.692599e-06
-0.0005403317
0.0005376767
1.550623e-05
0.0004983107
-0.0004918517
-1.280492e-05
-0.0005365661
0.0005112989
2.113712e-05
0.0005048842
-0.0005118517
-2.072774e-05
-0.000540406
0.0005130121
1.443209e-06
0.0005267808
-0.0005424165
4.624632e-06
-0.0004954075
0.0005611056
-2.11886e-05
0.0006056101
-0.0005454911
6.638476e-06
-0.0005123252
0.0005306749
-6.473787e-06
0.0005082452
-0.0004600987
1.658956e-05
-0.0005149815
0.0005035052
-1.507887e-05
0.0005826517
-0.0006066707
-8.516314e-06
-3.908258e-05
0.004395731
0.0001352715
0.0008898858
0.0002373751
0.0008710779
0.005396518
-0.000205233
0.001599042
0.0004356029
0.0008096636
0.009313392
-0.001166693
0.002558067
-3.485258e-05
0.0007464719
0.01035568
-0.001671571
0.002838523
-0.0002493541
0.0007897001
-0.001708127
-0.0002860526
-0.0001340755
-0.004146614
-0.0008831146
-0.0002471383
-0.000886073
0.0001853314
-0.004959852
-0.001580638
-0.0004248073
-0.0008069026
0.001006125
-0.007879987
-0.002609786
6.553815e-05
-0.000691843
0.001782735
-0.01026021
-0.003305284
0.0004092527
-0.0007038256
0.001874974
-0.01129117
-0.003692877
0.0005886012
-0.0006234968
0.00182546
-0.01226966
-0.004082016
0.0007470248
-0.0005244022
0.002042814
-0.01341082
-0.004470579
0.0009205484
-0.0003996389
0.002304462
-0.01413643
-0.004773609
0.001042978
-0.0003048429
0.002530764
-0.01494615
-0.005121794
0.001141903
-0.0002044171
0.002747288
-0.01563324
-0.005469547
0.001233093
-0.0001236408
0.002944531
-0.01639154
-0.005808693
0.001312916
-4.628517e-05
0.003107813
-0.01701121
-0.006132778
0.001371696
1.353661e-05
0.003256538
-0.01756316
-0.006448898
0.001412977
7.001943e-05
0.003623172
-0.0184681
-0.007057734
0.001440327
0.0001597843
0.003836379
-0.01887747
-0.00739958
0.001428425
0.000193666
0.003996359
-0.01937205
-0.007768497
0.001404045
0.0001979735
0.00412401
-0.01959961
-0.008117183
0.001352182
0.0001935808
0.004353174
-0.01957287
-0.008729745
0.001247447
0.0001186653
0.004448196
-0.01955078
-0.008986166
0.001165508
-0.006872696
3.849667e-06
3.304627e-05
0.001360321
7.129283e-05
-0.0008479979
0.000330212
0.001913146
8.667686e-05
-0.00201536
0.0004624687
0.002491125
-5.985513e-05
-0.003089649
0.0007497031
0.003187
-0.0001309432
-0.004090323
0.0009948553
0.003805771
-0.0002509353
-0.00500809
0.001166802
0.004410436
-0.000389801
-0.005876411
0.001340958
0.005024966
-0.0005380813
-0.006673796
0.001467818
0.005536212
-0.0006849056
-0.007360848
0.001537917
0.005981842
-0.0007935286
-0.007949111
0.001568936
0.006383019
-0.000941276
-0.008582786
0.001584056
0.006826952
-0.001058579
-0.009123698
0.001599151
0.007270917
-0.001184534
-0.009637086
0.001590975
0.007690779
-0.001303524
-0.01010797
0.001566517
0.008096874
-0.001431346
-0.01055605
0.001548324
0.008494419
-0.001557621
-0.01094523
0.001525207
0.008885492
-0.001699877
-0.01131073
0.001499739
0.00925581
-0.001837513
-0.01161814
0.001462488
0.009593389
-0.001969177
-0.01191143
0.001416878
0.009914768
-0.002064008
-0.01215328
0.00136272
0.01022767
-0.002165584
-0.01239403
0.00132007
0.01055031
-0.002234243
-0.01258623
0.001258256
0.01086224
-0.002290151
-0.01277763
0.001197665
0.01115896
-0.002324967
-0.01290659
0.001124361
-1.671986e-05
-1.488622e-05
-2.981646e-05
-3.28975e-05
2.636401e-06
-1.039586e-05
-5.466406e-06
6.859725e-07
1.709307e-05
-2.796581e-06
-1.283567e-05
5.674892e-06
1.209133e-05
2.849125e-05
1.951402e-05
3.401149e-05
1.64651e-05
6.362152e-08
0.007733019
-0.0006749894
0.002148431
0.0002052794
0.0007551943
0.0006321136
-0.006779187
-0.002143067
-0.0001821657
-0.0007175271
0.001401577
-0.008970925
-0.002968765
0.0003341944
-0.0007195657
0.003434443
-0.01800808
-0.00674451
0.001436594
0.0001229329
0.004236932
-0.01962471
-0.008446389
0.001295862
0.0001734148
-0.0002972817
0.0002247925
0.0007349054
0.0001489802
-1.499404e-05
1.529257e-05
-0.0007997245
0.0006931087
0.002094582
0.0002205181
-0.001462023
0.001052511
0.003011025
9.079283e-05
-0.002231681
0.001404262
0.003960442
-3.337095e-05
-0.002830542
0.0016327
0.004848785
-0.0001437724
-0.003380992
0.001817477
0.005656287
-0.0002710887
-0.003890558
0.001966537
0.006429835
-0.0003950291
-0.004256473
0.002091725
0.007115673
-0.0005299764
-0.004517664
0.002210706
0.007758721
-0.0006661797
-0.004870521
0.002331738
0.008392214
-0.0007996289
-0.005207026
0.002419406
0.009003138
-0.0009440942
-0.00549252
0.002499143
0.00958798
-0.001081007
-0.005735519
0.002574698
0.01014048
-0.001217789
-0.005924774
0.00266263
0.01066817
-0.001338931
-0.006033989
0.002723844
0.01116725
-0.001461864
-0.006070116
0.002780801
0.01164628
-0.001578881
-0.006050967
0.002798442
0.01209355
-0.001702861
-0.006015925
0.002819996
0.01252139
-0.001818947
-0.005973831
0.002808495
0.01292781
-0.001932317
-0.005903221
0.002804277
0.01331228
-0.00203467
-0.005798504
0.002767839
0.01365608
-0.002132363
-0.005625539
0.002749196
0.01396897
-0.002227416
-0.005403477
0.002709424
0.01423366
-0.00231969
-0.005175606
0.0009245618
-0.002385901
0.01446463
-2.671882e-05
-3.144359e-05
2.978372e-05
7.131782e-06
1.158388e-06
-1.732638e-05
9.171702e-06
1.2868e-05
5.788775e-06
-3.854488e-05
-2.037512e-05
2.053519e-07
-9.781407e-06
1.828175e-05
4.471745e-06
1.554833e-05
-5.018645e-06
-3.430929e-05
-0.0003010384
0.0002083489
0.0007254143
0.0001484196
0.003046034
3.259709e-05
-0.004243216
0.001028716
-0.0033463
0.001633104
0.004884156
0.0001605192
-0.001359856
-6.910572e-05
0.0008483799
-0.0003319235
0.0008014223
-0.000691736
-0.002095651
-0.0002205172
-0.001915673
-8.515124e-05
0.002010942
-0.0004650646
0.001461917
-0.00104465
-0.003016913
-8.917482e-05
0.002829005
-0.001628868
-0.004852365
0.0001471662
-0.004404446
0.0003922463
0.005878271
-0.001340657
0.003889757
-0.001964582
-0.006423234
0.0003978301
-0.005020252
0.0005438915
0.006674545
-0.001466503
0.004233024
-0.002091496
-0.00710711
0.0005356343
-0.005541831
0.0006875665
0.007359263
-0.001535214
0.004515493
-0.002213395
-0.007760821
0.0006687174
-0.005989773
0.0008040346
0.00795357
-0.001568769
0.004853586
-0.002328643
-0.008394015
0.0008072872
-0.006389476
0.0009484235
0.008583342
-0.001586703
0.005206788
-0.002426212
-0.009003501
0.0009464426
-0.006830381
0.001071913
0.009130996
-0.001602339
-0.007276203
0.001190791
0.009627315
-0.001591743
0.005742099
-0.002580185
-0.01014523
0.001222701
-0.007697808
0.001316904
0.01010751
-0.001565018
0.005916585
-0.002655322
-0.01066575
0.001349439
0.006012168
-0.002811479
-0.01253092
0.001822979
-0.009614036
0.001964811
0.01189866
-0.001412727
0.005973501
-0.002818915
-0.01293943
0.001939358
-0.01087514
0.002281915
0.01276315
-0.001188899
0.005397263
-0.002721062
-0.01423748
0.002330023
-0.0111701
0.002329083
0.0129039
-0.001113702
0.005167067
-0.002683094
0.002399266
-0.01447407
0.02707721
-0.008876759
-0.02704757
-0.004599668
0.0045686
0.01005041
-0.01024108
-0.01303541
0.002345156
0.0130172
-1.588278e-05
1.624266e-05
0.000314451
-6.789283e-05
-0.0008435237
5.016869e-05
0.0005401383
-9.293677e-06
-0.001812519
9.324913e-05
0.0004071639
-5.344089e-05
-0.002818854
0.0001464248
0.0004927128
-0.0001139129
-0.00370141
0.0002291528
0.0005544597
-9.058255e-05
-0.004451495
0.0002564333
0.0005557388
-6.284989e-05
-0.005167672
0.0002760571
0.0005337978
-6.281832e-05
-0.005791485
0.0002739686
0.0004146035
-5.745875e-05
-0.006274771
0.0002764729
0.0003223032
-4.304112e-05
-0.006687029
0.0002967648
0.0002410538
-2.863735e-05
-0.007039313
0.0003271109
0.0001671262
-1.717092e-05
-0.00740108
0.0003428869
6.795748e-05
-1.110557e-05
-0.007750955
0.0003574984
-8.478418e-06
-4.957977e-06
-0.00806278
0.0003753948
-8.225827e-05
1.866307e-06
-0.008327586
0.0003917174
-0.000135641
3.372767e-06
-0.008560777
0.0004022473
-0.0001873601
3.532718e-06
-0.008756258
0.0004053173
-0.000215715
1.038284e-06
-0.008922132
0.0004023674
-0.0002653031
-2.48346e-06
-0.009057565
0.0003949582
-0.0002962717
-1.002816e-05
-0.009171227