/*--------------------------------*- C++ -*----------------------------------*\
  =========                 |
  \\      /  F ield         | OpenFOAM: The Open Source CFD Toolbox
   \\    /   O peration     | Website:  https://openfoam.org
    \\  /    A nd           | Version:  7
     \\/     M anipulation  |
\*---------------------------------------------------------------------------*/
FoamFile
{
    version     2.0;
    format      ascii;
    class       surfaceScalarField;
    location    "0.07";
    object      phi;
}
// * * * * * * * * * * * * * * * * * * * * * * * * * * * * * * * * * * * * * //

dimensions      [0 3 -1 0 0 0 0];

internalField   nonuniform List<scalar> 
266918
(
0.0003756231
-0.000135325
-0.008418517
-0.001564569
-0.0001702034
0.0003472789
-2.488373e-07
2.732995e-05
1.912722e-05
-0.007906296
-0.001474421
1.438332e-06
8.024443e-06
-0.007833883
-0.001464851
1.46481e-05
-2.799906e-06
-0.007834139
-0.001465462
2.410012e-06
-2.152895e-06
-0.007811232
-0.001458213
4.721836e-06
-6.472409e-06
-0.007881473
-0.001467658
-5.798594e-06
3.566267e-06
-0.007830923
-0.001456642
5.874547e-06
4.5033e-07
-0.007828748
-0.001454973
-0.0001031384
-0.03594234
-0.001546832
0.008772991
0.008951003
0.01065428
0.01026629
0.0006194016
-0.001470607
0.000259096
-0.0004601367
-0.0002964325
-0.03641639
-0.001107779
0.008515454
0.008337192
0.0104625
0.01040232
-0.0001701118
-0.03625845
-0.00104289
0.008271691
0.00827487
0.01032619
0.01030227
-9.417804e-05
-0.03610421
-0.0009603089
0.008213444
0.008238791
0.01025714
0.01027921
-7.593166e-05
-0.03594624
-0.001057216
0.008230268
0.008231184
0.01025782
0.01026594
-6.168718e-05
-0.03585875
-0.001024703
0.008193773
0.00819001
0.01023829
0.01024714
4.561242e-05
-0.03591343
-0.001168673
0.008245642
0.008233102
0.01024892
0.01024714
2.746566e-05
-0.03581369
-0.001020909
0.008200048
0.008206951
0.01022406
0.01022169
-0.03578348
-0.001116198
0.008217135
0.00821707
0.01023218
0.01022099
3.977922e-05
0.00180101
-1.876871e-05
-0.001750556
-3.16853e-05
0.0003930593
-0.03562805
1.640616e-05
0.001148262
-0.001412631
-0.0001417681
-0.000317618
0.0002786865
-0.03535566
-0.000946355
0.0001795724
-0.03524466
-0.000914684
2.633922e-05
-0.03519863
-0.0007523499
3.570672e-05
-0.03502992
-0.0009256917
4.679102e-05
-0.03496144
-0.0009083922
6.805958e-05
-0.03512468
-0.000810024
7.951955e-05
-0.03497459
-0.0008505563
-0.03495355
-0.0008802792
0.0001298674
0.001844321
-3.33464e-05
-0.001776975
-3.399972e-05
-0.0001189618
-0.03561914
3.122704e-05
0.001360621
-0.001305939
5.958095e-05
-3.543452e-05
5.535459e-06
-0.03545524
-2.491345e-05
2.763877e-05
-0.03525504
-1.171995e-05
-2.641085e-06
-0.03513264
-3.570027e-05
1.534197e-05
-0.03504456
-3.346607e-06
8.543479e-05
-0.03498284
-4.869038e-05
5.250654e-05
-0.03504892
-4.282977e-05
0.0001136886
-0.03498689
-4.888569e-05
-0.03495959
-9.733735e-06
0.00012946
0.001859012
-3.624062e-05
-0.00178889
-3.38814e-05
1.226548e-05
-0.03555457
9.238389e-07
0.001335046
-0.001330214
-3.852927e-05
-4.406431e-05
4.060922e-06
-0.03533867
-0.0001083654
4.215308e-05
-0.03524895
-4.418285e-05
1.450165e-05
-0.03504059
-6.440022e-05
5.051195e-06
-0.03496811
-6.700045e-05
7.22362e-05
-0.03502722
-2.280378e-05
4.150547e-05
-0.0349039
-0.0001142873
0.000114721
-0.03501884
-4.126639e-05
-0.03491724
-6.561815e-05
0.0001379954
0.001863229
-3.406427e-05
-0.001794742
-3.442319e-05
6.24947e-05
-0.03570231
9.385699e-05
0.001343055
-0.001330085
1.961838e-06
-2.353593e-05
5.857615e-05
-0.03544779
0.0001130449
8.349476e-05
-0.03543622
0.000162354
6.484135e-05
-0.03520765
0.0001857074
7.783152e-05
-0.03516348
0.0001823888
0.0001250895
-0.03529996
0.0002254774
7.287516e-05
-0.03500445
0.0001527642
0.0001371641
-0.03532075
0.0002376229
-0.03518514
0.0002199409
0.0001851229
0.001868495
-3.589569e-05
-0.001798461
-3.413821e-05
-9.528924e-05
-0.03566081
4.8073e-05
0.001349401
-0.001322231
-5.18024e-06
-1.627377e-05
-0.0001012902
-0.03544745
5.661342e-06
-2.966482e-05
-0.03554582
3.797475e-05
-3.911814e-05
-0.03525788
5.969437e-05
2.432353e-05
-0.03527325
4.632804e-05
0.0001127217
-0.03545932
7.096513e-05
5.938522e-05
-0.03499004
3.892545e-05
0.0001321866
-0.03546844
7.489668e-05
-0.03536367
0.0001294768
0.0001812363
0.001867071
-4.204565e-05
-0.001790623
-3.44014e-05
0.0001981696
-0.03630792
0.0003585645
0.001351161
-0.00133689
6.009282e-05
1.602712e-05
0.0002061888
-0.03631846
0.0008629968
0.0002405725
-0.03662449
0.001044293
0.000196554
-0.03653593
0.001322065
0.0002416682
-0.036605
0.00128664
0.0002929068
-0.03696658
0.001456027
0.0001110629
-0.03594654
0.001138355
6.676609e-05
-0.03667005
0.001245903
-0.03684006
0.00130855
0.0002346082
0.001855272
-3.785557e-05
-0.00178222
-3.51961e-05
-0.0001834693
-0.03706965
0.0006126411
0.001308091
-0.001163745
1.556772e-05
0.0001726435
-0.0002880806
-0.03749221
0.001278366
-0.0001735766
-0.03789802
0.001159029
-0.0003751656
-0.03801419
0.001679856
-0.0002616113
-0.03777406
0.001055508
-0.0001511272
-0.03860267
0.001525611
-0.0001844438
-0.03632848
0.0004152553
-5.351892e-05
-0.03796521
0.001164245
-0.03811026
0.001115154
0.0001015352
0.001815435
-6.01133e-05
-0.00170055
-5.477201e-05
4.008276e-05
-0.009221388
0.001835691
0.001885062
-0.0007436205
0.0007772119
-4.036166e-05
-0.009677211
-0.01084703
-0.01107808
0.0003147638
-0.009604197
0.004232735
-0.009811655
-0.01120517
-0.0113786
0.000164197
-0.009752678
0.005167439
-0.01014567
-0.01159197
-0.01142457
9.909194e-05
-0.01007884
0.005465328
-0.01026826
-0.01147931
-0.011588
5.255663e-05
-0.01009628
0.005597448
-0.01026213
-0.01148752
-0.01147903
-8.296619e-05
-0.01025255
0.005804959
-0.01045436
-0.01174071
-0.01182449
0.0002457225
-0.009958281
0.005400613
-0.008677154
-0.01164662
-0.01177572
0.000412943
-0.01015415
0.005995451
-0.01030046
-0.01184931
-0.01182397
-0.01041822
0.006043814
-0.009997471
-0.01159164
-0.01197607
0.0002422764
0.001666723
-5.313683e-05
-0.001593179
-2.040729e-05
0.0002452199
7.035198e-05
0.0008282554
-0.002831461
-0.002366214
-0.002837111
-0.002330427
-1.96707e-05
-4.810432e-06
0.0005998215
-0.002766797
-0.002305137
-0.002765276
-0.002342325
3.109202e-05
-1.077845e-05
0.0003487471
-0.002792005
-0.002186205
-0.002785093
-0.002358433
-1.387268e-05
-9.255977e-06
0.0004706303
-0.002797488
-0.002358609
-0.002907589
-0.002462656
2.417713e-06
-3.05407e-05
0.0003999147
-0.002841392
-0.002378988
-0.002810235
-0.002437454
2.014138e-05
-0.0001092133
0.000436009
-0.002929274
-0.002474394
-0.002818928
-0.002376883
0.0003952065
-0.0001455197
0.0003234734
-0.002370274
-0.002763796
-0.002765379
-0.002631989
0.0003807887
0.0002299676
-0.0002493784
-0.002757283
-0.002594758
-0.002766018
-0.002397461
-0.0001159272
0.000104451
0.0003474281
-0.002807087
-0.002407414
-0.003005292
-0.002534378
5.624152e-06
0.0005052993
-6.296742e-06
7.752291e-05
4.648568e-06
0.000496685
6.843957e-07
7.876967e-05
6.105065e-05
0.001928664
0.0002626517
0.0001273161
0.0002315351
-4.817094e-06
0.0005083696
-4.243157e-06
8.232719e-05
1.162196e-05
0.0004908338
-3.926314e-08
7.948859e-05
-1.817304e-06
0.0005134173
-9.067775e-06
7.939808e-05
7.440054e-07
0.0004761156
3.717368e-05
-2.623963e-05
-0.0001548718
0.002290954
0.0002007009
0.0001220719
0.000230494
-7.655572e-06
0.0005065351
1.108588e-07
8.151222e-05
-5.539158e-11
4.852217e-10
-6.625994e-10
4.380333e-10
-5.620282e-11
-7.968595e-11
-3.315649e-11
-3.64632e-11
2.923161e-11
8.983121e-10
-1.145552e-09
3.79368e-10
-2.746709e-11
-8.000554e-11
-1.941424e-11
-3.469942e-11
4.118118e-11
1.440394e-09
-1.655761e-09
3.212526e-10
8.225366e-12
-1.112399e-10
-4.14499e-11
-2.808536e-12
1.077992e-10
1.894843e-09
-2.177685e-09
3.140043e-10
-3.916148e-11
-1.246921e-10
1.317183e-11
1.1505e-11
1.521384e-10
2.472429e-09
-2.763987e-09
2.73363e-10
-4.037072e-11
-1.450266e-10
3.529177e-11
1.598417e-11
2.124607e-10
3.075746e-09
-3.381948e-09
2.481717e-10
-8.168716e-11
-1.569242e-10
5.827737e-11
2.576607e-11
2.567685e-10
3.732363e-09
-4.075426e-09
2.527662e-10
-9.701454e-11
-1.81084e-10
7.736906e-11
3.411786e-11
3.182754e-10
4.468537e-09
-4.819686e-09
2.424952e-10
-1.590667e-10
-2.053294e-10
1.013995e-10
5.316869e-11
4.222806e-10
5.28115e-09
-5.711649e-09
2.454719e-10
-2.093535e-10
-1.997301e-10
1.462144e-10
2.538996e-11
-3.658662e-09
4.682965e-09
1.477886e-10
3.021977e-10
7.625827e-10
3.511015e-10
5.568812e-10
-6.320413e-10
-8.539291e-10
-8.050059e-10
-8.542493e-10
-5.513336e-09
4.999189e-09
1.445478e-10
-5.934244e-10
-9.590179e-10
-8.406083e-10
-8.963014e-10
-7.460233e-09
5.06029e-09
8.253269e-11
-5.029928e-10
-9.876371e-10
-8.316864e-10
-8.739265e-10
-9.508452e-09
5.366922e-09
4.466109e-11
-4.378822e-10
-1.108517e-09
-8.781657e-10
-9.390986e-10
-1.172023e-08
5.713617e-09
8.697353e-11
-3.718772e-10
-1.236574e-09
-9.687321e-10
-1.011933e-09
-1.412515e-08
6.197676e-09
6.78688e-11
-3.443702e-10
-1.410765e-09
-9.66316e-10
-1.139418e-09
-1.67621e-08
6.816167e-09
4.203731e-11
-3.291367e-10
-1.602728e-09
-1.025407e-09
-1.264283e-09
-1.966282e-08
7.591077e-09
5.25938e-12
-3.543874e-10
-1.858869e-09
-1.080852e-09
-1.401818e-09
8.503933e-09
6.349408e-11
-3.89358e-10
-2.22321e-09
-1.14803e-09
-1.604566e-09
-2.286537e-08
-3.63944e-09
6.429447e-09
-1.706963e-11
7.732459e-11
7.721324e-10
3.901118e-10
6.702397e-10
-5.243154e-09
6.650727e-09
-4.806225e-11
-7.145942e-09
6.847865e-09
1.150145e-10
-9.148705e-09
7.215173e-09
1.542788e-10
-1.131568e-08
7.70673e-09
1.736744e-10
-1.362253e-08
8.313266e-09
1.910696e-10
-1.616467e-08
9.08928e-09
2.688677e-10
-1.893345e-08
1.002626e-08
3.334374e-10
1.115143e-08
3.966649e-10
-2.197775e-08
-3.448613e-09
8.243865e-09
-3.246866e-11
-2.834061e-10
9.603312e-10
2.860517e-10
7.0345e-10
-4.943658e-09
8.298618e-09
-1.530012e-10
-6.70626e-09
8.609976e-09
2.769603e-13
-8.525605e-09
9.035247e-09
-8.927155e-13
-1.051119e-08
9.674633e-09
1.75169e-11
-1.266457e-08
1.044329e-08
2.322269e-11
-1.498965e-08
1.139832e-08
1.589757e-11
-1.753939e-08
1.254765e-08
2.82147e-11
1.392142e-08
3.626768e-11
-2.034577e-08
-3.144318e-09
9.977561e-09
-6.876235e-11
-3.709923e-10
9.307788e-10
2.258129e-10
6.935971e-10
-4.526395e-09
9.821827e-09
-1.413322e-10
-6.162842e-09
1.025897e-08
-1.268418e-11
-7.866146e-09
1.073516e-08
3.229173e-12
-9.694164e-09
1.147735e-08
2.516505e-11
-1.164775e-08
1.236519e-08
3.155266e-11
-1.37632e-08
1.346752e-08
4.615211e-11
-1.606762e-08
1.479363e-08
5.832482e-11
1.637584e-08
7.241949e-11
-1.859458e-08
-2.688971e-09
1.147048e-08
-1.266333e-10
-4.450876e-10
1.019009e-09
6.641043e-11
6.821387e-10
-4.039947e-09
1.127628e-08
-1.035766e-10
-5.5463e-09
1.176949e-08
-4.358854e-12
-7.075234e-09
1.228437e-08
-2.040863e-11
-8.716406e-09
1.312155e-08
-3.148715e-12
-1.046334e-08
1.41157e-08
-3.675473e-12
-1.235067e-08
1.535702e-08
-2.268859e-12
-1.439295e-08
1.683437e-08
1.443623e-12
1.859389e-08
3.320057e-12
-1.661444e-08
-2.39772e-09
1.264527e-08
-1.987368e-10
-3.035782e-10
1.073262e-09
-4.70326e-11
6.988504e-10
-3.625818e-09
1.256848e-08
-6.430187e-11
-4.896382e-09
1.307999e-08
-4.00086e-11
-6.256933e-09
1.365862e-08
-1.383818e-11
-7.684519e-09
1.455426e-08
-5.229967e-12
-9.209518e-09
1.563976e-08
8.310005e-13
-1.084121e-08
1.698334e-08
5.287219e-12
-1.259729e-08
1.858145e-08
8.886338e-12
2.047391e-08
1.237784e-11
-1.448983e-08
-2.044366e-09
-2.121613e-10
-3.448703e-10
1.111413e-09
-1.582495e-10
6.737482e-10
1.361956e-08
-3.116904e-09
-3.43383e-11
1.367529e-08
-4.171766e-09
-4.087617e-11
1.417552e-08
-5.33172e-09
-8.536553e-12
1.482698e-08
-6.542559e-09
-8.73819e-12
1.577368e-08
-7.834546e-09
-3.366919e-12
1.693499e-08
-9.207242e-09
-2.899765e-12
1.835878e-08
-1.067014e-08
-1.184652e-12
2.004537e-08
-4.381452e-13
-1.222768e-08
2.203168e-08
0.0003758413
0.0002530214
-0.001111281
-0.01010921
-0.0002139929
2.714187e-05
0.0005828599
2.348171e-05
-5.437608e-06
0.0003192994
-3.864489e-07
-0.0005891942
-0.04105148
-0.0009520678
0.001328985
0.001990602
-0.0001889668
-0.0003911708
0.001392927
-0.000123137
0.002083812
-8.891618e-05
-7.95718e-05
-0.04124073
-0.001342016
0.002126623
0.002205554
-0.0003878311
-0.0003836879
-4.121281e-05
-0.04128718
-0.001557443
0.002203477
0.002251335
-0.0003771404
-0.0003723732
2.079735e-05
-0.04107885
-0.001545585
0.002210545
0.002209099
-0.000359076
-0.0003717949
2.240891e-05
-0.04084219
-0.001548956
0.002201431
0.002206847
-0.0003751064
-0.000373947
2.266997e-05
-0.0409767
-0.001562645
0.002218234
0.002204567
-0.0003414072
-0.0003454509
1.415676e-05
-0.04082661
-0.001557037
0.002199724
0.002200583
-0.0003638964
-0.0003701405
-0.04089092
-0.00155199
0.00220264
0.002198102
-0.000351344
-0.0003552165
2.316647e-05
0.00190395
0.0001733421
-0.0002939722
-0.008535008
3.011002e-05
0.002442646
0.001992811
0.002415598
0.0001030316
-0.0002264574
-6.050982e-06
0.0002161824
-0.04102928
-0.000774188
0.01013392
0.01048788
0.009977547
0.0101434
-8.749622e-06
-0.0003620082
-1.264106e-05
-0.000318903
0.0002363842
-0.04138891
-0.00079055
0.0001391498
-0.04128652
-0.0008998637
6.975066e-05
-0.0411818
-0.0009962834
6.04115e-05
-0.04115957
-0.0009671521
9.361483e-05
-0.04094406
-0.0009560416
5.669076e-05
-0.04104608
-0.001062373
8.506021e-05
-0.04090726
-0.0009686347
-0.04099291
-0.001000072
7.092404e-05
-0.0006139639
-0.03598986
-8.481284e-05
0.0008483535
0.000212616
-0.001411695
-0.0001717132
0.008130645
0.01048768
0.008324353
0.0102684
5.080622e-05
-0.04168271
5.075485e-06
-0.0001194587
-0.04151064
-0.0006543575
7.246959e-06
-0.04149225
-0.0008356571
2.114311e-05
-0.04115256
-0.0007954826
1.138912e-05
-0.04115466
-0.0009208557
6.129623e-05
-0.04101688
-0.0008854786
6.538813e-05
-0.04095001
-0.000910187
0.0001174043
-0.04092617
-0.0008836615
-0.04093157
-0.0009304894
0.0001062707
-0.0004790592
-0.03542796
0.0002928242
0.001242506
-8.20817e-05
-0.00137165
-0.0001644449
-0.0001692989
-0.04183936
-0.0001218847
-4.49287e-05
-0.04147895
-0.0001809766
2.295777e-07
-0.0413018
-0.0002473313
5.760242e-05
-0.04096836
-0.000277278
6.849886e-05
-0.04086192
-0.0003069818
8.844516e-05
-0.04073482
-0.0003506911
9.619213e-05
-0.0406837
-0.0003168797
0.0001274384
-0.0406487
-0.0003575947
-0.04064892
-0.0003097961
0.0001448567
0.0001193304
-0.03554303
-9.465075e-05
0.001363056
9.244957e-05
-0.00133064
-3.447e-05
2.508715e-05
-0.04168928
-5.491711e-05
2.26417e-05
-0.04150505
-7.982106e-05
5.712955e-05
-0.04130618
-7.428983e-05
5.457441e-05
-0.04095013
-8.007814e-05
7.033551e-05
-0.04086595
-7.872776e-05
0.0001125605
-0.04068684
-0.0001130116
0.0001213451
-0.04072558
-8.11978e-05
0.0001431024
-0.04060782
-0.0001039018
-0.04064837
-9.992194e-05
0.0001768522
-6.070342e-05
-0.03549905
0.000122702
0.00133171
8.097146e-06
-0.00135448
-9.130042e-05
8.430023e-05
-0.04184458
0.0001041548
0.0001143084
-0.04158242
0.0001604112
0.0001350118
-0.04137338
0.0002088511
0.0001200739
-0.04093055
0.0001810703
0.0001250561
-0.04091816
0.00022962
0.0001227492
-0.04067997
0.0002209158
0.0001578404
-0.04087708
0.000269177
0.0001751066
-0.04063987
0.0002524051
-0.04081397
0.0003518274
0.0002088257
-4.702809e-05
-0.03539292
-7.109814e-05
0.00135486
4.905779e-05
-0.001340028
-5.189461e-05
-4.236609e-05
-0.0417884
-1.276703e-05
-7.999335e-05
-0.04154317
4.043238e-06
3.135263e-05
-0.0414102
-3.654506e-05
7.845327e-05
-0.0409601
4.214141e-05
8.939892e-05
-0.04101053
0.0001277505
3.79485e-05
-0.04078615
0.0002285944
0.0001631976
-0.0410995
0.0001360981
0.0001220015
-0.04080694
0.0002831616
-0.04110264
0.0002942754
0.0002458725
0.000147835
-0.03577923
0.0002548516
0.001332208
6.86441e-05
-0.001345769
-7.145684e-05
0.0004395384
-0.04224915
0.0005276139
0.0004837678
-0.04219642
0.001472019
0.0004582444
-0.04214733
0.001806948
0.0003926278
-0.04179968
0.002227267
0.000258781
-0.04191812
0.002328076
0.0001477427
-0.04171238
0.0024933
0.0001757821
-0.0422487
0.00225951
0.0001177909
-0.0419375
0.002434462
-0.04236079
0.002413621
0.0002708719
0.000279067
-0.03609925
-6.3031e-05
0.001330991
3.985336e-05
-0.001278616
1.175808e-05
-3.826734e-05
-0.04155414
0.000234971
-0.0001780529
-0.04177395
0.000995688
-8.229123e-05
-0.04153608
0.000452022
-0.0001180451
-0.04151383
0.001429766
-0.0001433675
-0.04114202
0.000304734
-0.0002093056
-0.04124945
0.001128618
8.476791e-05
-0.04208705
-4.045763e-05
3.702183e-05
-0.04197296
0.001247448
-0.04205889
0.0005140338
0.0003362475
0.001064641
-0.008543029
7.899257e-05
0.001794501
0.0006499825
-0.0007807306
-0.0001778093
-0.01053143
-0.008986957
-0.01066741
0.0009244805
-0.01029372
0.001289091
-0.01043368
-0.009989746
-0.01015023
0.001184281
-0.01060366
0.004577361
-0.010882
-0.01006121
-0.01083151
0.0006757555
-0.01106873
0.007616263
-0.01105902
-0.01019611
-0.01115252
0.0003223529
-0.01124567
0.008147093
-0.01117682
-0.01015008
-0.01126962
0.0002375922
-0.01131354
0.008311922
-0.0112163
-0.01005613
-0.01118576
-5.396554e-06
-0.01141626
0.008857058
-0.01133633
-0.0101009
-0.01120506
5.793125e-05
-0.01146714
0.007842847
-0.01118799
-0.01061012
-0.01132737
7.12897e-05
-0.01154565
0.008818521
-0.01152905
-0.0114681
-0.01026658
-0.01150145
0.008639368
-0.01144198
-0.01100677
-0.01101738
0.0003844358
0.0001298286
0.0001830008
0.0001475146
-0.002572453
-0.00188008
-0.002639945
-0.001910894
-0.0007269219
-0.0003905287
9.048611e-06
-0.009271391
8.60748e-05
-0.0004768803
0.000408891
-0.0002399622
-0.009827957
-0.0004677526
-0.0001227935
4.817861e-05
-4.956225e-05
-0.01014953
-0.0007950217
-0.0002336101
-8.523312e-05
9.508165e-06
-0.01022168
-0.0007146624
-0.0002122719
-0.0001316934
-2.312929e-05
-0.01026539
-0.0006810466
-0.0002538721
2.232129e-05
-0.0002447173
-0.01028127
-0.0006587237
-9.655525e-05
0.0001767181
-0.0002810499
-0.01031397
-0.0009522829
8.732937e-05
-2.745404e-05
0.0002788444
-0.01031605
-0.001568318
6.381883e-05
7.929826e-05
-7.969124e-05
-0.0102193
-0.001345574
1.165241e-11
-3.904856e-11
7.059304e-11
-7.723269e-12
-1.504151e-11
-2.04857e-11
-5.060663e-09
2.655111e-09
3.247998e-10
9.929917e-11
-6.201001e-12
1.758134e-10
7.702911e-11
5.414009e-10
6.115155e-10
5.386994e-10
6.733483e-10
-1.203978e-10
-1.152768e-10
-4.795908e-11
-3.470563e-10
-7.374382e-09
2.580409e-09
3.385091e-10
3.579869e-11
-1.060568e-10
1.434991e-10
-3.275452e-11
1.214519e-11
-1.879342e-10
-3.028764e-10
-1.674626e-10
-9.852039e-09
3.105958e-09
2.789885e-10
-1.547092e-11
-1.707588e-10
1.368735e-10
-1.02583e-10
-5.002814e-11
-3.413387e-10
-1.584991e-10
-2.058656e-10
-1.266949e-08
3.446863e-09
4.033725e-10
3.316059e-11
-2.195806e-10
1.613301e-10
-1.309106e-10
-1.776655e-12
-3.821748e-10
-2.311994e-10
-2.620988e-10
-1.569598e-08
3.847219e-09
5.295606e-10
4.846468e-11
-2.643702e-10
1.492537e-10
-1.53156e-10
-2.814396e-11
-4.791606e-10
-3.304993e-10
-2.930962e-10
-1.906487e-08
4.234185e-09
5.949935e-10
7.629015e-11
-3.264811e-10
2.534898e-10
-1.824058e-10
-2.1785e-11
-5.655835e-10
-3.566284e-10
-3.375928e-10
-2.279889e-08
4.70914e-09
8.310785e-10
9.103244e-11
-3.968659e-10
3.08821e-10
-2.306204e-10
-2.574493e-11
-6.944651e-10
-3.855484e-10
-4.732847e-10
-2.689186e-08
5.110306e-09
7.606723e-10
1.165624e-10
-4.659719e-10
4.459475e-10
-2.532591e-10
5.174343e-11
-7.631248e-10
-4.032396e-10
-5.073009e-10
5.424438e-09
8.27281e-10
1.57275e-10
-5.717744e-10
5.893368e-10
-2.721854e-10
7.819713e-11
-8.074832e-10
-4.022657e-10
-6.065517e-10
-3.130865e-08
-4.823419e-11
-6.894944e-10
-1.160588e-10
8.714349e-10
6.231989e-11
-5.104473e-11
4.157501e-12
-3.321025e-11
-4.62852e-09
5.150978e-09
2.531567e-10
4.079566e-10
5.118475e-10
4.373206e-10
6.699573e-10
-7.278938e-09
5.280157e-09
9.498581e-11
-9.717688e-09
5.408096e-09
2.189183e-10
-1.222881e-08
5.785536e-09
2.168539e-10
-1.508028e-08
6.392053e-09
3.933816e-10
-1.818405e-08
6.951843e-09
4.537356e-10
-2.150699e-08
7.597023e-09
4.768889e-10
-2.503863e-08
8.250943e-09
3.96049e-10
9.094496e-09
3.909601e-10
-2.903634e-08
-7.346175e-11
-1.074774e-09
-1.071183e-10
1.298981e-09
8.308844e-11
-7.256517e-11
3.810999e-12
-5.806558e-11
-4.123137e-09
7.287021e-09
-7.962799e-12
4.012488e-10
5.396088e-10
4.445768e-10
5.9233e-10
-6.366042e-09
7.570933e-09
-9.612316e-11
-8.780346e-09
7.864949e-09
7.221342e-11
-1.128063e-08
8.271614e-09
1.682575e-10
-1.38759e-08
8.92019e-09
2.405817e-10
-1.666012e-08
9.620433e-09
3.065203e-10
-1.970472e-08
1.055377e-08
3.565273e-10
-2.307741e-08
1.157148e-08
3.854144e-10
1.285499e-08
4.3206e-10
-2.687344e-08
-1.239377e-10
-1.586418e-09
2.3602e-11
1.734928e-09
1.592306e-10
-1.287676e-10
1.313914e-11
-9.188607e-11
-3.830446e-09
9.288884e-09
3.466634e-11
3.089191e-10
5.471006e-10
3.136345e-10
5.916183e-10
-5.900013e-09
9.609883e-09
-1.225961e-10
-8.012394e-09
9.949394e-09
2.803981e-11
-1.024755e-08
1.046213e-08
4.355099e-11
-1.262434e-08
1.120102e-08
1.133176e-10
-1.519047e-08
1.209271e-08
1.169105e-10
-1.796583e-08
1.319253e-08
1.523714e-10
-2.101772e-08
1.448755e-08
1.638969e-10
1.606948e-08
1.95052e-10
-2.439113e-08
-1.462108e-10
-1.950886e-09
4.951485e-11
2.103001e-09
1.705137e-10
-1.320154e-10
2.095671e-11
-1.149986e-10
-3.503141e-09
1.109242e-08
-1.729671e-12
2.329237e-10
5.179754e-10
2.840686e-10
5.974003e-10
-5.351957e-09
1.147016e-08
-1.529297e-10
-7.288308e-09
1.191054e-08
-3.768595e-11
-9.313017e-09
1.248451e-08
5.403927e-12
-1.146817e-08
1.332712e-08
5.406288e-11
-1.377136e-08
1.434971e-08
7.761281e-11
-1.62699e-08
1.563702e-08
1.000685e-10
-1.900432e-08
1.716426e-08
1.159095e-10
1.900286e-08
1.351893e-10
-2.200059e-08
-1.719982e-10
-2.332712e-09
7.187601e-11
2.500934e-09
1.837536e-10
-1.310074e-10
-5.771619e-12
-1.152027e-10
-3.156433e-09
1.273388e-08
-4.089425e-11
1.448153e-10
5.054492e-10
2.277058e-10
5.510598e-10
-4.812346e-09
1.315606e-08
-1.337728e-10
-6.526877e-09
1.36655e-08
-4.49128e-11
-8.328476e-09
1.429951e-08
-3.397227e-11
-1.024593e-08
1.52386e-08
2.701065e-12
-1.230126e-08
1.639051e-08
1.074125e-11
-1.451506e-08
1.782417e-08
2.429794e-11
-1.691644e-08
1.953562e-08
3.135337e-11
2.157733e-08
4.089725e-11
-1.952861e-08
-1.889728e-10
-2.722475e-09
6.408712e-11
2.803664e-09
2.115198e-10
-1.019922e-10
-4.693177e-12
-6.127667e-11
-2.771431e-09
1.415261e-08
-1.187373e-10
8.191459e-11
4.973908e-10
1.490609e-10
5.441002e-10
-4.236788e-09
1.464949e-08
-9.248239e-11
-5.738747e-09
1.519605e-08
-6.880349e-11
-7.318844e-09
1.59001e-08
-3.445799e-11
-8.989073e-09
1.691608e-08
-1.263159e-11
-1.077158e-08
1.81716e-08
2.12806e-12
-1.268055e-08
1.972709e-08
1.117049e-11
-1.473572e-08
2.158117e-08
1.836627e-11
2.378148e-08
2.439344e-11
-1.695206e-08
-2.006748e-10
-2.986363e-09
4.960822e-11
3.062022e-09
2.065199e-10
-8.661182e-11
6.446614e-12
-5.108686e-11
-2.374263e-09
-1.443355e-10
3.387196e-11
4.682569e-10
8.963281e-11
5.094617e-10
1.53576e-08
-3.611146e-09
-6.828976e-11
1.592011e-08
-4.884688e-09
-6.580057e-11
1.649442e-08
-6.222293e-09
-3.14868e-11
1.726044e-08
-7.636629e-09
-1.866727e-11
1.834017e-08
-9.141794e-09
-7.139075e-12
1.968031e-08
-1.074234e-08
-2.494901e-12
2.132704e-08
-1.244997e-08
4.019455e-12
2.328331e-08
6.379923e-12
-1.426773e-08
2.559215e-08
0.000599022
1.673471e-05
-0.0008407737
-0.01006788
-2.379692e-05
1.163614e-05
0.0005994725
1.164583e-05
-0.0006720867
-0.04042264
-0.0002006787
0.002090289
-0.0001294079
0.002092861
-0.0001218177
2.459828e-05
-0.04041987
-0.0003141663
3.810773e-05
-0.0407952
-0.0003858606
2.487168e-05
-0.04055828
-0.0004389813
1.451493e-05
-0.04058331
-0.0004521047
2.213456e-05
-0.04061801
-0.0004466025
1.647589e-05
-0.04050541
-0.0004482658
-0.04047411
-0.000469389
2.185289e-05
0.002025152
7.221627e-05
-0.0004176788
-0.00852179
-3.494483e-05
0.002439475
0.002012158
0.002425412
-0.0005438657
-0.04014511
-0.0003848852
0.01001123
0.01028181
0.009994934
0.01013317
0.0001277838
-0.0001974763
0.0001222551
-0.0001740289
-0.0001402254
-0.04101912
-0.0005977062
8.201319e-06
-0.04083453
-0.0006336223
2.177087e-05
-0.0410021
-0.0008029537
8.009905e-06
-0.04079899
-0.0007126825
2.374991e-05
-0.04079991
-0.0007551798
3.214363e-05
-0.04085978
-0.0008289958
4.377946e-05
-0.04075325
-0.00073243
-0.04072417
-0.0007763317
7.01076e-05
-0.001097364
-0.03621025
-0.000157468
0.008432382
0.0103233
0.008407952
0.01021663
-0.0002700634
-0.04096367
-3.66987e-06
-0.0003324605
-0.04117687
-0.0004342124
-8.676599e-05
-0.04125957
-0.0006563154
-8.746935e-05
-0.04113196
-0.0006649198
-1.93513e-05
-0.0410259
-0.0007620654
2.723087e-05
-0.04102037
-0.0007115999
1.122411e-05
-0.04098511
-0.0007688582
6.530032e-05
-0.04098486
-0.0007061258
-0.04095144
-0.0007282123
9.028998e-05
-0.0007779969
-0.03525564
0.0001162163
-0.0003439224
-0.04140915
-0.000110475
-0.000164809
-0.04136932
-0.0001676422
-4.306947e-05
-0.04129881
-0.0003298258
-3.042313e-05
-0.04106324
-0.0003586429
-1.271231e-05
-0.04092968
-0.0004209105
6.131684e-05
-0.04101918
-0.0004259066
1.774691e-05
-0.04082476
-0.0004336506
0.0001220004
-0.0410453
-0.0004014129
-0.04086632
-0.0004104408
0.0001375264
1.767475e-06
-0.03531552
-3.654285e-05
-6.344543e-05
-0.04129741
-0.0001014431
-2.633034e-05
-0.04140223
-8.402488e-05
4.30253e-05
-0.04132563
-0.00011683
-3.388485e-05
-0.04090668
-0.000159728
-5.073337e-05
-0.04085336
-0.0001382004
5.484442e-05
-0.04108305
-0.0001547147
2.986528e-05
-0.04074544
-0.000135546
0.0001513723
-0.04114628
-0.000124426
-0.04085964
-9.815834e-05
0.0001429344
8.143787e-06
-0.03522912
2.816592e-05
8.161907e-05
-0.04129747
3.073615e-05
9.627463e-05
-0.04139682
0.0001403527
8.119097e-05
-0.04121613
0.0001144368
6.307206e-05
-0.04085988
0.000152385
8.354667e-05
-0.04084405
0.0001998316
0.0001496735
-0.04114614
0.0002178791
8.584844e-05
-0.04061771
0.000205279
0.0001913634
-0.04122722
0.0002278306
-0.04075908
0.0002461513
0.000196483
-5.508773e-05
-0.03510275
-0.0001423843
-0.0001146399
-0.04108203
-0.0001686504
-4.560476e-05
-0.0415246
6.278927e-05
-4.953776e-05
-0.04127705
2.831224e-05
4.344935e-05
-0.0411076
0.0001968808
9.774698e-05
-0.0410912
0.0003206087
0.0001426861
-0.04135415
0.0003916624
0.0001112727
-0.04063119
0.0001809868
0.0002032762
-0.04135307
0.0003170175
-0.04056017
0.0001267971
0.0001718378
0.0006950837
-0.03565458
0.0001116033
0.00131852
-0.04151782
0.0003399705
0.001139592
-0.04109452
0.001220865
0.0007561272
-0.040738
0.001651367
0.0005399729
-0.04066326
0.001999077
0.0004459095
-0.04072043
0.002051372
0.0003673933
-0.04096453
0.0021822
0.0002060636
-0.04003699
0.001826649
0.0002975874
-0.04108174
0.002071603
-0.03973344
0.001620514
0.0002639648
0.000892251
-0.03642009
-0.0001897726
0.0005100085
-0.04072437
-0.0001762398
0.0002040249
-0.04057129
0.0007784444
-0.0004117567
-0.04019229
0.0005220919
-0.0004025279
-0.04049777
0.001255057
-0.0002212148
-0.04106571
0.0004686975
4.691643e-05
-0.04143209
0.00132804
0.0001005632
-0.04035192
0.0002208222
0.0003228418
-0.04153162
0.001475047
-0.03968616
0.000545351
0.0002442491
0.003212747
-0.009165236
0.0004701468
-0.01084851
-0.00917126
-0.01083899
0.004015863
-0.01040514
0.001229509
-0.01038213
-0.0101809
-0.01049974
0.002785329
-0.03774033
0.002976941
0.001367087
-0.03804454
0.00688675
0.0009228279
-0.04009439
0.008187968
0.00119651
-0.04161158
0.008584112
0.001166053
-0.04252865
0.009984076
0.0007422094
-0.04089726
0.008812026
0.0009761984
-0.04298658
0.01003949
-0.04026089
0.009935918
0.0002543796
-3.906015e-05
-1.418943e-05
1.863589e-05
-0.002618559
-0.001917513
-0.002632636
-0.001961915
-3.012217e-05
0.0003939988
-0.0008013235
-0.009772006
-0.0001956811
-0.003551793
-0.003136287
0.001632552
0.001922135
-0.0004888683
-0.001123216
0.002074701
-0.0004141709
0.001792138
-0.001096869
-0.002114206
-0.005906103
0.002074432
0.002528458
-0.0008778381
-0.0008987746
-0.001471801
-0.007395838
0.002206788
0.002763365
-0.000806421
-0.0007235238
-0.001298203
-0.008297703
0.002199116
0.002629499
-0.0008412706
-0.0006485401
-0.0009208048
-0.009629991
0.002223238
0.002721685
-0.0008303134
-0.0005571811
-0.0009242786
-0.008840361
0.002406471
0.003534751
-0.00077296
-0.0003824477
-0.001188091
-0.009684989
0.00308821
0.002146097
-0.0005759592
-0.0008550185
-0.009921584
0.002948823
0.003016403
-0.0002677922
-0.0001736749
-0.0002093686
7.490097e-12
-3.075244e-11
-1.403306e-11
6.9133e-11
-1.406079e-11
-1.78283e-11
-4.418e-09
1.903951e-09
-1.653108e-11
5.54508e-10
6.161706e-10
5.743424e-10
5.844104e-10
1.090994e-10
1.315508e-10
9.326557e-11
1.917715e-10
-6.116922e-09
1.86787e-09
1.694121e-10
-8.084463e-09
2.281875e-09
-3.550359e-11
-1.014685e-08
2.476644e-09
-1.099563e-11
-1.252391e-08
2.809403e-09
9.701877e-11
-1.515389e-08
3.063458e-09
1.613776e-10
-1.793004e-08
3.373484e-09
2.335702e-10
-2.092714e-08
3.67577e-09
8.186211e-11
4.101901e-09
1.090945e-10
-2.431104e-08
-1.673721e-09
4.541857e-09
1.107273e-10
-6.882132e-10
-8.485846e-10
-7.324588e-10
-6.429212e-10
-1.034341e-10
-1.345643e-10
1.449187e-10
2.609762e-11
-4.562793e-09
4.89549e-09
1.50527e-10
-7.304635e-09
4.634641e-09
6.985024e-11
-9.852332e-09
4.929163e-09
1.191343e-10
-1.252066e-08
5.25583e-09
1.057381e-10
-1.530454e-08
5.784386e-09
2.020734e-10
-1.83326e-08
6.333131e-09
2.118917e-10
-2.168368e-08
6.938489e-09
2.627922e-10
-2.546257e-08
7.630121e-09
2.203977e-10
8.481537e-09
2.366177e-10
-2.968801e-08
-1.69123e-09
6.209006e-09
-1.687294e-10
-1.650177e-10
-9.480205e-12
2.655487e-10
1.01563e-10
-3.916895e-09
7.14272e-09
-2.967992e-11
-6.557135e-09
7.268338e-09
-8.975539e-11
-9.133414e-09
7.525679e-09
5.174805e-11
-1.179607e-08
7.962411e-09
1.241412e-10
-1.458324e-08
8.607379e-09
2.045479e-10
-1.755873e-08
9.351253e-09
2.637161e-10
-2.077986e-08
1.022498e-08
2.90999e-10
-2.431927e-08
1.125232e-08
3.024968e-10
1.251709e-08
3.478564e-10
-2.827075e-08
-1.667854e-09
7.850682e-09
2.138063e-12
-2.86981e-10
-4.487983e-11
2.825421e-10
7.316459e-11
-3.711069e-09
9.203188e-09
1.730065e-11
-5.985129e-09
9.459117e-09
-3.947249e-11
-8.30809e-09
9.84171e-09
3.481065e-11
-1.071392e-08
1.032791e-08
8.37188e-11
-1.322453e-08
1.108059e-08
1.505604e-10
-1.590801e-08
1.197954e-08
1.719675e-10
-1.882573e-08
1.308932e-08
2.056139e-10
-2.203438e-08
1.440491e-08
2.198409e-10
1.59991e-08
2.532024e-10
-2.557465e-08
-1.571284e-09
9.339155e-09
-3.423542e-11
-3.058085e-10
-4.252742e-11
3.594347e-10
1.057859e-10
-3.36944e-09
1.103344e-08
-3.395673e-11
-5.362705e-09
1.140637e-08
-1.070593e-10
-7.427406e-09
1.190363e-08
-3.502821e-11
-9.586792e-09
1.248417e-08
8.374016e-12
-1.185474e-08
1.333458e-08
6.790049e-11