/*--------------------------------*- C++ -*----------------------------------*\
  =========                 |
  \\      /  F ield         | OpenFOAM: The Open Source CFD Toolbox
   \\    /   O peration     | Website:  https://openfoam.org
    \\  /    A nd           | Version:  7
     \\/     M anipulation  |
\*---------------------------------------------------------------------------*/
FoamFile
{
    version     2.0;
    format      ascii;
    class       volVectorField;
    location    "0.02";
    object      U;
}
// * * * * * * * * * * * * * * * * * * * * * * * * * * * * * * * * * * * * * //

dimensions      [0 1 -1 0 0 0 0];

internalField   nonuniform List<vector> 
109978
(
(0.009339059 -0.009328273 -1.283505e-06)
(0.01817354 -0.008587367 -0.0003677758)
(0.02694379 -0.007849788 -0.0004908583)
(0.03561121 -0.007137419 -0.0006398027)
(0.04442543 -0.006531729 -0.0007739917)
(0.05292032 -0.005852618 -0.0009160878)
(0.00862357 -0.01817192 0.0003681113)
(0.01800453 -0.01795705 -1.210099e-07)
(0.02703125 -0.01769558 -9.907803e-05)
(0.03572801 -0.01751777 -0.0003259585)
(0.04437237 -0.01728457 -0.0005922477)
(0.05278226 -0.01696494 -0.0008413966)
(0.007928964 -0.02696715 0.000487056)
(0.01781651 -0.02698681 9.374686e-05)
(0.02700345 -0.02685034 -4.351291e-06)
(0.03572335 -0.02673096 -0.0001825872)
(0.04445477 -0.02658431 -0.000457074)
(0.05308135 -0.02641221 -0.0007184759)
(0.007274617 -0.03570355 0.0006342819)
(0.01774113 -0.03572891 0.0003150476)
(0.02703517 -0.03558201 0.0001701373)
(0.03581924 -0.03547977 -1.002378e-05)
(0.04457849 -0.03532828 -0.0002484507)
(0.05321925 -0.03516144 -0.0005123823)
(0.006728046 -0.04464032 0.0007656853)
(0.01762906 -0.04447003 0.0005755089)
(0.02707829 -0.04437113 0.0004341877)
(0.03592255 -0.04425001 0.0002257169)
(0.04475305 -0.04410911 -1.986106e-05)
(0.05341084 -0.04390213 -0.0002456523)
(0.006111843 -0.05332807 0.0009123151)
(0.01746557 -0.05303675 0.0008201081)
(0.02713538 -0.05312691 0.0006877575)
(0.03606147 -0.05296679 0.000470562)
(0.04493281 -0.0527866 0.0002027865)
(0.05366032 -0.05257981 -3.875556e-05)
(0.005481662 -0.06194471 0.001056698)
(0.01734711 -0.06161042 0.001041483)
(0.02721997 -0.0619513 0.0009453997)
(0.03622977 -0.06175674 0.0007219809)
(0.04514582 -0.06154026 0.0004441352)
(0.05392354 -0.06128897 0.000197663)
(0.004865536 -0.07064881 0.001163726)
(0.01731638 -0.07037884 0.001284472)
(0.02735385 -0.07079041 0.001204198)
(0.03643006 -0.07057561 0.0009718207)
(0.04539527 -0.07032803 0.0006926684)
(0.05421954 -0.07003319 0.0004269029)
(0.004257449 -0.07951965 0.001273523)
(0.01730556 -0.07929853 0.001539165)
(0.02750432 -0.07966568 0.001469311)
(0.03665278 -0.0794492 0.001222552)
(0.04567758 -0.07917412 0.0009401474)
(0.05455825 -0.07884314 0.0006716304)
(0.003721117 -0.08846546 0.001364642)
(0.01731933 -0.08836511 0.001786286)
(0.02760779 -0.08851276 0.001710529)
(0.03689041 -0.08838921 0.001471384)
(0.04599045 -0.08808034 0.001186685)
(0.05493527 -0.08771401 0.0009156112)
(0.003182409 -0.09752891 0.001481157)
(0.01733944 -0.09753553 0.002026741)
(0.02780068 -0.09751167 0.00193938)
(0.03716692 -0.09738163 0.001723544)
(0.04633625 -0.09705044 0.001432116)
(0.05534848 -0.09665154 0.001159136)
(0.002622979 -0.1066722 0.001602178)
(0.0173466 -0.1067672 0.002259588)
(0.02798013 -0.1065081 0.002167581)
(0.03746634 -0.1064543 0.00197232)
(0.04671103 -0.1060938 0.0016774)
(0.05579707 -0.1056623 0.001402156)
(0.00206771 -0.1158916 0.001722746)
(0.01736303 -0.1160845 0.002495561)
(0.02817578 -0.1155663 0.002401046)
(0.03777616 -0.1155987 0.002231485)
(0.04711219 -0.1152138 0.001921857)
(0.05627856 -0.1147509 0.00164349)
(0.001507121 -0.1251876 0.001852078)
(0.01739623 -0.1255028 0.002727347)
(0.02840932 -0.1247793 0.002627024)
(0.03807997 -0.124796 0.002469292)
(0.04754079 -0.1244211 0.002166229)
(0.05679322 -0.1239239 0.001884317)
(0.0009432862 -0.1345453 0.001983554)
(0.01744609 -0.1350386 0.00296361)
(0.02865679 -0.1340899 0.002854866)
(0.03848626 -0.1342243 0.002707186)
(0.04800754 -0.1336973 0.002412621)
(0.0573397 -0.1331835 0.002124714)
(0.0003952125 -0.1439451 0.002107531)
(0.01749735 -0.1446606 0.003194903)
(0.02891936 -0.1435695 0.003078868)
(0.03882036 -0.1435076 0.002928832)
(0.04848325 -0.143095 0.002657515)
(0.05791337 -0.1425423 0.002364622)
(-0.0001344578 -0.1534298 0.002234077)
(0.01755944 -0.1543819 0.003431609)
(0.0292305 -0.1532475 0.003323807)
(0.03919369 -0.152877 0.003163125)
(0.04896204 -0.1526121 0.002899925)
(0.05851265 -0.152002 0.002604656)
(-0.0006518324 -0.1630049 0.002354449)
(0.01765488 -0.1641983 0.003660359)
(0.02951779 -0.1629996 0.003556394)
(0.03961196 -0.1624268 0.003396445)
(0.04952159 -0.1623766 0.003157267)
(0.05915682 -0.1615522 0.002847325)
(-0.00115894 -0.1726949 0.002485921)
(0.01775007 -0.1740925 0.003889138)
(0.02982509 -0.1728653 0.003798679)
(0.04003065 -0.1721223 0.00362104)
(0.05007912 -0.1721152 0.003375189)
(0.05980876 -0.171218 0.003085865)
(-0.001652978 -0.1824933 0.002616889)
(0.01784501 -0.1840665 0.004107394)
(0.03013113 -0.1828426 0.00403397)
(0.04046606 -0.181953 0.003842034)
(0.05059039 -0.1817708 0.00359393)
(0.06047397 -0.1810179 0.003325744)
(-0.002144375 -0.1924015 0.002753646)
(0.01794921 -0.1941722 0.004329226)
(0.0304629 -0.1929796 0.004277371)
(0.04091853 -0.191887 0.004066614)
(0.05113275 -0.1915274 0.003825563)
(0.06114018 -0.1909699 0.0035572)
(-0.002614097 -0.2024053 0.002886018)
(0.01805935 -0.2043842 0.004551034)
(0.03080411 -0.2032425 0.004518558)
(0.04138795 -0.2019304 0.004295659)
(0.05172666 -0.2014182 0.004062512)
(0.06189052 -0.2012573 0.003821532)
(0.01737743 -0.2213895 0.02267533)
(0.01818181 -0.214728 0.004786715)
(0.03115813 -0.2136373 0.004778527)
(0.04185572 -0.2120842 0.004522963)
(0.05230485 -0.2115062 0.004300027)
(0.06262987 -0.2114408 0.004052048)
(0.01061381 -0.001710637 0.0003024522)
(0.01848808 -0.002087165 0.0007836684)
(0.02718948 -0.001934706 0.001262375)
(0.03580461 -0.001965701 0.001713899)
(0.04445259 -0.002121662 0.002179038)
(0.05309918 -0.002337385 0.002738929)
(0.001731079 -0.01066832 -0.00030494)
(0.01285776 -0.01283943 1.84395e-06)
(0.02128542 -0.01290608 -6.7693e-05)
(0.03002747 -0.01269192 6.45875e-05)
(0.03860841 -0.01271188 7.21196e-06)
(0.04725938 -0.01265128 2.013704e-05)
(0.002106132 -0.01852393 -0.000787828)
(0.01295113 -0.02128812 5.935724e-05)
(0.02136422 -0.02129874 -6.679988e-06)
(0.03010164 -0.02121705 0.0001292781)
(0.03866565 -0.02119532 8.497763e-05)
(0.04733066 -0.02108372 0.0001292319)
(0.001962176 -0.02726325 -0.001271182)
(0.01279617 -0.03006371 -6.954889e-05)
(0.02137826 -0.03005243 -0.0001318461)
(0.03012798 -0.02994492 4.80425e-06)
(0.03873042 -0.02989517 -8.678712e-05)
(0.04746088 -0.02976317 -1.860026e-05)
(0.001997517 -0.03597603 -0.001720059)
(0.01288806 -0.03873112 -1.413334e-05)
(0.02148199 -0.03868108 -8.915925e-05)
(0.03025289 -0.03857507 9.10169e-05)
(0.03884919 -0.03846893 -1.427856e-06)
(0.04759568 -0.0383205 6.832254e-05)
(0.002162751 -0.04476176 -0.002192189)
(0.01292152 -0.0475258 -2.571701e-05)
(0.02152239 -0.04746321 -0.0001395252)
(0.03034025 -0.04738454 1.691782e-05)
(0.03898752 -0.04724276 -7.211275e-05)
(0.04777178 -0.0470686 -1.987889e-06)
(0.002394666 -0.05361251 -0.002758623)
(0.01304833 -0.056299 -9.095569e-06)
(0.02162117 -0.05621647 -0.0001127887)
(0.03047724 -0.05611809 3.693025e-05)
(0.0391681 -0.0559404 -3.833847e-05)
(0.0479821 -0.05574113 3.185033e-05)
(0.002608621 -0.06244454 -0.0034661)
(0.01313193 -0.06513716 -5.136297e-06)
(0.02170714 -0.06505843 -0.000111471)
(0.03062299 -0.06494378 1.72101e-05)
(0.03936786 -0.06474751 -5.046845e-05)
(0.04822299 -0.06451921 1.492838e-05)
(0.002753831 -0.07126988 -0.004016979)
(0.01320878 -0.0740202 -3.858333e-06)
(0.02182144 -0.07392525 -9.583238e-05)
(0.03079621 -0.07378479 1.946429e-05)
(0.03959676 -0.07357108 -4.307517e-05)
(0.0484991 -0.07330988 1.852881e-05)
(0.002842007 -0.08012246 -0.004477207)
(0.01326974 -0.08296534 -5.328576e-07)
(0.0219508 -0.0828576 -8.708121e-05)
(0.03098649 -0.08269155 1.983612e-05)
(0.03984761 -0.08246278 -4.270283e-05)
(0.04880711 -0.08216817 1.611871e-05)
(0.002880207 -0.08895925 -0.004830114)
(0.01335085 -0.09195494 -4.919957e-06)
(0.02210418 -0.0918463 -8.784834e-05)
(0.03120197 -0.09165571 2.475605e-05)
(0.04012527 -0.09140917 -4.241194e-05)
(0.04914968 -0.09108322 1.732229e-05)
(0.00295309 -0.09796694 -0.005269143)
(0.01345514 -0.1009984 4.947746e-07)
(0.02226002 -0.1008982 -8.746507e-05)
(0.03143552 -0.1006867 3.29741e-05)
(0.04042555 -0.1004217 -4.102644e-05)
(0.04952307 -0.1000672 1.859361e-05)
(0.003040942 -0.1070387 -0.00577599)
(0.01357574 -0.1101197 8.294619e-06)
(0.02242676 -0.1100189 -9.261107e-05)
(0.03169153 -0.1097915 4.030582e-05)
(0.04075094 -0.1095053 -3.94022e-05)
(0.04992741 -0.1091241 2.070345e-05)
(0.003134304 -0.1161849 -0.006322207)
(0.01370898 -0.1193259 2.075751e-05)
(0.02259984 -0.11921 -9.787355e-05)
(0.03196343 -0.1189736 4.559095e-05)
(0.04109963 -0.1186679 -3.582679e-05)
(0.05036034 -0.1182601 2.305266e-05)
(0.003230374 -0.1254022 -0.006836136)
(0.01384646 -0.1286284 3.171272e-05)
(0.02279165 -0.1284824 -0.0001032035)
(0.032249 -0.1282362 4.908747e-05)
(0.04147173 -0.1279094 -3.25874e-05)
(0.05082326 -0.1274791 2.583643e-05)
(0.003352956 -0.1347271 -0.007291506)
(0.01397595 -0.1380099 4.525862e-05)
(0.02300552 -0.1378434 -0.0001052019)
(0.03255301 -0.137586 5.154647e-05)
(0.04186454 -0.1372375 -2.644179e-05)
(0.05130877 -0.1367871 2.973218e-05)
(0.003473276 -0.1441217 -0.007769712)
(0.01411052 -0.1474674 6.054689e-05)
(0.02323006 -0.1472952 -0.0001063452)
(0.03287253 -0.1470263 4.96341e-05)
(0.04227888 -0.1466634 -2.352455e-05)
(0.05182051 -0.1461915 3.528816e-05)
(0.003592754 -0.1536168 -0.008288128)
(0.01425351 -0.1570203 6.511997e-05)
(0.02346199 -0.1568408 -0.0001066713)
(0.03320366 -0.1565606 4.93679e-05)
(0.04270807 -0.1561843 -2.246696e-05)
(0.05235575 -0.155692 4.022426e-05)
(0.003707868 -0.1631925 -0.008782848)
(0.01439962 -0.166675 6.153758e-05)
(0.02370564 -0.1664875 -0.0001089294)
(0.03354885 -0.1661961 5.021667e-05)
(0.04315679 -0.1658051 -2.154834e-05)
(0.05291245 -0.1652918 4.673771e-05)
(0.003824978 -0.1728884 -0.009279703)
(0.01455386 -0.1764332 6.005853e-05)
(0.02395729 -0.1762399 -0.0001115281)
(0.03390677 -0.175938 5.091907e-05)
(0.04362225 -0.1755333 -2.061397e-05)
(0.05348831 -0.175002 5.477419e-05)
(0.003941098 -0.1826773 -0.009770615)
(0.01471123 -0.1862957 6.233827e-05)
(0.02421744 -0.1860976 -0.0001149486)
(0.03427706 -0.1857874 5.189988e-05)
(0.04410269 -0.185372 -2.17675e-05)
(0.05408269 -0.1848267 6.164726e-05)
(0.00405779 -0.1925919 -0.01027192)
(0.0148765 -0.196267 6.728047e-05)
(0.02448196 -0.1960642 -0.000117265)
(0.03465468 -0.1957463 5.315931e-05)
(0.04459301 -0.1953213 -2.190577e-05)
(0.05469 -0.194764 6.507979e-05)
(0.004171624 -0.2025959 -0.01076724)
(0.01504257 -0.2063493 7.485761e-05)
(0.02475404 -0.2061418 -0.0001187584)
(0.0350433 -0.2058182 5.528704e-05)
(0.04509602 -0.2053863 -2.709449e-05)
(0.05531458 -0.2048187 6.973486e-05)
(1.675279e-05 -0.2178185 0.01168934)
(0.01521744 -0.2165417 8.330081e-05)
(0.02503021 -0.2163351 -0.000119604)
(0.03543612 -0.2160074 5.810405e-05)
(0.04560508 -0.2155702 -2.903851e-05)
(0.05595277 -0.2149946 7.321406e-05)
(0.01057815 -0.00155882 7.843652e-06)
(0.01878451 -0.002468377 0.000216231)
(0.02764395 -0.00238673 0.000294741)
(0.03648359 -0.002474259 0.0003590559)
(0.04530056 -0.002680395 0.0004169831)
(0.0540649 -0.003010463 0.0005272289)
(0.001589796 -0.01061246 -1.613908e-05)
(0.01283463 -0.01281348 -4.61302e-06)
(0.0213981 -0.01278053 4.907978e-05)
(0.03005829 -0.01256639 8.853834e-05)
(0.03861535 -0.01255374 6.524229e-05)
(0.04728131 -0.01250132 6.587634e-05)
(0.002488517 -0.01882052 -0.0002210708)
(0.01282253 -0.02139949 -5.376639e-05)
(0.02145012 -0.0213799 -5.871039e-06)
(0.03006147 -0.02111514 3.404816e-05)
(0.03868914 -0.02126629 -1.489025e-06)
(0.04735652 -0.02118108 1.784258e-05)
(0.002408448 -0.02771876 -0.0002891335)
(0.01267543 -0.03009484 -9.511453e-05)
(0.02124215 -0.03004441 -3.913939e-05)
(0.03013915 -0.02995186 5.431372e-06)
(0.03876236 -0.02990718 -2.385062e-05)
(0.0474868 -0.02977183 8.160356e-06)
(0.002500366 -0.03663745 -0.0003572847)
(0.01272961 -0.03873964 -8.036064e-05)
(0.02152951 -0.038687 -8.890274e-06)
(0.03026437 -0.03861411 3.437781e-05)
(0.0388842 -0.03850773 -6.941136e-07)
(0.04761846 -0.03836047 3.093932e-05)
(0.002709356 -0.04558729 -0.000413803)
(0.012763 -0.04754572 -7.612891e-05)
(0.02162842 -0.04749059 -2.557713e-05)
(0.03035359 -0.04741508 -9.372867e-06)
(0.03902791 -0.04726605 -3.358903e-05)
(0.04779809 -0.04709478 -2.112041e-06)
(0.003083593 -0.05455231 -0.0005306357)
(0.01291885 -0.05633791 -6.702875e-05)
(0.02172226 -0.05623789 -1.502703e-05)
(0.03049178 -0.05613691 -1.562212e-06)
(0.03920577 -0.05595471 -2.226374e-05)
(0.04800434 -0.05575903 6.54885e-06)
(0.003353233 -0.06351807 -0.0005399226)
(0.01303572 -0.06519486 -8.469124e-05)
(0.02181788 -0.06507979 -2.146437e-05)
(0.03063926 -0.06496649 -1.38428e-05)
(0.0394066 -0.06476304 -3.006207e-05)
(0.04824364 -0.06453709 -4.286536e-06)
(0.003615498 -0.07246064 -0.0005610337)
(0.01311535 -0.07407611 -9.860889e-05)
(0.02194541 -0.07394042 -1.493857e-05)
(0.03081068 -0.07380482 -1.510335e-05)
(0.039636 -0.07358348 -2.72287e-05)
(0.04851801 -0.07332422 -3.447643e-06)
(0.003834439 -0.08146072 -0.0006238891)
(0.01317287 -0.08301427 -0.0001083089)
(0.02207811 -0.08287394 -1.138213e-05)
(0.0309981 -0.08271145 -1.844741e-05)
(0.03988812 -0.08247713 -2.77588e-05)
(0.04882488 -0.08218318 -6.030274e-06)
(0.004002607 -0.09049809 -0.0006941027)
(0.01324487 -0.09201205 -0.0001053157)
(0.02223136 -0.09186774 -7.121208e-06)
(0.03121066 -0.09167602 -1.666882e-05)
(0.04016469 -0.0914252 -2.747483e-05)
(0.04916691 -0.09109847 -5.518114e-06)
(0.004169419 -0.09961612 -0.0007332512)
(0.01334054 -0.1010692 -0.0001176135)
(0.02239297 -0.1009269 -7.724088e-06)
(0.03144351 -0.1007109 -1.682136e-05)
(0.04046593 -0.1004399 -2.817464e-05)
(0.04954006 -0.1000837 -6.018735e-06)
(0.004363701 -0.1088068 -0.0007884945)
(0.0134625 -0.1101958 -0.0001273372)
(0.02256774 -0.1100531 -8.776869e-06)
(0.03169861 -0.1098163 -1.644235e-05)
(0.04079117 -0.1095253 -2.863659e-05)
(0.04994475 -0.1091418 -5.52249e-06)
(0.004591058 -0.1180936 -0.0008680539)
(0.01359132 -0.1193982 -0.0001393098)
(0.02275298 -0.1192487 -1.20406e-05)
(0.03197154 -0.1189983 -1.531926e-05)
(0.04113924 -0.1186872 -2.945201e-05)
(0.0503779 -0.1182788 -5.757031e-06)
(0.004850768 -0.1274684 -0.0009810559)
(0.01373109 -0.1286828 -0.0001429721)
(0.02294909 -0.1285233 -1.540256e-05)
(0.03226032 -0.1282626 -1.404012e-05)
(0.04151085 -0.1279314 -2.782033e-05)
(0.05083893 -0.1275001 -4.992441e-06)
(0.005102007 -0.1369394 -0.001101437)
(0.01387944 -0.1380533 -0.0001363717)
(0.023153 -0.1378831 -1.899031e-05)
(0.0325638 -0.1376131 -1.362626e-05)
(0.04190387 -0.1372631 -2.962481e-05)
(0.05132528 -0.1368101 -5.854068e-06)
(0.005374239 -0.1465013 -0.001263512)
(0.01403754 -0.1475296 -0.0001291156)
(0.02336727 -0.1473358 -1.89349e-05)
(0.03288033 -0.1470566 -1.213906e-05)
(0.04231602 -0.146688 -2.985071e-05)
(0.05183696 -0.1462142 -5.417335e-06)
(0.005621157 -0.156143 -0.001358417)
(0.01418391 -0.1571104 -0.0001280102)
(0.02360215 -0.1568883 -1.939231e-05)
(0.03321155 -0.1565968 -1.28177e-05)
(0.04274712 -0.1562112 -2.979117e-05)
(0.05237133 -0.1557168 -4.260902e-06)
(0.005895806 -0.1658805 -0.001471389)
(0.01431772 -0.1667779 -0.0001283156)
(0.02385517 -0.1665416 -2.022657e-05)
(0.03355734 -0.1662367 -1.414344e-05)
(0.04319639 -0.1658362 -3.063151e-05)
(0.05292773 -0.1653225 -4.89878e-06)
(0.006134681 -0.1757368 -0.001529759)
(0.0144576 -0.1765368 -0.000137333)
(0.02411566 -0.176297 -2.368646e-05)
(0.03391675 -0.1759805 -1.70216e-05)
(0.04366164 -0.1755665 -3.292946e-05)
(0.05350337 -0.1750355 -7.933095e-06)
(0.006403469 -0.1856985 -0.001644265)
(0.01460715 -0.1864006 -0.0001422098)
(0.02438192 -0.1861575 -2.578501e-05)
(0.03428789 -0.1858314 -1.800317e-05)
(0.04414163 -0.1854054 -3.395113e-05)
(0.05409728 -0.1848587 -9.184325e-06)
(0.0066363 -0.1957659 -0.001708714)
(0.01476442 -0.196375 -0.0001488545)
(0.02465364 -0.1961266 -2.953222e-05)
(0.03466921 -0.1957925 -1.989213e-05)
(0.04463443 -0.1953561 -3.513008e-05)
(0.05470655 -0.1947961 -9.660521e-06)
(0.006914713 -0.2059519 -0.001847618)
(0.01492617 -0.2064608 -0.0001515386)
(0.02493007 -0.206207 -3.235066e-05)
(0.03505974 -0.2058662 -2.148629e-05)
(0.0451384 -0.2054209 -3.762403e-05)
(0.05532916 -0.2048497 -1.146628e-05)
(0.00717248 -0.2162602 -0.00194673)
(0.01509152 -0.2166606 -0.0001579967)
(0.02521069 -0.2164013 -3.828657e-05)
(0.03545748 -0.2160557 -2.500363e-05)
(0.04565162 -0.2156034 -3.980243e-05)
(0.05596347 -0.2150229 -1.238631e-05)
(0.0105347 -0.001524182 -9.994607e-06)
(0.01884023 -0.002163836 -1.159006e-05)
(0.02775363 -0.001948627 -1.184749e-05)
(0.03657482 -0.001939087 -8.084111e-06)
(0.04536748 -0.002316625 6.098383e-05)
(0.05419622 -0.00274083 0.0001022954)
(0.001559043 -0.01056986 8.990215e-06)
(0.01277432 -0.01275331 -5.512775e-06)
(0.02140543 -0.01270494 -1.128283e-05)
(0.03004921 -0.01244846 1.151825e-05)
(0.03860633 -0.01242275 1.879334e-06)
(0.0472803 -0.01235553 1.00655e-05)
(0.002180961 -0.01890289 1.449116e-05)
(0.01274827 -0.02140387 5.399802e-06)
(0.02146708 -0.02139674 -3.645095e-06)
(0.03010289 -0.02113476 3.549743e-05)
(0.03866616 -0.02127827 5.46914e-06)
(0.04736731 -0.02120373 2.501734e-05)
(0.001999082 -0.02784381 1.030556e-05)
(0.01257428 -0.03007936 -1.00273e-05)
(0.02125931 -0.03008925 -3.931727e-05)
(0.03014779 -0.02995208 1.661802e-06)
(0.03874681 -0.02992841 -3.742835e-05)
(0.04750376 -0.02979466 -1.258654e-05)
(0.001992649 -0.03676097 9.673464e-06)
(0.01265741 -0.03871277 9.560447e-06)
(0.02148613 -0.03864943 -2.210703e-05)
(0.03029289 -0.03860023 4.498131e-05)
(0.0388727 -0.03850312 -3.60642e-07)
(0.04763281 -0.03835707 2.265772e-05)
(0.002363246 -0.04567246 -5.391839e-05)
(0.01260815 -0.0475354 -1.681764e-05)
(0.02165622 -0.04749731 -3.411286e-05)
(0.03038239 -0.04743254 1.215342e-05)
(0.03902424 -0.04728131 -2.555461e-05)
(0.04781457 -0.04710992 -1.002671e-06)
(0.002795016 -0.05470127 -8.865515e-05)
(0.01279899 -0.05633353 -1.210081e-05)
(0.02174855 -0.05622961 -1.54374e-05)
(0.03051921 -0.05613754 1.931526e-05)
(0.03920623 -0.05595015 -1.321421e-05)
(0.04802029 -0.05575639 9.49457e-06)
(0.003135159 -0.06370634 -6.692721e-05)
(0.01293233 -0.0651987 -1.938595e-05)
(0.02184079 -0.06507696 -1.721846e-05)
(0.03066462 -0.06497262 1.276373e-05)
(0.03940803 -0.06476519 -1.793068e-05)
(0.04826027 -0.06454127 3.578389e-06)
(0.003396146 -0.07274775 -4.870807e-05)
(0.01301467 -0.07407771 -2.344771e-05)
(0.02197029 -0.07393532 -1.217724e-05)
(0.03083481 -0.0738055 1.185324e-05)
(0.03963954 -0.07358183 -1.512934e-05)
(0.04853427 -0.0733236 4.300846e-06)
(0.003605014 -0.08178684 -4.855996e-05)
(0.01306998 -0.08300952 -2.89748e-05)
(0.02210649 -0.08287179 -9.817025e-06)
(0.03102113 -0.08271016 1.095348e-05)
(0.03989148 -0.08247672 -1.591292e-05)
(0.0488416 -0.08218296 3.934776e-06)
(0.003664851 -0.09084341 -2.277188e-05)
(0.01313828 -0.09200577 -2.917996e-05)
(0.02225748 -0.09186725 -7.428316e-06)
(0.03123269 -0.09167266 1.181787e-05)
(0.0401678 -0.09142455 -1.500314e-05)
(0.04918284 -0.09109702 3.416e-06)
(0.003847875 -0.0999202 -3.507531e-05)
(0.01322878 -0.1010663 -3.493664e-05)
(0.02242295 -0.1009277 -7.851107e-06)
(0.0314664 -0.1007074 1.350891e-05)
(0.04046768 -0.1004394 -1.59045e-05)
(0.04955668 -0.1000821 4.351516e-06)
(0.004051282 -0.109155 -4.295877e-05)
(0.01334993 -0.1101912 -3.888955e-05)
(0.02260028 -0.1100545 -8.187435e-06)
(0.03172278 -0.1098129 1.391482e-05)
(0.04079286 -0.1095242 -1.535942e-05)
(0.0499606 -0.1091401 3.95855e-06)
(0.004199022 -0.118459 -2.881096e-05)
(0.01347006 -0.1193953 -4.062657e-05)
(0.02278753 -0.1192513 -9.476237e-06)
(0.03199747 -0.1189957 1.547324e-05)
(0.04114011 -0.1186863 -1.607605e-05)
(0.05039396 -0.1182771 5.105667e-06)
(0.004394512 -0.1278576 -2.612544e-05)
(0.01360311 -0.1286831 -4.33826e-05)
(0.02298607 -0.1285273 -1.116707e-05)
(0.03228875 -0.1282608 1.547267e-05)
(0.04151238 -0.1279304 -1.529805e-05)
(0.05085437 -0.127498 4.826795e-06)
(0.004612817 -0.1373227 -3.633156e-05)
(0.01374653 -0.1380577 -4.74538e-05)
(0.02319527 -0.137888 -1.464491e-05)
(0.03259552 -0.1376124 1.592204e-05)
(0.04190535 -0.1372618 -1.58504e-05)
(0.05134089 -0.136808 6.314626e-06)
(0.004892518 -0.1468982 -6.494339e-05)
(0.01389998 -0.1475251 -5.660006e-05)
(0.02341565 -0.1473395 -1.803095e-05)
(0.03291549 -0.1470558 1.479225e-05)
(0.04231878 -0.1466876 -1.558152e-05)
(0.05185281 -0.1462119 6.175815e-06)
(0.005121015 -0.1565469 -8.11458e-05)
(0.01405329 -0.1570902 -5.416221e-05)
(0.02364766 -0.156889 -2.04211e-05)
(0.03324788 -0.1565953 1.519557e-05)
(0.04275007 -0.1562111 -1.657394e-05)
(0.05238762 -0.1557152 7.274791e-06)
(0.005339127 -0.1663072 -8.946698e-05)
(0.01420062 -0.1667597 -4.601029e-05)
(0.0238925 -0.166542 -2.020851e-05)
(0.0335938 -0.1662357 1.498101e-05)
(0.04319969 -0.1658366 -1.653093e-05)
(0.05294407 -0.1653212 7.220788e-06)
(0.005583898 -0.1761751 -0.0001119446)
(0.01433645 -0.1765273 -4.403017e-05)
(0.02415243 -0.1762993 -2.132688e-05)
(0.03395346 -0.1759805 1.542064e-05)
(0.04366521 -0.1755683 -1.752864e-05)
(0.05352053 -0.1750355 8.228977e-06)
(0.005864405 -0.1861651 -0.0001429181)
(0.01448153 -0.1863919 -4.592249e-05)
(0.02441855 -0.1861609 -2.25234e-05)
(0.034325 -0.1858323 1.47939e-05)
(0.04414548 -0.1854086 -1.810791e-05)
(0.05411492 -0.1848602 8.292463e-06)
(0.00613538 -0.1962485 -0.0001825403)
(0.01463381 -0.1963648 -4.56908e-05)
(0.02468967 -0.1961304 -2.469143e-05)
(0.03470583 -0.1957936 1.51781e-05)
(0.04463742 -0.1953607 -1.903032e-05)
(0.05472448 -0.1947991 9.868735e-06)
(0.006458062 -0.2064608 -0.0002392499)
(0.0147929 -0.2064488 -4.606043e-05)
(0.0249644 -0.2062104 -2.686712e-05)
(0.03509491 -0.2058665 1.388327e-05)
(0.04513992 -0.2054257 -2.12161e-05)
(0.05534781 -0.204853 9.075514e-06)
(0.006613456 -0.2167509 -0.0002280286)
(0.01495465 -0.2166461 -4.528007e-05)
(0.02524419 -0.2164042 -2.928811e-05)
(0.03549078 -0.2160543 1.453435e-05)
(0.04565073 -0.215608 -2.234964e-05)
(0.05598223 -0.2150255 1.234072e-05)
(0.01056276 -0.001514287 -1.111361e-06)
(0.01882416 -0.002146415 -5.900532e-06)
(0.0277509 -0.001931435 -7.835646e-06)
(0.03657707 -0.001931911 -8.780933e-06)
(0.04536246 -0.002009231 -7.222547e-06)
(0.05419069 -0.002432807 6.607061e-06)
(0.001534293 -0.01058148 3.962904e-06)
(0.01276818 -0.01275048 -2.754042e-06)
(0.02142395 -0.01268305 7.66345e-06)
(0.0300405 -0.0124383 1.340603e-05)
(0.03860489 -0.01239184 1.196781e-05)
(0.04727571 -0.01233056 1.395272e-05)
(0.002176506 -0.01886851 5.594619e-06)
(0.01272406 -0.02142171 -1.146875e-05)
(0.02147525 -0.02140198 -1.615072e-06)
(0.03010734 -0.02108458 7.953583e-06)
(0.03865986 -0.02127688 -3.507159e-06)
(0.04737102 -0.02121809 1.451753e-07)
(0.001945862 -0.02784476 8.348087e-06)
(0.0125638 -0.03007449 -1.503767e-05)
(0.02121239 -0.03010282 -8.693715e-06)
(0.03014333 -0.02994477 6.199604e-07)
(0.03874998 -0.02992473 -3.612437e-06)
(0.04751038 -0.02979499 1.917569e-06)
(0.001956015 -0.03676092 9.420386e-06)
(0.01263951 -0.03870844 -1.278614e-05)
(0.02147312 -0.03864041 -2.774855e-06)
(0.03028985 -0.03860442 5.973178e-06)
(0.03887652 -0.03850964 -5.253812e-08)
(0.04763805 -0.03836777 3.817284e-06)
(0.002028383 -0.04568843 8.505996e-06)
(0.01260493 -0.04753003 -1.431674e-05)
(0.02167302 -0.04750142 -2.715356e-06)
(0.03038731 -0.04743667 -2.098373e-06)
(0.03903575 -0.04728767 -4.671322e-06)
(0.04782297 -0.04711897 -7.11671e-07)
(0.002445131 -0.05471521 -5.557896e-06)
(0.01274959 -0.0563371 -1.933958e-05)
(0.02176892 -0.05622404 3.485674e-06)
(0.03051857 -0.05613903 -1.125606e-06)
(0.03921803 -0.05595125 -2.8447e-06)
(0.04802854 -0.05575956 2.646769e-07)
(0.002918547 -0.06370732 -1.413348e-05)
(0.01288439 -0.06520194 -2.231021e-05)
(0.02186026 -0.06507646 2.978794e-06)
(0.03066324 -0.06497543 -3.176854e-06)
(0.03942041 -0.06476707 -4.147665e-06)
(0.04826809 -0.06454501 -2.075916e-06)
(0.003243551 -0.07274661 -1.107971e-05)
(0.01296769 -0.07408063 -2.48209e-05)
(0.02199158 -0.07393289 4.048618e-06)
(0.03083287 -0.07380716 -3.46314e-06)
(0.03965172 -0.07358222 -4.11076e-06)
(0.04854228 -0.07332495 -2.290495e-06)
(0.003383542 -0.08180053 7.280534e-07)
(0.01301886 -0.08301424 -2.795561e-05)
(0.02212967 -0.0828692 5.39426e-06)
(0.03101762 -0.08271183 -4.738199e-06)
(0.03990472 -0.08247726 -4.045746e-06)
(0.04884883 -0.08218439 -3.189082e-06)
(0.003539027 -0.09083199 -3.552694e-06)
(0.01307959 -0.09201129 -3.333165e-05)
(0.02228418 -0.09186559 6.304814e-06)
(0.03122798 -0.09167376 -5.336142e-06)
(0.04018059 -0.09142516 -4.488264e-06)
(0.04919044 -0.09109768 -3.176685e-06)
(0.003583419 -0.09991609 1.240003e-05)
(0.01316458 -0.1010713 -3.878895e-05)
(0.02245277 -0.1009271 6.792864e-06)
(0.03146064 -0.1007084 -6.228838e-06)
(0.04048187 -0.1004401 -4.590306e-06)
(0.04956349 -0.1000828 -3.783679e-06)
(0.003733278 -0.109142 1.775752e-05)
(0.01327684 -0.1101933 -4.211197e-05)
(0.02263266 -0.1100543 6.859158e-06)
(0.03171682 -0.1098137 -6.229241e-06)
(0.04080663 -0.1095248 -5.138324e-06)
(0.04996788 -0.1091406 -4.05245e-06)
(0.003893117 -0.1184479 1.940194e-05)
(0.01339198 -0.119394 -4.320858e-05)
(0.02282154 -0.1192515 6.971103e-06)
(0.03199085 -0.1189963 -6.873211e-06)
(0.0411554 -0.1186868 -5.333736e-06)
(0.05040084 -0.1182777 -4.817571e-06)
(0.004033092 -0.1278379 2.627941e-05)
(0.0135209 -0.1286803 -4.433436e-05)
(0.02302036 -0.1285282 6.22193e-06)
(0.03228236 -0.1282617 -7.315385e-06)
(0.04152684 -0.1279309 -6.11831e-06)
(0.05086159 -0.127499 -5.25989e-06)
(0.004216899 -0.1373088 2.731222e-05)
(0.01366479 -0.1380565 -4.541699e-05)
(0.02322862 -0.1378898 5.523509e-06)
(0.03258908 -0.1376134 -8.528795e-06)
(0.04192004 -0.137263 -7.060413e-06)
(0.05134812 -0.1368087 -6.366049e-06)
(0.00440925 -0.1468706 2.874894e-05)
(0.01381628 -0.1475255 -4.831359e-05)
(0.02345102 -0.1473416 3.695111e-06)
(0.03290979 -0.147057 -9.43624e-06)
(0.04233301 -0.1466886 -8.453225e-06)
(0.05186067 -0.1462132 -7.307236e-06)
(0.004597362 -0.1565164 2.792395e-05)
(0.01397072 -0.1570882 -5.044768e-05)
(0.02368385 -0.1568907 2.111315e-06)
(0.03324269 -0.1565965 -1.113412e-05)
(0.04276497 -0.1562125 -9.880368e-06)
(0.05239509 -0.1557162 -9.106067e-06)
(0.004770062 -0.166266 2.845382e-05)
(0.01411968 -0.1667555 -5.064258e-05)
(0.02392856 -0.1665431 1.951835e-07)
(0.03358849 -0.166237 -1.28173e-05)
(0.04321449 -0.1658381 -1.24267e-05)
(0.05295167 -0.1653227 -1.135894e-05)
(0.004996109 -0.176132 2.336521e-05)
(0.01425785 -0.1765239 -5.093274e-05)
(0.0241874 -0.1763004 -1.512181e-06)
(0.03394813 -0.1759816 -1.559036e-05)
(0.04368031 -0.1755693 -1.546033e-05)
(0.05352816 -0.1750361 -1.489218e-05)
(0.005296823 -0.1861119 7.88389e-06)
(0.0144023 -0.1863884 -5.320465e-05)
(0.02445489 -0.1861618 -4.485672e-06)
(0.03431975 -0.1858321 -1.876758e-05)
(0.04416095 -0.1854082 -2.006672e-05)
(0.0541227 -0.1848588 -1.970193e-05)
(0.005578953 -0.1961916 -3.463109e-06)
(0.01455755 -0.1963596 -5.572711e-05)
(0.02472572 -0.1961309 -7.467343e-06)
(0.03470188 -0.1957924 -2.316674e-05)
(0.04465391 -0.1953587 -2.556193e-05)
(0.05473332 -0.1947949 -2.683256e-05)
(0.005708139 -0.2063651 5.3522e-06)
(0.01471702 -0.2064429 -5.936966e-05)
(0.02500112 -0.2062097 -1.217072e-05)
(0.0350917 -0.205863 -2.946068e-05)
(0.04515762 -0.2054196 -3.515554e-05)
(0.05535714 -0.2048422 -3.801137e-05)
(-0.001796547 -0.2217643 4.258627e-06)
(0.01487907 -0.2166438 -6.187509e-05)
(0.02528248 -0.2164045 -1.510099e-05)
(0.03549033 -0.2160524 -3.536992e-05)
(0.04567333 -0.2156031 -4.381115e-05)
(0.05599436 -0.2150154 -5.014863e-05)
(0.01058147 -0.001505144 1.058564e-06)
(0.01883119 -0.002130177 2.403419e-06)
(0.02775314 -0.001920346 2.82503e-06)
(0.03658678 -0.001856732 1.765154e-06)
(0.04536236 -0.001953726 1.483879e-06)
(0.05417927 -0.00226023 1.607364e-06)
(0.001523959 -0.01060562 -9.099836e-07)
(0.01276799 -0.01275048 1.764235e-06)
(0.02142417 -0.01268357 -8.588128e-06)
(0.03004089 -0.01243825 -1.412647e-05)
(0.03860501 -0.01239196 -1.245293e-05)
(0.04727582 -0.01233055 -1.438528e-05)
(0.002107893 -0.01888164 -2.560676e-06)
(0.01272466 -0.02142091 1.160491e-05)
(0.02147519 -0.02140147 1.335683e-06)
(0.03010733 -0.02108484 -7.965383e-06)
(0.03865989 -0.02127676 3.344976e-06)
(0.047371 -0.02121803 -2.238107e-07)
(0.001888304 -0.0278585 -3.23876e-06)
(0.01256553 -0.03007341 1.527332e-05)
(0.02121009 -0.03010333 8.379054e-06)
(0.03014318 -0.02994446 -5.75036e-07)
(0.03874936 -0.02992475 3.305301e-06)
(0.04751041 -0.02979494 -2.032584e-06)
(0.001870867 -0.03677588 -2.874998e-06)
(0.01264055 -0.0387083 1.311198e-05)
(0.02147083 -0.03863916 2.372933e-06)
(0.03028961 -0.03860441 -6.040559e-06)
(0.03887626 -0.03850954 -1.278496e-07)
(0.04763795 -0.03836806 -3.886867e-06)
(0.001998227 -0.04569134 -2.859321e-06)
(0.01259726 -0.04753018 1.636352e-05)
(0.02167202 -0.04750174 3.427582e-06)
(0.03038643 -0.0474372 2.05469e-06)
(0.03903543 -0.04728786 4.543131e-06)
(0.04782304 -0.04711882 3.489708e-07)
(0.002297649 -0.05471673 -2.364122e-06)
(0.01275103 -0.05633744 2.02091e-05)
(0.02176815 -0.05622502 -3.801691e-06)
(0.03051835 -0.05613929 1.010793e-06)
(0.03921811 -0.05595123 2.368473e-06)
(0.04802833 -0.05575979 -3.855019e-07)
(0.002705342 -0.06372664 -3.575171e-06)
(0.01288564 -0.06520259 2.289065e-05)
(0.02185963 -0.06507666 -3.417884e-06)
(0.03066324 -0.06497555 2.591876e-06)
(0.03942011 -0.06476724 3.777766e-06)
(0.04826826 -0.06454486 1.293497e-06)
(0.003024252 -0.07275583 -2.828562e-06)
(0.01296844 -0.0740815 2.416641e-05)
(0.0219915 -0.07393292 -4.843005e-06)
(0.03083272 -0.07380729 2.665167e-06)
(0.03965208 -0.07358212 3.160553e-06)
(0.04854198 -0.07332513 1.922686e-06)
(0.003207404 -0.0818064 -3.847994e-06)
(0.01301939 -0.08301586 2.621218e-05)
(0.02212986 -0.08286919 -6.256404e-06)
(0.03101777 -0.08271191 3.314084e-06)
(0.03990437 -0.08247725 3.264868e-06)
(0.048849 -0.08218428 1.835306e-06)
(0.003313152 -0.09082347 -2.708883e-06)