/*--------------------------------*- C++ -*----------------------------------*\
  =========                 |
  \\      /  F ield         | OpenFOAM: The Open Source CFD Toolbox
   \\    /   O peration     | Website:  https://openfoam.org
    \\  /    A nd           | Version:  7
     \\/     M anipulation  |
\*---------------------------------------------------------------------------*/
FoamFile
{
    version     2.0;
    format      ascii;
    class       volScalarField;
    location    "0.02";
    object      epsilon;
}
// * * * * * * * * * * * * * * * * * * * * * * * * * * * * * * * * * * * * * //

dimensions      [0 2 -3 0 0 0 0];

internalField   nonuniform List<scalar> 
78470
(
0.004686725
0.004655099
0.004655105
0.004656816
0.004657621
0.00465834
0.004659046
0.004659773
0.004660483
0.0009462349
0.0009708976
0.0009790063
0.0009809888
0.0009815842
0.0009817601
0.0009817559
0.0009816522
0.0009815778
0.0009649933
0.001007303
0.001020975
0.001024668
0.00102578
0.001026106
0.001026118
0.001025995
0.001025861
0.0009712797
0.001019156
0.001036091
0.001040877
0.001042384
0.001042832
0.00104285
0.001042691
0.001042531
0.0009727737
0.001022321
0.001040353
0.001045715
0.001047467
0.001048005
0.001048027
0.00104783
0.001047624
0.0009731845
0.001023265
0.001041697
0.001047303
0.001049187
0.001049773
0.001049792
0.001049565
0.001049319
0.0009733306
0.001023599
0.001042179
0.001047897
0.001049839
0.001050442
0.001050451
0.0010502
0.001049924
0.000973381
0.001023711
0.001042344
0.001048088
0.001050031
0.001050611
0.001050587
0.001050303
0.00105
0.0009733896
0.001023723
0.001042346
0.001048051
0.001049921
0.001050398
0.001050267
0.001049899
0.001049544
0.00097337
0.001023667
0.001042225
0.001047794
0.001049437
0.001049576
0.001049089
0.001048462
0.001047968
0.0009733261
0.001023544
0.001041948
0.001047165
0.001048061
0.001047047
0.001045317
0.001043775
0.001042813
0.0009732607
0.001023348
0.001041488
0.001045934
0.001044023
0.001038496
0.001032745
0.001027747
0.00102507
0.0009731659
0.00102308
0.001040826
0.001044079
0.001037653
0.001011061
0.001000388
0.0009786676
0.0009749596
0.0009730666
0.001022779
0.001040075
0.001042034
0.001031588
0.001000537
0.002165436
0.002067264
0.002078344
0.00097296
0.001022501
0.001039416
0.001040344
0.00102655
0.0009796085
0.002067433
0.009347791
0.00097286
0.00102227
0.001038919
0.001039277
0.001023745
0.000976688
0.002053577
0.009097971
0.000972793
0.001022123
0.001038603
0.00103857
0.001022406
0.0009749461
0.002048639
0.008939164
0.0009727427
0.001022049
0.001038458
0.001038182
0.001021507
0.0009727642
0.002045348
0.008862662
0.0009727458
0.001022105
0.001038552
0.001038317
0.001021698
0.0009730782
0.002046821
0.008961448
0.0009728055
0.001022257
0.001038863
0.001038917
0.001022874
0.0009754826
0.002051676
0.009071634
0.0009729036
0.001022482
0.00103929
0.001039766
0.001024339
0.0009768016
0.002057924
0.009216119
0.0009729943
0.001022698
0.001039778
0.001040892
0.001027344
0.0009806328
0.002064068
0.009447436
0.002137484
0.004455011
0.00417842
0.002073749
0.0009786876
0.0009931639
0.000998504
0.0009996673
0.0009999541
0.00100003
0.001000055
0.001000062
0.01208341
0.01203546
0.01202974
0.01203383
0.01203518
0.01203522
0.01203524
0.01203526
0.01203528
0.0120353
0.01210025
0.01202056
0.01202718
0.01203399
0.01203548
0.01203589
0.01203617
0.01203622
0.01203624
0.01203627
0.01212927
0.01201596
0.01202773
0.01203226
0.01203533
0.01203566
0.01203605
0.01203617
0.01203624
0.01203625
0.01214286
0.01201219
0.0120272
0.01203122
0.01203526
0.01203552
0.01203604
0.01203617
0.01203623
0.01203623
0.01214708
0.01201033
0.01202787
0.01203109
0.01203521
0.01203548
0.01203604
0.01203617
0.01203624
0.01203623
0.0121498
0.01200955
0.01202805
0.01203088
0.01203527
0.0120355
0.01203609
0.01203621
0.01203628
0.01203627
0.01214893
0.01200902
0.01202816
0.01203091
0.01203531
0.01203557
0.01203615
0.0120363
0.01203638
0.01203638
0.0121481
0.01200913
0.0120282
0.01203095
0.01203535
0.01203565
0.01203627
0.01203644
0.01203658
0.01203662
0.01214763
0.01200963
0.01202823
0.01203106
0.0120354
0.01203581
0.01203649
0.01203682
0.012037
0.01203706
0.012147
0.0120102
0.01202834
0.0120311
0.01203558
0.0120362
0.01203694
0.01203738
0.01203783
0.01203764
0.01214739
0.0120112
0.01202856
0.01203139
0.0120359
0.01203698
0.01203781
0.01203914
0.01203967
0.01203919
0.01214888
0.01201119
0.01202888
0.0120318
0.01203648
0.01203789
0.01204015
0.0120436
0.01204407
0.01203532
0.01214267
0.01201066
0.01202946
0.01203217
0.01203748
0.0120398
0.01204917
0.01205393
0.01212777
0.0119468
0.01214994
0.01201141
0.01202979
0.01203298
0.01203839
0.01204146
0.01205131
0.01211739
0.01476837
0.01212036
0.01201285
0.01202974
0.01203345
0.01203872
0.01204141
0.01204808
0.01206661
0.003290886
0.01209127
0.01201441
0.01202962
0.01203429
0.01203896
0.01204119
0.01204603
0.01205495
0.002962993
0.01206906
0.01201443
0.01203015
0.01203522
0.01203924
0.01204143
0.01204567
0.01205169
0.003264997
0.01206349
0.01201361
0.01203117
0.01203599
0.01203953
0.012042
0.0120474
0.01205253
0.003319032
0.01206451
0.01201151
0.01203125
0.0120364
0.01203987
0.01204313
0.01205023
0.01205682
0.003147347
0.01206538
0.01201163
0.01203113
0.012036
0.01204027
0.01204479
0.01205665
0.01208058
0.00334662
0.01206592
0.01201205
0.01203088
0.01203573
0.01204036
0.01204573
0.01206404
0.01208526
0.004170037
0.0120667
0.01207943
0.01528627
0.01192854
0.002092244
0.00099595
0.001023329
0.001032299
0.001034473
0.001035017
0.001035159
0.001035185
0.001035203
0.01207681
0.01204024
0.01203146
0.01202953
0.01203609
0.01203616
0.01203618
0.0120362
0.01203622
0.01203624
0.01205029
0.01204234
0.01203766
0.01203721
0.01203709
0.0120371
0.0120371
0.01203711
0.01203713
0.01203715
0.01205194
0.01204133
0.01203762
0.01203724
0.01203709
0.01203711
0.01203711
0.01203712
0.01203713
0.01203714
0.01204945
0.01203869
0.01203766
0.01203719
0.01203711
0.01203714
0.01203713
0.01203713
0.01203713
0.01203713
0.0120477
0.01203845
0.01203771
0.01203718
0.01203716
0.01203716
0.01203715
0.01203715
0.01203714
0.01203713
0.01204757
0.01203851
0.01203769
0.01203721
0.01203719
0.01203719
0.01203719
0.0120372
0.01203718
0.01203717
0.01204779
0.0120389
0.01203761
0.01203724
0.01203722
0.01203725
0.01203726
0.01203728
0.01203728
0.01203728
0.01204781
0.0120387
0.01203754
0.01203726
0.01203725
0.01203734
0.01203736
0.01203744
0.01203749
0.01203753
0.01204791
0.01203867
0.01203762
0.01203727
0.0120373
0.01203746
0.01203755
0.01203777
0.01203791
0.01203796
0.01204795
0.0120386
0.01203778
0.0120373
0.01203739
0.01203766
0.01203794
0.01203843
0.01203872
0.01203871
0.01204794
0.01203911
0.0120379
0.0120374
0.01203754
0.01203799
0.01203881
0.01204003
0.01204071
0.01204006
0.01204887
0.01203859
0.0120382
0.01203759
0.01203784
0.01203894
0.01204106
0.0120444
0.01204717
0.01204094
0.01204735
0.01203906
0.01203815
0.01203769
0.01203857
0.01204083
0.01204939
0.01205253
0.0121226
0.01194005
0.01204748
0.01203995
0.01203818
0.01203776
0.0120396
0.01204224
0.01205141
0.01212201
0.01473732
0.0120514
0.01203916
0.01203777
0.01203783
0.01203995
0.01204224
0.01204888
0.01206459
0.002887013
0.0120494
0.01204159
0.01203744
0.01203795
0.01204013
0.01204174
0.01204744
0.01205303
0.002514975
0.01204931
0.01203983
0.01203765
0.01203793
0.01204039
0.01204198
0.01204591
0.0007301359
0.01204637
0.01203841
0.01203845
0.01203852
0.01204058
0.01204294
0.01204552
0.0007318452
0.01204577
0.01203785
0.01203802
0.0120386
0.01204105
0.01204442
0.01204953
0.01186661
0.004264737
0.01204607
0.0120379
0.01203845
0.01203868
0.01204151
0.01204497
0.01205779
0.01207234
0.003011836
0.01204628
0.01203821
0.01203871
0.01203899
0.01204136
0.01204654
0.01206448
0.01209263
0.004153311
0.01207659
0.01530447
0.01195866
0.002095487
0.001002495
0.001033614
0.001044769
0.001047518
0.001048216
0.001048397
0.001048421
0.001048423
0.01211706
0.01204161
0.01203093
0.01202838
0.01203608
0.01203616
0.01203618
0.0120362
0.01203622
0.01203625
0.01205362
0.01204069
0.01203776
0.01203726
0.01203709
0.01203709
0.0120371
0.01203711
0.01203713
0.01203715
0.01204724
0.01204043
0.01203764
0.0120371
0.01203709
0.0120371
0.01203711
0.01203712
0.01203713
0.01203714
0.01205026
0.01204007
0.01203722
0.01203713
0.0120371
0.01203712
0.01203712
0.01203713
0.01203713
0.01203713
0.01205463
0.01204249
0.01203718
0.01203726
0.01203712
0.01203715
0.01203715
0.01203715
0.01203714
0.01203713
0.01205269
0.01204403
0.0120372
0.01203763
0.01203714
0.0120372
0.01203719
0.0120372
0.01203718
0.01203717
0.01205482
0.01204254
0.0120372
0.01203768
0.01203716
0.01203727
0.01203725
0.01203728
0.01203728
0.01203728
0.01205426
0.01204207
0.01203722
0.01203769
0.0120372
0.01203737
0.01203736
0.01203744
0.01203749
0.01203753
0.01205461
0.01204247
0.01203726
0.01203773
0.01203725
0.01203749
0.01203756
0.01203777
0.01203791
0.01203796
0.01205402
0.01204332
0.01203731
0.01203778
0.01203733
0.0120377
0.01203794
0.0120384
0.0120387
0.01203874
0.01205377
0.012043
0.01203744
0.01203778
0.01203747
0.01203802
0.01203878
0.01204001
0.01204076
0.01204005
0.01204723
0.01204155
0.0120374
0.01203779
0.01203777
0.01203894
0.01204103
0.01204451
0.01204702
0.01204108
0.01205368
0.01204248
0.01203763
0.0120378
0.01203852
0.01204075
0.01204941
0.01205185
0.01212228
0.01193394
0.01205643
0.01204265
0.01203743
0.01203776
0.0120395
0.01204216
0.01205148
0.01212216
0.01471922
0.01204761
0.01204059
0.0120373
0.0120377
0.01204
0.01204235
0.01204919
0.01206448
0.002860028
0.01205417
0.01204067
0.01203777
0.01203792
0.01204042
0.01204195
0.01204784
0.01205332
0.002535328
0.01204967
0.01203968
0.01203762
0.01203786
0.01204056
0.01204208
0.01204625
0.0007861599
0.01204911
0.01203852
0.012038
0.0120384
0.01204059
0.01204308
0.01204548
0.0007884823
0.01204677
0.01203842
0.01203806
0.01203862
0.012041
0.01204458
0.01204951
0.01186246
0.00434017
0.01204619
0.0120386
0.01203847
0.01203873
0.0120416
0.01204495
0.01205868
0.01206875
0.003020029
0.01204643
0.01203881
0.01203833
0.01203899
0.01204136
0.01204653
0.01206462
0.0120914
0.004154024
0.01207642
0.01531533
0.01195832
0.002096497
0.001003834
0.001035809
0.001047454
0.001050399
0.001051156
0.001051353
0.001051375
0.001051371
0.01213166
0.01204128
0.01203077
0.01202762
0.01203606
0.01203616
0.01203618
0.0120362
0.01203622
0.01203625
0.01204888
0.01203888
0.01203787
0.01203712
0.01203708
0.01203709
0.0120371
0.01203711
0.01203713
0.01203715
0.01205737
0.01204073
0.01203721
0.01203713
0.01203708
0.0120371
0.01203711
0.01203712
0.01203713
0.01203714
0.01204728
0.0120398
0.01203716
0.01203723
0.0120371
0.01203713
0.01203713
0.01203713
0.01203713
0.01203713
0.0120537
0.01204067
0.01203726
0.01203727
0.01203713
0.01203716
0.01203715
0.01203715
0.01203714
0.01203713
0.01205475
0.01204007
0.01203751
0.01203726
0.01203717
0.0120372
0.01203719
0.0120372
0.01203718
0.01203717
0.01204722
0.01203911
0.01203788
0.01203718
0.01203722
0.01203723
0.01203725
0.01203728
0.01203728
0.01203728
0.01204837
0.0120383
0.01203786
0.01203721
0.01203724
0.01203729
0.01203734
0.01203744
0.01203749
0.01203753
0.01204722
0.01203943
0.01203796
0.01203723
0.01203727
0.01203741
0.01203751
0.01203776
0.01203791
0.01203796
0.01205298
0.01204003
0.012038
0.01203729
0.01203737
0.01203766
0.01203788
0.01203839
0.0120387
0.01203874
0.01205189
0.01204029
0.01203771
0.01203758
0.0120375
0.01203802
0.01203873
0.01203999
0.01204072
0.01204
0.01205063
0.01203991
0.012038
0.01203765
0.01203781
0.01203893
0.01204099
0.01204448
0.01204695
0.01204108
0.01206092
0.01204049
0.01203782
0.01203771
0.01203862
0.01204079
0.01204939
0.01205186
0.01212213
0.0119331
0.01205417
0.01204053
0.0120379
0.01203777
0.01203977
0.01204231
0.01205165
0.01212208
0.01470785
0.01205599
0.01203902
0.01203742
0.01203774
0.01204007
0.01204225
0.01204906
0.01206475
0.002860941
0.01204915
0.01203909
0.01203751
0.01203776
0.01204021
0.01204177
0.01204771
0.01205334
0.002547002
0.01204876
0.01203819
0.01203793
0.01203761
0.01204054
0.01204206
0.01204618
0.0008026055
0.0120474
0.012038
0.01203785
0.01203828
0.01204048
0.012043
0.01204539
0.0008050525
0.01204634
0.01203812
0.01203841
0.01203872
0.01204097
0.01204459
0.01204939
0.01186253
0.004391881
0.01204607
0.01203775
0.01203887
0.01203879
0.0120417
0.01204499
0.01205863
0.01206901
0.003025603
0.01204645
0.01203809
0.01203823
0.0120389
0.01204139
0.01204652
0.01206463
0.01209216
0.004155016
0.01207596
0.01531869
0.01195599
0.002096485
0.001002951
0.001034271
0.001045554
0.001048364
0.001049086
0.001049273
0.001049287
0.001049281
0.01214795
0.01204092
0.0120309
0.01202756
0.01203605
0.01203616
0.01203618
0.0120362
0.01203622
0.01203625
0.01204734
0.01203868
0.01203791
0.01203706
0.0120371
0.01203708
0.0120371
0.01203711
0.01203713
0.01203715
0.01204731
0.01203988
0.01203711
0.01203717
0.01203708
0.0120371
0.01203711
0.01203712
0.01203713
0.01203714
0.01205169
0.01204175
0.01203717
0.01203742
0.01203711
0.01203714
0.01203713
0.01203713
0.01203713
0.01203713
0.01205473
0.01203923
0.01203787
0.01203724
0.01203716
0.01203716
0.01203715
0.01203715
0.01203714
0.01203713
0.01204788
0.01203973
0.01203787
0.01203718
0.0120372
0.01203719
0.01203719
0.0120372
0.01203718
0.01203717
0.01205258
0.01203992
0.01203778
0.0120372
0.01203721
0.01203722
0.01203725
0.01203728
0.01203728
0.01203728
0.01204603
0.01203831
0.01203781
0.01203722
0.01203723
0.0120373
0.01203734
0.01203744
0.01203749
0.01203753
0.01205255
0.01203949
0.01203791
0.01203723
0.01203727
0.01203742
0.01203752
0.01203776
0.01203791
0.01203796
0.01204816
0.01204027
0.01203801
0.01203729
0.01203736
0.01203765
0.01203789
0.01203839
0.01203869
0.01203874
0.01204774
0.0120398
0.01203831
0.0120374
0.01203754
0.01203799
0.01203871
0.01203998
0.01204071
0.01204002
0.01204844
0.01203973
0.01203812
0.01203758
0.0120378
0.01203892
0.01204098
0.01204448
0.01204696
0.01204109
0.01204785
0.01204004
0.01203861
0.01203768
0.01203869
0.01204078
0.0120494
0.01205186
0.01212225
0.01193299
0.0120645
0.01204219
0.01203906
0.01203786
0.01203994
0.0120423
0.01205169
0.01212168
0.01470145
0.01205126
0.01203815
0.01203749
0.0120378
0.0120401
0.01204221
0.01204915
0.01206456
0.002861177
0.01204723
0.01203873
0.01203737
0.01203773
0.01204017
0.0120418
0.01204769
0.01205325
0.00254845
0.01204881
0.01203819
0.01203792
0.01203768
0.01204047
0.01204202
0.01204619
0.0008026161
0.01204682
0.01203818
0.01203813
0.01203829
0.01204056
0.012043
0.01204541
0.0008049705
0.01204601
0.01203812
0.0120381
0.01203863
0.01204093
0.01204456
0.01204936
0.01186275
0.004394973
0.01204597
0.01203776
0.01203902
0.01203882
0.01204171
0.01204501
0.01205863
0.01206883
0.003025769
0.01204638
0.01203809
0.01203824
0.01203891
0.0120414
0.01204652
0.01206464
0.01209224
0.004155128
0.01207578
0.0153209
0.01195414
0.002095286
0.0009973018
0.001025261
0.001034499
0.001036767
0.001037347
0.001037497
0.001037488
0.001037474
0.01212922
0.01204192
0.0120326
0.01202886
0.01203607
0.01203615
0.01203617
0.01203619
0.01203621
0.01203624
0.01205099
0.01203981
0.01203794
0.01203709
0.01203712
0.01203709
0.0120371
0.01203711
0.01203713
0.01203715
0.01205934
0.01204645
0.01203729
0.01203755
0.01203708
0.01203712
0.01203711
0.01203712
0.01203713
0.01203714
0.01204651
0.012039
0.01203775
0.01203713
0.01203714
0.01203712
0.01203713
0.01203713
0.01203713
0.01203713
0.01205336
0.01204435
0.01203719
0.0120374
0.01203712
0.01203715
0.01203715
0.01203715
0.01203714
0.01203713
0.01205792
0.0120456
0.01203725
0.01203755
0.01203714
0.0120372
0.01203719
0.0120372
0.01203718
0.01203717
0.0120543
0.01204345
0.0120372
0.01203764
0.01203717
0.01203727
0.01203725
0.01203728
0.01203728
0.01203728
0.01205532
0.01204235
0.01203722
0.01203763
0.0120372
0.01203735
0.01203736
0.01203744
0.01203749
0.01203753
0.01205513
0.01204236
0.01203723
0.01203766
0.01203725
0.01203749
0.01203755
0.01203777
0.01203791
0.01203796
0.01205536
0.0120445
0.01203738
0.01203763
0.01203733
0.01203769
0.01203792
0.01203839
0.01203869
0.01203874
0.01205207
0.01204353
0.01203757
0.01203769
0.01203748
0.01203802
0.01203877
0.01204
0.01204073
0.01204004
0.01204671
0.01203959
0.01203732
0.01203773
0.01203775
0.01203893
0.01204102
0.01204451
0.01204701
0.0120411
0.01205885
0.01204167
0.01203749
0.01203776
0.01203851
0.01204071
0.01204938
0.01205195
0.01212219
0.01193324
0.01206413
0.01204444
0.01203739
0.01203758
0.0120395
0.01204213
0.01205153
0.01212172
0.01469983
0.01204885
0.01203957
0.01203973
0.01203773
0.01204064
0.01204247
0.01204936
0.01206458
0.002860822
0.01205412
0.01203811
0.01203762
0.01203796
0.01204031
0.0120418
0.01204779
0.01205328
0.002544734
0.01204811
0.01203859
0.01203761
0.01203782
0.01204035
0.01204207
0.01204622
0.0007862662
0.01204733
0.01203812
0.012039
0.0120384
0.01204066
0.0120431
0.0120455
0.0007881986
0.01204654
0.01203884
0.01203793
0.01203859
0.01204097
0.01204455
0.01204946
0.01186279
0.00438206
0.01204636
0.01203858
0.0120385
0.01203877
0.01204164
0.01204495
0.01205858
0.01206694
0.003018247
0.01204632
0.01203885
0.01203836
0.01203898
0.01204137
0.01204647
0.01206463
0.01209164
0.004153576
0.01207588
0.01531736
0.01195599
0.002085964
0.0009817077
0.0009974543
0.001003308
0.001004434
0.001004715
0.001004894
0.001004751
0.001004775
0.01212387
0.01204119
0.01203573
0.012031
0.01203608
0.01203614
0.01203615
0.01203617
0.01203619
0.01203622
0.01205321
0.0120404
0.01203795
0.01203726
0.01203709
0.0120371
0.0120371
0.01203711
0.01203713
0.01203715
0.01204591
0.0120389
0.01203793
0.01203711
0.0120371
0.01203711
0.01203711
0.01203712
0.01203713
0.01203714
0.01205774
0.01204375
0.01203724
0.01203756
0.0120371
0.01203715
0.01203713
0.01203713
0.01203713
0.01203713
0.01204761
0.01204044
0.01203718
0.01203741
0.01203713
0.01203719
0.01203716
0.01203715
0.01203714
0.01203713
0.01205266
0.01203895
0.01203803
0.01203727
0.01203719
0.0120372
0.01203719
0.0120372
0.01203718
0.01203717
0.01204851
0.01203934
0.01203773
0.01203727
0.01203721
0.01203725
0.01203726
0.01203728
0.01203728
0.01203728
0.0120481
0.01203869
0.01203761
0.01203728
0.01203725
0.01203734
0.01203736
0.01203744
0.01203749
0.01203753
0.01204907
0.01203952
0.01203768
0.01203732
0.0120373
0.01203746
0.01203755
0.01203777
0.01203791
0.01203795
0.01205451
0.01203882
0.01203819
0.01203734
0.01203741
0.01203767
0.01203793
0.01203842
0.01203871
0.01203871
0.01204634
0.01204115
0.01203724
0.01203759
0.01203754
0.01203803
0.01203882
0.01204003
0.0120407
0.01204005
0.01205186
0.01204147
0.0120373
0.01203745
0.01203774
0.01203893
0.01204103
0.01204442
0.01204716
0.01204093
0.01205257
0.01203942
0.01203765
0.01203771
0.01203849
0.0120408
0.01204937
0.01205271
0.01212222
0.01193844
0.01205062
0.01203978
0.01203925
0.01203784
0.01203973
0.0120422
0.01205144
0.0121216
0.01470774
0.01206104
0.01204386
0.01203746
0.01203762
0.01203985
0.01204207
0.01204891
0.01206455
0.002863896
0.01204731
0.01203841
0.01203851
0.01203759
0.01204062
0.01204191
0.01204749
0.01205306
0.002525731
0.01205461
0.01203832
0.01203766
0.012038
0.01204035
0.01204186
0.01204593
0.0007307128
0.01204967
0.01203887
0.01203827
0.01203829
0.01204055
0.01204288
0.01204552
0.0007314991
0.01205247
0.01203848
0.01203809
0.01203858
0.01204095
0.01204442
0.01204939
0.01186732
0.004253953
0.01204611
0.0120384
0.0120392
0.01203885
0.01204157
0.012045
0.01205726
0.01206097
0.002923609
0.01204593
0.01203833
0.01203868
0.01203899
0.0120414
0.01204636
0.01206471
0.0120948
0.004032624
0.01207333
0.01529521
0.01195294
0.00206502
0.002118477
0.002185674
0.002200208
0.002196563
0.002197936
0.002200175
0.002196806
0.002199129
0.01214617
0.01202942
0.01202998
0.01203601
0.01203595
0.012036
0.01203605
0.01203626
0.01203627
0.01203563
0.01206457
0.01201565
0.01202886
0.01203349
0.01203553
0.01203582
0.0120362
0.01203622
0.01203624
0.01203627
0.01205658
0.01198082
0.01203043
0.01203097
0.01203549
0.01203564
0.01203604
0.01203623
0.01203624
0.01203623
0.0120561
0.01197693
0.01203084
0.01203005
0.01203538
0.01203552
0.01203611
0.01203621
0.01203623
0.01203623
0.01205428
0.01197502
0.01203119
0.01202954
0.01203525
0.01203543
0.01203608
0.0120362
0.01203624
0.01203623
0.01205762
0.01200411
0.01203092
0.0120311
0.01203533
0.01203547
0.01203609
0.01203622
0.01203628
0.01203627
0.01205694
0.01200649
0.01202781
0.01203034
0.01203504
0.01203544
0.01203614
0.01203629
0.01203638
0.01203638
0.0120564
0.01200733
0.01202785
0.01203061
0.01203512
0.01203556
0.01203622
0.01203642
0.01203658
0.01203662
0.01205717
0.01200494
0.0120281
0.01203066
0.01203542
0.01203575
0.01203648
0.01203682
0.012037
0.01203705
0.01207441
0.01200293
0.01203058
0.01203122
0.01203576
0.0120362
0.01203694
0.01203737
0.01203782
0.01203761
0.01205762
0.01197639
0.01203163
0.01202999
0.01203614
0.01203703
0.0120378
0.01203914
0.01203966
0.01203919
0.01205419
0.01197737
0.01203145
0.01203043
0.01203649
0.01203792
0.01204011
0.01204361
0.01204452
0.01203545
0.01206636
0.01199952
0.01203089
0.01203161
0.01203745
0.01203981
0.01204914
0.01205417
0.01212459
0.01195326
0.01206194
0.01200152
0.01203208
0.01203257
0.01203858
0.01204145
0.01205136
0.01212014
0.01473495
0.01205473
0.01197465
0.0120337
0.01203159
0.01203911
0.01204136
0.0120481
0.01206679
0.002948068
0.01205707
0.01197338
0.01203319
0.01203295
0.01203908
0.01204089
0.01204606
0.01205541
0.002521594
0.0120485
0.01197989
0.01203469
0.01203265
0.01203954
0.01204127
0.01204567
0.01205158
0.004601669
0.01205799
0.01198396
0.01203474
0.01203363
0.0120398
0.01204173
0.01204742
0.01205281
0.00464473
0.01205739
0.012006
0.01203399
0.01203555
0.01204008
0.01204306
0.01205025
0.01204404
0.003364553
0.01208801
0.0120093
0.012032
0.01203563
0.01204035
0.01204478
0.01205583
0.01208238
0.00248644
0.0120592
0.01201136
0.01203147
0.01203574
0.01204047
0.01204555
0.01206448
0.0120716
0.003469165
0.01205924
0.01207488
0.01523399
0.01193179
0.004450645
0.004740206
0.002125488
0.004830279
0.004717182
0.004763061
0.004746313
0.004717007
0.004778939
0.01213865
0.0009452386
0.0009657066
0.0009723029
0.0009738893
0.0009748441
0.0009751883
0.0009750102
0.0009748756
0.0009754083
0.01236402
0.0009664866
0.001006569
0.001019299
0.001022637
0.001023732
0.001024047
0.001024022
0.001023924
0.001023903
0.01206718
0.0009763304
0.001020082
0.001035917
0.001040294
0.001041707
0.001042114
0.00104212
0.001041968
0.001041831
0.01206302
0.0009797597
0.001024006
0.001040741
0.00104562
0.00104725
0.00104773
0.001047734
0.001047537
0.001047335
0.01206436
0.0009802336
0.001025024
0.001042229
0.001047379
0.001049141
0.001049669
0.001049667
0.001049434
0.001049186
0.01210393
0.000977556
0.001024994
0.001042667
0.001048038
0.001049873
0.001050417
0.001050402
0.001050142
0.001049859
0.01208896
0.0009763252
0.001024649
0.001042722
0.001048229
0.001050082
0.001050617
0.001050572
0.001050277
0.001049964
0.0121026
0.0009761059
0.001024472
0.001042681
0.001048196
0.001049985
0.001050418
0.001050265
0.001049885
0.001049516
0.01209156
0.0009759374
0.001024533
0.001042574
0.001047949
0.001049506
0.001049602
0.001049093
0.001048446
0.001047929
0.01211662
0.0009774149
0.001024924
0.001042446
0.001047359
0.001048153
0.001047078
0.00104531
0.001043707
0.001042676
0.01206766
0.0009800232
0.001025063
0.001042078
0.001046134
0.001044116
0.001038522
0.001032695
0.001027479
0.001024522
0.01206585
0.0009793582
0.001024751
0.001041426
0.001044288
0.001037765
0.001011103
0.001000301
0.0009777301
0.0009724875
0.01209733
0.0009770695
0.001024162
0.001040621
0.001042261
0.00103177
0.001000698
0.01142775
0.01212
0.0119649
0.01208313
0.0009762373
0.001023753
0.001039937
0.001040612
0.001026986
0.0009807919
0.01165295
0.01479531
0.01207871
0.0009782898
0.001023821
0.001039558
0.001039646
0.001024681
0.0009804596
0.01177742
0.00369044
0.01207444
0.0009796103
0.001024017
0.001039323
0.001039027
0.001023645
0.0009805831
0.01183153
0.003430558
0.0120633
0.0009804892
0.001024164
0.001039207
0.0010386
0.001022458
0.0009763962
0.01185793
0.003466036
0.01207039
0.0009800469
0.001024104
0.001039235
0.00103865
0.001022212
0.0009744649
0.01186089
0.003465699
0.01211051
0.0009773839
0.001023825
0.001039378
0.001039188
0.001023247
0.0009762838
0.01183943
0.003448598
0.01208555
0.0009759838
0.001023447
0.001039617
0.001039943
0.001024718
0.0009783059
0.01178473
0.003437002
0.0121307
0.0009747402
0.001023197
0.00103984
0.001040824
0.001027433
0.0009815361
0.01165295
0.004008545
0.01213155
0.01131726
0.01527105
0.012064
0.005029018
0.001961267
0.004769632
0.01218726
0.01201993
0.00465332
0.002006325
0.002078247
0.002077974
0.002132015
0.01199057
0.01200773
0.004652092
0.002097946
0.002108961
0.002101709
0.002152601
0.01199132
0.01195755
0.004653272
0.002111846
0.002113286
0.002164966
0.00217211
0.01199673
0.01196156
0.004653997
0.002113929
0.002114093
0.00217371
0.002174349
0.01199018
0.01196855
0.004654656
0.002114376
0.002114353
0.002174747
0.002174699
0.01198838
0.01196744
0.004655315
0.002114568
0.002114476
0.002174982
0.002174854
0.01198762
0.01196738
0.004655993
0.002114644
0.002114484
0.002175118
0.002174974
0.01198753
0.01196663
0.004656653
0.002114542
0.002114235
0.002175242
0.002175126
0.01198757
0.01196575
0.002114201
0.002175436
0.01198774
0.001946776
0.001997967
0.01212428
0.01195118
0.01212271
0.01197661
0.002010043
0.002016518
0.01212618
0.01196767
0.01214041
0.01196655
0.002017876
0.002018797
0.01212638
0.01197825
0.01214851
0.01196514
0.002018944
0.002019227
0.01212607
0.01197726
0.0121557
0.01196813
0.002019213
0.002019424
0.0121247
0.0119761
0.0121639
0.01196909
0.002019379
0.002019505
0.01212291
0.0119744
0.01217217
0.01196585
0.002019426
0.002019537
0.01212042
0.01197362
0.01217806
0.011965
0.0020194
0.002019494
0.01211753
0.01197187
0.01217958
0.01196336
0.002019359
0.002019436
0.01211551
0.0119705
0.01217587
0.01196247
0.002019344
0.002019358
0.01211496
0.01197
0.0121774
0.01196257
0.002019273
0.002019196
0.01211551
0.01197151
0.01217275
0.01196643
0.002019081
0.002018979
0.01211917
0.01197719
0.01215534
0.01197496
0.002019098
0.002019045
0.01212786
0.01198231
0.01213403
0.01198852
0.002059263
0.004180681
0.004159513
0.01211899
0.0120607
0.01241913
0.004330276
0.002018976
0.002018839
0.0121458
0.01198339
0.01212599
0.01197863
0.009111857
0.01477893
0.003952355
0.002018698
0.002018945
0.01214415
0.01197318
0.01210224
0.01196918
0.008942758
0.003669506
0.00339394
0.002019063
0.002018449
0.01212304
0.01196001
0.01212198
0.01196534
0.008865409
0.003387663
0.003416475
0.002018852
0.002018533
0.01213502
0.01196148
0.01214188
0.01196698
0.008959408
0.003426342
0.003451313
0.002019089
0.002018671
0.01211494
0.01196746
0.01214251
0.01197291
0.009063811
0.003453515
0.00345051
0.002019407
0.002018845
0.01212398
0.01197187
0.01216712
0.01197666
0.009194647
0.003445799
0.003446496
0.002019733
0.00201905
0.01213264
0.01197248
0.01218284
0.01197824
0.009397245
0.003500394
0.004093204
0.002020035
0.002019228
0.01213817
0.0119713
0.01218801
0.01197848
0.009816531
0.009076021
0.004174895
0.02549575
0.006186713
0.009201273
0.005246413
0.002020211
0.01214156
0.01197067
0.004767523
0.01214815
0.01206782
0.004781856
0.01210102
0.01209623
0.01207326
0.01243239
0.004352358
0.01212474
0.01207625
0.01242196
0.004376446
0.00367408
0.01474084
0.003415122
0.02510193
0.006216293
0.004155418
0.02520213
0.006269293
0.004784382
0.01213455
0.01209284
0.004786443
0.01210098
0.01210476
0.01207123
0.01241157
0.004374944
0.01212229
0.01207259
0.01240224
0.004380333
0.003407715
0.01471473
0.003405754
0.02505597
0.006271849
0.004154409
0.02514052
0.006275941
0.004785785
0.01214084
0.01210777
0.004789094
0.01210859
0.01210693
0.0120722
0.01240792
0.004380807
0.01212214
0.01207246
0.01239832
0.004382529
0.00340554
0.0147076
0.003406724
0.02508273
0.006276588
0.004155141
0.02512586
0.006277287
0.004788524
0.01215039
0.01211058
0.004790539
0.01212984
0.0121104
0.01207239
0.01240327
0.0043826
0.01212217
0.01207247
0.01239816
0.004382859
0.00340664
0.01470136
0.003406971
0.02511075
0.006277695
0.00415521
0.02512894
0.006277813
0.004790241
0.01215836
0.01211053
0.004789725
0.01211777
0.01211396
0.01207243
0.01240346
0.004382867
0.01212217
0.01207234
0.01239997
0.004382612
0.003407025
0.01469921
0.003406756
0.02512903
0.006277835
0.004154108
0.02511073
0.006277618
0.004788877
0.01211474
0.01211016
0.004786453
0.01214426
0.01210934
0.01207234
0.01240424
0.00438256
0.01212225
0.01207214
0.01240474
0.004380712
0.003406768
0.01471114
0.003405695
0.02512071
0.006277219
0.004116189
0.02504387
0.00627641
0.004785854
0.01210436
0.01210933
0.004777836
0.01213302
0.01210067
0.003405927
0.01472897
0.003408376
0.02500999
0.006275689
0.003509683
0.0244477
0.006270762
0.004774934
0.01210116
0.01210399
0.004617142
0.01214946
0.01207095
0.003416149
0.01476153
0.003678033
0.02447618
0.006267296
0.003713919
0.02453592
0.006247769
0.004776455
0.01219128
0.01202486
0.00193722
0.004622001
0.01201283
0.01199625
0.001969091
0.002025841
0.004739535
0.01202179
0.01196559
0.002022558
0.002044593
0.004806759
0.01199051
0.01197722
0.005101377
0.002060427
0.002045838
0.004787267
0.01202134
0.01196649
0.002027512
0.002033555
0.004706088
0.01201029
0.01197367
0.002055093
0.002059582
0.002122276
0.01201869
0.01197949
0.005098483
0.002059239
0.002064359
0.00478303
0.01202552
0.01196612
0.002049217
0.002037929
0.01202413
0.002045706
0.01194937
0.01223275
0.01198117
0.001942819
0.002000639
0.01195594
0.01210348
0.01193607
0.002027185
0.002045968
0.01203334
0.01206964
0.01200009
0.002071814
0.0043477
0.002091999
0.01202558
0.01206185
0.01201882
0.004374555
0.00210769
0.004415037
0.002111335
0.01203471
0.01206327
0.01203558
0.004394693
0.002111393
0.004428951
0.002108601
0.01198958
0.01210157
0.01199076
0.004408901
0.002100795
0.004366019
0.002081111
0.01197475
0.01211987
0.0119772
0.002050877
0.002034906
0.0119826
0.01217097
0.01196584
0.00204822
0.002039788
0.01196142
0.01218412
0.01196147
0.002027866
0.002049782
0.01196946
0.01210671
0.01199136
0.00437064
0.002080686
0.004412407
0.002100226
0.01203465
0.01206504
0.01201924
0.004401474
0.002108049
0.004420169
0.002109544
0.01202533
0.01207708
0.01203096
0.004402322
0.002106806
0.004349296
0.002091614
0.01196911
0.01210115
0.01195689
0.002068807
0.002050202
0.01206479