/*--------------------------------*- C++ -*----------------------------------*\
  =========                 |
  \\      /  F ield         | OpenFOAM: The Open Source CFD Toolbox
   \\    /   O peration     | Website:  https://openfoam.org
    \\  /    A nd           | Version:  7
     \\/     M anipulation  |
\*---------------------------------------------------------------------------*/
FoamFile
{
    version     2.0;
    format      ascii;
    class       volScalarField;
    location    "0.02";
    object      epsilon;
}
// * * * * * * * * * * * * * * * * * * * * * * * * * * * * * * * * * * * * * //

dimensions      [0 2 -3 0 0 0 0];

internalField   nonuniform List<scalar> 
105127
(
0.002044718
0.002169475
0.002188247
0.002189225
0.002188415
0.002003005
0.002125981
0.002138855
0.002139487
0.002138438
0.001992407
0.002103729
0.002115274
0.002116071
0.002115098
0.001990651
0.002101594
0.00211343
0.002114505
0.002113643
0.001989565
0.00210074
0.002112907
0.002114187
0.002113465
0.001988638
0.002099889
0.002112212
0.002113644
0.002113019
0.00198785
0.002099107
0.002111517
0.002113061
0.002112495
0.001987168
0.002098403
0.002110861
0.00211246
0.002111957
0.001986573
0.002097776
0.002110264
0.002111902
0.002111453
0.001986046
0.002097214
0.002109721
0.002111387
0.002110967
0.001985576
0.002096707
0.002109228
0.002110912
0.002110514
0.001985152
0.002096252
0.002108779
0.002110476
0.002110096
0.001984767
0.002095837
0.002108367
0.002110076
0.002109708
0.001984416
0.002095457
0.002107987
0.002109706
0.002109348
0.001984095
0.002095106
0.002107641
0.002109364
0.002109013
0.001983801
0.002094782
0.002107319
0.002109047
0.002108701
0.001983529
0.002094481
0.00210702
0.002108751
0.002108409
0.001983277
0.002094202
0.002106742
0.002108474
0.002108137
0.001983042
0.002093941
0.002106482
0.002108215
0.002107879
0.001982823
0.002093697
0.002106237
0.002107972
0.002107634
0.001982617
0.002093465
0.002106001
0.002107739
0.0021074
0.00198242
0.002093235
0.002105763
0.002107507
0.002107187
0.00198221
0.002092956
0.002105458
0.002107212
0.002106953
0.0120355
0.01203555
0.01203557
0.002106572
0.002106401
0.01218118
0.01205875
0.01205626
0.01205464
0.01205352
0.01205632
0.01204234
0.01204377
0.0120406
0.01203944
0.01203887
0.01204712
0.01204163
0.01203991
0.01203911
0.01203864
0.01203833
0.01204285
0.01203975
0.01203943
0.01203903
0.01203873
0.01203848
0.01204154
0.01203895
0.01203864
0.01203839
0.0120382
0.01203804
0.01204081
0.01203833
0.01203823
0.0120381
0.012038
0.01203789
0.01204031
0.01203795
0.01203789
0.01203782
0.01203776
0.01203769
0.01203993
0.01203767
0.01203765
0.01203761
0.01203758
0.01203753
0.01203962
0.01203746
0.01203745
0.01203744
0.01203742
0.0120374
0.01203937
0.0120373
0.0120373
0.01203729
0.01203729
0.01203727
0.01203915
0.01203717
0.01203717
0.01203717
0.01203717
0.01203717
0.01203896
0.01203705
0.01203706
0.01203707
0.01203707
0.01203707
0.0120388
0.01203696
0.01203697
0.01203698
0.01203698
0.01203699
0.01203865
0.01203688
0.01203689
0.0120369
0.01203691
0.01203691
0.01203852
0.01203681
0.01203681
0.01203682
0.01203684
0.01203684
0.01203839
0.01203674
0.01203675
0.01203676
0.01203677
0.01203678
0.01203828
0.01203668
0.01203669
0.0120367
0.01203671
0.01203672
0.01203818
0.01203663
0.01203664
0.01203665
0.01203666
0.01203667
0.01203809
0.01203658
0.01203659
0.0120366
0.01203661
0.01203662
0.012038
0.01203654
0.01203655
0.01203656
0.01203657
0.01203658
0.01203792
0.0120365
0.01203651
0.01203652
0.01203653
0.01203654
0.01203784
0.01203647
0.01203647
0.01203648
0.01203649
0.0120365
0.01203777
0.01203643
0.01203644
0.01203645
0.01203646
0.01203646
0.01203749
0.0120364
0.01203641
0.01203641
0.01203642
0.01203643
0.01219244
0.01205613
0.01205283
0.01205238
0.01205205
0.01205283
0.01204199
0.01204337
0.01204047
0.01203934
0.0120388
0.01204525
0.01204138
0.01203989
0.01203908
0.01203856
0.01203824
0.01204094
0.01203959
0.01203937
0.01203902
0.01203871
0.01203845
0.01204031
0.01203885
0.0120386
0.01203837
0.01203816
0.012038
0.01203981
0.01203826
0.0120382
0.01203808
0.01203797
0.01203785
0.01203948
0.0120379
0.01203787
0.0120378
0.01203773
0.01203765
0.01203922
0.01203763
0.01203762
0.01203759
0.01203755
0.0120375
0.012039
0.01203742
0.01203743
0.01203742
0.01203739
0.01203736
0.01203881
0.01203726
0.01203728
0.01203727
0.01203726
0.01203724
0.01203864
0.01203713
0.01203715
0.01203715
0.01203714
0.01203714
0.0120385
0.01203702
0.01203704
0.01203704
0.01203704
0.01203704
0.01203837
0.01203693
0.01203695
0.01203695
0.01203696
0.01203696
0.01203825
0.01203685
0.01203687
0.01203687
0.01203688
0.01203688
0.01203814
0.01203678
0.01203679
0.0120368
0.01203681
0.01203681
0.01203804
0.01203671
0.01203673
0.01203674
0.01203675
0.01203675
0.01203794
0.01203666
0.01203667
0.01203668
0.01203669
0.01203669
0.01203786
0.01203661
0.01203662
0.01203663
0.01203664
0.01203664
0.01203778
0.01203656
0.01203657
0.01203658
0.01203659
0.0120366
0.0120377
0.01203652
0.01203653
0.01203654
0.01203655
0.01203655
0.01203763
0.01203648
0.01203649
0.0120365
0.0120365
0.01203651
0.01203757
0.01203644
0.01203645
0.01203646
0.01203647
0.01203647
0.01203751
0.01203641
0.01203642
0.01203643
0.01203643
0.01203644
0.01203744
0.01203638
0.01203639
0.01203639
0.0120364
0.01203641
0.01219696
0.01205604
0.01205252
0.01205181
0.01205134
0.01205234
0.01204192
0.01204336
0.01204048
0.01203935
0.0120388
0.01204497
0.01204141
0.01203984
0.01203905
0.01203853
0.01203821
0.012041
0.01203961
0.01203934
0.01203897
0.01203867
0.01203842
0.01204029
0.01203884
0.01203859
0.01203836
0.01203816
0.01203799
0.0120398
0.01203826
0.01203818
0.01203808
0.01203796
0.01203785
0.01203947
0.01203789
0.01203786
0.0120378
0.01203773
0.01203765
0.0120392
0.01203762
0.01203762
0.01203759
0.01203755
0.0120375
0.01203898
0.01203741
0.01203742
0.01203741
0.01203739
0.01203736
0.01203879
0.01203725
0.01203727
0.01203727
0.01203726
0.01203724
0.01203863
0.01203712
0.01203714
0.01203715
0.01203714
0.01203714
0.01203848
0.01203701
0.01203703
0.01203704
0.01203704
0.01203704
0.01203835
0.01203692
0.01203694
0.01203695
0.01203696
0.01203696
0.01203823
0.01203684
0.01203686
0.01203687
0.01203688
0.01203688
0.01203812
0.01203677
0.01203679
0.0120368
0.01203681
0.01203681
0.01203802
0.01203671
0.01203673
0.01203674
0.01203675
0.01203675
0.01203793
0.01203665
0.01203667
0.01203668
0.01203669
0.0120367
0.01203784
0.0120366
0.01203662
0.01203663
0.01203664
0.01203664
0.01203777
0.01203655
0.01203657
0.01203658
0.01203659
0.0120366
0.01203769
0.01203651
0.01203653
0.01203654
0.01203655
0.01203655
0.01203762
0.01203647
0.01203649
0.0120365
0.01203651
0.01203651
0.01203756
0.01203644
0.01203645
0.01203646
0.01203647
0.01203647
0.0120375
0.0120364
0.01203642
0.01203643
0.01203643
0.01203644
0.01203744
0.01203637
0.01203639
0.01203639
0.0120364
0.01203641
0.01219108
0.01205554
0.01205245
0.01205179
0.0120513
0.01205233
0.01204191
0.01204333
0.01204046
0.01203933
0.01203879
0.01204493
0.01204138
0.01203984
0.01203905
0.01203853
0.01203821
0.012041
0.01203959
0.01203931
0.01203895
0.01203866
0.0120384
0.01204028
0.01203882
0.01203858
0.01203836
0.01203816
0.01203799
0.01203978
0.01203824
0.01203817
0.01203807
0.01203796
0.01203785
0.01203946
0.01203788
0.01203785
0.01203779
0.01203773
0.01203765
0.01203919
0.01203761
0.01203761
0.01203758
0.01203755
0.0120375
0.01203897
0.0120374
0.01203742
0.01203741
0.01203739
0.01203736
0.01203879
0.01203724
0.01203726
0.01203727
0.01203726
0.01203724
0.01203862
0.01203711
0.01203713
0.01203714
0.01203714
0.01203714
0.01203848
0.012037
0.01203703
0.01203704
0.01203704
0.01203704
0.01203834
0.01203691
0.01203693
0.01203695
0.01203696
0.01203696
0.01203823
0.01203683
0.01203685
0.01203687
0.01203688
0.01203688
0.01203812
0.01203676
0.01203678
0.0120368
0.01203681
0.01203681
0.01203802
0.0120367
0.01203672
0.01203673
0.01203675
0.01203675
0.01203793
0.01203664
0.01203666
0.01203668
0.01203669
0.0120367
0.01203784
0.01203659
0.01203661
0.01203663
0.01203664
0.01203664
0.01203776
0.01203655
0.01203656
0.01203658
0.01203659
0.0120366
0.01203769
0.01203651
0.01203652
0.01203653
0.01203654
0.01203655
0.01203762
0.01203647
0.01203648
0.01203649
0.0120365
0.01203651
0.01203756
0.01203643
0.01203645
0.01203646
0.01203647
0.01203647
0.0120375
0.0120364
0.01203641
0.01203642
0.01203643
0.01203644
0.01203743
0.01203637
0.01203638
0.01203639
0.0120364
0.01203641
0.01219118
0.0120558
0.01205264
0.01205197
0.01205148
0.01205231
0.01204191
0.01204335
0.01204047
0.01203934
0.01203879
0.01204489
0.01204137
0.01203985
0.01203906
0.01203854
0.01203821
0.012041
0.01203959
0.01203931
0.01203896
0.01203866
0.01203841
0.01204029
0.01203882
0.01203858
0.01203836
0.01203816
0.012038
0.01203978
0.01203824
0.01203817
0.01203807
0.01203796
0.01203785
0.01203945
0.01203788
0.01203785
0.01203779
0.01203773
0.01203765
0.01203919
0.01203761
0.01203761
0.01203758
0.01203755
0.0120375
0.01203897
0.0120374
0.01203742
0.01203741
0.01203739
0.01203736
0.01203879
0.01203724
0.01203726
0.01203727
0.01203726
0.01203724
0.01203862
0.01203711
0.01203713
0.01203714
0.01203714
0.01203714
0.01203848
0.012037
0.01203703
0.01203704
0.01203704
0.01203704
0.01203834
0.01203691
0.01203693
0.01203695
0.01203696
0.01203696
0.01203823
0.01203683
0.01203685
0.01203687
0.01203688
0.01203688
0.01203812
0.01203676
0.01203678
0.0120368
0.01203681
0.01203681
0.01203802
0.0120367
0.01203672
0.01203673
0.01203675
0.01203675
0.01203792
0.01203664
0.01203666
0.01203668
0.01203669
0.0120367
0.01203784
0.01203659
0.01203661
0.01203663
0.01203664
0.01203664
0.01203776
0.01203655
0.01203656
0.01203658
0.01203659
0.0120366
0.01203769
0.01203651
0.01203652
0.01203653
0.01203654
0.01203655
0.01203762
0.01203647
0.01203648
0.01203649
0.0120365
0.01203651
0.01203756
0.01203643
0.01203645
0.01203646
0.01203647
0.01203647
0.0120375
0.0120364
0.01203641
0.01203642
0.01203643
0.01203644
0.01203743
0.01203637
0.01203638
0.01203639
0.0120364
0.01203641
0.01219499
0.01205616
0.01205255
0.01205185
0.01205138
0.01205239
0.01204197
0.01204347
0.0120405
0.01203936
0.0120388
0.01204479
0.01204138
0.01203986
0.01203907
0.01203855
0.01203823
0.012041
0.0120396
0.01203934
0.01203897
0.01203868
0.01203842
0.01204029
0.01203884
0.01203859
0.01203836
0.01203816
0.012038
0.01203979
0.01203825
0.01203818
0.01203807
0.01203796
0.01203785
0.01203946
0.01203789
0.01203786
0.0120378
0.01203773
0.01203765
0.0120392
0.01203762
0.01203761
0.01203759
0.01203755
0.0120375
0.01203898
0.01203741
0.01203742
0.01203741
0.01203739
0.01203736
0.01203879
0.01203725
0.01203727
0.01203727
0.01203726
0.01203724
0.01203863
0.01203712
0.01203714
0.01203715
0.01203714
0.01203714
0.01203848
0.01203701
0.01203703
0.01203704
0.01203704
0.01203704
0.01203835
0.01203692
0.01203694
0.01203695
0.01203696
0.01203696
0.01203823
0.01203684
0.01203686
0.01203687
0.01203688
0.01203688
0.01203812
0.01203677
0.01203679
0.0120368
0.01203681
0.01203681
0.01203802
0.0120367
0.01203672
0.01203674
0.01203675
0.01203675
0.01203793
0.01203665
0.01203667
0.01203668
0.01203669
0.01203669
0.01203784
0.0120366
0.01203662
0.01203663
0.01203664
0.01203664
0.01203776
0.01203655
0.01203657
0.01203658
0.01203659
0.0120366
0.01203769
0.01203651
0.01203653
0.01203654
0.01203655
0.01203655
0.01203762
0.01203647
0.01203649
0.0120365
0.0120365
0.01203651
0.01203756
0.01203644
0.01203645
0.01203646
0.01203647
0.01203647
0.0120375
0.0120364
0.01203642
0.01203643
0.01203643
0.01203644
0.01203744
0.01203637
0.01203638
0.01203639
0.0120364
0.01203641
0.01219471
0.01205751
0.01205278
0.01205197
0.01205145
0.01205264
0.01204229
0.01204328
0.01204052
0.01203936
0.01203881
0.01204475
0.01204138
0.01203988
0.01203911
0.0120386
0.01203828
0.01204099
0.01203962
0.01203938
0.01203902
0.0120387
0.01203845
0.01204028
0.01203886
0.01203861
0.01203837
0.01203817
0.012038
0.01203978
0.01203826
0.01203819
0.01203808
0.01203797
0.01203785
0.01203945
0.01203789
0.01203786
0.0120378
0.01203773
0.01203766
0.01203919
0.01203762
0.01203762
0.01203759
0.01203755
0.0120375
0.01203897
0.01203742
0.01203743
0.01203741
0.01203739
0.01203736
0.01203879
0.01203726
0.01203727
0.01203727
0.01203726
0.01203724
0.01203862
0.01203713
0.01203714
0.01203715
0.01203714
0.01203714
0.01203848
0.01203702
0.01203704
0.01203704
0.01203704
0.01203704
0.01203835
0.01203692
0.01203694
0.01203695
0.01203696
0.01203696
0.01203823
0.01203684
0.01203686
0.01203687
0.01203688
0.01203688
0.01203812
0.01203677
0.01203679
0.0120368
0.01203681
0.01203681
0.01203802
0.01203671
0.01203673
0.01203674
0.01203674
0.01203675
0.01203793
0.01203665
0.01203667
0.01203668
0.01203669
0.01203669
0.01203784
0.0120366
0.01203662
0.01203663
0.01203664
0.01203664
0.01203776
0.01203656
0.01203657
0.01203658
0.01203659
0.0120366
0.01203769
0.01203652
0.01203653
0.01203654
0.01203654
0.01203655
0.01203762
0.01203648
0.01203649
0.0120365
0.0120365
0.01203651
0.01203756
0.01203644
0.01203645
0.01203646
0.01203647
0.01203647
0.0120375
0.01203641
0.01203642
0.01203642
0.01203643
0.01203644
0.01203744
0.01203638
0.01203639
0.01203639
0.0120364
0.01203641
0.01218694
0.01206196
0.01205831
0.01205652
0.01205526
0.01205388
0.0120435
0.01204331
0.01204076
0.01203958
0.01203899
0.0120442
0.01204148
0.01203997
0.01203917
0.0120387
0.01203837
0.01204129
0.01203975
0.01203941
0.012039
0.0120387
0.01203845
0.01204053
0.01203893
0.01203864
0.0120384
0.01203821
0.01203804
0.01203997
0.01203832
0.01203822
0.0120381
0.01203799
0.01203789
0.01203961
0.01203794
0.01203789
0.01203782
0.01203776
0.01203769
0.01203933
0.01203766
0.01203764
0.01203761
0.01203758
0.01203753
0.01203909
0.01203745
0.01203745
0.01203744
0.01203742
0.0120374
0.01203889
0.01203729
0.01203729
0.01203729
0.01203729
0.01203727
0.01203872
0.01203716
0.01203716
0.01203717
0.01203717
0.01203717
0.01203857
0.01203705
0.01203706
0.01203707
0.01203707
0.01203707
0.01203843
0.01203695
0.01203696
0.01203697
0.01203698
0.01203699
0.01203831
0.01203687
0.01203688
0.01203689
0.01203691
0.01203691
0.01203819
0.0120368
0.01203681
0.01203682
0.01203683
0.01203684
0.01203809
0.01203673
0.01203675
0.01203676
0.01203677
0.01203678
0.01203799
0.01203668
0.01203669
0.0120367
0.01203671
0.01203672
0.01203791
0.01203662
0.01203664
0.01203665
0.01203666
0.01203667
0.01203782
0.01203658
0.01203659
0.0120366
0.01203661
0.01203662
0.01203775
0.01203654
0.01203654
0.01203656
0.01203657
0.01203658
0.01203768
0.0120365
0.0120365
0.01203652
0.01203653
0.01203654
0.01203761
0.01203646
0.01203647
0.01203648
0.01203649
0.0120365
0.01203755
0.01203643
0.01203643
0.01203644
0.01203645
0.01203646
0.01203749
0.0120364
0.0120364
0.01203641
0.01203642
0.01203643
0.01311656
0.01246692
0.0123943
0.01234951
0.01231644
0.01206968
0.01204915
0.01204506
0.01204278
0.01204202
0.01204165
0.01206119
0.01204671
0.01204243
0.01204085
0.01204012
0.01203968
0.01205466
0.01204173
0.01204052
0.01203962
0.01203916
0.01203887
0.01205235
0.01204042
0.01203951
0.01203897
0.01203869
0.01203849
0.01205053
0.01203914
0.01203874
0.01203842
0.01203826
0.01203814
0.01204929
0.01203844
0.0120382
0.01203799
0.01203791
0.01203784
0.0120483
0.01203791
0.01203778
0.01203764
0.0120376
0.01203758
0.01204751
0.01203752
0.01203746
0.01203736
0.01203734
0.01203735
0.01204684
0.01203721
0.01203719
0.01203712
0.01203712
0.01203714
0.01204625
0.01203697
0.01203697
0.01203691
0.01203693
0.01203695
0.01204574
0.01203676
0.01203678
0.01203673
0.01203675
0.01203679
0.01204528
0.01203657
0.01203662
0.01203658
0.0120366
0.01203664
0.01204487
0.01203642
0.01203647
0.01203644
0.01203646
0.0120365
0.01204449
0.01203628
0.01203634
0.01203632
0.01203634
0.01203638
0.01204415
0.01203616
0.01203623
0.0120362
0.01203623
0.01203626
0.01204383
0.01203605
0.01203612
0.0120361
0.01203612
0.01203616
0.01204353
0.01203595
0.01203602
0.01203601
0.01203603
0.01203607
0.01204326
0.01203585
0.01203594
0.01203592
0.01203594
0.01203598
0.012043
0.01203577
0.01203585
0.01203584
0.01203586
0.01203589
0.01204277
0.01203569
0.01203578
0.01203577
0.01203579
0.01203582
0.01204255
0.01203562
0.01203571
0.0120357
0.01203572
0.01203575
0.01204234
0.01203555
0.01203564
0.01203563
0.01203565
0.01203568
0.01204215
0.01203546
0.01203551
0.01203553
0.01203556
0.0120356
0.004529798
0.004384499
0.01365852
0.01208114
0.01209008
0.004364521
0.00434939
0.01206627
0.01204837
0.012059
0.01205705
0.004342413
0.004340677
0.01206031
0.01204701
0.01205305
0.01204541
0.004334823
0.004334035
0.01205361
0.0120431
0.01205074
0.01204315
0.004329184
0.004328598
0.01205144
0.0120416
0.01204934
0.01204156
0.004324593
0.004324176
0.01204965
0.0120406
0.01204832
0.01204072
0.004320752
0.004320447
0.01204847
0.01203999
0.0120475
0.01204011
0.004317468
0.004317238
0.01204753
0.01203955
0.01204682
0.01203966
0.004314606
0.00431443
0.01204677
0.01203921
0.01204623
0.01203931
0.004312074
0.004311939
0.01204613
0.01203894
0.01204571
0.01203903
0.004309811
0.004309708
0.01204558
0.01203871
0.01204525
0.01203879
0.004307768
0.004307691
0.01204509
0.01203852
0.01204483
0.01203859
0.004305912
0.004305856
0.01204466
0.01203836
0.01204445
0.01203842
0.004304216
0.004304176
0.01204427
0.01203821
0.01204411
0.01203827
0.004302656
0.004302629
0.01204391
0.01203808
0.01204379
0.01203813
0.004301216
0.004301196
0.01204358
0.01203797
0.0120435
0.01203801
0.004299882
0.004299868
0.01204328
0.01203786
0.01204323
0.0120379
0.004298644
0.004298635
0.012043
0.01203777
0.01204297
0.0120378
0.004297492
0.004297486
0.01204274
0.01203768
0.01204274
0.01203771
0.004296417
0.004296415
0.01204251
0.0120376
0.01204252
0.01203762
0.004295413
0.004295413
0.01204228
0.01203752
0.01204231
0.01203755
0.004294473
0.004294471
0.01204208
0.01203746
0.01204212
0.01203747
0.004293586
0.004293557
0.01204188
0.01203739
0.01204194
0.01203741
0.004292714
0.01202633
0.01204214
0.01203733
0.01204177
0.01203687
0.0139613
0.01206294
0.01208845
0.0139502
0.0120627
0.01208445
0.01388582
0.01206099
0.0120873
0.01396828
0.01206236
0.01208707
0.01379155
0.01206122
0.0120873
0.01395372
0.01206237
0.012087
0.01395181
0.01206131
0.01208691
0.01395521
0.01206253
0.01208702
0.01395221
0.01206144
0.01208686
0.01392538
0.01206243
0.01208694
0.01395647
0.01206139
0.0120872
0.01380826
0.01206241
0.0120871
0.01396127
0.01206137
0.01208666
0.01371046
0.01206275
0.0120865
0.01395245
0.01206233
0.01208248
0.01344744
0.0120667
0.01208006
0.01269122
0.01208414
0.01207735
0.004220197
0.01235415
0.0120747
0.01205778
0.004187141
0.004352348
0.01224754
0.0120531
0.01205136
0.004344745
0.004347966
0.0122254
0.01205097
0.0120489
0.004339427
0.004343412
0.01205452
0.01205874
0.01205474
0.004178457
0.004341146
0.01204658
0.01205305
0.01204541
0.004337941
0.00434022
0.01204201
0.01205075
0.01204311
0.004334513
0.004333946
0.01204052
0.01204934
0.01204156
0.004329132
0.004328584
0.0120396
0.01204832
0.01204071
0.004324552
0.004324218
0.01203905
0.0120475
0.01204011
0.004320765
0.00432047
0.01203866
0.01204682
0.01203966
0.004317472
0.004317258
0.01203836
0.01204623
0.01203931
0.004314612
0.004314447
0.01203813
0.01204571
0.01203903
0.004312083
0.004311955
0.01203795
0.01204524
0.01203879
0.004309823
0.004309723
0.01203779
0.01204483
0.01203859
0.004307783
0.004307707
0.01203765
0.01204445
0.01203842
0.004305929
0.004305871
0.01203754
0.0120441
0.01203827
0.004304234
0.004304201
0.01203743
0.01204379
0.01203813
0.004302686
0.004302644
0.01203734
0.01204349
0.01203801
0.004301237
0.004301211
0.01203726
0.01204322
0.0120379
0.004299905
0.004299883
0.01203718
0.01204297
0.0120378
0.004298668
0.00429865
0.01203711
0.01204273
0.01203771
0.004297516
0.004297502
0.01203705
0.01204251
0.01203762
0.004296443
0.004296431
0.01203699
0.01204231
0.01203755
0.004295441
0.004295433
0.01203734
0.01204177
0.01203686
0.00429277
0.01156636
0.01215351
0.009219664
0.01206695
0.009135419
0.01207566
0.009132299
0.01205172
0.009073529
0.01205673
0.009073688
0.01204741
0.009034168
0.01204972
0.009034791
0.01204557
0.009005583
0.01204697
0.00900598
0.01204438
0.008982804
0.01204527
0.008983068
0.01204354
0.008963919
0.01204416
0.008964075
0.0120429
0.008947801
0.01204335
0.00894789
0.01204237
0.008933791
0.01204271
0.008933836
0.01204194
0.008921426
0.0120422
0.008921436
0.01204156
0.008910386
0.01204177
0.008910376
0.01204123
0.008900436
0.01204141
0.008900416
0.01204094
0.008891395
0.01204108
0.008891372
0.01204068
0.008883134
0.0120408
0.008883107
0.01204045
0.008875547
0.01204055
0.008875516
0.01204024
0.008868549
0.01204032
0.008868513
0.01204004
0.008862071
0.01204012
0.00886203
0.01203987
0.008856054
0.01203993
0.00885601
0.0120397
0.008850454
0.01203976
0.008850409
0.01203955
0.008845228
0.0120396
0.008845185
0.01203941
0.008840344
0.01203946
0.008840307
0.01203928
0.00883578
0.01203932
0.008835748
0.01203917
0.008831506
0.0120392
0.008831477
0.01203905
0.008827501
0.01203908
0.008827459
0.01216176
0.01216534
0.01216175
0.01216335
0.01216172
0.01216056
0.01216379
0.01216219
0.01216295
0.01216174
0.01216362
0.01216172
0.01216175
0.01216343
0.01216568
0.01216499
0.01215608
0.01218156
0.0122792
0.01205751
0.01205366
0.004348894
0.004353515
0.01220564
0.01204964
0.01204774
0.004334919
0.00433921
0.01203694
0.01204211
0.01203747
0.004294508
0.004294513
0.01203689
0.01204193
0.01203741
0.004293643
0.004293587
0.01215757
0.009155954
0.01211123
0.009179052
0.01216678
0.01217496
0.01206244
0.00910155
0.01205713
0.009102272
0.01205078
0.009054564
0.01204934
0.009054373
0.0120471
0.009021336
0.01204658
0.00902113
0.01204532
0.008995449
0.01204497
0.008995276
0.01204419
0.008974481
0.01204393
0.008974335
0.01204339
0.008956827
0.01204317
0.008956706
0.01204277
0.008941656
0.01204257
0.00894155
0.01204226
0.008928382
0.01204209
0.008928284
0.01204184
0.008916608
0.01204169
0.008916513
0.01204147
0.008906052
0.01204134
0.008905963
0.01204115
0.008896506
0.01204103
0.008896421
0.01204087
0.008887813
0.01204075
0.008887729
0.01204062
0.008879851
0.01204051
0.008879774
0.01204039
0.008872522
0.01204029
0.008872452
0.01204018
0.008865749
0.01204009
0.008865684
0.01203999
0.008859471
0.0120399
0.008859411
0.01203982
0.008853636
0.01203973
0.008853577
0.01203966
0.008848201
0.01203958
0.008848141
0.01203951
0.008843129
0.01203944
0.008843061
0.01203937
0.008838389
0.01203931
0.008838321
0.01203925
0.008833953
0.01203918
0.008833888
0.01203913
0.008829795
0.01203907
0.008829737
0.01203902
0.01201425
0.008825824
0.0120381
0.01216343
0.0121642
0.01216255
0.01216236
0.01216185
0.01216175
0.01216316
0.01216249
0.01216189
0.01216141
0.01216545
0.01216467
0.01216348
0.01216256
0.01216917
0.01216968
0.01216021
0.009087151
0.01207337
0.009071764
0.01206671
0.009087068
0.01206284
0.009080714
0.01207679
0.009059018
0.0120518
0.009072481
0.01205763
0.00907284
0.01205063
0.00905461
0.01204932
0.009054068
0.01204742
0.009034399
0.01204966
0.009034859
0.01204708
0.00902145
0.01204657
0.009021223
0.01204557
0.009005807
0.0120469
0.009006103
0.01204532
0.008995563
0.01204498
0.008995383
0.01204439
0.008982968
0.01204521
0.008982344
0.01204354
0.008963177
0.01204417
0.008964151
0.01204339
0.008956889
0.01204318
0.008956774
0.0120429
0.008947894
0.01204331
0.008947953
0.01204277
0.008941707
0.01204258
0.008941607
0.01204238
0.008933868
0.01204268
0.008933888
0.01204226
0.008928425
0.0120421
0.008928332
0.01204194
0.00892149
0.01204217
0.008921481
0.01204184
0.008916643
0.01204169
0.008916556
0.01204156
0.008910435
0.01204174
0.008910412
0.01204147
0.008906086
0.01204134
0.008905999
0.01204123
0.008900483
0.01204138
0.008900453
0.01204115
0.008896537
0.01204103
0.008896457
0.01204094
0.008891438
0.01204106
0.008891408
0.01204087
0.00888784
0.01204076
0.008887763
0.01204068
0.008883168
0.01204078
0.008883134
0.01204045
0.008874762
0.01204055
0.008875541
0.01204039
0.008872546
0.01204029
0.008872477
0.01204024
0.008868577
0.0120403
0.008868539
0.01204018
0.008865777
0.01204009
0.008865713
0.01204004
0.008862103
0.0120401
0.008862061
0.01203999
0.008859496
0.01203991
0.008859442
0.01203987
0.00885608
0.01203991
0.008856037
0.01203982
0.008853662
0.01203974
0.008853606
0.0120397
0.008850479
0.01203974
0.008850436
0.01203966
0.00884823
0.01203959
0.00884817
0.01203955
0.008845258
0.01203959
0.008845217
0.01203941
0.008840371
0.01203946
0.008840335
0.01203937
0.00883842
0.01203931
0.008838352
0.01203903
0.008619434
0.008825989
0.01203897
0.01204196
0.01202644
0.01204196
0.01203728
0.01203728
0.0115762
0.01203895
0.01201457
0.008823446
0.0120381
0.01203892
0.008618249
0.008823759
0.01203896
0.0127386
0.009501657
0.01311637
0.01312539
0.01313603
0.01314839
0.01315709
0.0131549
0.01313176
0.01316028
0.01314877
0.01316602
0.01316307
0.01314358
0.01314537
0.01312838
0.01312094
0.01311286
0.01304024
0.01310116
0.01312896
0.01309721
0.01312545
0.01314247
0.01315157
0.01310788
0.01314026
0.01314256
0.01317157
0.01315293
0.01316846
0.01313578
0.013166
0.01315785
0.01315399
0.0131512
0.01310687
0.01313365
0.01271714
0.009504257
0.01212476
0.009181981
0.01211891
0.008867689
0.01211579
0.009146427
0.01212742
0.008830381
0.01209605
0.009157305
0.01209344
0.009163421
0.01207513
0.009148869
0.01208739
0.009133752
0.01206984
0.009043483
0.01206226
0.009060204
0.01206082
0.009056604
0.01207359
0.009031465
0.01206803
0.009110897
0.01208595
0.009123639
0.01206064
0.009101381
0.01205803
0.009098831
0.01204931
0.008721835
0.008718878
0.0120441
0.01204535
0.008689868
0.01204914
0.008691507
0.01204748
0.008680938
0.008678941
0.01204275
0.01204419
0.008973747
0.01204394
0.008973603
0.01204296
0.008597429
0.01204412
0.008598146
0.01204379
0.008593767
0.008592646
0.01204191
0.01204261
0.008583078
0.01204348
0.00858369
0.0120432
0.008579907
0.0085789
0.0120417
0.01204197
0.008559313
0.0120425
0.008559783
0.01204228
0.008556833
0.008555998
0.01204125
0.01204167
0.008549272
0.01204209
0.008549693
0.01204191
0.008547043
0.008546275
0.01204103
0.01204139
0.008540178
0.01204174
0.008540561
0.01204158
0.008538161
0.008537451
0.01204081
0.01204129
0.008530045
0.008529392
0.01204063
0.01204062
0.008879063
0.01204051
0.008879799
0.01204046
0.008510804
0.0120406
0.008511072
0.01204054
0.008509364
0.00850884
0.01204003
0.01204009
0.008497959
0.008497505
0.0120397
0.01203985
0.008493991
0.01203989
0.008494209
0.01203988
0.008492832
0.008492409
0.0120395
0.01203951
0.008843156
0.01203944
0.008843093
0.01203969
0.008488044
0.00848765
0.01203936
0.01203948
0.008484578
0.01203948
0.008484771
0.01203905
0.00882675
0.01203908
0.00882752
0.01211394
0.008889602
0.01213116
0.008832811
0.01307671
0.01307776
0.01312497
0.01314079
0.0131433
0.01315789
0.01311688
0.01314718
0.01315899
0.0131545
0.01313949
0.01313052
0.01313568
0.01315974
0.01317177
0.0131359
0.01314707
0.01315171
0.01303092
0.01296088
0.00911303
0.01207582
0.009119899
0.01207938
0.009111645
0.01207879
0.00909072
0.01206445
0.009019229
0.01206143
0.009039586
0.01206724
0.009037479
0.01207093
0.009010568
0.01205742
0.008835811
0.01203931
0.008834973
0.01203927
0.008833179
0.008833119
0.01203925
0.01203919
0.008830737
0.008830707
0.01203917
0.01203918
0.008829038
0.01203908
0.008828975
0.01203913
0.01310306
0.01305039
0.01314167
0.01314734
0.01316391
0.0131474
0.01316498
0.01316164
0.01315971
0.01313866
0.01316784
0.01314954
0.01316435
0.01315577
0.0131439
0.01310544
0.0131162
0.01312799
0.01303783
0.01300204
0.01204662
0.008709376
0.00871138
0.0120497
0.01204816
0.00869989
0.0120427
0.008697619
0.01204326
0.008605119
0.008605922
0.01204419
0.01204406
0.008601717
0.01204196
0.008600594
0.01204282
0.00858973
0.008590368
0.01204358
0.01204342
0.008586813
0.01204177
0.008585817
0.01204245
0.008576347
0.008576895
0.01204304
0.01204289
0.008573801
0.01204156
0.0085729
0.01204242
0.008562264
0.01204137
0.008561459
0.0120415
0.00854443
0.008544816
0.01204174
0.01204169
0.008542599
0.01204091
0.008541928
0.01204099
0.008527842
0.008528164
0.0120411
0.01204062
0.00851253
0.01204015
0.008512054
0.01203992
0.008496431
0.008496657
0.01203988
0.01203996
0.00849538
0.01203959
0.008494999
0.01203973
0.008491404
0.008491615
0.01203968
0.01203954
0.008486707
0.008486906
0.01203949
0.01203957
0.008485791
0.01203926
0.00848546
0.008712891
0.008717325
0.01393169
0.01444835
0.008814759
0.008818082
0.01206166
0.01206211
0.008700392
0.008690916
0.01341935
0.01370794
0.008663592
0.00866332
0.01332169
0.01386947
0.01286463
0.008627974
0.01308287
0.008625075
0.0128503
0.008616908
0.01322946
0.008612322
0.008608806
0.008607496
0.01291574
0.0127322
0.008602418
0.008596694
0.01272402
0.01305882
0.008790777
0.008784545
0.01205228
0.01205635
0.008735277
0.01205329
0.00873816
0.01204725
0.01204379
0.008633897
0.008634937
0.0120458
0.01204528
0.008628647
0.008627292
0.0120423
0.01204444
0.008610024
0.008608678
0.01204219
0.01204114
0.00853189
0.008532235
0.0120414
0.00852455
0.01204117
0.008524975
0.01204089
0.01204102
0.008522858
0.008522145
0.01204042
0.01204067
0.008517282
0.01204086
0.008517571
0.01204078
0.008515727
0.008515162
0.01204021
0.01204024
0.008504793
0.01204035
0.008505042
0.01204031
0.008503457
0.008502969
0.01203985
0.01204004
0.008499202
0.0120401
0.008499435
0.008475716
0.008475457
0.01203915
0.0120389
0.008472522
0.01203913
0.01203897
0.008472703
0.008654877
0.008649611
0.01306102
0.01332925
0.008637237
0.01347533
0.008633116
0.01304034
0.008594436
0.008593975
0.01263764
0.01280272
0.008483569
0.01203919
0.01203948
0.008483264
0.008480587
0.008480798
0.01203931
0.0120393
0.008479636
0.008479324
0.01203932
0.01203903
0.008476608
0.008476802
0.01203915
0.01203911
0.01537029
0.00874568
0.00870451
0.01399541
0.01217006
0.008906282
0.008912121
0.01215085
0.0129048
0.008623179
0.008620752
0.0132405
0.01204434
0.00864499
0.008646111
0.01204597
0.01204565
0.008639943
0.00863846
0.01204227
0.01204374
0.008623444
0.00862425
0.01204497
0.01204214
0.008564531
0.008565
0.01204255
0.01204179
0.008553961
0.008554389
0.01204213
0.01204203
0.008551938
0.01204113
0.008551202
0.01204075
0.008520564
0.008520922
0.01204082
0.01204086
0.00851915
0.01204031
0.008518633
0.01204039
0.008506395
0.01203997
0.008505953
0.01204017
0.008500692
0.01203979
0.008500283
0.01203904
0.008473554
0.01203883
0.008473251
0.00847169
0.01203891
0.01203897