/*--------------------------------*- C++ -*----------------------------------*\
  =========                 |
  \\      /  F ield         | OpenFOAM: The Open Source CFD Toolbox
   \\    /   O peration     | Website:  https://openfoam.org
    \\  /    A nd           | Version:  7
     \\/     M anipulation  |
\*---------------------------------------------------------------------------*/
FoamFile
{
    version     2.0;
    format      ascii;
    class       volScalarField;
    location    "0.02";
    object      k;
}
// * * * * * * * * * * * * * * * * * * * * * * * * * * * * * * * * * * * * * //

dimensions      [0 2 -2 0 0 0 0];

internalField   nonuniform List<scalar> 
78470
(
0.003780787
0.003783155
0.003783961
0.003784887
0.003785374
0.003785779
0.003786177
0.003786612
0.003787111
0.003753213
0.003752952
0.00375327
0.003753284
0.003753382
0.003753443
0.003753512
0.003753582
0.003753661
0.003753535
0.003753215
0.003753547
0.003753556
0.003753657
0.00375372
0.00375379
0.003753853
0.003753918
0.003753568
0.003753374
0.003753676
0.003753638
0.003753752
0.003753801
0.003753866
0.003753914
0.003753952
0.003753574
0.003753396
0.003753665
0.003753653
0.00375377
0.003753829
0.003753892
0.003753928
0.003753936
0.003753561
0.003753436
0.003753706
0.003753675
0.003753798
0.00375386
0.003753927
0.003753957
0.003753941
0.003753558
0.003753448
0.003753697
0.003753685
0.00375382
0.003753901
0.003753986
0.003754031
0.003754012
0.003753552
0.003753439
0.003753697
0.00375369
0.003753848
0.003753959
0.003754085
0.003754168
0.003754174
0.00375354
0.003753419
0.00375368
0.003753682
0.003753868
0.003754029
0.003754225
0.003754384
0.003754444
0.003753518
0.003753375
0.003753638
0.00375364
0.003753865
0.00375409
0.003754402
0.003754688
0.003754837
0.003753476
0.0037533
0.003753535
0.003753548
0.003753809
0.003754127
0.003754615
0.0037551
0.00375534
0.003753422
0.003753179
0.003753376
0.003753355
0.003753619
0.003754042
0.003754848
0.003755593
0.003755913
0.003753322
0.003752985
0.003753107
0.003753029
0.003753268
0.003753742
0.003754628
0.003755899
0.003756351
0.00375322
0.003752736
0.003752717
0.003752511
0.003752482
0.00375321
0.003763297
0.003771197
0.003768853
0.003753084
0.003752471
0.003752246
0.003751698
0.003751233
0.00375112
0.003758442
0.003884026
0.003752941
0.003752224
0.003751791
0.003750999
0.003750066
0.003749201
0.003749967
0.003771844
0.003752864
0.00375211
0.003751605
0.003750625
0.003749452
0.003748144
0.003744851
0.003726389
0.003752795
0.003752088
0.003751654
0.003750638
0.003749493
0.003748186
0.003743221
0.003704364
0.003752817
0.00375227
0.003751957
0.003751089
0.003750155
0.003749179
0.003745699
0.003733973
0.003752952
0.003752575
0.003752481
0.003751866
0.003751314
0.003750769
0.003750043
0.003766252
0.003753184
0.003753031
0.003753162
0.003752901
0.00375279
0.003752917
0.003756151
0.003807293
0.003753435
0.003753483
0.003753903
0.003754026
0.003754459
0.003755394
0.003764128
0.003874342
0.003771206
0.003991591
0.003827633
0.003757739
0.003752998
0.003753224
0.003753431
0.003753432
0.00375352
0.003753585
0.003753664
0.003753752
0.003685854
0.003677321
0.003677111
0.003677009
0.003676985
0.003676986
0.003676987
0.003676989
0.003676993
0.003676997
0.003689622
0.003677777
0.003677062
0.003677006
0.003676985
0.003676981
0.00367698
0.003676982
0.003676984
0.003676989
0.003696122
0.003677648
0.00367709
0.003677024
0.003676989
0.003676986
0.003676983
0.003676983
0.003676984
0.003676986
0.003699111
0.003677784
0.00367707
0.003677036
0.003676993
0.00367699
0.003676986
0.003676985
0.003676983
0.003676983
0.003700032
0.003677772
0.003677065
0.003677042
0.003676997
0.003676995
0.00367699
0.003676989
0.003676985
0.003676984
0.003700623
0.003677719
0.003677065
0.003677044
0.003677
0.003677
0.003676997
0.003676996
0.003676994
0.003676992
0.003700427
0.00367768
0.003677064
0.003677043
0.003677005
0.003677009
0.003677008
0.003677012
0.003677013
0.003677015
0.00370024
0.003677674
0.003677069
0.003677044
0.003677012
0.003677022
0.003677026
0.003677041
0.003677053
0.003677064
0.003700134
0.003677688
0.003677075
0.003677049
0.003677022
0.003677041
0.003677061
0.003677103
0.003677136
0.003677152
0.003699993
0.003677715
0.003677083
0.00367706
0.003677038
0.003677076
0.003677128
0.00367723
0.003677304
0.00367729
0.003700081
0.003677742
0.003677097
0.003677076
0.003677068
0.003677134
0.003677296
0.00367757
0.003677687
0.003677595
0.003700418
0.003677804
0.00367712
0.003677114
0.00367713
0.003677323
0.003677789
0.003678487
0.003679176
0.003677877
0.003699082
0.003677738
0.003677169
0.003677185
0.003677293
0.003677732
0.003679702
0.00368035
0.003694788
0.003679603
0.003700683
0.003677711
0.003677216
0.003677291
0.003677478
0.003678099
0.003680184
0.003693868
0.004324694
0.003694075
0.00367772
0.00367725
0.00367736
0.003677548
0.00367811
0.003679532
0.003683173
0.003748264
0.003687673
0.003677623
0.003677201
0.003677414
0.003677597
0.003678071
0.003679115
0.003680787
0.003737568
0.003682847
0.003677606
0.003677194
0.003677452
0.003677649
0.003678115
0.003679034
0.003680107
0.003733767
0.003681646
0.003677613
0.003677243
0.003677473
0.003677699
0.003678221
0.003679385
0.00368024
0.003742136
0.003681858
0.003677527
0.003677245
0.003677472
0.003677758
0.003678446
0.003679966
0.003681092
0.003750601
0.003682034
0.003677518
0.003677218
0.003677445
0.00367783
0.003678782
0.003681303
0.003686092
0.003767599
0.003682144
0.00367761
0.003677226
0.003677416
0.003677842
0.003678962
0.003682833
0.003686865
0.00379768
0.00368231
0.003685488
0.004469067
0.003695099
0.003758255
0.003753262
0.003753406
0.00375364
0.00375367
0.003753765
0.003753836
0.003753921
0.003754013
0.003684595
0.003677583
0.003677139
0.003677031
0.00367698
0.003676975
0.003676977
0.00367698
0.003676983
0.003676988
0.003679393
0.003678077
0.003677087
0.003676997
0.003676971
0.003676972
0.003676972
0.003676974
0.003676976
0.00367698
0.003679731
0.003677859
0.003677077
0.003677002
0.00367697
0.003676974
0.003676974
0.003676975
0.003676976
0.003676978
0.003679196
0.003677293
0.00367709
0.00367699
0.003676973
0.003676979
0.003676977
0.003676976
0.003676975
0.003676975
0.003678817
0.003677242
0.003677099
0.003676986
0.003676983
0.003676982
0.00367698
0.00367698
0.003676977
0.003676975
0.003678789
0.003677254
0.003677096
0.003676991
0.003676988
0.003676988
0.003676987
0.003676988
0.003676986
0.003676984
0.003678836
0.003677337
0.003677076
0.003676997
0.003676992
0.003676998
0.003676999
0.003677004
0.003677005
0.003677007
0.00367884
0.003677291
0.003677063
0.003677
0.003676999
0.003677015
0.003677018
0.003677034
0.003677046
0.003677058
0.003678863
0.003677285
0.003677079
0.003677001
0.003677008
0.003677039
0.003677056
0.0036771
0.003677131
0.003677145
0.003678871
0.003677269
0.003677114
0.003677008
0.003677026
0.003677079
0.003677132
0.003677232
0.003677295
0.003677299
0.00367887
0.003677379
0.003677141
0.003677031
0.003677057
0.003677147
0.003677309
0.003677559
0.003677703
0.003677575
0.003679073
0.003677269
0.003677207
0.003677073
0.003677122
0.003677346
0.00367778
0.003678463
0.003679018
0.003677793
0.003678742
0.003677375
0.0036772
0.003677099
0.003677282
0.003677749
0.003679546
0.003680045
0.003693713
0.003679528
0.003678768
0.00367757
0.003677212
0.003677123
0.003677511
0.003678067
0.003679997
0.003694868
0.004316988
0.003679621
0.003677391
0.003677125
0.003677143
0.0036776
0.003678088
0.003679497
0.003682996
0.003748272
0.003679185
0.003677916
0.003677049
0.003677168
0.003677642
0.003677991
0.003679212
0.003680888
0.003739738
0.003679164
0.003677539
0.003677089
0.003677157
0.003677688
0.003678038
0.003679113
0.003746796
0.003678531
0.003677234
0.003677255
0.003677274
0.003677719
0.003678227
0.003679011
0.003747967
0.003678403
0.00367711
0.003677159
0.003677284
0.003677806
0.003678525
0.003679614
0.003681009
0.003737651
0.003678464
0.003677116
0.003677244
0.003677292
0.00367789
0.003678619
0.003681335
0.003685206
0.003766002
0.003678506
0.00367718
0.003677293
0.00367735
0.003677844
0.003678931
0.003682707
0.003688433
0.00379654
0.003684877
0.004472762
0.003701793
0.003758429
0.003753253
0.00375348
0.003753715
0.003753739
0.003753831
0.003753902
0.003753987
0.003754082
0.003693423
0.003677847
0.003677125
0.003677032
0.003676981
0.003676974
0.003676977
0.00367698
0.003676983
0.003676988
0.003680099
0.003677703
0.003677106
0.003677009
0.00367697
0.003676972
0.003676972
0.003676974
0.003676976
0.00367698
0.003678694
0.003677669
0.003677085
0.003676973
0.003676971
0.003676972
0.003676973
0.003676975
0.003676976
0.003676978
0.003679343
0.003677586
0.003676991
0.003676979
0.003676972
0.003676975
0.003676975
0.003676976
0.003676975
0.003676975
0.003680276
0.003678091
0.003676979
0.003677005
0.003676974
0.00367698
0.00367698
0.00367698
0.003676977
0.003676975
0.003679853
0.003678423
0.003676983
0.003677082
0.003676978
0.003676989
0.003676987
0.003676988
0.003676986
0.003676984
0.003680319
0.003678098
0.003676981
0.003677091
0.003676982
0.003677004
0.003676999
0.003677004
0.003677005
0.003677007
0.003680197
0.003677999
0.003676985
0.003677093
0.003676987
0.003677021
0.003677018
0.003677034
0.003677046
0.003677059
0.003680272
0.003678083
0.003676995
0.003677101
0.003676997
0.003677046
0.003677057
0.0036771
0.003677131
0.003677145
0.00368014
0.003678269
0.003677005
0.003677113
0.003677014
0.003677088
0.003677132
0.003677226
0.00367729
0.003677305
0.003680087
0.003678199
0.003677034
0.003677112
0.003677043
0.003677152
0.003677304
0.003677556
0.003677714
0.003677574
0.003678685
0.003677908
0.003677035
0.003677118
0.003677106
0.003677347
0.003677774
0.003678485
0.003678985
0.003677826
0.003680068
0.00367809
0.003677082
0.003677124
0.003677272
0.003677733
0.003679552
0.003679901
0.003693656
0.003679539
0.00368066
0.003678126
0.003677043
0.003677122
0.003677492
0.00367805
0.003680011
0.003694901
0.004313133
0.003678772
0.003677711
0.003677022
0.003677116
0.003677611
0.003678111
0.003679563
0.003682978
0.003748241
0.003680181
0.00367771
0.003677117
0.003677161
0.003677701
0.003678036
0.003679299
0.003680949
0.003739698
0.003679217
0.003677501
0.003677082
0.003677144
0.003677726
0.00367806
0.003679169
0.003746549
0.003679095
0.003677247
0.003677159
0.003677251
0.003677722
0.003678259
0.003678987
0.003747877
0.00367859
0.003677226
0.003677167
0.003677288
0.003677795
0.00367856
0.003679609
0.003680905
0.003735125
0.003678462
0.003677262
0.003677246
0.003677302
0.003677909
0.003678615
0.003681527
0.00368448
0.003766655
0.003678513
0.003677302
0.003677213
0.003677349
0.003677846
0.003678928
0.003682739
0.003688179
0.003796441
0.003684844
0.004474503
0.003702803
0.003758607
0.00375325
0.003753471
0.003753715
0.003753745
0.00375384
0.003753914
0.003754
0.003754095
0.003696782
0.003677775
0.003677134
0.003677038
0.00367698
0.003676974
0.003676977
0.00367698
0.003676983
0.003676988
0.003679078
0.003677319
0.003677135
0.003676979
0.00367697
0.003676971
0.003676971
0.003676974
0.003676976
0.00367698
0.003680868
0.003677714
0.003676987
0.003676982
0.003676969
0.003676972
0.003676973
0.003676975
0.003676976
0.003676978
0.0036787
0.003677537
0.00367698
0.003677001
0.003676971
0.003676976
0.003676976
0.003676976
0.003676975
0.003676975
0.003680082
0.003677709
0.003676997
0.003677007
0.003676977
0.003676982
0.00367698
0.00367698
0.003676977
0.003676975
0.003680307
0.003677572
0.003677051
0.003677002
0.003676983
0.003676989
0.003676986
0.003676988
0.003676986
0.003676984
0.003678691
0.003677389
0.003677132
0.003676984
0.003676992
0.003676994
0.003676997
0.003677004
0.003677005
0.003677008
0.003678941
0.003677208
0.00367713
0.003676989
0.003676996
0.003677005
0.003677015
0.003677034
0.003677046
0.003677059
0.003678695
0.003677451
0.003677149
0.003676992
0.003677
0.003677027
0.003677046
0.003677098
0.00367713
0.003677145
0.003679929
0.003677561
0.003677156
0.003677006
0.003677021
0.003677078
0.00367712
0.003677224
0.003677289
0.003677304
0.003679694
0.003677618
0.003677095
0.00367707
0.003677048
0.003677153
0.003677293
0.003677551
0.003677706
0.003677563
0.003679425
0.003677549
0.003677161
0.003677086
0.003677115
0.003677344
0.003677766
0.00367848
0.003678972
0.003677826
0.003681634
0.003677653
0.003677123
0.003677104
0.003677291
0.003677742
0.003679549
0.003679904
0.003693626
0.003679529
0.003680191
0.003677676
0.003677148
0.003677126
0.003677549
0.003678082
0.003680048
0.003694884
0.004310908
0.003680575
0.00367735
0.003677048
0.003677126
0.003677626
0.003678091
0.003679537
0.003683036
0.003748282
0.003679098
0.003677383
0.003677066
0.003677128
0.003677658
0.003678
0.003679273
0.003680952
0.003739574
0.003679016
0.003677187
0.003677153
0.003677091
0.003677721
0.003678057
0.003679153
0.0037465
0.003678722
0.003677142
0.00367713
0.003677227
0.0036777
0.003678243
0.003678966
0.003747852
0.003678489
0.003677163
0.003677241
0.003677311
0.00367779
0.003678562
0.003679583
0.003680875
0.003735388
0.003678431
0.003677076
0.003677332
0.003677318
0.00367793
0.003678625
0.003681516
0.003684529
0.003766925
0.003678511
0.003677149
0.003677191
0.003677331
0.003677852
0.003678927
0.003682742
0.003688337
0.003796493
0.003684748
0.004475037
0.003702464
0.003758635
0.003753248
0.003753472
0.003753706
0.003753738
0.00375383
0.003753903
0.003753989
0.003754084
0.003700343
0.0036777
0.003677138
0.003677041
0.003676978
0.003676974
0.003676977
0.00367698
0.003676983
0.003676988
0.003678746
0.003677279
0.003677144
0.003676967
0.003676973
0.003676969
0.003676971
0.003676974
0.003676976
0.00367698
0.003678705
0.00367755
0.00367697
0.003676989
0.003676969
0.003676972
0.003676973
0.003676975
0.003676976
0.003676978
0.003679647
0.003677945
0.003676978
0.003677042
0.003676972
0.00367698
0.003676976
0.003676977
0.003676975
0.003676975
0.003680299
0.003677402
0.003677131
0.003676999
0.003676982
0.003676982
0.00367698
0.00367698
0.003676977
0.003676975
0.003678834
0.003677515
0.00367713
0.003676982
0.00367699
0.003676986
0.003676986
0.003676988
0.003676986
0.003676984
0.003679849
0.003677534
0.00367711
0.003676987
0.003676991
0.003676993
0.003676997
0.003677004
0.003677005
0.003677008
0.003678439
0.003677207
0.003677118
0.003676992
0.003676994
0.003677007
0.003677015
0.003677033
0.003677046
0.003677059
0.003679837
0.003677448
0.003677137
0.003676993
0.003677
0.003677031
0.003677049
0.003677098
0.00367713
0.003677144
0.00367889
0.003677629
0.003677159
0.003677004
0.003677018
0.003677077
0.003677122
0.003677223
0.003677287
0.003677304
0.003678802
0.003677528
0.003677223
0.003677029
0.003677056
0.003677145
0.003677289
0.003677549
0.003677703
0.003677566
0.003678955
0.003677514
0.003677185
0.003677071
0.003677113
0.003677343
0.003677764
0.00367848
0.003678973
0.003677828
0.003678826
0.003677586
0.003677294
0.003677096
0.003677307
0.00367774
0.003679551
0.003679904
0.003693648
0.003679508
0.003682388
0.003678023
0.003677391
0.003677142
0.003677585
0.00367808
0.003680057
0.003694798
0.004309815
0.003679565
0.003677168
0.003677066
0.00367714
0.003677633
0.003678083
0.003679556
0.003682997
0.003748249
0.003678687
0.003677312
0.003677036
0.003677122
0.003677651
0.003678006
0.003679268
0.003680933
0.003739602
0.003679028
0.003677185
0.003677151
0.003677106
0.003677707
0.003678049
0.003679155
0.003746493
0.003678596
0.00367718
0.003677189
0.003677228
0.003677717
0.003678243
0.003678969
0.00374785
0.003678418
0.003677163
0.003677176
0.003677292
0.003677781
0.003678556
0.003679579
0.003680877
0.003734977
0.003678411
0.003677079
0.003677364
0.003677323
0.003677933
0.003678629
0.003681518
0.00368449
0.003766877
0.003678498
0.003677148
0.003677194
0.003677333
0.003677854
0.003678926
0.003682744
0.003688355
0.00379646
0.003684712
0.004475457
0.003702097
0.003758573
0.00375327
0.00375345
0.003753659
0.003753689
0.003753775
0.003753847
0.003753929
0.003754024
0.003696128
0.003677907
0.003677122
0.003677032
0.003676979
0.003676974
0.003676977
0.00367698
0.003676983
0.003676989
0.003679532
0.00367751
0.003677147
0.003676971
0.003676978
0.00367697
0.003676971
0.003676974
0.003676976
0.00367698
0.003681294
0.003678932
0.003676999
0.00367707
0.003676969
0.003676977
0.003676974
0.003676975
0.003676976
0.003676978
0.003678548
0.003677362
0.003677106
0.003676976
0.003676979
0.003676975
0.003676975
0.003676976
0.003676975
0.003676975
0.003680009
0.003678485
0.003676983
0.003677035
0.003676975
0.00367698
0.003676979
0.00367698
0.003676977
0.003676975
0.003680984
0.003678736
0.003676991
0.003677064
0.003676978
0.00367699
0.003676987
0.003676988
0.003676985
0.003676984
0.003680206
0.003678284
0.003676982
0.003677083
0.003676982
0.003677003
0.003676999
0.003677004
0.003677005
0.003677007
0.003680431
0.003678045
0.003676986
0.00367708
0.003676988
0.003677018
0.003677018
0.003677034
0.003677046
0.003677058
0.003680385
0.003678051
0.003676987
0.003677086
0.003676997
0.003677044
0.003677056
0.003677099
0.00367713
0.003677144
0.003680434
0.003678506
0.003677019
0.003677079
0.003677013
0.003677085
0.003677129
0.003677224
0.003677288
0.003677304
0.003679727
0.003678316
0.003677064
0.003677093
0.003677044
0.003677152
0.003677302
0.003677553
0.003677708
0.003677572
0.003678586
0.003677487
0.003677016
0.003677104
0.003677104
0.003677345
0.003677773
0.003678485
0.003678984
0.003677829
0.00368119
0.0036779
0.003677048
0.003677114
0.003677268
0.003677724
0.003679545
0.003679921
0.003693635
0.003679461
0.00368232
0.003678486
0.003677029
0.003677083
0.00367749
0.003678042
0.003680023
0.003694808
0.004309549
0.003679049
0.003677488
0.003677537
0.00367712
0.003677745
0.003678137
0.003679599
0.003682999
0.003748452
0.003680185
0.003677155
0.00367709
0.003677171
0.00367768
0.003678005
0.003679289
0.00368094
0.003739715
0.003678881
0.00367727
0.003677083
0.003677137
0.003677679
0.003678057
0.003679163
0.003746548
0.003678712
0.003677164
0.003677373
0.003677251
0.003677737
0.003678263
0.003678992
0.003747875
0.003678535
0.003677313
0.00367714
0.003677281
0.003677789
0.003678553
0.0036796
0.003680922
0.003735835
0.003678497
0.003677254
0.003677252
0.003677312
0.003677917
0.003678617
0.003681505
0.003684088
0.003767013
0.00367849
0.003677307
0.003677218
0.003677346
0.003677848
0.003678916
0.003682741
0.003688234
0.003796457
0.003684732
0.004474819
0.003702383
0.003758462
0.003753008
0.003753271
0.003753402
0.003753443
0.003753524
0.003753596
0.003753671
0.003753762
0.003695002
0.003677782
0.003677137
0.003677018
0.003676978
0.003676976
0.003676978
0.003676981
0.003676984
0.003676989
0.003680016
0.003677639
0.003677148
0.003677007
0.00367697
0.003676972
0.003676972
0.003676974
0.003676976
0.003676981
0.003678442
0.003677365
0.003677147
0.003676975
0.003676973
0.003676973
0.003676973
0.003676975
0.003676976
0.003676978
0.003680961
0.003678397
0.003676991
0.003677069
0.003676972
0.003676982
0.003676977
0.003676977
0.003676975
0.003676975
0.003678808
0.003677694
0.003676984
0.003677036
0.003676977
0.003676988
0.003676981
0.00367698
0.003676977
0.003676975
0.00367988
0.003677318
0.003677167
0.003677002
0.003676987
0.003676989
0.003676988
0.003676988
0.003676986
0.003676984
0.003678999
0.003677418
0.003677103
0.003677001
0.00367699
0.003676998
0.003676999
0.003677004
0.003677005
0.003677007
0.003678912
0.003677278
0.003677077
0.003677003
0.003676998
0.003677014
0.003677018
0.003677034
0.003677046
0.003677057
0.003679115
0.003677459
0.003677091
0.00367701
0.003677007
0.003677039
0.003677056
0.003677099
0.00367713
0.003677144
0.003680275
0.003677298
0.0036772
0.003677015
0.003677029
0.00367708
0.003677131
0.003677229
0.003677293
0.003677298
0.003678524
0.003677858
0.003677
0.003677072
0.003677057
0.003677155
0.003677313
0.00367756
0.003677702
0.003677573
0.003679718
0.003677912
0.00367701
0.003677044
0.003677101
0.003677344
0.003677775
0.003678466
0.003679017
0.00367779
0.003679859
0.003677436
0.003677092
0.003677102
0.003677265
0.003677743
0.003679542
0.003680082
0.003693634
0.003679593
0.00367944
0.003677512
0.00367744
0.00367714
0.003677538
0.003678057
0.003680003
0.003694779
0.004311192
0.003681692
0.003678415
0.00367705
0.003677101
0.00367758
0.003678051
0.003679504
0.003682987
0.003748505
0.003678725
0.003677266
0.003677278
0.003677091
0.003677743
0.003678028
0.003679223
0.003680893
0.003739857
0.00368029
0.003677218
0.003677094
0.003677173
0.003677681
0.003678012
0.003679117
0.003746798
0.003679244
0.003677339
0.003677218
0.003677228
0.003677713
0.003678214
0.003679012
0.003747951
0.003679834
0.003677226
0.003677174
0.003677281
0.003677784
0.003678525
0.003679584
0.003681088
0.00373805
0.00367847
0.00367722
0.003677403
0.003677326
0.003677902
0.003678627
0.003681223
0.003682771
0.003764819
0.003678433
0.0036772
0.003677287
0.003677348
0.003677854
0.003678894
0.00368276
0.003688895
0.003795572
0.003684202
0.004469904
0.003701604
0.003758131
0.003759913
0.003760897
0.003761436
0.003761647
0.003761782
0.003762224
0.003762154
0.003762345
0.003699924
0.003677621
0.003677077
0.003676983
0.00367699
0.003676987
0.00367699
0.003676997
0.003676996
0.003677004
0.00368191
0.003678387
0.003677071
0.003677008
0.003676988
0.003676981
0.00367698
0.003676982
0.003676985
0.003676989
0.003680747
0.003677895
0.003677122
0.003677039
0.003676985
0.003676988
0.003676983
0.003676983
0.003676984
0.003676986
0.003680639
0.003678252
0.003677118
0.003677039
0.003676993
0.00367699
0.003676985
0.003676985
0.003676983
0.003676983
0.003680252
0.003677675
0.003677168
0.003677046
0.003676999
0.003676996
0.00367699
0.003676989
0.003676985
0.003676983
0.003680267
0.003678592
0.003677055
0.003677039
0.003677001
0.003677
0.003676997
0.003676996
0.003676994
0.003676992
0.003680154
0.003677739
0.003677081
0.003677043
0.003677006
0.003677009
0.003677008
0.003677012
0.003677013
0.003677015
0.003680053
0.003677774
0.003677072
0.003677044
0.003677013
0.003677022
0.003677026
0.003677041
0.003677053
0.003677064
0.00368021
0.003677677
0.003677094
0.003677045
0.003677022
0.003677041
0.00367706
0.003677102
0.003677135
0.003677151
0.003683996
0.003678218
0.003677062
0.003677037
0.003677048
0.003677075
0.003677127
0.003677228
0.003677301
0.003677289
0.003680968
0.003677619
0.003677228
0.003677056
0.003677076
0.003677144
0.003677295
0.00367757
0.003677683
0.003677591
0.00368023
0.003677739
0.003677176
0.003677121
0.003677113
0.003677331
0.003677781
0.003678489
0.003679167
0.003677873
0.003682185
0.003678373
0.003677123
0.003677202
0.003677284
0.003677734
0.003679698
0.003680349
0.003694125
0.003680137
0.003681218
0.003678669
0.00367726
0.003677246
0.003677519
0.003678098
0.003680195
0.003694409
0.004317519
0.003680349
0.003677695
0.003677667
0.003677185
0.003677638
0.003678099
0.003679538
0.003683191
0.003748764
0.003680859
0.003677561
0.003677168
0.003677219
0.00367763
0.003678007
0.003679121
0.003680865
0.003739189
0.003679003
0.003677577
0.00367753
0.003677138
0.003677719
0.00367808
0.003679034
0.003680544
0.003726957
0.00368105
0.003677418
0.003677388
0.003677228
0.003677762
0.003678166
0.003679388
0.003680747
0.003741266
0.003680243
0.003677773
0.003677375
0.003677422
0.003677805
0.003678432
0.00367997
0.003678358
0.00375055
0.003686873
0.0036777
0.003677235
0.003677444
0.00367785
0.003678781
0.00368113
0.003686439
0.003760314
0.003680605
0.003677647
0.003677247
0.003677413
0.003677864
0.003678923
0.003682928
0.003683988
0.003784785
0.003680611
0.003684459
0.004456011
0.003697559
0.003776695
0.003782901
0.003760735
0.003785288
0.003785338
0.003787061
0.003778629
0.003786135
0.003788271
0.003697279
0.003752964
0.00375293
0.003753271
0.00375321
0.003753333
0.003753398
0.003753464
0.003753528
0.003753609
0.003744013
0.003753252
0.003753214
0.003753627
0.003753523
0.003753664
0.003753707
0.003753775
0.003753835
0.003753905
0.003682351
0.003753387
0.003753198
0.00375371
0.003753557
0.003753725
0.003753779
0.003753853
0.003753902
0.003753944
0.003681714
0.003753315
0.003753271
0.003753779
0.003753591
0.003753762
0.003753814
0.003753883
0.00375392
0.003753931
0.003682001
0.003753341
0.003753252
0.00375379
0.003753607
0.003753784
0.003753846
0.003753919
0.00375395
0.003753936
0.003690621
0.003752982
0.003753435
0.003753802
0.003753675
0.003753841
0.003753899
0.003753984
0.003754027
0.003754008
0.003685757
0.003753623
0.003753509
0.003753782
0.003753698
0.003753856
0.003753958
0.003754083
0.003754165
0.00375417
0.003688797
0.003753621
0.003753486
0.00375377
0.003753702
0.003753884
0.003754032
0.003754225
0.003754381
0.003754439
0.003686267
0.003753501
0.003753382
0.003753643
0.003753635
0.003753863
0.003754088
0.003754399
0.003754683
0.003754831
0.003693312
0.003752849
0.003753329
0.003753602
0.003753543
0.003753826
0.003754123
0.003754613
0.003755093
0.003755331
0.003682749
0.003753145
0.003752985
0.003753419
0.003753294
0.00375361
0.003754028
0.003754841
0.003755579
0.003755896
0.003682361
0.003753126
0.003752843
0.00375319
0.003752974
0.003753275
0.00375373
0.003754625
0.003755883
0.003756315
0.003688901
0.003753039
0.003752798
0.003752831
0.003752494
0.00375249
0.003753202
0.003684812
0.003694636
0.003680544
0.003684512
0.00375286
0.00375238
0.003752306
0.003751661
0.003751234
0.003751112
0.003697125
0.004329528
0.003684894
0.003753002
0.003752012
0.003751909
0.003750925
0.003750052
0.003749191
0.003685301
0.003751535
0.003684135
0.0037527
0.003751876
0.003751665
0.003750567
0.003749432
0.003748152
0.003682608
0.003737636
0.003681654
0.003752549
0.003751976
0.003751688
0.003750571
0.003749482
0.00374817
0.003681517
0.003731695
0.003683176
0.003752503
0.003752205
0.003751956
0.003751033
0.003750144
0.003749165
0.003681598
0.003741537
0.003691885
0.003752379
0.003752717
0.003752436
0.003751848
0.003751302
0.003750769
0.003683001
0.003751393
0.00368508
0.003753155
0.003753139
0.003753168
0.003752895
0.003752787
0.003752908
0.003687818
0.003764669
0.003695073
0.003753409
0.00375351
0.003753898
0.003754026
0.003754455
0.003755384
0.003695274
0.003797519
0.003694959
0.003688948
0.004464903
0.003697684
0.003783545
0.003756741
0.003774658
0.003707488
0.003682873
0.003781954
0.003759788
0.003760204
0.003758456
0.003759766
0.003678134
0.003677744
0.003781936
0.003759284
0.003760137
0.003759435
0.003760535
0.003678187
0.003678755
0.003782712
0.00376045
0.003760647
0.003760725
0.003761171
0.003678367
0.003678696
0.003783167
0.003760946
0.00376088
0.003761546
0.003761396
0.003678368
0.00367854
0.003783536
0.003761132
0.003761028
0.003761709
0.003761546
0.003678352
0.003678557
0.003783904
0.003761289
0.003761174
0.003761874
0.003761694
0.003678351
0.003678552
0.003784299
0.00376144
0.003761329
0.003762029
0.003761853
0.003678361
0.003678577
0.003784747
0.003761603
0.003761501
0.003762199
0.003762031
0.003678373
0.003678606
0.003761786
0.003762395
0.003678387
0.003754957
0.003755758
0.003694058
0.003679226
0.003692849
0.003688046
0.003756255
0.003756195
0.00369395
0.003686151
0.003696933
0.003685999
0.003756349
0.003756632
0.003693945
0.003687541
0.003698595
0.003684803
0.003756611
0.00375688
0.003693914
0.003686974
0.00370011
0.00368498
0.003756815
0.003757063
0.003693594
0.003686401
0.003701934
0.003684715
0.003756987
0.003757141
0.003693173
0.003685749
0.003703794
0.003683855
0.003757036
0.003757174
0.003692593
0.003685464
0.003705092
0.003683505
0.003756997
0.003757117
0.003691909
0.003684984
0.003705415
0.003683097
0.003756941
0.00375704
0.003691428
0.003684596
0.003704571
0.003682899
0.003756931
0.003756949
0.003691297
0.003684424
0.003704939
0.003683025
0.003756842
0.003756748
0.003691462
0.00368465
0.003703916
0.003683824
0.003756596
0.003756457
0.003692341
0.003685487
0.003700023
0.00368506
0.003756632
0.003756578
0.003694367
0.003686195
0.003695281
0.003687722
0.003769824
0.003841102
0.00380595
0.003694642
0.003684166
0.003904834
0.003798546
0.003756486
0.003756303
0.003698531
0.003687017
0.003694002
0.0036855
0.003776232
0.00432636
0.003758484
0.003756124
0.003756464
0.003697632
0.003684551
0.003688488
0.003683084
0.003727347
0.003751615
0.003739557
0.003756628
0.003755819
0.003693073
0.003681201
0.003692778
0.003681253
0.003705161
0.003737753
0.003730986
0.003756338
0.003755919
0.003696124
0.003680738
0.003697803
0.003679928
0.003733291
0.003731983
0.003739904
0.003756661
0.003756098
0.003691626
0.00368132
0.003697985
0.003679986
0.003763857
0.00374152
0.003749389
0.003757084
0.003756326
0.003693506
0.00368167
0.003703393
0.003680101
0.00380095
0.003751417
0.003760862
0.003757516
0.003756599
0.003695357
0.003681603
0.003706851
0.003680186
0.003858767
0.003763948
0.003787582
0.003757923
0.003756856
0.003696548
0.003681486
0.003707975
0.003680297
0.00399141
0.003937251
0.003799288
0.006488863
0.003872196
0.00396461
0.003851343
0.003758201
0.003697283
0.003681476
0.003774106
0.003699509
0.003683371
0.003774576
0.003688166
0.003689457
0.003684697
0.003907816
0.003799495
0.003694159
0.003685316
0.003905501
0.003799899
0.003754486
0.0043187
0.003754033
0.006406983
0.003869402
0.003796584
0.006437747
0.003870778
0.003775274
0.003696233
0.003688793
0.003775787
0.003688127
0.003691315
0.003684258
0.003903118
0.003798762
0.003693654
0.003684544
0.003900835
0.003799052
0.003755001
0.00431256
0.0037549
0.006407774
0.003870515
0.003796425
0.006425799
0.003871338
0.003775579
0.003697442
0.003691963
0.003776467
0.003689773
0.003691792
0.00368446
0.003902117
0.003799039
0.00369363
0.003684516
0.003899782
0.003799011
0.003755009
0.004311067
0.003755038
0.006413666
0.00387155
0.003796476
0.006422514
0.003871503
0.003776351
0.003699619
0.003692565
0.003776911
0.003694499
0.003692529
0.0036845
0.003900979
0.003799063
0.003693636
0.003684519
0.003899652
0.003799075
0.003755071
0.004309738
0.003755067
0.006419068
0.003871664
0.003796467
0.006422633
0.003871649
0.003776881
0.003701518
0.003692593
0.003776986
0.003691866
0.003693282
0.003684509
0.00390099
0.003799076
0.003693633
0.00368449
0.003899972
0.00379907
0.003755109
0.004309227
0.003755115
0.006422711
0.003871658
0.003796498
0.006418959
0.003871655
0.003776764
0.003691149
0.00369248
0.003776667
0.003698224
0.003692304
0.003684488
0.003901205
0.003799026
0.00369365
0.003684449
0.003901127
0.003799026
0.003755051
0.004311559
0.003755032
0.006421646
0.003871495
0.003796009
0.006407022
0.00387153
0.003776388
0.003688847