/*--------------------------------*- C++ -*----------------------------------*\
  =========                 |
  \\      /  F ield         | OpenFOAM: The Open Source CFD Toolbox
   \\    /   O peration     | Website:  https://openfoam.org
    \\  /    A nd           | Version:  7
     \\/     M anipulation  |
\*---------------------------------------------------------------------------*/
FoamFile
{
    version     2.0;
    format      ascii;
    class       volScalarField;
    location    "0.02";
    object      nut;
}
// * * * * * * * * * * * * * * * * * * * * * * * * * * * * * * * * * * * * * //

dimensions      [0 2 -1 0 0 0 0];

internalField   nonuniform List<scalar> 
105127
(
0.0006234547
0.0005868336
0.000581173
0.0005804382
0.0005802844
0.0006361092
0.0005987091
0.0005945712
0.0005939674
0.0005939064
0.0006386021
0.0006045724
0.0006009383
0.0006004032
0.0006004045
0.0006384569
0.0006046451
0.0006010282
0.0006004903
0.0006005159
0.0006382661
0.0006044454
0.0006008136
0.0006002696
0.0006003054
0.0006381228
0.0006042968
0.0006006601
0.0006001183
0.0006001617
0.0006380089
0.0006041844
0.0006005489
0.0006000115
0.0006000604
0.0006379136
0.0006040923
0.0006004595
0.0005999262
0.0005999806
0.0006378313
0.0006040127
0.000600383
0.0005998531
0.0005999133
0.0006377589
0.0006039428
0.0006003154
0.0005997886
0.0005998519
0.0006376943
0.0006038804
0.0006002549
0.0005997301
0.000599796
0.0006376362
0.0006038243
0.0006002
0.000599677
0.0005997449
0.0006375834
0.0006037733
0.0006001501
0.0005996284
0.0005996978
0.0006375353
0.0006037266
0.000600104
0.0005995836
0.0005996542
0.0006374914
0.0006036836
0.0006000619
0.0005995422
0.0005996137
0.0006374513
0.0006036438
0.000600023
0.0005995039
0.000599576
0.0006374142
0.000603607
0.0005999869
0.0005994683
0.0005995411
0.0006373798
0.0006035729
0.0005999534
0.0005994354
0.0005995089
0.0006373478
0.0006035413
0.0005999225
0.0005994052
0.0005994796
0.0006373182
0.0006035122
0.0005998944
0.0005993781
0.0005994535
0.0006372909
0.0006034861
0.0005998696
0.0005993543
0.00059943
0.0006372669
0.0006034656
0.0005998515
0.0005993358
0.0005994063
0.0006372527
0.0006034648
0.000599858
0.0005993404
0.0005993939
0.0001011052
0.0001011051
0.0001011052
0.0005994483
0.0005994781
0.0001014955
0.0001011239
0.0001011167
0.0001011122
0.0001011091
0.0001011355
0.0001011008
0.0001011061
0.0001010959
0.0001010924
0.0001010908
0.0001011086
0.0001011005
0.0001010951
0.0001010927
0.0001010913
0.0001010905
0.0001010965
0.0001010951
0.0001010941
0.0001010929
0.000101092
0.0001010914
0.0001010935
0.000101093
0.000101092
0.0001010913
0.0001010907
0.0001010903
0.0001010921
0.0001010915
0.0001010911
0.0001010907
0.0001010904
0.0001010901
0.0001010913
0.0001010906
0.0001010904
0.0001010901
0.0001010899
0.0001010897
0.0001010908
0.00010109
0.0001010899
0.0001010897
0.0001010896
0.0001010895
0.0001010904
0.0001010896
0.0001010895
0.0001010894
0.0001010894
0.0001010893
0.0001010901
0.0001010893
0.0001010893
0.0001010892
0.0001010892
0.0001010891
0.0001010899
0.0001010891
0.0001010891
0.000101089
0.000101089
0.000101089
0.0001010897
0.0001010889
0.0001010889
0.0001010889
0.0001010889
0.0001010888
0.0001010896
0.0001010888
0.0001010888
0.0001010888
0.0001010887
0.0001010887
0.0001010895
0.0001010887
0.0001010887
0.0001010887
0.0001010887
0.0001010886
0.0001010894
0.0001010886
0.0001010886
0.0001010886
0.0001010886
0.0001010886
0.0001010893
0.0001010885
0.0001010885
0.0001010885
0.0001010885
0.0001010885
0.0001010892
0.0001010884
0.0001010884
0.0001010884
0.0001010884
0.0001010884
0.0001010891
0.0001010884
0.0001010884
0.0001010884
0.0001010884
0.0001010884
0.0001010891
0.0001010883
0.0001010883
0.0001010883
0.0001010884
0.0001010884
0.000101089
0.0001010883
0.0001010883
0.0001010883
0.0001010883
0.0001010883
0.0001010889
0.0001010883
0.0001010883
0.0001010883
0.0001010883
0.0001010883
0.0001010889
0.0001010882
0.0001010882
0.0001010882
0.0001010882
0.0001010882
0.0001010889
0.0001010882
0.0001010882
0.0001010882
0.0001010882
0.0001010882
0.0001010885
0.0001010882
0.0001010882
0.0001010882
0.0001010882
0.0001010882
0.0001015285
0.0001011157
0.0001011056
0.0001011051
0.0001011047
0.0001011252
0.0001010998
0.0001011049
0.0001010956
0.0001010922
0.0001010908
0.0001011038
0.0001010998
0.0001010951
0.0001010926
0.0001010911
0.0001010902
0.0001010913
0.0001010947
0.0001010939
0.0001010929
0.000101092
0.0001010913
0.0001010906
0.0001010928
0.000101092
0.0001010912
0.0001010906
0.0001010902
0.0001010899
0.0001010913
0.000101091
0.0001010907
0.0001010903
0.00010109
0.0001010896
0.0001010905
0.0001010903
0.0001010901
0.0001010899
0.0001010897
0.0001010894
0.0001010899
0.0001010898
0.0001010897
0.0001010896
0.0001010894
0.0001010893
0.0001010895
0.0001010895
0.0001010894
0.0001010893
0.0001010892
0.0001010892
0.0001010892
0.0001010892
0.0001010892
0.0001010891
0.0001010891
0.0001010891
0.000101089
0.000101089
0.000101089
0.0001010889
0.0001010889
0.000101089
0.0001010889
0.0001010889
0.0001010888
0.0001010888
0.0001010888
0.0001010889
0.0001010887
0.0001010887
0.0001010887
0.0001010887
0.0001010887
0.0001010889
0.0001010886
0.0001010886
0.0001010886
0.0001010886
0.0001010886
0.0001010888
0.0001010885
0.0001010885
0.0001010885
0.0001010885
0.0001010885
0.0001010888
0.0001010885
0.0001010885
0.0001010885
0.0001010885
0.0001010885
0.0001010887
0.0001010884
0.0001010884
0.0001010884
0.0001010884
0.0001010884
0.0001010887
0.0001010884
0.0001010884
0.0001010884
0.0001010884
0.0001010884
0.0001010887
0.0001010883
0.0001010883
0.0001010883
0.0001010883
0.0001010883
0.0001010886
0.0001010883
0.0001010883
0.0001010883
0.0001010883
0.0001010883
0.0001010886
0.0001010882
0.0001010882
0.0001010882
0.0001010882
0.0001010883
0.0001010886
0.0001010882
0.0001010882
0.0001010882
0.0001010882
0.0001010882
0.0001010886
0.0001010882
0.0001010882
0.0001010882
0.0001010882
0.0001010882
0.0001010885
0.0001010882
0.0001010882
0.0001010882
0.0001010882
0.0001010882
0.0001015422
0.0001011155
0.0001011047
0.0001011032
0.0001011024
0.0001011236
0.0001010996
0.0001011049
0.0001010957
0.0001010923
0.0001010908
0.0001011028
0.0001010999
0.000101095
0.0001010925
0.000101091
0.0001010902
0.0001010915
0.0001010948
0.0001010939
0.0001010928
0.0001010919
0.0001010912
0.0001010905
0.0001010928
0.0001010919
0.0001010912
0.0001010906
0.0001010902
0.0001010899
0.0001010913
0.000101091
0.0001010907
0.0001010903
0.00010109
0.0001010896
0.0001010905
0.0001010903
0.0001010901
0.0001010899
0.0001010897
0.0001010894
0.0001010899
0.0001010898
0.0001010897
0.0001010896
0.0001010894
0.0001010892
0.0001010895
0.0001010895
0.0001010894
0.0001010893
0.0001010892
0.0001010891
0.0001010892
0.0001010892
0.0001010892
0.0001010891
0.0001010891
0.000101089
0.000101089
0.000101089
0.000101089
0.0001010889
0.0001010889
0.000101089
0.0001010889
0.0001010889
0.0001010888
0.0001010888
0.0001010888
0.0001010889
0.0001010887
0.0001010887
0.0001010887
0.0001010887
0.0001010887
0.0001010888
0.0001010886
0.0001010886
0.0001010886
0.0001010886
0.0001010886
0.0001010888
0.0001010885
0.0001010885
0.0001010885
0.0001010885
0.0001010885
0.0001010888
0.0001010885
0.0001010885
0.0001010885
0.0001010885
0.0001010885
0.0001010887
0.0001010884
0.0001010884
0.0001010884
0.0001010884
0.0001010884
0.0001010887
0.0001010884
0.0001010884
0.0001010884
0.0001010884
0.0001010884
0.0001010886
0.0001010883
0.0001010883
0.0001010883
0.0001010883
0.0001010883
0.0001010886
0.0001010883
0.0001010883
0.0001010883
0.0001010883
0.0001010883
0.0001010886
0.0001010882
0.0001010882
0.0001010882
0.0001010882
0.0001010883
0.0001010886
0.0001010882
0.0001010882
0.0001010882
0.0001010882
0.0001010882
0.0001010885
0.0001010882
0.0001010882
0.0001010882
0.0001010882
0.0001010882
0.0001010885
0.0001010882
0.0001010882
0.0001010882
0.0001010882
0.0001010882
0.0001015236
0.0001011138
0.0001011045
0.0001011032
0.0001011023
0.0001011235
0.0001010996
0.0001011048
0.0001010956
0.0001010923
0.0001010908
0.0001011027
0.0001010999
0.000101095
0.0001010925
0.000101091
0.0001010902
0.0001010915
0.0001010947
0.0001010938
0.0001010927
0.0001010919
0.0001010912
0.0001010905
0.0001010928
0.0001010919
0.0001010912
0.0001010906
0.0001010902
0.0001010899
0.0001010913
0.000101091
0.0001010906
0.0001010903
0.00010109
0.0001010896
0.0001010905
0.0001010903
0.0001010901
0.0001010899
0.0001010897
0.0001010894
0.0001010899
0.0001010898
0.0001010897
0.0001010896
0.0001010894
0.0001010892
0.0001010895
0.0001010895
0.0001010894
0.0001010893
0.0001010892
0.0001010891
0.0001010892
0.0001010892
0.0001010892
0.0001010891
0.0001010891
0.000101089
0.000101089
0.000101089
0.000101089
0.0001010889
0.0001010889
0.000101089
0.0001010889
0.0001010889
0.0001010888
0.0001010888
0.0001010888
0.0001010889
0.0001010887
0.0001010887
0.0001010887
0.0001010887
0.0001010887
0.0001010888
0.0001010886
0.0001010886
0.0001010886
0.0001010886
0.0001010886
0.0001010888
0.0001010885
0.0001010885
0.0001010885
0.0001010885
0.0001010885
0.0001010888
0.0001010885
0.0001010885
0.0001010885
0.0001010885
0.0001010885
0.0001010887
0.0001010884
0.0001010884
0.0001010884
0.0001010884
0.0001010884
0.0001010887
0.0001010884
0.0001010884
0.0001010884
0.0001010884
0.0001010884
0.0001010886
0.0001010883
0.0001010883
0.0001010883
0.0001010883
0.0001010883
0.0001010886
0.0001010883
0.0001010883
0.0001010883
0.0001010883
0.0001010883
0.0001010886
0.0001010882
0.0001010882
0.0001010882
0.0001010882
0.0001010883
0.0001010886
0.0001010882
0.0001010882
0.0001010882
0.0001010882
0.0001010882
0.0001010885
0.0001010882
0.0001010882
0.0001010882
0.0001010882
0.0001010882
0.0001010885
0.0001010882
0.0001010882
0.0001010882
0.0001010882
0.0001010882
0.0001015239
0.0001011147
0.0001011051
0.0001011038
0.0001011029
0.0001011235
0.0001010996
0.0001011049
0.0001010956
0.0001010923
0.0001010908
0.0001011026
0.0001010998
0.000101095
0.0001010926
0.000101091
0.0001010902
0.0001010915
0.0001010947
0.0001010938
0.0001010927
0.0001010919
0.0001010912
0.0001010905
0.0001010928
0.0001010919
0.0001010912
0.0001010906
0.0001010902
0.0001010899
0.0001010913
0.000101091
0.0001010907
0.0001010903
0.00010109
0.0001010896
0.0001010905
0.0001010903
0.0001010901
0.0001010899
0.0001010897
0.0001010894
0.0001010899
0.0001010898
0.0001010897
0.0001010896
0.0001010894
0.0001010892
0.0001010895
0.0001010895
0.0001010894
0.0001010893
0.0001010892
0.0001010891
0.0001010892
0.0001010892
0.0001010892
0.0001010891
0.0001010891
0.000101089
0.000101089
0.000101089
0.000101089
0.0001010889
0.0001010889
0.000101089
0.0001010889
0.0001010889
0.0001010888
0.0001010888
0.0001010888
0.0001010889
0.0001010887
0.0001010887
0.0001010887
0.0001010887
0.0001010887
0.0001010888
0.0001010886
0.0001010886
0.0001010886
0.0001010886
0.0001010886
0.0001010888
0.0001010885
0.0001010885
0.0001010885
0.0001010885
0.0001010885
0.0001010888
0.0001010885
0.0001010885
0.0001010885
0.0001010885
0.0001010885
0.0001010887
0.0001010884
0.0001010884
0.0001010884
0.0001010884
0.0001010884
0.0001010887
0.0001010884
0.0001010884
0.0001010884
0.0001010884
0.0001010884
0.0001010886
0.0001010883
0.0001010883
0.0001010883
0.0001010883
0.0001010883
0.0001010886
0.0001010883
0.0001010883
0.0001010883
0.0001010883
0.0001010883
0.0001010886
0.0001010882
0.0001010882
0.0001010882
0.0001010882
0.0001010883
0.0001010886
0.0001010882
0.0001010882
0.0001010882
0.0001010882
0.0001010882
0.0001010885
0.0001010882
0.0001010882
0.0001010882
0.0001010882
0.0001010882
0.0001010885
0.0001010882
0.0001010882
0.0001010882
0.0001010882
0.0001010882
0.0001015359
0.0001011159
0.0001011048
0.0001011034
0.0001011025
0.0001011238
0.0001010998
0.0001011053
0.0001010957
0.0001010923
0.0001010908
0.0001011022
0.0001010999
0.000101095
0.0001010926
0.000101091
0.0001010902
0.0001010915
0.0001010948
0.0001010939
0.0001010928
0.0001010919
0.0001010912
0.0001010905
0.0001010928
0.0001010919
0.0001010912
0.0001010906
0.0001010902
0.0001010899
0.0001010913
0.000101091
0.0001010907
0.0001010903
0.00010109
0.0001010896
0.0001010905
0.0001010903
0.0001010901
0.0001010899
0.0001010897
0.0001010894
0.0001010899
0.0001010898
0.0001010897
0.0001010896
0.0001010894
0.0001010892
0.0001010895
0.0001010895
0.0001010894
0.0001010893
0.0001010892
0.0001010891
0.0001010892
0.0001010892
0.0001010892
0.0001010891
0.000101089
0.000101089
0.000101089
0.000101089
0.000101089
0.0001010889
0.0001010889
0.000101089
0.0001010889
0.0001010889
0.0001010888
0.0001010888
0.0001010888
0.0001010889
0.0001010887
0.0001010887
0.0001010887
0.0001010887
0.0001010887
0.0001010888
0.0001010886
0.0001010886
0.0001010886
0.0001010886
0.0001010886
0.0001010888
0.0001010885
0.0001010885
0.0001010885
0.0001010885
0.0001010885
0.0001010888
0.0001010885
0.0001010885
0.0001010885
0.0001010885
0.0001010885
0.0001010887
0.0001010884
0.0001010884
0.0001010884
0.0001010884
0.0001010884
0.0001010887
0.0001010884
0.0001010884
0.0001010884
0.0001010884
0.0001010884
0.0001010886
0.0001010883
0.0001010883
0.0001010883
0.0001010883
0.0001010883
0.0001010886
0.0001010883
0.0001010883
0.0001010883
0.0001010883
0.0001010883
0.0001010886
0.0001010882
0.0001010882
0.0001010882
0.0001010882
0.0001010883
0.0001010886
0.0001010882
0.0001010882
0.0001010882
0.0001010882
0.0001010882
0.0001010885
0.0001010882
0.0001010882
0.0001010882
0.0001010882
0.0001010882
0.0001010885
0.0001010882
0.0001010882
0.0001010882
0.0001010882
0.0001010882
0.0001015354
0.0001011204
0.0001011055
0.0001011038
0.0001011027
0.0001011246
0.0001011008
0.0001011046
0.0001010957
0.0001010923
0.0001010908
0.0001011021
0.0001010998
0.0001010951
0.0001010926
0.0001010911
0.0001010903
0.0001010915
0.0001010948
0.000101094
0.0001010929
0.000101092
0.0001010913
0.0001010905
0.0001010929
0.000101092
0.0001010912
0.0001010906
0.0001010902
0.0001010898
0.0001010913
0.000101091
0.0001010907
0.0001010903
0.00010109
0.0001010896
0.0001010905
0.0001010903
0.0001010901
0.0001010899
0.0001010897
0.0001010894
0.0001010899
0.0001010898
0.0001010897
0.0001010896
0.0001010894
0.0001010892
0.0001010895
0.0001010895
0.0001010894
0.0001010893
0.0001010892
0.0001010891
0.0001010892
0.0001010892
0.0001010892
0.0001010891
0.0001010891
0.000101089
0.000101089
0.000101089
0.000101089
0.0001010889
0.0001010889
0.000101089
0.0001010889
0.0001010889
0.0001010888
0.0001010888
0.0001010888
0.0001010889
0.0001010887
0.0001010887
0.0001010887
0.0001010887
0.0001010887
0.0001010888
0.0001010886
0.0001010886
0.0001010886
0.0001010886
0.0001010886
0.0001010888
0.0001010885
0.0001010885
0.0001010885
0.0001010885
0.0001010885
0.0001010888
0.0001010885
0.0001010885
0.0001010885
0.0001010885
0.0001010885
0.0001010887
0.0001010884
0.0001010884
0.0001010884
0.0001010884
0.0001010884
0.0001010887
0.0001010884
0.0001010884
0.0001010884
0.0001010884
0.0001010884
0.0001010886
0.0001010883
0.0001010883
0.0001010883
0.0001010883
0.0001010883
0.0001010886
0.0001010883
0.0001010883
0.0001010883
0.0001010883
0.0001010883
0.0001010886
0.0001010882
0.0001010882
0.0001010882
0.0001010882
0.0001010883
0.0001010886
0.0001010882
0.0001010882
0.0001010882
0.0001010882
0.0001010882
0.0001010885
0.0001010882
0.0001010882
0.0001010882
0.0001010882
0.0001010882
0.0001010885
0.0001010882
0.0001010882
0.0001010882
0.0001010882
0.0001010882
0.0001015133
0.0001011355
0.0001011245
0.0001011193
0.0001011158
0.0001011287
0.0001011048
0.0001011047
0.0001010966
0.000101093
0.0001010914
0.0001010999
0.0001011
0.0001010953
0.0001010928
0.0001010915
0.0001010906
0.0001010922
0.0001010951
0.000101094
0.0001010928
0.0001010919
0.0001010913
0.000101091
0.000101093
0.0001010921
0.0001010913
0.0001010907
0.0001010903
0.0001010902
0.0001010915
0.0001010911
0.0001010907
0.0001010904
0.0001010901
0.0001010898
0.0001010906
0.0001010904
0.0001010901
0.0001010899
0.0001010897
0.0001010896
0.00010109
0.0001010899
0.0001010897
0.0001010896
0.0001010895
0.0001010894
0.0001010896
0.0001010895
0.0001010894
0.0001010894
0.0001010893
0.0001010893
0.0001010893
0.0001010893
0.0001010892
0.0001010892
0.0001010891
0.0001010891
0.0001010891
0.0001010891
0.000101089
0.000101089
0.0001010889
0.0001010891
0.0001010889
0.0001010889
0.0001010889
0.0001010889
0.0001010888
0.000101089
0.0001010888
0.0001010888
0.0001010888
0.0001010887
0.0001010887
0.0001010889
0.0001010887
0.0001010887
0.0001010887
0.0001010887
0.0001010886
0.0001010889
0.0001010886
0.0001010886
0.0001010886
0.0001010886
0.0001010886
0.0001010888
0.0001010885
0.0001010885
0.0001010885
0.0001010885
0.0001010885
0.0001010888
0.0001010884
0.0001010884
0.0001010884
0.0001010884
0.0001010884
0.0001010887
0.0001010884
0.0001010884
0.0001010884
0.0001010884
0.0001010884
0.0001010887
0.0001010883
0.0001010883
0.0001010883
0.0001010883
0.0001010884
0.0001010887
0.0001010883
0.0001010883
0.0001010883
0.0001010883
0.0001010883
0.0001010886
0.0001010883
0.0001010883
0.0001010883
0.0001010883
0.0001010883
0.0001010886
0.0001010882
0.0001010882
0.0001010882
0.0001010882
0.0001010882
0.0001010886
0.0001010882
0.0001010882
0.0001010882
0.0001010882
0.0001010882
0.0001010885
0.0001010882
0.0001010882
0.0001010882
0.0001010882
0.0001010882
0.0001044588
0.0001024009
0.0001021792
0.0001020421
0.0001019413
0.0001011409
0.0001011464
0.0001011365
0.0001011291
0.0001011262
0.0001011244
0.0001011255
0.0001011358
0.000101125
0.0001011199
0.0001011174
0.0001011157
0.0001011085
0.0001011198
0.0001011184
0.0001011155
0.0001011139
0.0001011127
0.0001011042
0.0001011164
0.0001011155
0.0001011138
0.0001011127
0.0001011119
0.0001011008
0.0001011128
0.0001011132
0.0001011122
0.0001011116
0.000101111
0.0001010989
0.0001011111
0.0001011117
0.0001011111
0.0001011107
0.0001011103
0.0001010975
0.0001011098
0.0001011105
0.0001011102
0.0001011099
0.0001011097
0.0001010965
0.0001011089
0.0001011097
0.0001011094
0.0001011093
0.0001011091
0.0001010957
0.0001011083
0.000101109
0.0001011088
0.0001011088
0.0001011086
0.0001010951
0.0001011078
0.0001011084
0.0001011083
0.0001011083
0.0001011082
0.0001010946
0.0001011074
0.000101108
0.0001011079
0.0001011079
0.0001011079
0.0001010942
0.0001011071
0.0001011076
0.0001011076
0.0001011076
0.0001011076
0.0001010938
0.0001011068
0.0001011073
0.0001011073
0.0001011073
0.0001011073
0.0001010934
0.0001011066
0.000101107
0.000101107
0.000101107
0.000101107
0.0001010931
0.0001011064
0.0001011068
0.0001011068
0.0001011068
0.0001011068
0.0001010929
0.0001011062
0.0001011066
0.0001011066
0.0001011066
0.0001011066
0.0001010926
0.0001011061
0.0001011064
0.0001011064
0.0001011064
0.0001011064
0.0001010924
0.0001011059
0.0001011062
0.0001011062
0.0001011063
0.0001011063
0.0001010922
0.0001011058
0.000101106
0.0001011061
0.0001011061
0.0001011061
0.000101092
0.0001011057
0.0001011059
0.0001011059
0.000101106
0.000101106
0.0001010918
0.0001011056
0.0001011058
0.0001011058
0.0001011059
0.0001011059
0.0001010917
0.0001011055
0.0001011057
0.0001011057
0.0001011057
0.0001011058
0.0001010915
0.0001011052
0.0001011051
0.0001011052
0.0001011052
0.0001011052
0.0002838396
0.0002933035
0.0001059538
0.0001011646
0.0001012446
0.0002946984
0.0002953204
0.000101133
0.000101118
0.000101112
0.000101147
0.0002951039
0.00029508
0.0001011257
0.0001011191
0.0001010998
0.000101113
0.0002949054
0.0002948844
0.0001011078
0.0001011067
0.0001010963
0.000101106
0.0002947404
0.0002947255
0.0001011038
0.0001011024
0.0001010948
0.0001011016
0.0002946065
0.0002945974
0.0001011004
0.0001010993
0.000101094
0.0001010992
0.0002944953
0.0002944893
0.0001010985
0.0001010975
0.0001010934
0.0001010975
0.0002944003
0.0002943963
0.0001010971
0.0001010962
0.0001010929
0.0001010963
0.0002943174
0.0002943148
0.0001010961
0.0001010952
0.0001010926
0.0001010954
0.0002942442
0.0002942426
0.0001010953
0.0001010945
0.0001010923
0.0001010946
0.0002941787
0.0002941778
0.0001010947
0.0001010939
0.000101092
0.000101094
0.0002941195
0.0002941192
0.0001010942
0.0001010933
0.0001010918
0.0001010935
0.0002940657
0.0002940659
0.0001010938
0.0001010929
0.0001010916
0.000101093
0.0002940165
0.0002940171
0.0001010934
0.0001010925
0.0001010914
0.0001010927
0.0002939713
0.0002939721
0.0001010931
0.0001010922
0.0001010913
0.0001010923
0.0002939295
0.0002939304
0.0001010928
0.0001010919
0.0001010912
0.000101092
0.0002938907
0.0002938917
0.0001010925
0.0001010917
0.000101091
0.0001010918
0.0002938547
0.0002938558
0.0001010923
0.0001010914
0.0001010909
0.0001010915
0.0002938213
0.0002938224
0.0001010921
0.0001010912
0.0001010908
0.0001010913
0.00029379
0.0002937912
0.0001010919
0.0001010911
0.0001010907
0.0001010911
0.0002937609
0.0002937622
0.0001010917
0.0001010909
0.0001010906
0.000101091
0.0002937337
0.0002937354
0.0001010916
0.0001010907
0.0001010905
0.0001010908
0.0002937089
0.0002937126
0.0001010914
0.0001010906
0.0001010905
0.0001010907
0.0002936896
0.0001012015
0.0001010914
0.0001010905
0.0001010905
0.0001010904
0.0001069853
0.0001011103
0.0001012381
0.0001068861
0.000101114
0.0001012252
0.000106679
0.0001011107
0.0001012345
0.0001069394
0.0001011122
0.0001012338
0.0001063287
0.0001011116
0.0001012345
0.0001068766
0.0001011121
0.0001012336
0.0001068725
0.0001011118
0.0001012333
0.0001069061
0.0001011127
0.0001012336
0.0001068779
0.0001011122
0.0001012331
0.0001067875
0.0001011124
0.0001012334
0.0001069126
0.0001011121
0.0001012342
0.0001063876
0.0001011124
0.0001012339
0.0001069483
0.0001011123
0.0001012325
0.0001060626
0.0001011134
0.0001012321
0.0001070194
0.0001011164
0.0001012195
0.0001051897
0.0001011216
0.0001012111
0.0001030524
0.0001011812
0.0001012043
0.0003059432
0.000102054
0.0001011928
0.0001011386
0.0003077317
0.0002962108
0.0001017239
0.0001011251
0.0001011207
0.0002952233
0.000295287
0.0001016534
0.0001011191
0.0001011133
0.0002950447
0.0002951524
0.000101144
0.0001011113
0.0001011388
0.0003074507
0.0002958983
0.0001011213
0.0001010998
0.0001011128
0.0002953869
0.0002951116
0.0001011067
0.0001010963
0.0001011059
0.000294927
0.0002948906
0.0001011021
0.0001010948
0.0001011016
0.0002947427
0.0002947278
0.000101099
0.0001010939
0.0001010992
0.0002946078
0.0002945956
0.0001010972
0.0001010934
0.0001010975
0.000294493
0.0002944884
0.0001010959
0.0001010929
0.0001010963
0.0002943989
0.0002943954
0.000101095
0.0001010926
0.0001010954
0.0002943162
0.000294314
0.0001010942
0.0001010923
0.0001010946
0.0002942431
0.0002942417
0.0001010936
0.000101092
0.000101094
0.0002941776
0.0002941769
0.0001010931
0.0001010918
0.0001010935
0.0002941186
0.0002941183
0.0001010927
0.0001010916
0.000101093
0.0002940648
0.000294065
0.0001010923
0.0001010914
0.0001010927
0.0002940157
0.0002940155
0.000101092
0.0001010913
0.0001010923
0.0002939698
0.0002939712
0.0001010917
0.0001010911
0.000101092
0.0002939287
0.0002939295
0.0001010915
0.000101091
0.0001010918
0.00029389
0.0002938908
0.0001010913
0.0001010909
0.0001010915
0.0002938541
0.0002938549
0.0001010911
0.0001010908
0.0001010913
0.0002938206
0.0002938214
0.0001010909
0.0001010907
0.0001010911
0.0002937894
0.0002937902
0.0001010907
0.0001010906
0.000101091
0.0002937602
0.0002937611
0.0001010905
0.0001010905
0.0001010904
0.0002936865
0.0001054006
0.0001015496
0.0001449552
0.0001012238
0.0001447733
0.0001012653
0.0001447782
0.0001011696
0.0001443799
0.0001011936
0.0001443849
0.0001011499
0.0001441185
0.0001011626
0.0001441253
0.0001011398
0.0001439264
0.000101148
0.0001439313
0.0001011328
0.0001437732
0.0001011385
0.000143777
0.0001011276
0.0001436459
0.0001011319
0.0001436486
0.0001011235
0.0001435369
0.0001011268
0.000143539
0.0001011202
0.0001434421
0.0001011229
0.0001434436
0.0001011174
0.0001433582
0.0001011196
0.0001433594
0.000101115
0.0001432833
0.0001011169
0.0001432841
0.0001011129
0.0001432156
0.0001011145
0.0001432163
0.0001011111
0.0001431541
0.0001011125
0.0001431546
0.0001011095
0.0001430978
0.0001011107
0.0001430982
0.0001011081
0.0001430461
0.0001011092
0.0001430463
0.0001011068
0.0001429983
0.0001011078
0.0001429984
0.0001011056
0.0001429541
0.0001011065
0.0001429541
0.0001011046
0.0001429129
0.0001011054
0.0001429129
0.0001011037
0.0001428746
0.0001011044
0.0001428745
0.0001011028
0.0001428388
0.0001011035
0.0001428387
0.0001011021
0.0001428053
0.0001011026
0.0001428052
0.0001011013
0.000142774
0.0001011019
0.0001427739
0.0001011007
0.0001427448
0.0001011012
0.0001427447
0.0001011001
0.0001427175
0.0001011005
0.0001427175
0.0001014524
0.000101467
0.0001014524
0.0001014601
0.0001014566
0.0001014507
0.0001014593
0.0001014575
0.0001014619
0.0001014537
0.0001014617
0.0001014551
0.0001014572
0.000101464
0.0001014665
0.0001014657
0.000101457
0.0001015348
0.0001018236
0.0001011386
0.0001011309
0.000295706
0.0002954826
0.0001015823
0.0001011155
0.00010111
0.000294922
0.0002950736
0.0001010906
0.0001010905
0.0001010908
0.0002937328
0.0002937329
0.0001010904
0.0001010904
0.0001010907
0.0002937065
0.000293711
0.0001015327
0.0001449742
0.0001013734
0.0001450535
0.0001014923
0.0001015006
0.0001012138
0.0001445722
0.0001011951
0.0001445641
0.0001011673
0.0001442584
0.0001011626
0.0001442541
0.0001011491
0.0001440361
0.0001011478
0.0001440322
0.000101139
0.0001438613
0.0001011384
0.0001438579
0.0001011322
0.0001437198
0.0001011318
0.0001437169
0.0001011271
0.0001436002
0.0001011268
0.0001435978
0.0001011231
0.0001434973
0.0001011229
0.0001434952
0.0001011198
0.0001434071
0.0001011196
0.0001434053
0.0001011171
0.000143327
0.0001011169
0.0001433254
0.0001011148
0.0001432551
0.0001011146
0.0001432537
0.0001011127
0.00014319
0.0001011125
0.0001431887
0.0001011109
0.0001431307
0.0001011107
0.0001431295
0.0001011094
0.0001430763
0.0001011092
0.0001430753
0.000101108
0.0001430262
0.0001011078
0.0001430253
0.0001011067
0.0001429798
0.0001011065
0.000142979
0.0001011056
0.0001429369
0.0001011054
0.0001429361
0.0001011045
0.0001428969
0.0001011044
0.0001428962
0.0001011036
0.0001428596
0.0001011034
0.000142859
0.0001011028
0.0001428248
0.0001011026
0.0001428241
0.000101102
0.0001427923
0.0001011018
0.0001427916
0.0001011013
0.0001427619
0.0001011011
0.0001427612
0.0001011006
0.0001427335
0.0001011005
0.0001427328
0.0001011
0.0001013568
0.0001427064
0.0001010998
0.0001014604
0.0001014629
0.0001014605
0.0001014622
0.0001014552
0.0001014555
0.0001014622
0.0001014607
0.0001014546
0.0001014543
0.0001014656
0.000101463
0.0001014626
0.0001014581
0.000101478
0.0001014785
0.0001014773
0.0001482756
0.0001011748
0.000144391
0.0001011641
0.0001444599
0.0001011391
0.0001444147
0.0001011861
0.0001442887
0.0001011696
0.0001443809
0.0001011962
0.0001443813
0.0001011668
0.0001442576
0.0001011623
0.000144256
0.0001011498
0.000144119
0.0001011628
0.0001441248
0.0001011491
0.0001440359
0.0001011477
0.0001440318
0.0001011398
0.000143927
0.000101148
0.0001439313
0.000101139
0.0001438613
0.0001011384
0.0001438579
0.0001011328
0.0001437736
0.0001011385
0.0001437906
0.0001011276
0.0001436594
0.0001011319
0.0001436485
0.0001011271
0.0001436
0.0001011269
0.0001435976
0.0001011235
0.0001435369
0.0001011268
0.0001435387
0.0001011231
0.000143497
0.0001011229
0.0001434949
0.0001011202
0.0001434419
0.0001011228
0.0001434433
0.0001011198
0.0001434067
0.0001011196
0.0001434049
0.0001011174
0.000143358
0.0001011196
0.000143359
0.0001011171
0.0001433266
0.0001011169
0.000143325
0.000101115
0.0001432831
0.0001011168
0.0001432838
0.0001011148
0.0001432547
0.0001011146
0.0001432533
0.0001011129
0.0001432153
0.0001011145
0.0001432158
0.0001011127
0.0001431895
0.0001011125
0.0001431883
0.0001011111
0.0001431537
0.0001011125
0.0001431541
0.0001011109
0.0001431303
0.0001011107
0.000143129
0.0001011095
0.0001430975
0.0001011107
0.0001430978
0.0001011081
0.0001430592
0.0001011092
0.0001430459
0.000101108
0.0001430257
0.0001011078
0.0001430249
0.0001011068
0.000142998
0.0001011078
0.0001429981
0.0001011067
0.0001429794
0.0001011065
0.0001429786
0.0001011056
0.0001429536
0.0001011065
0.0001429536
0.0001011056
0.0001429364
0.0001011054
0.0001429356
0.0001011046
0.0001429125
0.0001011054
0.0001429125
0.0001011045
0.0001428964
0.0001011044
0.0001428958
0.0001011037
0.0001428742
0.0001011044
0.0001428741
0.0001011036
0.0001428591
0.0001011035
0.0001428585
0.0001011028
0.0001428383
0.0001011035
0.0001428382
0.0001011021
0.000142805
0.0001011026
0.0001428048
0.000101102
0.0001427919
0.0001011019
0.0001427912
0.0001011
0.0001460659
0.0001427046
0.0001010999
0.0001010913
0.0001011983
0.0001010913
0.0001010903
0.0001010903
0.0001053146
0.0001010995
0.0001013513
0.0001426958
0.0001010998
0.0001010996
0.0001460564
0.0001426918
0.0001010999
0.0001031196
0.0001431738
0.0001040532
0.0001040829
0.000104111
0.0001041467
0.000104172
0.0001041655
0.0001041016
0.0001041798
0.0001041454
0.0001041949
0.0001041885
0.0001041305
0.0001041353
0.0001040891
0.0001040605
0.0001040387
0.0001038419
0.0001040022
0.0001040922
0.0001039983
0.000104078
0.0001041276
0.0001041515
0.0001040307
0.0001041217
0.0001041302
0.0001042118
0.000104162
0.0001042041
0.0001041088
0.0001041989
0.000104172
0.000104164
0.0001041568
0.0001040238
0.0001040963
0.0001030128
0.0001429911
0.0001013609
0.0001457384
0.0001013405
0.0001508551
0.0001013354
0.0001455099
0.0001013804
0.0001505538
0.0001012634
0.0001453753
0.0001012689
0.0001450812
0.0001011888
0.0001449052
0.0001012313
0.0001448736
0.0001011601
0.0001441836
0.0001011466
0.0001442996
0.0001011306
0.0001442736
0.0001011733
0.0001441246
0.0001012282
0.0001450606
0.0001013
0.0001448222
0.0001012074
0.0001445743
0.0001011983
0.0001446225
0.0001013024
0.0001506593
0.0001506384
0.0001013092
0.0001012618
0.0001504339
0.0001012911
0.0001504395
0.0001012533
0.0001503654
0.0001503495
0.0001012559
0.0001011322
0.0001437333
0.0001011319
0.0001437304
0.0001011791
0.0001497599
0.0001011911
0.0001497607
0.0001011784
0.0001497319
0.0001497206
0.0001011804
0.0001011706
0.0001496547
0.0001011806
0.000149655
0.00010117
0.0001496304
0.0001496199
0.0001011721
0.0001011587
0.0001494802
0.0001011659
0.0001494796
0.0001011581
0.0001494612
0.0001494519
0.0001011601
0.0001011543
0.0001494064
0.0001011605
0.0001494054
0.0001011539
0.0001493893
0.0001493804
0.0001011557
0.0001011507
0.0001493394
0.0001011561
0.0001493383
0.0001011503
0.0001493239
0.0001493155
0.000101152
0.0001011474
0.0001492642
0.0001492561
0.0001011489
0.0001011094
0.0001430894