/*--------------------------------*- C++ -*----------------------------------*\
  =========                 |
  \\      /  F ield         | OpenFOAM: The Open Source CFD Toolbox
   \\    /   O peration     | Website:  https://openfoam.org
    \\  /    A nd           | Version:  7
     \\/     M anipulation  |
\*---------------------------------------------------------------------------*/
FoamFile
{
    version     2.0;
    format      ascii;
    class       surfaceScalarField;
    location    "0.02";
    object      phi;
}
// * * * * * * * * * * * * * * * * * * * * * * * * * * * * * * * * * * * * * //

dimensions      [0 3 -1 0 0 0 0];

internalField   nonuniform List<scalar> 
233911
(
-0.001829951
0.001782573
-4.06486e-05
8.802295e-05
-0.001975212
0.001851483
5.720885e-05
6.651806e-05
-0.001993328
0.001884856
4.939162e-05
5.907907e-05
-0.002020488
0.001910072
5.12096e-05
5.920619e-05
-0.002036962
0.001925995
5.302295e-05
5.794352e-05
-0.002049776
0.001938422
5.300735e-05
5.834673e-05
-0.002062391
0.001951011
5.30206e-05
5.835942e-05
-0.002076127
0.001964956
5.273123e-05
5.843917e-05
-0.002091942
0.001981359
5.213726e-05
5.844565e-05
0.03724073
0.0007677924
0.0001033088
-0.00137082
0.001705487
-0.0009607875
9.00998e-05
-0.008573079
-0.009260058
-0.009796733
-0.009945984
0.03620702
-0.001189168
0.0007763838
-0.001493063
0.002033735
9.771482e-05
0.0008080931
0.03668505
-0.0004262689
-0.0002617719
-0.001715009
0.001839577
-0.0002729651
0.0003583928
0.03692832
-0.0006173327
-1.225105e-05
-0.001711061
0.001883308
-0.0002034319
0.0004174912
0.03721844
-0.0005152467
-3.448692e-05
-0.00173945
0.001877341
-0.0002529542
0.0003746776
0.03748496
-0.000556846
-1.400767e-05
-0.001740533
0.001895732
-0.0002417147
0.0003908479
0.0377683
-0.0005782529
-1.986418e-05
-0.00174758
0.001909483
-0.0002407894
0.0003936708
0.03807782
-0.0006396059
-2.488502e-05
-0.001750049
0.001930638
-0.0002321974
0.0004065774
-0.0007490721
-2.565071e-05
-0.001748488
-0.0002176197
0.03843145
0.001959778
0.000427431
0.03785137
-0.0001099015
0.002399747
-0.009489846
-0.009480685
-0.01015706
-0.01024587
0.03644707
-0.001122576
0.0013377
0.03653794
-0.0008082251
0.0002910727
0.03674949
-0.0009103848
8.150076e-05
0.03699166
-0.0008079726
5.055845e-05
0.03725767
-0.0008268316
3.972697e-06
0.03751479
-0.0008267022
-8.664079e-06
0.03776933
-0.0008757146
-1.843088e-05
-0.0009889136
-2.336575e-05
0.03803254
0.03796001
-0.0007105209
0.002723361
-0.009532587
-0.009652004
-0.01043059
-0.01046761
0.03689366
-0.00126522
0.00120898
0.03654675
-0.001094743
0.0006334204
0.03669327
-0.001145833
8.893227e-05
0.03688368
-0.001080812
8.242412e-05
0.03710134
-0.001061551
1.706082e-05
0.03730703
-0.001042181
9.793209e-06
0.0374768
-0.001044227
-1.256679e-06
-0.00110626
-1.425033e-06
0.03759557
0.0377723
-0.00128971
0.00340203
-0.009631249
-0.009761012
-0.01058547
-0.01061745
0.03676767
-0.001480483
0.001219877
0.03626964
-0.001424464
0.000827745
0.0364955
-0.001454176
8.248201e-05
0.03669601
-0.001385441
0.0001041149
0.03694597
-0.001324213
1.270186e-05
0.03713213
-0.001237819
9.475697e-06
0.0372317
-0.001138938
-4.862173e-06
-0.00106698
-3.776757e-06
0.0371962
0.037663
-0.001751524
0.003742044
-0.009714312
-0.009835414
-0.01068001
-0.01071354
0.03686895
-0.001762207
0.00107575
0.03630788
-0.001724097
0.0008607064
0.03650714
-0.001744494
9.105191e-05
0.03670291
-0.001690159
0.0001089476
0.03696285
-0.001597041
1.289186e-05
0.0371452
-0.001431094
1.092275e-05
0.03719054
-0.001183676
-6.102691e-07
-0.0008936492
-4.574658e-08
0.03701726
0.03759736
-0.002053632
0.003847154
-0.009778385
-0.009879598
-0.01072343
-0.01076104
0.0368289
-0.002019398
0.001025634
0.03623875
-0.0020335
0.0008995538
0.03650518
-0.002086872
7.593922e-05
0.03675827
-0.002054808
0.0001115655
0.03709634
-0.001941029
5.916653e-06
0.03734445
-0.00168897
9.764188e-06
0.03742133
-0.001257494
-3.06953e-06
-0.0006689191
-3.247315e-06
0.03719985
0.03751661
-0.002315217
0.003946485
-0.009779626
-0.009896254
-0.01073954
-0.01078613
0.0367789
-0.002276919
0.0009952132
0.0362102
-0.002355026
0.0008902225
0.03654038
-0.002490121
7.306959e-05
0.03688798
-0.002509416
0.0001070069
0.03736114
-0.002418941
4.748195e-06
0.03776803
-0.002103145
7.282154e-06
0.03796987
-0.001455484
-3.853745e-06
-0.0004978276
-7.380021e-06
0.03780616
0.03744827
-0.002504233
0.003903207
-0.009748951
-0.009900886
-0.0107302
-0.01078247
0.03669045
-0.002506909
0.000987794
0.03614129
-0.002688193
0.0008823235
0.0365375
-0.002960956
7.462377e-05
0.03702659
-0.003105979
0.0001074713
0.03773751
-0.003129179
-6.847357e-07
0.03843645
-0.002812623
1.053341e-05
0.03890213
-0.001916225
-4.938776e-06
-0.0004956546
-7.728686e-06
0.03890768
0.03732654
-0.002569709
0.003804432
-0.009721246
-0.009878397
-0.01070652
-0.01075938
0.0365163
-0.002685903
0.0009892214
0.03596891
-0.003010282
0.0008694723
0.03643698
-0.003506856
7.783048e-05
0.03712225
-0.003888923
9.767455e-05
0.03818574
-0.004189427
-3.245621e-06
0.03938582
-0.004008822
-3.889048e-06
0.04028096
-0.00279797
-1.339963e-05
-0.000813537
-2.949672e-05
0.04062834
0.03710584
-0.002483964
0.003735241
-0.009697437
-0.009816771
-0.01068138
-0.01073128
0.03618272
-0.00273822
0.0009754254
0.03558013
-0.003286151
0.0008784516
0.03612674
-0.004119563
6.609403e-05
0.03703488
-0.004870302
7.323192e-05
0.03864937
-0.005778668
-2.524392e-05
0.04068804
-0.006070647
2.31491e-05
0.04230492
-0.004397495
-1.735834e-05
-0.001447586
1.00804e-05
0.04292889
0.03679164
-0.002165409
0.003580867
-0.009642154
-0.009712837
-0.0106484
-0.01068771
0.03568561
-0.002587585
0.0009553784
0.03493126
-0.003385937
0.0008541248
0.03541713
-0.004656822
5.139819e-05
0.036449
-0.005892082
-1.009918e-05
0.03890311
-0.008021663
-0.0002111064
0.04234609
-0.009257811
-0.0002558273
0.04484703
-0.006883418
-1.501287e-05
-0.002536888
-8.411962e-05
0.04602045
0.03615214
-0.001615911
0.003681343
-0.009549388
-0.009589236
-0.01059518
-0.01064922
0.03479393
-0.002174913
0.0009455173
0.03380461
-0.003214854
0.0008182348
0.03418269
-0.005033595
-1.304738e-06
0.03546538
-0.007004711
-0.000170069
0.03876651
-0.01059238
-0.0007304097
0.04479187
-0.005134306
-0.0001762786
-0.001709308
-0.004965446
-0.00329783
0.04959172
-0.005748114
0.000331045
0.0003705789
-0.004971824
-0.001664956
-0.003435005
0.0006705259
-0.001792029
0.05013068
0.001611981
-0.0001313136
0.03550782
-0.000599286
0.003686024
-0.00954177
-0.009571468
-0.01052889
-0.01056838
0.03366825
-0.001233753
0.0008983922
0.03214618
-0.002518748
0.000825957
0.03170345
-0.004557172
-3.369439e-05
0.03271612
-0.007618574
-0.0003988027
0.00946756
-0.01281338
-0.001592316
0.007361665
0.01019302
0.009507188
0.01008067
-0.005368523
-0.0003788941
0.01444357
-9.468899e-05
-0.01369515
-0.00138399
-0.002299625
-0.002189826
-0.0005284024
-0.01590921
-9.299216e-06
-0.0008314839
-0.0003072408
-0.0002600821
0.000233999
0.01364832
0.03481083
0.0007933509
0.003554627
-0.009509326
-0.00941708
-0.01039882
-0.01043291
0.03242476
0.0002555
0.0008967967
0.02998469
-0.0008634869
0.0007848042
0.02801947
-0.002562158
-2.978957e-05
0.02624901
-0.00544558
-0.0004025357
0.007262282
-0.009956961
-0.001739557
0.004513713
0.007749607
0.005606537
0.006478805
-0.005103346
-0.0006074249
0.001644
0.001843707
0.001922819
0.00108372
0.001074174
-0.0004385818
0.000240768
-0.0008515387
-2.482113e-05
0.03414013
0.002583089
0.003285299
-0.00932265
-0.009327695
-0.01032383
-0.01024102
0.03111965
0.00231903
0.0009569424
0.02795046
0.00154379
0.000761902
0.02502658
0.0004247363
-6.301252e-05
0.02134977
-0.001288872
-0.0004799057
0.004601475
-0.003811137
-0.001411026
0.003331141
0.004687711
0.003994647
0.00431051
-0.002692618
-0.0002770345
0.0008020519
0.0009277821
0.0009593076
0.0005714743
0.0004241616
-0.0001457587
4.935765e-05
-0.0003184973
-9.263128e-06
0.03373294
0.004684253
0.002946933
-0.009429323
-0.009007463
-0.01019978
-0.0101445
0.03041194
0.004693009
0.0009470094
0.02689421
0.004423862
0.0006376489
0.02327143
0.004096105
-4.858157e-05
0.0188084
0.003575366
-0.0004012203
0.003295075
0.002810061
-0.00116951
0.003101599
0.003573281
0.003386761
0.001745796
-0.000525611
-0.0001281095
0.0005713382
0.0005601152
0.0006202949
0.0004512516
0.0001618212
-7.282967e-05
2.646575e-05
-0.0001115408
-3.916268e-06
0.03318741
0.006811214
0.00304155
-0.009259882
-0.008814948
-0.01019386
-0.01008725
0.02992194
0.007083564
0.0008749002
0.02643991
0.007435718
0.0004701684
0.02260378
0.007982477
-5.02507e-05
0.01795912
0.008662919
-0.0004428872
0.002584448
0.009533072
-0.00100305
0.0032511
0.003082461
0.003321151
-0.0006048593
0.00149162
-6.008437e-05
0.0004889157
0.0003609977
0.0004618624
0.0004459963
-3.455523e-05
-2.426338e-05
1.234703e-05
4.190255e-05
4.569078e-06
0.03316125
0.008850598
0.003231936
-0.009307775
-0.008698271
-0.01031384
-0.01011272
0.03016951
0.009335725
0.0007395671
0.02693146
0.01032998
0.0003437874
0.02324801
0.01172005
-5.412041e-05
0.01866205
0.01369343
-0.0004445545
0.002320411
0.01633335
-0.001000058
0.003792793
0.003070515
0.003678114
-0.002826912
0.003477245
-2.702148e-05
0.000498507
0.0002637585
0.0004188259
0.000516009
-0.0002073287
5.551697e-06
8.046584e-06
0.0001842927
9.437698e-06
0.03351131
0.01048699
0.003520737
-0.009409551
-0.008656028
-0.01042426
-0.01017863
0.03096689
0.01113943
0.0007406999
0.02828439
0.01274334
0.0002691327
0.02513007
0.01495548
-8.111806e-05
0.02109633
0.018387
-0.0006598294
0.002455517
0.0231637
-0.001098921
0.004836332
0.003523024
0.004550019
-0.005118354
0.005649239
-3.227247e-05
0.0005864243
0.0002284666
0.0004726129
0.0006694006
-0.000385539
2.287806e-05
9.549983e-06
0.0003404267
1.268429e-05
0.03455817
0.01157932
0.003441984
-0.009544998
-0.008691522
-0.01057795
-0.01027805
0.03261249
0.0123577
0.0007274023
0.03065292
0.01438025
0.0003226624
0.02844184
0.01725104
-8.447814e-05
0.02561901
0.0217685
-0.0005586795
0.003358223
0.02888611
-0.001811515
0.007001743
0.004809941
0.0065382
-0.007744469
0.008347014
-0.000249657
0.0009100679
0.0003446582
0.0007198402
0.001030769
-0.0006072608
2.579398e-05
2.024137e-05
0.0005485192
1.270627e-05
0.03579595
0.003401208
-0.009708584
-0.008793795
-0.01075388
-0.01041301
0.01205141
0.03463273
0.0007777007
0.01274321
0.03387115
0.0003430679
0.01479876
0.03342601
-3.153633e-05
0.01772771
0.03372566
-0.0006454508
0.0221143
0.005815594
-0.002166597
0.0108296
0.007837817
0.01128438
0.02901098
-0.01075288
0.01067494
-0.000367608
0.001911657
0.0008584438
0.001531492
0.001959548
-0.000964894
-2.659981e-05
7.009253e-05
0.000909197
1.220302e-05
-0.01157151
-0.0002987638
0.002441748
0.003421782
0.003435987
0.003239431
-0.009913764
0.009245087
-0.001165971
-0.004291178
0.006151851
7.701121e-05
0.003944181
-0.001460953
-0.001320161
-0.001934779
-8.107488e-05
-0.005656989
0.00512064
0.0001553339
0.0001396794
0.0001845307
7.030981e-05
6.757418e-05
0.0001133314
-0.002102417
0.008704961
0.0006532717
-0.0001571309
-0.002571293
-0.002095712
-0.002545009
0.03726385
-5.970734e-05
0.0003688012
-0.001195229
0.001764907
-0.0007644373
0.0002009726
-0.008277823
-0.01046529
-0.00859171
-0.01024434
0.03662325
0.00017327
-1.798503e-05
-0.001664784
0.00185773
-0.0002010782
0.0004934435
0.03700904
-0.0004057428
0.0001109016
-0.001800926
0.001793737
-0.0003768127
0.0002930586
0.03717685
-0.0002522049
6.68198e-05
-0.001798981
0.00181916
-0.0003462728
0.0003436638
0.03746847
-0.000313495
4.338323e-05
-0.001812357
0.001825214
-0.0003603534
0.0003259916
0.03775654
-0.00030888
2.300467e-05
-0.001818957
0.001839095
-0.0003568741
0.0003345349
0.03809273
-0.0003484513
1.44688e-05
-0.001829209
0.001851647
-0.0003593628
0.0003347264
-0.000413037
9.499163e-06
-0.001840868
-0.000363366
0.03850037
0.001866328
0.0003338012
-0.0005019407
-0.0005126823
0.009495731
-0.0007956175
-0.0006824646
0.0008467565
-0.0005432585
0.0008505412
0.0006971737
-0.0005557173
0.0006326906
0.04109651
-0.0005963877
0.0005410911
-0.0002543096
0.001043446
-0.0001868507
0.001066462
-0.01052978
-0.0105268
-0.01042699
-0.01112308
0.04304892
-0.001363185
0.0001274476
0.04302631
-0.0003323725
0.0002664848
0.04333752
-0.0007342275
5.026132e-06
0.04353545
-0.0005572854
7.266112e-05
0.04382317
-0.0006377227
2.250315e-05
0.04413644
-0.0006521603
1.014963e-05
0.04449329
-0.0007245253
-5.665364e-06
-0.0008482686
-1.185145e-05
0.04491473
-0.0006397406
0.0003824997
0.009294716
-0.0002712379
-0.001055836
0.001068531
-0.000483635
0.001086686
0.04277265
-0.0006246725
0.005052103
-0.01092225
-0.01102785
-0.01162061
-0.011826
0.04355544
-0.001396784
0.0005885049
0.04299106
-0.0006641709
0.001187247
0.04326643
-0.001061164
0.0001330704
0.04344337
-0.0008927843
0.0002091134
0.04370606
-0.000960687
6.424797e-05
0.04398871
-0.0009604417
1.697552e-05
0.04428407
-0.001022712
-1.560227e-05
-0.001152963
-2.517495e-05
0.04459058
-0.0005744179
0.0003352151
0.009559558
-0.000269542
-0.001450322
0.001178125
-0.0004081478
0.001212012
0.04184919
-0.001102398
0.007537686
-0.01117951
-0.01120399
-0.01144972
-0.01235258
0.04323015
-0.001754081
0.0001853099
0.04263776
-0.001125182
0.001686823
0.04289603
-0.001362355
0.0001318591
0.04306065
-0.001233278
0.0002582925
0.04328514
-0.001244349
7.62358e-05
0.04352494
-0.001215626
2.517605e-05
0.04372801
-0.0012178
-9.230478e-06
-0.001285693
-1.355036e-05
0.04387287
-0.0005574482
0.0003223708
0.009628826
-0.0002735239
-0.001591332
0.001217835
-0.0003850322
0.001244383
0.04186943
-0.001738306
0.008739491
-0.01127083
-0.01129222
-0.01147993
-0.01252801
0.04318824
-0.002010323
0.0001573021
0.04247427
-0.001584367
0.002000903
0.04267675
-0.001689889
0.0002075338
0.04283793
-0.00157997
0.0002896236
0.04304892
-0.001547603
0.0001049668
0.04324971
-0.001438839
3.190609e-05
0.04336062
-0.001326003
-7.57087e-06
-0.001240565
-1.245994e-05
0.04332418
-0.0005342085
0.0003364253
0.009640781
-0.0002908209
-0.001679111
0.001242969
-0.0003632978
0.001253084
0.04197156
-0.002142861
0.008869957
-0.01129916
-0.01133045
-0.01150439
-0.01256092
0.0432593
-0.002218284
-4.038708e-06
0.04242504
-0.002012465
0.002123057
0.04261037
-0.002040349
0.0002561892
0.04276777
-0.001955941
0.0003275149
0.0429958
-0.001864798
0.0001020579
0.04320162
-0.001665711
3.197053e-05
0.04326272
-0.001378074
-9.631505e-06
-0.001037237
-1.246979e-05
0.04307181
-0.0005158683
0.0003488831
0.009622065
-0.0003108296
-0.001707285
0.001253957
-0.0003466779
0.001261538
0.04192968
-0.002458183
0.008864284
-0.01129442
-0.01133894
-0.01150619
-0.01249193
0.04324151
-0.002448508
-5.598143e-05
0.04240988
-0.002406039
0.002124755
0.04261904
-0.002432426
0.0002588594
0.04282787
-0.002389351
0.0003361434
0.04313457
-0.002262508
9.692151e-05
0.04341214
-0.001962517
2.90026e-05
0.0435085
-0.001461632
-1.587555e-05
-0.0007771216
-1.900431e-05
0.04326414
-0.000503578
0.0003618438
0.009570804
-0.00034092
-0.001647291
0.001247331
-0.0003395456
0.001257157
0.04198754
-0.002617376
0.008617461
-0.01125101
-0.01131853
-0.01150757
-0.01242221
0.04322628
-0.002694277
2.232311e-06
0.04239752
-0.002760398
0.002073339
0.04265175
-0.002875416
0.0002618287
0.04295451
-0.002918309
0.0003332054
0.04342429
-0.002809489
8.194338e-05
0.04389545
-0.002444472
1.808228e-05
0.04414324
-0.001690057
-2.322271e-05
-0.0005875825
-2.807567e-05
0.04397439
-0.0004879768
0.0003876955
0.009525136
-0.0003787949
-0.001597691
0.00123843
-0.0003346285
0.00125364
0.04191553
-0.002684193
0.008489839
-0.01122459
-0.01131305
-0.01150894
-0.01238876
0.04312689
-0.002895328
-2.252407e-05
0.04231615
-0.003108993
0.002041657
0.04266248
-0.003400771
0.0002536473
0.04314325
-0.003613259
0.0003216562
0.04387355
-0.003606883
6.640865e-05
0.04467336
-0.003241687
7.930089e-06
0.04524688
-0.002233676
-3.484177e-05
-0.0005934654
-4.066666e-05
0.0452857
-0.0004758229
0.0004124515
0.009498929
-0.0004032263
-0.001573247
0.001234742
-0.0003321318
0.001244126
0.04169057
-0.002726228
0.008546819
-0.01121528
-0.01130394
-0.01150351
-0.01236819
0.04288039
-0.003088177
-7.762534e-06
0.04205475
-0.003465051
0.00205117
0.04251406
-0.004020467
0.0002382189
0.04322224
-0.004514697
0.0002909299
0.04438315
-0.004799117
2.807685e-05
0.04579349
-0.004624197
-3.171416e-05
0.04688765
-0.003278327
-6.291445e-05
-0.001019
-7.499025e-05
0.04735868
-0.0004732601
0.0004362613
0.009490107
-0.0004124445
-0.001572671
0.001233192
-0.0003344458
0.00123908
0.04135762
-0.002668052
0.00867463
-0.01119544
-0.01128822
-0.01149558
-0.01237595
0.042483
-0.003182596
-5.555017e-05
0.04160708
-0.003774636
0.00206396
0.04218435
-0.004720157
0.000188518
0.04318583
-0.005673662
0.0002307175
0.04495356
-0.006534665
-5.742639e-05
0.04729195
-0.00687149
-6.794738e-05
0.04929952
-0.005218076
-8.518734e-05
-0.001807787
-5.027153e-05
0.05014866
-0.0004797609
0.0004390279
0.009512021
-0.0003818815
-0.001637496
0.001238665
-0.0003354604
0.001250704
0.04089621
-0.002338723
0.008697449
-0.01116987
-0.01124178
-0.01147885
-0.01245163
0.04184682
-0.003034397
-0.0001434384
0.04078014
-0.003919713
0.002065878
0.04137345
-0.005366418
0.0001043528
0.04262564
-0.007040533
0.0001045824
0.04529451
-0.009171248
-0.0002433922
0.04926024
-0.01081503
-0.0002780167
0.05241075
-0.008311197
-7.240337e-05
-0.003359415
-0.0001666401
0.0540449
-0.0005050663
0.0003960483
0.009562162
-0.0003142968
-0.001701956
0.001251577
-0.0003502891
0.001267645
0.04024981
-0.001723389
0.009106506
-0.01113661
-0.0112003
-0.01146595
-0.01248744
0.04090534
-0.002532703
-0.0002117112
0.03950456
-0.00377313
0.00207243
0.039934
-0.005809355
1.21831e-05
0.04140043
-0.008606033
-7.099338e-05
0.0449807
-0.01287918
-0.0006027407
0.05141376
-0.005353185
-6.434058e-06
-0.003537041
-0.005115961
-0.003411751
0.05732772
-0.005245521
0.0001050825
-0.001850795
-0.005070202
-0.001832674
-0.001856122
0.0003686599
-0.00174838
0.05834927
-0.0003835888
-9.101729e-05
-0.0005497865
0.0003090876
0.009629074
-0.0001703459
-0.001694403
0.00124381
-0.000419817
0.001258209
0.03933737
-0.0005651097
0.008980341
-0.01108082
-0.01112977
-0.01150303
-0.01207635
0.03955305
-0.00146128
-0.0003887242
0.0375894
-0.002976412
0.00199289
0.03722115
-0.005337388
-0.0001374115
0.03766086
-0.00910685
-0.0003377068
0.01032623
-0.01498873
-0.001182867
0.009630568
0.009989603
0.009414555
0.0002294811
0.01131863
-0.006393076
-0.0001819908
0.000206525
0.01614962
-6.921015e-05
-0.01357318
-0.001372368
-0.002633744
-0.001383054
-0.002570108
-0.01595264
9.568683e-05
-0.001444293
-0.0001172777
0.01556241
-0.0006037577
3.749365e-05
0.009587681
0.0001613134
-0.001543197
0.001202466
-0.0004716388
0.001235466
0.03848829
0.001272192
0.00871675
-0.01096299
-0.01095766
-0.01124442
-0.01232265
0.03789018
0.000410181
-0.000376561
0.0347818
-0.001063184
0.001979953
0.03265278
-0.003079465
-0.0001587026
0.02988097
-0.006383365
-0.0003542128
0.007644714
-0.01146088
-0.001119059
0.005448454
0.00741897
0.005220485
0.0002485046
0.006882551
-0.006028059
-0.0001514951
0.001495132
0.001859373
0.0015346
0.001804108
-1.745261e-06
0.001006391
-0.0005208329
0.0005013057
-0.0009857428
6.241748e-07
-0.0004053218
-0.0003284258
0.009560071
0.0005337164
-0.001612472
0.001169064
-0.0005122992
0.001201492
0.03751337
0.002961634
0.009147081
-0.01098258
-0.01084849
-0.0118167
-0.01141683
0.03632423
0.002791439
-0.0002351818
0.03251224
0.001699958
0.001810739
0.02910562
0.0005137215
-0.0002495776
0.02433081
-0.001566121
-0.0005223524
0.004596031
-0.004445349
-0.00105739
0.003988344
0.004442285
0.003934979
0.0001229044
0.004463083
0.00302687
-0.002930916
-8.591165e-05
0.0003796811
0.001562716
-0.002804344
5.136317e-05
-0.000760496
-0.0001521772
0.001723255
-0.0003655194
-0.000685594
0.009357908
0.000830411
-0.00106106
0.0009558917
-0.0003650609
0.000938848
0.03722432
0.005213735
0.007656423
-0.01087544
-0.01069409
-0.01170335
-0.01091303
0.03545302
0.00548561
2.412571e-05
0.03117238
0.005045176
0.001573064
0.02706272
0.004806162
-0.0002313673
0.02139919
0.004131455
-0.0004352701
0.003510976
0.00315698
-0.001027537
0.003314817
0.003517994
0.003311098
4.160245e-05
0.001758533
0.002220278
-0.000592947
8.350944e-05
1.036782e-05
0.001680219
-0.0009137558
-0.0006347465
-5.749171e-05
-8.459345e-05
-0.0003872952
-0.001026389
0.009300728
0.001148012
-0.0004186786
0.000723899
-0.0003785211
0.000644067
0.03715041
0.007648875
0.006882675
-0.01085972
-0.01053516
-0.01128205
-0.01074974
0.03516238
0.008230238
0.0001182919
0.03077078
0.008579029
0.001327916
0.02637977
0.009351974
-0.0002050528
0.020344
0.01023727
-0.0005129291
0.002966211
0.01118885
-0.0007851627
0.003171934
0.002904059
0.003052037
-2.523866e-05
-0.0005853806
0.00168886
0.001694463
0.0001935089
-6.831062e-05
-0.000274076
-0.000610373
0.0009742341
-2.166496e-05
1.90329e-07
-0.0004575667
-0.001392867
0.009209034
0.00144592
0.0001465222
0.0005858993
-0.0004279929
0.0004968679
0.03793399
0.01004068
0.005862467
-0.01079198
-0.01038008
-0.01115609
-0.01062817
0.03573004
0.01087545
0.0002982895
0.03145233
0.01198734
0.001213195
0.02718678
0.01373323
-0.0001698355
0.02130322
0.01616639
-0.0004901142
0.003049238
0.01918664
-0.0005691217
0.003627441
0.002921745
0.00327607
-8.471785e-05
-0.002906909
0.001758189
0.003950289
0.000332386
-0.0001574219
-0.001714413
-0.0006559851
0.002482775
-2.58506e-06
4.762838e-05
-0.0004834925
-0.001701467
0.009199704
0.001748017
0.0002867237
0.000534649
-0.0004365353
0.0004582172
0.03866398
0.01204031
0.005517785
-0.0107389
-0.01034443
-0.0110988
-0.01047854
0.03694591
0.01311696
0.0002172627
0.03312798
0.01485564
0.001218754
0.02947068
0.01750063
-0.0001912087
0.02425209
0.02152535
-0.0008001909
0.003638174
0.02675802
-0.0003809121
0.004561087
0.003336413
0.00442702
-0.0001182491
-0.005169278
0.002355667
0.006119048
0.000450987
-0.0002217108
-0.003444997
-0.001142772
0.004619653
9.438593e-05
9.543975e-05
-0.0005055275
-0.00198954
0.009240641
0.001999295
0.0003643432
0.0004992286
-0.0004409686
0.0004383392
0.03951845
0.01332548
0.005485509
-0.01080341
-0.01041259
-0.01108981
-0.01054133
0.03869623
0.01453493
0.0001316487
0.03588286
0.01674822
0.001243454
0.03334766
0.02017111
-0.0002197548
0.02933243
0.02548141
-0.0004995188
0.004633589
0.03382227
-0.001094448
0.006411415
0.004418084
0.006088025
0.0001536866
-0.007819035
0.002664609
0.00974978
-0.0001154511
-0.0002367675
0.0002765771
-0.006213891
-0.0001287574
0.0006795416
0.002666843
0.002956454
-0.00051564
-0.002176298
0.009304612
0.002131506
0.0003884606
0.0004839752
-0.000440246
0.0004294389
0.04088984
0.005547436
-0.01096167
-0.01055646
-0.01124021
-0.01068839
0.01373614
0.0411005
0.0001029037
0.01499906
0.03965451
0.001303952
0.01723332
0.03929265
-0.0001513302
0.02065277
0.03867328
-0.0005539042
0.02600924
0.007798111
-0.001236565
0.01119422
0.007560966
0.01103699
0.03397524
0.0002254013
0.006590307
0.01259162
-8.526656e-05
-0.01152395
-7.382506e-05
-0.0006357166
-0.003372799
0.004009237
7.309533e-05
-0.0005175166
-0.002244676
0.009372435
0.0003892605
0.0004831159
-0.0004406596
0.0004315864
0.002132263
-0.01228165
0.0001039565
0.01424669
-0.0001047278
-0.01300311
0.01103884
-0.001062381
-4.664936e-05
-0.005055342
0.006214078
3.405324e-05
0.004299351
-0.001668425
-0.001051154
-0.001663531
0.001618281
-0.0004397801
-0.005725568
-0.0001806168
-0.002638386
-0.0005492073
-0.002865217
-0.005708319
-0.005378493
-0.005236778
0.005099315
0.02200475
-0.002121036
-6.87888e-05
0.008708496
0.0007675251
2.955419e-05
-0.002599277
-0.002117962
-0.002598508
0.03756545
0.0003394155
0.000213524
-0.008666976
-0.0102702
-0.008660802
-0.0101516
0.0363733
0.0009931643
0.0001810051
0.03676163
-0.0003191243
4.17039e-05
0.03695601
-0.0001758118
4.825358e-05
0.03726563
-0.0002922451
2.600751e-05
0.03756485
-0.0002941483
1.792904e-05
0.0379081
-0.0003411227
1.234526e-05
-0.0004048703
9.226366e-06
0.03831324
-0.0006949633
0.0002200457
0.009731568
-0.0008003985
-0.0001806966
0.0008408845
-0.0005413382
0.0008184731
0.04032232
0.00442577
0.0007705927
-0.000873547
0.0004306664
-0.0008397532
0.0004189978
-0.01069683
-0.01133169
-0.01085929
-0.01122616
0.04268852
-0.001642349
-0.0002569902
0.04273685
0.0008562867
0.0003550455
0.04303795
-0.0006194687
4.269193e-06
0.04326025
-0.0003984691
7.301838e-05
0.04354144
-0.0005721033
2.11755e-05
0.04386228
-0.000615881
1.10448e-05
0.04422264
-0.0007049253
-2.226603e-06
-0.0008303584
-5.034908e-06
0.04464132
0.03763847
-0.003685369
-0.002640362
-0.0003469944
0.001422375
-0.0009372174
0.001384733
-0.0002249098
0.001904328
-0.0007085292
0.00176901
0.04091294
0.002600077
0.003603321
0.0414709
-0.001712307
0.0001004925
0.04248261
3.018186e-05
0.001001647
0.04287834
-0.000992653
0.0001105214
0.04335517
-0.0008175543
0.0001513793
0.04372943
-0.0009239913
4.187313e-05
0.04406794
-0.0009457763
8.363202e-06
0.04438414
-0.001019439
-1.727513e-05
-0.001151599
-2.086795e-05
0.04470107
0.03906276
-0.002936284
-0.005889351
-0.0006129358
0.002037609
-0.0006217725
0.001827027
0.04075668
0.0004652452
0.007978587
0.04150687
-0.002014395
-0.0002628001
0.04250301
-0.0007759201
0.001496784
0.04279975
-0.001329551
0.0001720205
0.04325282
-0.001202148
0.0001898111
0.04358591
-0.001227354
4.651173e-05
0.04387369
-0.001213689
5.311819e-06
0.04409443
-0.001224891
-2.451852e-05
-0.001296011
-2.267771e-05
0.04424798
0.04049106
-0.002355587
-0.007325027
-0.0006105722
0.00214656
-0.000437487
0.002085512
0.04050001
-0.000647078
0.009842858
0.04124193
-0.00218772
-0.0004113089
0.04218859
-0.001385226
0.001663554
0.04249791
-0.001667546
0.0002362008
0.04296269
-0.001599454
0.000222151
0.04333899
-0.00156832
6.963369e-05
0.04361102
-0.001459913
6.10102e-06
0.04375303
-0.001347473
-2.699683e-05
-0.001259124
-2.330186e-05
0.04372699
0.0414717
-0.001919706
-0.008372206
-0.000645669
0.002186549
-0.0003473269
0.002241821
0.04057565
-0.001379393
0.01049832
0.04128129
-0.002343087
-0.0005543214
0.04224381
-0.001905872
0.00168117
0.04260346
-0.002024909
0.0002539056
0.04300401
-0.001969304
0.000296823
0.04333735
-0.001892145
9.253922e-05
0.04358986
-0.001692589
1.213966e-05
0.04366654
-0.001405572
-2.821459e-05
-0.001060875
-2.44154e-05
0.04348023
0.04192876
-0.001713039
-0.008749793
-0.0006576244
0.002211276
-0.0002999348
0.002330584
0.04041139
-0.001903929
0.01090619
0.0411108
-0.002490118
-0.000608379
0.04211764
-0.002352752
0.001564794
0.04259356
-0.002434072
0.0001920998
0.04305638
-0.00240328
0.0003072978
0.04347057
-0.002301129
9.171397e-05
0.04380142
-0.002001244
6.812403e-06
0.04391259
-0.001498358
-3.426078e-05
-0.0008091797
-3.138576e-05
0.04367327
0.04225225
-0.001705345
-0.008766048
-0.0007264608
0.00218691
-0.0003249783
0.002339994
0.04027401
-0.002369026
0.0110608
0.04096941
-0.0026795
-0.0005038083
0.04199757
-0.002763157
0.00145558
0.0426076
-0.002900171
0.0001178973
0.04317451
-0.002942131
0.0003051479
0.04376005
-0.002867863
6.31393e-05
0.044283
-0.002499186
-6.924786e-06
0.044552
-0.001744999
-4.559214e-05
-0.0006387953
-4.171767e-05
0.04439526
0.04237804
-0.001644488
-0.009017948
-0.000738053
0.002222692
-0.0003189011
0.002382525
0.04010858
-0.002696714
0.01108697
0.0407731
-0.00292491
-0.0004416419
0.0418181
-0.003173712
0.001407198
0.04255458
-0.003458763
7.575963e-05
0.04332075
-0.003665758
0.0002791175
0.04418619
-0.003706999
4.01048e-05
0.04505454
-0.003337612
-2.199662e-05
0.04565651
-0.002320922
-6.089116e-05
-0.0006840046
-5.792008e-05
0.04571897
0.04222652
-0.001638368
-0.008785403
-0.000754011
0.002236786
-0.0003396485
0.002378841
0.03995141
-0.002860185
0.0109854
0.04059281
-0.003135341
-0.0004387536
0.04161145
-0.003557411
0.001416227
0.04242726
-0.004090862
5.450504e-05
0.04340855
-0.004594926
0.0002388137
0.04468752
-0.004945798
-1.209754e-05
0.04615494
-0.004773504
-6.323418e-05
0.04730041
-0.003439192
-9.011936e-05
-0.001201501
-8.525657e-05
0.04782816
0.04189703
-0.001594214
-0.008585367
-0.0007208195
0.002282258
-0.0003384291
0.0023904
0.03972337
-0.002767466
0.01075555
0.04026643
-0.003185902
-0.0005480578
0.04122081
-0.003881557
0.00143372
0.04207618
-0.004784847
2.713433e-05
0.04331322
-0.005771042
0.0001697959
0.04519553
-0.006790575
-9.496428e-05
0.04756768
-0.007100958
-0.000112637
0.04960738
-0.005465406
-9.867748e-05
-0.002115608
-6.535185e-05
0.05053656
0.04171902
-0.001475456
-0.008629753
-0.0006639286
0.002339527
-0.0003051306
0.002390748
0.0393405
-0.002432493
0.01074099
0.03968112
-0.003058623
-0.0006113437
0.04042323
-0.004012762
0.001454959
0.04116818
-0.005410446
-1.499633e-05
0.0426336
-0.00713121
-6.695171e-07
0.04538462
-0.009517798
-0.0002671853
0.04918073
-0.01095448
-0.0002206141
0.05233548
-0.00861842
-7.414157e-05
-0.003984554
-0.0001301878
0.05416797
0.04107869
-0.001122051
-0.008487257
-0.0005501927
0.002387257
-0.0002096361
0.002396946
0.03874308
-0.001679016
0.01068863
0.03882606
-0.002632933
-0.0007204003
0.03921661
-0.003817723
0.001486831
0.03969538
-0.005790835
-8.620422e-05
0.04128475
-0.008611315
-0.0001802624
0.04471114
-0.01303071
-0.0005162237
0.05086893
-0.005170693
-0.0001291069
-0.003411207
-0.005034217
-0.003373478
0.05631343
-0.005095501
1.526413e-06
-0.001917168
-0.005034077
-0.001912617
-0.00197394
0.0002618172
-0.001960332
0.05703593
-0.0004136979
-0.0002522526
0.04174228
0.0004047089
-0.01004186
-0.0005226919
0.002345027
-0.0003581172
0.002277747
0.03823137
-0.0006696239
0.01148185
0.0374449
-0.001361975
-0.0008732333
0.03722407
-0.002971808
0.001367789
0.03682301
-0.005296685
-0.0002305116
0.0374359
-0.009166959
-0.0003949577
0.01018161
-0.01503722
-0.0007917598
0.009532185
0.009932848
0.009404664
0.0001524473
0.01105636
-0.006113591
-8.43002e-05
0.0001237717
0.01573542
-6.078959e-05
-0.013209
-0.001327786
-0.002529795
-0.00132977
-0.002497545
-0.01530698
0.0001878813
-0.001482528
-9.887177e-05
0.01472656
0.0408947
0.002076082
-0.00968683
-0.0005281693
0.002272093
-5.091124e-05
0.002396853
0.03726782
0.0008870539
0.01078694
0.03584815
0.0005578304
-0.0008767172
0.03464434
-0.001108515
0.001320462
0.03248469
-0.003066766
-0.0002289895
0.02980498
-0.006460922
-0.0003805433
0.007568183
-0.01140434
-0.0007037109
0.005348244
0.007488869
0.005351446
1.825665e-05
0.006648003
-0.005646055
-1.619602e-05
0.001491104
0.001799549
0.001494572
0.001778951
-2.877452e-06
0.0009933497
-0.0005151344
0.0004996602
-0.0009767087
1.71065e-06
0.03911989