/*--------------------------------*- C++ -*----------------------------------*\
  =========                 |
  \\      /  F ield         | OpenFOAM: The Open Source CFD Toolbox
   \\    /   O peration     | Website:  https://openfoam.org
    \\  /    A nd           | Version:  7
     \\/     M anipulation  |
\*---------------------------------------------------------------------------*/
FoamFile
{
    version     2.0;
    format      ascii;
    class       volScalarField;
    location    "0.05";
    object      p;
}
// * * * * * * * * * * * * * * * * * * * * * * * * * * * * * * * * * * * * * //

dimensions      [0 2 -2 0 0 0 0];

internalField   nonuniform List<scalar> 
109978
(
0.3690366
0.3681549
0.3664916
0.3646807
0.3627166
0.360649
0.3695711
0.3687034
0.3673426
0.3651823
0.3626066
0.3596217
0.3707095
0.3695028
0.3681371
0.3659222
0.3633527
0.3604732
0.3718624
0.3709555
0.3696517
0.3674315
0.3648966
0.3619903
0.3730601
0.3726852
0.3713654
0.3690994
0.3665578
0.363704
0.3742027
0.3746611
0.3732294
0.3709744
0.3683947
0.3655251
0.3755273
0.3768287
0.3753351
0.3731019
0.3704943
0.3676216
0.3770173
0.379098
0.3775631
0.3753481
0.372725
0.369826
0.3788029
0.3815268
0.3800052
0.3777971
0.3751677
0.3722587
0.3807667
0.3841007
0.3826094
0.3804001
0.3777698
0.3748525
0.3829769
0.3868348
0.3853906
0.3831762
0.3805507
0.3776327
0.3854685
0.3897295
0.3883519
0.3861225
0.3835003
0.380583
0.3881639
0.3927863
0.3914782
0.3892436
0.386618
0.3837012
0.3910537
0.3960147
0.3947662
0.3925171
0.3898962
0.386985
0.39408
0.3994295
0.3982271
0.3959892
0.3933333
0.3904298
0.3972499
0.4030165
0.4018323
0.3996064
0.3969329
0.3940353
0.400551
0.406749
0.4055828
0.4033712
0.4006741
0.3977926
0.4040475
0.4106183
0.4094911
0.4072913
0.404588
0.4016943
0.4078111
0.4145696
0.4135568
0.4113622
0.4086629
0.4057481
0.411811
0.4186801
0.4177768
0.4155761
0.4128749
0.4099442
0.4159532
0.423222
0.4221682
0.4199315
0.4172176
0.4142532
0.4201974
0.4279748
0.4266882
0.4244185
0.4216879
0.4187273
0.4032211
0.4327502
0.4313115
0.4289978
0.4262587
0.4233113
0.368226
0.3668288
0.3653029
0.363625
0.3615612
0.3590995
0.3699754
0.3689499
0.3680769
0.367312
0.3662379
0.3649666
0.371048
0.3695197
0.3686134
0.3683385
0.3669214
0.365416
0.3720244
0.3697429
0.3683257
0.3680352
0.3664706
0.3650971
0.373039
0.3701241
0.3690234
0.3689725
0.3673846
0.3659786
0.3743002
0.3705195
0.3696735
0.3694958
0.3679424
0.3665434
0.3757115
0.3709752
0.3707293
0.3702814
0.3689169
0.3674719
0.3774356
0.3717578
0.371995
0.3712992
0.3701045
0.3686128
0.3792596
0.3726565
0.3733271
0.3724469
0.3713736
0.3698658
0.3812553
0.3738435
0.374841
0.3738853
0.3728967
0.3713918
0.3834043
0.3752636
0.3764604
0.3754979
0.374539
0.3730581
0.3857404
0.3768647
0.3782687
0.3772969
0.3763876
0.374932
0.3882767
0.378685
0.3802645
0.3792814
0.3784173
0.3769791
0.3909543
0.3807133
0.3824395
0.3814528
0.3806365
0.3792105
0.3938243
0.3829901
0.3848373
0.3837974
0.3830464
0.381619
0.3968879
0.3854151
0.3874468
0.3863174
0.3856241
0.3841976
0.4001055
0.3879574
0.3902472
0.3890261
0.3883841
0.386956
0.4035657
0.3904298
0.3931615
0.391889
0.3913041
0.3898777
0.4071446
0.393163
0.3962129
0.3949188
0.3943846
0.3929584
0.4110226
0.3959995
0.3993776
0.3981033
0.3976125
0.3961864
0.4149219
0.3992859
0.4027166
0.4014666
0.4009978
0.3995791
0.4188014
0.4028744
0.4061627
0.4049721
0.4045155
0.4031117
0.4229232
0.4064574
0.4096945
0.4086148
0.4081711
0.4067907
0.3985833
0.4101446
0.4132936
0.4123702
0.4119327
0.4105809
0.3680019
0.366134
0.3643735
0.3623749
0.3600424
0.3570603
0.3702602
0.3689339
0.3675367
0.3666142
0.3652443
0.3637546
0.3716937
0.3700233
0.3686189
0.3685423
0.3668934
0.3654591
0.3729304
0.3704384
0.3680436
0.367906
0.3661196
0.3648109
0.3742557
0.371089
0.368949
0.3692392
0.3673314
0.3660615
0.3757707
0.3717661
0.369543
0.3696896
0.3677545
0.3664932
0.3777604
0.3722252
0.3707175
0.3706084
0.3688566
0.3675337
0.379768
0.3730322
0.3720627
0.3716329
0.3700374
0.3686479
0.3818751
0.3741865
0.3734691
0.3728537
0.3713491
0.369925
0.3841447
0.3756302
0.3750518
0.374361
0.3729055
0.3714725
0.3865681
0.3772937
0.3767147
0.3760352
0.374569
0.3731541
0.3890826
0.3791574
0.3785911
0.3779224
0.3764565
0.375059
0.3918036
0.381277
0.3806412
0.3799827
0.3785105
0.377128
0.3947058
0.3835454
0.3828608
0.3822229
0.3807586
0.3793823
0.3978697
0.3859287
0.3852796
0.3846188
0.3831851
0.3818092
0.4013147
0.3884427
0.3879094
0.387173
0.3857971
0.3844069
0.4050174
0.3911098
0.3907425
0.3898779
0.3885763
0.3871733
0.4088417
0.3939639
0.3937484
0.3927416
0.3915219
0.3901034
0.4125063
0.396974
0.3969361
0.3957662
0.3946231
0.3932018
0.4160024
0.4001902
0.4002846
0.3989731
0.3978768
0.3964577
0.4198251
0.4032996
0.4037834
0.4023486
0.4012766
0.3998721
0.4238576
0.4067795
0.4074278
0.4058987
0.4048173
0.4034191
0.4289379
0.4100088
0.4111304
0.4095957
0.4085051
0.4071243
0.4337849
0.4137809
0.4149613
0.4134417
0.4123066
0.4109238
0.3681934
0.3655807
0.3638541
0.3619589
0.359626
0.3566177
0.3701258
0.3690161
0.3672627
0.3661583
0.3649698
0.3636121
0.372265
0.3704459
0.3687448
0.3690133
0.3671693
0.365841
0.3734444
0.3712139
0.3674852
0.3677721
0.3659087
0.3647191
0.3746968
0.3715713
0.3685364
0.3693977
0.3673082
0.3661243
0.3761685
0.3721424
0.3690951
0.36979
0.3676556
0.3664837
0.3781263
0.3724551
0.3702989
0.3706095
0.3687473
0.3674926
0.380639
0.3731884
0.371673
0.3716186
0.3699512
0.3686213
0.3830757
0.3740929
0.3730481
0.3727535
0.3712244
0.3698558
0.3855286
0.375346
0.3746145
0.3742339
0.3727813
0.3714095
0.3878146
0.3769411
0.3762494
0.3758625
0.3744208
0.3730705
0.3903281
0.3786127
0.3780876
0.3777126
0.3762893
0.3749675
0.3930717
0.3805081
0.3801034
0.379727
0.3783255
0.377023
0.3960725
0.3827408
0.3822964
0.3819438
0.3805542
0.3792668
0.3992802
0.3850935
0.3846932
0.3843232
0.3829683
0.3816856
0.4028092
0.3877026
0.3872659
0.3868851
0.3855608
0.3842763
0.4066465
0.3904029
0.3900151
0.3896072
0.3883301
0.3870402
0.4105515
0.393247
0.392919
0.3924864
0.3912643
0.389968
0.4145097
0.3962728
0.3960109
0.3955172
0.3943646
0.3930605
0.418912
0.3995259
0.3992983
0.3987095
0.3976162
0.396306
0.4236833
0.4029244
0.4028054
0.4020483
0.4010206
0.3997109
0.4285232
0.4062584
0.4064706
0.4055265
0.404553
0.4032497
0.4334554
0.409228
0.4102842
0.4091194
0.4082225
0.4069346
0.438055
0.4126441
0.4141526
0.4128829
0.4120004
0.410737
0.3683208
0.3653566
0.3630533
0.3613585
0.359073
0.3565597
0.370011
0.3690366
0.3671281
0.3659896
0.3649311
0.3634684
0.3724553
0.3706143
0.3688622
0.369235
0.3671405
0.3659331
0.374247
0.3714077
0.3672301
0.3677121
0.3657662
0.3646363
0.3752555
0.3716328
0.3684179
0.3695122
0.3672787
0.3661798
0.3767514
0.3722147
0.3689784
0.3698704
0.3675783
0.3664771
0.3781743
0.3725469
0.3702164
0.3707117
0.3687073
0.3675277
0.3805722
0.3731966
0.3716347
0.3717109
0.3699149
0.3686524
0.3831209
0.3741787
0.3730266
0.372861
0.3711974
0.3698922
0.3855792
0.3756632
0.374621
0.3743761
0.3727694
0.3714614
0.3880127
0.3773761
0.3762803
0.376032
0.374416
0.3731254
0.390736
0.3791363
0.3781354
0.3779142
0.3762936
0.3750377
0.3933204
0.3812994
0.3801579
0.3799697
0.3783373
0.377098
0.396324
0.3835053
0.3823547
0.3822011
0.3805702
0.3793523
0.3996735
0.385913
0.3847521
0.3845944
0.382986
0.3817712
0.4031286
0.3882872
0.387329
0.3871371
0.3855766
0.3843653
0.4066565
0.3910225
0.390077
0.3898518
0.3883405
0.3871247
0.4105416
0.3937845
0.3929781
0.3927145
0.3912648
0.3900487
0.414437
0.3968369
0.3960363
0.3957478
0.3943526
0.3931367
0.4187329
0.4000002
0.3992745
0.3989321
0.3975894
0.3963738
0.4230814
0.4030395
0.4026962
0.4022677
0.4009892
0.3997781
0.4278002
0.4064489
0.4063083
0.4057467
0.4045083
0.4032875
0.4322053
0.4100803
0.4101122
0.4094174
0.4082226
0.4070066
0.3899809
0.4138455
0.4140122
0.4131711
0.4119642
0.4107172
0.3683993
0.3653898
0.3631676
0.3608664
0.3585354
0.3560537
0.3700142
0.3690302
0.3671574
0.3660021
0.36491
0.3634554
0.3726621
0.370608
0.3688697
0.3692364
0.367144
0.3659346
0.3743917
0.3713909
0.3672421
0.3677188
0.3657681
0.3646369
0.3756069
0.3716198
0.3684289
0.3695118
0.3672821
0.3661817
0.3771314
0.3722117
0.3689855
0.3698701
0.3675812
0.3664785
0.3787086
0.3725652
0.3702281
0.3707145
0.3687117
0.3675311
0.380732
0.3731948
0.3716454
0.3717132
0.3699205
0.3686545
0.3830781
0.3742074
0.373037
0.3728655
0.3712023
0.3698978
0.3856828
0.3756535
0.3746337
0.3743744
0.3727748
0.3714638
0.3883333
0.3771441
0.3762872
0.3760119
0.3744161
0.3731308
0.3911105
0.378976
0.3781385
0.3778967
0.3762954
0.3750398
0.3936476
0.3809248
0.3801569
0.3799317
0.3783337
0.3771034
0.3967847
0.3831244
0.3823437
0.3821646
0.3805684
0.3793541
0.4001172
0.385496
0.3847273
0.384559
0.382982
0.3817787
0.40363
0.3880905
0.3872961
0.3871253
0.3855784
0.3843724
0.4071105
0.3907571
0.3900436
0.389841
0.3883436
0.3871378
0.4110185
0.3936395
0.3929615
0.3927145
0.3912745
0.390064
0.4148218
0.3965636
0.396039
0.3957398
0.3943661
0.393158
0.4190218
0.3998089
0.3992917
0.3989376
0.3976119
0.3964027
0.423304
0.4031527
0.4027348
0.4022894
0.4010163
0.3998088
0.4276407
0.4066865
0.406359
0.4057911
0.4045539
0.4033464
0.4320094
0.4100827
0.4101383
0.4094371
0.4082333
0.4070217
0.3899149
0.4137703
0.4140581
0.4132476
0.4120453
0.4108454
0.3682746
0.3654345
0.3634903
0.3615209
0.3594929
0.3563115
0.3701264
0.369035
0.3672748
0.3661753
0.3649933
0.3636411
0.3724192
0.3704534
0.3687561
0.3690213
0.3671703
0.3658434
0.3740698
0.3712123
0.367499
0.3677907
0.3659166
0.3647272
0.3753329
0.3715774
0.3685494
0.369406
0.3673164
0.3661307
0.3764115
0.3721679
0.3691137
0.3698004
0.3676664
0.3664909
0.3784347
0.372483
0.3703196
0.3706228
0.3687594
0.3675017
0.380612
0.3732208
0.37171
0.3716328
0.3699672
0.3686317
0.3830756
0.3741571
0.373089
0.3727774
0.3712435
0.3698688
0.3856422
0.3754837
0.3746563
0.3742742
0.3728047
0.371427
0.3883308
0.3772318
0.3762861
0.3759285
0.3744479
0.3730916
0.3910764
0.3790582
0.3781184
0.3778032
0.376321
0.3749937
0.3940012
0.3810075
0.3801272
0.379834
0.378359
0.3770504
0.3972093
0.3831927
0.3823056
0.3820549
0.380588
0.3792962
0.4005479
0.3855725
0.384689
0.384438
0.3830004
0.3817122
0.4041075
0.3881966
0.3872536
0.386996
0.3855894
0.3843009
0.4077485
0.3908758
0.3900008
0.3897091
0.3883537
0.3870575
0.411571
0.3937779
0.3929099
0.3925809
0.3912803
0.3899757
0.415379
0.3967664
0.3960031
0.3955998
0.3943757
0.3930588
0.4195668
0.4001062
0.3993153
0.3987649
0.3976072
0.3962738
0.4235821
0.4031327
0.4028269
0.4020803
0.4010201
0.3996859
0.4280152
0.4064453
0.4064561
0.405497
0.4044839
0.4031253
0.4327987
0.4097064
0.4102541
0.4091609
0.4082514
0.4069164
0.3892308
0.4129412
0.4140166
0.4127403
0.4118166
0.4103839
0.3680427
0.3660254
0.3642253
0.362252
0.3599776
0.356605
0.3701862
0.3689465
0.3675446
0.3666156
0.3652443
0.3637504
0.3718415
0.3700263
0.3686337
0.3685535
0.3669056
0.3654691
0.3730934
0.3704355
0.3680587
0.3679178
0.3661294
0.36482
0.3744352
0.3710788
0.3689695
0.3692485
0.3673453
0.3660714
0.3759737
0.3717422
0.3695672
0.3697011
0.3677696
0.3665055
0.378112
0.3722353
0.3707498
0.3706252
0.3688769
0.3675463
0.3806627
0.3730383
0.3721066
0.3716564
0.3700611
0.3686655
0.38309
0.3742215
0.3735183
0.3728865
0.3713789
0.3699451
0.3855483
0.3757069
0.3751084
0.3744059
0.3729386
0.3714984
0.3881414
0.3774593
0.3767781
0.3760959
0.3746091
0.3731829
0.3909269
0.379377
0.3786628
0.3779965
0.3764992
0.3750936
0.3938931
0.38149
0.3807128
0.3800616
0.3785575
0.3771627
0.397002
0.3837861
0.3829401
0.3823049
0.3808047
0.3794201
0.4002615
0.386216
0.3853551
0.3847062
0.3832334
0.3818452
0.4037074
0.3887063
0.3879744
0.3872604
0.3858419
0.3844436
0.4073648
0.3913471
0.3907952
0.3899625
0.3886199
0.3872059
0.4112243
0.3941469
0.393798
0.3928153
0.3915586
0.3901315
0.415183
0.3971184
0.3969749
0.3958303
0.3946544
0.3932208
0.4192824
0.4002773
0.4003257
0.399018
0.3978951
0.3964623
0.4237285
0.403514
0.4038347
0.4023809
0.4012773
0.3998473
0.4281733
0.4067641
0.4074439
0.405904
0.4047999
0.4033767
0.4329464
0.4100718
0.4111146
0.4095653
0.4084332
0.4069879
0.3919345
0.4138481
0.4149556
0.4134183
0.4122543
0.4107961
0.3680595
0.3665886
0.3649749
0.363115
0.3608191
0.3583616
0.3701645
0.368965
0.3680887
0.3673221
0.366249
0.3649832
0.3712908
0.3695247
0.3686283
0.3683498
0.3669337
0.3654274
0.37235
0.3697529
0.3683423
0.3680469
0.3664816
0.365107
0.3735613
0.3701398
0.3690449
0.3689863
0.3673973
0.3659894
0.3750327
0.370559
0.3697023
0.3695144
0.3679588
0.3665551
0.376472
0.3710379
0.3707653
0.3703074
0.3689365
0.3674872
0.3782272
0.3718347
0.3720419
0.3713327
0.3701306
0.3686311
0.3802987
0.3727547
0.373382
0.3724911
0.3714037
0.3698894
0.3825081
0.3739673
0.3749091
0.3739412
0.3729355
0.3714203
0.3848736
0.3754357
0.3765421
0.3755703
0.3745833
0.3730927
0.3874002
0.377088
0.3783667
0.3773842
0.3764411
0.3749713
0.3900919
0.3789558
0.3803721
0.3793829
0.3784744
0.3770224
0.3928486
0.3810049
0.3825564
0.3815622
0.3806989
0.3792555
0.3957443
0.3833045
0.384954
0.3839114
0.3831074
0.3816636
0.3988025
0.3857298
0.3875581
0.3864292
0.385684
0.3842387
0.4020886
0.3882662
0.3903555
0.389132
0.3884381
0.3869913
0.4057236
0.390813
0.3932787
0.3919858
0.3913479
0.3898989
0.4095595
0.3934717
0.3963128
0.3950031
0.3944225
0.3929745
0.4135172
0.3962165
0.3994488
0.3981525
0.397617
0.3961594
0.4172623
0.3994363
0.4027695
0.401517
0.4010262
0.3995873
0.4209727
0.4029459
0.4061428
0.4049385
0.4044426
0.4029711
0.4251641
0.4065558
0.4097022
0.4086799
0.4082744
0.4068682
0.3980189
0.4101666
0.4131401
0.4121668
0.4116198
0.4099037
0.3681972
0.3670334
0.3650285
0.3630351
0.3606413
0.358061
0.3700456
0.3689829
0.3680125
0.3664794
0.3646833
0.3627004
0.3603842
0.370888
0.3696544
0.3686786
0.3672139
0.3650614
0.3625284
0.359556
0.3723052
0.3707165
0.3695878
0.3681151
0.3658698
0.3632921
0.3603182
0.373619
0.3719238
0.3710374
0.369678
0.3674191
0.3648331
0.3618217
0.3752406
0.3731748
0.3727309
0.3714114
0.3691521
0.3665501
0.3635489
0.3770146
0.3745077
0.3747013
0.3733824
0.3711499
0.3685387
0.3655248
0.3786623
0.3760589
0.3768728
0.3755476
0.3733464
0.3707232
0.3677056
0.380193
0.3778881
0.3791941
0.377873
0.3757024
0.3730708
0.3700491
0.3820839
0.3798109
0.381689
0.3803915
0.3782459
0.3756105
0.3725816
0.3840332
0.3819146
0.3843375
0.3830729
0.380948
0.3783154
0.3752795
0.3863257
0.3842173
0.3871649
0.3859292
0.3838189
0.3811951
0.3781576
0.388756
0.38672
0.3901604
0.3889536
0.3868547
0.384241
0.3812042
0.3913857
0.3894114
0.393325
0.3921484
0.3900613
0.3874548
0.3844198
0.3940879
0.3922869
0.3966612
0.3955043
0.3934215
0.3908261
0.3877987
0.3969182
0.3953167
0.4001699
0.3990208
0.3969567
0.3943561
0.3913359
0.3997985
0.3984459
0.4038358
0.4026839
0.4006344
0.3980371
0.3950285
0.4029108
0.4016485
0.4076334
0.4064933
0.4044606
0.4018609
0.3988702
0.4061964
0.4049603
0.4115432
0.4104453
0.4084419
0.4058493
0.4028609
0.4097904
0.4085202
0.4155761
0.4145413
0.4125621
0.4099737
0.406985
0.4135608
0.4123625
0.4198133
0.4188011
0.416828
0.4142324
0.4112426
0.4174088
0.4163909
0.4243566
0.4232185
0.4212168
0.4186098
0.4156085
0.4211317
0.4205706
0.4290613
0.4277768
0.4257514
0.4231614
0.4201604
0.4248836
0.4032984
0.3967772
0.3920498
0.3886494
0.3860559
0.3834524
0.3691501
0.3692728
0.3690485
0.3691784
0.3680009
0.3692164
0.3681791
0.3698627
0.3680297
0.368995
0.367039
0.369126
0.3670472
0.369888
0.3669608
0.3686372
0.3654961
0.368713
0.3650056
0.3690495
0.3655124
0.3684594
0.3636703
0.3678694
0.3630209
0.3682442
0.3637562
0.3677287
0.3615105
0.3667052
0.3606282
0.3673215
0.3617323
0.3667871
0.3591495
0.3580331
0.3593277
0.3702177
0.368763
0.3700393
0.3701614
0.3681375
0.3690829
0.370885
0.3683935
0.370867
0.3709552
0.3675814
0.369069
0.3719177
0.3681215
0.3722812
0.371864
0.3676748
0.3686199
0.3730468
0.3681806
0.3735813
0.3729675
0.367581
0.3687242
0.374412
0.3684933
0.3752192
0.3742604
0.3676147
0.3689824
0.3759332
0.3689283
0.3769715
0.3757313
0.3678719
0.3693967
0.3775675
0.3695371
0.3786136
0.3773646
0.3682157
0.3700906
0.3793058
0.3703412
0.3801375
0.3791491
0.3687702
0.3712883
0.3812608
0.3712869
0.3820095
0.3810986
0.369704
0.3724567
0.383364
0.3723749
0.3839216
0.3831977
0.3707235
0.373698
0.3856845
0.373713
0.3862125
0.3855222
0.3720591
0.3751498
0.3881998
0.3752003
0.3886207
0.3880648
0.3735749
0.3767799
0.3908782
0.3769098
0.3912411
0.3907993
0.3753675
0.3786005
0.3937083
0.3788315
0.3939252
0.3936958
0.377343
0.3806039
0.396703
0.3809381
0.3968044
0.39676
0.3796258
0.3827955
0.3998375
0.383213
0.3996828
0.3999616
0.3820332
0.3851721
0.4031191
0.38568
0.4028437
0.4033359
0.3846281
0.3877352
0.4066112
0.3883874
0.4060754
0.4069085
0.3873796
0.3905382
0.4103266
0.3912609
0.4096793
0.4108131
0.390352
0.3935496
0.414182
0.3942824
0.4134344
0.4148241
0.3934187
0.3967158
0.4181528
0.3974547
0.4173762
0.4188727
0.3965397
0.3999845
0.4222517
0.400798
0.4210809
0.4230614
0.399807
0.4035195
0.4264074
0.4060345
0.4248692
0.4273979
0.4032957
0.4071321
0.3691128
0.3691951
0.3691385
0.3690114
0.369293
0.3691566
0.3690169
0.3693348
0.3691714
0.3690351
0.3692829
0.3691664
0.3690982
0.3693166
0.3691844
0.369101
0.369354
0.3691533
0.3691692
0.3693687
0.3691412
0.3691083
0.3693669
0.3691541
0.3691626
0.3693755
0.3690967
0.3691259
0.369338
0.3692218
0.3691793
0.3693357
0.369115
0.3691531
0.3692989
0.3692038
0.3690691
0.369215
0.3691828
0.3690365
0.3693452
0.3691781
0.3690158
0.3693047
0.3691524
0.3691144
0.3692012
0.369137
0.3692783
0.3690546
0.3691806
0.3691578
0.3698661
0.3680405
0.3690039
0.368011
0.3692275
0.3698895
0.366964
0.3686488
0.3670471
0.3691379
0.3682556
0.3637701
0.367748
0.3636829
0.3678845
0.3673225
0.36175
0.3668063
0.3615261
0.3667201
0.3593373
0.359162
0.3701718
0.3681462
0.3690973
0.3702288
0.3687783
0.3709665
0.3675746
0.3690729
0.3708995
0.3684072
0.3729892
0.3676049
0.3687478
0.3730658
0.3682069
0.3757715
0.3679171
0.3694441
0.3759715
0.36898
0.3774193
0.3682724
0.3701661
0.3776195
0.3696022
0.379223
0.3688286
0.3713563
0.3793753
0.3704183
0.3811946
0.3697971
0.3725723
0.3813448
0.3713968
0.383323
0.3708642
0.3738376
0.383481
0.3725161
0.3856815
0.3722118
0.3753224
0.385828
0.3738761
0.3882391
0.3737371
0.3769625
0.3883711
0.3753861
0.3909846
0.3755437
0.3788039
0.3910595
0.3771125
0.3938886
0.3775525
0.3807994
0.3939089
0.3790281
0.3969507
0.3798102
0.3829964
0.3969002
0.3811363
0.4034972
0.384742
0.3879173
0.4033038
0.3858623
0.4070527
0.387495
0.3906924
0.4067763
0.3885524
0.4109379
0.3904584
0.3936716
0.4104722
0.3913852
0.4148968
0.3934865
0.3967701
0.4142808
0.3943502
0.4230935
0.399866
0.4035743
0.4222936
0.4008442
0.4274367
0.4033604
0.4072038
0.4264399
0.4070414
0.3691876
0.3691982
0.3690658
0.3698877
0.3698223
0.3689188
0.3692328
0.3704213
0.3702537
0.3688779
0.3697858
0.3712372
0.3710204
0.3691331
0.3705136
0.372209
0.3720443
0.3695712
0.3713599
0.3733295
0.3732326
0.3702318
0.3723694
0.3745757
0.3746212
0.3710047
0.3733647
0.3758513
0.3760008
0.3717959
0.3743718
0.377158
0.3772552
0.3727131
0.3756639
0.3786652
0.3786983
0.3739416
0.3772092
0.380422
0.3804444
0.3753955
0.3789292
0.3823312
0.382381
0.377033
0.3808183
0.3844007
0.3844961
0.3788686
0.3828737
0.3866602
0.3867996
0.3808947
0.3851003
0.3890921
0.3892891
0.3831056
0.3874893
0.3916835
0.3919747
0.3855231
0.3900383
0.3944584
0.3948211
0.3881234
0.3927761
0.3974155
0.3978785
0.3909355
0.3957251
0.400559
0.4011273
0.3939566
0.3988636
0.4039125
0.4045862
0.397184
0.4020564
0.4073588
0.4081307
0.4004869
0.4053066
0.410876
0.4117644
0.4039032
0.4086494
0.41449
0.4155178
0.4074041
0.4121869
0.4182845
0.4194924
0.4111113
0.3692109
0.3691577
0.3692577
0.3691999
0.3692514
0.369226
0.3692589
0.3692782
0.3692837
0.369255
0.3692505
0.3692749
0.3692119
0.3693005
0.3691732
0.3692326
0.3691912
0.3692097
0.3690725
0.3655242
0.3684824
0.3655077
0.3687304
0.3718828
0.3676885
0.3686366
0.3719359
0.3681443
0.3742927
0.367634
0.3690186
0.3744406
0.3685297
0.4001384
0.3822014
0.3853556
0.4000244
0.3834053
0.4189217
0.3965859
0.4000379
0.4182149
0.3975093
0.369538
0.3690056
0.3690894
0.3696282
0.3691807
0.369195
0.3698297
0.3689521
0.3690318
0.3700201
0.3703854
0.3690252
0.3693641
0.3706882
0.3713103
0.3693415
0.3698745
0.3716204
0.3723202
0.3698265
0.3705077
0.3727001
0.3734999
0.3704447
0.37128
0.3739256
0.3748367
0.3711165
0.3721268
0.3752105
0.3761194
0.3718581
0.3730318
0.3765041
0.377432
0.3729127
0.3741721
0.3779085
0.3790429
0.3742075
0.3754879
0.3795681
0.3809135
0.375702
0.376989
0.3814396
0.3829514
0.3773592
0.378663
0.3834314
0.3851756
0.3792404
0.3805182
0.3856431
0.3875697
0.3813108
0.3825408
0.3880166
0.3901501
0.3835806
0.3847203
0.3905598
0.3929163
0.3860394
0.3870764
0.3932686
0.3958622
0.3886869
0.3896028
0.3961531
0.3990032
0.3915146
0.392321
0.3992144
0.402363
0.3945694
0.3952166
0.4024773
0.4058983
0.397746
0.398255
0.4059121
0.4095255
0.4010292
0.401356
0.4094169
0.4132378
0.4044046
0.4045629
0.413024
0.4170595
0.4079587
0.407982
0.416733
0.4210533
0.4098835
0.4206358
0.4115325
0.3691701
0.3692449
0.369215
0.3692204
0.3692529
0.3692607
0.3692727
0.3692555
0.3692522
0.3692619
0.3693141
0.3692584
0.3692559
0.36921
0.369213
0.369179
0.3691998
0.3692093
0.3688265
0.3693066
0.369234
0.3687398
0.366113
0.3645916
0.3647236
0.3669383
0.3641029
0.3663299
0.365681
0.3637559
0.369077
0.3698981
0.3698357
0.3689309
0.3698402
0.3689655
0.3690441
0.3700316
0.3692511
0.3704361
0.3702613
0.3688958
0.3704012
0.3690502
0.3693919
0.3707059
0.3723466
0.3698534
0.3705331
0.3727282
0.3724051
0.3746087
0.3746555
0.3710416
0.374876
0.3711574
0.3721723
0.3752509
0.3734089
0.3758952
0.3760463
0.3718432
0.3761708
0.3719216
0.3730932
0.376559
0.3744264
0.3772154
0.3773191
0.3727811
0.3775056
0.3729903
0.3742372
0.3779766
0.3757366
0.3787503
0.3787875
0.3740257
0.3791348
0.3743156
0.3755844
0.3796642
0.37731
0.3805305
0.3805568
0.3755149
0.3810373
0.3758325
0.3771079
0.3815588
0.3790541
0.3824695
0.3825258
0.3771721
0.3809719
0.3845605
0.3846444
0.3790405
0.3853414
0.3794145
0.3806909
0.3858105
0.3830526
0.3868436
0.3869895
0.3810777
0.3877621
0.3815108
0.3827263
0.388214
0.3991465
0.3916799
0.3924718
0.3993709
0.3958685
0.4007167
0.4012762
0.3941143
0.4025021
0.3947057
0.3953626
0.402629
0.4086952
0.4145402
0.4155626
0.4074521
0.4171087
0.4079951
0.4080283
0.4167811
0.4122138
0.418324
0.419524
0.4111455
0.4210852
0.4117115
0.4206774
0.4115676
0.4288315
0.4245241
0.4287809
0.4318274
0.4318649
0.4217252
0.4236591
0.4236054
0.4222598
0.4236278
0.3691767
0.3691882
0.3688838
0.3700852
0.3697529
0.3689056
0.3688986
0.3709396
0.3703567
0.368897
0.368948
0.3720958
0.3711438
0.3690957
0.3692454
0.3733928
0.3721053
0.3694732
0.3697573
0.3748
0.3732266
0.3700078
0.3704872
0.3764431
0.374543
0.3707228
0.3712991
0.3779809
0.3758995
0.3714439
0.3721825
0.3794943
0.3772351
0.3722631
0.3733916
0.3812351
0.3787735
0.3734644
0.3748134
0.3831983
0.3805362
0.3749248
0.3764756
0.3853216
0.3824807
0.3765882
0.3783196
0.3876075
0.3845969
0.3784434
0.3803405
0.3900584
0.3868918
0.3804923
0.3825493
0.3926695
0.3893532
0.3827516
0.3849166
0.3954328
0.3919777
0.3851834
0.3875038
0.3983677
0.3947771
0.3878333
0.3902942
0.4014937
0.3977746
0.3906916
0.3933233
0.4047987
0.4009512
0.3937693
0.3965563
0.4082822
0.4043291
0.3970336
0.3998797
0.4118501
0.4077949
0.4004038
0.4032859
0.4154965
0.4113419
0.4038599
0.4067949
0.4192291
0.4149804
0.4074303
0.4105271
0.4231534
0.4188103
0.411222
0.3691061
0.3692574
0.3694707
0.3690233
0.3693091
0.3691759
0.369506
0.3690572
0.3692467
0.3692419
0.369096
0.3694023
0.369123
0.3694635
0.3690867
0.3694084
0.3692106
0.3691226
0.369531
0.3686317
0.368844
0.3696598
0.369259
0.369066
0.3699286
0.3681521
0.3686138
0.3702999
0.3705404
0.3679268
0.368577
0.3712234
0.3712659
0.3679319
0.3686882
0.3723352
0.3722207
0.3681438
0.3690605
0.3734927
0.3733312
0.3685754
0.3696098
0.3747888
0.3745354
0.3691017
0.3702637
0.3761397
0.3757715
0.3697149
0.3710133
0.3775141
0.3772076
0.3706129
0.3720422
0.3790803
0.3788619
0.3717582
0.373298
0.3808701
0.3807179
0.3731347
0.3747888
0.3828371
0.3827456
0.3747065
0.3764731
0.3849634
0.3849582
0.3764959
0.3783636
0.3872541
0.3873328
0.3784797
0.3804395
0.3897017
0.3898719
0.3806598
0.3826949
0.3923039
0.3925939
0.3830513
0.3851552
0.3950846
0.3954995
0.3856591
0.387816
0.3980368
0.3985993
0.3884785
0.3906869
0.4011745
0.4018925
0.3915174
0.3937679
0.4045029
0.405287
0.3946858
0.3969687
0.4079537
0.4087712
0.3979588
0.4002587
0.4114741
0.4123413
0.4013509
0.4036668
0.4150844
0.4160104
0.4049214
0.4072364
0.4187976
0.4109942
0.4086972
0.4198761
0.4227118
0.3690276
0.3694649
0.3692183
0.3692601
0.3690418
0.3694922
0.3691145
0.3694023
0.369309
0.3692077
0.3694123
0.369158
0.3692978
0.3691619
0.3691986
0.3692073
0.3691903
0.3691983
0.3695488
0.3690161
0.3690999
0.3696387
0.3691523
0.3684022
0.3684525
0.3692859
0.3683267
0.3690813
0.3690374
0.3681459
0.3686266
0.367552
0.3677271
0.3689431
0.3673823
0.3685482
0.3682462
0.3670855
0.3676442
0.363548
0.3648069
0.3674685
0.3641579
0.3682413
0.367256
0.3629567
0.3644699
0.3626787
0.3627663
0.3654569
0.362117
0.3649517
0.3641614
0.3617498
0.3629164
0.3606647
0.3608164
0.3688917
0.3700948
0.3689158
0.369761
0.3699418
0.368164
0.3686282
0.3703124
0.3689079
0.3709595
0.3689239
0.3703708
0.3705587
0.3679485
0.3685999
0.3712465
0.3705406
0.3722386
0.3720722
0.3695971
0.3745745
0.3691422
0.3703034
0.3761822
0.371345
0.3780206
0.371482
0.3759459
0.3758217
0.3697753
0.3710667
0.3775748
0.3772845
0.3706889
0.3721187
0.3791499
0.3734678
0.3813172
0.3735465
0.3788574
0.376609
0.3854582
0.3767245
0.3826181
0.3830964
0.3775239
0.3788093
0.3835849
0.3785002
0.3877651
0.3786116
0.3847587
0.3851384
0.376672
0.3785469
0.3874252
0.3852825
0.3892882
0.3894869
0.3833061
0.3903486
0.3837829
0.3849026
0.3907621
0.3876639
0.391883
0.392164
0.3857045
0.3930969
0.3862293
0.3872562
0.3934651
0.3929212
0.3975786
0.3980221
0.3910917
0.3989882
0.4040517
0.404721
0.3973023
0.4060165
0.3978702
0.3983624
0.4060498
0.4021527
0.4074785
0.4082322
0.4005858
0.4096147
0.4011034
0.4014331
0.4095172
0.4087316
0.4110389
0.4199147
0.422746
0.3693348
0.3688673
0.3690339
0.3693631
0.3691975
0.3691763
0.3696985
0.3684405
0.3686974
0.370068
0.3703147
0.3681286
0.3686295
0.3708901
0.3710553
0.3680935
0.3687525
0.3721097
0.3719702
0.3682966
0.3690562
0.373403
0.3730586
0.3687376
0.3695693
0.3748026
0.374317
0.3693666
0.3702428
0.3763485
0.3756025
0.3700294
0.3709744
0.377845
0.3769203
0.3708114
0.3718362
0.3794062
0.3784878
0.3719013
0.3730255
0.3812043
0.3802514
0.3732216
0.3744379
0.38321
0.3822239
0.3747465
0.376076
0.3853603
0.3843645
0.3764824
0.377918
0.3876769
0.3866663
0.3784151
0.3799425
0.3901429
0.3891276
0.3805408
0.3821491
0.3927625
0.3917579
0.3828666
0.3845469
0.3955242
0.3945649
0.3853893
0.3871422
0.3984497
0.3975732
0.3881337
0.3899462
0.4015598
0.4007701
0.3910982
0.3929622
0.4048503
0.404162
0.3942641
0.3961692
0.4083162
0.4076288
0.3975307
0.3994722
0.4118499
0.4111717
0.4008984
0.4028559
0.4154515
0.4148094
0.404374
0.4063506
0.4191413
0.4186723
0.4080837
0.410063
0.4230433
0.3691996
0.3692397
0.3690511
0.3694342
0.3690784
0.3694304
0.3690556
0.3694878
0.3693631
0.3691264
0.3694858
0.3691156
0.3694258
0.3692088
0.3693799
0.369168
0.3691714
0.3691866
0.3662568
0.3664506
0.3681128
0.3675526
0.3675614
0.3670769
0.3655626
0.365866
0.3712617
0.3710437
0.3691581
0.3698119
0.3693723
0.3699027
0.3716474
0.3713328
0.3946455
0.3949908
0.3882933
0.3902031
0.3888512
0.3897684
0.3963364
0.3960234
0.4109599
0.4118211
0.4039599
0.4053627
0.4044503
0.404616
0.4130868
0.4132923
0.3689596
0.3696092
0.3694958
0.3688831
0.3691456
0.369213
0.3686916
0.3702581
0.3698971
0.3685873
0.3686947
0.371126
0.3705654
0.3685363
0.3688747
0.3721743
0.3713419
0.3686679
0.3693108
0.3734467
0.3723106
0.3690256
0.3699259
0.3748168
0.3734452
0.3695893
0.370678
0.376372
0.3747271
0.3703068
0.3714853
0.3778488
0.3760042
0.371088
0.3724958
0.3794048
0.3774093
0.3720472
0.3737837
0.3811947
0.3790633
0.3732832
0.3753028
0.383172
0.3809153
0.374768
0.377022
0.3853032
0.3829402
0.3764539
0.3789599
0.3876163
0.385145
0.3783674
0.3810837
0.3900797
0.3875006
0.3804756
0.3833898
0.3927046
0.3900168
0.3827856
0.385894
0.3954926
0.3927006
0.3853064
0.3885958
0.3984521
0.3955614
0.3880342
0.3915079
0.4015929
0.398604
0.3909852
0.3946378
0.4049301
0.401843
0.3941612
0.3979218
0.4084208
0.405238
0.3975144
0.401309
0.4119891
0.4087182
0.4009665
0.4047926
0.4156328
0.4122664
0.4045381
0.4083762
0.4193642
0.4159066
0.4082185
0.4121888
0.4232973
0.4197496
0.4121385
0.3693887
0.3691081
0.3692826
0.3691837
0.3694799
0.3690529
0.3694441
0.3691206
0.3691487
0.3694175
0.3691692
0.3694909
0.3692337
0.3693014
0.3692131
0.3692464
0.3692028
0.3691886
0.3647717
0.3683739
0.3634162
0.3675895
0.3671652
0.3631119
0.3641698
0.3676012
0.3697086
0.3684518
0.3700782
0.3687087
0.3687044
0.3702698
0.3699092
0.3685994
0.3703292
0.3681487
0.3709166
0.3686471
0.3687144
0.3711463
0.3705822
0.3685564
0.3715331
0.377901
0.3760537
0.3711457
0.3769905
0.3708794
0.3794567
0.371907
0.372571
0.3794725
0.3774804
0.3721212
0.37857
0.3719877
0.3812859
0.3731081
0.3823611
0.3748907
0.3854977
0.3762148
0.3845372
0.3766538
0.3878381
0.3780932
0.3791379
0.387786
0.3853169
0.3785386
0.4227893
0.4272251
0.4144376
0.4152026
0.4272593
0.4228196
0.4144808
0.4152315
0.3688179
0.3697185
0.3695026
0.3686899
0.3686418
0.3688536
0.3696682
0.3695408
0.3682166
0.3693719
0.3685457
0.3693828
0.3671064
0.3609885
0.3623077
0.3659778
0.3591548
0.3649189
0.3648695
0.3608912
0.3748657
0.376634
0.3851174
0.3828932
0.4020434
0.3916517
0.3939151
0.4046397
0.4084151
0.3971625
0.4044627
0.3966855
0.3654761
0.3684741
0.3685815
0.366419
0.372122
0.3691257
0.3711662
0.3689787
0.373359
0.3732598
0.3702594
0.3713891
0.3704769
0.3713156
0.3739577
0.3735317
0.3694193
0.368759
0.3688733
0.3694948
0.3738718
0.3812857
0.3791527
0.3733798
0.4009286
0.3912511
0.4050057
0.3931185
0.3947867
0.4050775
0.4019913
0.3943041
0.3697607
0.3670162
0.3676041
0.3692502
0.360982
0.3663647
0.365817
0.3622586
0.3591486
0.3609991
0.3854567
0.3830857
0.3766107
0.3771753
0.3943909
0.4084455
0.4042875
0.3962893
0.3681181
0.3721377
0.371082
0.3687798
0.3691383
0.3683895
0.3684451
0.3692707
0.3686131
0.3675346
0.3676889