/*--------------------------------*- C++ -*----------------------------------*\
  =========                 |
  \\      /  F ield         | OpenFOAM: The Open Source CFD Toolbox
   \\    /   O peration     | Website:  https://openfoam.org
    \\  /    A nd           | Version:  7
     \\/     M anipulation  |
\*---------------------------------------------------------------------------*/
FoamFile
{
    version     2.0;
    format      ascii;
    class       volVectorField;
    location    "0.05";
    object      U;
}
// * * * * * * * * * * * * * * * * * * * * * * * * * * * * * * * * * * * * * //

dimensions      [0 1 -1 0 0 0 0];

internalField   nonuniform List<vector> 
109978
(
(0.009154495 -0.009131581 8.076964e-06)
(0.01809494 -0.008229483 -0.0003495696)
(0.02693363 -0.007326308 -0.0004955898)
(0.03563204 -0.006485787 -0.0006354512)
(0.04445467 -0.0057877 -0.0007582973)
(0.05296978 -0.005025421 -0.0008510389)
(0.008282338 -0.01808842 0.0003580334)
(0.01781908 -0.0177683 4.494075e-06)
(0.02693251 -0.01743448 -6.410474e-05)
(0.03571114 -0.01719258 -0.0002793135)
(0.0443986 -0.01691311 -0.0005506591)
(0.05285797 -0.01655655 -0.0007986148)
(0.007426974 -0.02694514 0.0004926723)
(0.01755527 -0.02687882 6.390884e-05)
(0.0268483 -0.02669221 -2.169048e-06)
(0.0356809 -0.02653463 -0.0001547006)
(0.0444574 -0.02636953 -0.0004269357)
(0.05312973 -0.02618975 -0.0006651165)
(0.006642798 -0.03570911 0.0006248675)
(0.0174166 -0.03570339 0.000272648)
(0.02683615 -0.03553502 0.0001445478)
(0.03576023 -0.03542094 -8.72115e-06)
(0.04457397 -0.03526467 -0.000236079)
(0.05326383 -0.03509049 -0.0004726946)
(0.006003353 -0.04465635 0.000740764)
(0.01725861 -0.04448842 0.0005364241)
(0.0268584 -0.04436802 0.0004040452)
(0.03585422 -0.04424057 0.0002151389)
(0.04474441 -0.04410084 -1.942331e-05)
(0.05345629 -0.04389767 -0.0002092762)
(0.005327639 -0.05335502 0.0008470331)
(0.01705856 -0.05310279 0.0007786227)
(0.02690514 -0.05316749 0.0006325749)
(0.03598472 -0.05300562 0.0004297077)
(0.04492204 -0.05282745 0.0001685516)
(0.05370461 -0.0526255 -3.813167e-05)
(0.004622447 -0.06201124 0.0009526097)
(0.01690071 -0.06173483 0.0009912028)
(0.02698101 -0.06204164 0.0008714418)
(0.03614434 -0.06184425 0.0006590545)
(0.04513548 -0.0616293 0.0003868208)
(0.05396739 -0.06138229 0.0001744503)
(0.003907709 -0.07075296 0.001000332)
(0.01682998 -0.07054595 0.001217667)
(0.02710532 -0.07092184 0.001104071)
(0.03633765 -0.07070366 0.0008796748)
(0.04538382 -0.07045795 0.0006062335)
(0.05426538 -0.070168 0.0003702873)
(0.003218204 -0.07966694 0.001075184)
(0.0167785 -0.07950949 0.001451075)
(0.02724252 -0.07984523 0.001343999)
(0.03655346 -0.07962405 0.001101108)
(0.04566367 -0.07935137 0.0008246021)
(0.05460307 -0.07902529 0.0005857319)
(0.002607648 -0.08865049 0.001130258)
(0.01675362 -0.08861603 0.001676266)
(0.02733211 -0.08874227 0.001559416)
(0.03678491 -0.08860843 0.001318906)
(0.04597348 -0.08830206 0.001039201)
(0.05497868 -0.08794047 0.0007982905)
(0.001987553 -0.09774079 0.001217071)
(0.01673544 -0.09782422 0.00189072)
(0.02750875 -0.09778542 0.001763113)
(0.03705468 -0.09764621 0.001537761)
(0.04631626 -0.09731854 0.001250693)
(0.0553902 -0.09692502 0.001008532)
(0.001342798 -0.1069122 0.001312575)
(0.01670464 -0.1070965 0.002095255)
(0.02767379 -0.1068341 0.001966306)
(0.03734773 -0.1067653 0.001751911)
(0.04668858 -0.1064085 0.001460114)
(0.05583717 -0.1059827 0.001216275)
(0.000708055 -0.1161608 0.001406393)
(0.01668499 -0.1164559 0.002299608)
(0.02785561 -0.1159477 0.002170825)
(0.03765204 -0.1159586 0.001974885)
(0.04708684 -0.1155763 0.001666585)
(0.05631663 -0.1151188 0.00141983)
(7.905491e-05 -0.1254842 0.001508191)
(0.01668098 -0.1259117 0.002496401)
(0.02807435 -0.1252102 0.002366191)
(0.0379504 -0.1252046 0.002174772)
(0.04751246 -0.124831 0.001870822)
(0.05682917 -0.1243395 0.001620935)
(-0.0005354589 -0.1348732 0.001613107)
(0.01669187 -0.1354817 0.002697555)
(0.02830702 -0.1345685 0.002563394)
(0.03834811 -0.1346715 0.002379919)
(0.04797467 -0.1341538 0.002074337)
(0.05737348 -0.1336468 0.001819286)
(-0.001125046 -0.1443104 0.00171655)
(0.01670358 -0.1451394 0.00289333)
(0.02855346 -0.1440953 0.002752386)
(0.03867924 -0.1440143 0.002566492)
(0.04844701 -0.1436006 0.002275834)
(0.05794499 -0.1430545 0.002015411)
(-0.001688727 -0.153831 0.001826282)
(0.016729 -0.154895 0.003092673)
(0.02884703 -0.1538133 0.002957586)
(0.03904839 -0.1534429 0.002761774)
(0.04892278 -0.1531642 0.002470846)
(0.05854188 -0.1525632 0.002209278)
(-0.002232525 -0.1634399 0.001927925)
(0.01679072 -0.1647426 0.003283009)
(0.02911901 -0.1636031 0.003150392)
(0.0394604 -0.1630414 0.002954261)
(0.04947629 -0.1629603 0.002681333)
(0.0591817 -0.1621602 0.002401861)
(-0.002768726 -0.1731623 0.002039741)
(0.01685465 -0.1746722 0.003460589)
(0.02941068 -0.1735079 0.003350362)
(0.03987381 -0.1727862 0.003136449)
(0.05003035 -0.1727439 0.002857018)
(0.05982937 -0.1718745 0.002589725)
(-0.003294165 -0.1829929 0.002156812)
(0.01692033 -0.1846847 0.003617485)
(0.02970342 -0.1835244 0.003540697)
(0.04030406 -0.1826672 0.003312855)
(0.05054321 -0.1824626 0.003030933)
(0.06049112 -0.1817246 0.002777612)
(-0.003813782 -0.1929301 0.002279884)
(0.01699675 -0.1948266 0.003780976)
(0.03002513 -0.1936957 0.003737415)
(0.04075242 -0.1926515 0.003491658)
(0.05108632 -0.1922823 0.003214827)
(0.06115281 -0.1917202 0.002952175)
(-0.004308693 -0.2029637 0.002397372)
(0.01708071 -0.20507 0.003949553)
(0.03035835 -0.203989 0.003930232)
(0.04121792 -0.2027435 0.003674307)
(0.05167855 -0.2022298 0.003402733)
(0.06189596 -0.2020294 0.003162414)
(0.01776409 -0.2225044 0.01786171)
(0.01717347 -0.2154423 0.004130426)
(0.03070258 -0.214414 0.004138012)
(0.04168124 -0.2129481 0.003850367)
(0.0522569 -0.2123741 0.003586997)
(0.06263272 -0.212261 0.003340627)
(0.01055678 -0.001699241 0.0004253328)
(0.01844635 -0.002096938 0.0009038875)
(0.02714394 -0.001975092 0.001422441)
(0.03578541 -0.002026599 0.001909352)
(0.04445912 -0.002174673 0.002458026)
(0.05314987 -0.002316967 0.003200651)
(0.001721316 -0.01062325 -0.0004018528)
(0.01293489 -0.01290859 4.733451e-06)
(0.02141584 -0.01291989 -9.568084e-07)
(0.03014961 -0.01273609 0.00013391)
(0.03874433 -0.01274125 6.482992e-05)
(0.04739744 -0.01269416 6.374822e-05)
(0.002116715 -0.01851687 -0.0008859722)
(0.01296769 -0.02141295 -8.693454e-06)
(0.02143534 -0.02135704 -1.098357e-05)
(0.03018107 -0.02133602 3.71998e-05)
(0.03884345 -0.02127835 1.332687e-05)
(0.04755157 -0.02115481 4.688372e-05)
(0.001996125 -0.02725406 -0.00139231)
(0.01284451 -0.03017631 -0.0001399993)
(0.02151418 -0.03011711 -3.48161e-05)
(0.03022566 -0.03003049 1.646956e-05)
(0.0389139 -0.02996292 -3.585203e-05)
(0.04764419 -0.02984126 1.163095e-05)
(0.002045103 -0.0359843 -0.001878042)
(0.01292492 -0.03885657 -6.929076e-05)
(0.02157908 -0.03884472 -9.806934e-06)
(0.03032933 -0.03875227 4.608282e-05)
(0.03903489 -0.03864585 8.076957e-08)
(0.04779286 -0.03849666 4.872011e-05)
(0.002201434 -0.04478558 -0.002433604)
(0.01297522 -0.04764877 -6.558891e-05)
(0.02160506 -0.04766945 -5.145421e-05)
(0.03042492 -0.0475582 -9.352693e-06)
(0.03917241 -0.04743008 -4.893626e-05)
(0.04796422 -0.04725404 -4.186761e-07)
(0.002386409 -0.05363852 -0.003142648)
(0.01312813 -0.05645207 8.140425e-06)
(0.02166544 -0.05648064 -3.646742e-05)
(0.03057321 -0.05633826 2.480821e-05)
(0.03934234 -0.05618564 -1.862516e-05)
(0.04817776 -0.055982 3.228408e-05)
(0.002539764 -0.06249827 -0.003925196)
(0.01322748 -0.06535381 5.695868e-05)
(0.02171955 -0.065358 -5.250507e-05)
(0.03072736 -0.06521038 1.189546e-05)
(0.03953235 -0.06503337 -3.960608e-05)
(0.04841837 -0.06480241 1.053376e-05)
(0.002647679 -0.071343 -0.004567509)
(0.01332508 -0.0742935 8.833743e-05)
(0.02181225 -0.07425104 -3.518721e-05)
(0.03090694 -0.07409586 2.703942e-05)
(0.03975479 -0.07389316 -2.756748e-05)
(0.04869513 -0.07363271 1.969793e-05)
(0.002734053 -0.08021254 -0.005125682)
(0.01339021 -0.08329988 0.0001023191)
(0.02192141 -0.08321816 -2.551453e-05)
(0.0310957 -0.08305471 2.804615e-05)
(0.04000081 -0.08282943 -3.044322e-05)
(0.04900052 -0.08253825 1.331263e-05)
(0.002769017 -0.08907737 -0.00554328)
(0.01347293 -0.09233547 9.927589e-05)
(0.02206184 -0.09224385 -1.681327e-05)
(0.03130784 -0.09206056 3.448049e-05)
(0.04027692 -0.09181541 -2.648737e-05)
(0.04934084 -0.09149403 1.56099e-05)
(0.002840079 -0.09810725 -0.006037351)
(0.01357861 -0.1014206 0.0001123482)
(0.02220128 -0.1013411 -8.347238e-06)
(0.03153733 -0.1011339 4.412194e-05)
(0.04057338 -0.1008728 -2.38976e-05)
(0.04971065 -0.1005219 1.593822e-05)
(0.002923 -0.1072035 -0.006577046)
(0.01369996 -0.1105905 0.0001263793)
(0.02235395 -0.1105085 -6.220018e-06)
(0.03179066 -0.1102819 5.351556e-05)
(0.04089577 -0.1100005 -2.075511e-05)
(0.05011252 -0.1096215 1.828848e-05)
(0.003004452 -0.116372 -0.007141231)
(0.01383095 -0.1198359 0.000144567)
(0.02251532 -0.1197483 -4.785412e-06)
(0.03206105 -0.1195061 6.12397e-05)
(0.04124116 -0.1192075 -1.682939e-05)
(0.05054308 -0.1188008 2.100543e-05)
(0.003082799 -0.1256159 -0.007706556)
(0.01397203 -0.1291721 0.0001685495)
(0.02268961 -0.1290668 -6.992032e-06)
(0.03234839 -0.1288116 6.867889e-05)
(0.04160905 -0.1284922 -1.318001e-05)
(0.05100415 -0.1280628 2.432665e-05)
(0.003153299 -0.1349696 -0.008148313)
(0.0141275 -0.1386039 0.0001985798)
(0.02288189 -0.1384698 -8.74714e-06)
(0.03265398 -0.1382069 7.604928e-05)
(0.04199855 -0.1378635 -6.618016e-06)
(0.0514873 -0.1374142 2.940239e-05)
(0.003208677 -0.1443876 -0.008509435)
(0.01428364 -0.1481178 0.0002358966)
(0.02309285 -0.1479635 -1.250605e-05)
(0.03297428 -0.1476915 7.881418e-05)
(0.04241076 -0.147333 -3.784894e-06)
(0.05199729 -0.146862 3.536773e-05)
(0.00327656 -0.1538988 -0.008894941)
(0.01444649 -0.1577196 0.0002714044)
(0.02331462 -0.1575495 -1.451888e-05)
(0.03330537 -0.1572682 8.362402e-05)
(0.04283759 -0.1568961 -2.439387e-06)
(0.05253049 -0.1564049 4.108414e-05)
(0.00335325 -0.1634876 -0.009276636)
(0.01460824 -0.1674181 0.000305592)
(0.02355059 -0.1672352 -1.419373e-05)
(0.03364964 -0.1669455 8.926213e-05)
(0.04328419 -0.1665584 1.310539e-07)
(0.05308527 -0.1660461 4.854908e-05)
(0.003439201 -0.1731985 -0.009730377)
(0.01477706 -0.1772202 0.0003278737)
(0.02379337 -0.1770258 -1.056693e-05)
(0.03400519 -0.1767293 9.34134e-05)
(0.04374773 -0.1763278 2.962214e-06)
(0.05365833 -0.1757983 5.829414e-05)
(0.003534285 -0.1830078 -0.01018011)
(0.0149444 -0.1871248 0.0003498505)
(0.02404712 -0.1869189 -4.116341e-06)
(0.03437152 -0.1866194 9.689823e-05)
(0.04422584 -0.1862074 3.745211e-06)
(0.05424984 -0.1856651 6.581632e-05)
(0.003627384 -0.1929424 -0.01065028)
(0.01512404 -0.1971344 0.0003642708)
(0.02430336 -0.1969199 8.107638e-06)
(0.03474143 -0.1966183 0.0001012091)
(0.04471301 -0.1961973 5.536428e-06)
(0.05485337 -0.1956438 7.061785e-05)
(0.003710546 -0.2029715 -0.0111013)
(0.01530614 -0.2072582 0.0003829202)
(0.02456649 -0.207033 2.294804e-05)
(0.0351199 -0.2067293 0.0001061498)
(0.04521211 -0.2063017 2.023382e-06)
(0.05547454 -0.2057388 7.613607e-05)
(0.0003539324 -0.2183218 0.01079838)
(0.01549879 -0.2174959 0.0003929961)
(0.02483562 -0.2172633 3.72636e-05)
(0.03550105 -0.2169581 0.0001114976)
(0.04571688 -0.216525 1.580505e-06)
(0.05610875 -0.2159552 8.102245e-05)
(0.01056266 -0.001564237 7.363267e-06)
(0.01868377 -0.002614874 0.000328753)
(0.02756371 -0.002547723 0.0003966765)
(0.03643938 -0.002599954 0.0004371552)
(0.04530419 -0.002806902 0.0005378703)
(0.05412771 -0.003051884 0.0007317419)
(0.001586963 -0.01062664 -1.44008e-05)
(0.01292566 -0.01289557 -7.736485e-06)
(0.02157777 -0.01273968 0.0001204236)
(0.03020018 -0.01256362 0.000191934)
(0.03877846 -0.01251229 0.0001632404)
(0.04743685 -0.01248209 0.0001697268)
(0.002629641 -0.01873049 -0.0003386145)
(0.01278013 -0.02157682 -0.0001320818)
(0.02153654 -0.02144974 -1.643078e-05)
(0.03013461 -0.02126533 -2.104906e-05)
(0.03888116 -0.02138137 -3.568284e-05)
(0.04758414 -0.02130825 -2.208656e-05)
(0.002524036 -0.02768164 -0.0003556298)
(0.01268192 -0.03022479 -0.000214224)
(0.02137745 -0.03009126 1.108929e-05)
(0.03023353 -0.03003377 2.047648e-05)
(0.03895736 -0.02996701 1.294252e-05)
(0.04766961 -0.02984714 3.630416e-05)
(0.002616065 -0.03663049 -0.0004246093)
(0.01269371 -0.03889036 -0.0001906793)
(0.02166517 -0.03886565 3.724723e-05)
(0.03032988 -0.03881659 9.659586e-06)
(0.03908299 -0.03869832 1.408281e-06)
(0.0478138 -0.03855503 2.256611e-05)
(0.002845643 -0.0456099 -0.0005434545)
(0.01274801 -0.04769571 -0.0001920718)
(0.02177359 -0.04770444 2.248354e-05)
(0.03043653 -0.04758974 -3.152592e-05)
(0.03923079 -0.0474496 -1.840364e-05)
(0.0479886 -0.04727697 4.892824e-07)
(0.003136211 -0.05459588 -0.0007180564)
(0.01293986 -0.05649906 -0.0001723428)
(0.02183162 -0.0565202 2.378635e-05)
(0.0305879 -0.05636539 -2.114672e-05)
(0.03939697 -0.05620945 -9.797525e-06)
(0.04819737 -0.05600721 7.170184e-06)
(0.003358611 -0.06358845 -0.0008032647)
(0.01308388 -0.0654255 -0.0001899116)
(0.02189419 -0.06539182 4.316627e-06)
(0.03074999 -0.06523767 -3.588806e-05)
(0.03958975 -0.06505227 -2.221837e-05)
(0.04843903 -0.06482089 -6.68535e-06)
(0.003611564 -0.07256991 -0.0008770769)
(0.01317775 -0.0743822 -0.0002072504)
(0.02201197 -0.07427564 8.962781e-06)
(0.03092997 -0.07412305 -3.480547e-05)
(0.03981453 -0.07391004 -1.786302e-05)
(0.04871401 -0.07365019 -3.439348e-06)
(0.003825894 -0.0816047 -0.0009640341)
(0.01322928 -0.08338542 -0.0002281834)
(0.02213928 -0.08324238 8.354061e-06)
(0.03111789 -0.08308184 -4.16718e-05)
(0.04006351 -0.08284735 -2.118742e-05)
(0.04901961 -0.08255652 -8.974923e-06)
(0.003988131 -0.09068003 -0.001037748)
(0.01329353 -0.09242982 -0.0002353373)
(0.02229515 -0.09227242 1.187561e-05)
(0.03132864 -0.09208917 -4.061786e-05)
(0.04034031 -0.0918345 -2.033259e-05)
(0.04935936 -0.09151228 -8.275426e-06)
(0.00414583 -0.09983356 -0.001116021)
(0.01338383 -0.101529 -0.0002575679)
(0.02245471 -0.1013774 1.036625e-05)
(0.03155917 -0.1011673 -4.452145e-05)
(0.0406407 -0.1008945 -2.198496e-05)
(0.04972989 -0.1005418 -1.036262e-05)
(0.004323651 -0.1090621 -0.001207049)
(0.01349995 -0.1107031 -0.0002742231)
(0.02263065 -0.110548 9.046656e-06)
(0.031813 -0.1103142 -4.572882e-05)
(0.04096506 -0.1100235 -2.276287e-05)
(0.05013242 -0.109642 -1.05787e-05)
(0.004531963 -0.1183899 -0.001322524)
(0.01361821 -0.1199438 -0.0002993234)
(0.0228192 -0.1197904 7.345646e-06)
(0.03208447 -0.1195374 -4.703882e-05)
(0.04131179 -0.1192296 -2.408995e-05)
(0.05056373 -0.1188221 -1.151343e-05)
(0.004758168 -0.1278078 -0.001437769)
(0.01375206 -0.1292586 -0.0003189181)
(0.02301311 -0.1291132 6.698282e-06)
(0.03237479 -0.1288418 -4.785213e-05)
(0.04168059 -0.1285175 -2.300636e-05)
(0.05102298 -0.1280862 -1.152362e-05)
(0.004967056 -0.1373178 -0.001552438)
(0.01389916 -0.1386556 -0.0003383701)
(0.02320967 -0.1385199 3.089039e-06)
(0.03268136 -0.1382326 -4.918144e-05)
(0.04206964 -0.1378921 -2.621218e-05)
(0.05150806 -0.137439 -1.317941e-05)
(0.005209169 -0.1469198 -0.00174908)
(0.01406033 -0.1481566 -0.000343433)
(0.02340749 -0.1480168 4.094385e-07)
(0.0330036 -0.1477178 -4.754594e-05)
(0.04247635 -0.1473587 -2.727272e-05)
(0.05201777 -0.1468857 -1.329495e-05)
(0.005422756 -0.1566059 -0.001917782)
(0.01422644 -0.1577677 -0.0003508114)
(0.02361737 -0.1576085 -4.989401e-06)
(0.03334038 -0.157302 -4.845661e-05)
(0.04290254 -0.1569236 -2.792982e-05)
(0.05254989 -0.1564313 -1.277732e-05)
(0.005641377 -0.1663909 -0.002137438)
(0.01439863 -0.1674924 -0.0003471549)
(0.02383956 -0.1672987 -1.15709e-05)
(0.03368958 -0.1669874 -4.920013e-05)
(0.04334752 -0.1665901 -2.922779e-05)
(0.05310341 -0.1660798 -1.41747e-05)
(0.005814371 -0.1763015 -0.002302689)
(0.01456581 -0.1773178 -0.0003496651)
(0.02408597 -0.1770913 -1.96023e-05)
(0.03405003 -0.176776 -5.194542e-05)
(0.04381049 -0.1763618 -3.183641e-05)
(0.05367617 -0.1758349 -1.830432e-05)
(0.006018222 -0.1863143 -0.002490365)
(0.01474163 -0.187241 -0.0003393734)
(0.02434236 -0.1869907 -2.554812e-05)
(0.03442049 -0.1866698 -5.211801e-05)
(0.04428896 -0.1862417 -3.310333e-05)
(0.05426636 -0.1856988 -2.033907e-05)
(0.006210674 -0.1964235 -0.002591842)
(0.0149101 -0.197267 -0.000333381)
(0.02461586 -0.1969998 -3.503899e-05)
(0.03480083 -0.1966729 -5.403006e-05)
(0.04478168 -0.1962339 -3.431617e-05)
(0.05487233 -0.1956776 -2.136046e-05)
(0.006456765 -0.2066396 -0.002746236)
(0.01507794 -0.2074011 -0.000307704)
(0.02489139 -0.2071207 -4.400754e-05)
(0.03518935 -0.2067876 -5.531287e-05)
(0.04528469 -0.2063394 -3.714983e-05)
(0.0554908 -0.2057711 -2.374153e-05)
(0.006680031 -0.2169712 -0.002825803)
(0.01523476 -0.2176514 -0.0003113481)
(0.02518024 -0.2173578 -5.660948e-05)
(0.03558603 -0.2170194 -6.096074e-05)
(0.04579903 -0.2165651 -4.023439e-05)
(0.05612161 -0.2159857 -2.551516e-05)
(0.01048968 -0.001529209 -1.329861e-05)
(0.0187439 -0.002320547 3.880132e-05)
(0.02763565 -0.002256745 0.0001249577)
(0.03653859 -0.002253271 0.0001478528)
(0.04538213 -0.002586587 0.0002147252)
(0.05424782 -0.002857544 0.000228832)
(0.001556854 -0.01057605 9.452016e-06)
(0.0128717 -0.01285005 -1.162467e-05)
(0.02164496 -0.01261434 2.799347e-05)
(0.03019971 -0.01239521 7.630048e-05)
(0.03874457 -0.01233294 4.365223e-05)
(0.04741171 -0.01230559 5.041104e-05)
(0.002341635 -0.0188227 -4.059934e-05)
(0.01263708 -0.02164586 -4.510508e-05)
(0.02155698 -0.02145821 -1.686282e-05)
(0.03010622 -0.02123503 1.349099e-05)
(0.03886505 -0.02142218 -2.975841e-05)
(0.04759392 -0.0213518 -1.379155e-05)
(0.002316722 -0.02771875 -0.0001436875)
(0.01252202 -0.03022089 -8.976151e-05)
(0.02130763 -0.03012023 -2.459941e-05)
(0.03021249 -0.03000358 8.738845e-06)
(0.03894548 -0.02995956 -1.802912e-05)
(0.04767569 -0.02984097 2.556163e-06)
(0.002318509 -0.03672141 -0.0001399842)
(0.01255513 -0.03883357 -5.004445e-05)
(0.02167113 -0.03883606 2.438255e-05)
(0.03032181 -0.03880901 3.493608e-05)
(0.03907686 -0.03870261 6.273754e-07)
(0.04782245 -0.03855971 1.972561e-05)
(0.002651605 -0.04568815 -0.0002074841)
(0.01254336 -0.04765279 -6.489049e-05)
(0.02183289 -0.04771122 8.682002e-06)
(0.03043514 -0.04760146 -1.278912e-06)
(0.03923603 -0.04745831 -1.928891e-05)
(0.04799854 -0.04728639 1.249619e-07)
(0.002935917 -0.05474623 -0.0001982158)
(0.01278604 -0.0564751 -4.220162e-05)
(0.02188015 -0.05651721 2.866137e-05)
(0.03059 -0.0563579 1.389888e-05)
(0.03940266 -0.05620303 -2.828272e-06)
(0.04820715 -0.0560024 1.418437e-05)
(0.003227846 -0.06377311 -0.0001299626)
(0.01294601 -0.06541806 -4.322616e-05)
(0.02193839 -0.06539265 1.760373e-05)
(0.03075233 -0.06523982 5.608308e-06)
(0.03959416 -0.06505449 -1.170185e-05)
(0.04845 -0.06482525 4.237319e-06)
(0.003491573 -0.07283374 -0.0001082646)
(0.01305084 -0.07436528 -3.927532e-05)
(0.02205237 -0.07426809 2.383821e-05)
(0.03093235 -0.07411818 9.364236e-06)
(0.03981918 -0.07390539 -5.743135e-06)
(0.04872476 -0.07364705 8.407327e-06)
(0.003655222 -0.08188443 -9.010725e-05)
(0.01310704 -0.08336498 -4.597081e-05)
(0.02217626 -0.08323819 2.483775e-05)
(0.03111847 -0.08307817 7.253828e-06)
(0.04006681 -0.08284588 -7.492579e-06)
(0.0490302 -0.08255596 6.052606e-06)
(0.003657842 -0.09095743 -5.681276e-05)
(0.01317268 -0.09240588 -4.388095e-05)
(0.02232381 -0.09226731 2.805686e-05)
(0.03132797 -0.09208261 8.919655e-06)
(0.04034247 -0.09183137 -5.406426e-06)
(0.04936902 -0.09150931 6.7094e-06)
(0.003858591 -0.100065 -8.485329e-05)
(0.01326889 -0.1015049 -4.627545e-05)
(0.02247921 -0.1013727 3.033693e-05)
(0.03155754 -0.1011607 1.005766e-05)
(0.04064068 -0.100892 -5.383712e-06)
(0.04973915 -0.1005392 7.016351e-06)
(0.004072559 -0.1093313 -0.000114767)
(0.01339132 -0.1106815 -5.251988e-05)
(0.022648 -0.1105437 3.243223e-05)
(0.03181117 -0.110308 1.064904e-05)
(0.04096373 -0.1100205 -4.306807e-06)
(0.0501406 -0.1096389 7.316949e-06)
(0.00422633 -0.1186683 -0.0001204531)
(0.01350591 -0.1199339 -5.101904e-05)
(0.02283441 -0.1197861 3.451575e-05)
(0.0320822 -0.1195335 1.224425e-05)
(0.04130944 -0.1192272 -3.989813e-06)
(0.0505712 -0.1188193 8.31247e-06)
(0.004396443 -0.1280936 -0.0001104978)
(0.01363349 -0.1292684 -5.692545e-05)
(0.02302951 -0.1291099 3.675669e-05)
(0.03237194 -0.1288408 1.220365e-05)
(0.04167883 -0.1285153 -2.919256e-06)
(0.05102982 -0.1280832 8.690129e-06)
(0.004599239 -0.1375938 -0.0001238929)
(0.01376554 -0.1386892 -6.095189e-05)
(0.02324176 -0.1385182 3.809326e-05)
(0.03267886 -0.1382355 1.241081e-05)
(0.0420694 -0.1378903 -2.455887e-06)
(0.05151445 -0.1374364 1.014974e-05)
(0.004848473 -0.1471987 -0.0001445079)
(0.01390782 -0.1481951 -8.532274e-05)
(0.02346116 -0.1480165 3.949841e-05)
(0.03300153 -0.1477217 9.560041e-06)
(0.04247994 -0.1473588 -2.110031e-06)
(0.05202489 -0.1468835 1.047306e-05)
(0.005056355 -0.1568751 -0.0001513646)
(0.01405521 -0.1577923 -0.0001025723)
(0.02369124 -0.1576095 4.026426e-05)
(0.03333818 -0.1573031 8.37101e-06)
(0.04290841 -0.1569242 -2.823586e-06)
(0.05255767 -0.1564294 1.160113e-05)
(0.005231982 -0.1666672 -0.0001395819)
(0.01421354 -0.1674906 -0.0001245873)
(0.02392477 -0.1673011 4.072605e-05)
(0.03368853 -0.1669851 7.110677e-06)
(0.04335451 -0.1665908 -2.860692e-06)
(0.05311177 -0.1660773 1.236621e-05)
(0.005444741 -0.1765827 -0.0001391782)
(0.01437679 -0.1772907 -0.0001255555)
(0.02416926 -0.1770945 3.955758e-05)
(0.03405012 -0.1767715 8.927285e-06)
(0.04381685 -0.1763634 -3.002595e-06)
(0.05368494 -0.1758336 1.468524e-05)
(0.005707043 -0.1866155 -0.0002113681)
(0.01455359 -0.1871916 -0.0001182606)
(0.02441433 -0.1869927 3.764236e-05)
(0.03442135 -0.1866641 1.069138e-05)
(0.04429313 -0.1862443 -3.231613e-06)
(0.05427553 -0.1856998 1.595611e-05)
(0.005881407 -0.1966139 -0.0002967996)
(0.01474338 -0.1971893 -9.972311e-05)
(0.02466431 -0.196999 3.536773e-05)
(0.03480024 -0.1966661 1.505021e-05)
(0.04478138 -0.1962373 -2.013642e-06)
(0.0548807 -0.1956802 2.000609e-05)
(0.006139455 -0.2068059 -0.0003347841)
(0.01496421 -0.2073245 -8.851452e-05)
(0.02490173 -0.2071152 3.279004e-05)
(0.03518498 -0.2067802 1.616506e-05)
(0.04527904 -0.2063424 -4.599117e-06)
(0.05549923 -0.2057745 1.930233e-05)
(0.006236719 -0.217121 -0.0003051172)
(0.01515508 -0.2175905 -7.072249e-05)
(0.02516946 -0.2173462 3.452011e-05)
(0.03557506 -0.2170095 2.256143e-05)
(0.04578691 -0.2165641 -1.050249e-06)
(0.05612915 -0.2159866 2.842081e-05)
(0.01050558 -0.001520179 -3.828342e-06)
(0.01876032 -0.002225056 -2.200553e-06)
(0.02769717 -0.001956879 -5.662539e-06)
(0.03653148 -0.002165024 1.486523e-05)
(0.04534687 -0.002262277 7.190317e-05)
(0.05423547 -0.002676524 7.606414e-05)
(0.001534829 -0.01056162 5.168742e-06)
(0.01286251 -0.01284642 -4.206296e-06)
(0.02167484 -0.01257891 1.455769e-05)
(0.03018487 -0.01237977 2.29178e-05)
(0.03874339 -0.01229379 1.473493e-05)
(0.0474149 -0.01226503 2.454829e-05)
(0.002294272 -0.01881985 -4.400594e-06)
(0.0125875 -0.02167492 -2.241502e-05)
(0.02155841 -0.02145316 -8.158726e-06)
(0.0300699 -0.02111324 7.866675e-06)
(0.03886591 -0.02141286 -1.066347e-05)
(0.04759467 -0.02136957 -1.070038e-05)
(0.001996492 -0.02785202 4.14887e-06)
(0.01250561 -0.03020202 -2.503664e-05)
(0.02118598 -0.03014121 -8.693374e-06)
(0.03019814 -0.0299853 2.323235e-06)
(0.03895326 -0.0299481 5.30703e-06)
(0.04768064 -0.02983443 8.249065e-06)
(0.002189808 -0.03675478 -1.310076e-05)
(0.01253123 -0.03882294 -1.799316e-05)
(0.02165799 -0.03883389 1.081368e-05)
(0.03030228 -0.03881315 2.311296e-07)
(0.03908364 -0.03871366 5.890106e-07)
(0.04782408 -0.03857667 8.347219e-08)
(0.002268067 -0.04571536 -5.329311e-05)
(0.0125227 -0.04764899 -2.014415e-05)
(0.02185124 -0.04771725 8.486142e-06)
(0.03043345 -0.04760588 -7.73979e-06)
(0.03925356 -0.04746162 -1.903381e-07)
(0.04800466 -0.04729343 -5.137311e-07)
(0.002713389 -0.05476354 -9.001272e-05)
(0.01273115 -0.05647386 -2.769907e-05)
(0.02190189 -0.05651449 1.513452e-05)
(0.03058084 -0.05636106 -7.930512e-06)
(0.03941956 -0.05620601 7.194771e-07)
(0.04821188 -0.05600818 -1.645929e-06)
(0.003097353 -0.06377356 -6.559003e-05)
(0.01290082 -0.06541813 -2.405909e-05)
(0.0219526 -0.06539674 1.08472e-05)
(0.03074525 -0.06524364 -1.063759e-05)
(0.03961163 -0.06505738 -1.720664e-06)
(0.0484552 -0.06482945 -4.458309e-06)
(0.003400814 -0.07282079 -4.895961e-05)
(0.01300821 -0.07437973 -3.051568e-05)
(0.02207098 -0.07426822 1.122817e-05)
(0.0309254 -0.07412182 -1.148575e-05)
(0.03983703 -0.07390654 -1.590276e-06)
(0.04872982 -0.0736494 -4.820831e-06)
(0.003516237 -0.08189565 -4.625019e-05)
(0.01305261 -0.08338402 -3.948528e-05)
(0.02220361 -0.08323813 1.097125e-05)
(0.03111103 -0.08308268 -1.426354e-05)
(0.04008611 -0.08284728 -2.51065e-06)
(0.04903498 -0.08255858 -6.601437e-06)
(0.003655371 -0.09094617 -4.624342e-05)
(0.01311487 -0.09242297 -4.184597e-05)
(0.02235917 -0.09226662 1.195209e-05)
(0.03131995 -0.09208665 -1.581971e-05)
(0.04036255 -0.09183232 -2.806154e-06)
(0.04937375 -0.09151093 -7.012602e-06)
(0.003542854 -0.1000208 6.400724e-06)
(0.01320398 -0.1015297 -5.617795e-05)
(0.02252178 -0.1013723 1.230376e-05)
(0.03154851 -0.1011652 -1.867305e-05)
(0.04066288 -0.1008932 -3.472071e-06)
(0.04974344 -0.1005409 -8.245324e-06)
(0.003729211 -0.109282 7.63244e-07)
(0.0133088 -0.1106992 -6.390206e-05)
(0.02270525 -0.1105433 1.283124e-05)
(0.03180153 -0.1103114 -2.005376e-05)
(0.04098729 -0.1100215 -4.027196e-06)
(0.05014497 -0.1096403 -9.076279e-06)
(0.003889167 -0.1186134 3.760733e-06)
(0.01342066 -0.1199391 -6.905814e-05)
(0.02289416 -0.1197857 1.301243e-05)
(0.03207173 -0.1195354 -2.172545e-05)
(0.04133453 -0.1192278 -4.709397e-06)
(0.05057552 -0.1188205 -1.017198e-05)
(0.004000379 -0.1280152 6.279911e-06)
(0.01354277 -0.1292587 -7.518694e-05)
(0.02309385 -0.1291091 1.291072e-05)
(0.03236111 -0.1288413 -2.301814e-05)
(0.04170385 -0.1285157 -5.416787e-06)
(0.05103389 -0.1280844 -1.10188e-05)
(0.004146909 -0.1374972 1.108215e-05)
(0.01368407 -0.1386737 -7.640617e-05)
(0.02329457 -0.1385167 1.292393e-05)
(0.03266707 -0.1382349 -2.422701e-05)
(0.04209334 -0.1378909 -6.670833e-06)
(0.05151871 -0.1374372 -1.227216e-05)
(0.004337623 -0.147085 3.558023e-06)
(0.01382012 -0.1481874 -7.506133e-05)
(0.02351416 -0.1480143 1.308582e-05)
(0.03298873 -0.1477216 -2.472197e-05)
(0.04250312 -0.1473589 -7.745962e-06)
(0.05202905 -0.1468842 -1.345578e-05)
(0.004475322 -0.1567383 1.075486e-05)
(0.01396517 -0.1577953 -7.476303e-05)
(0.02374038 -0.1576073 1.297818e-05)
(0.03332429 -0.1573045 -2.614181e-05)
(0.04293184 -0.1569246 -9.123808e-06)
(0.05256151 -0.1564298 -1.524825e-05)
(0.004626391 -0.1665118 1.267029e-05)
(0.01410707 -0.1675029 -7.767402e-05)
(0.02398366 -0.1672998 1.253557e-05)
(0.03367319 -0.1669874 -2.846421e-05)
(0.04337897 -0.1665912 -1.160811e-05)
(0.05311542 -0.1660779 -1.790733e-05)
(0.004784374 -0.1763886 1.34593e-05)
(0.01426294 -0.177298 -8.723817e-05)
(0.02423292 -0.1770953 1.062339e-05)
(0.03403478 -0.1767734 -3.211924e-05)
(0.04384246 -0.1763635 -1.4825e-05)
(0.05368908 -0.175833 -2.163764e-05)
(0.005253664 -0.1864911 -4.817305e-06)
(0.01444101 -0.1872005 -9.88948e-05)
(0.02448382 -0.1869955 6.589355e-06)
(0.03440679 -0.1866641 -3.654734e-05)
(0.04432033 -0.1862419 -1.980906e-05)
(0.05427983 -0.1856951 -2.685126e-05)
(0.005443525 -0.19654 -1.347373e-05)
(0.01462546 -0.1972208 -0.0001137083)
(0.02474221 -0.1970043 1.239496e-06)
(0.03479021 -0.1966663 -4.195138e-05)
(0.04481171 -0.1962347 -2.548386e-05)
(0.05488701 -0.1956738 -3.363495e-05)
(0.005415635 -0.2066611 -5.535095e-06)
(0.01480769 -0.2073535 -0.0001416294)
(0.02500752 -0.2071193 -6.079249e-06)
(0.03517801 -0.2067761 -5.047198e-05)
(0.0453121 -0.2063336 -3.528835e-05)
(0.05550519 -0.2057572 -4.414225e-05)
(-0.001378621 -0.222141 9.545974e-06)
(0.01498618 -0.2175973 -0.0001516851)
(0.02528591 -0.2173536 -1.271058e-05)
(0.03557614 -0.217009 -5.807649e-05)
(0.04582904 -0.2165634 -4.540056e-05)
(0.05613929 -0.2159771 -5.7377e-05)
(0.01050015 -0.001510714 3.500802e-06)
(0.0187679 -0.002207819 -2.760066e-07)
(0.02768122 -0.002034116 1.680832e-06)
(0.03652364 -0.00188182 8.623451e-07)
(0.04528435 -0.001958566 2.480565e-07)
(0.05408725 -0.002255004 -3.376598e-06)
(0.001522442 -0.01061049 -9.04952e-07)
(0.01286162 -0.01284564 2.764646e-06)
(0.02167462 -0.01258074 -1.720411e-05)
(0.03018713 -0.01238121 -2.43802e-05)
(0.03874432 -0.0122917 -1.5113e-05)
(0.04741432 -0.01226421 -2.544439e-05)
(0.002110041 -0.01890103 -2.306818e-06)
(0.01258928 -0.02167272 2.310873e-05)
(0.02155766 -0.02145205 6.83453e-06)
(0.03006966 -0.02111324 -7.915379e-06)
(0.03886585 -0.02141352 1.008745e-05)
(0.04759476 -0.02136998 1.018706e-05)
(0.001900825 -0.02788079 -2.552262e-06)
(0.01250883 -0.0301998 2.692747e-05)
(0.02118605 -0.03014136 8.225229e-06)
(0.03019848 -0.02998483 -3.618967e-06)
(0.03895266 -0.02994807 -6.241671e-06)
(0.04768067 -0.02983432 -8.832043e-06)
(0.001937402 -0.03679823 4.974572e-06)
(0.01253459 -0.03882266 1.975699e-05)
(0.02165413 -0.03883219 -1.284383e-05)
(0.03030246 -0.03881316 -7.810438e-07)
(0.0390832 -0.03871352 -1.406412e-06)
(0.04782406 -0.03857694 -6.720315e-07)
(0.00209115 -0.04572455 5.922715e-06)
(0.01251704 -0.04765049 2.327524e-05)
(0.02184855 -0.04771765 -9.34146e-06)
(0.03043264 -0.04760654 7.118485e-06)
(0.03925313 -0.04746184 -6.590506e-07)
(0.04800463 -0.04729342 -3.215842e-07)
(0.002296316 -0.05475648 2.907435e-06)
(0.01273298 -0.05647503 2.861826e-05)
(0.02190071 -0.05651595 -1.742741e-05)
(0.03058115 -0.05636149 7.045435e-06)
(0.03941945 -0.05620621 -2.020813e-06)
(0.04821184 -0.05600845 7.411957e-07)
(0.002672292 -0.06376979 -6.474802e-07)
(0.01290343 -0.06541927 2.747443e-05)
(0.02195104 -0.06539686 -1.365292e-05)
(0.03074557 -0.06524399 9.264275e-06)
(0.03961135 -0.06505761 2.392166e-07)
(0.04845535 -0.06482948 3.024293e-06)
(0.003013081 -0.07280817 1.452591e-06)
(0.01300828 -0.07437893 3.00173e-05)
(0.02207075 -0.07426799 -1.462687e-05)
(0.03092563 -0.07412205 9.268541e-06)
(0.03983724 -0.07390658 -5.31571e-07)
(0.04872981 -0.07364962 3.327943e-06)
(0.003186874 -0.08186928 8.755336e-07)
(0.01305378 -0.08337417 3.549206e-05)
(0.02220109 -0.0832371 -1.431922e-05)
(0.0311111 -0.08308242 1.079701e-05)
(0.04008583 -0.08284727 9.597388e-08)
(0.04903514 -0.08255862 4.199767e-06)
(0.003268937 -0.09090028 4.699017e-06)