/*--------------------------------*- C++ -*----------------------------------*\
  =========                 |
  \\      /  F ield         | OpenFOAM: The Open Source CFD Toolbox
   \\    /   O peration     | Website:  https://openfoam.org
    \\  /    A nd           | Version:  7
     \\/     M anipulation  |
\*---------------------------------------------------------------------------*/
FoamFile
{
    version     2.0;
    format      ascii;
    class       volVectorField;
    location    "0.1";
    object      C;
}
// * * * * * * * * * * * * * * * * * * * * * * * * * * * * * * * * * * * * * //

dimensions      [0 1 0 0 0 0 0];

internalField   nonuniform List<vector> 
73374
(
(0.2330846 0.4257389 0.02105057)
(0.5015066 0.499111 0.09738021)
(0.7003376 0.4995436 0.09549868)
(0.8999322 0.4995287 0.09488174)
(1.099948 0.4994488 0.09473612)
(1.299976 0.4994117 0.09469559)
(1.499989 0.4993983 0.09468127)
(1.699995 0.4993937 0.09467644)
(1.899998 0.4993931 0.09467664)
(2.100001 0.4993952 0.09468097)
(2.300003 0.4993994 0.09469061)
(0.2335462 0.6249925 0.02083329)
(0.5023995 0.699708 0.0948962)
(0.7005652 0.6995714 0.09147514)
(0.8998615 0.699499 0.09041612)
(1.099895 0.6994074 0.09013633)
(1.29995 0.6993607 0.09005409)
(1.499976 0.6993417 0.09002491)
(1.699989 0.6993347 0.09001501)
(1.899996 0.6993336 0.09001495)
(2.1 0.6993363 0.09002267)
(2.300004 0.6993421 0.09003828)
(0.2335303 0.8249667 0.02086492)
(0.5023079 0.8997333 0.09412068)
(0.7005536 0.8995048 0.09025999)
(0.8997835 0.8993776 0.08894643)
(1.099846 0.8993099 0.08858067)
(1.299925 0.899275 0.08846657)
(1.499963 0.8992588 0.08842457)
(1.699983 0.8992522 0.08840974)
(1.899993 0.899251 0.08840885)
(2.1 0.8992537 0.08841882)
(2.300005 0.8992593 0.08843908)
(0.2335279 1.024969 0.02086674)
(0.5021769 1.099887 0.09392961)
(0.7004589 1.099782 0.08993226)
(0.8997242 1.099713 0.08853212)
(1.099811 1.099672 0.08812077)
(1.299906 1.09965 0.08798568)
(1.499953 1.099639 0.0879338)
(1.699977 1.099633 0.08791477)
(1.89999 1.099632 0.08791262)
(2.099999 1.099634 0.08792339)
(2.300005 1.099639 0.08794622)
(0.2335272 1.224969 0.02086784)
(0.5021225 1.299958 0.09387283)
(0.7004049 1.299917 0.08983229)
(0.899688 1.299886 0.08839952)
(1.099788 1.299865 0.08796679)
(1.299892 1.299852 0.08781938)
(1.499945 1.299844 0.08776092)
(1.699973 1.299841 0.08773882)
(1.899988 1.29984 0.08773531)
(2.099998 1.299841 0.08774571)
(2.300005 1.299844 0.08776917)
(0.2335269 1.424969 0.02086806)
(0.5021032 1.499984 0.09385202)
(0.7003814 1.499968 0.08979533)
(0.8996692 1.499953 0.08834874)
(1.099775 1.499943 0.08790571)
(1.299883 1.499935 0.08775178)
(1.49994 1.49993 0.08768966)
(1.69997 1.499928 0.08766569)
(1.899986 1.499928 0.08766121)
(2.099997 1.499929 0.08767101)
(2.300005 1.499931 0.08769401)
(0.2335267 1.624969 0.02086801)
(0.5020961 1.699993 0.09384391)
(0.7003714 1.699986 0.08978065)
(0.8996601 1.69998 0.08832817)
(1.099768 1.699975 0.08788048)
(1.299879 1.699971 0.08772355)
(1.499937 1.699968 0.08766006)
(1.699968 1.699968 0.08763586)
(1.899986 1.699968 0.08763157)
(2.099997 1.699969 0.08764158)
(2.300006 1.69997 0.0876644)
(0.2335267 1.824969 0.02086794)
(0.5020934 1.899997 0.09384068)
(0.7003672 1.899994 0.0897747)
(0.8996559 1.899991 0.08831989)
(1.099764 1.899988 0.08787067)
(1.299877 1.899987 0.08771323)
(1.499936 1.899987 0.08765035)
(1.699969 1.899988 0.08762801)
(1.899988 1.899991 0.0876265)
(2.099999 1.899993 0.08763903)
(2.300008 1.899995 0.08766371)
(0.2335267 2.024969 0.0208679)
(0.5020924 2.099999 0.09383952)
(0.7003655 2.099997 0.08977261)
(0.8996543 2.099996 0.08831727)
(1.099763 2.099996 0.0878683)
(1.299877 2.099997 0.0877126)
(1.499939 2.1 0.08765331)
(1.699973 2.100005 0.08763712)
(1.899993 2.100012 0.08764433)
(2.100006 2.10002 0.087666)
(2.300013 2.100026 0.08769771)
(0.2335267 2.224969 0.02086789)
(0.502092 2.3 0.09383934)
(0.7003649 2.299999 0.08977255)
(0.8996539 2.3 0.0883179)
(1.099764 2.300001 0.08787079)
(1.29988 2.300005 0.08771961)
(1.499945 2.300012 0.0876694)
(1.699983 2.300025 0.08766948)
(1.900007 2.300043 0.08770125)
(2.100021 2.300067 0.08775098)
(2.300026 2.300088 0.08780469)
(0.2335267 2.424969 0.02086788)
(0.5020919 2.5 0.09383965)
(0.7003649 2.500001 0.08977363)
(0.8996547 2.500002 0.08832073)
(1.099767 2.500006 0.0878777)
(1.299886 2.500013 0.08773546)
(1.499948 2.500019 0.08770929)
(1.699971 2.50002 0.08776219)
(1.899982 2.500042 0.08787613)
(2.100003 2.500098 0.0880177)
(2.300028 2.500157 0.08814541)
(0.2335267 2.624969 0.02086788)
(0.5020919 2.700001 0.09384051)
(0.7003653 2.700002 0.08977582)
(0.8996563 2.700004 0.0883257)
(1.099771 2.700009 0.087889)
(1.299896 2.700021 0.08776251)
(1.499945 2.700011 0.08778846)
(1.699746 2.699794 0.08804841)
(1.899468 2.699566 0.088485)
(2.099532 2.699616 0.08890883)
(2.299877 2.699652 0.08931307)
(0.2335267 2.824969 0.02086787)
(0.5020921 2.900001 0.09384171)
(0.7003662 2.900002 0.08977894)
(0.8996587 2.900005 0.08833254)
(1.099777 2.900012 0.08790449)
(1.29991 2.900028 0.08780136)
(1.499956 2.900004 0.08790631)
(1.699495 2.899497 0.0884837)
(1.897648 2.897709 0.09052286)
(2.097876 2.898908 0.09105075)
(2.300041 2.89869 0.09297006)
(0.2335267 3.024969 0.02086786)
(0.5020929 3.100001 0.09384375)
(0.7003677 3.100003 0.08978358)
(0.8996618 3.100006 0.0883415)
(1.099784 3.100014 0.08792284)
(1.299926 3.10003 0.08784544)
(1.499986 3.10001 0.08803423)
(1.699475 3.099536 0.0888727)
(1.898717 3.097871 0.0909691)
(2.045941 3.046022 0.04124276)
(2.248823 3.044936 0.04261035)
(0.2335267 3.224969 0.02086786)
(0.5020944 3.300002 0.09384721)
(0.7003703 3.300004 0.08979054)
(0.8996656 3.300007 0.08835314)
(1.09979 3.300013 0.08794263)
(1.299937 3.300026 0.08788451)
(1.5 3.300022 0.08813525)
(1.699361 3.299852 0.08920862)
(1.897994 3.29993 0.09265431)
(2.044226 3.248714 0.04246485)
(2.223702 3.223753 0.02075579)
(0.2335267 3.424969 0.02086786)
(0.5020972 3.500002 0.09385311)
(0.7003747 3.500004 0.08980128)
(0.8996706 3.500007 0.0883689)
(1.099795 3.500012 0.08796442)
(1.299943 3.50002 0.08791624)
(1.499989 3.500027 0.08819683)
(1.699191 3.500035 0.08939355)
(1.897841 3.500064 0.09285584)
(2.044225 3.449046 0.04279704)
(2.224623 3.424567 0.02137068)
(0.2335267 3.624969 0.02086787)
(0.5021013 3.700003 0.09386231)
(0.7003809 3.700005 0.08981591)
(0.8996772 3.700007 0.08838865)
(1.099801 3.70001 0.08798849)
(1.299948 3.700015 0.08794436)
(1.499985 3.700024 0.08823308)
(1.699168 3.70004 0.08944023)
(1.897788 3.700064 0.09287629)
(2.044164 3.649013 0.04279229)
(2.224665 3.624496 0.02137411)
(0.2335268 3.824969 0.02086795)
(0.5021057 3.900003 0.09387422)
(0.7003876 3.900004 0.08983168)
(0.899684 3.900006 0.08840832)
(1.099807 3.900007 0.0880104)
(1.299952 3.900009 0.08796577)
(1.5 3.90002 0.08824905)
(1.699218 3.900048 0.08945621)
(1.897936 3.900088 0.09296451)
(2.044253 3.84902 0.04282789)
(2.224706 3.8245 0.02137729)
(0.2335269 4.024969 0.0208683)
(0.5021082 4.100002 0.09388533)
(0.700392 4.100002 0.08984221)
(0.8996882 4.100002 0.08841936)
(1.099809 4.100002 0.08801952)
(1.299951 4.099999 0.08796674)
(1.500009 4.100023 0.08821971)
(1.699369 4.100243 0.0892999)
(1.89799 4.100296 0.09277438)
(2.044179 4.049146 0.04277042)
(2.224035 4.02453 0.0213772)
(0.2335272 4.224969 0.02086914)
(2.044481 4.250241 0.04197332)
(2.249168 4.251473 0.04488544)
(0.4508068 0.2590652 0.2508061)
(0.6504399 0.2584685 0.2516826)
(0.8500226 0.2581531 0.2521353)
(1.049989 0.258087 0.2521588)
(1.249992 0.2580768 0.2521531)
(1.449994 0.2580741 0.2521515)
(1.649994 0.2580733 0.2521512)
(1.849995 0.2580731 0.2521511)
(2.049995 0.2580733 0.2521517)
(2.249995 0.2580742 0.2521533)
(0.2587948 0.4516446 0.2485866)
(0.5002139 0.500098 0.2939906)
(0.6997239 0.4995281 0.2915759)
(0.8997801 0.4989093 0.2906485)
(1.099864 0.4986205 0.2903187)
(1.299924 0.4985055 0.2901943)
(1.499959 0.4984602 0.2901455)
(1.699979 0.4984436 0.2901287)
(1.89999 0.498441 0.2901292)
(2.099998 0.4984478 0.2901452)
(2.300004 0.4984625 0.290179)
(0.30843 0.701327 0.2970729)
(0.4989052 0.6996394 0.2904842)
(0.6990985 0.6989398 0.2859489)
(0.899465 0.6983752 0.2840034)
(1.099697 0.6980601 0.2833001)
(1.299833 0.6979064 0.2830348)
(1.499909 0.697837 0.2829304)
(1.699952 0.6978094 0.2828937)
(1.899977 0.6978046 0.2828935)
(2.099993 0.6978153 0.2829231)
(2.300006 0.6978375 0.282983)
(0.3070629 0.9003726 0.2974355)
(0.4975058 0.8996972 0.2891706)
(0.6983875 0.8993176 0.2836277)
(0.8991146 0.8989776 0.2810248)
(1.099514 0.898755 0.2800235)
(1.299735 0.898629 0.2796295)
(1.499855 0.8985645 0.2794704)
(1.699923 0.8985364 0.2794125)
(1.899962 0.8985312 0.2794091)
(2.099987 0.8985426 0.2794487)
(2.300008 0.8985663 0.2795298)
(0.3065729 1.099973 0.2974615)
(0.4969289 1.099819 0.2887154)
(0.6979717 1.099625 0.2827885)
(0.8988641 1.099438 0.2798828)
(1.099368 1.0993 0.2787064)
(1.299651 1.099212 0.2782229)
(1.499808 1.099163 0.2780213)
(1.699896 1.09914 0.2779449)
(1.899948 1.099135 0.2779363)
(2.099982 1.099145 0.2779798)
(2.300008 1.099165 0.2780729)
(0.3064636 1.299969 0.2974119)
(0.4967262 1.299904 0.2885442)
(0.6977713 1.299805 0.2824684)
(0.8987171 1.299704 0.2794296)
(1.099271 1.299623 0.2781622)
(1.29959 1.299567 0.2776251)
(1.499771 1.299534 0.2773953)
(1.699875 1.299517 0.2773051)
(1.899937 1.299513 0.2772907)
(2.099977 1.29952 0.2773331)
(2.300008 1.299535 0.2774291)
(0.306437 1.499986 0.2973878)
(0.4966533 1.499951 0.2884761)
(0.6976803 1.499899 0.2823385)
(0.8986383 1.499845 0.2792409)
(1.099213 1.499799 0.2779292)
(1.29955 1.499766 0.2773635)
(1.499746 1.499745 0.2771175)
(1.699861 1.499734 0.2770193)
(1.899929 1.499732 0.2770007)
(2.099974 1.499737 0.2770403)
(2.300008 1.499746 0.2771346)
(0.3064281 1.699994 0.2973795)
(0.496625 1.699975 0.2884486)
(0.6976394 1.699948 0.2822843)
(0.8985982 1.699919 0.2791607)
(1.09918 1.699894 0.2778288)
(1.299527 1.699876 0.2772502)
(1.499732 1.699865 0.2769979)
(1.699853 1.69986 0.2768979)
(1.899927 1.699861 0.2768798)
(2.099975 1.699865 0.27692)
(2.300011 1.69987 0.2770133)
(0.3064248 1.899997 0.2973764)
(0.4966137 1.899988 0.2884374)
(0.6976213 1.899974 0.2822619)
(0.898579 1.899959 0.2791279)
(1.099164 1.899947 0.2777887)
(1.299517 1.89994 0.2772074)
(1.499727 1.899937 0.276958)
(1.699854 1.899939 0.2768656)
(1.899932 1.899945 0.2768583)
(2.099982 1.899951 0.276909)
(2.300018 1.899954 0.2770088)
(0.3064235 2.099999 0.2973756)
(0.496609 2.099994 0.2884334)
(0.6976137 2.099988 0.2822541)
(0.898571 2.099982 0.2791177)
(1.099158 2.099979 0.2777795)
(1.299515 2.09998 0.2772049)
(1.499731 2.099987 0.27697)
(1.699864 2.099999 0.2769017)
(1.899947 2.100015 0.2769269)
(2.1 2.10003 0.2770118)
(2.300035 2.100036 0.2771376)
(0.306423 2.3 0.2973755)
(0.4966072 2.299998 0.2884328)
(0.6976108 2.299997 0.282254)
(0.8985686 2.299997 0.2791204)
(1.099159 2.300001 0.2777903)
(1.299521 2.300011 0.2772337)
(1.499745 2.30003 0.2770331)
(1.699888 2.300059 0.2770238)
(1.89998 2.300096 0.2771336)
(2.100038 2.300134 0.2773124)
(2.30007 2.300155 0.2775124)
(0.3064227 2.5 0.2973758)
(0.4966063 2.500001 0.2884343)
(0.69761 2.500002 0.2822587)
(0.8985699 2.500007 0.2791327)
(1.099164 2.500018 0.2778187)
(1.299535 2.500039 0.2772964)
(1.499772 2.500073 0.2771669)
(1.699932 2.500128 0.2772932)
(1.900044 2.500205 0.277622)
(2.100116 2.500299 0.2780605)
(2.300139 2.500369 0.2784653)
(0.3064226 2.7 0.2973762)
(0.4966061 2.700002 0.2884374)
(0.6976106 2.700006 0.2822675)
(0.8985734 2.700015 0.2791531)
(1.099174 2.700032 0.2778643)
(1.299557 2.700063 0.2773992)
(1.499813 2.700118 0.277402)
(1.7 2.700206 0.2778271)
(1.900151 2.700345 0.2787244)
(2.100276 2.700561 0.2798953)
(2.300284 2.700774 0.2808665)
(0.3064227 2.900001 0.2973771)
(0.4966066 2.900003 0.2884423)
(0.6976128 2.900009 0.2822805)
(0.8985791 2.900021 0.2791815)
(1.099187 2.900042 0.2779259)
(1.299584 2.900083 0.2775402)
(1.499866 2.900158 0.2777491)
(1.700093 2.900287 0.2787233)
(1.900308 2.900505 0.2809239)
(2.100674 2.901011 0.2840426)
(2.300626 2.901816 0.2865891)
(0.3064232 3.100001 0.2973785)
(0.4966089 3.100004 0.2884498)
(0.6976176 3.100011 0.2822989)
(0.8985872 3.100024 0.279218)
(1.099201 3.100047 0.2779983)
(1.299609 3.100092 0.2776977)
(1.499919 3.100179 0.2781376)
(1.700213 3.100354 0.2797722)
(1.90064 3.100783 0.2837686)
(2.101475 3.1017 0.2895366)
(2.250979 3.052462 0.2412269)
(0.3064247 3.300001 0.2973812)
(0.4966143 3.300005 0.2884621)
(0.6976272 3.300012 0.2823264)
(0.8985992 3.300024 0.2792655)
(1.099214 3.300046 0.2780773)
(1.299624 3.300086 0.2778425)
(1.49994 3.300161 0.2784461)
(1.700265 3.300314 0.2805145)
(1.901115 3.300709 0.2857141)
(2.051869 3.25107 0.2401923)
(2.227845 3.227711 0.2214878)
(0.3064276 3.500002 0.297386)
(0.4966246 3.500006 0.2884825)
(0.6976441 3.500012 0.2823673)
(0.8986177 3.500023 0.2793284)
(1.099229 3.500041 0.2781648)
(1.299628 3.500071 0.2779658)
(1.499911 3.50012 0.2786351)
(1.700119 3.500191 0.2808157)
(1.900346 3.500235 0.2858856)
(2.100839 3.499988 0.2928528)
(2.256352 3.450269 0.2481396)
(0.306432 3.700002 0.2973937)
(0.4966403 3.700006 0.2885119)
(0.697669 3.700012 0.282422)
(0.8986449 3.700021 0.2794061)
(1.099252 3.700034 0.278261)
(1.299641 3.700057 0.2780767)
(1.499907 3.700094 0.2787607)
(1.700065 3.700161 0.2809489)
(1.90004 3.700291 0.2859318)
(2.098688 3.700593 0.2925033)
(2.24662 3.650085 0.2474369)
(0.3064369 3.900001 0.2974046)
(0.4966584 3.900004 0.2885461)
(0.697697 3.90001 0.2824788)
(0.8986756 3.900016 0.2794818)
(1.09928 3.900025 0.2783464)
(1.299669 3.90004 0.278161)
(1.499961 3.900068 0.2788364)
(1.700252 3.900134 0.2810416)
(1.900856 3.900331 0.2862291)
(2.10346 3.900749 0.2934334)
(2.256742 3.850491 0.2482862)
(0.3064398 4.1 0.2974159)
(0.496672 4.100002 0.288572)
(0.697717 4.100005 0.282514)
(0.898697 4.100008 0.2795225)
(1.099298 4.100011 0.2783811)
(1.299685 4.100017 0.2781671)
(1.499983 4.100028 0.2787727)
(1.700315 4.100061 0.2808455)
(1.901177 4.100156 0.28609)
(2.052378 4.050381 0.2410861)
(2.231581 4.026295 0.2228598)
(2.251245 4.250196 0.24384)
(0.4517872 0.2586912 0.4503652)
(0.7013441 0.3080811 0.5008096)
(0.9003692 0.3066017 0.5016736)
(1.099962 0.3060649 0.5018099)
(1.29996 0.3059382 0.501787)
(1.49998 0.3059052 0.5017694)
(1.69999 0.305895 0.5017633)
(1.899996 0.3058936 0.5017635)
(2.099999 0.3058973 0.501769)
(2.300002 0.3059041 0.5017811)
(0.2584139 0.4522934 0.4496979)
(0.4997895 0.5001981 0.497823)
(0.6995613 0.4985386 0.4964243)
(0.8996215 0.4968243 0.4956727)
(1.099749 0.4960807 0.4953238)
(1.299851 0.4958028 0.495164)
(1.499917 0.4956989 0.4950941)
(1.699955 0.4956622 0.4950683)
(1.899978 0.4956568 0.4950695)
(2.099992 0.4956698 0.4950943)
(2.300003 0.4956956 0.4951449)
(0.3068066 0.702416 0.4988455)
(0.497235 0.6997702 0.4956258)
(0.6982663 0.6986787 0.492619)
(0.8989806 0.6975595 0.4907714)
(1.099416 0.6968797 0.4899121)
(1.299667 0.6965467 0.4895366)
(1.499812 0.6963959 0.4893758)
(1.699896 0.6963365 0.4893162)
(1.899946 0.6963271 0.4893161)
(2.099979 0.6963501 0.4893658)
(2.300004 0.696395 0.4894655)
(0.3043328 0.9007313 0.4985956)
(0.4947195 0.8996668 0.4943769)
(0.696873 0.8990694 0.4903251)
(0.898229 0.8983991 0.4875734)
(1.099019 0.897907 0.486207)
(1.299449 0.8976252 0.4856019)
(1.49969 0.8974802 0.48534)
(1.699828 0.8974176 0.4852408)
(1.899909 0.8974069 0.4852349)
(2.099962 0.897433 0.4853041)
(2.300003 0.8974847 0.4854462)
(0.3035561 1.099978 0.4985377)
(0.4936462 1.099748 0.4938294)
(0.6960305 1.099425 0.4892643)
(0.8976682 1.099051 0.4859967)
(1.098686 1.098747 0.4842743)
(1.299255 1.098547 0.4834873)
(1.499578 1.098434 0.4831395)
(1.699765 1.098382 0.4830035)
(1.899875 1.098372 0.4829873)
(2.099947 1.098395 0.4830646)
(2.300002 1.098441 0.4832313)
(0.3033657 1.299951 0.4984685)
(0.4932597 1.299846 0.4935943)
(0.6956205 1.299663 0.4887999)
(0.8973417 1.299453 0.4852919)
(1.098463 1.299272 0.4833832)
(1.299113 1.299144 0.4824841)
(1.499492 1.299065 0.4820781)
(1.699714 1.299027 0.4819143)
(1.899848 1.299019 0.4818862)
(2.099935 1.299036 0.4819614)
(2.300001 1.299071 0.4821344)
(0.3033165 1.499976 0.4984357)
(0.4931175 1.499913 0.4934942)
(0.6954306 1.499809 0.4885965)
(0.8971657 1.499691 0.4849775)
(1.098329 1.499586 0.4829779)
(1.299021 1.499508 0.4820197)
(1.499433 1.499459 0.4815809)
(1.69968 1.499434 0.4814004)
(1.89983 1.499429 0.4813636)
(2.099928 1.499441 0.4814329)
(2.300001 1.499462 0.4816014)
(0.3033 1.699988 0.4984234)
(0.4930612 1.699953 0.4934519)
(0.6953437 1.699894 0.4885078)
(0.8970756 1.699829 0.4848388)
(1.098254 1.699771 0.4827978)
(1.298967 1.699727 0.4818128)
(1.499399 1.699701 0.4813607)
(1.699662 1.699689 0.4811762)
(1.899824 1.699689 0.4811397)
(2.099929 1.699696 0.4812085)
(2.300007 1.699706 0.4813735)
(0.3032939 1.899995 0.498419)
(0.4930387 1.899975 0.4934343)
(0.6953052 1.899944 0.4884704)
(0.8970324 1.89991 0.484781)
(1.098216 1.899881 0.4827247)
(1.298941 1.899862 0.4817339)
(1.499386 1.899854 0.4812861)
(1.69966 1.899856 0.4811148)
(1.899832 1.899864 0.481097)
(2.099943 1.899873 0.4811835)
(2.300022 1.899874 0.4813588)
(0.3032918 2.099998 0.4984174)
(0.4930299 2.099988 0.4934279)
(0.6952891 2.099973 0.4884574)
(0.8970139 2.099959 0.484763)
(1.098201 2.099951 0.4827081)
(1.298935 2.099951 0.4817289)
(1.499391 2.099961 0.481307)
(1.699678 2.099981 0.4811784)
(1.899861 2.100006 0.4812171)
(2.099978 2.100025 0.481362)
(2.300056 2.100021 0.4815808)
(0.3032908 2.299999 0.4984173)
(0.493026 2.299996 0.4934272)
(0.6952824 2.299992 0.4884575)
(0.8970075 2.299991 0.4847685)
(1.0982 2.299999 0.4827286)
(1.298944 2.300017 0.4817813)
(1.499415 2.30005 0.4814196)
(1.69972 2.300098 0.4813897)
(1.899921 2.300157 0.4815658)
(2.100047 2.300205 0.4818608)
(2.30012 2.300207 0.4821975)
(0.30329 2.5 0.4984178)
(0.493023 2.500001 0.4934301)
(0.6952788 2.500004 0.4884665)
(0.8970073 2.500014 0.4847915)
(1.098209 2.500035 0.4827808)
(1.298967 2.500073 0.4818935)
(1.499461 2.500136 0.4816481)
(1.699798 2.50023 0.4818247)
(1.900034 2.500354 0.4823145)
(2.100182 2.500477 0.4829724)
(2.300238 2.500515 0.4835965)
(0.3032891 2.700001 0.4984187)
(0.4930206 2.700004 0.4934357)
(0.6952767 2.700013 0.4884827)
(0.8970106 2.700031 0.4848294)
(1.098223 2.700065 0.4828636)
(1.299002 2.700123 0.4820714)
(1.49953 2.700223 0.4820254)
(1.699923 2.700385 0.4825941)
(1.900239 2.70063 0.4837512)
(2.100449 2.700934 0.4852504)
(2.300455 2.701096 0.4865377)
(0.3032887 2.900001 0.4984202)
(0.4930195 2.900006 0.493444)
(0.6952775 2.900018 0.4885061)
(0.8970176 2.900043 0.4848812)
(1.098242 2.900086 0.4829733)
(1.299043 2.900163 0.4823083)
(1.499616 2.900302 0.4825487)
(1.7001 2.900549 0.4837402)
(1.900569 2.900964 0.4860563)
(2.100931 2.901596 0.4890948)
(2.300836 2.902164 0.4917154)
(0.3032891 3.100001 0.4984226)
(0.4930221 3.100008 0.4934565)
(0.6952842 3.100022 0.4885384)
(0.8970299 3.100048 0.4849471)
(1.098262 3.100096 0.4831016)
(1.299077 3.100182 0.4825704)
(1.499689 3.100342 0.48312)
(1.700291 3.100655 0.4850267)
(1.901077 3.101255 0.4887181)
(2.10177 3.102203 0.493588)
(2.251483 3.053307 0.4456063)
(0.3032913 3.300002 0.4984268)
(0.493031 3.300008 0.4934763)
(0.6953017 3.300022 0.4885853)
(0.8970516 3.300048 0.4850314)
(1.098281 3.300093 0.483242)
(1.299088 3.300172 0.4828144)
(1.499688 3.300315 0.4835851)
(1.700294 3.300583 0.4859731)
(1.901439 3.301136 0.4906887)
(2.052817 3.251827 0.4446371)
(2.228378 3.228253 0.4235585)
(0.3032958 3.500002 0.4984341)
(0.4930492 3.500009 0.4935075)
(0.6953351 3.500021 0.4886538)
(0.8970897 3.500043 0.4851416)
(1.098308 3.500081 0.4833972)
(1.299083 3.500143 0.4830277)
(1.499594 3.500241 0.4838877)
(1.699915 3.500374 0.4863933)
(1.899901 3.500454 0.490993)
(2.09944 3.500092 0.4963681)
(2.255156 3.450466 0.4493574)
(0.3033028 3.700003 0.4984448)
(0.4930774 3.700008 0.4935504)
(0.6953861 3.700018 0.4887429)
(0.8971488 3.700036 0.485275)
(1.098358 3.700065 0.4835653)
(1.299109 3.700114 0.4832206)
(1.499575 3.700194 0.4840978)
(1.699781 3.700328 0.4865985)
(1.89933 3.700533 0.4910962)
(2.096121 3.700868 0.496274)
(2.237901 3.650146 0.4492424)
(0.3033108 3.900002 0.4984568)
(0.4931094 3.900007 0.4935959)
(0.6954448 3.900014 0.4888319)
(0.897218 3.900026 0.4854007)
(1.098424 3.900047 0.4837107)
(1.299178 3.900084 0.4833639)
(1.499702 3.90015 0.4842244)
(1.700186 3.900282 0.4867388)
(1.900834 3.900569 0.4913779)
(2.103277 3.900991 0.4967215)
(2.255641 3.850408 0.4494639)
(0.3033166 4.100001 0.4984652)
(0.4931336 4.100004 0.4936246)
(0.6954885 4.100009 0.4888828)
(0.8972696 4.100016 0.485463)
(1.098473 4.100027 0.4837633)
(1.299229 4.100048 0.483371)
(1.499788 4.100088 0.4841307)
(1.700408 4.100175 0.4864844)
(1.901621 4.100391 0.4911961)
(2.053509 4.050739 0.4456047)
(2.232223 4.026531 0.4243088)
(2.25181 4.250178 0.4474256)
(0.4522676 0.2583938 0.6500029)
(0.7023446 0.3066677 0.7001266)
(0.9006927 0.3041466 0.7003585)
(1.099959 0.3033455 0.7004607)
(1.29994 0.3031442 0.7004429)
(1.49997 0.3030918 0.7004259)
(1.699986 0.3030767 0.700419)
(1.899994 0.3030761 0.7004191)
(2.099999 0.3030823 0.7004251)
(2.300002 0.3030912 0.7004366)
(0.2583473 0.4523142 0.6499316)
(0.4995295 0.4997002 0.6991606)
(0.6993945 0.4969214 0.6984377)
(0.8994905 0.4942087 0.6979747)
(1.099654 0.4930233 0.6977228)
(1.299792 0.4925835 0.697595)
(1.499881 0.4924228 0.6975344)
(1.699935 0.4923695 0.6975103)
(1.899967 0.4923659 0.6975104)
(2.099987 0.4923885 0.6975325)
(2.300003 0.492424 0.6975783)
(0.3062015 0.702576 0.6994319)
(0.4963819 0.6995267 0.6981747)
(0.6976239 0.697938 0.6966613)
(0.8985755 0.6962619 0.6955305)
(1.099171 0.6952155 0.6948955)
(1.299519 0.6946997 0.6945877)
(1.499725 0.6944682 0.6944466)
(1.699845 0.6943809 0.6943914)
(1.899917 0.6943725 0.69439)
(2.099964 0.6944117 0.6944361)
(2.3 0.6944778 0.6945314)
(0.3034372 0.9008612 0.6991434)
(0.4933258 0.8995398 0.6974638)
(0.6957519 0.8986962 0.6952562)
(0.8974889 0.8977005 0.6934141)
(1.098565 0.8969298 0.6923003)
(1.299183 0.8964767 0.6917583)
(1.499534 0.8962473 0.6915146)
(1.699737 0.8961519 0.691419)
(1.899857 0.8961401 0.6914116)
(2.099935 0.8961847 0.6914781)
(2.299996 0.8962648 0.6916193)
(0.3024891 1.099969 0.699022)
(0.4919696 1.099665 0.697084)
(0.6945807 1.099208 0.694456)
(0.8966441 1.098637 0.692114)
(1.098029 1.09814 0.6905918)
(1.298871 1.097806 0.689819)
(1.499353 1.097621 0.6894739)
(1.699633 1.097538 0.689336)
(1.8998 1.097526 0.6893163)
(2.099907 1.097564 0.6893907)
(2.299991 1.097639 0.6895589)
(0.3022518 1.299936 0.6989682)
(0.4914581 1.299792 0.6969008)
(0.6939926 1.299529 0.6940647)
(0.8961367 1.299208 0.6914693)
(1.09766 1.298915 0.689708)
(1.298636 1.298702 0.6887757)
(1.49921 1.298574 0.6883566)
(1.69955 1.298513 0.6881847)
(1.899755 1.298502 0.6881498)
(2.099886 1.29853 0.6882194)
(2.299987 1.298586 0.6883915)
(0.3021871 1.499967 0.6989442)
(0.4912606 1.499879 0.6968173)
(0.6937117 1.499727 0.6938821)
(0.8958622 1.499545 0.691169)
(1.097441 1.499375 0.6892979)
(1.298485 1.499246 0.6882894)
(1.499114 1.499165 0.6878299)
(1.699493 1.499125 0.6876372)
(1.899725 1.499118 0.6875901)
(2.099874 1.499136 0.6876492)
(2.299987 1.499171 0.687811)
(0.3021646 1.699984 0.6989348)
(0.4911804 1.699933 0.6967804)
(0.6935813 1.699846 0.6937995)
(0.8957213 1.699743 0.6910327)
(1.097321 1.699648 0.6891123)
(1.298398 1.699576 0.6880702)
(1.499058 1.699531 0.6875938)
(1.699463 1.699511 0.6873951)
(1.899714 1.69951 0.6873456)
(2.099876 1.699521 0.6874003)
(2.299995 1.699537 0.6875525)
(0.302157 1.899993 0.6989312)
(0.49115 1.899965 0.6967645)
(0.6935254 1.899917 0.6937635)
(0.8956551 1.899863 0.6909745)
(1.097261 1.899815 0.689036)
(1.298355 1.899782 0.6879857)
(1.499034 1.899766 0.6875127)
(1.699458 1.899766 0.6873266)
(1.899725 1.899776 0.6872953)
(2.099896 1.899786 0.6873658)
(2.300019 1.899784 0.6875245)
(0.3021553 2.099997 0.69893)
(0.4911403 2.099983 0.6967583)
(0.6935042 2.09996 0.6937504)
(0.8956275 2.099937 0.6909563)
(1.097237 2.099921 0.6890185)
(1.298343 2.099918 0.6879796)
(1.49904 2.099931 0.6875334)
(1.699482 2.099957 0.6873915)
(1.899765 2.099988 0.6874184)
(2.099946 2.100007 0.6875484)
(2.300068 2.09999 0.68775)
(0.3021544 2.299999 0.6989297)
(0.4911355 2.299994 0.6967577)
(0.693494 2.299987 0.6937508)
(0.8956167 2.299985 0.6909625)
(1.097233 2.299994 0.6890404)
(1.298354 2.30002 0.6880348)
(1.499073 2.300065 0.6876503)
(1.699542 2.300131 0.6876098)
(1.899851 2.300205 0.6877789)
(2.100046 2.300258 0.6880627)
(2.300161 2.300234 0.688382)
(0.3021522 2.499999 0.6989303)
(0.4911281 2.500001 0.6967615)
(0.693484 2.500006 0.6937615)
(0.8956111 2.50002 0.6909874)
(1.097241 2.50005 0.6890958)
(1.298384 2.500105 0.6881519)
(1.499136 2.500193 0.6878855)
(1.699652 2.500323 0.6880544)
(1.900015 2.500488 0.6885499)
(2.100234 2.500632 0.6892038)
(2.300325 2.500629 0.6897968)
(0.3021489 2.7 0.6989318)
(0.4911183 2.700005 0.6967689)
(0.6934724 2.700018 0.6937803)
(0.8956078 2.700045 0.6910285)
(1.097255 2.700094 0.6891834)
(1.298428 2.70018 0.6883359)
(1.499231 2.700323 0.6882682)
(1.699831 2.700552 0.6888302)
(1.900273 2.700849 0.6899177)
(2.100546 2.701138 0.6912207)
(2.300585 2.70121 0.6922863)
(0.3021462 2.900001 0.6989339)
(0.4911104 2.900008 0.696779)
(0.6934645 2.900026 0.6938061)
(0.8956088 2.900061 0.6910835)
(1.097275 2.900126 0.6892979)
(1.298479 2.90024 0.688578)
(1.499346 2.90044 0.6887939)
(1.700054 2.900767 0.6899037)
(1.900648 2.901251 0.6917881)
(2.10109 2.901923 0.6939433)
(2.300982 2.902467 0.6956562)
(0.3021453 3.100001 0.6989362)
(0.4911093 3.10001 0.6967918)
(0.6934671 3.10003 0.6938395)
(0.8956191 3.100069 0.6911516)
(1.097295 3.10014 0.6894301)
(1.298516 3.100268 0.6888425)
(1.499433 3.100498 0.6893564)
(1.700242 3.100892 0.6910097)
(1.901199 3.101572 0.6936706)
(2.101988 3.102516 0.6966575)
(2.251682 3.053626 0.6477727)
(0.3021474 3.300002 0.6989395)
(0.4911191 3.300011 0.6968104)
(0.693488 3.30003 0.6938856)
(0.8956458 3.300067 0.6912365)
(1.097316 3.300135 0.6895727)
(1.298518 3.300253 0.6890858)
(1.499398 3.300459 0.6898022)
(1.700152 3.300804 0.6918002)
(1.901507 3.301401 0.6949811)
(2.053104 3.252156 0.6472243)
(2.228473 3.228387 0.6243059)
(0.3021532 3.500003 0.698946)
(0.4911434 3.500011 0.6968392)
(0.6935347 3.500027 0.6939508)
(0.8957005 3.500059 0.6913445)
(1.097353 3.500115 0.6897271)
(1.298497 3.500209 0.6892954)
(1.49923 3.500354 0.6900833)
(1.699579 3.500542 0.6921628)
(1.899596 3.50063 0.6952525)
(2.099146 3.500217 0.6982603)
(2.254979 3.450552 0.6497126)
(0.3021626 3.700003 0.6989559)
(0.4911825 3.70001 0.696878)
(0.6936093 3.700023 0.6940328)
(0.8957906 3.700046 0.6914707)
(1.097429 3.700091 0.6898889)
(1.298533 3.700166 0.68948)
(1.499189 3.700287 0.6902757)
(1.699365 3.700462 0.692341)
(1.898852 3.700676 0.6953498)
(2.095563 3.70095 0.6982364)
(2.237006 3.650176 0.6496637)
(0.3021736 3.900003 0.6989661)
(0.4912281 3.900009 0.6969162)
(0.6936972 3.900017 0.6941097)
(0.8959003 3.900033 0.6915821)
(1.097537 3.900066 0.6900189)
(1.298645 3.900124 0.6896073)
(1.499384 3.900226 0.6903874)
(1.699919 3.900398 0.6924475)
(1.900664 3.900688 0.6955191)
(2.103179 3.901034 0.6984655)
(2.25545 3.850381 0.649773)
(0.3021821 4.100002 0.6989726)
(0.4912638 4.100006 0.696937)
(0.6937656 4.100012 0.6941457)
(0.895986 4.100023 0.6916242)
(1.097624 4.100043 0.6900476)
(1.298741 4.100079 0.6895907)
(1.499546 4.100146 0.6902793)
(1.700301 4.100274 0.6922194)
(1.901715 4.100489 0.6953662)
(2.053774 4.05084 0.6479002)
(2.232273 4.026549 0.6246991)
(2.251947 4.250063 0.648835)
(0.4523037 0.2583333 0.8499874)
(0.7025286 0.3061546 0.8999345)
(0.9008343 0.3033743 0.8999268)
(1.099957 0.3024164 0.8999236)
(1.29993 0.3021764 0.8999158)
(1.499965 0.3021151 0.8999053)
(1.699985 0.3021013 0.8998984)
(1.899996 0.3021085 0.8998977)
(2.1 0.3021243 0.8999017)
(2.300002 0.3021385 0.89991)
(0.2583363 0.4522979 0.8499829)
(0.4994365 0.4994717 0.8997675)
(0.6993137 0.4962609 0.8995591)
(0.8994222 0.4931331 0.8994246)
(1.099604 0.4917322 0.8993475)
(1.299759 0.4912056 0.8993042)
(1.499861 0.491016 0.8992775)
(1.699924 0.4909632 0.8992621)
(1.899961 0.4909784 0.8992582)
(2.099985 0.4910258 0.8992668)
(2.300003 0.4910765 0.8992919)
(0.3060776 0.702547 0.8998338)
(0.4961364 0.6993457 0.8994685)
(0.6973604 0.6974551 0.8990275)
(0.8983746 0.6954452 0.8986936)
(1.099041 0.6941732 0.8984939)
(1.299438 0.6935439 0.8983893)
(1.499675 0.6932658 0.8983352)
(1.699816 0.693172 0.8983088)
(1.8999 0.6931823 0.8983031)
(2.099955 0.6932505 0.8983211)
(2.299999 0.6933387 0.8983699)
(0.3032447 0.9008496 0.8997296)
(0.4929175 0.8994352 0.899221)
(0.6952795 0.8984157 0.8985482)
(0.8971129 0.8971966 0.8979654)
(1.098317 0.8962421 0.8975813)
(1.299033 0.8956742 0.8973823)
(1.499444 0.8953916 0.8972889)
(1.699683 0.8952826 0.8972479)
(1.899826 0.8952825 0.8972398)
(2.099917 0.8953514 0.8972652)
(2.299991 0.8954554 0.8973336)
(0.3022553 1.099958 0.8996778)
(0.4914569 1.099605 0.8990724)
(0.6939466 1.099054 0.8982394)
(0.8961111 1.098351 0.8974499)
(1.097669 1.097733 0.8968768)
(1.298645 1.097313 0.8965653)
(1.499218 1.097082 0.8964256)
(1.699553 1.096983 0.8963656)
(1.899753 1.096976 0.8963498)
(2.099881 1.097032 0.8963734)
(2.299981 1.097127 0.8964472)
(0.3019952 1.299926 0.8996537)
(0.4908812 1.299757 0.8989967)
(0.6932567 1.299442 0.8980764)
(0.8954907 1.299048 0.89717)
(1.097212 1.298677 0.8964731)
(1.298345 1.298402 0.8960776)
(1.499037 1.298238 0.8959007)
(1.699447 1.298162 0.8958225)
(1.899695 1.298153 0.8957942)
(2.099853 1.298193 0.895805)
(2.299975 1.298264 0.895867)
(0.3019171 1.499962 0.8996433)
(0.4906424 1.499859 0.8989624)
(0.6929131 1.499677 0.8979986)
(0.8951486 1.499453 0.8970358)
(1.096935 1.499239 0.8962812)
(1.298151 1.499074 0.8958451)
(1.498913 1.49897 0.8956464)
(1.699374 1.49892 0.8955552)
(1.899656 1.498913 0.8955142)
(2.099837 1.498938 0.8955079)
(2.299973 1.498982 0.8955476)
(0.3018884 1.699982 0.8996399)
(0.490543 1.699921 0.8989478)
(0.6927522 1.699817 0.8979628)
(0.8949728 1.699691 0.8969733)
(1.096783 1.699571 0.896193)
(1.298039 1.699478 0.8957386)
(1.498841 1.69942 0.89553)
(1.699335 1.699395 0.8954327)
(1.899641 1.699393 0.8953844)
(2.099838 1.699408 0.8953652)
(2.299983 1.699427 0.8953843)
(0.3018834 1.899992 0.8996392)
(0.4905154 1.899958 0.8989399)
(0.6926922 1.8999 0.8979448)
(0.8948953 1.899833 0.8969446)
(1.09671 1.899772 0.8961552)