/*--------------------------------*- C++ -*----------------------------------*\
  =========                 |
  \\      /  F ield         | OpenFOAM: The Open Source CFD Toolbox
   \\    /   O peration     | Website:  https://openfoam.org
    \\  /    A nd           | Version:  7
     \\/     M anipulation  |
\*---------------------------------------------------------------------------*/
FoamFile
{
    version     2.0;
    format      ascii;
    class       volScalarField;
    location    "0.1";
    object      Cx;
}
// * * * * * * * * * * * * * * * * * * * * * * * * * * * * * * * * * * * * * //

dimensions      [0 1 0 0 0 0 0];

internalField   nonuniform List<scalar> 
105056
(
0.4498022
0.649942
0.8499909
1.049999
1.25
0.450286
0.6499112
0.8499806
1.049997
1.249999
0.4502746
0.6499053
0.8499794
1.049998
1.25
0.4502723
0.6499046
0.8499799
1.049998
1.250001
0.4502722
0.6499048
0.8499803
1.049998
1.250001
0.4502722
0.6499049
0.8499804
1.049999
1.250002
0.4502722
0.649905
0.8499805
1.049999
1.250002
0.4502722
0.649905
0.8499805
1.049999
1.250002
0.4502722
0.649905
0.8499805
1.049999
1.250002
0.4502722
0.649905
0.8499805
1.049999
1.250002
0.4502722
0.649905
0.8499805
1.049999
1.250002
0.4502722
0.649905
0.8499806
1.049999
1.250002
0.4502722
0.649905
0.8499806
1.049999
1.250002
0.4502722
0.649905
0.8499806
1.049999
1.250002
0.4502722
0.649905
0.8499806
1.049999
1.250002
0.4502722
0.649905
0.8499805
1.049999
1.250002
0.4502722
0.649905
0.8499805
1.049999
1.250002
0.4502722
0.649905
0.8499805
1.049999
1.250002
0.4502722
0.649905
0.8499805
1.049999
1.250002
0.4502722
0.649905
0.8499805
1.049999
1.250002
0.4502724
0.6499051
0.8499804
1.049999
1.250001
0.4502736
0.6499057
0.8499806
1.049999
1.250001
0.4488561
0.649908
0.8499811
1.049998
1.250001
0.451212
0.6499994
0.8499983
1.05
1.250001
0.2578174
0.4997566
0.699924
0.8999925
1.100004
1.300002
0.2577723
0.5001554
0.6999635
0.9000023
1.100013
1.300009
0.2577762
0.5002027
0.6999818
0.9000133
1.100022
1.300016
0.2577775
0.5002071
0.6999897
0.9000214
1.100029
1.300021
0.2577777
0.5002074
0.6999934
0.9000265
1.100034
1.300025
0.2577778
0.5002074
0.6999954
0.9000292
1.100036
1.300027
0.2577778
0.5002076
0.6999963
0.9000309
1.100038
1.300029
0.2577778
0.5002077
0.699997
0.9000316
1.100039
1.30003
0.2577778
0.5002077
0.6999972
0.9000322
1.10004
1.30003
0.2577778
0.5002078
0.6999973
0.9000323
1.10004
1.300031
0.2577778
0.5002078
0.6999975
0.9000324
1.10004
1.300031
0.2577778
0.5002078
0.6999974
0.9000326
1.10004
1.300031
0.2577778
0.5002078
0.6999975
0.9000326
1.10004
1.300031
0.2577778
0.5002078
0.6999975
0.9000326
1.10004
1.300031
0.2577778
0.5002078
0.6999974
0.9000326
1.10004
1.300031
0.2577778
0.5002078
0.6999974
0.9000325
1.10004
1.300031
0.2577778
0.5002078
0.6999973
0.9000322
1.10004
1.30003
0.2577778
0.5002079
0.6999971
0.9000319
1.100039
1.30003
0.2577778
0.500208
0.6999968
0.9000313
1.100039
1.300029
0.2577778
0.5002083
0.6999964
0.9000302
1.100037
1.300028
0.2577778
0.5002088
0.6999958
0.9000286
1.100036
1.300027
0.2577782
0.500211
0.6999962
0.900027
1.100034
1.300025
0.2577906
0.5002227
0.6999998
0.9000265
1.100032
1.300024
0.4519429
0.6500239
0.8499978
1.05
1.25
0.2578945
0.5001195
0.7000899
0.9000529
1.100028
1.300013
0.2577942
0.5008074
0.7003212
0.9001386
1.100069
1.300035
0.2578024
0.5009853
0.7004587
0.9002065
1.100108
1.300057
0.2578066
0.5010319
0.7005152
0.9002451
1.100135
1.300075
0.2578074
0.5010466
0.700539
0.9002666
1.100152
1.300087
0.2578077
0.501052
0.7005496
0.9002778
1.100162
1.300094
0.2578078
0.5010543
0.7005544
0.9002836
1.100167
1.300099
0.2578078
0.5010554
0.7005567
0.9002863
1.10017
1.300101
0.2578078
0.5010558
0.7005578
0.9002879
1.100172
1.300103
0.2578079
0.5010561
0.7005584
0.9002887
1.100173
1.300103
0.2578079
0.5010562
0.7005587
0.9002891
1.100173
1.300104
0.2578079
0.5010562
0.7005588
0.9002893
1.100174
1.300104
0.2578079
0.5010563
0.7005588
0.9002893
1.100174
1.300104
0.2578079
0.5010562
0.7005588
0.9002893
1.100173
1.300104
0.2578079
0.5010562
0.7005587
0.9002892
1.100173
1.300104
0.2578079
0.5010561
0.7005585
0.9002889
1.100173
1.300103
0.2578079
0.5010559
0.700558
0.9002881
1.100172
1.300103
0.2578078
0.5010555
0.700557
0.9002868
1.100171
1.300102
0.2578078
0.5010545
0.7005549
0.9002843
1.100168
1.3001
0.2578077
0.5010524
0.7005509
0.9002798
1.100164
1.300096
0.2578075
0.5010479
0.7005443
0.9002729
1.100158
1.300092
0.2578068
0.5010405
0.7005358
0.9002647
1.100151
1.300087
0.257806
0.5010341
0.7005294
0.9002587
1.100146
1.300084
0.4519597
0.65003
0.8499997
1.050001
1.25
0.2579045
0.500167
0.7001569
0.9000941
1.100049
1.300024
0.2578075
0.5008976
0.700479
0.9002461
1.100123
1.300062
0.2578173
0.5011188
0.7007012
0.900386
1.100199
1.300103
0.2578228
0.5011899
0.7008078
0.9004733
1.100253
1.300136
0.2578242
0.5012161
0.7008534
0.9005181
1.100284
1.300159
0.2578246
0.5012266
0.7008737
0.9005408
1.100303
1.300173
0.2578248
0.5012311
0.700883
0.9005518
1.100313
1.300181
0.2578249
0.5012332
0.7008874
0.9005572
1.100318
1.300185
0.2578249
0.5012341
0.7008894
0.9005601
1.100321
1.300188
0.2578249
0.5012345
0.7008905
0.9005615
1.100323
1.300189
0.2578249
0.5012348
0.7008909
0.9005622
1.100324
1.30019
0.2578249
0.5012348
0.7008912
0.9005625
1.100324
1.30019
0.2578249
0.5012349
0.7008911
0.9005626
1.100324
1.30019
0.2578249
0.5012349
0.7008912
0.9005624
1.100324
1.30019
0.2578249
0.5012348
0.700891
0.9005623
1.100324
1.30019
0.2578249
0.5012346
0.7008906
0.9005616
1.100323
1.300189
0.2578249
0.5012342
0.7008896
0.9005604
1.100322
1.300188
0.2578249
0.5012333
0.7008876
0.9005579
1.100319
1.300186
0.2578248
0.5012312
0.7008834
0.9005529
1.100315
1.300183
0.2578247
0.5012269
0.7008755
0.900544
1.100307
1.300177
0.2578242
0.5012183
0.7008621
0.9005304
1.100296
1.300169
0.2578227
0.5012037
0.7008442
0.9005139
1.100283
1.30016
0.2578198
0.5011873
0.7008283
0.9005008
1.100274
1.300154
0.4519633
0.6500314
0.8500008
1.050001
1.250001
0.2579062
0.5001736
0.7001767
0.9001113
1.100059
1.30003
0.2578113
0.5009121
0.7005231
0.9002904
1.100152
1.300078
0.257822
0.5011448
0.70077
0.9004661
1.100254
1.300132
0.257828
0.5012254
0.7008976
0.9005874
1.100338
1.30018
0.2578295
0.5012571
0.7009556
0.9006526
1.100393
1.300213
0.2578301
0.5012704
0.7009819
0.900684
1.100421
1.300233
0.2578302
0.5012763
0.7009939
0.900699
1.100435
1.300244
0.2578304
0.501279
0.7009996
0.9007065
1.100443
1.30025
0.2578304
0.5012802
0.7010022
0.9007103
1.100447
1.300253
0.2578304
0.5012808
0.7010036
0.900712
1.100449
1.300255
0.2578304
0.5012811
0.7010042
0.9007129
1.10045
1.300256
0.2578304
0.5012812
0.7010045
0.9007134
1.10045
1.300256
0.2578304
0.5012813
0.7010045
0.9007135
1.10045
1.300256
0.2578304
0.5012812
0.7010045
0.9007134
1.10045
1.300256
0.2578304
0.5012811
0.7010043
0.900713
1.10045
1.300256
0.2578304
0.5012809
0.7010037
0.9007121
1.100449
1.300255
0.2578304
0.5012803
0.7010025
0.9007105
1.100447
1.300254
0.2578304
0.5012791
0.7009999
0.9007071
1.100444
1.300251
0.2578303
0.5012764
0.7009944
0.9007005
1.100438
1.300246
0.2578301
0.5012708
0.7009842
0.9006886
1.100427
1.300239
0.2578295
0.5012601
0.7009672
0.9006704
1.100412
1.300228
0.2578278
0.5012424
0.7009447
0.9006482
1.100395
1.300217
0.2578243
0.5012224
0.7009243
0.9006305
1.100382
1.300209
0.4519597
0.6500315
0.850001
1.050002
1.250001
0.2579065
0.5001736
0.7001768
0.9001115
1.10006
1.30003
0.2578115
0.5009121
0.7005231
0.9002905
1.100152
1.300078
0.2578222
0.5011449
0.70077
0.9004661
1.100254
1.300132
0.2578282
0.5012254
0.7008977
0.9005875
1.100338
1.30018
0.2578298
0.5012571
0.7009556
0.9006527
1.100393
1.300213
0.2578304
0.5012704
0.700982
0.900684
1.100421
1.300233
0.2578305
0.5012764
0.700994
0.900699
1.100435
1.300244
0.2578306
0.501279
0.7009997
0.9007065
1.100443
1.30025
0.2578306
0.5012803
0.7010023
0.9007103
1.100447
1.300253
0.2578307
0.5012808
0.7010037
0.900712
1.100449
1.300255
0.2578307
0.5012811
0.7010043
0.9007129
1.10045
1.300256
0.2578307
0.5012812
0.7010046
0.9007134
1.10045
1.300256
0.2578307
0.5012813
0.7010046
0.9007136
1.10045
1.300256
0.2578307
0.5012812
0.7010045
0.9007134
1.10045
1.300256
0.2578307
0.5012811
0.7010043
0.9007131
1.100449
1.300256
0.2578307
0.5012809
0.7010038
0.9007122
1.100449
1.300255
0.2578307
0.5012804
0.7010026
0.9007106
1.100447
1.300254
0.2578306
0.5012791
0.7009999
0.9007072
1.100444
1.300251
0.2578306
0.5012764
0.7009946
0.9007006
1.100438
1.300246
0.2578304
0.5012708
0.7009844
0.9006887
1.100427
1.300239
0.2578298
0.5012602
0.7009674
0.9006707
1.100412
1.300228
0.257828
0.5012425
0.700945
0.9006487
1.100395
1.300218
0.2578245
0.5012226
0.7009247
0.9006311
1.100383
1.30021
0.4519654
0.6500314
0.8500008
1.050002
1.250001
0.2579057
0.5001674
0.7001572
0.9000942
1.100049
1.300024
0.2578098
0.5008977
0.7004792
0.9002462
1.100123
1.300062
0.25782
0.5011188
0.7007014
0.900386
1.100199
1.300103
0.2578256
0.50119
0.700808
0.9004732
1.100253
1.300136
0.257827
0.5012162
0.7008536
0.9005181
1.100284
1.300159
0.2578275
0.5012267
0.7008738
0.9005408
1.100303
1.300173
0.2578276
0.5012312
0.7008831
0.9005518
1.100313
1.300181
0.2578277
0.5012332
0.7008875
0.9005571
1.100318
1.300185
0.2578277
0.5012342
0.7008895
0.9005601
1.100321
1.300188
0.2578278
0.5012347
0.7008906
0.9005614
1.100323
1.300189
0.2578278
0.5012349
0.700891
0.9005622
1.100324
1.30019
0.2578278
0.5012349
0.7008914
0.9005624
1.100324
1.30019
0.2578278
0.501235
0.7008913
0.9005626
1.100324
1.30019
0.2578278
0.501235
0.7008913
0.9005624
1.100324
1.30019
0.2578278
0.501235
0.7008912
0.9005622
1.100324
1.30019
0.2578278
0.5012348
0.7008907
0.9005616
1.100323
1.300189
0.2578277
0.5012343
0.7008898
0.9005604
1.100322
1.300188
0.2578277
0.5012334
0.7008878
0.9005579
1.100319
1.300186
0.2578276
0.5012314
0.7008837
0.900553
1.100315
1.300183
0.2578275
0.5012271
0.7008759
0.9005442
1.100307
1.300177
0.257827
0.5012186
0.7008626
0.9005311
1.100297
1.300169
0.2578253
0.5012041
0.7008452
0.9005152
1.100285
1.300162
0.2578221
0.501188
0.7008295
0.9005027
1.100277
1.300157
0.4519613
0.6500294
0.8499997
1.050001
1.250001
0.2579
0.5001198
0.7000901
0.9000529
1.100028
1.300013
0.2577987
0.5008076
0.7003212
0.9001386
1.100069
1.300035
0.2578068
0.5009855
0.7004587
0.9002065
1.100108
1.300057
0.2578115
0.501032
0.700515
0.9002451
1.100135
1.300075
0.2578125
0.5010468
0.7005388
0.9002666
1.100152
1.300087
0.2578128
0.5010521
0.7005495
0.9002778
1.100162
1.300094
0.257813
0.5010543
0.7005544
0.9002835
1.100167
1.300099
0.257813
0.5010555
0.7005567
0.9002862
1.10017
1.300101
0.257813
0.5010559
0.7005577
0.9002878
1.100172
1.300103
0.257813
0.5010562
0.7005583
0.9002886
1.100173
1.300103
0.257813
0.5010563
0.7005586
0.9002891
1.100173
1.300104
0.257813
0.5010564
0.7005587
0.9002893
1.100173
1.300104
0.257813
0.5010564
0.7005587
0.9002893
1.100174
1.300104
0.257813
0.5010564
0.7005587
0.9002893
1.100173
1.300104
0.257813
0.5010564
0.7005586
0.9002891
1.100173
1.300104
0.257813
0.5010563
0.7005584
0.9002887
1.100173
1.300103
0.257813
0.501056
0.700558
0.9002881
1.100172
1.300103
0.257813
0.5010556
0.700557
0.9002868
1.100171
1.300102
0.2578129
0.5010548
0.7005549
0.9002844
1.100168
1.3001
0.2578129
0.5010528
0.7005511
0.9002803
1.100164
1.300096
0.2578125
0.5010485
0.7005447
0.900274
1.100159
1.300092
0.2578114
0.5010413
0.7005371
0.9002669
1.100153
1.300089
0.2578094
0.5010354
0.7005317
0.9002626
1.10015
1.300088
0.4517852
0.6500143
0.849999
1.050001
1.250002
0.2579229
0.4997564
0.6999238
0.8999925
1.100004
1.300002
0.2578585
0.5001554
0.6999636
0.9000023
1.100013
1.300009
0.2578664
0.5002026
0.6999819
0.9000133
1.100022
1.300016
0.2578691
0.500207
0.6999897
0.9000214
1.100029
1.300021
0.2578696
0.5002073
0.6999935
0.9000265
1.100034
1.300025
0.2578697
0.5002074
0.6999954
0.9000293
1.100036
1.300027
0.2578697
0.5002075
0.6999963
0.900031
1.100038
1.300029
0.2578698
0.5002077
0.6999969
0.9000317
1.100039
1.30003
0.2578698
0.5002077
0.6999972
0.9000322
1.10004
1.30003
0.2578698
0.5002077
0.6999973
0.9000323
1.10004
1.300031
0.2578698
0.5002077
0.6999975
0.9000325
1.10004
1.300031
0.2578698
0.5002077
0.6999975
0.9000327
1.10004
1.300031
0.2578698
0.5002077
0.6999975
0.9000326
1.10004
1.300031
0.2578698
0.5002078
0.6999975
0.9000327
1.10004
1.300031
0.2578698
0.5002078
0.6999975
0.9000325
1.10004
1.300031
0.2578698
0.5002078
0.6999974
0.9000323
1.10004
1.300031
0.2578698
0.5002079
0.6999973
0.9000322
1.10004
1.30003
0.2578698
0.5002079
0.6999971
0.900032
1.100039
1.30003
0.2578698
0.5002081
0.699997
0.9000315
1.100039
1.300029
0.2578697
0.5002085
0.6999967
0.9000305
1.100038
1.300028
0.2578697
0.5002092
0.6999965
0.9000294
1.100036
1.300027
0.2578696
0.5002118
0.6999979
0.9000292
1.100036
1.300026
0.2577906
0.5002245
0.7000032
0.9000318
1.100038
1.300029
0.4269912
0.6245286
0.8245257
1.024526
1.224526
0.2297194
0.4487804
0.6498501
0.8499783
1.049996
1.249999
0.2295218
0.4488106
0.6497792
0.8499505
1.04998
1.249985
0.2295191
0.4488114
0.6497755
0.849953
1.049985
1.24999
0.2295192
0.4488116
0.6497778
0.8499569
1.049989
1.249994
0.2295192
0.448812
0.6497794
0.8499591
1.049991
1.249996
0.2295192
0.4488121
0.6497801
0.8499601
1.049992
1.249997
0.2295192
0.4488123
0.6497805
0.8499606
1.049993
1.249998
0.2295192
0.4488123
0.6497807
0.8499609
1.049993
1.249998
0.2295192
0.4488123
0.6497808
0.849961
1.049993
1.249998
0.2295192
0.4488123
0.6497808
0.849961
1.049994
1.249998
0.2295192
0.4488124
0.6497808
0.849961
1.049993
1.249998
0.2295192
0.4488122
0.6497808
0.8499611
1.049993
1.249998
0.2295192
0.4488122
0.6497808
0.8499611
1.049994
1.249998
0.2295193
0.4488125
0.6497808
0.8499611
1.049993
1.249998
0.2295193
0.4488126
0.6497808
0.8499611
1.049993
1.249998
0.2295192
0.4488124
0.6497808
0.849961
1.049993
1.249998
0.2295192
0.4488123
0.6497808
0.849961
1.049993
1.249998
0.2295192
0.4488123
0.6497807
0.8499609
1.049993
1.249998
0.2295192
0.4488124
0.6497806
0.8499608
1.049993
1.249998
0.2295193
0.4488124
0.6497805
0.8499604
1.049993
1.249997
0.2295192
0.4488127
0.6497804
0.84996
1.049992
1.249997
0.2295193
0.4488156
0.6497817
0.8499598
1.049991
1.249996
0.2295205
0.4502898
0.6497878
0.8499609
1.049991
1.249996
0.3753642
0.3772944
0.2279624
0.3456613
0.4255358
0.575485
0.426991
0.5754841
0.4490388
0.5497674
0.6244887
0.7754981
0.6245286
0.7754742
0.6499306
0.7499767
0.8244984
0.9755003
0.8245257
0.9754743
0.8499921
0.9499974
1.0245
1.1755
1.024526
1.175474
1.05
1.15
1.2245
1.224526
1.250001
0.3761593
0.2297439
0.3463914
0.3780569
0.2295704
0.3466811
0.3780617
0.2295696
0.3467451
0.3780552
0.2295685
0.3467629
0.3780612
0.2295684
0.3467705
0.3780618
0.2295689
0.3467737
0.3780732
0.2295685
0.3467737
0.3780529
0.2295691
0.3467716
0.3780518
0.229569
0.3467707
0.3780579
0.229569
0.346773
0.3780709
0.2295686
0.3467747
0.3780883
0.229568
0.3467723
0.3780766
0.2295681
0.3467656
0.3780369
0.2295705
0.3467455
0.3780276
0.2295714
0.3466796
0.3761578
0.229744
0.3463917
0.3772943
0.2279624
0.3456614
0.3753641
0.7754743
0.6499305
0.7499767
0.6244887
0.7754981
0.9754743
0.8499921
0.9499975
0.8244985
0.9755003
1.175474
1.05
1.15
1.0245
1.1755
1.250001
1.2245
0.3462044
0.2295238
0.3464191
0.374861
0.376554
0.3464427
0.2295191
0.3464434
0.3765581
0.3765582
0.3464426
0.2295192
0.3464423
0.376558
0.3765579
0.3464421
0.2295192
0.346442
0.3765579
0.376558
0.346442
0.2295192
0.3464421
0.376558
0.376558
0.3464421
0.2295192
0.3464421
0.376558
0.3765579
0.346442
0.2295192
0.3464421
0.3765579
0.3765579
0.3464421
0.2295192
0.3464421
0.3765579
0.3765579
0.3464421
0.2295192
0.3464421
0.3765579
0.3765579
0.3464421
0.2295192
0.3464421
0.3765579
0.3765579
0.3464421
0.2295192
0.3464421
0.3765579
0.3765579
0.3464428
0.2295193
0.3464425
0.3765584
0.3765581
0.3464422
0.2295193
0.3464421
0.376558
0.3765579
0.3464421
0.2295192
0.3464421
0.3765579
0.3765579
0.3464421
0.2295192
0.3464421
0.3765579
0.3765579
0.3464421
0.2295193
0.3464421
0.3765579
0.376558
0.3464622
0.2295263
0.3464899
0.3765609
0.3194799
0.2662912
0.2836299
0.4749106
0.4121639
0.4247385
0.4877547
0.374861
0.376554
0.2297194
0.3462045
0.2295238
0.3464192
0.3765582
0.3765583
0.2295218
0.3464427
0.2295191
0.3464434
0.3765581
0.3765578
0.2295192
0.3464427
0.2295192
0.3464423
0.3765579
0.376558
0.2295192
0.3464421
0.2295192
0.346442
0.376558
0.376558
0.2295192
0.3464421
0.2295192
0.3464421
0.376558
0.376558
0.2295192
0.3464421
0.2295192
0.3464421
0.376558
0.376558
0.2295192
0.3464421
0.2295192
0.3464421
0.376558
0.376558
0.2295192
0.3464421
0.2295192
0.3464421
0.376558
0.376558
0.2295192
0.3464421
0.2295192
0.3464421
0.376558
0.376558
0.2295192
0.3464421
0.2295192
0.3464421
0.376558
0.376558
0.2295192
0.3464421
0.2295192
0.3464421
0.376558
0.376558
0.2295192
0.3464421
0.2295192
0.3464421
0.376558
0.376558
0.2295192
0.3464421
0.2295192
0.3464421
0.376558
0.376558
0.2295192
0.3464421
0.2295192
0.3464421
0.376558
0.376558
0.2295192
0.3464421
0.2295192
0.3464421
0.376558
0.376558
0.2295192
0.3464421
0.2295192
0.3464421
0.376558
0.376558
0.2295192
0.3464421
0.2295192
0.3464421
0.376558
0.376558
0.2295192
0.3464421
0.2295192
0.3464421
0.376558
0.376558
0.2295192
0.3464421
0.2295192
0.3464421
0.376558
0.376558
0.2295192
0.3464422
0.2295192
0.3464422
0.376558
0.3765581
0.2295192
0.3464425
0.2295193
0.346443
0.3765581
0.3765593
0.2295193
0.3464445
0.2295198
0.3464489
0.3765605
0.3194816
0.2295204
0.3464619
0.2295263
0.3464901
0.2659381
0.2658827
0.2659523
0.265943
0.2659567
0.2659673
0.2659501
0.2659683
0.2659376
0.2659488
0.2659633
0.2659743
0.2659733
0.2659661
0.2659506
0.26594
0.2658127
0.2658392
0.575484
0.4490388
0.5497673
0.4255357
0.5754849
0.3464419
0.2295192
0.3464415
0.3765579
0.3765576
0.3464418
0.2295193
0.3464424
0.3765576
0.3765582
0.3464425
0.2295193
0.3464426
0.3765583
0.3765583
0.3464425
0.2295192
0.3464424
0.3765581
0.376558
0.3464421
0.2295193
0.3464432
0.3765578
0.3765584
0.3464452
0.2295199
0.3464497
0.3765586
0.3765598
0.3219871
0.3875732
0.3741297
0.3106215
0.2651334
0.2831226
0.2647511
0.2827204
0.2658322
0.2658174
0.5249648
0.5877577
0.5749854
0.512237
0.2659553
0.2659432
0.2659557
0.2659517
0.2659688
0.2659708
0.2659488
0.2659574
0.2659572
0.2659669
0.2659607
0.265958
0.2659472
0.2659563
0.2659237
0.2659031
0.2662717
0.2836264
0.3219833
0.3875729
0.3741311
0.3106188
0.2651278
0.2831227
0.26475
0.2827189
0.6749968
0.6122395
0.6249929
0.6877591
0.7249981
0.7877594
0.7749993
0.7122405
0.8749999
0.8122407
0.8249994
0.8877594
0.9249998
0.9877593
0.9750001
0.9122407
1.075
1.012241
1.025
1.087759
1.125
1.187759
1.175
1.112241
1.275
1.212241
1.225
1.287759
1.325
1.312241
0.2646783
0.2831107
0.2646887
0.2831132
0.2646767
0.2831189
0.2646757
0.2831163
0.2646746
0.2831188
0.2646752
0.2831185
0.2646744
0.2831184
0.2646742
0.2831185
0.2646742
0.2831184
0.2646742
0.2831185
0.2646741
0.2831186
0.2646742
0.2831185
0.2646742
0.2831186
0.2646742
0.2831186
0.2646742
0.2831186
0.2646741
0.2831186
0.2646741
0.2831186
0.2646741
0.2831186
0.2646742
0.2831186
0.2646742
0.2831186
0.2646742
0.2831186
0.2646742
0.2831186
0.2646742
0.2831186
0.2646742
0.2831186
0.2646742
0.2831186
0.2646742
0.2831186
0.2646742
0.2831186
0.2646742
0.2831186
0.2646742
0.2831186
0.2646742
0.2831186
0.2646742
0.2831186
0.2646742
0.2831186
0.2646742
0.2831186
0.2646742
0.2831186
0.2646742
0.2831186
0.2646742
0.2831186
0.2646742
0.2831186
0.2646742
0.2831186
0.2646742
0.2831186
0.2646742
0.2831186
0.2646742
0.2831186
0.2646742
0.2831186
0.2646781
0.2831242
0.2646781
0.2831242
0.2646742
0.2831187
0.2646743
0.2831186
0.2646742
0.2831186
0.2646742
0.2831186
0.2646742
0.2831186
0.2646742
0.2831186
0.2646742
0.2831186
0.2646742
0.2831186
0.2646742
0.2831186
0.2646742
0.2831186
0.2646742
0.2831186
0.2646742
0.2831186
0.2646742
0.2831186
0.2646742
0.2831186
0.2646742
0.2831187
0.2646743
0.2831186
0.2646879
0.2539717
0.2831201
0.2646999
0.2275934
0.2295511
0.2269425
0.2269572
0.226939
0.226954
0.2270396
0.227039
0.2269623
0.2270439
0.2269783
0.2269983
0.2270454
0.227019
0.2270184
0.226953
0.2269427
0.226942
0.2269681
0.2270622
0.226965
0.2269645
0.2269426
0.2269549
0.2269766
0.2269311
0.2269754
0.2270184
0.2270015
0.2269678
0.2270125
0.226976
0.2269753
0.2269662
0.2270083
0.2269973
0.226954
0.2270596
0.2275994
0.2295504
0.3622774
0.3874548
0.3874253
0.3623641
0.2259123
0.2266468
0.2259009
0.2266584
0.7625
0.7875012
0.7875016
0.7624996
0.8375
0.8124988
0.8375004
0.8124984
0.2258919
0.2266417
0.2266368
0.2258963
0.2258908
0.2266398
0.2266365
0.2258931
0.2258908
0.2266398
0.2266365
0.2258931
0.2258907
0.2266397
0.2266364
0.2258931
0.2258907
0.2266397
0.2266364
0.2258931
0.2258907
0.2266397
0.2266364
0.2258931
0.2258907
0.2266397
0.2258931
0.2266364
0.2258907
0.2266397
0.2266364
0.2258931
0.2258907
0.2266397
0.2266364
0.2258931
0.2258907
0.2266397
0.2266364
0.2258931
0.2258907
0.2266397
0.2258931
0.2266364
0.2646742
0.2831186
0.2646742
0.2831186
0.2258907
0.2266397
0.2266364
0.2258931
0.2258907
0.2266397
0.2266364
0.2258931
0.2258907
0.2266397
0.2266364
0.2258931
0.2258907
0.2266397
0.2266364
0.2258931
0.2258907
0.2266397
0.2258931
0.2266364
0.2258894
0.2266342
0.2258895
0.2266341
0.2646776
0.2831188
0.264675
0.2831241
0.2258907
0.2266397
0.2266364
0.2258931
0.2258907
0.2266397
0.2258931
0.2266364
0.2646817
0.2831241
0.2646806
0.2831197
0.2258959
0.2266433
0.226641
0.2258986
0.2561631
0.2855285
0.2843002
0.2589979
0.2268613
0.227086
0.2262169
0.2279169
0.2273006
0.227166
0.2269957
0.2270282
0.2269855
0.2270009
0.2269336
0.2269838
0.2269622
0.226957
0.2269229
0.2269245
0.226966
0.2269709
0.2270784
0.2270008
0.2269995
0.2270142
0.2269734
0.2270029
0.4121638
0.4247395
0.4877546
0.474911
0.5877576
0.5749854
0.512237
0.5249647
0.2831186
0.2646741
0.2831182
0.2646736
0.2831161
0.2831165
0.2646708
0.2646704
0.2831163
0.2831183
0.2646731
0.2646715
0.283124
0.2831187
0.2646747
0.2646775
0.283124
0.2831188
0.264675
0.2646775
0.2831241
0.2646776
0.2831188
0.264675
0.2831188
0.2646749
0.283124
0.2646775
0.2831183
0.283124
0.2646774
0.2646742
0.2831166
0.2831166
0.2646711
0.2646711
0.2831241
0.2831183
0.2646743
0.2646775
0.2831242
0.2831243
0.2646786
0.2646783
0.2831242
0.2646794
0.2831242
0.2646788
0.2269741
0.2270901
0.2269959
0.2270282
0.2269969
0.2269669
0.2270116
0.2270166
0.2269862
0.2269402
0.227018
0.2269852
0.2269783
0.226977
0.2269745
0.2269156
0.2269352
0.2269877
0.2273092
0.2270826
0.2561629
0.2855188
0.2589891
0.2842957
0.2268571
0.2270848
0.2279138
0.2262152
0.3369082
0.3115944
0.311049
0.3371376
0.2259418
0.2268009
0.2260179
0.2266943
0.8625
0.8875012
0.8624996
0.8875016
0.2258913
0.2266396
0.2266364
0.2258934
0.2258908
0.2266398
0.2266365
0.2258932
0.2258908
0.2266397
0.2266365
0.2258931
0.2258907
0.2266397
0.2266364
0.2258931
0.2258907
0.2266397
0.2266364
0.2258931
0.2258907
0.2266397
0.2266364
0.2258931
0.2258907
0.2266397
0.2266364
0.2258931
0.2258907
0.2266397
0.2266364
0.2258931
0.2258907
0.2266397
0.2258931
0.2266364
0.2258907
0.2266397
0.2266364
0.2258931
0.2258907
0.2266397
0.2266364
0.2258931
0.2258907
0.2266397
0.2266364
0.2258931
0.2258907
0.2266397
0.2258931
0.2266364
0.2258907
0.2266397
0.2266364
0.2258931
0.2258907
0.2266397
0.2266364
0.2258931
0.2258907
0.2266397
0.2266364
0.2258931
0.2258907
0.2266397
0.2266364
0.2258931
0.2258907
0.2266397
0.2258931
0.2266364
0.2258907
0.2266397
0.2266364
0.2258931
0.2258907
0.2266397
0.2266364
0.2258931
0.2258907
0.2266397
0.2258931
0.2266364
0.2258936
0.2266401
0.225894
0.2266389
0.2295285
0.3465131
0.3194992
0.3195011
0.2295286
0.3465134
0.2539737
0.2647133
0.2259003
0.226644
0.2266427
0.2259003
0.2831106
0.2646889
0.2646784
0.2831133
0.2646747
0.2831188
0.2646752
0.2831184
0.2646742
0.2831185
0.2646742
0.2831186
0.2646742
0.2831186
0.2646742
0.2831187
0.2646742
0.2831187
0.2646742
0.2831187
0.2646742
0.2831187
0.2646742
0.2831187
0.2646742
0.2831187
0.2646742
0.2831187
0.2646742
0.2831187
0.2646742
0.2831187
0.2646742
0.2831187
0.2646742
0.2831187
0.2646742
0.2831187
0.2646742
0.2831187
0.2646742
0.2831187
0.2646742
0.2831187
0.2646742
0.2831187
0.2646742
0.2831187
0.2646742
0.2831187
0.2646742
0.2831187
0.2646742
0.2831187
0.2646742
0.2831187
0.2646742
0.2831187
0.2646742
0.2831187
0.2646742
0.2831187
0.2646742
0.2831187
0.2646742
0.2831187
0.2646742
0.2831187
0.2646742
0.2831187
0.2646742
0.2831187
0.2646742
0.2831187
0.2646742
0.2831187
0.2646742
0.2831187
0.2646742
0.2831187
0.2646743
0.2831187
0.2646743
0.2831187
0.2646745
0.2831187
0.2646744
0.2831187
0.2646811
0.2831188
0.2646773
0.2831197
0.2259124
0.2266466
0.2259009
0.2266581
0.9625
0.9875012
0.9875016
0.9624996
1.0375
1.012499
1.0375
1.012498
1.1625
1.187501
1.187502
1.1625
0.2258907
0.2266397
0.2266365
0.2258931
0.2258907
0.2266397
0.2266364
0.2258931
0.2258907
0.2266397
0.2266364
0.2258931
0.2258907
0.2266397
0.2258931
0.2266364
0.2258907
0.2266397
0.2266364
0.2258931
0.2258907
0.2266397
0.2266364
0.2258931
0.2646767
0.2831189
0.2646758
0.2831162
0.2646744
0.2831185
0.2646743
0.2831184
0.2646742
0.2831186
0.2646742
0.2831186
0.2646742
0.2831187
0.2646742
0.2831187
0.2646742
0.2831187
0.2646742
0.2831187
0.2646742
0.2831187
0.2646742
0.2831187
0.2646742
0.2831187
0.2646742
0.2831187
0.2646742
0.2831187
0.2646742
0.2831187
0.2646742
0.2831187
0.2646742
0.2831187
0.2646742
0.2831187
0.2646742
0.2831187
0.2646742
0.2831187
0.2646742
0.2831187
0.2646742
0.2831187
0.2646742
0.2831187
0.2646742
0.2831187
0.2646742
0.2831187
0.2646742
0.2831187
0.2646742
0.2831187
0.2646742
0.2831187
0.2646742
0.2831187
0.2646742
0.2831187
0.2646742
0.2831187
0.2646742
0.2831187
0.2646742
0.2831187
0.2646742
0.2831187
0.2646742
0.2831187
0.2646742
0.2831187
0.2646742
0.2831187
0.2646742
0.2831187
0.2646742
0.2831187
0.2646743
0.2831187
0.2646743
0.2831187
0.2646748
0.2831188
0.2646756
0.2831187
0.2647026
0.2831267
0.2646891
0.2831204
0.4124838
0.4374955
0.4124728
0.4374907
0.226642
0.2266419
0.2258942
0.2258942
0.2266417
0.2258931
0.2266399
0.2258942
0.2258894
0.2266342
0.2266343
0.2258894
0.2266342
0.2258894
0.2258894
0.2266343
0.2266398
0.2266362
0.2258907
0.2258931
0.2266418
0.2266419
0.2258942
0.2258943
0.2266342
0.2266343
0.2258894
0.2258894
0.2259421
0.2268007
0.2260189
0.226694
0.9375
0.9124988
0.9124984
0.9375004
1.0625
1.087501
1.0625
1.087502
1.1375
1.112499
1.112498
1.1375
0.2258907
0.2266397
0.2266365
0.2258931
0.2258907
0.2266397
0.2266364
0.2258931
0.2258907
0.2266397
0.2258931
0.2266364
0.4874999
0.4624973
0.4624949
0.4874985
0.2266398
0.2266364
0.2258907
0.2258931
0.2266418
0.2266419
0.2258942
0.2258942
0.225892
0.2266399
0.2266384
0.2258931
0.2258907
0.2266397
0.2266362
0.2258931
0.2258908
0.2266397
0.2266362
0.2258932
0.2258908
0.2266397
0.2266362
0.2258932
0.2266342
0.2266343
0.2258894
0.2258894
0.2266342
0.2266343
0.2258894
0.2258894
0.2266418
0.2266419
0.2258942
0.2258943
0.2266398
0.2266362
0.2258907
0.2258931
0.2647163
0.2831294
0.4374902
0.4124836
0.4124716
0.4374954
0.6749969
0.6122394
0.624993
0.6877591
0.8749999
0.8122407
0.8249994
0.8877594
1.075
1.012241
1.025
1.087759
1.275
1.212241
1.225
1.287759
0.2266416
0.2258962
0.2258919
0.2266368
0.2258908
0.2266398
0.2258931
0.2266365
0.2258908
0.2266397
0.2258931
0.2266365
0.2258908
0.2266397
0.2258931
0.2266364
0.2258908
0.2266397
0.2258931
0.2266364
0.2258908
0.2266397
0.2258931
0.2266364
0.2258908
0.2266397
0.2258931
0.2266364
0.2258908
0.2266397
0.2258931
0.2266364
0.2258908
0.2266397
0.2258931
0.2266364
0.2258908
0.2266397
0.2258931
0.2266364
0.2258908
0.2266397
0.2258931
0.2266364
0.2258908
0.2266397
0.2258931
0.2266364
0.2258908
0.2266397
0.2258931
0.2266364
0.2258908
0.2266397
0.2258931
0.2266364
0.2258908
0.2266397
0.2258931
0.2266364
0.2258908
0.2266397
0.2258931
0.2266364
0.2258908
0.2266397
0.2258931
0.2266364
0.2258908
0.2266397
0.2258931
0.2266364
0.2258908
0.2266397
0.2258931
0.2266364
0.2258908
0.2266397
0.2258931
0.2266364
0.2258908
0.2266397
0.2258931
0.2266364
0.2258908
0.2266397
0.2258931
0.2266364
0.2258909
0.2266397
0.2258932
0.2266365
0.362275
0.3874547
0.3874234
0.3623646
0.5624994
0.5875011
0.5875013
0.5624994
0.7249982
0.7877594
0.7749993
0.7122405
0.9249997
0.9877594
0.9750001
0.9122407
1.125
1.187759
1.175
1.112241
1.325
1.312241
0.6375007
0.6124991
0.612499
0.6375008
1.2375
1.212499
1.2375
1.212498
0.2258907
0.2266397
0.2258931
0.2266364
0.2258907
0.2266397
0.2266364
0.2258931
0.4624956
0.4875003
0.4874992
0.4624977
0.2258908
0.2266398
0.2258931
0.2266365
0.2258908
0.2266397
0.2258931
0.2266365
0.2258908
0.2266397
0.2258931
0.2266364
0.2258908
0.2266397
0.2258931
0.2266364
0.2258908
0.2266397
0.2258931
0.2266364
0.2258908
0.2266397
0.2258931
0.2266364
0.2258908
0.2266397
0.2258931
0.2266364
0.2258908
0.2266397
0.2258931
0.2266364
0.2258908
0.2266397
0.2258931
0.2266364
0.2258908
0.2266397
0.2258931
0.2266364
0.2258908
0.2266397
0.2258931
0.2266364
0.2258908
0.2266397
0.2258931
0.2266364
0.2258908
0.2266397
0.2258931
0.2266364
0.2258908
0.2266397
0.2258931
0.2266364
0.2258908
0.2266397
0.2258931
0.2266364
0.2258908
0.2266397
0.2258931
0.2266364
0.2258908
0.2266397
0.2258931
0.2266364
0.2258908
0.2266397
0.2258931
0.2266364
0.2258908
0.2266397
0.2258931
0.2266364
0.2258908
0.2266397
0.2258931
0.2266364
0.2258908
0.2266397
0.2258931
0.2266364
0.2258908
0.2266397
0.2258932
0.2266364
0.2258936
0.2266412
0.2258975
0.2266374
0.5875007
0.5875005
0.562499
0.5624987
0.2266397
0.2266364
0.2258931
0.2258907
0.2258894
0.2266342
0.2266343
0.2258894
0.3369063
0.3116
0.3110496
0.33714
0.5374991
0.5124982
0.5124969
0.5375
0.6624999
0.6875012
0.6624997
0.6875015
1.3375
1.312499
1.312498
1.3375
0.2266397
0.2258931
0.2258907
0.2266364
0.5124986
0.5375005
0.5374998
0.5124978
0.225898
0.2266418
0.2258992
0.226639
0.2258913
0.2266397
0.2258933
0.2266365
0.2258908
0.2266397
0.2258931
0.2266365
0.2258908
0.2266397
0.2258931
0.2266364
0.2258908
0.2266397
0.2258931
0.2266364
0.2258908
0.2266397
0.2258931
0.2266364
0.2258908
0.2266397
0.2258931
0.2266364
0.2258908
0.2266397
0.2258931
0.2266364
0.2258908
0.2266397
0.2258931
0.2266364
0.2258908
0.2266397
0.2258931
0.2266364
0.2258908
0.2266397
0.2258931
0.2266364
0.2258908
0.2266397
0.2258931
0.2266364
0.2258908
0.2266397
0.2258931
0.2266364
0.2258908
0.2266397
0.2258931
0.2266364
0.2258908
0.2266397
0.2258931
0.2266364
0.2258908
0.2266397
0.2258931
0.2266364
0.2258908