/*--------------------------------*- C++ -*----------------------------------*\
  =========                 |
  \\      /  F ield         | OpenFOAM: The Open Source CFD Toolbox
   \\    /   O peration     | Website:  https://openfoam.org
    \\  /    A nd           | Version:  7
     \\/     M anipulation  |
\*---------------------------------------------------------------------------*/
FoamFile
{
    version     2.0;
    format      ascii;
    class       volScalarField;
    location    "0.1";
    object      Cx;
}
// * * * * * * * * * * * * * * * * * * * * * * * * * * * * * * * * * * * * * //

dimensions      [0 1 0 0 0 0 0];

internalField   nonuniform List<scalar> 
73374
(
0.2330846
0.5015066
0.7003376
0.8999322
1.099948
1.299976
1.499989
1.699995
1.899998
2.100001
2.300003
0.2335462
0.5023995
0.7005652
0.8998615
1.099895
1.29995
1.499976
1.699989
1.899996
2.1
2.300004
0.2335303
0.5023079
0.7005536
0.8997835
1.099846
1.299925
1.499963
1.699983
1.899993
2.1
2.300005
0.2335279
0.5021769
0.7004589
0.8997242
1.099811
1.299906
1.499953
1.699977
1.89999
2.099999
2.300005
0.2335272
0.5021225
0.7004049
0.899688
1.099788
1.299892
1.499945
1.699973
1.899988
2.099998
2.300005
0.2335269
0.5021032
0.7003814
0.8996692
1.099775
1.299883
1.49994
1.69997
1.899986
2.099997
2.300005
0.2335267
0.5020961
0.7003714
0.8996601
1.099768
1.299879
1.499937
1.699968
1.899986
2.099997
2.300006
0.2335267
0.5020934
0.7003672
0.8996559
1.099764
1.299877
1.499936
1.699969
1.899988
2.099999
2.300008
0.2335267
0.5020924
0.7003655
0.8996543
1.099763
1.299877
1.499939
1.699973
1.899993
2.100006
2.300013
0.2335267
0.502092
0.7003649
0.8996539
1.099764
1.29988
1.499945
1.699983
1.900007
2.100021
2.300026
0.2335267
0.5020919
0.7003649
0.8996547
1.099767
1.299886
1.499948
1.699971
1.899982
2.100003
2.300028
0.2335267
0.5020919
0.7003653
0.8996563
1.099771
1.299896
1.499945
1.699746
1.899468
2.099532
2.299877
0.2335267
0.5020921
0.7003662
0.8996587
1.099777
1.29991
1.499956
1.699495
1.897648
2.097876
2.300041
0.2335267
0.5020929
0.7003677
0.8996618
1.099784
1.299926
1.499986
1.699475
1.898717
2.045941
2.248823
0.2335267
0.5020944
0.7003703
0.8996656
1.09979
1.299937
1.5
1.699361
1.897994
2.044226
2.223702
0.2335267
0.5020972
0.7003747
0.8996706
1.099795
1.299943
1.499989
1.699191
1.897841
2.044225
2.224623
0.2335267
0.5021013
0.7003809
0.8996772
1.099801
1.299948
1.499985
1.699168
1.897788
2.044164
2.224665
0.2335268
0.5021057
0.7003876
0.899684
1.099807
1.299952
1.5
1.699218
1.897936
2.044253
2.224706
0.2335269
0.5021082
0.700392
0.8996882
1.099809
1.299951
1.500009
1.699369
1.89799
2.044179
2.224035
0.2335272
2.044481
2.249168
0.4508068
0.6504399
0.8500226
1.049989
1.249992
1.449994
1.649994
1.849995
2.049995
2.249995
0.2587948
0.5002139
0.6997239
0.8997801
1.099864
1.299924
1.499959
1.699979
1.89999
2.099998
2.300004
0.30843
0.4989052
0.6990985
0.899465
1.099697
1.299833
1.499909
1.699952
1.899977
2.099993
2.300006
0.3070629
0.4975058
0.6983875
0.8991146
1.099514
1.299735
1.499855
1.699923
1.899962
2.099987
2.300008
0.3065729
0.4969289
0.6979717
0.8988641
1.099368
1.299651
1.499808
1.699896
1.899948
2.099982
2.300008
0.3064636
0.4967262
0.6977713
0.8987171
1.099271
1.29959
1.499771
1.699875
1.899937
2.099977
2.300008
0.306437
0.4966533
0.6976803
0.8986383
1.099213
1.29955
1.499746
1.699861
1.899929
2.099974
2.300008
0.3064281
0.496625
0.6976394
0.8985982
1.09918
1.299527
1.499732
1.699853
1.899927
2.099975
2.300011
0.3064248
0.4966137
0.6976213
0.898579
1.099164
1.299517
1.499727
1.699854
1.899932
2.099982
2.300018
0.3064235
0.496609
0.6976137
0.898571
1.099158
1.299515
1.499731
1.699864
1.899947
2.1
2.300035
0.306423
0.4966072
0.6976108
0.8985686
1.099159
1.299521
1.499745
1.699888
1.89998
2.100038
2.30007
0.3064227
0.4966063
0.69761
0.8985699
1.099164
1.299535
1.499772
1.699932
1.900044
2.100116
2.300139
0.3064226
0.4966061
0.6976106
0.8985734
1.099174
1.299557
1.499813
1.7
1.900151
2.100276
2.300284
0.3064227
0.4966066
0.6976128
0.8985791
1.099187
1.299584
1.499866
1.700093
1.900308
2.100674
2.300626
0.3064232
0.4966089
0.6976176
0.8985872
1.099201
1.299609
1.499919
1.700213
1.90064
2.101475
2.250979
0.3064247
0.4966143
0.6976272
0.8985992
1.099214
1.299624
1.49994
1.700265
1.901115
2.051869
2.227845
0.3064276
0.4966246
0.6976441
0.8986177
1.099229
1.299628
1.499911
1.700119
1.900346
2.100839
2.256352
0.306432
0.4966403
0.697669
0.8986449
1.099252
1.299641
1.499907
1.700065
1.90004
2.098688
2.24662
0.3064369
0.4966584
0.697697
0.8986756
1.09928
1.299669
1.499961
1.700252
1.900856
2.10346
2.256742
0.3064398
0.496672
0.697717
0.898697
1.099298
1.299685
1.499983
1.700315
1.901177
2.052378
2.231581
2.251245
0.4517872
0.7013441
0.9003692
1.099962
1.29996
1.49998
1.69999
1.899996
2.099999
2.300002
0.2584139
0.4997895
0.6995613
0.8996215
1.099749
1.299851
1.499917
1.699955
1.899978
2.099992
2.300003
0.3068066
0.497235
0.6982663
0.8989806
1.099416
1.299667
1.499812
1.699896
1.899946
2.099979
2.300004
0.3043328
0.4947195
0.696873
0.898229
1.099019
1.299449
1.49969
1.699828
1.899909
2.099962
2.300003
0.3035561
0.4936462
0.6960305
0.8976682
1.098686
1.299255
1.499578
1.699765
1.899875
2.099947
2.300002
0.3033657
0.4932597
0.6956205
0.8973417
1.098463
1.299113
1.499492
1.699714
1.899848
2.099935
2.300001
0.3033165
0.4931175
0.6954306
0.8971657
1.098329
1.299021
1.499433
1.69968
1.89983
2.099928
2.300001
0.3033
0.4930612
0.6953437
0.8970756
1.098254
1.298967
1.499399
1.699662
1.899824
2.099929
2.300007
0.3032939
0.4930387
0.6953052
0.8970324
1.098216
1.298941
1.499386
1.69966
1.899832
2.099943
2.300022
0.3032918
0.4930299
0.6952891
0.8970139
1.098201
1.298935
1.499391
1.699678
1.899861
2.099978
2.300056
0.3032908
0.493026
0.6952824
0.8970075
1.0982
1.298944
1.499415
1.69972
1.899921
2.100047
2.30012
0.30329
0.493023
0.6952788
0.8970073
1.098209
1.298967
1.499461
1.699798
1.900034
2.100182
2.300238
0.3032891
0.4930206
0.6952767
0.8970106
1.098223
1.299002
1.49953
1.699923
1.900239
2.100449
2.300455
0.3032887
0.4930195
0.6952775
0.8970176
1.098242
1.299043
1.499616
1.7001
1.900569
2.100931
2.300836
0.3032891
0.4930221
0.6952842
0.8970299
1.098262
1.299077
1.499689
1.700291
1.901077
2.10177
2.251483
0.3032913
0.493031
0.6953017
0.8970516
1.098281
1.299088
1.499688
1.700294
1.901439
2.052817
2.228378
0.3032958
0.4930492
0.6953351
0.8970897
1.098308
1.299083
1.499594
1.699915
1.899901
2.09944
2.255156
0.3033028
0.4930774
0.6953861
0.8971488
1.098358
1.299109
1.499575
1.699781
1.89933
2.096121
2.237901
0.3033108
0.4931094
0.6954448
0.897218
1.098424
1.299178
1.499702
1.700186
1.900834
2.103277
2.255641
0.3033166
0.4931336
0.6954885
0.8972696
1.098473
1.299229
1.499788
1.700408
1.901621
2.053509
2.232223
2.25181
0.4522676
0.7023446
0.9006927
1.099959
1.29994
1.49997
1.699986
1.899994
2.099999
2.300002
0.2583473
0.4995295
0.6993945
0.8994905
1.099654
1.299792
1.499881
1.699935
1.899967
2.099987
2.300003
0.3062015
0.4963819
0.6976239
0.8985755
1.099171
1.299519
1.499725
1.699845
1.899917
2.099964
2.3
0.3034372
0.4933258
0.6957519
0.8974889
1.098565
1.299183
1.499534
1.699737
1.899857
2.099935
2.299996
0.3024891
0.4919696
0.6945807
0.8966441
1.098029
1.298871
1.499353
1.699633
1.8998
2.099907
2.299991
0.3022518
0.4914581
0.6939926
0.8961367
1.09766
1.298636
1.49921
1.69955
1.899755
2.099886
2.299987
0.3021871
0.4912606
0.6937117
0.8958622
1.097441
1.298485
1.499114
1.699493
1.899725
2.099874
2.299987
0.3021646
0.4911804
0.6935813
0.8957213
1.097321
1.298398
1.499058
1.699463
1.899714
2.099876
2.299995
0.302157
0.49115
0.6935254
0.8956551
1.097261
1.298355
1.499034
1.699458
1.899725
2.099896
2.300019
0.3021553
0.4911403
0.6935042
0.8956275
1.097237
1.298343
1.49904
1.699482
1.899765
2.099946
2.300068
0.3021544
0.4911355
0.693494
0.8956167
1.097233
1.298354
1.499073
1.699542
1.899851
2.100046
2.300161
0.3021522
0.4911281
0.693484
0.8956111
1.097241
1.298384
1.499136
1.699652
1.900015
2.100234
2.300325
0.3021489
0.4911183
0.6934724
0.8956078
1.097255
1.298428
1.499231
1.699831
1.900273
2.100546
2.300585
0.3021462
0.4911104
0.6934645
0.8956088
1.097275
1.298479
1.499346
1.700054
1.900648
2.10109
2.300982
0.3021453
0.4911093
0.6934671
0.8956191
1.097295
1.298516
1.499433
1.700242
1.901199
2.101988
2.251682
0.3021474
0.4911191
0.693488
0.8956458
1.097316
1.298518
1.499398
1.700152
1.901507
2.053104
2.228473
0.3021532
0.4911434
0.6935347
0.8957005
1.097353
1.298497
1.49923
1.699579
1.899596
2.099146
2.254979
0.3021626
0.4911825
0.6936093
0.8957906
1.097429
1.298533
1.499189
1.699365
1.898852
2.095563
2.237006
0.3021736
0.4912281
0.6936972
0.8959003
1.097537
1.298645
1.499384
1.699919
1.900664
2.103179
2.25545
0.3021821
0.4912638
0.6937656
0.895986
1.097624
1.298741
1.499546
1.700301
1.901715
2.053774
2.232273
2.251947
0.4523037
0.7025286
0.9008343
1.099957
1.29993
1.499965
1.699985
1.899996
2.1
2.300002
0.2583363
0.4994365
0.6993137
0.8994222
1.099604
1.299759
1.499861
1.699924
1.899961
2.099985
2.300003
0.3060776
0.4961364
0.6973604
0.8983746
1.099041
1.299438
1.499675
1.699816
1.8999
2.099955
2.299999
0.3032447
0.4929175
0.6952795
0.8971129
1.098317
1.299033
1.499444
1.699683
1.899826
2.099917
2.299991
0.3022553
0.4914569
0.6939466
0.8961111
1.097669
1.298645
1.499218
1.699553
1.899753
2.099881
2.299981
0.3019952
0.4908812
0.6932567
0.8954907
1.097212
1.298345
1.499037
1.699447
1.899695
2.099853
2.299975
0.3019171
0.4906424
0.6929131
0.8951486
1.096935
1.298151
1.498913
1.699374
1.899656
2.099837
2.299973
0.3018884
0.490543
0.6927522
0.8949728
1.096783
1.298039
1.498841
1.699335
1.899641
2.099838
2.299983
0.3018834
0.4905154
0.6926922
0.8948953
1.09671
1.297985
1.498811
1.699328
1.899653
2.099863
2.300012
0.3018876
0.4905176
0.6926785
0.8948678
1.096683
1.29797
1.498816
1.699355
1.8997
2.099922
2.300071
0.3018889
0.490517
0.6926698
0.8948554
1.096677
1.297982
1.498854
1.699424
1.8998
2.100039
2.300183
0.3018823
0.490498
0.6926466
0.8948395
1.096679
1.298012
1.498925
1.699548
1.899973
2.100246
2.300371
0.3018699
0.4904656
0.6926111
0.894819
1.096685
1.298057
1.499029
1.699731
1.900262
2.100593
2.300651
0.3018586
0.4904359
0.6925794
0.8948026
1.096694
1.298107
1.499145
1.699963
1.900689
2.101165
2.301046
0.3018528
0.4904214
0.6925665
0.8948007
1.096705
1.298139
1.499212
1.700161
1.901248
2.102044
2.251755
0.301853
0.4904263
0.6925823
0.8948235
1.096721
1.298124
1.499133
1.700022
1.901479
2.053151
2.228493
0.3018591
0.4904526
0.6926346
0.8948854
1.096758
1.298083
1.4989
1.69931
1.899342
2.098925
2.254931
0.3018704
0.4904992
0.6927246
0.8949948
1.09685
1.298118
1.498823
1.698991
1.898375
2.094988
2.236757
0.301884
0.4905554
0.6928338
0.895133
1.096988
1.298261
1.499058
1.699611
1.900268
2.102667
2.255255
0.301895
0.4906006
0.6929223
0.8952467
1.097108
1.298399
1.499292
1.700123
1.901568
2.053647
2.232221
2.251941
0.4522982
0.7025469
0.9008517
1.099961
1.299929
1.499956
1.699954
1.899945
2.099958
2.300003
0.2583323
0.4994763
0.699353
0.89944
1.09961
1.29976
1.499861
1.699923
1.89996
2.099984
2.300004
0.3061565
0.4962653
0.6974585
0.8984204
1.099057
1.299443
1.499675
1.699814
1.899896
2.099952
2.299999
0.3033679
0.49312
0.6954288
0.8971847
1.098343
1.29904
1.499445
1.699681
1.899823
2.099915
2.299991
0.3023859
0.4916761
0.6941075
0.8961894
1.097697
1.298652
1.499219
1.699552
1.899752
2.09988
2.299981
0.3021051
0.491063
0.69339
0.8955544
1.097233
1.298349
1.499036
1.699445
1.899693
2.099853
2.299975
0.3019975
0.4907614
0.693003
0.8951901
1.096947
1.298151
1.498911
1.699372
1.899655
2.099837
2.299974
0.301956
0.4906318
0.6928216
0.8950042
1.09679
1.298038
1.498839
1.699333
1.89964
2.099838
2.299983
0.301966
0.4906383
0.6927843
0.894937
1.096722
1.297985
1.498809
1.699326
1.899652
2.099862
2.300011
0.3019952
0.4906996
0.6928096
0.8949277
1.096701
1.297972
1.498814
1.699353
1.899699
2.099921
2.300071
0.3020061
0.4907228
0.6928156
0.8949212
1.096696
1.297983
1.498851
1.699421
1.899798
2.100038
2.300183
0.3019849
0.4906677
0.6927644
0.8948896
1.096691
1.29801
1.498921
1.699544
1.899971
2.100245
2.30037
0.3019369
0.4905587
0.6926716
0.8948377
1.096682
1.298048
1.499022
1.699725
1.900257
2.10059
2.300649
0.301885
0.4904594
0.6925844
0.8947893
1.096675
1.29809
1.49913
1.69995
1.900678
2.101158
2.301043
0.3018524
0.4904066
0.6925362
0.8947641
1.096672
1.298111
1.499187
1.700131
1.901214
2.102022
2.251777
0.3018426
0.4903958
0.6925343
0.8947732
1.096677
1.298084
1.499085
1.699945
1.901379
2.05312
2.228489
0.3018481
0.490419
0.6925817
0.89483
1.096708
1.298029
1.498811
1.69913
1.898998
2.098481
2.254821
0.3018617
0.4904703
0.6926762
0.8949421
1.096798
1.298051
1.498691
1.698667
1.897571
2.093112
2.235573
0.3018784
0.490534
0.6927954
0.8950896
1.096943
1.298198
1.498923
1.699277
1.899447
2.100405
2.252202
0.3018912
0.4905859
0.6928956
0.8952172
1.097077
1.298354
1.4992
1.699922
1.90118
2.053116
2.231766
0.3018954
2.251839
0.4523131
0.7025695
0.9008604
1.099969
1.299933
1.499937
1.699719
1.899413
2.099447
2.300007
0.2583529
0.4997068
0.6995327
0.8995419
1.09967
1.299793
1.499876
1.699926
1.899947
2.099972
2.300006
0.3066756
0.4969358
0.697946
0.8986998
1.099209
1.299528
1.499722
1.699836
1.899901
2.099951
2.300001
0.3041352
0.4941919
0.6962376
0.8976793
1.098622
1.299196
1.499533
1.699731
1.899848
2.099928
2.299995
0.3032064
0.4929001
0.6950962
0.8968451
1.098087
1.298882
1.499351
1.699628
1.899795
2.099904
2.29999
0.3028296
0.4922141
0.6944049
0.8962894
1.097697
1.298639
1.499205
1.699545
1.899751
2.099885
2.299987
0.3026359
0.491711
0.6939603
0.895945
1.097451
1.298477
1.499105
1.699488
1.899722
2.099874
2.299987
0.302542
0.4914814
0.6937536
0.8957727
1.097318
1.298384
1.499047
1.699457
1.899711
2.099875
2.299996
0.3026204
0.4916253
0.6937872
0.8957408
1.09727
1.298344
1.499025
1.699452
1.899722
2.099896
2.300019
0.3027352
0.4919088
0.693916
0.8957724
1.097266
1.298339
1.499031
1.699476
1.899763
2.099946
2.300068
0.3027739
0.4920218
0.6939632
0.8957819
1.097267
1.29835
1.499064
1.699536
1.899848
2.100044
2.300161
0.3027105
0.4918512
0.6938562
0.8957305
1.097255
1.298372
1.499123
1.699643
1.90001
2.100232
2.300324
0.3025531
0.4914899
0.6936436
0.8956357
1.097232
1.2984
1.49921
1.699817
1.900265
2.100541
2.300582
0.3023038
0.4911807
0.69345
0.895546
1.09721
1.298431
1.499313
1.700029
1.900627
2.101077
2.300978
0.3021343
0.491036
0.6933423
0.8954922
1.097196
1.298446
1.499376
1.700183
1.901136
2.101947
2.251766
0.3021024
0.4909916
0.6933092
0.8954813
1.097192
1.298421
1.499295
1.699996
1.901299
2.053075
2.228477
0.3021072
0.4910091
0.6933433
0.8955234
1.097214
1.298369
1.499043
1.699197
1.898834
2.098121
2.254671
0.3021293
0.4910721
0.6934365
0.8956241
1.097289
1.298379
1.498905
1.698659
1.897026
2.091141
2.233257
0.3021548
0.4911497
0.6935582
0.8957619
1.097416
1.298499
1.499093
1.699182
1.898789
2.09812
2.243261
0.3021683
0.4912057
0.6936634
0.8958869
1.097538
1.298636
1.499343
1.699851
1.900827
2.052445
2.230804
0.3021711
0.4912288
0.6937148
0.8959455
2.251707
0.4523192
0.7024005
0.9007372
1.099963
1.29993
1.499918
1.699586
1.897793
2.097694
2.300006
0.2585483
0.5002279
0.6997897
0.8996703
1.099766
1.29985
1.499903
1.699929
1.899884
2.099922
2.300005
0.3081352
0.4986237
0.6987348
0.8990927
1.099436
1.299666
1.499805
1.699878
1.899907
2.099948
2.300001
0.3066309
0.4968671
0.6975801
0.8984006
1.099046
1.299446
1.499684
1.699818
1.899894
2.09995
2.3
0.3058944
0.4959249
0.6967579
0.897833
1.098704
1.299247
1.499569
1.699757
1.899869
2.099942
2.3
0.3046702
0.4950973
0.6961477
0.897428
1.09845
1.299093
1.499479
1.699707
1.899844
2.099933
2.300001
0.3049973
0.4939675
0.6956369
0.8971463
1.09828
1.298988
1.499416
1.699672
1.899828
2.099928
2.300003
0.3038281
0.4934525
0.6954026
0.8970112
1.09819
1.298928
1.49938
1.699654
1.899822
2.09993
2.300009
0.3050384
0.4939933
0.6955564
0.8970249
1.098168
1.298906
1.499367
1.699652
1.89983
2.099945
2.300025
0.3046588
0.4949595
0.6958403
0.897097
1.09818
1.298907
1.499374
1.69967
1.899859
2.099979
2.300058
0.3055396
0.4952662
0.6959434
0.8971226
1.098187
1.298918
1.499398
1.699713
1.899919
2.100048
2.300122
0.3045865
0.4948388
0.695768
0.8970619
1.098174
1.298933
1.499441
1.699789
1.900032
2.100182
2.30024
0.3049081
0.4937693
0.6954076
0.8969448
1.098147
1.298952
1.499504
1.699912
1.900237
2.10045
2.300457
0.3034642
0.4930105
0.6951037
0.8968393
1.098123
1.298976
1.499582
1.700085
1.900566
2.100935
2.300842
0.3031921
0.492738
0.6949462
0.8967734
1.098107
1.298992
1.499643
1.700265
1.901066
2.10177
2.251699
0.3031335
0.4926371
0.6948748
0.8967449
1.098099
1.298983
1.499613
1.700213
1.901349
2.053039
2.228467
0.3031378
0.4926495
0.6948931
0.8967697
1.098113
1.298953
1.499458
1.699665
1.899359
2.098578
2.254719
0.3031836
0.4927599
0.6949937
0.896852
1.098167
1.298959
1.499357
1.699239
1.897789
2.091924
2.233151
0.3032342
0.4928845
0.6951233
0.8969672
1.098258
1.299034
1.499465
1.699584
1.899171
2.098356
2.242521
0.3032534
0.4929495
0.695237
0.897078
1.098349
1.299121
1.499617
1.700032
1.900821
2.052273
2.230595
0.3032637
0.4929929
0.6953186
0.8971467
1.098396
1.299155
2.251626
0.4520429
0.7012579
0.9003916
1.099969
1.299941
1.499843
1.699852
1.899716
2.046595
2.248524
0.2588854
0.5002569
0.699708
0.8996973
1.099864
1.299921
1.499955
1.699959
1.899847
2.099928
2.299993
0.2579114
0.4998821
0.6991048
0.8993746
1.099649
1.299817
1.49991
1.699939
1.899936
2.099963
2.299992
0.2565681
0.4991982
0.6985085
0.8990238
1.09945
1.299707
1.499847
1.699915
1.899949
2.099977
2.299999
0.2562368
0.4985897
0.6980333
0.8987356
1.099286
1.299614
1.499794
1.69989
1.899943
2.099978
2.300004
0.2558965
0.4978804
0.6976293
0.8985153
1.099162
1.299543
1.499754
1.699868
1.899935
2.099977
2.300007
0.3063245
0.4965629
0.6972532
0.8983546
1.099078
1.299495
1.499726
1.699854
1.899928
2.099976
2.30001
0.3062717
0.4960768
0.6971089
0.8982869
1.099037
1.299469
1.49971
1.699846
1.899927
2.099978
2.300014
0.3064708
0.4968903
0.6972888
0.8983166
1.099033
1.299461
1.499706
1.699847
1.899931
2.099985
2.300022
0.2558173
0.4980642
0.6975348
0.8983746
1.099044
1.299464
1.499711
1.699857
1.899947
2.100003
2.300039
0.2560986
0.4982907
0.6976094
0.898394
1.099051
1.299472
1.499725
1.699882
1.89998
2.100041
2.300073
0.255897
0.4977962
0.6974656
0.8983575
1.099046
1.299482
1.499751
1.699925
1.900044
2.100119
2.300142
0.3063101
0.4965342
0.6972018
0.8982941
1.099037
1.299498
1.499791
1.699996
1.900155
2.100283
2.300289
0.306094
0.495873
0.697028
0.8982485
1.099032
1.299519
1.499845
1.700098
1.90033
2.1007
2.300641
0.3059352
0.495645
0.6969134
0.8982079
1.099026
1.299539
1.499905
1.700244
1.900728
2.101576
2.251439
0.3058418
0.4953967
0.6967943
0.8981684
1.09902
1.299549
1.499936
1.700344
1.901361
2.052763
2.228415
0.3058388
0.4953915
0.6967933
0.8981761
1.099029
1.299548
1.499904
1.700208
1.900656
2.101214
2.25549
0.3059304
0.4956571
0.6969203
0.8982397
1.099063
1.299555
1.499866
1.700037
1.899897
2.097599
2.238041
0.3059935
0.4959443
0.6970662
0.8983267
1.099114
1.299585
1.499891
1.700123
1.90045
2.101541
2.24779
0.3061122
0.4959988
0.6972027
0.8984194
1.099168
1.299616
1.49992
1.700204
1.900935
2.052395
2.230956
0.3062227
0.4962304
0.6973685
0.8985041
1.099204
1.299623
1.499898
1.700118
2.251454
0.4506714
0.6518388
0.8492301
1.048694
1.249165
1.448681
1.648975
1.848621
2.047196
2.223249
0.2341138
0.4994515
0.6998794
0.8997787
1.099844
1.299973
1.500101
1.699997
1.899912
2.10003
2.299968
0.2337884
0.5003506
0.6998267
0.8995883
1.099783
1.299924
1.499999
1.699989
1.899972
2.1
2.29998
0.2343006
0.5002587
0.6997195
0.8994483
1.09973
1.299893
1.499962
1.699981
1.899987
2.099996
2.299994
0.233595
0.4996539
0.6994773
0.899335
1.099678
1.299867
1.499944
1.699975
1.899989
2.099997
2.300001
0.2572027
0.4994311
0.699313
0.8992576
1.099642
1.299848
1.499934
1.69997
1.899988
2.099998
2.300005
0.2566399
0.49919
0.6992031
0.899213
1.099621
1.299836
1.499927
1.699967
1.899987
2.099998
2.300006
0.2555995
0.4992648
0.6991874
0.8992038
1.099613
1.299831
1.499924
1.699965
1.899987
2.099999
2.300008
0.2563572
0.4997242
0.6992554
0.899218
1.099613
1.29983
1.499923
1.699966
1.899988
2.100002
2.30001
0.256712
0.4996542
0.6993087
0.8992289
1.099616
1.299831
1.499926
1.699971
1.899994
2.100008
2.300016
0.2337307
0.499584
0.699315
0.8992303
1.099618
1.299835
1.499932
1.699981
1.900008
2.100023
2.300028
0.2573261
0.4994611
0.6992956
0.8992309
1.099622
1.299841
1.499936
1.699968
1.899983
2.100005
2.300029
0.2566615
0.4994274
0.6993178
0.8992479
1.099631
1.299853
1.499934
1.699747
1.899472
2.099537
2.299876
0.2556988
0.5000649
0.6994433
0.8992845
1.099645
1.29987
1.49995
1.699506
1.89767
2.097897
2.300035
0.2559724
0.5000137
0.6994186
0.899278
1.099649
1.299887
1.499998
1.69954
1.898825
2.050454
2.250784
0.2554557
0.4991983
0.6992359
0.8992314
1.099643
1.299902
1.500048
1.699665
1.898538
2.051566
2.227857
0.2553776
0.4991475
0.6992085
0.8992257
1.099646
1.299914
1.500055
1.699541
1.899693
2.053139
2.259105
0.2556061
0.4997623
0.6993363
0.8992698
1.099663
1.299921
1.500039
1.699321
1.896636
2.100602
2.257338
0.2562871
0.5000346
0.6994499
0.8993247
1.099684
1.299924
1.500038
1.699466
1.899381
2.05285
2.258916
0.2560039
0.5000856
0.6996171
0.8993967
1.09971
1.299923
1.500031
1.69958
1.898248
2.05171
2.231142
0.2562185
0.5012121
0.699923
0.8994929
1.099735
1.299917
1.499992
1.699488
1.898693
2.050521
2.250852
0.2308249
0.3515612
0.3776113
0.2337542
0.3493062
0.4516057
0.5515366
0.4260514
0.5755824
0.4497093
0.5498808
0.6491887
0.7509831
0.6245093
0.7755502
0.6499631
0.7499412
0.8490179
0.9509681
0.824471
0.9755354
0.8499973
0.9499564
1.049016
1.150974
1.024463
1.175536
1.050013
1.149964
1.24902
1.350977
1.224464
1.375536
1.250021
1.349969
1.449022
1.550977
1.424464
1.575536
1.450025
1.549971
1.649022
1.750978
1.624464
1.775536
1.650026
1.749971
1.849022
1.950978
1.824464
1.975536
1.850027
1.949972
2.049023
2.150978
2.024464
2.175536
2.050028
2.149973
2.249023
2.350978
2.224464
2.375536
2.250028
2.349973
0.352915
0.2335194
0.3561574
0.2587163
0.3510158
0.2576106
0.3510343
0.3566467
0.2335347
0.356772
0.2582302
0.3508551
0.257209
0.3504564
0.3567457
0.2335282
0.3567239
0.2569666
0.3502492
0.2568336
0.3500964
0.3567127
0.2335274
0.3567043
0.2568079
0.350045
0.2567932
0.3500099
0.3567019
0.2335269
0.3566998
0.2567901
0.35
0.2567885
0.3499911
0.3566994
0.2335267
0.3566988
0.2567879
0.349989
0.2567875
0.349986
0.3566987
0.2335267
0.3566986
0.2567872
0.3499855
0.2567871
0.3499844
0.3566986
0.2335267
0.3566986
0.2567871
0.3499843
0.2567869
0.3499838
0.3566986
0.2335267
0.3566985
0.2567869
0.3499837
0.2567869
0.3499836
0.3566985
0.2335267
0.3566985
0.2567869
0.3499836
0.2567869
0.3499835
0.3566985
0.2335267
0.3566985
0.2567869
0.3499835
0.2567869
0.3499834
0.3566985
0.2335267
0.3566984
0.2567869
0.3499834
0.2567869
0.3499835
0.3566984
0.2335267
0.3566984
0.2567869
0.3499834
0.2567869
0.3499835
0.3566984
0.2335267
0.3566985
0.2567869
0.3499835
0.2567869
0.3499838
0.3566985
0.2335267
0.3566986
0.256787
0.3499839
0.2567871
0.3499845
2.376544
2.224434
2.227598
2.375785
2.25679
0.3566987
0.2335267
0.3566989
0.2567872
0.3499848
0.2567874
0.3499859
2.224671
2.257369
2.255539
0.3566991
0.2335268
0.3566996
0.2567876
0.3499867
0.256788
0.3499883
2.224692
2.2548
2.255579
0.3567
0.2335269
0.3567005
0.2567884
0.3499895
0.2567889
0.3499914
2.224459
2.25761
2.258342
0.3567006
0.2335271
0.3567005
0.2567891
0.3499926
0.2567889
0.3499934
2.223296
2.376044
2.231048
2.251785
2.37587
0.3566999
0.2567885
0.3499933
0.3771861
0.2337588
0.3495988
0.3789773
0.2337082
0.3496386
2.375844
2.257426
2.228377
2.375864
2.25753
2.252366
2.375965
2.232205
2.25273
2.376041
0.3789805
0.2337024
0.3496089
0.379012
0.2337002
0.3495942
2.375881
2.257535
2.228491
2.37588
2.257537
2.252884
2.376066
2.232285
2.252957
2.376073
0.3790213
0.2336993
0.3495882
0.3790368
0.2337003
0.3495807
2.375887
2.257534
2.228505
2.375885
2.257533
2.25298
2.37608
2.232253
2.252983
2.376076
0.3790411
0.2336978
0.349574
0.3790314
0.2336986
0.3495644
2.375888
2.257525
2.228493
2.375887
2.257512
2.252956
2.376077
2.231958
2.252896
2.376064
0.3790283
0.2336972
0.3495585
0.3790389
0.2336972
0.3495667
2.375887
2.257492
2.22847
2.375887
2.257467
2.252789
2.376057
2.230958
2.252661
2.376036
0.3790481
0.233695
0.3495767
0.3790564
0.2337025
0.3496121
2.375884
2.257449
2.228445
2.375886
2.25744
2.252564
2.376028
2.23058
2.252507
2.376021
0.3790494
0.2337078
0.3496455
0.3790179
0.2337298
0.3496695
2.375879
2.257454
2.228393
2.375882
2.257491
2.252487
2.376014
2.230789
2.252473
2.376017
0.3790053
0.2337394
0.3496792
0.3788761
0.2341683
0.349406
2.375866
2.257573
2.228021
2.375859
2.257678
2.252441
2.376
2.231336
2.252246
2.375953
0.3786312
0.2333319
0.347443
0.3748238
0.3477678
0.5529299
0.4488693
0.5494416
0.4250827
0.4503227
0.5510061
0.7514008
0.6496672
0.7498762
0.624742
0.6488867
0.7510554
0.9512209
0.8498354
0.9498861
0.9750091
0.8489808
0.9509283
1.151207
1.050086
1.150013
1.048998
1.1509
2.149167
2.050019
2.149864
2.0241
2.049015
2.151075
2.375795
2.250084
2.349981
2.249116
2.350944
0.3486759
0.2339207
0.3491634
0.3467591
0.3498051
0.3491866
0.23431
0.3500079
0.3503867
0.2303835
0.3522709
0.3498974
0.2336202
0.3486362
0.230383
0.3522299
0.35022
0.3481338
0.2337006
0.3483945
0.3495727
0.3499216
0.3468086
0.2559335
0.3474419
0.3502154
0.3506764
0.3486259
0.2574924
0.3487637
0.351752
0.3513239
0.3485429
0.2339012
0.3490124
0.3506412
0.3503755
0.3486057
0.2339763
0.3489476
0.3498933
0.3503199
0.3481815
0.2561471
0.3475003
0.3503637
0.3502607
0.3471878
0.2557175
0.3469891
0.3502755
0.3505451
2.375814
2.257691
2.22405
2.376573
2.228015
2.257759
2.259258
2.258906
2.258924
2.255898
2.226399
2.25182
2.375867
2.224908
2.223338
2.376046
0.2675437
0.2693264
0.4748829
0.4245827
0.4246791
0.4757259
0.6749928
0.6243832
0.6249811
0.6754561
0.8749978
0.8243665
0.8249942
0.8754535
1.074999
1.024369
1.024997
1.075455
1.274999
1.22437
1.224997
1.275455
1.475
1.42437
1.424998
1.475455
1.675
1.62437
1.624998
1.675455
1.875
1.82437
1.824998
1.875455
2.075
2.02437
2.024998
2.075455
2.275
2.22437
2.224998
2.275455
0.2764042
0.2785393
0.2333568
0.2334711
0.2758617
0.2332019
0.279465
0.2766384
0.280416
0.2335516
0.2331866
0.2766736
0.2331291
0.2804952
0.276536
0.2804474
0.2335307
0.2330382
0.276542
0.232984
0.2804947
0.2765174
0.2804404
0.2335291
0.2330186
0.2765068
0.2329758
0.2804909
0.2765149
0.2804391
0.2335285
0.2330178
0.2765019
0.2329753
0.2804901
0.2765144
0.2804387
0.2335282
0.2330175
0.276501
0.2329751
0.2804899
0.2765142
0.2804386
0.2335281
0.2330174
0.2765007
0.232975
0.2804898
0.2765141
0.2804385
0.2335281
0.2330174
0.2765006
0.232975
0.2804898
0.2765141
0.2804385
0.2335281
0.2330174
0.2765006
0.232975
0.2804897
0.2765141
0.2804385
0.2335281
0.2330174
0.2765006
0.232975
0.2804897
0.2765141
0.2804385
0.2335281
0.2330174
0.2765006
0.232975
0.2804897
0.2765141
0.2804385
0.2335281
0.2330174
0.2765006
0.232975
0.2804897
0.2765141
0.2804385
0.2335281
0.2330174
0.2765006
0.232975
0.2804897
0.2765141
0.2804385
0.2335281
0.2330174
0.2765006
0.232975
0.2804897
2.351198
2.24954
2.350735
2.250727
2.350544
2.251357
2.351025
0.2765141
0.2804385
0.2335281
0.2330174
0.2765006
0.232975
0.2804897
0.2765142
0.2804385
0.2335281
0.2330174
0.2765006
0.232975
0.2804898
0.2765144
0.2804385
0.2335281
0.2330174
0.2765008
0.232975
0.2804898
0.2765149
0.2804387
0.2335282
0.2330175
0.2765012
0.2329752
0.28049
0.2765155
0.280439
0.2335284
0.2330177
0.2765019
0.2329754
0.2804903
0.2765151
0.2804392
0.2335286
0.2330177
0.2765018
0.2329753
0.2804904
0.2675973
0.2675757
2.350823
2.251717
2.351191
2.251405
2.350953
2.252087
2.351341
2.259281
2.256061
2.259552
0.2675778
0.2675741
2.351133
2.252234
2.351427
2.251701
2.351173
2.252329
2.35147
2.259561
2.255543
2.259558
0.2675782
0.2675888
2.351246
2.252357
2.351495
2.251778
2.351252
2.252385
2.351507
2.259537
2.25541
2.259511
0.2675756
0.2675936
2.351278
2.252388
2.351514
2.251781
2.351276
2.252391
2.351515
2.259421
2.254711
2.259079
0.267559
0.2675665
2.351275
2.252386
2.351513
2.251747
2.351274
2.252375
2.351509
2.257618
2.246711
2.328261
2.255463
0.2675984
0.2676051
2.351248
2.252368
2.351502
2.251673
2.351243
2.252341
2.35149
2.325389
2.254341
2.242381
2.325076
2.254001
0.2675994
0.2675974
2.351175
2.252321
2.351469
2.251496
2.351141
2.252244
2.351433
2.32511
2.254033
2.243664
2.325507
2.254424
0.2675796
0.2675644
2.350975
2.252129
2.351361
2.251034
2.350851
2.251808
2.351232
2.328517
2.255623
2.254246
2.257734
0.2668508
0.2673788
1.350818
1.249972
1.350021
1.224775
1.375233
1.24891
1.351085
1.550968
1.450001
1.550007
1.449105
1.551025
1.750994
1.649994
1.750006
1.649013
1.750988
1.948629
1.849995
1.950026
1.848978
1.950925
0.3479831
0.2561237
0.3474384
0.3502623
0.3502189
0.3470892
0.2556571
0.3467397
0.3501623
0.350123
0.3474162
0.2559839
0.3480697
0.3517416
0.2326832
0.353913
0.348037
0.2556318
0.3472719
0.2326831
0.3539072
0.3517177
2.350564
2.251496
2.351076
2.248858
2.351202
2.249664
2.350757
0.346651
0.2553788
0.3464341
0.3504901
0.350168
0.3464222
0.2554512
0.3466055
0.3501513
0.3504038
2.257837
2.258324
2.257456
0.347144
0.2559235
0.3478485
0.3513785
0.2303189
0.3527918
0.3485779
0.256235
0.3486481
0.3523824
0.3521118
0.3477773
0.2558701
0.3477936
0.3512391
0.3520474
0.3487157
0.2307342
0.3546146
0.3223757
0.3753628
0.3741281
0.3238111
0.2704481
0.2758717
0.2316198
0.2286341
0.2739116
0.2697973
0.2676054
0.2675626
0.5249422
0.5756597
0.5749796
0.5247352
0.724994
0.7756266
0.7749991
0.7245434
0.9249985
0.9756294
0.9750012
0.9245433
1.125
1.17563
1.175002
1.124544
1.325
1.37563
1.375002
1.324545
1.525
1.57563
1.575002
1.524545
1.725
1.77563
1.775002
1.724545
1.925
1.97563
1.975002
1.924545
2.125
2.17563
2.175002
2.124545
2.325
2.37563
2.375002
2.324545
0.2766182
0.2334623
0.2803347
0.2331567
0.2331731
0.2766548
0.2800037
0.2766071
0.2335458
0.2804483
0.2330499
0.2330852
0.2765564
0.2805003
0.276529
0.2335301
0.2804406
0.2330192
0.2329805
0.2765086
0.2804935
0.2765167
0.2335288
0.2804391
0.2330178
0.2329757
0.2765021
0.2804908
0.2765148
0.2335284
0.2804387
0.2330175
0.2329752
0.276501
0.28049
0.2765143
0.2335282
0.2804386
0.2330174
0.2329751
0.2765007
0.2804898
0.2765142
0.2335281
0.2804385
0.2330174
0.232975