/*--------------------------------*- C++ -*----------------------------------*\
  =========                 |
  \\      /  F ield         | OpenFOAM: The Open Source CFD Toolbox
   \\    /   O peration     | Website:  https://openfoam.org
    \\  /    A nd           | Version:  7
     \\/     M anipulation  |
\*---------------------------------------------------------------------------*/
FoamFile
{
    version     2.0;
    format      ascii;
    class       volScalarField;
    location    "0.1";
    object      Cy;
}
// * * * * * * * * * * * * * * * * * * * * * * * * * * * * * * * * * * * * * //

dimensions      [0 1 0 0 0 0 0];

internalField   nonuniform List<scalar> 
73374
(
0.4257389
0.499111
0.4995436
0.4995287
0.4994488
0.4994117
0.4993983
0.4993937
0.4993931
0.4993952
0.4993994
0.6249925
0.699708
0.6995714
0.699499
0.6994074
0.6993607
0.6993417
0.6993347
0.6993336
0.6993363
0.6993421
0.8249667
0.8997333
0.8995048
0.8993776
0.8993099
0.899275
0.8992588
0.8992522
0.899251
0.8992537
0.8992593
1.024969
1.099887
1.099782
1.099713
1.099672
1.09965
1.099639
1.099633
1.099632
1.099634
1.099639
1.224969
1.299958
1.299917
1.299886
1.299865
1.299852
1.299844
1.299841
1.29984
1.299841
1.299844
1.424969
1.499984
1.499968
1.499953
1.499943
1.499935
1.49993
1.499928
1.499928
1.499929
1.499931
1.624969
1.699993
1.699986
1.69998
1.699975
1.699971
1.699968
1.699968
1.699968
1.699969
1.69997
1.824969
1.899997
1.899994
1.899991
1.899988
1.899987
1.899987
1.899988
1.899991
1.899993
1.899995
2.024969
2.099999
2.099997
2.099996
2.099996
2.099997
2.1
2.100005
2.100012
2.10002
2.100026
2.224969
2.3
2.299999
2.3
2.300001
2.300005
2.300012
2.300025
2.300043
2.300067
2.300088
2.424969
2.5
2.500001
2.500002
2.500006
2.500013
2.500019
2.50002
2.500042
2.500098
2.500157
2.624969
2.700001
2.700002
2.700004
2.700009
2.700021
2.700011
2.699794
2.699566
2.699616
2.699652
2.824969
2.900001
2.900002
2.900005
2.900012
2.900028
2.900004
2.899497
2.897709
2.898908
2.89869
3.024969
3.100001
3.100003
3.100006
3.100014
3.10003
3.10001
3.099536
3.097871
3.046022
3.044936
3.224969
3.300002
3.300004
3.300007
3.300013
3.300026
3.300022
3.299852
3.29993
3.248714
3.223753
3.424969
3.500002
3.500004
3.500007
3.500012
3.50002
3.500027
3.500035
3.500064
3.449046
3.424567
3.624969
3.700003
3.700005
3.700007
3.70001
3.700015
3.700024
3.70004
3.700064
3.649013
3.624496
3.824969
3.900003
3.900004
3.900006
3.900007
3.900009
3.90002
3.900048
3.900088
3.84902
3.8245
4.024969
4.100002
4.100002
4.100002
4.100002
4.099999
4.100023
4.100243
4.100296
4.049146
4.02453
4.224969
4.250241
4.251473
0.2590652
0.2584685
0.2581531
0.258087
0.2580768
0.2580741
0.2580733
0.2580731
0.2580733
0.2580742
0.4516446
0.500098
0.4995281
0.4989093
0.4986205
0.4985055
0.4984602
0.4984436
0.498441
0.4984478
0.4984625
0.701327
0.6996394
0.6989398
0.6983752
0.6980601
0.6979064
0.697837
0.6978094
0.6978046
0.6978153
0.6978375
0.9003726
0.8996972
0.8993176
0.8989776
0.898755
0.898629
0.8985645
0.8985364
0.8985312
0.8985426
0.8985663
1.099973
1.099819
1.099625
1.099438
1.0993
1.099212
1.099163
1.09914
1.099135
1.099145
1.099165
1.299969
1.299904
1.299805
1.299704
1.299623
1.299567
1.299534
1.299517
1.299513
1.29952
1.299535
1.499986
1.499951
1.499899
1.499845
1.499799
1.499766
1.499745
1.499734
1.499732
1.499737
1.499746
1.699994
1.699975
1.699948
1.699919
1.699894
1.699876
1.699865
1.69986
1.699861
1.699865
1.69987
1.899997
1.899988
1.899974
1.899959
1.899947
1.89994
1.899937
1.899939
1.899945
1.899951
1.899954
2.099999
2.099994
2.099988
2.099982
2.099979
2.09998
2.099987
2.099999
2.100015
2.10003
2.100036
2.3
2.299998
2.299997
2.299997
2.300001
2.300011
2.30003
2.300059
2.300096
2.300134
2.300155
2.5
2.500001
2.500002
2.500007
2.500018
2.500039
2.500073
2.500128
2.500205
2.500299
2.500369
2.7
2.700002
2.700006
2.700015
2.700032
2.700063
2.700118
2.700206
2.700345
2.700561
2.700774
2.900001
2.900003
2.900009
2.900021
2.900042
2.900083
2.900158
2.900287
2.900505
2.901011
2.901816
3.100001
3.100004
3.100011
3.100024
3.100047
3.100092
3.100179
3.100354
3.100783
3.1017
3.052462
3.300001
3.300005
3.300012
3.300024
3.300046
3.300086
3.300161
3.300314
3.300709
3.25107
3.227711
3.500002
3.500006
3.500012
3.500023
3.500041
3.500071
3.50012
3.500191
3.500235
3.499988
3.450269
3.700002
3.700006
3.700012
3.700021
3.700034
3.700057
3.700094
3.700161
3.700291
3.700593
3.650085
3.900001
3.900004
3.90001
3.900016
3.900025
3.90004
3.900068
3.900134
3.900331
3.900749
3.850491
4.1
4.100002
4.100005
4.100008
4.100011
4.100017
4.100028
4.100061
4.100156
4.050381
4.026295
4.250196
0.2586912
0.3080811
0.3066017
0.3060649
0.3059382
0.3059052
0.305895
0.3058936
0.3058973
0.3059041
0.4522934
0.5001981
0.4985386
0.4968243
0.4960807
0.4958028
0.4956989
0.4956622
0.4956568
0.4956698
0.4956956
0.702416
0.6997702
0.6986787
0.6975595
0.6968797
0.6965467
0.6963959
0.6963365
0.6963271
0.6963501
0.696395
0.9007313
0.8996668
0.8990694
0.8983991
0.897907
0.8976252
0.8974802
0.8974176
0.8974069
0.897433
0.8974847
1.099978
1.099748
1.099425
1.099051
1.098747
1.098547
1.098434
1.098382
1.098372
1.098395
1.098441
1.299951
1.299846
1.299663
1.299453
1.299272
1.299144
1.299065
1.299027
1.299019
1.299036
1.299071
1.499976
1.499913
1.499809
1.499691
1.499586
1.499508
1.499459
1.499434
1.499429
1.499441
1.499462
1.699988
1.699953
1.699894
1.699829
1.699771
1.699727
1.699701
1.699689
1.699689
1.699696
1.699706
1.899995
1.899975
1.899944
1.89991
1.899881
1.899862
1.899854
1.899856
1.899864
1.899873
1.899874
2.099998
2.099988
2.099973
2.099959
2.099951
2.099951
2.099961
2.099981
2.100006
2.100025
2.100021
2.299999
2.299996
2.299992
2.299991
2.299999
2.300017
2.30005
2.300098
2.300157
2.300205
2.300207
2.5
2.500001
2.500004
2.500014
2.500035
2.500073
2.500136
2.50023
2.500354
2.500477
2.500515
2.700001
2.700004
2.700013
2.700031
2.700065
2.700123
2.700223
2.700385
2.70063
2.700934
2.701096
2.900001
2.900006
2.900018
2.900043
2.900086
2.900163
2.900302
2.900549
2.900964
2.901596
2.902164
3.100001
3.100008
3.100022
3.100048
3.100096
3.100182
3.100342
3.100655
3.101255
3.102203
3.053307
3.300002
3.300008
3.300022
3.300048
3.300093
3.300172
3.300315
3.300583
3.301136
3.251827
3.228253
3.500002
3.500009
3.500021
3.500043
3.500081
3.500143
3.500241
3.500374
3.500454
3.500092
3.450466
3.700003
3.700008
3.700018
3.700036
3.700065
3.700114
3.700194
3.700328
3.700533
3.700868
3.650146
3.900002
3.900007
3.900014
3.900026
3.900047
3.900084
3.90015
3.900282
3.900569
3.900991
3.850408
4.100001
4.100004
4.100009
4.100016
4.100027
4.100048
4.100088
4.100175
4.100391
4.050739
4.026531
4.250178
0.2583938
0.3066677
0.3041466
0.3033455
0.3031442
0.3030918
0.3030767
0.3030761
0.3030823
0.3030912
0.4523142
0.4997002
0.4969214
0.4942087
0.4930233
0.4925835
0.4924228
0.4923695
0.4923659
0.4923885
0.492424
0.702576
0.6995267
0.697938
0.6962619
0.6952155
0.6946997
0.6944682
0.6943809
0.6943725
0.6944117
0.6944778
0.9008612
0.8995398
0.8986962
0.8977005
0.8969298
0.8964767
0.8962473
0.8961519
0.8961401
0.8961847
0.8962648
1.099969
1.099665
1.099208
1.098637
1.09814
1.097806
1.097621
1.097538
1.097526
1.097564
1.097639
1.299936
1.299792
1.299529
1.299208
1.298915
1.298702
1.298574
1.298513
1.298502
1.29853
1.298586
1.499967
1.499879
1.499727
1.499545
1.499375
1.499246
1.499165
1.499125
1.499118
1.499136
1.499171
1.699984
1.699933
1.699846
1.699743
1.699648
1.699576
1.699531
1.699511
1.69951
1.699521
1.699537
1.899993
1.899965
1.899917
1.899863
1.899815
1.899782
1.899766
1.899766
1.899776
1.899786
1.899784
2.099997
2.099983
2.09996
2.099937
2.099921
2.099918
2.099931
2.099957
2.099988
2.100007
2.09999
2.299999
2.299994
2.299987
2.299985
2.299994
2.30002
2.300065
2.300131
2.300205
2.300258
2.300234
2.499999
2.500001
2.500006
2.50002
2.50005
2.500105
2.500193
2.500323
2.500488
2.500632
2.500629
2.7
2.700005
2.700018
2.700045
2.700094
2.70018
2.700323
2.700552
2.700849
2.701138
2.70121
2.900001
2.900008
2.900026
2.900061
2.900126
2.90024
2.90044
2.900767
2.901251
2.901923
2.902467
3.100001
3.10001
3.10003
3.100069
3.10014
3.100268
3.100498
3.100892
3.101572
3.102516
3.053626
3.300002
3.300011
3.30003
3.300067
3.300135
3.300253
3.300459
3.300804
3.301401
3.252156
3.228387
3.500003
3.500011
3.500027
3.500059
3.500115
3.500209
3.500354
3.500542
3.50063
3.500217
3.450552
3.700003
3.70001
3.700023
3.700046
3.700091
3.700166
3.700287
3.700462
3.700676
3.70095
3.650176
3.900003
3.900009
3.900017
3.900033
3.900066
3.900124
3.900226
3.900398
3.900688
3.901034
3.850381
4.100002
4.100006
4.100012
4.100023
4.100043
4.100079
4.100146
4.100274
4.100489
4.05084
4.026549
4.250063
0.2583333
0.3061546
0.3033743
0.3024164
0.3021764
0.3021151
0.3021013
0.3021085
0.3021243
0.3021385
0.4522979
0.4994717
0.4962609
0.4931331
0.4917322
0.4912056
0.491016
0.4909632
0.4909784
0.4910258
0.4910765
0.702547
0.6993457
0.6974551
0.6954452
0.6941732
0.6935439
0.6932658
0.693172
0.6931823
0.6932505
0.6933387
0.9008496
0.8994352
0.8984157
0.8971966
0.8962421
0.8956742
0.8953916
0.8952826
0.8952825
0.8953514
0.8954554
1.099958
1.099605
1.099054
1.098351
1.097733
1.097313
1.097082
1.096983
1.096976
1.097032
1.097127
1.299926
1.299757
1.299442
1.299048
1.298677
1.298402
1.298238
1.298162
1.298153
1.298193
1.298264
1.499962
1.499859
1.499677
1.499453
1.499239
1.499074
1.49897
1.49892
1.498913
1.498938
1.498982
1.699982
1.699921
1.699817
1.699691
1.699571
1.699478
1.69942
1.699395
1.699393
1.699408
1.699427
1.899992
1.899958
1.8999
1.899833
1.899772
1.899729
1.899708
1.899707
1.899717
1.899727
1.899723
2.099997
2.099979
2.099951
2.099922
2.099901
2.099896
2.099909
2.099938
2.099971
2.099988
2.099961
2.299998
2.299992
2.299984
2.299981
2.29999
2.300019
2.300071
2.300145
2.300225
2.300273
2.300228
2.499998
2.5
2.500007
2.500023
2.500058
2.500122
2.500224
2.500368
2.500531
2.500654
2.500612
2.699998
2.700005
2.700021
2.700052
2.700111
2.700212
2.700377
2.700617
2.700935
2.701259
2.701324
2.899999
2.900008
2.90003
2.900072
2.900148
2.900284
2.90051
2.900875
2.901408
2.902086
2.902587
3.100001
3.10001
3.100034
3.10008
3.100165
3.100319
3.100583
3.101023
3.101725
3.102633
3.053743
3.300002
3.300012
3.300034
3.300077
3.300158
3.300303
3.300545
3.300923
3.301518
3.252284
3.228429
3.500004
3.500013
3.500031
3.500067
3.500134
3.50025
3.500428
3.500634
3.500704
3.500269
3.45057
3.700004
3.700012
3.700025
3.700052
3.700104
3.700197
3.700342
3.700532
3.700734
3.700986
3.650206
3.900004
3.90001
3.900019
3.900037
3.900076
3.900149
3.900273
3.900463
3.900757
3.901073
3.850396
4.100003
4.100007
4.100014
4.100027
4.100052
4.100101
4.100189
4.100325
4.100518
4.050868
4.026549
4.250002
0.2583301
0.3060734
0.3032424
0.3022572
0.3020062
0.3019496
0.3019605
0.3020087
0.3020616
0.3020914
0.4522999
0.4994268
0.4961216
0.4929085
0.4914608
0.4909146
0.4907275
0.4907077
0.4907936
0.4909212
0.491011
0.7025251
0.6992972
0.6973378
0.6952591
0.693944
0.6932955
0.6930196
0.6929545
0.6930216
0.6931525
0.6932738
0.9008357
0.8994086
0.8983514
0.8970897
0.8961044
0.8955223
0.8952405
0.8951488
0.8951818
0.8952869
0.8954116
1.099979
1.099594
1.099025
1.098301
1.097664
1.097236
1.097004
1.096914
1.096923
1.096997
1.097104
1.299975
1.299754
1.299432
1.299027
1.298646
1.298366
1.298201
1.29813
1.298128
1.298176
1.298254
1.500006
1.49986
1.499675
1.499444
1.499225
1.499057
1.498953
1.498906
1.498902
1.49893
1.498978
1.699982
1.699921
1.699814
1.699686
1.699565
1.699471
1.699413
1.699388
1.699388
1.699404
1.699425
1.899948
1.899955
1.899896
1.899829
1.899769
1.899726
1.899705
1.899704
1.899714
1.899725
1.899722
2.099952
2.099976
2.099948
2.099919
2.099899
2.099894
2.099908
2.099936
2.099969
2.099987
2.09996
2.299997
2.299992
2.299984
2.299981
2.29999
2.300018
2.30007
2.300144
2.300223
2.300271
2.300225
2.500041
2.500002
2.50001
2.500024
2.500058
2.500122
2.500224
2.500367
2.500529
2.500652
2.500609
2.700051
2.700009
2.700025
2.700055
2.700112
2.700212
2.700377
2.700616
2.700934
2.701257
2.701321
2.900031
2.90001
2.900033
2.900073
2.900149
2.900284
2.900509
2.900874
2.901407
2.902085
2.902585
3.100006
3.100009
3.100035
3.100081
3.100166
3.100319
3.100583
3.101023
3.101726
3.102635
3.05378
3.3
3.300011
3.300034
3.300078
3.300159
3.300303
3.300545
3.300921
3.301518
3.252323
3.228442
3.500004
3.500013
3.500031
3.500067
3.500134
3.50025
3.500427
3.50063
3.500691
3.500256
3.450585
3.700007
3.700014
3.700026
3.700052
3.700105
3.700198
3.700342
3.700526
3.700698
3.700824
3.650286
3.900005
3.900011
3.90002
3.900038
3.900077
3.900151
3.900279
3.900481
3.900824
3.901287
3.850433
4.100004
4.100009
4.100015
4.100028
4.100054
4.100104
4.100194
4.100338
4.10054
4.050889
4.026534
4.300003
4.249978
0.2583341
0.3061899
0.3034292
0.3024791
0.3022342
0.3021929
0.3023383
0.3025878
0.3027549
0.3028296
0.4522889
0.4995038
0.4963358
0.4932782
0.4919175
0.4914024
0.4912434
0.4913133
0.4916189
0.4920096
0.4922229
0.7023376
0.6993557
0.6975511
0.6956575
0.6944801
0.693904
0.6936745
0.6936756
0.6938624
0.6941253
0.6943102
0.9007021
0.8994587
0.8985127
0.8974019
0.8965508
0.8960589
0.8958294
0.8957814
0.8958671
0.8960218
0.8961675
1.100197
1.099637
1.099135
1.09851
1.09797
1.097613
1.097427
1.097365
1.097396
1.097485
1.097591
1.300511
1.299796
1.29951
1.29916
1.298843
1.298617
1.298487
1.298435
1.298443
1.298494
1.298565
1.500531
1.499896
1.499727
1.499527
1.499344
1.499209
1.499127
1.499091
1.499092
1.49912
1.499162
1.69999
1.699931
1.69984
1.699733
1.699634
1.699559
1.699515
1.699496
1.699499
1.699515
1.699534
1.899429
1.899941
1.8999
1.899852
1.899806
1.899773
1.899758
1.89976
1.899771
1.899783
1.899782
2.099438
2.099964
2.099947
2.099929
2.099916
2.099914
2.099927
2.099953
2.099985
2.100004
2.099987
2.299996
2.299993
2.299987
2.299985
2.299993
2.300018
2.300063
2.300128
2.300202
2.300253
2.300227
2.500554
2.500019
2.500019
2.500026
2.500052
2.500105
2.500192
2.50032
2.500483
2.500625
2.500618
2.700591
2.700031
2.700036
2.700053
2.700097
2.70018
2.700322
2.700549
2.700844
2.70113
2.701199
2.900272
2.900018
2.900035
2.900066
2.900128
2.90024
2.90044
2.900765
2.901248
2.901917
2.902459
3.100017
3.100006
3.100032
3.100071
3.100142
3.100268
3.100498
3.10089
3.101572
3.102518
3.053755
3.299996
3.300007
3.30003
3.300068
3.300136
3.300254
3.300458
3.300801
3.301402
3.252289
3.228436
3.500008
3.500013
3.500028
3.500059
3.500116
3.50021
3.500352
3.500532
3.5006
3.500185
3.450599
3.700014
3.700014
3.700024
3.700047
3.700092
3.700168
3.700287
3.700449
3.700597
3.700546
3.65034
3.900006
3.900012
3.900019
3.900035
3.900069
3.90013
3.900239
3.900439
3.90084
3.901586
3.851064
4.100007
4.100013
4.100016
4.100025
4.100047
4.100086
4.100159
4.100304
4.100538
4.050902
4.026509
4.300007
4.30001
4.300011
4.300018
4.249992
0.2583528
0.3067497
0.3042815
0.3034972
0.3032703
0.3032315
0.3034696
0.3049318
0.3046373
0.3056146
0.4520289
0.4997103
0.4970745
0.4945511
0.4934575
0.4930093
0.4928674
0.4930497
0.493846
0.4949781
0.495478
0.701337
0.6994667
0.698069
0.6966181
0.6957491
0.6953198
0.6951474
0.6952064
0.6955419
0.6959853
0.696263
0.900362
0.8995561
0.898848
0.8980428
0.8974579
0.8971263
0.8969706
0.8969604
0.8970844
0.8972725
0.8974297
1.100251
1.099723
1.099353
1.09892
1.098571
1.098347
1.098228
1.098198
1.09824
1.098327
1.098419
1.302273
1.299901
1.299661
1.29941
1.299203
1.299061
1.298981
1.298951
1.298965
1.299007
1.299062
1.502186
1.500005
1.499829
1.499678
1.499558
1.499474
1.499423
1.499403
1.499407
1.499429
1.49946
1.700018
1.699948
1.699886
1.699818
1.699757
1.699712
1.699685
1.699675
1.699679
1.699691
1.699706
1.897774
1.899875
1.899907
1.899895
1.899872
1.899854
1.899847
1.89985
1.899859
1.89987
1.899873
2.097677
2.099919
2.099946
2.099949
2.099945
2.099947
2.099958
2.099978
2.100003
2.100021
2.100017
2.299998
2.299997
2.299993
2.299991
2.299997
2.300015
2.300048
2.300095
2.300152
2.300199
2.300198
2.502303
2.500072
2.500033
2.500023
2.500037
2.500073
2.500134
2.500226
2.500347
2.500466
2.500498
2.702244
2.700113
2.700052
2.700043
2.700068
2.700124
2.700222
2.700381
2.700622
2.700918
2.701069
2.900427
2.900037
2.900034
2.900049
2.900088
2.900163
2.9003
2.900545
2.900957
2.90158
2.902138
3.099995
3.100001
3.100026
3.100051
3.100097
3.100182
3.100342
3.100654
3.101253
3.102196
3.053607
3.299982
3.300001
3.300022
3.300049
3.300094
3.300173
3.300315
3.300583
3.301139
3.252122
3.228395
3.500023
3.500011
3.50002
3.500043
3.500081
3.500143
3.50024
3.500368
3.500434
3.500061
3.450562
3.700049
3.700011
3.700017
3.700035
3.700066
3.700116
3.700195
3.700313
3.70045
3.700472
3.650362
3.900004
3.900008
3.900015
3.900028
3.900051
3.90009
3.900163
3.900322
3.900711
3.901537
3.851142
4.100004
4.100022
4.100013
4.100019
4.100033
4.100056
4.100102
4.100205
4.100442
4.050876
4.026492
4.30002
4.300015
4.300007
4.300009
4.300014
4.30002
4.250071
0.2585361
0.308104
0.3066753
0.3061979
0.3060343
0.3059375
0.3060126
0.306291
0.2556234
0.2561007
0.4515602
0.4998742
0.4982697
0.4968294
0.4962253
0.4958961
0.4956324
0.4956728
0.4965917
0.4980484
0.4986508
0.6521366
0.6995015
0.6986496
0.6978314
0.6973834
0.6971411
0.6969821
0.6969837
0.6972821
0.6976948
0.6979831
0.8491981
0.8996811
0.8992513
0.8988241
0.8985442
0.8983804
0.8982841
0.8982703
0.8983647
0.8985112
0.8986436
1.049139
1.099835
1.099614
1.099391
1.099226
1.099121
1.099061
1.099046
1.099076
1.099134
1.099198
1.249981
1.299967
1.299822
1.299691
1.299595
1.299531
1.299494
1.299481
1.29949
1.299515
1.299547
1.500383
1.500092
1.499923
1.499842
1.499788
1.49975
1.499728
1.49972
1.499723
1.499735
1.499751
1.700112
1.699947
1.699935
1.699912
1.699887
1.699869
1.699857
1.699854
1.699857
1.699864
1.699872
1.899528
1.899839
1.89994
1.899949
1.899942
1.899936
1.899934
1.899936
1.899943
1.89995
1.899954
2.04641
2.099943
2.099968
2.099976
2.099976
2.099978
2.099985
2.099997
2.100013
2.100028
2.100033
2.248809
2.300011
2.299999
2.299997
2.3
2.30001
2.300028
2.300056
2.300092
2.300128
2.300146
2.449978
2.500067
2.500026
2.500012
2.500019
2.500038
2.500072
2.500125
2.500199
2.500287
2.500347
2.70045
2.700153
2.700033
2.70002
2.700033
2.700063
2.700116
2.700203
2.700336
2.70054
2.70073
2.900274
2.900021
2.900013
2.900022
2.900042
2.900082
2.900157
2.900284
2.900495
2.900981
2.90174
3.099868
3.100007
3.100022
3.100028
3.100049
3.100092
3.100179
3.100354
3.100783
3.101672
3.053064
3.29993
3.300002
3.300017
3.300027
3.300047
3.300087
3.300163
3.300322
3.30073
3.251622
3.228229
3.500067
3.500002
3.500007
3.500021
3.500041
3.500071
3.500121
3.5002
3.500263
3.500036
3.450369
3.700147
3.699983
3.699998
3.700017
3.700034
3.700058
3.700095
3.700154
3.70024
3.70043
3.650276
3.899955
3.899995
3.900006
3.900015
3.900027
3.900045
3.900076
3.900144
3.900372
3.900924
3.850877
4.100028
4.100029
4.100002
4.100007
4.100015
4.100024
4.100038
4.100074
4.100174
4.050697
4.026502
4.300107
4.299999
4.299991
4.299998
4.300001
4.299999
4.299994
4.299993
4.250207
0.258265
0.2574408
0.2562189
0.2562093
0.2560728
0.2556414
0.2553961
0.2556812
0.2563015
0.2340036
0.4261519
0.5005285
0.5007618
0.5001477
0.5000812
0.5003773
0.4995687
0.499146
0.4995877
0.5001655
0.5003028
0.6244245
0.6999231
0.6998664
0.6996746
0.6995785
0.6995392
0.6993724
0.699252
0.6993777
0.699558
0.6997401
0.8244078
0.8999094
0.8996289
0.899464
0.8993858
0.8993403
0.8992796
0.899243
0.8992765
0.8993399
0.899419
1.024475
1.09991
1.099822
1.099741
1.099695
1.099667
1.099642
1.099631
1.09964
1.099663
1.099694
1.250642
1.299968
1.299928
1.299894
1.299869
1.299854
1.299843
1.299838
1.299841
1.29985
1.299861
1.451603
1.499992
1.499975
1.499955
1.499942
1.499934
1.499928
1.499926
1.499927
1.499931
1.499936
1.64905
1.699947
1.699983
1.699977
1.699973
1.699969
1.699967
1.699966
1.699968
1.69997
1.699972
1.848939
1.899991
1.899987
1.899989
1.899987
1.899986
1.899986
1.899988
1.89999
1.899993
1.899996
2.04713
2.100031
2.099996
2.099996
2.099995
2.099997
2.099999
2.100004
2.100011
2.100019
2.100025
2.224257
2.299994
2.299998
2.299999
2.300001
2.300004
2.300012
2.300024
2.300042
2.300063
2.300083
2.450548
2.500005
2.499996
2.5
2.500005
2.500012
2.500018
2.500019
2.500039
2.50009
2.50014
2.651603
2.699955
2.699987
2.699999
2.700008
2.700021
2.700011
2.699793
2.699561
2.699599
2.699606
2.849305
2.899884
2.899976
2.899999
2.900011
2.900027
2.900004
2.899495
2.897702
2.89888
2.898568
3.048806
3.10012
3.100031
3.100013
3.100015
3.10003
3.100018
3.099558
3.097889
3.050468
3.051674
3.248921
3.300053
3.30002
3.300012
3.300014
3.300026
3.300045
3.300086
3.300262
3.250639
3.227447
3.448982
3.499961
3.499995
3.500005
3.500011
3.50002
3.500049
3.500355
3.502133
3.45022
3.450223
3.64925
3.699924
3.69999
3.700002
3.700009
3.700016
3.700024
3.700038
3.700036
3.700007
3.650031
3.849052
3.900043
3.900006
3.900003
3.900007
3.900011
3.900001
3.899732
3.898022
3.850047
3.850328
4.048776
4.099927
4.099968
4.099994
4.100002
4.100002
4.100006
4.100017
4.099994
4.050184
4.02613
4.249222
4.299877
4.299961
4.299989
4.299995
4.299991
4.300023
4.30053
4.302325
4.249975
4.2499
0.3749319
0.3477187
0.2333133
0.3785877
0.3473614
0.3464046
0.3488816
0.234073
0.2335931
0.3482283
0.3481329
0.3491787
0.3493066
0.2335817
0.2335555
0.3480072
0.3479096
0.3492942
0.3492897
0.2335518
0.2335448
0.3478552
0.3478169
0.3492837
0.3492789
0.2335444
0.2335434
0.3477999
0.3477873
0.3492774
0.3492761
0.2335433
0.233543
0.3477827
0.3477786
0.3492757
0.3492754
0.233543
0.2335429
0.3477773
0.3477759
0.3492753
0.3492753
0.2335429
0.2335429
0.3477756
0.3477751
0.3492753
0.3492754
0.2335429
0.2335429
0.3477752
0.3477754
0.3492755
0.3492757
0.2335429
0.233543
0.3477758
0.3477764
0.349276
0.3492765
0.233543
0.2335432
0.3477774
0.3477792
0.450225
0.5750464
0.5509759
0.4508356
0.4487919
0.5529176
0.5494036
0.6488915
0.7750353
0.750896
0.6517703
0.6496576
0.7516517
0.7498529
0.8489331
0.9750305
0.9509705
0.8491822
0.849899
0.9510323
0.9499537
1.048976
1.175031
1.150996
1.048993
1.049963
1.151006
1.149983
1.24899
1.375031
1.351003
1.248986
1.249986
1.351009
1.349994
1.448994
1.575031
1.551004
1.448988
1.449995
1.55101
1.549997
1.648995
1.775031
1.751004
1.648989
1.649998
1.75101
1.749998
1.848995
1.975031
1.951005
1.848989
1.849999
1.951011
1.949999
2.048995
2.175031
2.151005
2.048989
2.05
2.151011
2.15
2.248995
2.375031
2.351005
2.248989
2.25
2.351011
2.35
2.448995
2.575031
2.551005
2.448989
2.45
2.551011
2.55
2.648995
2.775031
2.751005
2.648989
2.65
2.751011
2.75
2.848995
2.975031
2.951005
2.848989
2.85
2.951011
2.95
3.048995
3.175031
3.151005
3.048989
3.05
3.151011
3.15
3.248995
3.375031
3.351005
3.248989
3.25
3.351011
3.35
3.230552
3.375688
3.227493
3.233305
3.351557
3.448995
3.575031
3.551005
3.448989
3.45
3.551011
3.550001
3.575512
3.450247
3.550077
3.648995
3.775031
3.751005
3.648989
3.65
3.751011
3.750001
3.77551
3.650036
3.750053
3.848996
3.975031
3.951005
3.84899
3.85
3.951011
3.950001
3.975531
3.850251
3.950558
4.048996
4.175031
4.151005
4.048989
4.05
4.15101
4.150001
4.176915
4.175888
4.026108
4.150656
4.174018
4.248996
4.248989
4.249999
0.2341575
0.3788454
0.3493542
0.233736
0.3790024
0.3496486
3.23324
3.351854
3.228238
3.233308
3.35201
4.151232
4.174291
4.026532
4.151334
4.174279
0.2337301
0.3790171
0.3496669
0.2337034
0.3790385
0.3496223
3.233297
3.352106
3.228396
3.233327
3.352155
4.151342
4.17428
4.026556
4.151321
4.174208
0.233701
0.3790399
0.3495875
0.2336929
0.3790326
0.3495623
3.23332
3.352179
3.228436
3.23333
3.352191
4.151309
4.174211
4.026554
4.151295
4.174187
0.2336952
0.3790254
0.3495501
0.2336932
0.3790313
0.3495488
3.233327
3.352197
3.228442
3.23333
3.352201
4.151287
4.174189
4.026537
4.151276
4.174181
0.2336946
0.3790352
0.3495564
0.2336953
0.3790298
0.3495579
3.23333
3.352203
3.22843
3.233327
3.352204
4.151263
4.174181
4.026512
4.151252
4.174184
0.2336982
0.3790196
0.3495606
0.2336987
0.3789929
0.3495524
3.23333
3.352201
3.228387
3.233319
3.352191
4.151244
4.174181
4.026484
4.151251
4.174204
0.2336963
0.3789963
0.3495663
0.2337022
0.3789847
0.3496046
3.233326
3.352165
3.228247
3.233296
3.352112
4.151264
4.174202
4.02649
4.151294
4.174279
0.233704
0.3789799
0.3495914
0.2337456
0.3771574
0.3494878
3.233307
3.352007
3.227678
3.233207
3.351841
4.151305
4.174284
4.0263
4.151228
4.174343
0.2337233
0.3775822
0.3490431
0.230619
0.3511582
0.2568369
0.3500891
0.3495
0.2325287
0.351251
0.3529297
0.2563397
0.3491743
0.3484583
0.2306323
0.3539177
0.352974
0.2562296
0.3481553
0.3486356
0.2295189
0.351561
0.3520154
0.2559792
0.3483193
0.3478916
0.3516673
0.3520286
0.2574433
0.3483606
0.3488328
0.2302077
0.3526664
0.3516723
0.2337761
0.3493439
0.3492089
0.3508922
0.3508668
0.4494236
0.5754583
0.5497414
0.4512559
0.5513825
0.6498778
0.7756094
0.7498206
0.6490571
0.7743383
0.750749
0.8500427
0.9753974
0.9499946
0.825657
0.8491807
0.9510536
1.049983
1.176858
1.149887
1.048999
1.150875
1.649976
1.751258
1.74993
1.648999
1.750974
1.849916
1.948245
1.950134
1.84895
1.951054
2.049936
2.174949
2.150027
2.049028
2.151055
2.250032
2.376731
2.349914
2.249019
2.350918
2.450145
2.552814
2.549987
2.449017
2.550985
2.649977
2.751486
2.750003
2.648997
2.750954
3.233214
3.351563
3.223732
3.230263
3.376936
3.750178
3.651168
3.748846
3.95056
3.847341
3.975071
4.150676
4.174097
4.0244
4.17692
4.17591
0.2660373
0.2683267
0.2654302
0.2666263
0.2655017
0.2666957
0.2653612
0.2670613
0.2653838
0.2671056
0.2653489
0.2670819
0.2653634
0.2671092
0.2653459
0.2670795
0.2653587
0.2671079
0.2653452
0.267079
0.2653574
0.2671078
0.265345
0.2670789
0.2653571
0.2671077
0.265345
0.2670788
0.2653571
0.2671077
0.265345
0.2670789
0.2653571
0.2671077
0.265345
0.2670789
0.2653571
0.2671077
0.2653452
0.2670789
0.2653572
0.2671078
0.4745932
0.4242033
0.4751873
0.4261824
0.4240792
0.4761093
0.4755349
0.674966
0.6242602
0.6750351
0.624797
0.6248829
0.6759252
0.6754567
0.8750038
0.8243029
0.8750014
0.824336
0.8249696
0.8755084
0.8754854
1.075011
1.024315
1.075002
1.024306
1.024985
1.0755
1.075492
1.275012
1.224318
1.275002
1.224307
1.224989
1.2755
1.275493
1.475013
1.424318
1.475002
1.424307
1.42499
1.4755
1.475493
1.675013
1.624318
1.675002
1.624307
1.62499
1.6755
1.675493
1.875013
1.824318
1.875002
1.824307
1.82499
1.8755
1.875493
2.075013
2.024318
2.075002
2.024307
2.02499
2.0755
2.075493
2.275013
2.224318
2.275002
2.224307
2.22499
2.2755
2.275493
2.475013
2.424318
2.475002
2.424307
2.42499
2.4755
2.475493
2.675013
2.624318
2.675002
2.624307
2.62499
2.6755
2.675493
2.875013
2.824318
2.875002
2.824307
2.82499
2.8755
2.875493
3.075013
3.024318
3.075002
3.024307
3.02499
3.0755
3.075493
3.04581
3.149814
3.152028
3.051788
3.052833
3.152398
3.154567
3.275013
3.224318
3.275002
3.224307
3.22499
3.2755
3.275493
3.475013
3.424318
3.475002
3.424307
3.42499
3.4755
3.475493
3.675013
3.624318
3.675002
3.624307
3.62499
3.6755
3.675493
3.875013
3.824318
3.875002
3.824307
3.82499
3.8755
3.875493
4.075013
4.024318
4.075002
4.024307
4.02499
4.0755
4.075493
4.275013
4.224318
4.275002
4.224307
4.22499
4.2755
4.275493
0.2675365
0.2674827
3.053242
3.152946
3.154805
3.053113
3.053728
3.153439
3.155086
3.950821
3.850512
3.950916
0.2675646
0.2675647
3.053879
3.153649
3.155217
3.05362
3.054093
3.153785
3.155307
3.9509
3.850417
3.950892
0.2675971
0.2675961
3.05411
3.153836
3.155341
3.053758
3.054195
3.153881
3.15537
3.950883
3.850398
3.95088
0.2675528
0.2675664
3.054189
3.153893
3.155378
3.053781
3.054213
3.153905
3.155385
3.950871
3.850432
3.950859
0.2675954
0.2675742
3.054212
3.153905
3.155385
3.053743
3.054189
3.153893
3.155378
3.950965
3.85076
3.848348
3.951176
0.2675366
0.2675709
3.054191
3.153881
3.155369
3.053621
3.054104
3.153834
3.155338
3.848248
3.951211
3.851106
3.848451
3.95119
0.2675754
0.267549
3.05408
3.15378
3.155301
3.053283
3.053854
3.153636
3.155205
3.848474
3.951201
3.851073
3.848361
3.951234
0.267588
0.2676115
3.053666
3.153411
3.155058
3.052379
3.053106
3.15289
3.154723
3.848569
3.951226
3.850562
3.950936
0.2675108
0.2675034
0.255997
0.3482654
0.3481206
0.2306573
0.230645
0.3540237
0.3539596
0.2554604
0.347263
0.3466822
0.3516971
0.3504939
0.2554401
0.3464829
0.3465542
0.3501757
0.3501695
0.2567928
0.3468889
0.3476709
0.350439
0.3513889
1.250103
1.352825
1.34998
1.248996
1.350984
1.449974
1.551431
1.549997
1.449001
1.550989
2.84998
2.951196
2.949986
2.848894
2.975592
2.950923
3.050012
3.150724
3.150019
3.024408
3.049076
3.151105
3.052579
3.152303
3.154337
3.04483
3.045522
3.149716
3.151684
3.249993
3.351017
3.350006
3.249042
3.350997
3.449993
3.551076
3.550004
3.449002
3.55096
3.550037
3.450709
3.552676
3.649979
3.751111
3.749973
3.648915
3.775838
3.750993
3.849884
3.950787
3.950084
3.849042
3.951066
4.050068
4.151286
4.150013
4.048995
4.150896
4.249977
4.224787
4.248896
0.2656194
0.2668517
0.2655507
0.2661437
0.3209318
0.3748759
0.376385
0.3239793
0.3731968
0.323367
0.266802
0.2672896
0.2654056
0.2670453
0.2653935
0.2668444
0.2653573
0.2670825
0.2653651
0.2671076
0.265348
0.2670796
0.265359
0.2671089
0.2653458
0.267079
0.2653576
0.267108
0.2653452
0.2670789
0.2653572
0.2671077
0.265345
0.2670789
0.2653571
0.2671077
0.265345
0.2670789
0.2653571
0.2671077
0.265345
0.2670789
0.2653571
0.2671077
0.265345
0.2670789
0.2653571
0.2671077
0.2653452
0.267079
0.2653574
0.2671078
0.5247193
0.5250268
0.5756079
0.5760513
0.5249292
0.5748846
0.5245377
0.7249465
0.7250179
0.7756621
0.775752
0.7247633
0.7749902
0.7244815
0.9249784
0.924997
0.9756782
0.9756928
0.924504
0.9750052
0.9245019
1.124985
1.124998
1.175681
1.175693
1.1245
1.175009
1.124506
1.324987
1.324998
1.375682
1.375693
1.3245
1.37501
1.324507
1.524987
1.524998
1.575682
1.575693
1.5245
1.57501
1.524507
1.724987
1.724998
1.775682
1.775693
1.7245
1.77501
1.724507
1.924987
1.924998
1.975682
1.975693
1.9245
1.97501
1.924507
2.124987
2.124998
2.175682
2.175693
2.1245
2.17501
2.124507
2.324987
2.324998
2.375682
2.375693
2.3245
2.37501
2.324507
2.524987
2.524998
2.575682
2.575693
2.5245
2.57501
2.524507
2.724987
2.724998
2.775682
2.775693
2.7245
2.77501
2.724507
2.924987
2.924998
2.975682
2.975693
2.9245
2.97501
2.924507
3.124987
3.124998
3.175682
3.175693
3.1245
3.17501
3.124507
3.324987
3.324998
3.375682
3.375693
3.3245
3.37501
3.324507
3.290323
3.226506
3.233511
3.229259
3.290024
3.327048
3.387859
3.375607
3.313265
3.290324
3.233291
3.22939
3.229207
3.290364
3.524987
3.524998
3.575682
3.575693
3.5245