/*--------------------------------*- C++ -*----------------------------------*\
  =========                 |
  \\      /  F ield         | OpenFOAM: The Open Source CFD Toolbox
   \\    /   O peration     | Website:  https://openfoam.org
    \\  /    A nd           | Version:  7
     \\/     M anipulation  |
\*---------------------------------------------------------------------------*/
FoamFile
{
    version     2.0;
    format      ascii;
    class       volScalarField;
    location    "0.1";
    object      Cz;
}
// * * * * * * * * * * * * * * * * * * * * * * * * * * * * * * * * * * * * * //

dimensions      [0 1 0 0 0 0 0];

internalField   nonuniform List<scalar> 
73374
(
0.02105057
0.09738021
0.09549868
0.09488174
0.09473612
0.09469559
0.09468127
0.09467644
0.09467664
0.09468097
0.09469061
0.02083329
0.0948962
0.09147514
0.09041612
0.09013633
0.09005409
0.09002491
0.09001501
0.09001495
0.09002267
0.09003828
0.02086492
0.09412068
0.09025999
0.08894643
0.08858067
0.08846657
0.08842457
0.08840974
0.08840885
0.08841882
0.08843908
0.02086674
0.09392961
0.08993226
0.08853212
0.08812077
0.08798568
0.0879338
0.08791477
0.08791262
0.08792339
0.08794622
0.02086784
0.09387283
0.08983229
0.08839952
0.08796679
0.08781938
0.08776092
0.08773882
0.08773531
0.08774571
0.08776917
0.02086806
0.09385202
0.08979533
0.08834874
0.08790571
0.08775178
0.08768966
0.08766569
0.08766121
0.08767101
0.08769401
0.02086801
0.09384391
0.08978065
0.08832817
0.08788048
0.08772355
0.08766006
0.08763586
0.08763157
0.08764158
0.0876644
0.02086794
0.09384068
0.0897747
0.08831989
0.08787067
0.08771323
0.08765035
0.08762801
0.0876265
0.08763903
0.08766371
0.0208679
0.09383952
0.08977261
0.08831727
0.0878683
0.0877126
0.08765331
0.08763712
0.08764433
0.087666
0.08769771
0.02086789
0.09383934
0.08977255
0.0883179
0.08787079
0.08771961
0.0876694
0.08766948
0.08770125
0.08775098
0.08780469
0.02086788
0.09383965
0.08977363
0.08832073
0.0878777
0.08773546
0.08770929
0.08776219
0.08787613
0.0880177
0.08814541
0.02086788
0.09384051
0.08977582
0.0883257
0.087889
0.08776251
0.08778846
0.08804841
0.088485
0.08890883
0.08931307
0.02086787
0.09384171
0.08977894
0.08833254
0.08790449
0.08780136
0.08790631
0.0884837
0.09052286
0.09105075
0.09297006
0.02086786
0.09384375
0.08978358
0.0883415
0.08792284
0.08784544
0.08803423
0.0888727
0.0909691
0.04124276
0.04261035
0.02086786
0.09384721
0.08979054
0.08835314
0.08794263
0.08788451
0.08813525
0.08920862
0.09265431
0.04246485
0.02075579
0.02086786
0.09385311
0.08980128
0.0883689
0.08796442
0.08791624
0.08819683
0.08939355
0.09285584
0.04279704
0.02137068
0.02086787
0.09386231
0.08981591
0.08838865
0.08798849
0.08794436
0.08823308
0.08944023
0.09287629
0.04279229
0.02137411
0.02086795
0.09387422
0.08983168
0.08840832
0.0880104
0.08796577
0.08824905
0.08945621
0.09296451
0.04282789
0.02137729
0.0208683
0.09388533
0.08984221
0.08841936
0.08801952
0.08796674
0.08821971
0.0892999
0.09277438
0.04277042
0.0213772
0.02086914
0.04197332
0.04488544
0.2508061
0.2516826
0.2521353
0.2521588
0.2521531
0.2521515
0.2521512
0.2521511
0.2521517
0.2521533
0.2485866
0.2939906
0.2915759
0.2906485
0.2903187
0.2901943
0.2901455
0.2901287
0.2901292
0.2901452
0.290179
0.2970729
0.2904842
0.2859489
0.2840034
0.2833001
0.2830348
0.2829304
0.2828937
0.2828935
0.2829231
0.282983
0.2974355
0.2891706
0.2836277
0.2810248
0.2800235
0.2796295
0.2794704
0.2794125
0.2794091
0.2794487
0.2795298
0.2974615
0.2887154
0.2827885
0.2798828
0.2787064
0.2782229
0.2780213
0.2779449
0.2779363
0.2779798
0.2780729
0.2974119
0.2885442
0.2824684
0.2794296
0.2781622
0.2776251
0.2773953
0.2773051
0.2772907
0.2773331
0.2774291
0.2973878
0.2884761
0.2823385
0.2792409
0.2779292
0.2773635
0.2771175
0.2770193
0.2770007
0.2770403
0.2771346
0.2973795
0.2884486
0.2822843
0.2791607
0.2778288
0.2772502
0.2769979
0.2768979
0.2768798
0.27692
0.2770133
0.2973764
0.2884374
0.2822619
0.2791279
0.2777887
0.2772074
0.276958
0.2768656
0.2768583
0.276909
0.2770088
0.2973756
0.2884334
0.2822541
0.2791177
0.2777795
0.2772049
0.27697
0.2769017
0.2769269
0.2770118
0.2771376
0.2973755
0.2884328
0.282254
0.2791204
0.2777903
0.2772337
0.2770331
0.2770238
0.2771336
0.2773124
0.2775124
0.2973758
0.2884343
0.2822587
0.2791327
0.2778187
0.2772964
0.2771669
0.2772932
0.277622
0.2780605
0.2784653
0.2973762
0.2884374
0.2822675
0.2791531
0.2778643
0.2773992
0.277402
0.2778271
0.2787244
0.2798953
0.2808665
0.2973771
0.2884423
0.2822805
0.2791815
0.2779259
0.2775402
0.2777491
0.2787233
0.2809239
0.2840426
0.2865891
0.2973785
0.2884498
0.2822989
0.279218
0.2779983
0.2776977
0.2781376
0.2797722
0.2837686
0.2895366
0.2412269
0.2973812
0.2884621
0.2823264
0.2792655
0.2780773
0.2778425
0.2784461
0.2805145
0.2857141
0.2401923
0.2214878
0.297386
0.2884825
0.2823673
0.2793284
0.2781648
0.2779658
0.2786351
0.2808157
0.2858856
0.2928528
0.2481396
0.2973937
0.2885119
0.282422
0.2794061
0.278261
0.2780767
0.2787607
0.2809489
0.2859318
0.2925033
0.2474369
0.2974046
0.2885461
0.2824788
0.2794818
0.2783464
0.278161
0.2788364
0.2810416
0.2862291
0.2934334
0.2482862
0.2974159
0.288572
0.282514
0.2795225
0.2783811
0.2781671
0.2787727
0.2808455
0.28609
0.2410861
0.2228598
0.24384
0.4503652
0.5008096
0.5016736
0.5018099
0.501787
0.5017694
0.5017633
0.5017635
0.501769
0.5017811
0.4496979
0.497823
0.4964243
0.4956727
0.4953238
0.495164
0.4950941
0.4950683
0.4950695
0.4950943
0.4951449
0.4988455
0.4956258
0.492619
0.4907714
0.4899121
0.4895366
0.4893758
0.4893162
0.4893161
0.4893658
0.4894655
0.4985956
0.4943769
0.4903251
0.4875734
0.486207
0.4856019
0.48534
0.4852408
0.4852349
0.4853041
0.4854462
0.4985377
0.4938294
0.4892643
0.4859967
0.4842743
0.4834873
0.4831395
0.4830035
0.4829873
0.4830646
0.4832313
0.4984685
0.4935943
0.4887999
0.4852919
0.4833832
0.4824841
0.4820781
0.4819143
0.4818862
0.4819614
0.4821344
0.4984357
0.4934942
0.4885965
0.4849775
0.4829779
0.4820197
0.4815809
0.4814004
0.4813636
0.4814329
0.4816014
0.4984234
0.4934519
0.4885078
0.4848388
0.4827978
0.4818128
0.4813607
0.4811762
0.4811397
0.4812085
0.4813735
0.498419
0.4934343
0.4884704
0.484781
0.4827247
0.4817339
0.4812861
0.4811148
0.481097
0.4811835
0.4813588
0.4984174
0.4934279
0.4884574
0.484763
0.4827081
0.4817289
0.481307
0.4811784
0.4812171
0.481362
0.4815808
0.4984173
0.4934272
0.4884575
0.4847685
0.4827286
0.4817813
0.4814196
0.4813897
0.4815658
0.4818608
0.4821975
0.4984178
0.4934301
0.4884665
0.4847915
0.4827808
0.4818935
0.4816481
0.4818247
0.4823145
0.4829724
0.4835965
0.4984187
0.4934357
0.4884827
0.4848294
0.4828636
0.4820714
0.4820254
0.4825941
0.4837512
0.4852504
0.4865377
0.4984202
0.493444
0.4885061
0.4848812
0.4829733
0.4823083
0.4825487
0.4837402
0.4860563
0.4890948
0.4917154
0.4984226
0.4934565
0.4885384
0.4849471
0.4831016
0.4825704
0.48312
0.4850267
0.4887181
0.493588
0.4456063
0.4984268
0.4934763
0.4885853
0.4850314
0.483242
0.4828144
0.4835851
0.4859731
0.4906887
0.4446371
0.4235585
0.4984341
0.4935075
0.4886538
0.4851416
0.4833972
0.4830277
0.4838877
0.4863933
0.490993
0.4963681
0.4493574
0.4984448
0.4935504
0.4887429
0.485275
0.4835653
0.4832206
0.4840978
0.4865985
0.4910962
0.496274
0.4492424
0.4984568
0.4935959
0.4888319
0.4854007
0.4837107
0.4833639
0.4842244
0.4867388
0.4913779
0.4967215
0.4494639
0.4984652
0.4936246
0.4888828
0.485463
0.4837633
0.483371
0.4841307
0.4864844
0.4911961
0.4456047
0.4243088
0.4474256
0.6500029
0.7001266
0.7003585
0.7004607
0.7004429
0.7004259
0.700419
0.7004191
0.7004251
0.7004366
0.6499316
0.6991606
0.6984377
0.6979747
0.6977228
0.697595
0.6975344
0.6975103
0.6975104
0.6975325
0.6975783
0.6994319
0.6981747
0.6966613
0.6955305
0.6948955
0.6945877
0.6944466
0.6943914
0.69439
0.6944361
0.6945314
0.6991434
0.6974638
0.6952562
0.6934141
0.6923003
0.6917583
0.6915146
0.691419
0.6914116
0.6914781
0.6916193
0.699022
0.697084
0.694456
0.692114
0.6905918
0.689819
0.6894739
0.689336
0.6893163
0.6893907
0.6895589
0.6989682
0.6969008
0.6940647
0.6914693
0.689708
0.6887757
0.6883566
0.6881847
0.6881498
0.6882194
0.6883915
0.6989442
0.6968173
0.6938821
0.691169
0.6892979
0.6882894
0.6878299
0.6876372
0.6875901
0.6876492
0.687811
0.6989348
0.6967804
0.6937995
0.6910327
0.6891123
0.6880702
0.6875938
0.6873951
0.6873456
0.6874003
0.6875525
0.6989312
0.6967645
0.6937635
0.6909745
0.689036
0.6879857
0.6875127
0.6873266
0.6872953
0.6873658
0.6875245
0.69893
0.6967583
0.6937504
0.6909563
0.6890185
0.6879796
0.6875334
0.6873915
0.6874184
0.6875484
0.68775
0.6989297
0.6967577
0.6937508
0.6909625
0.6890404
0.6880348
0.6876503
0.6876098
0.6877789
0.6880627
0.688382
0.6989303
0.6967615
0.6937615
0.6909874
0.6890958
0.6881519
0.6878855
0.6880544
0.6885499
0.6892038
0.6897968
0.6989318
0.6967689
0.6937803
0.6910285
0.6891834
0.6883359
0.6882682
0.6888302
0.6899177
0.6912207
0.6922863
0.6989339
0.696779
0.6938061
0.6910835
0.6892979
0.688578
0.6887939
0.6899037
0.6917881
0.6939433
0.6956562
0.6989362
0.6967918
0.6938395
0.6911516
0.6894301
0.6888425
0.6893564
0.6910097
0.6936706
0.6966575
0.6477727
0.6989395
0.6968104
0.6938856
0.6912365
0.6895727
0.6890858
0.6898022
0.6918002
0.6949811
0.6472243
0.6243059
0.698946
0.6968392
0.6939508
0.6913445
0.6897271
0.6892954
0.6900833
0.6921628
0.6952525
0.6982603
0.6497126
0.6989559
0.696878
0.6940328
0.6914707
0.6898889
0.68948
0.6902757
0.692341
0.6953498
0.6982364
0.6496637
0.6989661
0.6969162
0.6941097
0.6915821
0.6900189
0.6896073
0.6903874
0.6924475
0.6955191
0.6984655
0.649773
0.6989726
0.696937
0.6941457
0.6916242
0.6900476
0.6895907
0.6902793
0.6922194
0.6953662
0.6479002
0.6246991
0.648835
0.8499874
0.8999345
0.8999268
0.8999236
0.8999158
0.8999053
0.8998984
0.8998977
0.8999017
0.89991
0.8499829
0.8997675
0.8995591
0.8994246
0.8993475
0.8993042
0.8992775
0.8992621
0.8992582
0.8992668
0.8992919
0.8998338
0.8994685
0.8990275
0.8986936
0.8984939
0.8983893
0.8983352
0.8983088
0.8983031
0.8983211
0.8983699
0.8997296
0.899221
0.8985482
0.8979654
0.8975813
0.8973823
0.8972889
0.8972479
0.8972398
0.8972652
0.8973336
0.8996778
0.8990724
0.8982394
0.8974499
0.8968768
0.8965653
0.8964256
0.8963656
0.8963498
0.8963734
0.8964472
0.8996537
0.8989967
0.8980764
0.89717
0.8964731
0.8960776
0.8959007
0.8958225
0.8957942
0.895805
0.895867
0.8996433
0.8989624
0.8979986
0.8970358
0.8962812
0.8958451
0.8956464
0.8955552
0.8955142
0.8955079
0.8955476
0.8996399
0.8989478
0.8979628
0.8969733
0.896193
0.8957386
0.89553
0.8954327
0.8953844
0.8953652
0.8953843
0.8996392
0.8989399
0.8979448
0.8969446
0.8961552
0.8956958
0.8954876
0.8953945
0.8953511
0.8953328
0.895344
0.8996386
0.8989348
0.8979361
0.8969341
0.8961454
0.8956913
0.895495
0.8954221
0.8954053
0.8954139
0.8954419
0.8996385
0.898934
0.8979364
0.8969376
0.896156
0.8957171
0.8955492
0.8955239
0.8955764
0.895661
0.8957481
0.89964
0.8989401
0.8979468
0.8969537
0.896185
0.8957733
0.8956592
0.895732
0.8959435
0.8962109
0.8964311
0.8996431
0.8989517
0.8979657
0.8969807
0.8962306
0.8958612
0.8958377
0.8960936
0.8965599
0.8970665
0.8974499
0.8996473
0.8989645
0.8979877
0.8970143
0.8962889
0.895976
0.8960808
0.896571
0.8973048
0.8980433
0.8986087
0.8996486
0.8989743
0.8980095
0.8970516
0.8963537
0.8960991
0.8963365
0.8970231
0.8979738
0.8989473
0.8491136
0.8996484
0.8989838
0.8980342
0.8970942
0.896421
0.8962088
0.8965319
0.8973304
0.8984256
0.8488995
0.824714
0.8996522
0.8989992
0.8980664
0.897144
0.8964883
0.8962956
0.8966442
0.8974682
0.8985247
0.8994852
0.8499015
0.8996606
0.8990203
0.898103
0.8971937
0.8965465
0.8963568
0.8967038
0.8975192
0.8985418
0.8994472
0.8499159
0.899669
0.8990379
0.8981277
0.8972201
0.8965692
0.8963709
0.8967111
0.8975261
0.8985759
0.8995002
0.8499578
0.8996741
0.8990423
0.8981224
0.8971979
0.8965254
0.8963001
0.8966049
0.8973941
0.8985046
0.8491825
0.8248775
0.8495645
1.050002
1.100131
1.100208
1.100246
1.100255
1.100232
1.100191
1.100165
1.100167
1.100178
1.05
1.10021
1.100475
1.100689
1.100817
1.100874
1.100882
1.100868
1.10085
1.100834
1.100832
1.100055
1.100409
1.100909
1.101358
1.101646
1.10179
1.101844
1.10185
1.101833
1.101808
1.101793
1.100062
1.100537
1.101244
1.101951
1.10245
1.102713
1.102826
1.10286
1.102849
1.102815
1.102779
1.100075
1.100611
1.101447
1.102345
1.103038
1.103428
1.103599
1.103656
1.103647
1.103597
1.103531
1.100088
1.100657
1.101558
1.102552
1.103358
1.103832
1.104042
1.104112
1.104099
1.104027
1.103926
1.100092
1.100691
1.101619
1.10265
1.103501
1.104009
1.104236
1.10431
1.104286
1.10419
1.104053
1.100096
1.10071
1.101649
1.102694
1.103561
1.104082
1.104314
1.104384
1.104348
1.10423
1.10406
1.100103
1.10071
1.101654
1.102708
1.103582
1.104106
1.104335
1.104397
1.104346
1.104208
1.104012
1.100108
1.100697
1.101646
1.102707
1.103584
1.104104
1.104323
1.104367
1.104293
1.104129
1.10391
1.100111
1.100693
1.101644
1.102705
1.103577
1.104084
1.104278
1.104283
1.104156
1.10394
1.103686
1.100111
1.100707
1.101658
1.10271
1.103565
1.104043
1.104189
1.104108
1.103847
1.103488
1.10315
1.100125
1.100738
1.101684
1.102718
1.103546
1.103979
1.104038
1.103789
1.103299
1.102745
1.102298
1.100161
1.100768
1.101708
1.102723
1.103517
1.103891
1.103826
1.103353
1.102619
1.101868
1.101285
1.100187
1.100777
1.101716
1.102717
1.10348
1.103794
1.103598
1.102937
1.101998
1.101032
1.050218
1.100185
1.100772
1.101711
1.1027
1.103437
1.103703
1.103421
1.10265
1.101575
1.050299
1.025027
1.100186
1.100771
1.101701
1.10267
1.103379
1.103616
1.103303
1.102505
1.101462
1.100539
1.050042
1.100202
1.100776
1.101682
1.102618
1.103293
1.103506
1.103186
1.102392
1.101352
1.100343
1.050088
1.100216
1.100775
1.101645
1.102535
1.103171
1.103364
1.103047
1.102276
1.10125
1.100174
1.049854
1.100227
1.100768
1.101595
1.102435
1.103037
1.103229
1.102955
1.102259
1.101285
1.050161
1.025003
1.100241
1.050119
1.250022
1.30046
1.300673
1.300766
1.300782
1.300697
1.30039
1.300088
1.300021
1.300026
1.250016
1.300801
1.301704
1.302337
1.302675
1.302819
1.302832
1.302788
1.302728
1.302657
1.302623
1.29988
1.301542
1.303256
1.304598
1.305356
1.305709
1.305837
1.305854
1.305815
1.305743
1.305676
1.299666
1.302021
1.304426
1.306498
1.307762
1.308375
1.308634
1.308716
1.308699
1.308617
1.308504
1.299721
1.302285
1.305089
1.307651
1.309329
1.310185
1.31056
1.310694
1.310689
1.310588
1.310425
1.299906
1.302451
1.305432
1.308223
1.310131
1.311146
1.311597
1.311763
1.311759
1.311634
1.311426
1.299989
1.302579
1.305619
1.308496
1.310498
1.311583
1.312072
1.312249
1.312239
1.31209
1.311842
1.300066
1.302651
1.305709
1.30862
1.31066
1.311774
1.312275
1.312451
1.312426
1.312251
1.311967
1.300033
1.302639
1.305724
1.308662
1.310722
1.311843
1.312339
1.312498
1.312447
1.312239
1.311918
1.299974
1.302579
1.305701
1.308664
1.310731
1.311844
1.312314
1.312431
1.312324
1.312057
1.311686
1.299959
1.302551
1.305689
1.308657
1.310712
1.311793
1.312205
1.312228
1.311992
1.31159
1.31112
1.299976
1.302597
1.305716
1.308656
1.310672
1.31169
1.311987
1.311811
1.31127
1.310531
1.309828
1.300093
1.302701
1.305773
1.308658
1.310611
1.311527
1.311629
1.311072
1.309963
1.308614
1.307487
1.300447
1.302797
1.305821
1.308648
1.310526
1.311309
1.311131
1.310038
1.308152
1.305983
1.304253
1.300698
1.302818
1.305826
1.308613
1.310421
1.311069
1.310597
1.30897
1.30632
1.303333
1.251396
1.30068
1.302789
1.305796
1.308553
1.310302
1.310848
1.310176
1.308214
1.30505
1.251792
1.225354
1.30068
1.302776
1.305755
1.308468
1.310162
1.310645
1.309903
1.307872
1.30481
1.301792
1.250195
1.300738
1.302789
1.305704
1.308348
1.309981
1.310424
1.309673
1.307671
1.304704
1.30179
1.250286
1.300785
1.302792
1.30563
1.308193
1.309767
1.310185
1.30944
1.307453
1.304452
1.301525
1.25021
1.300821
1.302794
1.305558
1.308046
1.30958
1.310013
1.309353
1.3075
1.304472
1.251236
1.225098
1.300878
1.302824
1.30553
1.307977
1.250715
1.450112
1.500846
1.500938
1.500958
1.500936
1.500684
1.500077
1.49846
1.499599
1.498722
1.449801
1.502103
1.504124
1.505215
1.505709
1.505901
1.505856
1.505736
1.505589
1.505298
1.505191
1.499266
1.503585
1.507275
1.509472
1.510482
1.510904
1.511032
1.511031
1.510974
1.51087
1.510781
1.498416
1.504374
1.509204
1.512341
1.513878
1.514549
1.514819
1.5149
1.514882
1.514795
1.514673
1.498351
1.504729
1.510104
1.513764
1.515663
1.516526
1.516898
1.51703
1.517026
1.516927
1.516763
1.499319
1.504994
1.510538
1.514408
1.516485
1.517461
1.517894
1.518053
1.518053
1.517937
1.517737
1.498256
1.505374
1.51078
1.514707
1.516859
1.517889
1.518353
1.518523
1.518519
1.518385
1.518154
1.499596
1.505551
1.510898
1.514842
1.517024
1.518077
1.518551
1.51872
1.518705
1.51855
1.51829
1.498409
1.505464
1.510902
1.514885
1.517087
1.518146
1.518614
1.518768
1.518728
1.518542
1.518251
1.499435
1.505153
1.510847
1.514884
1.517096
1.518146
1.518591
1.518703
1.518608
1.518364
1.518023
1.498543
1.505055
1.51082
1.514874
1.517077
1.518097
1.518483
1.518502
1.518277
1.517896
1.517449
1.499404
1.505179
1.510868
1.514876
1.517038
1.517995
1.518267
1.518086
1.517563
1.516841
1.516133
1.498466
1.505577
1.510972
1.514883
1.516977
1.517832
1.517907
1.517343
1.51617
1.514635
1.513301
1.500325
1.505852
1.51106
1.514877
1.516891
1.517614
1.517405
1.516228
1.513913
1.510864
1.508234
1.500747
1.505895
1.51107
1.51484
1.516785
1.517372
1.51686
1.514981
1.511306
1.506429
1.453045
1.500602
1.505806
1.511022
1.514773
1.516664
1.51715
1.516426
1.514091
1.509412
1.453836
1.425817
1.500605
1.505788
1.510975
1.514684
1.516525
1.51695
1.51615
1.513741
1.509239
1.503798
1.45046
1.50083
1.505855
1.510933
1.514566
1.51635
1.516739
1.515926
1.513566
1.509247
1.504073
1.450637
1.500983
1.50589
1.510869
1.514418
1.516148
1.516515
1.515704
1.513316
1.508836
1.50353
1.450498
1.501052
1.505934
1.510814
1.514286
1.515982
1.516366
1.515635
1.513365
1.508748
1.452917
1.425305
1.501223
1.50605
1.510819
1.514238
1.51594
1.516408
1.451668
1.650429
1.702036
1.701165
1.701143
1.701384
1.700455
1.699623
1.698987
1.646059
1.644488
1.649509
1.705917
1.709156
1.710178
1.710615
1.710837
1.710677
1.710489
1.710495
1.710374
1.710235
1.647535
1.708506
1.713961
1.716172
1.716976
1.717282
1.717351
1.717339
1.717328
1.717276
1.717216
1.644306
1.709473
1.715996
1.718917
1.720031
1.720463
1.720624
1.720671
1.720666
1.720619
1.720549
1.644043
1.709766
1.716724
1.719962
1.721257
1.721785
1.721999
1.722074
1.722073
1.72202
1.721929
1.644449
1.709981
1.71703
1.720381
1.721764
1.722346
1.722591
1.72268
1.722681
1.722619
1.722509
1.69839
1.710211
1.717178
1.720562
1.721981
1.72259
1.722851
1.722945
1.722945
1.722873
1.722748
1.699508
1.71032
1.717237
1.72064
1.722074
1.722695
1.722961
1.723054
1.723047
1.722965
1.722826
1.699145
1.710275
1.717247
1.720667
1.72211
1.722733
1.722996
1.723081
1.72306
1.722962
1.722805
1.645543
1.710086
1.717222
1.720668
1.722116
1.722734
1.722983
1.723044
1.722991
1.722858
1.722673
1.644229
1.70999
1.717205
1.720662
1.722106
1.722707
1.722922
1.722927
1.722794
1.722572
1.722317
1.64448
1.710123
1.717247
1.720665
1.722084
1.722649
1.722794
1.722666
1.722321
1.721851
1.721404
1.698762
1.710444
1.717322
1.720672
1.72205
1.722553
1.722567
1.722145
1.72124
1.720052
1.71906
1.700738
1.710767
1.717386
1.72067
1.722
1.722421
1.722231
1.721267
1.719069
1.715949
1.713409
1.700974
1.710786
1.717388
1.720647
1.721939
1.722275
1.72186
1.72025
1.716276
1.710512
1.656173
1.700057
1.710567
1.717338
1.720606
1.721871
1.722144
1.721579
1.719576
1.714475
1.65741
1.626757
1.700046
1.710546
1.717306
1.720555
1.721794
1.722034
1.721424
1.719393
1.71465
1.707854
1.65115
1.70096
1.710708
1.717292
1.72049
1.721698
1.721919
1.721305
1.719329
1.714871
1.708545
1.651503
1.70133
1.710716
1.717255
1.72041
1.721588
1.721795
1.721172
1.719128
1.7143
1.707425
1.651471
1.701127
1.710817
1.717241
1.720339
1.721498
1.721715
1.721134
1.719134
1.713993
1.656365
1.625854
1.701981
1.71108
1.717281
1.72032
1.72148
1.721749
1.721324
1.719751
1.653899
1.853514
1.852331
1.846971
1.847184
1.849018
1.846523
1.844197
1.844791
1.849478
1.823036
1.822612
1.902641
1.904933
1.905623
1.905798
1.905817
1.905731
1.905615
1.905657
1.905591
1.90557
1.821798
1.904606
1.908502
1.909665
1.909979
1.910075
1.910089
1.910081
1.910081
1.910065
1.910046
1.823687
1.905229
1.909592
1.911033
1.911437
1.911563
1.911605
1.911617
1.911617
1.911606
1.91159
1.820705
1.905331
1.909878
1.911415
1.911867
1.912016
1.912072
1.912091
1.912092
1.912079
1.912057
1.848101
1.905397
1.909978
1.911537
1.91201
1.912172
1.912236
1.912258
1.912259
1.912244
1.912218
1.846855
1.905503
1.910026
1.911586
1.912067
1.912235
1.912303
1.912326
1.912326
1.912309
1.912279
1.844234
1.905586
1.910045
1.911607
1.91209
1.912261
1.91233
1.912354
1.912352
1.912332
1.912299
1.847195
1.90565
1.910051
1.911615
1.912099
1.912271
1.912338
1.91236
1.912355
1.912331
1.912294
1.846184
1.905491
1.910037
1.911614
1.912101
1.912271
1.912335
1.912351
1.912337
1.912304
1.912259
1.821528
1.905424
1.910025
1.911612
1.912099
1.912265
1.91232
1.912319
1.912282
1.912223
1.912156
1.848183
1.905454
1.910043
1.911614
1.912094
1.91225
1.912281
1.912229
1.912111
1.911963
1.911825
1.847035
1.905624
1.910075
1.911618
1.912085
1.912224
1.912204
1.911945
1.911508
1.911081
1.910674
1.846477
1.905787
1.9101
1.911618
1.912073
1.912188
1.912089
1.911515
1.909477
1.908954
1.907047
1.84881
1.905792
1.910101
1.911613
1.912057
1.912146
1.911968
1.911144
1.909054
1.86532
1.861695
1.844751
1.905663
1.910081
1.911601
1.91204
1.912111
1.911881
1.910906
1.90753
1.862399
1.829637
1.844228
1.905652
1.910072
1.911588
1.912021
1.912084
1.911828
1.910734
1.90822
1.862623
1.855277
1.846465
1.905773
1.910075
1.911574
1.911998
1.912056
1.911792
1.910607
1.90635
1.904852
1.855979
1.848453
1.905864
1.910069
1.911555
1.911971
1.912025
1.911765
1.910659
1.908077
1.862895
1.85521
1.846247
1.905858
1.91007
1.911539
1.91195
1.912006
1.911769
1.910786
1.907361
1.861751
1.828179
1.849298
1.905952
1.910089
1.911537
1.911947
1.912018
1.911835
1.911013
1.908924
1.863458
1.858681
0.02105702
0.04704335
0.1780169
0.1736917
0.1458647
0.04736217
0.0461631
0.1776273
0.1794127
0.145075
0.1444833
0.04589437
0.04574604
0.1794154
0.1794491
0.1442293
0.1440527
0.04571789
0.04570184
0.1794561
0.1794639
0.1439918
0.143951
0.04569819
0.04569632
0.1794639
0.1794637
0.1439378
0.1439268
0.04569552
0.04569496
0.1794638
0.1794638
0.1439232
0.1439193
0.04569469
0.04569446
0.1794638
0.1794638
0.1439183
0.1439169
0.04569441
0.04569433
0.1794638
0.1794638
0.1439166
0.1439162
0.04569435
0.04569443
0.1794638
0.1794639
0.1439165
0.1439168
0.04569459
0.0456949
0.1794639
0.179464
0.1439176
0.1439192
0.04569539
0.04569629
0.179464
0.1794645
0.1439214
0.1439255
0.0460403
0.02086297
0.04445346
0.1458458
0.1433434
0.1478574
0.1418951
0.04402053
0.02085707
0.04380499
0.1463721
0.140969
0.1488637
0.1404789
0.04375002
0.02086623
0.04372364
0.1492115
0.140315
0.1493566
0.1402256
0.04371489
0.02086775
0.04371062
0.1493545
0.1401958
0.1493562
0.1401712
0.04370852
0.02086806
0.0437073
0.149353
0.1401638
0.1493504
0.1401556
0.04370662
0.02086803
0.04370626
0.1493497
0.1401535
0.1493491
0.1401505
0.04370599
0.02086796
0.04370584
0.1493489
0.14015
0.1493488
0.1401488
0.04370581
0.02086791
0.04370572
0.1493488
0.1401487
0.1493487
0.1401482
0.0437057
0.02086789
0.04370568
0.1493487
0.1401482
0.1493487
0.1401481
0.04370568
0.02086788
0.04370568
0.1493488
0.1401482
0.1493488
0.1401482
0.04370569
0.02086788
0.04370571
0.1493488
0.1401482
0.1493488
0.1401483
0.04370572
0.02086787
0.04370575
0.1493488
0.1401484
0.1493489
0.1401486
0.04370578
0.02086786
0.04370583
0.1493489
0.1401487
0.1493489
0.140149
0.04370588
0.02086786
0.04370596
0.1493489
0.1401492
0.149349
0.1401497
0.04370606
0.02086785
0.04370625
0.1493491
0.1401501
0.1493493
0.1401511
0.02282515
0.02136156
0.1704988
0.1742305
0.1465812
0.04370648
0.02086786
0.04370692
0.1493495
0.140152
0.1493499
0.1401541
0.02137386
0.1464347
0.1461824
0.04370752
0.02086792
0.04370857
0.1493504
0.1401562
0.1493514
0.1401602
0.0213752
0.1461354
0.1461987
0.04371006
0.02086817
0.04371245
0.1493527
0.1401647
0.149355
0.1401717
0.02140147
0.1464827
0.1467816
0.04371569
0.02086895
0.04371946
0.1493581
0.1401798
0.149362
0.1401879
0.02056698
0.02146012
0.1720314
0.1447915
0.1728302
0.04372186
0.1493646
0.1401925
0.226155
0.2234455
0.2484657
0.375569
0.3754099
0.3493803
0.2244325
0.2481156
0.3732875
0.3747711
0.3488574
0.2467807
0.2235411
0.3741711
0.3480655
0.3744509
0.4245036
0.4243955
0.449718
0.5755438
0.5755201
0.5498579
0.4247832
0.4492414
0.5741934
0.5749046
0.5494829
0.4487749
0.4245788
0.5746785
0.5491988
0.57478
0.6244707
0.6244576
0.6499255
0.7755308
0.7755319
0.7499575
0.6248929
0.6496462
0.7746467
0.7749667
0.7497712
0.6494646
0.6248311
0.7748831
0.7496586
0.7749042
0.8244648
0.8244658
0.8499801
0.9755345
0.9755321
0.9499916
0.8249485
0.8498699
0.9749705
0.9750092
0.9499605
0.8498079
0.8249398
0.9750267
0.9499447
0.9749832
1.024467
1.024466
1.050006
1.175534
1.175535
1.150017
1.02499
1.050045
1.175286
1.175051
1.150135
1.050068
1.025016
1.175161
1.150197
1.175058
1.224467
1.22447
1.250039
1.375542
1.375527
1.350068
1.225033
1.250235
1.375702
1.375107
1.350362
1.250336
1.225093
1.375343
1.350522
1.375165
1.424479
1.424454
1.450131
1.575591
1.575496
1.550262
1.425096
1.450533
1.576474
1.575225
1.550791
1.450785
1.425215
1.575756
1.551209
1.575417
1.624569
1.624432
1.650584
1.776463
1.773857
1.751473
1.625242
1.651224
1.778624
1.775642
1.752137
1.651925
1.625546
1.777293
1.753226
1.776464
1.826197
1.822012
1.85407
1.97888
1.95293
1.850669
1.856387
1.857602
1.978691
1.953791
1.955326
1.848743
1.858312
1.85831
1.979139
1.9556
1.9556
1.847621
1.857779
1.857402
1.977491
1.955331
1.955218
1.847253
1.857594
1.858188
1.955267
1.955528
1.850198
1.857609
1.857195
1.978577
1.955408
1.955249
1.822365
1.856639
1.85677
1.95484
1.954729
1.854937
1.821824
1.855592
1.952696
1.954064
1.856163
1.823694
1.856747
1.954429
1.978787
1.954987
1.856803
1.821075
1.856446
1.978788
1.955012
1.954553
1.856205
1.822229
1.856183
1.954369
1.954514
1.856829
1.845254
1.856978
1.954884
1.954988
1.856939
1.849048
1.856867
1.95507
1.955014
1.856531
1.821913
1.856263
1.954837
1.954663
1.856197
1.822464
1.856174
1.954475
1.954649
1.856298
1.845981
1.856407
1.954761
1.9548
1.85674
1.844866
1.857191
1.954874
1.955044
1.825893
1.854173
1.979278
1.977244
1.979194
1.85578
1.953408
1.953318
1.853958
1.954002
1.978907
1.855232
1.827179
1.978749
1.979437
1.978543
0.07250151
0.0234247
0.07186831
0.02274267
0.07192414
0.02262467
0.07178313
0.02251954
0.07179784
0.022457
0.07176908
0.02250113
0.07177289
0.02244982
0.07176705
0.02250076
0.07176938
0.02244953
0.07176661
0.02250074
0.07176858
0.02244942
0.07176647
0.0225007
0.07176838
0.02244939
0.07176643
0.02250068
0.07176832
0.02244938
0.07176644
0.02250068
0.0717683
0.02244937
0.0717665
0.02250068
0.07176835
0.02244938
0.07176676
0.02250071
0.07176853
0.02244942
0.06592944
0.02011837
0.02088238
0.06921432
0.0666103
0.07010835
0.01978096
0.06526836
0.01955054
0.02082007
0.07014242
0.06536285
0.07021049
0.01947764
0.06519163
0.01950844
0.02086059
0.07066034
0.06521173
0.07070236
0.01945755
0.06518271
0.01950601
0.0208626
0.0706907
0.06519342
0.07071229
0.01945625
0.06518155
0.01950578
0.02086342
0.07069157
0.06519079
0.0707133
0.01945611
0.06518126
0.01950568
0.0208635
0.07069194
0.06519016
0.07071361
0.01945603
0.06518113
0.01950561
0.02086343
0.07069198
0.06518996
0.0707136
0.01945597
0.06518107
0.01950557
0.02086337
0.07069191
0.06518987
0.07071354
0.01945594
0.06518103
0.01950556
0.02086333
0.07069186
0.06518982
0.07071349
0.01945594
0.06518102
0.01950556
0.02086332
0.07069183
0.06518981
0.07071347
0.01945593
0.06518102
0.01950555
0.02086332
0.07069182
0.06518981
0.07071346
0.01945593
0.06518103
0.01950555
0.02086331
0.07069181
0.06518981
0.07071346
0.01945593
0.06518104
0.01950555
0.02086331
0.0706918
0.06518982
0.07071345
0.01945593
0.06518106
0.01950556
0.0208633
0.0706918
0.06518984
0.07071344
0.01945593
0.04300822
0.04528042
0.04660388
0.1383506
0.1393688
0.1421832
0.1440836
0.06518112
0.01950556
0.0208633
0.0706918
0.06518989
0.07071345
0.01945594
0.06518127
0.01950559
0.0208633
0.07069181
0.06519
0.07071347
0.01945597
0.06518175
0.01950566
0.02086332
0.07069188
0.06519036
0.07071357
0.01945607
0.06518343
0.01950595
0.02086343
0.07069215
0.06519159
0.07071396
0.0194565
0.06518912
0.01950718
0.02086392
0.0706933
0.0651959
0.07071553
0.01945818
0.06519661
0.01950997
0.02086466
0.07069592
0.06520468
0.07071781
0.0194606
0.274904
0.2248149
0.2424531
0.2446863
0.2464094
0.343871
0.3449831
0.3465964
0.3477668
0.2484251
0.3491632
0.3492395
0.4749881
0.4249782
0.4465336
0.4476808
0.4485137
0.5469566
0.5476359
0.5483994
0.5489912
0.4495523
0.5496607
0.5497197
0.6750034
0.624997
0.6483132
0.6488763
0.6493017
0.7485848
0.7489249
0.7492681
0.7495477
0.649818
0.7498743
0.7498945
0.8749978
0.8250023
0.8493429
0.8495688
0.8497353
0.9497564
0.9498078
0.9498652
0.9499156
0.8499636
0.9500304
0.9500272
1.075001
1.025001
1.050166
1.050126
1.050076
1.150863
1.150633
1.150423
1.150257
1.04996
1.149745
1.149897
1.15006
1.275008
1.225006
1.251055
1.250727
1.250446
1.352216
1.351675
1.351124
1.350697
1.25108
1.250158
1.350295
1.350202
1.350217
1.47501
1.425002
1.452368
1.45161
1.451016
1.554415
1.553498
1.552344
1.551511
1.450088
1.450328
1.550716
1.54913
1.550502
1.675046
1.625025
1.655086
1.653452
1.65229
1.758831
1.757647
1.755388
1.753699
1.649812
1.65091
1.752438
1.751931
1.875932
1.825374
1.848885
1.858754
1.85869
1.978893
1.978863
1.955809
1.955796
1.844745
1.857943
1.857253
1.955458
1.955058
1.844117
1.856923
1.856891
1.954921
1.954912
1.849026
1.857114
1.857512
1.955022
1.955334
1.856266
1.845932
1.856343
1.954725
1.954782
1.856556
1.844183
1.856696
1.954819
1.954847
1.857963
1.848792
1.858635
1.955447
1.978648
1.955796
1.858639
1.846566
1.857979
1.978648
1.955798
1.955453
1.860722
1.857894
1.856053
1.957407
1.957034
1.954758
1.953481
1.857251
1.844232
1.856945
1.955062
1.954925
1.856937
1.84473
1.857213
1.954922
1.955047
1.856042
1.953162
1.954296
1.857862
1.848412
1.858325
1.955394
1.978761
1.955558
1.858025
1.847864
1.857576
1.955526
1.955267
1.857693
1.846986
1.858223
1.955223
1.95552
1.859022
1.978905
1.955892
0.07213569
0.02281029
0.07198215
0.02334608
0.07023325
0.02093237
0.06981865
0.0713776