/*--------------------------------*- C++ -*----------------------------------*\
  =========                 |
  \\      /  F ield         | OpenFOAM: The Open Source CFD Toolbox
   \\    /   O peration     | Website:  https://openfoam.org
    \\  /    A nd           | Version:  7
     \\/     M anipulation  |
\*---------------------------------------------------------------------------*/
FoamFile
{
    version     2.0;
    format      ascii;
    class       volScalarField;
    location    "0.1";
    object      epsilon;
}
// * * * * * * * * * * * * * * * * * * * * * * * * * * * * * * * * * * * * * //

dimensions      [0 2 -3 0 0 0 0];

internalField   nonuniform List<scalar> 
105056
(
0.001883129
0.001935449
0.001940604
0.001941687
0.00194216
0.001935305
0.002035623
0.002046217
0.002047995
0.002048416
0.001940478
0.00204624
0.002058239
0.002060275
0.002060633
0.001941635
0.00204817
0.00206047
0.002062588
0.002062893
0.001942397
0.002049112
0.002061477
0.002063595
0.002063861
0.001943071
0.00204987
0.002062256
0.002064349
0.002064571
0.001943728
0.00205059
0.002062989
0.002065053
0.002065236
0.001944381
0.002051322
0.002063715
0.002065747
0.002065894
0.001945045
0.002052065
0.002064447
0.002066454
0.00206657
0.001945713
0.002052821
0.002065178
0.002067173
0.002067262
0.001946392
0.002053588
0.002065928
0.002067906
0.002067971
0.001947078
0.002054361
0.002066681
0.002068652
0.002068695
0.001947768
0.002055143
0.002067445
0.00206941
0.002069435
0.001948466
0.002055935
0.002068224
0.002070177
0.002070189
0.001949168
0.002056738
0.002069013
0.002070968
0.002070955
0.001949875
0.002057549
0.002069817
0.002071749
0.002071735
0.001950587
0.002058368
0.002070639
0.002072539
0.002072526
0.001951306
0.002059194
0.002071464
0.002073341
0.002073337
0.001952033
0.00206002
0.002072289
0.002074143
0.002074134
0.001952759
0.002060825
0.002073085
0.002074914
0.002074883
0.001953446
0.002061528
0.002073747
0.002075533
0.002075481
0.001953942
0.002061858
0.002073943
0.002075653
0.002075598
0.0104003
0.002061574
0.002073438
0.002075038
0.002075015
0.002062711
0.002065812
0.002066381
0.002067063
0.002067772
0.00206309
0.0104182
0.01041827
0.01041837
0.01041847
0.01041857
0.002065971
0.01041834
0.0104184
0.0104185
0.0104186
0.0104187
0.002066547
0.01041848
0.01041854
0.01041864
0.01041874
0.01041883
0.002067243
0.01041863
0.01041869
0.01041878
0.01041888
0.01041897
0.002067999
0.01041877
0.01041883
0.01041893
0.01041902
0.01041911
0.002068768
0.01041892
0.01041898
0.01041907
0.01041916
0.01041926
0.00206954
0.01041907
0.01041912
0.01041922
0.01041931
0.0104194
0.00207031
0.01041921
0.01041927
0.01041936
0.01041946
0.01041955
0.002071083
0.01041936
0.01041942
0.01041951
0.01041961
0.0104197
0.002071853
0.01041951
0.01041957
0.01041966
0.01041976
0.01041985
0.002072639
0.01041966
0.01041972
0.01041981
0.01041991
0.01042
0.00207343
0.01041981
0.01041987
0.01041997
0.01042006
0.01042016
0.002074227
0.01041996
0.01042002
0.01042012
0.01042021
0.01042031
0.002075029
0.01042012
0.01042018
0.01042028
0.01042037
0.01042047
0.002075839
0.01042028
0.01042033
0.01042043
0.01042053
0.01042062
0.002076654
0.01042043
0.01042049
0.01042059
0.01042069
0.01042079
0.002077478
0.01042059
0.01042065
0.01042075
0.01042085
0.01042095
0.002078307
0.01042076
0.01042081
0.01042091
0.01042101
0.01042111
0.002079148
0.01042092
0.01042097
0.01042108
0.01042118
0.01042128
0.002079998
0.01042109
0.01042114
0.01042124
0.01042135
0.01042145
0.002080856
0.01042125
0.01042131
0.01042141
0.01042151
0.01042162
0.002081706
0.01042142
0.01042147
0.01042158
0.01042169
0.01042179
0.002082229
0.01042158
0.01042164
0.01042175
0.01042186
0.01042196
0.002059314
0.002064952
0.002065352
0.002065946
0.002066711
0.002059642
0.0104182
0.01041826
0.01041835
0.01041845
0.01041854
0.002065091
0.01041833
0.01041839
0.01041849
0.01041859
0.01041868
0.002065484
0.01041847
0.01041853
0.01041863
0.01041872
0.01041882
0.002066064
0.01041861
0.01041867
0.01041877
0.01041886
0.01041895
0.002066804
0.01041875
0.01041881
0.01041891
0.010419
0.01041909
0.002067574
0.01041889
0.01041896
0.01041905
0.01041914
0.01041924
0.002068349
0.01041904
0.0104191
0.01041919
0.01041929
0.01041938
0.002069128
0.01041918
0.01041924
0.01041934
0.01041943
0.01041952
0.002069914
0.01041932
0.01041939
0.01041948
0.01041958
0.01041967
0.002070703
0.01041947
0.01041953
0.01041963
0.01041972
0.01041982
0.002071498
0.01041962
0.01041968
0.01041978
0.01041987
0.01041997
0.002072299
0.01041977
0.01041983
0.01041993
0.01042002
0.01042012
0.002073109
0.01041992
0.01041998
0.01042008
0.01042018
0.01042027
0.002073928
0.01042007
0.01042013
0.01042023
0.01042033
0.01042042
0.002074755
0.01042022
0.01042029
0.01042039
0.01042048
0.01042058
0.002075588
0.01042037
0.01042044
0.01042054
0.01042064
0.01042074
0.002076427
0.01042053
0.0104206
0.0104207
0.0104208
0.0104209
0.002077279
0.01042069
0.01042076
0.01042086
0.01042096
0.01042106
0.002078139
0.01042085
0.01042092
0.01042102
0.01042112
0.01042122
0.002079012
0.01042101
0.01042108
0.01042119
0.01042129
0.01042139
0.002079901
0.01042118
0.01042125
0.01042135
0.01042146
0.01042156
0.002080822
0.01042134
0.01042141
0.01042152
0.01042163
0.01042173
0.002081757
0.01042151
0.01042158
0.01042169
0.0104218
0.0104219
0.002058859
0.002064339
0.002064666
0.002065212
0.002065991
0.002059175
0.0104182
0.01041826
0.01041835
0.01041844
0.01041854
0.002064477
0.01041833
0.01041839
0.01041849
0.01041859
0.01041868
0.002064793
0.01041846
0.01041853
0.01041863
0.01041872
0.01041882
0.002065319
0.0104186
0.01041867
0.01041877
0.01041886
0.01041896
0.002066033
0.01041875
0.01041882
0.01041891
0.010419
0.0104191
0.002066797
0.01041889
0.01041896
0.01041905
0.01041914
0.01041924
0.002067575
0.01041903
0.0104191
0.01041919
0.01041929
0.01041938
0.002068358
0.01041918
0.01041924
0.01041934
0.01041943
0.01041952
0.002069144
0.01041932
0.01041939
0.01041948
0.01041958
0.01041967
0.00206993
0.01041947
0.01041953
0.01041963
0.01041973
0.01041982
0.002070719
0.01041961
0.01041968
0.01041978
0.01041987
0.01041997
0.002071522
0.01041976
0.01041983
0.01041993
0.01042002
0.01042012
0.002072332
0.01041991
0.01041998
0.01042008
0.01042018
0.01042027
0.002073151
0.01042006
0.01042013
0.01042023
0.01042033
0.01042042
0.002073974
0.01042022
0.01042029
0.01042039
0.01042048
0.01042058
0.002074814
0.01042037
0.01042044
0.01042054
0.01042064
0.01042074
0.002075647
0.01042053
0.0104206
0.0104207
0.0104208
0.0104209
0.002076504
0.01042069
0.01042076
0.01042086
0.01042096
0.01042106
0.002077364
0.01042085
0.01042092
0.01042102
0.01042112
0.01042122
0.002078244
0.01042101
0.01042108
0.01042119
0.01042129
0.01042139
0.002079143
0.01042117
0.01042125
0.01042135
0.01042146
0.01042156
0.002080101
0.01042134
0.01042141
0.01042152
0.01042162
0.01042173
0.00208112
0.01042151
0.01042158
0.01042169
0.01042179
0.0104219
0.002058757
0.002064159
0.002064452
0.00206498
0.002065758
0.0020591
0.0104182
0.01041826
0.01041835
0.01041844
0.01041854
0.002064306
0.01041833
0.01041839
0.01041848
0.01041858
0.01041868
0.002064586
0.01041846
0.01041853
0.01041863
0.01041872
0.01041881
0.002065084
0.0104186
0.01041867
0.01041877
0.01041886
0.01041896
0.002065785
0.01041875
0.01041881
0.01041891
0.010419
0.0104191
0.002066544
0.01041889
0.01041896
0.01041905
0.01041914
0.01041924
0.002067321
0.01041903
0.0104191
0.01041919
0.01041929
0.01041938
0.002068098
0.01041918
0.01041924
0.01041934
0.01041943
0.01041952
0.002068882
0.01041932
0.01041939
0.01041948
0.01041958
0.01041967
0.002069669
0.01041947
0.01041953
0.01041963
0.01041972
0.01041982
0.002070459
0.01041961
0.01041968
0.01041978
0.01041987
0.01041997
0.002071262
0.01041976
0.01041983
0.01041993
0.01042002
0.01042012
0.002072071
0.01041991
0.01041998
0.01042008
0.01042018
0.01042027
0.00207289
0.01042006
0.01042013
0.01042023
0.01042033
0.01042042
0.002073713
0.01042022
0.01042029
0.01042039
0.01042048
0.01042058
0.00207455
0.01042037
0.01042044
0.01042054
0.01042064
0.01042074
0.00207538
0.01042053
0.0104206
0.0104207
0.0104208
0.0104209
0.002076234
0.01042069
0.01042076
0.01042086
0.01042096
0.01042106
0.002077099
0.01042085
0.01042092
0.01042102
0.01042112
0.01042122
0.00207797
0.01042101
0.01042108
0.01042119
0.01042129
0.01042139
0.002078873
0.01042117
0.01042125
0.01042135
0.01042146
0.01042156
0.002079846
0.01042134
0.01042141
0.01042152
0.01042162
0.01042173
0.002080909
0.01042151
0.01042158
0.01042169
0.01042179
0.0104219
0.002058782
0.002064156
0.002064442
0.002064971
0.002065748
0.002059085
0.0104182
0.01041826
0.01041835
0.01041844
0.01041854
0.002064294
0.01041833
0.01041839
0.01041848
0.01041858
0.01041868
0.002064577
0.01041846
0.01041853
0.01041863
0.01041872
0.01041881
0.002065075
0.0104186
0.01041867
0.01041877
0.01041886
0.01041896
0.002065773
0.01041875
0.01041881
0.01041891
0.010419
0.0104191
0.002066533
0.01041889
0.01041896
0.01041905
0.01041914
0.01041924
0.002067308
0.01041903
0.0104191
0.01041919
0.01041929
0.01041938
0.002068086
0.01041918
0.01041924
0.01041934
0.01041943
0.01041952
0.002068871
0.01041932
0.01041939
0.01041948
0.01041958
0.01041967
0.002069656
0.01041947
0.01041953
0.01041963
0.01041973
0.01041982
0.002070444
0.01041961
0.01041968
0.01041978
0.01041987
0.01041997
0.002071245
0.01041976
0.01041983
0.01041993
0.01042002
0.01042012
0.002072054
0.01041991
0.01041998
0.01042008
0.01042018
0.01042027
0.002072874
0.01042007
0.01042013
0.01042023
0.01042033
0.01042042
0.002073696
0.01042022
0.01042029
0.01042039
0.01042048
0.01042058
0.002074529
0.01042037
0.01042044
0.01042054
0.01042064
0.01042074
0.002075366
0.01042053
0.0104206
0.0104207
0.0104208
0.0104209
0.002076218
0.01042069
0.01042076
0.01042086
0.01042096
0.01042106
0.002077079
0.01042085
0.01042092
0.01042102
0.01042112
0.01042122
0.002077952
0.01042101
0.01042108
0.01042119
0.01042129
0.01042139
0.002078858
0.01042117
0.01042125
0.01042135
0.01042146
0.01042156
0.002079833
0.01042134
0.01042141
0.01042152
0.01042163
0.01042173
0.002080896
0.01042151
0.01042158
0.01042169
0.0104218
0.0104219
0.002058786
0.002064238
0.002064551
0.002065086
0.002065869
0.002059122
0.0104182
0.01041826
0.01041835
0.01041844
0.01041854
0.002064375
0.01041833
0.01041839
0.01041849
0.01041858
0.01041868
0.002064679
0.01041846
0.01041853
0.01041863
0.01041872
0.01041882
0.002065196
0.0104186
0.01041867
0.01041877
0.01041886
0.01041895
0.002065903
0.01041875
0.01041882
0.01041891
0.010419
0.01041909
0.002066664
0.01041889
0.01041896
0.01041905
0.01041914
0.01041924
0.00206744
0.01041903
0.0104191
0.01041919
0.01041929
0.01041938
0.002068221
0.01041918
0.01041924
0.01041934
0.01041943
0.01041952
0.002069008
0.01041932
0.01041939
0.01041948
0.01041958
0.01041967
0.002069793
0.01041947
0.01041954
0.01041963
0.01041973
0.01041982
0.002070582
0.01041962
0.01041968
0.01041978
0.01041987
0.01041997
0.002071386
0.01041976
0.01041983
0.01041993
0.01042002
0.01042012
0.002072196
0.01041991
0.01041998
0.01042008
0.01042018
0.01042027
0.002073016
0.01042006
0.01042014
0.01042023
0.01042033
0.01042042
0.00207384
0.01042022
0.01042029
0.01042039
0.01042049
0.01042058
0.002074674
0.01042037
0.01042044
0.01042054
0.01042064
0.01042074
0.002075515
0.01042053
0.0104206
0.0104207
0.0104208
0.0104209
0.002076365
0.01042069
0.01042076
0.01042086
0.01042096
0.01042106
0.002077225
0.01042085
0.01042092
0.01042102
0.01042113
0.01042122
0.0020781
0.01042101
0.01042108
0.01042119
0.01042129
0.01042139
0.002079
0.01042117
0.01042125
0.01042135
0.01042146
0.01042156
0.002079966
0.01042134
0.01042142
0.01042152
0.01042163
0.01042173
0.002081014
0.01042151
0.01042158
0.01042169
0.0104218
0.0104219
0.002059058
0.00206474
0.002065149
0.002065725
0.002066502
0.002059384
0.0104182
0.01041826
0.01041835
0.01041845
0.01041854
0.002064882
0.01041833
0.01041839
0.01041849
0.01041858
0.01041868
0.002065274
0.01041847
0.01041853
0.01041863
0.01041872
0.01041881
0.002065838
0.01041861
0.01041867
0.01041877
0.01041886
0.01041895
0.002066573
0.01041875
0.01041882
0.01041891
0.010419
0.01041909
0.002067347
0.01041889
0.01041896
0.01041905
0.01041914
0.01041924
0.002068124
0.01041904
0.0104191
0.01041919
0.01041929
0.01041938
0.002068907
0.01041918
0.01041924
0.01041934
0.01041943
0.01041952
0.002069693
0.01041933
0.01041939
0.01041948
0.01041958
0.01041967
0.002070482
0.01041947
0.01041954
0.01041963
0.01041972
0.01041982
0.002071278
0.01041962
0.01041968
0.01041978
0.01041987
0.01041997
0.002072084
0.01041977
0.01041983
0.01041993
0.01042002
0.01042012
0.002072897
0.01041992
0.01041998
0.01042008
0.01042018
0.01042027
0.002073718
0.01042007
0.01042014
0.01042023
0.01042033
0.01042042
0.002074545
0.01042022
0.01042029
0.01042039
0.01042048
0.01042058
0.00207538
0.01042038
0.01042045
0.01042054
0.01042064
0.01042074
0.002076217
0.01042053
0.0104206
0.0104207
0.0104208
0.0104209
0.002077066
0.01042069
0.01042076
0.01042086
0.01042096
0.01042106
0.002077929
0.01042085
0.01042092
0.01042102
0.01042112
0.01042122
0.002078801
0.01042101
0.01042109
0.01042119
0.01042129
0.01042139
0.002079697
0.01042118
0.01042125
0.01042136
0.01042146
0.01042156
0.002080639
0.01042135
0.01042142
0.01042152
0.01042163
0.01042173
0.002081634
0.01042151
0.01042158
0.01042169
0.0104218
0.01042191
0.00205804
0.002061975
0.002062375
0.00206302
0.00206376
0.002058336
0.0104182
0.01041827
0.01041837
0.01041846
0.01041856
0.002062107
0.01041834
0.0104184
0.0104185
0.0104186
0.01041869
0.002062501
0.01041848
0.01041854
0.01041863
0.01041873
0.01041883
0.00206314
0.01041863
0.01041869
0.01041878
0.01041887
0.01041897
0.002063889
0.01041877
0.01041883
0.01041892
0.01041902
0.01041911
0.002064649
0.01041892
0.01041897
0.01041907
0.01041916
0.01041926
0.002065413
0.01041906
0.01041912
0.01041922
0.01041931
0.0104194
0.002066185
0.01041921
0.01041927
0.01041936
0.01041946
0.01041955
0.00206696
0.01041936
0.01041941
0.01041951
0.0104196
0.0104197
0.002067743
0.01041951
0.01041956
0.01041966
0.01041975
0.01041985
0.002068534
0.01041966
0.01041971
0.01041981
0.01041991
0.01042
0.002069332
0.01041981
0.01041987
0.01041996
0.01042006
0.01042015
0.002070133
0.01041996
0.01042002
0.01042012
0.01042021
0.01042031
0.002070938
0.01042012
0.01042017
0.01042027
0.01042037
0.01042046
0.002071753
0.01042027
0.01042033
0.01042043
0.01042053
0.01042062
0.002072578
0.01042043
0.01042049
0.01042059
0.01042069
0.01042078
0.002073409
0.01042059
0.01042065
0.01042075
0.01042085
0.01042095
0.002074246
0.01042075
0.01042081
0.01042091
0.01042101
0.01042111
0.002075087
0.01042092
0.01042097
0.01042108
0.01042118
0.01042128
0.00207594
0.01042108
0.01042114
0.01042124
0.01042134
0.01042144
0.002076805
0.01042125
0.0104213
0.01042141
0.01042151
0.01042161
0.002077681
0.01042142
0.01042147
0.01042158
0.01042168
0.01042179
0.002082231
0.01042159
0.01042164
0.01042175
0.01042186
0.01042196
0.005570658
0.005647651
0.00565698
0.005665252
0.005673374
0.005571205
0.0104111
0.01041112
0.01041056
0.01041014
0.01040968
0.005648356
0.01041157
0.01041206
0.01041142
0.01041122
0.01041109
0.005657801
0.01041183
0.01041238
0.01041256
0.01041227
0.01041215
0.005666295
0.0104121
0.01041265
0.01041289
0.01041308
0.01041285
0.005674651
0.01041237
0.01041293
0.01041317
0.01041342
0.01041362
0.005683048
0.01041265
0.01041321
0.01041344
0.0104137
0.01041396
0.005691378
0.01041292
0.01041349
0.01041372
0.01041398
0.01041424
0.005699701
0.0104132
0.01041377
0.010414
0.01041426
0.01041452
0.005707945
0.01041347
0.01041405
0.01041429
0.01041454
0.0104148
0.005716171
0.01041375
0.01041434
0.01041457
0.01041482
0.01041509
0.005724457
0.01041402
0.01041462
0.01041485
0.01041511
0.01041537
0.005732856
0.01041429
0.01041491
0.01041514
0.01041539
0.01041565
0.005741288
0.01041457
0.01041519
0.01041543
0.01041568
0.01041594
0.005749804
0.01041484
0.01041548
0.01041571
0.01041596
0.01041623
0.005758437
0.01041512
0.01041577
0.01041601
0.01041626
0.01041652
0.005767253
0.01041539
0.01041606
0.0104163
0.01041655
0.01041681
0.005776068
0.01041567
0.01041636
0.01041659
0.01041685
0.0104171
0.005784892
0.01041595
0.01041665
0.01041689
0.01041715
0.0104174
0.005793683
0.01041623
0.01041695
0.01041719
0.01041745
0.0104177
0.005802543
0.01041651
0.01041725
0.01041749
0.01041776
0.01041801
0.005811604
0.01041679
0.01041755
0.01041779
0.01041806
0.01041832
0.005820718
0.01041712
0.01041786
0.01041809
0.01041837
0.01041863
0.005829567
0.001953542
0.01041823
0.01041846
0.01041874
0.010419
0.00396845
0.006231942
0.006233184
0.01041828
0.003944229
0.00409469
0.005570584
0.005645963
0.01041834
0.01041847
0.00409773
0.004105501
0.005647581
0.005655605
0.01041853
0.0104187
0.004104568
0.004109585
0.005656815
0.005663883
0.01041872
0.01041891
0.004108472
0.004113287
0.005665066
0.005671909
0.01041892
0.01041913
0.004112117
0.005673145
0.01041912
0.005561137
0.005562735
0.01041821
0.005620559
0.005622046
0.01041821
0.005620831
0.005622288
0.0104182
0.005621653
0.005622698
0.0104182
0.005621432
0.005622688
0.0104182
0.00562152
0.005622523
0.0104182
0.005621234
0.005622639
0.0104182
0.005621534
0.00562239
0.0104182
0.005621476
0.005622439
0.0104182
0.00562153
0.005622455
0.0104182
0.005621362
0.005622585
0.01041819
0.00562113
0.0056228
0.0104182
0.005621384
0.005622748
0.0104182
0.0056212
0.005621988
0.0104182
0.005620887
0.00562164
0.01041821
0.005561208
0.005562754
0.01041821
0.006231963
0.006233069
0.01041827
0.003968437
0.00565557
0.01041862
0.0104187
0.004097826
0.004105503
0.005663914
0.01041865
0.01041891
0.004104565
0.004109561
0.005671928
0.01041885
0.01041913
0.004108467
0.004113266
0.01041906
0.004112115
0.0104184
0.005645618
0.01041859
0.003943987
0.004094432
0.01041868
0.005655168
0.0104189
0.004097576
0.004105268
0.01041897
0.00566325
0.0104192
0.004104433
0.004109414
0.01041925
0.005671302
0.0104195
0.004108408
0.004113295
0.01041955
0.00567944
0.0104198
0.004112224
0.004117197
0.01041984
0.005687713
0.01042011
0.004116088
0.004121134
0.01042014
0.005696
0.01042042
0.004119983
0.004125094
0.01042043
0.005704301
0.01042072
0.004123904
0.004129036
0.01042073
0.005712677
0.01042104
0.004127759
0.004132925
0.01042104
0.005721031
0.01042135
0.004131581
0.004136845
0.01042135
0.005729525
0.01042166
0.004135398
0.004140809
0.01042262
0.005764201
0.01042295
0.004150972
0.004157025
0.01042293
0.005773089
0.01042328
0.004154923
0.004161163
0.01042326
0.005782052
0.01042362
0.004158932
0.00416536
0.01042359
0.00579113
0.01042395
0.004162979
0.004169579
0.01042392
0.005800214
0.01042429
0.004167067
0.004173829
0.01042529
0.005835771
0.01042569
0.004182924
0.01039413
0.01040737
0.007874552
0.01041472
0.007998983
0.01041447
0.008020524
0.003944
0.004094442
0.005571182
0.01041841
0.005645716
0.01041859
0.004097568
0.004105265
0.005648311
0.01041869
0.005655311
0.0104189
0.004104443
0.004109431
0.005657776
0.01041897
0.005663429
0.0104192
0.004108397
0.004113311
0.005666254
0.01041926
0.005671535
0.0104195
0.004112233
0.004117202
0.005674609
0.01041956
0.005679726
0.01041981
0.004116083
0.004121122
0.005683002
0.01041985
0.005688032
0.01042011
0.004119958
0.004125081
0.005691344
0.01042014
0.00569632
0.01042042
0.00412388
0.004129025
0.005699649
0.01042044
0.005704658
0.01042073
0.004127738
0.004132914
0.005707893
0.01042074
0.005713043
0.01042104
0.004131558
0.004136832
0.005716114
0.01042105
0.005721435
0.01042135
0.004135386
0.004140794
0.005724414
0.01042136
0.005729905
0.01042167
0.004139228
0.004144801
0.005732798
0.01042167
0.005738502
0.01042198
0.004143083
0.004148822
0.005741217
0.01042198
0.005747127
0.01042231
0.004146984
0.004152888
0.005749754
0.0104223
0.005755873
0.01042263
0.004150921
0.004157006
0.00575841
0.01042262
0.005764685
0.01042296
0.004154897
0.004161151
0.00576719
0.01042294
0.005773602
0.01042329
0.004158901
0.004165345
0.005775958
0.01042327
0.005782568
0.01042362
0.004162949
0.004169561
0.005784775
0.01042359
0.005791645
0.01042396
0.004167039
0.004173832
0.005793568
0.01042392
0.005800745
0.0104243
0.004171169
0.004178122
0.005802474
0.01042426
0.00580999
0.01042464
0.004175323
0.004182407
0.005811501
0.0104246
0.005819316
0.01042499
0.004179439
0.004186286
0.005820664
0.01042494
0.005828625
0.01042534
0.004182915
0.0103942
0.005829566
0.01042528
0.00583577
0.01042565
0.01040732
0.01040732
0.01040731
0.0104073
0.01040733
0.01040726
0.01040736
0.01040725
0.01040734
0.01040729
0.01040733
0.01040729
0.01040729
0.01040728
0.01040734
0.01040729
0.01040747
0.01040733
0.005645924
0.01041826
0.01041847
0.00394422
0.004094701
0.01042166
0.005738079
0.01042198
0.004139243
0.004144775
0.01042198
0.005746678
0.0104223
0.004143102
0.00414884
0.01042227
0.005755375
0.01042137
0.00414702
0.004152666
0.01042425
0.005809456
0.01042464
0.004171182
0.004178109
0.01042459
0.005818766
0.01042498
0.004175325
0.004182427
0.01042488
0.005828037
0.01042337
0.004179463
0.004186026
0.01041423
0.00799379
0.01041429
0.007739287
0.01041277
0.007992534
0.01041222
0.007739115
0.01040743
0.01040728
0.01041439
0.008034841
0.01041479
0.008019535
0.01040731
0.01040726
0.01040728
0.01040724
0.01040731
0.01040721
0.01040728
0.01040727
0.01040728
0.0104072
0.01040727
0.01040721
0.01040725
0.01040724
0.01040731
0.01040729
0.01040734
0.007874241
0.01041423
0.00799382
0.01041433
0.007738989
0.01041277
0.007992609
0.01041222
0.007739169
0.0104153
0.008032185
0.01041434
0.008042706
0.01041423
0.008054194
0.01041524
0.008039949
0.01041579
0.00805166
0.01041377
0.00806078
0.01041405
0.008072371
0.01041566
0.008058039
0.01041624
0.008069937
0.01041354
0.008078052
0.01041392
0.008090212
0.01041606
0.008075557
0.01041669
0.008087655
0.01041336
0.008094984
0.01041383
0.00809258
0.01041227
0.00799876
0.01041295
0.008018942
0.01041357
0.00803297
0.01041217
0.008019626
0.01041247
0.00803295
0.01041348
0.008040804
0.01041397
0.008052094
0.01041219
0.008040563
0.01041264
0.008052711
0.01041372
0.008058725
0.0104144
0.008070284
0.01041219
0.008059312
0.01041274
0.008071409
0.01041395
0.008076154
0.01041484
0.008088455
0.0104122
0.008077378
0.01041285
0.008089731
0.01041421
0.00809356
0.01041528
0.008106459
0.01041227
0.008095102
0.01041297
0.0081078
0.01041446
0.008111097
0.01041572
0.008124396
0.01041235
0.008112947
0.01041309
0.008125672
0.0104148
0.008128691
0.01041615
0.008142458
0.01041245
0.008130645
0.01041319
0.008143562
0.01041523
0.008146434
0.01041656
0.008160605
0.01041257
0.008148311
0.01041703
0.008178993
0.01041271
0.008165963
0.0104135
0.008179696
0.01041618
0.008182201
0.01041743
0.008197438
0.0104129
0.008183502
0.01041373
0.008197697
0.01041655
0.008200286
0.01041788
0.008215986
0.01041316
0.008201173
0.01041485
0.008269361
0.01041809
0.00827336
0.01041523
0.008288355
0.01041844
0.008292962
0.01042023
0.008310987
0.01041448
0.008290657
0.0104156
0.008306636
0.01041879
0.008311987
0.01042072
0.008330473
0.01041482
0.008308866
0.01041598
0.008325069
0.01041918
0.008331206
0.01042121
0.008350166
0.0104152
0.008327209
0.0104164
0.008343637
0.01041956
0.008350605
0.01042172
0.008369972
0.01041575
0.008345707
0.01042383
0.008243791
0.008420211
0.01041756
0.006369925
0.00645155
0.006677574
0.00668734
0.00667635
0.006684417
0.006655162
0.006655282
0.006673797
0.006657872
0.006666221
0.006674876
0.006658281
0.006652313
0.006663747
0.006675991
0.006659035
0.006658812
0.006678532
0.006662927
0.006688431
0.006690258
0.006676199
0.006684231
0.006662859
0.006660814
0.00665672
0.006652252
0.00667524
0.006680939
0.006669255
0.006656784
0.006689029
0.006685743
0.006670693
0.006670008
0.006671462
0.006660783
0.006374689
0.006451728
0.007231129
0.007280898
0.007241023
0.007273452
0.007233042
0.007281535
0.007242001
0.007275343
0.007269174
0.007308404
0.007271616
0.007305804
0.007274162
0.007309311
0.007310555
0.007272983
0.007249325
0.00728343
0.007286271
0.007245398
0.007257529
0.007295957
0.007293454
0.007259611
0.007262101
0.007296917
0.007298579
0.007260154
0.007281981
0.00732146
0.007318294
0.007285426
0.007294247
0.007334239
0.007330713
0.007298361
0.007298441
0.007335377
0.007335794
0.00729815
0.007306565
0.007347071
0.007311304
0.007343223
0.007310538
0.007348236
0.007348212
0.007310743
0.007318925
0.007359963
0.007355782
0.007324251
0.007322705
0.007361049
0.00736067
0.007323338
0.007331383
0.0073729
0.007337221
0.007368384
0.01041176
0.008161578
0.01041569
0.008162877
0.00735668
0.00739907
0.007393877
0.007363415
0.007359783
0.007399842
0.007398521
0.007361745
0.007369478
0.00741232
0.007406786
0.007376614
0.007372326
0.007412946
0.007411308
0.007374709
0.007382382
0.007425668
0.007389971
0.007419799
0.007424394
0.007467915
0.007429669
0.007464236
0.01041965
0.008289793
0.01041147
0.00827178
0.007436743
0.007479941
0.00747695
0.007440865
0.007490384
0.007536828
0.007500339
0.007528843
0.01041443
0.008418039
0.01042103
0.008427208
0.007545012
0.007594314
0.007585777
0.007555173
0.006722129
0.00715193
0.007041446
0.006959811
0.006726228
0.007160196
0.007060292
0.006962063
0.006521799
0.006614574
0.006667262
0.006671954
0.006667516
0.006675103
0.006660632
0.006661523
0.006683478
0.00668417
0.006671521
0.00667142
0.006674208
0.006685306
0.006661893
0.006659456
0.006670256
0.006671293
0.006686666
0.006678661
0.007998617
0.01041431
0.008019722
0.01041449
0.008033991
0.01041506
0.00801875
0.01041434
0.008215675
0.01041895
0.008218589
0.01041395
0.008235066
0.008219308
0.01041836
0.01041332
0.008234032
0.008236931
0.01041425
0.01041733
0.008252796
0.008236646
0.01041879
0.01041354
0.008251098
0.008255378
0.01041447
0.01041771
0.008269969
0.01041133
0.008254531
0.01041673
0.008362263
0.0104233
0.008369448
0.01041676
0.008390064
0.00836359
0.01042223
0.01041602
0.008381485
0.008390383
0.01041728
0.01042039
0.008409395
0.00838323
0.01042272
0.01041639
0.008399192
0.008409158
0.01041754
0.01042079
0.008427408
0.01041302
0.00840123
0.01041927
0.006676298
0.00665026
0.006666436
0.006671902
0.006673988
0.006680743
0.006669033
0.006669878
0.006667517
0.006676151
0.006670927
0.006664719
0.006689822
0.00668869
0.006662039
0.006661501
0.006671837
0.006665173
0.006536624
0.006643692
0.006725773
0.007149698
0.006957497
0.007041523
0.006728259
0.00716164
0.006963259
0.007061239
0.007211463
0.007225072
0.007161108
0.007259263
0.007215062
0.007233004
0.007170257
0.007263476
0.007274555
0.007313942
0.007311497
0.007276695
0.007250666
0.007289107
0.007287112
0.007252298
0.00725586
0.007289988
0.007292017
0.007253057
0.007263184
0.007301752
0.007299453
0.007265069
0.007275505
0.007314335
0.007311955
0.007277658
0.007279897
0.007315612
0.007316686
0.007278142
0.007287671
0.00732694
0.007324325
0.007290148
0.007291892
0.007328085
0.007328956
0.007290542
0.007299832
0.007339578
0.007336621
0.007302761
0.007303907
0.007340844
0.007302972
0.007341286
0.007312104
0.007352293
0.007349075
0.007315427
0.00731594
0.00735364
0.007353644
0.007315399
0.007324425
0.007365048
0.00736157
0.007328087
0.007328068
0.007366371
0.007327858
0.007366061
0.007352633
0.007392041
0.007391123
0.007353014
0.00736181
0.007403786
0.00739957
0.007366468
0.007365089
0.007404907
0.007403814
0.007365618
0.007374446
0.007416873
0.007412413
0.007379399
0.007377641
0.007417916
0.007378365
0.007416597
0.007439545
0.007484053
0.007478646
0.007445754
0.0074804
0.007526027
0.007520225
0.007487148
0.007483013
0.007526241
0.00748478
0.007523652
0.007537814
0.007583687
0.007541008
0.00758015
0.005835815
0.01042563
0.01041901
0.01041924
0.005835792
0.01042563
0.008232341
0.01042528
0.007541137
0.007591935
0.007587191
0.007548461
0.007998639
0.01041318
0.01041223
0.008018899
0.01041247
0.008033043
0.01041351
0.00804079
0.01041265
0.008052777
0.01041376
0.008058677
0.01041274
0.00807147
0.01041399
0.008076111
0.01041285
0.008089788
0.01041425
0.008093538
0.01041297
0.008107867
0.0104145
0.008111095
0.01041309
0.008125785
0.01041483
0.008128671
0.01041319
0.008143644
0.01041525
0.008146425
0.01041333
0.008161663
0.01041574
0.008164229
0.0104135
0.008179763
0.0104162
0.008182198
0.01041372
0.008197795
0.01041659
0.008200253
0.01041397
0.008215746
0.01041697
0.008218488
0.01041426
0.008233777
0.01041735
0.008236836
0.01041455
0.008251889
0.01041772
0.008255371
0.01041488
0.008270098
0.01041808
0.008274078
0.01041522
0.008288356
0.01041845
0.008292954
0.01041559
0.008306702
0.01041881
0.008311997
0.01041597
0.008325147
0.0104192
0.008331223
0.01041639
0.008343739
0.01041959
0.008350617
0.01041682
0.008362362
0.01041999
0.008370189
0.0104173
0.008381138
0.01042038
0.008389925
0.01041778
0.008399985
0.0104208
0.008409851
0.01041809
0.008418837
0.01042121
0.008429337
0.007232987
0.007281566
0.007241989
0.007275189
0.007281068
0.007320944
0.007284147
0.00731814
0.007286147
0.007321836
0.007322738
0.007285615
0.007292948
0.007333419
0.007296636
0.007330376
0.007269798
0.007308721
0.007305846
0.007272542
0.007273885
0.007309818
0.007310593
0.007272947
0.007285857
0.007322541
0.00732287
0.007285556
0.007462485
0.007508157
0.007471885
0.007500627
0.007463434
0.007507503
0.007504161
0.007468028
0.00747556
0.007521436
0.007516484
0.007481726
0.01041357
0.008032518
0.01041181
0.008019606
0.01041397
0.00805143
0.01041166
0.008040622
0.0104144
0.008069498
0.01041149
0.008059317
0.01041483
0.008087541
0.01041134
0.008077333
0.01041526
0.008105429
0.01041124
0.008095063
0.0104157
0.008123272
0.01041116
0.008112924
0.01041613
0.008141208
0.01041109
0.00813064
0.01041653
0.008159255
0.01041105
0.008148299
0.01041696
0.00817754
0.01041103
0.008165866
0.01041739
0.008195896
0.01041105
0.008183491
0.01041783
0.008214344
0.01041108
0.008201172
0.01041827
0.008232955
0.01041115
0.008218854
0.01041872
0.008251733
0.01041123
0.008236627
0.01041918
0.008270675
0.01041134
0.008254503
0.01041964
0.008289771
0.01041147
0.008272526
0.01042012
0.008309053
0.01041163
0.008290627
0.01042059
0.008328518
0.01041181
0.008308858
0.01042107
0.008348176
0.01041201
0.008327216
0.01042156
0.008367962
0.01041223
0.008345712
0.01042205
0.008387948
0.01041248
0.008364327
0.01042254
0.008408084
0.01041275
0.008383099
0.01042305
0.008428291
0.01041305
0.008402002
0.01041759
0.008447324
0.01041983
0.008420099
0.007283203
0.00728624
0.007245239
0.007248822
0.007438498
0.007431491
0.007393277
0.007402619
0.007438866