/*--------------------------------*- C++ -*----------------------------------*\
  =========                 |
  \\      /  F ield         | OpenFOAM: The Open Source CFD Toolbox
   \\    /   O peration     | Website:  https://openfoam.org
    \\  /    A nd           | Version:  7
     \\/     M anipulation  |
\*---------------------------------------------------------------------------*/
FoamFile
{
    version     2.0;
    format      ascii;
    class       surfaceScalarField;
    location    "0.1";
    object      phi;
}
// * * * * * * * * * * * * * * * * * * * * * * * * * * * * * * * * * * * * * //

dimensions      [0 3 -1 0 0 0 0];

internalField   nonuniform List<scalar> 
220679
(
-0.00158421
-9.891739e-05
0.001685425
-2.297487e-06
0.002590067
0.03580263
0.001354081
-0.00882788
-0.009242692
-0.01033637
-0.01043043
-0.0008743282
0.0009338313
-0.0004416711
-0.0005272389
0.00316792
0.03675529
0.002582127
-0.009384777
-0.009375772
-0.01053146
-0.01062326
0.003756123
0.03682086
0.003201863
-0.009533677
-0.009380795
-0.01086599
-0.01083046
0.004312107
0.03663786
0.003659141
-0.009624213
-0.009442141
-0.01087152
-0.0109151
0.005004494
0.03636896
0.003736142
-0.009695861
-0.009385884
-0.01083077
-0.01088497
0.005853505
0.03653779
0.00310268
-0.009678056
-0.009328906
-0.01073141
-0.01075111
0.006570054
0.03653404
0.003365321
-0.00980283
-0.009327489
-0.01075455
-0.01073104
0.007149108
0.03644275
0.003621037
-0.009846605
-0.00930605
-0.01078402
-0.01070616
0.007773776
0.03644557
0.003533423
-0.009849635
-0.009267733
-0.0107913
-0.01069499
0.03638264
0.00354243
-0.009833756
-0.009215598
-0.01077007
-0.01068905
0.008357184
-0.001756206
-2.850529e-06
0.001780174
-2.11173e-05
0.001425162
0.0340745
0.0006432912
-0.001360683
0.001088649
-0.0001236069
5.531935e-05
0.00226843
0.03452144
0.001390579
0.003072542
0.0346735
0.001343246
0.00381522
0.0343713
0.001523876
0.004714164
0.03406816
0.001401858
0.005433622
0.03451692
0.00130141
0.006172272
0.03449205
0.001303343
0.006979163
0.03433676
0.001299098
0.007630686
0.03440009
0.001393949
0.03452272
0.001320896
0.008169707
-0.001719344
-1.547625e-05
0.001743831
-9.010745e-06
0.001766672
0.033036
6.91814e-06
-0.001313829
0.0009789533
-0.0001166502
-0.0002835645
0.002535987
0.03309753
0.0006545917
0.003293749
0.03313754
0.0007781953
0.003973319
0.03277371
0.0009180246
0.004673086
0.03252101
0.000847384
0.005413589
0.032822
0.0009544196
0.006179281
0.03283561
0.0008907417
0.006917696
0.03272719
0.0008711547
0.00759726
0.03289188
0.0008286494
0.03311514
0.0007841085
0.008220738
-0.001693698
-1.162954e-05
0.001708767
-3.438867e-06
0.001461378
0.03220662
1.53426e-05
-0.001314924
0.0009740684
-0.0001229969
-0.0001834868
0.002301921
0.03204406
0.0002129325
0.003189429
0.03209382
0.0001562092
0.003944623
0.03187738
0.0001411376
0.00471696
0.03166427
8.439713e-05
0.005534996
0.03185453
0.0001494312
0.006368958
0.03187584
0.0001258057
0.007131086
0.0318604
0.0001046573
0.007871866
0.03205239
9.871427e-05
0.03232933
8.533265e-05
0.008572345
-0.00166011
-3.562493e-06
0.001675261
-1.158817e-05
0.00169067
0.0313954
5.217928e-05
-0.001333056
0.0009064342
-0.0002109972
-0.0002940108
0.00240334
0.03113689
0.0001944964
0.003238455
0.03110198
0.0001567299
0.004009938
0.03094848
0.0001574135
0.004776459
0.03076795
0.0001298028
0.005595848
0.03088098
0.0001541642
0.006442737
0.03088719
0.0001417687
0.007256895
0.03093505
0.0001111956
0.008091545
0.03111758
0.0001001551
0.03141126
8.332987e-05
0.008926279
-0.00161697
-3.430337e-06
0.001628328
-7.927409e-06
0.001643137
0.03057406
6.112145e-05
-0.001299651
0.0008956276
-0.0002173694
-0.0002615242
0.002363261
0.03032784
8.892948e-05
0.003189095
0.03022926
4.688229e-05
0.004000732
0.03009414
4.270602e-05
0.004803194
0.02995688
8.612285e-06
0.005658102
0.03000037
2.570084e-05
0.00654444
0.02999124
9.609173e-06
0.00743916
0.03004005
2.815152e-07
0.008382369
0.0301868
-1.242753e-05
0.03044957
-9.305323e-06
0.009353368
-0.001574483
-3.116321e-06
0.001587278
-9.678918e-06
0.001660664
0.02974727
7.34717e-05
-0.00128194
0.0008667985
-0.000219901
-0.0002723094
0.002380827
0.02951858
8.909852e-05
0.003189032
0.02938599
3.506914e-05
0.003995241
0.02925269
3.523786e-05
0.004815219
0.0291183
1.859723e-05
0.005692716
0.02910249
2.03797e-05
0.00661469
0.02905305
1.620988e-05
0.007586905
0.02905456
1.327782e-05
0.008642677
0.02912438
6.648184e-06
0.02930868
9.89641e-06
0.009773675
-0.001531287
-3.517943e-06
0.001543832
-9.027107e-06
0.001630495
0.02892577
7.215801e-05
-0.001253414
0.0008486287
-0.0002163269
-0.0002600417
0.002349146
0.02872919
7.073164e-05
0.003140656
0.02858867
5.812977e-06
0.003952052
0.02842754
1.375904e-05
0.004784161
0.02829269
-6.501573e-06
0.00567768
0.02820468
4.29415e-06
0.006635728
0.02810184
-6.836725e-06
0.00768716
0.02800545
-2.321775e-06
0.00886268
0.02796268
-1.381618e-05
0.02801452
-9.246054e-06
0.01016608
-0.001489172
-3.56946e-06
0.001502058
-9.316385e-06
0.001603513
0.02812158
7.506894e-05
-0.001227989
0.0008276129
-0.0002179022
-0.0002561072
0.002319743
0.02794008
7.287924e-05
0.00309779
0.02779467
1.59466e-05
0.0038856
0.02761862
2.110009e-05
0.004704658
0.0274694
4.239602e-06
0.005583746
0.0273183
7.289013e-06
0.00654349
0.02713914
2.962826e-06
0.007644713
0.02690435
-1.26695e-07
0.008916118
0.02669756
-6.290128e-06
0.02652754
-9.855624e-06
0.01041295
-0.001447732
-3.463696e-06
0.001460302
-9.105897e-06
0.001569435
0.02733728
7.017176e-05
-0.001200956
0.0008089873
-0.0002162756
-0.0002470631
0.002273009
0.02716881
6.770041e-05
0.003030758
0.02702505
1.186853e-05
0.003792944
0.02684077
1.566872e-05
0.004585505
0.02668229
-5.459885e-06
0.005433593
0.02647115
-9.327648e-07
0.006378185
0.02622551
-3.096774e-05
0.007503108
0.02579932
-1.989042e-05
0.008849871
0.02542756
-7.67643e-05
0.02490513
-5.541838e-05
0.0105277
-0.001407063
-3.235819e-06
0.001419293
-8.994805e-06
0.001539433
0.02657157
6.819859e-05
-0.001175164
0.0007899112
-0.0002162523
-0.0002404165
0.002223535
0.02641892
6.578386e-05
0.002945177
0.02628913
1.427815e-05
0.003655985
0.02611345
1.651134e-05
0.004367826
0.02596388
6.573697e-06
0.005119137
0.02571679
3.049101e-06
0.005936435
0.0254024
5.811513e-06
0.006944677
0.0248321
-4.102742e-05
0.00833067
0.02407826
-3.668993e-05
0.02296673
-7.195099e-05
0.01034102
-0.001367166
-2.895362e-06
0.001378878
-8.816634e-06
0.001516933
0.02581829
6.728483e-05
-0.001150244
0.0007703699
-0.0002165141
-0.0002345498
0.002183318
0.0256877
6.483992e-05
0.002873858
0.02558926
9.332103e-06
0.003531691
0.02544153
1.408844e-05
0.004174478
0.02534004
-1.894347e-05
0.004828902
0.02507985
-1.7485e-05
0.005628395
0.0247581
-0.0001551904
0.006599953
0.02405202
-0.0001914715
0.007603791
0.02359757
-0.0005231466
0.02153092
-0.0004438244
0.009483424
-0.001327828
-2.341854e-06
0.001338789
-8.618899e-06
0.001510046
0.02507147
6.613695e-05
-0.001127288
0.000749282
-0.0002187909
-0.0002325717
0.002162758
0.02497218
6.280789e-05
0.002814663
0.02492446
1.289998e-05
0.003397862
0.02484248
1.584921e-05
0.00388035
0.024848
9.549922e-06
0.004283514
0.02469115
-1.445915e-05
0.004475954
0.02464998
-8.432393e-05
0.005104451
0.02397192
-0.0005484046
0.005570336
0.005562677
-0.0006783757
0.005361347
0.006490572
0.006395463
0.004596713
-0.001389581
0.00458257
0.005778981
0.005540345
0.007992231
-0.001288795
-1.606157e-06
0.001298714
-8.313267e-06
0.001533492
0.02431354
6.663265e-05
-0.001107582
0.0007247838
-0.0002246837
-0.0002347047
0.00218779
0.02425407
6.381294e-05
0.002830465
0.02427582
5.961829e-06
0.00335376
0.02429575
2.343209e-05
0.00377183
0.02446189
-3.196559e-05
0.003853165
0.02457155
3.826084e-05
0.003983829
0.02489054
-0.0003712177
0.0001595344
0.02467605
-0.0004435566
0.001496623
0.0009918911
0.001075216
0.0004319692
0.005427394
-0.0001371513
0.0004591692
0.004927115
-0.0002697352
-0.0005198363
-0.001249249
-6.041987e-07
0.001257676
-7.823147e-06
0.001600015
0.0235223
6.707093e-05
-0.001091849
0.0006948796
-0.0002359458
-0.0002429311
0.002282395
0.02350911
6.257949e-05
0.002951512
0.02360056
6.144668e-06
0.003484095
0.02374859
1.45788e-05
0.00389826
0.02406336
-1.56316e-05
0.00395349
0.02451713
-8.091909e-07
0.003953115
0.02506693
-0.0001760187
-0.000336133
0.02600845
-0.0004312363
0.001632422
0.0006306523
0.001125002
-0.006693273
0.0001325034
0.006484644
-0.0002600069
-0.001418712
0.0002011862
-0.0001542178
0.001444256
-7.251198e-05
-0.001208276
6.711053e-07
0.001214752
-7.146896e-06
0.001713425
0.02267256
7.033177e-05
-0.001080461
0.000658237
-0.0002539812
-0.0002578109
0.002458256
0.0226987
6.5575e-05
0.003197279
0.02285763
3.908344e-06
0.003822708
0.02310341
1.97491e-05
0.004331218
0.02358194
-2.709484e-05
0.004558271
0.02424488
4.519341e-05
0.004595432
0.02522301
-0.0001932419
-5.19758e-05
0.02652277
1.726839e-05
0.001832928
0.000972595
0.0013103
-0.007586884
0.0004866877
0.006903178
0.0001450422
-0.00203982
6.382205e-05
0.0001297251
0.001842527
3.74603e-06
-0.001164786
2.199876e-06
0.001168802
-6.215524e-06
0.001870069
0.0217422
7.446717e-05
-0.00107218
0.0006144722
-0.0002783433
-0.0002781288
0.002699558
0.02180093
6.828038e-05
0.003548785
0.02200501
3.388452e-06
0.0043071
0.02233005
1.505272e-05
0.00499745
0.02292088
-2.928875e-05
0.005464073
0.02376102
1.723829e-05
0.005786214
0.02510634
-0.0002054691
0.0002715826
0.02679534
-0.0002239236
0.002292725
0.001358098
0.00181516
-0.00794776
0.0008455446
0.007298243
7.555484e-05
-0.002169623
7.092413e-05
0.0001217418
0.001988818
-1.186143e-05
-0.001117719
4.147381e-06
0.001118825
-5.253166e-06
0.002054837
0.02071527
8.201633e-05
-0.001065249
0.0005642317
-0.0003070287
-0.0003018742
0.002990078
0.02079053
7.515959e-05
0.003980621
0.0210084
6.07103e-06
0.004924369
0.02136297
2.333326e-05
0.005909224
0.02196625
-3.022819e-05
0.006762387
0.02286358
4.428074e-05
0.007915016
0.02420243
-0.0002487162
0.0008742875
0.02612335
-0.0002899138
0.003086049
0.002140163
0.002776418
-0.008377301
0.001492757
0.007609845
0.0001489856
-0.002389168
-4.829342e-05
0.0002372572
0.002204994
-4.789531e-06
-0.001066247
6.481935e-06
0.001063911
-4.145889e-06
0.002255205
9.151043e-05
-0.001057251
0.0005089133
-0.0003386784
-0.0003277506
0.01958332
0.003302976
8.236076e-05
0.0196604
0.004451646
9.083902e-06
0.01985064
0.005602815
2.321774e-05
0.02018858
0.006934758
-3.625756e-05
0.02067057
0.008275327
2.823454e-05
0.02149477
0.01034218
-0.0002340734
0.02236965
0.001828333
-0.0006211298
0.004079626
0.003445932
0.003981703
0.02375107
-0.00845519
0.003149606
0.007285791
-0.0001518738
-0.002568897
-0.000512291
0.0007589934
0.002334191
-1.199708e-05
-0.001010091
9.271923e-06
0.001003802
-2.982503e-06
-0.007400344
0.003826006
0.0001571507
-0.002405898
0.005823086
-0.001921398
0.006691787
0.0001970962
-0.005013172
-0.001497876
-0.002075708
-0.002018494
0.005637764
-0.0002323949
-0.0002479424
-1.384097e-05
0.009692082
-4.928577e-05
-0.0004219232
0.0001691556
0.0002361556
7.01508e-05
-0.0004199933
0.0001471961
-0.0004708055
-0.0001155804
8.297023e-05
0.01004322
-0.0001268617
-0.000486626
0.0002399906
0.0002156065
-0.0004178001
-0.0001576507
0.0002456488
0.01003122
-0.0003869729
-0.0004188416
0.0003639154
0.0003229608
-0.0004391249
-0.0002403494
0.0002323811
0.01006242
-0.0001026805
-0.000448728
0.0002939796
0.0002481733
-0.0004582696
-0.0003082943
0.0002943304
0.01002677
9.639402e-05
-0.0004660487
0.0002372693
0.0001836622
-0.0004632678
-0.000348851
0.0003563768
0.01003749
0.0001183117
-0.0004702793
0.0002277611
0.0001482266
-0.0004691281
-0.0003660794
0.0003867596
0.01000223
0.0001851453
-0.0004760076
0.000217609
0.0001252561
-0.0004709642
-0.0003904541
0.0004581396
0.009966402
0.0001931678
-0.000479191
0.0002157737
0.000112929
-0.0004764855
-0.0005159789
0.0005225785
0.009980413
0.0002713082
-0.0004838764
0.0002036716
0.0001041821
-0.0004779947
-0.0005309799
0.0005405642
0.009950487
0.0003095848
-0.0004855229
0.0001983911
0.0001012832
0.0001279905
-0.002078871
0.0004553809
0.008797287
-0.0001760091
-0.002545592
-0.002070296
-0.002509891
0.002367388
0.03901756
0.0008448449
-0.009835356
-0.01031646
-0.01022062
-0.00912209
-0.0005509369
-0.0001441715
-0.0005957276
-9.0354e-05
0.00281628
0.04127652
0.003122644
-0.01061742
-0.0104895
-0.01067184
-0.01048717
0.003360338
0.04056026
0.003965294
-0.01068678
-0.01076028
-0.009583771
-0.01083692
0.004238518
0.04080093
0.00439787
-0.01082507
-0.01070844
-0.0111359
-0.009748432
0.005174434
0.04077563
0.004068708
-0.01079055
-0.01069139
-0.01075908
-0.009803089
0.00579265
0.04086535
0.004365218
-0.01084843
-0.01080901
-0.01083204
-0.01025663
0.00655402
0.04094364
0.004192731
-0.01080512
-0.01073019
-0.01070963
-0.01028748
0.007570697
0.04120084
0.004000202
-0.01078116
-0.01069888
-0.01057361
-0.01054303
0.008354003
0.04126479
0.004098764
-0.01076064
-0.01066158
-0.01064493
-0.01054629
0.04126047
0.003884173
-0.01068669
-0.01059037
-0.01055362
-0.01041114
0.00899361
0.001020922
0.03448289
6.433783e-05
-0.000679817
-0.0001827804
0.001219883
-0.0001609589
-0.008027275
-0.009777248
-0.008345362
-0.009614592
0.001094035
0.03952134
6.64027e-05
0.002204006
0.04057298
0.0009841452
0.003192091
0.03992507
0.0009903515
0.004327678
0.04006593
0.001123296
0.005282414
0.04003012
0.001192629
0.00626251
0.04008577
0.001100901
0.007093977
0.04014049
0.001275032
0.008018041
0.04045182
0.001124054
0.008885566
0.04057743
0.001213786
0.04082664
0.0009283078
0.00971198
0.001196432
0.0330242
0.0002196718
-0.00115318
-1.445294e-05
0.001142408
6.780725e-05
0.001876309
0.03868147
0.0001669065
0.003027622
0.03893838
0.00113788
0.00379869
0.03847731
0.001454884
0.004563702
0.03844183
0.00177711
0.005437364
0.03836472
0.001639128
0.006224085
0.0384247
0.00182876
0.007054768
0.03849132
0.00170923
0.008008386
0.03877536
0.001593999
0.008886738
0.03896653
0.001561196
0.03930283
0.00147205
0.009722605
0.0007123393
0.03223062
6.597278e-05
-0.001169494
4.812366e-05
0.001140946
-4.307913e-06
0.001616269
0.03780927
-1.63832e-05
0.002693967
0.03782521
0.0002484078
0.003634488
0.03741054
0.0002824622
0.004546463
0.03721766
0.0004533311
0.005468506
0.03715551
0.0003715581
0.006395251
0.03716746
0.0004799339
0.007322082
0.0372665
0.000423787
0.008278249
0.03746525
0.0004585949
0.00918817
0.0376781
0.000477219
0.03802569
0.0004871177
0.01006353
0.0008498407
0.03132626
0.0001583651
-0.001161803
-1.966391e-05
0.001097294
-1.96696e-05
0.001889525
0.03672797
9.378867e-05
0.002885529
0.03671447
0.0003092265
0.003778428
0.03639477
0.0002796001
0.004657325
0.03616859
0.0003275914
0.005554423
0.03611083
0.0002773858
0.006458976
0.03606885
0.0003482205
0.007414016
0.03612763
0.0003256052
0.008404259
0.03624904
0.0003371653
0.009394977
0.03643334
0.0003542017
0.03676841
0.0003459887
0.01038959
0.0007924711
0.03053455
6.797004e-05
-0.00113128
-1.462445e-05
0.001090523
-1.334891e-05
0.001794651
0.03574216
4.475776e-05
0.002757441
0.0356846
0.0001560064
0.003688327
0.03537072
0.0001400445
0.004617835
0.03514078
0.0001410012
0.005566107
0.03504604
0.0001251316
0.006547675
0.03497454
0.0001384376
0.007574119
0.03497252
0.0001382664
0.008647758
0.03503724
0.0001384382
0.009754689
0.03517847
0.0001355074
0.03548997
0.0001326711
0.01089116
0.0008315977
0.02970372
7.096977e-05
-0.001106184
-1.570959e-05
0.001063519
-1.336344e-05
0.001821506
0.03475702
6.869938e-05
0.002758648
0.03469631
0.0001402523
0.003680709
0.03436709
0.0001166406
0.004626365
0.03411342
0.0001169403
0.005607893
0.0339796
0.0001035096
0.006623531
0.03388409
9.51891e-05
0.007688755
0.03383036
9.315279e-05
0.008819706
0.03383401
8.555784e-05
0.01003571
0.03389468
7.443148e-05
0.03411284
7.420477e-05
0.01134854
0.0008167906
0.02889338
5.225566e-05
-0.001080639
-1.341851e-05
0.001044022
-8.674847e-06
0.001786366
0.03380159
5.801622e-05
0.00271575
0.03372658
0.0001110783
0.003637659
0.03338062
7.037353e-05
0.004586139
0.03311021
6.849503e-05
0.005560588
0.03294687
5.177855e-05
0.006595356
0.03280767
4.594554e-05
0.007703703
0.03267929
3.588333e-05
0.008924616
0.03258149
2.928314e-05
0.0102955
0.03249562
1.435881e-05
0.03257709
9.174956e-06
0.01181283
0.0008170411
0.02809219
4.404943e-05
-0.001055808
-1.691875e-05
0.001019353
-6.526279e-06
0.001772466
0.03286557
5.566298e-05
0.00269301
0.03278447
9.443702e-05
0.003593501
0.03243714
5.893639e-05
0.004510935
0.03216099
5.288116e-05
0.005463946
0.03196298
3.511713e-05
0.006489662
0.031762
2.724308e-05
0.007605386
0.03155319
1.33423e-05
0.008889417
0.03130289
-5.555029e-06
0.01036155
0.0310397
-2.250884e-05
0.03087777
-3.893897e-05
0.01208995
0.0008000318
0.02730909
3.889573e-05
-0.001031455
-1.852679e-05
0.0009974673
-3.307726e-06
0.001738288
0.031949
4.848116e-05
0.002638207
0.03186998
8.227454e-05
0.003512536
0.03152842
4.625312e-05
0.004402658
0.03124987
3.666553e-05
0.005322333
0.0310276
1.024908e-05
0.006312875
0.03077391
-3.387839e-06
0.007409195
0.03046694
-4.104686e-05
0.008701788
0.03005358
-6.317197e-05
0.01030376
0.02947766
-0.0001166997
0.02900464
-0.0001297871
0.01225127
0.0007897592
0.02653925
3.218857e-05
-0.001007472
-2.056416e-05
0.0009753094
6.17482e-07
0.001710388
0.03105463
4.193624e-05
0.002585339
0.03098708
7.373242e-05
0.003421615
0.03066711
3.931835e-05
0.0042589
0.03040321
2.589168e-05
0.00510093
0.03018977
2.371321e-06
0.005997658
0.02990707
-2.68327e-05
0.006970726
0.02956188
-6.218756e-05
0.008131374
0.02900107
-0.000149169
0.009625895
0.0281352
-0.0001887454
0.02688267
-0.0002403084
0.01191622
0.0007798586
0.02577724
3.38422e-05
-0.0009847528
-2.295646e-05
0.0009526883
3.325651e-06
0.001685945
0.03017508
4.074984e-05
0.002537637
0.03012841
7.182211e-05
0.003332629
0.02985026
3.118763e-05
0.004107891
0.0296246
1.743419e-05
0.004843493
0.02946196
-2.673548e-05
0.005595865
0.02920259
-6.537668e-05
0.006361101
0.02882754
-0.0001860871
0.00735555
0.02810771
-0.0002925552
0.008864992
0.02664347
-0.0005408618
0.02467862
-0.0005539968
0.01117922
0.0007810499
0.02501673
2.585277e-05
-0.0009616307
-2.365459e-05
0.0009313132
7.584823e-06
0.001683767
0.02930148
3.701979e-05
0.002519073
0.0292901
6.581236e-05
0.003279849
0.02907339
2.899432e-05
0.003981927
0.02892811
1.026331e-05
0.004605813
0.02886945
-2.183396e-05
0.005181785
0.02870826
-9.610218e-05
0.005635986
0.02846752
-0.0001785077
0.006058773
0.02757854
-0.0004420207
0.006565666
0.02603628
-0.0005780757
0.005646199
-0.001060376
0.005345178
0.00550829
0.005218759
0.009196651
0.0007942898
0.02424108
2.634875e-05
-0.0009391739
-2.460218e-05
0.0009081045
1.068253e-05
0.001709091
0.02841547
3.78425e-05
0.002547142
0.02844959
6.626222e-05
0.003281576
0.02832194
2.297245e-05
0.003929562
0.02829053
1.302588e-05
0.004369517
0.02844541
-4.787611e-05
0.004650459
0.02853048
-6.490381e-05
0.004202335
0.02884672
-0.0003022981
0.00347885
0.02818486
-0.0003263896
0.0005095089
0.007136524
-0.001029134
0.0004870889
0.0004648986
0.0004816126
4.397867e-05
-5.860458e-05
0.0003885517
0.0003070736
0.006887269
0.007019542
0.006876818
0.0002200548
0.000495825
0.005605702
-0.0001658738
0.0008282668
0.02343201
2.178731e-05
-0.0009164871
-2.430206e-05
0.0008840585
1.574332e-05
0.001784058
0.02749132
3.543103e-05
0.002652744
0.02758109
6.239401e-05
0.003420395
0.02753973
2.070831e-05
0.004054471
0.02766541
5.621429e-06
0.004526107
0.02799588
-3.773734e-05
0.00459968
0.02852995
-7.385311e-05
0.004277025
0.02917519
-0.0001818249
0.0002983032
0.02963353
-0.0002732943
0.0009944801
0.0003277057
0.001049919
0.0003138188
1.478765e-05
0.007293188
-0.0001869672
4.104103e-05
-0.001618973
1.187079e-05
-1.477663e-05
0.001618962
-3.812433e-05
0.0008842659
0.02256537
2.275898e-05
-0.0008938368
-2.45853e-05
0.000857148
2.088662e-05
0.001910299
0.026499
3.661614e-05
0.002856707
0.02663625
6.401063e-05
0.003701908
0.02667956
1.887646e-05
0.004453107
0.02692406
9.895296e-06
0.005017987
0.02744439
-4.048437e-05
0.005398062
0.02822683
-3.175866e-05
0.005203036
0.02933263
-0.0001556611
0.004493581
0.03038568
-2.543201e-05
0.0004588828
0.03234957
0.0001498236
0.001033728
0.0005148246
0.001093115
-0.0003552617
-0.0003382263
-5.568692e-05
3.904616e-05
-0.007685166
-0.007600681
-0.007600265
-0.007510125
-1.986402e-06
-0.008555932
0.00828211
3.244274e-05
0.0001200805
0.0002415289
7.340604e-05
0.0002672325
0.0009600974
0.02162364
2.255241e-05
-0.0008698058
-2.430307e-05
0.0008273553
2.583539e-05
0.002084242
0.02541228
3.704647e-05
0.003136158
0.0255875
6.511169e-05
0.004109894
0.02569043
1.878429e-05
0.005013159
0.0260305
5.351113e-06
0.005782296
0.02668924
-4.327999e-05
0.006404991
0.02767748
-5.610693e-05
0.00646235
0.02926237
-0.0001925703
0.005644802
0.03117909
-0.0001997813
0.0007097628
0.03563654
-5.669496e-05
-0.0001988758
-2.59362e-05
-3.224664e-05
0.0001673134
0.0006211417
0.0006800436
0.000493326
-8.75864e-05
-0.008054641
0.0003734482
0.008394609
8.393162e-05
0.001049946
0.02059303
2.531704e-05
-0.0008441551
-2.544641e-05
0.0007939456
3.100275e-05
0.002290598
0.02421168
4.195687e-05
0.003476373
0.0244031
7.378432e-05
0.004615709
0.02452985
2.731303e-05
0.005746351
0.02490451
1.868548e-05
0.006847749
0.02558905
-3.14339e-05
0.007942278
0.02665216
-2.493193e-05
0.008838626
0.02830593
-0.0001886247
0.009216959
0.03070976
-0.0001989145
0.001062329
0.009092491
-0.0002451056
0.002751061
0.001008677
0.002857091
-0.0002746021
8.247573e-05
-0.0001129116
0.0003590775
0.009726501
0.008976002
0.009570415
0.0002367266
0.01105042
-0.0002289127
-0.009472535
-0.0001641471
-9.100954e-07
-9.128841e-05
-0.0002670263
0.001146431
2.864903e-05
-0.0008158767
-2.727463e-05
0.0007569414
3.599756e-05
0.01946817
0.002512925
4.877848e-05
0.02288792
0.003839238
8.525131e-05
0.0230739
0.005163035
3.951207e-05
0.02317562
0.006535198
2.942628e-05
0.02352614
0.008035882
-2.191846e-05
0.02407403
0.00971199
-2.125806e-05
0.02502555
0.01184192
-0.0001700468
0.02611198
0.003322232
-0.0002750497
0.003839416
0.003250566
0.003790082
0.0280033
0.0002075852
0.003808226
0.008510564
-0.0001116515
9.087196e-05
-0.003000663
-0.001086375
0.001118162
0.002929739
-5.173421e-05
-0.007808037
-0.0003130249
0.006809485
0.0001620688
-0.005490133
0.006639641
-0.0004835544
-3.970231e-05
-0.0002277408
0.01030424
-4.125945e-05
0.00018209
-0.0004882974
0.0001873115
-0.0008147503
0.03752837
-0.001733442
-0.0005859033
-0.001320362
0.001160938
0.001075561
-0.0005979176
0.001167173
-0.001394861
0.001090582
0.0004482415
0.03986703
-0.004889621
-0.001188132
-0.001168105
0.001167493
0.001500595
0.00147946
0.04029814
-0.005263047
-0.001172336
-0.001225513
0.001840184
0.00142187
0.002217635
0.04092692
-0.00473936
-0.001406326
-0.00141025
0.001624665
0.001236662
0.002344339
0.04053898
-0.004152233
-0.001374216
-0.001323166
0.001714321
0.001439274
0.002852949
0.03958069
-0.003058552
-0.00148868
-0.001424754
0.001547589
0.001304277
0.003990886
0.03753272
-0.001980226
-0.001483849
-0.00132639
0.001537735
0.001551038
0.004126792
0.03904449
-0.002130484
-0.001507201
-0.0013873
0.001383839
0.001429677
0.0382501
-0.001048941
-0.001572875
-0.001446944
0.001242489
0.001288666
0.004383357
-0.002087199
8.578403e-05
0.0004547538
0.008816987
-8.150581e-05
-0.002569866
-0.002086124
-0.002532831
0.004758349
0.03982044
0.0006965704
-0.01042724
-0.01062515
-0.0103683
-0.01061837
-0.0007779115
-0.0004318089
-0.0007626786
-0.000419062
0.004598672
0.03904542
0.001765263
0.004478214
0.03937048
0.004582304
0.005064001
0.03942181
0.004688415
0.005705948
0.03944499
0.004908689
0.006806104
0.03932238
0.004481661
0.007375119
0.03925639
0.003948016
0.007247069
0.03863869
0.003022285
0.008014726
0.03953388
0.002841725
0.03921471
0.002353309
0.008580983
0.001450652
0.03472673
3.31838e-06
-0.008386151
-0.009687287
-0.008447002
-0.009595928
0.00143768
0.03996173
-6.191531e-05
0.002429853
0.03872049
0.0003169024
0.003207223
0.03869315
0.0008903095
0.004355925
0.03854459
0.0008518125
0.005390058
0.03844974
0.001153748
0.006433546
0.03848186
0.0008979358
0.007313413
0.03853979
0.001111764
0.007995203
0.03824304
0.0008379125
0.008806196
0.03890379
0.001032874
0.03880538
0.0006393255
0.009504508
0.001884299
0.0328066
0.0002555031
0.002855673
0.03878556
0.0003717043
0.003659844
0.03819862
0.0008555787
0.004188455
0.03823605
0.001383376
0.004893222
0.03819934
0.001417599
0.0056006
0.0379923
0.001389191
0.006407803
0.03811204
0.001391376
0.007268745
0.03806491
0.001323168
0.008068826
0.03789058
0.001146374
0.008883752
0.03842167
0.001228394
0.03850932
0.001049813
0.009602053
0.0008867483
0.03197199
1.383735e-05
0.001838885
0.03773191
8.512872e-05
0.002767194
0.03732044
0.0001982849
0.00373097
0.03719548
0.0003592554
0.00469224
0.03719347
0.0004979261
0.005595548
0.03701263
0.0004479182
0.00656289
0.03708454
0.0005400892
0.00752433
0.03704456
0.0004826995
0.008334178
0.03705607
0.0004832583
0.009189917
0.03750938
0.000533764
0.03775204
0.000473023
0.00996129
0.000935591
0.03111763
7.713343e-05
0.002005949
0.03662045
0.0001348924
0.002868187
0.03653403
0.0002333966
0.003750011
0.03633717
0.0002560872
0.00470125
0.0362208
0.0003490251
0.005634879
0.03603866
0.0003177266
0.006579556
0.03609355
0.0003945372
0.007523906
0.03607564
0.0003501753
0.00844656
0.03612678
0.0003438074
0.009413891
0.03651769
0.000378559
0.03678977
0.0003537478
0.0103684
0.0008176368
0.03032774
4.022498e-05
0.001873205
0.03556438
4.526021e-05
0.002828138
0.03559342
0.0001416859
0.003745182
0.03546081
9.935707e-05
0.004704277
0.03525297
0.0001497314
0.005638869
0.03510367
0.0001255342
0.006632459
0.03508523
0.0001531631
0.007656658
0.03506794
0.0001217581
0.00867657
0.03512064
0.0001246569
0.009787583
0.03539084
0.0001513493
0.03564127
0.0001368018
0.01093195
0.000841661
0.02951849
3.85572e-05
0.00184742
0.03456781
5.951288e-05
0.002802294
0.03466163
0.0001171588
0.003744326
0.03457088
6.453557e-05
0.004689101
0.03431875
0.000106382
0.005651731
0.03416873
7.581969e-05
0.006669889
0.03408011
8.215343e-05
0.007738012
0.03403197
6.099839e-05
0.008868455
0.03402215
5.360446e-05
0.01012468
0.03413861
7.043012e-05
0.03433145
6.543327e-05
0.01144327
0.000817497
0.02873633
1.691978e-05
0.001801562
0.03359817
4.358228e-05
0.002740734
0.0337571
7.643617e-05
0.003687322
0.03364406
5.060479e-05
0.004630745
0.03338297
6.085596e-05
0.005607094
0.03320862
3.553428e-05
0.006646246
0.03305518
3.172324e-05
0.007770084
0.03293176
1.225908e-05
0.009005339
0.03280912
7.064439e-06
0.0103934
0.03276356
1.349837e-06
0.03282717
-7.445795e-06
0.0119143
0.0008156579
0.02795094
1.378154e-05
0.001760713
0.03266885
3.993118e-05
0.002698106
0.03284512
6.902951e-05
0.003622831
0.03271959
5.868515e-05
0.004553138
0.03245504
5.049858e-05
0.005514655
0.03225637
2.584927e-05
0.006541732
0.03203846
1.688572e-05
0.007664741
0.03182673
-4.632278e-06
0.008957978
0.03153692
-2.659964e-05
0.0104486
0.03129236
-4.193126e-05
0.03110561
-6.264475e-05
0.01219386
0.0007962504
0.02717934
1.423934e-05
0.001718456
0.03175883
3.629584e-05
0.002636772
0.03194768
6.139122e-05
0.003535882
0.03181704
4.968464e-05
0.004436695
0.03155578
3.511034e-05
0.005364307
0.03133524
3.765514e-06
0.006358311
0.0310532
-1.213075e-05
0.007466973
0.03073342
-5.640522e-05
0.008781688
0.03024423
-8.519156e-05
0.01038924
0.02970816
-0.0001400534
0.02919414
-0.0001667723
0.0123377
0.0007860686
0.02642144
4.024373e-06
0.001686259
0.0308748
2.577194e-05
0.002580356
0.03107427
5.305228e-05
0.003437816
0.03095589
4.30087e-05
0.004282199
0.03070993
2.736509e-05
0.005126828
0.03049629
-3.304184e-06
0.006023517
0.03016439
-3.471786e-05
0.006993126
0.02979329
-9.166005e-05
0.008172611
0.02908642
-0.0001708452
0.009712672
0.02822736
-0.0002480023
0.02694427
-0.0002921686
0.01201441
0.0007716904
0.02566417
1.94253e-05
0.001657011
0.03000129
2.894453e-05
0.002527578
0.03021656
5.895902e-05
0.003342345
0.03013555
3.67598e-05
0.004120394
0.02992748
2.183274e-05
0.004855312
0.02976465
-3.001977e-05
0.005592662
0.0294289
-6.723263e-05
0.006346434
0.02905008
-0.0001966501
0.007370603
0.02808664
-0.0003169498
0.008863147
0.0267011
-0.0005071484
0.02464805
-0.0005417637
0.01114713
0.0007739193
0.02490936
6.736229e-06
0.001654039
0.02913501
2.317291e-05
0.002506386
0.02937889
5.114185e-05
0.003283485
0.02935428
3.316605e-05
0.003975136
0.02923047
1.562145e-05
0.004578404
0.02917197
-3.241435e-05
0.005042313
0.02895784
-8.894971e-05
0.005389452
0.028753
-0.0002285709
0.005755202
0.02771706
-0.0004381903
0.006297207
0.026181
-0.0005999812
0.005630542
-0.0007911572
0.005313355
0.005494628
0.005229068
0.009008449
0.0007855255
0.02413598
1.420209e-05
0.001676979
0.02825391
2.749484e-05
0.002532223
0.02853505
5.485673e-05
0.00328617
0.0285945
2.880734e-05
0.003926103
0.02858758
1.598581e-05
0.004362883
0.02873747
-5.016511e-05
0.004538862
0.02880302
-8.60674e-05
0.004134286
0.02912404
-0.0002687584
0.003483141
0.02843591
-0.0003940856
0.0004408571
0.007093525
-0.00051354
0.000438656
0.0004465792
0.0004464578
0.006724803
0.006974993
0.006582676
0.0001532505
0.0004877891
0.005529299
-9.893889e-05
0.0008208874
0.02332999
6.891393e-06
0.001751069
0.02733554
2.361797e-05
0.002637842
0.02766212
4.855242e-05
0.003425611
0.02780181
2.562838e-05
0.004058817
0.02794996
1.002966e-05
0.004528255
0.02827253
-4.223263e-05
0.004569526
0.02876652
-7.861605e-05
0.004309813
0.02937551
-0.0001735836
0.0003571188
0.02979264
-0.000261284
0.001134124
0.0003184674
0.001131354
0.0001683401
8.175642e-05
0.007252264
-5.171648e-05
2.875228e-05
-0.00156348
-3.272977e-06
-1.604018e-05
0.001572566
-1.852459e-05
0.0008779198
0.0224677
7.126039e-06
0.001875785
0.02634939
2.490409e-05
0.002841507
0.02671124
4.917006e-05
0.003710589
0.02692799
2.361059e-05
0.004466384
0.0271916
1.246733e-05
0.005042009
0.02770106
-4.464035e-05
0.005395031
0.02842437
-4.263447e-05
0.00533659
0.02941743
-0.0001391423
0.005031554
0.03014681
-7.45626e-05
0.0005641285
0.03158464
0.0001054224
0.001144436
0.000710367
0.001203593
-0.007697581
-0.007449867
-0.00762331
-0.007360449
-0.008486617
-1.385103e-05
0.008172247
4.158277e-06
0.0001609287
7.706214e-05
0.0002988731
0.0003513278
0.0009548768
0.02153145
3.926997e-06
0.00204748
0.02526988
2.394684e-05
0.003118858
0.02565659
4.837881e-05
0.004117515
0.02592409
2.402609e-05
0.00502234
0.02628249
9.631395e-06
0.005793199
0.02693189
-4.496613e-05
0.006349597
0.02787042