/*--------------------------------*- C++ -*----------------------------------*\
  =========                 |
  \\      /  F ield         | OpenFOAM: The Open Source CFD Toolbox
   \\    /   O peration     | Website:  https://openfoam.org
    \\  /    A nd           | Version:  7
     \\/     M anipulation  |
\*---------------------------------------------------------------------------*/
FoamFile
{
    version     2.0;
    format      ascii;
    class       volScalarField;
    location    "0.1";
    object      Ux;
}
// * * * * * * * * * * * * * * * * * * * * * * * * * * * * * * * * * * * * * //

dimensions      [0 1 -1 0 0 0 0];

internalField   nonuniform List<scalar> 
105056
(
0.009022272
0.01804861
0.02695353
0.03570505
0.04455758
0.008022201
0.01769327
0.0268833
0.03574565
0.0444884
0.007018989
0.01736155
0.02675602
0.03569145
0.04453064
0.006118194
0.01716172
0.02671239
0.03575332
0.04463849
0.005411777
0.01697083
0.0267233
0.03583815
0.04479991
0.004701909
0.01674754
0.02676336
0.03596359
0.04497502
0.003959815
0.01656451
0.02683724
0.03612013
0.04518969
0.003179674
0.01646373
0.0269581
0.03630995
0.04543876
0.002442933
0.01638407
0.0270892
0.03652122
0.0457178
0.001799365
0.0163303
0.0271748
0.0367492
0.04602617
0.001167888
0.01628609
0.02734472
0.03701547
0.04636708
0.0005086116
0.01623028
0.02750348
0.03730453
0.04673716
-0.0001159617
0.01618853
0.02767792
0.03760558
0.04713251
-0.0007325094
0.01616622
0.02789067
0.03790057
0.04755524
-0.001304665
0.01616285
0.02811766
0.03828836
0.04801252
-0.001851599
0.01616593
0.02835679
0.0386135
0.04848003
-0.002351044
0.01617952
0.0286468
0.03897598
0.04895194
-0.00282281
0.016232
0.02891957
0.03938094
0.04950117
-0.003270655
0.0162891
0.02921162
0.0397884
0.05004336
-0.00371289
0.01634482
0.02950809
0.04021365
0.05055486
-0.004139951
0.01640908
0.02983104
0.04065839
0.05109473
-0.004529787
0.0164764
0.03016653
0.0411217
0.05167982
0.01738935
0.01652747
0.03050699
0.04158672
0.05225899
0.01048691
0.01839994
0.02714235
0.03584668
0.0445725
0.001693615
0.01300889
0.02152074
0.0302928
0.03894602
0.04763734
0.00213228
0.01302969
0.02150642
0.03032935
0.03908816
0.04785109
0.002038179
0.01297041
0.02162104
0.03038221
0.03915185
0.04790487
0.002081289
0.01303511
0.02162851
0.03047398
0.03928213
0.04807891
0.00219807
0.01311617
0.02165103
0.03057665
0.03941422
0.0482421
0.002305324
0.01327697
0.02168093
0.03072645
0.03957048
0.04846423
0.002366529
0.01339704
0.02171987
0.0308849
0.03974822
0.04870237
0.002399168
0.01351642
0.02179318
0.03106811
0.039958
0.04898103
0.002462282
0.01359166
0.02188671
0.03125487
0.04019306
0.04928268
0.002475973
0.01367942
0.02202237
0.03146476
0.04046253
0.04962042
0.002520018
0.01379264
0.02215104
0.03168892
0.04074971
0.04998475
0.002573922
0.01392031
0.022298
0.03193716
0.04106524
0.0503824
0.002619561
0.01406285
0.02244526
0.03220097
0.04140193
0.0508077
0.002632299
0.01420808
0.02261691
0.03248289
0.04176279
0.05126421
0.002639768
0.01436926
0.02279464
0.03278343
0.04214317
0.05174192
0.002623747
0.01452231
0.02299471
0.0330994
0.04254792
0.05224758
0.002682702
0.01471625
0.02317815
0.03342843
0.04296371
0.05277636
0.002736161
0.01489927
0.02338802
0.03377041
0.04340078
0.05332695
0.002832712
0.01510704
0.02358999
0.03412433
0.04385285
0.05389555
0.002891267
0.01531459
0.0238115
0.03448775
0.0443208
0.05448206
0.002925972
0.01553104
0.02404507
0.03485187
0.04479888
0.05507994
0.002946257
0.01574272
0.02429417
0.03522009
0.04528956
0.05569464
0.0007591766
0.01596279
0.02456238
0.03559005
0.04578715
0.05632158
0.01053243
0.01863137
0.0275105
0.03646928
0.04537992
0.001583342
0.01303603
0.02176887
0.03039227
0.03902807
0.04769274
0.002666172
0.01279052
0.02166253
0.03029104
0.03915011
0.04790252
0.002591273
0.01276353
0.02156568
0.03041626
0.03922592
0.04795238
0.002663552
0.01272881
0.02180814
0.03046241
0.03936132
0.04810861
0.002801357
0.01281035
0.02193473
0.03061175
0.03951391
0.04827938
0.002955747
0.01299521
0.02196409
0.03076348
0.03967075
0.04849527
0.003158031
0.01315604
0.02201874
0.03093757
0.03985818
0.04873987
0.00334988
0.01325132
0.02212985
0.03112305
0.04007828
0.04901794
0.003531045
0.01329962
0.02225487
0.03131405
0.04032442
0.04932448
0.003697459
0.01335598
0.02241606
0.03152536
0.04060093
0.04966359
0.003833518
0.01343744
0.02257249
0.03175541
0.04089961
0.05003275
0.003969651
0.01354024
0.02275191
0.03200829
0.04122316
0.05043336
0.004135989
0.01365205
0.02293105
0.03227672
0.04156696
0.0508621
0.004301509
0.01376038
0.02313732
0.03256513
0.04193405
0.05131927
0.004471075
0.01389788
0.02331978
0.03286859
0.04231824
0.05180198
0.004583943
0.01401824
0.02353885
0.03318998
0.04272224
0.05230969
0.004678972
0.01421462
0.02371737
0.03352794
0.04314234
0.05283992
0.004772721
0.01438245
0.02394396
0.03388022
0.04358171
0.05339152
0.004822029
0.01454862
0.02419219
0.03424412
0.0440405
0.05396217
0.004926017
0.01472005
0.02444578
0.03462048
0.04451273
0.05454972
0.005086748
0.01488642
0.02470785
0.03500594
0.04500114
0.05515303
0.005231886
0.01504793
0.02497841
0.03539911
0.04549917
0.05576809
0.005422486
0.01521642
0.02525662
0.03580173
0.04601185
0.05639626
0.01036506
0.01868924
0.02753156
0.03650012
0.04533587
0.001542803
0.01296002
0.02187482
0.03039804
0.03897848
0.04764282
0.002482675
0.01258052
0.02166473
0.03013594
0.03913803
0.04789312
0.002493439
0.01257361
0.02139251
0.0303613
0.0391898
0.04792941
0.00240522
0.01254315
0.02183629
0.03036144
0.03936148
0.04809428
0.002541872
0.01257557
0.02194612
0.03057631
0.03952056
0.04826828
0.002638609
0.01281501
0.02203076
0.03073961
0.03967325
0.04848883
0.003038756
0.01303595
0.02205965
0.03091034
0.03985239
0.04873301
0.003288103
0.01315473
0.02215337
0.0310971
0.04006574
0.0490114
0.003451298
0.01320283
0.02226575
0.03128279
0.04030474
0.04931516
0.003603733
0.01323919
0.022428
0.03148921
0.04057694
0.04965218
0.003773798
0.01331069
0.02258209
0.03171398
0.04086937
0.05001811
0.003997293
0.01341784
0.02275193
0.03196498
0.04118788
0.05041634
0.004087535
0.01354598
0.02292092
0.03223238
0.0415269
0.0508424
0.004323966
0.01365298
0.0231197
0.03251868
0.0418911
0.05129734
0.004421037
0.0138002
0.02331085
0.03282104
0.04227521
0.05177765
0.004602408
0.01389723
0.02354454
0.03313792
0.04268183
0.05228427
0.004458142
0.01406156
0.02378514
0.03347593
0.04310616
0.05281408
0.004856691
0.01426996
0.02398326
0.03382447
0.04354325
0.05336445
0.004921017
0.0144292
0.02423548
0.03418437
0.04400018
0.05393456
0.00518116
0.01462259
0.0244598
0.03455742
0.04446604
0.05452158
0.005138754
0.01475525
0.02473342
0.03493539
0.04494809
0.05512382
0.005365798
0.0149819
0.02494234
0.0353228
0.04543332
0.05573815
0.005424377
0.01514623
0.02522834
0.03571888
0.04593268
0.05636431
0.01034365
0.01860568
0.02756821
0.03649016
0.04531151
0.001524141
0.01294241
0.02192912
0.0303785
0.03898629
0.04769274
0.00219536
0.01251212
0.02165051
0.03004725
0.03915139
0.04788082
0.001884638
0.01256195
0.02121214
0.03033775
0.03919765
0.04794032
0.001860342
0.01250449
0.02181184
0.03031964
0.03937758
0.04809195
0.001918471
0.01254369
0.02194154
0.03057468
0.03954883
0.04827585
0.002630363
0.01272647
0.02207233
0.03073305
0.03970158
0.04849383
0.002933709
0.01293939
0.02211053
0.03090518
0.03988373
0.04874064
0.003188543
0.01306429
0.02219783
0.03109221
0.04009705
0.04901835
0.003176246
0.01307927
0.02233831
0.03127747
0.04034003
0.04932325
0.003581123
0.01315844
0.02246042
0.03148687
0.04060882
0.0496605
0.003785778
0.01323503
0.02261159
0.03171334
0.04090277
0.05002726
0.004005877
0.01335152
0.02277776
0.03196644
0.04122193
0.05042599
0.004113162
0.01351944
0.02293775
0.03223784
0.04156286
0.05085305
0.00430768
0.01363935
0.0231345
0.03252494
0.04192819
0.05130844
0.004370249
0.01377142
0.02333629
0.03282837
0.04231451
0.05179004
0.004616681
0.0138814
0.02355987
0.033144
0.04272123
0.05229699
0.004139012
0.01393112
0.02387683
0.03347337
0.04315649
0.05282694
0.004306763
0.0140776
0.02410032
0.0338186
0.04359708
0.0533774
0.004658652
0.01425766
0.02434572
0.03417921
0.04405813
0.05394822
0.004637018
0.01443067
0.02458747
0.03455171
0.04452772
0.05453533
0.004588734
0.01454238
0.0248779
0.03493226
0.04501826
0.05513997
0.004691926
0.01471177
0.02512405
0.03531759
0.04550773
0.05575334
0.005041116
0.01493453
0.02538457
0.03572447
0.04602283
0.05638736
0.01045327
0.0187034
0.02758573
0.03641604
0.04529158
0.001529625
0.01294547
0.02192506
0.03039168
0.03898348
0.04767013
0.002368934
0.01251116
0.02165549
0.03004535
0.03915266
0.04787985
0.001939513
0.01255494
0.02120851
0.03033698
0.03919489
0.04793794
0.001873999
0.01249908
0.02180853
0.03031725
0.03937572
0.04809133
0.00196794
0.01251215
0.02193477
0.03057073
0.03954661
0.04827481
0.002743816
0.01274971
0.02205824
0.03073545
0.03969845
0.04849403
0.003031613
0.01297821
0.02207764
0.0309076
0.03987844
0.04874031
0.003233315
0.01308637
0.02217831
0.03109404
0.04009337
0.04901812
0.003338886
0.01311539
0.0223057
0.03127899
0.04033556
0.04932287
0.003491363
0.01316977
0.02245424
0.03148715
0.04060771
0.04966035
0.003547793
0.01324845
0.02261273
0.03171473
0.04090249
0.05002723
0.003534345
0.01336973
0.02277982
0.03196631
0.04122332
0.05042582
0.003488036
0.01349684
0.02295522
0.03223742
0.04156433
0.05085307
0.003758272
0.01364852
0.02313226
0.03252525
0.04192812
0.05130826
0.003814783
0.01376794
0.02333878
0.0328277
0.04231362
0.05178963
0.004018708
0.01389716
0.02355743
0.03314441
0.04271953
0.05229628
0.004020734
0.01400304
0.02380649
0.0334768
0.04314565
0.0528257
0.004196018
0.01413136
0.02404501
0.03382027
0.04358714
0.05337566
0.0044042
0.01430418
0.02428255
0.03417862
0.04404425
0.05394534
0.004375285
0.01443842
0.02455044
0.03454583
0.04451569
0.0545316
0.00452322
0.0145794
0.02481517
0.03492185
0.04499792
0.05513268
0.004679662
0.01474929
0.02506916
0.03530386
0.0454867
0.05574499
0.004885763
0.01497402
0.02529841
0.03569667
0.04597867
0.05636553
0.01050878
0.01874328
0.02761171
0.03647338
0.04534089
0.001537468
0.01297061
0.02187535
0.03039005
0.03896604
0.04768035
0.00231021
0.01257527
0.02166552
0.03013297
0.03913822
0.04788448
0.002189419
0.01257095
0.02138916
0.03036109
0.03919241
0.04793458
0.00185711
0.01252847
0.02183679
0.03036416
0.03936057
0.04809402
0.002187065
0.01256975
0.02195003
0.03057798
0.03952039
0.04826948
0.002662004
0.01284454
0.02201154
0.03074348
0.03966968
0.04848941
0.003046159
0.01305856
0.0220429
0.03091365
0.03984908
0.04873326
0.003356943
0.01316674
0.02213667
0.0310998
0.04006133
0.04901143
0.003583258
0.01320051
0.02225672
0.03128498
0.04030075
0.04931519
0.003741308
0.01324399
0.02240898
0.03149228
0.04057136
0.04965227
0.003709671
0.01337083
0.02253554
0.03172099
0.04086195
0.05001836
0.003848013
0.01346352
0.02272145
0.0319689
0.04118303
0.05041634
0.003849786
0.01354209
0.02292363
0.03223461
0.04152615
0.0508428
0.004075271
0.01367389
0.02310985
0.0325197
0.0418904
0.05129772
0.004114543
0.01379455
0.02332223
0.03282303
0.04227768
0.05177864
0.004403658
0.013951
0.02353204
0.03314094
0.04268375
0.05228507
0.00451627
0.01408458
0.0237799
0.03347425
0.04311169
0.05281518
0.004664675
0.01424195
0.02401072
0.03381927
0.04355242
0.05336534
0.004810747
0.01438535
0.02427286
0.03417981
0.04401258
0.05393638
0.004981165
0.01456076
0.02451633
0.03454811
0.04447988
0.05452126
0.005091499
0.01475928
0.0247618
0.03493662
0.04496891
0.05512811
0.005299693
0.01494291
0.02500073
0.03530821
0.04544887
0.05572958
0.005221759
0.01512848
0.02528323
0.0357303
0.04599228
0.05638142
0.01038557
0.01854871
0.02746809
0.0364208
0.04535373
0.001552584
0.01304199
0.02177137
0.03039218
0.03901703
0.0477201
0.00256807
0.01279279
0.02166111
0.03029209
0.03914983
0.04790176
0.002590922
0.01277418
0.02156659
0.03041755
0.03922501
0.04795617
0.002599895
0.01273649
0.02180203
0.0304599
0.03935942
0.04810833
0.002741827
0.01281767
0.02192337
0.03061219
0.03951109
0.04827961
0.002991133
0.01299859
0.02194435
0.03076407
0.03966568
0.04849486
0.003334936
0.01315066
0.02199812
0.03093639
0.0398522
0.04873902
0.003639759
0.01324081
0.02210992
0.03112087
0.04007225
0.04901667
0.00388011
0.01328642
0.02223621
0.03131147
0.0403184
0.04932315
0.004000661
0.01334642
0.02239629
0.03152286
0.04059567
0.04966229
0.004175933
0.01343704
0.02255845
0.03175477
0.04089553
0.05003199
0.0043786
0.01354633
0.02273911
0.03200722
0.04122113
0.05043264
0.004515744
0.01364894
0.022937
0.0322776
0.04156744
0.05086219
0.00464848
0.01377387
0.02312686
0.03256556
0.04193379
0.05131934
0.004769722
0.01389854
0.02333215
0.03287106
0.04231959
0.0518029
0.004913914
0.01406027
0.02351621
0.03319199
0.04272166
0.05231003
0.005030205
0.0142051
0.02373589
0.03352896
0.0431436
0.05284069
0.005164121
0.01437562
0.0239492
0.03387818
0.04358191
0.05339131
0.005357642
0.01454438
0.02418113
0.0342383
0.04403701
0.05396072
0.00553067
0.01470327
0.02444483
0.03460849
0.04450858
0.054546
0.005673452
0.01486853
0.02470726
0.03498706
0.04498818
0.05514369
0.005800219
0.01502753
0.02497695
0.03536779
0.04547492
0.05574908
0.005885723
0.01517684
0.02524491
0.03574182
0.04594864
0.05634226
0.01059878
0.01860008
0.02738889
0.03623876
0.04503536
0.001576752
0.01301404
0.02151657
0.03029082
0.03894386
0.04763798
0.002485948
0.01303
0.02150807
0.03033009
0.0390882
0.04785242
0.002588838
0.01297239
0.02162124
0.03038245
0.0391519
0.04790643
0.002737739
0.01303512
0.02163032
0.03047404
0.03928177
0.04807922
0.00286066
0.01311268
0.0216573
0.03057706
0.03941429
0.04824243
0.002906303
0.013272
0.02168672
0.03072581
0.03956964
0.04846413
0.002990987
0.01339112
0.02171821
0.03088379
0.03974636
0.0487014
0.003122295
0.01351261
0.02178582
0.03106603
0.0399546
0.04898014
0.003238574
0.01358926
0.02187714
0.03125311
0.04018975
0.04928147
0.003358776
0.01368376
0.02200807
0.03146286
0.04045822
0.04961912
0.003469946
0.01379528
0.02214312
0.03168865
0.04074688
0.04998396
0.003552456
0.01392631
0.0222881
0.0319364
0.04106205
0.05038148
0.003637846
0.01406281
0.0224476
0.03220155
0.04140191
0.05080753
0.00372278
0.01421481
0.02261521
0.03248338
0.04176256
0.05126413
0.003811331
0.01437195
0.02280556
0.03278581
0.04214639
0.05174311
0.003915174
0.01453506
0.02300042
0.03310152
0.04255046
0.05224879
0.004018368
0.01470123
0.02320964
0.03342988
0.04297078
0.05277864
0.004126867
0.01487918
0.02341905
0.03376802
0.04340659
0.05332793
0.004242374
0.01508259
0.02362386
0.03412178
0.04386174
0.0538973
0.004347128
0.01528818
0.0238365
0.03447469
0.04432141
0.05447527
0.004426126
0.01551122
0.0240758
0.03484648
0.04481267
0.05507803
0.004493076
0.01571229
0.02430159
0.03517384
0.04526412
0.05564386
0.0007574141
0.01596567
0.0246171
0.03560689
0.04587405
0.05633638
0.008488866
0.02010442
0.03054231
0.04088907
0.05102047
0.0001314985
0.009553115
0.01861694
0.02753823
0.0363091
0.04514663
0.0004368167
0.008745792
0.0182828
0.02725039
0.03614324
0.04496057
0.0001571684
0.008230663
0.0181337
0.0271899
0.03611208
0.04495847
5.517859e-06
0.007851946
0.01804912
0.02719736
0.03618006
0.04504943
-0.0001735361
0.007590576
0.01798211
0.0272473
0.03628816
0.04520088
-0.0002785509
0.00738806
0.01793534
0.0273404
0.03642633
0.04539012
-0.0003950975
0.007186706
0.01789898
0.02746906
0.03659324
0.04561293
-0.0005017843
0.007003099
0.01788868
0.02763216
0.03679036
0.04586619
-0.0006558849
0.006828652
0.01792158
0.02778967
0.03700756
0.04614715
-0.0008135183
0.006664028
0.01798964
0.02794191
0.0372487
0.04645843
-0.0009628596
0.00652413
0.01806221
0.0281179
0.03752919
0.04680292
-0.001066705
0.006412509
0.01815301
0.02831328
0.0378436
0.04717904
-0.001113332
0.006324624
0.01826045
0.02854267
0.03816166
0.04757901
-0.001051658
0.006235456
0.01837456
0.02878873
0.0384996
0.04800847
-0.001001442
0.006150079
0.01849815
0.02905265
0.03883882
0.04847516
-0.0008843274
0.006071497
0.01863114
0.02934249
0.03919233
0.04896381
-0.0008802862
0.006018106
0.01877492
0.02963515
0.03958246
0.04946416
-0.0009003291
0.005987905
0.01892991
0.0299404
0.03999425
0.04998887
-0.001084669
0.005986589
0.01910375
0.03026377
0.04042259
0.05051829
-0.001186472
0.005982499
0.01930109
0.03060242
0.04087065
0.05106958
-0.001145332
0.005973569
0.01952629
0.0309685
0.04134278
0.05165582
-0.001006726
0.005967458
0.01977034
0.03134793
0.04184281
0.05227939
-0.0008535605
0.01735726
0.02003131
0.03177436
0.04243902
0.05300691
0.008274438
0.008923156
0.000302469
0.006542434
0.00877479
0.0185521
0.0084749
0.01803364
0.009913512
0.01531371
0.01838048
0.02860708
0.02011118
0.02785646
0.01873665
0.02415581
0.02777838
0.03840366
0.03049947
0.03860592
0.02749527
0.03286455
0.03741105
0.04816906
0.04087277
0.0484644
0.03623468
0.0414933
0.04705053
0.05100274
0.04497307
0.007972442
0.0006293512
0.006331744
0.008391668
0.0004052477
0.006389436
0.008409983
0.0004252323
0.006325583
0.008436168
0.0004228969
0.006275832
0.008358321
0.00041968
0.006255942
0.008344388
0.0003929119
0.006197078
0.00824113
0.0004503839
0.006231935
0.008223028
0.0004106084
0.00616798
0.008207574
0.0004119507
0.006206987
0.008247189
0.000380145
0.006210752
0.008299603
0.0004129009
0.006207892
0.008303941
0.0003659212
0.006230498
0.00834837
0.0003708682
0.006274234
0.008423702
0.0003674615
0.006312479
0.008356635
0.0003810367
0.006379621
0.007995822
0.0006365254
0.006321515
0.008920428
0.0002973838
0.006536581
0.008277796
0.02784553
0.01873555
0.02416356
0.01838022
0.02860808
0.03870422
0.02749295
0.0328595
0.02778521
0.03839823
0.04852055
0.03623703
0.04149131
0.03742191
0.04817396
0.04497512
0.04706149
0.00595059
0.001212593
0.007074219
0.005803401
0.009351737
0.0056391
0.001454248
0.007837729
0.004326131
0.01068331
0.005352422
0.00132095
0.00860157
0.003240034
0.01172336
0.005069214
0.001552957
0.009166161
0.002168665
0.01260556
0.004764032
0.001716931
0.009616442
0.001175473
0.01345958
0.00453477
0.001742775
0.01007069
0.0001464786
0.01437399
0.004387919
0.00177142
0.01047403
-0.0008625398
0.01514138
0.004333302
0.001756283
0.010893
-0.001818205
0.01593919
0.004147882
0.001710499
0.01129495
-0.002704113
0.01659751
0.003965744
0.001816274
0.01170388
-0.003603073
0.01720993
0.003823088
0.001798484
0.01210827
-0.004481101
0.01773667
0.003434183
0.001874144
0.01374865
-0.007644457
0.01921072
0.003326326
0.0019211
0.01414713
-0.008336035
0.01943575
0.003222414
0.001920573
0.01455463
-0.009005929
0.01965211
0.003117903
0.001863558
0.01498925
-0.009590008
0.01981396
0.003050557
0.001758616
0.01541816
-0.01017472
0.01994412
0.002869646
0.001975667
0.0166959
-0.01216365
0.008367131
0.002622993
0.003745893
0.011441
0.008899044
0.009032608
0.01352304
0.005807715
0.009348586
0.0001345912
0.00594969
0.001190302
0.007073283
0.004326501
0.01068174
0.0004298444
0.005640077
0.001411391
0.00783817
0.00323895
0.01172244
0.0001516053
0.005352263
0.001305641
0.008599583
0.002167841
0.01260752
1.096402e-05
0.005068277
0.001514352
0.009175055
0.001176972
0.01346214
-0.0001708696
0.004764562
0.001662197
0.009631253
0.0001455421
0.01438105
-0.0002757222
0.004534839
0.001700948
0.01008077
-0.000863993
0.01513749
-0.0003985589
0.004387465
0.001742817
0.01047394
-0.001817034
0.01594022
-0.0004969637
0.00433235
0.00174832
0.01088744
-0.002709187
0.01659889
-0.0006671852
0.004150481
0.001688395
0.01127129
-0.003599255
0.01719842
-0.0008153289
0.003969041
0.001796585
0.01165803
-0.004491625
0.01772
-0.0009705722
0.003823662
0.001802227
0.01207149
-0.005331736
0.01817228
-0.001052441
0.003701547
0.001796168
0.01250179
-0.006141122
0.01855968
-0.001125813
0.003600529
0.001811214
0.01293437
-0.006904547
0.0188876
-0.001056185
0.003516853
0.001852061
0.01334492
-0.007653912
0.0191821
-0.001000359
0.003430802
0.001873684
0.01375412
-0.008346715
0.01942714
-0.0009063737
0.003329966
0.001882787
0.01419262
-0.008997406
0.0196526
-0.0009578199
0.003237361
0.001901287
0.0146705
-0.009580805
0.01979944
-0.001011831
0.003131844
0.001841941
0.01510877
-0.01016697
0.0199274
-0.001183232
0.003065523
0.001795092
0.01552797
-0.01069569
0.01999909
-0.001199197
0.003010247
0.001766963
0.01591088
-0.01121884
0.020036
-0.001182913
0.002970422
0.001846753
0.01625711
-0.01168142
0.02000017
-0.001055837
0.002927304
0.001958096
0.01655913
-0.01216006
0.008405483
-0.0008966974
0.002897489
0.001980156
0.01681524
0.002634124
0.002673642
0.002737844
0.002758927
0.002821316
0.002766957
0.002789044
0.002798868
0.002851773
0.002827023
0.002841067
0.002799294
0.002788877
0.002780113
0.002691383
0.002746942
0.00259916
0.002447862
0.018037
0.009915618
0.01531032
0.00875264
0.0185514
0.003702226
0.001772457
0.01251845
-0.005333254
0.01817564
0.003595851
0.001797913
0.01294183
-0.006136434
0.01855712
0.003516124
0.001833974
0.01334433
-0.006911598
0.01889704
0.002993479
0.00179181
0.01581916
-0.01070634
0.02001013
0.002948214
0.001833985
0.01616995
-0.01122345
0.02003417
0.002903951
0.001956846
0.01646836
-0.01169151
0.01999691
0.004398092
0.009183873
0.007367632
0.003867878
0.002300819
0.004150864
0.003031551
0.002481923
0.00260161
0.002456142
0.01333343
0.01942723
0.01654894
0.01373072
0.002731182
0.002711233
0.002756246
0.002746197
0.002798799
0.002738599
0.00279294
0.002775997
0.002830025
0.002773708
0.002796785
0.002760478
0.002759877
0.002758018
0.002624398
0.002648019
0.00262534
0.003747505
0.004396672
0.00917645
0.007366127
0.003866837
0.002302941
0.004149618
0.003030644
0.002481828
0.0202264
0.02016462
0.01828358
0.02348766
0.0222437
0.02970699
0.02565674
0.02379774
0.02904645
0.03080265
0.02737655
0.0333157
0.0309297
0.03966145
0.03457403
0.03392336
0.0376081
0.04117226
0.03631228
0.04278689
0.03944958
0.0494581
0.04341576
0.04376261
0.04610739
0.05118436
0.04518601
0.05210062
0.04792051
0.05336692
0.003465914
0.001673609
0.001771063
0.004451874
0.001972256
0.005395148
0.004282772
0.001323234
0.004249506
0.0002716646
0.000647964
0.005561243
0.001699359
0.006669016
0.005374657
0.0003506126
0.004995904
-0.001005185
-1.314598e-05
0.006282839
0.001312792
0.007728009
0.006414088
-0.0007730612
0.005699457
-0.002239006
-0.0006215545
0.006784186
0.0009580957
0.008528963
0.007281568
-0.001869875
0.006351893
-0.003405669
-0.00130982
0.00728543
0.0006173099
0.009124991
0.008111323
-0.002825813
0.006985483
-0.004534761
-0.001926264
0.007654339
0.0003059469
0.009581209
0.008895569
-0.00383029
0.007630401
-0.005642054
-0.002470194
0.007907428
5.097851e-05
0.009913066
0.009602367
-0.004789102
0.008343606
-0.006592252
-0.002833144
0.008044578
-4.517211e-05
0.01013509
0.01028482
-0.005763919
-0.000140197
0.01028783
0.01093933
-0.006577566
0.009592647
-0.008291857
-0.003637879
0.008238282
-0.0001963174
0.01042697
0.01154767
-0.007354046
0.01018102
-0.008957599
-0.004050909
0.008261187
-0.000207333
0.01051402
0.01214492
-0.008046852
0.01231483
-0.01118176
-0.005371072
0.007844256
0.01276081
-0.01154597
-0.005586247
0.007607796
-6.516632e-05
0.0101391
0.01468648
-0.01076171
0.01319156
-0.01191547
-0.005773291
0.007305715
3.839852e-07
0.009910648
0.0151092
-0.01118992
0.01360548
-0.01220816
-0.005933904
0.006988322
8.052078e-05
0.00965719
0.01548341
-0.01155485
0.01399591
-0.01248232
-0.006063547
0.006595699
0.000202155
0.009333206
0.01585614
-0.01191941
0.000710543
0.001776036
-0.0128584
0.01697132
0.0007253477
0.0008303379
0.0007301153
0.0009043898
0.0008690422
0.0008416278
0.0007638356
0.0009447664
0.0008872146
0.0008518823
0.0008228276
0.000839139
0.0008510401
0.0008042112
0.0008284655
0.0008370252
0.0009955964
0.0006730329
0.0008503618
0.000747765
0.0008125286
0.0007604858
0.0008139718
0.000871311
0.000865043
0.0008231835
0.0007876646
0.0009351543
0.0009004902
0.0008198094
0.0007382264
0.0008650115
0.0007261635
0.0008823589
0.0007208247
0.0009565446
0.0006989983
0.0009391167
0.000718728
0.0008350589
0.006017886
0.007760614
0.008195164
0.006065956
0.0009850784
0.0009643809
0.001030886
0.0004384271
0.02317258
0.02539337
0.02680129
0.02314949
0.02667006
0.0263936
0.02669767
0.02751404
0.0006272175
0.0002692498
0.0007818214
0.0001698533
0.001220183
0.001409808
0.0002918122
0.001437505
0.0006067084
-4.605529e-05
0.0008914689
-0.0002458521
0.00168252
0.001946789
-0.0001151678
0.002036208
0.001894774
0.002141404
-0.0002729264
0.002276148
0.001020977
-0.0008688827
0.001225299
-0.001465122
0.002115638
0.00230166
0.002480525
-0.0003826763
0.001102038
-0.001113602
0.00131118
-0.001847763
0.002330436
0.002418869
-0.0004722822
0.002653317
0.001191239
-0.001325498
0.001395614
-0.002196301
0.002496446
0.00250524
0.002786879
-0.000544408
0.00896729
-0.007452544
-0.003251718
0.008176871
0.002807374
0.002646635
-0.0006037247
0.003042648
0.001294236
-0.001803681
0.001546345
-0.002994879
0.002933145
0.002695092
-0.0006098492
0.003130598
0.001307163
-0.001923568
0.001551755
-0.003217832
0.00305302
0.002728723
0.003196297
-0.0006034984
0.001484894
-0.002226583
-0.003985188
0.001542463
-8.333832e-05
0.01032529
0.01425386
-0.01030985
0.001529203
-0.00227478
0.001529409
-0.004123867
0.00397863
0.002578372
0.003233295
7.95586e-05
0.01524235
-0.01310245
-0.006380715
0.004654503
0.004380093
0.002306565
0.0004939599
0.002753778
0.00149853
0.00320178
0.003427923
0.001715494
0.0008127129
0.000739565
0.0007734205
0.0005248718
0.000688498
0.0009154928
0.0009390204
0.0007143119
0.0008470424
0.0008312411
0.0008223053
0.0008903538
0.0008451294
0.0008433957
0.0007666602
0.0008782037
0.0007701284
0.0008793157
0.0007609472
0.0009071213
0.0007192478
0.0008270203
0.0008646609
0.0006471857
0.008893155
0.009034854
0.01351719
0.01144823
0.0194265
0.01655897
0.01374137
0.01333056
-0.009563595
-0.004439631
0.008225074
0.01075681
0.01053194
-0.008708344
-0.0001864395
0.01271817
-0.01016409
0.00816374
0.01132314
-0.004794201
0.01051025
-0.009291646
-0.0001366353
0.01326546
-0.01071001
0.008012717
0.0118442
-0.005093357
0.01043538
0.01376775
-0.009842861
-0.000112081
-0.0126943
-0.006186421
0.006184378
0.01436685
0.00891967
-0.01221442
0.0003170728
0.01617819
-0.0129088
0.005693235
0.01468084
-0.006275557
0.008454266
-0.01248818
0.0004338541
0.01646395
-0.01303281
0.005203852
0.01497891
-0.006352126
0.007949043
0.01673566
-0.01268729
0.0005627039
0.0008672717
0.0007068857
0.0007758819
0.0009256652
0.0008671817
0.0008890447
0.0009246039
0.0008514119
0.0008097028
0.0008635298
0.0009283963
0.0007523944
0.0008841453
0.00073539
0.0009216116
0.0006859594
0.0009444729
0.000718876
0.0007059361
0.0008978633
0.001508433
0.003206862
0.001674532
0.003422338
0.0008305641
0.0007408921
0.0005250362
0.0007761077
0.005378828
0.003903942
0.003965877
0.00528765
0.0007054294
0.0004156541
0.0005444215
0.0007750783
0.02733668
0.02920428
0.02738663
0.03015726
0.0009639033
0.00110092
0.0003533629
0.001105072
0.0007262286
0.000133457
0.0009343255
0.0001637232
0.0009477894
0.001417921
0.0001411584
0.001322429
0.0009605204
0.00167132
-8.294866e-05
0.001506159
0.0007952982
-0.0003904562
0.001317213
-0.0003335643
0.00101896
0.001843551
-0.0002790375
0.001650088
0.0008551703
-0.0006025088
0.001493324
-0.0006275315
0.001135419
0.002018766
-0.0004298768
0.001805176
0.0009338203
-0.000803384
-0.0008375046
0.001638228
0.001239569
0.002156455
-0.0005499201
0.001939143
0.001010788
-0.001003933
0.001758203
-0.001059539
0.001302849
0.002260195
-0.000652724
0.002052552
0.001107174
-0.001173428
-0.001257685
0.001864316
0.001318904
-0.001453431
0.002045236
-0.001556823
0.001504377
0.002453894
-0.0008199235
0.002332544
0.001426528
-0.001557536
0.002106444
-0.001674948
0.001585721
0.002491835
-0.0008357451
0.00240472
0.001549542
-0.001637053
-0.001761646
0.002160209
0.001929237
0.002501905
-0.0007176733
0.002577417
0.002129879
0.002389756
-0.0005510949
0.002625497
0.002644495
-0.001769241
-0.001915745
0.002369764
0.0032285
-0.001670862
-0.001605568
0.00229871
-0.0007373505
0.002815318
0.001759484
0.001791087
-0.0007936633
0.002874067
0.003724847
-0.006418437
0.002304465
-0.002287228
0.001557343
-0.004685999
0.001674493
0.001775283
0.003464435
0.004453886
0.004251106
0.0002597627
0.0006630393
0.00555045
0.004995645
-0.001004224
-1.128259e-05
0.006278253
0.005703227
-0.002243058
-0.0006221762
0.006781526
0.006357845
-0.003413211
-0.001296969
0.007288567
0.006994468
-0.004539782
-0.001919362
0.007662402
0.007634547
-0.005660388
-0.002466265
0.007907291
0.00834504
-0.00658954
-0.00284463
0.008049098
0.008961133
-0.007451765
-0.003273191
0.008174095
0.009592405
-0.008291794
-0.003648569
0.008244733
0.01018082
-0.008961771
-0.004041353
0.008237618
0.01076462
-0.009565784
-0.004439313
0.008233499
0.01132456
-0.01015127
-0.004789669
0.008157952
0.01184736
-0.01068121
-0.005094488
0.008034985
0.01231129
-0.01115747
-0.005344674
0.00782644
0.01276807
-0.01154659
-0.005572957
0.0075969
0.01320386
-0.01189763
-0.005766443
0.007315426
0.01362229
-0.01219334
-0.00591007
0.006996319
0.01401022
-0.01248842
-0.006030104
0.006589737
0.01437543
-0.01270916
-0.00616568
0.006180462
0.01469159
-0.01292023
-0.006266863
0.005711307
0.01499414
-0.01302234
-0.006335125
0.005219189
0.01526068
-0.0130875
-0.006365648
0.004652404
0.0009852724
0.0009630175
0.001033078
0.0004379667
0.0315457
0.03406222
0.03591635
0.03167524
0.03517142
0.03513275
0.03523206
0.03663182
0.03993712
0.04267853
0.0449613
0.0401306
0.001374881
0.001723403
8.941303e-05
0.001722888
0.0007629377
-0.0003384797
0.001022645
-0.0006402206
0.0009137015
-0.0006085165
0.001132686
-0.001071976
0.003758745
0.002673055
0.003326782
-0.0001214007
0.001661521
-0.002327355
0.001526932
-0.004385901
0.001750008
-0.00233268
0.001535697
-0.004474488
0.001971093
0.005394966
0.004281185
0.001324587
0.001701619
0.006669006
0.00537357
0.0003487492
0.00130948
0.007723704
0.006415221
-0.0007768885
0.0009640097
0.00852716
0.007283047
-0.001869101
0.0006251882
0.009129872
0.008114073
-0.002826607
0.0003098894
0.009585478
0.00889468
-0.00382785
5.123761e-05
0.009916961
0.009602668
-0.004796006
-4.658324e-05
0.01013845
0.01027428
-0.005762386
-0.0001434387
0.01029352
0.01093562
-0.006583686
-0.0001998853
0.01042557
0.01154259
-0.007338169
-0.0002061562
0.01050113
0.01214874
-0.008059532
-0.0001827075
0.0105352
0.01271472
-0.00868198
-0.0001352127
0.01051413
0.01326558
-0.009293203
-0.0001123567
0.01043753
0.01376911
-0.009809426
-9.22003e-05
0.01030472
0.01425047