/*--------------------------------*- C++ -*----------------------------------*\
  =========                 |
  \\      /  F ield         | OpenFOAM: The Open Source CFD Toolbox
   \\    /   O peration     | Website:  https://openfoam.org
    \\  /    A nd           | Version:  7
     \\/     M anipulation  |
\*---------------------------------------------------------------------------*/
FoamFile
{
    version     2.0;
    format      ascii;
    class       volScalarField;
    location    "0.1";
    object      Ux;
}
// * * * * * * * * * * * * * * * * * * * * * * * * * * * * * * * * * * * * * //

dimensions      [0 1 -1 0 0 0 0];

internalField   nonuniform List<scalar> 
73374
(
-0.05156053
0.07689548
0.07700927
0.094612
0.1094054
0.1250836
0.1478284
0.1711719
0.1867695
0.2031477
0.2206897
0.0008412784
0.03048614
0.04871904
0.07770715
0.09291981
0.1210994
0.1422174
0.1620157
0.1838896
0.2060305
0.2214556
-0.003996636
0.04103135
0.05594011
0.08453522
0.1011766
0.1223052
0.1417097
0.1638471
0.1850286
0.2055368
0.2233371
0.0002009524
0.02961883
0.05005884
0.07921071
0.1012495
0.1222609
0.1453711
0.1690249
0.1924058
0.2128354
0.2339258
0.0008042124
0.03889113
0.05473847
0.08037567
0.1034387
0.1245205
0.1472826
0.1716307
0.1951647
0.2183872
0.242326
0.00171817
0.03570826
0.05493104
0.07851409
0.1025384
0.1251381
0.1485085
0.1740758
0.1990389
0.2252804
0.2525704
0.001452436
0.03645377
0.0554851
0.07889609
0.1023027
0.1251985
0.1493789
0.1753877
0.2019704
0.2309639
0.2620062
0.00141028
0.03526633
0.05488169
0.07777118
0.1007912
0.1242878
0.1486388
0.1752882
0.2033578
0.2352892
0.270263
0.001286667
0.03472034
0.0540227
0.07695403
0.09913613
0.1222587
0.1461686
0.1723751
0.2011207
0.234946
0.2735289
0.001257651
0.03388215
0.05294271
0.07539985
0.09688342
0.1191897
0.1424018
0.1675286
0.1963001
0.2315031
0.2724894
0.001201144
0.03322009
0.05195059
0.07356346
0.09389533
0.1142915
0.1349315
0.1566372
0.1815859
0.2123455
0.2611589
0.0011546
0.03270194
0.05120674
0.07203501
0.09135729
0.1097345
0.128355
0.1461234
0.1699947
0.1961861
0.2304085
0.001161076
0.03246551
0.0510599
0.07096275
0.08915412
0.1040903
0.1173619
0.1253282
0.1248909
0.1434813
0.1738723
0.00118406
0.03288993
0.05190974
0.07154199
0.08941306
0.1013385
0.1136615
0.1042699
0.1167006
0.02193512
0.02725298
0.00125485
0.03415724
0.05435617
0.07434289
0.09364934
0.1041525
0.1184473
0.1037084
0.1154048
0.007884
-0.09558871
0.001374977
0.03646897
0.05829288
0.08039341
0.1013948
0.1159408
0.1305532
0.1268747
0.1282642
0.06851613
0.08997588
0.001546064
0.0396023
0.06385522
0.088369
0.1134559
0.1312048
0.1533651
0.155175
0.167799
0.1130559
0.07759367
0.001758316
0.04335465
0.07027698
0.09836644
0.1278246
0.1520453
0.1840544
0.1981805
0.2433049
0.1872425
0.1414498
0.001988821
0.0473785
0.07732614
0.1088886
0.1440723
0.1741833
0.2204062
0.2470663
0.3302915
0.3031381
0.3379323
0.002271229
0.3698776
0.6105434
-0.05812217
-0.007413705
0.0237785
0.02182577
0.03628776
0.04638531
0.04803338
0.04854076
0.05889156
0.05859548
0.01986923
0.05562289
0.05776619
0.07244913
0.08908135
0.1161913
0.1354118
0.1468799
0.1725965
0.1963877
0.2115412
0.01380646
0.00498988
0.03766754
0.0624086
0.08974867
0.1157667
0.139669
0.1605612
0.1817187
0.2042006
0.2246846
0.02188649
0.02578523
0.05831363
0.08319506
0.09875525
0.1211509
0.1421632
0.1595416
0.1829453
0.2054952
0.2261733
0.009192488
0.02383777
0.05141932
0.07672777
0.09891224
0.1217924
0.1450255
0.1669634
0.1907641
0.2135344
0.2353654
0.009654319
0.03218491
0.05778202
0.0809821
0.1026108
0.124759
0.1470518
0.1695227
0.1939978
0.218135
0.2425223
0.008736119
0.03096587
0.05510531
0.07832008
0.1014699
0.1245555
0.1484156
0.1730743
0.1989766
0.2259047
0.2533199
0.009838343
0.0318656
0.0557177
0.07812466
0.1015231
0.1253491
0.1500555
0.175629
0.2025242
0.2312843
0.2622168
0.009765058
0.03129148
0.05476805
0.07712414
0.1006758
0.1243135
0.1489957
0.1754177
0.2035669
0.2354989
0.2708138
0.009921645
0.0311165
0.05434918
0.07649502
0.0992277
0.1221472
0.1465526
0.1726555
0.2016947
0.235515
0.2738948
0.009712899
0.03050315
0.0533177
0.07490368
0.09687996
0.1192332
0.1424341
0.1681544
0.1961996
0.2317035
0.2739021
0.009624571
0.03006453
0.05244396
0.07317115
0.09424337
0.1146942
0.1362105
0.1585396
0.1847828
0.2137715
0.2583232
0.009512717
0.02968332
0.05163962
0.07168039
0.09133107
0.1102397
0.1277565
0.1471563
0.1650497
0.1953876
0.2372216
0.009580578
0.02966924
0.05159587
0.07074869
0.0898103
0.1052657
0.1212785
0.1325605
0.1447968
0.1524454
0.1727465
0.009752474
0.03018058
0.05230189
0.07146019
0.08906294
0.1035227
0.110851
0.1168757
0.08936605
0.08714442
0.033836
0.01022937
0.03141183
0.05476925
0.07403509
0.09348841
0.1046864
0.1179064
0.1050244
0.1060353
-0.009372629
-0.009516748
0.01090532
0.03359748
0.05867071
0.08015437
0.1009235
0.1171491
0.128421
0.1347407
0.1147088
0.08689262
-0.01517771
0.01186213
0.03646799
0.06423843
0.08809441
0.1130129
0.1322203
0.1512718
0.1612346
0.1552758
0.1295523
0.03920063
0.01293447
0.03994081
0.07065176
0.09820094
0.1273847
0.1538512
0.181388
0.2067087
0.2255146
0.2361895
0.09789727
0.01411203
0.04359121
0.07764702
0.1086528
0.1435854
0.175914
0.2175638
0.2558016
0.3205891
0.3202055
0.4028144
0.5440649
-0.1305582
-0.07082096
0.0001778658
0.02122263
0.06246871
0.06255096
0.0682036
0.09862082
0.1227037
0.1159703
0.005434741
0.104638
0.1210157
0.09692982
0.1190239
0.126552
0.1519669
0.1827226
0.1744284
0.1835743
0.2063706
0.01905993
0.002136566
0.04812033
0.05923503
0.09084557
0.1169277
0.1416252
0.1682514
0.183885
0.2016725
0.2224226
0.02995321
0.04654544
0.0793511
0.0884974
0.1085094
0.1245669
0.1436097
0.1648234
0.18435
0.2047027
0.2223585
0.01007373
0.03020112
0.05385715
0.07527901
0.102153
0.1228575
0.1463256
0.1706321
0.192322
0.2111404
0.2323208
0.010163
0.03646024
0.05853199
0.07775041
0.1021445
0.1244946
0.1478334
0.1711879
0.1933905
0.2166741
0.2397779
0.008529161
0.03312011
0.05712924
0.07837459
0.1024687
0.1250669
0.1484332
0.1735883
0.1982844
0.2235908
0.2518373
0.009950167
0.03318076
0.05605314
0.07896001
0.1021448
0.1252154
0.1493648
0.1750725
0.201266
0.2305522
0.2619531
0.009903397
0.03210896
0.05503925
0.07759856
0.1009583
0.1240578
0.1486465
0.174968
0.2033016
0.235339
0.2705853
0.01029274
0.03143135
0.05406001
0.0764902
0.09921633
0.1221367
0.1463278
0.1722365
0.2012228
0.2351166
0.2735857
0.01013101
0.03061585
0.05283838
0.07479903
0.09675786
0.1190305
0.1421768
0.1676292
0.1961567
0.2317196
0.2736518
0.01009099
0.03008105
0.05187575
0.07296639
0.09396265
0.1142284
0.135652
0.1577404
0.1839306
0.2136002
0.2596662
0.00988442
0.02956453
0.05097259
0.07133966
0.09094603
0.1094345
0.1271826
0.1452608
0.1645273
0.1946151
0.2365187
0.009989212
0.02954853
0.05092371
0.07029687
0.08930638
0.103721
0.119759
0.1253841
0.1388348
0.1431789
0.1698339
0.01013949
0.03002208
0.05159461
0.07097277
0.08868487
0.1020588
0.110396
0.1103815
0.09249052
0.08559719
0.027223
0.01067276
0.03128976
0.05406896
0.07358792
0.09310566
0.1036102
0.1172657
0.1024655
0.1081656
-2.582426e-05
-0.004246667
0.01139692
0.03353091
0.05795773
0.07976177
0.1006786
0.1162509
0.1287123
0.1316111
0.1214339
0.09209775
-0.02989658
0.01242141
0.03645039
0.06349537
0.08767112
0.112725
0.1311776
0.1511448
0.157399
0.1564942
0.1336556
0.03396631
0.01354973
0.03998022
0.06989033
0.09782047
0.1272321
0.152949
0.1819888
0.2031701
0.2307349
0.2361619
0.1111848
0.01478575
0.04367817
0.07683131
0.1082478
0.1433057
0.1749627
0.2174225
0.2520616
0.3206042
0.3215015
0.4163764
0.5367265
-0.2341236
-0.1726018
-0.1190823
0.01551528
0.04669746
0.05248035
0.1076851
0.08299337
0.0954038
0.1161455
0.0009503693
0.09888311
0.1546676
0.1609148
0.09382908
0.1055985
0.1247866
0.1082931
0.1624852
0.1769378
0.1891786
0.02497021
0.001494142
0.05505707
0.07540562
0.08373585
0.1085988
0.130028
0.1498165
0.1827663
0.1979921
0.2185539
0.03389828
0.04571802
0.08975255
0.1013871
0.1004764
0.1238573
0.1420954
0.1601818
0.1834089
0.2023913
0.2220346
0.008744511
0.02911359
0.05463632
0.08290123
0.09900116
0.1226055
0.1471704
0.1668389
0.1906975
0.2110685
0.2325805
0.009059811
0.03641585
0.0583412
0.08195879
0.1019554
0.1249483
0.148266
0.1699655
0.1944531
0.2172493
0.2417168
0.007714087
0.03277037
0.05577142
0.07778774
0.1017068
0.1247794
0.1487734
0.1736595
0.198809
0.2254216
0.2527581
0.009361075
0.03230706
0.05558113
0.07677357
0.101397
0.1251275
0.1503073
0.1763594
0.2026213
0.2315065
0.2623003
0.009557796
0.03101977
0.05408578
0.0763934
0.1005128
0.1242893
0.1489672
0.1757727
0.2035667
0.2355424
0.2709309
0.009888667
0.03089838
0.05362765
0.07609704
0.09908466
0.1220961
0.1466019
0.1726179
0.2016413
0.2354774
0.2739639
0.009597136
0.03016892
0.05254677
0.07447016
0.0965855
0.1190674
0.1422726
0.1680511
0.1961935
0.2316094
0.2741825
0.009439721
0.02974905
0.0517585
0.07278569
0.09409075
0.1145319
0.1361749
0.1583917
0.1843911
0.2145098
0.2581314
0.00923002
0.0293455
0.05088424
0.07125644
0.09098673
0.1099851
0.1272589
0.1465198
0.1655015
0.1958676
0.2382843
0.009397615
0.02940669
0.05091991
0.07037947
0.08963637
0.1048374
0.12067
0.1300769
0.1416555
0.1510085
0.1748289
0.009586999
0.02994557
0.05153717
0.0711623
0.08869998
0.1032772
0.1102442
0.1137546
0.09300275
0.0852114
0.03237395
0.01013271
0.03118629
0.0540257
0.07372762
0.09324812
0.1044247
0.1176307
0.1034203
0.1079598
-0.006053256
0.00421205
0.01082525
0.03339854
0.0578553
0.07993017
0.1006268
0.1173404
0.1284848
0.134204
0.120369
0.08968564
-0.03223255
0.0118093
0.03625019
0.06335711
0.08775713
0.1126375
0.1319951
0.1509085
0.1592611
0.1564453
0.1320713
0.03696922
0.01288334
0.03972661
0.06970711
0.09789093
0.1270407
0.1538482
0.1815145
0.205231
0.2308001
0.2333935
0.1103791
0.01405786
0.04333028
0.07659202
0.1081835
0.1430578
0.1754403
0.217172
0.2526963
0.3219219
0.3194777
0.4200856
0.5344412
-0.2651821
-0.2252676
-0.06550099
-0.0175509
0.04242354
0.1040227
0.05510797
0.09121168
0.1564873
0.1376132
0.002602838
0.1217881
0.1934494
0.1503393
0.1267384
0.09223615
0.08588846
0.1558542
0.1522329
0.1523651
0.1925814
0.0268787
0.002792159
0.06055806
0.06501521
0.0856544
0.1073221
0.1238877
0.1624683
0.1803803
0.195409
0.2111688
0.03623548
0.04986205
0.09407726
0.08791627
0.09881942
0.1201963
0.1407679
0.1638035
0.1819821
0.2011449
0.2178738
0.01087544
0.02835673
0.05876156
0.07770961
0.1005953
0.1271
0.1504209
0.1712919
0.1933894
0.2120179
0.2311205
0.01009366
0.03731526
0.05930992
0.08096585
0.1030055
0.1271439
0.1487861
0.1698806
0.1933075
0.2163794
0.2389462
0.006791666
0.03362941
0.05571101
0.07911171
0.1024533
0.1262427
0.1498499
0.1710857
0.1986048
0.2236027
0.2522986
0.009084985
0.03323647
0.05558546
0.07902139
0.1014195
0.1257944
0.1490269
0.1731684
0.2007442
0.2314676
0.2625291
0.009381936
0.03197624
0.0543048
0.07778013
0.1006263
0.1238822
0.1488575
0.1741069
0.2034115
0.2355475
0.2710046
0.009890749
0.03136153
0.05378282
0.07639068
0.09907265
0.1219962
0.146647
0.1719368
0.2014856
0.2353214
0.2739629
0.009670445
0.03042613
0.05253131
0.07455703
0.09654727
0.1190806
0.1421344
0.1675889
0.1960697
0.2317016
0.2742743
0.009878244
0.03016756
0.05185226
0.07293608
0.09408309
0.1144516
0.1360497
0.1581843
0.18441
0.2140835
0.2586971
0.008994273
0.0291152
0.05071069
0.07103907
0.09080487
0.1096632
0.126869
0.145692
0.1643647
0.1947676
0.2376944
0.009494742
0.02943908
0.05084621
0.07025713
0.08951897
0.104441
0.1205615
0.1289179
0.1424073
0.1507972
0.1768986
0.009419763
0.02969416
0.05126339
0.07083355
0.08850151
0.1028283
0.1100663
0.1128253
0.09274116
0.08559826
0.03271489
0.01013249
0.03107051
0.05382133
0.07350243
0.09309396
0.104118
0.1174515
0.1030796
0.1079409
-0.004692052
0.003876745
0.01085049
0.03328287
0.05761386
0.07969207
0.1004912
0.1170386
0.1286246
0.1336012
0.1219331
0.09117305
-0.03182681
0.01191177
0.03620143
0.0631435
0.08755297
0.1124719
0.1316807
0.1507426
0.1584319
0.1562381
0.1314038
0.03984458
0.0129919
0.03966841
0.06948296
0.09769212
0.1269117
0.1535883
0.1815052
0.2048337
0.2311044
0.2344131
0.1228662
0.01421783
0.0433158
0.07638272
0.1080044
0.1429011
0.1751941
0.216891
0.2521294
0.3206087
0.3206151
0.4198344
0.5352073
-0.2098735
-0.2308923
-0.1166769
0.01289374
0.07733155
0.05947269
0.1422615
0.113727
0.1523706
0.1414648
0.004185562
0.1391691
0.1947435
0.2373102
0.09435763
0.09156609
0.1098776
0.07559193
0.1300201
0.1528936
0.1984074
0.02292864
0.00500781
0.04585981
0.08123313
0.0910266
0.1070688
0.138267
0.1398468
0.1742588
0.1960791
0.2176288
0.03543027
0.05177243
0.09150924
0.08643288
0.09663928
0.1201234
0.1429524
0.1611162
0.1829259
0.2009158
0.2184946
0.01166149
0.028262
0.05834586
0.07451294
0.1004904
0.125128
0.1460793
0.1774276
0.1932438
0.2087176
0.2282386
0.009864091
0.0359427
0.06107738
0.07699542
0.1046428
0.1236692
0.1479718
0.1765968
0.1947952
0.2141561
0.2390697
0.007143532
0.03224974
0.05834032
0.07586262
0.1016791
0.1245189
0.1484949
0.1767973
0.1975272
0.2242972
0.2494626
0.009286575
0.03191819
0.05682873
0.07773508
0.1018448
0.1248873
0.1501348
0.1751668
0.2019304
0.2292344
0.2607875
0.01008655
0.03102534
0.05495742
0.07634257
0.1005839
0.1241991
0.1489553
0.175918
0.2030914
0.2350649
0.2702882
0.01064582
0.03148732
0.05380867
0.07615338
0.09900687
0.1225156
0.1465657
0.1733257
0.2014758
0.2353984
0.2735957
0.009740375
0.03010474
0.0523919
0.07434746
0.09656314
0.1190586
0.1420543
0.1679704
0.1960618
0.2316048
0.2739869
0.009289494
0.02954968
0.05187557
0.07261389
0.09407219
0.1144149
0.136075
0.1585446
0.1847021
0.2140063
0.2588062
0.008802643
0.02897479
0.05089545
0.07085267
0.09085439
0.1096373
0.1268344
0.145704
0.1642738
0.1946328
0.237613
0.009379907
0.02937434
0.05090551
0.07007864
0.08952311
0.1043979
0.1204892
0.1288637
0.1421163
0.1501821
0.175949
0.009533365
0.02995649
0.05138253
0.07087097
0.08852745
0.1028482
0.1100212
0.1127185
0.09264651
0.08580349
0.03216164
0.01014357
0.03118665
0.0538458
0.07353312
0.09310441
0.1041369
0.1174952
0.1026476
0.1079874
-0.004980683
0.003294482
0.01085466
0.03337237
0.05761785
0.07975417
0.1004155
0.1172411
0.1282505
0.1344064
0.1208257
0.09012984
-0.03205013
0.01191927
0.03621642
0.06311157
0.08764446
0.1125098
0.1320804
0.1512391
0.1601151
0.1598102
0.1324954
0.03971869
0.01301488
0.03969671
0.06944968
0.09769805
0.1268223
0.1536202
0.1812441
0.2049109
0.2299805
0.2373046
0.1347769
0.0142104
0.04326511
0.07633025
0.1080308
0.1429258
0.1753735
0.2171936
0.2527514
0.3215371
0.3206976
0.4196641
0.01522133
0.5359555
-0.1750984
-0.2490888
-0.05756776
-0.008546667
0.04543797
0.1345402
0.05827455
0.0979029
0.1438291
0.1130469
0.004058665
0.1105212
0.1974059
0.1502746
0.1143243
0.08949815
0.0623924
0.146826
0.1297178
0.1548015
0.1994283
0.02103269
0.001428575
0.0577313
0.06192223
0.08531611
0.1083319
0.1243679
0.1678053
0.1818818
0.2013945
0.2126614
0.03492832
0.04953885
0.09478745
0.08126698
0.0963903
0.1182837
0.1413999
0.1668584
0.1866384
0.2024207
0.2192488
0.01184636
0.02857038
0.0615371
0.07610183
0.1003944
0.1281201
0.1482936
0.1739261
0.1919174
0.2118107
0.2335628
0.01513535
0.03858483
0.06156255
0.08112323
0.1051095
0.1266411
0.148712
0.1707159
0.1921474
0.2166605
0.2428923
0.01250688
0.03305769
0.05675647
0.07832742
0.1027878
0.1262328
0.1490618
0.1721778
0.1982288
0.2228706
0.2535182
0.01068817
0.03271395
0.05589182
0.07858065
0.1015519
0.1257072
0.1491395
0.1742085
0.2008236
0.2314685
0.2634733
0.00828081
0.03332306
0.05422951
0.07825651
0.1005662
0.1243872
0.1488514
0.1746446
0.2037756
0.2355149
0.2714366
0.005610423
0.03239058
0.05404831
0.07676835
0.09923527
0.1222414
0.1468864
0.172406
0.2018498
0.2355405
0.2743326
0.008173543
0.03084428
0.05250609
0.07474893
0.0967133
0.1193421
0.1423548
0.168165
0.1961229
0.2317335
0.2743093
0.01384242
0.03189151
0.052756
0.07378403
0.09442998
0.1148112
0.1361954
0.1581599
0.1843303
0.2143716
0.2584081
0.01280852
0.02705658
0.05133317
0.07069946
0.09107212
0.1098382
0.1272593
0.1464776
0.1654696
0.1956941
0.2383163
0.01146336
0.0293102
0.0515589
0.07056301
0.08982262
0.1048771
0.120714
0.129847
0.1414873
0.150191
0.174332
0.008813328
0.02865556
0.05136325
0.07053743
0.0886072
0.1031259
0.1101477
0.1137117
0.09286514
0.08551555
0.03286007
0.009544717
0.03072577
0.05401038
0.07361674
0.09324429
0.1044848
0.1176156
0.1032976
0.1078046
-0.00664449
0.004765964
0.01039832
0.0331198
0.05768017
0.07973077
0.100464
0.1172473
0.128152
0.1346541
0.1193776
0.0913917
-0.02614433
0.01180635
0.03626755
0.06330687
0.08785049
0.1126089
0.1324206
0.15112
0.1613719
0.1586426
0.1384565
0.04244766
0.01279024
0.03959061
0.0695808
0.09781317
0.1268087
0.1536573
0.1806568
0.2044009
0.2271726
0.2333709
0.08806299
0.0142102
0.0433975
0.076589
0.108303
0.143117
0.1756856
0.2176356
0.253394
0.3240438
0.3196985
0.4284433
0.01540714
0.04698997
0.08267077
0.1180366
0.5351093
-0.1465154
-0.1641848
-0.09838639
0.0147607
0.06697598
0.07361336
0.1137398
0.1164966
0.1118448
0.1083966
0.002378762
0.1029624
0.1706779
0.1515114
0.09269862
0.09464195
0.1095274
0.1214088
0.1279917
0.1721854
0.2113803
0.009155959
0.006004826
0.05461562
0.0633837
0.08256287
0.1075736
0.1397196
0.168198
0.1835516
0.1998902
0.2158681
0.02295282
0.05025102
0.09274368
0.09390074
0.09956843
0.1195542
0.1433589
0.1658724
0.1841446
0.1996841
0.2203613
0.007910864
0.02732309
0.05826951
0.08224729
0.1035665
0.1249785
0.1460675
0.1675886
0.1905492
0.2096819
0.2315448
0.02197863
0.0334035
0.06019688
0.0822947
0.1064339
0.1255805
0.1459907
0.1697558
0.1945185
0.2163042
0.2409298
0.02324096
0.02634075
0.05761774
0.07721653
0.104343
0.1253934
0.1488427
0.1738044
0.1988788
0.224858
0.2521104
0.01698844
0.03030891
0.05690799
0.07799566
0.1029554
0.1253132
0.1500683
0.1755128
0.2021125
0.2304432
0.2615762
0.000989001
0.03508488
0.05379099
0.07771309
0.1016818
0.1240938
0.1487113
0.1752641
0.2031849
0.2350114
0.2704749
-0.004000905
0.04015652
0.05223772
0.07777147
0.09934995
0.1225243
0.1463207
0.1728145
0.2013964
0.2354014
0.2738532
0.001830877
0.03157805
0.05155144
0.07489652
0.09672646
0.1191551
0.1421482
0.1678259
0.1962146
0.231881
0.2737508
0.02113025
0.02632144
0.05332106
0.0725018
0.09419767
0.1142714
0.1356908
0.1577437
0.1839043
0.21368
0.2596392
0.0229625
0.02315855
0.05279936
0.07012878
0.09121093
0.10922
0.1271921
0.1453419
0.164531
0.1946465
0.2367064
0.01575013
0.02654677
0.05176567
0.06963466
0.0894298
0.1036362
0.1197346
0.1252443
0.1386499
0.1421765
0.1695121
0.01031447
0.03022358
0.05188396
0.07067159
0.08871112
0.1020663
0.1103449
0.1105759
0.09271379
0.08535188
0.02934588
0.01029837
0.03163619
0.05410445
0.07362192
0.0930461
0.1038483
0.1171492
0.1028045
0.1079566
-0.007193795
0.002063184
0.01126156
0.03362689
0.05782807
0.07977866
0.1004719
0.1165051
0.1282865
0.1329021
0.1202279
0.09241902
-0.02022426
0.01272334
0.03651039
0.06323016
0.08792026
0.1124987
0.1320821
0.1509689
0.1603822
0.1582088
0.1406337
0.04228448
0.0138158
0.04017193
0.06972427
0.09776349
0.1268553
0.1526092
0.1808717
0.2014858
0.2273117
0.2376686
0.08895337
0.0150096
0.04350926
0.07658279
0.1083754
0.1432947
0.1752818
0.2181435
0.2527187
0.3228218
0.3214875
0.4313943
0.0158541
0.04652396
0.08249873
0.1180122
0.1559437
0.1952049
0.5372749
-0.1245986
-0.1126723
-0.01646367
0.02662225
0.06554546
0.1189719
0.1076694
0.2076284
0.001952885
0.04999633
0.006892924
0.08030282
0.1236228
0.08831666
0.1145239
0.1134122
0.1052578
0.1294019
0.1220984
0.1344411
0.2035777
0.04186313
0.003523868
0.043424
0.05271411
0.0908718
0.1118448
0.1386112
0.1713714
0.1858683
0.2151577
0.2123477
0.01607013
0.04881924
0.08357033
0.08870277
0.1051128
0.1212452
0.1411681
0.1635234
0.1787005
0.2005626
0.2214871
0.002128717
0.03018641
0.0562281
0.08166334
0.1026347
0.126259
0.1430975
0.1669721
0.1873703
0.211292
0.2325302
0.01319455
0.04898026
0.06018159
0.08202416
0.1071961
0.1252209
0.1445126
0.1680789
0.1941335
0.2168491
0.240665
0.009061768
0.02582698
0.05625327
0.07776953
0.1034181
0.1260268
0.1471153
0.1720665
0.1987614
0.2249031
0.2526797
0.0117214
0.02769551
0.05706537
0.07822522
0.1027606
0.1263981
0.1491258
0.1752206
0.2029682
0.2318719
0.2626447
0.003652151
0.04325762
0.05448163
0.07954203
0.1010434
0.1252478
0.1488591
0.1750608
0.2038831
0.2354165
0.2710919
-0.01850635
0.03170378
0.05786496
0.0773052
0.1000306
0.1225325
0.1465898
0.1727866
0.2018282
0.2356553
0.2743133
-0.01586048
0.02929512
0.05299715
0.07515732
0.09701388
0.1194124
0.1424156
0.1682162
0.1961905
0.2319109
0.2740234
0.01290733
0.03936088
0.05285494
0.07618678
0.09458427
0.1153519
0.136316
0.1586122
0.1848083
0.2137791
0.2585469
0.009316678
0.01576611
0.05224073
0.0697811
0.09141162
0.1099069
0.1278294
0.1472309
0.1651567
0.1954469
0.2374351
0.01729104
0.03195314
0.05261562
0.07119751
0.08998709
0.1053953
0.1213546
0.1320524
0.1446352
0.1510552
0.1718925
0.009540442
0.02989809
0.05200179
0.06986998
0.08890306
0.103212
0.110799
0.117068
0.08983677
0.08688213
0.03068615
0.009877561
0.03184709
0.05474004
0.07354998
0.09343212
0.1048462
0.1178346
0.1057297
0.1064934
-0.00598638
0.006015478
0.01073581
0.03378196
0.05832394
0.0797321
0.1006575
0.1166825
0.1280604
0.1325182
0.1167463
0.08963987
-0.02673475
0.01250356
0.03661851
0.0639728
0.08827109
0.1128784
0.1326073
0.1516664
0.1608692
0.1608831
0.1325519
0.03959913
0.01251093
0.03903905
0.07021374
0.09801373
0.1269322
0.1536309
0.1801482
0.2067283
0.2198161
0.2348905
0.09096593
0.01425279
0.04363977
0.07737443
0.1089113
0.1435492
0.1763915
0.2178884
0.2573591
0.3199618
0.3174089
0.4137175
0.01602334
0.04851592
0.08353896
0.1186628
0.1559786
0.1955547
0.2393646
0.2967299
0.5379174
-0.05712588
0.004440133
-0.002177266
0.01340991
0.01416112
0.03950117
0.02522345
0.03120591
0.03052461
0.0008826133
0.006552122
0.06211994
0.09275535
0.1010795
0.1162702
0.13159
0.1368809
0.1549882
0.1660117
0.2012872
0.2120948
0.007069701
0.004650229
0.03206092
0.05442482
0.08956494
0.1144775
0.1491144
0.1730963
0.2031936
0.212459
0.2184208
0.004049437
0.04741169
0.07170596
0.08766523
0.1047634
0.1217858
0.1444756
0.1648382
0.1861714
0.1988999
0.2238199
0.009994211
0.02827653
0.05238476
0.08071928
0.1026191
0.1258425
0.1452326
0.1670281
0.1888245
0.2103289
0.2327651
-6.203147e-05
0.04436483
0.05436012
0.08033591
0.1047928
0.1263526
0.1466192
0.1705496
0.194842
0.2178193
0.2422055
0.02912341
0.03607718
0.0540578
0.07747449
0.10246
0.1261813
0.1486427
0.1736229
0.1982106
0.2246232
0.2523916
0.01329458
0.03714753
0.05530398
0.07877845
0.1024774
0.1259271
0.1493682
0.1755386
0.2019483
0.2310115
0.2623294
0.007158541
0.03542077
0.05560648
0.07838204
0.1013875
0.1251298
0.1485958
0.1751789
0.203125
0.2351826
0.2704521
-0.002575098
0.03546116
0.05505425
0.07762613
0.09960101
0.1227569
0.1462033
0.1723801
0.2011459
0.2352333
0.2739569
-0.01742034
0.03480694
0.05331815
0.07580473
0.09706459
0.119477
0.1424252
0.1676411
0.1963114
0.2317314
0.2726529
-0.001972351
0.03552484
0.04960117
0.07479971
0.09371606
0.1147311
0.134978
0.1567219
0.1816427
0.2123978
0.2612681
0.0256192
0.03455788
0.04887976
0.07193987
0.09109646
0.1096455
0.1283216
0.1459965
0.1699947
0.1959622
0.230578
0.01028999
0.03598552
0.04819535
0.0718864
0.08877107
0.1043108
0.1172422
0.1253547
0.1250789
0.1434033
0.1739234
0.006259161
0.03461608
0.05162988
0.07119333
0.08925507
0.1012899
0.1136095
0.1043835
0.1174333
0.09173748
0.08112062
0.008813193
0.03482048
0.05415184
0.07446922
0.09343322
0.1044309
0.1181909
0.1034884
0.1152523
0.02352989
-0.0646623
0.00938015
0.03863562
0.05751309
0.08056377
0.101073
0.11609
0.1304886
0.1282855
0.1283354
0.06070867
0.05245293
0.009704189
0.04183279
0.0622389
0.08902256
0.1127657
0.1325227
0.1513588
0.160764
0.1557606
0.1467485
0.02703524
0.008685817
0.04359093
0.06983459
0.09829385
0.1272512
0.1510452
0.1818531
0.1923873
0.2348684
0.1804484
0.1062837
0.008400851
0.05000626
0.07597613
0.109517
0.1439002
0.1744827
0.2215117
0.2476883
0.337572
0.3562184
0.3739239
0.01100514
0.05580711
0.08116992
0.1192801
0.155877
0.1930618
0.2411335
0.2805313
0.3653001
0.395461
0.5818629
-0.009047893
-0.02839699
0.000827502
-0.01522458
-0.05782771
0.04841708
-0.01090956
-0.004619683
0.003839616
0.0305025
0.001902855
0.05085826
0.0144631
-0.001466637
-0.006182758
0.02616779
0.03889224
0.05768921
0.02320283
-0.01048584
-0.0002059866
0.04081864
0.04648672
0.09404886
0.05027148
-0.002555224
-0.001339902
0.05798835
0.07276948
0.1099123
0.07131321
0.006387923
0.002530799
0.08971201
0.08773158
0.1378205
0.09857568
0.009684763
0.004199132
0.1061335
0.1133511
0.1608681
0.1174346
0.01325827
0.003756313
0.1266261
0.1319944
0.1770971
0.1337687
0.01242938
0.003356982
0.1395918
0.1461512
0.1942278
0.1477702
0.01097797
0.003325369
0.1572587
0.1596055
0.2077189
0.1632534
0.009952166
0.003488856
0.1716334
0.1740441
0.02950464
-0.006139419
0.008452729
-0.01958659
0.03105213
0.004363395
0.0340814
0.04308942
-0.00639713
-0.01603081
0.02284537
0.001420687
0.01296952
-0.03040931
0.02492943
-0.004083486
-0.01048212
0.009668879
-0.0009103002
0.005406261
0.01210246
0.03477678
-0.001808524
-0.007258356
0.008319727
0.008984428
0.002012558
0.005848067
0.03573293
-0.001394931
-0.005281178
0.00733049
0.01723626
0.006252911
0.01627421
0.0373071
-0.001542374
-0.005733116
0.009062654
0.02065924
0.003603963
0.01451325
0.03765885
-0.00159194
-0.006170886
0.007919232
0.01999313
0.006581803
0.01516868
0.03811308
-0.001731603
-0.006828912
0.00877921
0.0199072
0.006275231
0.01442417
0.03841216
-0.001780204
-0.007480925
0.008485943
0.02015488
0.006159624
0.01421686
0.038676
-0.001830245
-0.008166749
0.008467432
0.0201766
0.005789255
0.01366669
0.03889904
-0.00185671
-0.008832843
0.008304367
0.02036899
0.005411637
0.01329148
0.03913499
-0.001876532
-0.00941496
0.008177273
0.02056131
0.004912988
0.01301676
0.03946434
-0.001863704
-0.009832196
0.008041947
0.02096286
0.004023962
0.01315708
0.03998722
-0.001809479
-0.009974243
0.007893408
0.02156019
0.003393992
0.01346479
0.04082387
-0.001707543
-0.009736838
0.007929594
0.02247691
0.002708291
0.01427437
-0.1254816
0.1053707
-0.06482942
-0.1956624
0.04380753
0.04206309
-0.00156128
-0.009065101
0.008079127
0.02385149
0.002221241
0.01556128
0.08093899
0.04119723
0.07608474
0.04371493
-0.001373445
-0.00792843
0.00835011
0.02567654
0.002240399
0.01721667
0.1224641
0.04850135
0.09414684
0.04570234
-0.001124284
-0.006423638
0.008745905
0.02780807
0.002366015
0.01906496
0.2806567
0.1001428
0.2506412
0.04784911
-0.0008421389
-0.004713723
0.009166216
0.0301718
0.002559278
0.02106832
0.6165316
1.243702
0.3818499
0.6076238
1.258916
0.04985273
0.009534382
0.0323656
0.0147113
-0.00365681
-0.03887785
0.02066254
-0.01667558
-0.02011854
-0.1715482
0.05228324
0.006863034
-0.1703566
0.05473737
0.6184276
1.262571
0.4174489
0.6218607
1.278429
0.01790819
-0.02563235
-0.07416763
0.01810566
-0.0216534
-0.04675731
-0.1811445
0.05214839
0.001910227
-0.1773586
0.04993659
0.6211283
1.271409
0.4200086
0.6227188
1.277835
0.02031949
-0.02408057
-0.0857965
0.02075544
-0.02740385
-0.06187759
-0.1747201
0.05283407
0.004467619
-0.1778112
0.05159301
0.6241119
1.277764
0.4206636
0.6229787
1.277893
0.02255483
-0.03040244
-0.09087301
0.02345927
-0.02486371
-0.07506601
-0.1768806
0.05179982
0.003239613
-0.1788549
0.05074348
0.6234179
1.279283
0.4173318
0.6223118
1.280214
0.01661956
-0.03101259
-0.09207685
0.01850613
-0.02728347
-0.09202742
-0.1788543
0.05336929
0.002254067
-0.1770225
0.05148436
0.6237747
1.283906
0.41474
0.6221061
1.280761
0.01927057
-0.02467683
-0.07493215
0.01891479
-0.03007414
-0.09485482
-0.1779509
0.05348978
0.004153016
-0.1746885
0.05456744
0.6242266
1.284672
0.4317014
0.6247332
1.284234
0.01888137
-0.02453221
-0.06286173
0.01813036
-0.02270131
-0.08539895
-0.1770111
0.05260193
-0.002518062
-0.1806345
0.052833
0.6246256
1.283737
0.4242008
0.6215551
1.280487
0.01769052
-0.0210382
-0.0602137
0.01158733
-0.01846938
-0.07024159
-0.1712271
0.05507187
-0.00915962
-0.1729504
0.05066436
0.6202452
1.283169
0.404506
0.6177762
1.266892
0.002866669
-0.03102548
-0.07254314
7.628711e-05
-0.04433944
0.00350519
0.007662732
-0.01822325
0.001105849
0.0113664
-0.02869817
0.004003975
-0.01909318
0.01384453
0.0005868865
0.0475047
-0.02022296
0.01381537
0.02671061
0.05058451
-0.0009448959
0.02933104
0.02458735
0.01560424
0.06391511
0.06485518
0.1027744
0.05368964
0.1589836
0.1647081
0.1556478
0.001432527
0.2206344
0.1709525
0.02940538
0.1506241
0.1414798
0.2186415
0.14941
0.101128
-0.0004393492
0.03344694
0.01779983
-0.00653798
0.04292502
-0.005604914
-0.02614449
0.02840663
-0.02096512
-0.02051925
0.04701036
0.005871976
0.008051778
-0.03062746
0.03355358
0.001104712
0.04987607
0.01622009
-0.006680594
0.04070013
-0.002437014
0.008309245
0.00737452
0.008541971
0.0390748
-0.007431329
0.03315356
-0.002918201
0.01519854
0.04149677
-0.004046226
0.05748377
-0.03579238
-0.01039976
0.04142948
-0.007220471
0.05178416
0.01394322
-0.0009148837
0.0359634
-0.00786361
0.01402791
0.01641316
-0.01458881
0.04093353
-0.006918995
0.001146284
0.01302003
-0.00891505
0.04035146
-0.004708958
-0.1996406
0.0471673
-0.0882049
-0.136009
0.1016441
0.0927434
0.03661029
0.08398568
0.2439286
0.1101634
0.2521961
0.5985037
1.256799
0.3162852
0.6146509
1.246054
0.01507509
0.05964875
-0.004152375
0.03996407
-0.02185308
-0.002787472
0.004834389
0.005500323
0.01810909
-0.007565056
0.01136544
-0.001346674
0.01522898
0.005576887
0.01564361
0.009761036
0.008331064
0.00655805
0.01610691
0.01152084
0.01526709
0.01069294
0.01930678
0.03614618
0.02476981
0.02644906
0.02440179
0.05266875
0.03673842
0.02933263
0.02634463
0.05869256
0.0405947
0.03315956
0.02696929
0.06507057
0.04401827
0.03767665
0.02902722
0.06918426
0.04741533
0.04213608
-0.03541135
0.0005659025
-0.04001193
-0.01632724
-0.05055889
0.01208771
0.04114719
0.005809757
-0.001242204
0.00880253
0.003860248
-0.03030233
0.0150107
0.0246666
0.007334471
-0.01413259
-0.001054582
-0.002461319
-0.01954024
0.002424138
0.02138574
0.009482143
-0.0156969
0.002060903
-8.251794e-05
-0.01905309
0.007316216
0.02044097
0.01396783
-0.006960064
0.002621575
-2.473046e-05
-0.01192365
0.007213237
0.02709187
0.0148921
-0.008208511
0.001804859
0.001397466
-0.01334029
0.008451954
0.02716742
0.01712686
-0.007377547
0.002215764
0.0008220959
-0.01245266
0.008741265