/*--------------------------------*- C++ -*----------------------------------*\
  =========                 |
  \\      /  F ield         | OpenFOAM: The Open Source CFD Toolbox
   \\    /   O peration     | Website:  https://openfoam.org
    \\  /    A nd           | Version:  7
     \\/     M anipulation  |
\*---------------------------------------------------------------------------*/
FoamFile
{
    version     2.0;
    format      ascii;
    class       volScalarField;
    location    "0.1";
    object      Uy;
}
// * * * * * * * * * * * * * * * * * * * * * * * * * * * * * * * * * * * * * //

dimensions      [0 1 -1 0 0 0 0];

internalField   nonuniform List<scalar> 
73374
(
1.014893
1.020316
1.041716
1.04378
1.039535
1.03864
1.033853
1.036057
1.037989
1.03711
1.032014
1.068112
0.9474107
0.9773933
0.9802044
0.9779367
0.9668777
0.9824921
0.9808877
0.9756148
0.976023
0.9776975
1.041766
0.9373004
0.9530616
0.9592393
0.9503849
0.9445553
0.9561514
0.9559806
0.9515399
0.9552856
0.9598113
1.023368
0.9019441
0.9123445
0.9165091
0.9112909
0.9065492
0.9127969
0.9145847
0.9125097
0.9181907
0.9253616
1.003667
0.8881148
0.8918678
0.8965448
0.8961306
0.8916455
0.8973676
0.8976322
0.898821
0.9040979
0.9122397
0.977602
0.8610738
0.8657768
0.867044
0.8655463
0.863211
0.8654036
0.8659049
0.8674862
0.8723499
0.8803586
0.9533038
0.8404118
0.8441103
0.8442177
0.8448334
0.8425396
0.8442495
0.8438329
0.8450783
0.8485019
0.8550887
0.9277948
0.8163418
0.8214482
0.8208598
0.8195435
0.817505
0.8163802
0.8145469
0.8135398
0.8138242
0.8172312
0.903146
0.7941604
0.7993769
0.7987091
0.7970917
0.7946254
0.7920767
0.788538
0.7842667
0.781211
0.7804226
0.8788293
0.7718238
0.7771159
0.7761589
0.7739411
0.770951
0.7660864
0.7597449
0.7502014
0.7411028
0.7312537
0.8549256
0.7503697
0.7557553
0.7549151
0.7526221
0.749413
0.7432293
0.7354131
0.720278
0.706888
0.6870254
0.8314131
0.7292155
0.7348093
0.7344721
0.7324399
0.7297632
0.722373
0.7115111
0.6911443
0.6582447
0.6115908
0.8081818
0.7083989
0.7144533
0.715106
0.7142042
0.7131665
0.7059087
0.6980632
0.669787
0.6575687
0.5834801
0.7850406
0.6875975
0.6943468
0.6967138
0.6979771
0.7011676
0.6981441
0.7018387
0.675285
0.6067172
0.5110838
0.761356
0.6661546
0.6738965
0.6781451
0.6829458
0.690177
0.6976137
0.7069668
0.7143714
0.712654
0.6255928
0.7366485
0.6434632
0.6521252
0.6583048
0.6663252
0.6781757
0.6935046
0.7131637
0.7396426
0.7749398
0.8174234
0.7102104
0.6187276
0.6280635
0.6357812
0.6461918
0.662244
0.6825709
0.7152951
0.7466095
0.8202284
0.876147
0.6814731
0.5915161
0.6012094
0.60977
0.6218439
0.6403006
0.6650326
0.7059546
0.7522237
0.8628118
0.9686115
0.6498124
0.5613709
0.5709228
0.579065
0.5911369
0.6075405
0.6316232
0.6630674
0.7068916
0.853375
1.024702
0.6149458
0.7216975
0.7121682
0.9165951
0.9541981
0.9419609
0.942921
0.9402155
0.9390917
0.9371351
0.9365599
0.940153
0.9410347
1.027823
0.935335
0.9946381
0.9877159
0.9994137
0.9960402
1.004211
1.002799
1.00822
1.008923
1.003901
0.9793122
0.9564101
0.9880195
0.9660137
0.9700764
0.9724969
0.97124
0.9752407
0.9825816
0.985016
0.9895247
0.9258369
0.941017
0.9553279
0.9548074
0.9629638
0.9632877
0.9675462
0.9680611
0.9758833
0.9793181
0.9860841
0.9091693
0.9186444
0.917482
0.9116115
0.9116215
0.9121568
0.9138393
0.9171074
0.9233406
0.9289167
0.9376987
0.883967
0.8972628
0.8995392
0.9006863
0.901048
0.9028037
0.9040187
0.9070342
0.9110316
0.915805
0.9233678
0.8613109
0.8704373
0.8690575
0.8692037
0.8684407
0.8698602
0.8695541
0.8706202
0.8728335
0.8766582
0.8846567
0.8390085
0.8485131
0.8480784
0.8486893
0.8482592
0.8481139
0.8476484
0.8478181
0.8491558
0.8520494
0.8587005
0.8158597
0.8242471
0.8231243
0.8223091
0.8206331
0.8198485
0.8186202
0.8171642
0.8164034
0.8162129
0.8193863
0.7935775
0.8021806
0.8009168
0.8000511
0.7983242
0.7965548
0.7937498
0.7899897
0.7863736
0.7818537
0.7820162
0.771407
0.7795268
0.7781224
0.7769009
0.7747212
0.7720222
0.7672736
0.7617329
0.7526228
0.7437805
0.734198
0.7498711
0.7579163
0.7566904
0.7555751
0.7533918
0.749911
0.7443258
0.7348469
0.7235985
0.7023419
0.6885402
0.7285463
0.7365459
0.735605
0.7350501
0.7330666
0.7305969
0.7235142
0.7158061
0.6971
0.6740721
0.6227524
0.7074186
0.7155309
0.7152388
0.7155546
0.7149247
0.7130083
0.7081409
0.6951072
0.676677
0.624322
0.5802489
0.6861551
0.6944716
0.6950843
0.6971323
0.6983907
0.7008845
0.6970166
0.6965906
0.6703009
0.6509598
0.5227604
0.6642025
0.6728134
0.6746567
0.6786551
0.6834298
0.6907414
0.6978547
0.7078789
0.6981215
0.6958561
0.6283593
0.6410121
0.6498769
0.6529603
0.6588403
0.6670459
0.6784863
0.6948331
0.7124501
0.731551
0.7784771
0.7881871
0.6158752
0.6248843
0.628929
0.6363989
0.6469898
0.6629507
0.6837279
0.7160426
0.7521721
0.8312291
0.8316503
0.5884551
0.5973845
0.6020527
0.6103634
0.6226185
0.6410326
0.6663174
0.7074041
0.760703
0.9007234
0.9670904
0.5584252
0.5669616
0.5716896
0.5796432
0.5918141
0.6085268
0.6334903
0.6668617
0.7207577
0.8499454
1.146505
0.6687413
0.9723633
0.8732071
0.9614231
0.9743261
0.9985023
0.9821328
0.9429928
0.8472388
0.9113605
0.8706962
1.051834
0.9905518
0.9933311
1.017278
1.027302
1.031189
1.029757
1.022522
1.003949
1.026925
1.01705
0.9921473
0.9759943
0.9156601
0.9058386
0.8991023
0.8993834
0.8954554
0.8999317
0.8938103
0.9122288
0.907477
0.9356787
0.9564214
0.9423791
0.9501388
0.9520089
0.948952
0.955499
0.9548033
0.9456122
0.960105
0.9576604
0.9107634
0.9187433
0.8954605
0.8955717
0.900505
0.8983904
0.8994454
0.8989654
0.8991078
0.9117371
0.9162439
0.8908413
0.9014602
0.891473
0.8897125
0.8932962
0.8914302
0.8958305
0.8961215
0.8972522
0.907311
0.9141335
0.8667915
0.8697156
0.8639131
0.8610335
0.8612276
0.8595026
0.8613
0.8615296
0.8633052
0.872561
0.8781694
0.8445576
0.8486854
0.8429724
0.8441549
0.842529
0.8421419
0.8425783
0.8431338
0.8445906
0.8490654
0.8552347
0.8222698
0.8229739
0.8208842
0.8203339
0.818306
0.8168126
0.815091
0.8139066
0.8127171
0.8140238
0.8169151
0.8002932
0.8012974
0.7994445
0.7989006
0.7965232
0.7945141
0.7916423
0.7882282
0.7843208
0.7809508
0.7809843
0.7780692
0.7785247
0.777311
0.7762693
0.7737538
0.7710332
0.7659107
0.7604255
0.7503725
0.741967
0.7321149
0.7566804
0.7571346
0.7562677
0.7551888
0.75275
0.7492329
0.7431016
0.7338403
0.7209451
0.7026842
0.6885993
0.7352729
0.7358376
0.7353552
0.7348272
0.7325993
0.7301133
0.7219494
0.7139424
0.6918159
0.6682434
0.6182144
0.7139736
0.7148813
0.7150609
0.7154491
0.7146494
0.712872
0.7064959
0.6956253
0.6708337
0.6269442
0.5810058
0.6925844
0.6939018
0.6949918
0.6971093
0.6983837
0.7010216
0.6975606
0.6987763
0.6735586
0.6540166
0.5312217
0.6703448
0.672239
0.6745379
0.6786435
0.683478
0.6908679
0.6984232
0.7096604
0.7031951
0.6948551
0.6174224
0.6469687
0.6493581
0.6528466
0.6588355
0.667053
0.6785992
0.6949051
0.71292
0.7369192
0.7812661
0.7857931
0.6216068
0.6243956
0.6287974
0.6363939
0.6469848
0.663072
0.6837305
0.7162633
0.7469194
0.8328891
0.8125399
0.5939679
0.5969419
0.6019267
0.6103442
0.6226278
0.641057
0.6664403
0.707678
0.7596548
0.8967811
0.9576886
0.563656
0.5665417
0.5715698
0.5796344
0.5919107
0.6086786
0.6341281
0.6673108
0.7217737
0.8458968
1.157476
0.6591573
0.9863494
0.9466753
0.74273
0.6937148
0.8434187
0.7650394
0.8552864
0.9138955
0.8100597
0.9062729
1.060881
1.003419
1.038176
0.9924813
0.9775885
1.010239
0.998309
1.015744
1.021794
1.009031
1.013222
0.9914648
0.9670268
0.9281082
0.8756019
0.8492212
0.8943331
0.8672737
0.8960123
0.9087037
0.9051069
0.9159211
0.9368672
0.9538802
0.9518618
0.9514465
0.930164
0.9605157
0.9398395
0.9561473
0.9576386
0.958587
0.9626953
0.9122773
0.915439
0.8976564
0.9039817
0.8894226
0.906662
0.8936371
0.9061336
0.9074022
0.9111161
0.9170704
0.8923877
0.8999968
0.8927777
0.8988128
0.8951432
0.9020167
0.8983438
0.9028483
0.904309
0.9087225
0.9161468
0.8668795
0.8684347
0.8628771
0.8665884
0.8646552
0.868024
0.8668388
0.8673832
0.8692399
0.8719187
0.8800286
0.8455878
0.8476845
0.8464485
0.8476017
0.8474698
0.8473922
0.846923
0.8464109
0.8475833
0.8502836
0.8569137
0.8224322
0.8231052
0.8218198
0.8215525
0.819735
0.8188112
0.8175736
0.8157534
0.8154606
0.8150386
0.8181704
0.8006487
0.8014268
0.8006132
0.7996988
0.7982706
0.796095
0.7935025
0.7892922
0.7858869
0.7811001
0.7812349
0.7784303
0.7786345
0.7778807
0.7766572
0.7745251
0.7717681
0.7670195
0.761396
0.7521264
0.7431052
0.7332284
0.7568109
0.7571391
0.756631
0.7554026
0.7533918
0.7496475
0.7442214
0.7341819
0.7228864
0.7017893
0.6874884
0.7352453
0.7358394
0.7354725
0.7349452
0.7329823
0.7304441
0.7230594
0.7149497
0.6942547
0.6709021
0.6225685
0.713903
0.7148712
0.7150961
0.7154733
0.7149733
0.7128669
0.7080826
0.6945086
0.6741424
0.6263827
0.5846649
0.6925157
0.6938548
0.6949353
0.6970256
0.6983577
0.7007192
0.6971462
0.696504
0.6704881
0.6438529
0.5286435
0.6703486
0.6722027
0.67447
0.678571
0.6834119
0.6907759
0.6982778
0.7085983
0.7005318
0.7001114
0.6098277
0.6470007
0.6493029
0.6527699
0.658697
0.6669454
0.6782816
0.6948504
0.7122877
0.7336123
0.7796973
0.7845732
0.6216482
0.6243292
0.6287025
0.6362579
0.6468118
0.6628299
0.6834067
0.7157652
0.745545
0.8318253
0.8106309
0.5940295
0.5968744
0.6018221
0.6101839
0.62239
0.6407643
0.6658727
0.706911
0.7571939
0.8964901
0.9585537
0.5637404
0.5664983
0.5714687
0.5795139
0.5916534
0.6084543
0.6334746
0.6667358
0.7204849
0.849083
1.161401
0.6588151
0.9749266
0.9630125
0.6624293
0.8168693
0.6951578
0.9111837
0.8786081
0.7818705
0.9185771
0.9031782
1.078807
0.9847552
1.033381
0.9879668
1.029252
1.02674
1.036023
1.042714
1.018065
1.016708
1.039719
0.9940166
0.9537436
0.9174717
0.8625003
0.9044442
0.9086559
0.9022685
0.9143611
0.9125467
0.9212787
0.9269541
0.9387046
0.9506388
0.9497533
0.9475136
0.957291
0.9624069
0.9471037
0.9561008
0.9516008
0.9540563
0.9589029
0.9109416
0.9125988
0.8960893
0.897043
0.8937928
0.894486
0.8834641
0.8945476
0.9015134
0.9066613
0.9113267
0.8905499
0.9006209
0.8900845
0.8957083
0.8921768
0.8964109
0.8885035
0.8985145
0.9024431
0.9066416
0.9117169
0.8658327
0.8689952
0.8606571
0.8657284
0.8579889
0.8607843
0.8547224
0.8646016
0.8673166
0.8747356
0.8754536
0.8430986
0.8491419
0.841259
0.8477539
0.8396772
0.8454876
0.8401362
0.844942
0.84643
0.8496169
0.8547086
0.8214188
0.822229
0.8198401
0.8199742
0.8172939
0.8173093
0.8140895
0.8148853
0.8136632
0.8147658
0.8165914
0.8003058
0.801408
0.7991306
0.7990722
0.7961739
0.795395
0.7912775
0.788561
0.78488
0.7808736
0.7804874
0.7776337
0.7781736
0.7768929
0.7761149
0.7735327
0.7710757
0.7659285
0.7609282
0.7510699
0.7426975
0.7323152
0.7570492
0.757114
0.7564189
0.7551979
0.7528253
0.7492619
0.7434587
0.7336292
0.721831
0.7018827
0.6878254
0.7355425
0.7358889
0.7354907
0.734823
0.7327075
0.7302166
0.7224754
0.7146423
0.6933828
0.6703418
0.6197303
0.7138838
0.7149041
0.7150218
0.7154247
0.7148179
0.7128044
0.7077832
0.694366
0.6722673
0.6269804
0.583273
0.692754
0.6940076
0.6950427
0.6970427
0.6983615
0.7006923
0.6972215
0.6964655
0.6711695
0.6462381
0.5303238
0.6700856
0.6721289
0.6743406
0.6785315
0.6833745
0.6908027
0.6983803
0.7090323
0.7000145
0.6990541
0.6107725
0.646912
0.6492974
0.6527255
0.6586811
0.6669324
0.6782672
0.6948439
0.7122465
0.7347185
0.7818532
0.7854555
0.621517
0.6242777
0.6286202
0.6362204
0.6467783
0.662803
0.683418
0.7157198
0.7435087
0.8316481
0.803581
0.5939601
0.5968588
0.601774
0.6101625
0.6223668
0.640747
0.6658818
0.7069037
0.7568369
0.8947931
0.956253
0.5636175
0.5664567
0.5714077
0.5794937
0.5916655
0.6085106
0.6336617
0.6668966
0.7200195
0.848795
1.163145
0.6592296
0.9675792
0.9830532
0.6945924
0.5537464
0.9264958
0.7052247
0.8714001
0.9168155
0.9025284
0.9642836
1.084153
0.9777485
1.043513
1.026716
1.029515
1.034852
1.033099
1.02456
1.028859
1.017239
1.047615
0.9992369
0.9492981
0.9090282
0.8691578
0.9236064
0.921
0.9363184
0.9148944
0.9105723
0.9113501
0.9414978
0.9422766
0.9497193
0.948986
0.9398777
0.9737223
0.953022
0.9759941
0.9528885
0.9373955
0.945053
0.9676489
0.9115403
0.9109452
0.8968541
0.8906563
0.9087573
0.889411
0.9170875
0.8928127
0.8886999
0.8981396
0.9202788
0.8917488
0.8998049
0.8932108
0.8869587
0.9025454
0.8922842
0.9059542
0.8932499
0.8966281
0.9010784
0.9162741
0.8651893
0.8683853
0.8643459
0.8587199
0.8673512
0.8588645
0.8684502
0.8584655
0.8654553
0.8656856
0.8813205
0.8438041
0.8469044
0.8458878
0.8405868
0.8485185
0.8411932
0.8472925
0.8411648
0.8452658
0.8471935
0.8563401
0.8211135
0.8231021
0.8205827
0.8195734
0.8195734
0.81674
0.8169957
0.8131923
0.8141623
0.8127259
0.8172389
0.8004272
0.8007594
0.8002537
0.7979889
0.7980614
0.794053
0.793125
0.7878591
0.7848174
0.7801548
0.7807092
0.7789613
0.7777395
0.7779563
0.7758404
0.7741918
0.7709842
0.7665241
0.7606241
0.7510271
0.7422642
0.7324309
0.7569653
0.7563898
0.7567753
0.7548366
0.7532501
0.7490262
0.7437833
0.7333784
0.7218132
0.7017386
0.6880164
0.7349961
0.7357755
0.7353971
0.7347287
0.732807
0.7301323
0.7225463
0.7144222
0.6932789
0.6701548
0.6190149
0.7133917
0.714936
0.7148104
0.715383
0.7148246
0.7127374
0.7078747
0.6941868
0.6722577
0.6269212
0.5827997
0.6924041
0.6940049
0.694805
0.6970156
0.6983273
0.7006869
0.6972577
0.696446
0.6711082
0.6462611
0.5285272
0.6702379
0.6722748
0.6743215
0.6785564
0.6833782
0.6907297
0.6985379
0.7088459
0.6990965
0.7008601
0.6106675
0.6469818
0.6493887
0.6527145
0.6587166
0.666983
0.6783398
0.6952688
0.7126661
0.7325476
0.7827575
0.7834639
0.6215683
0.6243412
0.6286063
0.6362424
0.6467073
0.6628073
0.6831875
0.7154494
0.7443603
0.8275831
0.8034547
0.594026
0.5969022
0.6017666
0.6101806
0.6222915
0.6407366
0.6655697
0.7063496
0.7562909
0.8929287
0.955603
0.5638028
0.5665649
0.5714364
0.5795353
0.5916482
0.6085867
0.6336973
0.6672104
0.720043
0.8516146
1.160367
0.5307974
0.6590367
0.9635851
0.9629723
0.6260132
0.8278943
0.6998283
0.9187837
0.9331935
0.7990472
0.9177254
0.8563675
1.07626
0.9997758
1.035183
0.9894287
1.03781
1.025494
1.04495
1.042825
1.011829
1.004938
1.016021
0.9974683
0.9598384
0.9162853
0.8598181
0.9161989
0.9142429
0.9180078
0.9138986
0.9033197
0.9123054
0.9166534
0.945168
0.9532868
0.9528422
0.9404935
0.9650373
0.9573425
0.9571228
0.9493906
0.9440083
0.9585199
0.9586027
0.9117845
0.9112921
0.899655
0.8948413
0.898214
0.8931942
0.8911908
0.8935875
0.8955617
0.9134738
0.9104316
0.8956924
0.9003697
0.8938572
0.8960021
0.8957939
0.89435
0.8933272
0.8975984
0.8997251
0.9102689
0.9143277
0.8673355
0.8692826
0.8630545
0.8650902
0.8613262
0.8644506
0.8592083
0.8680495
0.8657797
0.8774647
0.8767376
0.841652
0.8501804
0.843845
0.8480396
0.8414459
0.8464559
0.8420487
0.8458265
0.8462962
0.8506848
0.8557108
0.8204969
0.8235393
0.8198316
0.8207686
0.8179352
0.818501
0.8150945
0.8164794
0.8133911
0.8156032
0.8170559
0.8012466
0.8016472
0.8006033
0.7997873
0.7971099
0.795804
0.7918747
0.7891417
0.7851793
0.7811192
0.7807017
0.7752185
0.7773884
0.7764758
0.7763236
0.7737147
0.7712118
0.76626
0.7613021
0.7514806
0.7430692
0.7328178
0.7560567
0.7564811
0.7575258
0.7553104
0.7532799
0.7494659
0.7438297
0.7341249
0.7226057
0.7015847
0.6876848
0.7308577
0.7361361
0.7362543
0.7349157
0.7330328
0.7302981
0.7229111
0.7147617
0.6940531
0.6706879
0.622008
0.7065487
0.7155157
0.714661
0.7155384
0.7148956
0.7127705
0.7079055
0.694398
0.6740809
0.6260144
0.5843013
0.6895218
0.6946997
0.6954167
0.6971933
0.6985115
0.7006952
0.6972672
0.6964561
0.6704793
0.6433937
0.527514
0.6677846
0.6721106
0.6738778
0.6784825
0.6832021
0.69062
0.6981841
0.7082017
0.6998373
0.6980933
0.609549
0.6463269
0.6493598
0.6525872
0.6587215
0.6669615
0.6782939
0.6952474
0.712584
0.7333947
0.7784765
0.7897949
0.6212171
0.6242084
0.6284353
0.636183
0.6466699
0.6626794
0.6831715
0.7150872
0.7464766
0.8241646
0.8199087
0.5938527
0.5968465
0.6016923
0.6101916
0.6222815
0.6408321
0.6655373
0.7069434
0.7562254
0.8944188
0.9360623
0.5632223
0.5663625
0.5712557
0.5795119
0.5916167
0.6086604
0.6337148
0.6675403
0.7214518
0.8543
1.138709
0.5308402
0.5332515
0.5377872
0.5445819
0.6598576
0.9662264
0.9522743
0.7634947
0.7571827
0.8649515
0.8756749
0.9000909
0.9214654
0.9825452
0.90887
1.06544
1.005974
1.017721
0.983311
0.9938287
1.003668
1.022168
0.9970898
0.9896407
1.013277
1.02778
0.9932133
0.9687665
0.9167355
0.8733716
0.8671777
0.8949566
0.8964592
0.9057991
0.8963607
0.9095067
0.9228646
0.9391259
0.9563761
0.9504413
0.9507161
0.9315848
0.9389849
0.9334262
0.9485466
0.9461149
0.9514362
0.9615906
0.9050214
0.9079297
0.8953605
0.9042843
0.8810077
0.8847588
0.8848686
0.8999292
0.8982055
0.9057266
0.9159217
0.8889464
0.8989585
0.8884664
0.9000087
0.8907731
0.8896112
0.8915957
0.8971462
0.8989035
0.9050864
0.9151078
0.8672522
0.8698596
0.859355
0.8662737
0.8590801
0.8592098
0.859912
0.8607689
0.8632947
0.86774
0.8771867
0.8422257
0.8535947
0.8399476
0.8480277
0.8416149
0.8407404
0.8428976
0.8431537
0.8445169
0.8481914
0.8553245
0.820675
0.8270513
0.8177697
0.821362
0.81759
0.8160455
0.8153813
0.8137064
0.8129837
0.8131591
0.8161894
0.7979834
0.8019172
0.7997158
0.7991907
0.7967586
0.7938937
0.7917021
0.7877695
0.7840691
0.7803254
0.7804879
0.7767883
0.7743238
0.7793898
0.7756307
0.7739523
0.7705708
0.7657541
0.7600094
0.7500187
0.7413748
0.7321291
0.7531243
0.7538626
0.7578319
0.7545297
0.7530666
0.748879
0.7430793
0.7335105
0.7207502
0.7022511
0.6883478
0.7374073
0.7367654
0.7355068
0.7347673
0.7326448
0.7298826
0.7218999
0.7135988
0.6914647
0.6676916
0.6186667
0.7112814
0.716784
0.7138961
0.7155178
0.7144828
0.712707
0.7064291
0.6953636
0.6710038
0.6264303
0.5808764
0.6908464
0.6948471
0.6943833
0.6971369
0.6983668
0.7008934
0.6978061
0.6986083
0.6740792
0.6534885
0.5287488
0.670077
0.6727198
0.6740674
0.6786516
0.6832873
0.6906566
0.6984895
0.7090396
0.7043853
0.6992691
0.6094506
0.6468374
0.6497445
0.6526763
0.6589195
0.6671009
0.6785357
0.6956316
0.7128413
0.7398115
0.776761
0.7950763
0.6212667
0.6244168
0.6285668
0.6363637
0.6466823
0.6628687
0.6828693
0.7154314
0.747578
0.8257162
0.8246054
0.5941718
0.5970041
0.6018023
0.6104089
0.6223794
0.641311
0.6655992
0.7083374
0.7567104
0.8979126
0.9371939
0.5644147
0.566951
0.5714869
0.5797684
0.5918594
0.6089881
0.6345083
0.668639
0.7235479
0.8533613
1.136247
0.5307031
0.5332469
0.537876
0.5446818
0.555395
0.5678382
0.6575446
0.9665501
0.8810779
0.8380241
0.9260437
0.8303055
0.907133
0.8851976
0.9357589
0.7519201
0.966617
1.06172
0.9918181
1.012412
0.9992798
1.021809
0.9964695
1.019345
1.009846
1.029827
0.9760802
1.006525
1.00691
0.9769503
0.9305628
0.9052754
0.9165711
0.8926767
0.9176379
0.9292896
0.9365552
0.9530882
0.9729041
1.007592
0.9526237
0.9608832
0.956116
0.9614141
0.9424292
0.9551742
0.9671041
0.9731552
0.9748776
0.989441
0.9793826
0.9129039
0.9007063
0.9072512
0.909349
0.8896245
0.9068493
0.9145085
0.9175312
0.9152645
0.9299066
0.9575194
0.9033503
0.8988277
0.8990046
0.9044148
0.8938101
0.901408
0.9073012
0.9109545
0.9129521
0.9230162
0.9001087
0.8691126
0.868697
0.865991
0.8688555
0.8621116
0.8662666
0.8696649
0.8712456
0.8742307
0.8805663
0.8299106
0.8514372
0.8428662
0.8469893
0.8478734
0.8454803
0.8456044
0.8471179
0.8480079
0.8510591
0.8575703
0.8581945
0.8208915
0.8193023
0.8210562
0.8189027
0.8183066
0.8171544
0.8167611
0.814699
0.8157062
0.8178512
0.7821966
0.8008856
0.8019502
0.7995802
0.7982729
0.7957135
0.7929124
0.7894351
0.7856359
0.781376
0.7811686
0.805483
0.7835788
0.7739691
0.7769149
0.7736361
0.7714481
0.7665581
0.7612819
0.7518638
0.743309
0.7335449
0.7979161
0.7581067
0.75616
0.7552704
0.7538089
0.7496277
0.7440405
0.7345945
0.7232361
0.7018362
0.6882254
0.7573337
0.7353164
0.7324254
0.7346311
0.7334707
0.7303213
0.7233424
0.7154169
0.6968055
0.673487
0.6224306
0.7066107
0.7147252
0.7070986
0.715473
0.7147788
0.7128364
0.7078192
0.6951022
0.6767772
0.6236038
0.579568
0.6919624
0.6959267
0.6924644
0.6971803
0.6987774
0.7007775
0.6972958
0.6963539
0.6709221
0.6500622
0.5232162
0.6623595
0.6724809
0.6722094
0.678453
0.6829636
0.6904594
0.6972639
0.70722
0.6994552
0.6999011
0.6052679
0.6415685
0.6502395
0.6522886
0.6588945
0.666981
0.6784677
0.6950006
0.7128756
0.7366121
0.7833209
0.7887122
0.6168942
0.6248281
0.6284559
0.6362908
0.6467322
0.6626688
0.6837413
0.7147752
0.7560943
0.8225352
0.8348258
0.5884376
0.5975387
0.6017889
0.6103939
0.6224348
0.64115
0.6662509
0.7072685
0.762494
0.8920629
0.9455193
0.5564401
0.5667655
0.5710161
0.5796672
0.5916738
0.6088065
0.6336357
0.6683519
0.720837
0.8580824
1.126381
0.5259155
0.5335515
0.5379853
0.5446741
0.5552675
0.5677349
0.5873673
0.6045511
0.6537359
0.9454635
0.9397339
0.9592236
0.9361443
0.9534828
0.9543455
0.9514944
0.949446
0.9186053
0.9457638
1.066718
0.9906104
1.039884
1.09632
1.099332
1.0866
1.089775
1.06642
1.063764
1.015127
1.046859
1.05727
0.9576807
0.9556032
0.9650134
0.9632717
0.9528709
0.9593844
0.9588483
0.9572614
0.9631921
0.9863074
1.050986
0.9385566
0.9531409
0.9671552
0.9668321
0.9575216
0.9541201
0.9565735
0.9595412
0.9693908
0.9787046
1.017246
0.9050869
0.8994953
0.9115134
0.9118653
0.9023231
0.906286
0.9102227
0.912725
0.9179116
0.9265828
0.9391355
0.8940409
0.8887506
0.8947396
0.8984678
0.8930621
0.8939511
0.8961908
0.8983156
0.9073246
0.9139414
0.9231221
0.8583366
0.8624838
0.863116
0.8635247
0.8607062
0.8618983
0.8628239
0.865114
0.8710991
0.8777015
0.9088765
0.8372734
0.8408614
0.8439382
0.8436972
0.8410888
0.8413256
0.8424024
0.8437101
0.8483727
0.8543093
0.8814429
0.8133534
0.8191888
0.819685
0.8183488
0.8160048
0.8144434
0.8134957
0.8123326
0.8129423
0.8157797
0.866277
0.7937399
0.7990901
0.7984133
0.7968113
0.7939001
0.7910438
0.7878437
0.7835015
0.7806324
0.7796
0.8548322
0.7746468
0.7759962
0.7762758
0.7733436
0.7703917
0.7653789
0.7592036
0.7495286
0.7401782
0.7308741
0.7926096
0.7520013
0.7562027
0.7550323
0.7526954
0.749074
0.7429145
0.7350368
0.7199274
0.7064688
0.6868211
0.7768006
0.729107
0.7352211
0.7343702
0.7325019
0.7294472
0.722216
0.7112744
0.690887
0.6576834
0.6115641
0.7634879
0.7056585
0.7132181
0.7146881
0.7141625
0.7128919
0.7059055
0.697807
0.6698395
0.6569661
0.5830873
0.7382243
0.6842758
0.6949085
0.6962535
0.6981938
0.7009091
0.6983625
0.7013257
0.6752901
0.6414793
0.5587165
0.7227357
0.6659003
0.6730367
0.6780059
0.6826589
0.6898957
0.6975383
0.7063009
0.7151052
0.700692
0.6263293
0.6976558
0.6442152
0.6517142
0.6584325
0.6663699
0.6778971
0.6944404
0.7114442
0.7448388
0.7607451
0.7973287
0.6740962
0.6179026
0.627844
0.635662
0.6457739
0.6617962
0.6811515
0.713526
0.752987
0.8609607
0.8504132
0.637413
0.591377
0.6008706
0.6098493
0.6215195
0.6408277
0.6640513
0.7091844
0.7522353
0.8513709
0.9696612
0.6108401
0.5627026
0.5700728
0.5793844
0.591028
0.6079131
0.6323225
0.6648653
0.7120951
0.8399439
1.127819
0.5771105
0.5277297
0.5375363
0.5442283
0.5550391
0.5672096
0.5877356
0.6047216
0.6288791
0.6870602
0.6764766
0.9401735
1.050269
1.00027
0.9919047
0.9795846
1.035975
1.040358
0.9996502
0.9876066
0.9800859
0.9916595
1.046392
1.058872
1.007617
0.9961342
0.9950148
1.010998
1.061649
1.063998
1.00729
0.9794263
1.043551
1.039579
1.073644
1.075042
1.009336
0.9808404
1.046667
1.052439
1.081627
1.071067
1.007258
0.9815138
1.041064
1.047607
1.07917
1.070741
1.00881
0.9855736
1.028777
1.030724
1.09347
1.070456
1.00855
0.9909526
1.030742
1.026415
1.095473
1.066931
1.008032
0.9950778
1.033368
1.020554
1.092998
1.063205
1.007564
0.9964359
1.034812
1.019284
1.090074
1.059779
1.006894
0.9966286
1.034117
1.020631
1.043782
1.026731
1.027002
1.042476
0.9962544
1.008753
0.9727198
1.004933
1.003206
0.9995374
0.9863664
0.9709208
0.9879916
0.961637
0.9941714
0.9922276
0.9837548
0.9878948
0.9529404
0.9823959
0.9349465
0.9805999
0.9697194
0.967163
0.9849873
0.9236435
0.9718237
0.9194892
0.9598918
0.9460091
0.9428355
0.9652684
0.9082185
0.9483721
0.8906203
0.9344432
0.9191244
0.9171901
0.9399494
0.879758
0.9222656
0.8664312
0.9086377
0.8934181
0.8914596
0.9137007
0.8564973
0.8975342
0.8411477
0.8828388
0.8676391
0.8658924
0.8879754
0.8324967
0.8721213
0.8183866
0.8574122
0.8426663
0.8408173
0.862406
0.8099818
0.8470766
0.7955042
0.8324412
0.8181068
0.8161638
0.8373395
0.787417
0.8224829
0.7734146
0.8079416
0.7941087
0.7920132
0.8127226
0.765517
0.7983429
0.7517914
0.7839333
0.77054
0.7683508
0.7885844
0.7440272
0.7744306
0.7304878
0.7603342
0.7472213
0.7450237
0.764768
0.7227323
0.7505917
0.7095452
0.7369313
0.7238203
0.7217205
0.7410767
0.701305
0.7267066
0.6882804
0.7132948
0.6997158
0.6978686
0.7171365
0.6793189
0.7022135
0.6662616
0.3672704
0.7928739
0.6226499
0.403989
0.8202172
0.6888119
0.674318
0.6728488
0.6923521
0.6563731
0.6765889
0.6426484
0.8366495
0.7983753
0.8282589
0.6628206
0.6470073
0.6460445
0.6660574
0.631682
0.6493063
0.6168424
0.9189297
0.8519693
0.9049013
0.6346318
0.6173355
0.6168089
0.6376013
0.6048152
0.6196168
0.5883881
1.011758
0.9759035
1.086513
0.6037053
0.5850952
0.5847211
0.6065213
0.575367
0.5872539
0.5569861
0.8684051
0.7629548
1.139354
0.905066
0.8526368
0.5697872
0.5726777
0.5428004
1.009027
1.009858
0.9901573
0.9932136
1.022675
1.025406
0.4193062
0.8232926
0.6047509
0.4064726
0.821321
0.8651294
0.8778342
1.157343
0.871226
0.8764428
1.008914
1.036027
1.01977
0.9971763
1.040581
1.03229
0.4177409
0.8249944
0.6095904
0.4151786
0.8279417
0.8759311
0.8885824
1.161034
0.8753454
0.8857706
1.008128
1.039752
1.045005
0.9962717
1.050302
1.047694
0.4136679
0.8218771
0.6099526
0.4145603
0.826153
0.8780585
0.8907553
1.160235
0.8787617
0.8898546
1.008881
1.053928
1.055614
0.9897473
1.053886
1.056492
0.4140566
0.8242618
0.6113054
0.4143338
0.8271779
0.8790308
0.8877151
1.155309
0.8793741
0.8886242
1.020926
1.051884
1.059752
1.008139
1.057441
1.065185
0.4143303
0.8211729
0.6121546
0.4143932
0.8286965
0.878284
0.881237
1.12544
0.8786976
0.8822317
1.006402
1.058031
1.059799
1.008355
1.058903
1.054591
0.4146387
0.82494
0.6099668
0.4138623
0.8237491
0.876508
0.8878152
1.134575
0.8750731
0.8864026
1.008676
1.053962
1.052698
1.00731
1.038809
1.044543
0.4151408
0.8270718
0.6166691
0.4176385
0.8267959
0.8721154
0.8868242
1.139575
0.8743324
0.8788076
0.9995961
1.048408
1.032426
1.0076
1.019736
1.033447
0.4070262
0.8239168
0.6283608
0.4206813
0.8260795
0.869908
0.8658782
1.151194
0.8669154
0.8739056
1.012619
1.035468
0.9952974
0.9551808
1.045857
0.9594352
1.003026
1.047051
0.9928629
1.002345
1.101958
0.9408561
1.093963
1.079709
0.9528042
1.044899
1.041473
0.974393
1.098889
1.137144
0.9635012
1.17136
1.078572
0.9316958
1.12313
1.128564
1.149686
1.110004
0.9588896
1.105066
1.076225
0.9605125
1.075839
1.085584
1.011358
1.065189
1.067557
1.108668
1.070961
1.005941
1.04073
0.9531125
1.016745
0.9902335
0.9525268
1.035044
0.9614488
0.9816214
0.9786821
0.9866956
0.9593708
1.000359
0.9274714
0.9884093
0.9863054
0.9601288
0.9118071
0.9581033
0.9069998
0.9443515
0.9317248
0.8622898
0.8910843
0.8575408
0.891927
0.8782676
0.8400325
0.8436104
0.8341915
0.8670862
0.8391883
0.8118142
0.8254135
0.794309
0.8388842
0.8197807
0.7917385
0.795566
0.7671182
0.8086684
0.7911974
0.757571
0.7896693
0.7442426
0.7788207
0.7768868
0.7482123
0.7729724
0.7309097
0.7632166
0.7539567
0.4078735
0.8199638
0.624324
0.3752822
0.7725292
0.916906
0.8461132
0.884425
1.072568
0.9799125
0.9987735
0.9004947
0.858801
1.007102
0.8662836
0.7650749
0.9956638
1.003899
0.999702
1.044329
1.029718
1.049062
0.9989046
1.030609
1.023007
1.053279
1.012875
1.024662
1.021337
1.039819
1.024719
1.033302
1.024507
1.034792
1.01771
1.036269
1.029743
1.036364
1.022373
1.048725
1.015437
1.030973
1.020269
1.055555
1.015183
1.02867
1.020414
1.053928
1.012235
1.027058
1.018706
1.052873
1.010485
1.02598
1.01664
1.052718
1.009595
1.023206
1.039899
1.0174
1.042457
0.9998315
1.040476
1.012231
0.9912959
0.98201
1.054994
1.063229
1.07218
1.008708
1.055537
1.04792
0.9798956
1.066189
1.044342
1.055176
0.982466
1.045411
1.051697
0.94746
1.04479
1.020969
1.040901
0.9559129
1.027958
1.026503
0.9329597
1.024663
1.000711
1.029179
0.9370031
1.011949
1.005455
0.9041412
0.9970293
0.9707588
1.00118
0.9110505
0.9827696
0.9770123
0.880993
0.9737283
0.9459952
0.9783735
0.8889353
0.9582538
0.9521495
0.8552453
0.9484482
0.9194284
0.9526986
0.8656421
0.931428
0.9257143
0.8314996
0.924632
0.8939893
0.9288105
0.8435805
0.9060731
0.9004727
0.8071928
0.9006909
0.8682483
0.9047762
0.8213429
0.8806213
0.875219
0.7836738
0.8774292
0.8429195
0.8814971
0.7996929
0.8558259
0.850554
0.7605122
0.8545477
0.8179444
0.8586119
0.7782602
0.8313611
0.8262193
0.7374248
0.8318095
0.793147
0.8358377
0.7568586
0.8069837
0.8020054
0.7142156
0.8092446
0.768344
0.8131944
0.7354988
0.7825721
0.7777731
0.4765732
0.5937814
0.4895403
0.5590499
0.5218995
0.5811028
0.4864506
0.6902569
0.786131
0.7429284
0.7898419
0.7135492
0.7574382
0.7528391
0.6651904
0.7620726
0.716284
0.7653311
0.6907446
0.7310574
0.7266573
0.6383531
0.7362892
0.6877486
0.738789
0.6662319
0.7025101
0.6984995
0.6091447
0.7078335
0.6567104
0.7097642
0.6395286
0.6713002
0.6675541
0.5772652
0.6765127
0.6226708
0.677878
0.6104798
0.6370775
0.6336745
0.5425459
0.6420936
0.5856618
0.6429965
0.578784
0.5998341
0.5968078
1.021066
1.035338
0.4799105
0.5732425
0.4841904
0.5234369
0.4806056
0.5696111
0.4761732
1.111791
0.9613336
1.120336
1.023389
1.040327
0.4913347
0.5744508
0.4791605
0.5291358
0.490697
0.5706387
0.4774231
1.123059
0.9613795
1.124564
1.021309
1.044159
0.4893396
0.5694574
0.476039
0.5281429
0.4890624
0.5696886
0.4761054
1.124888
0.9578063
1.123104
1.028432
1.050163
0.4914848
0.570799
0.4769132
0.5295832
0.4911996
0.5707219
0.4764425
1.125251
0.9557783
1.116649
1.031383
1.045198
0.490653
0.5695638
0.4759423
0.5294699
0.4911229
0.5709857
0.4768473
1.119343
0.9415937
1.044138
1.072549
1.039057
1.032496
0.4885589
0.5695586
0.4758153
0.528488
0.4888564
0.5696591
0.4759462
1.023303
1.07306
0.9356361
1.018666
1.069852
1.043864
1.023585
0.490075
0.5703796
0.4772865
0.5312255
0.4910299
0.5745721
0.4791859
1.018084
1.070681
0.9451266
1.021162
1.079017
1.041928
1.022803
0.4794131
0.5699173
0.4761593
0.5226522
0.4795185
0.5733674
0.484062
1.041957
1.069554
0.966677
1.112936
1.0354
1.023893
0.9658001
1.125981
1.125427
0.9555079
0.9771378
1.128779
1.088013
0.9614267
1.115509
1.118005
1.144741
1.092576
0.9582816
1.100817
1.099087
1.132001
1.088842
0.9495583
1.101372
1.09252
1.121975
1.08777
0.9009591
0.9351589
0.8801339
0.9252848
0.9219657
0.8809888
0.9201099
0.8730239
0.9103304
0.8986989
0.7250185
0.7517897