/*--------------------------------*- C++ -*----------------------------------*\
  =========                 |
  \\      /  F ield         | OpenFOAM: The Open Source CFD Toolbox
   \\    /   O peration     | Website:  https://openfoam.org
    \\  /    A nd           | Version:  7
     \\/     M anipulation  |
\*---------------------------------------------------------------------------*/
FoamFile
{
    version     2.0;
    format      ascii;
    class       volScalarField;
    location    "0.1";
    object      Uy;
}
// * * * * * * * * * * * * * * * * * * * * * * * * * * * * * * * * * * * * * //

dimensions      [0 1 -1 0 0 0 0];

internalField   nonuniform List<scalar> 
105056
(
-0.008974746
-0.007928593
-0.006869261
-0.00592099
-0.005153008
-0.01802674
-0.01762897
-0.01723349
-0.01692965
-0.01661001
-0.02694331
-0.02680991
-0.02658962
-0.02640891
-0.02623382
-0.03576171
-0.03572579
-0.03553699
-0.0354098
-0.03525223
-0.04473665
-0.04457246
-0.04443448
-0.04429783
-0.04415634
-0.05349342
-0.05326903
-0.05331287
-0.0531473
-0.05296656
-0.06222002
-0.06197712
-0.06224982
-0.06204953
-0.06183209
-0.07102666
-0.07086285
-0.07119713
-0.0709769
-0.07072947
-0.07999476
-0.07989402
-0.0801845
-0.07996223
-0.0796893
-0.08902424
-0.08905685
-0.08914427
-0.08901119
-0.08870497
-0.09816012
-0.09831754
-0.09825083
-0.09811406
-0.0977874
-0.1073759
-0.107638
-0.1073675
-0.1072953
-0.1069407
-0.1166643
-0.1170434
-0.116555
-0.1165525
-0.1161735
-0.1260247
-0.1265464
-0.1258924
-0.1258668
-0.1254931
-0.1354532
-0.1361607
-0.1353214
-0.135391
-0.1348808
-0.1449381
-0.1458678
-0.144905
-0.1448074
-0.1443899
-0.1545047
-0.1556674
-0.1546762
-0.154309
-0.1540153
-0.1641606
-0.1655616
-0.1645218
-0.1639721
-0.1638619
-0.1739332
-0.1755367
-0.1744773
-0.1737801
-0.1736933
-0.1838087
-0.1855914
-0.18454
-0.1837208
-0.1834877
-0.1937967
-0.1957719
-0.1947495
-0.1937689
-0.1933877
-0.2038806
-0.2060585
-0.2050813
-0.2039283
-0.2034208
-0.2239829
-0.2164664
-0.215543
-0.2142069
-0.2136466
-0.001664266
-0.002099821
-0.002000998
-0.002073048
-0.002171201
-0.01053756
-0.01296083
-0.01297279
-0.01284237
-0.01282733
-0.01280495
-0.01846944
-0.02149721
-0.02140909
-0.02141668
-0.02131709
-0.02119886
-0.02723658
-0.03029198
-0.03023683
-0.03016503
-0.03008593
-0.0299738
-0.03601291
-0.03902614
-0.03906781
-0.03898031
-0.03887406
-0.03872119
-0.04485721
-0.04785941
-0.0479468
-0.04779988
-0.04769927
-0.04751504
-0.05375102
-0.05672831
-0.0568438
-0.05665605
-0.0565433
-0.05632613
-0.06265138
-0.06569479
-0.0657712
-0.06558078
-0.06543954
-0.06519796
-0.07152964
-0.07470386
-0.07471991
-0.07453496
-0.07436143
-0.07409549
-0.08046056
-0.08379496
-0.08373969
-0.08356293
-0.08335625
-0.08306455
-0.08937473
-0.09289859
-0.09281958
-0.09263108
-0.09239974
-0.09208135
-0.09845424
-0.1020462
-0.1019768
-0.1017673
-0.1015198
-0.1011724
-0.1075931
-0.1112752
-0.1112035
-0.1109768
-0.1107083
-0.1103329
-0.116803
-0.1205867
-0.1205055
-0.1202631
-0.1199782
-0.1195742
-0.1260832
-0.1299833
-0.1298868
-0.1296285
-0.1293241
-0.1288967
-0.1354605
-0.1394693
-0.1393531
-0.1390848
-0.1387576
-0.1383096
-0.1449224
-0.1490194
-0.1489119
-0.1486285
-0.1482894
-0.1478183
-0.1544946
-0.1586643
-0.1585601
-0.1582624
-0.1579129
-0.1574206
-0.1641351
-0.1684202
-0.1683052
-0.1679984
-0.1676344
-0.1671204
-0.1738785
-0.1782766
-0.1781542
-0.1778417
-0.1774625
-0.176933
-0.1837723
-0.1882623
-0.1880999
-0.1877934
-0.1873991
-0.1868592
-0.1937844
-0.1983513
-0.1981492
-0.1978527
-0.1974447
-0.1968962
-0.2038667
-0.2085567
-0.2083111
-0.2080222
-0.2076028
-0.2070473
-0.2190263
-0.2188691
-0.2185916
-0.2183083
-0.2178793
-0.2173194
-0.00157527
-0.002619802
-0.002618921
-0.002638315
-0.002786558
-0.01061778
-0.01297643
-0.01272967
-0.01261407
-0.01251335
-0.01251356
-0.01868901
-0.02174313
-0.0215563
-0.0214073
-0.02149294
-0.0214381
-0.02761918
-0.03039469
-0.03021304
-0.03018839
-0.03009656
-0.02999298
-0.03662001
-0.03911801
-0.03910876
-0.03906281
-0.03895002
-0.03881324
-0.0456531
-0.04795083
-0.04799248
-0.04785348
-0.04772946
-0.04754515
-0.05469773
-0.05680574
-0.05690463
-0.05670735
-0.05658127
-0.05636415
-0.06374143
-0.06580295
-0.06582188
-0.06562689
-0.06546517
-0.06522008
-0.07279122
-0.07484094
-0.07476327
-0.0745866
-0.07438968
-0.07412076
-0.08192651
-0.08392121
-0.08378064
-0.08360988
-0.08338225
-0.08308784
-0.09109291
-0.09302872
-0.09286619
-0.09268058
-0.09242874
-0.0921062
-0.1002841
-0.1021895
-0.1020312
-0.1018212
-0.1015509
-0.1011989
-0.1095592
-0.111418
-0.1112595
-0.111028
-0.1107398
-0.1103596
-0.118937
-0.1207296
-0.1205634
-0.1203127
-0.1200086
-0.1196016
-0.1284244
-0.1300983
-0.129948
-0.1296756
-0.1293583
-0.1289261
-0.1379786
-0.1395645
-0.1394176
-0.1391258
-0.138795
-0.1383398
-0.1475859
-0.1491079
-0.1489802
-0.1486699
-0.148323
-0.147847
-0.1572484
-0.1587601
-0.1586364
-0.158312
-0.1579485
-0.1574529
-0.1671857
-0.1685815
-0.1683882
-0.1680593
-0.1676747
-0.1671616
-0.1771249
-0.1784599
-0.1782424
-0.177907
-0.1775053
-0.1769762
-0.1871811
-0.1884283
-0.1882002
-0.187858
-0.1874424
-0.1868975
-0.1973559
-0.1985148
-0.1982665
-0.1979219
-0.1974934
-0.1969359
-0.2076797
-0.2087075
-0.2084436
-0.2080939
-0.2076539
-0.2070844
-0.2181359
-0.2190247
-0.2187347
-0.2183857
-0.2179387
-0.2173575
-0.001533102
-0.002332241
-0.002407741
-0.002322828
-0.002578268
-0.01049906
-0.01293918
-0.0125794
-0.01242072
-0.01226879
-0.01229566
-0.01873174
-0.02187575
-0.02152661
-0.02132422
-0.02153177
-0.02149142
-0.0276073
-0.03040101
-0.03019057
-0.03013089
-0.03006165
-0.02995741
-0.03674148
-0.03902885
-0.03908229
-0.03900947
-0.03895873
-0.0388225
-0.04577522
-0.04788019
-0.04793292
-0.0478412
-0.0477328
-0.04753996
-0.05482929
-0.0567256
-0.05690892
-0.05668533
-0.05657752
-0.05635614
-0.06390312
-0.06573786
-0.06581655
-0.06560748
-0.06546339
-0.06521705
-0.07301
-0.07478229
-0.07474934
-0.07456361
-0.07438088
-0.07411263
-0.08211148
-0.0838882
-0.08376422
-0.08359372
-0.08337609
-0.08308361
-0.0911385
-0.09300447
-0.09284683
-0.09266282
-0.09241926
-0.09209892
-0.1002597
-0.1021528
-0.1020154
-0.1018034
-0.101543
-0.1011927
-0.1095281
-0.1113739
-0.1112471
-0.1110104
-0.1107316
-0.1103525
-0.1188876
-0.1206917
-0.1205517
-0.1202979
-0.1200012
-0.1195953
-0.1283539
-0.1300834
-0.1299364
-0.129666
-0.1293509
-0.12892
-0.1378464
-0.1395777
-0.1394045
-0.1391232
-0.1387881
-0.1383345
-0.1477059
-0.1491805
-0.148971
-0.1486728
-0.1483193
-0.1478428
-0.1573683
-0.1587819
-0.1586288
-0.1583088
-0.1579454
-0.1574482
-0.1672354
-0.1685366
-0.1683764
-0.1680486
-0.1676714
-0.1671555
-0.1771632
-0.1784102
-0.1782332
-0.1778932
-0.1775039
-0.176971
-0.1873354
-0.1883853
-0.1881896
-0.1878429
-0.1874426
-0.1868951
-0.1975229
-0.1984322
-0.1982529
-0.1979006
-0.1974921
-0.196933
-0.2077524
-0.2086153
-0.2084316
-0.2080681
-0.2076525
-0.2070836
-0.2176091
-0.2189419
-0.2187161
-0.2183539
-0.2179276
-0.2173513
-0.001515679
-0.002532349
-0.002284853
-0.002389918
-0.00238956
-0.01059965
-0.01293055
-0.01255526
-0.01241289
-0.01222672
-0.01224392
-0.01887424
-0.02190885
-0.02150679
-0.0211691
-0.02150646
-0.02151709
-0.02792929
-0.03038397
-0.03020775
-0.03010829
-0.03005716
-0.0299497
-0.03686411
-0.03902508
-0.0390954
-0.03899798
-0.03897638
-0.03885031
-0.04579288
-0.04791154
-0.04792131
-0.04784851
-0.04774123
-0.04754725
-0.05484971
-0.05675922
-0.05691417
-0.05669727
-0.05658654
-0.05636734
-0.0638738
-0.06574684
-0.06582252
-0.06561375
-0.06546842
-0.06522172
-0.07292326
-0.07481014
-0.07475338
-0.07457171
-0.07438562
-0.07411744
-0.08198985
-0.08387765
-0.08376983
-0.08359728
-0.08337962
-0.08308685
-0.09108084
-0.0929594
-0.09285446
-0.09266326
-0.09242252
-0.09210155
-0.1002091
-0.1021496
-0.1020226
-0.1018082
-0.1015464
-0.1011959
-0.1094804
-0.1113629
-0.1112567
-0.111015
-0.110735
-0.1103554
-0.1188547
-0.1206825
-0.1205596
-0.1203034
-0.1200044
-0.1195984
-0.1282873
-0.1300966
-0.1299413
-0.1296728
-0.1293541
-0.128923
-0.1378154
-0.1395797
-0.1394069
-0.1391287
-0.138791
-0.1383375
-0.147514
-0.1492575
-0.1489622
-0.1486865
-0.1483206
-0.1478457
-0.1571017
-0.1588992
-0.1586178
-0.1583263
-0.1579468
-0.1574515
-0.1671905
-0.1685591
-0.1683737
-0.1680573
-0.1676719
-0.167157
-0.1771661
-0.1784241
-0.178234
-0.1779016
-0.1775051
-0.1769722
-0.187083
-0.1884199
-0.188188
-0.1878482
-0.1874391
-0.1868885
-0.1972313
-0.1984897
-0.1982549
-0.1979092
-0.1974938
-0.196929
-0.2075985
-0.2086207
-0.2084326
-0.2080662
-0.2076434
-0.2070596
-0.2179931
-0.2189066
-0.2187308
-0.2183583
-0.2179401
-0.2173431
-0.001528803
-0.002246848
-0.002087942
-0.002001696
-0.0024028
-0.01052912
-0.01293272
-0.01255726
-0.01241619
-0.01221595
-0.0122598
-0.01879685
-0.02190797
-0.02150039
-0.02117217
-0.02151518
-0.02151275
-0.02792534
-0.03037545
-0.03020785
-0.03010663
-0.03005569
-0.0299511
-0.03686908
-0.03903224
-0.0390929
-0.03899557
-0.0389772
-0.03885004
-0.04579925
-0.04789976
-0.04791972
-0.04784762
-0.0477415
-0.04754727
-0.05486136
-0.0567171
-0.05692174
-0.05669396
-0.05658743
-0.05636732
-0.06384402
-0.06574057
-0.06582188
-0.06561337
-0.06546844
-0.06522186
-0.07288994
-0.07481184
-0.07475264
-0.07457304
-0.07438579
-0.07411798
-0.08197621
-0.08389449
-0.08376857
-0.0836006
-0.08337993
-0.0830876
-0.09105537
-0.09299865
-0.09285516
-0.09266847
-0.09242335
-0.09210265
-0.1001665
-0.1021618
-0.1020229
-0.1018114
-0.1015471
-0.1011968
-0.1094015
-0.1113824
-0.1112555
-0.1110174
-0.1107358
-0.1103564
-0.1188609
-0.1206771
-0.1205608
-0.1203029
-0.1200052
-0.119599
-0.1283009
-0.1300795
-0.1299417
-0.1296715
-0.1293548
-0.1289239
-0.1378682
-0.1395807
-0.1394083
-0.1391286
-0.1387925
-0.138339
-0.1474209
-0.1491751
-0.1489683
-0.1486784
-0.1483227
-0.1478476
-0.1571482
-0.1588411
-0.1586226
-0.1583217
-0.1579504
-0.1574553
-0.1671299
-0.1685719
-0.1683762
-0.1680623
-0.1676783
-0.167165
-0.1769574
-0.178452
-0.1782351
-0.1779109
-0.1775136
-0.1769833
-0.1870024
-0.1884359
-0.1881937
-0.1878631
-0.1874547
-0.18691
-0.1972253
-0.1984863
-0.1982626
-0.1979228
-0.1975089
-0.1969511
-0.2075677
-0.2086211
-0.2084457
-0.2080897
-0.2076744
-0.2071079
-0.2179705
-0.2188958
-0.2187352
-0.2183716
-0.2179542
-0.2173762
-0.001538822
-0.002112789
-0.002036321
-0.002128479
-0.002386212
-0.01053445
-0.01293793
-0.01257085
-0.01242162
-0.0122885
-0.01231709
-0.01880628
-0.02187814
-0.02153085
-0.02131471
-0.02152816
-0.02148365
-0.02779687
-0.03039882
-0.03018791
-0.03012949
-0.03006413
-0.02995757
-0.03687162
-0.03903354
-0.03908606
-0.0390097
-0.03896002
-0.03882192
-0.04579173
-0.04785817
-0.04793976
-0.04783776
-0.04773302
-0.04753934
-0.05483851
-0.05670247
-0.05691067
-0.05668187
-0.05657762
-0.0563559
-0.06384384
-0.06573955
-0.06581513
-0.06560656
-0.06546319
-0.06521697
-0.07288429
-0.07478951
-0.07474829
-0.07456297
-0.074381
-0.07411266
-0.08197345
-0.08388541
-0.08376488
-0.08359285
-0.0833765
-0.0830839
-0.09107606
-0.09296323
-0.09285243
-0.09265971
-0.09242011
-0.0920993
-0.1001983
-0.1021431
-0.102017
-0.1018051
-0.1015437
-0.101194
-0.1095658
-0.1114333
-0.1112435
-0.1110191
-0.1107329
-0.1103546
-0.118981
-0.1207194
-0.1205504
-0.1203048
-0.1200028
-0.1195975
-0.1285042
-0.1300976
-0.1299381
-0.1296716
-0.1293529
-0.1289221
-0.1380506
-0.1395799
-0.1394086
-0.139128
-0.1387904
-0.138337
-0.147556
-0.1491679
-0.1489685
-0.1486775
-0.1483205
-0.1478447
-0.1573985
-0.1588329
-0.1586228
-0.158319
-0.1579479
-0.1574513
-0.1671492
-0.1685855
-0.1683739
-0.1680545
-0.1676718
-0.1671544
-0.1769844
-0.1784469
-0.1782342
-0.1779006
-0.1775092
-0.176974
-0.1871956
-0.1883706
-0.1881907
-0.1878378
-0.1874373
-0.1868809
-0.1973352
-0.1984382
-0.1982616
-0.1979065
-0.1975077
-0.1969393
-0.2075843
-0.2086217
-0.2084192
-0.2080461
-0.2076282
-0.2070222
-0.2179199
-0.2189206
-0.218723
-0.2183576
-0.2179731
-0.2173567
-0.001538664
-0.002623885
-0.002540266
-0.002550716
-0.002758687
-0.0105473
-0.01297055
-0.01272863
-0.012609
-0.01251446
-0.01251713
-0.01865604
-0.02173874
-0.02155949
-0.02140972
-0.02149451
-0.02143207
-0.02757852
-0.03038612
-0.0302131
-0.03018594
-0.03009574
-0.02999187
-0.03668013
-0.03911145
-0.03910945
-0.03905813
-0.03895099
-0.03881326
-0.04575718
-0.0479346
-0.04799165
-0.04784963
-0.04772952
-0.04754448
-0.05484715
-0.05679319
-0.05690294
-0.05670404
-0.05658112
-0.05636395
-0.06387815
-0.06580215
-0.06581873
-0.065626
-0.06546477
-0.06522011
-0.07292305
-0.07484348
-0.07476203
-0.07458712
-0.07438987
-0.07412131
-0.08199258
-0.08392311
-0.08378123
-0.08361162
-0.08338308
-0.08308884
-0.09111336
-0.0930368
-0.09286978
-0.09268414
-0.09243045
-0.09210779
-0.100364
-0.1022016
-0.1020346
-0.1018265
-0.1015531
-0.1012012
-0.1097068
-0.1114456
-0.1112637
-0.1110348
-0.1107427
-0.1103624
-0.1191341
-0.1207374
-0.1205681
-0.1203175
-0.1200118
-0.1196047
-0.1287034
-0.1301106
-0.1299535
-0.1296811
-0.1293623
-0.1289297
-0.1382759
-0.139557
-0.1394242
-0.1391305
-0.1388
-0.1383446
-0.1479829
-0.1491197
-0.1489846
-0.1486759
-0.148329
-0.1478535
-0.157649
-0.1587988
-0.1586411
-0.1583223
-0.1579573
-0.1574625
-0.167487
-0.1685601
-0.1683936
-0.1680683
-0.1676868
-0.1671754
-0.1773099
-0.1784703
-0.1782512
-0.1779236
-0.1775238
-0.1769973
-0.1873341
-0.1884649
-0.1882169
-0.1878836
-0.1874721
-0.1869329
-0.1975641
-0.1985436
-0.1982896
-0.1979521
-0.1975351
-0.1969861
-0.2078709
-0.2087391
-0.2084722
-0.2081383
-0.2077252
-0.2071823
-0.2183345
-0.2190563
-0.2187583
-0.2184246
-0.2180175
-0.2174794
-0.001581863
-0.002475025
-0.002581389
-0.00270387
-0.002800998
-0.01064972
-0.01295903
-0.01297236
-0.01284208
-0.01282359
-0.01280091
-0.01862759
-0.02150098
-0.02140973
-0.02141604
-0.02131562
-0.02119598
-0.0274591
-0.0302906
-0.03023568
-0.03016358
-0.03008544
-0.02997279
-0.03638918
-0.03903248
-0.03906868
-0.03898063
-0.03887484
-0.03872146
-0.0453379
-0.04786283
-0.04794595
-0.04779947
-0.04769922
-0.04751512
-0.05423144
-0.05671865
-0.05684209
-0.05665441
-0.05654315
-0.05632644
-0.06312762
-0.06567946
-0.06576951
-0.06557866
-0.06543925
-0.06519839
-0.07211
-0.07469514
-0.07471981
-0.07453416
-0.0743619
-0.07409608
-0.08114438
-0.08378823
-0.08374096
-0.08356329
-0.08335744
-0.0830658
-0.09023898
-0.09290255
-0.09282293
-0.09263334
-0.09240168
-0.09208314
-0.09941144
-0.102054
-0.1019802
-0.1017708
-0.1015222
-0.1011748
-0.1086753
-0.1112913
-0.1112075
-0.1109828
-0.1107114
-0.110336
-0.1180187
-0.1206015
-0.1205106
-0.1202698
-0.119982
-0.119578
-0.1274181
-0.1299996
-0.1298935
-0.1296362
-0.1293289
-0.1289011
-0.1369361
-0.139485
-0.1393609
-0.1390933
-0.1387638
-0.1383154
-0.1465392
-0.1490498
-0.1489176
-0.1486385
-0.1482961
-0.1478245
-0.15623
-0.1587033
-0.1585654
-0.1582759
-0.1579227
-0.1574309
-0.1660029
-0.1684322
-0.1683095
-0.1680078
-0.1676424
-0.1671275
-0.1758956
-0.1782864
-0.1781638
-0.1778579
-0.1774832
-0.176955
-0.1858907
-0.1882662
-0.1881055
-0.1877989
-0.1874054
-0.186858
-0.1959682
-0.1983662
-0.198169
-0.197886
-0.1974998
-0.1969607
-0.2061535
-0.2085653
-0.2083007
-0.2080016
-0.2075637
-0.2069483
-0.2190642
-0.2189078
-0.2186202
-0.218364
-0.218007
-0.2174709
-0.0001203874
-0.0004464053
-0.0001818854
-4.378534e-05
9.777416e-05
-0.008448062
-0.009506878
-0.008673216
-0.008127938
-0.007685318
-0.007356552
-0.02012255
-0.01857656
-0.01819505
-0.01797028
-0.01778173
-0.01758711
-0.03045203
-0.02751682
-0.02715229
-0.02698153
-0.02685213
-0.0267191
-0.04081999
-0.03637737
-0.0361066
-0.03592929
-0.03579534
-0.03565999
-0.05099216
-0.04533536
-0.04502547
-0.04483228
-0.04466916
-0.04450822
-0.06118759
-0.05433635
-0.05394584
-0.05372987
-0.05354318
-0.05334129
-0.07133004
-0.06335455
-0.06291942
-0.06267647
-0.06246179
-0.06222667
-0.08145723
-0.07241053
-0.07199132
-0.07165087
-0.07140911
-0.0711445
-0.0914864
-0.08150494
-0.08116196
-0.08067381
-0.08041555
-0.08012386
-0.1015156
-0.09066253
-0.09040712
-0.08975628
-0.08947716
-0.089157
-0.1116112
-0.09987674
-0.0996899
-0.09895633
-0.09861456
-0.09826138
-0.1218466
-0.1091602
-0.1090228
-0.1082689
-0.1078145
-0.1074351
-0.1322316
-0.1185157
-0.1184332
-0.1176878
-0.1170925
-0.1166882
-0.1429177
-0.1279377
-0.1279241
-0.1272038
-0.1264787
-0.1260247
-0.1537063
-0.1374504
-0.1375015
-0.1368131
-0.1359865
-0.1354575
-0.1647459
-0.1470496
-0.147163
-0.1465083
-0.1456046
-0.1449755
-0.175647
-0.1567497
-0.1569312
-0.1562726
-0.1553496
-0.1546026
-0.1864557
-0.1665486
-0.1667986
-0.1661289
-0.16522
-0.1643697
-0.196843
-0.1764427
-0.1767641
-0.1760852
-0.1751973
-0.1742573
-0.2075277
-0.186448
-0.1868232
-0.1861534
-0.185284
-0.1842873
-0.2187271
-0.1965562
-0.1969589
-0.1963388
-0.1954923
-0.1944673
-0.23029
-0.2067906
-0.2071778
-0.2066493
-0.2058804
-0.20487
-0.2420491
-0.2190663
-0.2174797
-0.2170806
-0.2164575
-0.2156321
-0.008253064
-0.0003200965
-0.008918958
-0.006520962
-0.005862748
-0.009401031
-0.0001218683
-0.001150275
-0.00596592
-0.0070405
-0.00444658
-0.01077707
-0.000437575
-0.001391075
-0.005629256
-0.007782136
-0.003491805
-0.01185569
-0.0001697896
-0.001228216
-0.005288683
-0.008556886
-0.002589544
-0.01287816
-5.426877e-05
-0.00138347
-0.004909917
-0.009017494
-0.001695182
9.370593e-05
-0.004514912
-0.0006010514
-0.007928538
-0.00628816
-0.0004323659
-0.008335297
-0.006349518
-0.0004246952
-0.008365568
-0.006284209
-0.000421426
-0.008358096
-0.006234677
-0.0004266877
-0.008336058
-0.006206091
-0.0004041927
-0.008268373
-0.006170738
-0.0004172573
-0.008306288
-0.00612004
-0.0003963263
-0.008198814
-0.00615348
-0.0003852996
-0.008237113
-0.006116516
-0.0003964544
-0.008255944
-0.006161793
-0.0003827824
-0.008278978
-0.006146724
-0.0004152431
-0.008265075
-0.006205188
-0.0003969057
-0.008311958
-0.006217809
-0.000404102
-0.008318811
-0.00628516
-0.0003848676
-0.008288932
-0.006346748
-0.0006218513
-0.007912681
-0.006288913
-0.0003221311
-0.008904824
-0.0065231
-0.008249967
-0.001422878
-0.005631335
-0.00780486
-0.004444328
-0.01077476
-0.00118403
-0.005292783
-0.008563297
-0.003489354
-0.011852
-0.001356352
-0.00490561
-0.009016306
-0.00258898
-0.01287582
-0.00451087
-0.001695348
-0.009989677
-0.01816037
-0.01529442
-0.008889316
-0.01856328
-0.01890242
-0.02818189
-0.0241396
-0.01848865
-0.02866851
-0.0277466
-0.03900391
-0.03295482
-0.0278903
-0.03860862
-0.03654739
-0.04924726
-0.04178898
-0.03752229
-0.048595
-0.04539565
-0.05959666
-0.05064991
-0.04721452
-0.05865123
-0.05424813
-0.07011097
-0.05953448
-0.05696244
-0.06873768
-0.0631033
-0.0805897
-0.06846688
-0.06676495
-0.07897049
-0.07196383
-0.09105954
-0.0774767
-0.07670729
-0.0891231
-0.08090204
-0.101556
-0.08652007
-0.08652959
-0.09913459
-0.08993632
-0.1120494
-0.09565686
-0.09625564
-0.1092214
-0.0990172
-0.1226995
-0.1048557
-0.105931
-0.1194104
-0.1360722
-0.1660714
-0.142327
-0.1456214
-0.1609308
-0.1455578
-0.1771536
-0.1519303
-0.1558494
-0.1715057
-0.1551432
-0.1882646
-0.1616462
-0.1662023
-0.1822026
-0.1648355
-0.1995011
-0.1714671
-0.1766957
-0.1929592
-0.1746211
-0.2105116
-0.1813873
-0.1873298
-0.2038405
-0.2148482
-0.2568126
-0.2220338
-0.2311096
-0.2394022
-0.00260285
-0.003718076
-0.003447873
-0.001760996
-0.001726481
-0.00454856
-0.008901696
-0.01856249
-0.008449011
-0.009989898
-0.01816409
-0.01529552
-0.01848909
-0.02866473
-0.02011004
-0.0189
-0.02823637
-0.02413647
-0.02788882
-0.03861726
-0.03046375
-0.02774546
-0.03901545
-0.0329578
-0.03752123
-0.04860814
-0.0408143
-0.03654779
-0.04931497
-0.04179707
-0.04721437
-0.05866525
-0.05098492
-0.04539592
-0.05968631
-0.05066123
-0.05695962
-0.06874979
-0.06118636
-0.05424852
-0.07018902
-0.05953907
-0.06676946
-0.078978
-0.07134364
-0.06310372
-0.08062391
-0.06847327
-0.0767058
-0.08913117
-0.08145999
-0.07196452
-0.09110022
-0.07747363
-0.08653456
-0.09914073
-0.09148612
-0.08089973
-0.1015743
-0.08651453
-0.09625969
-0.1092196
-0.1015125
-0.08993314
-0.1120858
-0.09563363
-0.1059624
-0.1194083
-0.1116293
-0.0990116
-0.1226807
-0.1048449
-0.1157209
-0.1296931
-0.1218667
-0.1081644
-0.1334233
-0.1141023
-0.125556
-0.1400065
-0.132241
-0.1173837
-0.1441702
-0.1234284
-0.1355313
-0.1504106
-0.142919
-0.1266801
-0.1550872
-0.1328219
-0.1456275
-0.1609324
-0.1537281
-0.1360642
-0.1660723
-0.1423275
-0.1558685
-0.1715153
-0.1646654
-0.1455501
-0.1771832
-0.1519476
-0.1662156
-0.1822153
-0.1753148
-0.1551295
-0.1882773
-0.1616819
-0.1767258
-0.1929682
-0.1860303
-0.1648193
-0.1994597
-0.171499
-0.1873822
-0.2038489
-0.196512
-0.1746034
-0.2104576
-0.1814114
-0.1981463
-0.2148052
-0.207419
-0.1844979
-0.2217761
-0.1914108
-0.209002
-0.2259094
-0.2185968
-0.1944957
-0.2333099
-0.2015227
-0.2200092
-0.2370939
-0.2301197
-0.2046116
-0.2450293
-0.2117287
-0.2311388
-0.2394119
-0.2418678
-0.2148309
-0.2568232
-0.2220539
-0.002624679
-0.00266355
-0.002739032
-0.002695935
-0.002705504
-0.002742117
-0.002712071
-0.002723561
-0.002731386
-0.002752699
-0.002743856
-0.002768962
-0.002708006
-0.002773509
-0.002687863
-0.002716319
-0.002596342
-0.002506775
-0.001121647
-0.005967679
-0.007047541
-0.005846308
-0.009395376
-0.1081649
-0.1333896
-0.11412
-0.1156911
-0.1296862
-0.1173887
-0.144166
-0.1234349
-0.125553
-0.1399965
-0.1266849
-0.1550479
-0.1328373
-0.1355249
-0.1504153
-0.184512
-0.2217645
-0.1913883
-0.1980955
-0.214801
-0.1945146
-0.233312
-0.2015062
-0.2089792
-0.2258957
-0.2046255
-0.2449953
-0.2117084
-0.2199925
-0.237067
-0.002277554
-0.00419166
-0.003024427
-0.002493531
-0.004376871
-0.009182567
-0.007341946
-0.003947404
-0.002581822
-0.002479431
-0.00190019
-0.005614747
-0.004294196
-0.001466263
-0.002663242
-0.002670357
-0.002776515
-0.002749826
-0.002749664
-0.002768136
-0.00275429
-0.00274759
-0.002751959
-0.002765808
-0.002780661
-0.002769155
-0.002711289
-0.002721664
-0.002712947
-0.002697075
-0.002609198
-0.003718727
-0.002284114
-0.004191078
-0.003024155
-0.002491501
-0.004373454
-0.009182803
-0.007347466
-0.003943517
-0.004174324
-0.0004650632
-0.0005882266
-0.00579097
-0.001554023
-0.007219932
-0.005435664
-0.0006777229
-0.004905448
0.0004631787
8.65004e-05
-0.006836101
-0.001049738
-0.008631235
-0.006448718
8.992885e-05
-0.005541144
0.001164728
0.0007603235
-0.007711006
-0.0005222893
-0.009752745
-0.007308261
0.0007293702
-0.006071448
0.001812056
0.001538592
-0.008440731
-2.577504e-05
0.001192093
-0.01145169
-0.008957194
-0.009021708
-0.01357097
-0.01336066
-0.0195214
-0.01655385
-0.01374995
-0.02024006
-0.02005006
-0.01822129
-0.02366326
-0.02226987
-0.03002332
-0.02565295
-0.02375106
-0.02905865
-0.03065741
-0.02731368
-0.0336707
-0.03098747
-0.04028095
-0.03464131
-0.03386818
-0.03773274
-0.04092344
-0.0362744
-0.04342278
-0.03970042
-0.05052762
-0.04367613
-0.04366319
-0.04646284
-0.05097938
-0.04528104
-0.05318809
-0.04844932
-0.06067925
-0.05272121
-0.05329227
-0.05518291
-0.06088876
-0.05429239
-0.06302801
-0.05723743
-0.07076167
-0.06170486
-0.06296224
-0.06392188
-0.07068141
-0.06327555
-0.07288218
-0.066074
-0.08088115
-0.07067929
-0.07256
-0.07281869
-0.08050501
-0.07229489
-0.08282554
-0.07504201
-0.09103831
-0.07975995
-0.08213733
-0.08401345
-0.1013004
-0.08893553
-0.09169751
-0.09093997
-0.1004152
-0.09061133
-0.1028216
-0.09304203
-0.111559
-0.09814706
-0.1012958
-0.1000462
-0.1103712
-0.09985657
-0.112888
-0.1021361
-0.1218513
-0.1074238
-0.1109415
-0.1372311
-0.1505311
-0.1375565
-0.153738
-0.14675
-0.1607233
-0.1471825
-0.1641175
-0.1489618
-0.1742927
-0.1550944
-0.1600614
-0.1563716
-0.1709714
-0.1569071
-0.1745563
-0.1586303
-0.1849985
-0.1648865
-0.1701038
-0.1660924
-0.1812586
-0.1667334
-0.1850777
-0.1683853
-0.1958074
-0.1747839
-0.1802498
-0.1759043
-0.1916342
-0.1766577
-0.1956802
-0.1782416
-0.2066422
-0.1847608
-0.1904817
-0.2188765
-0.2463771
-0.2324598
-0.2258714
-0.0007398891
-0.000833232
-0.0007158391
-0.0008415468
-0.0007384014
-0.0009279844
-0.0007208988
-0.000900667
-0.0009860628
-0.0006662638
-0.0009026094
-0.0006966082
-0.0009018575
-0.0006959535
-0.0007633712
-0.0007916573
-0.0007992511
-0.0008090178
-0.0007488363
-0.0008392996
-0.0007898261
-0.0008347855
-0.0008906325
-0.0007491294
-0.0008903496
-0.0007411426
-0.0006750777
-0.0009234533
-0.0006838682
-0.0009197623
-0.0006459434
-0.001007576
-0.0006615554
-0.0009431948
-0.0008727135
-0.0007686898
-0.0008445319
-0.0007696301
-0.000742111
-0.0008267847
-0.0009707386
-0.0009786952
-0.0010707
-0.0004271458
-0.006043466
-0.007804074
-0.00819306
-0.006129585
-0.001251226
-0.001778437
-0.001883449
-2.416689e-05
-0.0006140374
0.0002515288
-0.0009914267
0.0006378986
-0.009453418
-0.008388629
-0.009521417
-0.008808273
-0.01478029
-0.01681261
-0.01480161
-0.01766311
-0.01803542
-0.01759493
-0.0180974
-0.01820002
-0.03200033
-0.03451807
-0.03218818
-0.03617014
-0.04073122
-0.04338987
-0.04088313
-0.04545605
-0.04370476
-0.044212
-0.04390828
-0.04547519
-0.0494816
-0.0522919
-0.05472207
-0.04963676
-0.05224873
-0.05309295
-0.05251439
-0.0545188
-0.05827364
-0.06122679
-0.05842162
-0.06397507
-0.06084182
-0.06193354
-0.06115096
-0.06355279
-0.06715235
-0.07018373
-0.07321087
-0.06723377
-0.08187036
-0.09042496
-0.08139376
-0.09279112
-0.08522204
-0.08828787
-0.08505169
-0.09184331
-0.08705256
-0.08867244
-0.0874009
-0.09107691
-0.09436108
-0.09744279
-0.09406824
-0.1012094
-0.09591646
-0.09769078
-0.09624984
-0.1003301
-0.1035829
-0.1066505
-0.110635
-0.1031522
-0.1321714
-0.1343333
-0.1378372
-0.1324428
-0.1394035
-0.1636562
-0.1453925
-0.1500624
-0.1414465
-0.1436671
-0.1417001
-0.14737
-0.1807275
-0.1830149
-0.1885413
-0.1784976
-0.2162209
-0.2337328
-0.2171945
-0.2390102
-0.22187
-0.2233699
-0.2188003
-0.229437
-0.0007922515
-0.000737603
-0.0007583147
-0.0005435542
-0.001475742
-0.003205621
-0.003407785
-0.001759696
-0.0006821215
-0.0008938367
-0.0008864689
-0.0006811015
-0.0008602643
-0.0007615581
-0.0008958128
-0.0008037617
-0.0007049405
-0.000911382
-0.0006982999
-0.001000495
-0.0006870248
-0.000985986
-0.0007987206
-0.000752753
-0.0008086591
-0.0007186522
-0.0009425204
-0.0006978724
-0.001756794
-0.001743831
-0.00455327
-0.003444694
-0.005620131
-0.004301967
-0.001474888
-0.001902784
-0.1203435
-0.1091697
-0.1230315
-0.1092319
-0.1321996
-0.1206288
-0.1113126
-0.1167901
-0.1303533
-0.1332177
-0.1184805
-0.1185537
-0.1426148
-0.1303586
-0.1205748
-0.1262493
-0.1404214
-0.1434413
-0.1278184
-0.1280177
-0.153095
-0.1357896
-0.1401647
-0.1299366
-0.2020495
-0.1866565
-0.206372
-0.1858167
-0.2175717
-0.2008196
-0.1881986
-0.1948453
-0.2125485
-0.2171597
-0.1958234
-0.1967239
-0.2285685
-0.211269
-0.1983002
-0.2050876
-0.2230958
-0.2280346
-0.2059625
-0.2069109
-0.2396491
-0.2154015
-0.2218051
-0.2085153
-0.0009281871
-0.0007001294
-0.0007131632
-0.0009372353
-0.0007613173
-0.0009614857
-0.0008292236
-0.0007886218
-0.0008850388
-0.0007160065
-0.0009922518
-0.0006898713
-0.0009615443
-0.000691447
-0.0007220897
-0.0009377077
-0.000798232
-0.0008511081
-0.0006752182
-0.0009114563
-0.0007832493
-0.0007391294
-0.0005631922
-0.0007602206
-0.001453103
-0.003205415
-0.001757402
-0.0034195
-0.0006938399
-0.0004032761
-0.000522272
-0.000777975
-0.005364328
-0.003934678
-0.003943947
-0.005308765
-0.000846075
-0.001712993
0.0001559429
-0.001623912
-0.01007299
-0.01202977
-0.01034437
-0.01238176
-0.01383267
-0.01280164
-0.01381542
-0.01294592
-0.01873941
-0.02081663
-0.01904095
-0.02134418
-0.02746193
-0.02954268
-0.02772218
-0.03023613
-0.03089622
-0.03053293
-0.03102625
-0.03085686
-0.036116
-0.03828327
-0.03637221
-0.03908145
-0.03946013
-0.03917448
-0.039605
-0.03975383
-0.04481918
-0.04705065
-0.04502215
-0.04801042
-0.04802312
-0.04800727
-0.04864285
-0.04822556
-0.05353128
-0.05586923
-0.05372113
-0.05697163
-0.05658813
-0.0568573
-0.05686091
-0.05753268
-0.06225033
-0.0647057
-0.06244456
-0.06590786
-0.06524381
-0.06565572
-0.06643275
-0.06553614
-0.08281764
-0.0833383
-0.08304585
-0.08435856
-0.08884676
-0.09151046
-0.08895764
-0.09312675
-0.09172357
-0.0922689
-0.09191151
-0.09341338
-0.09782186
-0.1005557
-0.09790902
-0.1022718
-0.100696
-0.101245
-0.1024968
-0.100841
-0.1439865
-0.1468926
-0.143977
-0.1491341
-0.1729082
-0.1757511
-0.1727909
-0.1783135
-0.1760776
-0.1758718
-0.1781781
-0.1754745
-0.2164348
-0.2154559
-0.2183125
-0.2152305
-0.2539023
-0.2251953
-0.2368313
-0.2368167
-0.253633
-0.2251766
-0.23916
-0.2275806
-0.2195858
-0.2216925
-0.2196147
-0.2265881
-0.008957115
-0.009016694
-0.01144946
-0.01357009
-0.02024117
-0.02007808
-0.01822367
-0.0236695
-0.02905946
-0.03067695
-0.02731522
-0.03366993
-0.03773559
-0.04091966
-0.03627617
-0.04341796
-0.04647012
-0.05097197
-0.04527934
-0.05318988
-0.05519207
-0.06088975
-0.05429933
-0.06304124
-0.06391905
-0.07070684
-0.06327849
-0.07288518
-0.07281744
-0.08051094
-0.07229794
-0.08283261
-0.0818583
-0.09043035
-0.08139128
-0.09279024
-0.09092957
-0.1004114
-0.09060997
-0.102819
-0.1000462
-0.1103821
-0.09985457
-0.112872
-0.1092281
-0.1203318
-0.1091612
-0.1230163
-0.1184717
-0.1303444
-0.1185436
-0.1332106
-0.1278078
-0.1404133
-0.1280053
-0.1434464
-0.1372251
-0.1505503
-0.137542
-0.1537468
-0.1467486
-0.1607301
-0.1471725
-0.1641213
-0.1563755
-0.1709684
-0.1569115
-0.1745754
-0.1660911
-0.1812688
-0.1667335
-0.1851032
-0.175901
-0.1916462
-0.1766499
-0.1956942
-0.1857919
-0.2020474
-0.1866285
-0.2063783
-0.1958043
-0.2125371
-0.1967114
-0.21715
-0.2059398
-0.2230815
-0.2068842
-0.2280375
-0.2162059
-0.233721
-0.2171807
-0.2390176
-0.006044418
-0.007807072
-0.008190125
-0.006133025
-0.001516772
-0.002010461
-0.002306972
0.0002132566
-0.000666827
0.0005026413
-0.001072746
0.001075476
-0.001651551
-0.002233402
-0.002661742
0.0004013069
-0.02340713
-0.02567563
-0.02347565
-0.02690646
-0.02665953
-0.02653262
-0.02673825
-0.02732276
-0.03518593
-0.03534124
-0.03532393
-0.03640951
-0.1608376
-0.1634154
-0.1686125
-0.1590659
-0.1603124
-0.1626078
-0.1605357
-0.1666594
-0.1699054
-0.1722055
-0.1701076
-0.1764039
-0.01335432
-0.01953014
-0.01655206
-0.01376097
-0.0222717
-0.03003139
-0.02565277
-0.02376966
-0.03098523
-0.04027693
-0.03464216
-0.03388912
-0.03970166
-0.05052736
-0.04367593
-0.04365448
-0.04845946
-0.06068617
-0.05272665
-0.05328468
-0.05724488
-0.07078347
-0.0617127
-0.06296588
-0.0660781
-0.08088882
-0.07068456
-0.0725684
-0.07503967
-0.09104861
-0.07976835
-0.08214663
-0.08401266
-0.1013039
-0.08893828
-0.09170744