/*--------------------------------*- C++ -*----------------------------------*\
  =========                 |
  \\      /  F ield         | OpenFOAM: The Open Source CFD Toolbox
   \\    /   O peration     | Website:  https://openfoam.org
    \\  /    A nd           | Version:  7
     \\/     M anipulation  |
\*---------------------------------------------------------------------------*/
FoamFile
{
    version     2.0;
    format      ascii;
    class       volScalarField;
    location    "0.1";
    object      Uz;
}
// * * * * * * * * * * * * * * * * * * * * * * * * * * * * * * * * * * * * * //

dimensions      [0 1 -1 0 0 0 0];

internalField   nonuniform List<scalar> 
105056
(
3.298633e-05
-0.0003089144
-0.0004415663
-0.0005557573
-0.0006464417
0.0003374726
1.596856e-05
-3.071754e-05
-0.0002326162
-0.0004666893
0.0004402595
4.647548e-05
5.055927e-06
-0.0001360436
-0.0003701408
0.0005263982
0.0002404373
0.0001320586
-6.075778e-06
-0.0001921395
0.0006003964
0.0004703354
0.0003509456
0.0001714973
-2.000203e-05
0.0006629131
0.0006642481
0.0005246907
0.0003354095
0.0001133955
0.0007124973
0.0008348397
0.0007146354
0.0005178039
0.0002803446
0.0007048805
0.001001957
0.0008885923
0.0006802005
0.0004387751
0.0007344435
0.001174447
0.001073479
0.0008452911
0.0006004438
0.0007580733
0.001331934
0.001230197
0.001002608
0.0007529879
0.0008030926
0.001475023
0.001375448
0.001159383
0.0009031076
0.0008815735
0.001600514
0.001519476
0.001309721
0.00104608
0.0009391823
0.00172381
0.001662116
0.001464028
0.001187725
0.00102383
0.00183841
0.00179423
0.001599022
0.001322633
0.001086922
0.001959211
0.001926404
0.001734223
0.001455403
0.001167861
0.002076953
0.002048175
0.001853257
0.001584076
0.001241792
0.002196833
0.002180414
0.001976422
0.001706214
0.001329253
0.002306552
0.00230209
0.00209588
0.001837273
0.001403816
0.002395531
0.002426786
0.002202341
0.001938367
0.001507558
0.002458635
0.002541903
0.002303768
0.002037991
0.001592427
0.002543766
0.002657576
0.002403729
0.002143777
0.001687428
0.002654445
0.002769131
0.002507082
0.002250015
0.01282454
0.002770381
0.002889859
0.002599888
0.002351149
0.0005998038
0.001091036
0.001710453
0.002214494
0.002753054
-0.0005466269
8.427902e-06
4.046125e-05
0.0001341807
6.833276e-05
4.847945e-05
-0.001099567
-3.788226e-05
-1.578311e-05
-5.106504e-05
-3.835311e-05
-4.526261e-05
-0.001648627
-0.0001279956
5.792222e-05
3.41915e-05
2.588628e-05
3.094567e-05
-0.002179569
-4.90419e-05
5.193387e-05
-8.415199e-06
1.007446e-05
9.841173e-06
-0.002736464
-1.858755e-05
4.832343e-05
-2.151145e-05
-1.827143e-06
2.515603e-06
-0.003420695
8.391863e-05
4.774945e-05
1.149614e-05
4.46635e-06
1.772459e-05
-0.004275997
0.0001635117
3.160037e-05
2.013753e-05
-1.478852e-05
4.894377e-06
-0.005010773
0.0002224991
4.973002e-05
4.730754e-05
-6.470511e-06
1.478418e-05
-0.005616378
0.0002508078
6.283549e-05
5.594733e-05
-1.220486e-05
7.55263e-06
-0.006024514
0.0002514523
8.207267e-05
6.955697e-05
-5.146599e-06
1.212e-05
-0.006500251
0.000276712
9.955091e-05
8.503459e-05
-2.42741e-06
1.144998e-05
-0.007000427
0.0002972031
0.0001125376
9.997435e-05
3.026231e-06
1.510593e-05
-0.007530878
0.0003360327
0.0001244065
0.000113363
7.651141e-06
1.813736e-05
-0.007950196
0.0003555928
0.0001308177
0.0001251929
1.227513e-05
2.261181e-05
-0.008282231
0.0004102613
0.0001371314
0.000139988
1.88076e-05
2.909569e-05
-0.008577849
0.0004353701
0.0001387433
0.0001460008
1.987497e-05
3.54286e-05
-0.009054443
0.0005183244
0.0001389111
0.0001585082
1.945676e-05
4.291356e-05
-0.009496646
0.000562747
0.0001411902
0.0001709208
2.069656e-05
5.201768e-05
-0.01000575
0.0006012717
0.0001458274
0.0001816025
2.2248e-05
6.436402e-05
-0.01044538
0.0006400421
0.000150156
0.0001913948
2.111131e-05
7.20118e-05
-0.01085878
0.0006760725
0.0001665963
0.0002028639
2.235337e-05
7.917796e-05
-0.01117614
0.000707036
0.0001881537
0.0002129638
1.727142e-05
8.439133e-05
0.008593585
0.0007340282
0.0002067529
0.0002246455
1.893405e-05
9.329854e-05
6.082879e-06
0.0003346054
0.0004962726
0.0005914803
0.0007965849
-1.376543e-05
-1.656772e-05
0.0002051756
0.0003041602
0.0003003195
0.0003109009
-0.0003917548
-0.0002256848
-3.451546e-05
-7.179577e-05
-3.27783e-05
-4.894211e-05
-0.0004625682
-0.0003675666
7.692124e-05
6.403229e-05
7.784972e-05
8.455023e-05
-0.000565746
-0.0003494993
6.668923e-05
-3.044687e-05
2.516702e-05
1.161592e-05
-0.000712918
-0.000372284
7.209648e-05
-6.091221e-05
1.888128e-05
1.177687e-05
-0.0009430459
-0.0003491359
4.825384e-05
-6.533927e-05
8.807254e-06
3.353958e-06
-0.001248259
-0.000346158
2.686841e-05
-7.410622e-05
-1.151926e-06
-4.788062e-06
-0.001415023
-0.0003648407
2.359529e-05
-7.567845e-05
-1.554606e-06
-3.258335e-06
-0.001554093
-0.0003928466
1.946632e-05
-8.555988e-05
-6.924172e-06
-9.347937e-06
-0.001678892
-0.0004229996
2.319443e-05
-8.787039e-05
-6.693092e-06
-8.976295e-06
-0.001806517
-0.0004598418
1.868049e-05
-9.710285e-05
-1.067094e-05
-1.308697e-05
-0.001918514
-0.0004866896
1.412764e-05
-0.0001012396
-1.235257e-05
-1.423691e-05
-0.002071356
-0.0005122077
8.097857e-06
-0.0001059719
-1.529942e-05
-1.634222e-05
-0.002200781
-0.0005412158
4.357316e-06
-0.0001099232
-1.545068e-05
-1.746829e-05
-0.002361667
-0.000557992
-1.715843e-06
-0.0001154376
-2.046857e-05
-2.063816e-05
-0.002550261
-0.000592436
-4.026885e-06
-0.00011844
-2.267645e-05
-2.178777e-05
-0.00277055
-0.000656231
-1.490253e-05
-0.0001277565
-2.561152e-05
-2.288428e-05
-0.003020389
-0.0006444175
-2.380164e-05
-0.0001305216
-2.866559e-05
-2.582037e-05
-0.003114315
-0.000702264
-3.413026e-05
-0.0001407558
-3.362729e-05
-3.159226e-05
-0.003256451
-0.0007030617
-4.744065e-05
-0.000141387
-3.78059e-05
-3.432597e-05
-0.003354791
-0.0007460917
-6.48106e-05
-0.0001464054
-4.208903e-05
-3.548032e-05
-0.003517867
-0.0007014633
-8.995705e-05
-0.0001434621
-4.835155e-05
-3.739389e-05
-0.003670274
-0.0007229442
-0.0001240026
-0.0001474507
-5.622528e-05
-3.950417e-05
-2.710519e-05
3.223786e-05
0.0002078306
0.000246059
0.0002903836
2.698853e-05
-3.043863e-05
5.421933e-05
0.0001206436
7.025771e-05
8.727774e-05
-0.0001110093
-8.093963e-05
-4.599774e-05
-1.221455e-05
-3.200469e-05
-6.185524e-05
-0.0002091538
-0.0001763245
4.661745e-06
4.965147e-05
2.173666e-05
2.066277e-05
-0.0001406409
-9.371944e-05
6.51338e-05
1.777375e-05
1.827669e-05
2.239634e-06
-0.0001065601
-0.0001245827
4.721893e-05
-1.102289e-05
8.393163e-06
2.978409e-06
-2.925875e-05
-9.376592e-05
6.952297e-05
1.14652e-06
1.483292e-05
1.054588e-05
-9.840982e-05
-8.22205e-05
6.376348e-05
1.251012e-06
6.955019e-06
4.57825e-06
-0.000111768
-4.313572e-05
6.917003e-05
1.532276e-05
1.343112e-05
1.128825e-05
-9.068824e-05
-5.701707e-05
7.327276e-05
1.627311e-05
1.173893e-05
8.693332e-06
-0.0001060199
-5.918564e-06
7.916623e-05
2.794071e-05
1.622127e-05
1.252868e-05
-0.0001324476
4.482128e-06
8.403262e-05
3.343845e-05
1.766684e-05
1.318382e-05
-0.0001796789
2.620829e-05
8.680583e-05
4.069361e-05
2.044344e-05
1.548184e-05
-0.0001537945
5.065045e-05
8.59168e-05
4.582456e-05
2.200724e-05
1.682679e-05
-0.0002025976
6.349001e-05
8.974793e-05
4.945584e-05
2.429771e-05
1.835833e-05
-0.000158783
4.290377e-05
9.181619e-05
4.827646e-05
2.605901e-05
1.978015e-05
-0.0002155889
3.620662e-05
9.979284e-05
4.608101e-05
2.783571e-05
2.059475e-05
-0.0003068382
-0.0001169411
0.0001090623
3.159285e-05
2.82541e-05
2.097202e-05
-0.000227283
-0.0001132217
0.0001177945
3.206453e-05
2.978321e-05
2.248545e-05
-0.0001679782
-0.0001083214
0.0001231845
3.400822e-05
3.173926e-05
2.659741e-05
-0.0002527815
-9.208648e-05
0.0001264747
3.844754e-05
3.175423e-05
2.855313e-05
-0.0002341838
-0.0001150964
0.0001352566
4.417256e-05
3.607232e-05
3.687469e-05
-0.0002594533
-8.406735e-05
0.0001369612
4.993197e-05
3.06507e-05
3.534484e-05
-0.0002307486
-4.714124e-05
0.000142976
6.750793e-05
4.125472e-05
5.580481e-05
-2.398211e-05
4.45124e-05
7.21018e-05
4.428976e-05
0.0001302986
2.28028e-06
-1.024938e-05
2.283339e-05
3.751639e-05
2.938358e-05
4.458969e-05
-6.704848e-06
-2.918551e-05
-1.83553e-05
6.190122e-06
4.688989e-06
-1.171603e-05
4.039473e-06
-3.840057e-05
-2.574013e-06
1.999552e-05
2.385981e-05
2.357457e-05
4.591569e-06
-1.71309e-05
1.809935e-05
-3.316257e-06
1.019599e-05
-9.02078e-07
4.932428e-06
-4.432428e-05
1.624473e-05
-1.223203e-05
1.132454e-05
4.328724e-06
-0.0001365297
-4.541677e-05
1.442398e-05
-1.824878e-05
4.98524e-06
-3.064966e-06
-6.670068e-05
-3.938043e-05
1.131277e-05
-1.994493e-05
3.264211e-06
-4.480212e-06
-7.876027e-06
-4.988067e-05
9.241968e-06
-2.342788e-05
9.794133e-07
-6.663534e-06
2.168942e-05
-7.046843e-05
7.867127e-06
-2.89647e-05
-1.2777e-06
-9.090852e-06
-5.690723e-05
-5.784491e-05
4.820591e-06
-3.011845e-05
-2.719158e-06
-1.03358e-05
-8.002578e-05
-6.679528e-05
-6.735873e-07
-3.466946e-05
-5.180616e-06
-1.285597e-05
-8.727235e-05
-6.881876e-05
-3.028951e-06
-3.809613e-05
-6.99882e-06
-1.470411e-05
-0.0001484415
-7.787817e-05
-9.129076e-06
-4.165422e-05
-9.606809e-06
-1.68001e-05
-0.0001093715
-5.7511e-05
-1.209473e-05
-4.304152e-05
-1.099659e-05
-1.843529e-05
-0.0001196794
-7.733304e-05
-1.47818e-05
-4.733992e-05
-1.357949e-05
-2.074085e-05
-0.0001376876
-6.370085e-05
-1.637566e-05
-4.8683e-05
-1.530684e-05
-2.268942e-05
6.895679e-05
-7.683421e-05
-1.255223e-05
-5.301952e-05
-1.709846e-05
-2.540646e-05
6.092361e-05
-0.000126322
-1.048744e-05
-6.131892e-05
-2.02054e-05
-2.943564e-05
9.058761e-05
-0.0001171255
-1.232455e-05
-6.624616e-05
-2.345804e-05
-3.411947e-05
6.022951e-05
-0.0001730859
-1.219306e-05
-7.848423e-05
-2.923479e-05
-4.080021e-05
7.658328e-05
-0.0001726946
-1.649872e-05
-8.604037e-05
-3.516546e-05
-4.807151e-05
5.223495e-05
-0.0002326381
-2.239263e-05
-0.0001008388
-4.612001e-05
-5.910871e-05
5.380455e-05
-0.0001839811
-3.162132e-05
-0.0001084462
-5.815189e-05
-7.352458e-05
4.192234e-07
-1.509376e-05
-8.223139e-06
-6.381257e-06
-3.809737e-05
-1.008056e-05
1.916106e-05
-1.906338e-05
-3.243034e-05
-1.838323e-05
-5.340983e-05
-5.880246e-06
2.572574e-05
1.823248e-05
-5.269712e-06
-3.270639e-06
1.513789e-05
-7.714621e-06
4.416905e-05
4.314353e-06
-1.656375e-05
-2.086561e-05
-2.149851e-05
-8.050589e-06
2.262261e-05
-1.586254e-05
5.003539e-06
-8.333579e-06
3.417903e-06
-8.816958e-06
4.312298e-05
-1.299556e-05
1.745898e-05
-8.601211e-06
-1.44883e-06
3.016702e-05
8.867868e-05
-2.040353e-05
2.809696e-05
-3.520168e-06
6.283221e-06
2.475188e-05
0.0001018101
-1.605123e-05
3.186562e-05
-1.464497e-06
7.91178e-06
8.475226e-07
9.80366e-05
-1.27817e-05
3.456725e-05
6.696629e-07
9.858399e-06
-4.124441e-06
0.0001241241
-1.069369e-05
4.018639e-05
2.781066e-06
1.195446e-05
8.040147e-06
9.229994e-05
-7.806883e-06
3.886148e-05
3.666019e-06
1.246592e-05
2.162831e-05
0.000122102
-8.421254e-06
4.378591e-05
5.044683e-06
1.431047e-05
1.572065e-05
0.0001002536
-1.662574e-06
4.19772e-05
6.411475e-06
1.462586e-05
-0.0001185509
5.494047e-05
5.014326e-06
3.976355e-05
7.454789e-06
1.528825e-05
-8.288989e-05
6.652947e-05
7.616998e-06
4.070526e-05
8.034408e-06
1.557337e-05
-0.0001109567
5.651605e-05
8.725237e-06
4.122179e-05
8.940786e-06
1.62476e-05
-4.496021e-05
7.125698e-05
6.589841e-06
4.177644e-05
8.861805e-06
1.598876e-05
-4.979631e-05
0.0001490034
2.825384e-06
5.016853e-05
9.14252e-06
1.726755e-05
-4.462357e-05
0.0001410941
1.81456e-06
4.885032e-05
7.827059e-06
1.609936e-05
-3.779878e-05
0.0001283834
2.727758e-06
5.260312e-05
8.602022e-06
1.896935e-05
-6.210199e-05
0.0001243928
1.709559e-06
4.96581e-05
3.540169e-06
1.359208e-05
-7.681008e-05
0.0001824178
-1.43714e-07
6.22616e-05
9.18339e-06
2.474125e-05
-7.884923e-05
0.0001815205
-3.729317e-06
5.364292e-05
-8.256509e-06
6.328378e-06
-0.0001331431
0.0001883291
1.395987e-05
8.216094e-05
2.413399e-05
6.173671e-05
8.21406e-07
5.505328e-06
-4.600674e-05
-0.0001183827
-0.00026406
-1.534967e-05
3.298268e-05
-4.546672e-05
-0.0001109052
-7.482883e-05
-8.625244e-05
-1.670274e-07
8.788785e-05
4.715753e-05
9.783725e-06
3.261583e-05
6.03343e-05
5.398032e-05
0.0001835334
-4.502378e-06
-4.944235e-05
-2.071858e-05
-1.832141e-05
-1.884143e-05
0.0001043549
-6.64625e-05
-1.702722e-05
-1.629452e-05
-9.421195e-07
5.066243e-05
0.0001438168
-5.194565e-05
1.372812e-05
-7.263005e-06
-9.579154e-07
0.0001691322
0.0001035248
-6.576247e-05
2.78196e-06
-1.265361e-05
-8.542847e-06
9.908189e-05
7.196815e-05
-5.81101e-05
1.375334e-06
-4.792695e-06
-2.566044e-06
7.966287e-05
4.741644e-05
-6.270457e-05
-1.091776e-05
-1.086028e-05
-9.18511e-06
9.764149e-05
4.611357e-05
-6.714288e-05
-1.279356e-05
-9.546452e-06
-6.688269e-06
9.357874e-05
2.519962e-05
-7.462503e-05
-2.198178e-05
-1.418134e-05
-1.067571e-05
7.447779e-05
1.577403e-05
-8.085565e-05
-2.82764e-05
-1.637167e-05
-1.179977e-05
-5.090385e-05
-6.544583e-06
-8.550662e-05
-3.670981e-05
-2.003853e-05
-1.494825e-05
5.259931e-05
-3.829757e-05
-8.815892e-05
-4.498324e-05
-2.308614e-05
-1.739206e-05
4.209395e-05
-5.689257e-05
-9.193231e-05
-5.078826e-05
-2.640408e-05
-2.021904e-05
6.116477e-05
-5.875073e-05
-9.917443e-05
-5.413371e-05
-3.022288e-05
-2.309003e-05
7.224562e-05
-2.254749e-05
-0.0001068967
-5.225841e-05
-3.325944e-05
-2.567741e-05
0.0001201177
7.770992e-06
-0.0001146429
-5.137059e-05
-3.626078e-05
-2.87979e-05
9.382783e-05
3.128579e-05
-0.0001246189
-5.280492e-05
-4.028254e-05
-3.321553e-05
8.518948e-05
3.166453e-05
-0.0001316454
-5.786142e-05
-4.547046e-05
-4.028488e-05
0.0001083994
2.73256e-05
-0.0001408432
-6.660942e-05
-5.221672e-05
-4.911322e-05
5.019114e-05
1.781388e-05
-0.0001545715
-7.891209e-05
-6.405411e-05
-6.46243e-05
5.77032e-05
-1.376903e-05
-0.000166458
-9.492452e-05
-7.778472e-05
-8.374782e-05
3.924789e-05
-8.194404e-05
-0.0001779214
-0.0001232758
-0.0001088039
-0.0001309678
2.341758e-05
-0.0002461913
-0.0002638674
-0.0002525167
-0.0003252805
-2.160463e-05
1.852287e-05
-0.0002078031
-0.0003070506
-0.0002983196
-0.0003043095
0.0002026625
0.000226154
3.698652e-05
7.082568e-05
2.987672e-05
4.934366e-05
0.0002921249
0.0003680327
-7.922029e-05
-5.992157e-05
-7.67126e-05
-8.229689e-05
0.0002735997
0.0003481411
-6.840842e-05
3.057213e-05
-2.350561e-05
-9.708334e-06
0.0002107098
0.0003699459
-6.93784e-05
6.210654e-05
-1.703962e-05
-1.028614e-05
0.00022025
0.0003226667
-4.218517e-05
6.38313e-05
-6.899224e-06
-2.159827e-06
0.0002529611
0.0003304347
-2.060284e-05
7.353203e-05
3.254391e-06
5.65129e-06
0.0002697488
0.0003550279
-1.71539e-05
7.540715e-05
3.507686e-06
3.971227e-06
0.00031655
0.0003927982
-1.413924e-05
8.515719e-05
8.65795e-06
9.617476e-06
0.0003356304
0.0004163751
-1.739177e-05
8.627135e-05
7.915068e-06
8.745517e-06
0.0005666934
0.0004151052
-1.121295e-05
9.128479e-05
1.139033e-05
1.19781e-05
0.0008036533
0.0004629981
-1.032548e-05
9.781603e-05
1.18401e-05
1.281064e-05
0.001039372
0.0005100269
-8.026649e-06
0.0001030512
1.368781e-05
1.419383e-05
0.00115012
0.0005302803
-6.602759e-06
0.0001066896
1.248563e-05
1.443836e-05
0.001157874
0.0005540314
-2.895772e-06
0.0001105722
1.61821e-05
1.627316e-05
0.001178426
0.0005679094
-1.520151e-06
0.0001117036
1.632036e-05
1.562851e-05
0.001194463
0.0006102006
2.536702e-06
0.0001176188
1.622485e-05
1.433755e-05
0.001239598
0.0006318896
7.333412e-06
0.000120478
1.490718e-05
1.255304e-05
0.001071375
0.0006932196
1.499805e-05
0.0001271301
1.651071e-05
1.459952e-05
0.001195373
0.000716672
2.25695e-05
0.0001228461
9.32861e-06
3.252778e-06
0.001395651
0.0007186717
4.068549e-05
0.0001212978
1.174936e-05
3.343475e-06
0.001483799
0.000707037
5.371941e-05
9.751293e-05
-1.87545e-05
-4.940002e-05
0.001708325
0.0006911173
9.437397e-05
0.0001161995
3.356473e-05
3.439106e-05
-0.0001108153
-0.0005519789
-0.0008150508
-0.001057749
-0.001297831
0.0001446572
-1.143758e-05
-4.234995e-05
-0.0001384552
-7.03803e-05
-4.128975e-05
0.0005140846
3.821446e-05
1.708867e-05
5.141608e-05
3.930461e-05
4.74356e-05
0.0007849481
0.0001207555
-5.786621e-05
-3.564012e-05
-2.709088e-05
-3.085294e-05
0.0009860187
4.272472e-05
-4.987352e-05
7.09875e-06
-9.868036e-06
-9.380613e-06
0.001180195
1.08152e-05
-4.608136e-05
1.961084e-05
2.016153e-06
-2.803427e-06
0.001437689
-9.914359e-05
-4.37337e-05
-1.462598e-05
-3.326201e-06
-1.777105e-05
0.001672564
-0.0001801478
-2.796698e-05
-2.323626e-05
1.603773e-05
-4.838702e-06
0.001904107
-0.0002385619
-4.647356e-05
-5.007461e-05
8.063282e-06
-1.451528e-05
0.002115469
-0.0002662754
-6.000779e-05
-5.830538e-05
1.383139e-05
-7.041747e-06
0.002308131
-0.0002696978
-7.945825e-05
-7.157144e-05
6.922682e-06
-1.155089e-05
0.002543987
-0.0002895246
-9.599069e-05
-8.620134e-05
4.124839e-06
-1.071251e-05
0.002777656
-0.0003106542
-0.0001117228
-0.0001011449
-1.963701e-06
-1.43851e-05
0.002961686
-0.0003293587
-0.0001236292
-0.0001130987
-7.080343e-06
-1.736174e-05
0.003180317
-0.0003687868
-0.0001327247
-0.0001270075
-1.260162e-05
-2.247639e-05
0.003384374
-0.0003999345
-0.0001382984
-0.000140441
-1.97506e-05
-2.934659e-05
0.00358571
-0.000462292
-0.0001420336
-0.0001505792
-2.193777e-05
-3.627693e-05
0.00376179
-0.0004978892
-0.0001444661
-0.0001609223
-2.235813e-05
-4.413083e-05
0.003893404
-0.0005541625
-0.0001494344
-0.0001736955
-2.31273e-05
-5.2028e-05
0.003937053
-0.0006081808
-0.0001564013
-0.000186443
-2.563867e-05
-6.416483e-05
0.004050921
-0.0006351548
-0.0001637865
-0.0001928569
-2.078992e-05
-6.692665e-05
0.004231243
-0.0006689523
-0.0001821809
-0.0002059439
-2.30976e-05
-7.366969e-05
0.004379193
-0.0006949245
-0.0002029334
-0.0002126243
-1.646553e-05
-7.668496e-05
-0.008859583
-0.0007183056
-0.0002313022
-0.0002419375
-5.641671e-05
-0.0001916438
-0.00141234
-0.004047491
-0.005622414
-0.007161905
-0.008471642
0.001464665
-7.325658e-05
-0.001357815
-0.002169254
-0.002778004
-0.003416645
0.004078313
0.001235765
-5.330603e-05
-0.0009777333
-0.001534309
-0.002021024
0.0057132
0.002025246
0.0008496218
-8.29004e-05
-0.0006822078
-0.001150584
0.007304464
0.002624069
0.001392151
0.0004993984
-0.000103881
-0.0006355744
0.008706917
0.003241023
0.001878664
0.0009598585
0.0004009993
-0.0001257649
0.01009666
0.003876891
0.002316524
0.001367718
0.0008296011
0.000317925
0.01131103
0.004501408
0.00275517
0.001771441
0.001258896
0.0007466785
0.01254396
0.005150651
0.003179342
0.002148669
0.001650967
0.001135114
0.01371187
0.005752461
0.00361033
0.00251593
0.00204215
0.001521335
0.01479358
0.00638793
0.004028128
0.002870336
0.002410244
0.001888226
0.0157631
0.006937348
0.004437472
0.003200787
0.002770001
0.002244573
0.01674992
0.007440642
0.004845034
0.003532512
0.003113817
0.002586937
0.01775526
0.007918079
0.005239314
0.003856302
0.003439891
0.002916385
0.01892126
0.008363322
0.005626218
0.004173035
0.003756849
0.003235202
0.02008488
0.008810861
0.005992871
0.004477887
0.004039397
0.003542642
0.02134037
0.009242598
0.006347468
0.004787153
0.00434345
0.003837464
0.02233883
0.009654723
0.006683264
0.005081085
0.004626344
0.004124753
0.02308071
0.01001918
0.007011794
0.005366487
0.004898245
0.004384359
0.02338747
0.01034557
0.007341415
0.005628995
0.005161965
0.004629501
0.02387195
0.01063365
0.007705918
0.005893393
0.005428774
0.004891942
0.02462162
0.01092206
0.008129015
0.006120357
0.005646636
0.005078276
0.02548909
0.01120619
0.008641316
0.006380499
0.005921456
0.005316164
0.02637995
0.001484775
0.009173632
0.006545316
0.00604957
0.005182228
4.418654e-05
-0.0005821197
0.0006013064
8.539574e-06
-0.0002437734
-0.00086934
0.001422003
-0.004393031
-0.000136417
-0.0008892011
-0.0004336408
-0.0008079791
0.004037206
-0.005405845
0.0002065604
-0.001596051
-0.0002042565
-0.000754435
0.005611861
-0.007678549
0.0006771129
-0.002141499
3.198766e-05
-0.0007481149
0.007179477
-0.009275702
0.001168498
-0.002554446
0.0002437939
0.008472627
0.001676594
0.0005077481
-0.0005009566
1.208308e-05
-0.0005066005
0.0004737699
-9.894008e-06
0.0005075253
-0.000532942
-1.288572e-05
-0.0005950247
0.000584504
1.271618e-05
0.0005124687
-0.000523177
-1.327626e-05
-0.0005638873
0.0005261257
5.188101e-05
0.0004923783
-0.0005664807
-3.783692e-07
-0.0005475614
0.0005068211
-7.958296e-06
0.0004989995
-0.0005430654
2.775673e-05
-0.0005018773
0.0005234844
-4.467763e-05
0.0005646354
-0.0005400332
-3.190356e-05
-0.0005067442
0.0005294207
1.901655e-06
0.0005722721
-0.0005740276
3.042147e-05
-0.000521891
0.0005458621
-3.226309e-06
0.0005355756
-0.0005274148
1.180994e-05
-0.0004954437
0.0004617664
-2.142466e-05
0.0005749424
-0.0006036565
-1.848735e-06
-5.160877e-05
0.005304241
-0.0001985541
0.001605946
0.0004333824
0.0008093631
0.007758072
-0.0006675033
0.002151436
0.0002051573
0.0007599085
0.009319873
-0.001169306
0.002561474
-3.631764e-05
0.0007495351
-0.00167417
-0.000247148
-0.0001316466
-0.004156104
-0.0008822348
-0.0002550436
-0.000887654
0.0001912872
-0.005024333
-0.001578992
-0.0004291537
-0.0008120005
0.0006362223
-0.006765768
-0.002144633
-0.0001847311
-0.0007185301
0.001008243
-0.007873246
-0.002614023
6.487283e-05
-0.0006896215
0.001404599
-0.009004357
-0.002982767
0.0003321438
-0.0007170168
0.001784479
-0.01029589
-0.003325532
0.0004089502
-0.0007025557
0.001879525
-0.01136576
-0.003718794
0.0005887135
-0.0006245382
0.001824524
-0.01238575
-0.004112125
0.000743997
-0.0005224687
0.002047788
-0.01345267
-0.004504919
0.0009131835
-0.0004082662
0.002306956
-0.01413527
-0.004816637
0.001038154
-0.000294638
0.002530846
-0.01494542
-0.005146922
0.001143449
-0.0002051426
0.003248274
-0.01757645
-0.006419229
0.001415628
7.822546e-05
0.003436954
-0.01799224
-0.00672087
0.001439188
0.0001354814
0.003631184
-0.01846662
-0.007037541
0.001453057
0.0001642418
0.00383915
-0.01886255
-0.007383362
0.001430481
0.000194872
0.003996795
-0.01938073
-0.007750761
0.001403767
0.0002012313
0.004466867
-0.01953215
-0.00893874
0.001167754
-0.01018598
3.800155e-06
3.421955e-05
-0.00135126
-9.061238e-05
0.0008908133
-0.0003184727
0.0002464453
0.0008872711
-0.001455337
0.0001332484
0.004150494
0.0008851595
0.0004263146
0.0008100925
-0.004051397
-0.0001876593
0.005059022
0.001583396
0.0001830909
0.0007183399
-0.005711087
-0.0006358558
0.006809656
0.002151703
-6.058537e-05
0.0006961026
-0.007310529
-0.001006487
0.007956601
0.002630321
-0.0003310203
0.0007220815
-0.008713865
-0.001393872
0.009115494
0.003001496
-0.0004082495
0.0007050024
-0.01009972
-0.001771403
0.01037127
0.00333858
-0.0005937952
0.0006268895
-0.01131255
-0.001876054
0.01140387
0.003721204
-0.0007442498
0.0005298487
-0.01253917
-0.001824517
0.01237207
0.004103434
-0.0009158864
0.0004069328
-0.01370306
-0.002043786
0.0134451
0.004481852
-0.001037019
0.0003091008
-0.01478627
-0.002302779
0.01412572
0.004777601
-0.001138274
0.0002083326
-0.01576196
-0.002531925
0.01492147
0.005114544
-0.001225647
0.0001241837
-0.01675726
-0.002749407
0.015637
0.005455581
-0.001308631
4.743977e-05
-0.01773729
-0.002947132
0.01633696
0.005785942
-0.001370375
-1.925757e-05
-0.01890417
-0.003104767
0.01693358
0.006103039
-0.00141783
-7.626011e-05
-0.02007044
-0.003255552
0.01754076
0.006431723
-0.001439801
-0.0001254036
-0.0212595
-0.003433194
0.01803159
0.006773665
-0.00144424
-0.0001542071
-0.02206308
-0.003612828
0.01848027
0.007143561
-0.001423574
-0.0001764416
-0.02275192
-0.003822975
0.01889334
0.007494654
-0.001392301
-0.0001789731
-0.0231646
-0.003978387
0.01933121
0.007852619
-0.001344676
-0.000175411
-0.02381732
-0.00410842
0.0195831
0.008198751
-0.001298219
-0.0001534694
-0.02455833
-0.004225019
0.01964737
0.008510663
-0.001242181
-0.0001050439
-0.02541562
-0.004344959
0.01954491
0.008783458
-0.001166026
0.0101493
-0.02632174
-0.004459214
0.01948407
0.009018506
-1.277551e-05
-1.126544e-05
-3.568975e-05
-2.173296e-05
8.843406e-06
8.523163e-06
2.131164e-05
2.622754e-05
-1.328849e-05
9.214527e-06
-1.148226e-05
3.9519e-05
1.408309e-05
3.711909e-05
-2.670386e-05
-2.515821e-06
5.8273e-06
-1.462307e-05
0.004385653
0.0001363176
0.0008983746
0.0002453758
0.000872307
0.002746367
-0.01569889
-0.005475936
0.001233892
-0.0001229132
0.002950703
-0.01637613
-0.005792614
0.001307867
-5.128427e-05
0.003105849
-0.01696828
-0.006101893
0.001372897
2.06672e-05
0.004126701
-0.01959769
-0.008100932
0.001352765
0.0001930908
0.004242595
-0.01966017
-0.008435257
0.001298798
0.0001677589
0.004358423
-0.01956895
-0.008706983
0.001241287
0.0001226001
0.0002986449
-0.000202697
-0.0007234947
-0.0001487741
-0.0002968538
0.0002249164
0.0007346859
0.0001493397
-1.482095e-05
8.328495e-06
0.0008792513
-0.000719058
-0.002119801
-0.0002176081
-1.520305e-05
-2.035862e-05
2.136982e-05
3.404364e-08
-4.775937e-05
-3.301477e-05
-4.749828e-06
8.90383e-06
-3.669858e-05
7.604826e-06
-9.356522e-06
3.650075e-05
1.176298e-05
4.523649e-05
4.001927e-05
1.648928e-05
-2.233035e-07
-3.168519e-05
-0.0002903386
0.0002041806
0.0007181495
0.000148762
0.0002963131
-0.0002272851
-0.0007385624
-0.0001499425
0.001885782
8.292153e-05
-0.002074969
0.0004923827
-0.001591937
0.001082748
0.003053711
0.0001586863
0.002439189
-2.475397e-05
-0.00316088
0.0007633941
-0.00253256
0.001436853
0.004014986
0.0001289718
0.003046929
3.863877e-05
-0.004242764
0.001033856
-0.003350288
0.001634438
0.004884081
0.0001651119
0.003562537
2.122282e-05
-0.005231117
0.001227214
-0.003975799
0.0002008137
-0.001360414
-7.086412e-05
0.0008477451
-0.0003301254
0.0007954211
-0.0006909847
-0.00209154
-0.0002250275
-0.001910941
-8.628919e-05
0.002019258
-0.0004627562
0.001459725
-0.001051988
-0.003013826
-9.137341e-05
-0.00249466
6.118949e-05
0.00308813
-0.0007436374
0.00222945
-0.001404964
-0.003963618
3.555452e-05
-0.003189434
0.000128749
0.004087791
-0.0009918973
0.002824007
-0.001632723
-0.004850442
0.0001421911
-0.003806047
0.0002516364
0.005007481
-0.001167918
0.003375317
-0.001816408
-0.005651209
0.0002667383
-0.004403257
0.0003920379
0.005877995
-0.001340437
0.003889879
-0.001963166
-0.006421196
0.000395029
-0.005014207
0.0005410378
0.006673028
-0.001464429
0.004251735
-0.002095378
-0.007109704
0.0005304219
-0.005541326
0.0006859944
0.007363893
-0.001534356
0.004513332
-0.002215615
-0.007755193
0.0006678912
0.004866414
-0.002334454
-0.008390385
0.0008029756
-0.006387972
0.0009489952
0.008587423
-0.001581519
0.005204631
-0.002421616
-0.008997305
0.0009505623
-0.006828388
0.001073907
0.009130325
-0.00159387
0.005483202
-0.002499724
-0.009585439
0.001089746
-0.008517496
0.001584956
0.0109449
-0.001521763
-0.008910046
0.001704758
0.0113062
-0.001504181
0.0060436
-0.002816463
-0.01209743
0.001711322
-0.00927091
0.001849727
0.01162819
-0.001466348
0.006010958
-0.002817724
-0.01251882
0.001825996
-0.009613185
0.001970235
0.01191346
-0.001408517
0.005969438
-0.002819431
-0.01293272
0.001940649
-0.009928707
0.002075669
0.01215461
-0.001356069
0.005891847
-0.002797858
-0.01331315
0.002046379
0.005160934
-0.001182869
0.002399045
-0.01447144
-1.592905e-05
1.168774e-05
3.308554e-05
-0.0001413378
-1.755314e-05
-1.884998e-06
2.37432e-05
-0.0002033942
-9.584199e-05
0.0001676022
6.835574e-05
-5.073074e-06
5.824238e-05
2.192797e-05
0.0002656058
-8.950264e-05
7.965636e-05
-1.938445e-05
-0.0001599059
4.521937e-05
0.0001152163
-1.706405e-05
-0.000138187
-4.416765e-05
5.243625e-05
7.022551e-05
0.000174409
-0.0002087381
7.762384e-06
1.330089e-06
3.158608e-05
-1.848115e-05
-3.42265e-05
0.0001053494
5.015676e-05
0.0001883251
7.358111e-05
-4.005458e-05
3.736878e-05
-3.397843e-05
1.387496e-05
4.351839e-05
0.0006216305
3.906138e-05
-2.350071e-05
-3.785727e-05
-0.0006184195
-4.027971e-05
-0.0004659297
3.644913e-05
0.002636432
-7.58876e-05
0.0002975105
-5.216529e-05
0.0001253185
-0.002732478
-0.0003094473
6.417812e-05
-5.136694e-05
0.0008407118
0.0001891446
-5.486824e-05
-1.281134e-06
-0.001641602
-0.0005476877
1.076312e-05
-8.368632e-05
0.001802358
0.0008014813
1.550143e-05
3.961311e-05
-0.003126296
0.0007593945
2.360138e-05
7.978936e-05
-0.003669342
-0.0005635666
8.802321e-05
-0.0002418856
0.004440248
0.0007690911
2.174471e-05
-0.004129944
0.0001064723
-0.0005552989
6.330814e-05
-0.0002684465
0.00515355
0.0006479418
3.310112e-05
0.0001329717
-0.004454909
-0.000531909
6.280805e-05
-0.0002668869
0.005780608
0.0004810859
4.872765e-05
-0.004706543
0.0001655343
-0.005983866
0.0007993901
0.007957867
-0.001566412
0.0001430852
7.903297e-05
0.0002385059
-0.005158565
-0.0002434856
2.900804e-05
-0.0003271291
0.007034417
9.819873e-06
8.773261e-05
0.0002446208
-0.005307266
-0.000171371
1.704033e-05
-0.0003450276
0.007397267
-8.601047e-05
9.746974e-05
-0.005413181
0.000249843
0.0001291238
1.963534e-06
0.008562266
-0.0004102774
0.006040393
-0.002779708
-0.01165
0.001599747
0.0001734898
-7.315348e-06
-0.0004128139
0.008758998
-0.001147879
0.0001197347
-0.005136763
0.0004104508
-0.01117823
0.00233211
0.01290374
-0.001117141
-0.001599663
0.000119073
0.0005079308
-0.00441118
-0.0001903345
-8.582267e-06
-0.0003004515
-1.995149e-05
0.0002076211
7.207158e-07
0.0003019622
1.535962e-05
-9.209354e-07
-2.291121e-05
-0.0001186859
2.460767e-05
5.610342e-05
-0.0001995153
-4.539058e-05
8.438404e-05
0.0001146969
-2.195855e-05
-7.626271e-05
-3.35006e-05
-4.020307e-05
4.291972e-05
-0.0001659307
8.020809e-05
-7.533449e-05
1.202817e-05
-9.38765e-07
-0.0001079931
9.290286e-05
-0.0008903174
0.0003199256
0.001327583
0.0007140646
0.002118967
0.0002242764
-0.0008870802
0.001197545
0.0096398
-0.001591365
-0.007275341
-0.002578139
0.001234019
0.005730136
-0.01013258
0.001328898
-0.001564978
-0.007696609
0.0101209
-0.002658776
0.001351325
0.00592146
-0.01066098
0.001457238
-0.001547726
-0.008112068
0.01055959
-0.002720595
-0.01116166
0.001479648
0.006022454
0.002150955
0.01239127
-0.001297821
-0.01023744
-0.002784084
0.002148918
0.00579232
-0.0136681
0.002232407
-0.001251113
-0.01056485
0.01259194
-0.002746553
0.002242995
0.005610868
-0.01396599
0.002286896
-0.001180669
-0.01086714
0.0127683
-0.00272168
-0.01424461
0.002337144
0.005413892
-8.354917e-06
4.824999e-05
8.833928e-05
-0.0002299947
-0.0001921112
0.0002805632
-0.0002176211
1.077734e-05
-9.669376e-07
8.757113e-05
2.374924e-06
7.06191e-06
0.0001017831
3.1168e-05
6.085348e-05
-6.21668e-05
-3.12114e-05
9.178843e-05
-1.440894e-05
0.0001022872
0.0001886108
7.767954e-06
1.506454e-05
0.0003126212
-0.000228981
-2.32602e-06
-1.424205e-05
-0.0002943713
0.0005010716
2.94056e-05
-4.862459e-05
4.495675e-05
-0.000510099
-2.983788e-05
2.353196e-05
-3.661651e-05
-0.001797177
3.792082e-05
-0.0001253443
0.002562152
0.000558608
-6.433948e-05
4.886809e-07
-0.001062726