/*--------------------------------*- C++ -*----------------------------------*\
  =========                 |
  \\      /  F ield         | OpenFOAM: The Open Source CFD Toolbox
   \\    /   O peration     | Website:  https://openfoam.org
    \\  /    A nd           | Version:  7
     \\/     M anipulation  |
\*---------------------------------------------------------------------------*/
FoamFile
{
    version     2.0;
    format      ascii;
    class       volScalarField;
    location    "0.1";
    object      Uz;
}
// * * * * * * * * * * * * * * * * * * * * * * * * * * * * * * * * * * * * * //

dimensions      [0 1 -1 0 0 0 0];

internalField   nonuniform List<scalar> 
73374
(
0.0002178749
-0.001195604
-0.007474011
0.02110974
0.04519714
0.04486272
0.01622541
0.02328042
0.02188672
0.02129033
0.01863642
-0.008505576
0.00765499
0.02024345
0.02292002
0.03547075
0.02662442
0.02615185
0.02431661
0.01862122
0.02888772
0.02674785
-0.001680332
-0.003551178
0.004884264
0.005822219
0.008020273
0.005750322
0.006464664
0.004231032
0.003525113
0.005461357
0.004541933
-0.001301299
0.0001462247
0.003051005
-0.0004160399
-0.0009472577
-0.002413253
-0.001313181
-0.003085688
-0.004719359
-0.004464252
-0.00477276
-0.001998056
-0.0001484136
0.001304143
-0.0001260873
0.0001108591
-0.0003298336
-0.0002538878
-0.001007659
-0.0019394
-0.00185069
-0.002218014
-0.001237107
0.0002597915
-0.0002394577
-0.001619448
-0.001712971
-0.002719283
-0.002099788
-0.002587248
-0.002732412
-0.002425198
-0.002429348
-0.001508168
0.0005961366
0.000331241
-0.0008656939
-0.001176432
-0.001186622
-0.001422614
-0.001217563
-0.001203481
-0.0009079123
-0.0009337139
-0.001517334
0.0007433269
0.0002611593
-0.001066265
-0.0008847505
-0.001290402
-0.0009559339
-0.001026867
-0.0007842999
-0.0008055894
-0.0006650967
-0.001631415
0.0009145272
0.0007033612
-0.0004686542
-0.0001403648
-0.0004685046
-0.0002605421
-0.0001756887
-3.641693e-05
6.129285e-05
0.0001176512
-0.001637882
0.0009000299
0.0007957557
-0.0003578967
-2.33799e-05
-0.000373614
-4.634093e-05
-0.0004664538
0.0002786221
-0.0008034672
7.024256e-05
-0.001674456
0.000943467
0.0009008018
-0.0001626054
0.0002215646
0.0001891228
0.0005585439
0.001219938
0.001461642
0.002203758
0.001872027
-0.001711438
0.0009287386
0.0009190635
-0.0002023432
0.0002856184
-0.000217067
0.00058648
-0.001784929
0.0003285872
-0.005137541
-0.002118329
-0.001726021
0.0009443652
0.0009388405
-5.413155e-05
0.0004757386
0.0006928665
0.001415408
0.001036961
-0.00751804
-0.004068077
-0.02044792
-0.001748051
0.0009297974
0.0009570112
-0.0002103767
0.0006893434
-0.000331578
0.002684276
-0.007170373
-0.009297292
-0.0239455
-0.02552793
-0.001766755
0.0009413803
0.0009423564
-0.0001875703
0.0004941221
2.317777e-05
0.001453583
-0.002828961
-0.01096917
-0.01013236
-0.01408509
-0.001787962
0.0009744795
0.0009904841
-0.00025346
0.0005899611
-0.0003141366
0.002357623
-0.003390495
0.002711422
-0.01381438
-0.008267009
-0.001814188
0.001033909
0.001025476
-0.0002843552
0.0004930209
-0.000363005
0.001810943
-0.003149059
-0.002416112
-0.009711603
-0.004035556
-0.001882807
0.001130289
0.001102974
-0.0003119374
0.0005944871
-0.0005330725
0.002282238
-0.004324586
-0.004208567
-0.007523854
-0.009520166
-0.002001974
0.00124293
0.001148855
-0.0003694386
0.0004686992
-0.0008270413
0.0017301
-0.003615594
-0.01394692
-0.008982741
-0.00761166
-0.002113573
-0.01474856
-0.008924394
-0.06242691
-0.1251147
-0.2250353
-0.1621763
-0.1269656
-0.1216788
-0.1072706
-0.09715991
-0.08774314
-0.08232629
-0.03776065
-0.003818032
0.03361129
0.02110501
0.01515096
0.01939336
0.01742859
0.0242471
0.04136018
0.03675906
0.04225568
0.00708124
-0.0007254177
0.01419151
0.002605272
-0.002695076
-0.002221
-0.00542114
-0.004769063
0.001069186
-0.004619594
-0.005466059
0.002526754
-0.004637165
0.01745169
0.02171439
0.02593764
0.0246296
0.0293196
0.02841433
0.0286788
0.02405388
0.02344475
0.002490524
-0.003906377
0.002635755
0.003249197
0.002809223
0.001512429
0.003945731
0.004571282
0.005813738
0.005004207
0.005181565
0.005390684
-0.001007199
0.005721232
0.00593644
0.005809173
0.004960195
0.006343051
0.006557108
0.006308381
0.005577109
0.005361699
0.002384375
-0.0006099931
0.00250285
0.002710092
0.003023994
0.002651353
0.002952823
0.002702086
0.002426676
0.001401827
0.001748236
0.002193654
-8.656835e-05
0.00218171
0.001737727
0.002535232
0.001986824
0.002420805
0.002014089
0.00192802
0.001205362
0.001596424
0.001402191
-0.0002059382
0.001544739
0.0005561887
0.00129858
0.0009241394
0.001254335
0.0008913246
0.0009662884
0.0005202555
0.0007548979
0.00114097
-0.0001661365
0.001113207
0.0004374616
0.0008789384
0.0006574342
0.0008218623
0.0007146719
0.0006468782
0.0005062631
0.0005211832
0.0008641653
-0.0003208513
0.0007927612
0.0001598758
0.000544608
0.0001781237
0.0003611608
-0.0002015252
0.0001655313
-0.0008172786
-0.0001973906
0.0005839253
-0.0004276118
0.0005888464
9.120351e-05
0.0003610188
0.0003181577
0.0003207157
0.0008862913
0.0002091771
0.00171797
0.001609877
0.0006178535
-0.0004061083
0.0005623589
-6.408438e-05
0.0002458635
-0.0002958516
-3.977437e-05
-0.001438788
0.0004368715
-0.003951313
-0.000464754
0.0003518611
-0.0004773623
0.0004428089
-1.403585e-05
0.0001931666
0.0003629768
2.290167e-05
0.002676545
0.004219323
0.01415477
0.004573781
0.0003492905
-0.0004594382
0.0004787268
-0.000163051
0.0003953518
-0.0005593175
0.001511048
-0.002843378
0.01101244
-0.01332181
-0.005805634
0.0001974373
-0.000547246
0.0003814938
-0.0001672457
0.0001761545
-0.0002175591
0.0004037719
-0.0005782966
0.004203596
-0.01224566
-0.005823339
0.0002490808
-0.0005784892
0.0004024004
-0.0002107087
0.0003487937
-0.0004397455
0.001412299
-0.001486245
0.007358408
0.004339312
0.007655563
0.0002743375
-0.0006630438
0.0003476506
-0.0002560349
0.0001967483
-0.0005387441
0.0006380862
-0.002042036
0.003801845
0.002525586
0.01185062
0.0003944226
-0.0006932171
0.0003707804
-0.000249415
0.000373917
-0.0005150307
0.001484873
-0.001944556
0.008833436
0.001679668
-0.02840879
0.0005333336
-0.0007447993
0.0003226184
-0.0003266964
0.0002074963
-0.0008982148
0.0007001056
-0.003069281
0.004328821
-0.007192029
-0.0127558
0.01595643
-0.01582663
-0.09013534
-0.186402
-0.2364283
-0.1814901
-0.2097525
-0.1545172
-0.1031229
-0.1320683
-0.09147242
-0.01788607
0.009740997
0.06043094
0.1035449
0.1260976
0.1015133
0.1182439
0.1017262
0.07198823
0.08440416
0.06550777
-0.00291482
-0.01657467
-0.0003329937
0.002510639
0.009896954
0.01342973
0.01001912
0.01908861
0.005258588
0.0153456
0.0009671103
0.008602832
0.002724103
0.02127123
0.02892673
0.03860692
0.03185882
0.03606871
0.03089372
0.02399996
0.02749648
0.02263552
5.12919e-05
-0.001482205
0.002104151
0.002091723
0.01053292
0.007478109
0.009725905
0.006276408
0.005999625
0.008388613
0.007873027
0.002393044
0.002225078
0.004487641
0.002947571
0.005877382
0.004053144
0.00605146
0.004575325
0.005123689
0.006902229
0.006609522
0.0005998116
0.000362821
0.001752863
0.001034441
0.001395505
0.001032508
0.001665972
0.001974744
0.002181696
0.003351863
0.002751702
0.0008239833
0.001166367
0.001501751
0.00143111
0.001320316
0.001460529
0.0009754045
0.001561214
0.001449992
0.002104404
0.001710955
0.0005263277
0.0008829788
0.0007846953
0.0006837178
0.000523736
0.0006231211
0.0004127981
0.0007302049
0.0006853455
0.0008802582
0.0007201538
0.0003430754
0.0007306162
0.0006838057
0.0005289159
0.0005780105
0.0005631533
0.0005638099
0.0006686881
0.0005401689
0.0006515068
0.0004161087
0.000325207
0.0006083464
0.0005307185
0.0003412626
0.0003489498
0.0002092953
0.0002809836
0.000105701
0.0002076803
4.738084e-05
-2.312525e-05
0.0002438795
0.0004565119
0.0004590024
0.0002514817
0.0003055788
0.0002254982
0.0002188368
0.0001697768
-0.0001415782
-0.0001369694
-6.646527e-06
0.0002980788
0.0004161235
0.0004820562
0.0001309559
0.0002686014
-9.89564e-05
4.511795e-05
-0.0005513987
-0.0006055601
-0.0007449545
-0.0005813861
0.0001209966
0.000341207
0.0003810025
0.0001161482
0.0002032366
1.471136e-05
-0.000223307
-0.0006760907
-0.002902544
-0.003675786
-0.006338047
0.0001233135
0.0003527446
0.0003990825
4.098178e-05
0.000276467
-0.0002517123
-1.298205e-05
-0.0009852169
-0.00301012
0.001362203
-0.001051295
7.977472e-07
0.0003106827
0.0003132884
3.48169e-05
0.0001913557
-0.0001432158
-0.0001199144
-0.0004832282
-0.002148201
-0.0009371965
-0.004309317
-2.985659e-05
0.0003314729
0.0003356753
2.326513e-05
0.0003157701
-0.0001813601
0.0004721029
-0.0001910479
-9.655192e-05
0.006627677
0.00272012
-0.0001167231
0.0003191228
0.00028325
-5.623365e-07
0.0001912791
-0.0002580753
-1.388192e-05
-0.0007747633
-0.001576667
0.004010346
0.004393978
-0.0001567617
0.0003451749
0.0003047004
2.442678e-05
0.0002792274
-0.0001699339
0.0003128273
-0.0001438557
-0.0008656257
0.005911562
-0.002869765
-0.0002127367
0.0003569098
0.0002727704
-8.860748e-06
0.0001316116
-0.000349451
-0.0002646557
-0.0006507002
-0.001855035
0.002683638
-0.003106523
0.007146098
-0.001332463
-0.04151326
-0.1412394
-0.103389
-0.1504288
-0.07461077
-0.07898907
-0.07186568
-0.04407496
-0.03143222
-0.01192502
0.005534402
-0.001973789
0.08685283
0.06170552
0.1020699
0.05812206
0.05274693
0.04170221
0.01424288
0.01555726
-0.003278071
-0.0001031408
-0.008818081
0.008612406
-0.005304322
0.004144584
-0.005907433
-0.004528494
-0.004948414
-0.005041678
-0.01059173
0.003191808
0.00705372
0.004727353
0.01655373
0.00359422
0.007100571
0.001795944
0.003437011
0.002273352
0.002959627
8.886057e-05
-0.0006196736
0.001326611
-0.0009696604
0.003652389
-0.0002653244
-1.689202e-05
0.00111888
0.002117158
0.002938198
0.003150929
0.001409325
0.001240747
0.001661409
0.00171933
0.00308262
0.003405374
0.004015409
0.005506163
0.005405725
0.004729388
0.004963645
0.00430365
0.001244106
-2.491935e-05
0.001431827
-0.0002273453
0.001482964
0.001479151
0.002235636
0.0006816777
0.0008819417
0.00116693
0.001465752
0.00106066
0.0001546047
0.001400315
-0.001213204
0.00144876
0.0005242422
0.001681042
0.0002313958
0.0003549157
0.0004793088
0.001252934
0.00026749
-4.824552e-05
0.0007799293
-0.0005899037
0.0008867046
0.0001375549
0.0007245513
-0.0001318503
0.0002067815
0.000177869
0.0004988583
0.0002483909
4.985492e-05
0.0005192736
0.0001446396
0.0005903075
0.0001958028
0.000624852
0.000259341
0.000397966
0.0004295312
0.0005907356
0.0003052568
4.945579e-05
0.0004339361
0.0001030726
0.0004108623
-8.541621e-06
0.0003898937
-4.668865e-05
0.0003848546
-0.0001485616
0.0001131302
-0.0002181897
-0.000287537
0.0001345384
3.11883e-05
0.0003287725
0.0002467822
0.0005615924
0.0005802218
0.0008349755
0.0009462919
0.001091296
0.0006548233
-3.181249e-05
0.0005098431
3.630398e-05
0.0004209375
-1.79959e-05
0.0006401579
-0.0003175627
0.0008465445
-0.0002740914
0.0007796245
7.355949e-05
-0.0002385464
0.0002516047
1.015443e-05
0.0004145967
0.0002785725
0.001079769
0.00111355
0.002756433
0.002513033
0.000126652
0.0005386032
7.325321e-06
0.0005040825
7.513841e-06
0.0005459149
-0.0001104375
0.001197078
-0.0002082181
0.002530961
-0.001960398
-0.001515077
0.0002168758
-0.0001387593
0.0003044939
-4.040808e-05
0.0004182103
1.752182e-06
0.0008504159
0.0002136759
0.001513345
0.0009851424
-0.0002023727
0.0002703222
-7.702446e-05
0.0003448486
-5.453715e-05
0.0004885015
-0.0001615366
0.001195827
-0.000241391
0.00239453
0.001243416
0.001035393
0.0001485481
-0.0001661431
0.0002458948
-0.0001119406
0.0003796348
-0.0002547186
0.000847214
-0.000614014
0.001611668
0.002385696
0.001962394
0.0001837079
-0.0001557308
0.000250985
-0.0001134853
0.0004029544
-0.0002951475
0.001005776
-0.0006958246
0.002659375
0.0004515228
0.002597159
0.0001330501
-0.0002044004
0.0001841505
-0.0001552438
0.0002710769
-0.0003876448
0.000507498
-0.0009398653
0.0009851799
0.0007982506
0.001737713
0.004060278
-0.001288166
-0.01173766
-0.05267877
-0.09249211
-0.01709117
-0.05901857
-0.02528377
-0.01449538
0.01152405
0.003144352
-0.005782723
0.003244424
0.01973258
0.04001826
0.080961
0.0159001
0.06823861
0.02949219
0.01100741
0.001845476
0.0121089
-0.001852547
-0.0004661624
-0.000631995
-0.006157016
-0.001459313
-0.008844695
-0.0008302232
-0.000919596
-0.002544356
0.0001920805
-0.004606771
0.00277942
0.006840237
0.007797378
0.004879373
-0.001951641
-0.003047309
-0.002929448
-0.0007478783
0.00115309
0.002218553
-0.0002691156
0.0004327663
0.001453004
0.0008092262
0.0005633078
-0.002922914
0.002727467
-0.001992168
0.002545146
0.003462513
0.003557812
0.001050174
0.001510359
0.002412311
0.00101211
0.003066611
-0.001722608
0.004252825
-0.001345408
0.004363705
0.004597801
0.004446781
0.001578487
0.001324866
0.0007828564
0.001168631
0.001923981
0.0001306679
0.003031785
-0.0001058191
0.00315423
0.002146366
0.002820663
0.001234658
0.0008828838
0.000884879
0.0008047266
0.002131711
0.0005893582
0.003003564
0.0008623953
0.002831876
0.002004633
0.002403779
0.001252629
0.0005962465
0.0008299795
0.0006993598
0.00111143
0.0005064166
0.002137818
0.0007237235
0.001774854
0.00115985
0.001418957
0.0009195492
-0.0002930603
0.0007626876
0.0002421746
0.0008361411
0.000464412
0.001033785
0.0006181084
0.000949564
0.0004652611
0.0007826926
0.0003768993
0.0004150617
0.000754961
0.0003802522
0.0006647123
0.0003816978
0.000599918
0.0003369782
0.0004225281
0.0001519945
0.0004818949
0.0001471975
0.0004478709
7.076499e-05
0.0002974738
0.000251566
0.0002192705
0.0002589766
0.0001003506
6.156561e-05
-0.0003118382
-0.000243543
-0.000635373
0.0007912779
-1.13313e-06
0.0005132716
0.0001196924
0.0002095555
3.265476e-05
-0.0001668097
-0.0004156909
-0.001025469
0.0001371959
-0.0006612507
0.0002184095
-7.291358e-05
0.0002487441
1.809809e-05
5.084175e-05
-6.83653e-05
-0.000438376
-0.0003479976
-0.001568166
-0.0009473524
-0.001009534
0.0001722557
6.121242e-05
0.0002475287
2.966274e-05
6.233184e-05
-0.0001201344
-0.000396598
-0.0003300123
-0.001324009
0.0003752516
-0.0002400486
3.527358e-05
7.176976e-05
9.444249e-05
1.253893e-05
1.08897e-05
-0.0001118218
-0.000318407
-0.0002058807
-0.0008176757
5.258387e-05
-0.0002658441
7.093205e-05
0.0001418455
0.0001094117
3.287178e-05
5.22421e-05
-0.0001337475
-8.979597e-05
-0.0002919941
0.0001397089
0.001245284
0.0003790304
2.762989e-05
0.0001675137
5.960124e-05
6.025356e-05
8.165755e-05
-1.838131e-05
0.0001429573
0.0003380283
0.0004603065
0.003089287
0.0002843981
2.95442e-06
0.0001648419
4.336641e-05
5.678552e-05
2.33843e-06
-9.395495e-05
-0.000223185
-0.0002880768
-0.0005450681
-0.002129215
0.00287996
2.694501e-05
0.0002103915
3.747837e-05
0.0001043122
5.064096e-05
4.246088e-05
-1.796202e-05
0.0001842612
0.0002981623
-0.0005581081
-0.0003777661
0.00102077
-0.009744649
-0.008685566
-0.01753377
-0.0007141567
-0.01210421
-0.0003605931
0.01471721
0.007460332
0.009799983
-0.006221699
-0.002917166
0.004515223
-0.001409128
0.006660852
0.0001116032
-0.005849468
-0.001469281
-0.03098746
-0.02694251
-0.03218116
-0.01103213
-0.004162753
-0.001952067
-0.006031141
-0.003994656
-0.003134123
-0.004506104
-0.001904018
-0.007167797
-0.008062051
0.002073952
-0.001131252
-0.004284685
-0.0004090878
-0.002249549
-0.0001603392
-0.002111096
-0.0007705352
-0.001308858
-0.001218355
-0.001532415
0.001078022
-0.0006647644
-0.001923225
-0.001155312
-0.001474707
0.0002851046
-0.0004664533
0.001225236
-0.0004876239
0.000511111
0.0009291136
-0.00110493
1.754265e-05
-0.002385991
-0.0008712907
-0.001428824
-0.0001029532
-0.0004942999
0.001292794
-3.561616e-05
0.0008161524
0.001072273
-0.0001069518
0.001088224
0.001901433
-0.00127207
-0.0005629466
-0.0007765428
-0.000380765
-0.0003894306
-0.0001113857
-0.000664246
6.563802e-05
-0.0008807275
-0.0001884169
0.0008504033
-0.0006114061
-0.0005416631
-0.000144569
-0.0009488967
-0.0005706793
-0.0008990782
-0.0002193716
-9.035986e-05
-0.0002502314
-1.764511e-05
-0.002307649
-3.35313e-05
-0.0009895793
-0.0001357256
-0.0004996573
-0.0003653669
-0.000197516
-0.0003388322
2.418547e-05
-0.0001599132
3.661326e-06
-0.001131853
-0.0005060739
-0.0006870462
-0.000440991
-0.0003055296
-0.000162543
-0.0001465731
0.0001264192
0.000241905
6.936847e-05
0.0004291882
-0.0004219281
7.817327e-05
-0.0001972628
-0.0001310958
-0.0001014894
-1.388166e-06
8.049881e-05
0.0001177162
0.0003648939
4.629278e-05
0.0005398946
-0.002425381
-0.001033987
-0.0008738502
-0.0002603869
-0.0001756657
1.677184e-05
0.0001827438
0.0002993636
0.000695568
0.0006428329
0.0008730987
0.002320785
-0.0005585449
0.0007240408
-2.889854e-05
0.0002870289
0.0001905487
0.0004987313
0.000608676
0.001289774
-5.632714e-05
0.0006429439
-0.0002713574
-0.0007433288
-4.309812e-05
-0.0001364306
0.0001478671
0.0001371089
0.000645542
0.0003622033
0.001415683
0.0006752511
0.001488293
0.001768661
4.869024e-05
0.0007821157
8.323898e-05
0.0003881615
0.0001840546
0.0007370537
0.0002551401
0.001336799
-0.0003173768
7.813323e-05
0.0005804183
-0.0001127656
0.0002405735
-1.286201e-05
0.000267163
0.0001421728
0.0006919908
0.0002339817
0.0004062499
0.0001821185
8.0557e-05
0.0004637912
6.462414e-05
0.0002710158
2.767811e-05
0.0002165696
-1.740822e-07
0.0004836276
-0.000425983
0.0005561898
-0.00136206
0.0001990153
9.409343e-05
-4.253449e-05
9.896918e-05
8.744258e-06
0.0002728283
0.0001384333
0.001057048
0.0005625252
0.003329164
-0.001385039
-0.001730194
0.0002179778
-2.366439e-06
8.269026e-05
-3.63799e-05
8.47863e-05
-0.0001548072
0.0002427171
-0.0008480035
0.0001807213
-0.006359977
0.02827722
-1.670071e-05
-6.028557e-05
-2.888547e-06
1.915673e-06
0.00015012
0.00017546
0.0007093982
0.0007123834
0.0013615
-0.002227675
-0.0004605556
-0.0001774639
-0.001361319
-0.002449369
0.02182185
0.04773075
0.1319788
0.01931151
0.1163432
0.06140717
0.03541793
0.05005211
0.02628778
-0.003673734
-0.003114814
-0.003346853
-0.02753227
-0.07053039
-0.01738321
-0.07103715
-0.03515955
-0.04055476
-0.0495636
-0.01815584
-0.002801382
0.001246589
0.0006782278
0.005018708
-0.01093414
0.001226047
-0.0159135
0.008927206
0.0007228938
0.002435048
0.008302216
-0.0007765888
-0.00067474
-0.001509267
0.00060706
0.0006982624
0.002434256
-0.001206669
0.003713495
0.002236293
0.0009287909
0.003140089
0.001586119
-0.001092389
-0.0001708378
0.0007651415
0.006874274
0.002042986
0.006640888
0.001011873
-0.000599283
-0.0006587051
0.0004974697
0.002033044
-0.002205587
0.0002200552
-0.001266267
0.003491616
0.0005607619
0.003891746
-0.001598658
-0.001234271
-0.001915624
-0.0003584656
0.003623213
-0.002261439
0.002317239
-0.0006840877
0.001907253
0.0004798019
0.002261139
-0.0001414004
0.0004155924
-0.0004186736
0.0006174546
0.001202929
-0.001087336
0.001347503
-0.0007642565
0.0008967268
0.0005739644
0.001239096
0.0003074501
0.00041795
0.0001531066
0.001175283
-0.001024789
0.001258191
0.0003814195
-7.697926e-05
0.001537095
0.0004773981
0.001463301
0.0003624864
0.0006684193
0.0002200503
0.000844004
-0.00462481
0.002148611
-0.001108961
8.166199e-05
0.0002984343
0.0002833203
0.000472521
6.240833e-05
0.0003373575
-4.342674e-05
0.0003734065
0.0003609749
0.001594028
-0.0001051452
0.000181882
0.0002154868
0.0002962364
0.0002704771
0.000337989
0.0001726658
0.0004994174
0.0003582475
0.001814412
-0.001385989
0.0002572429
-9.557674e-05
-4.398872e-05
-2.73278e-05
-0.0002182909
-0.0003351738
-0.0004229871
-0.0006472269
-0.0006007654
0.002807108
-0.001606923
0.0009980574
-7.02121e-05
0.0001037272
0.0002038315
-0.0002878156
0.0005568042
-0.0005460343
0.0003549104
-0.0005670737
0.0002674482
-0.0007031644
0.0004424515
-6.150877e-05
-0.0001530396
-0.0002016146
-0.0008393052
-0.001069176
-0.002449368
-0.002616053
-0.0001418632
-0.0004432656
-0.0001931601
0.0001943441
5.895811e-05
-0.0001663645
0.0001868498
-0.0008182205
0.0002544523
-0.001986584
0.001699319
-0.0006239387
-0.0001969426
8.081103e-05
-9.53366e-05
5.071889e-05
-0.0001712025
-3.965631e-05
-0.0003926602
-0.0004262141
-0.001000653
0.0001850542
8.496049e-05
-5.397741e-05
0.0002223486
-0.0001157597
0.0001100221
-0.0002861158
0.0001048385
-0.0009279483
0.0001390516
-0.001721089
-0.002308914
-0.002280949
-0.0001334787
0.0004219063
-0.0001770535
0.0001695687
-0.0001289955
8.840698e-05
-0.0001253255
-0.0001238929
0.0004034923
-0.005509139
-0.004318755
-0.0003298601
0.0002683711
-0.0002279045
0.000127946
-0.00041486
5.469357e-05
-0.001385605
-0.0003141104
-0.004608982
-0.003571495
-0.0008134995
-6.176941e-05
0.0004960603
-0.0002146714
0.0002764052
-0.0001682077
0.0004963834
-0.0002526885
0.001207536
-0.0005787521
-0.003726262
-0.003328217
0.0003159672
0.0006177597
-0.0002505879
0.0002257787
-0.003930368
0.006936723
0.01880301
0.1093722
0.08367931
0.09848529
0.04942732
0.06483953
0.08609785
0.1044133
0.1110275
0.005432273
-0.01364903
-0.01024287
-0.08260237
-0.0599679
-0.09484698
-0.05906574
-0.06080283
-0.08543171
-0.08974973
-0.07393254
-0.008403096
0.005421034
-0.005161311
-0.01374753
-0.006643982
-0.01185674
-0.005638577
-0.002080893
-0.009221029
-0.0009488226
-0.007575008
-0.008677962
-0.001464007
-0.00786755
-0.01290581
-0.004857822
-0.003140369
-0.003083762
-0.00708704
-0.009937658
-0.01354003
-0.01384725
-0.002179894
-0.002312125
-0.001869811
-0.003144314
-0.0006895923
0.001609319
9.572172e-05
-0.004084538
-0.005679431
-0.005857113
-0.006730147
-0.01421282
-0.001480386
-0.003452837
-0.003718806
-0.003520054
-0.002411665
-0.004718204
-0.006095891
-0.006334176
-0.00466899
-0.00581459
0.00449939
0.000935824
-0.0005765339
-0.0006059855
-0.001764002
-0.0009216566
-0.002312676
-0.002346928
-0.002520457
-0.001696595
-0.002635197
0.001171866
-0.0007505065
-0.0005362857
4.256845e-05
-0.001207584
0.0001428708
-0.001507066
0.0001412265
-0.000900639
0.0001599075
-0.0009257811
-0.007467036
0.0003428828
-0.002596322
0.0002287488
-0.001589196
0.0002710457
-0.0004660265
4.601331e-07
-0.0001021006
4.982664e-05
-0.0001710902
0.002585498
-0.004327581
-0.0009675458
-0.0006779106
-0.0006849383
-5.710539e-05
-0.0003833069
1.964605e-05
-2.924268e-06
3.977195e-05
0.0001335753
0.001802353
-0.0001547787
-0.0005698349
-6.331568e-05
-0.0002846747
0.0001280207
-0.0001017379
0.0003447119
0.0002420753
0.0003876348
0.0004223831
-0.008899364
9.823166e-05
-0.002624096
-7.641073e-05
-0.0005319024
-4.030987e-05
-5.757711e-05
0.0001103951
0.0004514382
0.0004160081
0.0002882412
0.008963955
0.001013244
0.001091395
4.678194e-05
0.00012773
0.0002875981
0.0001966199
0.0008151823
0.0009599901
0.0008816489
0.0006444099
-0.00480056
-0.000352951
-0.0007766627
-4.418203e-05
-0.0001477063
7.883683e-05
0.0003609423
0.000740274
0.003126484
0.003640476
0.006385735
0.0007857726
2.814539e-05
0.0009439099
0.0001201546
9.532261e-05
0.0003492
0.0002347653
0.001106652
0.003502758
-0.001254067
0.001102184
-0.0005910819
-0.0003358174
0.0001836879
2.180794e-05
1.082734e-05
0.0001561457
0.0004012125
0.0004621745
0.002481344
8.300446e-05
-0.0008281072
-0.0002602144
-0.0002037059
-4.237871e-05
5.332132e-05
-0.0001860587
0.0001551447
-0.0007090608
0.0001089302
-0.002520976
-0.004716112
-0.0009696899
-0.0001265329
-0.0001123778
-0.0002788265
8.287873e-05
-6.559779e-05
0.0002361827
4.905828e-05
0.0007210861
-0.0005328166
0.001022124
-0.005423406
0.0008954128
-7.522005e-05
-0.00021681
2.370856e-05
-0.0002559475
4.791511e-06
-0.0003627768
-0.0004924127
0.001417422
-0.007637116
-0.005191321
-4.063071e-06
-4.448281e-05
-0.0003873196
0.0001206775
-7.395572e-05
0.0003645525
0.0005020816
0.000631743
0.002661716
-0.003313338
-0.002332192
-0.001358086
-0.0001411475
-0.0006444954
7.215674e-06
-0.0003617601
-2.576933e-05
-0.00305857
0.009745774
0.09981805
0.1711183
0.204335
0.1375422
0.150935
0.1366164
0.1323167
-0.02120469
-0.004876651
0.02152997
-0.01311737
-0.01325064
-0.05132718
-0.07734927
-0.06885183
-0.07627103
-0.05551012
-0.05292826
-0.05455224
-0.0517177
0.01293085
-0.002865906
-0.004006564
-0.01415867
-0.02116697
-0.01365591
-0.01948301
-0.006718942
-0.0131474
0.01108187
0.006839572
0.01020271
-0.000894829
-0.01159275
-0.01643488
-0.0168847
-0.01143606
-0.01320166
-0.01096873
-0.01429705
-0.01419545
-0.01512523
0.01524182
-0.001147535
-0.003448897
-0.005927683
-0.005874566
-0.00489392
-0.004400138
-0.004413902
-0.005735139
-0.007597965
-0.007679175
-0.01084494
0.003817673
-0.00544819
-0.003491111
-0.007734509
-0.005472232
-0.005969754
-0.005488087
-0.005433803
-0.005673378
-0.004629736
-0.003190615
0.005048768
-0.002930328
-8.832211e-05
-0.002594649
-0.001543083
-0.002043483
-0.001877347
-0.001588965
-0.001814933
-0.0007356414
-0.002770018
0.002814598
-0.001890796
0.0002256876
-0.001589729
-0.0009045257
-0.001072263
-0.001401175
-0.001189031
-0.001486284
-0.0005260073
0.004641233
-0.002186963
-0.0009801716
-0.0001259805
-0.0005642377
-0.0005098926
-0.0003181843
-0.0003287435
-0.000261662
-0.0003833707
-3.737686e-05
-0.0278153
-0.002907757
1.726751e-05
-0.0004434065
-0.0003436038
-0.0003492308
-0.0001643894
-0.0003126149
-1.431301e-05
-0.0002924265
-1.218014e-05
0.001755793
-0.001794545
-0.0009026382
-0.0002044796
-0.0003209331
-1.794014e-05
4.466962e-06
0.0003840754
0.0001660133
0.0009532711
0.0004687138
-0.01708071
0.004782539
-0.002057113
0.0006033473
-0.0005989406
-0.0001278301
-0.0001726832
-0.0006867293
9.154566e-06
-0.001514595
-0.001394229
-0.00398719
0.005476746
-0.001753445
0.0008259278
-0.0002585137
0.0005042078
0.000149043
0.001557524
-0.0003646777
0.003904308
0.000486205
0.001147891
0.005260548
-0.001268893
0.000701232
-0.0004483337
-0.0002382041
2.087793e-05
-0.002657436
-0.004028419
-0.01441748
-0.004523762
-0.004068895
0.001594122
-0.000407885
0.0004642671
-0.0002993025
0.0006540476
-0.001459477
0.002934309
-0.01098271
0.01297467
-0.004332247
-0.002313038
0.0007679812
-0.0005379478
0.0003176595
-0.0001502877
0.0002082626
-0.000372893
0.0005778687
-0.003705303
0.0120615
0.003152029
-0.0006182935
0.001204083
-0.0006213892
0.0003437534
-0.0003442812
0.0004525388
-0.001449092
0.00194918
-0.005131422
-0.005964665
-0.003027281
-0.001828847
0.002054484
-0.000764836
0.0004518559
-0.0001671828
0.0002558598
-0.0001966512
-5.697083e-05
-0.001184147
-0.007911168
-0.00448355
-0.00264827
0.0008728614
-0.0005280982
0.0003050863
-0.0005074759
0.0002761729
-0.002288562
0.0003416791
-0.01512552
0.005375769
-0.02375962
-0.001024639
0.001865635
-0.0009438095
0.0005237871
-0.0003028498
0.0009358527
-0.0008374756
0.003452944
-0.005872666
0.003755852
0.01125287
0.001807611
0.00275995
-0.001357936
0.0004585821
-0.000640024
0.0002918896
-0.002742832
0.001203188
-0.001841143
0.05641101
-0.00554797
0.05374829
0.02956681
0.0480302
0.0337723
0.02262146
0.0270072
0.04412401
-0.006106338
0.00993206
-0.0312831
-0.07525049
-0.09049451
-0.07575114
-0.09550567
-0.08063011
-0.08364343
-0.07006998
-0.05275691
-0.04455792
0.03844514
-0.01541896
-0.02346236
-0.03662675
-0.03062442
-0.03289196
-0.03111632
-0.0281063
-0.02597452
-0.02788334
-0.02529136
0.01246543
-0.002889421
-0.01009127
-0.01636375
-0.01420624
-0.01419258
-0.01266189
-0.01063965
-0.01107384
-0.003716345
-0.006864289
0.01439772
-0.000293036
-0.0009926147
-0.004245676
-0.003648795
-0.003524094
-0.002212463
-0.001008026
-0.0009606063
0.0002739151
0.0002021261
0.00523375
0.002595509
8.625286e-05
-0.0008355734
-0.001353318
-0.001986136
-0.001053931
-0.001104097
-0.0009018775
-0.000758612
-0.0002843635
-0.009543451
0.003259736
-0.0005395272
0.001683092
0.001021321
0.0007276451
0.00131953
0.001995357
0.002285782
0.001378189
0.001778518
-0.0234783
0.00224805
-0.001036248
0.001402185
0.001362908
0.0005818767
0.0007533656
0.001687817
0.001226709
0.001042502
0.0008177836
-0.02097126
-0.002459595
0.001762679
0.0007671598
0.001096958
0.001160001
0.001004255
0.001197836
0.0008678097
0.0009028341
0.0006289544
-0.02983029
0.001804233
-0.0006795078
0.001002199
8.057787e-05
0.0006286181
0.0004013385
0.0004132372
0.0001351909
6.259383e-05
-2.668318e-05
0.006172022
-0.002028353
-0.0008019438
0.0003928501
-2.824745e-05
0.0004354094
9.151005e-05
0.000580303
-0.0001630532
0.001044031
3.62105e-05
0.0002712593
0.002728221
0.001356912
0.0008323311
0.0001109882
-4.340926e-05
-0.0004429438
-0.001114631
-0.001344585
-0.002056374
-0.001832635
-0.01354756
0.00207672
-0.003042873
0.0006505025
-0.0004967672
0.0002845463
-0.0005277673
0.001804793
-0.0002331098
0.005267238
0.002244477
-0.02780773
0.003770417
-0.001218319
0.0007242878
-0.0004231744
-0.0006086522
-0.001268737
-0.0009655042
0.007630229
0.004469493
0.02008383
-0.02343308
-0.0009171661
-0.002446856
0.0001868199
-0.0008207393
0.0003210393
-0.00256682
0.007113655
0.009412799
-0.02836607
-0.005372788
-0.0230969
-0.0004673277
-0.00155549
0.0002654702
-0.0004920571
-8.072634e-05
-0.00145743
0.001741247
0.009525782
0.0277875
-0.004598048
-0.0255881
-0.0007838172
-0.001564187
0.0002340292
-0.0005659164
0.0003120059
-0.001847338
0.001453844
-0.01332769
-0.06008419
0.0131047
-0.0285999
0.0003289148
-0.001345004
0.0004349224
-0.0003765274
3.699011e-06
-0.0008512654
-2.999095e-05
-0.001313899
0.0114944
0.01039914
-0.02613553
-0.0006583149
-0.001389136
0.0002865491
-0.0007521537
0.0003232852
-0.003064553
0.004249395
0.01025573
-0.06015151
-0.0132966
-0.02767987
-9.612805e-05
-0.001507034
0.0005690545
-0.0005378809
0.0009089383
-0.001804831
0.005297503
0.02058234
0.004974375
0.01128935
-0.03351618
0.0001368703
-0.001655922
0.0006025582
-0.0006508424
0.0006154886
-0.002806442
0.002664192
0.00219127
-0.05398957
-0.01772904
-0.02981396
-0.01059679
-0.001646381
-0.039623
-0.03797137
0.01007707
0.02059239
0.01005562
0.02692225
-0.003510446
-0.01023012
0.004915927
0.008192261
0.01210536
0.02428455
-0.04307165
-0.04240845
0.005127127
-0.02066148
0.007705115
0.007588398
-0.04797816
-0.05610794
-0.005274428
-0.006244497
-0.004746
0.003382952
-0.05945628
-0.05664794
0.001837188
-0.01342012
-0.004662998
0.001236964
-0.06574541
-0.06043836
0.002931031
-0.005813603
-0.005279241
-0.0001153559
-0.06259106
-0.05763075
0.0041295
-0.002256024
-0.00694404
-0.001010495
-0.06658063
-0.06741911
0.007295479
0.0008176393
-0.009287846
-0.0008047962
-0.07172453
-0.08147894
0.008789489
0.002813955
-0.009074677
-0.0008260319
-0.06852541
-0.08078204
0.009105889
0.004172673
-0.009796627
-0.0009840279
-0.06686055
-0.07866272
0.02958383
-0.01219535
0.01097367
0.008544507
-0.06526137
-0.02689395
-0.05979226
-0.007791464
-0.003699773
-0.01404786
0.01278439
0.009568399
-0.02333689
0.01353108
-0.004500807
-0.002620681
-0.005649156
0.01552839
-0.000110691
-0.02114702
-0.01534103
0.002516663
-0.004144714