/*--------------------------------*- C++ -*----------------------------------*\
  =========                 |
  \\      /  F ield         | OpenFOAM: The Open Source CFD Toolbox
   \\    /   O peration     | Website:  https://openfoam.org
    \\  /    A nd           | Version:  7
     \\/     M anipulation  |
\*---------------------------------------------------------------------------*/
FoamFile
{
    version     2.0;
    format      ascii;
    class       volScalarField;
    location    "0.08";
    object      epsilon;
}
// * * * * * * * * * * * * * * * * * * * * * * * * * * * * * * * * * * * * * //

dimensions      [0 2 -3 0 0 0 0];

internalField   nonuniform List<scalar> 
53911
(
0.001917964
0.001966693
0.001993148
0.001980302
0.001962416
0.001961097
0.001960818
0.001962318
0.001982745
0.001978949
0.001976479
0.001986777
0.001959551
0.001885522
0.001951357
0.0009504308
0.0009674488
0.0009744376
0.0009761245
0.0009768466
0.0009770896
0.000977195
0.0009770831
0.0009761066
0.0009736284
0.0009650624
0.0009378859
0.001936157
0.001959118
0.0009669019
0.0009984063
0.001010683
0.001014222
0.001015461
0.00101583
0.001015779
0.001015257
0.00101388
0.001009948
0.0009963942
0.0009534735
0.001992062
0.001963999
0.000974417
0.001010653
0.001026356
0.00103121
0.001032926
0.001033481
0.001033453
0.00103282
0.001031107
0.001026107
0.001009331
0.0009612715
0.002005055
0.00196539
0.0009771026
0.001014557
0.001031538
0.001037049
0.001039166
0.001039882
0.001039926
0.00103926
0.001037355
0.001031795
0.001013833
0.0009638588
0.002014845
0.001991929
0.0009787738
0.001016227
0.001033583
0.001039472
0.001041773
0.001042653
0.001042781
0.001042149
0.001040186
0.001034431
0.001015961
0.0009648903
0.002011445
0.002005583
0.0009793391
0.001016969
0.0010346
0.001040666
0.001043151
0.001044147
0.001044383
0.001043835
0.001041948
0.0010362
0.001017536
0.0009657972
0.002016578
0.001978577
0.0009791403
0.001017364
0.001035175
0.001041396
0.001043978
0.00104509
0.00104544
0.001045046
0.001043362
0.001038021
0.001019837
0.0009671362
0.002017941
0.001974678
0.0009790754
0.00101757
0.001035549
0.001041837
0.001044549
0.00104576
0.001046255
0.001046076
0.001044811
0.001040411
0.001025378
0.0009771052
0.002043234
0.001966255
0.0009790958
0.001017765
0.001035815
0.001042175
0.001044947
0.001046247
0.00104686
0.001046906
0.001046072
0.001042972
0.001031944
0.001002333
0.002139927
0.002011913
0.001994996
0.001992516
0.001988338
0.00199494
0.002008186
0.001968014
0.0009795121
0.001017976
0.001036022
0.001042397
0.001045235
0.001046603
0.001047331
0.001047572
0.001047223
0.001045375
0.001038118
0.001014131
0.001008737
0.0009904707
0.000987642
0.0009873338
0.0009870205
0.0009865934
0.0009859544
0.001994647
0.0009803851
0.001018216
0.001036177
0.00104256
0.001045431
0.001046847
0.001047654
0.001048043
0.001048047
0.001047261
0.001044106
0.001039184
0.001035064
0.001031608
0.001029513
0.001029032
0.001028765
0.001028387
0.00102791
0.002013068
0.0009809017
0.001018374
0.001036273
0.001042656
0.001045548
0.001046999
0.001047863
0.001048359
0.001048596
0.001048491
0.001047899
0.001046835
0.001045775
0.001044917
0.001044292
0.001043925
0.001043554
0.0010431
0.001042657
0.002014221
0.0009809063
0.001018397
0.001036297
0.001042689
0.001045593
0.001047059
0.001047955
0.001048506
0.001048861
0.001049049
0.001049084
0.001048962
0.001048816
0.001048677
0.00104846
0.001048181
0.001047761
0.001047261
0.001046813
0.002009087
0.000980438
0.001018278
0.001036247
0.001042654
0.001045559
0.001047031
0.00104794
0.001048517
0.001048927
0.001049219
0.001049429
0.001049569
0.001049665
0.001049684
0.001049566
0.001049295
0.001048841
0.001048292
0.001047806
0.001978682
0.0009795976
0.001018064
0.001036124
0.001042541
0.001045432
0.001046897
0.001047802
0.001048383
0.001048809
0.001049133
0.001049393
0.001049598
0.001049755
0.001049824
0.001049746
0.001049484
0.001049016
0.001048433
0.001047895
0.001966037
0.0009791641
0.001017857
0.001035918
0.001042323
0.001045184
0.001046629
0.001047515
0.001048085
0.001048504
0.001048829
0.001049097
0.001049315
0.001049475
0.001049546
0.00104947
0.001049197
0.001048699
0.001048041
0.001047343
0.001968058
0.0009792868
0.001017678
0.001035632
0.001041976
0.001044787
0.001046194
0.001047049
0.001047596
0.001047996
0.001048307
0.001048562
0.001048767
0.001048918
0.001048981
0.001048899
0.001048611
0.001048058
0.001047177
0.001045906
0.001994278
0.0009797889
0.001017472
0.001035241
0.001041503
0.001044248
0.001045606
0.001046421
0.001046935
0.001047309
0.001047598
0.001047833
0.001048019
0.001048151
0.001048197
0.001048094
0.001047764
0.001047068
0.001045615
0.001041859
0.002011991
0.0009799479
0.001017219
0.001034817
0.001040992
0.001043669
0.001044975
0.001045746
0.001046227
0.001046573
0.001046835
0.001047045
0.001047208
0.001047316
0.001047338
0.001047202
0.001046799
0.001045861
0.00104346
0.001035672
0.002012513
0.0009797906
0.001016959
0.00103447
0.001040599
0.001043226
0.001044499
0.001045235
0.00104569
0.001046008
0.001046244
0.001046426
0.001046558
0.001046631
0.00104661
0.001046413
0.001045887
0.001044591
0.001041029
0.001029584
0.01078818
0.01079225
0.01077905
0.01077202
0.01077503
0.0107744
0.01077495
0.01077538
0.01077607
0.01077652
0.01077818
0.01077972
0.01079006
0.01075121
0.01079356
0.01079052
0.01079091
0.01078901
0.01079094
0.01079089
0.01079086
0.01079084
0.01079083
0.01079082
0.01079081
0.01079066
0.0107542
0.000938495
0.01079422
0.01079111
0.01079105
0.010791
0.01079101
0.01079101
0.01079104
0.01079108
0.01079114
0.0107912
0.01079126
0.01079046
0.01074574
0.0009534982
0.0107943
0.01079107
0.01079113
0.01079069
0.0107912
0.01079125
0.01079135
0.01079146
0.01079162
0.01079182
0.01079203
0.01078972
0.0107391
0.0009610884
0.01079443
0.0107912
0.01079125
0.01079126
0.01079136
0.01079147
0.01079164
0.01079184
0.01079212
0.01079235
0.01079274
0.01078941
0.01072871
0.0009623559
0.01079458
0.01079128
0.01079137
0.01079134
0.01079156
0.01079172
0.01079196
0.01079228
0.01079271
0.01079297
0.01079371
0.01079063
0.0107084
0.0009573707
0.01079472
0.0107914
0.01079149
0.01079155
0.01079173
0.01079195
0.01079226
0.01079269
0.01079331
0.0107937
0.01079534
0.01079035
0.01067688
0.0009391902
0.01079482
0.01079151
0.0107916
0.01079167
0.01079189
0.01079215
0.01079253
0.01079308
0.01079393
0.01079503
0.01079719
0.01079829
0.01080082
0.01068569
0.01079493
0.01079159
0.01079168
0.01079177
0.010792
0.01079229
0.01079272
0.01079335
0.01079439
0.01079574
0.0107995
0.01079935
0.01082705
0.01102183
0.01079501
0.01079166
0.01079174
0.01079182
0.01079205
0.01079234
0.01079276
0.01079337
0.0107943
0.01079548
0.01079754
0.01079782
0.01080076
0.0109546
0.01106673
0.0108249
0.01081377
0.01081213
0.01080963
0.01080871
0.01079508
0.01079169
0.01079176
0.01079183
0.01079206
0.01079233
0.01079272
0.01079329
0.01079408
0.01079521
0.01079695
0.01079837
0.01080033
0.01081333
0.01081603
0.01081178
0.01080852
0.01080475
0.01080232
0.01079983
0.01079512
0.0107917
0.01079176
0.01079182
0.01079202
0.01079224
0.01079259
0.01079302
0.01079361
0.01079425
0.01079519
0.01079563
0.01079719
0.01079879
0.01079856
0.01079222
0.01078768
0.01078264
0.01077992
0.01078013
0.01079514
0.0107917
0.01079173
0.01079177
0.01079194
0.0107921
0.01079243
0.01079278
0.01079326
0.01079385
0.01079468
0.0107958
0.01079732
0.01079911
0.01079994
0.01080003
0.01079956
0.01079886
0.01079842
0.01079787
0.01079515
0.01079168
0.01079169
0.0107917
0.01079185
0.01079195
0.01079226
0.01079255
0.01079297
0.01079342
0.01079407
0.01079487
0.01079585
0.01079668
0.01079632
0.01079624
0.01079586
0.01079488
0.01079454
0.01079454
0.01079515
0.01079168
0.01079169
0.0107917
0.01079183
0.01079192
0.01079223
0.01079252
0.01079289
0.01079335
0.01079392
0.01079458
0.0107953
0.01079601
0.01079651
0.01079677
0.01079681
0.01079669
0.01079655
0.01079638
0.01079514
0.01079169
0.01079171
0.01079172
0.01079187
0.01079196
0.01079226
0.01079253
0.01079287
0.01079327
0.01079372
0.01079421
0.01079472
0.01079514
0.01079539
0.01079555
0.01079557
0.0107954
0.0107953
0.01079529
0.01079512
0.01079169
0.01079171
0.01079173
0.01079188
0.01079195
0.01079226
0.0107925
0.01079283
0.01079318
0.01079357
0.010794
0.01079443
0.01079483
0.01079514
0.01079537
0.01079547
0.01079547
0.0107955
0.01079556
0.01079508
0.01079166
0.01079169
0.01079172
0.01079187
0.01079194
0.01079224
0.01079246
0.01079276
0.01079307
0.01079342
0.01079377
0.01079413
0.01079447
0.01079475
0.01079496
0.01079509
0.01079512
0.01079518
0.01079518
0.01079502
0.01079161
0.01079166
0.01079169
0.01079184
0.01079187
0.0107922
0.0107924
0.01079268
0.01079296
0.01079326
0.01079358
0.01079391
0.01079423
0.01079452
0.01079476
0.01079497
0.01079511
0.01079535
0.01079539
0.01079494
0.01079155
0.0107916
0.01079165
0.0107918
0.01079183
0.01079214
0.01079232
0.01079259
0.01079284
0.0107931
0.01079339
0.01079368
0.01079396
0.01079425
0.01079451
0.01079479
0.01079496
0.01079522
0.01079475
0.01079485
0.01079148
0.01079154
0.01079158
0.01079173
0.01079175
0.01079206
0.01079221
0.01079248
0.01079269
0.01079293
0.01079317
0.01079342
0.01079367
0.01079395
0.01079424
0.01079465
0.01079498
0.01079539
0.01079343
0.01078704
0.01054101
0.0007272853
0.0007943158
0.0008177163
0.0008243833
0.0008260828
0.0008260296
0.0008241461
0.0008172402
0.0007933554
0.0007250554
0.01077996
0.01075293
0.01079416
0.01079408
0.01079074
0.01079087
0.01079077
0.01079068
0.01079062
0.01079057
0.01079053
0.0107905
0.01079042
0.01079009
0.01076055
0.0009649527
0.01079457
0.01079381
0.01079392
0.0107939
0.01079389
0.01079389
0.01079392
0.01079394
0.01079397
0.010794
0.01079404
0.0107939
0.01075402
0.0009953634
0.01079411
0.0107937
0.01079394
0.01079402
0.01079411
0.01079416
0.01079424
0.01079434
0.01079447
0.01079464
0.01079485
0.01079492
0.01074705
0.001007447
0.01079429
0.01079383
0.01079402
0.01079414
0.01079429
0.01079441
0.01079457
0.01079476
0.01079503
0.01079538
0.01079587
0.01079616
0.01073793
0.001009245
0.01079441
0.01079394
0.01079416
0.01079429
0.01079449
0.01079467
0.01079491
0.01079522
0.01079565
0.01079629
0.01079715
0.01079804
0.01071467
0.001000638
0.01079452
0.01079403
0.01079425
0.01079443
0.01079466
0.01079491
0.01079523
0.01079565
0.01079628
0.01079723
0.01079885
0.01080038
0.01068043
0.0009668764
0.01079461
0.01079414
0.01079437
0.01079455
0.01079481
0.01079511
0.01079549
0.01079604
0.01079691
0.01079836
0.01080127
0.01080767
0.01082096
0.01067979
0.01079471
0.0107942
0.01079443
0.01079464
0.01079491
0.01079524
0.01079568
0.01079632
0.01079736
0.01079912
0.0108031
0.01081214
0.01085612
0.01102991
0.01091507
0.01092647
0.01090108
0.0107948
0.01079426
0.01079449
0.01079469
0.01079496
0.0107953
0.01079573
0.01079637
0.01079731
0.01079899
0.010802
0.01080923
0.01082831
0.01094761
0.01105335
0.01082484
0.0108157
0.01080905
0.01080778
0.01080529
0.01079487
0.01079429
0.01079451
0.0107947
0.01079496
0.01079529
0.0107957
0.01079627
0.01079708
0.01079837
0.0108003
0.01080455
0.01081206
0.01081931
0.01081995
0.01081529
0.01081146
0.01080657
0.01080434
0.01080394
0.01079491
0.01079429
0.0107945
0.01079468
0.01079493
0.01079521
0.01079557
0.01079604
0.01079668
0.01079753
0.01079874
0.01080059
0.01080365
0.01080768
0.01081034
0.01080758
0.01080553
0.01080358
0.01080235
0.01080175
0.01079492
0.01079428
0.01079448
0.01079463
0.01079485
0.0107951
0.01079541
0.01079579
0.01079627
0.0107969
0.01079773
0.0107989
0.01080043
0.01080222
0.01080309
0.01080325
0.01080268
0.0108021
0.01080172
0.01080133
0.01079492
0.01079426
0.01079444
0.01079457
0.01079476
0.01079498
0.01079524
0.01079557
0.01079598
0.0107965
0.01079715
0.01079804
0.01079914
0.01080041
0.01080115
0.01080118
0.01080095
0.01080062
0.01080033
0.01080006
0.01079492
0.01079426
0.01079444
0.01079456
0.01079475
0.01079496
0.01079521
0.01079552
0.01079591
0.01079638
0.01079695
0.01079763
0.01079835
0.01079907
0.01079961
0.01079984
0.01079988
0.01079979
0.01079966
0.01079949
0.01079491
0.01079426
0.01079446
0.01079458
0.01079478
0.010795
0.01079524
0.01079554
0.01079589
0.0107963
0.01079678
0.01079731
0.01079789
0.01079844
0.01079886
0.0107991
0.01079919
0.01079916
0.01079907
0.01079894
0.01079489
0.01079426
0.01079445
0.01079459
0.01079479
0.01079501
0.01079525
0.01079553
0.01079584
0.0107962
0.01079661
0.01079705
0.0107975
0.01079793
0.01079829
0.01079854
0.01079869
0.01079874
0.01079872
0.01079865
0.01079484
0.01079425
0.01079443
0.01079458
0.01079479
0.010795
0.01079523
0.01079549
0.01079578
0.0107961
0.01079645
0.01079682
0.01079721
0.01079758
0.01079791
0.01079818
0.01079837
0.0107985
0.01079857
0.01079859
0.01079477
0.0107942
0.01079439
0.01079455
0.01079476
0.01079497
0.01079519
0.01079543
0.0107957
0.01079598
0.01079629
0.01079661
0.01079695
0.01079728
0.01079759
0.01079788
0.01079813
0.01079835
0.01079856
0.01079876
0.01079468
0.01079414
0.01079434
0.0107945
0.01079471
0.01079492
0.01079513
0.01079536
0.0107956
0.01079586
0.01079613
0.01079642
0.01079671
0.01079701
0.01079732
0.01079764
0.01079797
0.01079836
0.01079881
0.01079961
0.01079458
0.01079407
0.01079427
0.01079444
0.01079465
0.01079485
0.01079505
0.01079527
0.01079549
0.01079572
0.01079596
0.01079621
0.01079647
0.01079674
0.01079703
0.01079737
0.01079778
0.01079833
0.01079925
0.01080109
0.01078723
0.01052519
0.0007958466
0.0008844455
0.0009239218
0.0009359774
0.0009391591
0.0009390075
0.0009354967
0.000923096
0.0008830752
0.0007928362
0.01077759
0.01075178
0.01079429
0.01079407
0.01079104
0.0107911
0.01079101
0.01079089
0.01079081
0.01079075
0.0107907
0.01079066
0.01079056
0.01079026
0.01076194
0.0009734917
0.01079424
0.01079379
0.01079389
0.01079387
0.01079386
0.01079385
0.01079386
0.01079386
0.01079388
0.01079389
0.01079391
0.0107938
0.01075522
0.001008665
0.01079397
0.01079364
0.01079388
0.01079396
0.01079406
0.01079411
0.01079419
0.01079427
0.01079438
0.01079454
0.01079474
0.01079485
0.01074811
0.001023681
0.01079414
0.01079374
0.01079394
0.01079406
0.01079422
0.01079435
0.01079451
0.01079469
0.01079494
0.01079528
0.01079577
0.0107961
0.01073887
0.001025872
0.01079423
0.01079384
0.01079405
0.0107942
0.01079441
0.01079461
0.01079485
0.01079516
0.01079558
0.01079622
0.01079707
0.01079801
0.01071509
0.001015037
0.01079435
0.01079395
0.01079415
0.01079433
0.01079458
0.01079484
0.01079516
0.01079559
0.01079622
0.01079717
0.0107988
0.01080029
0.01067897
0.0009762373
0.01079445
0.01079403
0.01079425
0.01079444
0.01079472
0.01079503
0.01079543
0.01079598
0.01079686
0.01079832
0.0108012
0.01080736
0.01081975
0.01066475
0.01079454
0.01079411
0.01079433
0.01079453
0.01079483
0.01079517
0.01079562
0.01079626
0.0107973
0.01079906
0.01080297
0.01081195
0.01085647
0.01113121
0.01089516
0.01088653
0.010868
0.01079462
0.01079416
0.01079438
0.01079457
0.01079487
0.01079522
0.01079567
0.0107963
0.01079726
0.01079896
0.01080197
0.0108093
0.01082815
0.01094529
0.01108181
0.01082343
0.01081605
0.01081072
0.01080748
0.01080518
0.01079469
0.01079419
0.0107944
0.01079459
0.01079488
0.01079521
0.01079563
0.01079621
0.01079704
0.01079834
0.01080035
0.01080464
0.01081218
0.01081936
0.01081862
0.01081437
0.01081083
0.01080565
0.01080321
0.01080349
0.01079474
0.01079421
0.0107944
0.01079457
0.01079484
0.01079513
0.01079551
0.01079598
0.01079663
0.01079749
0.01079872
0.01080052
0.01080351
0.01080773
0.01081046
0.01080742
0.01080518
0.0108031
0.01080196
0.01080157
0.01079476
0.0107942
0.01079438
0.01079452
0.01079477
0.01079503
0.01079535
0.01079574
0.01079623
0.01079687
0.01079771
0.0107989
0.01080036
0.01080209
0.01080292
0.01080316
0.01080264
0.01080184
0.0108015
0.01080117
0.01079477
0.01079419
0.01079434
0.01079446
0.01079467
0.0107949
0.01079518
0.01079552
0.01079594
0.01079647
0.01079713
0.01079803
0.01079913
0.01080042
0.01080108
0.01080115
0.01080087
0.0108005
0.01080024
0.0108
0.01079477
0.01079419
0.01079434
0.01079445
0.01079466
0.01079489
0.01079516
0.01079548
0.01079587
0.01079635
0.01079694
0.01079761
0.01079833
0.01079904
0.01079958
0.01079982
0.01079987
0.01079975
0.01079964
0.01079948
0.01079475
0.0107942
0.01079435
0.01079448
0.0107947
0.01079492
0.01079519
0.0107955
0.01079585
0.01079627
0.01079676
0.0107973
0.01079788
0.01079844
0.01079885
0.01079909
0.01079918
0.01079914
0.01079906
0.01079894
0.01079472
0.01079418
0.01079434
0.01079448
0.01079471
0.01079494
0.0107952
0.01079549
0.01079581
0.01079618
0.01079659
0.01079703
0.01079749
0.01079792
0.01079829
0.01079854
0.01079869
0.01079874
0.01079873
0.01079866
0.01079467
0.01079415
0.01079432
0.01079447
0.0107947
0.01079493
0.01079518
0.01079545
0.01079575
0.01079608
0.01079644
0.01079681
0.0107972
0.01079758
0.01079791
0.01079818
0.01079837
0.0107985
0.01079857
0.0107986
0.0107946
0.0107941
0.01079428
0.01079444
0.01079468
0.0107949
0.01079515
0.0107954
0.01079567
0.01079597
0.01079628
0.01079661
0.01079694
0.01079727
0.01079759
0.01079788
0.01079813
0.01079836
0.01079856
0.01079878
0.01079451
0.01079404
0.01079423
0.01079439
0.01079463
0.01079486
0.01079509
0.01079533
0.01079558
0.01079584
0.01079612
0.01079641
0.0107967
0.01079701
0.01079731
0.01079763
0.01079797
0.01079836
0.0107988
0.01079961
0.01079442
0.01079397
0.01079416
0.01079433
0.01079457
0.01079479
0.01079501
0.01079524
0.01079547
0.01079571
0.01079595
0.01079621
0.01079647
0.01079674
0.01079703
0.01079737
0.01079778
0.01079834
0.01079925
0.01080105
0.01078714
0.01052425
0.0008200312
0.0009245518
0.000973375
0.0009890373
0.000993292
0.0009931089
0.0009884395
0.0009723968
0.0009229116
0.0008165561
0.01077757
0.01075208
0.01079426
0.01079415
0.0107911
0.01079111
0.01079105
0.0107909
0.01079082
0.01079075
0.0107907
0.01079065
0.01079053
0.01079023
0.01076201
0.0009757841
0.0107943
0.01079387
0.01079394
0.01079388
0.01079385
0.01079383
0.01079383
0.01079383
0.01079384
0.01079384
0.01079385
0.01079375
0.01075532
0.001012241
0.01079402
0.01079371
0.0107939
0.01079396
0.01079404
0.01079408
0.01079414
0.01079421
0.01079431
0.01079446
0.01079466
0.0107948
0.01074804
0.00102816
0.01079422
0.0107938
0.01079395
0.01079405
0.01079419
0.01079431
0.01079445
0.01079462
0.01079486
0.01079519
0.0107957
0.01079605
0.0107386
0.001030538
0.01079434
0.0107939
0.01079405
0.01079417
0.01079436
0.01079456
0.01079479
0.01079509
0.0107955
0.01079614
0.01079701
0.01079797
0.0107142
0.001019105
0.01079447
0.01079401
0.01079414
0.01079429
0.01079452
0.01079478
0.0107951
0.01079552
0.01079615
0.0107971
0.01079875
0.01080029
0.01067703
0.0009786753
0.01079457
0.0107941
0.01079424
0.0107944
0.01079466
0.01079496
0.01079536
0.01079592
0.01079679
0.01079825
0.01080116
0.01080762
0.01082198
0.0106738
0.01079466
0.01079417
0.01079431
0.01079448
0.01079475
0.01079509
0.01079555
0.01079619
0.01079723
0.01079899
0.01080295
0.01081189
0.01085419
0.01101539
0.01089761
0.01087983
0.01086664
0.01079475
0.01079423
0.01079436
0.01079452
0.0107948
0.01079514
0.0107956
0.01079624
0.0107972
0.01079888
0.01080185
0.01080899
0.0108277
0.01094235
0.01106023
0.0108239
0.01081473
0.01080831
0.01080702
0.01080422
0.01079481
0.01079426
0.01079438
0.01079454
0.0107948
0.01079513
0.01079556
0.01079615
0.01079698
0.01079828
0.01080024
0.0108045
0.0108118
0.01081914
0.01081852
0.01081427
0.01081089
0.0108056
0.01080412
0.01080374
0.01079486
0.01079427
0.01079438
0.01079452
0.01079476
0.01079506
0.01079544
0.01079592
0.01079657
0.01079744
0.01079865
0.01080047
0.01080347
0.01080754
0.0108104
0.0108075
0.01080533
0.01080316
0.01080214
0.01080162
0.01079489
0.01079427
0.01079436
0.01079447
0.01079469
0.01079495
0.01079528
0.01079568
0.01079619
0.01079683
0.01079768
0.01079887
0.01080033
0.01080207
0.01080292
0.0108032
0.01080271
0.01080193
0.01080161
0.01080132
0.01079489
0.01079425
0.01079432
0.01079441
0.0107946
0.01079483
0.01079512
0.01079547
0.0107959
0.01079644
0.01079711
0.01079801
0.01079911
0.0108004
0.0108011
0.01080117
0.01080091
0.01080053
0.01080027
0.01080005
0.01079489
0.01079425
0.01079431
0.0107944
0.01079458
0.01079481
0.01079509
0.01079543
0.01079583
0.01079632
0.01079691
0.0107976
0.01079832
0.01079903
0.01079958
0.01079983
0.01079989
0.01079977
0.01079966
0.01079952
0.01079488
0.01079425
0.01079432
0.01079442
0.01079462
0.01079485
0.01079513
0.01079545
0.01079582
0.01079624
0.01079674
0.01079729
0.01079787
0.01079843
0.01079885
0.0107991
0.01079918
0.01079915
0.01079908
0.01079896
0.01079484
0.01079424
0.01079432
0.01079443
0.01079463
0.01079487
0.01079514
0.01079544
0.01079578
0.01079615
0.01079657
0.01079702
0.01079748
0.01079791
0.01079829
0.01079854
0.01079869
0.01079875
0.01079874
0.01079868
0.01079479
0.0107942
0.01079429
0.01079442
0.01079463
0.01079487
0.01079513
0.01079541
0.01079572
0.01079606
0.01079642
0.0107968
0.01079719
0.01079757
0.01079791
0.01079818
0.01079838
0.01079851
0.01079858
0.01079862
0.01079471
0.01079415
0.01079425
0.01079439
0.0107946
0.01079484
0.0107951
0.01079536
0.01079565
0.01079595
0.01079626
0.0107966
0.01079693
0.01079727
0.01079758
0.01079788
0.01079814
0.01079836
0.01079857
0.01079879
0.01079462
0.01079408
0.01079419
0.01079434
0.01079456
0.0107948
0.01079504
0.0107953
0.01079556
0.01079583
0.01079611
0.0107964
0.0107967
0.010797
0.01079731
0.01079763
0.01079797
0.01079837
0.01079881
0.01079962
0.01079452
0.01079401
0.01079413
0.01079428
0.0107945
0.01079473
0.01079497
0.01079521
0.01079545
0.01079569
0.01079594
0.0107962
0.01079646
0.01079673
0.01079703
0.01079737
0.01079779
0.01079834
0.01079926
0.0108011
0.01078704
0.01052388
0.0008271088
0.0009369671
0.0009893832
0.001006713
0.001011574
0.001011371
0.001006067
0.0009883286
0.0009351863
0.0008233576
0.01077763
0.01075227
0.01079426
0.01079418
0.0107911
0.01079109
0.01079103
0.01079087
0.01079078
0.01079071
0.01079066
0.01079062
0.01079051
0.0107902
0.01076222
0.000976585
0.01079435
0.01079391
0.01079396
0.01079388
0.01079385
0.01079382
0.01079382
0.01079381
0.01079382
0.01079381
0.01079382
0.01079373
0.01075533
0.001013343
0.01079404
0.01079374
0.01079393
0.01079397
0.01079404
0.01079406
0.01079412
0.01079419
0.01079428
0.01079442
0.01079463
0.01079478
0.01074818
0.001029508
0.01079429
0.01079385
0.01079396
0.01079405
0.01079417
0.01079428
0.01079442
0.01079458
0.0107948
0.01079514
0.01079566
0.01079604
0.01073861
0.001031945
0.01079437
0.01079394
0.01079405
0.01079417
0.01079433
0.01079452
0.01079475
0.01079504
0.01079544
0.01079609
0.01079698
0.01079799
0.01071432
0.001020323
0.01079453
0.01079406
0.01079415
0.01079428
0.01079448
0.01079473
0.01079505
0.01079546
0.01079609
0.01079705
0.01079873
0.01080033
0.01067597
0.0009792867
0.01079462
0.01079415
0.01079424
0.01079439
0.01079461
0.01079491
0.01079531
0.01079586
0.01079674
0.01079823
0.0108012
0.01080789
0.01082408
0.01068973
0.01079473
0.01079422
0.01079431
0.01079447
0.01079471
0.01079503
0.01079549
0.01079613
0.01079719
0.01079895
0.01080293
0.01081197
0.01085224
0.01105445
0.01089258
0.01088063
0.01086546
0.01079481
0.01079428
0.01079436
0.01079451
0.01079475
0.01079508
0.01079553
0.01079617
0.01079714
0.01079881
0.01080173
0.01080871
0.01082691
0.01093163
0.01106229
0.01082351
0.01081571
0.01080876
0.0108058
0.01080464
0.01079488
0.01079431
0.01079439
0.01079452
0.01079475
0.01079507
0.0107955
0.01079609
0.01079693
0.01079823
0.01080022
0.01080436
0.01081149
0.01081905
0.01081856
0.01081463
0.01081103
0.01080585
0.01080303
0.01080356
0.01079493
0.01079433
0.01079439
0.0107945
0.01079471
0.010795
0.01079538
0.01079587
0.01079653
0.01079739
0.0107986
0.01080039
0.0108034
0.0108075
0.01081047
0.01080747
0.01080521
0.01080315
0.01080192
0.0108016
0.01079496
0.01079433
0.01079437
0.01079446
0.01079464
0.01079489
0.01079522
0.01079563
0.01079615
0.0107968
0.01079764
0.01079883
0.01080027
0.010802
0.01080286
0.01080316
0.01080269
0.01080175
0.01080147
0.01080126
0.01079497
0.01079431
0.01079433
0.0107944
0.01079455
0.01079477
0.01079506
0.01079542
0.01079586
0.0107964
0.01079709
0.010798
0.01079908
0.01080037
0.01080102
0.01080112
0.01080084
0.01080047
0.01080022
0.01080001
0.01079497
0.01079431
0.01079432
0.01079439
0.01079454
0.01079476
0.01079504
0.01079538
0.01079579
0.0107963
0.01079689
0.01079758
0.0107983
0.01079902
0.01079956
0.0107998
0.01079987
0.01079972
0.01079963
0.0107995
0.01079495
0.01079431
0.01079433
0.01079441
0.01079458
0.0107948
0.01079508
0.0107954
0.01079578
0.01079622
0.01079672
0.01079727
0.01079785
0.01079842
0.01079883
0.01079908
0.01079917
0.01079913
0.01079906
0.01079895
0.01079492
0.01079429
0.01079432
0.01079442
0.01079459
0.01079482
0.01079509
0.0107954
0.01079575
0.01079613
0.01079655
0.01079701
0.01079747
0.01079791
0.01079828
0.01079854
0.01079869
0.01079874
0.01079874
0.01079869
0.01079486
0.01079425
0.0107943
0.0107944
0.01079459
0.01079481
0.01079508
0.01079538
0.01079569
0.01079604
0.0107964
0.01079679
0.01079718
0.01079756
0.0107979
0.01079817
0.01079837
0.0107985
0.01079857
0.01079862
0.01079478
0.0107942
0.01079425
0.01079437
0.01079456
0.01079479
0.01079505
0.01079533
0.01079562
0.01079593
0.01079625
0.01079659
0.01079692
0.01079726
0.01079758
0.01079787
0.01079814
0.01079837
0.01079857
0.01079883
0.01079469
0.01079414
0.0107942
0.01079432
0.01079452
0.01079475
0.010795
0.01079526
0.01079553
0.01079581
0.0107961
0.01079639
0.01079669
0.010797
0.01079731
0.01079763
0.01079797
0.01079835
0.0107988
0.01079958
0.01079459
0.01079406
0.01079413
0.01079426
0.01079446
0.01079469
0.01079493
0.01079518
0.01079543
0.01079568
0.01079593
0.01079619
0.01079645
0.01079673
0.01079703
0.01079737
0.01079779
0.01079834
0.01079924
0.01080105
0.01078711
0.01052393
0.0008292265
0.0009407241
0.0009943368
0.001012339
0.001017494
0.001017286
0.001011673
0.0009932408
0.0009388429
0.0008253512
0.01077753
0.01075219
0.01079427
0.0107942
0.01079109
0.01079107
0.01079102
0.01079085
0.01079076
0.01079069
0.01079064
0.0107906
0.01079049
0.01079018
0.01076213
0.0009769131
0.01079438
0.01079394
0.01079399
0.01079388
0.01079385
0.01079382
0.01079381
0.0107938
0.01079381
0.0107938
0.01079381
0.01079373
0.01075535
0.001013747
0.01079405
0.01079379
0.01079395
0.01079398
0.01079404
0.01079406
0.01079411
0.01079417
0.01079426
0.0107944
0.01079461
0.01079477
0.01074818
0.001029976
0.01079432
0.0107939
0.01079398
0.01079406
0.01079416
0.01079427
0.01079439
0.01079455
0.01079478
0.01079511
0.01079564
0.01079604
0.0107385
0.001032424
0.0107944
0.01079398
0.01079407
0.01079417
0.01079432
0.01079449
0.01079472
0.010795
0.01079541
0.01079606
0.01079696
0.01079798
0.01071424
0.001020725
0.01079456
0.0107941
0.01079417
0.01079429
0.01079447
0.0107947
0.01079501
0.01079542
0.01079606
0.01079702
0.01079871
0.01080033
0.01067548
0.0009794793
0.01079465
0.01079418
0.01079426
0.01079439
0.0107946
0.01079487
0.01079526
0.01079582
0.0107967
0.01079819
0.01080117
0.01080788
0.01082404
0.010692
0.01079475
0.01079426
0.01079433
0.01079446
0.01079468
0.01079499
0.01079544
0.01079609
0.01079715
0.01079891
0.01080289
0.01081188
0.01085136
0.01104815
0.01089674
0.01087783
0.01086532
0.01079484
0.01079431
0.01079438
0.01079451
0.01079473
0.01079504
0.01079549
0.01079613
0.0107971
0.01079876
0.01080166
0.01080857
0.0108266
0.01092957
0.011063
0.01082373
0.01081469
0.01080807
0.01080669
0.01080394
0.01079491
0.01079435
0.0107944
0.01079452
0.01079473
0.01079503
0.01079545
0.01079604
0.01079689
0.01079819
0.01080016
0.01080429
0.01081134
0.01081892
0.01081836
0.01081424
0.01081093
0.01080546
0.01080425
0.01080348
0.01079496
0.01079437
0.0107944
0.0107945
0.01079469
0.01079496
0.01079533
0.01079582
0.01079649
0.01079735
0.01079856
0.01080034
0.01080335
0.01080744
0.01081042
0.01080747
0.01080525
0.01080307
0.01080209
0.01080153
0.01079499
0.01079437
0.01079438
0.01079446
0.01079462
0.01079485
0.01079518
0.01079559
0.01079611
0.01079677
0.01079761
0.01079881
0.01080025
0.01080198
0.01080284
0.01080313
0.01080268
0.01080185
0.0108016
0.01080129
0.01079499
0.01079435
0.01079434
0.0107944
0.01079453
0.01079473
0.01079502
0.01079538
0.01079583
0.01079638
0.01079707
0.01079798
0.01079906
0.01080036
0.01080103
0.01080113
0.01080086
0.01080049
0.01080025
0.01080003
0.01079499
0.01079435
0.01079433
0.01079439
0.01079452
0.01079472
0.010795
0.01079535
0.01079577
0.01079628
0.01079687
0.01079757
0.01079829
0.01079901
0.01079956
0.0107998
0.01079987
0.01079975
0.01079966
0.01079953
0.01079498
0.01079435
0.01079434
0.01079441
0.01079455
0.01079476
0.01079504
0.01079537
0.01079576
0.0107962
0.0107967
0.01079726
0.01079784
0.01079841
0.01079883
0.01079908
0.01079917
0.01079914
0.01079907
0.01079896
0.01079494
0.01079433
0.01079433
0.01079441
0.01079457
0.01079478
0.01079505
0.01079537
0.01079572
0.01079611
0.01079654
0.010797
0.01079746
0.0107979
0.01079827
0.01079853
0.01079869
0.01079874
0.01079874
0.0107987
0.01079488
0.01079429
0.01079431
0.0107944
0.01079456
0.01079478
0.01079504
0.01079534
0.01079567
0.01079602
0.01079639
0.01079678
0.01079718
0.01079756
0.0107979
0.01079817
0.01079837
0.0107985
0.01079858
0.01079862
0.0107948
0.01079423
0.01079426
0.01079437
0.01079454
0.01079476
0.01079502
0.0107953
0.0107956
0.01079591
0.01079624
0.01079658
0.01079692
0.01079726
0.01079758
0.01079787
0.01079814
0.01079837
0.01079858
0.01079884
0.01079471
0.01079417
0.0107942
0.01079432
0.0107945
0.01079472
0.01079497
0.01079524
0.01079551
0.0107958
0.01079609
0.01079638
0.01079669
0.01079699
0.01079731
0.01079763
0.01079797
0.01079835
0.01079881
0.01079959
0.01079461
0.01079409
0.01079413
0.01079426
0.01079444
0.01079466
0.0107949
0.01079515
0.01079541
0.01079566
0.01079592
0.01079618
0.01079645
0.01079673
0.01079703
0.01079736
0.01079778
0.01079834
0.01079925
0.01080105
0.01078687
0.01052422
0.0008297565
0.0009416264
0.000995536
0.00101376
0.00101899
0.001018779
0.001013076
0.0009944489
0.0009397358
0.0008258237
0.01077738
0.01075229
0.01079427
0.01079421
0.01079109
0.01079107
0.01079102
0.01079084
0.01079075
0.01079068
0.01079063
0.01079059
0.01079049
0.01079018
0.01076211
0.0009769982
0.01079438
0.01079394
0.01079399
0.01079388
0.01079384
0.01079382
0.01079381
0.0107938
0.01079381
0.0107938
0.01079381
0.01079373
0.01075529
0.001013853
0.01079405
0.0107938
0.01079395
0.01079398
0.01079404
0.01079405
0.01079411
0.01079417
0.01079426
0.0107944
0.01079461
0.01079477
0.01074817
0.001030095
0.01079431
0.0107939
0.01079399
0.01079406
0.01079416