/*--------------------------------*- C++ -*----------------------------------*\
  =========                 |
  \\      /  F ield         | OpenFOAM: The Open Source CFD Toolbox
   \\    /   O peration     | Website:  https://openfoam.org
    \\  /    A nd           | Version:  7
     \\/     M anipulation  |
\*---------------------------------------------------------------------------*/
FoamFile
{
    version     2.0;
    format      ascii;
    class       volScalarField;
    location    "0.08";
    object      p;
}
// * * * * * * * * * * * * * * * * * * * * * * * * * * * * * * * * * * * * * //

dimensions      [0 2 -2 0 0 0 0];

internalField   nonuniform List<scalar> 
53911
(
0.008784683
0.006498894
-0.00627381
-0.01507532
-0.02698915
-0.0377281
-0.04913155
-0.05817537
-0.06226106
-0.07386354
-0.08368306
-0.09252476
-0.09781778
-0.1001006
0.002823904
-0.009632893
-0.03057295
-0.02902106
-0.04771923
-0.05108913
-0.06427391
-0.06959702
-0.07925021
-0.08721994
-0.09586838
-0.1032681
-0.1093796
-0.1064559
0.005002501
-0.009461133
-0.02707212
-0.02433025
-0.05104359
-0.05293062
-0.06742462
-0.07235075
-0.08493978
-0.09338318
-0.1048855
-0.1165127
-0.1246482
-0.1216927
0.00498688
-0.003233766
-0.04223127
-0.03291736
-0.05401644
-0.05624377
-0.06794603
-0.0744978
-0.08754391
-0.09854113
-0.1127603
-0.128669
-0.1408216
-0.1416359
0.004229015
-0.009238307
-0.02882173
-0.02362031
-0.05092538
-0.05122581
-0.07316579
-0.07791344
-0.09323882
-0.1071387
-0.1236105
-0.1484432
-0.1644947
-0.1726064
0.006512951
0.001112264
-0.04638236
-0.03177032
-0.05712958
-0.05960909
-0.0726302
-0.0807862
-0.09960267
-0.1158871
-0.1440397
-0.1744799
-0.2130205
-0.2219028
0.005785392
-0.007567195
-0.02967265
-0.01927137
-0.05499859
-0.05335974
-0.07131501
-0.07822143
-0.09721998
-0.1172907
-0.1425394
-0.1890474
-0.2309161
-0.3025266
0.007253083
0.004337214
-0.04418927
-0.0257106
-0.05347541
-0.05639696
-0.07145947
-0.08073319
-0.1064279
-0.1274973
-0.1797678
-0.2331333
-0.3781326
-0.4506278
0.007428256
-0.003030503
-0.03181542
-0.01877855
-0.0453947
-0.04329069
-0.06344748
-0.06843798
-0.08817394
-0.1058845
-0.1350805
-0.1819989
-0.2550384
-0.8396105
0.007864274
0.005873786
-0.03701072
-0.01816738
-0.0445158
-0.04216997
-0.06029257
-0.06575069
-0.09064928
-0.1043658
-0.1493698
-0.1773192
-0.2763062
-0.3867602
-0.5173724
-0.3172383
-0.1652574
-0.05584502
0.00392023
0.05311207
0.008033332
0.002952687
-0.02885883
-0.01285465
-0.03524855
-0.03084823
-0.04673576
-0.04916098
-0.06296528
-0.07239474
-0.08758783
-0.1116081
-0.1380899
-0.269098
-0.1752019
-0.1164332
-0.04937092
0.005796857
0.05061744
0.09630615
0.01072788
0.008504884
-0.02878668
-0.01097445
-0.03254771
-0.02688811
-0.04197996
-0.04393873
-0.05882908
-0.0683666
-0.08588357
-0.1060335
-0.1186857
-0.1445998
-0.1209563
-0.07931274
-0.03817298
0.007326399
0.0439523
0.08448837
0.01172878
0.007258483
-0.02087373
-0.00427889
-0.02422542
-0.0166243
-0.02918823
-0.02748337
-0.03500848
-0.03740288
-0.04141548
-0.04976035
-0.04751602
-0.07342891
-0.02527411
-0.005575606
0.03255422
0.06851832
0.1009021
0.135497
0.01236656
0.009290335
-0.01868308
-0.0009716377
-0.01986788
-0.01092817
-0.02268629
-0.02031739
-0.02728055
-0.0290084
-0.03118159
-0.03845654
-0.03328416
-0.04758214
-0.02249353
-0.01288912
0.01096031
0.03270301
0.05636844
0.08442519
0.01002494
0.01392217
-0.01512686
0.004818661
-0.01359591
-0.002950544
-0.012781
-0.007953654
-0.01160735
-0.009300521
-0.008197107
-0.006403237
0.0009441032
0.004917293
0.02689806
0.04223404
0.06374204
0.08622295
0.1082612
0.1342864
0.008988917
0.01369565
-0.01179602
0.008749107
-0.009100036
0.002667939
-0.006361895
-0.0008756332
-0.003928472
-0.001313505
1.58468e-05
0.002606434
0.007843261
0.009604706
0.02291054
0.03089074
0.04575346
0.06085142
0.07762272
0.09748853
0.0097046
0.01816816
-0.009626315
0.01323233
-0.003894439
0.008838531
0.00122244
0.00813252
0.006976926
0.01187787
0.01543573
0.0214579
0.02969045
0.03951103
0.04831284
0.05918168
0.07190615
0.0866357
0.09996
0.1190717
0.01009512
0.02128092
-0.006637554
0.01660013
0.0002018983
0.01363139
0.006792226
0.01414407
0.01339353
0.01834772
0.02149307
0.02659674
0.03251983
0.03892029
0.0474242
0.0561991
0.06629675
0.07759429
0.08835309
0.1021042
0.01147108
0.02133459
-0.005178282
0.01994667
0.004765506
0.01827964
0.01239958
0.02014696
0.02026651
0.0259583
0.02986653
0.03593862
0.04240627
0.04985375
0.05727035
0.06586262
0.07259271
0.08264214
0.08559731
0.1023364
0.0129144
0.02596484
-0.002342155
0.02295593
0.008155381
0.02191507
0.01672373
0.02461828
0.0251494
0.0308548
0.0346884
0.04049752
0.04639197
0.05330982
0.06047541
0.06863739
0.07577025
0.08461992
0.08823887
0.09574839
0.01259678
0.02715421
-0.002690799
0.02549312
0.01216217
0.02532717
0.02083034
0.02858661
0.02952619
0.03522508
0.03913949
0.04489379
0.05042091
0.05701802
0.06266981
0.07011156
0.07257779
0.08183203
0.0704857
0.08708923
-0.009890082
-0.01221314
-0.03478124
-0.03015131
-0.050024
-0.05377026
-0.06616679
-0.07212803
-0.08180874
-0.08886527
-0.09614738
-0.101209
-0.1061159
-0.1024937
0.003264403
-0.01415386
-0.02281615
-0.03159021
-0.0425652
-0.04858965
-0.05934406
-0.0652931
-0.07477833
-0.081848
-0.08977333
-0.09853843
-0.1045387
-0.1110543
0.006165775
-0.01230606
-0.02331195
-0.02622359
-0.05100189
-0.05452261
-0.06756074
-0.07355036
-0.08545588
-0.09463436
-0.1047814
-0.1166711
-0.123006
-0.1317153
0.006172186
-0.01649245
-0.02343168
-0.03302411
-0.04717844
-0.05299279
-0.06583413
-0.07327719
-0.08615227
-0.09744316
-0.1107624
-0.1266996
-0.1384525
-0.1512634
0.006807471
-0.01209151
-0.02343999
-0.02730104
-0.04796005
-0.05305353
-0.06925898
-0.07700655
-0.09215327
-0.1073144
-0.1219623
-0.1485868
-0.1605933
-0.1899207
0.005868363
-0.01381941
-0.02316303
-0.03176561
-0.04845328
-0.05451331
-0.07035408
-0.0796731
-0.09882571
-0.1158463
-0.1423058
-0.1741696
-0.2045173
-0.2537286
0.008367539
-0.0116606
-0.02253943
-0.02671457
-0.04531013
-0.05029962
-0.06876934
-0.07727169
-0.09570938
-0.1167872
-0.1391262
-0.1887804
-0.2232924
-0.3487069
0.007576792
-0.01081161
-0.02084418
-0.02782125
-0.0460547
-0.0512938
-0.0694461
-0.07961215
-0.106282
-0.1280973
-0.1814424
-0.2364336
-0.3743
-0.3993358
0.01020455
-0.009806002
-0.019186
-0.02204442
-0.04129089
-0.04339171
-0.0614739
-0.06808341
-0.08594905
-0.1053711
-0.1288928
-0.1805576
-0.2338945
-0.5729561
0.009974852
-0.007773668
-0.01641599
-0.02049486
-0.0385346
-0.04009616
-0.058724
-0.06538806
-0.09061735
-0.1042534
-0.1518799
-0.1757462
-0.2884376
-0.3953243
-0.5437852
-0.2366968
-0.1759934
-0.06007011
-0.007224505
0.0523712
0.01189983
-0.006227796
-0.01516346
-0.01578223
-0.03237492
-0.0312658
-0.04580719
-0.04889872
-0.06230758
-0.07094869
-0.0857301
-0.1074187
-0.1256201
-0.266988
-0.1723325
-0.09760691
-0.02724875
0.04025389
0.08858472
0.1313952
0.01269582
-0.005123951
-0.0124158
-0.01291314
-0.027955
-0.02679839
-0.0408929
-0.04402949
-0.05871279
-0.06911036
-0.08486295
-0.1080233
-0.1165173
-0.1486277
-0.1349409
-0.08279876
-0.05253473
-0.009914166
0.02347328
0.06059762
0.01471931
-0.002223489
-0.009921139
-0.007862474
-0.02109335
-0.01755783
-0.02829305
-0.02752405
-0.03439275
-0.03663792
-0.03975384
-0.0439948
-0.04173473
-0.06968046
-0.0190561
0.002226437
0.04225559
0.08034108
0.1144137
0.148031
0.01580419
-0.0005794582
-0.006705222
-0.004276555
-0.0163754
-0.01190799
-0.021757
-0.02044454
-0.02676492
-0.02839948
-0.02983918
-0.03607441
-0.0310904
-0.04850657
-0.0261621
-0.01613054
0.006128277
0.02658184
0.04982421
0.07569469
0.01582779
0.0006487931
-0.004266654
0.00040682
-0.01045285
-0.004165369
-0.01189498
-0.007991806
-0.01098487
-0.008540654
-0.007145872
-0.003371652
0.002666489
0.00670335
0.0285819
0.04391322
0.06672203
0.08996717
0.1132773
0.1388702
0.01562555
0.00458278
-0.001891385
0.004486996
-0.005924124
0.001429011
-0.005512556
-0.001016961
-0.003560328
-0.001054355
0.0003410684
0.003085521
0.007258125
0.008037134
0.02176286
0.02940639
0.04426921
0.05882247
0.07528173
0.09394826
0.01601896
0.006139074
0.0009798137
0.008279038
-0.0009623934
0.007403518
0.001884266
0.007828878
0.007170844
0.01204227
0.01584762
0.02231295
0.03100787
0.04074597
0.04892402
0.05971611
0.07272192
0.08766041
0.1015285
0.1204074
0.01615489
0.007829569
0.003207964
0.01194507
0.003074414
0.01222521
0.007383922
0.01375499
0.01346623
0.0182537
0.02146771
0.02648418
0.03234307
0.03854168
0.04706159
0.05576854
0.06594003
0.07716277
0.08787275
0.1009458
0.01744425
0.01198165
0.005946492
0.01512832
0.007080823
0.01669183
0.01277738
0.0196959
0.02027515
0.02584504
0.02986803
0.0359488
0.04245401
0.04985418
0.05734324
0.06605581
0.07297718
0.08357488
0.08701527
0.1030349
0.01785749
0.01380991
0.00830168
0.0179516
0.01049143
0.02037695
0.01704576
0.02415273
0.02509497
0.03066477
0.03457852
0.04033292
0.0462443
0.05308669
0.06031867
0.068468
0.07579119
0.08483291
0.08965971
0.09687894
0.01749445
0.01488561
0.01101027
0.02012048
0.01367858
0.02358267
0.02088169
0.02805615
0.02939512
0.03502297
0.03902163
0.04474941
0.05031107
0.05686565
0.06265721
0.07022195
0.07294001
0.0831908
0.07232481
0.08706644
-0.01858521
-0.00192763
-0.03144887
-0.03024664
-0.04356676
-0.04698798
-0.05981416
-0.06311077
-0.07406364
-0.07806214
-0.08731474
-0.09161949
-0.1012701
-0.1010436
0.005732488
-0.002276781
-0.0223229
-0.02833539
-0.04508408
-0.05014853
-0.06231984
-0.06832378
-0.07821786
-0.08550143
-0.09322121
-0.1014795
-0.1062873
-0.1120436
-0.01473998
0.002875182
-0.0359995
-0.02952757
-0.04726091
-0.04965652
-0.06642353
-0.07011499
-0.08202426
-0.08937154
-0.1005619
-0.1118997
-0.1203606
-0.1309624
-0.01486768
-0.0001105843
-0.03714509
-0.03456014
-0.05125646
-0.05569831
-0.06730726
-0.07448782
-0.08690016
-0.09782703
-0.1112603
-0.1273593
-0.1385409
-0.1537914
-0.01657146
-0.001340218
-0.02807816
-0.02187032
-0.05267285
-0.05441546
-0.07035476
-0.07621633
-0.09110122
-0.1055129
-0.1209278
-0.147833
-0.1605052
-0.193609
-0.01010477
0.004473684
-0.04082006
-0.03397819
-0.05467317
-0.05832321
-0.07144623
-0.08039776
-0.09894929
-0.1155792
-0.1427979
-0.175856
-0.2067657
-0.2616141
-0.01602976
-0.001337635
-0.02845301
-0.01948481
-0.05355357
-0.0546188
-0.06927497
-0.07780386
-0.09581764
-0.1169665
-0.1409396
-0.1930142
-0.2326528
-0.3700755
-0.009837434
0.007563998
-0.03901908
-0.0285718
-0.05054838
-0.0548154
-0.07014246
-0.08009304
-0.1064669
-0.1283247
-0.1832897
-0.2427358
-0.3866495
-0.3976911
-0.01501051
0.003500896
-0.03047236
-0.02005887
-0.04492359
-0.04449917
-0.06179033
-0.06862217
-0.08671876
-0.1072116
-0.1345532
-0.1951859
-0.2766089
-0.5495836
0.01251725
0.0575461
0.1163454
-0.01098746
0.009728064
-0.03315575
-0.02062665
-0.04183023
-0.04212989
-0.05916691
-0.06542849
-0.09126257
-0.103798
-0.1550515
-0.1806238
-0.2915263
-0.3890632
-0.5404996
-0.26167
-0.1886525
-0.09350934
-0.01215224
0.03544831
-0.01206021
0.008412981
-0.02764612
-0.01449967
-0.03385507
-0.03149982
-0.04583346
-0.04887363
-0.06195274
-0.07056675
-0.08533597
-0.1096642
-0.1271553
-0.2660206
-0.1697588
-0.09136584
-0.02288447
0.03683003
0.08357516
0.1274045
-0.01134265
0.01112856
-0.02527094
-0.01181313
-0.03045864
-0.02702799
-0.04103707
-0.04403928
-0.05873678
-0.06905613
-0.08465374
-0.1086753
-0.1158515
-0.1474185
-0.1296774
-0.08560933
-0.05135107
-0.01349847
0.02313203
0.05652734
-0.01338566
0.01123725
-0.02012449
-0.005360618
-0.02307215
-0.01735104
-0.02834631
-0.02750102
-0.03409575
-0.03655614
-0.03941504
-0.04413836
-0.04206786
-0.06881237
-0.02436411
-0.0003571012
0.03947079
0.07888142
0.1129843
0.1477766
-0.01331283
0.01378418
-0.01744135
-0.001698742
-0.01844124
-0.01161036
-0.02182115
-0.02046333
-0.02653574
-0.02839091
-0.02968004
-0.03648092
-0.03138138
-0.04843896
-0.02952058
-0.01679801
0.005188462
0.02502233
0.04838788
0.0737794
-0.01254214
0.01684803
-0.01400549
0.003709269
-0.01235942
-0.003733361
-0.0119347
-0.008003263
-0.01075738
-0.008542629
-0.007076248
-0.003353092
0.002170314
0.006498351
0.02733058
0.04386074
0.0662381
0.09086519
0.1141574
0.1407965
-0.01133408
0.01957021
-0.01143311
0.007752352
-0.007676799
0.001889908
-0.005503209
-0.001021622
-0.003337163
-0.001054916
0.0004499305
0.003140131
0.006878329
0.007713747
0.02075344
0.02891635
0.04358206
0.05822556
0.0745736
0.09339868
-0.009872255
0.02420184
-0.008656421
0.01225275
-0.002621666
0.008004546
0.001959892
0.007870282
0.007437284
0.01213462
0.01608123
0.02258776
0.03134166
0.04102566
0.04899913
0.06012801
0.07309505
0.08856381
0.1025116
0.1221264
-0.007846273
0.02567438
-0.006045093
0.01571747
0.001549379
0.01278044
0.007505769
0.01378002
0.01370312
0.01827245
0.021589
0.02651124
0.0323364
0.0384814
0.04688484
0.05568264
0.06590924
0.0773255
0.08818211
0.1017145
-0.006516988
0.02747601
-0.003587588
0.01930813
0.005904934
0.01742095
0.01302677
0.01976344
0.02055242
0.02590599
0.03004755
0.03607973
0.04259652
0.04999648
0.05749767
0.06628001
0.07342491
0.08408927
0.08775843
0.105532
-0.005323491
0.03010427
-0.001388988
0.0217417
0.009508271
0.02105073
0.01742841
0.02423267
0.02539086
0.0307032
0.03471054
0.0403737
0.04629605
0.05311234
0.0604048
0.06861199
0.07635157
0.08553746
0.09102226
0.09905261
-0.003950409
0.02972079
3.158334e-05
0.02427102
0.01334322
0.02440615
0.02149305
0.02818406
0.02972871
0.03506848
0.03916326
0.04480226
0.05040248
0.05694725
0.06291832
0.07066003
0.0742773
0.08453253
0.07797559
0.09849584
-0.01922932
-0.009383823
-0.02541299
-0.02391782
-0.05078282
-0.05256637
-0.06412127
-0.06808115
-0.07863595
-0.08325046
-0.09284577
-0.09666259
-0.1021429
-0.1007055
0.008356105
-0.005462176
-0.01932679
-0.02909343
-0.0424694
-0.04924809
-0.06062619
-0.06673631
-0.07603327
-0.08328281
-0.08999773
-0.09873071
-0.1028022
-0.1098566
-0.007507125
-0.006600076
-0.02008277
-0.02286105
-0.04957885
-0.05280813
-0.06618779
-0.07095721
-0.08284404
-0.09089673
-0.1012019
-0.11295
-0.119908
-0.1311098
-0.002188553
-0.01358687
-0.02327552
-0.03321287
-0.04566363
-0.05236853
-0.06459786
-0.0725894
-0.08454301
-0.09601248
-0.1082103
-0.1248479
-0.1350769
-0.1503766
-0.005028639
-0.009131679
-0.02166268
-0.02686962
-0.04543808
-0.05112491
-0.06617143
-0.07503115
-0.08913824
-0.1048532
-0.1187598
-0.147036
-0.1583492
-0.1927953
-0.003090321
-0.01404776
-0.02454877
-0.03198751
-0.04597227
-0.05318658
-0.0681037
-0.07847317
-0.09684032
-0.1144693
-0.140346
-0.1744825
-0.2035143
-0.2597961
-0.004170899
-0.0102827
-0.02083527
-0.02693715
-0.04254961
-0.04942211
-0.06493925
-0.07586949
-0.09301455
-0.1155022
-0.1381524
-0.191973
-0.2328351
-0.3855154
-0.00272887
-0.01307357
-0.022759
-0.02897576
-0.04284659
-0.04992324
-0.06677823
-0.07848088
-0.1048681
-0.1278825
-0.1836835
-0.2418061
-0.39703
-0.4354761
-0.003925104
-0.009880555
-0.01823795
-0.02382957
-0.03782269
-0.04299399
-0.05767165
-0.06716301
-0.08366345
-0.1053833
-0.1302244
-0.1911597
-0.2739378
-0.771011
0.02162955
0.07497469
0.1227661
-0.002214406
-0.01033638
-0.01844079
-0.02282712
-0.03567464
-0.04052395
-0.05646715
-0.06483736
-0.08981485
-0.103881
-0.1537632
-0.1804812
-0.2895193
-0.4155379
-0.5424202
-0.258216
-0.1853186
-0.09200002
-0.01530633
0.04526226
-0.002812131
-0.008256371
-0.0142797
-0.01789223
-0.02954624
-0.03185952
-0.04355424
-0.04836093
-0.06042622
-0.06935088
-0.08358023
-0.106657
-0.1245381
-0.2692459
-0.1754432
-0.07769453
-0.001919108
0.06801693
0.1120397
0.1553046
-0.00180675
-0.007293628
-0.01275003
-0.01524087
-0.02560387
-0.02765772
-0.03916
-0.04426618
-0.05834614
-0.07034181
-0.08608686
-0.112728
-0.1211797
-0.1576667
-0.1439272
-0.09286133
-0.06413196
-0.03165279
0.0009578416
0.03543184
-0.002419034
-0.00507027
-0.009313502
-0.01061782
-0.01905607
-0.01886038
-0.02666405
-0.02762172
-0.03301557
-0.03593538
-0.03812475
-0.0429289
-0.0377825
-0.07113606
-0.009215169
0.01085041
0.05257408
0.09250787
0.1273678
0.1607296
-0.001810285
-0.004099239
-0.006971408
-0.007234708
-0.01449066
-0.01345409
-0.02037263
-0.02091177
-0.02569947
-0.02804877
-0.02873707
-0.03571946
-0.028421
-0.05231047
-0.02947394
-0.02201599
-0.0007072772
0.01563241
0.03765676
0.06131463
-0.0007537159
-0.002379269
-0.004141925
-0.002974999
-0.008758818
-0.005968668
-0.01066681
-0.008513145
-0.01000282
-0.008102809
-0.005840315
-0.001683545
0.004735215
0.01073675
0.03229444
0.04827647
0.07112312
0.09487448
0.1189816
0.144537
0.0005079352
-0.0004008671
-0.001596032
0.0006546038
-0.004226062
-0.0005749945
-0.004438003
-0.001777432
-0.002934484
-0.00119247
0.0008227185
0.002611255
0.006159612
0.006164566
0.01982212
0.02685498
0.04112896
0.05445997
0.07015085
0.08796406
0.001671065
0.001009538
0.001090367
0.004174952
0.0005114004
0.005246022
0.002806132
0.007020077
0.007765872
0.01221883
0.01664271
0.02434288
0.03192927
0.04202494
0.05014519
0.0609981
0.07415819
0.08933516
0.1034649
0.1230124
0.001930886
0.002775122
0.003605136
0.007466947
0.004505632
0.009925823
0.008170335
0.01278886
0.01379082
0.01797331
0.02159377
0.02643177
0.03217186
0.03807732
0.04642443
0.05485244
0.06480243
0.07568606
0.08573039
0.09902903
0.002356677
0.004276327
0.005763022
0.01032132
0.008249743
0.01430436
0.01339892
0.01868666
0.0205329
0.02560377
0.03008321
0.03619192
0.04270577
0.05013596
0.05773324
0.06651463
0.07367433
0.08437577
0.08790003
0.1060327
0.002604767
0.004408342
0.00780312
0.0127569
0.01142874
0.0179059
0.01756353
0.02309881
0.02522262
0.03027613
0.034563
0.04018593
0.04615328
0.05288328
0.06017314
0.06815868
0.07564841
0.08424559
0.08830636
0.09716134
0.002461971
0.005580191
0.009294504
0.01470521
0.01426379
0.02103223
0.02123143
0.02696341
0.02941684
0.03460159
0.03897942
0.04461604
0.05034014
0.05691807
0.06301329
0.07086532
0.0742721
0.0838156
0.07742806
0.09667631
-0.02083249
-0.0001097386
-0.02912654
-0.02212079
-0.05065633
-0.05086192
-0.06183275
-0.06521875
-0.07502483
-0.07920653
-0.08778895
-0.09087905
-0.1008812
-0.0976
0.009986883
0.001811548
-0.01742592
-0.0277937
-0.04241802
-0.04950374
-0.06088222
-0.06706628
-0.07629038
-0.08329907
-0.09012249
-0.09844045
-0.1027684
-0.1081702
-0.01141394
0.00533149
-0.03366342
-0.02607739
-0.04779942
-0.05108988
-0.06470528
-0.06874659
-0.08003189
-0.08717163
-0.0977284
-0.1087681
-0.1168723
-0.1283315
-0.01326691
-0.011606
-0.03068929
-0.03355581
-0.04776883
-0.05330288
-0.06490392
-0.07266375
-0.0840851
-0.09501958
-0.1068927
-0.1229275
-0.132325
-0.1475914
-0.009377651
0.0004447041
-0.02682514
-0.02292417
-0.05005313
-0.05312676
-0.06676087
-0.07412007
-0.08746563
-0.1022804
-0.1159258
-0.1431471
-0.1532765
-0.1870145
-0.01367174
-0.004119534
-0.03154577
-0.03429666
-0.04879113
-0.0547299
-0.0682633
-0.07824571
-0.09586083
-0.1127635
-0.1378301
-0.1712083
-0.1940754
-0.2515743
-0.008734032
-0.00190309
-0.02423616
-0.02278301
-0.04801404
-0.05150596
-0.06547781
-0.07544487
-0.09173627
-0.1133356
-0.1349701
-0.1866633
-0.2205419
-0.3600534
-0.009711712
0.0006724739
-0.03173201
-0.03207854
-0.04553652
-0.05138094
-0.06682666
-0.07820704
-0.1040741
-0.127011
-0.1815956
-0.2480818
-0.3679451
-0.4181629
-0.00970084
-0.001667974
-0.02356691
-0.02138889
-0.04131318
-0.04404895
-0.05787685
-0.06678285
-0.08271067
-0.1043245
-0.1290601
-0.1967931
-0.2613656
-0.6604199
0.1522379
0.1086838
0.239334
-0.007193097
0.003462579
-0.02708184
-0.02341279
-0.03726043
-0.04097514
-0.05625069
-0.06446752
-0.08976649
-0.1033522
-0.1568242
-0.1819869
-0.3012402
-0.4115609
-0.5568256
-0.2924512
-0.2336273
-0.2014395
-0.015922
-0.04491049
-0.008511333
0.000528284
-0.02179454
-0.01625599
-0.0306162
-0.03189642
-0.04307041
-0.04785025
-0.05920106
-0.0677243
-0.08156243
-0.1039237
-0.1215687
-0.2679592
-0.1823009
-0.08349355
-0.00917808
0.06996396
0.1189267
0.154673
-0.006869228
0.003417454
-0.02005684
-0.014409
-0.02680069
-0.02767651
-0.03883973
-0.04429881
-0.05838693
-0.07052686
-0.08777846
-0.1136516
-0.1231787
-0.1651217
-0.1524878
-0.1033565
-0.0758286
-0.05223997
0.002547709
0.01783914
-0.007847487
0.003029869
-0.01485425
-0.008274961
-0.01996484
-0.01860787
-0.02622818
-0.02742672
-0.03237985
-0.03565245
-0.03767984
-0.04517273
-0.03771203
-0.073638
-0.01191376
0.007938049
0.05034931
0.09229792
0.1313109
0.1626278
-0.006426579
0.004806111
-0.01233859
-0.004747222
-0.01531794
-0.0131741
-0.01997647
-0.02084988
-0.02519308
-0.02800081
-0.02848668
-0.03728634
-0.02864968
-0.05485851
-0.03234093
-0.02485762
-0.003753493
0.01106252
0.0362863
0.05720471
-0.005923552
0.005572282
-0.008887431
-0.0003991904
-0.009509211
-0.005644173
-0.01028408
-0.008459162
-0.009577041
-0.00804543
-0.005645102
-0.002253778
0.004495302
0.01065865
0.03193173
0.04918217
0.0717952
0.09697718
0.1222825
0.1481407
-0.004837755
0.006679092
-0.006086744
0.003166497
-0.004903322
-0.0002523559
-0.004058555
-0.001768277
-0.002568335
-0.001205931
0.0009791631
0.002242311
0.005870215
0.005342611
0.01867415
0.02602042
0.04023875
0.05362889
0.06983178
0.08768015
-0.00370782
0.007365075
-0.003344421
0.006764856
-0.0001246759
0.00560888
0.003192504
0.00705245
0.008142522
0.01231717
0.01686922
0.02453244
0.03208252
0.04216716
0.05035461
0.06168694
0.07501776
0.09081561
0.1053491
0.1255448
-0.003066812
0.01032314
-0.000927593
0.01021366
0.003948335
0.01032442
0.008581709
0.01281077
0.01412094
0.01798602
0.02170895
0.02636757
0.0320919
0.03786105
0.04620763
0.05471505
0.06487014
0.07595651
0.08641134
0.1001069
-0.002099743
0.01206208
0.001404768
0.01337963
0.007879311
0.0148091
0.01387232
0.01873705
0.02087836
0.02565898
0.03025958
0.03628818
0.04280404
0.05022291
0.05791039
0.06674542
0.07436126
0.08517974
0.08905753
0.1082156
-0.001008848
0.01417887
0.003438797
0.01615417
0.01130591
0.01852628
0.01813812
0.02317797
0.0255648
0.03030156
0.03467622
0.04016693
0.0461347
0.05277982
0.06016779
0.06806531
0.07611266
0.08451099
0.09035758
0.09685619
-3.0186e-05
0.01766942
0.005170633
0.01873493
0.01451372
0.02181071
0.02194783
0.02708877
0.02978154
0.03463477
0.03909404
0.04461915
0.05035603
0.05686975
0.06321063
0.071005
0.0759758
0.08613608
0.08630962
0.1032366
-0.02277479
-0.001684503
-0.03101883
-0.02797401
-0.04447821
-0.04598826
-0.06410607
-0.06649431
-0.07614124
-0.07870155
-0.09250226
-0.09434275
-0.1002771
-0.09547402
0.01106743
-0.002857878
-0.01656492
-0.02806585
-0.04132527
-0.04852957
-0.06017116
-0.06661166
-0.0752698
-0.08251877
-0.08790494
-0.09681713
-0.09943275
-0.1071735
-0.01098796
-0.003675772
-0.02175534
-0.02007029
-0.04857865
-0.05065291
-0.06528905
-0.06908469
-0.08020226
-0.08719117
-0.09789779
-0.1085952
-0.1153821
-0.1262804
-0.005523045
-0.01145318
-0.02280956
-0.03285629
-0.0447876
-0.05204723
-0.0633624
-0.0714765
-0.08227563
-0.09335018
-0.1038798
-0.1200522
-0.1274796
-0.14302
-0.00578123
-0.005546376
-0.0202155
-0.02318838
-0.04591925
-0.05045501
-0.06409291
-0.07265908
-0.0853644
-0.1002171
-0.1122817
-0.1387906
-0.1460701
-0.1788891
-0.005503898
-0.01161036
-0.02429242
-0.03067927
-0.04447635
-0.05210012
-0.06589461
-0.07645845
-0.09336666
-0.1102404
-0.1329132
-0.1662341
-0.1804656
-0.240685
-0.004300859
-0.008247858
-0.02038702
-0.02535022
-0.0411538
-0.04795016
-0.06191482
-0.07297897
-0.08786063
-0.108126
-0.124996
-0.1701711
-0.1927107
-0.3223407
-0.004909564
-0.01051483
-0.02250542
-0.02791322
-0.04120252
-0.04868016
-0.06425538
-0.07635016
-0.1014584
-0.1246927
-0.1764226
-0.2524826
-0.331513
-0.3499655
-0.003824634
-0.008556718
-0.0185013
-0.02312567
-0.03583053
-0.04184828
-0.05445916
-0.06397993
-0.07720893
-0.09455873
-0.107226
-0.1465512
-0.1756552
-0.3060842
-0.0049527
0.06056178
0.1063125
-0.003713613
-0.008724198
-0.01862065
-0.02262745
-0.03415169
-0.03988696
-0.05429777
-0.06328592
-0.08756321
-0.1015103
-0.1521668
-0.1775837
-0.2817373
-0.3532111
-0.5999654
-0.2871855
-0.2013788
-0.1280739
-0.03829111
0.01396786
-0.003230977
-0.006985902
-0.01478864
-0.01781586
-0.02795986
-0.03143609
-0.04139788
-0.0465793
-0.05668162
-0.06384231
-0.07478174
-0.09043466
-0.1047953
-0.2682899
-0.1917034
-0.07882539
-0.008143892
0.06287477
0.114524
0.1489384
-0.002768137
-0.005725704
-0.01334403
-0.01532299
-0.02436435
-0.02763124
-0.03775545
-0.04400594
-0.05793817
-0.0703742
-0.08876934
-0.1123918
-0.1252476
-0.1756641
-0.1664242
-0.1048369
-0.07656254
-0.04730676
-0.0112046
0.01701387
-0.002430452
-0.004201758
-0.01006717
-0.01093552
-0.01804347
-0.01909835
-0.02532821
-0.0271247
-0.03138081
-0.03459382
-0.03607181
-0.04541826
-0.03302555
-0.07697257
-0.00312634
0.01233321
0.05513551
0.09431411
0.1331195
0.1631174
-0.002031752
-0.002716837
-0.007712259
-0.007619343
-0.01363323
-0.01395824
-0.01934596
-0.0209476
-0.02454972
-0.02764655
-0.02769733
-0.03955248
-0.02659131
-0.05790991
-0.0309454
-0.02756035
-0.004644845
0.007098127
0.02947364
0.05015028
-0.001443027
-0.001282777
-0.004921865
-0.0036466
-0.008127826
-0.006685076
-0.009844865
-0.008694244
-0.009176094
-0.007687602
-0.004890712
-0.001012414
0.006253604
0.01129242
0.03452984
0.05183353
0.07331305
0.09669115
0.1219883
0.1471724
-0.0005401131
8.600951e-05
-0.002440806
-0.000263816
-0.003740414
-0.001491911
-0.003807612
-0.002213163
-0.00242192
-0.001229279
0.00124645
0.002232102
0.006290125
0.004232699
0.01860554
0.02457483
0.03869268
0.05064342
0.06598945
0.08278945
0.0001555292
0.00135177
-7.618845e-06
0.003105891
0.0007795903
0.004180326
0.003276149
0.006499138
0.008181403
0.01232775
0.01713797
0.02552145
0.03236594
0.04278304
0.05073827
0.06171709
0.07490041
0.09010005
0.1045165
0.124935
0.0004784871
0.002660345
0.002195221
0.006157452
0.004628723
0.008739667
0.008508831
0.01212685
0.01398177
0.01772041
0.02162997
0.02627186
0.0319457
0.03744579
0.04578328
0.05378142
0.06360364
0.07390649
0.08349621
0.09656533
0.0008988233
0.003850956
0.00420013
0.008950532
0.008230186
0.01305667
0.01362688
0.01797523
0.02065208
0.02535757
0.03016876
0.03627445
0.04278666
0.0502021
0.0578523
0.06655783
0.07400511
0.08457185
0.08795255
0.1087731
0.001160286
0.004971801
0.005974644
0.01141598
0.01134331
0.01665458
0.01772431
0.02234646
0.02523356
0.02990133
0.03445459
0.03993875
0.04592108
0.05246808
0.05977864
0.06735279
0.07503135
0.08253168
0.08653644
0.09314886
0.001543973
0.006276006
0.007563087
0.01358165
0.0140964
0.01979055
0.02131917
0.02619215
0.02936173
0.03419847
0.03884609
0.0443882
0.05020675
0.0567244
0.06305473
0.07076828
0.07524707
0.08350447
0.0821546
0.1001334
-0.02541265
-0.0005472208
-0.02606685
-0.01566753
-0.05210719
-0.05274911
-0.06176085
-0.06501123
-0.07409218
-0.07778981
-0.08550049
-0.08774602
-0.1001346
-0.09355678
0.01250939
0.002137176
-0.01562316
-0.02727706
-0.04047289
-0.04923964
-0.05964248
-0.06598303
-0.0745033
-0.08126181
-0.08717564
-0.09520031
-0.09858384
-0.1034794
-0.007311717
0.005242359
-0.02996423
-0.02193047
-0.04894848
-0.05123952
-0.06347287
-0.06746986
-0.07819297
-0.08498351
-0.09484337
-0.1055722
-0.1130531
-0.125435
-0.006361622
-0.01209486
-0.02673008
-0.03307689
-0.04522083
-0.05214953
-0.06278513
-0.07088526
-0.08129247
-0.09203813
-0.1023429
-0.1179105
-0.1250668
-0.140238
-0.004939699
-3.587192e-05
-0.02698832
-0.02636634
-0.04664845
-0.05071888
-0.06348158
-0.07167854
-0.08386779
-0.09823346
-0.1098994
-0.1356314
-0.1426156
-0.1752036
-0.009861242
-0.01124159
-0.02769587
-0.03216619
-0.04518728
-0.05240283
-0.06531681
-0.07578451
-0.09214435
-0.108577
-0.1306326
-0.163397
-0.1752433
-0.2378047
-0.00358492
-0.003710287
-0.02507196
-0.02715991
-0.04330682
-0.04825763
-0.06129966
-0.07212497
-0.08636404
-0.1060765
-0.1222309
-0.165385
-0.1867775
-0.3206783
-0.007475935
-0.007560322
-0.0262348
-0.02967318
-0.04196263
-0.04893875
-0.06358766
-0.07572101
-0.1003665
-0.1234029
-0.1746885
-0.2536096
-0.3216174
-0.3566725
-0.003803097
-0.004632755
-0.02265495
-0.02416119
-0.03728499
-0.04204316
-0.05369008
-0.0631917
-0.07579896
-0.09229484
-0.1044194
-0.1394105
-0.1593367
-0.2528934
0.1895719
0.125407
0.2937272
-0.004438105
-0.004154798
-0.0228738
-0.02393212
-0.034658
-0.0400607
-0.05363845
-0.06288218
-0.08698105
-0.1010418
-0.1524396
-0.1785703
-0.2817365
-0.3450764
-0.6362945
-0.3227414
-0.2644627
-0.2376996
-0.01659515
-0.07502133
-0.004750951
-0.004998547
-0.01840713
-0.01805844
-0.02809591
-0.03144974
-0.04061479
-0.04599612
-0.05554024
-0.06244709
-0.07301189
-0.08857546
-0.1035321
-0.2733103
-0.2031727
-0.08105634
-0.01110712
0.07700933
0.132779
0.1651857
-0.004091663
-0.002832216
-0.0163166
-0.01562518
-0.02448301
-0.02764579
-0.0371596
-0.04383182
-0.0577825
-0.0706391
-0.08997428
-0.1136206
-0.1290797
-0.1831609
-0.1795652
-0.1172097
-0.09384055
-0.07123218
-0.009458896
0.0003272549
-0.005096587
-0.002284026
-0.01157757
-0.01051679
-0.01788166
-0.01898422
-0.02466697
-0.02680789
-0.03071881
-0.0341309
-0.0356149
-0.04644301
-0.03328556
-0.07985635
-0.004515288
0.0106035
0.05440505
0.09634177
0.1390017
0.1673498
-0.003402005
7.584307e-06
-0.008960013
-0.006944811
-0.01338502
-0.01381976
-0.01873627
-0.02078373
-0.02405219
-0.0274873
-0.027468
-0.04140498
-0.02727058
-0.06053491
-0.03355359
-0.0311009
-0.008249773
0.003357937
0.03032176
0.04905975
-0.003153383
0.001226575
-0.005903593
-0.002845785
-0.007810909
-0.006524077
-0.009254736
-0.008538803
-0.008744527
-0.007438436
-0.004680499
-0.0006146218
0.006279787
0.01120879
0.03451132
0.05297003
0.07427394
0.0990196
0.1257588
0.1509128
-0.002119098
0.002777544
-0.003271053
0.0006382309
-0.003368567
-0.001322831
-0.003235555
-0.002093462
-0.002039894
-0.001063718
0.001452257
0.00257236
0.006457565
0.003649707
0.01781837
0.02404496
0.03826677
0.0507212
0.06708902
0.08413099
-0.001600312
0.004222947
-0.0007131378
0.00415531
0.001214802
0.004372895
0.003839746
0.006612091
0.008543435
0.0124879
0.01734352
0.02579879
0.03270704
0.04295927
0.05098676
0.06237835
0.07581986
0.09162217
0.1067032
0.1273088
-0.00079397
0.006208868
0.001661321
0.007400972
0.005154678
0.008970668
0.009080698
0.01223075
0.01430578
0.01780581
0.02174625
0.02629522
0.03192986
0.0373025
0.0456481
0.05373816
0.06379501
0.07435993
0.0846538
0.09787422
0.000243152
0.008222822
0.003974903
0.01049849
0.008906083
0.01335451
0.01422363
0.01808847
0.02097183
0.02544741
0.03029874
0.03633917
0.04284345
0.0502223
0.057924
0.06668004
0.07448005
0.08526944
0.08924478
0.1091941