/*--------------------------------*- C++ -*----------------------------------*\
  =========                 |
  \\      /  F ield         | OpenFOAM: The Open Source CFD Toolbox
   \\    /   O peration     | Website:  https://openfoam.org
    \\  /    A nd           | Version:  7
     \\/     M anipulation  |
\*---------------------------------------------------------------------------*/
FoamFile
{
    version     2.0;
    format      ascii;
    class       volScalarField;
    location    "0.03";
    object      epsilon;
}
// * * * * * * * * * * * * * * * * * * * * * * * * * * * * * * * * * * * * * //

dimensions      [0 2 -3 0 0 0 0];

internalField   nonuniform List<scalar> 
105056
(
0.001913295
0.001966692
0.001971564
0.001972216
0.001972225
0.001966682
0.002069782
0.0020803
0.002081662
0.002081599
0.001971567
0.002080333
0.002092356
0.002094037
0.002093945
0.001972286
0.002081851
0.002094239
0.002096048
0.002095946
0.001972581
0.002082324
0.002094815
0.002096668
0.00209656
0.001972797
0.002082601
0.002095129
0.002096994
0.002096879
0.001972995
0.002082829
0.002095374
0.00209724
0.002097118
0.001973189
0.002083051
0.002095599
0.002097457
0.002097326
0.001973385
0.002083272
0.002095818
0.00209767
0.002097531
0.001973583
0.002083495
0.002096034
0.002097884
0.002097737
0.001973783
0.00208372
0.002096254
0.0020981
0.002097946
0.001973985
0.002083947
0.002096475
0.002098319
0.002098159
0.001974189
0.002084177
0.002096698
0.00209854
0.002098375
0.001974394
0.002084409
0.002096926
0.002098765
0.002098596
0.001974601
0.002084644
0.002097156
0.002098996
0.00209882
0.001974809
0.002084881
0.002097391
0.002099223
0.002099046
0.001975018
0.00208512
0.00209763
0.002099451
0.002099275
0.001975229
0.00208536
0.002097866
0.002099679
0.002099507
0.001975439
0.002085593
0.002098094
0.002099898
0.002099723
0.001975643
0.002085802
0.002098286
0.002100075
0.002099892
0.001975801
0.002085899
0.002098329
0.002100087
0.002099896
0.001975756
0.002085606
0.002097887
0.00209958
0.002099398
0.01180373
0.00208468
0.002096721
0.002098315
0.002098173
0.002099277
0.002101689
0.002101721
0.002101875
0.002102053
0.002099326
0.01181358
0.01181359
0.01181362
0.01181364
0.01181367
0.002101698
0.01181361
0.01181362
0.01181365
0.01181367
0.0118137
0.002101734
0.01181365
0.01181366
0.01181368
0.01181371
0.01181373
0.002101892
0.01181368
0.0118137
0.01181372
0.01181374
0.01181377
0.002102107
0.01181372
0.01181373
0.01181376
0.01181378
0.0118138
0.002102331
0.01181375
0.01181377
0.01181379
0.01181381
0.01181384
0.002102558
0.01181379
0.0118138
0.01181383
0.01181385
0.01181387
0.002102783
0.01181383
0.01181384
0.01181386
0.01181389
0.01181391
0.00210301
0.01181386
0.01181388
0.0118139
0.01181392
0.01181395
0.002103235
0.0118139
0.01181391
0.01181394
0.01181396
0.01181398
0.002103465
0.01181394
0.01181395
0.01181398
0.011814
0.01181402
0.002103696
0.01181398
0.01181399
0.01181401
0.01181404
0.01181406
0.002103929
0.01181402
0.01181403
0.01181405
0.01181408
0.0118141
0.002104164
0.01181405
0.01181407
0.01181409
0.01181412
0.01181414
0.002104401
0.01181409
0.01181411
0.01181413
0.01181415
0.01181418
0.00210464
0.01181413
0.01181415
0.01181417
0.01181419
0.01181422
0.002104882
0.01181418
0.01181419
0.01181421
0.01181423
0.01181426
0.002105126
0.01181422
0.01181423
0.01181425
0.01181428
0.0118143
0.002105373
0.01181426
0.01181427
0.01181429
0.01181432
0.01181434
0.002105622
0.0118143
0.01181431
0.01181433
0.01181436
0.01181438
0.002105873
0.01181434
0.01181435
0.01181438
0.0118144
0.01181443
0.002106109
0.01181439
0.01181439
0.01181442
0.01181444
0.01181447
0.002105886
0.01181443
0.01181444
0.01181446
0.01181449
0.01181451
0.002095642
0.002100659
0.002100493
0.002100528
0.00210074
0.002095648
0.01181357
0.01181359
0.01181361
0.01181364
0.01181366
0.002100663
0.01181361
0.01181362
0.01181364
0.01181367
0.01181369
0.002100499
0.01181364
0.01181366
0.01181368
0.0118137
0.01181373
0.002100524
0.01181368
0.01181369
0.01181371
0.01181374
0.01181376
0.002100711
0.01181371
0.01181373
0.01181375
0.01181377
0.0118138
0.002100928
0.01181375
0.01181376
0.01181378
0.01181381
0.01181383
0.002101151
0.01181378
0.0118138
0.01181382
0.01181384
0.01181387
0.002101377
0.01181382
0.01181383
0.01181386
0.01181388
0.0118139
0.002101606
0.01181385
0.01181387
0.01181389
0.01181391
0.01181394
0.002101836
0.01181389
0.0118139
0.01181393
0.01181395
0.01181397
0.002102069
0.01181393
0.01181394
0.01181396
0.01181399
0.01181401
0.002102302
0.01181396
0.01181398
0.011814
0.01181402
0.01181405
0.002102538
0.011814
0.01181401
0.01181404
0.01181406
0.01181409
0.002102777
0.01181404
0.01181405
0.01181408
0.0118141
0.01181412
0.002103019
0.01181408
0.01181409
0.01181411
0.01181414
0.01181416
0.002103262
0.01181411
0.01181413
0.01181415
0.01181418
0.0118142
0.002103507
0.01181415
0.01181417
0.01181419
0.01181422
0.01181424
0.002103755
0.01181419
0.01181421
0.01181423
0.01181426
0.01181428
0.002104007
0.01181423
0.01181425
0.01181427
0.0118143
0.01181432
0.002104264
0.01181427
0.01181429
0.01181431
0.01181434
0.01181436
0.002104531
0.01181432
0.01181433
0.01181435
0.01181438
0.01181441
0.002104824
0.01181436
0.01181437
0.0118144
0.01181442
0.01181445
0.002105122
0.0118144
0.01181441
0.01181444
0.01181446
0.01181449
0.002095173
0.002100023
0.002099783
0.002099767
0.002099997
0.002095169
0.01181357
0.01181359
0.01181361
0.01181363
0.01181366
0.002100027
0.01181361
0.01181362
0.01181365
0.01181367
0.01181369
0.002099784
0.01181364
0.01181366
0.01181368
0.0118137
0.01181373
0.002099748
0.01181368
0.01181369
0.01181371
0.01181374
0.01181376
0.002099909
0.01181371
0.01181373
0.01181375
0.01181377
0.0118138
0.002100118
0.01181375
0.01181376
0.01181378
0.01181381
0.01181383
0.002100341
0.01181378
0.0118138
0.01181382
0.01181384
0.01181387
0.002100568
0.01181382
0.01181383
0.01181386
0.01181388
0.0118139
0.002100797
0.01181385
0.01181387
0.01181389
0.01181391
0.01181394
0.002101027
0.01181389
0.0118139
0.01181393
0.01181395
0.01181397
0.002101258
0.01181393
0.01181394
0.01181396
0.01181399
0.01181401
0.002101493
0.01181396
0.01181398
0.011814
0.01181402
0.01181405
0.00210173
0.011814
0.01181401
0.01181404
0.01181406
0.01181409
0.002101969
0.01181404
0.01181405
0.01181408
0.0118141
0.01181412
0.00210221
0.01181408
0.01181409
0.01181411
0.01181414
0.01181416
0.002102455
0.01181411
0.01181413
0.01181415
0.01181418
0.0118142
0.0021027
0.01181415
0.01181417
0.01181419
0.01181422
0.01181424
0.00210295
0.01181419
0.01181421
0.01181423
0.01181426
0.01181428
0.002103202
0.01181423
0.01181425
0.01181427
0.0118143
0.01181432
0.002103461
0.01181427
0.01181429
0.01181431
0.01181434
0.01181436
0.002103741
0.01181431
0.01181433
0.01181435
0.01181438
0.01181441
0.002104072
0.01181436
0.01181437
0.0118144
0.01181442
0.01181445
0.002104473
0.0118144
0.01181441
0.01181444
0.01181446
0.01181449
0.002095066
0.002099842
0.00209956
0.00209953
0.002099761
0.002095088
0.01181357
0.01181359
0.01181361
0.01181363
0.01181366
0.002099844
0.01181361
0.01181362
0.01181364
0.01181367
0.01181369
0.002099559
0.01181364
0.01181366
0.01181368
0.0118137
0.01181373
0.002099501
0.01181368
0.01181369
0.01181371
0.01181374
0.01181376
0.002099654
0.01181371
0.01181373
0.01181375
0.01181377
0.0118138
0.002099856
0.01181375
0.01181376
0.01181378
0.01181381
0.01181383
0.00210008
0.01181378
0.0118138
0.01181382
0.01181384
0.01181387
0.002100303
0.01181382
0.01181383
0.01181385
0.01181388
0.0118139
0.002100532
0.01181385
0.01181387
0.01181389
0.01181391
0.01181394
0.002100762
0.01181389
0.0118139
0.01181393
0.01181395
0.01181397
0.002100993
0.01181393
0.01181394
0.01181396
0.01181399
0.01181401
0.002101228
0.01181396
0.01181398
0.011814
0.01181402
0.01181405
0.002101465
0.011814
0.01181401
0.01181404
0.01181406
0.01181409
0.002101705
0.01181404
0.01181405
0.01181408
0.0118141
0.01181412
0.002101946
0.01181407
0.01181409
0.01181411
0.01181414
0.01181416
0.002102189
0.01181411
0.01181413
0.01181415
0.01181418
0.0118142
0.002102434
0.01181415
0.01181417
0.01181419
0.01181422
0.01181424
0.002102683
0.01181419
0.01181421
0.01181423
0.01181426
0.01181428
0.002102936
0.01181423
0.01181425
0.01181427
0.0118143
0.01181432
0.002103199
0.01181427
0.01181429
0.01181431
0.01181434
0.01181436
0.002103482
0.01181431
0.01181433
0.01181435
0.01181438
0.01181441
0.002103826
0.01181436
0.01181437
0.0118144
0.01181442
0.01181445
0.002104255
0.0118144
0.01181441
0.01181444
0.01181446
0.01181449
0.002095089
0.002099834
0.002099549
0.002099522
0.002099753
0.002095075
0.01181357
0.01181359
0.01181361
0.01181363
0.01181366
0.002099834
0.01181361
0.01181362
0.01181364
0.01181367
0.01181369
0.002099549
0.01181364
0.01181366
0.01181368
0.0118137
0.01181373
0.002099491
0.01181368
0.01181369
0.01181371
0.01181374
0.01181376
0.002099641
0.01181371
0.01181373
0.01181375
0.01181377
0.0118138
0.002099844
0.01181375
0.01181376
0.01181378
0.01181381
0.01181383
0.002100069
0.01181378
0.0118138
0.01181382
0.01181384
0.01181387
0.002100292
0.01181382
0.01181383
0.01181386
0.01181388
0.0118139
0.002100521
0.01181385
0.01181387
0.01181389
0.01181391
0.01181394
0.00210075
0.01181389
0.0118139
0.01181393
0.01181395
0.01181397
0.002100981
0.01181393
0.01181394
0.01181396
0.01181399
0.01181401
0.002101216
0.01181396
0.01181398
0.011814
0.01181402
0.01181405
0.002101453
0.011814
0.01181401
0.01181404
0.01181406
0.01181409
0.002101692
0.01181404
0.01181405
0.01181408
0.0118141
0.01181412
0.002101933
0.01181407
0.01181409
0.01181411
0.01181414
0.01181416
0.002102176
0.01181411
0.01181413
0.01181415
0.01181418
0.0118142
0.002102422
0.01181415
0.01181417
0.01181419
0.01181422
0.01181424
0.00210267
0.01181419
0.01181421
0.01181423
0.01181426
0.01181428
0.002102924
0.01181423
0.01181425
0.01181427
0.0118143
0.01181432
0.002103185
0.01181427
0.01181429
0.01181431
0.01181434
0.01181436
0.002103469
0.01181431
0.01181433
0.01181435
0.01181438
0.01181441
0.002103816
0.01181436
0.01181437
0.0118144
0.01181442
0.01181445
0.002104246
0.0118144
0.01181441
0.01181444
0.01181446
0.01181449
0.002095094
0.002099916
0.002099659
0.002099637
0.002099873
0.002095112
0.01181357
0.01181359
0.01181361
0.01181363
0.01181366
0.002099916
0.01181361
0.01181362
0.01181365
0.01181367
0.01181369
0.002099658
0.01181364
0.01181366
0.01181368
0.0118137
0.01181373
0.002099616
0.01181368
0.01181369
0.01181371
0.01181374
0.01181376
0.002099775
0.01181371
0.01181373
0.01181375
0.01181377
0.0118138
0.002099981
0.01181375
0.01181376
0.01181378
0.01181381
0.01181383
0.002100205
0.01181378
0.0118138
0.01181382
0.01181384
0.01181387
0.002100432
0.01181382
0.01181383
0.01181386
0.01181388
0.0118139
0.002100663
0.01181385
0.01181387
0.01181389
0.01181391
0.01181394
0.00210089
0.01181389
0.0118139
0.01181393
0.01181395
0.01181397
0.00210112
0.01181393
0.01181394
0.01181396
0.01181399
0.01181401
0.002101356
0.01181396
0.01181398
0.011814
0.01181402
0.01181405
0.002101593
0.011814
0.01181402
0.01181404
0.01181406
0.01181409
0.002101832
0.01181404
0.01181405
0.01181408
0.0118141
0.01181412
0.002102073
0.01181408
0.01181409
0.01181412
0.01181414
0.01181416
0.002102317
0.01181411
0.01181413
0.01181415
0.01181418
0.0118142
0.002102565
0.01181415
0.01181417
0.01181419
0.01181422
0.01181424
0.002102814
0.01181419
0.01181421
0.01181423
0.01181426
0.01181428
0.002103067
0.01181423
0.01181425
0.01181427
0.0118143
0.01181432
0.002103327
0.01181427
0.01181429
0.01181431
0.01181434
0.01181436
0.002103606
0.01181431
0.01181433
0.01181436
0.01181438
0.01181441
0.002103946
0.01181436
0.01181437
0.0118144
0.01181442
0.01181445
0.002104364
0.0118144
0.01181441
0.01181444
0.01181447
0.01181449
0.002095383
0.002100446
0.002100287
0.002100301
0.002100525
0.002095386
0.01181357
0.01181359
0.01181361
0.01181364
0.01181366
0.002100449
0.01181361
0.01181362
0.01181364
0.01181367
0.01181369
0.002100285
0.01181364
0.01181366
0.01181368
0.0118137
0.01181373
0.002100288
0.01181368
0.01181369
0.01181371
0.01181374
0.01181376
0.002100467
0.01181371
0.01181373
0.01181375
0.01181377
0.0118138
0.002100685
0.01181375
0.01181376
0.01181378
0.01181381
0.01181383
0.002100908
0.01181378
0.0118138
0.01181382
0.01181384
0.01181387
0.002101136
0.01181382
0.01181383
0.01181386
0.01181388
0.0118139
0.002101366
0.01181385
0.01181387
0.01181389
0.01181391
0.01181394
0.002101597
0.01181389
0.0118139
0.01181393
0.01181395
0.01181397
0.00210183
0.01181393
0.01181394
0.01181396
0.01181399
0.01181401
0.002102065
0.01181396
0.01181398
0.011814
0.01181402
0.01181405
0.002102302
0.011814
0.01181402
0.01181404
0.01181406
0.01181409
0.002102541
0.01181404
0.01181405
0.01181408
0.0118141
0.01181412
0.002102783
0.01181408
0.01181409
0.01181412
0.01181414
0.01181416
0.002103027
0.01181411
0.01181413
0.01181415
0.01181418
0.0118142
0.002103271
0.01181415
0.01181417
0.01181419
0.01181422
0.01181424
0.002103519
0.01181419
0.01181421
0.01181423
0.01181426
0.01181428
0.002103774
0.01181423
0.01181425
0.01181427
0.0118143
0.01181432
0.00210403
0.01181428
0.01181429
0.01181431
0.01181434
0.01181436
0.002104303
0.01181432
0.01181433
0.01181436
0.01181438
0.01181441
0.002104616
0.01181436
0.01181437
0.0118144
0.01181442
0.01181445
0.002104974
0.0118144
0.01181441
0.01181444
0.01181447
0.01181449
0.002094323
0.002097579
0.002097419
0.002097513
0.002097706
0.002094295
0.01181358
0.01181359
0.01181362
0.01181364
0.01181366
0.002097584
0.01181361
0.01181362
0.01181365
0.01181367
0.0118137
0.002097429
0.01181365
0.01181366
0.01181368
0.01181371
0.01181373
0.002097521
0.01181368
0.0118137
0.01181372
0.01181374
0.01181377
0.002097725
0.01181372
0.01181373
0.01181375
0.01181378
0.0118138
0.002097943
0.01181375
0.01181377
0.01181379
0.01181381
0.01181384
0.002098166
0.01181379
0.0118138
0.01181383
0.01181385
0.01181387
0.002098391
0.01181383
0.01181384
0.01181386
0.01181389
0.01181391
0.002098616
0.01181386
0.01181388
0.0118139
0.01181392
0.01181395
0.002098845
0.0118139
0.01181391
0.01181394
0.01181396
0.01181398
0.002099076
0.01181394
0.01181395
0.01181398
0.011814
0.01181402
0.002099308
0.01181398
0.01181399
0.01181401
0.01181404
0.01181406
0.002099542
0.01181402
0.01181403
0.01181405
0.01181408
0.0118141
0.002099776
0.01181405
0.01181407
0.01181409
0.01181411
0.01181414
0.002100013
0.01181409
0.01181411
0.01181413
0.01181415
0.01181418
0.002100255
0.01181413
0.01181415
0.01181417
0.01181419
0.01181422
0.002100497
0.01181417
0.01181419
0.01181421
0.01181423
0.01181426
0.002100742
0.01181422
0.01181423
0.01181425
0.01181428
0.0118143
0.002100988
0.01181426
0.01181427
0.01181429
0.01181432
0.01181434
0.002101241
0.0118143
0.01181431
0.01181433
0.01181436
0.01181438
0.002101496
0.01181434
0.01181435
0.01181438
0.0118144
0.01181443
0.002101755
0.01181439
0.01181439
0.01181442
0.01181444
0.01181447
0.002105888
0.01181443
0.01181443
0.01181446
0.01181449
0.01181451
0.005846182
0.0059234
0.005926989
0.005929477
0.005931932
0.005846295
0.01181092
0.0118109
0.0118106
0.01181035
0.01181009
0.005923477
0.01181104
0.0118112
0.01181087
0.0118107
0.01181054
0.005927059
0.01181111
0.01181127
0.01181132
0.01181113
0.01181097
0.005929592
0.01181118
0.01181134
0.0118114
0.01181144
0.01181125
0.005932109
0.01181125
0.01181141
0.01181147
0.01181153
0.01181157
0.005934652
0.01181132
0.01181148
0.01181154
0.0118116
0.01181166
0.00593718
0.01181139
0.01181155
0.01181161
0.01181167
0.01181173
0.005939708
0.01181146
0.01181163
0.01181168
0.01181174
0.0118118
0.005942215
0.01181153
0.0118117
0.01181175
0.01181181
0.01181188
0.005944721
0.01181161
0.01181177
0.01181182
0.01181189
0.01181195
0.005947258
0.01181168
0.01181185
0.0118119
0.01181196
0.01181202
0.005949829
0.01181175
0.01181192
0.01181197
0.01181203
0.0118121
0.005952418
0.01181182
0.01181199
0.01181205
0.01181211
0.01181217
0.005954991
0.01181189
0.01181207
0.01181212
0.01181218
0.01181225
0.005957622
0.01181197
0.01181215
0.0118122
0.01181226
0.01181232
0.005960286
0.01181204
0.01181222
0.01181227
0.01181234
0.0118124
0.005962969
0.01181212
0.0118123
0.01181235
0.01181241
0.01181248
0.005965665
0.01181219
0.01181238
0.01181243
0.01181249
0.01181255
0.005968394
0.01181227
0.01181246
0.01181251
0.01181257
0.01181263
0.005971122
0.01181234
0.01181254
0.01181259
0.01181265
0.01181271
0.005973917
0.01181242
0.01181262
0.01181267
0.01181273
0.0118128
0.005976657
0.0118125
0.0118127
0.01181275
0.01181282
0.01181288
0.005979048
0.00197461
0.01181279
0.01181284
0.0118129
0.01181297
0.004104476
0.006579931
0.006580622
0.01181359
0.00407856
0.00423657
0.005846164
0.005922222
0.01181361
0.01181364
0.00424053
0.004245233
0.00592341
0.005926466
0.01181366
0.0118137
0.004245194
0.004246742
0.00592696
0.005928834
0.01181371
0.01181375
0.004246553
0.004247825
0.005929442
0.005931238
0.01181376
0.01181381
0.004247574
0.005931883
0.01181381
0.005836569
0.005836938
0.01181358
0.00590171
0.005901958
0.01181358
0.005902035
0.005902255
0.01181358
0.005902905
0.005902681
0.01181358
0.005902716
0.005902707
0.01181358
0.005902799
0.005902527
0.01181358
0.005902536
0.005902668
0.01181358
0.005902864
0.005902423
0.01181358
0.005902828
0.005902482
0.01181358
0.005902854
0.005902464
0.01181358
0.005902667
0.005902625
0.01181358
0.005902384
0.005902846
0.01181358
0.005902677
0.005902798
0.01181358
0.005902416
0.005901918
0.01181358
0.005902116
0.005901566
0.01181358
0.005836615
0.005836933
0.01181358
0.006579997
0.006580574
0.01181359
0.004104462
0.005926468
0.01181368
0.0118137
0.004240581
0.004245236
0.005928843
0.01181369
0.01181375
0.004245184
0.004246719
0.005931244
0.01181374
0.01181381
0.004246541
0.004247802
0.01181379
0.004247564
0.01181363
0.005922171
0.01181367
0.004078528
0.004236545
0.0118137
0.005926416
0.01181375
0.004240526
0.004245227
0.01181377
0.005928782
0.01181382
0.00424518
0.004246749
0.01181384
0.005931237
0.0118139
0.004246588
0.004247947
0.01181391
0.005933706
0.01181397
0.004247753
0.004249114
0.01181399
0.005936204
0.01181405
0.004248932
0.004250295
0.01181406
0.005938721
0.01181413
0.004250125
0.004251465
0.01181414
0.00594125
0.01181421
0.004251309
0.004252635
0.01181422
0.005943787
0.01181429
0.004252472
0.004253787
0.01181429
0.00594632
0.01181437
0.004253627
0.004254952
0.01181437
0.005948883
0.01181445
0.004254782
0.004256127
0.0118147
0.005959289
0.01181479
0.004259508
0.004260951
0.01181479
0.005961958
0.01181488
0.004260697
0.004262181
0.01181487
0.005964655
0.01181496
0.004261912
0.004263435
0.01181496
0.005967384
0.01181505
0.004263137
0.004264694
0.01181505
0.005970123
0.01181514
0.004264375
0.004265948
0.01181541
0.005978807
0.01181552
0.004268431
0.01179758
0.01180928
0.008446468
0.01181204
0.008582729
0.01181198
0.008598687
0.004078544
0.004236557
0.005846295
0.01181363
0.005922193
0.01181367
0.004240522
0.004245226
0.005923465
0.0118137
0.005926445
0.01181375
0.004245195
0.004246766
0.005927054
0.01181377
0.005928823
0.01181382
0.004246581
0.004247961
0.005929582
0.01181384
0.005931282
0.0118139
0.00424777
0.004249118
0.005932101
0.01181391
0.00593377
0.01181397
0.004248935
0.004250279
0.005934639
0.01181399
0.005936275
0.01181405
0.004250106
0.00425145
0.005937172
0.01181406
0.00593879
0.01181413
0.004251292
0.004252621
0.005939691
0.01181414
0.005941327
0.01181421
0.004252457
0.004253774
0.005942201
0.01181422
0.005943865
0.01181429
0.004253612
0.004254938
0.005944705
0.0118143
0.005946405
0.01181437
0.004254771
0.004256113
0.005947244
0.01181438
0.005948959
0.01181445
0.004255933
0.004257303
0.00594981
0.01181446
0.005951549
0.01181454
0.004257101
0.004258497
0.005952392
0.01181454
0.00595414
0.01181462
0.004258283
0.004259707
0.005954992
0.01181462
0.005956761
0.0118147
0.004259476
0.004260933
0.005957627
0.0118147
0.005959399
0.01181479
0.004260681
0.004262169
0.005960278
0.01181479
0.005962072
0.01181488
0.004261894
0.00426342
0.005962955
0.01181487
0.005964765
0.01181496
0.00426312
0.004264678
0.005965651
0.01181496
0.005967496
0.01181505
0.004264357
0.004265951
0.005968378
0.01181505
0.005970249
0.01181514
0.004265602
0.004267225
0.005971122
0.01181514
0.005973034
0.01181524
0.004266844
0.00426845
0.005973893
0.01181523
0.005975821
0.01181533
0.004267998
0.004269227
0.005976667
0.01181532
0.005978465
0.01181542
0.004268425
0.0117976
0.005979067
0.01181541
0.005978799
0.01181551
0.01180926
0.01180926
0.01180925
0.01180926
0.01180925
0.01180925
0.01180927
0.01180924
0.01180926
0.01180925
0.01180926
0.01180925
0.01180925
0.01180925
0.01180926
0.01180925
0.01180932
0.01180926
0.005922194
0.01181359
0.01181364
0.00407855
0.004236594
0.01181445
0.005951473
0.01181454
0.004255946
0.004257278
0.01181454
0.005954038
0.01181462
0.004257108
0.004258519
0.01181462
0.005956643
0.01181439
0.004258309
0.00425968
0.01181513
0.005972916
0.01181524
0.004265606
0.004267209
0.01181522
0.005975689
0.01181533
0.00426683
0.004268471
0.01181531
0.005978313
0.01181493
0.004268005
0.004269207
0.01181195
0.008574415
0.01181194
0.008289972
0.01181134
0.008574462
0.01181116
0.008290428
0.01180931
0.01180925
0.0118119
0.008606184
0.01181205
0.00859989
0.01180926
0.01180924
0.01180925
0.01180924
0.01180926
0.01180923
0.01180925
0.01180925
0.01180925
0.01180923
0.01180925
0.01180924
0.01180924
0.01180924
0.01180925
0.01180925
0.01180927
0.008446108
0.01181194
0.008574362
0.01181195
0.008289632
0.01181134
0.00857455
0.01181116
0.008290494
0.01181216
0.008605191
0.01181182
0.008609093
0.01181173
0.008612642
0.01181213
0.008608735
0.01181221
0.008612367
0.01181154
0.008614837
0.01181155
0.00861828
0.01181217
0.008614593
0.01181226
0.008618072
0.01181134
0.008620222
0.01181139
0.008623843
0.01181221
0.008620134
0.01181231
0.008623597
0.01181115
0.008625529
0.01181124
0.0086254
0.01181113
0.008582879
0.01181139
0.008598603
0.01181151
0.008606058
0.01181107
0.008599942
0.01181113
0.008606047
0.01181146
0.008608955
0.01181153
0.008612475
0.01181099
0.008608826
0.01181104
0.008612533
0.01181144
0.008614684
0.01181155
0.008618135
0.01181086
0.008614807
0.01181094
0.008618311
0.01181142
0.008620113
0.01181158
0.008623775
0.01181073
0.008620445
0.01181084
0.008623964
0.01181141
0.008625532
0.01181161
0.008629347
0.01181062
0.008625957
0.01181074
0.008629576
0.01181141
0.008630983
0.01181165
0.008634908
0.01181052
0.008631514
0.01181065
0.008635148
0.01181144
0.008636454
0.0118117
0.008640516
0.01181041
0.008637044
0.01181056
0.008640752
0.01181149
0.008641964
0.01181174
0.008646131
0.01181032
0.008642564
0.01181179
0.008651821
0.01181023
0.008648086
0.01181041
0.00865205
0.01181161
0.008653066
0.01181183
0.00865754
0.01181015
0.008653621
0.01181035
0.00865772
0.01181164
0.00865868
0.01181189
0.008663294
0.01181008
0.008659194
0.01181016
0.008679864
0.01181184
0.008680786
0.01181013
0.008686478
0.01181189
0.008687444
0.01181222
0.008692756
0.01180979
0.008687558
0.01181011
0.008692338
0.01181194
0.008693353
0.0118123
0.008698807
0.01180975
0.008693356
0.01181008
0.008698247
0.011812
0.008699332
0.01181238
0.008704921
0.01180972
0.008699201
0.01181007
0.008704206
0.01181206
0.008705356
0.01181247
0.008711079
0.01180971
0.008705102
0.01181286
0.008528223
0.00872807
0.01180966
0.006739456
0.006831172
0.00708536
0.007096337
0.007083944
0.007093018
0.007060108
0.007060165
0.007080955
0.007063223
0.00707248
0.007082365
0.007063512
0.007056946
0.007069744
0.00708358
0.007064349
0.00706428
0.0070864
0.007068884
0.00709756
0.007099758
0.007083722
0.007092957
0.007068675
0.007066592
0.007061863
0.007056837
0.0070827
0.007089207
0.007076027
0.007061941
0.007098331
0.007094596
0.007077539
0.007076889
0.007078421
0.007066499
0.0067448
0.006831373
0.007708253
0.007761695
0.007717448
0.007755456
0.007710134
0.007762348
0.007718161
0.007757613
0.007731559
0.007771907
0.007730989
0.007771881
0.007733018
0.007772222
0.007773365
0.007731375
0.00772476
0.007763963
0.007765873
0.007721473
0.007727798
0.007768005
0.007768009
0.007727186
0.007729248
0.007768323
0.007769613
0.007727451
0.007735374
0.00777587
0.007775705
0.00773504
0.007739135
0.007779799
0.007779537
0.007738956
0.00774052
0.007780231
0.00778113
0.007739137
0.007742907
0.007783743
0.007742888
0.00778339
0.007744265
0.00778421
0.007784966
0.00774302
0.007746689
0.007787707
0.007787253
0.007746834
0.007748026
0.007788176
0.007788813
0.007746915
0.007750484
0.007791684
0.007750794
0.007791123
0.01181008
0.008646375
0.01181155
0.00864719
0.007758147
0.007799714
0.007798927
0.00775877
0.007759444
0.007800174
0.007800468
0.007758739
0.007762022
0.007803775
0.007802867
0.007762795
0.007763298
0.007804226
0.007804404
0.007762735
0.00776592
0.00780786
0.007766856
0.007806831
0.007779858
0.007822444
0.007781405
0.007821175
0.01181214
0.008686349
0.01180915
0.00868099
0.00778302
0.007824926
0.007824545
0.007783135
0.007798346
0.007841821
0.007800456
0.007839849
0.01180907
0.008727391
0.01181236
0.008728706
0.007812201
0.007858299
0.007855775
0.007814598
0.007136249
0.007620178
0.007495826
0.007403704
0.007140644
0.00762958
0.007517
0.007406296
0.006910028
0.007014275
0.007073663
0.007079145
0.007074011
0.007082605
0.007066261
0.007067255
0.007092059
0.00709276
0.007078617
0.007078339
0.007081654
0.007094001
0.00706774
0.007064966
0.007077152
0.007078342
0.007095526
0.007086754
0.008582559
0.01181194
0.008597772
0.01181198
0.008605308
0.01181211
0.008598964
0.01181189
0.008663401
0.0118122
0.008664411
0.01181029
0.008669521
0.008665251
0.01181195
0.01181001
0.008669473
0.008670103
0.01181025
0.01181174
0.008674129
0.008670406
0.011812
0.01180993
0.008674064
0.008675774
0.0118102
0.01181179
0.008679619
0.01180924
0.00867608
0.01181144
0.008710202
0.01181298
0.008710633
0.01181004
0.008717387
0.008710241
0.01181256
0.01180968
0.008716713
0.008718028
0.01181005
0.01181221
0.008722777
0.00871713
0.01181265
0.01180964
0.008721548
0.008722966
0.01181003
0.01181228
0.008728356
0.01180865
0.008722185
0.01181176
0.007083837
0.007054805
0.007072878
0.007078937
0.007081344
0.007088913
0.007075708
0.00707676
0.007074032
0.007083872
0.007077778
0.00707104
0.007099121
0.007098074
0.007067884
0.007067348
0.007078859
0.007071493
0.006926697
0.007047154
0.007140362
0.007617634
0.007401093
0.007495915
0.007142941
0.007631222
0.007407655
0.00751807
0.007686748
0.007702839
0.007631217
0.007740294
0.007690709
0.007711792
0.00764148
0.007745071
0.007733261
0.007773668
0.007773692
0.007732674
0.007725491
0.007765928
0.007766126
0.007724919
0.007727307
0.007766165
0.007767559
0.007725321
0.007729617
0.007769827
0.00776989
0.007728944
0.007733416
0.00777372
0.007773761
0.007732837
0.007734813
0.007774144
0.007775263
0.007733116
0.007737154
0.007777612
0.007777585
0.007736673
0.007738528
0.007778004
0.007779061
0.007736932
0.007740892
0.007781504
0.00778139
0.007740545
0.00774225
0.007781951
0.007740771
0.007782874
0.007744652
0.007785416
0.007785232
0.007744435
0.007745982
0.007785911
0.007786694
0.007744618
0.007748427
0.007789343
0.007789079
0.007748327
0.00774973
0.00778985
0.007748472
0.007790527
0.00775728
0.00779778
0.007798251
0.007756245
0.007759852
0.007801258
0.007800746
0.007760098
0.007761103
0.007801763
0.007802157
0.007760142
0.007763706
0.007805278
0.007804676
0.007764068
0.00776495
0.007805782
0.007764085
0.007806087
0.007783469
0.00782588
0.007824866
0.007784407
0.007795804
0.007838713
0.007837479
0.007797059
0.007796989
0.007839182
0.007796872
0.007838792
0.007812098
0.007856694
0.00781368
0.007855276
0.005978753
0.01181551
0.01181248
0.01181256
0.005978745
0.0118155
0.008526489
0.01181342
0.007810236
0.007858162
0.007856299
0.007812979
0.008582739
0.01181145
0.01181112
0.008598553
0.01181113
0.008606027
0.01181147
0.008608934
0.01181104
0.008612486
0.01181145
0.008614629
0.01181094
0.008618295
0.01181143
0.008620076
0.01181084
0.008623952
0.01181142
0.008625504
0.01181074
0.008629565
0.01181141
0.00863096
0.01181065
0.008635147
0.01181144
0.008636424
0.01181056
0.008640748
0.01181149
0.008641941
0.01181048
0.008646375
0.01181155
0.008647469
0.01181041
0.008652039
0.01181161
0.008653046
0.01181035
0.008657717
0.01181165
0.008658649
0.0118103
0.008663395
0.0118117
0.00866431
0.01181025
0.008669105
0.01181175
0.008670005
0.01181021
0.008674852
0.01181179
0.008675761
0.01181017
0.00868064
0.01181184
0.008681566
0.01181013
0.008686462
0.01181189
0.008687431
0.01181011
0.008692325
0.01181194
0.008693343
0.01181008
0.008698231
0.011812
0.008699318
0.01181007
0.0087042
0.01181207
0.008705342
0.01181006
0.008710195
0.01181213
0.008711426
0.01181006
0.008716244
0.0118122
0.008717551
0.01181007
0.008722315
0.01181228
0.008723714
0.01181007
0.008728265
0.01181236
0.008729261
0.007710068
0.00776238
0.007718148
0.007757434
0.007735276
0.007775796
0.007734837
0.007775715
0.007736718
0.00777611
0.007777136
0.007735226
0.007738975
0.007779661
0.007738665
0.007779513
0.007731617
0.007771943
0.007771855
0.007731128
0.007732957
0.007772325
0.007773374
0.00773139
0.007736672
0.007776266
0.007777181
0.00773527
0.007790001
0.007833087
0.007791824
0.007831338
0.007791161
0.007833444
0.00783286
0.007791533
0.007794967
0.00783777
0.007836746
0.007795796
0.01181151
0.00860593
0.01181098
0.008599902
0.01181153
0.008612257
0.01181086
0.008608865
0.01181155
0.008617933
0.01181069
0.008614777
0.01181158
0.008623552
0.01181052
0.008620407
0.01181161
0.008629098
0.01181036
0.008625925
0.01181165
0.008634638
0.01181022
0.008631485
0.01181169
0.008640221
0.01181007
0.008637023
0.01181174
0.008645814
0.01180994
0.008642538
0.01181178
0.008651482
0.01180981
0.008648048
0.01181183
0.008657178
0.01180969
0.008653593
0.01181188
0.008662912
0.01180957
0.008659173
0.01181194
0.008668689
0.01180946
0.008664759
0.011812
0.008674519
0.01180935
0.008670383
0.01181206
0.008680397
0.01180925
0.008676047
0.01181214
0.008686325
0.01180915
0.00868177
0.01181221
0.008692309
0.01180906
0.008687522
0.01181229
0.008698353
0.01180898
0.008693327
0.01181237
0.008704455
0.0118089
0.008699171
0.01181246
0.008710613
0.01180883
0.008705072
0.01181255
0.008716833
0.01180877
0.008711009
0.01181264
0.008723105
0.01180871
0.008717002
0.01181274
0.008729302
0.01180866
0.008722998
0.01180967
0.008732494
0.01181182
0.008728004
0.007763881
0.007765945
0.007721296
0.007724659
0.007811301
0.007809171
0.007767577
0.007770184
0.007811816
0.007769543