/*--------------------------------*- C++ -*----------------------------------*\
  =========                 |
  \\      /  F ield         | OpenFOAM: The Open Source CFD Toolbox
   \\    /   O peration     | Website:  https://openfoam.org
    \\  /    A nd           | Version:  7
     \\/     M anipulation  |
\*---------------------------------------------------------------------------*/
FoamFile
{
    version     2.0;
    format      ascii;
    class       volScalarField;
    location    "0.03";
    object      epsilon;
}
// * * * * * * * * * * * * * * * * * * * * * * * * * * * * * * * * * * * * * //

dimensions      [0 2 -3 0 0 0 0];

internalField   nonuniform List<scalar> 
73374
(
0.00471068
0.0009465369
0.0009653684
0.0009716389
0.0009730704
0.0009734859
0.0009736635
0.0009736914
0.0009736818
0.0009736399
0.0009735558
0.004675163
0.0009711307
0.001007606
0.001019486
0.001022648
0.001023585
0.001023984
0.001024122
0.001024139
0.001024084
0.001023952
0.004671566
0.0009791504
0.001021196
0.001036324
0.001040605
0.001041963
0.001042509
0.001042693
0.001042737
0.001042666
0.001042487
0.004669142
0.0009809937
0.001024731
0.001040979
0.001045855
0.001047484
0.001048139
0.001048402
0.001048471
0.001048399
0.001048197
0.004665626
0.0009814932
0.001025766
0.001042436
0.001047583
0.001049363
0.001050095
0.001050395
0.001050485
0.001050423
0.001050222
0.004661953
0.0009815914
0.001026058
0.001042895
0.001048171
0.001050032
0.001050805
0.001051129
0.001051231
0.001051178
0.001050988
0.004658287
0.0009815633
0.001026102
0.001043009
0.001048342
0.001050237
0.001051022
0.001051345
0.001051441
0.001051383
0.001051196
0.004654653
0.0009814829
0.001026042
0.001042973
0.001048322
0.001050219
0.001050991
0.001051284
0.001051336
0.001051239
0.001051024
0.004651066
0.0009813827
0.001025942
0.001042874
0.001048216
0.001050087
0.001050808
0.001051015
0.001050948
0.001050725
0.00105041
0.004647534
0.0009812737
0.00102582
0.001042738
0.001048054
0.001049865
0.001050466
0.001050461
0.001050074
0.001049477
0.001048868
0.004644052
0.000981162
0.001025688
0.001042581
0.001047845
0.001049544
0.001049847
0.001049197
0.001047792
0.001046085
0.001044535
0.004640627
0.0009810465
0.001025546
0.001042404
0.001047591
0.0010491
0.001048771
0.001045627
0.001040389
0.001035262
0.001030438
0.00463724
0.0009809288
0.001025397
0.001042211
0.001047298
0.001048534
0.001047257
0.001040386
0.001016789
0.00101092
0.0009896669
0.004633858
0.0009808024
0.001025233
0.001041999
0.001046985
0.001047928
0.001045683
0.001035792
0.001011815
0.00223104
0.002157545
0.004630419
0.0009806587
0.001025042
0.001041757
0.001046662
0.001047398
0.001044464
0.001031908
0.0009935311
0.002170077
0.004443839
0.00462683
0.0009804838
0.001024802
0.001041463
0.001046313
0.001046961
0.001043719
0.001029835
0.0009914985
0.002154469
0.004339796
0.004623017
0.0009802654
0.001024507
0.001041111
0.001045925
0.001046553
0.001043261
0.001029335
0.0009913891
0.002156323
0.004347523
0.004618874
0.0009800072
0.001024186
0.001040743
0.001045544
0.001046201
0.001043019
0.001029153
0.0009905891
0.002155826
0.004357928
0.00461432
0.0009797442
0.001023908
0.001040456
0.001045286
0.001046049
0.001043253
0.00103084
0.0009926066
0.002159036
0.00437557
0.00460932
0.002197208
0.002056811
0.01189092
0.01186158
0.01196802
0.01190091
0.01188665
0.01187301
0.01186625
0.01186517
0.01186592
0.01186812
0.002075456
0.01181628
0.01179466
0.01178548
0.01177822
0.01177739
0.01178171
0.01177937
0.01177832
0.01177759
0.01177712
0.0009787526
0.0117932
0.01180173
0.01180356
0.01180334
0.01180403
0.0118042
0.01180465
0.01180513
0.0118057
0.01180629
0.0009933032
0.0117996
0.01181152
0.01180932
0.01180862
0.01180867
0.01180827
0.01180849
0.01180905
0.01180952
0.01180992
0.0009985331
0.01180416
0.0118131
0.01181396
0.0118141
0.01181437
0.01181417
0.01181442
0.01181458
0.0118147
0.0118148
0.0009995614
0.01180298
0.01181356
0.01181405
0.01181397
0.01181408
0.01181406
0.01181418
0.01181432
0.0118145
0.01181467
0.0009997418
0.0118031
0.01181385
0.01181454
0.0118146
0.0118148
0.01181487
0.01181499
0.01181512
0.01181527
0.01181543
0.0009997153
0.01180291
0.01181386
0.01181451
0.01181455
0.01181472
0.0118148
0.01181493
0.01181508
0.01181525
0.01181546
0.0009996341
0.01180297
0.01181387
0.01181453
0.0118146
0.01181479
0.01181488
0.01181504
0.01181519
0.01181542
0.01181566
0.0009995311
0.01180303
0.01181384
0.0118145
0.01181457
0.01181476
0.01181486
0.01181502
0.01181519
0.01181541
0.01181577
0.0009994216
0.01180313
0.0118138
0.01181446
0.01181453
0.01181473
0.01181485
0.01181499
0.01181516
0.01181545
0.01181586
0.0009993117
0.01180323
0.01181376
0.0118144
0.01181445
0.01181464
0.01181473
0.01181486
0.01181505
0.01181535
0.0118161
0.0009992011
0.01180328
0.01181371
0.01181435
0.0118144
0.01181458
0.01181463
0.01181472
0.01181491
0.01181563
0.01181662
0.0009990892
0.01180323
0.01181366
0.01181427
0.01181427
0.01181442
0.0118145
0.01181456
0.01181497
0.01181545
0.01181962
0.0009989719
0.01180302
0.01181361
0.01181426
0.01181421
0.01181438
0.01181416
0.01181444
0.01181436
0.01181783
0.01181896
0.000998841
0.01180259
0.01181357
0.01181423
0.01181422
0.01181436
0.01181435
0.01181438
0.01181473
0.01181772
0.0118304
0.0009986891
0.01180192
0.01181352
0.01181424
0.01181425
0.01181442
0.01181433
0.01181462
0.01181506
0.01181862
0.01180248
0.0009985123
0.011801
0.01181347
0.01181426
0.01181432
0.01181455
0.01181467
0.01181498
0.01181582
0.01181849
0.01181973
0.0009983189
0.01179992
0.01181341
0.01181428
0.01181437
0.01181475
0.01181488
0.0118157
0.01181789
0.01182481
0.01179061
0.0009981332
0.01179873
0.01181332
0.01181426
0.01181442
0.01181497
0.01181512
0.01181655
0.01181844
0.01182683
0.0118791
0.01184286
0.01188548
0.01184107
0.01184142
0.01184051
0.01183844
0.0118384
0.01183822
0.01183641
0.01183741
0.01183516
0.002093946
0.01182223
0.0118252
0.01181993
0.01181811
0.01181878
0.01181851
0.01181869
0.01181814
0.01181745
0.01181741
0.0009960589
0.01179796
0.01181762
0.0118174
0.01181727
0.01181667
0.01181671
0.01181665
0.01181676
0.01181686
0.01181692
0.001023507
0.01179377
0.01181636
0.01181639
0.01181639
0.01181647
0.0118165
0.01181657
0.01181662
0.01181668
0.01181677
0.001032362
0.01180551
0.01181624
0.01181625
0.01181632
0.01181639
0.01181646
0.01181654
0.01181661
0.01181671
0.01181681
0.001034419
0.01180442
0.01181615
0.01181622
0.01181629
0.01181636
0.01181643
0.01181651
0.0118166
0.0118167
0.01181681
0.001034875
0.01180529
0.01181617
0.01181624
0.0118163
0.01181638
0.01181646
0.01181654
0.01181665
0.01181677
0.01181691
0.001034937
0.01180511
0.01181609
0.01181616
0.01181623
0.01181631
0.01181639
0.01181649
0.01181662
0.01181676
0.01181694
0.001034883
0.01180521
0.01181603
0.01181611
0.01181617
0.01181625
0.01181634
0.01181645
0.01181659
0.01181677
0.011817
0.001034781
0.01180527
0.01181596
0.01181603
0.0118161
0.01181618
0.01181627
0.01181638
0.01181655
0.01181677
0.01181709
0.001034668
0.01180535
0.01181589
0.01181596
0.01181602
0.01181609
0.01181618
0.0118163
0.01181648
0.01181676
0.01181717
0.001034556
0.01180541
0.01181582
0.01181588
0.01181593
0.01181599
0.01181606
0.01181617
0.01181638
0.01181669
0.01181743
0.001034445
0.01180546
0.01181575
0.0118158
0.01181584
0.01181588
0.01181593
0.01181604
0.01181626
0.01181689
0.01181779
0.00103433
0.0118054
0.01181568
0.01181573
0.01181575
0.01181577
0.01181579
0.01181586
0.01181615
0.01181659
0.01182064
0.001034205
0.01180521
0.01181563
0.01181567
0.01181568
0.01181568
0.01181567
0.01181571
0.01181572
0.01181763
0.01181865
0.001034055
0.01180481
0.01181559
0.01181564
0.01181565
0.01181567
0.01181566
0.01181568
0.01181601
0.01181772
0.01182775
0.001033872
0.01180419
0.01181557
0.01181564
0.01181568
0.01181573
0.01181579
0.01181593
0.01181638
0.01181886
0.01180227
0.001033651
0.01180335
0.01181557
0.01181566
0.01181575
0.01181586
0.01181602
0.01181625
0.01181723
0.01181802
0.01181723
0.001033406
0.01180237
0.01181558
0.01181571
0.01181585
0.01181605
0.01181638
0.01181701
0.0118191
0.01182514
0.01177257
0.001033172
0.01180132
0.0118156
0.01181577
0.01181595
0.01181628
0.0118167
0.0118179
0.01181967
0.01182756
0.01186522
0.01184234
0.01192332
0.01184253
0.01184138
0.0118416
0.01184688
0.01183698
0.01183868
0.01183794
0.01183574
0.01183694
0.002097342
0.01182398
0.01182358
0.01182301
0.01182064
0.01182365
0.0118197
0.01181915
0.01181947
0.01181832
0.01181855
0.001002616
0.01179777
0.01181983
0.01181699
0.0118165
0.01181689
0.01181661
0.01181675
0.01181675
0.01181673
0.01181684
0.001033825
0.01179258
0.01181633
0.01181635
0.01181641
0.01181651
0.01181652
0.01181657
0.01181663
0.01181669
0.01181676
0.001044889
0.01180612
0.01181626
0.01181627
0.0118164
0.01181637
0.01181648
0.01181654
0.01181664
0.01181671
0.01181679
0.00104755
0.01180444
0.01181613
0.01181619
0.01181624
0.01181631
0.01181638
0.01181648
0.01181659
0.0118167
0.01181681
0.001048197
0.0118055
0.01181617
0.01181624
0.01181632
0.01181638
0.01181647
0.01181656
0.01181666
0.01181678
0.01181692
0.00104833
0.01180531
0.01181609
0.01181616
0.01181623
0.0118163
0.0118164
0.0118165
0.01181662
0.01181677
0.01181695
0.001048291
0.01180541
0.01181603
0.0118161
0.01181618
0.01181625
0.01181634
0.01181646
0.01181659
0.01181678
0.011817
0.001048182
0.01180545
0.01181596
0.01181603
0.0118161
0.01181617
0.01181627
0.01181638
0.01181654
0.01181676
0.01181708
0.001048066
0.01180556
0.01181589
0.01181596
0.01181602
0.01181609
0.01181618
0.0118163
0.01181647
0.01181677
0.01181716
0.001047966
0.01180565
0.01181582
0.01181588
0.01181593
0.01181599
0.01181606
0.01181617
0.01181637
0.01181668
0.01181741
0.001047881
0.0118057
0.01181575
0.0118158
0.01181584
0.01181588
0.01181593
0.01181604
0.01181623
0.01181687
0.01181779
0.001047789
0.0118056
0.01181568
0.01181573
0.01181575
0.01181577
0.0118158
0.01181585
0.01181618
0.01181662
0.01182055
0.001047676
0.01180542
0.01181563
0.01181567
0.01181568
0.01181568
0.01181567
0.01181571
0.01181572
0.01181829
0.01181869
0.001047524
0.01180501
0.01181559
0.01181564
0.01181566
0.01181567
0.01181566
0.01181569
0.01181603
0.01181781
0.01182794
0.001047322
0.0118044
0.01181557
0.01181564
0.01181568
0.01181572
0.01181578
0.01181593
0.01181639
0.01181874
0.01180136
0.001047065
0.01180358
0.01181557
0.01181566
0.01181575
0.01181585
0.01181601
0.01181624
0.01181722
0.01181799
0.01181706
0.001046778
0.01180262
0.01181558
0.01181571
0.01181585
0.01181605
0.01181638
0.01181699
0.0118191
0.01182523
0.01177267
0.001046506
0.01180158
0.0118156
0.01181577
0.01181595
0.01181628
0.01181671
0.01181789
0.01181968
0.01182782
0.01186542
0.01184211
0.01193713
0.01183997
0.01185052
0.01184648
0.01183621
0.01183884
0.01183745
0.01183583
0.01183779
0.01183558
0.002098165
0.01182391
0.01182057
0.01182282
0.01182273
0.01181742
0.01181862
0.01181802
0.01181737
0.01181781
0.01181758
0.001003963
0.01179698
0.01181888
0.01181726
0.01181673
0.01181711
0.01181668
0.01181673
0.01181688
0.01181685
0.01181681
0.001036061
0.01179127
0.01181626
0.01181628
0.01181639
0.01181641
0.01181646
0.01181648
0.01181656
0.01181661
0.0118167
0.001047659
0.01180577
0.01181619
0.01181633
0.01181627
0.01181652
0.01181642
0.01181658
0.01181665
0.0118167
0.01181676
0.001050614
0.01180403
0.01181613
0.01181616
0.01181623
0.01181631
0.0118164
0.01181647
0.01181656
0.01181666
0.0118168
0.001051431
0.01180549
0.01181616
0.01181624
0.01181629
0.01181639
0.01181645
0.01181656
0.01181667
0.01181678
0.01181691
0.001051636
0.01180525
0.01181608
0.01181616
0.01181622
0.0118163
0.01181639
0.01181649
0.01181662
0.01181676
0.01181694
0.00105157
0.01180531
0.01181602
0.0118161
0.01181617
0.01181625
0.01181634
0.01181645
0.01181659
0.01181677
0.011817
0.00105139
0.01180549
0.01181596
0.01181603
0.0118161
0.01181617
0.01181626
0.01181638
0.01181654
0.01181676
0.01181708
0.001051242
0.01180551
0.01181589
0.01181595
0.01181602
0.01181609
0.01181617
0.01181629
0.01181647
0.01181676
0.01181715
0.001051199
0.01180549
0.01181581
0.01181588
0.01181593
0.01181598
0.01181606
0.01181616
0.01181636
0.01181667
0.0118174
0.001051222
0.0118057
0.01181575
0.0118158
0.01181584
0.01181588
0.01181592
0.01181602
0.01181621
0.01181685
0.01181776
0.001051233
0.01180552
0.01181568
0.01181573
0.01181575
0.01181577
0.01181579
0.01181584
0.01181614
0.01181658
0.01182048
0.001051179
0.01180539
0.01181563
0.01181567
0.01181568
0.01181568
0.01181567
0.01181569
0.01181568
0.01181814
0.01181851
0.001051047
0.01180497
0.01181559
0.01181564
0.01181565
0.01181566
0.01181566
0.01181568
0.01181602
0.01181777
0.01182798
0.00105084
0.01180437
0.01181557
0.01181563
0.01181568
0.01181572
0.01181578
0.01181592
0.01181639
0.01181876
0.01180155
0.001050559
0.01180355
0.01181557
0.01181566
0.01181575
0.01181585
0.01181601
0.01181623
0.01181721
0.01181797
0.01181708
0.001050238
0.01180259
0.01181558
0.01181571
0.01181585
0.01181604
0.01181638
0.01181698
0.01181908
0.01182514
0.01177355
0.001049934
0.01180154
0.01181559
0.01181576
0.01181595
0.01181627
0.0118167
0.01181788
0.01181966
0.0118275
0.0118657
0.01184209
0.0119438
0.01184018
0.01184228
0.01183683
0.01183696
0.01183601
0.01184085
0.01183862
0.0118368
0.01183519
0.002098405
0.011825
0.01181938
0.01182359
0.01181815
0.01181777
0.01181778
0.01181939
0.0118177
0.01181803
0.01181752
0.001003123
0.01179872
0.01181859
0.01181696
0.01181916
0.01181662
0.0118176
0.01181672
0.0118167
0.01181678
0.0118171
0.001034635
0.01179096
0.01181624
0.01181643
0.01181641
0.01181637
0.01181649
0.0118165
0.01181653
0.01181661
0.01181671
0.00104611
0.01180582
0.01181635
0.01181619
0.01181661
0.01181635
0.01181661
0.01181649
0.01181657
0.01181666
0.01181684
0.001049303
0.01180422
0.01181611
0.01181617
0.01181627
0.01181633
0.01181642
0.01181647
0.01181655
0.01181667
0.0118168
0.001050461
0.01180547
0.01181618
0.01181621
0.01181632
0.01181637
0.01181647
0.01181653
0.01181664
0.01181676
0.01181691
0.001050821
0.01180524
0.01181608
0.01181615
0.01181623
0.0118163
0.01181639
0.01181648
0.0118166
0.01181675
0.01181694
0.001050574
0.01180533
0.01181602
0.0118161
0.01181617
0.01181625
0.01181634
0.01181645
0.01181659
0.01181677
0.011817
0.0010501
0.01180532
0.01181595
0.01181603
0.01181609
0.01181617
0.01181626
0.01181638
0.01181654
0.01181676
0.01181708
0.001049843
0.01180552
0.01181589
0.01181596
0.01181602
0.01181609
0.01181617
0.01181629
0.01181647
0.01181676
0.01181715
0.001049969
0.01180563
0.01181582
0.01181588
0.01181593
0.01181598
0.01181606
0.01181616
0.01181636
0.01181667
0.01181741
0.001050415
0.01180571
0.01181575
0.0118158
0.01181584
0.01181587
0.01181592
0.01181602
0.01181621
0.01181685
0.01181776
0.001050914
0.01180546
0.01181568
0.01181573
0.01181575
0.01181577
0.01181579
0.01181584
0.01181614
0.01181657
0.01182048
0.001051183
0.0118054
0.01181562
0.01181567
0.01181568
0.01181568
0.01181567
0.01181569
0.01181568
0.01181813
0.01181847
0.001051172
0.01180498
0.01181559
0.01181564
0.01181565
0.01181566
0.01181566
0.01181568
0.01181601
0.01181775
0.01182789
0.001050972
0.01180439
0.01181557
0.01181563
0.01181568
0.01181572
0.01181579
0.01181592
0.01181642
0.0118187
0.0118016
0.001050663
0.01180356
0.01181557
0.01181566
0.01181575
0.01181585
0.01181602
0.01181625
0.0118172
0.0118183
0.01181743
0.001050305
0.0118026
0.01181558
0.01181571
0.01181585
0.01181604
0.01181638
0.01181696
0.01181907
0.01182416
0.01177189
0.00104998
0.01180155
0.0118156
0.01181576
0.01181595
0.01181627
0.01181671
0.01181788
0.01181968
0.0118266
0.0118668
0.001049743
0.01184187
0.01194066
0.01184128
0.01184314
0.01184542
0.01183619
0.0118383
0.01183653
0.01183532
0.01183802
0.01183618
0.002097309
0.011825
0.01181998
0.01182179
0.01182272
0.01181739
0.01181875
0.01181815
0.01181743
0.01181942
0.01181883
0.0009974722
0.01179978
0.01181867
0.01181712
0.01181688
0.01181701
0.01181671
0.01181669
0.01181668
0.01181683
0.01181681
0.00102578
0.01179216
0.01181628
0.0118163
0.01181641
0.01181645
0.01181651
0.01181654
0.0118166
0.01181669
0.01181679
0.001036419
0.01180516
0.01181619
0.01181635
0.01181629
0.01181653
0.01181644
0.01181659
0.01181666
0.01181673
0.0118168
0.001040711
0.01180159
0.01181612
0.01181617
0.01181625
0.01181632
0.01181639
0.01181647
0.01181657
0.01181669
0.01181682
0.001042866
0.01180423
0.01181618
0.01181624
0.01181631
0.0118164
0.01181647
0.01181656
0.01181667
0.01181678
0.01181692
0.001043825
0.01180524
0.01181609
0.01181616
0.01181623
0.01181631
0.0118164
0.01181649
0.01181662
0.01181676
0.01181695
0.001042789
0.01180616
0.01181602
0.01181611
0.01181617
0.01181625
0.01181634
0.01181645
0.01181659
0.01181678
0.01181701
0.001041307
0.01180735
0.01181597
0.01181603
0.0118161
0.01181617
0.01181627
0.01181638
0.01181654
0.01181676
0.01181708
0.001040696
0.0118055
0.01181589
0.01181596
0.01181602
0.01181609
0.01181618
0.0118163
0.01181647
0.01181676
0.01181716
0.001041348
0.01180349
0.01181582
0.01181588
0.01181593
0.01181599
0.01181606
0.01181617
0.01181637
0.01181667
0.01181741
0.001043074
0.01180478
0.01181576
0.0118158
0.01181584
0.01181588
0.01181593
0.01181603
0.01181623
0.01181686
0.01181778
0.001045898
0.01180475
0.01181569
0.01181573
0.01181575
0.01181577
0.01181579
0.01181584
0.01181617
0.01181661
0.01182053
0.001047808
0.01180549
0.01181563
0.01181567
0.01181568
0.01181568
0.01181567
0.0118157
0.01181571
0.01181823
0.0118186
0.001048057
0.01180499
0.01181559
0.01181564
0.01181566
0.01181567
0.01181566
0.01181568
0.01181603
0.01181779
0.01182783
0.00104787
0.01180446
0.01181557
0.01181564
0.01181568
0.01181572
0.01181578
0.01181594
0.01181637
0.01181905
0.0118019
0.001047462
0.01180361
0.01181557
0.01181566
0.01181575
0.01181585
0.01181602
0.01181625
0.0118172
0.01181871
0.01181895
0.001047002
0.01180266
0.01181558
0.01181571
0.01181585
0.01181605
0.01181638
0.01181696
0.01181918
0.01182325
0.01172144
0.00104667
0.01180154
0.0118156
0.01181577
0.01181595
0.01181628
0.01181671
0.01181791
0.01181968
0.01182764
0.01186666
0.001046452
0.01180058
0.0118156
0.01181578
0.01184214
0.01192313
0.01184116
0.01185406
0.01184532
0.0118429
0.01183852
0.01183647
0.01184142
0.01184006
0.01183548
0.002087869
0.01182368
0.01182234
0.01182411
0.01182038
0.01182059
0.01181866
0.0118183
0.01181881
0.01181842
0.01181812
0.0009818493
0.01180607
0.01181886
0.01181686
0.01181649
0.01181684
0.01181663
0.0118168
0.01181674
0.01181684
0.01181709
0.0009979856
0.01179578
0.01181631
0.01181633
0.01181642
0.01181648
0.01181652
0.01181657
0.01181663
0.01181671
0.01181681
0.001005921
0.01180496
0.01181625
0.01181629
0.01181629
0.01181636
0.01181645
0.01181652
0.01181658
0.01181671
0.01181683
0.001019441
0.01179897
0.0118162
0.01181617
0.01181627
0.01181634
0.01181641
0.01181649
0.01181657
0.01181669
0.01181681
0.001015678
0.01179978
0.01181621
0.01181624
0.01181631
0.01181636
0.01181645
0.01181655
0.01181664
0.01181677
0.01181691
0.001028795
0.01180491
0.0118161
0.01181616
0.01181622
0.0118163
0.01181639
0.01181649
0.01181661
0.01181675
0.01181694
0.001014971
0.01181003
0.011816
0.01181612
0.01181617
0.01181625
0.01181634
0.01181645
0.01181659
0.01181677
0.011817
0.001019095
0.01180967
0.01181593
0.01181605
0.01181609
0.01181618
0.01181626
0.01181638
0.01181654
0.01181677
0.01181708
0.001009125
0.01180568
0.0118159
0.01181596
0.01181602
0.01181609
0.01181617
0.0118163
0.01181648
0.01181676
0.01181716
0.001019661
0.0118008
0.01181586
0.01181587
0.01181593
0.01181598
0.01181606
0.01181617
0.01181637
0.01181669
0.01181742
0.00101596
0.01180095
0.01181578
0.01181579
0.01181584
0.01181588
0.01181593
0.01181604
0.01181624
0.01181688
0.01181777
0.001032278
0.01180419
0.01181569
0.01181573
0.01181575
0.01181577
0.01181578
0.01181585
0.01181613
0.01181657
0.01182062
0.001035331
0.01180515
0.01181562
0.01181567
0.01181568
0.01181568
0.01181566
0.0118157
0.01181571
0.0118176
0.01181867
0.00103589
0.01180478
0.01181559
0.01181564
0.01181565
0.01181567
0.01181566
0.01181568
0.01181601
0.0118177
0.01182777
0.001035711
0.01180436
0.01181557
0.01181564
0.01181568
0.01181572
0.01181578
0.01181594
0.01181633
0.01181928
0.01180199
0.001035037
0.01180356
0.01181557
0.01181566
0.01181575
0.01181585
0.01181603
0.01181624
0.01181724
0.01181887
0.01181927
0.001034296
0.01180246
0.01181559
0.01181571
0.01181585
0.01181605
0.01181638
0.01181697
0.01181925
0.01182328
0.01171304
0.001033907
0.01180131
0.0118156
0.01181577
0.01181595
0.01181628
0.0118167
0.01181794
0.01181965
0.0118271
0.01186347
0.001033605
0.01180048
0.0118156
0.01181579
0.011816
0.01181633
0.01184129
0.01190666
0.01184312
0.01184521
0.011843
0.01183891
0.01183601
0.01183746
0.01184735
0.01185783
0.01189208
0.002071876
0.01180374
0.01176178
0.01172886
0.01172104
0.01172193
0.01172189
0.01172859
0.01173423
0.0117648
0.01176757
0.002119675
0.01180972
0.01180902
0.01180789
0.01180784
0.01180826
0.011808
0.01180854
0.01180922
0.01180751
0.01180692
0.002187355
0.0118135
0.01180878
0.01180711
0.01180671
0.0118071
0.01180732
0.01180787
0.01180785
0.01180936
0.01180905
0.002204511
0.01181364
0.01181334
0.01181356
0.01181348
0.01181364
0.01181374
0.01181412
0.01181429
0.01181424
0.01181423
0.002221595
0.01181471
0.01181312
0.011814
0.01181353
0.01181376
0.01181388
0.0118142
0.01181435
0.01181444
0.01181466
0.001000853
0.01180184
0.0118133
0.0118147
0.01181453
0.01181474
0.01181485
0.01181508
0.0118152
0.01181537
0.01181553
0.001001318
0.0118033
0.01181388
0.01181463
0.01181463
0.01181482
0.01181492
0.01181508
0.01181522
0.01181539
0.01181561
0.0009994328
0.01180469
0.01181443
0.01181449
0.01181471
0.01181487
0.01181498
0.01181513
0.01181528
0.01181547
0.0118157
0.002220464
0.0118132
0.01181404
0.01181452
0.01181464
0.01181482
0.01181493
0.01181507
0.01181523
0.01181546
0.01181577
0.002206905
0.01181304
0.01181381
0.01181442
0.01181456
0.01181477
0.01181487
0.01181499
0.01181516
0.01181545
0.01181585
0.002217326
0.01181442
0.01181369
0.01181455
0.01181447
0.01181468
0.01181475
0.01181486
0.01181504
0.01181535
0.0118161
0.001000304
0.01180295
0.01181287
0.01181445
0.01181435
0.01181457
0.01181463
0.01181472
0.0118149
0.01181562
0.01181661
0.001002635
0.01180048
0.01181354
0.01181439
0.01181427
0.01181443
0.0118145
0.01181455
0.01181495
0.01181543
0.01181959
0.001004325
0.01180339
0.01181351
0.01181424
0.0118142
0.01181438
0.01181418
0.01181443
0.01181435
0.01181778
0.01181871
0.001005197
0.01180255
0.01181361
0.01181423
0.01181422
0.01181436
0.01181434
0.01181437
0.01181473
0.01181783
0.01182896
0.001005117
0.01180189
0.01181338
0.01181421
0.01181426
0.01181442
0.01181445
0.01181462
0.0118129
0.01181841
0.01180211
0.001003982
0.01180142
0.01181336
0.01181426
0.01181433
0.01181456
0.01181472
0.01181504
0.01181567
0.0118176
0.01182183
0.001003145
0.01180026
0.0118134
0.01181427
0.01181438
0.01181475
0.01181474
0.0118157
0.01181786
0.01182362
0.01175868
0.001001693
0.01179829
0.01181312
0.01181429
0.01181446
0.01181498
0.01181524
0.01181653
0.01181854
0.01182732
0.01186347
0.001000324
0.01179778
0.01181306
0.01181424
0.01181441
0.01181498
0.01181486
0.01181643
0.01183961
0.01187638
0.01186227
0.01187292
0.01189028
0.01188131
0.01189882
0.01187198
0.01188543
0.01192667
0.01190348
0.00471338
0.0009463107
0.0009694476
0.0009767716
0.000978614
0.0009787603
0.0009779055
0.0009766332
0.000977008
0.000976147
0.0009762429
0.004801048
0.0009661634
0.001007295
0.001020308
0.001023868
0.001024968
0.001025156
0.001025107
0.001025141
0.001025094
0.001024953
0.004672839
0.0009724007
0.001019549
0.001036157
0.001040907
0.00104241
0.001042926
0.001043082
0.001043095
0.001043011
0.00104287
0.004844984
0.0009733191
0.001022528
0.001040316
0.001045679
0.001047474
0.001048173
0.001048429
0.001048479
0.001048412
0.001048223
0.002151813
0.0009739138
0.001023604
0.001041682
0.001047308
0.001049263
0.001050052
0.001050348
0.001050402
0.0010503
0.001050055
0.002181695
0.0009748744
0.001024013
0.001042115
0.001047832
0.001049865
0.001050699
0.00105102
0.001051068
0.001050932
0.001050657
0.002236605
0.0009756084
0.001024094
0.001042233
0.001047987
0.001050049
0.001050892
0.001051208
0.001051236
0.001051065
0.001050748
0.002195457
0.0009761706
0.001024046
0.001042195
0.00104796
0.001050024
0.00105085
0.001051132
0.001051108
0.001050879
0.001050507
0.002177824
0.000974408
0.001023774
0.001042063
0.001047849
0.00104989
0.001050667
0.001050864
0.001050724
0.001050367
0.001049884
0.004784663
0.0009736175
0.001023505
0.001041911
0.001047687
0.001049673
0.001050335
0.001050325
0.001049875
0.001049159
0.001048397
0.002142082
0.0009738353
0.001023595
0.00104181
0.0010475
0.001049366
0.001049732
0.001049087
0.001047641
0.001045848
0.001044188
0.0021766
0.0009754705
0.001023845
0.001041732
0.001047281
0.001048941
0.001048679
0.001045552
0.0010403
0.001035139
0.001030286
0.002227152
0.000977048
0.001024007
0.00104163
0.001047027
0.001048402
0.001047198
0.001040362
0.001016786
0.001010963
0.0009898414
0.002211696
0.0009769987
0.001023913
0.001041456
0.001046744
0.001047828
0.001045714
0.001035976
0.001012069
0.01116343
0.01131142
0.002239249
0.0009755647
0.001023576
0.001041218
0.001046449
0.001047344
0.001044656
0.001033226
0.0009955228
0.01177796
0.0118317
0.00224273
0.000975339
0.001023354
0.001040959
0.001046136
0.001046959
0.001044019
0.001031304
0.001003145
0.01174328
0.01180072
0.002229693
0.0009764658
0.001023264
0.001040668
0.001045762
0.001046559
0.001043549
0.001029895
0.0009832299
0.0009679996
0.01177622
0.002192432
0.0009772837
0.001023058
0.001040312
0.001045325
0.001046096
0.001043183
0.001030497
0.001001831
0.01090687
0.01181794
0.002206506
0.0009770774
0.001022908
0.001039971
0.001044923
0.00104573
0.001043128
0.001031832
0.0009940825
0.01154946
0.01188796
0.002194197
0.0009778957
0.001022947
0.001039765
0.001044703
0.001045683
0.001043707
0.001034243
0.001010838
0.0114571
0.0118517
0.005055647
0.001963145
0.01203002
0.004789813
0.01179776
0.001948344
0.00199954
0.01193733
0.01195986
0.0117021
0.01173018
0.002011849
0.002018341
0.01198056
0.01194102
0.01170295
0.01173729
0.002019924
0.002020929
0.012025
0.01192859
0.01174748
0.01172938
0.002021217
0.002020993
0.01196814
0.0119417
0.01171937
0.01172693
0.002021192
0.00202086
0.01197789
0.01195814
0.01171632
0.01172726
0.002021453
0.002020985
0.01199048
0.0119722
0.01171353
0.01172308
0.002021714
0.002021001
0.01200585
0.01198666
0.01171226
0.01172219
0.002021839
0.002021021
0.01199386
0.01198748
0.01171441
0.01172407
0.002021926
0.002021052
0.01199647
0.01199134
0.01171665
0.01172709
0.002022007
0.002021058
0.01199875
0.01199675
0.01172053
0.01172998
0.00200937
0.00467244
0.002080799
0.002079925
0.01174325
0.002134823
0.01179844
0.002100293
0.004666694
0.002110893
0.002103853
0.01175461
0.002154708
0.01174436
0.002113644
0.004664241
0.00211457
0.002166789
0.01175981
0.002173644
0.01175217
0.002115072
0.004661045
0.002114691
0.002174948
0.01175376
0.002175166
0.0117638
0.002114776
0.004657639
0.002114218
0.002175189
0.01175207
0.002174725
0.01176394
0.002114227
0.004654207
0.002113629
0.002174615
0.01175182
0.002174088
0.01176569
0.002113603
0.004650782
0.002113012
0.002173946
0.01175266
0.002173426
0.01176635
0.002112964
0.004647396
0.002112389
0.002173262
0.01175352
0.002172761
0.01176722
0.002112331
0.004644058
0.002111774
0.002172587
0.01175447
0.002172102
0.01176799
0.002111706
0.004640772
0.002111168
0.002171919
0.01175539
0.002171455
0.01176876
0.002111092
0.00463754
0.002110572
0.002171263
0.01175633
0.00217082
0.01176951
0.00211049
0.004634348
0.002109986
0.00217062
0.01175725
0.002170195
0.01177039
0.002109895
0.004631168
0.002109403
0.002169985
0.01175814
0.002169576
0.01177141
0.002109302
0.004627944
0.002108816
0.002169352
0.01175893
0.00216895
0.01177277
0.002108697
0.004624592
0.002108203
0.002168705
0.01175961
0.002168303
0.0117745
0.004018536
0.004338903
0.01183178
0.01213765
0.01177748
0.002108055
0.004621034
0.002107538
0.002168025
0.01176015
0.00216761
0.01177655
0.004344066
0.01180761
0.01181809
0.002107343
0.004617174
0.002106778
0.002167289
0.01176052
0.002166849
0.01177868
0.004354606
0.01180847
0.01182392
0.002106501
0.004612925
0.002105845
0.002166476
0.01176083
0.002166008
0.01178063
0.004364646
0.01183142
0.01187522
0.002105442
0.004608227
0.002104691
0.002165598
0.01176117
0.002165137
0.01178241
0.00454159
0.004365446
0.01187208
0.01195687
0.01212355
0.002104283
0.002164715
0.01176163
0.01197954
0.004788433
0.01186189
0.01193002
0.004801768
0.0118966
0.01216392
0.01176859
0.01182866
0.01215689
0.01176737
0.01195168
0.01215638
0.01186473
0.01195877
0.01215823
0.01196062
0.004806109
0.01188939
0.01192351
0.00480766
0.01189678
0.01215254
0.01176668
0.0118278
0.01215445
0.01176656
0.01195723
0.01216191
0.01186573
0.01195693
0.01216429
0.01196888
0.004809107
0.01190856
0.01193164
0.004809302
0.01190457
0.01215332
0.01176638
0.01182798
0.01215282
0.01176647
0.01195807
0.01216415
0.01186523
0.01195786
0.01216609
0.01197641
0.004810521
0.01190995
0.01194098
0.00481071
0.01190826
0.01215206
0.0117667
0.01182795
0.01215209
0.01176697
0.01195815
0.01216624
0.01186538
0.01195781
0.01216701
0.01195196
0.004811257
0.0119119
0.01196305
0.004811439
0.01191876
0.01215187
0.01176707
0.01182785
0.01215309
0.01176722
0.01195849
0.01216377
0.0118657
0.01195746
0.01215971
0.01193854
0.004811841
0.011909
0.01197447
0.004809307
0.01191067
0.01215341
0.01176713
0.01182797
0.01215431
0.01176712
0.01195838
0.01216083
0.01186293
0.01195796
0.01215776
0.01193158
0.00480818
0.01190615
0.01196574
0.004800676
0.01190419
0.01215496
0.01176706
0.0118277
0.01215353
0.0117671
0.01195686
0.01215855
0.01186609
0.01195836
0.01215584
0.01192262
0.004800193
0.01190282
0.01195235
0.00469114
0.01189319
0.01215825
0.01176777
0.01183014
0.01216416
0.01176964
0.01195931
0.01214917
0.01188969
0.01195238
0.0121518
0.01195729
0.004912758
0.01182154
0.004338561
0.001963454
0.01189707
0.01173515
0.01169862
0.004351247
0.001997716
0.002069336
0.01188123
0.01175652
0.01174346
0.004392095
0.002081077
0.002081888
0.01187772
0.01178992
0.01178953
0.004074617
0.002071739
0.002065981
0.01187984
0.0117774
0.01178908
0.002069799
0.002082215
0.01194328
0.01172262
0.01173705
0.004281729
0.002073749
0.002066449
0.01196784
0.01172512
0.01172466
0.002047207
0.002040726
0.01178548
0.004761287
0.01176579
0.001954149