/*--------------------------------*- C++ -*----------------------------------*\
  =========                 |
  \\      /  F ield         | OpenFOAM: The Open Source CFD Toolbox
   \\    /   O peration     | Website:  https://openfoam.org
    \\  /    A nd           | Version:  7
     \\/     M anipulation  |
\*---------------------------------------------------------------------------*/
FoamFile
{
    version     2.0;
    format      ascii;
    class       volScalarField;
    location    "0.03";
    object      p;
}
// * * * * * * * * * * * * * * * * * * * * * * * * * * * * * * * * * * * * * //

dimensions      [0 2 -2 0 0 0 0];

internalField   nonuniform List<scalar> 
105056
(
0.3946399
0.3935437
0.3913897
0.3891402
0.3867207
0.3954098
0.3943199
0.3927128
0.3901874
0.3870614
0.3970511
0.3953888
0.393775
0.3912386
0.3880935
0.3986461
0.3972238
0.3956281
0.3930907
0.3900063
0.4002953
0.3995136
0.3979433
0.3953403
0.3922386
0.4017517
0.4020396
0.4003327
0.3977296
0.3945897
0.4034775
0.4047952
0.4030543
0.4004773
0.3973234
0.4053953
0.4076716
0.4059055
0.4033543
0.4002027
0.4076565
0.4107421
0.4090228
0.4064742
0.4033294
0.4101369
0.4140102
0.4123391
0.4097886
0.4066481
0.4129111
0.417496
0.4158717
0.4133018
0.4101757
0.4160267
0.4212091
0.4196368
0.4170237
0.4139062
0.4193256
0.4251547
0.4236083
0.4209656
0.4178451
0.4228589
0.4293051
0.4277795
0.4250868
0.4219733
0.4264879
0.4336244
0.432157
0.429469
0.4262892
0.4304074
0.4381093
0.4367143
0.4340422
0.4308114
0.4345623
0.4428255
0.4414671
0.438811
0.435513
0.4389806
0.4477628
0.4464274
0.443772
0.4404386
0.4435993
0.452811
0.4515709
0.448907
0.4455628
0.4485777
0.4579278
0.4568699
0.4542124
0.4508567
0.4536418
0.4632294
0.4623451
0.4596875
0.4563221
0.4589296
0.4687622
0.4679808
0.4653385
0.4619479
0.4304406
0.4745073
0.4737833
0.4711097
0.4677156
0.3934833
0.391488
0.3896387
0.3874988
0.3849713
0.3959263
0.3945534
0.3933202
0.3921762
0.3909677
0.3895571
0.3975532
0.3954872
0.3942246
0.3940766
0.3926177
0.3908427
0.3988731
0.3961011
0.3938037
0.3936438
0.3919179
0.3903124
0.4003523
0.3966605
0.3945633
0.3947403
0.3930035
0.3913865
0.4020389
0.3972175
0.395477
0.3955265
0.3937912
0.3921733
0.4038257
0.3974266
0.396694
0.3963721
0.3948183
0.3931779
0.4060201
0.3981723
0.3982809
0.3976417
0.3962624
0.3945894
0.4083887
0.3992277
0.3998509
0.3990124
0.3977199
0.3960413
0.4110039
0.4006688
0.4016107
0.400747
0.3994954
0.3978357
0.4138123
0.40248
0.4034994
0.4027071
0.4014246
0.3997966
0.4167592
0.4044148
0.4056092
0.4048564
0.4035848
0.4019883
0.4200074
0.4065999
0.407967
0.4072291
0.405972
0.4043881
0.4233914
0.4089936
0.4105661
0.4097995
0.4085735
0.4069987
0.4270087
0.4114691
0.4134469
0.4125643
0.411396
0.4098195
0.4309833
0.4139685
0.4164633
0.4155384
0.4144069
0.4128421
0.4353064
0.4168607
0.4196609
0.4187514
0.4176378
0.4160746
0.439452
0.4204104
0.423129
0.4221679
0.4210645
0.4195033
0.4439338
0.4240222
0.4267752
0.4257711
0.4246778
0.4231188
0.4486444
0.4275815
0.4305184
0.4295321
0.4284541
0.4269037
0.4535148
0.4313188
0.4343853
0.433468
0.4324078
0.4308752
0.4584764
0.4352036
0.4383649
0.4375468
0.4365219
0.4350138
0.4635853
0.4393324
0.442502
0.4418026
0.4408135
0.4393324
0.4246255
0.4436096
0.4467708
0.4461975
0.4452451
0.4437974
0.3932326
0.3905921
0.3884608
0.3860264
0.3832634
0.3962107
0.3945316
0.392723
0.391497
0.3901883
0.3885499
0.3983972
0.3960718
0.3942862
0.3944856
0.3927352
0.3910525
0.4000635
0.3967978
0.3932977
0.3934988
0.3915174
0.3900301
0.4017429
0.3974111
0.3943118
0.3950459
0.3929771
0.3915266
0.4037298
0.398256
0.3951968
0.3957439
0.3935848
0.3921513
0.4061298
0.3987153
0.396563
0.3966697
0.3947203
0.3932529
0.4091306
0.3994267
0.3982673
0.3979665
0.3961963
0.3946743
0.4122082
0.4006612
0.3998784
0.3993602
0.3976706
0.396134
0.4152763
0.4023962
0.401703
0.4011524
0.3994837
0.3979639
0.4184215
0.4044842
0.4036179
0.4031402
0.4014197
0.3999357
0.4218067
0.406672
0.4057739
0.4053559
0.4036052
0.4021558
0.4254351
0.4090813
0.4081542
0.4077643
0.4060043
0.4045732
0.4292969
0.4117081
0.4107622
0.4103732
0.4086261
0.4072021
0.4334721
0.4144516
0.4136333
0.4131642
0.4114577
0.4100362
0.4380149
0.4173106
0.4167321
0.4161385
0.4145011
0.4130763
0.4424328
0.4201683
0.4200634
0.4192947
0.4177355
0.4163177
0.4471867
0.4230861
0.4236249
0.4226644
0.4211575
0.4197555
0.4525126
0.4256928
0.4272403
0.4262471
0.4247594
0.4233869
0.4577923
0.429157
0.4309783
0.4300473
0.4285407
0.4272021
0.4631518
0.4331951
0.4348485
0.4340227
0.43249
0.4311875
0.4687036
0.4374635
0.4388559
0.4381442
0.4366021
0.4353308
0.4742588
0.4419106
0.4430476
0.4424394
0.440893
0.4396563
0.4798361
0.4465406
0.4474683
0.4469054
0.445346
0.4441216
0.3934586
0.3898215
0.3871784
0.384791
0.3823844
0.3960661
0.3945805
0.3922092
0.3905572
0.3895079
0.3880089
0.3991578
0.3966745
0.3943702
0.3949843
0.3931851
0.3914482
0.4012671
0.3979364
0.3927315
0.3934304
0.3913852
0.3898786
0.4028744
0.3982897
0.3938196
0.3950798
0.3929817
0.3914819
0.4047208
0.3989028
0.3947369
0.3958588
0.393588
0.3921329
0.4073774
0.3990297
0.3960972
0.3966384
0.3946269
0.3931466
0.4101696
0.3997621
0.3979029
0.3979616
0.3961584
0.3946239
0.4132466
0.4008745
0.3994831
0.3992845
0.3975798
0.3960331
0.4164705
0.4025896
0.4012955
0.4010743
0.3993953
0.3978749
0.419474
0.404593
0.4031736
0.4030384
0.4013096
0.3998307
0.4230073
0.4066946
0.4052717
0.4052374
0.4034765
0.4020443
0.4267478
0.4089991
0.4076104
0.4076254
0.4058636
0.4044517
0.4307818
0.4115994
0.4101645
0.4102242
0.4084701
0.4070718
0.4349274
0.4142943
0.4129636
0.4130138
0.4112999
0.4099011
0.4393654
0.4173068
0.416009
0.4160092
0.4143375
0.4129367
0.4437484
0.420479
0.4193199
0.4192147
0.4175861
0.4161798
0.4493188
0.4239265
0.4229095
0.4226302
0.4210259
0.4196213
0.4545605
0.4272594
0.4266665
0.4262286
0.4246454
0.4232508
0.4603544
0.4305903
0.4305238
0.4300039
0.4284249
0.4270541
0.4665092
0.4336887
0.4343644
0.4339363
0.4323721
0.431037
0.4728608
0.4371404
0.4382182
0.4380048
0.4364702
0.4351789
0.4786021
0.4412145
0.4422442
0.4422578
0.4407596
0.4395055
0.4838967
0.4460224
0.446575
0.4466882
0.4452017
0.4439802
0.3936342
0.3896929
0.3866656
0.3843829
0.3810819
0.3960317
0.3946108
0.3921155
0.3904572
0.3894959
0.3878479
0.3995561
0.3967881
0.3944344
0.395247
0.3933256
0.391625
0.4019473
0.3980275
0.3924675
0.3934248
0.3912582
0.3897788
0.4037992
0.3983451
0.3935774
0.3951711
0.3929751
0.3915338
0.4060794
0.398981
0.3945626
0.3959467
0.3935265
0.3921277
0.4075921
0.39922
0.3958738
0.3967438
0.394565
0.3931628
0.4103994
0.3999597
0.3977385
0.3980872
0.3961172
0.3946557
0.4135603
0.4010151
0.3993172
0.3994046
0.3975311
0.3960608
0.4172119
0.4026517
0.4011472
0.4012031
0.399357
0.3979172
0.4200724
0.4045343
0.4030218
0.4031677
0.4012647
0.3998739
0.4234956
0.4066266
0.405112
0.4053818
0.4034337
0.402096
0.4273233
0.4088735
0.4074336
0.4077747
0.4058158
0.4045058
0.4313863
0.4114985
0.4099714
0.4103822
0.4084252
0.4071306
0.4355326
0.4142593
0.4127545
0.4131747
0.4112501
0.4099604
0.4400202
0.41729
0.4157868
0.416169
0.4142903
0.412999
0.4443929
0.420469
0.4190672
0.4193687
0.4175313
0.4162409
0.4506742
0.4240025
0.422603
0.4227862
0.4209697
0.4196822
0.4560319
0.4275481
0.4263433
0.4264106
0.4245906
0.4233108
0.4611708
0.4313651
0.4302781
0.4302253
0.4283761
0.4271101
0.4671859
0.4352916
0.4342954
0.4341862
0.432316
0.4310804
0.4739765
0.4388421
0.4382012
0.4382324
0.4363819
0.4351782
0.4806211
0.4423046
0.4421351
0.4424518
0.4406585
0.4395035
0.4858918
0.4468518
0.4463927
0.4468205
0.4450379
0.4438705
0.3936468
0.3895616
0.3867336
0.3841125
0.381089
0.3958898
0.3946296
0.3921524
0.3904826
0.3895149
0.387857
0.3994967
0.3967598
0.3944512
0.3952396
0.3933287
0.3916181
0.4018254
0.3979996
0.3924771
0.393419
0.3912543
0.3897729
0.4037434
0.3983184
0.393588
0.3951607
0.3929734
0.3915274
0.4061796
0.3989377
0.3945473
0.3959333
0.3935153
0.3921223
0.4075048
0.3991013
0.3958904
0.3967206
0.3945591
0.3931576
0.4101113
0.3998027
0.3977449
0.3980618
0.3961091
0.3946489
0.4133493
0.4009328
0.3993292
0.3993839
0.3975243
0.396055
0.4169193
0.4026322
0.4011614
0.401187
0.3993502
0.3979098
0.4202881
0.4045536
0.4030363
0.4031549
0.4012588
0.3998684
0.42399
0.4066698
0.4051276
0.4053711
0.4034287
0.4020896
0.4280426
0.4089966
0.4074505
0.4077721
0.4058129
0.4045028
0.4325087
0.4115035
0.4099759
0.4103791
0.4084226
0.4071275
0.4366306
0.4142829
0.4127592
0.4131768
0.4112506
0.4099616
0.4411737
0.4172815
0.4157886
0.4161734
0.4142936
0.4130015
0.4455366
0.4205303
0.4190752
0.4193835
0.4175415
0.4162511
0.4508382
0.4239143
0.4226022
0.4228037
0.4209857
0.4196977
0.4563382
0.4274869
0.4263479
0.4264394
0.424618
0.4233403
0.4614889
0.4312856
0.4302926
0.4302616
0.4284156
0.4271532
0.4675317
0.435107
0.4343001
0.4342405
0.4323756
0.4311457
0.474171
0.4385948
0.4382105
0.438309
0.4364659
0.4352779
0.4809133
0.4423203
0.4421724
0.4425504
0.4407435
0.4395888
0.4864436
0.4468677
0.4464603
0.4469842
0.4452002
0.4440802
0.3934378
0.3895762
0.3866004
0.3841462
0.3817644
0.3959234
0.3945562
0.3921952
0.3905315
0.3894886
0.3879735
0.3995907
0.3967074
0.3944024
0.3949994
0.393193
0.3914576
0.4018519
0.3979277
0.3927484
0.3934578
0.3913836
0.3898742
0.4035333
0.3982634
0.3938309
0.3950815
0.3929832
0.3914817
0.4053745
0.3988341
0.394757
0.3958578
0.3935903
0.3921315
0.4070419
0.3988989
0.3961083
0.3966296
0.3946272
0.3931445
0.4100247
0.3996624
0.3979068
0.3979521
0.3961584
0.3946227
0.4132795
0.4007655
0.3994834
0.399273
0.3975795
0.3960322
0.416569
0.4024475
0.4012958
0.4010618
0.3993956
0.3978752
0.4199544
0.4044101
0.4031775
0.4030242
0.4013102
0.3998316
0.4235193
0.4065467
0.4052793
0.4052294
0.4034793
0.402047
0.4275621
0.4089973
0.4076278
0.4076236
0.4058679
0.4044554
0.4319112
0.4115763
0.4101745
0.4102275
0.4084757
0.4070766
0.4360869
0.4143536
0.4129807
0.413022
0.4113058
0.4099057
0.4405214
0.417321
0.4160226
0.4160204
0.414343
0.4129404
0.444998
0.4206371
0.4193533
0.4192313
0.4175899
0.4161801
0.4499943
0.4240468
0.422924
0.4226434
0.4210231
0.4196133
0.4552312
0.4274509
0.4266829
0.4262429
0.4246364
0.4232337
0.4608187
0.4307556
0.4305426
0.4300046
0.4283958
0.4270088
0.4671404
0.433992
0.434399
0.4339383
0.432343
0.4309889
0.4738964
0.4373936
0.4382216
0.4379568
0.4363733
0.4350319
0.4798983
0.4415345
0.4422667
0.442247
0.4407445
0.439466
0.4851823
0.4462739
0.4465127
0.4465163
0.4449724
0.4435943
0.3935277
0.3902293
0.3881464
0.3857526
0.3829227
0.3959232
0.3945242
0.3927164
0.3914568
0.3901665
0.3885111
0.3988432
0.3960713
0.3942948
0.3944923
0.3927425
0.3910582
0.4003073
0.3967673
0.3933045
0.3935003
0.3915117
0.3900207
0.4020074
0.3973827
0.3943243
0.3950387
0.3929775
0.391523
0.4040334
0.3981786
0.395205
0.3957287
0.3935809
0.3921455
0.4063484
0.3985856
0.3965694
0.3966478
0.394716
0.3932462
0.4095784
0.3992906
0.3982683
0.3979385
0.3961893
0.3946662
0.4127945
0.4005478
0.3998722
0.3993317
0.3976623
0.3961248
0.4158732
0.4022808
0.4016914
0.4011231
0.3994735
0.3979542
0.4190678
0.4043576
0.4036002
0.4031105
0.4014093
0.3999258
0.4226131
0.4065478
0.4057599
0.4053292
0.4035959
0.4021472
0.4263697
0.4090223
0.4081471
0.4077465
0.4059994
0.4045667
0.4303746
0.4116645
0.410763
0.4103635
0.4086243
0.4071986
0.4346198
0.4144525
0.4136423
0.4131654
0.411462
0.410036
0.4391265
0.417322
0.4167536
0.4161485
0.4145095
0.4130798
0.4436651
0.4202323
0.4200974
0.4193194
0.4177517
0.4163253
0.4486352
0.4231526
0.4236702
0.4226981
0.4211761
0.4197651
0.4543025
0.4258248
0.4272998
0.4262965
0.424785
0.4233989
0.4599221
0.4293005
0.431057
0.4300995
0.4285629
0.4272053
0.4656625
0.4333994
0.434937
0.4340884
0.4325119
0.4311772
0.4713641
0.4376558
0.4389433
0.4382048
0.436611
0.4352962
0.4768495
0.4421392
0.4431179
0.4424779
0.4408431
0.4394926
0.4822717
0.4467727
0.4475562
0.4469799
0.4453549
0.4440006
0.3932804
0.3912458
0.3893072
0.3871367
0.3844368
0.3961389
0.3945447
0.3933206
0.3921608
0.3909551
0.3895431
0.3977816
0.3954897
0.3942332
0.394082
0.3926221
0.3908454
0.3991678
0.3960871
0.3938059
0.3936378
0.3919116
0.390304
0.4007039
0.396648
0.3945674
0.3947371
0.3929987
0.3913804
0.4026301
0.3972115
0.3954843
0.3955213
0.393787
0.3921664
0.4048606
0.3974347
0.3966994
0.3963657
0.3948124
0.3931717
0.4071828
0.3981823
0.3982809
0.3976343
0.3962566
0.3945842
0.4098997
0.3992146
0.3998433
0.3990012
0.3977122
0.3960369
0.4128059
0.4006464
0.4015992
0.4007352
0.399489
0.3978324
0.4158076
0.4024451
0.4034846
0.4026948
0.4014185
0.3997958
0.4190106
0.4044022
0.4055999
0.4048506
0.4035822
0.4019895
0.4223137
0.4065731
0.4079616
0.4072253
0.4059715
0.4043927
0.4260852
0.4089966
0.4105692
0.4098044
0.408578
0.4070051
0.4300063
0.4114704
0.4134569
0.4125742
0.4114028
0.4098291
0.4342792
0.4140041
0.4164841
0.415557
0.4144181
0.4128515
0.438279
0.4169086
0.4196924
0.4187761
0.4176506
0.4160858
0.4420669
0.4205004
0.4231719
0.422198
0.4210774
0.4195078
0.4465328
0.4241398
0.4268286
0.4258096
0.4246935
0.4231272
0.4516166
0.4277254
0.4305764
0.4295628
0.4284508
0.4268797
0.4568459
0.4314749
0.4344554
0.4335194
0.4324332
0.4308963
0.462063
0.4353575
0.4383948
0.4375346
0.4364477
0.4348853
0.4673206
0.439496
0.4425687
0.4419043
0.440916
0.4394972
0.4247262
0.4437006
0.446691
0.4460486
0.4449504
0.4432887
0.3935999
0.3922129
0.3899107
0.387398
0.3846981
0.3958352
0.3945906
0.3933824
0.3915955
0.3894477
0.3870966
0.3968695
0.3955096
0.3942929
0.3924722
0.389939
0.386963
0.3985832
0.3968172
0.3955732
0.3937397
0.3910672
0.38802
0.4003796
0.3983368
0.397423
0.3957422
0.3930607
0.3900052
0.4022706
0.3999332
0.3995687
0.3979671
0.3952782
0.3922122
0.4044144
0.401581
0.4019809
0.4004115
0.3977641
0.3946928
0.4065682
0.4034932
0.4046621
0.4031237
0.40053
0.3974562
0.4084966
0.4056545
0.4074946
0.4060024
0.4034608
0.4003887
0.4106305
0.4080299
0.4105333
0.4091193
0.4066209
0.4035576
0.412995
0.4106154
0.4137649
0.4124388
0.4099746
0.4069258
0.4157374
0.41345
0.4172287
0.4159607
0.4135285
0.4105032
0.4186374
0.4165299
0.4209244
0.4196996
0.4172888
0.4142872
0.4218514
0.4198359
0.4248581
0.4236615
0.42126
0.4182731
0.4254926
0.4233522
0.4290123
0.4278204
0.4254186
0.4224539
0.4293152
0.4269741
0.4333119
0.4321653
0.4297772
0.4268223
0.4329593
0.4307774
0.4377638
0.4367083
0.4343381
0.4313879
0.4368346
0.4348925
0.44246
0.4414652
0.4391046
0.4361485
0.4410379
0.4392584
0.4473762
0.4464187
0.44406
0.4410921
0.4455349
0.4438094
0.4524618
0.4515436
0.4491822
0.4461993
0.4500577
0.4484689
0.4576925
0.4568295
0.4544773
0.4514905
0.4546945
0.4532958
0.463099
0.4622577
0.4599083
0.4569248
0.4593967
0.4582931
0.4686929
0.467854
0.4655178
0.4625598
0.464245
0.4231792
0.4744443
0.4735233
0.4711305
0.4681812
0.3947455
0.3949244
0.394569
0.394753
0.3930798
0.3950689
0.3935915
0.3958138
0.3933183
0.3945403
0.3918455
0.3952552
0.3922255
0.3962398
0.3919964
0.3941533
0.3899873
0.3950267
0.3899347
0.3960614
0.390314
0.3939247
0.3878554
0.3942802
0.3874114
0.3956493
0.3883318
0.3931938
0.385239
0.3847272
0.3860157
0.3946679
0.3948121
0.3947222
0.3946288
0.3948581
0.3947037
0.3945923
0.3949211
0.3947602
0.3948059
0.3946591
0.3947484
0.3947423
0.3947708
0.39475
0.3948046
0.3947283
0.3947791
0.394886
0.3947748
0.3946954
0.3949148
0.3947553
0.3947935
0.3949664
0.3947397
0.3947077
0.3950195
0.394759
0.3947065
0.3949487
0.3947208
0.3947639
0.3948996
0.3947316
0.3948432
0.3949068
0.3945899
0.3947413
0.3947842
0.3948219
0.3947809
0.3947875
0.3947486
0.3947188
0.3947805
0.3947911
0.3947387
0.3949576
0.3945546
0.3947675
0.394759
0.3963214
0.3919892
0.3941748
0.3918516
0.3952643
0.3960654
0.3903157
0.393943
0.3899911
0.3950321
0.3956525
0.3883397
0.393197
0.3878709
0.3942821
0.3860289
0.3852504
0.3960679
0.3934112
0.3947246
0.3963341
0.3941234
0.3971201
0.3925252
0.3947455
0.3972962
0.393494
0.3982845
0.3919307
0.3943755
0.3986611
0.3930715
0.3996259
0.3914702
0.3944114
0.4001339
0.393032
0.401169
0.3912499
0.394699
0.4019354
0.3933227
0.4029408
0.3914551
0.3952631
0.4039921
0.3937923
0.4049815
0.3917137
0.3962865
0.406224
0.3944446
0.4072075
0.3921618
0.397908
0.4085655
0.3951568
0.4096512
0.3928748
0.3993549
0.4111091
0.396079
0.412279
0.3937487
0.4008841
0.4138349
0.3971898
0.4151821
0.3949058
0.4026623
0.416765
0.398475
0.4289993
0.4019269
0.4116763
0.4305457
0.4061118
0.4330195
0.4041701
0.4144639
0.4344714
0.4086078
0.4371132
0.4067776
0.4174956
0.4385659
0.411329
0.4414804
0.4096682
0.4207266
0.4428838
0.4142657
0.4460129
0.4127446
0.4241415
0.4473796
0.417363
0.4655685
0.4264722
0.4390835
0.4670551
0.433179
0.3947815
0.3947879
0.3948098
0.3937005
0.3938917
0.3949053
0.3963299
0.3941213
0.3958354
0.3960599
0.3934017
0.3947251
0.3972908
0.3934953
0.3968724
0.3971165
0.3925168
0.3947465
0.3986577
0.3930674
0.3985918
0.3982789
0.3919334
0.3943793
0.4001333
0.3930226
0.400366
0.3996187
0.3914612
0.3944093
0.4019225
0.3933033
0.4022532
0.4011499
0.391218
0.3946849
0.4039759
0.3937794
0.4043642
0.402916
0.3914285
0.3952509
0.4062036
0.3944522
0.4065656
0.4049721
0.3917104
0.3963065
0.4085758
0.3951783
0.4085038
0.4072171
0.3921834
0.3979388
0.4111277
0.3961055
0.4106885
0.4096746
0.3929239
0.3993983
0.4138697
0.3972286
0.4130592
0.4123115
0.3937654
0.4009239
0.4167935
0.3985071
0.4157514
0.4152122
0.3949202
0.4026817
0.4199388
0.4000459
0.4186584
0.4183599
0.3963115
0.4046218
0.4233101
0.4018362
0.4219123
0.4217316
0.3979667
0.4067913
0.4268633
0.4038421
0.425495
0.4253024
0.3998385
0.4090888
0.4305211
0.4060964
0.4292788
0.4289699
0.4018757
0.4116552
0.4344343
0.4085525
0.4329269
0.4329788
0.4041288
0.4144291
0.4384972
0.411251
0.4367999
0.4370471
0.406687
0.4174273
0.442789
0.4141824
0.4409715
0.4413855
0.4095444
0.4206437
0.4472653
0.4172634
0.4454182
0.4458936
0.4125947
0.4240217
0.451934
0.4205082
0.4499434
0.4505537
0.4158111
0.4275337
0.4567503
0.4239193
0.4545821
0.4553606
0.4191366
0.4311752
0.4617613
0.4275256
0.4592884
0.4603318
0.4226457
0.4350092
0.4669485
0.4330627
0.4641929
0.4654827
0.4263504
0.4389804
0.3947952
0.3947563
0.3948543
0.3948063
0.3948278
0.3948442
0.3948736
0.3948856
0.3948937
0.3948583
0.3948765
0.394862
0.3947973
0.394838
0.3948027
0.3947627
0.3947916
0.394786
0.3958346
0.393326
0.3945458
0.3930883
0.395068
0.4183289
0.3962981
0.4046221
0.4198995
0.4000387
0.4217197
0.3979749
0.4067938
0.4232967
0.4018427
0.4253046
0.3998807
0.4091044
0.4268607
0.4038534
0.4506863
0.4159453
0.4276374
0.4520609
0.4206119
0.4554951
0.4192781
0.4313136
0.4568843
0.4240388
0.4604452
0.4227481
0.4350986
0.4618829
0.4276277
0.3943235
0.3948995
0.3948565
0.3941519
0.3952108
0.3945898
0.3946424
0.39539
0.3947793
0.394805
0.3937269
0.3947319
0.3947704
0.3934516
0.3947506
0.3948163
0.3948245
0.3948221
0.3948485
0.394947
0.3948686
0.3948784
0.3948442
0.3949183
0.3948608
0.3948659
0.3948148
0.3948134
0.3947687
0.3947564
0.3947876
0.3947936
0.3943342
0.3949084
0.3948713
0.3941581
0.3952139
0.3945919
0.3946435
0.3953946
0.3944013
0.3927165
0.3929536
0.3946337
0.3926824
0.3942406
0.3940733
0.3922907
0.3932422
0.3912134
0.3915876
0.3937446
0.3909498
0.3931806
0.3927947
0.3904454
0.3917274
0.3892005
0.3896384
0.3925541
0.3889317
0.3918997
0.3913017
0.3883381
0.3899937
0.3870036
0.38732
0.3910229
0.3866268
0.3860455
0.3945988
0.3957701
0.3955562
0.3944909
0.3956047
0.3944802
0.3945012
0.3958895
0.3947042
0.3964568
0.3962052
0.3944023
0.3963126
0.3945397
0.3947579
0.3966926
0.3953444
0.3975234
0.397124
0.39474
0.3974502
0.3949212
0.3953952
0.397952
0.3961441
0.3988414
0.3983933
0.3952021
0.3987137
0.3954223
0.3960916
0.3993074
0.3970895
0.4002622
0.3998961
0.395928
0.4002318
0.3960702
0.3969948
0.4007836
0.3982001
0.4018708
0.4016827
0.3968113
0.4019384
0.396808
0.3980431
0.4024229
0.399256
0.4035505
0.4034712
0.3976906
0.4034872
0.3975555
0.3990356
0.4040396
0.4002289
0.4051851
0.4049412
0.3986398
0.4048866
0.3986137
0.4001617
0.405696
0.4067678
0.4000106
0.4015954
0.4077195
0.4032444
0.4091787
0.4085914
0.4015146
0.4089745
0.401642
0.4032987
0.4099704
0.4050941
0.4115104
0.4109189
0.4033101
0.411357
0.4034749
0.4051884
0.4124455
0.4148279
0.4228096
0.4224417
0.4127908
0.4178299
0.4261839
0.4259003
0.4157651
0.4269592
0.4161
0.4180381
0.4278692
0.4210393
0.4297729
0.4295679
0.418977
0.4306761
0.4193711
0.4212654
0.4316047
0.4244983
0.4335922
0.4334298
0.4224655
0.4346656
0.4228534
0.4247243
0.4355749
0.4281381
0.4376113
0.437554
0.426109
0.4388149
0.4264692
0.4283038
0.4396868
0.4567402
0.4385573
0.4573631
0.4438822
0.394785
0.3947917
0.3947051
0.3948236
0.3950791
0.3946775
0.3950584
0.3949248
0.3947932
0.3951308
0.394636
0.3951315
0.3946595
0.3951474
0.3949026
0.3949329
0.3950103
0.3946402
0.3948928
0.3945861
0.3948118
0.3946585
0.3946404
0.3950506
0.3949109
0.3949262
0.3950841
0.3948756
0.3951507
0.3946155
0.3951445
0.3946813
0.3950427
0.3947944
0.3947556
0.3949987
0.3945402
0.3949233
0.3947829
0.3947965
0.3942892
0.3954479
0.3951827
0.394115
0.3952309
0.3940849
0.3943366
0.3954116
0.3923244
0.3957021
0.3949252
0.3913645
0.3942309
0.3903796
0.3942817
0.3913455
0.394392
0.3958699
0.3943776
0.3955354
0.3957301
0.3934594
0.3962581
0.3939649
0.39432
0.3969416
0.3942561
0.3963546
0.3976
0.3932097
0.3991155
0.3940421
0.3987141
0.3933538
0.400649
0.3943324
0.3953668
0.4017943
0.3952733
0.4000954
0.4000456
0.3937272
0.39483
0.4023495
0.3960733
0.4037178
0.3959036
0.4017071
0.401467
0.394219
0.4041266
0.3954234
0.3967015
0.4056487
0.3965724
0.4033135
0.40293
0.394806
0.3961261
0.4060042
0.4015772
0.4070155
0.406532
0.3999512
0.4065797
0.3968734
0.4103142
0.3984663
0.4006175
0.4122299
0.4001791
0.4091122
0.4088316
0.3983509
0.4128585
0.4000669
0.4025011
0.414919
0.4019645
0.4115503
0.4112812
0.4000638
0.401887
0.4156154
0.4123553
0.4277104
0.4233551
0.4115343
0.4234795
0.4131156
0.4150531
0.4243571
0.4154464
0.4314752
0.414609
0.4268514
0.4385064
0.4224535
0.4248612
0.444845
0.4439985
0.4548137
0.4552059
0.4421232
0.4560373
0.4382083
0.4631964
0.4406727
0.3945757
0.3951985
0.3949986
0.3945047
0.39499
0.3943829
0.3945711
0.3950762
0.394788
0.3947732
0.3948009
0.3948
0.3946862
0.3950561
0.3949845
0.3950012
0.3951535
0.3946882
0.3951132
0.3946993
0.3951143
0.3947336
0.3946906
0.3950188
0.3945273
0.3950506
0.3947025
0.3948227
0.3937113
0.3939143
0.3949095
0.3948212
0.3947436
0.3947886
0.3934635
0.3937381
0.4140152
0.4134147
0.4053132
0.4071533
0.4054974
0.4150985
0.4139333
0.407288
0.416686
0.4075359
0.4094449
0.4161441
0.4077819
0.4179528
0.4167526
0.4096259
0.4196444
0.4100455
0.4120188
0.4191537
0.4103179
0.4122172
0.4210435
0.4200126
0.4417337
0.4417536
0.4298807
0.4318957
0.4301867
0.4439023
0.4430811
0.4319956
0.445969
0.4337876
0.4357613
0.4461008
0.4340238
0.4482315
0.4474554
0.4357994
0.4503248
0.4378615
0.4397971
0.4505781
0.4380181
0.4397583
0.4527101
0.4520038
0.3947442
0.3947915
0.394971
0.3947766
0.3948658
0.394832
0.3950324
0.3949335
0.3946219
0.3951491
0.3947127
0.3951069
0.3947182
0.3950918
0.3950159
0.3946994
0.3950019
0.3945069
0.3947988
0.3947606
0.3945766
0.3952008
0.394508
0.3949994
0.3949843
0.3943861
0.3950835
0.3945728
0.3950621
0.3942473
0.3943581
0.3951776
0.3944954
0.3953026
0.3951878
0.3943805
0.3912961
0.3951457
0.3900567
0.3943691
0.3954626
0.3938297
0.3958943
0.3941439
0.3940719
0.396076
0.3939065
0.3957184
0.3962727
0.3934664
0.397018
0.3940059
0.3973447
0.3934393
0.3985853
0.3941926
0.394241
0.3986797
0.3940156
0.397709
0.39849
0.3935654
0.4001601
0.3944436
0.3945723
0.4003162
0.3943149
0.3989016
0.3998713
0.3939776
0.4018825
0.3949578
0.3951313
0.4020465
0.4003444
0.3948548
0.4013954
0.3945264
0.4037655
0.3956224
0.395829
0.4038107
0.3954985
0.4019249
0.4028545
0.3951407
0.4057326
0.3962858
0.3965791
0.4056464
0.403483
0.396228
0.3988117
0.4097587
0.3983021
0.407169
0.4086826
0.3983862
0.412575
0.399903
0.4004231
0.4122448
0.3998416
0.4094717
0.4111394
0.400026
0.4152679
0.4016884
0.4022636
0.4149241
0.4119674
0.4016268
0.4265386
0.4118939
0.4318994
0.4141665
0.4383774
0.42194
0.4444816
0.4244711
0.4256731
0.4438564
0.4395028
0.4248002
0.4419609
0.4622252
0.457247
0.4411229
0.4693199
0.470874
0.4651336
0.4650037
0.4692479
0.4707797
0.4656435
0.4600374
0.4468452
0.4674319
0.4461618
0.461071
0.3957675
0.3955524
0.3945934
0.3944882
0.3946957
0.396455
0.396208
0.3943996
0.3953454
0.3975258
0.3971222
0.3947408
0.3961321
0.398834
0.3983847
0.395192
0.3970587
0.4002494
0.3998641
0.3959054
0.398166
0.401847
0.4016395
0.3967919
0.399249
0.4035476
0.4034628
0.3976819
0.4002292
0.4051881
0.4049513
0.3986493
0.4015989
0.4070381
0.4065933
0.3999684
0.4032727
0.4092058
0.4086294
0.401544
0.4051496
0.4115433
0.4109439
0.4033464
0.4071957
0.414048
0.4134345
0.4053459
0.4094645
0.4167116
0.416169
0.4075472
0.41202
0.4196449
0.4191543
0.4100381
0.4148055
0.4227885
0.4224048
0.4127577
0.4177813
0.4261395
0.4258374
0.4157125
0.4209743
0.4297177
0.4295033
0.4189149
0.4244104
0.4335173
0.4333349
0.4223759
0.4280249
0.4375055
0.4374197
0.4259913
0.4317556
0.441604
0.4416217
0.4297487
0.435648
0.445842
0.4459965
0.4336607
0.4396694
0.4502036
0.4504534
0.4377361
0.4438944
0.4547061
0.4551127
0.4420019
0.3952291
0.3940805
0.3943336
0.3954063
0.3907288
0.3951073
0.3942078
0.389243
0.3933075
0.3881511
0.3933299
0.3894704
0.3888956
0.3942304
0.3931904
0.3869758
0.3966037
0.3932027
0.3975459
0.3939328
0.3945076
0.3983991
0.3944628
0.3974316
0.394805
0.4000403
0.3947921
0.3986687
0.4304567
0.4154798
0.4177911
0.4363444
0.4223581
0.4396224
0.4215075
0.4345183
0.4260875
0.4439592
0.4252468
0.4386409
0.3955989
0.3944762
0.3944904
0.3958842
0.3963082
0.3945406
0.3947588
0.3966904
0.3974464
0.394912
0.395391
0.397951
0.398698
0.3954091
0.3960755
0.3992942
0.4002038
0.3960478
0.396965
0.4007636
0.4019161
0.3968029
0.3980267
0.4024021
0.4034836
0.3975592
0.3990384
0.4040402
0.4048922
0.3986273
0.4001774
0.4057029
0.4067924
0.400038
0.4016232
0.4077419
0.4090076
0.4016675
0.4033397
0.4100017
0.4114009
0.4035072
0.4052323
0.4124907
0.4139741
0.4055217
0.4073198
0.4151293
0.4167653
0.4077938
0.4096348
0.4179701
0.4200084
0.4103015
0.4122088
0.4210397
0.4234456
0.4130648
0.4150177
0.42433
0.4268939
0.4160481
0.4179822
0.4278189
0.4305942
0.4192936
0.4211901
0.4315342
0.434561
0.4227393
0.4246243
0.4354836
0.438684
0.42634
0.4281821
0.4395667
0.4429319
0.4300647
0.4318616
0.4437719
0.4473361
0.4339136
0.4356791
0.4481071
0.4518749
0.4379131
0.4396379
0.4525916
0.4437731
0.4421001
0.4566306
0.4572542
0.3936106
0.3950749
0.3939367
0.3950473
0.4020039
0.4185445
0.413922
0.4039325
0.420894
0.4069975
0.4062397
0.4170309
0.409545
0.4241738
0.4087437
0.4200748
0.4066219
0.4087359
0.4198764
0.4249986
0.4261367
0.4492345
0.4426894
0.4285839
0.4529538
0.4331196
0.4339407
0.4472082
0.4299835
0.453772
0.4470133
0.4324395
0.3944928
0.3952959
0.3951882
0.3943746
0.3941907
0.3898136
0.3907464
0.3944654
0.3894992
0.3943313
0.3878254
0.3934296
0.3931549
0.3874784
0.3888483
0.3934537
0.394042
0.3972161
0.3938273
0.3965993
0.4302655
0.4150062
0.4358945
0.4173584
0.4183998
0.4353811
0.4313509
0.4175494
0.3955841
0.3935172
0.3939595
0.3952552
0.4018859
0.4181478
0.4137848
0.4036913
0.4177856
0.4036385
0.404334
0.414644
0.4166432
0.4039855
0.4212102
0.405922
0.406627
0.4208476
0.405889
0.4175227
0.4197139
0.4063703
0.4245571
0.4084262
0.4092028
0.4241651
0.408427
0.4206625
0.4256042
0.4488854
0.4425903
0.4282119
0.4482534
0.4286341
0.4295102
0.4437443
0.4294245
0.4534471
0.4469019
0.4320969
0.4527667
0.432628
0.4334884
0.4480887
0.4599208
0.4593385
0.3950547
0.393598
0.3939369
0.3950783
0.3943815
0.3927069
0.3929548
0.3946191
0.3932365
0.3912139
0.3915831
0.3937386
0.391727
0.38921
0.3896357
0.3925548
0.3899875
0.3870094
0.3872735
0.3910234
0.3958738
0.3955309
0.3943896
0.3943754
0.3943263
0.3969482
0.3963544
0.394262
0.3945052
0.3983996
0.397429
0.3944663
0.3947916
0.4000337
0.3986603
0.3947816
0.3953323
0.4017794
0.400075
0.3952732
0.3960576
0.4036998
0.4016852
0.3958978
0.3967066
0.4056434
0.4033068
0.3965797
0.3975281
0.4075587
0.4049409
0.3973128
0.3989359
0.4097551
0.4068764
0.3986121
0.4006428
0.4122598
0.409137
0.4002087
0.4025458
0.4149517
0.4115816
0.4020074
0.4046668
0.4178497
0.4142256
0.4040323
0.4070064
0.420905
0.417041
0.4062637
0.4095447
0.4241754
0.4200628
0.4087465
0.4123394
0.4276791
0.4233142
0.4115208
0.4154067
0.4314301
0.4268108
0.414566
0.4186901
0.4353748
0.4304992
0.4178585
0.4222741
0.4395392
0.4344297
0.4214296
0.4259827
0.443851
0.4385286
0.4251438
0.4298206
0.4482787
0.4427456
0.4289918
0.4337851
0.4528252
0.4470826
0.4329915
0.4379302
0.4575111
0.451558
0.4371625
0.442236
0.4623451
0.4561816
0.4415165
0.3942886
0.3954457
0.3951845
0.3941141
0.3935522
0.3958348
0.3952829
0.3930355
0.3926747
0.3942377
0.3940757
0.3922795
0.390949
0.3931882
0.3927953
0.390435
0.3889284
0.3919044
0.3912993
0.3883423
0.3866221
0.3860447
0.3948569
0.3922697
0.3928477
0.3949454
0.3920114
0.3856996
0.3922383
0.3872866
0.4267171
0.4122806
0.4145386
0.4323583
0.4187505
0.4354295
0.4179144
0.4305596
0.3939589
0.395581
0.3952548
0.3935224
0.3957301
0.3934563
0.3939671
0.3962562
0.3966028
0.393202
0.3939338
0.3975469
0.3975954
0.3932035
0.3940344
0.3991148
0.3987012
0.3933374
0.3943185
0.4006318
0.4000214
0.3937013
0.3948076
0.4023175
0.4014524
0.3942049
0.3954151
0.4041045
0.4029307
0.3948069
0.3961267
0.4060045
0.4045849
0.3956654
0.3971364
0.4079854
0.4066026
0.3968983
0.3984898
0.4103351
0.4088644
0.3983856
0.4001077
0.412891
0.4113186
0.4001029
0.4019213
0.4156596
0.4139491
0.4020212
0.4039533
0.4185567
0.4167816
0.4041853
0.4062123
0.4216643
0.4198611
0.4066162
0.4087361
0.4250022
0.4231782
0.409314
0.4115097
0.4285712
0.4266651
0.4122243
0.4144856
0.4323018
0.4303837
0.4154007
0.4177166
0.4362665
0.434323
0.4187821
0.4211618
0.4404259
0.438378
0.4223204
0.4247334
0.44471
0.4425625
0.4260054
0.4284523
0.4491011
0.4468644
0.4298583
0.4323119
0.4536265
0.4513213
0.4338716
0.4363447
0.4582731
0.4559373
0.4380917
0.4405507
0.4630915
0.3958501
0.3952887
0.3930443
0.3935569
0.4178061
0.4039951
0.4141798
0.4046228
0.4167862
0.4041735
0.4216615
0.4062045
0.3950601
0.3942427
0.3943537
0.3951739
0.3952727
0.3932764
0.3936328
0.3954389
0.3928512
0.3956379
0.3921181
0.3950725
0.3918534
0.3850268
0.386637
0.3922369
0.3969621
0.3983433
0.4064088
0.4099964
0.3932792
0.3954418
0.395275