/*--------------------------------*- C++ -*----------------------------------*\
  =========                 |
  \\      /  F ield         | OpenFOAM: The Open Source CFD Toolbox
   \\    /   O peration     | Website:  https://openfoam.org
    \\  /    A nd           | Version:  7
     \\/     M anipulation  |
\*---------------------------------------------------------------------------*/
FoamFile
{
    version     2.0;
    format      ascii;
    class       volScalarField;
    location    "0.03";
    object      p;
}
// * * * * * * * * * * * * * * * * * * * * * * * * * * * * * * * * * * * * * //

dimensions      [0 2 -2 0 0 0 0];

internalField   nonuniform List<scalar> 
73374
(
1.993107
1.919043
1.886699
1.790181
1.693254
1.591614
1.621744
1.523355
1.507734
1.50982
1.49681
2.03063
2.221158
2.258668
2.379072
2.435007
2.475411
2.49855
2.519622
2.501209
2.487476
2.47749
2.012517
1.941647
1.915687
1.904004
1.883236
1.858516
1.896344
1.898899
1.889197
1.898434
1.911848
1.979593
2.034173
2.044168
2.07276
2.078932
2.067742
2.089163
2.062875
2.054629
2.05005
2.045588
1.971209
1.981509
1.97039
1.970964
1.964482
1.952433
1.965832
1.957405
1.953875
1.953515
1.952528
1.959494
1.992641
1.985631
1.995267
1.995853
1.992157
1.999041
1.993026
1.99022
1.988321
1.984968
1.950336
1.976075
1.973119
1.974302
1.973634
1.973414
1.978208
1.977614
1.978885
1.977904
1.97417
1.940122
1.968662
1.968671
1.970759
1.972576
1.974149
1.979682
1.980882
1.984101
1.983299
1.979875
1.928914
1.956155
1.957012
1.958796
1.962516
1.965849
1.972599
1.978586
1.985095
1.98995
1.991853
1.916069
1.943285
1.945204
1.947352
1.952349
1.95599
1.963727
1.969157
1.978833
1.980569
1.985173
1.901719
1.928485
1.930761
1.933066
1.939424
1.945362
1.956752
1.971973
1.989332
2.00552
2.04497
1.885405
1.911497
1.913872
1.915528
1.922145
1.925683
1.937812
1.943862
1.971415
1.963135
2.00768
1.867319
1.893114
1.895341
1.896312
1.903639
1.907828
1.925824
1.942923
1.981396
2.064221
2.14063
1.847483
1.872775
1.874593
1.873603
1.880442
1.879675
1.899341
1.905038
1.965442
1.964888
2.059073
1.826237
1.851355
1.852279
1.848448
1.854273
1.844864
1.867086
1.844947
1.912783
1.884019
1.959982
1.804654
1.829671
1.829243
1.822956
1.824587
1.810191
1.815038
1.791841
1.796128
1.752371
1.768853
1.784079
1.808016
1.806237
1.796456
1.796768
1.771819
1.779153
1.729945
1.735814
1.675309
1.623932
1.764735
1.788143
1.784846
1.77329
1.770502
1.740893
1.736338
1.680846
1.651948
1.569839
1.457848
1.74758
1.769253
1.764355
1.750635
1.747242
1.709793
1.714372
1.633353
1.608777
1.427048
1.257633
1.731813
1.401909
1.25219
2.460219
2.394436
2.331071
2.314805
2.301097
2.280453
2.291297
2.311007
2.299154
2.282868
1.930855
1.950414
1.998136
1.851513
1.856738
1.891522
1.823439
1.88161
1.95721
1.949809
1.953828
1.964275
2.008104
2.059287
2.075125
2.110169
2.131286
2.129002
2.153024
2.160325
2.139444
2.115709
2.016329
1.998062
1.986671
1.937241
1.927802
1.938058
1.917077
1.937006
1.949987
1.947401
1.945976
1.992726
2.020604
2.038421
2.065709
2.07736
2.088686
2.086625
2.08205
2.076836
2.06544
2.053681
2.002686
1.999618
1.992107
1.98425
1.978433
1.97665
1.973546
1.9751
1.975202
1.969724
1.962297
1.986925
1.99711
1.998415
2.010087
2.013611
2.016908
2.018911
2.018766
2.016694
2.011992
2.004354
1.979519
1.980946
1.978243
1.979646
1.979892
1.981329
1.98364
1.985618
1.985309
1.983189
1.978174
1.967844
1.971108
1.971437
1.975563
1.978618
1.982013
1.986097
1.989164
1.990983
1.991505
1.985514
1.956186
1.957909
1.958026
1.960674
1.963831
1.967954
1.974078
1.979927
1.986404
1.991459
1.991456
1.942479
1.944376
1.945531
1.948623
1.952973
1.95788
1.964861
1.973219
1.979601
1.992348
1.989274
1.927726
1.929262
1.930574
1.933501
1.938818
1.94461
1.955975
1.966643
1.988453
2.003328
2.038189
1.910647
1.912144
1.91353
1.916251
1.921427
1.927742
1.936971
1.953218
1.963946
2.016855
2.021759
1.892669
1.893682
1.894864
1.896345
1.902311
1.905643
1.924062
1.929836
1.97224
1.988115
2.16326
1.872594
1.873431
1.874028
1.874507
1.878169
1.882495
1.892517
1.917087
1.951104
2.044946
2.062211
1.851886
1.852115
1.851947
1.848998
1.852999
1.84449
1.866486
1.840697
1.932329
1.885258
1.941633
1.830489
1.830509
1.829004
1.823887
1.822611
1.811749
1.808059
1.7954
1.760762
1.786721
1.805549
1.809362
1.808907
1.806243
1.797377
1.795435
1.772639
1.775942
1.73171
1.727501
1.669834
1.634646
1.78933
1.788901
1.785073
1.774438
1.768459
1.742694
1.728646
1.683056
1.625541
1.532435
1.464807
1.770331
1.769835
1.765004
1.752115
1.74598
1.714384
1.708274
1.654806
1.622393
1.427986
1.148156
1.231129
2.447979
2.473008
2.37505
2.421863
2.419481
2.418835
2.555416
2.678987
2.592357
2.501426
1.932327
2.038347
1.814005
1.761858
1.675304
1.58666
1.540578
1.414668
1.281386
1.335722
1.356537
1.957457
2.130918
2.244702
2.350876
2.420028
2.491788
2.521903
2.547126
2.519559
2.516875
2.51559
1.975225
1.980446
1.85489
1.82685
1.765445
1.733515
1.704713
1.693235
1.689202
1.702086
1.718046
2.018365
2.054946
2.088554
2.142206
2.15663
2.153231
2.156187
2.137767
2.12361
2.114015
2.10585
1.983262
1.988536
1.945647
1.938302
1.924099
1.928557
1.936272
1.940689
1.942428
1.944902
1.940045
1.985116
1.998563
1.990972
1.999768
1.991387
1.998709
2.001329
2.002517
1.999551
2.001074
1.995831
1.974906
1.976515
1.968953
1.968834
1.965786
1.969181
1.971912
1.974828
1.976451
1.975908
1.971243
1.967308
1.96977
1.967561
1.96902
1.969759
1.973786
1.97763
1.981228
1.984211
1.985213
1.98033
1.956048
1.956868
1.956499
1.958054
1.961212
1.965078
1.971501
1.976965
1.98481
1.989171
1.990575
1.943079
1.944037
1.945502
1.94751
1.952178
1.956617
1.963993
1.971775
1.979288
1.988135
1.987906
1.928911
1.929407
1.931369
1.933189
1.93932
1.944378
1.957524
1.966945
1.990745
2.00352
2.032192
1.911065
1.911994
1.914106
1.916102
1.922103
1.927573
1.938904
1.952588
1.970943
1.996918
2.009175
1.893838
1.894057
1.895972
1.896483
1.903819
1.905654
1.928307
1.929565
1.984788
2.001854
2.177598
1.873265
1.873493
1.874798
1.874448
1.879484
1.88145
1.896028
1.912616
1.958371
2.011252
2.072033
1.853128
1.852475
1.853005
1.849097
1.854628
1.84426
1.870336
1.840973
1.941061
1.883854
1.923748
1.831956
1.830846
1.830003
1.823904
1.823876
1.81084
1.811284
1.790838
1.765794
1.766198
1.810133
1.811284
1.809377
1.807486
1.797387
1.797282
1.772199
1.780741
1.731987
1.735876
1.669475
1.640285
1.791559
1.789338
1.78628
1.774283
1.769819
1.741403
1.731006
1.679254
1.62766
1.52439
1.465046
1.772983
1.770318
1.76636
1.752096
1.74761
1.713773
1.712391
1.651876
1.62323
1.443675
1.145807
1.23518
2.410048
2.430347
2.382041
2.751891
2.396565
2.756271
2.678873
2.466299
2.625887
2.452217
1.940547
1.947149
1.844831
1.707856
1.473905
1.685913
1.400107
1.508921
1.606669
1.487859
1.582615
1.949227
2.08634
2.210855
2.400416
2.44527
2.504277
2.542297
2.596182
2.574177
2.574647
2.571856
1.965994
1.956498
1.861767
1.796694
1.706721
1.694469
1.652186
1.657689
1.655682
1.656841
1.675034
2.022122
2.05739
2.09977
2.17325
2.181148
2.198626
2.181409
2.151061
2.123343
2.096215
2.08433
1.984017
1.988083
1.948321
1.961319
1.953038
1.951435
1.936194
1.926372
1.928191
1.921068
1.918468
1.992454
2.009631
2.013541
2.02721
2.035329
2.032782
2.031938
2.020112
2.014605
2.00687
1.999711
1.977909
1.978665
1.975198
1.979848
1.984548
1.981218
1.988405
1.982828
1.984073
1.980606
1.974129
1.968954
1.97245
1.972113
1.976641
1.981799
1.982411
1.987229
1.988424
1.989719
1.989994
1.983271
1.957025
1.958292
1.958119
1.960961
1.963985
1.967532
1.973426
1.978699
1.985258
1.989714
1.988536
1.943038
1.944709
1.945613
1.949033
1.953062
1.958196
1.964429
1.973626
1.978282
1.993281
1.988546
1.928709
1.929842
1.930575
1.933713
1.938292
1.943897
1.955189
1.964409
1.986902
2.00044
2.026244
1.911018
1.912332
1.91301
1.916586
1.920536
1.928016
1.935293
1.951953
1.960016
2.011939
2.01652
1.893638
1.894208
1.894747
1.896465
1.901517
1.904524
1.922881
1.926659
1.969545
1.982609
2.180572
1.873036
1.873647
1.873387
1.874828
1.876672
1.88265
1.889178
1.914734
1.948752
2.020985
2.065907
1.853094
1.852737
1.851896
1.849345
1.852284
1.844031
1.866168
1.839296
1.93518
1.888493
1.916203
1.831754
1.831036
1.82886
1.824404
1.821356
1.811971
1.805042
1.793275
1.757568
1.766106
1.818052
1.81126
1.809725
1.806599
1.797988
1.795128
1.772962
1.77609
1.732878
1.730542
1.670642
1.64304
1.791624
1.789776
1.785496
1.775085
1.767605
1.742785
1.724937
1.681491
1.615543
1.521528
1.459757
1.773169
1.770876
1.765845
1.753122
1.746111
1.715949
1.70888
1.657573
1.628505
1.444141
1.142306
1.231546
2.369412
2.426615
2.490313
2.466856
2.818749
2.416861
2.699095
2.748099
2.354333
2.347493
1.943437
1.944849
1.821946
1.580882
1.727327
1.256267
1.495686
1.387492
1.255479
1.538799
1.522635
1.975415
2.113915
2.266425
2.46004
2.552575
2.695523
2.711662
2.717291
2.689616
2.640929
2.656091
1.955724
1.94079
1.82873
1.739116
1.689871
1.632224
1.604737
1.583031
1.603271
1.612934
1.629805
2.037292
2.069897
2.120558
2.178058
2.160603
2.133041
2.100895
2.0913
2.096467
2.064937
2.060655
1.975436
1.981284
1.929597
1.949281
1.894658
1.894785
1.872459
1.89724
1.909848
1.906354
1.900088
1.984484
2.007471
1.993546
2.028
1.993509
2.012745
1.987925
2.011802
2.015069
2.006496
1.990704
1.974638
1.97747
1.96662
1.977252
1.961805
1.969374
1.966086
1.979076
1.983453
1.978489
1.967841
1.96962
1.972514
1.968759
1.975988
1.97137
1.978763
1.979239
1.986473
1.989351
1.989208
1.980793
1.957846
1.959054
1.956818
1.959856
1.961095
1.966082
1.971046
1.977543
1.98533
1.988902
1.989283
1.944138
1.945045
1.945747
1.948798
1.952268
1.957868
1.964015
1.973658
1.979178
1.992004
1.989286
1.931223
1.930886
1.932296
1.933941
1.93884
1.944061
1.955996
1.964435
1.988355
1.999851
2.027419
1.908229
1.91133
1.912412
1.916285
1.9207
1.928395
1.936622
1.954569
1.965879
2.005392
2.014578
1.895302
1.894918
1.896023
1.896824
1.902379
1.904521
1.924614
1.924122
1.97584
1.987584
2.191072
1.870698
1.872533
1.872837
1.874574
1.876933
1.882671
1.89073
1.914232
1.951663
2.014267
2.064346
1.853206
1.852828
1.852366
1.849527
1.852866
1.844231
1.867731
1.839513
1.938732
1.883871
1.913804
1.831386
1.83077
1.828961
1.824393
1.821635
1.811849
1.805971
1.791802
1.757751
1.759997
1.817624
1.811727
1.80992
1.807089
1.798147
1.795664
1.773313
1.777367
1.733871
1.733153
1.654597
1.683256
1.791881
1.789807
1.785885
1.775078
1.768042
1.742632
1.726025
1.680703
1.616399
1.521755
1.441863
1.773896
1.771109
1.766466
1.753203
1.746651
1.716094
1.710267
1.658233
1.631996
1.433959
1.138172
1.227453
2.325088
2.457543
2.48462
2.938355
2.243845
2.892102
2.517878
2.591067
2.363682
2.213939
1.954747
1.926227
1.750739
1.58179
1.155536
1.392205
1.050774
1.501475
1.337868
1.585859
1.498917
1.992243
2.111822
2.267502
2.556171
2.648483
2.715261
2.730443
2.754693
2.72207
2.634509
2.669928
1.953982
1.921832
1.81566
1.72049
1.637742
1.623027
1.668565
1.640878
1.601418
1.621656
1.670111
2.038418
2.062264
2.129079
2.169805
2.179668
2.159839
2.197494
2.096171
2.087252
2.059732
2.10416
1.976251
1.971871
1.952823
1.935911
1.949383
1.9042
1.94661
1.883756
1.89624
1.890679
1.912543
1.99267
2.010213
2.019153
2.012213
2.035887
2.003586
2.031064
1.990051
1.994139
1.988182
1.99423
1.975588
1.976541
1.976744
1.971218
1.983263
1.967317
1.979204
1.96434
1.965499
1.963712
1.96362
1.966509
1.97107
1.971808
1.970859
1.980094
1.974813
1.982872
1.980323
1.982479
1.983644
1.979307
1.957627
1.958697
1.958474
1.959196
1.962824
1.964641
1.971439
1.974838
1.982013
1.985946
1.987312
1.941454
1.944069
1.945131
1.948305
1.952637
1.95714
1.963729
1.972467
1.977966
1.990664
1.988085
1.929242
1.930204
1.930929
1.933969
1.93821
1.94379
1.955475
1.963962
1.987671
1.999431
2.027245
1.910718
1.911899
1.912212
1.916748
1.920012
1.92838
1.935977
1.954667
1.965663
2.004699
2.01407
1.894122
1.894254
1.894909
1.896776
1.901664
1.90446
1.92392
1.924326
1.97689
1.989091
2.187144
1.872487
1.873296
1.872437
1.874839
1.876183
1.88268
1.889804
1.914644
1.952433
2.014357
2.062089
1.853229
1.852731
1.851914
1.849515
1.852255
1.844219
1.867002
1.839208
1.94222
1.882412
1.912368
1.831275
1.830599
1.828353
1.824286
1.820872
1.812351
1.80355
1.794883
1.74684
1.758862
1.822864
1.811069
1.809352
1.806602
1.797872
1.79476
1.772928
1.774345
1.731571
1.72323
1.64743
1.677386
1.791496
1.789469
1.785515
1.774988
1.767863
1.743314
1.726312
1.684151
1.620575
1.536493
1.446332
1.772924
1.770402
1.766058
1.75293
1.746239
1.71585
1.708715
1.656084
1.625923
1.437706
1.139207
1.756032
1.22878
2.329576
2.4643
2.624512
2.501813
2.897136
2.481403
2.557771
2.724137
2.317983
2.562355
1.960353
1.929821
1.822493
1.504702
1.720194
1.245165
1.598387
1.566988
1.38148
1.654596
1.463213
2.02271
2.120282
2.298634
2.506324
2.606345
2.729174
2.740318
2.673165
2.682049
2.538094
2.586158
1.978563
1.93788
1.832902
1.714968
1.667842
1.611265
1.606993
1.599565
1.589902
1.641347
1.633219
2.042395
2.078824
2.135517
2.179676
2.155897
2.117997
2.093247
2.096952
2.080601
2.098008
2.05554
1.984141
1.982383
1.938998
1.96818
1.901733
1.894731
1.871552
1.90859
1.905655
1.917502
1.897895
1.973329
2.014898
2.005524
2.036976
2.009929
2.02307
2.007546
2.020626
2.020471
2.017728
2.002599
1.980035
1.981616
1.976135
1.984605
1.971562
1.987724
1.979004
1.986389
1.989565
1.986076
1.971844
1.974992
1.974654
1.977565
1.979081
1.979335
1.984448
1.985824
1.990536
1.992522
1.992539
1.983464
1.965245
1.965564
1.958926
1.963896
1.963268
1.968576
1.973294
1.978855
1.985672
1.98972
1.987865
1.948151
1.946171
1.946855
1.949939
1.953294
1.958687
1.964457
1.973565
1.978303
1.992852
1.987519
1.939692
1.933866
1.935882
1.934984
1.939801
1.944268
1.955228
1.964135
1.986574
1.999811
2.027207
1.893855
1.910318
1.906779
1.915825
1.918809
1.927545
1.934355
1.951049
1.958889
2.011025
2.015448
1.89976
1.896065
1.897442
1.897115
1.901823
1.904523
1.922149
1.926021
1.968538
1.982742
2.17492
1.857874
1.869192
1.867113
1.873136
1.874509
1.881821
1.887522
1.913342
1.946007
2.019774
2.062654
1.851025
1.852518
1.85127
1.849187
1.851304
1.843673
1.863997
1.838154
1.931913
1.880351
1.910159
1.82779
1.82911
1.826696
1.82357
1.820019
1.811663
1.802842
1.793693
1.746692
1.766191
1.814165
1.811191
1.809417
1.806224
1.797778
1.793794
1.772985
1.771279
1.731248
1.718802
1.649886
1.661701
1.790267
1.788998
1.78481
1.774861
1.767416
1.743999
1.726307
1.689056
1.62788
1.557904
1.407109
1.77405
1.770784
1.766089
1.752919
1.745581
1.71542
1.706562
1.653848
1.61993
1.436987
1.10564
1.757573
1.754056
1.748225
1.735287
1.233005
2.359506
2.368304
2.303818
2.404895
2.285399
2.294406
2.257749
2.233422
2.351325
2.526325
1.955925
1.919493
1.784507
1.662007
1.526968
1.601422
1.524081
1.621456
1.571043
1.674718
1.418489
1.995961
2.110657
2.259635
2.431113
2.55525
2.556185
2.621012
2.538557
2.529183
2.464394
2.532279
1.944846
1.933236
1.811428
1.741605
1.669086
1.621334
1.615824
1.66021
1.665409
1.688137
1.694461
2.017661
2.071135
2.125072
2.179283
2.147922
2.126039
2.124948
2.144824
2.145196
2.122031
2.121453
1.976227
1.976378
1.933336
1.953513
1.92143
1.91383
1.912126
1.909473
1.913825
1.923879
1.928273
1.982106
2.005849
1.996773
2.029729
2.012296
2.007938
2.008322
1.996836
1.992434
1.997991
1.992157
1.970737
1.977493
1.967745
1.976175
1.968507
1.965567
1.967038
1.96583
1.96555
1.967884
1.963849
1.955912
1.971664
1.965992
1.97317
1.973927
1.972156
1.977031
1.97905
1.98099
1.982865
1.977993
1.966852
1.963324
1.959507
1.960416
1.962803
1.963902
1.970061
1.975082
1.982355
1.987046
1.987752
1.931557
1.942565
1.943744
1.948293
1.952186
1.956088
1.96317
1.970764
1.977723
1.986847
1.986059
1.933463
1.928675
1.931914
1.933962
1.939051
1.944404
1.95662
1.966214
1.989546
2.002639
2.031234
1.904176
1.909506
1.911631
1.916351
1.919872
1.927268
1.936899
1.951455
1.967873
1.995863
2.006747
1.886476
1.891316
1.893929
1.896179
1.90258
1.905487
1.926618
1.929194
1.982841
2.000917
2.172414
1.873849
1.87251
1.871313
1.873907
1.876478
1.880696
1.89236
1.910839
1.952516
2.008479
2.058823
1.851175
1.851229
1.851691
1.848813
1.852683
1.844239
1.866563
1.840674
1.933487
1.885149
1.913984
1.829442
1.829363
1.827476
1.823126
1.821449
1.810881
1.807059
1.791228
1.75555
1.760759
1.808089
1.808963
1.807333
1.806281
1.796693
1.794741
1.772908
1.772845
1.73186
1.719304
1.6518
1.637741
1.791277
1.788475
1.785232
1.773934
1.769436
1.743016
1.733088
1.687857
1.64177
1.557769
1.423868
1.769778
1.767638
1.76578
1.751191
1.746588
1.713553
1.708793
1.648276
1.614951
1.441623
1.112283
1.752232
1.751239
1.747983
1.733815
1.72533
1.697245
1.245475
2.42519
2.550232
2.585759
2.489664
2.737701
2.5863
2.397524
2.527871
3.188907
2.338106
1.980189
2.023405
1.759885
1.679679
1.686457
1.525918
1.595102
1.731927
1.707991
1.741236
1.824075
1.991828
2.133399
2.28196
2.409354
2.520985
2.542616
2.581467
2.461487
2.481002
2.220458
2.273338
1.948919
1.977262
1.829415
1.771013
1.703346
1.64911
1.658264
1.704866
1.714539
1.811318
1.78429
1.962949
2.096843
2.11366
2.184008
2.16863
2.14446
2.143213
2.165025
2.14867
2.110659
2.101363
1.92242
1.988394
1.950265
1.97661
1.952845
1.94925
1.946438
1.968587
1.961383
1.94655
1.941973
1.945174
2.005335
2.002818
2.027212
2.030809
2.03291
2.032013
2.037508
2.03131
2.023142
2.010832
1.992664
1.986201
1.985778
1.984738
1.98937
1.98896
1.98787
1.992471
1.988865
1.985717
1.974336
2.004268
1.974141
1.983036
1.976895
1.986193
1.985771
1.989736
1.992537
1.993611
1.993562
1.984879
1.940992
1.987759
1.961133
1.966881
1.96534
1.970127
1.975265
1.980257
1.986248
1.991143
1.989368
1.888681
1.94526
1.949103
1.950187
1.954069
1.95853
1.964952
1.9729
1.978865
1.991676
1.987679
1.864822
1.933403
1.941781
1.935548
1.94164
1.944973
1.955923
1.965895
1.987275
2.002149
2.037553
1.851202
1.906179
1.897166
1.917186
1.91688
1.926936
1.934719
1.95093
1.960783
2.015397
2.019046
1.920611
1.896651
1.901583
1.896928
1.903025
1.905265
1.922247
1.928241
1.968926
1.986223
2.156105
1.847358
1.865989
1.85715
1.872062
1.873145
1.880507
1.888743
1.912456
1.942464
2.040291
2.066818
1.856832
1.85303
1.84961
1.84873
1.851077
1.843465
1.862058
1.838141
1.917817
1.88435
1.9138
1.825757
1.82729
1.824157
1.822236
1.820164
1.810638
1.806281
1.79428
1.759673
1.782746
1.802483
1.809575
1.807494
1.805701
1.796655
1.793545
1.772706
1.770722
1.731902
1.719771
1.658748
1.633899
1.784956
1.787109
1.783446
1.773945
1.768032
1.744896
1.730631
1.695273
1.641187
1.583124
1.449035
1.773458
1.768152
1.765894
1.751411
1.74538
1.714568
1.705976
1.654092
1.61979
1.439195
1.122453
1.762251
1.752054
1.748664
1.734136
1.724708
1.699094
1.676865
1.655364
1.255741
2.480229
2.475662
2.445382
2.388993
2.384987
2.334069
2.280443
2.288426
2.40966
2.89539
2.023629
1.970453
1.814694
1.761173
1.683794
1.645986
1.636854
1.705106
1.691559
1.825266
1.637877
1.999046
2.166681
2.230779
2.350743
2.444261
2.455643
2.49509
2.393364
2.446543
2.263816
2.435822
1.931698
1.945858
1.836004
1.783204
1.714265
1.665837
1.671809
1.709524
1.743033
1.783391
1.804296
1.965876
2.085677
2.115005
2.171808
2.157012
2.141512
2.13275
2.150081
2.137349
2.11754
2.100715
1.900781
1.968506
1.951813
1.96832
1.956027
1.948719
1.947665
1.944419
1.940612
1.950002
1.93826
1.903264
2.00147
1.991046
2.008107
2.008478
2.006121
2.005662
2.004271
1.996533
2.004263
1.98752
1.894724
1.978427
1.97087
1.975052
1.97576
1.970614
1.974079
1.974256
1.973884
1.977606
1.968955
1.849969
1.97281
1.970142
1.972124
1.977449
1.973605
1.980216
1.98128
1.983819
1.986116
1.978757
1.896732
1.963833
1.962259
1.961285
1.96475
1.965996
1.972345
1.977918
1.983694
1.989547
1.989617
1.941994
1.94529
1.949103
1.948768
1.953433
1.9561
1.963445
1.968501
1.977662
1.979733
1.983558
1.851538
1.917661
1.936375
1.932731
1.940969
1.945147
1.956258
1.970635
1.987893
2.00403
2.043522
1.841
1.910351
1.910614
1.915268
1.919464
1.924836
1.935741
1.941862
1.967817
1.959746
2.00383
1.81342
1.880096
1.901728
1.894898
1.903941
1.907144
1.923857
1.940948
1.977604
2.058723
2.134444
1.801379
1.872291
1.866542
1.87252
1.876297
1.877942
1.895498
1.900337
1.959859
1.959774
2.049366
1.789314
1.84849
1.851704
1.84764
1.852237
1.843822
1.86264
1.841935
1.899898
1.877745
1.950812
1.759802
1.827328
1.82621
1.821679
1.822188
1.808368
1.813533
1.782473
1.797408
1.763399
1.774524
1.744801
1.803841
1.805794
1.794975
1.794353
1.77217
1.771393
1.730139
1.713172
1.652149
1.620404
1.751145
1.788276
1.784002
1.773075
1.770605
1.743063
1.740948
1.694974
1.681173
1.580804
1.412753
1.696475
1.76031
1.766434
1.748615
1.746548
1.709006
1.711676
1.623541
1.599592
1.414058
1.177651
1.659407
1.743787
1.750231
1.732002
1.727632
1.696209
1.692912
1.641054
1.648501
1.421763
1.256537
2.149172
2.274871
2.176235
2.177118
2.205104
2.179965
2.189712
2.334466
2.362934
2.001617
1.930366
2.189718
2.262009
2.363375
2.421661
1.993095
1.884328
2.226708
2.333298
2.340931
2.508348
1.92481
1.897936
2.280268
2.266741
2.346092
2.605115
1.95525
1.94064
2.198941
2.24273
2.34416
2.681644
1.951661
1.924061
2.147847
2.224305
2.318922
2.68115
1.981011
1.945501
2.085232
2.175969
2.300155
2.62474
1.97836
1.951836
2.04001
2.158085
2.279642
2.574139
1.977493
1.976105
2.015731
2.146604
2.269655
2.528644
1.983998
1.987603
1.994516
2.124887
2.260025
2.494021
1.980892
1.979896
1.734456
2.170588
2.175271
1.851793
1.82604
2.06602
2.132726
1.977496
2.174611
2.111178
1.954857
1.978997
2.215568
2.112704
1.935323
2.142152
2.116115
1.940257
1.982875
2.080811
2.054369
1.916243
2.135589
2.100373
1.913412
1.987426
2.108856
2.045437
1.903631
2.121285
2.086946
1.907276
1.961023
2.084126
2.018092
1.897859
2.110428
2.07551
1.89819
1.948349
2.077484
2.007473
1.889737
2.098208
2.063962
1.891584
1.937412
2.06478
1.997636
1.882035
2.085019
2.051596
1.883217
1.927484
2.052858
1.987928
1.872635
2.069961
2.037553
1.874112
1.917114
2.038829
1.976054
1.861735
2.053474
2.022087
1.863238
1.905144
2.023345
1.962576
1.849223
2.035087
2.00502
1.850834
1.891524
2.006162
1.947344
1.83469
2.014725
1.986003
1.836249
1.875822
1.986934
1.93001
1.818442
1.992609
1.965427
1.820237
1.858539
1.96658
1.911249
1.800214
1.968813
1.943056
1.802399
1.83938
1.944693
1.890579
1.780691
1.94445
1.91934
1.783586
1.819256
1.922306
1.868797
2.274052
1.833834
1.961514
2.256934
1.813048
1.760722
1.920794
1.894345
1.764946
1.798701
1.899935
1.846477
1.709861
1.783411
1.745561
1.741153
1.897601
1.870014
1.746999
1.778436
1.878004
1.823841
1.540406
1.619465
1.593787
1.723244
1.876434
1.845922
1.730809
1.759218
1.857713
1.801548
1.304995
1.413198
1.333837
1.707015
1.856333
1.822329
1.716612
1.741079
1.839503
1.779167
1.250097
1.212605
1.15862
1.14122
1.249377
1.693197
1.703348
1.725159
2.262068
2.132386
2.149935
2.315397
2.135352
2.086122
2.267234
1.790969
1.919036
2.265407
1.786196
1.140288
1.254253
1.144442
1.135733
1.262553
2.341413
2.123619
2.110671
2.304922
2.142602
2.086749
2.263906
1.780826
1.918806
2.260224
1.776368
1.127487
1.262093
1.143348
1.127422
1.256549
2.396648
2.114864
2.081953
2.317567
2.148275
2.0863
2.26178
1.778097
1.912022
2.263726
1.773597
1.123744
1.256422
1.139286
1.118464
1.249689
2.421632
2.131037
2.078882
2.351616
2.148661
2.113004
2.263756
1.777538
1.911577
2.265612
1.770443
1.118604
1.246193
1.145533
1.116131
1.245445
2.356968
2.146813
2.117047
2.454252
2.141441
2.099804
2.265247
1.777568
1.910556
2.261548
1.769884
1.120564
1.237583
1.118209
1.121145
1.239599
2.317583
2.154842
2.113887
2.417767
2.148838
2.094738
2.261111
1.775076
1.912991
2.257983
1.77485
1.136078
1.244707
1.109604
1.139546
1.251864
2.321008
2.161541
2.10607
2.407725
2.142485
2.114638
2.255918
1.771035
1.918067
2.258566
1.776035
1.14612
1.254706
1.115518
1.145796
1.259085
2.324575
2.160884
2.13422
2.368138
2.159243
2.152365
2.260561
1.77747
1.932917
2.259738
1.784321
1.147549
1.255696
1.148217
1.148215
1.259745
2.326309
2.165526
2.239215
2.694988
2.249178
2.356048
2.028103
2.044404
2.281379
2.034964
2.129964
2.438819
2.121703
2.110204
2.799099
2.041591
2.069185
2.476061
2.051005
2.008951
2.589564
2.168169
2.254514
2.422078
2.014647
2.017237
2.136548
2.258831
2.312517
1.911068
1.927737
2.403517
1.842119
2.083604
2.448894
1.873021
1.876709
1.940621
2.118944
1.892269
2.053572
2.082548
1.849754
2.072885
1.978204
2.050066
2.082439
1.946254
2.116364
2.163576
1.902982
2.046244
2.040401
1.959793
1.856216
2.068085
1.938836
2.044616
2.065713
1.927741
2.147695
1.92757
2.046005
1.999102
1.89067
2.061149
1.874162
2.036776
2.040264
1.86336
2.073628
1.887402
2.033876
2.047767
1.859755
2.072121
1.874833
1.954879
1.998211
1.861236
2.058245
1.863045
1.954104
1.977223
1.838557
2.02683
1.868847
1.983236
1.958209
1.827389
1.952183
2.253664
1.806552
1.946182
2.265457
1.800463
1.614779
1.605571
1.602473
1.393789
1.457737
1.34477
1.156938
1.267395
1.293637
1.263572
1.223707
2.087806
2.021294
2.403895
1.961464
2.189834
1.93443
2.335534
2.149344
2.355007
1.866914
2.29294
2.187121
2.330822
2.011601
2.294161
2.272893
2.297384
2.155187
2.311143
2.247133
2.273548
2.134785
2.232419
2.093004
2.297579
2.16319
2.193969
2.025044
2.266142
2.10926
2.166303
1.978649
2.238827
2.073606
2.156076
1.955162
2.22777
2.058764
2.14731
1.934584
2.217768
2.047573
2.168631
1.963427
2.027514
1.995314
2.001733
2.110957
2.097957
2.200075
1.995914
2.119732
2.021153
2.017071
2.149238
2.156851
2.164619
1.99836
2.103481
1.994146
1.995206
2.118002
2.137546
2.142742
1.960713
2.094602
1.957229
1.952836
2.113472
2.117224
2.126188
1.951578
2.087608
1.951902
1.947577
2.102285
2.105298
2.114316
1.940973
2.07715
1.941179
1.93756
2.090988
2.094508
2.102765
1.932794
2.068335
1.933091
1.930165
2.080929
2.084452
2.090427
1.923637
2.058395
1.923812
1.921596
2.069868
2.073484
2.076668
1.913423
2.047013
1.913569
1.911892
2.057527
2.061118
2.061217
1.901534
2.034064
1.901647
1.900485
2.043416
2.047187
2.044148
1.888063
2.019283
1.888117
1.887546
2.027518
2.03152
2.025259
1.872576
2.002155
1.872558
1.872776
2.00936
2.013659
2.004585
1.855257
1.982883
1.855209
1.856
1.989374
1.993786
1.98208
1.836244
1.961589
1.836116
1.837415
1.96743
1.971966
2.123995
2.129104
2.184423
2.057427
2.10871
2.128433
2.194065
1.957833
1.815942
1.938993
1.8157
1.817491
1.944188
1.948591
1.931858
1.795471
1.915095
1.795074
1.79748
1.919471
1.92358
1.906662
1.776348
1.891822
1.77535
1.778616
1.895279
1.89994
1.881308
1.75847
1.869306
1.757072
1.761138
1.87148
1.876822
1.856946
1.742951
1.84779
1.741066
1.746231
1.848551
1.855158
1.834247
1.729447
1.826868
1.726954
1.733277
1.826591
1.834585
2.02389
1.932565
2.124325
2.126168
2.180884
2.073315
2.130841
2.125253
2.180547
1.316117
1.4596
1.315482
2.009192
1.911573
2.124991
2.137502
2.178286
2.063819
2.120271
2.132122
2.175139
1.323079
1.458215
1.319327
1.992501
1.917461
2.122226
2.136009
2.176445
2.065795
2.123857
2.134212
2.175294
1.322222
1.454811
1.315325
1.998677
1.905592
2.123696
2.135891
2.177121
2.062705
2.123661
2.135096
2.176997
1.321581
1.457901
1.316639
1.900886
2.018669
2.122821
2.134043
2.176281
2.062337
2.122044
2.1339
2.175222
1.329122
1.434828
1.415146
1.393952
1.868237
2.035794
2.121206
2.131188
2.172362
2.061579
2.118233
2.132654
2.172723
1.358289
1.408874
1.423238
1.359747
1.432468
1.909156
2.021856
2.116437
2.127132
2.170852
2.066193
2.119775
2.1313
2.172855
1.363816
1.432972
1.437367
1.374859
1.423032
1.967902
2.038129
2.125237
2.118823
2.176398
2.055744
2.1172
2.116843
2.173478
1.439403
1.406167
1.458254
1.339169
2.036318
2.067261
2.387653
2.020175
1.977068
2.544314
2.407399
2.04048
2.257816
2.323023
2.012556
1.94785
2.145804
2.207304
2.294575
2.008809
1.980144
2.02833
2.130092
2.280323
2.011434
2.019411
1.944942
2.131863
1.900715
2.017367
2.035265
1.869646
2.11649
1.932605
2.064577
2.027298
1.894416
2.032572
1.869742
1.898847
1.925348
1.820561
1.947072
1.974711
1.844208
1.967704
1.889604
1.847568
1.790171
1.941482
2.101119
2.118561
2.187279
2.052833
2.114702
2.11419
2.173846
1.827472
1.90463
1.868053
1.79152
1.906696
1.798306
1.8837
1.84684
1.765088
1.893181
1.731505
1.712992
1.740159
1.778449
1.8456
1.837908
1.734994
1.873476
1.847784
1.761878
1.83192
1.824116
1.71128
1.834372
1.745502
1.802788
1.792826
1.700031
1.832537
1.726662
1.741401
1.71026
2.02064
2.052842
2.284705
1.919554
2.285881
2.022279
2.184191
2.191617
2.089247
2.276438
1.906639
2.049726
2.253581
1.920337
2.412031
2.007967
2.379781
1.895833
2.321723
2.201849
2.301095
2.17313
2.267103
2.270386
2.294668
2.155926
2.316449
2.272216
2.284806
2.207821
2.295092
2.184174
2.296107
2.205986
2.276048
2.064047
2.261648
2.150129
2.228984
2.01036
2.249231
2.132702
2.208997
1.971776
2.239275
2.124548
2.198141
1.953572
2.218504
2.10967
2.181373
1.928565
2.160738
2.034751
2.096176
2.110601
2.130277
2.082225
2.091085
2.178716
2.07009
2.12312
2.101555
2.081157
2.090422
2.138788
2.098696
2.032354
2.077387
2.065236
2.055897
2.038338
2.082232
2.088751
2.034988
2.064012
2.063319
2.062108
2.028877
2.064669
2.070623
2.024787
2.050492
2.049268
2.048541
2.015466
2.050562
2.059067
2.015359
2.041272
2.040489
2.038772
2.007618
2.040293
2.04577
2.005118
2.030717
2.029647
2.027063
1.998045
2.028765
2.031903
1.993774
2.019268
2.018141
2.014725
1.987735
2.016268
2.016236
1.980209
2.005914
2.004774
2.000824
1.975588
2.001821
1.998897
1.96557
1.990968
1.989795
1.984985
1.961799
1.985834
1.97976
1.949065
1.974045
1.972836
1.967088
1.946039
1.967923
1.958403
1.930534
1.955055
1.953693
1.946522
1.928015
1.94777
1.93528
1.909653
1.93451
1.932753
1.924102
1.908243
1.925867
1.910136
1.886891
1.912552
1.910129
1.899755
1.886781
1.902351
1.884338
1.86361
1.890427
1.886762
1.874646
1.864965
1.878801
2.081141
2.027226
2.26075
1.983775
2.007852
1.622647
1.74919
1.717016
1.802552
2.055456
2.255823
1.969849
1.978735
2.114543
1.859073
1.841036
1.869883
1.86404
1.849962
1.844523
1.856989
1.769967
1.725835
1.690629
1.751104
1.685816
1.710824
1.736188
1.714848
1.83513
1.818378
1.849731
1.842215
1.826277
1.825109
1.835938
1.665233
1.655982
1.617642
1.62942
1.543574
1.524334
1.547591
1.581892
1.814122
1.798829
1.831689
1.822457
1.804362
1.808497
1.817444
1.400252
1.456505
1.423142
1.359697
1.248132
1.089738
1.069676
1.305243
1.795455
1.780547
1.815098
1.805323
1.785308
1.794436
1.800482
-0.1484957
1.007387
-1.887014
0.8239288
-1.889219
-0.2302922
-0.2541869
0.8853944
-2.204346
0.8792896
-2.188798
-0.3193667
1.956216
2.019444
2.128961
1.981965
2.262937
2.114982
1.973847