/*--------------------------------*- C++ -*----------------------------------*\
  =========                 |
  \\      /  F ield         | OpenFOAM: The Open Source CFD Toolbox
   \\    /   O peration     | Website:  https://openfoam.org
    \\  /    A nd           | Version:  7
     \\/     M anipulation  |
\*---------------------------------------------------------------------------*/
FoamFile
{
    version     2.0;
    format      ascii;
    class       surfaceScalarField;
    location    "0.05";
    object      phi;
}
// * * * * * * * * * * * * * * * * * * * * * * * * * * * * * * * * * * * * * //

dimensions      [0 3 -1 0 0 0 0];

internalField   nonuniform List<scalar> 
234023
(
2.410855e-10
-3.185094e-09
1.441771e-09
4.112055e-10
5.181833e-10
3.600407e-10
5.28523e-10
4.388845e-09
-6.30903e-09
1.822305e-09
5.326314e-10
8.670738e-09
-1.096053e-08
2.152288e-09
5.040954e-10
1.43369e-08
-1.745246e-08
3.152516e-09
4.278424e-10
2.211578e-08
-2.725118e-08
4.978105e-09
7.406834e-10
3.410669e-08
-4.180728e-08
7.684024e-09
1.068902e-09
5.248894e-08
-6.513035e-08
1.225994e-08
1.634527e-09
8.143942e-08
-1.013052e-07
1.889366e-08
2.165551e-09
1.273464e-07
2.843415e-08
1.938262e-09
-1.569885e-07
-5.994058e-10
-7.54499e-10
3.443072e-09
2.294033e-10
-6.519817e-10
-5.876168e-10
-8.696421e-10
-1.849125e-08
2.151741e-08
2.297075e-09
1.577473e-09
2.421153e-09
2.502262e-09
2.37206e-09
-2.568553e-09
-3.623132e-09
-3.197071e-09
-4.020403e-09
-3.253878e-08
2.903914e-08
3.475548e-09
-2.949129e-09
-5.122998e-09
-4.089483e-09
-5.110413e-09
-5.347347e-08
4.280516e-08
4.184923e-09
-3.940076e-09
-7.729022e-09
-5.684515e-09
-7.375349e-09
-8.532047e-08
6.460149e-08
5.138203e-09
-5.564409e-09
-1.119247e-08
-8.57465e-09
-1.108868e-08
-1.341932e-07
1.007666e-07
6.700177e-09
-8.607375e-09
-1.748708e-08
-1.333351e-08
-1.720058e-08
-2.093662e-07
1.573444e-07
9.076786e-09
-1.319773e-08
-2.740421e-08
-2.092139e-08
-2.696363e-08
-3.259534e-07
2.473856e-07
1.204669e-08
-2.097315e-08
-4.294893e-08
-3.308308e-08
-4.26107e-08
3.883028e-07
1.59714e-08
-3.245554e-08
-6.676415e-08
-5.204686e-08
-6.52049e-08
-5.109914e-07
-3.938484e-09
-3.935885e-10
4.246872e-09
1.945428e-10
-1.060399e-08
2.540037e-08
2.159408e-09
3.093484e-10
1.971708e-09
1.418408e-09
1.55206e-09
-1.837981e-08
3.458365e-08
3.198444e-09
-2.992602e-08
5.154142e-08
3.881936e-09
-4.7581e-08
7.825473e-08
5.289161e-09
-7.473463e-08
1.228399e-07
6.667758e-09
-1.164114e-07
1.913534e-07
9.786019e-09
-1.81194e-07
3.007943e-07
1.350811e-08
4.728534e-07
1.956539e-08
-2.833982e-07
-4.693202e-09
3.40233e-10
4.179799e-09
2.211147e-10
1.434202e-09
2.342219e-08
2.884828e-09
-1.171399e-09
4.027465e-10
-4.090333e-10
-5.150131e-11
1.916149e-09
3.263025e-08
2.303624e-09
3.422405e-09
4.844145e-08
2.499813e-09
5.60708e-09
7.414598e-08
3.18271e-09
9.551293e-09
1.164894e-07
4.159213e-09
1.792207e-08
1.831178e-07
1.756941e-09
3.203465e-08
2.887127e-07
1.478363e-10
4.574027e-07
-4.859008e-09
5.411002e-08
-3.99609e-09
5.873928e-10
3.285977e-09
3.216021e-10
1.109223e-08
3.690058e-09
1.720098e-09
-2.040829e-09
-7.835261e-10
-1.564413e-09
-1.284743e-09
4.180715e-09
4.618471e-09
4.677343e-09
1.8528e-08
4.970158e-09
1.903104e-09
6.407579e-09
6.397823e-09
6.289292e-09
3.062062e-08
6.889596e-09
1.984379e-09
9.630144e-09
9.327665e-09
9.303555e-09
4.899092e-08
1.040258e-08
2.482218e-09
1.499001e-08
1.465047e-08
1.474911e-08
7.862022e-08
1.635728e-08
2.535557e-09
2.34279e-08
2.297134e-08
2.325378e-08
1.249157e-07
2.532544e-08
2.61488e-09
3.745026e-08
3.619477e-08
3.746278e-08
1.982157e-07
4.007447e-08
1.093648e-09
5.943544e-08
5.695675e-08
6.002027e-08
6.430855e-08
-2.086913e-09
9.438594e-08
9.069444e-08
9.614517e-08
3.141623e-07
-2.938921e-09
7.061393e-10
1.973327e-09
4.968711e-10
-1.919083e-09
2.547439e-09
2.308241e-09
1.134131e-09
-3.878448e-09
5.204089e-09
2.836113e-09
1.426905e-09
-7.448916e-09
8.68879e-09
4.239949e-09
1.623601e-09
-1.162458e-08
1.41059e-08
6.505892e-09
2.071107e-09
-1.969784e-08
2.362046e-08
1.04952e-08
2.828459e-09
-3.191916e-08
3.762055e-08
1.644297e-08
4.327779e-09
-5.147015e-08
6.033552e-08
2.619485e-08
6.454656e-09
-8.248468e-08
9.665555e-08
4.25124e-08
9.085595e-09
-1.318861e-07
6.869944e-08
1.399753e-08
1.529932e-07
-1.026594e-07
1.615207e-11
-9.842379e-12
-2.603162e-11
2.032237e-10
-1.854824e-11
-6.38975e-10
4.649762e-11
6.108847e-10
-2.842273e-11
1.491753e-10
-1.151387e-09
-1.884588e-10
1.250409e-09
1.770591e-10
2.69424e-10
-2.47261e-09
1.210189e-10
2.249349e-09
6.263095e-11
2.486149e-10
-3.808515e-09
-1.700322e-10
3.559382e-09
3.22501e-10
6.155951e-10
-6.62642e-09
5.458171e-10
6.039405e-09
-3.016056e-11
4.999623e-10
-1.060414e-08
5.492945e-10
9.213448e-09
2.237891e-10
9.884678e-10
-1.620465e-08
8.014305e-10
1.457064e-08
3.183241e-10
1.243529e-09
-2.62721e-08
9.074454e-10
2.395845e-08
6.429034e-10
1.85542e-09
-4.258107e-08
5.730083e-10
3.761972e-08
1.295257e-09
3.729239e-09
0.0003396114
2.695315e-05
-1.608692e-05
-0.001434994
-9.043521e-05
0.0003353873
0.0004227976
0.0004167662
0.0003434319
1.105462e-05
-7.734269e-06
-9.685676e-05
-0.001441398
0.0003410467
0.0004271156
0.0004233404
0.000347133
7.772581e-06
-6.514999e-06
-9.588422e-05
-0.001457875
0.0003448239
0.0004321529
0.0004283914
0.0003508981
9.253293e-06
-8.216007e-06
-9.613492e-05
-0.00147468
0.0003484716
0.000437123
0.0004332853
0.00035559
1.15352e-05
-1.020054e-05
-9.710466e-05
-0.001495354
0.0003530105
0.0004432274
0.0004392957
0.0003613627
1.4101e-05
-1.2328e-05
-9.853257e-05
-0.001520582
0.0003586031
0.0004507135
0.0004466622
0.0003682599
1.682035e-05
-1.46079e-05
-0.0001003345
-0.001550541
0.000365298
0.0004596495
0.0004554561
0.0003763692
1.979911e-05
-1.718346e-05
-0.0001024181
-0.001585675
0.0003731646
0.0004701486
0.0004657946
0.0003857906
2.306044e-05
-2.013796e-05
-0.0001044819
-0.001626712
0.0003822537
0.0004823853
0.000477842
-0.0004442132
-0.02305978
-0.001115598
0.000718803
-0.001025558
0.0005943892
-0.0003418896
0.005586979
0.00573112
0.006707987
0.006647763
-0.0005440519
-0.0230781
-0.001827955
0.005826236
0.005792808
0.006711326
0.006675524
-0.0005556288
-0.02314715
-0.002056824
0.005886245
0.005851616
0.006745694
0.006731995
-0.0006269724
-0.02333532
-0.002090926
0.005955554
0.005919159
0.006813182
0.006809698
-0.0007335282
-0.02362361
-0.002129393
0.006043493
0.006000713
0.006907845
0.006907511
-0.0008637076
-0.02400946
-0.002158467
0.006148981
0.006097669
0.007025423
0.007026037
-0.001010028
-0.02447655
-0.002196273
0.006273514
0.006212605
0.007166097
0.007166925
-0.001173972
-0.02502836
-0.002241299
0.006419737
0.006348207
0.007332181
0.00733348
-0.02566488
-0.002296849
0.006589214
0.007524807
-0.001357322
0.006505121
0.007525935
-0.0003607276
-0.02264728
-0.0002382001
0.001039227
-0.0009631831
0.0005126112
-0.00040223
-0.000549733
-0.02237189
-0.0005172015
-0.0007307106
-0.0223897
-0.0005764696
-0.0009091297
-0.0225188
-0.000638108
-0.001105487
-0.02277998
-0.0006472773
-0.001315564
-0.02313597
-0.0006634145
-0.001542719
-0.02357741
-0.0006719836
-0.001789715
-0.02409654
-0.0006848233
-0.02469505
-0.0006995296
-0.00206001
-0.0005735472
-0.02236229
-5.589567e-05
0.001061654
-0.0009102559
0.0005576269
-0.0003645671
-0.0007623972
-0.02208726
-9.578509e-05
-0.0009854302
-0.02207041
-9.626121e-05
-0.001220451
-0.02217533
-0.0001084423
-0.001476896
-0.02241291
-0.000110621
-0.00175285
-0.02274717
-0.000112844
-0.002051919
-0.02316529
-0.0001130499
-0.002376136
-0.02365791
-0.0001144156
-0.02422521
-0.0001162447
-0.002729732
-0.0005858323
-0.02204293
-2.443669e-05
0.00103208
-0.0008976957
0.0005314997
-0.0003749815
-0.00087055
-0.02175504
-4.750555e-05
-0.001174381
-0.02172804
-3.853933e-05
-0.001483888
-0.02181456
-5.126248e-05
-0.001811122
-0.02203488
-5.080171e-05
-0.0021561
-0.02234795
-5.424213e-05
-0.002525436
-0.02274209
-5.386583e-05
-0.002922492
-0.02320618
-5.466863e-05
-0.02373945
-5.530007e-05
-0.003352956
-0.0007045254
-0.02168301
-2.049363e-05
0.001031066
-0.0008662652
0.0005506479
-0.0003503484
-0.00103565
-0.02139893
-2.498354e-05
-0.001392403
-0.02136781
-3.472202e-06
-0.001757796
-0.02144347
-5.69326e-06
-0.002143485
-0.02164697
-2.218889e-06
-0.002549562
-0.02193906
-2.811051e-06
-0.002982843
-0.02230737
-1.43271e-06
-0.003447028
-0.02274087
-1.127384e-06
-0.02323706
-1.054127e-06
-0.003948363
-0.000781295
-0.02126862
-2.56346e-05
0.001022142
-0.0008413366
0.0005501554
-0.0003384206
-0.001170806
-0.02098452
-2.490075e-05
-0.001584626
-0.02094787
-6.123856e-06
-0.002007721
-0.02101269
-7.691917e-06
-0.002451306
-0.02119932
-4.063065e-06
-0.002916038
-0.02146976
-4.572203e-06
-0.003409103
-0.021811
-3.301181e-06
-0.003934772
-0.02221183
-3.368378e-06
-0.02266868
-3.684784e-06
-0.004499464
-0.000878979
-0.02080634
-3.009613e-05
0.001015646
-0.0008115175
0.0005609054
-0.0003182398
-0.001312357
-0.0205245
-2.663809e-05
-0.001774063
-0.02048225
-3.915723e-06
-0.002246821
-0.02053665
-3.278484e-06
-0.002741655
-0.02070605
1.567066e-06
-0.003258876
-0.02095441
1.877284e-06
-0.003805857
-0.02126757
3.547062e-06
-0.004386705
-0.02163465
3.6707e-06
-0.02205094
3.303026e-06
-0.005007746
-0.0009618059
-0.02029728
-3.425671e-05
0.001005516
-0.0007826174
0.0005654226
-0.0003013225
-0.001439702
-0.02001773
-2.887794e-05
-0.001947169
-0.01996912
-5.65751e-06
-0.002466446
-0.02001274
-4.636764e-06
-0.003008353
-0.0201645
3.584712e-07
-0.003573329
-0.02039031
8.716905e-07
-0.00416843
-0.02067505
2.576787e-06
-0.004797853
-0.02100796
2.727979e-06
-0.02138339
2.17082e-06
-0.005467576
-0.001042727
-0.01974559
-3.817503e-05
0.0009939653
-0.0007521269
0.0005704345
-0.0002830595
-0.001559574
-0.01946907
-3.18049e-05
-0.002107913
-0.01941429
-6.489106e-06
-0.00266871
-0.01944696
-4.977805e-06
-0.003252586
-0.01958119
5.634713e-07
-0.003859797
-0.01978439
1.28696e-06
-0.004497307
-0.02004072
3.184221e-06
-0.005168924
-0.02033973
3.38722e-06
-0.02067508
2.773672e-06
-0.005880006
-0.001115416
-0.01915494
-4.132324e-05
0.0009797613
-0.0007213224
0.0005732371
-0.0002655826
-0.00166809
-0.01888192
-3.447702e-05
-0.002253728
-0.01882117
-7.483729e-06
-0.002851926
-0.01884294
-5.818386e-06
-0.003473249
-0.01895983
-3.280402e-08
-0.004117813
-0.01914063
8.044924e-07
-0.004792131
-0.01936919
2.78912e-06
-0.005499818
-0.01963504
3.001056e-06
-0.0199317
2.293612e-06
-0.006245492
-0.001181842
-0.01852914
-4.412853e-05
0.0009635524
-0.0006897884
0.0005745462
-0.0002481455
-0.001766241
-0.01826034
-3.718868e-05
-0.002385173
-0.01819399
-8.250002e-06
-0.003016474
-0.01820518
-6.466152e-06
-0.00367082
-0.01830516
-3.264181e-07
-0.004347877
-0.01846409
5.24494e-07
-0.005053966
-0.0186657
2.596507e-06
-0.005791945
-0.01889989
2.832663e-06
-0.0191596
2.075139e-06
-0.006566124
-0.001241056
-0.01787214
-4.625872e-05
0.0009452227
-0.0006579688
0.000574066
-0.0002310031
-0.001853645
-0.0176082
-3.95446e-05
-0.002502117
-0.0175367
-8.823687e-06
-0.003162599
-0.01753771
-6.989588e-06
-0.003845806
-0.01762137
-5.84443e-07
-0.004550938
-0.01775925
2.861354e-07
-0.005283931
-0.01793513
2.424265e-06
-0.006047237
-0.01813926
2.668069e-06
-0.01836435
1.867779e-06
-0.006844351
-0.00129339
-0.01718775
-4.823779e-05
0.0009252134
-0.0006256681
0.0005719071
-0.0002142203
-0.001930619
-0.01692938
-4.159257e-05
-0.002604908
-0.01685311
-9.292185e-06
-0.00329075
-0.01684446
-7.407713e-06
-0.003998925
-0.01691246
-7.373697e-07
-0.004728109
-0.01703022
1.539704e-07
-0.005483827
-0.01718178
2.372708e-06
-0.006267974
-0.01735774
2.630921e-06
-0.01755086
1.786851e-06
-0.007083254
-0.001338997
-0.01648004
-4.996692e-05
0.0009033491
-0.0005929284
0.0005683893
-0.0001975552
-0.001997358
-0.0162279
-4.31272e-05
-0.002693924
-0.01614718
-9.374039e-06
-0.003401679
-0.01612932
-7.385817e-06
-0.004131331
-0.01618232
-4.806091e-07
-0.004881019
-0.01628098
4.519148e-07
-0.005655784
-0.0164097
2.684366e-06
-0.006456781
-0.01655966
2.917597e-06
-0.01672338
2.015593e-06
-0.007286276
-0.001377772
-0.01575277
-5.161797e-05
0.0008796046
-0.0005597747
0.0005633083
-0.0001810181
-0.002054044
-0.01550709
-4.453157e-05
-0.002769581
-0.01542228
-9.360779e-06
-0.003495955
-0.01539564
-7.299211e-06
-0.004243966
-0.01543418
-1.347485e-07
-0.005011016
-0.01551481
8.733401e-07
-0.005801793
-0.01562211
3.184115e-06
-0.006616645
-0.01574826
3.448871e-06
-0.01588561
2.544572e-06
-0.007456958
-0.001409421
-5.267799e-05
0.0008543539
-0.0005264786
0.0005562333
-0.0001650725
-0.01500971
-0.002100631
-4.477935e-05
-0.01477111
-0.002832045
-8.490507e-06
-0.01468237
-0.00357433
-6.141325e-06
-0.01464722
-0.00433808
1.329762e-06
-0.01467176
-0.005120154
2.342562e-06
-0.01473508
-0.005924486
4.56734e-06
-0.01482235
-0.006750632
4.743321e-06
-0.01492686
3.728961e-06
-0.01504071
-0.007599263
4.480413e-10
-7.500483e-10
-3.224119e-09
1.465495e-09
7.93127e-10
7.31341e-10
4.494381e-10
5.471362e-10
-4.08847e-08
1.719776e-08
4.687337e-09
-1.96595e-10
-2.197052e-09
2.732025e-10
-9.65393e-10
4.885143e-09
6.809787e-09
5.247688e-09
6.639101e-09
-6.593303e-08
2.459613e-08
6.376369e-09
1.871828e-10
-3.83462e-09
3.412156e-10
-1.477429e-09
-1.054745e-07
3.784329e-08
7.710364e-09
1.222471e-09
-5.600075e-09
1.247008e-09
-1.726033e-09
-1.659829e-07
5.841463e-08
9.874997e-09
2.191809e-09
-8.141047e-09
2.034154e-09
-2.262943e-09
-2.600869e-07
9.123278e-08
1.294395e-08
3.919922e-09
-1.191748e-08
3.373131e-09
-3.154647e-09
-4.063808e-07
1.429399e-07
1.62941e-08
6.295465e-09
-1.749106e-08
5.489548e-09
-4.056033e-09
2.238988e-07
2.081974e-08
1.061472e-08
-2.615506e-08
8.827346e-09
-4.683641e-09
-6.369616e-07
-4.144142e-10
-6.211595e-10
-8.750816e-10
3.546066e-09
6.614637e-10
-6.003768e-10
-6.141812e-10
-7.746902e-10
-2.122745e-08
2.46869e-08
4.342502e-09
-3.164129e-09
-4.127226e-09
-2.985222e-09
-3.932232e-09
2.212136e-09
2.542035e-09
2.430883e-09
2.435423e-09
-3.878705e-08
3.333331e-08
5.685536e-09
-6.449126e-08
4.850021e-08
6.814527e-09
-1.029173e-07
7.368518e-08
8.757102e-09
-1.61883e-07
1.144107e-07
1.083105e-08
-2.536625e-07
1.795432e-07
1.449712e-08
-3.965679e-07
2.819412e-07
1.790298e-08
4.429503e-07
2.371557e-08
-6.216228e-07
-5.061178e-09
2.272836e-08
3.898215e-09
-8.451203e-10
-9.840254e-10
2.825483e-10
-7.411174e-10
-4.079604e-09
-5.096797e-09
-3.889245e-09
-5.452419e-09
-1.176091e-08
2.997336e-08
4.440996e-09
-2.037408e-08
3.998662e-08
5.738087e-09
-3.410522e-08
5.999644e-08
7.143754e-09
-5.398658e-08
9.07905e-08
9.144464e-09
-8.45475e-08
1.416596e-07
1.184632e-08
-1.316692e-07
2.225527e-07
1.578157e-08
-2.050269e-07
3.505461e-07
2.05348e-08
5.513743e-07
2.79578e-08
-3.202602e-07
1.3782e-09
2.046005e-08
4.274979e-09
-1.052185e-09
-5.878118e-10
1.147113e-10
-3.992795e-10
2.120644e-09
2.744295e-08
5.021045e-09
3.177088e-09
3.660979e-08
5.404639e-09
5.819354e-09
5.47277e-08
5.908068e-09
1.096612e-08
8.310137e-08
7.128174e-09
2.004218e-08
1.301682e-07
7.889091e-09
3.300534e-08
2.03677e-07
9.531566e-09
5.441861e-08
3.210066e-07
9.517879e-09
5.043035e-07
9.21063e-09
8.862166e-08
4.522611e-09
3.108461e-09
4.029533e-09
-1.244732e-09
-5.634518e-10
-2.091986e-10
-4.008775e-10
4.384443e-09
3.5697e-09
4.020957e-09
1.467635e-08
1.523429e-08
4.510439e-09
2.7927e-08
1.984063e-08
6.086159e-09
4.602991e-08
3.109639e-08
7.248044e-09
7.358126e-08
4.849075e-08
9.934054e-09
1.182487e-07
7.63776e-08
1.226591e-08
1.872685e-07
1.213877e-07
1.611521e-08
2.978139e-07
1.925551e-07
1.889936e-08
3.037137e-07
2.454464e-08
4.727863e-07
-1.092055e-09
1.388317e-09
1.035609e-09
3.848981e-10
6.829477e-10
6.107481e-10
4.4784e-10
2.637784e-08
2.867126e-10
6.578204e-09
-3.145348e-09
-3.109058e-09
-3.133792e-09
-2.751971e-09
-2.218093e-09
-1.458894e-09
-1.50429e-09
-1.265591e-09
5.521145e-10
1.097981e-10
1.497533e-09
4.453089e-08
-6.868077e-10
5.917977e-09
-2.844053e-09
-1.889137e-09
-1.722585e-09
-1.155974e-09
6.860355e-10
3.114727e-09
9.318193e-10
7.258603e-08
4.561132e-10
8.171006e-09
-3.524157e-09
-2.572178e-09
-2.401417e-09
-1.261261e-09
1.322372e-09
-3.680704e-11
1.950969e-09
1.16277e-07
9.793884e-10
9.282481e-09
-4.673027e-09
-2.772119e-09
-3.228005e-09
-1.19791e-09
2.810832e-09
1.064607e-09
3.34789e-09
1.873432e-07
1.76988e-09
1.050446e-08
-6.933546e-09
-3.802506e-09
-4.72768e-09
-1.526088e-09
4.831941e-09
1.463356e-09
5.005894e-09
2.976729e-07
3.543164e-09
1.123119e-08
-9.815665e-09
-4.941489e-09
-6.215983e-09
-1.465734e-09
8.473126e-09
2.593882e-09
9.146118e-09
4.747471e-07
5.920253e-09
9.156744e-09
-1.452843e-08
-6.462509e-09
-9.044491e-09
-1.278844e-09
1.425723e-08
4.065425e-09
1.549312e-08
9.369303e-09
5.602106e-09
-2.116455e-08
-7.23456e-09
-1.258796e-08
2.306754e-10
2.38754e-08
5.026763e-09
2.515494e-08
7.527866e-07
-1.556324e-09
-2.665143e-09
3.507285e-09
1.467131e-09
-6.864137e-10
-4.413996e-09
6.100151e-09
-9.797682e-10
-3.475515e-09
-6.745415e-09
9.208341e-09
1.409879e-09
-4.890739e-09
-1.02225e-08
1.48261e-08
1.496266e-09
-6.864037e-09
-1.713455e-08
2.399159e-08
2.400291e-09
-9.935265e-09
-2.771051e-08
3.83934e-08
3.626899e-09
-1.391896e-08
-4.51775e-08
6.159355e-08
4.455537e-09
-1.841037e-08
-7.322758e-08
9.749873e-08
4.874862e-09
-3.071645e-08
-1.164193e-07
1.172198e-08
1.528777e-07
-1.561371e-08
0.0006484121
0.0006562844
-0.0002713493
-0.006094457
-0.0002929925
0.0007780002
-5.061933e-05
-3.447228e-05
-5.940537e-05
0.000783921
-5.773725e-05
0.0008300446
0.0001055119
-5.998583e-05
-0.006171238
-0.0008424029
0.0008313526
-2.230178e-05
-1.528278e-05
0.0008291467
1.067471e-05
-1.566237e-05
-0.006245274
-0.0009220978
0.0008327339
-2.368735e-05
-2.07806e-05
0.0008375761
2.697695e-05
-2.82461e-05
-0.006308487
-0.0009499376
0.000839413
-2.358896e-05
-2.089266e-05
0.000846019
3.341306e-05
-3.702352e-05
-0.006397576
-0.0009510078
0.0008475785
-2.416282e-05
-2.161851e-05
0.0008581426
4.419729e-05
-4.654049e-05
-0.006505587
-0.000965624
0.0008594341
-2.406251e-05
-2.158201e-05
0.0008726955
5.286762e-05
-5.556851e-05
-0.006634815
-0.0009806632
0.000873754
-2.409376e-05
-2.170388e-05
0.0008901936
6.255315e-05
-6.496949e-05
-0.006786927
-0.0009991189
0.0008907166
-2.44751e-05
-2.227823e-05
0.0009098215
7.219518e-05
-0.006960313
-0.001018828
0.0009099078
-2.57956e-05
-2.34859e-05
-7.513718e-05
0.0002208023
0.005034232
-0.00016915
-0.004863079
-0.0001592107
9.512432e-05
-0.0001470475
-1.167079e-05
-0.0005967814
-0.02581558
-0.000389988
0.006464187
0.006502574
0.006315382
0.006314739
0.0002974639
-0.0002938768
0.0003485187
-0.0002622398
-0.0005247594
-0.02652236
-0.0008150686
0.006429534
0.006441343
0.006295411
0.006271168
-0.0006123316
-0.02669265
-0.001017663
0.006520416
0.00652347
0.006346691
0.006350487
-0.0007012892
-0.02695676
-0.001065595
0.006593497
0.006597895
0.006412904
0.006416088
-0.0008307215
-0.02729073
-0.001111069
0.00668961
0.006696965
0.00650395
0.006511314
-0.0009791844
-0.02773855
-0.001124871
0.006802466
0.006812438
0.006614083
0.006624431
-0.001144665
-0.02827828
-0.001146467
0.006937814
0.006949938
0.006746887
0.006759316
-0.001325691
-0.02891798
-0.001171353
0.007097279
0.007111318
0.006903004
0.00691746
-0.02965609
0.007280663
0.007082367
-0.001526427
0.007298154
0.007100923
-0.001202131
0.0002422795
0.005167878
-0.0002210074
-0.00494262
-0.0002374845
0.0001318853
-0.0001493993
8.4686e-06
-0.0003804035
-0.02567267
-0.0001650827
0.0002735449
-0.0002506743
0.0002335682
-9.206285e-05
-0.0005872402
-0.02620876
-0.000623967
-0.0008289508
-0.02627155
-0.000755865
-0.001052585
-0.0264536
-0.0009176356
-0.001285154
-0.02675689
-0.0009485466
-0.001530976
-0.0271707
-0.0009854455
-0.001794566
-0.02768632
-0.001000353
-0.002080496
-0.02829584
-0.001021035
-0.02900061
-0.001043036
-0.00239247
0.0002546487
0.005028022
-0.0002090576
-0.004881096
-0.0002281984
0.0001531624
-0.0001436618
2.618143e-05
-0.0005856941
-0.02530926
-0.0001156117
0.000310152
-0.0001914747
0.0002302981
-6.697667e-05
-0.0008772417
-0.02578987
-0.0002231346
-0.001141228
-0.02583186
-0.0002719679
-0.001420262
-0.02596273
-0.0003202785
-0.001718734
-0.02622971
-0.0003393332
-0.002041096
-0.02661053
-0.0003506556
-0.002390307
-0.02709573
-0.0003544317
-0.002768409
-0.02767278
-0.0003593697
-0.02833947
-0.0003655971
-0.003180189
0.0002538162
0.004963831
-0.000205933
-0.004841677
-0.000218798
0.000157176
-0.0001397144
3.129985e-05
-0.0006528857
-0.02493299
-4.377374e-05
0.000322109
-0.0001786517
0.0002192211
-6.672485e-05
-0.00101493
-0.02535925
-0.0001160769
-0.001373076
-0.02537266
-0.0001395862
-0.001736497
-0.02547387
-0.0001767011
-0.002116923
-0.02571351
-0.0001865732
-0.002518622
-0.02606562
-0.0001974495
-0.002948891
-0.02652022
-0.0001991058
-0.003411695
-0.02706227
-0.0002023728
-0.02768725
-0.0002060101
-0.003913209
0.0002517895
0.004935829
-0.0002308951
-0.004774842
-0.0002329683
0.0001559208
-0.000136684
3.185015e-05
-0.0007767408
-0.02450753
-3.897693e-05
0.0003388402
-0.0001603405
0.0002366824
-4.540982e-05
-0.001205271
-0.02490118
-5.452235e-05
-0.001619888
-0.02490696
-5.455749e-05
-0.002048304
-0.02498884
-6.230335e-05
-0.002495717
-0.02520613
-6.218472e-05
-0.002968416
-0.02553128
-6.444318e-05
-0.003472821
-0.02595441
-6.283874e-05
-0.004013703
-0.02645938
-6.313865e-05
-0.02703962
-6.456978e-05
-0.004597811
0.0002483647
0.004836017
-0.0002234427
-0.004693373
-0.000221327
0.0001546115
-0.0001339403
3.308964e-05
-0.0008884523
-0.02403116
-2.61685e-05
0.0003522096
-0.0001444303
0.0002410205
-3.619082e-05
-0.001368165
-0.02440583
-4.05353e-05
-0.001846557
-0.02439768
-3.700797e-05
-0.002339189
-0.02446437
-3.952462e-05
-0.002853058
-0.02466055
-3.577175e-05
-0.003393047
-0.02495968
-3.618767e-05
-0.003966449
-0.02535053
-3.377598e-05
-0.004578412
-0.02581687
-3.391056e-05
-0.02635025
-3.5631e-05
-0.005235841
0.0002445327
0.004761942
-0.000235806
-0.004600942
-0.00022391
0.0001519479
-0.000131146
3.338087e-05
-0.000994929
-0.02350327
-2.658183e-05
0.000360396
-0.0001289673
0.0002541157
-2.202172e-05
-0.001531599
-0.02386186
-3.394635e-05
-0.002063969
-0.02384415
-2.507237e-05
-0.002613709
-0.02389748
-2.043213e-05
-0.003186099
-0.02407321
-1.338202e-05
-0.003786743
-0.0243464
-1.075579e-05
-0.004422307
-0.02470445
-6.96746e-06
-0.005098126
-0.02513108
-6.303595e-06
-0.02561659
-7.943292e-06
-0.005820538
0.0002404965
0.004654448
-0.0002356108
-0.00449632
-0.0002188207
0.0001494857
-0.0001278715
3.419192e-05
-0.001094508
-0.02292466
-2.53437e-05
0.0003706192
-0.0001140385
0.0002615314
-1.112489e-05
-0.001681192
-0.02326909
-3.495812e-05
-0.002265558
-0.02324131
-2.413412e-05
-0.002868129
-0.02328162
-1.792902e-05
-0.003494756
-0.02343696
-9.265896e-06
-0.004150354
-0.02368434
-5.587651e-06
-0.004841788
-0.02400928
-1.156311e-06
-0.005573754
-0.02439621
-1.777439e-07
-0.02483368
-2.06621e-06
-0.006352422
0.0002360857
0.004545999
-0.0002389014
-0.004383648
-0.0002162144
0.0001464717
-0.000124399
3.460652e-05
-0.001186208
-0.02229936
-2.619868e-05
0.0003773377
-9.944836e-05
0.0002701297
9.153592e-07
-0.001820611
-0.02262934
-3.715369e-05
-0.002451842
-0.02259253
-2.40455e-05
-0.003102155
-0.02262016
-1.612764e-05
-0.003776869
-0.02275546
-6.223158e-06
-0.004481403
-0.02297699
-1.535391e-06
-0.005221783
-0.02326927
3.552474e-06
-0.006002726
-0.0236167
4.823807e-06
-0.02400733
2.821932e-06
-0.006829127
0.0002312702
0.004425939
-0.0002400135
-0.004262727
-0.0002124077
0.0001434482
-0.000120637
3.512779e-05
-0.001269248
-0.02163098
-2.662201e-05
0.0003833347
-8.555893e-05
0.0002767045
1.168636e-05
-0.00194724
-0.02194568
-4.014288e-05
-0.002621249
-0.02190054
-2.54564e-05
-0.00331456
-0.02191568
-1.697939e-05
-0.004032372
-0.02203148
-6.197644e-06
-0.004780009
-0.02222743
-1.11665e-06
-0.005563126
-0.02248771
4.345332e-06
-0.006385919
-0.02279665
5.746643e-06
-0.02314221
3.5926e-06
-0.007252339
0.0002260068
0.004298935
-0.0002408027
-0.004134765
-0.000208481
0.0001401649
-0.000116723
3.566518e-05
-0.001344497
-0.02092341
-2.734658e-05
0.0003881138
-7.207571e-05
0.0002826017
2.150155e-05
-0.002061669
-0.02122248
-4.321848e-05
-0.002773895
-0.02116965
-2.691588e-05
-0.003505333
-0.02117277
-1.794422e-05
-0.004261172
-0.02126952
-6.447661e-06
-0.005046475
-0.02144061
-9.915918e-07
-0.005866402
-0.02166995
4.75667e-06
-0.006724278
-0.02194219
6.243577e-06
-0.02224468
3.974569e-06
-0.007623712
0.0002202957
0.004164907
-0.0002411809
-0.003999621
-0.0002045916
0.0001366475
-0.0001126776
3.622036e-05
-0.001411451
-0.02018119
-2.791889e-05
0.0003914178
-5.914963e-05
0.0002874198
3.119924e-05
-0.002163589
-0.02046391
-4.59816e-05
-0.002909699
-0.02040413
-2.824313e-05
-0.003674791
-0.02039569
-1.897412e-05
-0.004463934
-0.02047409
-6.869689e-06
-0.005281645
-0.0206214
-1.215064e-06
-0.006132834
-0.02082107
4.741468e-06
-0.007020183
-0.02105843
6.262025e-06
-0.02132071
3.873034e-06
-0.007946152
0.0002142362
0.004023337
-0.0002402648
-0.003858544
-0.0001999407
0.0001329437
-0.0001085053
3.673818e-05
-0.001470992
-0.0194081
-2.850162e-05
0.0003936949
-4.687552e-05
0.0002910032
4.034799e-05
-0.002253284
-0.01967456
-4.864716e-05
-0.003029076
-0.01960824
-2.938601e-05
-0.003823473
-0.01958881
-1.989489e-05
-0.004641342
-0.01964976
-7.206622e-06
-0.005486972
-0.01977427
-1.346927e-06
-0.006364508
-0.01994601
4.840934e-06
-0.007276106
-0.02015066
6.451066e-06
-0.02037591
4.020747e-06
-0.008223146
0.0002077437
0.003876767
-0.0002390745
-0.003712102
-0.0001954451
0.0001289717
-0.0001042205
3.735965e-05
-0.001522779
-0.01860885
-2.864948e-05
0.0003946695
-3.508044e-05
0.0002935274
4.909036e-05
-0.00233095
-0.0188591
-5.041652e-05
-0.003132371
-0.01878664
-2.955787e-05
-0.003952082
-0.0187568
-1.968041e-05
-0.004794731
-0.01880114
-6.443256e-06
-0.005664129
-0.01890403
-3.912857e-07
-0.006563862
-0.01904947
5.878908e-06
-0.007494984
-0.01922412
7.499677e-06
-0.01941525
4.941984e-06
-0.008458567
0.0002009338
0.003725295
-0.0002380324
-0.003559363
-0.0001917612
0.0001247106
-9.975976e-05
3.797624e-05
-0.00156644
-0.01778821
-2.920195e-05
0.0003937812
-2.377814e-05
0.0002952135
5.817116e-05
-0.002396829
-0.01802132
-5.192975e-05
-0.003220113
-0.01794339
-2.932841e-05
-0.004061306
-0.01790375
-1.916398e-05
-0.004925333
-0.01793206
-5.197374e-06
-0.005814883
-0.01801468
1.072062e-06
-0.006733217
-0.01813555
7.604359e-06
-0.00768057
-0.01828266
9.342695e-06
-0.01844329
6.807771e-06
-0.00865679
1.325225e-05
-4.391669e-05
-6.17425e-05
0.0001216076
0.003777503
-0.003806704
-0.001603007
-2.833855e-05
-0.01695016
6.588625e-05
0.0003925044
0.0002954757
-0.002450796
-5.154109e-05
-0.01716677
-0.003292492
-2.659653e-05
-0.01708358
-0.004152305
-1.550918e-05
-0.01703457
-0.005034633
-7.715461e-07
-0.01704763
-0.005941789
5.618764e-06
-0.0171108
-0.006875955
1.191414e-05
-0.01720873
-0.007836522
1.343541e-05
-0.01733078
1.060112e-05
-0.01746417
-0.008822521
4.771126e-10
-1.058972e-09
-3.111903e-09
1.372456e-09
1.108357e-09
7.200017e-10
4.394956e-10
4.215367e-10
-3.980251e-08
1.660132e-08
5.97197e-09
4.70367e-09
6.373643e-09
5.07226e-09
6.504801e-09
-6.483817e-08
2.404274e-08
7.818444e-09
-1.042271e-07
3.790941e-08
9.570524e-09
-1.651068e-07
5.860704e-08
1.266639e-08
-2.595301e-07
9.233885e-08
1.598152e-08
-4.072549e-07
1.447175e-07
2.059986e-08
2.278784e-07
2.684451e-08
-6.400988e-07
-5.563581e-10
-1.026331e-09
-7.045986e-10
3.440192e-09
1.141673e-09
-5.454902e-10
-5.68398e-10
-8.055219e-10
-1.987595e-08
2.412166e-08
5.991061e-09
-3.061317e-09
-4.236893e-09
-2.955977e-09
-3.807323e-09
1.918182e-09
2.386636e-09
2.177022e-09
2.438831e-09
-3.717839e-08
3.287271e-08
7.113728e-09
-6.289737e-08
4.815731e-08
9.046007e-09
-1.007663e-07
7.369641e-08
1.146198e-08
-1.596354e-07
1.14636e-07
1.472521e-08
-2.503987e-07
1.797732e-07
1.919538e-08
-3.926667e-07
2.822423e-07
2.440092e-08
4.436646e-07
3.263966e-08
-6.163863e-07
-3.462251e-09
2.289119e-08
4.81514e-09
-4.399889e-09
-5.317606e-09
-3.94649e-09
-5.387989e-09
-1.009001e-08
2.963987e-08
5.710204e-09
-1.847371e-08
4.004602e-08
7.55487e-09
-3.131604e-08
5.944227e-08
9.419948e-09
-5.02367e-08
9.05521e-08
1.247068e-08
-7.945436e-08
1.412177e-07
1.58412e-08
-1.247433e-07
2.216723e-07
2.111184e-08
-1.957283e-07
3.484962e-07
2.675437e-08
5.485017e-07
3.60664e-08
-3.076957e-07
1.485849e-09
2.09206e-08
5.25616e-09
3.449771e-09
2.65926e-08
6.753457e-09
7.08336e-09
3.463293e-08
7.455382e-09
1.27281e-08
5.05776e-08
9.806892e-09
2.174152e-08
7.776222e-08
1.197299e-08
3.547084e-08
1.218224e-07
1.500614e-08
5.69561e-08
1.921393e-07
1.867776e-08
9.070948e-08
3.024895e-07
2.251668e-08
4.767778e-07
2.838088e-08
1.438558e-07
5.700716e-09
3.382978e-09
4.437096e-09
4.02947e-09
3.945068e-09
4.085987e-09
1.841674e-08
1.307974e-08
5.299268e-09
3.431545e-08
1.621917e-08
8.47767e-09
5.606226e-08
2.555725e-08
1.047317e-08
8.976068e-08
3.999417e-08
1.415859e-08
1.41661e-07
6.377721e-08
1.837178e-08
2.23552e-07
1.011497e-07
2.447161e-08
3.516033e-07
1.603347e-07
3.210156e-08
2.536547e-07
4.319497e-08
5.545775e-07
-1.331949e-09
1.43647e-09
1.233298e-09
5.783179e-10
4.456157e-10
7.441031e-10
4.720799e-10
2.26755e-08
-1.750088e-10
1.059211e-08
-3.214373e-09
-2.599371e-09
-2.857641e-09
-2.445092e-09
-1.525497e-09
3.007951e-10
-1.35367e-09
3.787617e-08
6.560213e-09
6.139305e-08
9.705649e-09
9.770831e-08
1.236253e-08
1.551742e-07
1.606867e-08
2.457044e-07
2.071866e-08
3.881346e-07
2.530125e-08
3.293884e-08
6.133852e-07
-2.073818e-09
-1.498329e-09
2.182002e-09
1.337832e-09
0.000836205
0.0001167851
-0.0008056539
-0.006132619
-5.992429e-05
0.0008368967
-6.054508e-05
-5.425784e-05
-0.0004899723
-0.02528101
-0.000487309
0.0009730912
0.001492314
-0.0003083183
-0.0002733278
0.000959297
-0.0003492306
0.00146075
-0.000334471
-0.0001202685
-0.02548665
-0.0006293903
0.001550344
0.001587049
-0.0003076033
-0.0002937854
-0.0001920545
-0.02587756
-0.0007922232
0.001642098
0.001635819
-0.0002644051
-0.0002618302
-0.0002255634
-0.02623776
-0.0007869269
0.001650039
0.001640425
-0.0002708927
-0.000272837
-0.0002801164
-0.02668305
-0.0008046974
0.001679389
0.001666485
-0.0002706522
-0.0002751184
-0.0003290644
-0.02721087
-0.0008136013
0.00170839
0.001692332
-0.0002765826
-0.0002825314
-0.02783157
-0.0008271998
0.001744495
0.001725226
-0.0002825415
-0.0002895174
-0.0003855009
-0.0009779697
-0.02197728
-0.000294751
0.005197102
0.006264594
0.005442834
0.006233571
0.0005029435
0.000492978
-0.000794874
-8.914422e-05