/*--------------------------------*- C++ -*----------------------------------*\
  =========                 |
  \\      /  F ield         | OpenFOAM: The Open Source CFD Toolbox
   \\    /   O peration     | Website:  https://openfoam.org
    \\  /    A nd           | Version:  7
     \\/     M anipulation  |
\*---------------------------------------------------------------------------*/
FoamFile
{
    version     2.0;
    format      ascii;
    class       volScalarField;
    location    "0.09";
    object      nut;
}
// * * * * * * * * * * * * * * * * * * * * * * * * * * * * * * * * * * * * * //

dimensions      [0 2 -1 0 0 0 0];

internalField   nonuniform List<scalar> 
86107
(
0.001338953
0.001309982
0.001300818
0.001298762
0.001298332
0.001298343
0.001298536
0.001298764
0.001310023
0.001255986
0.001239944
0.00123585
0.001234833
0.001234696
0.001234864
0.001235074
0.001300854
0.001239928
0.001220096
0.00121475
0.001213325
0.0012131
0.001213306
0.001213583
0.001298789
0.001235797
0.001214696
0.001208733
0.001207101
0.00120689
0.001207236
0.001207696
0.001298331
0.001234707
0.001213164
0.001206979
0.001205348
0.001205357
0.001206122
0.001207087
0.001298284
0.001234456
0.001212787
0.00120662
0.001205314
0.001206165
0.001208323
0.001210905
0.001298391
0.001234521
0.001212883
0.001206938
0.001206478
0.001210594
0.001218162
0.001225916
0.001298559
0.001234715
0.001213199
0.001207659
0.001208594
0.001218124
0.001251631
0.001266143
0.001298749
0.001234957
0.001213598
0.001208543
0.001211084
0.001225784
0.001266195
0.0005877914
0.001298941
0.001235193
0.001213953
0.001209266
0.001213082
0.001232698
0.00129871
0.000620292
0.0001587673
0.00129912
0.001235385
0.001214185
0.001209627
0.001213938
0.001235631
0.001304695
0.0006231475
0.001299287
0.001235534
0.00121429
0.001209636
0.001213711
0.00123483
0.001302543
0.0006203201
0.001299449
0.001235649
0.001214288
0.001209329
0.001212437
0.001229802
0.001286673
0.0006149993
0.001299616
0.001235754
0.001214232
0.001208846
0.00121057
0.001222899
0.001254596
0.0005887477
0.001299798
0.001235871
0.001214183
0.001208341
0.001208636
0.001216607
0.001245159
0.001251704
0.001299999
0.001236018
0.001214196
0.001207993
0.001207116
0.001210454
0.001216569
0.0012223
0.001300227
0.001236206
0.001214292
0.001207861
0.001206256
0.001206738
0.00120838
0.001210349
0.001300483
0.001236439
0.00121447
0.001207917
0.001205993
0.001205761
0.00120631
0.00120705
0.001300771
0.001236718
0.001214723
0.001208111
0.001206072
0.001205631
0.001205859
0.001206236
0.001301097
0.001237054
0.001215056
0.00120842
0.001206329
0.001205802
0.001205908
0.001206147
0.00130148
0.001237476
0.001215505
0.001208879
0.00120677
0.001206196
0.001206238
0.001206405
0.001301947
0.001238021
0.00121612
0.001209538
0.001207444
0.001206846
0.001206839
0.001206947
0.001302555
0.001238771
0.00121703
0.001210592
0.001208565
0.00120796
0.001207893
0.00120794
0.0006111991
0.0006031566
0.0005989769
0.0005982295
0.0005982483
0.000598365
0.0005985004
0.0005986466
0.000611131
0.0001005784
0.0001005911
0.0001005959
0.0001005941
0.0001005935
0.0001005903
0.0001005864
0.0001005825
0.0006031198
0.0001005778
0.0001005758
0.000100588
0.0001005883
0.0001005883
0.0001005863
0.0001005837
0.0001005803
0.000598944
0.0001005778
0.0001005757
0.000100575
0.0001005758
0.0001005769
0.000100576
0.0001005749
0.0001005734
0.0005982118
0.000100578
0.000100576
0.0001005751
0.0001005744
0.0001005759
0.0001005753
0.0001005743
0.0001005733
0.0005982559
0.0001005782
0.0001005762
0.0001005753
0.0001005747
0.000100574
0.0001005736
0.0001005727
0.0001005725
0.0005984145
0.0001005784
0.0001005764
0.0001005755
0.000100575
0.0001005744
0.0001005746
0.0001005735
0.0001005738
0.000598606
0.0001005786
0.0001005765
0.0001005757
0.0001005752
0.0001005748
0.000100576
0.0001005756
0.0001005766
0.0005988058
0.0001005788
0.0001005767
0.0001005759
0.0001005754
0.0001005752
0.0001005822
0.0001005899
0.0001005896
0.0005990098
0.0001005788
0.0001005767
0.0001005759
0.0001005753
0.0001005755
0.0001005992
0.0001006587
0.0001005836
0.0005992153
0.0001005788
0.0001005767
0.0001005756
0.0001005748
0.0001005745
0.0001006088
0.0001006664
0.0001006474
0.0001886535
0.0005994191
0.0001005789
0.0001005768
0.0001005755
0.0001005744
0.0001005756
0.0001006083
0.0001006886
0.0001023755
0.0005996243
0.0001005792
0.0001005769
0.0001005756
0.0001005746
0.0001005742
0.0001006084
0.0001006653
0.0001019084
0.000599834
0.0001005795
0.0001005773
0.000100576
0.0001005752
0.00010058
0.0001006294
0.0001007416
0.0001005483
0.0006000556
0.0001005799
0.0001005778
0.0001005766
0.0001005761
0.0001005765
0.0001006633
0.0001007051
0.0001005479
0.0006002941
0.0001005804
0.0001005783
0.000100577
0.0001005764
0.0001005764
0.000100615
0.0001007112
0.000100723
0.0006005518
0.000100581
0.0001005788
0.0001005775
0.0001005767
0.0001005776
0.000100606
0.0001006283
0.0001007057
0.0006008297
0.0001005817
0.0001005794
0.0001005779
0.000100577
0.000100576
0.0001005767
0.0001005797
0.0001005806
0.0006011276
0.0001005825
0.0001005801
0.0001005784
0.0001005772
0.0001005759
0.0001005766
0.0001005759
0.0001005777
0.0006014469
0.0001005834
0.0001005808
0.0001005789
0.0001005774
0.0001005757
0.0001005741
0.0001005726
0.0001005715
0.0006017907
0.0001005846
0.0001005818
0.0001005796
0.0001005777
0.0001005756
0.0001005734
0.0001005719
0.0001005704
0.000602161
0.0001005861
0.0001005831
0.0001005804
0.0001005781
0.0001005754
0.0001005728
0.0001005705
0.000100569
0.0006025652
0.0001005882
0.000100585
0.000100582
0.0001005792
0.0001005758
0.0001005722
0.0001005694
0.0001005678
0.000603188
0.000100591
0.0001005877
0.0001005843
0.0001005809
0.0001005764
0.000100572
0.0001005683
0.0001005665
0.0006059351
0.001285369
0.001265212
0.001258019
0.001256447
0.001256181
0.001256222
0.001256326
0.0006059752
0.0001005387
0.0001008099
0.00010079
0.0001007905
0.0001007713
0.0001007494
0.0001007185
0.000100682
0.001285209
0.0001005789
0.0001005379
0.0001005371
0.0001005362
0.0001005352
0.0001005343
0.0001005334
0.0001005327
0.001265156
0.0001005786
0.0001005375
0.0001005366
0.0001005358
0.0001005349
0.0001005341
0.0001005333
0.0001005327
0.001257961
0.0001005786
0.0001005376
0.0001005368
0.0001005359
0.0001005351
0.0001005343
0.0001005335
0.000100533
0.001256388
0.0001005788
0.0001005378
0.000100537
0.0001005361
0.0001005354
0.0001005346
0.000100534
0.0001005336
0.001256104
0.000100579
0.000100538
0.0001005372
0.0001005364
0.0001005357
0.0001005352
0.000100535
0.0001005352
0.001256123
0.0001005792
0.0001005381
0.0001005373
0.0001005366
0.0001005361
0.0001005359
0.0001005369
0.0001005381
0.001256252
0.0001005793
0.0001005382
0.0001005375
0.0001005368
0.0001005366
0.0001005372
0.000100541
0.0001005505
0.001256422
0.0001005794
0.0001005383
0.0001005375
0.0001005368
0.0001005367
0.0001005375
0.0001005458
0.0001005787
0.001256606
0.0001005795
0.0001005383
0.0001005373
0.0001005363
0.0001005356
0.0001005365
0.0001005449
0.0001006533
0.0001887024
0.001256782
0.0001005796
0.0001005383
0.0001005371
0.0001005359
0.0001005347
0.0001005346
0.0001005477
0.0001024137
0.001256946
0.0001005798
0.0001005384
0.0001005372
0.000100536
0.0001005349
0.0001005348
0.0001005448
0.0001019007
0.001257101
0.0001005801
0.0001005388
0.0001005376
0.0001005366
0.0001005357
0.0001005369
0.000100544
0.0001005413
0.001257267
0.0001005806
0.0001005392
0.0001005381
0.0001005372
0.0001005367
0.0001005371
0.0001005413
0.0001005471
0.00125745
0.0001005811
0.0001005397
0.0001005386
0.0001005377
0.000100537
0.0001005371
0.0001005387
0.0001005406
0.001257657
0.0001005817
0.0001005403
0.0001005391
0.0001005381
0.0001005372
0.0001005369
0.0001005374
0.0001005382
0.001257889
0.0001005824
0.0001005409
0.0001005395
0.0001005383
0.0001005372
0.0001005362
0.0001005355
0.000100535
0.001258145
0.0001005832
0.0001005415
0.0001005399
0.0001005385
0.0001005371
0.0001005357
0.0001005344
0.0001005334
0.00125843
0.0001005842
0.0001005423
0.0001005404
0.0001005387
0.0001005369
0.0001005351
0.0001005335
0.0001005323
0.001258748
0.0001005854
0.0001005432
0.0001005411
0.000100539
0.0001005368
0.0001005346
0.0001005326
0.0001005312
0.001259113
0.0001005869
0.0001005445
0.000100542
0.0001005394
0.0001005366
0.0001005339
0.0001005315
0.0001005301
0.001259542
0.000100589
0.0001005463
0.0001005435
0.0001005404
0.0001005369
0.0001005333
0.0001005304
0.0001005289
0.001260055
0.0001005918
0.000100549
0.0001005457
0.0001005419
0.0001005374
0.000100533
0.0001005293
0.0001005276
0.000601953
0.001266012
0.001231554
0.001220744
0.001218147
0.001217598
0.001217544
0.001217612
0.0006019672
0.0001005387
0.0001007991
0.0001007819
0.0001007857
0.0001007665
0.000100746
0.0001007158
0.0001006801
0.001265867
0.0001005786
0.0001005378
0.000100537
0.0001005361
0.0001005352
0.0001005343
0.0001005334
0.0001005327
0.001231524
0.0001005777
0.0001005375
0.0001005366
0.0001005357
0.0001005349
0.0001005341
0.0001005333
0.0001005327
0.001220737
0.0001005776
0.0001005376
0.0001005368
0.0001005359
0.0001005351
0.0001005343
0.0001005335
0.000100533
0.001218161
0.0001005778
0.0001005378
0.000100537
0.0001005361
0.0001005354
0.0001005346
0.000100534
0.0001005337
0.001217615
0.000100578
0.000100538
0.0001005372
0.0001005364
0.0001005357
0.0001005352
0.0001005349
0.0001005352
0.001217554
0.0001005782
0.0001005381
0.0001005373
0.0001005366
0.0001005361
0.0001005359
0.0001005369
0.0001005381
0.001217659
0.0001005783
0.0001005383
0.0001005375
0.0001005368
0.0001005365
0.0001005372
0.0001005408
0.0001005506
0.001217825
0.0001005784
0.0001005383
0.0001005375
0.0001005368
0.0001005366
0.0001005374
0.0001005455
0.0001005767
0.001218009
0.0001005785
0.0001005383
0.0001005373
0.0001005363
0.0001005356
0.0001005364
0.0001005448
0.0001006545
0.00018887
0.001218186
0.0001005786
0.0001005383
0.0001005371
0.0001005359
0.0001005347
0.0001005346
0.0001005476
0.0001024125
0.001218349
0.0001005788
0.0001005385
0.0001005372
0.000100536
0.0001005349
0.0001005348
0.0001005448
0.000101909
0.001218503
0.0001005792
0.0001005388
0.0001005376
0.0001005366
0.0001005357
0.0001005367
0.0001005449
0.0001005489
0.001218665
0.0001005796
0.0001005392
0.0001005381
0.0001005373
0.0001005366
0.0001005376
0.00010054
0.0001005468
0.001218847
0.0001005802
0.0001005397
0.0001005386
0.0001005377
0.0001005371
0.0001005372
0.0001005387
0.0001005414
0.001219055
0.0001005808
0.0001005403
0.0001005391
0.0001005381
0.0001005372
0.0001005366
0.0001005365
0.0001005372
0.001219288
0.0001005815
0.0001005409
0.0001005395
0.0001005383
0.0001005371
0.0001005361
0.0001005353
0.0001005347
0.001219548
0.0001005823
0.0001005415
0.0001005399
0.0001005385
0.000100537
0.0001005356
0.0001005343
0.0001005334
0.001219837
0.0001005833
0.0001005422
0.0001005404
0.0001005387
0.0001005368
0.0001005351
0.0001005334
0.0001005322
0.001220164
0.0001005845
0.0001005432
0.0001005411
0.000100539
0.0001005367
0.0001005345
0.0001005326
0.0001005312
0.001220544
0.000100586
0.0001005445
0.000100542
0.0001005394
0.0001005366
0.0001005339
0.0001005315
0.0001005301
0.001220995
0.0001005881
0.0001005463
0.0001005435
0.0001005404
0.000100537
0.0001005333
0.0001005305
0.0001005289
0.001221529
0.0001005911
0.000100549
0.0001005457
0.000100542
0.0001005374
0.000100533
0.0001005293
0.0001005276
0.0006011368
0.001259187
0.001221275
0.001208305
0.00120508
0.00120429
0.00120413
0.001204155
0.0006011349
0.0001005387
0.0001007944
0.000100778
0.0001007825
0.0001007638
0.0001007434
0.000100714
0.0001006786
0.001259076
0.0001005784
0.0001005378
0.000100537
0.0001005361
0.0001005352
0.0001005343
0.0001005334
0.0001005327
0.00122132
0.0001005775
0.0001005375
0.0001005366
0.0001005358
0.0001005349
0.0001005341
0.0001005333
0.0001005327
0.001208465
0.0001005773
0.0001005377
0.0001005368
0.0001005359
0.0001005351
0.0001005343
0.0001005335
0.000100533
0.001205394
0.0001005775
0.0001005378
0.000100537
0.0001005362
0.0001005354
0.0001005346
0.000100534
0.0001005337
0.001204721
0.0001005777
0.000100538
0.0001005372
0.0001005364
0.0001005358
0.0001005352
0.0001005349
0.0001005352
0.001204617
0.0001005779
0.0001005382
0.0001005374
0.0001005367
0.0001005362
0.0001005359
0.0001005369
0.0001005381
0.001204709
0.0001005781
0.0001005383
0.0001005375
0.0001005368
0.0001005365
0.0001005372
0.0001005408
0.0001005506
0.001204871
0.0001005782
0.0001005384
0.0001005375
0.0001005368
0.0001005367
0.0001005373
0.0001005454
0.0001005763
0.001205053
0.0001005782
0.0001005383
0.0001005373
0.0001005363
0.0001005357
0.0001005364
0.0001005447
0.0001006552
0.0001891638
0.00120523
0.0001005783
0.0001005383
0.0001005371
0.0001005359
0.0001005347
0.0001005345
0.0001005476
0.0001024238
0.001205395
0.0001005786
0.0001005385
0.0001005373
0.0001005361
0.000100535
0.0001005347
0.0001005448
0.0001019366
0.001205551
0.0001005789
0.0001005388
0.0001005376
0.0001005367
0.0001005357
0.0001005366
0.0001005445
0.000100549
0.001205715
0.0001005794
0.0001005393
0.0001005382
0.0001005373
0.0001005366
0.0001005375
0.0001005396
0.0001005465
0.001205898
0.0001005799
0.0001005398
0.0001005386
0.0001005377
0.0001005371
0.0001005371
0.0001005385
0.0001005411
0.001206107
0.0001005805
0.0001005403
0.0001005391
0.0001005381
0.0001005372
0.0001005367
0.0001005365
0.0001005372
0.001206338
0.0001005812
0.0001005409
0.0001005396
0.0001005383
0.0001005371
0.0001005361
0.0001005353
0.0001005348
0.001206591
0.000100582
0.0001005416
0.00010054
0.0001005385
0.000100537
0.0001005357
0.0001005343
0.0001005334
0.001206874
0.000100583
0.0001005423
0.0001005405
0.0001005387
0.0001005369
0.0001005351
0.0001005334
0.0001005322
0.001207199
0.0001005842
0.0001005433
0.0001005412
0.000100539
0.0001005368
0.0001005346
0.0001005326
0.0001005312
0.001207583
0.0001005857
0.0001005445
0.0001005421
0.0001005394
0.0001005366
0.0001005339
0.0001005315
0.0001005301
0.00120804
0.0001005878
0.0001005463
0.0001005436
0.0001005405
0.000100537
0.0001005334
0.0001005305
0.0001005289
0.001208583
0.0001005908
0.000100549
0.0001005459
0.0001005421
0.0001005375
0.0001005331
0.0001005294
0.0001005276
0.0006010744
0.001259111
0.001220975
0.001207596
0.001203797
0.001202425
0.001201884
0.001201761
0.000601067
0.0001005387
0.0001007933
0.0001007779
0.000100783
0.0001007648
0.000100744
0.0001007146
0.0001006791
0.001259121
0.0001005784
0.0001005378
0.000100537
0.0001005361
0.0001005352
0.0001005343
0.0001005334
0.0001005327
0.001221378
0.0001005775
0.0001005375
0.0001005366
0.0001005357
0.0001005349
0.000100534
0.0001005333
0.0001005327
0.001208514
0.0001005773
0.0001005377
0.0001005368
0.0001005359
0.0001005351
0.0001005343
0.0001005335
0.000100533
0.001205437
0.0001005775
0.0001005378
0.000100537
0.0001005362
0.0001005354
0.0001005346
0.000100534
0.0001005337
0.001204757
0.0001005777
0.000100538
0.0001005372
0.0001005364
0.0001005358
0.0001005352
0.0001005349
0.0001005352
0.001204652
0.0001005779
0.0001005382
0.0001005374
0.0001005366
0.0001005362
0.0001005359
0.0001005369
0.0001005381
0.001204752
0.0001005781
0.0001005383
0.0001005375
0.0001005368
0.0001005365
0.0001005371
0.0001005407
0.0001005506
0.001204912
0.0001005782
0.0001005384
0.0001005375
0.0001005368
0.0001005366
0.0001005373
0.0001005453
0.000100576
0.001205085
0.0001005782
0.0001005383
0.0001005373
0.0001005363
0.0001005356
0.0001005364
0.0001005447
0.000100657
0.0001892078
0.001205261
0.0001005783
0.0001005383
0.0001005371
0.0001005359
0.0001005347
0.0001005345
0.0001005476
0.0001024298
0.001205439
0.0001005786
0.0001005385
0.0001005373
0.0001005361
0.0001005349
0.0001005347
0.0001005448
0.0001019482
0.001205617
0.0001005789
0.0001005388
0.0001005376
0.0001005367
0.0001005357
0.0001005365
0.0001005444
0.0001005483
0.001205799
0.0001005794
0.0001005393
0.0001005382
0.0001005373
0.0001005365
0.0001005374
0.0001005393
0.0001005465
0.001206
0.0001005799
0.0001005398
0.0001005387
0.0001005378
0.000100537
0.000100537
0.0001005384
0.0001005411
0.001206216
0.0001005805
0.0001005403
0.0001005391
0.0001005381
0.0001005371
0.0001005366
0.0001005363
0.0001005369
0.001206434
0.0001005812
0.0001005409
0.0001005396
0.0001005383
0.0001005371
0.0001005361
0.0001005352
0.0001005346
0.001206662
0.000100582
0.0001005416
0.00010054
0.0001005385
0.000100537
0.0001005356
0.0001005343
0.0001005334
0.001206918
0.000100583
0.0001005423
0.0001005405
0.0001005387
0.0001005369
0.0001005351
0.0001005334
0.0001005322
0.001207222
0.0001005842
0.0001005433
0.0001005412
0.000100539
0.0001005368
0.0001005346
0.0001005326
0.0001005312
0.001207597
0.0001005857
0.0001005445
0.0001005421
0.0001005394
0.0001005366
0.0001005339
0.0001005315
0.0001005301
0.001208052
0.0001005879
0.0001005464
0.0001005436
0.0001005405
0.000100537
0.0001005334
0.0001005305
0.0001005289
0.001208537
0.0001005907
0.000100549
0.0001005459
0.0001005421
0.0001005375
0.0001005331
0.0001005294
0.0001005276
0.0006013314
0.001265846
0.001229841
0.001216765
0.0012118
0.001207731
0.00120531
0.001204889
0.0006013657
0.0001005387
0.0001007987
0.0001007795
0.0001007769
0.000100761
0.0001007393
0.0001007145
0.0001006784
0.001266097
0.0001005786
0.0001005378
0.000100537
0.0001005361
0.0001005351
0.0001005342
0.0001005334
0.0001005327
0.001231786
0.0001005777
0.0001005375
0.0001005366
0.0001005357
0.0001005349
0.000100534
0.0001005332
0.0001005327
0.001220948
0.0001005776
0.0001005376
0.0001005368
0.0001005359
0.0001005351
0.0001005343
0.0001005335
0.000100533
0.001218347
0.0001005778
0.0001005378
0.000100537
0.0001005362
0.0001005354
0.0001005346
0.000100534
0.0001005336
0.001217772
0.000100578
0.000100538
0.0001005372
0.0001005364
0.0001005357
0.0001005352
0.0001005349
0.0001005352
0.001217703
0.0001005782
0.0001005382
0.0001005374
0.0001005366
0.0001005361
0.0001005359
0.0001005369
0.0001005381
0.001217858
0.0001005783
0.0001005383
0.0001005375
0.0001005368
0.0001005365
0.0001005371
0.0001005408
0.0001005506
0.001218029
0.0001005785
0.0001005384
0.0001005375
0.0001005368
0.0001005366
0.0001005373
0.0001005453
0.0001005762
0.001218144
0.0001005785
0.0001005383
0.0001005373
0.0001005363
0.0001005356
0.0001005363
0.0001005447
0.0001006562
0.0001892387
0.001218304
0.0001005786
0.0001005383
0.0001005371
0.0001005359
0.0001005347
0.0001005345
0.0001005475
0.0001024183
0.00121854
0.0001005788
0.0001005385
0.0001005372
0.000100536
0.0001005349
0.0001005347
0.0001005447
0.0001019314
0.001218798
0.0001005792
0.0001005388
0.0001005376
0.0001005366
0.0001005357
0.0001005364
0.0001005443
0.0001005496
0.001219028
0.0001005796
0.0001005393
0.0001005381
0.0001005373
0.0001005365
0.0001005374
0.0001005392
0.000100546
0.001219286
0.0001005802
0.0001005398
0.0001005386
0.0001005377
0.000100537
0.000100537
0.0001005382
0.0001005412
0.001219565
0.0001005808
0.0001005403
0.0001005391
0.0001005381
0.0001005371
0.0001005365
0.0001005362
0.0001005367
0.00121975
0.0001005815
0.0001005409
0.0001005395
0.0001005383
0.0001005371
0.0001005361
0.0001005351
0.0001005346
0.00121987
0.0001005823
0.0001005416
0.00010054
0.0001005385
0.000100537
0.0001005356
0.0001005343
0.0001005333
0.001220026
0.0001005833
0.0001005423
0.0001005405
0.0001005387
0.0001005369
0.0001005351
0.0001005334
0.0001005322
0.001220253
0.0001005845
0.0001005433
0.0001005412
0.000100539
0.0001005368
0.0001005346
0.0001005326
0.0001005312
0.001220599
0.000100586
0.0001005445
0.000100542
0.0001005394
0.0001005366
0.0001005339
0.0001005316
0.0001005301
0.001221049
0.0001005881
0.0001005463
0.0001005435
0.0001005404
0.000100537
0.0001005334
0.0001005305
0.0001005289
0.001221434
0.000100591
0.000100549
0.0001005459
0.0001005422
0.0001005375
0.0001005331
0.0001005294
0.0001005276
0.0006039239
0.001285475
0.00126362
0.001241922
0.001244415
0.001223758
0.001219919
0.001219282
0.0006039772
0.0001005387
0.0001008103
0.0001007869
0.000100774
0.0001007539
0.0001007419
0.0001007164
0.000100681
0.001286261
0.000100579
0.0001005379
0.000100537
0.000100536
0.0001005351
0.0001005342
0.0001005334
0.0001005327
0.001266111
0.0001005787
0.0001005375
0.0001005366
0.0001005358
0.0001005349
0.000100534
0.0001005333
0.0001005327
0.001258554
0.0001005786
0.0001005377
0.0001005368
0.0001005359
0.0001005351
0.0001005343
0.0001005335
0.000100533
0.001257048
0.0001005788
0.0001005378
0.000100537
0.0001005362
0.0001005354
0.0001005346
0.000100534
0.0001005336
0.001256565
0.000100579
0.000100538
0.0001005372
0.0001005364
0.0001005357
0.0001005352
0.0001005349
0.0001005352
0.00125654
0.0001005792
0.0001005382
0.0001005374
0.0001005367
0.0001005361
0.0001005359
0.0001005369
0.0001005381
0.001257073
0.0001005794
0.0001005383
0.0001005375
0.0001005369
0.0001005366
0.0001005372
0.0001005409
0.0001005506
0.001257313
0.0001005795
0.0001005383
0.0001005375
0.0001005368
0.0001005366
0.0001005373
0.0001005456
0.0001005773
0.001257012
0.0001005795
0.0001005383
0.0001005373
0.0001005363
0.0001005356
0.0001005364
0.0001005446
0.0001006544
0.0001892171
0.001257048
0.0001005796
0.0001005383
0.0001005371
0.0001005359
0.0001005347
0.0001005344
0.0001005475
0.0001024248
0.001257554
0.0001005799
0.0001005385
0.0001005372
0.000100536
0.0001005349
0.0001005346
0.0001005445
0.0001019326
0.001258163
0.0001005802
0.0001005388
0.0001005376
0.0001005366
0.0001005356
0.0001005364
0.0001005441
0.0001005475
0.001258365
0.0001005806
0.0001005393
0.0001005381
0.0001005373
0.0001005365
0.0001005373
0.0001005392
0.0001005462
0.001258957
0.0001005812
0.0001005398
0.0001005387
0.0001005377
0.000100537
0.000100537
0.0001005384
0.0001005405
0.001259574
0.0001005818
0.0001005403
0.0001005391
0.0001005381
0.0001005371
0.0001005366
0.0001005364
0.0001005372
0.001259639
0.0001005825
0.0001005409
0.0001005396
0.0001005383
0.0001005371
0.0001005361
0.0001005353
0.0001005348
0.001259345
0.0001005833
0.0001005416
0.00010054
0.0001005385
0.0001005371
0.0001005357
0.0001005343
0.0001005334
0.001259029
0.0001005841
0.0001005422
0.0001005405
0.0001005387
0.0001005369
0.0001005351
0.0001005334
0.0001005322
0.001258943
0.0001005854
0.0001005433
0.0001005412
0.0001005391
0.0001005368
0.0001005346
0.0001005326
0.0001005312
0.001259238
0.0001005869
0.0001005446
0.000100542
0.0001005393
0.0001005365
0.0001005339
0.0001005315
0.0001005301
0.001259784
0.0001005891
0.0001005465
0.0001005437
0.0001005406
0.000100537
0.0001005334
0.0001005304
0.0001005289
0.001260224
0.0001005917
0.0001005492
0.0001005459
0.0001005418
0.0001005373
0.0001005331
0.0001005294
0.0001005277
0.000608542
0.000594523
0.0005756983
0.0005701755
0.001265198
0.001260452
0.001258452
0.001258158
0.0006084535
0.0001005789
0.0001005909
0.0001005934
0.0001005986
0.000100827
0.0001007885
0.0001007769
0.0001007326
0.0005954127
0.0001005777
0.0001005758
0.0001005859
0.0001005857
0.000100584
0.0001005859
0.0001005824
0.0001005801
0.000576886
0.0001005778
0.0001005758
0.0001005749
0.0001005759
0.0001005774
0.0001005759
0.000100575
0.0001005732
0.0005737987
0.000100578
0.000100576
0.0001005751
0.0001005744
0.0001005752
0.0001005751
0.0001005741
0.0001005732
0.000573639
0.0001005783
0.0001005763
0.0001005754
0.0001005747
0.000100574
0.0001005735
0.0001005727
0.0001005724
0.0005736466
0.0001005786
0.0001005764
0.0001005756
0.000100575
0.0001005744
0.0001005745
0.0001005735
0.0001005738
0.0005737298
0.0001005787
0.0001005766
0.0001005758
0.0001005752
0.0001005748
0.000100576
0.0001005756
0.0001005766
0.000574682
0.0001005787
0.0001005768
0.0001005759
0.0001005754
0.0001005752
0.0001005824
0.0001005897
0.0001005897
0.000576188
0.000100579
0.0001005768
0.0001005759
0.0001005754
0.0001005756
0.0001005989
0.000100659
0.0001005771
0.0005747141
0.0001005789
0.0001005768
0.0001005757
0.0001005748
0.0001005746
0.000100611
0.0001006749
0.0001006502
0.0001893103
0.0005744783
0.000100579
0.0001005769
0.0001005755
0.0001005745
0.0001005757
0.0001006081
0.0001006923
0.0001023684
0.0005749576
0.0001005792
0.000100577
0.0001005757
0.0001005746
0.0001005776
0.0001006103
0.0001006832
0.0001018853
0.0005762662
0.0001005795
0.0001005774
0.0001005761
0.0001005753
0.0001005777
0.0001006195
0.0001007478
0.0001005548
0.0005756822
0.0001005797
0.0001005779
0.0001005766
0.000100576
0.0001005856
0.000100613
0.0001007692
0.0001007799
0.0005760245
0.0001005805
0.0001005783
0.0001005771
0.0001005764
0.0001005772
0.0001005903
0.0001006407
0.0001007228
0.0005776023
0.0001005815
0.0001005788
0.0001005777
0.0001005768
0.0001005783
0.0001005831
0.0001006074
0.0001006298
0.0005792023
0.0001005818
0.0001005795
0.0001005781
0.000100577
0.000100576
0.0001005759
0.0001005785
0.0001005796
0.0005779667
0.0001005826
0.0001005802
0.0001005785
0.0001005772
0.0001005759
0.000100575
0.000100577
0.0001005755
0.00057733
0.0001005843
0.0001005808
0.0001005791
0.0001005774
0.0001005758
0.0001005741
0.0001005737
0.0001005713
0.0005768804
0.0001005847
0.000100582
0.0001005797
0.0001005778
0.0001005756
0.0001005735
0.0001005718
0.0001005701
0.0005771857
0.000100586
0.0001005833
0.0001005805
0.0001005782
0.0001005787
0.0001005753
0.0001005733
0.0001005691
0.0005778124
0.0001005881
0.0001005851
0.0001005821
0.0001005792
0.0001005759
0.0001005724
0.0001005695
0.0001005678
0.0006040858
0.000100591
0.0001005879
0.0001005848
0.0001005953
0.0001005878
0.0001005778
0.0001005726
0.0001005666
0.0002713208
0.0002613991
0.000261786
0.0005986641
0.0005903965
0.0005702564
0.0005661343
0.0005719527
0.0002677629
0.001337484
0.001308898
0.001297654
0.001292889
0.001289204
0.001289494
0.001289618
0.00128958
0.0002675039
0.001307676
0.001255124
0.00123891
0.001234086
0.001232494
0.00123224
0.00123243
0.001232651
0.000270654
0.001298714
0.001239292
0.001219614
0.001214146
0.001212599
0.001212337
0.001212551
0.001212852
0.0002615298
0.001297522
0.001235349
0.001214422
0.001208469
0.001206816
0.001206598
0.001206956
0.001207431
0.0002629117
0.001296733
0.001234286
0.001212974
0.001206836
0.001205215
0.001205229
0.001206003
0.001206977
0.0002657351
0.001296977
0.001234131
0.001212653
0.001206534
0.001205244
0.001206102
0.001208264
0.001210854
0.0002618451
0.001297858
0.00123431
0.001212793
0.001206882
0.001206433
0.001210555
0.001218128
0.00122589
0.0002629363
0.001296841
0.001234418
0.001213103
0.001207612
0.001208558
0.001218086
0.001251594
0.001266111
0.0002825125
0.001296621
0.001234651
0.001213506
0.001208496
0.001211041
0.001225717
0.001266081
0.0001068686
0.0002634638
0.00129848
0.001235036
0.001213883
0.00120921
0.001213002
0.001232516
0.001298193
0.0001010316
0.0001891528
0.0002627376
0.001298898
0.001235247
0.001214097
0.001209538
0.001213727
0.001235085
0.001302214
0.0001025469
0.0002631586
0.00129824
0.001235217
0.001214134
0.001209469
0.001213233
0.00123261
0.001296825
0.000102276
0.000270093
0.001297437
0.001235093
0.001214038
0.001209056
0.001211655
0.001226651
0.001268356
0.000100949
0.0002667064
0.001296705
0.001235003
0.001213907
0.001208488
0.001209558
0.001219731
0.001255696
0.001271614
0.0005994928
0.001296591
0.001235007
0.001213826
0.001207998
0.001207684
0.001212567
0.001224138
0.001252458
0.0002765338
0.001296739
0.001235246
0.001213862
0.001207738
0.001206483
0.001207831
0.001212497
0.001218909
0.0002841537
0.001298143
0.001235612
0.001214034
0.001207703
0.00120598
0.00120613
0.001207436
0.001209295
0.0002720066
0.001298731
0.001235974
0.001214305
0.001207836
0.00120591
0.00120562
0.001206081
0.001206788
0.0002679774
0.001299786
0.001236462
0.00121466
0.001208109
0.001206084
0.001205627
0.00120583
0.001206188
0.0002656567
0.001300949
0.001237008
0.001215099
0.001208515
0.001206448
0.00120591
0.00120599
0.0012062
0.0002660035
0.001301476
0.001237559
0.00121572
0.001209197
0.00120713
0.001206536
0.001206496
0.001206575
0.0002668116
0.001301762
0.001238257
0.001216713
0.001210427
0.001208479
0.001207793
0.001207531
0.001207364
0.0002708401
0.001302267
0.001239677
0.001219195
0.001213859
0.001212287
0.001211358
0.001210266
0.001209232
0.0006528147
0.0002571292
0.0002570006
0.000100618
0.0006487759
0.0006308098
0.0002675912
0.0002611541
0.0001007067
0.0001007396
0.000626758
0.0006247939
0.0002610451
0.0002608534
0.0001006833
0.0001007546
0.0006243869
0.0006242855
0.0002608426
0.0002609232
0.0001006816
0.0001007748
0.0006242645
0.0006243485
0.0002609465
0.0002611014
0.0001006803
0.0001007859
0.0006243779
0.0006244689
0.0002611211
0.0002612797
0.0001006792
0.0001007948
0.0006245131
0.0006246004
0.0002612923
0.0002614439
0.0001006783
0.0001008042
0.0006246579
0.0006247479
0.0002614466
0.000261591
0.0001007075
0.0001008094
0.0006248299
0.0006249149
0.0002615857
0.0002617421
0.0001008111
0.0001008138
0.0002617259
0.0006488169
0.0006308436
0.0002675513
0.000101167
0.0002611414
0.0001013354
0.0006267748
0.0006248295
0.0002610316
0.000101131
0.0002608441
0.0001014149
0.0006244065
0.0006243307
0.0002608445
0.0001010786
0.0002609268
0.0001014719
0.0006242975
0.0006244186
0.0002609773
0.0001010549
0.0002611375
0.000101556
0.0006244367
0.0006245759
0.0002612034
0.0001010302
0.0002613669
0.0001016293
0.0006246099
0.0006247577
0.0002614454
0.0001010109
0.0002615998
0.0001017015
0.0006247916
0.0006249469
0.000261695
0.000100991
0.0002618407
0.0001017711
0.0006249841
0.0006251412
0.0002619512
0.0001009571
0.0002620814
0.0001018266
0.000625182
0.0006253363
0.0002622071
0.0001009218
0.0002623215
0.0001018748
0.0006253788
0.0006255289
0.0002624621
0.0001008834
0.0002625568
0.000101907
0.0001591403
0.0006250556
0.0001458923
0.0001009753
0.0001383353
0.0001009091
0.0002939801
0.0001891566
0.0006255729
0.0006257209
0.0002627111
0.0001008755
0.0002627876
0.0001019528
0.000145786
0.0006214184
0.0001426468
0.0001024682
0.0006586443
0.0001016478
0.0006519918
0.0006257673
0.0006259172
0.0002629585
0.0001008835
0.0002630243
0.0001020119
0.0001401431
0.0006207662
0.0001411908
0.0001023931
0.000656894
0.0001008022
0.0003147278
0.0006259686
0.0006261243
0.0002632139
0.0001008992
0.0002632731
0.0001020923
0.0001475335
0.0005963662
0.0002852755
0.0001009508
0.0003470429
0.0001008024
0.0001006234
0.0002891907
0.0001005841
0.0006261817
0.0006263454
0.0002634839
0.0001009211
0.000263539
0.0001021869
0.0006264115
0.0006265834
0.0002637726
0.0001009474
0.0002638226
0.0001022876
0.0006266602
0.0006268405
0.0002640818
0.00010098
0.0002641238
0.0001023957
0.0006269274
0.0006271165
0.0002644156
0.0001010152
0.0002644448
0.0001025039
0.0006272145