/*--------------------------------*- C++ -*----------------------------------*\
  =========                 |
  \\      /  F ield         | OpenFOAM: The Open Source CFD Toolbox
   \\    /   O peration     | Website:  https://openfoam.org
    \\  /    A nd           | Version:  7
     \\/     M anipulation  |
\*---------------------------------------------------------------------------*/
FoamFile
{
    version     2.0;
    format      ascii;
    class       volScalarField;
    location    "0.09";
    object      nut;
}
// * * * * * * * * * * * * * * * * * * * * * * * * * * * * * * * * * * * * * //

dimensions      [0 2 -1 0 0 0 0];

internalField   nonuniform List<scalar> 
109929
(
0.0006613883
0.0006423299
0.0006401285
0.0006394679
0.0006390785
0.0006389325
0.0006432416
0.0006107851
0.0006073506
0.0006066342
0.0006063458
0.0006063363
0.000640899
0.0006071347
0.0006033957
0.0006026477
0.0006024062
0.0006024882
0.0006400986
0.0006062444
0.000602491
0.0006017694
0.0006015797
0.0006017244
0.0006395296
0.0006056939
0.0006019547
0.0006012622
0.0006011057
0.0006012884
0.0006390808
0.0006052774
0.0006015654
0.0006009061
0.0006007752
0.000600989
0.0006386971
0.0006049194
0.0006012231
0.0006005827
0.000600477
0.0006007142
0.0006383664
0.0006046085
0.0006009281
0.0006003053
0.0006002218
0.0006004736
0.000638074
0.0006043314
0.0006006619
0.0006000518
0.0005999808
0.0006002481
0.0006378137
0.0006040829
0.0006004224
0.0005998214
0.000599761
0.0006000415
0.0006375793
0.0006038598
0.0006002038
0.0005996101
0.0005995574
0.0005998496
0.000637367
0.0006036563
0.000600004
0.0005994163
0.00059937
0.0005996683
0.0006371734
0.0006034698
0.0005998203
0.0005992375
0.0005991961
0.0005994995
0.0006369967
0.0006032979
0.0005996519
0.000599072
0.0005990342
0.0005993419
0.0006368393
0.0006031393
0.0005994955
0.0005989183
0.0005988834
0.0005991947
0.0006366952
0.0006029926
0.0005993501
0.0005987755
0.000598743
0.0005990574
0.0006365618
0.0006028567
0.0005992145
0.000598643
0.0005986135
0.0005989296
0.0006364379
0.0006027306
0.0005990906
0.000598522
0.0005984936
0.0005988113
0.0006363233
0.0006026154
0.0005989783
0.0005984136
0.000598386
0.0005987045
0.0006362197
0.000602516
0.0005988851
0.0005983259
0.0005982993
0.0005986175
0.0006361386
0.0006024572
0.000598843
0.0005982938
0.0005982689
0.0005985822
0.0006361305
0.0006025193
0.0005989485
0.0005984191
0.0005983947
0.0005986886
0.000100625
0.0006027732
0.0005992697
0.00059877
0.0005987394
0.0005989889
0.0001022062
0.000101988
0.0001019088
0.0001017631
0.0001016276
0.0001015072
0.0001006814
0.0001006086
0.000100601
0.0001005673
0.0001005566
0.0001005504
0.000100643
0.000100589
0.0001005731
0.0001005622
0.0001005569
0.0001005535
0.0001005816
0.0001005728
0.0001005684
0.0001005627
0.0001005591
0.0001005558
0.0001005726
0.0001005642
0.0001005597
0.000100556
0.0001005534
0.0001005513
0.0001005621
0.0001005565
0.0001005555
0.0001005536
0.0001005522
0.0001005508
0.0001005591
0.000100553
0.0001005521
0.0001005508
0.0001005498
0.0001005488
0.0001005563
0.0001005499
0.0001005497
0.000100549
0.0001005484
0.0001005478
0.0001005546
0.0001005481
0.0001005479
0.0001005475
0.0001005471
0.0001005466
0.0001005531
0.0001005466
0.0001005466
0.0001005463
0.0001005461
0.0001005458
0.0001005519
0.0001005455
0.0001005456
0.0001005454
0.0001005453
0.0001005451
0.000100551
0.0001005447
0.0001005448
0.0001005447
0.0001005446
0.0001005445
0.0001005502
0.000100544
0.0001005441
0.000100544
0.000100544
0.0001005439
0.0001005495
0.0001005434
0.0001005436
0.0001005435
0.0001005435
0.0001005435
0.0001005489
0.000100543
0.0001005431
0.0001005431
0.0001005431
0.0001005431
0.0001005483
0.0001005426
0.0001005427
0.0001005427
0.0001005427
0.0001005427
0.0001005478
0.0001005423
0.0001005424
0.0001005424
0.0001005424
0.0001005424
0.0001005474
0.000100542
0.0001005421
0.0001005421
0.0001005421
0.0001005421
0.000100547
0.0001005417
0.0001005418
0.0001005418
0.0001005419
0.0001005419
0.0001005467
0.0001005415
0.0001005416
0.0001005416
0.0001005417
0.0001005417
0.0001005463
0.0001005413
0.0001005414
0.0001005414
0.0001005415
0.0001005415
0.000100546
0.0001005411
0.0001005412
0.0001005412
0.0001005413
0.0001005413
0.0001005457
0.000100541
0.000100541
0.0001005411
0.0001005411
0.0001005411
0.0001005451
0.0001005408
0.0001005409
0.0001005409
0.000100541
0.000100541
0.0001024204
0.0001017583
0.0001017377
0.0001016239
0.000101525
0.000101429
0.0001006309
0.0001005945
0.0001006022
0.000100565
0.000100555
0.0001005484
0.0001006393
0.000100589
0.0001005724
0.0001005614
0.0001005553
0.0001005516
0.0001005669
0.0001005711
0.0001005688
0.0001005636
0.0001005595
0.0001005561
0.0001005602
0.0001005635
0.0001005594
0.0001005558
0.000100553
0.000100551
0.0001005548
0.0001005557
0.0001005553
0.0001005535
0.000100552
0.0001005505
0.0001005529
0.0001005524
0.0001005519
0.0001005507
0.0001005495
0.0001005485
0.0001005515
0.0001005493
0.0001005496
0.0001005489
0.0001005482
0.0001005475
0.0001005505
0.0001005476
0.0001005478
0.0001005474
0.0001005469
0.0001005464
0.0001005497
0.0001005462
0.0001005465
0.0001005462
0.0001005459
0.0001005456
0.000100549
0.0001005452
0.0001005455
0.0001005453
0.0001005451
0.0001005449
0.0001005484
0.0001005444
0.0001005446
0.0001005445
0.0001005444
0.0001005442
0.0001005479
0.0001005437
0.000100544
0.0001005439
0.0001005438
0.0001005437
0.0001005474
0.0001005432
0.0001005434
0.0001005434
0.0001005433
0.0001005433
0.000100547
0.0001005428
0.000100543
0.0001005429
0.0001005429
0.0001005429
0.0001005466
0.0001005424
0.0001005426
0.0001005426
0.0001005425
0.0001005425
0.0001005462
0.0001005421
0.0001005422
0.0001005422
0.0001005422
0.0001005422
0.0001005459
0.0001005418
0.000100542
0.000100542
0.000100542
0.000100542
0.0001005456
0.0001005416
0.0001005417
0.0001005417
0.0001005417
0.0001005417
0.0001005454
0.0001005414
0.0001005415
0.0001005415
0.0001005415
0.0001005415
0.0001005451
0.0001005412
0.0001005413
0.0001005413
0.0001005413
0.0001005413
0.0001005449
0.000100541
0.0001005411
0.0001005411
0.0001005411
0.0001005411
0.0001005446
0.0001005409
0.0001005409
0.0001005409
0.000100541
0.000100541
0.0001005444
0.0001005407
0.0001005408
0.0001005408
0.0001005408
0.0001005408
0.0001024049
0.0001017144
0.0001017285
0.0001016122
0.0001014893
0.000101386
0.0001006174
0.0001005886
0.0001006066
0.0001005655
0.0001005552
0.0001005487
0.000100642
0.0001005887
0.0001005727
0.0001005611
0.0001005547
0.0001005511
0.0001005662
0.0001005709
0.0001005679
0.000100563
0.0001005593
0.0001005557
0.0001005638
0.0001005633
0.0001005592
0.0001005556
0.0001005528
0.0001005508
0.0001005557
0.0001005553
0.000100555
0.0001005535
0.0001005519
0.0001005505
0.0001005539
0.0001005524
0.0001005519
0.0001005506
0.0001005494
0.0001005484
0.0001005519
0.0001005493
0.0001005495
0.0001005488
0.0001005482
0.0001005475
0.0001005508
0.0001005476
0.0001005478
0.0001005473
0.0001005469
0.0001005464
0.0001005498
0.0001005462
0.0001005465
0.0001005462
0.0001005459
0.0001005456
0.0001005491
0.0001005452
0.0001005454
0.0001005453
0.0001005451
0.0001005448
0.0001005484
0.0001005444
0.0001005446
0.0001005445
0.0001005444
0.0001005442
0.0001005479
0.0001005437
0.000100544
0.0001005439
0.0001005438
0.0001005437
0.0001005474
0.0001005432
0.0001005434
0.0001005434
0.0001005433
0.0001005433
0.0001005469
0.0001005428
0.000100543
0.0001005429
0.0001005429
0.0001005429
0.0001005465
0.0001005424
0.0001005426
0.0001005426
0.0001005425
0.0001005425
0.0001005462
0.0001005421
0.0001005422
0.0001005422
0.0001005422
0.0001005422
0.0001005459
0.0001005418
0.0001005419
0.000100542
0.000100542
0.000100542
0.0001005456
0.0001005416
0.0001005417
0.0001005417
0.0001005417
0.0001005417
0.0001005453
0.0001005413
0.0001005415
0.0001005415
0.0001005415
0.0001005415
0.000100545
0.0001005412
0.0001005413
0.0001005413
0.0001005413
0.0001005413
0.0001005448
0.000100541
0.0001005411
0.0001005411
0.0001005411
0.0001005411
0.0001005446
0.0001005408
0.0001005409
0.0001005409
0.000100541
0.000100541
0.0001005444
0.0001005407
0.0001005408
0.0001005408
0.0001005408
0.0001005408
0.0001023298
0.0001016673
0.0001016912
0.0001016025
0.0001015107
0.000101416
0.0001006132
0.0001005863
0.0001006071
0.0001005652
0.0001005552
0.0001005481
0.0001006374
0.0001005885
0.0001005716
0.0001005611
0.0001005553
0.0001005514
0.0001005663
0.0001005707
0.0001005667
0.0001005611
0.0001005578
0.0001005548
0.0001005644
0.0001005627
0.0001005588
0.0001005553
0.0001005527
0.0001005507
0.0001005555
0.000100555
0.000100555
0.0001005534
0.0001005519
0.0001005505
0.0001005538
0.0001005523
0.0001005519
0.0001005506
0.0001005494
0.0001005484
0.0001005519
0.0001005492
0.0001005495
0.0001005488
0.0001005482
0.0001005475
0.0001005508
0.0001005475
0.0001005478
0.0001005473
0.0001005469
0.0001005464
0.0001005498
0.0001005461
0.0001005464
0.0001005462
0.0001005459
0.0001005456
0.0001005491
0.0001005451
0.0001005454
0.0001005453
0.0001005451
0.0001005449
0.0001005484
0.0001005443
0.0001005446
0.0001005445
0.0001005444
0.0001005442
0.0001005479
0.0001005437
0.0001005439
0.0001005439
0.0001005438
0.0001005437
0.0001005474
0.0001005432
0.0001005434
0.0001005434
0.0001005433
0.0001005433
0.0001005469
0.0001005427
0.0001005429
0.0001005429
0.0001005429
0.0001005429
0.0001005465
0.0001005424
0.0001005426
0.0001005426
0.0001005425
0.0001005425
0.0001005462
0.0001005421
0.0001005422
0.0001005422
0.0001005422
0.0001005422
0.0001005459
0.0001005418
0.0001005419
0.0001005419
0.000100542
0.000100542
0.0001005456
0.0001005415
0.0001005417
0.0001005417
0.0001005417
0.0001005417
0.0001005453
0.0001005413
0.0001005414
0.0001005415
0.0001005415
0.0001005415
0.000100545
0.0001005411
0.0001005412
0.0001005413
0.0001005413
0.0001005413
0.0001005448
0.000100541
0.0001005411
0.0001005411
0.0001005411
0.0001005411
0.0001005446
0.0001005408
0.0001005409
0.0001005409
0.000100541
0.000100541
0.0001005444
0.0001005407
0.0001005408
0.0001005408
0.0001005408
0.0001005408
0.0001023673
0.0001016271
0.0001016828
0.0001015885
0.0001014868
0.0001013873
0.0001006127
0.0001005861
0.000100607
0.0001005652
0.0001005553
0.0001005481
0.0001006348
0.0001005884
0.0001005716
0.0001005611
0.0001005554
0.0001005515
0.0001005662
0.0001005707
0.0001005667
0.0001005611
0.0001005578
0.0001005548
0.0001005651
0.0001005627
0.0001005588
0.0001005553
0.0001005527
0.0001005507
0.0001005555
0.000100555
0.000100555
0.0001005534
0.0001005519
0.0001005505
0.0001005539
0.0001005523
0.0001005519
0.0001005506
0.0001005494
0.0001005484
0.0001005519
0.0001005492
0.0001005495
0.0001005488
0.0001005482
0.0001005475
0.0001005508
0.0001005475
0.0001005478
0.0001005473
0.0001005469
0.0001005464
0.0001005498
0.0001005461
0.0001005464
0.0001005462
0.0001005459
0.0001005456
0.0001005491
0.0001005451
0.0001005454
0.0001005453
0.0001005451
0.0001005449
0.0001005484
0.0001005443
0.0001005446
0.0001005445
0.0001005444
0.0001005442
0.0001005479
0.0001005437
0.0001005439
0.0001005439
0.0001005438
0.0001005437
0.0001005474
0.0001005432
0.0001005434
0.0001005434
0.0001005433
0.0001005433
0.0001005469
0.0001005427
0.0001005429
0.0001005429
0.0001005429
0.0001005429
0.0001005465
0.0001005424
0.0001005426
0.0001005426
0.0001005425
0.0001005425
0.0001005462
0.0001005421
0.0001005422
0.0001005422
0.0001005422
0.0001005422
0.0001005459
0.0001005418
0.0001005419
0.0001005419
0.000100542
0.000100542
0.0001005456
0.0001005415
0.0001005417
0.0001005417
0.0001005417
0.0001005417
0.0001005453
0.0001005413
0.0001005414
0.0001005415
0.0001005415
0.0001005415
0.000100545
0.0001005411
0.0001005412
0.0001005413
0.0001005413
0.0001005413
0.0001005448
0.000100541
0.0001005411
0.0001005411
0.0001005411
0.0001005411
0.0001005446
0.0001005408
0.0001005409
0.0001005409
0.000100541
0.000100541
0.0001005444
0.0001005407
0.0001005408
0.0001005408
0.0001005408
0.0001005408
0.0001024006
0.0001016277
0.0001016768
0.0001015996
0.0001015026
0.000101406
0.000100616
0.0001005885
0.0001006066
0.0001005655
0.0001005551
0.0001005486
0.0001006325
0.0001005887
0.0001005727
0.0001005611
0.0001005547
0.0001005511
0.0001005663
0.0001005709
0.000100568
0.000100563
0.0001005593
0.0001005558
0.0001005648
0.0001005633
0.0001005592
0.0001005556
0.0001005528
0.0001005508
0.0001005556
0.0001005553
0.000100555
0.0001005535
0.0001005519
0.0001005505
0.0001005539
0.0001005524
0.0001005519
0.0001005506
0.0001005494
0.0001005484
0.0001005519
0.0001005493
0.0001005495
0.0001005488
0.0001005482
0.0001005475
0.0001005508
0.0001005476
0.0001005478
0.0001005473
0.0001005469
0.0001005464
0.0001005499
0.0001005462
0.0001005465
0.0001005462
0.0001005459
0.0001005456
0.0001005491
0.0001005452
0.0001005454
0.0001005453
0.0001005451
0.0001005448
0.0001005484
0.0001005444
0.0001005446
0.0001005445
0.0001005444
0.0001005442
0.0001005479
0.0001005437
0.000100544
0.0001005439
0.0001005438
0.0001005437
0.0001005474
0.0001005432
0.0001005434
0.0001005434
0.0001005433
0.0001005433
0.000100547
0.0001005428
0.000100543
0.0001005429
0.0001005429
0.0001005429
0.0001005466
0.0001005424
0.0001005426
0.0001005426
0.0001005425
0.0001005425
0.0001005462
0.0001005421
0.0001005422
0.0001005422
0.0001005422
0.0001005422
0.0001005459
0.0001005418
0.0001005419
0.0001005419
0.000100542
0.000100542
0.0001005456
0.0001005416
0.0001005417
0.0001005417
0.0001005417
0.0001005417
0.0001005453
0.0001005413
0.0001005415
0.0001005415
0.0001005415
0.0001005415
0.000100545
0.0001005412
0.0001005413
0.0001005413
0.0001005413
0.0001005413
0.0001005448
0.000100541
0.0001005411
0.0001005411
0.0001005411
0.0001005411
0.0001005446
0.0001005408
0.0001005409
0.0001005409
0.000100541
0.000100541
0.0001005444
0.0001005407
0.0001005408
0.0001005408
0.0001005408
0.0001005408
0.0001023508
0.0001016506
0.0001016805
0.0001016142
0.0001015196
0.0001014203
0.0001006238
0.0001005946
0.000100602
0.0001005649
0.0001005549
0.0001005483
0.0001006265
0.0001005889
0.0001005724
0.0001005615
0.0001005553
0.0001005517
0.0001005671
0.0001005711
0.0001005688
0.0001005636
0.0001005595
0.0001005561
0.0001005655
0.0001005635
0.0001005594
0.0001005558
0.000100553
0.000100551
0.0001005557
0.0001005557
0.0001005553
0.0001005535
0.000100552
0.0001005505
0.0001005539
0.0001005523
0.0001005519
0.0001005507
0.0001005495
0.0001005485
0.000100552
0.0001005493
0.0001005496
0.0001005489
0.0001005482
0.0001005475
0.0001005508
0.0001005476
0.0001005478
0.0001005474
0.0001005469
0.0001005464
0.0001005499
0.0001005462
0.0001005465
0.0001005462
0.0001005459
0.0001005456
0.0001005491
0.0001005452
0.0001005455
0.0001005453
0.0001005451
0.0001005449
0.0001005485
0.0001005444
0.0001005446
0.0001005445
0.0001005444
0.0001005442
0.0001005479
0.0001005437
0.000100544
0.0001005439
0.0001005438
0.0001005437
0.0001005474
0.0001005432
0.0001005434
0.0001005434
0.0001005433
0.0001005433
0.000100547
0.0001005428
0.000100543
0.0001005429
0.0001005429
0.0001005429
0.0001005466
0.0001005424
0.0001005426
0.0001005426
0.0001005425
0.0001005425
0.0001005462
0.0001005421
0.0001005422
0.0001005422
0.0001005422
0.0001005422
0.0001005459
0.0001005418
0.0001005419
0.0001005419
0.000100542
0.000100542
0.0001005456
0.0001005416
0.0001005417
0.0001005417
0.0001005417
0.0001005417
0.0001005453
0.0001005414
0.0001005415
0.0001005415
0.0001005415
0.0001005415
0.0001005451
0.0001005412
0.0001005413
0.0001005413
0.0001005413
0.0001005413
0.0001005448
0.000100541
0.0001005411
0.0001005411
0.0001005411
0.0001005411
0.0001005446
0.0001005408
0.0001005409
0.0001005409
0.000100541
0.000100541
0.0001005444
0.0001005407
0.0001005408
0.0001005408
0.0001005408
0.0001005408
0.0001020926
0.0001017363
0.0001017541
0.0001016555
0.0001015426
0.0001014356
0.0001006418
0.0001006085
0.000100601
0.0001005672
0.0001005566
0.0001005503
0.0001006205
0.000100589
0.0001005731
0.0001005622
0.000100557
0.0001005535
0.0001005703
0.0001005727
0.0001005684
0.0001005626
0.0001005591
0.0001005558
0.0001005668
0.000100564
0.0001005597
0.000100556
0.0001005534
0.0001005513
0.0001005578
0.0001005564
0.0001005554
0.0001005536
0.0001005522
0.0001005508
0.0001005556
0.0001005529
0.000100552
0.0001005508
0.0001005498
0.0001005488
0.0001005534
0.0001005499
0.0001005497
0.000100549
0.0001005484
0.0001005478
0.000100552
0.000100548
0.0001005479
0.0001005475
0.0001005471
0.0001005467
0.0001005509
0.0001005465
0.0001005466
0.0001005463
0.0001005461
0.0001005458
0.00010055
0.0001005455
0.0001005456
0.0001005454
0.0001005453
0.0001005451
0.0001005492
0.0001005446
0.0001005448
0.0001005447
0.0001005446
0.0001005445
0.0001005486
0.000100544
0.0001005441
0.000100544
0.000100544
0.0001005439
0.000100548
0.0001005434
0.0001005435
0.0001005435
0.0001005435
0.0001005435
0.0001005475
0.000100543
0.0001005431
0.0001005431
0.0001005431
0.0001005431
0.0001005471
0.0001005426
0.0001005427
0.0001005427
0.0001005427
0.0001005427
0.0001005467
0.0001005422
0.0001005424
0.0001005424
0.0001005424
0.0001005424
0.0001005463
0.0001005419
0.0001005421
0.0001005421
0.0001005421
0.0001005421
0.000100546
0.0001005417
0.0001005418
0.0001005418
0.0001005419
0.0001005419
0.0001005457
0.0001005415
0.0001005416
0.0001005416
0.0001005417
0.0001005417
0.0001005454
0.0001005413
0.0001005414
0.0001005414
0.0001005414
0.0001005415
0.0001005451
0.0001005411
0.0001005412
0.0001005412
0.0001005413
0.0001005413
0.0001005449
0.0001005409
0.000100541
0.0001005411
0.0001005411
0.0001005411
0.0001005451
0.0001005408
0.0001005409
0.0001005409
0.0001005409
0.000100541
0.000115296
0.0001108927
0.0001091867
0.0001080523
0.000107234
0.0001065743
0.0001008893
0.0001007945
0.000100973
0.0001009731
0.000100934
0.0001009174
0.000100916
0.0001007611
0.0001007608
0.0001007677
0.0001007644
0.0001007599
0.0001007589
0.0001007577
0.000100658
0.0001006808
0.0001007064
0.0001006981
0.0001006918
0.000100686
0.0001006808
0.0001006387
0.0001006715
0.0001006992
0.0001006986
0.0001006981
0.0001006952
0.0001006938
0.000100622
0.0001006553
0.0001006815
0.0001006815
0.0001006795
0.0001006769
0.000100674
0.0001006126
0.0001006499
0.0001006743
0.000100676
0.000100675
0.0001006731
0.000100671
0.0001006052
0.0001006443
0.0001006668
0.0001006689
0.0001006688
0.0001006676
0.0001006662
0.0001005997
0.0001006409
0.0001006617
0.000100664
0.0001006646
0.0001006638
0.0001006627
0.0001005952
0.0001006381
0.0001006573
0.0001006597
0.0001006605
0.0001006601
0.0001006593
0.0001005915
0.000100636
0.0001006536
0.000100656
0.000100657
0.0001006569
0.0001006563
0.0001005883
0.0001006343
0.0001006504
0.0001006528
0.0001006538
0.000100654
0.0001006536
0.0001005855
0.000100633
0.0001006477
0.00010065
0.0001006511
0.0001006514
0.0001006512
0.0001005831
0.0001006318
0.0001006453
0.0001006476
0.0001006487
0.000100649
0.000100649
0.0001005809
0.0001006308
0.0001006432
0.0001006454
0.0001006465
0.0001006469
0.0001006469
0.0001005789
0.0001006299
0.0001006414
0.0001006435
0.0001006445
0.0001006449
0.0001006451
0.0001005771
0.0001006291
0.0001006398
0.0001006418
0.0001006427
0.0001006432
0.0001006433
0.0001005755
0.0001006285
0.0001006383
0.0001006401
0.0001006411
0.0001006416
0.0001006417
0.0001005739
0.0001006278
0.0001006369
0.0001006386
0.0001006397
0.0001006401
0.0001006403
0.0001005726
0.0001006273
0.0001006357
0.0001006373
0.0001006383
0.0001006387
0.0001006389
0.0001005713
0.0001006268
0.0001006346
0.0001006361
0.000100637
0.0001006375
0.0001006377
0.0001005701
0.0001006263
0.0001006336
0.0001006351
0.0001006359
0.0001006363
0.0001006366
0.0001005689
0.0001006259
0.0001006326
0.000100634
0.0001006349
0.0001006352
0.0001006354
0.0001005651
0.000636509
0.0001006318
0.0001006331
0.0001006339
0.0001006341
0.0001006344
0.000310834
0.0001158436
0.0001010133
0.0001005829
0.0003109761
0.0002992601
0.0001008825
0.0001007238
0.0001007386
0.0001007262
0.0002983548
0.0002978714
0.0001007524
0.0001006929
0.0001006508
0.0001006384
0.0002973676
0.0002972192
0.0001006498
0.0001006168
0.0001006202
0.0001006058
0.0002967171
0.0002966498
0.0001006282
0.0001006008
0.0001006032
0.0001005895
0.0002962205
0.0002961927
0.0001006101
0.0001005855
0.0001005939
0.0001005805
0.000295797
0.0002957968
0.0001006016
0.0001005793
0.0001005886
0.0001005747
0.0002954393
0.0002954549
0.000100595
0.0001005738
0.0001005846
0.0001005706
0.0002951255
0.0002951522
0.0001005903
0.0001005704
0.0001005814
0.0001005677
0.0002948483
0.0002948825
0.0001005864
0.0001005677
0.0001005788
0.0001005654
0.0002945999
0.0002946396
0.0001005832
0.0001005656
0.0001005766
0.0001005636
0.0002943756
0.000294419
0.0001005806
0.0001005639
0.0001005747
0.000100562
0.0002941713
0.0002942174
0.0001005782
0.0001005624
0.0001005729
0.0001005608
0.0002939841
0.0002940321
0.0001005762
0.0001005612
0.0001005714
0.0001005597
0.0002938118
0.0002938609
0.0001005744
0.0001005601
0.0001005699
0.0001005587
0.0002936528
0.000293702
0.0001005727
0.0001005592
0.0001005687
0.0001005579
0.0002935051
0.0002935543
0.0001005713
0.0001005583
0.0001005675
0.0001005571
0.0002933676
0.0002934165
0.0001005699
0.0001005576
0.0001005665
0.0001005564
0.0002932394
0.0002932879
0.0001005686
0.0001005569
0.0001005655
0.0001005558
0.0002931196
0.0002931678
0.0001005675
0.0001005562
0.0001005646
0.0001005552
0.0002930079
0.0002930561
0.0001005664
0.0001005557
0.0001005637
0.0001005547
0.0002929043
0.000292956
0.0001005655
0.0001005551
0.000100563
0.0001005542
0.0002928143
0.0002928939
0.0001005645
0.0001005547
0.0001005622
0.0001005538
0.0002927846
0.0001022177
0.0001005649
0.0001005543
0.0001005632
0.0001005524
0.0001191558
0.0001008596
0.0001004334
0.0001173495
0.0001007954
0.0001004163
0.0001214227
0.000100795
0.0001004772
0.000115698
0.0001007851
0.0001004818
0.0001217381
0.0001007994
0.0001004966
0.0001151269
0.0001007982
0.0001004938
0.0001221138
0.0001008023
0.0001004925
0.0001195795
0.0001008163
0.0001004969
0.0001151935
0.0001007999
0.0001004947
0.0001221349
0.0001008064
0.0001004956
0.0001153174
0.0001007933
0.0001004964
0.000121879
0.0001008041
0.0001004958
0.0001156807
0.0001007823
0.0001004819
0.00012128
0.0001008036
0.0001004769
0.0001174107
0.0001007885
0.0001004173
0.000119098
0.000100864
0.0001004334
0.0001159414
0.0001010067
0.0001005856
0.0003108346
0.0001004948
0.0002971808
0.0001006917
0.0001006499
0.0001006381
0.0002983329
0.0002978683
0.0001005536
0.0001005621
0.0001005538
0.0002928181
0.0002928937
0.0001005543
0.0001005602
0.0001005535
0.0002927852
0.00010222
0.0001102171
0.0001547365
0.000312443
0.0003003877
0.0001153485
0.0001111374
0.0001005524
0.0001005009
0.0002996834
0.0002990546
0.0001108965
0.0001091106
0.000100486
0.0001004824
0.0002985976
0.0002984356
0.0001091892
0.0001078984
0.000100481
0.0001004724
0.0002979973
0.0002979647
0.0001080534
0.000107032
0.0001004825
0.0001004665
0.0002975371
0.000297599
0.0001072348
0.0001063659
0.0001004885
0.0001004696
0.0002971833
0.0001065749
0.0001004943
0.0001027663
0.0001490857
0.0001028965
0.0001484598
0.0001021253
0.0001478169
0.000102291
0.0001475519
0.0001017592
0.0001470696
0.000101869
0.0001468967
0.000101517
0.0001464486
0.0001015951
0.0001463262
0.0001013468
0.0001459451
0.0001014094
0.0001458568
0.0001012218
0.0001455037
0.0001012739
0.0001454387
0.0001011269
0.0001451133
0.0001011708
0.0001450707
0.0001010513
0.0001447739
0.0001010893
0.0001447487
0.0001009902
0.0001444685
0.0001010235
0.0001444624
0.0001009401
0.0001441999
0.0001009696
0.0001442047
0.0001008985
0.0001439629
0.0001009248
0.0001439707
0.0001008635
0.0001437493
0.0001008871
0.000143757
0.0001008338
0.000143553
0.000100855
0.0001435605
0.0001008082
0.000143372
0.0001008275
0.0001433788
0.0001007861
0.0001432045
0.0001008037
0.0001432103
0.0001007669
0.0001430487
0.000100783
0.0001430535
0.00010075
0.0001429034
0.0001007649
0.0001429072
0.0001007351
0.0001427676
0.000100749
0.0001427705
0.000100722
0.0001426405
0.0001007349
0.0001426423
0.0001007104
0.0001425214
0.0001007225
0.0001425224
0.0001007001
0.0001424102
0.0001007114
0.0001424104
0.0001006908
0.000142306
0.0001007014
0.0001423063
0.0001006826
0.0001422113
0.0001006926
0.0001422191
0.0001105372
0.0001102735
0.0001101635
0.0001101538
0.0001102637
0.0001102158
0.000110402
0.0001102975
0.0001102402
0.0001103977
0.0001102817
0.0001103025
0.0001102648
0.0001102844
0.0001103967
0.0001102609
0.0001091663
0.0001102943
0.0001111893
0.0001005524
0.0001005031
0.0003124434
0.0003003844
0.0001091394
0.0001004862
0.0001004847
0.0002996806
0.0002990519
0.000107922
0.0001004812
0.0001004747
0.0002985959
0.0002984353
0.000107052
0.0001004827
0.0001004692
0.0002979951
0.0002979613
0.0001063827
0.0001004874
0.0001004638
0.0002975341
0.0002976203
0.0001007214
0.0001007381
0.0001007265
0.0003109617
0.00029926
0.0001006148
0.0001006205
0.0001006057
0.0002973562
0.000297217
0.0001005989
0.0001006034
0.0001005895
0.0002967062
0.0002966493
0.0001005836
0.0001005939
0.0001005805
0.0002962154
0.0002961926
0.0001005774
0.0001005885
0.0001005746
0.0002957931
0.0002957946
0.000100572
0.0001005845
0.0001005706
0.0002954344
0.0002954526
0.0001005687
0.0001005813
0.0001005676
0.0002951215
0.0002951507
0.000100566
0.0001005787
0.0001005654
0.000294846
0.0002948815
0.000100564
0.0001005765
0.0001005635
0.0002945983
0.0002946388
0.0001005623
0.0001005745
0.000100562
0.0002943751
0.0002944171
0.0001005609
0.0001005728
0.0001005608
0.0002941699
0.0002942153
0.0001005597
0.0001005712
0.0001005597
0.000293983
0.0002940301
0.0001005587
0.0001005698
0.0001005587
0.0002938111
0.0002938596
0.0001005578
0.0001005685
0.0001005579
0.0002936532
0.0002937001
0.000100557
0.0001005674
0.0001005571
0.0002935049
0.0002935523
0.0001005563
0.0001005663
0.0001005564
0.0002933679
0.0002934148
0.0001005556
0.0001005654
0.0001005558
0.0002932396
0.000293286
0.000100555
0.0001005645
0.0001005552
0.0002931203
0.0002931657
0.0001005545
0.0001005636
0.0001005547
0.000293008
0.0002930565
0.000100554
0.0001005628
0.0001005542
0.0002929067
0.0002929549
0.000107165
0.0001512033
0.0001071871
0.0001572521
0.0001005468
0.0001498061
0.0001010655
0.0001552293
0.0001091671
0.0001103566
0.0001025464
0.0001481216
0.0001026112
0.0001483244
0.0001020319
0.0001473374
0.0001020553
0.0001474874
0.0001017061
0.0001466974
0.0001017384
0.0001468081
0.0001014851
0.0001461627
0.0001015056
0.0001462467
0.0001013276
0.0001457092
0.0001013448
0.0001457797
0.0001012094
0.000145308
0.0001012233
0.000145362
0.0001011184
0.0001449582
0.0001011303
0.0001449988
0.0001010459
0.0001446499
0.0001010559
0.0001446809
0.0001009871
0.0001443752
0.0001009955
0.0001443994
0.0001009387
0.0001441292
0.0001009458
0.0001441464
0.0001008981
0.0001439053
0.0001009042
0.0001439148
0.0001008638
0.0001437006
0.0001008689
0.0001437031
0.0001008346
0.0001435109
0.0001008388
0.0001435085
0.0001008095
0.0001433342
0.0001008128
0.0001433275
0.0001007877
0.00014317
0.0001007904
0.0001431606
0.0001007687
0.0001430162
0.0001007709
0.0001430059
0.000100752
0.0001428726
0.0001007538
0.0001428613
0.0001007374
0.0001427379
0.0001007387
0.0001427265
0.0001007244
0.0001426115
0.0001007254
0.0001426
0.0001007129
0.0001424932
0.0001007135
0.0001424822
0.0001007026
0.0001423829
0.000100703
0.0001423725
0.0001006934
0.0001422817
0.0001006936
0.0001422708
0.000100685
0.0001046808
0.0001421929
0.0001006839
0.0001104029
0.0001103229
0.0001102949
0.0001102621
0.0001102948
0.0001103367
0.0001102717
0.000110301
0.0001103365
0.0001102651
0.0001103629
0.0001103414
0.0001102196
0.0001101851
0.0001105147
0.0001102303
0.0001102634
0.0001547263
0.000107181
0.0001511998
0.0001072031
0.0001572509
0.000100546
0.0001498093
0.000101065
0.0001552258
0.000102591
0.0001465697
0.0001027069
0.0001021219
0.0001478132
0.0001022828
0.0001475519
0.0001006904
0.0001423055
0.000100701
0.0001423054
0.0001006934
0.0001422828
0.0001006937
0.0001422698
0.0001006826
0.0001422114
0.0001006925
0.0001422213
0.0001006854
0.0001422372
0.0001421927
0.0001006843
0.0001005633
0.0001021742
0.0001005635
0.000100554
0.000100554
0.0001021747
0.0001046141
0.0001006839
0.0001421894
0.000100684
0.0001333707
0.0001436639
0.000150758
0.0001058325
0.0001061068
0.000149953
0.0001046988
0.0001490532
0.0001045746
0.0001487609
0.0001038777
0.0001481512
0.000103876
0.0001480061
0.0001033171
0.0001475009
0.0001033764
0.0001474279
0.0001029127
0.0001469916
0.0001030036
0.0001469658
0.0001025913
0.0001465739
0.0001027074
0.0001465872
0.000110385
0.0001563889
0.0001115029
0.0001561234
0.0001077678
0.0001548151
0.0001085097
0.0001547574
0.0001062326
0.0001537327
0.000106777
0.000153715
0.0001052111
0.0001529182
0.0001056048
0.0001529255
0.0001044742
0.0001522945
0.0001047732
0.0001522994
0.0001039201
0.0001517848
0.0001041485
0.0001517778
0.0001034991
0.0001513585
0.0001036597
0.0001513199
0.0001031497
0.0001509862
0.0001032752
0.0001509426
0.000102859
0.0001506591
0.0001029615
0.0001506148
0.0001026153
0.0001503666
0.000102702
0.0001503246
0.0001024089
0.000150102
0.0001024844
0.000150063
0.0001022324
0.0001498614
0.0001022994
0.0001498256
0.0001020803
0.0001496417
0.0001021401
0.0001496094
0.0001019484
0.0001494405
0.0001020021
0.0001494116
0.0001018331
0.000149255
0.0001018817
0.0001492301
0.0001017319
0.0001490836
0.0001017761
0.0001490618
0.0001016428
0.0001489251
0.0001016831
0.0001489051
0.000101564
0.0001487779
0.0001016009
0.000148759
0.000101494
0.0001486406
0.000101528
0.0001486229
0.0001014317
0.0001485126
0.0001014631
0.0001484959
0.0001013762
0.0001483929
0.0001014053
0.0001483772
0.0001013265
0.0001482808
0.0001013535
0.000148266
0.000101282
0.000148176
0.0001013072
0.0001481622
0.0001316994
0.0001313604
0.0001315293
0.000133343
0.0001322096
0.0001318993
0.0001322481
0.0001319407
0.0001325523
0.0001318649
0.0001318776
0.0001316755
0.0001314401
0.0001314914
0.000131199
0.0001313689
0.00013086
0.0001298619
0.0001227871
0.0001503564
0.0001241512
0.0001504503
0.0001125481
0.0001570029
0.0001129348
0.0001571192
0.000130202
0.0001300677
0.0001087132
0.0001553529
0.0001091585
0.0001552371
0.0001068965
0.0001541597
0.0001072572
0.0001540344
0.0001056841
0.000153284
0.0001059686
0.0001531686
0.0001048229
0.0001525935
0.000105052
0.0001524927
0.0001041837
0.0001520338
0.0001043729
0.0001519497
0.0001036902
0.0001515537
0.0001038505
0.0001514951
0.0001032974
0.0001511483
0.0001034347
0.0001511067
0.0001029778