/*--------------------------------*- C++ -*----------------------------------*\
  =========                 |
  \\      /  F ield         | OpenFOAM: The Open Source CFD Toolbox
   \\    /   O peration     | Website:  https://openfoam.org
    \\  /    A nd           | Version:  7
     \\/     M anipulation  |
\*---------------------------------------------------------------------------*/
FoamFile
{
    version     2.0;
    format      ascii;
    class       volScalarField;
    location    "0.09";
    object      p;
}
// * * * * * * * * * * * * * * * * * * * * * * * * * * * * * * * * * * * * * //

dimensions      [0 2 -2 0 0 0 0];

internalField   nonuniform List<scalar> 
109929
(
0.1668438
0.2079845
0.2340423
0.2535154
0.2694187
0.2825644
0.1260835
0.1541202
0.1814533
0.2016251
0.2178387
0.2310691
0.1121369
0.1581045
0.2041943
0.230833
0.2542342
0.272103
0.0906708
0.129659
0.1663508
0.1910737
0.2123356
0.2294508
0.08055968
0.1279084
0.1707162
0.1984694
0.2225117
0.2415806
0.06771558
0.1106875
0.1485818
0.17496
0.1980975
0.2168269
0.06116976
0.1061405
0.1451586
0.1718956
0.1948962
0.214565
0.05407621
0.09648968
0.1337386
0.1593013
0.1816084
0.2011247
0.0496209
0.09058217
0.1277814
0.1529318
0.1747376
0.1941734
0.04561653
0.08477216
0.1206336
0.1449221
0.1661109
0.1852457
0.04248655
0.08028515
0.1151917
0.1386914
0.1592548
0.178158
0.03974371
0.07620634
0.109893
0.1326563
0.1526202
0.1711831
0.03748303
0.0727067
0.1052315
0.1273981
0.1467614
0.1649255
0.03564396
0.06964478
0.1008006
0.1227879
0.141495
0.1591334
0.03424677
0.06700975
0.09667071
0.1188724
0.1368829
0.1539061
0.03309556
0.06458633
0.09352284
0.1154813
0.1328173
0.1491535
0.03198656
0.0620375
0.09369851
0.1125026
0.1291126
0.1447911
0.03086282
0.05992565
0.09100335
0.1095925
0.1255829
0.14072
0.02974189
0.0579378
0.08826642
0.1069241
0.1222471
0.1368874
0.02875046
0.0561998
0.0857658
0.1043238
0.1190464
0.133274
0.02793143
0.05479442
0.08359658
0.1016951
0.1159558
0.1298778
0.02725463
0.05359596
0.08184425
0.0989702
0.1130322
0.1267237
0.01439925
0.05256286
0.08054938
0.09602694
0.1103786
0.1238729
0.4204589
0.3715188
0.3713938
0.3785334
0.3871227
0.3976681
0.08926598
0.193548
0.209436
0.2447768
0.2652163
0.2857506
0.0461612
0.1224236
0.1323971
0.1529036
0.1647997
0.176325
0.02543272
0.1362697
0.1709479
0.2220579
0.2440917
0.2696318
0.02337412
0.08808803
0.1140253
0.1447376
0.1617302
0.1804093
0.01803744
0.09517776
0.1315195
0.179108
0.2053642
0.2333661
0.01604118
0.07027748
0.09919117
0.135328
0.1579495
0.1814721
0.01364268
0.07165544
0.1033189
0.1429556
0.1694789
0.1964325
0.012245
0.0599307
0.08744232
0.1215891
0.146833
0.1719864
0.01107654
0.05784418
0.08493676
0.1187469
0.1444464
0.1702464
0.01025197
0.05216819
0.07690862
0.108317
0.1329786
0.15781
0.009662015
0.0493788
0.07297714
0.1032261
0.1272363
0.1517116
0.009079767
0.0461245
0.06820999
0.09697343
0.1200213
0.143779
0.00870224
0.04373332
0.06462389
0.09221084
0.1143428
0.1375017
0.008392068
0.04151831
0.06119693
0.08786356
0.1086668
0.1314213
0.008127003
0.03962489
0.05815607
0.08428397
0.103462
0.1259939
0.007903848
0.03793013
0.0553526
0.08113863
0.09858993
0.1208908
0.007738071
0.03638019
0.05275253
0.07757807
0.09434621
0.1162039
0.00759247
0.03519388
0.05047457
0.07477431
0.09067548
0.1120316
0.007420578
0.03399714
0.04833064
0.07201651
0.08741601
0.1081865
0.00724145
0.03267246
0.04637574
0.06953104
0.08452028
0.1046354
0.007084256
0.03144631
0.0446023
0.067201
0.08181931
0.1012959
0.006931906
0.03038913
0.04307683
0.06506403
0.07949577
0.09811381
0.01237903
0.02944048
0.04169863
0.06300326
0.07717649
0.09505052
0.4723257
0.3826161
0.3681656
0.3614265
0.3610146
0.3708274
0.1509917
0.1984084
0.1975004
0.2491721
0.2630221
0.2901339
0.07062526
0.137601
0.1455114
0.1652363
0.1777089
0.185534
0.03417199
0.1367395
0.1689996
0.2206074
0.2463009
0.2714237
0.0299915
0.08958835
0.1186323
0.1471113
0.1674357
0.1857138
0.01998083
0.09185302
0.1319978
0.1760015
0.2052575
0.2308519
0.01778532
0.06664723
0.1004095
0.1323062
0.1570648
0.1791655
0.01484419
0.06780433
0.1042972
0.1414533
0.169381
0.1940153
0.01341305
0.0555068
0.08747527
0.1197498
0.1452369
0.1684389
0.01215197
0.05403208
0.08541912
0.1183387
0.1441394
0.1675654
0.01124638
0.04824265
0.07700133
0.1074739
0.1320291
0.1546848
0.01048953
0.04582207
0.07330633
0.1028373
0.1268192
0.1490003
0.00986351
0.04262787
0.06845541
0.09641117
0.1195006
0.1409986
0.009327198
0.04037779
0.06495497
0.0917041
0.1141117
0.1350473
0.008857485
0.0381886
0.06153684
0.0870151
0.1088391
0.1291373
0.008447194
0.03630631
0.05857559
0.08289097
0.1043655
0.1240098
0.008086397
0.03457456
0.05583755
0.07913592
0.1003745
0.119369
0.007758466
0.0330212
0.05333495
0.07583105
0.09676278
0.1150832
0.007460463
0.03167127
0.05115275
0.07278249
0.093377
0.1110773
0.007180062
0.03046147
0.04918805
0.07002681
0.0901967
0.1073557
0.006909589
0.02933395
0.04739954
0.06752717
0.08721379
0.1038957
0.006649638
0.02828617
0.04576002
0.0652278
0.08441677
0.1006823
0.006407616
0.02732095
0.04426341
0.06311123
0.08175188
0.09772358
0.006196917
0.02642993
0.04288657
0.06114293
0.07917336
0.09500434
0.4960776
0.387965
0.3645774
0.3469678
0.3338549
0.3418062
0.1631878
0.2222218
0.2222302
0.2608487
0.2779978
0.3028048
0.06998396
0.1265346
0.1355365
0.150944
0.1623233
0.1719032
0.03154513
0.1457028
0.1803528
0.2361908
0.2603143
0.2864219
0.02502027
0.0835084
0.1099865
0.1358938
0.1528858
0.1706647
0.01763117
0.09777279
0.1377068
0.1866827
0.2146503
0.2425501
0.01478625
0.06573776
0.09657668
0.128104
0.1507083
0.1734622
0.01302943
0.07149653
0.1067158
0.1459962
0.1731681
0.1996821
0.01146221
0.05658235
0.08669765
0.1187573
0.1433089
0.1677005
0.01054555
0.05621988
0.08667313
0.1197728
0.1451615
0.1702239
0.009585371
0.04957801
0.07729387
0.1074737
0.1314773
0.1555513
0.008905962
0.04725804
0.0739828
0.1033085
0.1268885
0.1505972
0.008272389
0.04377485
0.06883825
0.09655789
0.1192064
0.1421782
0.007755464
0.04143974
0.06532796
0.09192576
0.1138518
0.136224
0.007297273
0.03913765
0.06182065
0.08725985
0.108389
0.1301087
0.006899191
0.03720556
0.05884293
0.08328566
0.103678
0.1247961
0.00654418
0.03545114
0.05611897
0.07964803
0.09931017
0.1198466
0.006223771
0.03387369
0.05365438
0.07629832
0.09533811
0.11531
0.005937565
0.03247584
0.05144432
0.07332613
0.09171747
0.1111493
0.005678912
0.03120148
0.04942967
0.07059303
0.08840773
0.1073178
0.005443096
0.03003992
0.04760238
0.06810286
0.08537909
0.1037803
0.00522697
0.02897184
0.04593038
0.06580014
0.08257879
0.1004921
0.005030579
0.02799864
0.044409
0.06368603
0.08001375
0.09743111
0.004852354
0.02709691
0.04300617
0.06170212
0.07760387
0.09455272
0.5104906
0.3653564
0.354963
0.3505425
0.3460251
0.3580407
0.1674234
0.2082608
0.2143812
0.2739004
0.2838808
0.316191
0.09207613
0.1320751
0.1352972
0.1438212
0.1609307
0.1638149
0.03313354
0.1430244
0.1771892
0.2337674
0.2631933
0.286088
0.02402193
0.08294317
0.1095719
0.1337808
0.1521897
0.1680708
0.01731064
0.0962257
0.1379925
0.1850388
0.2155186
0.2419969
0.01434068
0.06420829
0.09649994
0.1263364
0.1499082
0.171631
0.01272624
0.0703218
0.1074674
0.145217
0.1736621
0.199134
0.01114147
0.05517776
0.0868065
0.1174121
0.1427104
0.1662684
0.010275
0.05517683
0.08721901
0.119099
0.1452958
0.1695007
0.009291899
0.04845474
0.07758763
0.1065283
0.1312111
0.1544777
0.008617408
0.04629374
0.07442558
0.1026261
0.1268801
0.1498028
0.007973407
0.04281631
0.06921595
0.0958309
0.1191071
0.1413281
0.007451761
0.04053844
0.06573522
0.09128358
0.1138437
0.135487
0.006985244
0.03825581
0.06220613
0.08662241
0.1083996
0.1294066
0.006580756
0.03635087
0.05922715
0.08266665
0.1037464
0.1241602
0.006221768
0.03461792
0.05649761
0.07903009
0.09944757
0.1192703
0.005902216
0.03307103
0.05404884
0.07575098
0.09556419
0.1148198
0.005616951
0.03168032
0.05183918
0.07277372
0.09200261
0.1107171
0.005360061
0.03041793
0.04982907
0.07005707
0.0887304
0.1069409
0.005127746
0.02927116
0.04799521
0.06757915
0.08570508
0.1034521
0.00491705
0.02822124
0.04631288
0.06530331
0.082916
0.1002359
0.004725055
0.02726687
0.04476118
0.06322373
0.08029311
0.09726066
0.004549603
0.02638219
0.0433349
0.06129069
0.07789287
0.09453164
0.5327904
0.2867977
0.2976593
0.3093325
0.3233225
0.3375315
0.1681842
0.2189588
0.2199897
0.275703
0.2844563
0.3164793
0.09568963
0.1281722
0.1345378
0.1431533
0.1608857
0.1637806
0.03349125
0.1441217
0.1782947
0.2339027
0.2633007
0.2860847
0.02373932
0.08274274
0.1096446
0.1337822
0.1522131
0.1680777
0.01703301
0.09630629
0.1380669
0.1850602
0.2155323
0.2419994
0.01412922
0.0642145
0.09651843
0.126346
0.1499147
0.1716333
0.01255946
0.07032902
0.1074747
0.1452213
0.1736648
0.1991359
0.01099311
0.05517999
0.08680899
0.1174139
0.1427118
0.1662689
0.01013219
0.05517766
0.08722008
0.1190998
0.1452963
0.1695013
0.009156582
0.04845515
0.07758824
0.1065285
0.1312113
0.154477
0.008488321
0.04629376
0.07442585
0.1026261
0.1268798
0.1498026
0.007848477
0.04281631
0.06921622
0.0958307
0.1191069
0.1413267
0.007331032
0.04053833
0.06573534
0.09128337
0.1138428
0.135486
0.006868588
0.03825597
0.06220649
0.08662219
0.1083991
0.1294043
0.006466885
0.03635111
0.05922747
0.08266637
0.1037451
0.1241575
0.006109786
0.03461862
0.05649831
0.07902968
0.09944629
0.1192653
0.005791823
0.03307187
0.05404957
0.07574951
0.09556232
0.1148115
0.005507496
0.03168147
0.05184022
0.07277007
0.0920013
0.1107034
0.005251696
0.03041816
0.04982994
0.07004655
0.08872758
0.1069112
0.005019877
0.02926863
0.04799522
0.0675558
0.08570638
0.1033978
0.004806895
0.02821342
0.0463132
0.06525735
0.08291398
0.1001349
0.004616601
0.02724338
0.04475622
0.06312488
0.08030796
0.09707835
0.004438546
0.02634689
0.04333596
0.06115131
0.07790077
0.09422818
0.5150283
0.2578005
0.2751147
0.2950941
0.3129793
0.3295926
0.1709665
0.2216578
0.2222163
0.2606935
0.2777476
0.3027603
0.09777324
0.1261297
0.1353903
0.1510616
0.1623388
0.1720318
0.03398193
0.1456507
0.1804322
0.2361571
0.260285
0.286414
0.02444482
0.08344032
0.1099834
0.1359037
0.1528874
0.1706754
0.01722475
0.09775628
0.1377172
0.1866802
0.2146483
0.2425466
0.01438458
0.06573083
0.09657715
0.1281043
0.1507079
0.1734595
0.01277055
0.0714939
0.1067171
0.1459956
0.1731673
0.1996793
0.01115806
0.05658143
0.08669757
0.1187566
0.1433079
0.1676982
0.0102665
0.05621922
0.08667252
0.1197722
0.1451606
0.1702226
0.009285406
0.04957727
0.07729289
0.1074731
0.1314768
0.1555513
0.008606148
0.04725729
0.07398166
0.1033081
0.1268881
0.1505974
0.007960944
0.04377383
0.06883698
0.0965576
0.1192065
0.1421794
0.007436529
0.04143886
0.06532693
0.09192597
0.1138526
0.136226
0.006969731
0.03913664
0.06181961
0.08726042
0.1083901
0.1301123
0.006564462
0.03720503
0.05884215
0.08328728
0.1036802
0.1248021
0.006204732
0.03545052
0.05611777
0.07965115
0.09931267
0.1198558
0.005883463
0.03387378
0.05365271
0.07630502
0.09534172
0.1153279
0.005597642
0.03247709
0.05144081
0.07333935
0.09171744
0.1111778
0.005339882
0.03120497
0.04942359
0.07061924
0.08840942
0.1073742
0.005105924
0.03005096
0.04758791
0.06815725
0.08535625
0.1038786
0.004891135
0.02899145
0.04590953
0.06589785
0.08257207
0.1006871
0.004694061
0.0280484
0.04434896
0.06388125
0.07989449
0.09774606
0.004508695
0.02716826
0.04294248
0.06201003
0.07756452
0.09513557
0.4918112
0.2409001
0.2660897
0.29764
0.3183377
0.3354968
0.1644931
0.1986578
0.1980308
0.249591
0.2632667
0.290272
0.09677529
0.1374029
0.1454616
0.1651486
0.1777054
0.1855194
0.03353581
0.13682
0.1691082
0.2206626
0.2463325
0.2714371
0.02454911
0.08957176
0.1186536
0.1471258
0.1674454
0.1857165
0.01672373
0.09186458
0.1320112
0.1760111
0.2052621
0.2308534
0.01432328
0.06664794
0.1004152
0.1323099
0.157067
0.1791646
0.0124476
0.06780545
0.1043
0.1414547
0.1693818
0.1940138
0.01098077
0.05550644
0.08747631
0.1197495
0.1452365
0.1684367
0.009994745
0.05403124
0.08541951
0.1183382
0.1441391
0.1675643
0.009039935
0.04824151
0.07700119
0.1074728
0.1320287
0.1546836
0.008338788
0.04582029
0.07330574
0.1028363
0.1268187
0.1489996
0.007697306
0.0426254
0.06845466
0.0964101
0.1194999
0.140997
0.007168167
0.04037522
0.06495443
0.09170364
0.1141113
0.1350462
0.00670432
0.03818674
0.06153688
0.0870156
0.1088386
0.1291361
0.006303496
0.03630538
0.05857603
0.08289269
0.1043648
0.1240088
0.005952221
0.03457434
0.05583889
0.07913827
0.100373
0.1193605
0.005640438
0.03302221
0.05333661
0.07583374
0.09676287
0.1150816
0.00536606
0.03167337
0.05115387
0.07278356
0.09337844
0.1110744
0.005121011
0.03046209
0.04918667
0.07002145
0.09019803
0.1073432
0.004898328
0.02933018
0.04738916
0.06750581
0.08721037
0.1038603
0.004691538
0.02827675
0.04574291
0.06518645
0.08440681
0.1006013
0.004499047
0.02728829
0.04420522
0.06299908
0.08171782
0.09747159
0.004319753
0.02638757
0.04281797
0.06100451
0.07913827
0.09452935
0.4302232
0.2352438
0.2568124
0.2786828
0.299218
0.3157158
0.116004
0.1935066
0.2094456
0.2447958
0.2652497
0.2857887
0.06543119
0.1223575
0.1323632
0.1528834
0.1647884
0.1763262
0.0274096
0.1362666
0.1709574
0.2220526
0.24408
0.2696199
0.02158964
0.08808136
0.1140296
0.1447402
0.1617297
0.1804046
0.01506516
0.09517373
0.1315229
0.1791063
0.205362
0.2333604
0.01272438
0.07027617
0.09919337
0.1353278
0.1579473
0.1814661
0.01095907
0.07165574
0.1033198
0.1429555
0.169477
0.1964286
0.009480832
0.05992992
0.08744138
0.1215882
0.1468305
0.171983
0.008530196
0.05784212
0.0849341
0.1187456
0.1444438
0.1702435
0.007646037
0.05216663
0.07690506
0.1083159
0.1329761
0.1578081
0.007026691
0.04937709
0.07297363
0.1032251
0.1272343
0.151711
0.00649393
0.04612225
0.06820628
0.0969726
0.1200208
0.1437809
0.006085726
0.0437308
0.06461998
0.09221029
0.1143435
0.1375049
0.005735107
0.04151593
0.06119314
0.0878628
0.10867
0.1314269
0.005433324
0.03962329
0.05815293
0.08428352
0.1034673
0.1260032
0.005179015
0.03792866
0.05534965
0.0811425
0.09859655
0.1209128
0.004970639
0.03638096
0.05274817
0.07758558
0.09435157
0.1162296
0.004802529
0.03520027
0.05046756
0.07479278
0.09067256
0.1120729
0.004635905
0.03400291
0.04831689
0.07205207
0.08741172
0.1082686
0.004469284
0.03269123
0.04634521
0.0696104
0.08446719
0.1047831
0.004320027
0.03147628
0.044555
0.06735203
0.08179052
0.1016198
0.00418949
0.03046642
0.04293095
0.06538876
0.07916122
0.09871906
0.01238363
0.02956649
0.04152178
0.06366427
0.07704863
0.09648891
0.2227539
0.2482657
0.271988
0.2913543
0.3054628
0.3181349
0.02224146
0.1579663
0.204897
0.2362746
0.2593023
0.2772725
0.2916737
0.01142031
0.1208463
0.159952
0.1885053
0.2111256
0.2272715
0.240215
0.007886835
0.1072647
0.1557923
0.1953848
0.2249006
0.2502958
0.2697018
0.005282243
0.08717377
0.1336758
0.170453
0.1967602
0.2185204
0.236781
0.005044205
0.07809172
0.1262366
0.1669391
0.195689
0.2202546
0.2400953
0.004307181
0.06788814
0.1121652
0.1500298
0.1781885
0.2015325
0.2218419
0.003698752
0.06104921
0.1053988
0.1449978
0.1725215
0.1955565
0.2156794
0.003202596
0.05370882
0.09544628
0.1347091
0.1615423
0.1835712
0.2035938
0.002866803
0.04946334
0.08922928
0.1280439
0.1549099
0.1762915
0.1962786
0.002578504
0.04562911
0.08331947
0.1210745
0.147267
0.1680284
0.1877317
0.002364798
0.04276139
0.07871659
0.1158233
0.1410984
0.1612204
0.180692
0.00227125
0.04024215
0.07459338
0.1106567
0.1351381
0.1546964
0.1738023
0.002165625
0.03821822
0.0711348
0.1060962
0.1299313
0.1489024
0.1676005
0.002073275
0.03654673
0.06816724
0.1016764
0.1253924
0.143698
0.1618498
0.001989187
0.03518527
0.06571254
0.09737539
0.1215381
0.1391735
0.1566496
0.001905365
0.03397853
0.06354198
0.09389864
0.1181717
0.1351999
0.1519179
0.00183228
0.03278922
0.06126704
0.09196459
0.1152498
0.1315643
0.1475715
0.001751247
0.03159612
0.0593828
0.08927257
0.1119878
0.1280084
0.1435125
0.001705112
0.03044492
0.05759348
0.0866065
0.1089205
0.1245916
0.1396809
0.001683784
0.02949825
0.05607598
0.08418626
0.106037
0.1213167
0.1360543
0.001658104
0.02875226
0.05486234
0.08203045
0.1032678
0.1181446
0.1326305
0.001629494
0.02810024
0.05380991
0.08002116
0.1004813
0.1150138
0.1293929
0.001600714
0.03503845
0.05283414
0.07804711
0.09754341
0.1116559
0.1263646
0.1312581
0.1523593
0.02198973
0.1259109
0.1141836
0.1245873
0.02232889
0.09871115
0.01451446
0.08648291
0.1264702
0.1520965
0.01142904
0.07060786
0.008359399
0.06637496
0.1116575
0.1048019
0.007889726
0.05854975
0.006095467
0.04855824
0.09536856
0.0933129
0.005282409
0.04523064
0.004734818
0.0389194
0.08097818
0.07846653
0.005044663
0.03940514
0.004310667
0.03323478
0.069496
0.06949929
0.004307287
0.03337743
0.00354157
0.02776312
0.06010198
0.06222128
0.003703071
0.0304354
0.003220938
0.02453109
0.05269602
0.05644006
0.003205012
0.02782541
0.002928036
0.02159285
0.04685683
0.05145006
0.00286718
0.02622441
0.00284429
0.01974756
0.04208323
0.04692155
0.002580907
0.02438513
0.002689831
0.01806373
0.03778213
0.04279161
0.002365902
0.02276214
0.002590572
0.01682973
0.03415284
0.03908406
0.002274673
0.02136016
0.002503646
0.01581147
0.03103994
0.03594949
0.002168871
0.02018039
0.002428302
0.01499414
0.02840094
0.03345159
0.002076071
0.01917165
0.002336427
0.01426911
0.02624372
0.03141893
0.001990622
0.01826087
0.002223345
0.01363337
0.02439923
0.02963055
0.001907203
0.01737073
0.002153033
0.01296373
0.02272415
0.02794749
0.001833152
0.0164365
0.001993312
0.01222295
0.02116173
0.02633641
0.001752343
0.01551336
0.001882022
0.0115691
0.01971824
0.02485465
0.001706994
0.01470267
0.001841737
0.01110162
0.01839896
0.02352111
0.00168432
0.01415082
0.001798005
0.01075765
0.01722591
0.02233921
0.001658918
0.01369945
0.001752179
0.01046055
0.01621905
0.02130829
0.001630188
0.01321441
0.001703953
0.01017204
0.01536076
0.009336166
0.001601895
0.01272004
0.001657374
0.009933738
0.2672204
0.01862405
0.1401858
0.5910586
0.01819886
0.1658007
0.2330734
0.02419595
0.1690915
0.6243869
0.02338302
0.1864996
0.2428124
0.02875654
0.1912992
0.6053919
0.02642968
0.1998772
0.2494568
0.02976561
0.1929791
0.2980765
0.02538383
0.2334305
0.5408595
0.02727429
0.194553
0.2504032
0.02941273
0.2008342
0.6225247
0.02640726
0.1970104
0.2422494
0.02836765
0.1920889
0.62537
0.02347517
0.1865493
0.2321562
0.02438104
0.1690089
0.5902198
0.01808448
0.1653792
0.2658391
0.01860195
0.1395642
0.1507742
0.02178958
0.12505
0.1307006
0.2973201
0.2943067
0.07058804
0.008351848
0.06635421
0.1263947
0.1520262
0.01319537
0.001703265
0.0101727
0.01621985
0.02130348
0.01269365
0.001656173
0.009934506
0.0153708
0.009338317
-0.01097559
0.06690444
0.1434024
0.1921956
0.223853
0.1876756
0.1488967
0.1745713
0.1968355
0.2233489
0.2484308
0.2249246
0.1958935
0.2079293
0.2327081
0.2475579
0.271973
0.2489277
0.2316671
0.2322141
0.2592365
0.2655613
0.2912851
0.2657761
0.2628709
0.2495739
0.2785892
0.2811134
0.3054017
0.2810853
0.2819716
0.2651083
0.2942698
0.3180824
0.2972734
0.0530013
0.0920171
0.05477735
0.1365476
0.03556573
0.1113344
0.0471767
0.1365522
0.03340775
0.1058315
0.037916
0.1160401
0.02683038
0.09238876
0.03266609
0.1058624
0.0239081
0.08378967
0.02875424
0.09544374
0.01924996
0.07485705
0.02442826
0.08761851
0.01396008
0.06382267
0.02037666
0.07710418
0.01056435
0.05737252
0.01742172
0.07028398
0.009059363
0.06091595
0.014649
0.06540259
0.007868309
0.06636627
0.01168763
0.06131264
0.007003809
0.06594134
0.009673887
0.05689226
0.006396609
0.06078073
0.008776601
0.05348967
0.005905177
0.05587665
0.008225075
0.05060086
0.005533348
0.05159948
0.007840746
0.04821324
0.00535846
0.04824197
0.007564249
0.04621399
0.005190389
0.04532048
0.007299466
0.04448557
0.004945776
0.04304267
0.006963137
0.04311875
0.004692102
0.04082459
0.006676937
0.04155096
0.004419512
0.03882544
0.006420119
0.04022756
0.004160164
0.03722381
0.006189514
0.03872054
0.003934331
0.03584373
0.005997019
0.037293
0.003787385
0.03452252
0.005878825
0.03570764
0.00371141
0.03322441
0.005790241
0.03391858
0.02318054
0.02847481
0.01216218
0.002231464
0.01907754
0.01797726
0.017791
0.02580291
0.02310969
0.007243003
0.02078518
0.02182325
0.01162288
0.01528913
-0.007867431
0.01177465
0.03143198
0.02480278
0.1874415
0.148317
0.1742612
0.1429234
0.1919484
0.2249388
0.1957829
0.2079046
0.1966683
0.2233114
0.2490141
0.2317294
0.2322692
0.2327034
0.2475971
0.2658578
0.2629482
0.2496416
0.2592737
0.2656103
0.2811479
0.2820312
0.2651598
0.2786316
0.2811509
0.09835678
0.01449325
0.08631356
0.1138321
0.124473
0.05854022
0.00609654
0.04855594
0.1116476
0.104785
0.04522262
0.004732476
0.03892043
0.09536615
0.09327503
0.03940415
0.004309744
0.03322824
0.08097049
0.07847227
0.03338033
0.003541044
0.02775768
0.06950135
0.06950263
0.03044256
0.003214937
0.02454192
0.06010373
0.06224271
0.02784136
0.00292771
0.02159858
0.05269417
0.05642453
0.02622821
0.002844057
0.01974597
0.04684129
0.05142756
0.0243879
0.002689802
0.0180588
0.04205992
0.0468924
0.02275743
0.002589237
0.01682379
0.03775092
0.04278002
0.02136031
0.002501339
0.01580618
0.03414541
0.03905433
0.02017811
0.002425089
0.01498721
0.03102264
0.03592342
0.01916657
0.002334688
0.01426367
0.02838726
0.03343237
0.01825715
0.0022207
0.01362898
0.02623082
0.03140893
0.01736868
0.002151074
0.01296089
0.024399
0.02961835
0.01643756
0.001992475
0.01221974
0.0227214
0.0279375
0.01551414
0.001879184
0.01156535
0.02116192
0.02631756
0.01469643
0.001840697
0.01110143
0.01971161
0.02483711
0.0141669
0.001796752
0.01075902
0.01838999
0.02349724
0.01369744
0.001751172
0.01046128
0.0172204
0.02232677
0.1103872
0.1194175
0.09359788
0.0829015
0.05356425
0.0758811
0.03461097
0.06506604
0.03209861
0.02981471
0.0522597
0.1404365
0.04424941
0.1331042
0.04050413
0.1262173
0.03348596
0.1146868
0.03414454
0.1122462
0.03104405
0.100344
0.02798208
0.100966
0.02427998
0.08854057
0.02457499
0.09251009
0.02122083
0.08044095
0.02066804
0.08012245
0.0174784
0.0725987
0.01704963
0.07166273
0.01317978
0.06425754
0.01461175
0.06951201
0.01015112
0.05818507
0.01294407
0.06919149
0.008375897
0.05368199
0.01147431
0.06545838
0.007195218
0.05035246
0.01063119
0.0584973
0.006581876
0.04637071
0.009963879
0.05165619
0.006356727
0.04350129
0.009370475
0.04600322
0.006119565
0.04111671
0.008829336
0.04208316
0.005898045
0.03946254
0.008420258
0.0387878
0.005836529
0.03809424
0.007968882
0.03636193
0.005613792
0.03720469
0.007381936
0.03416789
0.005329033
0.03716691
0.006915742
0.03229305
0.005068464
0.03681793
0.006479541
0.03092483
0.004814729
0.03695548
0.006137858
0.02986613
0.004563972
0.03655749
0.00583863
0.02903019
0.00433766
0.03632186
0.005683795
0.02816146
0.004171201
0.03515879
0.005629844
0.003446986
0.03341084
0.00397264
-0.005595274
0.01314444
0.005356024
0.01411801
0.02622686
0.01843469
0.001102847
0.003908286
0.01570015
0.02443828
0.01818512
0.01301311
0.009046502
0.001616938
0.01974565
0.02613704
-0.01485055
0.06602146
0.1090557
0.1186595
0.09235203
0.08201482
0.05276609
0.07546956
0.03387081
0.06474199
0.2861279
0.2899881
0.2931928
0.03554361
0.1112819
0.04713194
0.1365184
0.003788388
0.03449398
0.005878123
0.03576255
0.005681942
0.02826288
0.004167576
0.03526944
0.003708035
0.03329148
0.005791882
0.03403962
0.005607165
0.02813908
0.03364646
0.00396018
0.001573638
0.01244356
0.001576064
0.0123333
0.01229481
0.01244627
0.003075924
0.005719211
0.03243409
0.0057096
0.09633613
0.1454836
0.1433893
0.1517479
0.1588072
0.160593
0.2075006
0.2027657
0.2028613
0.2080393
0.237643
0.235979
0.2373526
0.239406
0.258128
0.2593435
0.261403
0.260487
0.2731627
0.2760037
0.2786538
0.2762094
0.2860996
0.2899439
0.2931365
0.2896072
0.0307817
0.04962976
0.03745711
0.05306889
0.009724606
0.02206733
0.01782099
0.02627538
0.005445902
0.01445985
0.01216626
0.01761593
0.004189984
0.01209001
0.009779158
0.01466722
0.003634971
0.01131124
0.008774832
0.01282332
0.003448491
0.01154084
0.007805688
0.01238457
0.004205804
0.01293958
0.0069751
0.01357704
0.004320749
0.0139641
0.006165594
0.01389784
0.00400378
0.01409814
0.005184111
0.01309985
0.003807819
0.01415572
0.004536665
0.01237848
0.003622159
0.01387909
0.004189527
0.01211521
0.003418527
0.0133137
0.003885896
0.01196105
0.003282215
0.01285
0.003648187
0.01177315
0.003207901
0.01249433
0.00346908
0.01150314
0.003163928
0.01217859
0.003320772
0.0110696
0.003164632
0.0119136
0.00326091
0.01072719
0.003163815
0.01169757
0.003213453
0.01053749
0.003158182
0.01146755
0.00315295
0.01042709
0.003087024
0.01123662
0.003063977
0.01027695
0.002994146
0.01101679
0.002966192
0.01012203
0.002912381
0.01081065
0.002877233
0.009978405
0.002829958
0.01059
0.002788475
0.009788004
0.00274819
0.01035125
0.00269925
0.009612562
0.171565
0.180166
0.1537927
0.1168722
0.1575935
0.1676759
0.1621749
0.1716761
0.1365825
0.1572635
0.1659663
0.170248
0.1615879
0.1641522
0.1531829
0.1528233
0.1537126
0.1676938
0.1178239
0.1306497
0.1319504
0.1173026
0.03390695
0.05270859
0.03252917
0.04068115
0.1782501
0.1796414
0.0107826
0.02691756
0.01313852
0.01799431
0.004488117
0.01678047
0.005482447
0.009456851
0.004169859
0.01307639
0.00401939
0.007508547
0.00426927
0.01148085
0.003774675
0.006611205
0.004429706
0.01080618
0.004082773
0.006284998
0.004399558
0.0125205
0.005321756
0.006408448
0.003787997
0.01386514
0.005462207
0.0066533
0.003384808
0.01316611
0.004957596
0.006748746
0.003202926
0.01266345
0.004621455
0.006937375
0.003045718
0.01183457
0.004394626
0.007064823
0.002996296
0.01091273
0.004231033
0.007247194
0.002952248
0.01048437
0.004080891
0.007563933
0.002888227
0.01043638
0.003918068
0.008017239
0.00282451
0.01040654
0.003707812
0.008155114
0.002833735
0.01017897
0.003585389
0.008456972
0.002846826
0.01014676
0.003466378
0.008564238
0.002849328
0.0101396
0.003344519
0.008633444
0.002855149
0.01010543
0.003216761
0.008663374
0.002836082
0.01007476
0.003091604
0.008632932
0.002792699
0.01003051
0.00297037
0.008614244
0.002741724
0.009949348
0.002859346
0.008583435
0.002688005
0.009855819
0.002761614
0.008535388
0.002664683
0.009768518
0.002621046
0.008444428
0.1580451
0.1539988
0.1544963
0.1676649
0.1577043
0.1747801
0.1449903
0.1576367
0.1630834
0.1466462
0.1394637
0.1482965
0.1149846
0.1388541
0.1642312
0.1755226
0.09860031
0.1444291
0.1169013
0.1298212
0.1311028
0.1163952
0.03384291
0.05262061
0.03244865
0.04060568
0.3001683
0.3011689
0.2993455
0.2983082
0.009711492
0.02205671
0.01780773
0.02626337
0.04049222
0.1261431
0.03349384
0.1146558
0.002684628
0.009855189
0.002757211
0.008533439
0.00274472
0.01035507
0.009607457
0.002694609
0.00973049
0.00264811
0.002599295
0.008402908
-0.02833193
0.08565673
0.07487172
-0.02757289
0.08157608
0.06685424
0.06129945
0.07441355
0.155101
0.1357984
0.1782911
0.1858945
0.1849489
0.1797385
0.2243725
0.221773
0.2195568
0.2218207
0.2535528
0.2468177
0.244701
0.2503049
0.2737285
0.2645934
0.2620464
0.2706209
0.288783
0.279143
0.2758114
0.2860842
0.02462386
0.0475934
0.02089444
0.03399219
0.009765574
0.02382499
0.009099722
0.01437326
0.007222093
0.01639985
0.005268585
0.01045871
0.007196708
0.01297123
0.004313799
0.009037781
0.006640773
0.01144882
0.003813027
0.008408008
0.005993143
0.01080547
0.003809369
0.00783379
0.00485053
0.01222106
0.004184723
0.008335675
0.004556137
0.01311834
0.004067337
0.008665583
0.004331743
0.01347052
0.003898006
0.008774937
0.004154426
0.01298785
0.003735965
0.009037936
0.003993026
0.01254001
0.003692011
0.009076214
0.003881554
0.01223766
0.003685019
0.008989805
0.003748757
0.01205119
0.003614334
0.008975354
0.003613954
0.01188126
0.003556171
0.009044504
0.003540246
0.01169701
0.003508856
0.009186354
0.003472591
0.01148896
0.00339532
0.009189003
0.003402503
0.0113024
0.003254388
0.009247852
0.003341333
0.01110586
0.003099025
0.009241489
0.003255562
0.01094756
0.002967143
0.009247041
0.003165733
0.01077929
0.002856561
0.00919803
0.003073684
0.01061194
0.002752953
0.009148674
0.002979983
0.01041444
0.002660226
0.009077452
0.002889904
0.01018785
0.002571973
0.00895269
0.1762736
0.1455091
0.1616744
0.1508348
0.1724319
0.1732668
0.1655029
0.1638384
0.1610758
0.1710251
0.156356
0.154243
0.1500578
0.1471555
0.1209202
0.1390128
0.1764551
0.155458
0.1427186
0.1509711
0.1600899
0.1581161
0.1855529
0.1793414
0.1778863
0.1845391
0.2025398
0.207885
0.2072667
0.2026829
0.221677
0.22173
0.2243193
0.2193901
0.2359498
0.2393766
0.2375702
0.2373634
0.2467417
0.250312
0.2535757
0.2445964
0.2593122
0.2604789
0.2580614
0.2614495
0.2645795
0.270668
0.2737317
0.2619764
0.2760126
0.2762171
0.2731181
0.278695
0.2791849
0.2758239
0.2861472
0.2888373
0.09173912
0.0544613
0.1364549
0.05282849
0.1403698
0.044179
0.1330647
0.05216184
0.1057821
0.03790686
0.1160335
0.03341378
0.1122123
0.100343
0.03415472
0.03105158
0.09236164
0.105808
0.02684006
0.03267053
0.1009117
0.08853532
0.02796702
0.02426804
0.08379164
0.0954139
0.0238834
0.02872985
0.09252658
0.08042945
0.02455939
0.02120461
0.07486799
0.08765321
0.01925812
0.02442263
0.06367951
0.07697098
0.01390983
0.02031509
0.07160909
0.06411237
0.0169382
0.01304346
0.05739222
0.07026263
0.01052837
0.01736685
0.06950649
0.0581781
0.01455462
0.01012048
0.06097452
0.06534687
0.009045777
0.01462857
0.06917323
0.05365045
0.01293024
0.008327136
0.06640249
0.0610807
0.007852887
0.01165624
0.06504455
0.05001282
0.01143438
0.007187416
0.06575197
0.05682316
0.006983076
0.009661552
0.0584397
0.0463213
0.01062693
0.006531222
0.06073304
0.0534565
0.006346085
0.008703485
0.05147367
0.04351695
0.009879543
0.006311948
0.05577083
0.05056637
0.005845001
0.008133797
0.04601994
0.04113801
0.009280638
0.00605239
0.05159242
0.04816431
0.005487143
0.007756205
0.0419229
0.03941805
0.008772597
0.005884115
0.04816359
0.04625497
0.005339118
0.007538889
0.04529913
0.04446393
0.005147208
0.007248747
0.03627563
0.03717761
0.007918429
0.005579135
0.04300222
0.0432426
0.004913057
0.00691429
0.04081572
0.04157295
0.004657268
0.006632174
0.03214216
0.03686316
0.006854294
0.005041655
0.03874285
0.04035207
0.004404798
0.006366736
0.03088375
0.03728542
0.006417252
0.00478452
0.0371844
0.03876635
0.004146939
0.006161472
0.02972288
0.03660008
0.006091537
0.004543509
0.0357652
0.0372525
0.003934904
0.005973914
0.0289481
0.004338254
0.03617369
0.005825411
0.1073294
0.08854727
0.08741199
0.106538
0.03865656
0.05742087
0.05194005
0.04449781
0.1770464
0.1504685
0.01285266
0.03318752
0.02549499
0.03046652
0.004492481
0.0159101
0.01414576
0.01721698
0.002296894
0.01238679
0.009728582