/*--------------------------------*- C++ -*----------------------------------*\
  =========                 |
  \\      /  F ield         | OpenFOAM: The Open Source CFD Toolbox
   \\    /   O peration     | Website:  https://openfoam.org
    \\  /    A nd           | Version:  7
     \\/     M anipulation  |
\*---------------------------------------------------------------------------*/
FoamFile
{
    version     2.0;
    format      ascii;
    class       volVectorField;
    location    "0.09";
    object      U;
}
// * * * * * * * * * * * * * * * * * * * * * * * * * * * * * * * * * * * * * //

dimensions      [0 1 -1 0 0 0 0];

internalField   nonuniform List<vector> 
86107
(
(-0.03045209 0.03031294 4.982217e-05)
(-0.04916733 0.03026176 9.620468e-05)
(-0.06932278 0.02855026 0.0001718948)
(-0.08787588 0.0272772 -6.321075e-05)
(-0.1056645 0.02507741 4.071647e-05)
(-0.1218628 0.02240094 -7.369298e-05)
(-0.1359126 0.01854859 -0.0001813058)
(-0.1473005 0.01409851 -0.0001857291)
(-0.03167281 0.04897976 -3.857524e-05)
(-0.05054944 0.04854305 2.098412e-05)
(-0.07138603 0.04700691 0.0006286834)
(-0.09086483 0.04474682 0.0003932634)
(-0.1096307 0.04139005 0.0003804426)
(-0.1269357 0.03709151 0.0003334747)
(-0.1422901 0.03114472 0.0002955479)
(-0.1551154 0.02386558 0.0002282118)
(-0.0318864 0.07055916 -0.000120186)
(-0.05214495 0.06992787 -0.0005795463)
(-0.07368062 0.06784006 7.834677e-05)
(-0.0942611 0.06486597 -0.0001777094)
(-0.1143496 0.06044342 -0.0001660541)
(-0.133326 0.05453941 -0.0002032896)
(-0.150493 0.04624474 -0.0002176209)
(-0.1654349 0.03594158 -0.0001937217)
(-0.03290996 0.09181191 0.0001679356)
(-0.05385917 0.09128395 -0.0003974068)
(-0.07642067 0.08900568 0.0002847853)
(-0.09826079 0.08557504 3.595211e-06)
(-0.1199946 0.0805056 2.996707e-05)
(-0.1412114 0.07343895 -1.374067e-05)
(-0.1610225 0.06326166 -6.169439e-05)
(-0.1791576 0.05016116 -4.191759e-05)
(-0.03384162 0.1143248 0.0002317166)
(-0.05574219 0.1141515 -0.0004635408)
(-0.07937175 0.1119668 0.0002624438)
(-0.1027521 0.108524 -3.995586e-05)
(-0.1265071 0.1034266 -3.821532e-05)
(-0.1506467 0.09575983 -6.391895e-05)
(-0.1740312 0.08443995 -0.0001980634)
(-0.1971962 0.06829002 -6.838768e-05)
(-0.03485236 0.1373926 0.0003094046)
(-0.0573153 0.1376121 -0.0004302585)
(-0.08202082 0.1357403 0.0003071453)
(-0.1067867 0.1327337 -4.393988e-07)
(-0.1327887 0.1283277 -3.412748e-05)
(-0.1602605 0.1211337 2.552441e-05)
(-0.1889055 0.1097611 -0.0002342954)
(-0.2194442 0.09149727 6.60795e-05)
(-0.03569182 0.1614463 0.0001726121)
(-0.05870765 0.1621542 -0.0004326359)
(-0.08422494 0.1612324 0.000272717)
(-0.1101411 0.1593782 -1.424383e-05)
(-0.1381215 0.15718 -0.0001690112)
(-0.1692112 0.1519018 8.171221e-05)
(-0.2043049 0.1444122 -0.0004135811)
(-0.247946 0.1225075 0.000427349)
(-0.03592214 0.1855964 0.0002465031)
(-0.05909136 0.1868753 -0.0004268857)
(-0.08479004 0.1869242 0.0002607303)
(-0.1107486 0.1865767 -1.904234e-05)
(-0.1401269 0.187568 -0.0002930192)
(-0.1731277 0.1873874 0.0001466657)
(-0.2181616 0.1882849 9.336485e-05)
(-0.277965 0.1665866 -0.001062346)
(-0.03611372 0.2099693 0.0004205475)
(-0.05918068 0.2118005 -0.0004556972)
(-0.08453656 0.2129096 0.000243907)
(-0.1094716 0.2147406 -6.120688e-05)
(-0.1373138 0.2205031 -0.0005370683)
(-0.167864 0.229962 0.0006884822)
(-0.2095184 0.2502293 0.001223808)
(-0.2919136 0.2432006 -0.002822725)
(-0.03557135 0.2340698 0.0006320161)
(-0.05822486 0.235999 -0.000496046)
(-0.08195512 0.2372346 0.0001665514)
(-0.1032892 0.2392473 -0.0001398801)
(-0.1241387 0.2470422 -0.001146001)
(-0.1397866 0.2590225 0.00120817)
(-0.1560706 0.2962581 0.0002617697)
(-0.1995426 0.3894868 0.00325826)
(-0.8540805 0.07986041 0.006869563)
(-0.03584176 0.2576695 0.0007907822)
(-0.05825926 0.2589671 -0.0005097923)
(-0.08133596 0.2583352 0.0002525432)
(-0.09954312 0.2573179 -0.0001205237)
(-0.1163706 0.2595663 -0.0006131317)
(-0.1182717 0.2622188 0.001080795)
(-0.1163463 0.27777 0.003963597)
(-0.1130895 0.3112329 0.004635868)
(-0.03684458 0.2817071 0.0008736634)
(-0.05997761 0.2821241 -0.0005253156)
(-0.08358095 0.2789284 0.0001920573)
(-0.1019163 0.2741169 -0.0001287713)
(-0.1191003 0.2679054 -0.001258939)
(-0.1197747 0.2577261 0.0008273056)
(-0.1188057 0.241354 0.001617985)
(-0.100521 0.2509171 0.0101246)
(-0.03897436 0.3067732 0.000959263)
(-0.06367477 0.3062819 -0.0005736023)
(-0.08926398 0.3007978 0.0002654671)
(-0.1104547 0.2925058 -0.0002071317)
(-0.132482 0.280691 -0.0006869456)
(-0.1431242 0.2604043 0.00186652)
(-0.1627763 0.2328538 0.005105745)
(-0.1637348 0.1883482 0.01232843)
(-0.04190329 0.333894 0.001021465)
(-0.06882944 0.3330469 -0.000590386)
(-0.09724322 0.3262345 0.0001447494)
(-0.1220166 0.3171218 -1.45292e-05)
(-0.1506461 0.3029157 -0.001927125)
(-0.1666315 0.2855599 0.005048784)
(-0.2149168 0.2520228 0.002834878)
(-0.2079479 0.1957857 0.01913754)
(-0.04509654 0.3631894 0.001101555)
(-0.07447808 0.3621678 -0.0006827035)
(-0.1051484 0.3545851 0.0002615508)
(-0.1338034 0.3449193 -0.0005222715)
(-0.1635936 0.3300164 -0.001125548)
(-0.1903226 0.3146286 0.001524602)
(-0.2242666 0.2872436 0.008510833)
(-0.2673892 0.2854735 0.004520797)
(-0.04888178 0.3950038 0.001206355)
(-0.08083057 0.3939617 -0.000654544)
(-0.1144622 0.3860769 0.0004429191)
(-0.1465568 0.3761752 -0.0001078907)
(-0.1808584 0.3623532 -0.0004858652)
(-0.2129168 0.3465972 0.001610081)
(-0.2568935 0.3263719 0.002267968)
(-0.2954806 0.3008261 0.005244443)
(-0.052654 0.4294513 0.001302771)
(-0.08708991 0.4284412 -0.0007038555)
(-0.1229359 0.4203206 0.0005276598)
(-0.1574932 0.4105258 -0.0002330836)
(-0.192274 0.3977491 -0.0004142029)
(-0.2267494 0.3858123 -0.0008871204)
(-0.2635596 0.3694789 -0.001231486)
(-0.3040707 0.3562395 -0.001559559)
(-0.05685434 0.4664841 0.001408181)
(-0.09394013 0.4652274 -0.0006923368)
(-0.1323842 0.4564638 0.0006791303)
(-0.1691827 0.4457889 -3.40843e-05)
(-0.2056819 0.4329479 -7.980795e-05)
(-0.2408814 0.4199972 -0.0002332045)
(-0.2771959 0.4063856 -0.0006077563)
(-0.3143626 0.3945188 -0.0006338473)
(-0.06145977 0.5065863 0.001508811)
(-0.1013961 0.5049225 -0.0007085409)
(-0.1423597 0.4952162 0.000763888)
(-0.1810161 0.4834534 -1.563585e-05)
(-0.2180908 0.4698663 -1.029468e-05)
(-0.2531718 0.4567356 -0.0002792146)
(-0.2876351 0.4438369 -0.0004099268)
(-0.3220431 0.4346154 -0.0007915144)
(-0.06658124 0.5497006 0.001601324)
(-0.1099311 0.547072 -0.0007269605)
(-0.1538424 0.5354979 0.0008548126)
(-0.1945526 0.5212897 2.830298e-05)
(-0.2324463 0.5054064 0.0001191304)
(-0.2669633 0.4899653 -5.827845e-05)
(-0.2993281 0.4761966 -9.127166e-05)
(-0.3302847 0.4662794 -0.0001685239)
(-0.07310157 0.5971607 0.001707676)
(-0.1205655 0.5933348 -0.00069239)
(-0.1681149 0.5794582 0.0009957046)
(-0.2111182 0.5620958 0.0001788242)
(-0.2494588 0.5427094 0.0002270073)
(-0.2824398 0.5237642 4.134269e-05)
(-0.3113537 0.5076228 1.043957e-05)
(-0.3380107 0.4969992 -5.488995e-05)
(-0.08015075 0.6486754 0.001733994)
(-0.1329818 0.6426939 -0.0007957984)
(-0.185061 0.6248544 0.0009778765)
(-0.2313546 0.6017537 -7.856753e-05)
(-0.2708736 0.5762474 0.0001949006)
(-0.3021447 0.5512611 -3.088497e-05)
(-0.3261422 0.5314771 0.0001028312)
(-0.3467797 0.5190398 7.584178e-06)
(-0.09062933 0.7075081 0.001886495)
(-0.1501203 0.6995529 -0.0005069574)
(-0.2090005 0.6778898 0.001364586)
(-0.2596407 0.6487278 0.000860712)
(-0.2998022 0.6145445 0.0006326012)
(-0.3271271 0.5800147 0.0006636737)
(-0.3436118 0.5530649 0.0005507765)
(-0.3558963 0.5387408 0.0003968823)
(-0.02487707 0.004180765 -0.001745097)
(-0.04437834 0.004028794 -0.002663722)
(-0.06704868 0.00374764 -0.002509782)
(-0.08788709 0.003456768 -0.003200182)
(-0.1074534 0.003262694 -0.002943941)
(-0.1251505 0.0029247 -0.004047499)
(-0.1403807 0.002274313 -0.005546807)
(-0.1529508 0.001612711 -0.005859164)
(-0.004026423 0.02493733 0.001973861)
(-0.03067211 0.03044199 4.631825e-05)
(-0.05081388 0.02925355 -8.406233e-05)
(-0.07026953 0.02750018 5.71582e-05)
(-0.08885657 0.02601558 -4.72366e-05)
(-0.1066521 0.02395629 1.380745e-05)
(-0.1231888 0.02125201 4.870246e-05)
(-0.1372274 0.01736136 0.0001090359)
(-0.1486055 0.01305099 0.0001383445)
(-0.004266139 0.04398103 0.00389284)
(-0.03073867 0.05082723 0.0001570874)
(-0.05143362 0.04943986 5.470548e-05)
(-0.07131058 0.04766021 0.0003670327)
(-0.09095308 0.045533 0.0002664129)
(-0.1096568 0.04229997 0.0003614751)
(-0.1269634 0.0379396 0.0003097578)
(-0.1423678 0.03195571 0.0002646434)
(-0.1552408 0.0245199 0.0002070717)
(-0.004265927 0.06750289 0.003567678)
(-0.03075484 0.07173077 3.689177e-05)
(-0.05301705 0.06976047 -0.0003392404)
(-0.07360336 0.06782668 8.156938e-06)
(-0.09450261 0.06477595 -8.327553e-05)
(-0.11436 0.06035829 1.801823e-05)
(-0.1333882 0.05443852 7.119391e-06)
(-0.1505361 0.04609673 1.270206e-05)
(-0.1654721 0.03575482 1.58516e-05)
(-0.004151288 0.0907715 0.003743274)
(-0.03152282 0.09326645 0.0002196346)
(-0.05505611 0.09146062 -0.0002209964)
(-0.07632021 0.08924406 9.609539e-05)
(-0.09850643 0.08574322 -9.901803e-06)
(-0.1199978 0.0806644 7.334381e-05)
(-0.1413041 0.07359789 5.49878e-05)
(-0.1611209 0.06329788 1.444821e-05)
(-0.1792582 0.05015073 3.726325e-05)
(-0.00431281 0.114088 0.004187295)
(-0.03241223 0.1157707 0.0001424602)
(-0.05707855 0.11415 -0.000382242)
(-0.07923994 0.1119956 -3.054344e-05)
(-0.103024 0.1085274 -0.0001316861)
(-0.1264867 0.1033736 -5.718074e-05)
(-0.1507851 0.09578035 -4.140027e-05)
(-0.1740261 0.08417536 -0.0001515644)
(-0.1973397 0.06812046 1.828353e-05)
(-0.004536248 0.1384684 0.00445837)
(-0.03335952 0.1389061 0.0002580304)
(-0.05872262 0.1376763 -0.0003598415)
(-0.08187601 0.1357677 -2.034607e-05)
(-0.1070901 0.1327724 -0.0001238429)
(-0.1327098 0.1282161 -8.589808e-05)
(-0.1604684 0.1211318 -4.486024e-06)
(-0.1888131 0.1091572 -0.0002912851)
(-0.2192694 0.09148176 5.202809e-05)
(-0.004785444 0.1633761 0.003791601)
(-0.03433878 0.1631721 0.0001844573)
(-0.06005567 0.1621862 -0.0004225131)
(-0.08410552 0.161193 -7.161103e-05)
(-0.11055 0.1593521 -0.0001516854)
(-0.1379921 0.1569426 -0.0001946541)
(-0.1699591 0.1520238 6.402624e-05)
(-0.2037879 0.1431323 -0.0006656117)
(-0.2486369 0.1229169 0.0003870698)
(-0.004847757 0.1886308 0.004563376)
(-0.0345613 0.1878559 0.000145715)
(-0.0605292 0.1868842 -0.0004228579)
(-0.08469915 0.186911 -0.0001106066)
(-0.1112434 0.1865148 -0.0001812491)
(-0.1400162 0.1871785 -0.0002840261)
(-0.1737908 0.1873904 0.0001484519)
(-0.2173082 0.1860646 -0.0007150926)
(-0.2776314 0.1675554 0.0007852081)
(-0.004798526 0.2141814 0.006132947)
(-0.03456171 0.2125806 7.987254e-05)
(-0.06080049 0.211776 -0.0004434088)
(-0.08447718 0.2128298 -0.0001381034)
(-0.1102974 0.214587 -0.0001776346)
(-0.137516 0.2194124 -0.0003915741)
(-0.171167 0.2295648 0.0003692361)
(-0.2082523 0.24639 -0.001109883)
(-0.2978067 0.2395586 0.0004272663)
(-0.004636412 0.2395875 0.00706677)
(-0.03383856 0.2369247 1.628112e-05)
(-0.0600896 0.2360268 -0.0004415674)
(-0.08196744 0.2373356 -0.0002961306)
(-0.1047008 0.2393379 -0.0004193266)
(-0.1247327 0.2474161 -0.001258601)
(-0.1464438 0.2596264 -0.001013851)
(-0.1533248 0.298894 -0.008810924)
(-0.2340367 0.3825359 0.002555141)
(-0.8737054 0.1867994 0.01448361)
(-0.004570479 0.2650708 0.008103076)
(-0.03392599 0.2607271 -1.097948e-05)
(-0.0601731 0.2590474 -0.0004142481)
(-0.08128726 0.2584542 -0.00019977)
(-0.1005534 0.2574876 -0.0003034242)
(-0.1167943 0.2599294 -0.0004811932)
(-0.120497 0.2627892 -0.0007134193)
(-0.114575 0.2822467 -0.002433119)
(-0.09525845 0.3143441 0.0006559301)
(-0.004600423 0.2904228 0.008320591)
(-0.03484699 0.2850584 -2.650254e-05)
(-0.06203991 0.2822463 -0.0003837327)
(-0.08346009 0.2791289 -0.0002677255)
(-0.1033069 0.2742833 -0.0002857274)
(-0.1193296 0.2679029 -0.001007033)
(-0.1243301 0.258195 -0.0009796891)
(-0.1178852 0.2431077 -0.004307558)
(-0.09555266 0.2456595 0.003663765)
(-0.00482667 0.3167104 0.008837792)
(-0.03688718 0.3104502 -3.019523e-05)
(-0.06580573 0.3064281 -0.0004062109)
(-0.08914604 0.3009459 -0.0001913432)
(-0.1113944 0.2928155 -0.0002725112)
(-0.1325659 0.2798902 -0.0004014281)
(-0.1453263 0.262114 -0.0006301609)
(-0.156111 0.2206961 -0.002484243)
(-0.1597939 0.1592311 -0.00311501)
(-0.00516633 0.3445879 0.009199799)
(-0.03969443 0.3378645 -1.473767e-05)
(-0.07123153 0.3331309 -0.0003705724)
(-0.09702062 0.3263654 -0.0002884868)
(-0.1241358 0.3169193 1.148517e-05)
(-0.1499118 0.302496 -0.00141625)
(-0.178258 0.2830043 0.001654625)
(-0.1961911 0.2449361 -0.007784487)
(-0.2475031 0.2087909 0.01349944)
(-0.005577895 0.3745582 0.009483158)
(-0.04282307 0.3675089 6.674105e-06)
(-0.07696989 0.3622879 -0.0004495878)
(-0.105283 0.3549775 -0.0002129359)
(-0.1353036 0.3450151 -0.0003735747)
(-0.165917 0.3315373 -0.0006220137)
(-0.1956902 0.3135146 -0.001735863)
(-0.2313306 0.2864731 -0.005746363)
(-0.270529 0.2578237 -0.009123913)
(-0.006033645 0.4068629 0.009769777)
(-0.04639179 0.3996446 7.745164e-05)
(-0.08338662 0.3941083 -0.0004207518)
(-0.114237 0.3864377 -0.0001350935)
(-0.1475297 0.3765303 -7.3613e-05)
(-0.1808607 0.3633872 -0.0002302651)
(-0.2148229 0.3491849 0.0004458793)
(-0.2524367 0.3306055 -0.001360903)
(-0.2998309 0.3167257 0.005490663)
(-0.006514564 0.4415581 0.009976932)
(-0.05001737 0.4344161 0.0001439728)
(-0.08976965 0.4285618 -0.0004810048)
(-0.1227836 0.4206552 -0.0001520963)
(-0.1582893 0.410688 -0.0003151057)
(-0.1930606 0.3984007 -0.0002500844)
(-0.2278433 0.3857634 -0.000623824)
(-0.265788 0.3719184 -0.0007031768)
(-0.3042896 0.3595181 -0.001955544)
(-0.007039915 0.4788059 0.0101482)
(-0.05402836 0.4718152 0.0002583453)
(-0.09670126 0.4653769 -0.000468447)
(-0.1320281 0.4568096 -8.943408e-05)
(-0.1696936 0.4461342 -0.0001927996)
(-0.2056677 0.4335345 -4.807699e-05)
(-0.241206 0.420943 2.861205e-05)
(-0.277769 0.4078496 -4.133118e-05)
(-0.3143789 0.39837 -0.0003003867)
(-0.007620875 0.5187032 0.01027814)
(-0.05848022 0.5122805 0.0003665477)
(-0.1042922 0.5050433 -0.0004906351)
(-0.141956 0.4955139 -9.491533e-05)
(-0.1814931 0.4836678 -0.0002654986)
(-0.2181106 0.4702421 -0.0001244066)
(-0.2534008 0.4570865 -0.0002122449)
(-0.2881015 0.4445477 -0.0001534603)
(-0.3221254 0.4354809 -0.0004512754)
(-0.008289717 0.5615876 0.01040374)
(-0.06348616 0.5558303 0.0005209585)
(-0.1129426 0.5472374 -0.0004802793)
(-0.1533367 0.5358513 -6.811089e-05)
(-0.194908 0.5216593 -0.0002694262)
(-0.2322244 0.5058485 -7.571773e-05)
(-0.2669452 0.4904657 -9.928285e-05)
(-0.2993215 0.4767807 -1.55955e-05)
(-0.3303033 0.4671403 -6.255909e-05)
(-0.00908601 0.6077596 0.01050956)
(-0.0698252 0.6036504 0.0006838089)
(-0.1237 0.5934149 -0.0004526347)
(-0.1674626 0.5797283 -4.427471e-05)
(-0.2114245 0.5622514 -0.0002312145)
(-0.2492177 0.5431219 -0.0001167684)
(-0.2824294 0.5241831 -0.0001372362)
(-0.3114188 0.5082542 -7.669815e-05)
(-0.3380844 0.4976444 -9.676813e-05)
(-0.01004078 0.6577144 0.01046817)
(-0.07692652 0.6557378 0.0008515272)
(-0.1362504 0.6429933 -0.0005004544)
(-0.184426 0.6253331 -0.0001349787)
(-0.2314739 0.6026509 -0.0005231719)
(-0.270344 0.5769774 -0.0002038473)
(-0.3019029 0.5521007 -0.0003009113)
(-0.3259268 0.5322068 -0.0001155731)
(-0.3469261 0.5197452 -0.0001521513)
(-0.01428282 0.7391155 -0.007001233)
(-0.08691378 0.7146506 0.001079759)
(-0.1534294 0.6993262 -0.0003233907)
(-0.2076935 0.6778773 -5.929826e-05)
(-0.2596915 0.6479441 6.19365e-05)
(-0.299656 0.6151091 -0.0001607331)
(-0.3270769 0.5802814 1.145359e-05)
(-0.3438667 0.5543481 -5.209196e-05)
(-0.3562084 0.5396843 -5.518816e-05)
(-0.02472263 0.003321332 0.001008851)
(-0.05223807 0.008828693 -0.0006076651)
(-0.06716936 0.007924977 0.001371731)
(-0.08725908 0.008419926 0.0001289829)
(-0.1037079 0.007433846 0.0003718375)
(-0.1196478 0.006611034 0.0003218951)
(-0.1332469 0.005346149 0.0002151583)
(-0.144284 0.003990653 0.0001645239)
(-0.003339388 0.02522309 -0.0009728989)
(-0.02950633 0.0293255 7.481811e-05)
(-0.04946655 0.02890486 0.001116396)
(-0.06995051 0.02587727 0.001150033)
(-0.08880994 0.02532814 0.00114437)
(-0.1067355 0.0230782 0.001035375)
(-0.1231432 0.02056208 0.001022777)
(-0.1374149 0.01701079 0.0009914539)
(-0.1490461 0.01285222 0.0008394315)
(-0.009332794 0.05325443 0.0009163958)
(-0.03054128 0.04926196 -0.001021364)
(-0.05001924 0.04801451 0.0001016295)
(-0.07105671 0.04661869 0.0001422685)
(-0.09086153 0.04442214 0.0002271969)
(-0.1095965 0.0411133 0.0003053262)
(-0.1270823 0.03679555 0.0002394909)
(-0.1424905 0.03083186 0.0001681497)
(-0.1553781 0.0235905 0.000117605)
(-0.008898639 0.06980931 -0.0008927793)
(-0.02926298 0.07125121 -0.001039858)
(-0.05177951 0.06949223 -5.680599e-05)
(-0.07315584 0.06731553 -1.699233e-05)
(-0.09412291 0.0643614 0.0001442733)
(-0.1142029 0.05992134 0.0001949206)
(-0.1333058 0.05407333 0.0002008574)
(-0.1505241 0.04582338 0.0001922945)
(-0.165526 0.03556384 0.000181792)
(-0.01021752 0.09279493 2.706632e-05)
(-0.03095787 0.09284428 -0.001177953)
(-0.05360031 0.0912244 -0.0001762817)
(-0.0759076 0.0888886 -0.0001672439)
(-0.09810032 0.08541546 -3.404157e-07)
(-0.1198339 0.08032124 3.043449e-05)
(-0.1412102 0.07328237 4.829432e-05)
(-0.1610777 0.06300913 1.719498e-05)
(-0.1792562 0.04995482 5.933394e-05)
(-0.01021022 0.1145569 -0.0004219182)
(-0.03164074 0.1155517 -0.001311765)
(-0.0554657 0.1139904 -0.0002912776)
(-0.07876965 0.1118177 -0.0002561835)
(-0.1025595 0.1083603 -6.871964e-05)
(-0.1262767 0.1032117 -3.990083e-05)
(-0.1506444 0.09563109 7.054834e-06)
(-0.1739467 0.08411581 -4.918021e-05)
(-0.1972807 0.06807886 0.0001163183)
(-0.01058528 0.1379031 -0.0001571295)
(-0.03266348 0.1389071 -0.001286563)
(-0.05712194 0.1375648 -0.0003065255)
(-0.08141638 0.1356848 -0.0002802709)
(-0.1066167 0.1326755 -9.791084e-05)
(-0.1324943 0.1281383 -8.79486e-05)
(-0.1603142 0.1210716 -2.540842e-05)
(-0.1886894 0.1091158 -0.000201312)
(-0.2192837 0.09161488 0.0001013181)
(-0.01077368 0.1613753 -0.0002746816)
(-0.03341377 0.1630793 -0.001280959)
(-0.05848885 0.1620865 -0.0003891881)
(-0.0835859 0.1611183 -0.0003167039)
(-0.1100433 0.1592574 -0.0001334405)
(-0.1377082 0.1568632 -0.0001397835)
(-0.1697481 0.151903 -1.21414e-05)
(-0.2035182 0.1431041 -0.0002759562)
(-0.2485032 0.12304 0.0005339164)
(-0.01079126 0.1852069 -0.0003220699)
(-0.03366374 0.1875002 -0.001365762)
(-0.05888068 0.1868673 -0.0003895386)
(-0.0842167 0.1868359 -0.0003591431)
(-0.1107524 0.1864704 -0.0001819523)
(-0.1397963 0.1872021 -0.0001734233)
(-0.1736423 0.187341 -6.381581e-05)
(-0.2167177 0.185684 -0.0001381869)
(-0.2774213 0.1679462 0.000770355)
(-0.01070829 0.2092975 -0.0004208684)
(-0.03372871 0.2121059 -0.001545689)
(-0.05893056 0.2118308 -0.0003643939)
(-0.08398751 0.2127305 -0.000395711)
(-0.1096917 0.2144609 -0.0001876699)
(-0.1371956 0.2193275 -0.0001554758)
(-0.1708278 0.2290304 5.408916e-05)
(-0.2080969 0.2447769 4.631741e-05)
(-0.2946172 0.2427235 0.0006769597)
(-0.01050034 0.2335457 -0.0001886669)
(-0.03341083 0.2365349 -0.001729632)
(-0.05804723 0.236138 -0.0003154958)
(-0.08166215 0.2373013 -0.0005232179)
(-0.1042206 0.2393185 -0.0004123999)
(-0.1251663 0.2476792 -0.0007097485)
(-0.1474243 0.2598651 -0.001317185)
(-0.1565385 0.2981493 -0.002531495)
(-0.2552946 0.3780884 0.0004002769)
(-0.9231838 0.1923489 0.009269145)
(-0.01047673 0.2576676 -1.351482e-05)
(-0.03367686 0.2604526 -0.001844775)
(-0.05793103 0.2591517 -0.0002504299)
(-0.0809138 0.2585002 -0.0004580778)
(-0.09970823 0.257663 -0.0002942193)
(-0.1167359 0.2605154 -9.959392e-05)
(-0.1192083 0.2634306 -0.000537703)
(-0.1163472 0.2824904 0.0007293585)
(-0.09689249 0.3117859 0.0005743512)
(-0.01076024 0.2822661 0.0001088173)
(-0.03468807 0.2847803 -0.001927935)
(-0.05963989 0.2823003 -0.0002086658)
(-0.08306835 0.2791502 -0.0004766386)
(-0.1022821 0.2744116 -0.000304737)
(-0.1192328 0.2681914 -0.0001126514)
(-0.1224847 0.2584753 -0.000616333)
(-0.1203852 0.2435826 0.001826191)
(-0.09930849 0.24273 0.00115774)
(-0.01135169 0.3078829 6.085093e-05)
(-0.03668341 0.3101212 -0.002066358)
(-0.0632005 0.3064594 -0.0002312588)
(-0.08866441 0.3009857 -0.0005075776)
(-0.1102007 0.2930657 -0.0004199108)
(-0.1321425 0.2803054 -6.549912e-05)
(-0.1435116 0.2631783 -0.001095972)
(-0.1592301 0.2221426 0.00175496)
(-0.1600665 0.1564155 -0.0008205981)
(-0.01222348 0.3353796 6.023177e-05)
(-0.03940493 0.3375153 -0.002165444)
(-0.0683974 0.3331387 -0.0001657843)
(-0.09639291 0.3263722 -0.0004198411)
(-0.1226348 0.3171833 -0.0001684758)
(-0.1488835 0.3028664 0.0005395744)
(-0.175174 0.2848128 -0.0002760716)
(-0.1972536 0.2509915 0.004479784)
(-0.251163 0.2077425 -0.005805523)
(-0.01319604 0.3649667 3.7661e-05)
(-0.04246317 0.3671402 -0.002332781)
(-0.07394427 0.3622414 -0.0002356972)
(-0.1045573 0.3548639 -0.0006106831)
(-0.1336943 0.3450312 -0.0004048043)
(-0.164311 0.3312683 -0.0004353037)
(-0.1923125 0.3134905 -0.0004861437)
(-0.2284684 0.2856847 0.001442247)
(-0.2685962 0.2574626 0.000618558)
(-0.01431847 0.396998 9.06634e-05)
(-0.04592801 0.3992947 -0.002392792)
(-0.08023513 0.394035 -0.0001502853)
(-0.1135536 0.3862605 -0.0004947465)
(-0.1461866 0.3763837 -9.910438e-05)
(-0.1799402 0.3627875 9.592246e-05)
(-0.2130349 0.3480852 0.0002699219)
(-0.2520153 0.3275648 0.001266213)
(-0.2992053 0.3122156 0.0009594086)
(-0.01546905 0.4316394 0.0001193085)
(-0.04949553 0.4341103 -0.002508722)
(-0.08650276 0.428493 -0.0001935581)
(-0.1221233 0.4204989 -0.0006101603)
(-0.1570973 0.4105593 -0.0002843704)
(-0.1923318 0.3979744 -0.0003449678)
(-0.2268704 0.3851404 -0.0004605557)
(-0.2646981 0.3703929 -0.0006956971)
(-0.3042461 0.3584994 -0.0003576212)
(-0.01673261 0.4689836 0.000214015)
(-0.0534263 0.4715269 -0.002536412)
(-0.09332422 0.4653138 -0.0001346666)
(-0.1313761 0.4566701 -0.00053588)
(-0.1686128 0.4460183 -0.0001228599)
(-0.2051857 0.4332213 -0.0001031836)
(-0.2406328 0.4204484 -7.801742e-05)
(-0.2773929 0.4069101 4.700622e-06)
(-0.314005 0.3969656 -6.006993e-05)
(-0.01814788 0.5094681 0.0003455576)
(-0.05781652 0.5120305 -0.00259161)
(-0.1007951 0.5050012 -0.0001214436)
(-0.1413096 0.4954061 -0.0005731522)
(-0.1804518 0.4835876 -0.0001729398)
(-0.2177033 0.4700606 -0.0002206381)
(-0.2529908 0.4568417 -0.0002593788)
(-0.2877816 0.4440914 -0.0003198004)
(-0.3219425 0.4350634 -0.0003955811)
(-0.01973147 0.5532488 0.000573309)
(-0.0628522 0.5555676 -0.00260614)
(-0.1093357 0.5471888 -8.401065e-05)
(-0.1526878 0.5357359 -0.0005378365)
(-0.1938726 0.52158 -0.0001147843)
(-0.2318736 0.5056876 -0.0001169426)
(-0.266629 0.4902574 -9.909841e-05)
(-0.2991561 0.4764647 -6.107173e-05)
(-0.3301881 0.4667355 -9.050822e-05)
(-0.02174884 0.6014344 0.0007553216)
(-0.06914443 0.6034298 -0.00265932)
(-0.1199605 0.593375 -5.134838e-05)
(-0.1668115 0.5796251 -0.0005573476)
(-0.2104015 0.5621914 -0.0001037018)
(-0.2489171 0.5430104 -0.0001694087)
(-0.2821635 0.524046 -0.000137139)
(-0.3112886 0.5080203 -0.0001365166)
(-0.3380119 0.4973945 -0.0001467702)
(-0.02399212 0.6541647 0.001258442)
(-0.0764894 0.6553778 -0.002644752)
(-0.132422 0.6428345 -4.935093e-05)
(-0.1837689 0.6250638 -0.0005793668)
(-0.230437 0.6024234 -0.0001740033)
(-0.2700725 0.5766302 -0.0001456197)
(-0.3017128 0.5517764 -0.0001322395)
(-0.325881 0.5318539 -8.515255e-05)
(-0.3468777 0.5194226 -9.930757e-05)
(-0.02715659 0.7140628 0.00124418)
(-0.08631986 0.7144928 -0.002750442)
(-0.149487 0.6991722 2.228261e-05)
(-0.2071019 0.6776368 -0.000653702)
(-0.2587533 0.6479186 -5.862995e-05)
(-0.2995037 0.6148822 -0.0003214971)
(-0.3268812 0.5800958 -0.0001461716)
(-0.3437729 0.5538283 -0.0001865809)
(-0.3561811 0.5392303 -9.643422e-05)
(-0.02507259 0.002959049 -8.255601e-05)
(-0.05303023 0.007853539 -0.000526772)
(-0.06794571 0.007599067 -0.0003102678)
(-0.08802567 0.008310752 -0.0001708409)
(-0.1048323 0.00732752 -0.0002931188)
(-0.1210034 0.006580758 -0.0003184654)
(-0.1345481 0.005350056 -0.0004002863)
(-0.1455965 0.004025649 -0.0003228944)
(-0.003120638 0.02456799 8.688726e-05)
(-0.0294538 0.02939886 5.754875e-05)
(-0.04966648 0.02956588 0.0002444056)
(-0.07020863 0.02618113 1.254461e-05)
(-0.08887801 0.02560531 3.079272e-05)
(-0.106646 0.02322263 -1.976868e-05)
(-0.1229681 0.02080505 -4.908854e-06)
(-0.1371038 0.01726757 -4.766865e-05)
(-0.1486247 0.01310596 -1.38224e-05)
(-0.008301034 0.05314909 0.0003625333)
(-0.03126297 0.04960836 -9.358918e-05)
(-0.05013088 0.04817181 7.14896e-05)
(-0.07124395 0.04676459 -2.275236e-05)
(-0.09092956 0.0445331 1.373956e-05)
(-0.1095897 0.04119852 -1.105122e-05)
(-0.1270289 0.0368957 1.065211e-05)
(-0.1423555 0.03092095 -3.581046e-05)
(-0.155185 0.02367492 -1.296532e-05)
(-0.008760572 0.07061185 0.0006445602)
(-0.02981082 0.07164802 0.0001569861)
(-0.05194719 0.06968892 0.0001634022)
(-0.07335388 0.06750306 4.972063e-05)
(-0.09424305 0.06448274 5.415762e-05)
(-0.1142358 0.06000245 4.159496e-05)
(-0.1332914 0.05415462 4.64021e-05)
(-0.1504299 0.04586208 1.273088e-05)
(-0.1653773 0.03563547 3.676935e-05)
(-0.01013804 0.09378037 0.0007522979)
(-0.03126267 0.09298676 0.0002191333)
(-0.05377338 0.09131113 0.000147629)
(-0.07605058 0.08901467 4.587118e-05)
(-0.09822664 0.08549161 3.642468e-05)
(-0.1198646 0.08036162 2.151233e-05)
(-0.1412265 0.07332827 3.018144e-05)
(-0.1610068 0.06298506 -2.333641e-05)
(-0.1791291 0.05005312 3.529967e-05)
(-0.01004519 0.1158014 0.0005652798)
(-0.03191396 0.1155755 0.0002058094)
(-0.05564222 0.114058 8.354737e-05)
(-0.07889961 0.1118912 1.147473e-05)
(-0.1027007 0.1084015 -9.663554e-06)
(-0.1263079 0.1031979 -2.372425e-05)
(-0.1507015 0.095638 -3.646258e-06)
(-0.1738418 0.08395979 -9.462329e-05)
(-0.1971901 0.06818449 8.029428e-05)
(-0.0103818 0.1393165 0.0006131313)
(-0.03288805 0.1388273 0.0002455111)
(-0.05731258 0.1375994 8.928186e-05)
(-0.08153607 0.1357088 6.006073e-06)
(-0.1067774 0.132678 -2.083432e-05)
(-0.1325164 0.1280526 -5.436922e-05)
(-0.1604612 0.1210197 -2.234781e-05)
(-0.1885603 0.1088347 -0.0002408146)
(-0.2191463 0.09201906 0.000105413)
(-0.01054192 0.1631497 0.0005170432)
(-0.0335986 0.1629404 0.0002170929)
(-0.05867886 0.1621094 4.946261e-05)
(-0.08371353 0.1610993 -2.593718e-05)
(-0.1102555 0.1592204 -5.286053e-05)
(-0.1377475 0.1567612 -0.0001151355)
(-0.170016 0.1517668 -4.581997e-05)
(-0.2032329 0.1423618 -0.0003268032)
(-0.2482869 0.1233937 0.0005796974)
(-0.01060272 0.187447 0.0006129673)
(-0.03392348 0.187385 0.0002314918)
(-0.05910872 0.1869048 5.560715e-05)
(-0.08437565 0.1868019 -4.510912e-05)
(-0.1109773 0.1863949 -8.14877e-05)
(-0.1398497 0.1870189 -0.0001308032)
(-0.1734578 0.1870741 -0.0001752818)
(-0.2162098 0.1845977 -0.0001153914)
(-0.2753379 0.1687975 0.000879867)
(-0.01062226 0.2118052 0.0007115614)
(-0.03415987 0.211969 0.0002167669)
(-0.05923339 0.211839 5.383778e-05)
(-0.08421988 0.2126232 -6.748362e-05)
(-0.1100431 0.2142798 -9.909614e-05)
(-0.1373055 0.2187119 -0.0001687975)
(-0.1713281 0.2279903 -7.961786e-05)
(-0.2063008 0.2424653 -0.0007320812)
(-0.2938285 0.2427116 0.0003820071)
(-0.01047438 0.2361719 0.0008775291)
(-0.0339493 0.2363746 0.0002535637)
(-0.05847207 0.2361376 5.567016e-05)
(-0.08200755 0.2372538 -0.0001554665)
(-0.1049346 0.2392052 -0.0002892143)
(-0.1257552 0.2474487 -0.0007509953)
(-0.1492084 0.2590742 -0.001327918)
(-0.1584356 0.2955144 -0.002063465)
(-0.2610604 0.3753876 0.001004007)
(-0.9562597 0.185103 0.005409065)
(-0.01047811 0.2604858 0.0009446816)
(-0.03427046 0.2602857 0.0002683463)
(-0.05837255 0.2591882 6.816328e-05)
(-0.08126491 0.2585326 -0.0001123927)
(-0.1002211 0.2576468 -0.0002503499)
(-0.1171055 0.2606498 -0.0003254233)
(-0.1195438 0.263504 -0.0007036861)
(-0.1164785 0.2815417 -0.0006079077)
(-0.09560012 0.310061 0.0002249368)
(-0.01075977 0.2853655 0.001042105)
(-0.03530505 0.2846021 0.0003156202)
(-0.06012626 0.2823374 0.0001007899)
(-0.08345174 0.2791508 -0.0001119914)
(-0.1029066 0.2742197 -0.0002668956)
(-0.1197665 0.2680217 -0.0003857607)
(-0.1230092 0.2574087 -0.0006733615)
(-0.1199465 0.2439916 -0.000439358)
(-0.1005263 0.2400942 -0.0005599203)
(-0.01136887 0.3113225 0.001087879)
(-0.03739475 0.3099857 0.0003019922)
(-0.06373225 0.3065805 6.150812e-05)
(-0.08920276 0.3011139 -0.0001673306)
(-0.1108566 0.2930631 -0.0005011265)
(-0.1333401 0.2806228 -0.0005552511)
(-0.1437372 0.2622827 -0.001751515)
(-0.1627511 0.2254276 -0.0006975833)
(-0.1617646 0.1602348 -0.002970682)
(-0.01224362 0.339091 0.001230916)
(-0.04015076 0.3373662 0.0003843615)
(-0.06890902 0.3332568 0.0001596672)
(-0.09686967 0.326386 -3.267754e-05)
(-0.12298 0.3170916 -0.0002381372)
(-0.1500556 0.3021375 4.530125e-05)
(-0.1732508 0.2843046 -0.0007841202)
(-0.2040822 0.2492409 0.001865214)
(-0.2371265 0.2171527 -0.007891833)
(-0.01324007 0.3690256 0.001297849)
(-0.04332064 0.3670335 0.0003669319)
(-0.07463144 0.3624475 0.0001074795)
(-0.1052889 0.3550354 -0.0002105157)
(-0.134953 0.345226 -0.0005358199)
(-0.1661795 0.331193 -0.0009653233)
(-0.196329 0.3147404 -0.00195512)
(-0.2334858 0.2909118 -0.003832828)
(-0.2768675 0.2650011 -0.005695463)
(-0.01437247 0.4013784 0.001403546)
(-0.04680775 0.3992019 0.0004354486)
(-0.080824 0.3943015 0.0002330313)
(-0.1140033 0.3865731 -1.525983e-05)
(-0.1467615 0.3767897 -0.0001165184)
(-0.1804952 0.3635897 -0.0001436003)
(-0.2138806 0.3496638 -0.0003462441)
(-0.2522636 0.3314429 -0.0004440482)
(-0.2932692 0.3159271 -3.549067e-06)
(-0.01553622 0.4363173 0.001545539)
(-0.05045606 0.4339839 0.000492049)
(-0.08717081 0.4287363 0.000230412)
(-0.1226841 0.4207516 -7.720865e-05)
(-0.1578506 0.4107933 -0.0002632261)
(-0.1931496 0.398323 -0.0004544774)
(-0.2281063 0.3855578 -0.0008195816)
(-0.2657645 0.370899 -0.001278027)
(-0.3052718 0.359413 -0.001579083)
(-0.01680106 0.4740671 0.001720366)
(-0.05441882 0.4714211 0.0006191901)
(-0.09395188 0.4656218 0.0003359443)
(-0.1318065 0.4569953 6.781756e-05)
(-0.1690742 0.4463745 -3.400672e-05)
(-0.2055117 0.4337732 -5.880288e-05)
(-0.2410336 0.421258 -0.0001686645)
(-0.2777387 0.4083327 -0.000213064)
(-0.3145302 0.3986727 -0.0003298971)
(-0.01825465 0.5148834 0.001846022)
(-0.05890194 0.5118889 0.0006843986)
(-0.1014807 0.5052889 0.0003716855)
(-0.1417835 0.495682 7.459558e-05)
(-0.1809454 0.4838221 -5.25543e-05)
(-0.2180716 0.4703469 -0.000124317)
(-0.2534157 0.4571432 -0.0002706233)
(-0.2881519 0.4444957 -0.0003968166)
(-0.3223613 0.4354745 -0.0005627186)