/*--------------------------------*- C++ -*----------------------------------*\
  =========                 |
  \\      /  F ield         | OpenFOAM: The Open Source CFD Toolbox
   \\    /   O peration     | Website:  https://openfoam.org
    \\  /    A nd           | Version:  7
     \\/     M anipulation  |
\*---------------------------------------------------------------------------*/
FoamFile
{
    version     2.0;
    format      ascii;
    class       volScalarField;
    location    "0.07";
    object      nut;
}
// * * * * * * * * * * * * * * * * * * * * * * * * * * * * * * * * * * * * * //

dimensions      [0 2 -1 0 0 0 0];

internalField   nonuniform List<scalar> 
109978
(
0.0006556814
0.0006385065
0.0006368691
0.0006366384
0.0006365836
0.0006367015
0.0006378368
0.0006066256
0.0006034549
0.0006030242
0.0006029651
0.0006031539
0.0006362816
0.0006035926
0.0006000017
0.0005994685
0.0005994013
0.0005996416
0.0006361344
0.0006032087
0.0005995114
0.0005989326
0.000598858
0.000599117
0.0006361258
0.0006031387
0.0005994047
0.000598804
0.0005987241
0.000598988
0.0006361427
0.0006031267
0.0005993807
0.0005987705
0.0005986858
0.000598951
0.0006361623
0.0006031335
0.0005993806
0.0005987647
0.0005986787
0.0005989447
0.0006361926
0.0006031461
0.0005993915
0.000598773
0.0005986855
0.0005989515
0.0006362263
0.0006031648
0.0005994076
0.0005987867
0.0005986985
0.0005989644
0.0006362582
0.000603187
0.0005994263
0.0005988043
0.0005987158
0.0005989816
0.0006362878
0.0006032118
0.000599447
0.0005988239
0.0005987342
0.0005990002
0.0006363178
0.0006032371
0.0005994691
0.000598846
0.0005987562
0.000599022
0.0006363491
0.0006032647
0.0005994941
0.0005988708
0.0005987807
0.0005990462
0.0006363809
0.0006032929
0.0005995217
0.000598898
0.0005988073
0.0005990724
0.0006364136
0.0006033231
0.0005995515
0.0005989274
0.0005988362
0.0005991008
0.0006364475
0.0006033553
0.0005995835
0.000598959
0.0005988673
0.0005991314
0.0006364832
0.0006033901
0.0005996181
0.0005989934
0.0005989016
0.0005991646
0.0006365213
0.0006034278
0.000599656
0.0005990313
0.000598939
0.0005992014
0.0006365626
0.0006034702
0.0005996996
0.0005990756
0.0005989831
0.0005992447
0.0006366085
0.0006035226
0.0005997569
0.0005991356
0.0005990433
0.0005993041
0.0006366726
0.0006036109
0.0005998608
0.000599247
0.0005991562
0.0005994147
0.0006368054
0.0006038161
0.0006001081
0.000599512
0.0005994204
0.0005996655
0.00010103
0.000604211
0.0006005675
0.0005999981
0.0005998935
0.0006000868
0.0005971163
0.0005972051
0.0005971539
0.0005971021
0.0005970306
0.0005969838
0.0001008128
0.0001007185
0.0001006936
0.0001006943
0.0001006937
0.0001006938
0.0001007793
0.0001006994
0.0001006945
0.0001006936
0.0001006932
0.0001006934
0.0001007671
0.000100697
0.0001006947
0.0001006932
0.0001006932
0.0001006934
0.0001007631
0.0001006985
0.0001006945
0.0001006932
0.0001006933
0.0001006934
0.0001007657
0.0001007007
0.0001006942
0.0001006933
0.0001006933
0.0001006934
0.0001007744
0.0001007009
0.0001006939
0.0001006933
0.0001006933
0.0001006935
0.0001007702
0.0001006989
0.0001006937
0.0001006934
0.0001006934
0.0001006936
0.0001007668
0.0001006972
0.0001006937
0.0001006934
0.0001006935
0.0001006936
0.0001007725
0.0001006957
0.0001006938
0.0001006935
0.0001006935
0.0001006937
0.0001007787
0.0001006951
0.0001006938
0.0001006935
0.0001006936
0.0001006937
0.0001007836
0.0001006948
0.0001006939
0.0001006935
0.0001006936
0.0001006938
0.0001007884
0.0001006947
0.0001006939
0.0001006936
0.0001006937
0.0001006938
0.0001007934
0.0001006945
0.0001006939
0.0001006936
0.0001006937
0.0001006939
0.0001007972
0.0001006945
0.000100694
0.0001006937
0.0001006938
0.000100694
0.0001008016
0.0001006944
0.0001006941
0.0001006937
0.0001006938
0.000100694
0.0001008078
0.0001006945
0.0001006941
0.0001006938
0.0001006939
0.0001006941
0.0001008135
0.0001006945
0.0001006942
0.0001006938
0.0001006939
0.0001006941
0.0001008194
0.0001006946
0.0001006943
0.0001006939
0.000100694
0.0001006942
0.0001008256
0.0001006948
0.0001006943
0.000100694
0.0001006941
0.0001006943
0.0001008314
0.0001006949
0.0001006944
0.000100694
0.0001006941
0.0001006944
0.0001008367
0.0001006951
0.0001006945
0.0001006941
0.0001006942
0.0001006944
0.0001008423
0.0001006954
0.0001006946
0.0001006942
0.0001006943
0.0001006945
0.0001008107
0.0001006956
0.0001006947
0.0001006942
0.0001006943
0.0001006946
0.0005981823
0.0005976516
0.0005976063
0.0005975867
0.0005975143
0.0005974279
0.0001008087
0.0001007045
0.0001006944
0.0001006935
0.0001006933
0.0001006935
0.0001008322
0.0001006975
0.0001006941
0.0001006943
0.000100693
0.0001006933
0.0001007625
0.0001006987
0.0001006933
0.0001006935
0.000100693
0.0001006933
0.0001007902
0.0001006997
0.0001006929
0.0001006941
0.000100693
0.0001006934
0.0001007723
0.000100698
0.0001006929
0.0001006941
0.0001006931
0.0001006934
0.0001007666
0.0001006967
0.000100693
0.0001006941
0.0001006932
0.0001006935
0.0001007624
0.0001006955
0.0001006931
0.0001006939
0.0001006932
0.0001006935
0.0001007601
0.0001006946
0.0001006932
0.0001006936
0.0001006932
0.0001006935
0.000100761
0.0001006943
0.0001006932
0.0001006936
0.0001006933
0.0001006936
0.0001007687
0.0001006941
0.0001006932
0.0001006935
0.0001006933
0.0001006936
0.0001007719
0.0001006937
0.0001006933
0.0001006935
0.0001006933
0.0001006936
0.0001007713
0.0001006936
0.0001006933
0.0001006936
0.0001006934
0.0001006937
0.0001007726
0.0001006936
0.0001006934
0.0001006937
0.0001006934
0.0001006937
0.0001007755
0.0001006936
0.0001006934
0.0001006939
0.0001006935
0.0001006938
0.0001007798
0.0001006936
0.0001006935
0.000100694
0.0001006935
0.0001006939
0.0001007843
0.0001006937
0.0001006936
0.000100694
0.0001006936
0.0001006939
0.0001007877
0.0001006937
0.0001006936
0.0001006941
0.0001006936
0.000100694
0.0001007917
0.0001006937
0.0001006937
0.0001006941
0.0001006937
0.0001006941
0.0001007966
0.0001006937
0.0001006938
0.0001006941
0.0001006937
0.0001006941
0.000100801
0.0001006937
0.0001006938
0.0001006942
0.0001006938
0.0001006942
0.0001008056
0.0001006938
0.0001006939
0.0001006943
0.0001006939
0.0001006943
0.0001008112
0.0001006938
0.000100694
0.0001006944
0.0001006939
0.0001006944
0.0001008186
0.0001006939
0.0001006941
0.0001006944
0.000100694
0.0001006945
0.0005982119
0.0005978628
0.0005978284
0.0005978178
0.0005977382
0.0005976302
0.0001007516
0.0001007006
0.0001006947
0.0001006929
0.0001006932
0.0001006934
0.0001007897
0.0001007047
0.0001006922
0.0001006954
0.000100693
0.0001006933
0.0001007788
0.0001006993
0.0001006926
0.0001006934
0.0001006931
0.0001006933
0.0001007542
0.0001006953
0.0001006925
0.0001006933
0.0001006931
0.0001006933
0.0001007512
0.0001006946
0.0001006927
0.0001006931
0.0001006931
0.0001006934
0.0001007521
0.0001006943
0.0001006928
0.0001006931
0.0001006932
0.0001006933
0.0001007547
0.0001006939
0.0001006929
0.0001006931
0.0001006932
0.0001006934
0.0001007518
0.000100694
0.0001006929
0.0001006932
0.0001006933
0.0001006935
0.0001007534
0.000100694
0.0001006929
0.0001006933
0.0001006933
0.0001006935
0.0001007585
0.000100694
0.000100693
0.0001006933
0.0001006934
0.0001006935
0.0001007609
0.0001006942
0.000100693
0.0001006934
0.0001006934
0.0001006936
0.0001007661
0.000100694
0.000100693
0.0001006934
0.0001006935
0.0001006937
0.0001007696
0.0001006937
0.0001006931
0.0001006934
0.0001006935
0.0001006937
0.0001007777
0.0001006936
0.0001006932
0.0001006935
0.0001006936
0.0001006937
0.000100787
0.0001006936
0.0001006932
0.0001006935
0.0001006936
0.0001006938
0.0001007929
0.0001006936
0.0001006933
0.0001006936
0.0001006937
0.0001006939
0.0001007952
0.0001006936
0.0001006933
0.0001006936
0.0001006937
0.0001006939
0.0001007984
0.0001006936
0.0001006934
0.0001006937
0.0001006938
0.000100694
0.0001008046
0.0001006936
0.0001006935
0.0001006937
0.0001006938
0.000100694
0.0001008109
0.0001006937
0.0001006935
0.0001006938
0.0001006939
0.0001006941
0.0001008152
0.0001006937
0.0001006936
0.0001006939
0.000100694
0.0001006942
0.0001008216
0.0001006938
0.0001006936
0.0001006939
0.000100694
0.0001006943
0.0001008304
0.0001006938
0.0001006937
0.000100694
0.0001006941
0.0001006943
0.0005982411
0.0005978993
0.0005979017
0.0005979057
0.0005978126
0.0005976996
0.0001007509
0.0001006992
0.0001006947
0.000100693
0.0001006931
0.0001006933
0.0001009222
0.0001007053
0.0001006924
0.0001006952
0.000100693
0.0001006934
0.0001007823
0.0001006982
0.0001006928
0.0001006937
0.0001006933
0.0001006933
0.0001007518
0.0001006943
0.0001006927
0.0001006935
0.000100693
0.0001006934
0.0001007487
0.0001006938
0.0001006927
0.0001006932
0.0001006931
0.0001006934
0.0001007497
0.0001006937
0.0001006928
0.0001006932
0.0001006931
0.0001006934
0.0001007513
0.0001006937
0.0001006928
0.0001006933
0.0001006931
0.0001006935
0.0001007537
0.0001006937
0.0001006929
0.0001006933
0.0001006932
0.0001006935
0.0001007533
0.0001006939
0.0001006929
0.0001006934
0.0001006933
0.0001006935
0.0001007564
0.0001006934
0.000100693
0.0001006935
0.0001006933
0.0001006936
0.0001007566
0.0001006932
0.000100693
0.0001006934
0.0001006933
0.0001006936
0.00010076
0.0001006936
0.000100693
0.0001006936
0.0001006934
0.0001006937
0.0001007765
0.0001006943
0.0001006931
0.0001006939
0.0001006934
0.0001006938
0.0001007854
0.0001006943
0.0001006931
0.000100694
0.0001006935
0.0001006938
0.0001007929
0.0001006944
0.0001006932
0.000100694
0.0001006935
0.0001006939
0.0001007985
0.0001006944
0.0001006932
0.0001006941
0.0001006936
0.0001006939
0.0001008027
0.0001006944
0.0001006933
0.0001006941
0.0001006936
0.000100694
0.0001008077
0.0001006943
0.0001006933
0.0001006941
0.0001006937
0.000100694
0.0001008127
0.0001006942
0.0001006934
0.0001006941
0.0001006937
0.0001006941
0.0001008145
0.0001006942
0.0001006934
0.0001006941
0.0001006938
0.0001006942
0.000100819
0.0001006941
0.0001006935
0.0001006941
0.0001006938
0.0001006942
0.0001008261
0.000100694
0.0001006935
0.0001006941
0.0001006939
0.0001006943
0.0001008353
0.000100694
0.0001006936
0.0001006942
0.000100694
0.0001006944
0.0005982316
0.0005978973
0.0005978928
0.0005978836
0.0005978076
0.0005976907
0.0001007649
0.0001006989
0.0001006947
0.000100693
0.0001006931
0.0001006933
0.0001008458
0.0001007053
0.0001006924
0.0001006952
0.000100693
0.0001006934
0.0001008014
0.0001006982
0.0001006928
0.0001006937
0.0001006933
0.0001006933
0.0001007501
0.0001006943
0.0001006927
0.0001006935
0.000100693
0.0001006934
0.0001007488
0.0001006938
0.0001006927
0.0001006932
0.0001006931
0.0001006934
0.0001007491
0.0001006937
0.0001006928
0.0001006932
0.0001006931
0.0001006934
0.0001007499
0.0001006937
0.0001006928
0.0001006933
0.0001006931
0.0001006935
0.0001007507
0.0001006936
0.0001006929
0.0001006933
0.0001006932
0.0001006935
0.0001007509
0.0001006939
0.0001006929
0.0001006934
0.0001006933
0.0001006935
0.000100754
0.0001006934
0.000100693
0.0001006935
0.0001006933
0.0001006936
0.0001007582
0.0001006932
0.000100693
0.0001006934
0.0001006933
0.0001006936
0.0001007668
0.0001006936
0.000100693
0.0001006936
0.0001006934
0.0001006937
0.0001007794
0.0001006943
0.0001006931
0.0001006939
0.0001006934
0.0001006938
0.0001007953
0.0001006943
0.0001006931
0.000100694
0.0001006935
0.0001006938
0.0001008035
0.0001006943
0.0001006932
0.000100694
0.0001006935
0.0001006939
0.0001008083
0.0001006943
0.0001006932
0.0001006941
0.0001006936
0.0001006939
0.0001008119
0.0001006944
0.0001006933
0.0001006941
0.0001006936
0.000100694
0.0001008153
0.0001006943
0.0001006933
0.0001006941
0.0001006937
0.000100694
0.0001008183
0.0001006942
0.0001006934
0.0001006941
0.0001006937
0.0001006941
0.000100822
0.0001006942
0.0001006934
0.0001006941
0.0001006938
0.0001006942
0.0001008281
0.0001006941
0.0001006935
0.0001006941
0.0001006938
0.0001006942
0.000100831
0.000100694
0.0001006935
0.0001006941
0.0001006939
0.0001006943
0.0001008375
0.000100694
0.0001006936
0.0001006942
0.000100694
0.0001006944
0.0005983034
0.0005978764
0.0005978536
0.0005978483
0.0005977688
0.0005976562
0.0001007457
0.0001007005
0.0001006947
0.0001006929
0.0001006932
0.0001006934
0.0001008737
0.0001007046
0.0001006922
0.0001006954
0.000100693
0.0001006933
0.0001007743
0.0001006993
0.0001006926
0.0001006934
0.0001006931
0.0001006933
0.0001007514
0.0001006953
0.0001006925
0.0001006933
0.0001006931
0.0001006933
0.0001007516
0.0001006945
0.0001006927
0.0001006931
0.0001006931
0.0001006934
0.0001007512
0.0001006942
0.0001006928
0.0001006931
0.0001006932
0.0001006933
0.0001007566
0.0001006939
0.0001006929
0.0001006931
0.0001006932
0.0001006934
0.000100752
0.000100694
0.0001006929
0.0001006932
0.0001006933
0.0001006935
0.0001007526
0.000100694
0.000100693
0.0001006933
0.0001006933
0.0001006935
0.0001007563
0.0001006939
0.000100693
0.0001006933
0.0001006934
0.0001006935
0.0001007635
0.0001006942
0.000100693
0.0001006934
0.0001006934
0.0001006936
0.0001007707
0.000100694
0.000100693
0.0001006935
0.0001006935
0.0001006937
0.000100776
0.0001006937
0.0001006931
0.0001006934
0.0001006935
0.0001006937
0.0001007827
0.0001006936
0.0001006932
0.0001006935
0.0001006936
0.0001006937
0.0001007906
0.0001006935
0.0001006932
0.0001006935
0.0001006936
0.0001006938
0.000100796
0.0001006935
0.0001006933
0.0001006936
0.0001006937
0.0001006939
0.0001008007
0.0001006935
0.0001006934
0.0001006936
0.0001006937
0.0001006939
0.0001008045
0.0001006936
0.0001006934
0.0001006937
0.0001006938
0.000100694
0.0001008094
0.0001006936
0.0001006935
0.0001006937
0.0001006938
0.000100694
0.0001008154
0.0001006936
0.0001006935
0.0001006938
0.0001006939
0.0001006941
0.0001008201
0.0001006937
0.0001006936
0.0001006939
0.000100694
0.0001006942
0.000100827
0.0001006937
0.0001006937
0.0001006939
0.000100694
0.0001006943
0.000100835
0.0001006938
0.0001006937
0.000100694
0.0001006941
0.0001006943
0.000598236
0.0005977074
0.0005976631
0.0005976802
0.0005975857
0.0005974857
0.0001007845
0.0001007043
0.0001006945
0.0001006935
0.0001006933
0.0001006935
0.0001008259
0.0001006974
0.0001006941
0.0001006943
0.000100693
0.0001006933
0.0001008291
0.0001006985
0.0001006933
0.0001006935
0.000100693
0.0001006932
0.000100762
0.0001006996
0.0001006929
0.0001006941
0.000100693
0.0001006934
0.0001007557
0.0001006979
0.0001006929
0.0001006941
0.0001006931
0.0001006934
0.0001007564
0.0001006966
0.000100693
0.0001006941
0.0001006932
0.0001006935
0.0001007556
0.0001006954
0.0001006931
0.0001006939
0.0001006932
0.0001006935
0.0001007521
0.0001006945
0.0001006932
0.0001006936
0.0001006932
0.0001006935
0.0001007518
0.0001006942
0.0001006932
0.0001006936
0.0001006933
0.0001006936
0.0001007553
0.000100694
0.0001006932
0.0001006935
0.0001006933
0.0001006936
0.0001007601
0.0001006936
0.0001006933
0.0001006935
0.0001006933
0.0001006936
0.0001007649
0.0001006935
0.0001006934
0.0001006936
0.0001006934
0.0001006937
0.000100774
0.0001006935
0.0001006934
0.0001006937
0.0001006934
0.0001006937
0.0001007794
0.0001006935
0.0001006935
0.0001006939
0.0001006935
0.0001006938
0.0001007854
0.0001006936
0.0001006936
0.000100694
0.0001006935
0.0001006939
0.00010079
0.0001006936
0.0001006936
0.000100694
0.0001006936
0.0001006939
0.0001007942
0.0001006936
0.0001006937
0.0001006941
0.0001006936
0.000100694
0.0001007981
0.0001006936
0.0001006937
0.0001006941
0.0001006937
0.0001006941
0.0001008026
0.0001006936
0.0001006938
0.0001006941
0.0001006937
0.0001006941
0.000100808
0.0001006937
0.0001006939
0.0001006942
0.0001006938
0.0001006942
0.0001008138
0.0001006937
0.000100694
0.0001006943
0.0001006939
0.0001006943
0.0001008205
0.0001006937
0.000100694
0.0001006943
0.0001006939
0.0001006944
0.0001008286
0.0001006938
0.0001006941
0.0001006944
0.000100694
0.0001006945
0.0005985808
0.0005985492
0.0005984585
0.00059846
0.000598361
0.0005982925
0.0001008656
0.0001007184
0.0001006936
0.0001006944
0.0001006936
0.0001006938
0.0001007996
0.0001006992
0.0001006945
0.0001006935
0.0001006932
0.0001006934
0.0001007966
0.0001006968
0.0001006947
0.0001006932
0.0001006932
0.0001006934
0.0001007852
0.0001006983
0.0001006944
0.0001006932
0.0001006932
0.0001006934
0.0001007753
0.0001007005
0.0001006942
0.0001006933
0.0001006933
0.0001006934
0.0001007717
0.0001007007
0.0001006939
0.0001006933
0.0001006933
0.0001006935
0.0001007691
0.0001006987
0.0001006937
0.0001006934
0.0001006934
0.0001006935
0.0001007636
0.0001006971
0.0001006937
0.0001006934
0.0001006934
0.0001006936
0.0001007595
0.0001006956
0.0001006938
0.0001006934
0.0001006935
0.0001006937
0.0001007612
0.000100695
0.0001006938
0.0001006935
0.0001006936
0.0001006937
0.0001007617
0.0001006947
0.0001006938
0.0001006935
0.0001006936
0.0001006938
0.0001007637
0.0001006946
0.0001006939
0.0001006936
0.0001006937
0.0001006938
0.0001007673
0.0001006944
0.0001006939
0.0001006936
0.0001006937
0.0001006939
0.0001007742
0.0001006943
0.000100694
0.0001006937
0.0001006938
0.0001006939
0.0001007785
0.0001006943
0.0001006941
0.0001006937
0.0001006938
0.000100694
0.0001007817
0.0001006944
0.0001006941
0.0001006938
0.0001006939
0.0001006941
0.0001007859
0.0001006944
0.0001006942
0.0001006938
0.0001006939
0.0001006941
0.0001007899
0.0001006945
0.0001006943
0.0001006939
0.000100694
0.0001006942
0.0001007936
0.0001006946
0.0001006943
0.000100694
0.000100694
0.0001006943
0.0001007979
0.0001006948
0.0001006944
0.000100694
0.0001006941
0.0001006943
0.000100803
0.000100695
0.0001006945
0.0001006941
0.0001006942
0.0001006944
0.0001008094
0.0001006953
0.0001006946
0.0001006942
0.0001006942
0.0001006945
0.0001008107
0.0001006956
0.0001006946
0.0001006942
0.0001006943
0.0001006945
0.0002122148
0.000209861
0.0002096555
0.0002095979
0.0002094762
0.0002093788
0.0001013025
0.0001012962
0.0001011844
0.0001010084
0.0001010587
0.0001010276
0.0001010246
0.0001024799
0.0001014019
0.0001011171
0.0001008831
0.0001009842
0.0001009401
0.0001009475
0.0001017764
0.0001013653
0.0001011629
0.0001008908
0.0001009988
0.000100945
0.0001009498
0.000101469
0.000101367
0.0001011657
0.0001008962
0.0001009962
0.0001009455
0.0001009495
0.0001012564
0.0001013585
0.0001011685
0.0001009119
0.0001009983
0.0001009521
0.0001009539
0.0001011186
0.0001013607
0.0001011666
0.0001009231
0.0001010009
0.0001009548
0.0001009571
0.0001011013
0.000101364
0.0001011587
0.0001009349
0.0001010037
0.0001009593
0.0001009619
0.000101154
0.0001013729
0.0001011482
0.0001009445
0.000101006
0.0001009626
0.0001009659
0.0001011677
0.0001013837
0.0001011431
0.000100953
0.0001010086
0.0001009667
0.0001009701
0.0001011819
0.0001013948
0.0001011461
0.0001009602
0.0001010123
0.0001009715
0.0001009749
0.0001012306
0.0001013957
0.0001011539
0.0001009663
0.0001010168
0.0001009769
0.0001009799
0.0001012815
0.0001014021
0.0001011583
0.0001009708
0.0001010207
0.0001009806
0.0001009839
0.0001013359
0.0001014082
0.0001011617
0.0001009747
0.0001010252
0.0001009849
0.0001009883
0.0001013967
0.0001014136
0.0001011674
0.0001009788
0.0001010297
0.0001009893
0.0001009928
0.0001014615
0.000101421
0.0001011734
0.0001009831
0.0001010344
0.0001009939
0.0001009973
0.000101525
0.000101428
0.0001011799
0.0001009876
0.0001010391
0.0001009983
0.0001010017
0.0001015918
0.0001014355
0.0001011866
0.0001009918
0.0001010438
0.0001010028
0.000101006
0.0001016671
0.000101444
0.0001011937
0.0001009958
0.0001010485
0.0001010071
0.0001010102
0.0001017514
0.0001014516
0.0001012011
0.0001009997
0.0001010531
0.0001010112
0.0001010144
0.0001018416
0.0001014573
0.0001012087
0.0001010034
0.0001010577
0.0001010153
0.0001010184
0.0001019378
0.0001014612
0.0001012162
0.0001010065
0.0001010621
0.0001010188
0.0001010221
0.0001020458
0.0001014636
0.000101223
0.0001010089
0.0001010659
0.0001010221
0.0001010253
0.0001021642
0.0006372017
0.0001012279
0.0001010106
0.0001010683
0.0001010237
0.0001010279
0.0003039072
0.0001881733
0.0001008723
0.0001007828
0.0003056907
0.0002942011
0.0001012988
0.0001008357
0.000102761
0.0001009402
0.0002939747
0.000293546
0.0001024796
0.0001009248
0.0001009048
0.0001009395
0.0002937116
0.0002935095
0.0001017761
0.0001009073
0.0001009231
0.000100913
0.0002936824
0.0002934974
0.0001014684
0.0001008773
0.0001009491
0.0001008893
0.0002936928
0.0002935012
0.000101256
0.0001008543
0.0001010025
0.0001008598
0.0002937192
0.0002935134
0.000101118
0.0001008358
0.0001010785
0.0001008426
0.0002937355
0.0002935194
0.000101101
0.0001008255
0.0001012172
0.0001008321
0.000293759
0.0002935316
0.0001011543
0.0001008058
0.0001013364
0.0001008043
0.0002937901
0.000293549
0.0001011682
0.000100788
0.0001013965
0.000100789
0.0002938315
0.0002935705
0.0001011828
0.0001007764
0.0001014638
0.0001007782
0.000293876
0.0002935954
0.0001012315
0.0001007651
0.0001015385
0.0001007731
0.0002939173
0.0002936222
0.0001012827
0.0001007538
0.0001016163
0.0001007694
0.0002939583
0.0002936513
0.0001013373
0.0001007477
0.0001016928
0.0001007654
0.0002940031
0.0002936834
0.0001013981
0.0001007414
0.0001017656
0.0001007626
0.0002940519
0.0002937167
0.0001014631
0.000100736
0.0001018454
0.0001007611
0.0002941
0.0002937522
0.0001015271
0.0001007325
0.0001019286
0.0001007602
0.0002941482
0.0002937915
0.000101594
0.0001007286
0.0001020146
0.0001007594
0.000294198
0.0002938353
0.0001016696
0.0001007246
0.0001021058
0.0001007582
0.0002942501
0.0002938825
0.000101754
0.000100721
0.0001022029
0.0001007568
0.0002943046
0.0002939339
0.0001018444
0.0001007184
0.0001023061
0.000100755
0.0002943631
0.0002939932
0.0001019409
0.0001007156
0.0001023985
0.0001007526
0.0002944322
0.0002940876
0.0001020493
0.0001007125
0.0001024867
0.0001007503
0.0002945556
0.0001013091
0.0001021681
0.0001007099
0.0001025717
0.0001007473
0.0002122163
0.0001012075
0.0001008039
0.0002098782
0.0001024171
0.0001008762
0.0002099207
0.0001009518
0.0001008472
0.0002098162
0.0001023808
0.0001008592
0.0002097396
0.0001009001
0.0001008497
0.0002097741
0.0001018609
0.0001008342
0.0002096923
0.0001009266
0.0001008248
0.0002097502
0.0001010528
0.0001008458
0.0002097047
0.0001020562
0.0001008541
0.000209765
0.0001008999
0.0001008324
0.0002097748
0.0001019932
0.0001008351
0.0002097976
0.0001009013
0.0001008484
0.0002098158
0.0001023794
0.0001008544
0.0002098995
0.0001009419
0.000100846
0.0002098772
0.0001024118
0.000100877
0.000212211
0.0001012161
0.0001008019
0.0001881752
0.0001008712
0.0001007827
0.0003039092
0.0002097402
0.0001006816
0.0001007045
0.0003058616
0.0002944365
0.0002095862
0.0001007039
0.0001006974
0.0002942827
0.0002937998
0.0002095361
0.0001006983
0.0001006978
0.000293882
0.000293707
0.0002094229
0.0001006986
0.0001006969
0.0002937836
0.0002936021
0.0002093335
0.000100698
0.000100697
0.0002936818
0.0002935318
0.0001006978
0.0002936167
0.0001008354
0.0001027612
0.0001009404
0.000305692
0.0002942021
0.0001009246
0.0001009057
0.0001009395
0.0002939749
0.0002935459
0.000100907
0.0001009237
0.000100913
0.0002937128
0.0002935109
0.0001008542
0.000101003
0.0001008598
0.0002936945
0.0002935016
0.0001008353
0.0001010788
0.0001008425
0.0002937196
0.0002935124
0.000100825
0.0001012173
0.0001008323
0.0002937346
0.0002935185
0.0001008057
0.0001013365
0.0001008044
0.0002937582
0.0002935299
0.0001007879
0.0001013965
0.0001007891
0.0002937886
0.0002935472
0.0001007763
0.0001014638
0.0001007784
0.00029383
0.0002935696
0.000100765
0.0001015384
0.0001007733
0.0002938752
0.0002935936
0.0001007537
0.0001016164
0.0001007696
0.0002939158
0.0002936213
0.0001007415
0.0001017658
0.0001007628
0.000294003
0.0002936826
0.0001007353
0.0001018457
0.0001007612
0.0002940512
0.0002937158
0.0001007317
0.0001019288
0.0001007604
0.0002940993
0.0002937514
0.0001007278
0.0001020148
0.0001007595
0.0002941475
0.0002937907
0.0001007238
0.0001021061
0.0001007583
0.0002941974
0.0002938338
0.0001007203
0.0001022031
0.0001007569
0.0002942486
0.000293881
0.0001007176
0.0001023068
0.000100755
0.0002943051
0.0002939353
0.0001007148
0.0001023993
0.0001007526
0.0002943645
0.0002939926
0.0001007118
0.0001024877
0.0001007503
0.0002944336
0.0002940876
0.0001007092
0.0001025728
0.0001007475
0.0002945566
0.0001013085
0.0001018957
0.0001455533
0.0001007819
0.0001429348
0.0001005776
0.0001425167
0.0001006096
0.0001427122
0.0001006547
0.0001426476
0.0001006036
0.0001427718
0.0001005931
0.0001426937
0.0001005983
0.0001429047
0.0001005782
0.00014276
0.0001005895
0.000143013
0.0001005654
0.0001428096
0.0001004924
0.0001430874
0.0001005754
0.0001428397
0.0001004975
0.0001431178
0.000100588
0.0001428514
0.0001004967
0.0001431316
0.0001005882
0.000142831
0.0001004917
0.0001431489
0.0001005646
0.0001428122
0.0001004897
0.0001431827
0.0001005219
0.0001428087
0.000100485
0.0001432097
0.0001004929
0.0001428175
0.0001004754
0.0001432339
0.0001004769
0.0001428367
0.000100465
0.0001432602
0.0001004654
0.0001428607
0.0001004531
0.000143287
0.0001004573
0.0001428938
0.0001004471
0.000143315
0.0001004574
0.0001429296
0.0001004503
0.0001433425
0.0001004681
0.0001429702
0.0001004623
0.0001433693
0.0001004861
0.0001430208
0.0001004785
0.0001433973
0.0001005083
0.0001430731
0.0001004973
0.0001434274
0.000100533
0.0001431289
0.0001005185
0.0001434643
0.0001005599
0.0001431865
0.0001005405
0.0001435099
0.0001005894
0.0001432464
0.0001005641
0.0001435641
0.0001006203
0.0001433109
0.0001005897
0.0001436279
0.0001006534
0.0001433896
0.0001018066
0.0001013989
0.0001017487
0.0001021109
0.0001021933
0.0001023141
0.0001023562
0.0001022532
0.0001022676
0.0001021531
0.0001024195
0.0001021457
0.0001024906
0.0001020127
0.0001018879
0.000101755
0.0001014538
0.0001020059
0.000100877
0.0001009497
0.0001008893
0.0002936822
0.0002934984
0.0001007471
0.0001016927
0.0001007657
0.0002939573
0.0002936501
0.0001005405
0.0001428573
0.0001008298
0.0001478413
0.0001014339
0.0001021314
0.0001009331
0.0001426127
0.000100655
0.0001424887
0.0001006217
0.0001426718
0.0001005968
0.0001427785
0.0001005915
0.0001427172
0.0001006042
0.0001428588
0.000100573
0.00014278
0.0001006117
0.0001429551
0.0001005627
0.0001428255
0.0001005271
0.0001430731
0.0001005779
0.0001428473
0.0001004957
0.0001431215
0.0001005919
0.0001428275
0.0001004955
0.000143141
0.000100587
0.0001428091
0.0001004937
0.0001431476
0.0001005558
0.000142804
0.000100521
0.0001431689
0.0001005138
0.0001428014
0.0001004988
0.0001432037
0.000100495
0.0001428163
0.0001004864
0.0001432286
0.0001004821
0.0001428369
0.000100474
0.0001432524
0.0001004703
0.0001428665
0.0001004628
0.000143275
0.0001004588
0.0001428994
0.0001004565
0.000143299
0.0001004531
0.0001429399
0.0001004603
0.000143322
0.0001004603
0.0001429833
0.0001004732
0.0001433428
0.000100473
0.0001430333
0.0001004912
0.0001433663
0.000100489
0.0001430879
0.0001005116
0.0001433922
0.00010051
0.0001431465
0.000100534
0.0001434223
0.0001005343
0.0001432066
0.0001005575
0.0001434581
0.0001005595
0.0001432698
0.0001005813
0.0001435025
0.0001005864
0.0001433389
0.0001006057
0.0001435557
0.0001006162
0.0001012161
0.0001436316
0.0001006262
0.0001019088
0.000101656
0.000102315
0.0001020389
0.0001025093
0.0001023596
0.0001021134
0.0001023472
0.0001023231
0.0001024427
0.0001019491
0.0001023831
0.0001017651
0.0001021909
0.000101829
0.0001015316
0.0001019067
0.0001455999
0.0001011009
0.0001436413
0.0001009099
0.0001482303
0.0001005409
0.000142863
0.0001008358
0.0001478709
0.0001008388
0.0001436
0.0001009094
0.0001431855
0.0001009052
0.0001431504
0.0001008224
0.0001432528
0.00010085
0.0001433186
0.0001009316
0.0001431119
0.0001009287
0.0001430658
0.0001008304
0.0001432047
0.0001008465
0.0001432035
0.0001009401
0.0001430098
0.0001009253
0.0001429788
0.0001008264
0.0001431017
0.000100845
0.0001431158
0.0001009384
0.0001429184
0.000100924
0.0001428791
0.0001008264
0.0001430036
0.0001008417
0.0001430061
0.0001009361
0.0001428156
0.0001009215
0.0001427841
0.000100824
0.0001428976
0.0001008391
0.0001429066
0.0001009341
0.0001007823
0.0001429375
0.0001005779
0.0001425177
0.0001009331
0.0001426116
0.0001006552
0.0001424904
0.0001006096
0.0001427112
0.0001006535
0.0001426472
0.0001006216
0.0001426702
0.000100597
0.0001427788
0.0001006035
0.0001427701
0.0001005923
0.0001426929
0.0001005915
0.0001427173
0.0001006048
0.000142858
0.0001005895
0.0001430126
0.0001005648
0.0001428091
0.0001005627
0.000142825
0.0001005273
0.0001430726
0.0001004924
0.0001430868
0.0001005738
0.0001428393
0.0001005779
0.0001428469
0.0001004957
0.0001431211
0.0001004974
0.0001431173
0.0001005861
0.000142851
0.0001005918
0.000142827
0.0001004955
0.0001431407
0.0001004902
0.0001431961
0.0001005216
0.0001428085
0.0001005137
0.0001428009
0.0001004993
0.0001432034
0.0001004756
0.0001432474
0.0001004768
0.0001428368
0.0001004822
0.0001428365
0.0001004741
0.0001432521
0.0001004531
0.0001432868
0.000100457
0.0001428935
0.0001004588
0.000142899
0.0001004565
0.0001432987
0.000100447
0.0001433149
0.0001004536
0.0001429293
0.0001004532
0.0001429395
0.0001004603
0.0001433215
0.0001004502
0.0001433424
0.0001004644
0.0001429699
0.0001004603
0.000142983
0.0001004733
0.0001433424
0.0001004622
0.0001433697
0.0001004823
0.0001430204
0.000100473
0.0001430329
0.0001004913
0.0001433658
0.0001004784
0.0001433976
0.0001005043
0.000143073
0.0001005185
0.000143464
0.00010056
0.0001431862
0.0001005344
0.0001432062
0.0001005577
0.0001434578
0.0001005403
0.0001435115
0.0001005852
0.0001432461
0.0001005597
0.0001432693
0.0001005815
0.0001435023
0.0001005639
0.0001435659
0.000100616
0.0001433102
0.0001005866
0.00014334
0.0001006059
0.0001435549
0.0001005895
0.0001436308
0.0001006491
0.0001433916
0.0001006165
0.0001469888
0.0001436313
0.0001006266
0.0001827688
0.0001692923
0.0003058602
0.000294436
0.0002122102
0.0002097406
0.0001006817
0.0001007045
0.0001746229
0.000173439
0.0001747458
0.000173558
0.0001746156
0.0001746259
0.0001744446
0.0001746315
0.0001748616
0.0001735441
0.0001745212
0.0001749496
0.0001743925
0.0001739918
0.0001751586
0.0001757149
0.0001748804
0.0001738955
0.0001011049
0.0001436457
0.0001009096
0.0001482122
0.0001738116
0.0001733632
0.0001742661
0.0001736462
0.0001748348
0.000175316
0.0001748041
0.0001751015
0.0001737855
0.0001739162
0.0001740356
0.0001747874
0.0001731615
0.000173751
0.0001742364
0.0001737836
0.0001747202
0.0001735805
0.0001817913
0.0001682057
0.0001598187
0.0001587064
0.0001596782
0.0001587595
0.0001047422
0.0001482481
0.0001045531
0.0001484734
0.0001595031
0.0001586889
0.0001586291
0.0001596406
0.0001593593
0.000158593
0.000159448
0.0001585338
0.0001593941
0.0001586312
0.0001585579