/*--------------------------------*- C++ -*----------------------------------*\
  =========                 |
  \\      /  F ield         | OpenFOAM: The Open Source CFD Toolbox
   \\    /   O peration     | Website:  https://openfoam.org
    \\  /    A nd           | Version:  7
     \\/     M anipulation  |
\*---------------------------------------------------------------------------*/
FoamFile
{
    version     2.0;
    format      ascii;
    class       volScalarField;
    location    "0.07";
    object      nut;
}
// * * * * * * * * * * * * * * * * * * * * * * * * * * * * * * * * * * * * * //

dimensions      [0 2 -1 0 0 0 0];

internalField   nonuniform List<scalar> 
77997
(
0.0005950643
0.0005681397
0.0005642568
0.0005634663
0.0005633509
0.0005633365
0.0005633381
0.0005633474
0.000563354
0.0005950447
0.001301979
0.001272781
0.001262647
0.00126025
0.001259692
0.001259589
0.001259646
0.001259741
0.0005681818
0.001274926
0.001247579
0.00123787
0.001235588
0.001235083
0.001234999
0.00123506
0.001235141
0.0005647369
0.001275233
0.001252594
0.001244704
0.001242975
0.001242618
0.001242573
0.001242656
0.001242754
0.0005654909
0.001300751
0.001293232
0.001288363
0.001287229
0.001286893
0.001286812
0.001286925
0.001287077
0.0005776239
0.0005991267
0.0005866916
0.0005847448
0.0005845193
0.0005844872
0.0005844711
0.0005845305
0.000584655
0.0005847452
0.0002380333
0.0002737859
0.0002730579
0.0002729909
0.0002729679
0.000272943
0.0002730246
0.0002728952
0.00027236
0.0002729598
0.0003184187
0.0003174789
0.0003174489
0.0003174952
0.0003175567
0.0003176344
0.0003177274
0.0003178448
0.0003180283
0.001351243
0.001323644
0.001314099
0.001311784
0.00131121
0.001311137
0.001311274
0.001311499
0.001311707
0.001316103
0.00126311
0.00124722
0.001243037
0.001241889
0.001241631
0.00124174
0.001241985
0.001242206
0.001305362
0.001244929
0.001225194
0.001219765
0.001218179
0.001217769
0.001217856
0.001218133
0.001218386
0.001302662
0.001239868
0.001218753
0.001212644
0.001210762
0.001210238
0.001210304
0.001210603
0.001210885
0.001301854
0.001238283
0.00121663
0.001210191
0.001208133
0.001207532
0.001207583
0.001207899
0.001208198
0.001301513
0.001237643
0.00121575
0.001209146
0.001206991
0.001206345
0.001206384
0.001206708
0.001207015
0.001301337
0.001237342
0.001215342
0.001208658
0.001206451
0.001205779
0.00120581
0.001206137
0.001206448
0.001301215
0.001237163
0.001215113
0.00120839
0.001206156
0.001205473
0.001205502
0.001205831
0.001206139
0.001301113
0.001237035
0.001214963
0.001208221
0.001205975
0.001205287
0.001205315
0.001205644
0.001205949
0.001301017
0.001236925
0.001214842
0.001208092
0.00120584
0.001205151
0.00120518
0.001205508
0.001205811
0.001300922
0.001236822
0.001214733
0.001207979
0.001205725
0.001205036
0.001205066
0.001205394
0.001205696
0.001300823
0.001236718
0.001214627
0.001207871
0.001205617
0.001204929
0.00120496
0.001205289
0.001205589
0.001300723
0.001236614
0.001214522
0.001207766
0.001205513
0.001204826
0.001204858
0.001205188
0.001205488
0.001300622
0.001236515
0.001214425
0.001207671
0.00120542
0.001204734
0.001204768
0.001205099
0.0012054
0.001300527
0.001236429
0.001214349
0.001207604
0.001205358
0.001204676
0.001204713
0.001205045
0.001205347
0.001300448
0.001236377
0.001214323
0.001207597
0.001205366
0.00120469
0.001204728
0.00120506
0.001205364
0.0005995599
0.001272569
0.001253114
0.001247294
0.001246394
0.00124625
0.001246129
0.001246044
0.0005994932
0.0001007214
0.0001007515
0.0001007507
0.0001007505
0.0001007504
0.0001007504
0.0001007504
0.0001007505
0.001271703
0.0001007517
0.0001007201
0.0001007198
0.0001007198
0.0001007198
0.0001007198
0.0001007198
0.0001007198
0.001259129
0.0001007509
0.0001007197
0.0001007194
0.0001007194
0.0001007194
0.0001007194
0.0001007194
0.0001007193
0.001276539
0.0001007501
0.0001007193
0.000100719
0.000100719
0.000100719
0.000100719
0.000100719
0.000100719
0.0005948218
0.0001007151
0.0001007537
0.0001007533
0.0001007527
0.0001007526
0.0001007526
0.0001007526
0.0001007526
0.0006007876
0.0005336639
0.0005225398
0.0005201914
0.0005198667
0.0005198222
0.0005198299
0.0005198921
0.0005200009
0.0001006597
0.0001006576
0.0001006561
0.0001006559
0.0001006555
0.0001006551
0.0001006546
0.0001006541
0.0001006534
0.0006081119
0.0001007052
0.0001007045
0.0001007041
0.0001007039
0.0001007037
0.0001007035
0.0001007032
0.0001007029
0.0001007026
0.0006033263
0.000100704
0.0001007028
0.0001007024
0.0001007022
0.0001007019
0.0001007016
0.0001007013
0.0001007009
0.0001007005
0.000602206
0.0001007041
0.0001007029
0.0001007025
0.0001007023
0.000100702
0.0001007017
0.0001007013
0.0001007009
0.0001007005
0.0006019543
0.0001007045
0.0001007032
0.0001007028
0.0001007026
0.0001007023
0.0001007019
0.0001007015
0.0001007011
0.0001007006
0.0006018581
0.0001007047
0.0001007034
0.0001007031
0.0001007028
0.0001007025
0.0001007021
0.0001007017
0.0001007012
0.0001007007
0.0006017621
0.0001007052
0.0001007037
0.0001007034
0.0001007031
0.0001007028
0.0001007023
0.0001007019
0.0001007013
0.0001007008
0.0006016899
0.0001007056
0.0001007041
0.0001007037
0.0001007034
0.0001007033
0.0001007029
0.0001007028
0.0001007023
0.0001007016
0.0006016062
0.0001007061
0.0001007045
0.000100704
0.0001007037
0.0001007034
0.0001007031
0.0001007029
0.0001007024
0.0001007017
0.0006015225
0.0001007066
0.0001007049
0.0001007044
0.0001007041
0.0001007037
0.0001007034
0.0001007033
0.0001007028
0.000100702
0.0006014326
0.0001007071
0.0001007053
0.0001007049
0.0001007045
0.0001007041
0.0001007037
0.0001007036
0.000100703
0.0001007023
0.0006013381
0.0001007077
0.0001007058
0.0001007053
0.0001007049
0.0001007045
0.000100704
0.0001007039
0.0001007034
0.0001007026
0.0006012393
0.0001007082
0.0001007063
0.0001007058
0.0001007054
0.0001007049
0.0001007044
0.0001007043
0.0001007038
0.000100703
0.0006011353
0.0001007087
0.0001007069
0.0001007063
0.0001007059
0.0001007054
0.0001007049
0.0001007048
0.0001007042
0.0001007035
0.0006010283
0.0001007092
0.0001007074
0.0001007069
0.0001007065
0.000100706
0.0001007055
0.0001007054
0.0001007048
0.000100704
0.0006009193
0.0001007097
0.000100708
0.0001007074
0.000100707
0.0001007065
0.0001007061
0.000100706
0.0001007055
0.0001007047
0.000100874
0.0001007103
0.0001007086
0.000100708
0.0001007076
0.0001007073
0.000100707
0.0001007069
0.0001007064
0.0001007055
0.0006027009
0.00127323
0.001241671
0.001233118
0.00123175
0.001231546
0.001231342
0.001231186
0.0006025826
0.0001006911
0.0001007212
0.0001007201
0.0001007198
0.0001007197
0.0001007197
0.0001007197
0.0001007197
0.001270473
0.0001007217
0.0001006912
0.0001006912
0.0001006912
0.0001006912
0.0001006912
0.0001006912
0.0001006912
0.001248841
0.0001007205
0.0001006912
0.0001006912
0.0001006912
0.0001006912
0.0001006912
0.0001006912
0.0001006912
0.001276149
0.0001007201
0.0001007224
0.0001007201
0.0001007199
0.00010072
0.00010072
0.00010072
0.00010072
0.0005840463
0.0001007544
0.001735517
0.001588693
0.001544338
0.001533101
0.001530626
0.001530385
0.001530577
0.0005372285
0.0001006579
0.0001006716
0.0001006716
0.0001006711
0.0001006708
0.0001006705
0.0001006702
0.0001006699
0.001299521
0.0001007057
0.0001006743
0.0001006742
0.0001006739
0.0001006737
0.0001006734
0.0001006731
0.0001006729
0.001272522
0.0001007045
0.0001006738
0.0001006738
0.0001006735
0.0001006732
0.0001006729
0.0001006726
0.0001006723
0.0001006719
0.0012632
0.0001007044
0.0001006739
0.0001006737
0.0001006735
0.0001006732
0.0001006728
0.0001006725
0.0001006721
0.0001006717
0.001260636
0.0001007048
0.0001006739
0.0001006737
0.0001006734
0.0001006731
0.0001006727
0.0001006723
0.0001006718
0.0001006714
0.001259794
0.0001007051
0.0001006741
0.0001006738
0.0001006735
0.0001006731
0.0001006727
0.0001006722
0.0001006718
0.0001006713
0.001259406
0.0001007054
0.0001006744
0.0001006741
0.0001006737
0.0001006733
0.0001006728
0.0001006723
0.0001006718
0.0001006713
0.001259196
0.0001007058
0.0001006747
0.0001006743
0.0001006739
0.0001006735
0.000100673
0.0001006725
0.0001006719
0.0001006714
0.001259052
0.0001007062
0.0001006751
0.0001006747
0.0001006742
0.0001006738
0.0001006732
0.0001006727
0.0001006721
0.0001006716
0.001258936
0.0001007066
0.0001006755
0.0001006751
0.0001006746
0.0001006741
0.0001006736
0.000100673
0.0001006724
0.0001006718
0.001258831
0.0001007071
0.000100676
0.0001006755
0.000100675
0.0001006745
0.0001006739
0.0001006734
0.0001006728
0.0001006722
0.001258729
0.0001007076
0.0001006765
0.000100676
0.0001006755
0.0001006749
0.0001006744
0.0001006738
0.0001006732
0.0001006726
0.001258627
0.0001007082
0.000100677
0.0001006765
0.0001006759
0.0001006754
0.0001006748
0.0001006742
0.0001006736
0.000100673
0.001258525
0.0001007087
0.0001006775
0.000100677
0.0001006764
0.0001006759
0.0001006753
0.0001006747
0.0001006741
0.0001006735
0.001258425
0.0001007093
0.0001006781
0.0001006775
0.000100677
0.0001006764
0.0001006758
0.0001006752
0.0001006746
0.000100674
0.001258328
0.0001007099
0.0001006787
0.0001006781
0.0001006775
0.000100677
0.0001006764
0.0001006758
0.0001006751
0.0001006745
0.001258246
0.0001007105
0.0001006792
0.0001006787
0.0001006781
0.0001006775
0.0001006769
0.0001006763
0.0001006757
0.0001006751
0.0006025303
0.001272143
0.001239338
0.001229703
0.001228343
0.001228186
0.001227931
0.001227715
0.0006022783
0.0001006911
0.0001007209
0.0001007196
0.0001007192
0.000100719
0.000100719
0.000100719
0.0001007191
0.001267493
0.0001007214
0.0001006912
0.0001006912
0.0001006912
0.0001006912
0.0001006912
0.0001006912
0.0001006912
0.00124561
0.0001007203
0.0001006912
0.0001006912
0.0001006912
0.0001006912
0.0001006912
0.0001006912
0.0001006912
0.00127309
0.0001007198
0.00010072
0.0001007179
0.0001007175
0.0001007176
0.0001007176
0.0001007176
0.0001007176
0.0005821708
0.0001007538
0.001588953
0.001430548
0.001371854
0.001356402
0.001352929
0.001352463
0.001352613
0.000526304
0.0001006576
0.0001006716
0.0001006719
0.0001006715
0.0001006711
0.0001006709
0.0001006704
0.00010067
0.001281081
0.0001007052
0.0001006744
0.0001006745
0.0001006741
0.0001006738
0.0001006736
0.0001006733
0.000100673
0.001239683
0.0001007038
0.0001006741
0.0001006741
0.0001006739
0.0001006736
0.0001006733
0.000100673
0.0001006727
0.00122638
0.0001007037
0.000100674
0.0001006739
0.0001006736
0.0001006734
0.000100673
0.0001006727
0.0001006723
0.0001006718
0.001222636
0.0001007041
0.000100674
0.0001006738
0.0001006735
0.0001006732
0.0001006729
0.0001006724
0.000100672
0.0001006715
0.001221438
0.0001007043
0.0001006742
0.0001006739
0.0001006736
0.0001006732
0.0001006728
0.0001006723
0.0001006719
0.0001006714
0.001220914
0.0001007047
0.0001006744
0.0001006741
0.0001006737
0.0001006733
0.0001006729
0.0001006724
0.0001006719
0.0001006713
0.001220645
0.000100705
0.0001006748
0.0001006744
0.0001006739
0.0001006735
0.000100673
0.0001006725
0.000100672
0.0001006714
0.001220471
0.0001007055
0.0001006751
0.0001006747
0.0001006742
0.0001006738
0.0001006733
0.0001006727
0.0001006722
0.0001006716
0.001220341
0.0001007059
0.0001006755
0.0001006751
0.0001006746
0.0001006741
0.0001006736
0.000100673
0.0001006724
0.0001006719
0.001220228
0.0001007064
0.000100676
0.0001006755
0.000100675
0.0001006745
0.0001006739
0.0001006734
0.0001006728
0.0001006722
0.001220121
0.0001007069
0.0001006765
0.000100676
0.0001006755
0.0001006749
0.0001006744
0.0001006738
0.0001006732
0.0001006726
0.001220018
0.0001007074
0.000100677
0.0001006765
0.0001006759
0.0001006754
0.0001006748
0.0001006742
0.0001006736
0.000100673
0.001219916
0.000100708
0.0001006775
0.000100677
0.0001006764
0.0001006759
0.0001006753
0.0001006747
0.0001006741
0.0001006735
0.001219816
0.0001007085
0.0001006781
0.0001006775
0.000100677
0.0001006764
0.0001006758
0.0001006752
0.0001006746
0.000100674
0.001219724
0.0001007091
0.0001006787
0.0001006781
0.0001006775
0.000100677
0.0001006764
0.0001006758
0.0001006751
0.0001006745
0.001219649
0.0001007097
0.0001006793
0.0001006787
0.0001006781
0.0001006775
0.0001006769
0.0001006763
0.0001006757
0.0001006751
0.0006025611
0.001273068
0.0012407
0.001231278
0.001230073
0.001229975
0.001229694
0.001229429
0.0006022125
0.0001006911
0.0001007207
0.0001007194
0.0001007189
0.0001007188
0.0001007187
0.0001007188
0.0001007188
0.001267198
0.0001007214
0.0001006912
0.0001006912
0.0001006912
0.0001006912
0.0001006912
0.0001006912
0.0001006912
0.001245356
0.0001007202
0.0001006912
0.0001006912
0.0001006912
0.0001006912
0.0001006912
0.0001006912
0.0001006912
0.001272725
0.0001007198
0.0001007198
0.0001007175
0.000100717
0.000100717
0.0001007171
0.0001007171
0.0001007171
0.000581984
0.0001007532
0.00154703
0.001375248
0.00131047
0.001293075
0.001289159
0.001288624
0.001288781
0.0005239837
0.0001006576
0.0001006714
0.0001006717
0.0001006714
0.0001006709
0.0001006707
0.0001006703
0.0001006699
0.001274676
0.0001007051
0.0001006744
0.0001006745
0.0001006741
0.0001006739
0.0001006736
0.0001006733
0.0001006731
0.00122977
0.0001007036
0.0001006741
0.0001006742
0.000100674
0.0001006738
0.0001006735
0.0001006732
0.0001006728
0.001214286
0.0001007035
0.0001006741
0.000100674
0.0001006738
0.0001006736
0.0001006733
0.0001006729
0.0001006726
0.001209969
0.0001007039
0.0001006741
0.0001006739
0.0001006737
0.0001006734
0.000100673
0.0001006726
0.0001006722
0.0001006717
0.001208604
0.0001007041
0.0001006742
0.000100674
0.0001006737
0.0001006733
0.0001006729
0.0001006724
0.000100672
0.0001006715
0.001208011
0.0001007045
0.0001006745
0.0001006741
0.0001006738
0.0001006734
0.0001006729
0.0001006724
0.0001006719
0.0001006714
0.00120771
0.0001007048
0.0001006748
0.0001006744
0.000100674
0.0001006735
0.000100673
0.0001006725
0.000100672
0.0001006714
0.001207518
0.0001007053
0.0001006751
0.0001006747
0.0001006743
0.0001006738
0.0001006733
0.0001006727
0.0001006722
0.0001006716
0.001207379
0.0001007057
0.0001006756
0.0001006751
0.0001006746
0.0001006741
0.0001006736
0.000100673
0.0001006724
0.0001006719
0.001207259
0.0001007062
0.000100676
0.0001006755
0.000100675
0.0001006745
0.0001006739
0.0001006734
0.0001006728
0.0001006722
0.001207152
0.0001007067
0.0001006765
0.000100676
0.0001006755
0.0001006749
0.0001006744
0.0001006738
0.0001006732
0.0001006726
0.001207052
0.0001007072
0.000100677
0.0001006765
0.000100676
0.0001006754
0.0001006748
0.0001006742
0.0001006736
0.000100673
0.001206953
0.0001007078
0.0001006776
0.000100677
0.0001006765
0.0001006759
0.0001006753
0.0001006747
0.0001006741
0.0001006735
0.001206856
0.0001007083
0.0001006781
0.0001006776
0.000100677
0.0001006764
0.0001006758
0.0001006752
0.0001006746
0.000100674
0.001206767
0.0001007089
0.0001006787
0.0001006781
0.0001006775
0.000100677
0.0001006764
0.0001006758
0.0001006751
0.0001006745
0.001206697
0.0001007095
0.0001006793
0.0001006787
0.0001006781
0.0001006775
0.0001006769
0.0001006763
0.0001006757
0.0001006751
0.0006025975
0.001274359
0.001242869
0.001233879
0.00123282
0.001232749
0.00123246
0.0012321
0.0006022303
0.0001006911
0.0001007207
0.0001007194
0.0001007189
0.0001007188
0.0001007187
0.0001007188
0.0001007188
0.001268227
0.0001007214
0.0001006912
0.0001006912
0.0001006912
0.0001006912
0.0001006912
0.0001006912
0.0001006912
0.001246789
0.0001007202
0.0001006912
0.0001006912
0.0001006912
0.0001006912
0.0001006912
0.0001006912
0.0001006912
0.00127375
0.0001007198
0.0001007198
0.0001007175
0.000100717
0.000100717
0.0001007171
0.0001007171
0.0001007171
0.000582028
0.0001007532
0.001546881
0.001375111
0.001310329
0.001292929
0.001289014
0.001288486
0.00128865
0.0005237816
0.0001006576
0.0001006714
0.0001006717
0.0001006714
0.0001006709
0.0001006707
0.0001006703
0.0001006699
0.001274679
0.0001007051
0.0001006744
0.0001006745
0.0001006741
0.0001006739
0.0001006736
0.0001006733
0.0001006731
0.001229785
0.0001007036
0.0001006741
0.0001006742
0.000100674
0.0001006738
0.0001006735
0.0001006732
0.0001006728
0.001214318
0.0001007035
0.0001006741
0.000100674
0.0001006738
0.0001006736
0.0001006733
0.0001006729
0.0001006725
0.00121003
0.0001007039
0.0001006741
0.0001006739
0.0001006737
0.0001006734
0.000100673
0.0001006726
0.0001006722
0.001208684
0.0001007041
0.0001006742
0.000100674
0.0001006737
0.0001006733
0.0001006729
0.0001006725
0.0001006721
0.001208085
0.0001007045
0.0001006745
0.0001006741
0.0001006738
0.0001006734
0.0001006729
0.0001006724
0.0001006719
0.0001006714
0.001207774
0.0001007048
0.0001006748
0.0001006744
0.000100674
0.0001006735
0.000100673
0.0001006725
0.000100672
0.0001006714
0.001207578
0.0001007053
0.0001006751
0.0001006747
0.0001006743
0.0001006738
0.0001006733
0.0001006727
0.0001006722
0.0001006716
0.001207425
0.0001007057
0.0001006756
0.0001006751
0.0001006746
0.0001006741
0.0001006736
0.000100673
0.0001006724
0.0001006719
0.001207295
0.0001007062
0.000100676
0.0001006755
0.000100675
0.0001006745
0.0001006739
0.0001006734
0.0001006728
0.0001006722
0.001207191
0.0001007067
0.0001006765
0.000100676
0.0001006755
0.0001006749
0.0001006744
0.0001006738
0.0001006732
0.0001006726
0.001207105
0.0001007072
0.000100677
0.0001006765
0.000100676
0.0001006754
0.0001006748
0.0001006742
0.0001006736
0.000100673
0.001207019
0.0001007078
0.0001006776
0.000100677
0.0001006765
0.0001006759
0.0001006753
0.0001006747
0.0001006741
0.0001006735
0.001206923
0.0001007084
0.0001006781
0.0001006776
0.000100677
0.0001006764
0.0001006758
0.0001006752
0.0001006746
0.000100674
0.001206835
0.0001007089
0.0001006787
0.0001006781
0.0001006776
0.000100677
0.0001006764
0.0001006757
0.0001006751
0.0001006745
0.001206766
0.0001007095
0.0001006793
0.0001006787
0.0001006781
0.0001006775
0.0001006769
0.0001006763
0.0001006757
0.0001006751
0.0006028829
0.001279765
0.00125116
0.001243789
0.001242891
0.001242819
0.001242537
0.001242025
0.0006024137
0.0001006911
0.000100721
0.0001007198
0.0001007193
0.0001007192
0.0001007192
0.0001007192
0.0001007192
0.001274145
0.0001007216
0.0001006912
0.0001006912
0.0001006912
0.0001006912
0.0001006912
0.0001006912
0.0001006912
0.001253985
0.0001007204
0.0001006912
0.0001006912
0.0001006912
0.0001006912
0.0001006912
0.0001006912
0.0001006912
0.001279752
0.0001007199
0.0001007201
0.000100718
0.0001007175
0.0001007176
0.0001007176
0.0001007176
0.0001007176
0.0005826242
0.0001007538
0.001588544
0.001430206
0.001371483
0.001356015
0.00135256
0.00135213
0.001352319
0.0005245497
0.0001006576
0.0001006717
0.0001006719
0.0001006715
0.0001006711
0.0001006709
0.0001006704
0.00010067
0.001281096
0.0001007053
0.0001006745
0.0001006745
0.0001006742
0.0001006739
0.0001006736
0.0001006734
0.0001006731
0.001239741
0.0001007038
0.0001006742
0.0001006742
0.0001006741
0.0001006738
0.0001006735
0.0001006732
0.0001006728
0.00122652
0.0001007037
0.0001006741
0.000100674
0.0001006738
0.0001006736
0.0001006732
0.0001006729
0.0001006725
0.001222926
0.0001007041
0.0001006741
0.0001006739
0.0001006736
0.0001006733
0.000100673
0.0001006726
0.0001006722
0.001221835
0.0001007043
0.0001006742
0.0001006739
0.0001006736
0.0001006733
0.0001006728
0.0001006724
0.0001006719
0.00122127
0.0001007047
0.0001006745
0.0001006741
0.0001006737
0.0001006733
0.0001006729
0.0001006724
0.000100672
0.001220947
0.000100705
0.0001006748
0.0001006744
0.000100674
0.0001006735
0.000100673
0.0001006725
0.000100672
0.0001006714
0.001220758
0.0001007054
0.0001006751
0.0001006747
0.0001006743
0.0001006738
0.0001006733
0.0001006727
0.0001006722
0.0001006716
0.001220558
0.0001007059
0.0001006756
0.0001006751
0.0001006746
0.0001006741
0.0001006736
0.000100673
0.0001006724
0.0001006719
0.001220384
0.0001007064
0.000100676
0.0001006755
0.000100675
0.0001006745
0.0001006739
0.0001006734
0.0001006728
0.0001006722
0.00122029
0.0001007069
0.0001006765
0.000100676
0.0001006755
0.0001006749
0.0001006744
0.0001006738
0.0001006732
0.0001006726
0.00122027
0.0001007074
0.000100677
0.0001006765
0.000100676
0.0001006754
0.0001006748
0.0001006742
0.0001006736
0.000100673
0.001220238
0.000100708
0.0001006776
0.000100677
0.0001006765
0.0001006759
0.0001006753
0.0001006747
0.0001006741
0.0001006735
0.001220128
0.0001007085
0.0001006781
0.0001006776
0.000100677
0.0001006764
0.0001006758
0.0001006752
0.0001006746
0.000100674
0.001220022
0.0001007091
0.0001006787
0.0001006781
0.0001006775
0.0001006769
0.0001006763
0.0001006757
0.0001006751
0.0001006745
0.001219952
0.0001007097
0.0001006793
0.0001006787
0.0001006781
0.0001006775
0.0001006769
0.0001006763
0.0001006757
0.0001006751
0.0006053482
0.001295921
0.001280761
0.001275925
0.001275007
0.001275
0.001274707
0.001274128
0.0006049168
0.0001006911
0.0001007216
0.0001007209
0.0001007205
0.0001007204
0.0001007204
0.0001007205
0.0001007205
0.001291556
0.000100722
0.0001006912
0.0001006912
0.0001006912
0.0001006912
0.0001006912
0.0001006912
0.0001006912
0.001281619
0.0001007213
0.0001006912
0.0001006912
0.0001006912
0.0001006912
0.0001006912
0.0001006912
0.0001006912
0.001296856
0.0001007205
0.0001007225
0.0001007201
0.0001007199
0.00010072
0.0001007201
0.0001007201
0.0001007201
0.0005879883
0.0001007544
0.001735324
0.001588608
0.001544073
0.001532795
0.001530457
0.001530365
0.001530703
0.0005296256
0.000100658
0.000100672
0.0001006721
0.0001006718
0.0001006715
0.0001006711
0.0001006709
0.0001006706
0.001299573
0.0001007058
0.0001006746
0.0001006746
0.0001006743
0.000100674
0.0001006737
0.0001006734
0.0001006732
0.001272642
0.0001007045
0.0001006741
0.0001006741
0.000100674
0.0001006737
0.0001006735
0.0001006731
0.0001006728
0.001263599
0.0001007045
0.000100674
0.0001006739
0.0001006737
0.0001006735
0.0001006731
0.0001006728
0.0001006724
0.001261762
0.0001007049
0.000100674
0.0001006738
0.0001006735
0.0001006732
0.0001006728
0.0001006724
0.000100672
0.001261559
0.0001007051
0.0001006742
0.0001006739
0.0001006736
0.0001006732
0.0001006728
0.0001006723
0.0001006718
0.001260781
0.0001007055
0.0001006744
0.0001006741
0.0001006737
0.0001006733
0.0001006728
0.0001006723
0.0001006718
0.001260298
0.0001007058
0.0001006747
0.0001006744
0.0001006739
0.0001006735
0.000100673
0.0001006725
0.000100672
0.001260328
0.0001007062
0.0001006751
0.0001006747
0.0001006742
0.0001006738
0.0001006732
0.0001006727
0.0001006721
0.0001006716
0.001259762
0.0001007067
0.0001006755
0.0001006751
0.0001006746
0.0001006741
0.0001006736
0.000100673
0.0001006724
0.0001006718
0.001259331
0.0001007071
0.000100676
0.0001006755
0.000100675
0.0001006745
0.0001006739
0.0001006734
0.0001006728
0.0001006722
0.0012593
0.0001007077
0.0001006765
0.000100676
0.0001006755
0.0001006749
0.0001006744
0.0001006738
0.0001006732
0.0001006726
0.001259631
0.0001007082
0.000100677
0.0001006765
0.000100676
0.0001006754
0.0001006748
0.0001006742
0.0001006736
0.000100673
0.001259958
0.0001007088
0.0001006776
0.000100677
0.0001006765
0.0001006759
0.0001006753
0.0001006747
0.0001006741
0.0001006735
0.001259589
0.0001007093
0.0001006781
0.0001006776
0.000100677
0.0001006764
0.0001006758
0.0001006752
0.0001006746
0.000100674
0.001259356
0.0001007099
0.0001006787
0.0001006782
0.0001006775
0.000100677
0.0001006763
0.0001006757
0.0001006751
0.0001006745
0.001259234
0.0001007105
0.0001006793
0.0001006788
0.0001006782
0.0001006776
0.000100677
0.0001006763
0.0001006757
0.0001006751
0.0006081603
0.0005955314
0.0005799715
0.0005794668
0.0005770252
0.000576382
0.0005763368
0.00057667
0.000575131
0.0006090796
0.0001007219
0.0001007211
0.0001007209
0.0001007209
0.0001007209
0.0001007209
0.0001007209
0.0001007209
0.0005953244
0.0001007213
0.0001007201
0.0001007198
0.0001007197
0.0001007197
0.0001007197
0.0001007197
0.0001007197
0.0005776249
0.000100721
0.0001007197
0.0001007194
0.0001007193
0.0001007193
0.0001007193
0.0001007193
0.0001007193
0.0005809463
0.0001007205
0.0001007192
0.000100719
0.000100719
0.000100719
0.000100719
0.000100719
0.000100719
0.0005924299
0.000100715
0.0001007539
0.0001007535
0.0001007528
0.0001007526
0.0001007527
0.0001007527
0.0001007528
0.0005638461
0.0003091729
0.0002990547
0.0002952562
0.0002948084
0.0002949873
0.0002950361
0.0002951996
0.0002952679
0.0001006594
0.0001006578
0.0001006611
0.0001006597
0.0001006585
0.0001006581
0.0001006582
0.0001006576
0.000100644
0.0006000712
0.0001007056
0.0001007054
0.0001007053
0.0001007051
0.000100705
0.0001007047
0.0001007044
0.0001007039
0.0005803548
0.0001007042
0.0001007032
0.000100703
0.0001007028
0.0001007026
0.0001007023
0.000100702
0.0001007016
0.0005775633
0.0001007042
0.0001007031
0.0001007027
0.0001007026
0.0001007023
0.000100702
0.0001007016
0.0001007012
0.0005779703
0.0001007046
0.0001007032
0.0001007029
0.0001007027
0.0001007024
0.0001007021
0.0001007016
0.0001007012
0.0005800737
0.0001007047
0.0001007035
0.0001007031
0.0001007029
0.0001007026
0.0001007022
0.0001007017
0.0001007012
0.0005798301
0.0001007051
0.0001007038
0.0001007034
0.0001007031
0.0001007028
0.0001007023
0.0001007019
0.0001007014
0.0005777698
0.0001007056
0.0001007041
0.0001007037
0.0001007034
0.000100703
0.0001007027
0.0001007026
0.0001007022
0.000579922
0.0001007061
0.0001007045
0.000100704
0.0001007037
0.0001007033
0.0001007028
0.0001007026
0.0001007022
0.0005780288
0.0001007065
0.0001007049
0.0001007044
0.0001007041
0.0001007037
0.0001007031
0.0001007027
0.0001007021
0.0001007014
0.0005769843
0.0001007071
0.0001007054
0.0001007049
0.0001007045
0.000100704
0.0001007035
0.000100703
0.0001007023
0.0001007018
0.0005769694
0.0001007076
0.0001007059
0.0001007054
0.000100705
0.0001007045
0.0001007039
0.0001007034
0.0001007027
0.0001007021
0.0005773803
0.000100708
0.0001007064
0.0001007059
0.0001007054
0.000100705
0.0001007044
0.0001007039
0.0001007033
0.0001007026
0.0005794266
0.0001007085
0.0001007069
0.0001007064
0.0001007059
0.0001007055
0.0001007052
0.0001007049
0.0001007041
0.0001007033
0.0005781893
0.0001007089
0.0001007075
0.0001007069
0.0001007065
0.0001007061
0.0001007056
0.000100705
0.0001007044
0.0001007038
0.0005772114
0.0001007097
0.000100708
0.0001007074
0.0001007105
0.0001007119
0.0001007117
0.0001007089
0.0001007066
0.0001007052
0.0005759017
0.0001007104
0.0001007086
0.0001007085
0.0001007093
0.0001007091
0.0001007082
0.0001007083
0.0001007056
0.000100705
0.000602643
0.0005996079
0.0002810434
0.0002914941
0.0002685534
0.0002655167
0.0002708962
0.0002685753
0.0002642974
0.0002683289
0.001338519
0.001309806
0.001302543
0.001301917
0.001301364
0.001300625
0.001300185
0.001300752
0.0002616206
0.001313449
0.001263253
0.001249849
0.001247019
0.001246332
0.001246077
0.001246046
0.00124611
0.0002621399
0.001311891
0.001263056
0.001249693
0.001246777
0.001246164
0.001246103
0.001246205
0.001246328
0.0006024451
0.00133084
0.001300992
0.001291947
0.001289292
0.001288716
0.00128913
0.001289521
0.001290049
0.0006020894
0.0001008036
0.0001008018
0.0001008026
0.0001008027
0.0001008028
0.0001008033
0.0001008033
0.0001008036
0.0001008037
0.0006407055
0.0006186417
0.0006183786
0.0006096303
0.0006053648
0.0006131852
0.0006125235
0.0006179134
0.0006187862
0.0001013162
0.000101316
0.0001013271
0.0001013439
0.0001013729
0.000101349
0.0001014178
0.0001007113
0.0001007411
0.0002660831
0.00135203
0.001324775
0.001314444
0.001311704
0.00131116
0.001311536
0.001311992
0.001311399
0.0002656504
0.001316194
0.001263289
0.001247336
0.001243035
0.00124194
0.001241876
0.001241997
0.001242074
0.000265568
0.001304928
0.00124481
0.001225181
0.001219808
0.001218316
0.001218027
0.001218145
0.001218315
0.0002664987
0.001301034
0.00123954
0.001218715
0.001212757
0.001211016
0.00121063
0.00121075
0.001210956
0.0002792015
0.001299655
0.001237894
0.001216569
0.001210339
0.001208459
0.001208032
0.001208178
0.001208426
0.0002849394
0.001300578
0.001237409
0.001215735
0.001209334
0.001207374
0.001206931
0.001207105
0.001207396
0.0002661029
0.001300885
0.001237212
0.001215366
0.001208862
0.001206851
0.001206394
0.00120659
0.001206927
0.0002852397
0.001300234
0.00123705
0.001215146
0.001208587
0.001206535
0.001206058
0.001206257
0.001206628
0.0002693979
0.001300631
0.001236951
0.00121501
0.001208397
0.001206302
0.00120579
0.00120597
0.001206353
0.0002670053
0.001300683
0.001236855
0.001214895
0.001208241
0.001206102
0.001205546
0.001205693
0.001206069
0.001206317
0.0002689052
0.001300491
0.001236741
0.001214778
0.001208108
0.001205935
0.001205337
0.001205444
0.001205801
0.001206064
0.0002675926
0.001300086
0.001236605
0.001214665
0.001208006
0.001205817
0.001205182
0.001205248
0.00120558
0.001205848
0.0002761128
0.00129959
0.001236501
0.001214593
0.001207965
0.001205777
0.001205116
0.001205144
0.001205442
0.001205693
0.0002742401
0.001299994
0.001236462
0.001214647
0.00120809
0.001205931
0.001205241
0.001205201
0.001205427
0.001205628
0.00027054
0.001299291
0.00123647
0.001214995
0.001208676
0.001206631
0.00120587
0.001205626
0.001205638
0.0012057
0.000267683
0.001297979
0.001236964
0.001216612
0.001211182
0.001209516
0.001208503
0.001207458
0.001206589
0.001206078
0.0002331464
0.000233098
0.0006039485
0.000258599
0.0002585011
0.0001007466
0.0006026531
0.0005771185
0.0005673651
0.0005845568
0.000100865
0.0005555042
0.0001008572
0.0005543902
0.0005652796
0.000548982
0.0005570258
0.0001009049
0.0005409283
0.0001009027
0.0005476693
0.0005649494
0.0005496742
0.0005375052
0.0001009015
0.0005378779
0.0001009015
0.000554773
0.0005687309
0.0005745666
0.0005420455
0.0001009046
0.0005612382
0.000100909
0.0005788045
0.0005980501
0.0006218055
0.00056458
0.000100805
0.0002414914
0.0001008101
0.0002743831
0.000142119
0.0001909511
0.0006504872
0.0001006416
0.0002731312
0.0001420373
0.0001420709
0.0006291766
0.0006166475
0.0001007154
0.0001006335
0.0002730498
0.0001420961
0.0001421143
0.0006090483
0.000605732
0.0001005961
0.0001005909
0.0002730536
0.0001421326
0.0001421523
0.000604313
0.0006037568
0.0001005963
0.0001006025
0.0002729443
0.0001421759
0.0001422007
0.0006035295
0.0006034527
0.0001005951
0.0001006108
0.0002729526
0.0001422293
0.0001422595
0.0006034104
0.0006033639
0.0001005958
0.0001006171
0.0002729393
0.0001422947
0.0001423308
0.0006033659
0.0006033818
0.0001005963
0.0001006208
0.0002723551
0.0001423727
0.0001424146
0.0006034314
0.0006033805
0.0001005974
0.0001006243
0.0002729218
0.0001424642
0.0001425136
0.0006034665
0.0006036597
0.0001005989
0.0001006278
0.0001425724
0.0006037061
0.0001006013
0.0003198216
0.0006518521
0.0001007024
0.0002654032
0.0001008141
0.0006530679
0.0006352717
0.0002661013