/*--------------------------------*- C++ -*----------------------------------*\
  =========                 |
  \\      /  F ield         | OpenFOAM: The Open Source CFD Toolbox
   \\    /   O peration     | Website:  https://openfoam.org
    \\  /    A nd           | Version:  7
     \\/     M anipulation  |
\*---------------------------------------------------------------------------*/
FoamFile
{
    version     2.0;
    format      ascii;
    class       volScalarField;
    location    "0.07";
    object      p;
}
// * * * * * * * * * * * * * * * * * * * * * * * * * * * * * * * * * * * * * //

dimensions      [0 2 -2 0 0 0 0];

internalField   nonuniform List<scalar> 
109978
(
0.5268079
0.4552198
0.4754024
0.4544958
0.4548139
0.4459434
0.5176533
0.4428113
0.4667534
0.4515522
0.4520529
0.4432952
0.5169505
0.4312418
0.4594635
0.4456485
0.4471967
0.4387568
0.515844
0.4287795
0.4594661
0.4431582
0.4446346
0.4349462
0.5120038
0.4311134
0.4610472
0.4404432
0.439201
0.4298644
0.5085792
0.4334984
0.4610003
0.4393165
0.4367364
0.4270882
0.5017092
0.4348257
0.4591946
0.4378668
0.4344084
0.424269
0.4939354
0.434856
0.4564219
0.436002
0.4320885
0.4215705
0.4877723
0.4340334
0.453304
0.4334775
0.4293076
0.4185353
0.4806733
0.4329127
0.4498358
0.4299292
0.4257252
0.4151672
0.4687399
0.4335383
0.4460302
0.4255584
0.4215256
0.4115405
0.4594005
0.4304786
0.4412626
0.4206061
0.4170484
0.407637
0.452191
0.4254965
0.4363675
0.4155657
0.4125076
0.4034938
0.4454561
0.420011
0.4315882
0.4106232
0.4078262
0.399147
0.4395366
0.4149196
0.4270823
0.4058984
0.4031606
0.3946562
0.434216
0.4099377
0.4225551
0.4012491
0.3985036
0.3900531
0.4290093
0.4049204
0.4178445
0.3963975
0.3936142
0.3852613
0.4235912
0.3997729
0.412942
0.3913345
0.3885336
0.3802624
0.4180473
0.3944841
0.4078618
0.3860697
0.3832896
0.3750425
0.4124472
0.3891693
0.4027782
0.3806885
0.3779473
0.3696476
0.4068049
0.3837689
0.3975963
0.3751991
0.3724922
0.3640626
0.4013892
0.3782528
0.392145
0.3695442
0.3668524
0.3582419
0.4686773
0.3725871
0.3864122
0.363678
0.3609544
0.3521185
0.5316271
0.4606022
0.4842448
0.4559506
0.4548347
0.4469041
0.6011653
0.5808479
0.4110669
0.5228642
0.4419199
0.4717217
0.6174609
0.5824993
0.4064223
0.5360705
0.4426191
0.4854913
0.6181424
0.6074446
0.3770308
0.5437917
0.4228175
0.4660712
0.6177988
0.6190659
0.3647305
0.5452294
0.420019
0.4675303
0.6164646
0.6205683
0.3657745
0.544814
0.4219071
0.4682835
0.6091204
0.6130377
0.3725298
0.545434
0.4254674
0.4694859
0.5977883
0.6074621
0.3807061
0.5428631
0.4291485
0.4688086
0.5871079
0.6000888
0.388599
0.5390977
0.4321077
0.4682901
0.5839666
0.5948197
0.3918286
0.5326379
0.4327707
0.4671348
0.5779021
0.5840973
0.3958871
0.5260121
0.4305689
0.4657777
0.5712108
0.5742539
0.3958888
0.5193368
0.427835
0.4648798
0.5653502
0.5644775
0.3938663
0.5137385
0.424589
0.4631521
0.5579857
0.5571625
0.3897062
0.5091548
0.4203436
0.4600871
0.5498361
0.5489419
0.3847776
0.5051495
0.4161473
0.4566861
0.544488
0.5436597
0.3797851
0.5012734
0.4124697
0.4532254
0.5394242
0.5386762
0.3749192
0.4975647
0.4085038
0.4495747
0.5348753
0.5341688
0.3703469
0.4939475
0.4044486
0.4461559
0.5306842
0.5296359
0.3655636
0.4900275
0.3999508
0.4425617
0.5255508
0.5253178
0.3605518
0.4857444
0.3949644
0.4388869
0.5215355
0.5212944
0.3556962
0.4810756
0.3897162
0.4350748
0.5168362
0.5163726
0.3505925
0.4763767
0.3843436
0.431021
0.5122037
0.5107427
0.3452884
0.4718119
0.3788987
0.4267812
0.5995563
0.5052064
0.3398954
0.467255
0.3733166
0.4223765
0.5195073
0.4563447
0.4896746
0.4489858
0.4513644
0.442989
0.6035705
0.5864851
0.4070569
0.5342033
0.4383047
0.4819398
0.6663066
0.5648331
0.4311964
0.5443145
0.4593964
0.4991481
0.6697433
0.6104294
0.3859178
0.5584879
0.424963
0.4911092
0.6390457
0.6179987
0.374338
0.5611814
0.42802
0.496178
0.6227676
0.6172947
0.3735779
0.5620024
0.4219393
0.4851847
0.6015361
0.6086716
0.3775065
0.5615621
0.4240575
0.4840777
0.5828957
0.5874911
0.3837628
0.5545655
0.4263975
0.4786042
0.5715464
0.5834214
0.3876818
0.5483725
0.4287917
0.4769434
0.5640239
0.5759237
0.3914393
0.5414084
0.430316
0.4730721
0.5568802
0.5676674
0.3945284
0.532869
0.4305944
0.4723283
0.5478763
0.5680134
0.3942191
0.526074
0.4299711
0.4703087
0.5391432
0.5582726
0.3915321
0.5198478
0.4283326
0.4675961
0.5269264
0.5567457
0.3877849
0.514018
0.4254735
0.4646758
0.5228807
0.5572773
0.3790784
0.5087725
0.4213719
0.4614044
0.5195753
0.5517883
0.3748799
0.5044066
0.4173475
0.458133
0.51459
0.5478282
0.3697951
0.5005265
0.4133527
0.4544048
0.5090412
0.5436549
0.3657823
0.4967354
0.4092091
0.4506396
0.5037957
0.5408448
0.3609393
0.4932133
0.4047234
0.446762
0.5007978
0.5359643
0.3561688
0.4895098
0.3997297
0.4427655
0.4988952
0.5315355
0.3517586
0.4852128
0.3942485
0.4390637
0.4957919
0.5284764
0.3466156
0.480811
0.3885284
0.4350175
0.4911938
0.5255458
0.3407385
0.4764144
0.3821989
0.4302913
0.4854705
0.5221554
0.3347254
0.4724062
0.3759469
0.4249197
0.5427533
0.4467063
0.477477
0.4473007
0.4460782
0.4375783
0.6062211
0.6303756
0.3790651
0.5422886
0.4242051
0.4700138
0.6899974
0.5987514
0.3740484
0.5605628
0.4415308
0.5030077
0.6251791
0.6485382
0.3332698
0.5854261
0.4256245
0.4803331
0.6140009
0.6443526
0.3318077
0.5857633
0.4292528
0.4981784
0.6118938
0.6452806
0.3287833
0.5847577
0.4301842
0.4918343
0.5948977
0.6389143
0.3295312
0.5758122
0.4297287
0.4943826
0.5823382
0.6265207
0.3367487
0.5737069
0.4298518
0.487599
0.5737266
0.6112575
0.3484239
0.5722768
0.4333334
0.4840465
0.5623871
0.605398
0.3577593
0.5675946
0.4322257
0.4758865
0.5527284
0.6000736
0.3665894
0.5609615
0.4254056
0.4697502
0.5413276
0.5833547
0.3745239
0.5503849
0.4217073
0.4684268
0.5308566
0.5746835
0.3743583
0.5424218
0.4205665
0.4669169
0.5217593
0.5688716
0.3664608
0.5374335
0.4198003
0.4642764
0.5184472
0.5582344
0.3652088
0.530137
0.414381
0.4611269
0.516034
0.5559651
0.3569758
0.5275935
0.4127855
0.4587344
0.5120481
0.5518563
0.3501536
0.5243724
0.409211
0.4542154
0.5063032
0.5508075
0.3425337
0.5236572
0.4066912
0.4505343
0.4996444
0.5483858
0.3366032
0.5215684
0.4014636
0.4452955
0.4928899
0.547171
0.33287
0.5180826
0.3938486
0.4402587
0.4875931
0.5479981
0.3307582
0.5134278
0.3864319
0.4362437
0.4819965
0.5430235
0.3269029
0.5077163
0.3795525
0.4326432
0.4748283
0.5367356
0.321626
0.50157
0.3735468
0.4295694
0.4663348
0.5304322
0.3153768
0.4964583
0.3685329
0.4260471
0.5632281
0.4345147
0.491175
0.441868
0.4456984
0.4367546
0.5913762
0.6533759
0.3582259
0.5434906
0.4125303
0.4637985
0.6258733
0.6218747
0.3611127
0.5639596
0.4334831
0.5062492
0.6275201
0.6548969
0.3241768
0.5815731
0.4227655
0.491472
0.6353755
0.6724065
0.3134869
0.5744593
0.4117805
0.4940375
0.6239708
0.6629741
0.3139782
0.5809474
0.4165893
0.4853788
0.6052107
0.648049
0.317906
0.5819419
0.4188342
0.4846185
0.5923294
0.6386076
0.3267198
0.5748981
0.4182749
0.4818911
0.5787608
0.6314157
0.3349533
0.5689374
0.4216548
0.4790466
0.5660353
0.6242758
0.3442519
0.5617578
0.4241778
0.4746414
0.5541544
0.6174675
0.3536578
0.5523757
0.4218521
0.4719086
0.5433041
0.6078608
0.3594444
0.5416917
0.4156714
0.4677444
0.5329446
0.5969246
0.3612532
0.535576
0.4132821
0.4643681
0.523689
0.5810762
0.358344
0.5376477
0.4130407
0.4634338
0.524123
0.5959978
0.3446979
0.5239935
0.4048184
0.4577385
0.5207217
0.5926957
0.3387864
0.5239191
0.4027888
0.4556369
0.5158157
0.5971847
0.3315879
0.5200993
0.399492
0.4506512
0.5064433
0.5870846
0.3292728
0.5211489
0.3970805
0.4482477
0.4972577
0.5882239
0.3212832
0.5181016
0.3927303
0.444405
0.4862805
0.5890053
0.3159297
0.5102772
0.3855725
0.4412478
0.4795336
0.5862185
0.3119816
0.503438
0.3772855
0.437322
0.4743422
0.5831662
0.3075735
0.4973365
0.3696994
0.4335762
0.4650392
0.5822135
0.3013804
0.490989
0.3623138
0.4291248
0.4490891
0.5788593
0.2969715
0.4886082
0.3568737
0.4242186
0.5696854
0.4271159
0.4976372
0.4392238
0.4483421
0.4395512
0.587653
0.6521506
0.3593879
0.5440548
0.4134582
0.4656367
0.6379883
0.6310686
0.3618192
0.5648314
0.4348364
0.5065097
0.5931203
0.6572305
0.3249825
0.5825634
0.4239842
0.4921376
0.6150759
0.676277
0.3132614
0.5745372
0.4122101
0.4944473
0.6139183
0.6652189
0.3149384
0.5817781
0.4171168
0.4854802
0.6061459
0.6501755
0.3187769
0.5823432
0.4190368
0.4848108
0.6021438
0.6404115
0.3274843
0.5752539
0.4184697
0.4819683
0.5940857
0.6336451
0.3355443
0.5691489
0.4218217
0.479114
0.5867482
0.6264051
0.3449174
0.5620354
0.4243447
0.4747111
0.5769946
0.6193519
0.3543803
0.552535
0.4219256
0.4720119
0.5649288
0.6096485
0.360154
0.5417987
0.4157134
0.4678478
0.550124
0.5985021
0.3619726
0.5356414
0.4132738
0.4645082
0.5379374
0.5824823
0.3590013
0.5377013
0.4129909
0.4635833
0.532673
0.5980285
0.3449379
0.5236942
0.4046134
0.4578313
0.519339
0.5955109
0.33953
0.5237347
0.4025574
0.4557911
0.506141
0.6002559
0.3319487
0.5194337
0.3990073
0.4507947
0.4889744
0.5904371
0.3304238
0.5204356
0.3964211
0.4484249
0.4747414
0.5918405
0.3222725
0.5171149
0.3918693
0.444592
0.4574172
0.5925691
0.3173394
0.5097243
0.3845376
0.4414093
0.4448158
0.5831822
0.3142564
0.503664
0.3764407
0.437374
0.4404576
0.5808878
0.3083861
0.4971574
0.3689524
0.433314
0.4365134
0.582053
0.3022498
0.4918482
0.362364
0.4283
0.4276462
0.5790486
0.2973745
0.4902271
0.3576666
0.4225295
0.5493297
0.4281115
0.5010523
0.4397559
0.4476299
0.4406132
0.5859545
0.6285807
0.3783958
0.5419545
0.423443
0.4689573
0.5859032
0.592987
0.3716564
0.5595205
0.440529
0.5024877
0.6142744
0.6473371
0.334121
0.585474
0.4254537
0.4794293
0.6206797
0.6427874
0.3318438
0.586022
0.4294331
0.497687
0.6124133
0.6449837
0.3298282
0.5854452
0.4304594
0.4915749
0.6065026
0.6388855
0.3307356
0.5763885
0.4299415
0.4943391
0.6056387
0.6269601
0.3376664
0.5742412
0.4300812
0.4876257
0.5944904
0.6118009
0.3493935
0.5727435
0.4335308
0.4840827
0.5902838
0.606058
0.3586745
0.5680188
0.4324141
0.4759547
0.5854833
0.600767
0.3674331
0.5612976
0.4255452
0.4698593
0.5724549
0.58395
0.3753344
0.5506943
0.4219006
0.4686256
0.5533765
0.5751669
0.3751518
0.5426797
0.4207039
0.4671456
0.5425231
0.5694039
0.3671602
0.5376245
0.4199223
0.4645774
0.5251618
0.558713
0.3657192
0.5302036
0.4144502
0.4614828
0.5135785
0.5566986
0.3574995
0.5276087
0.4128629
0.459213
0.5022956
0.5523656
0.3506429
0.5241896
0.4092356
0.4548003
0.4892334
0.5519025
0.3431262
0.5233139
0.4067581
0.4514244
0.4761676
0.5489639
0.3368747
0.5209808
0.4016396
0.4463636
0.4544206
0.5522727
0.3338332
0.5179732
0.3946281
0.4418168
0.4393766
0.5494659
0.3313892
0.5129381
0.3869699
0.4378942
0.4323883
0.5434373
0.3274539
0.5069048
0.3799413
0.434897
0.4271784
0.5369313
0.321625
0.5006872
0.3743405
0.4322599
0.421295
0.5303683
0.3154666
0.4957942
0.3691921
0.4291872
0.5406051
0.440413
0.4900573
0.4492239
0.4542687
0.4448123
0.585399
0.5864581
0.4031331
0.5329993
0.4378891
0.4815977
0.6391025
0.5656112
0.4308746
0.5446801
0.4594034
0.4991617
0.6166275
0.6110258
0.3855349
0.5582946
0.4248234
0.4912149
0.6133423
0.6185547
0.3739526
0.5611864
0.4282451
0.4962698
0.6078103
0.618282
0.373606
0.5620503
0.4222466
0.4854306
0.6059638
0.6097615
0.3775777
0.5617234
0.4242578
0.4842785
0.5997962
0.5882109
0.384158
0.5547641
0.426685
0.478832
0.5857344
0.5842511
0.3882275
0.5486576
0.4290964
0.4771377
0.5798544
0.5767416
0.3920088
0.5417785
0.4306061
0.4732422
0.570245
0.5682763
0.3950846
0.5332015
0.4308661
0.472533
0.5603449
0.5689202
0.3947639
0.5264561
0.4302466
0.4705176
0.5473259
0.5589959
0.3921794
0.5201756
0.4285773
0.4678143
0.5432729
0.5578324
0.3882614
0.5144403
0.4257101
0.4648903
0.5280654
0.5579815
0.3794961
0.5091185
0.4215455
0.4616156
0.5184695
0.552542
0.375431
0.5048335
0.4175037
0.4583251
0.5082881
0.5485325
0.3703354
0.5009699
0.4134412
0.4545639
0.496262
0.544309
0.366519
0.4972605
0.4092643
0.4507976
0.4844345
0.5410825
0.361679
0.4937527
0.4046916
0.446884
0.4729261
0.5358501
0.3574949
0.4901575
0.3997054
0.4428671
0.4610341
0.5317124
0.3526691
0.4858923
0.3940683
0.43912
0.451243
0.5285543
0.3474314
0.4815607
0.3881249
0.4348971
0.4440489
0.5256947
0.3415604
0.4775656
0.3816515
0.4298019
0.4376696
0.5223185
0.335458
0.4739206
0.3747234
0.4236056
0.5304562
0.4651878
0.4831625
0.4615921
0.4572586
0.4488412
0.5847292
0.5785799
0.4101855
0.5234588
0.4417903
0.4716084
0.6103825
0.5811032
0.4083954
0.5360892
0.4428477
0.4853301
0.6166174
0.6064261
0.3773656
0.5437706
0.4227981
0.4659268
0.6183669
0.6186825
0.3648645
0.5451914
0.4200524
0.4675427
0.6158199
0.620552
0.3659822
0.5448879
0.4219985
0.4683451
0.6065929
0.6131765
0.3727136
0.5455559
0.4255611
0.4695583
0.5977701
0.6077902
0.3809168
0.5430341
0.4292735
0.4689456
0.5860951
0.6005358
0.3889275
0.5393475
0.4322851
0.4684484
0.574582
0.5953318
0.3922361
0.5329661
0.4330014
0.467294
0.5678073
0.5846249
0.3963377
0.5263426
0.4308213
0.4659634
0.5591382
0.5748615
0.3963503
0.5196787
0.4280931
0.4650779
0.5505993
0.5650651
0.3943812
0.5141104
0.4248685
0.463367
0.542687
0.5577083
0.3901546
0.5095107
0.4206234
0.4603138
0.5337934
0.5494491
0.3852632
0.505519
0.4164375
0.4569221
0.5255877
0.5442293
0.3803171
0.5016691
0.4127842
0.453485
0.5175585
0.5392629
0.3754487
0.4979843
0.4088379
0.4498421
0.509167
0.5348382
0.3709323
0.4944223
0.4048407
0.4464761
0.5004085
0.5303352
0.3661171
0.490545
0.4004061
0.4428858
0.4929777
0.5265846
0.3612922
0.4864295
0.3955886
0.43936
0.4857175
0.5221059
0.3563165
0.4817841
0.3904346
0.4354543
0.480273
0.5170311
0.3512643
0.4773016
0.3853567
0.4317195
0.4743128
0.5113589
0.3460049
0.4728244
0.3804227
0.4273404
0.6003047
0.5056526
0.3408846
0.4689715
0.375647
0.4236009
0.519911
0.4850241
0.4808708
0.4722914
0.4625783
0.457679
0.5809264
0.5214765
0.4700157
0.4885218
0.4694544
0.4643245
0.4562563
0.5812611
0.5262641
0.449131
0.4902463
0.460642
0.4606575
0.4485023
0.5703924
0.5302987
0.4512485
0.4944496
0.4534612
0.4569469
0.4421248
0.5708634
0.5322438
0.4542212
0.4866953
0.4561377
0.4543781
0.4401452
0.5747033
0.5324948
0.45542
0.4827608
0.4551299
0.4496733
0.4366681
0.5752059
0.5319273
0.4559656
0.4799285
0.4524681
0.4468588
0.4341234
0.5690591
0.5291886
0.4565883
0.4759224
0.4497429
0.4436135
0.4308167
0.5609539
0.5234713
0.4562231
0.4720056
0.4466944
0.4403847
0.4277597
0.5563491
0.5168129
0.4552241
0.4684057
0.4432543
0.4367801
0.4242749
0.5513298
0.5115055
0.4526836
0.4642644
0.4390856
0.4329097
0.4206224
0.5452464
0.5059688
0.4494391
0.4595216
0.4341925
0.4286119
0.4167993
0.539605
0.4999125
0.4444779
0.4542709
0.429024
0.4241307
0.4128757
0.5336405
0.493747
0.4389785
0.44954
0.4240763
0.4195651
0.4087965
0.5259616
0.4877946
0.4329589
0.4449462
0.4192034
0.4147043
0.4044865
0.5197693
0.4825892
0.4276372
0.4405335
0.4144059
0.4099543
0.4000235
0.5140415
0.4777167
0.4224428
0.4360686
0.4096199
0.4051977
0.3954612
0.5086666
0.4729973
0.4173488
0.4314662
0.4047338
0.4003774
0.3907002
0.5031653
0.4681903
0.4121383
0.426707
0.3996497
0.3954083
0.3857287
0.4972724
0.4630797
0.4067855
0.421803
0.394378
0.3902911
0.3805297
0.491893
0.4578489
0.4013856
0.4169917
0.389052
0.3851096
0.3751808
0.4863709
0.4527691
0.3959949
0.4121742
0.3838038
0.3799141
0.3696987
0.4807245
0.4478696
0.3905998
0.4072017
0.378694
0.3748006
0.3642166
0.4745939
0.4591534
0.3850219
0.402336
0.374028
0.3702259
0.3590181
0.546788
0.547507
0.5939745
0.5485479
0.5506598
0.5572511
0.582968
0.5510662
0.6123229
0.5255249
0.5481576
0.5625539
0.5825214
0.5347978
0.7901262
0.5222334
0.5506475
0.5686649
0.5710807
0.537318
0.7791798
0.5257505
0.5501986
0.5715198
0.5712529
0.5439804
0.7564431
0.5303418
0.5490214
0.5708632
0.5748131
0.5483498
0.7101172
0.5348023
0.5473949
0.5661204
0.5751016
0.5489717
0.6589522
0.5385693
0.5427679
0.5603626
0.5688303
0.5480372
0.5933787
0.5417034
0.537153
0.5549879
0.5606329
0.5429908
0.5870633
0.5408332
0.5326185
0.5523387
0.5559019
0.538449
0.5849081
0.5398571
0.5279474
0.547463
0.5508902
0.5331929
0.5806885
0.5352125
0.5212056
0.5423766
0.5447781
0.5269131
0.5761892
0.5286228
0.5147781
0.5361184
0.5391991
0.5208712
0.5718197
0.5217288
0.5083339
0.5297104
0.5332524
0.5148084
0.562728
0.5157437
0.5006268
0.5240067
0.5255282
0.5080699
0.5553823
0.5106141
0.4934696
0.5191378
0.5192644
0.5016391
0.5497782
0.5059713
0.487399
0.5144136
0.5134912
0.4956753
0.5446036
0.5015549
0.4822034
0.5097444
0.5081022
0.4900347
0.5391462
0.4972717
0.4772247
0.5049493
0.5026042
0.4845499
0.533161
0.4929905
0.4722295
0.5001563
0.4966773
0.4790768
0.5275865
0.4885768
0.4673023
0.4953149
0.4912793
0.4739384
0.5220851
0.4841665
0.4624078
0.4902421
0.4857736
0.4687732
0.5161832
0.4798509
0.4576044
0.4850585
0.4801109
0.4632667
0.5099547
0.4754093
0.4529864
0.4612837
0.473982
0.4571172
0.5034254
0.4705862
0.5532193
0.5784235
0.5458274
0.5647589
0.5730697
0.536659
0.5518985
0.693586
0.5314796
0.5632939
0.5831236
0.5265063
0.5567216
0.7930783
0.5422303
0.5605647
0.5881025
0.5300798
0.5620757
0.7496422
0.5595338
0.5669638
0.7002825
0.5423805
0.5765074
0.5905424
0.5707243
0.5593477
0.7654526
0.5286796
0.5693326
0.5782253
0.5477054
0.5491752
0.797349
0.5286495
0.5590712
0.581429
0.5284988
0.5426299
0.6975006
0.5251194
0.5631291
0.5717182
0.5342479
0.5472314
0.5787076
0.5433923
0.5427906
0.5924756
0.5472323
0.5456765
0.5253543
0.49488
0.541982
0.545358
0.5226206
0.5216939
0.4787376
0.5274309
0.4957199
0.51312
0.5053113
0.4842963
0.5141526
0.4933427
0.5010604
0.497526
0.4715559
0.501928
0.4778282
0.4929295
0.4874468
0.4637646
0.4936174
0.4724741
0.4831159
0.4557718
0.4626502
0.5490079
0.6108146
0.5236749
0.5489106
0.5559681
0.533473
0.7890525
0.5211794
0.547131
0.5617479
0.5366486
0.7786147
0.5251555
0.5500278
0.5681735
0.5482728
0.7102517
0.5347991
0.5489295
0.5708682
0.5490932
0.6591513
0.538715
0.5474438
0.5662913
0.5482565
0.5936578
0.5419564
0.5429582
0.5606605
0.5432975
0.5874768
0.5411931
0.5374825
0.5552838
0.5388748
0.5853387
0.5403371
0.5329886
0.5527339
0.5336498
0.5811206
0.5357037
0.528393
0.5479252
0.5274005
0.5765752
0.5291613
0.5216792
0.5428235
0.5213615
0.5721369
0.5222129
0.5152447
0.5365803
0.5085872
0.5558679
0.5111368
0.5010978
0.5245202
0.5021704
0.5503214
0.5065247
0.4939873
0.5196833
0.4962361
0.5451745
0.5021296
0.4879519
0.5149765
0.4906106
0.5397267
0.4978569
0.4827723
0.5103273
0.4851287
0.5337721
0.4935893
0.4778147
0.5055245
0.4797012
0.5283008
0.4892088
0.4728282
0.5007658
0.4745489
0.5227277
0.4847887
0.4679084
0.4959326
0.4693935
0.5168328
0.4804479
0.4630279
0.4908519
0.4638857
0.5105955
0.4759693
0.4582194
0.4856366
0.4577114
0.5040381
0.471067
0.4535768
0.4618174
0.5373406
0.5582443
0.5520821
0.5472501
0.5473307
0.5399939
0.5332521
0.5464144
0.544052
0.5530392
0.5389571
0.5507956
0.5577232
0.5599133
0.537982
0.5518428
0.5547972
0.5614861
0.5364776
0.5520166
0.5492833
0.5595776
0.5350679
0.5524628
0.5473982
0.5569824
0.5303286
0.5527686
0.5448498
0.5516644
0.5270442
0.5472983
0.5367623
0.5451055
0.5273331
0.5414256
0.5311715
0.5404807
0.5284403
0.5386138
0.5256443
0.5382208
0.5253386
0.5346192
0.520418
0.5338804
0.5205341
0.5294151
0.5149553
0.5283799
0.5149231
0.5235897
0.5088225
0.5220764
0.5091454
0.5170241
0.5021599
0.5161426
0.5037106
0.5108578
0.4963003
0.5110483
0.4985256
0.5051008
0.4910584
0.5064955
0.4935906
0.4994239
0.4862603
0.5015173
0.4885379
0.4936044
0.4814499
0.4963497
0.4835353
0.4877598
0.4765398
0.4912449
0.4787895
0.4824311
0.4717536
0.4864277
0.4738254
0.4772067
0.4668735
0.4814397
0.4687701
0.4717715
0.4616153
0.4761297
0.463374
0.4661117
0.4558021
0.4704153
0.5720198
0.5688393
0.5686558
0.5692579
0.581728
0.5539702
0.5742611
0.554213
0.5691006
0.5717097
0.5563221
0.5718881
0.5602183
0.5754032
0.5802446
0.570458
0.556782
0.552611
0.5434861
0.756193
0.5300527
0.5500481
0.5713072
0.5153074
0.5631108
0.516257
0.5088243
0.5301822
0.527591
0.5441094
0.5421632
0.5487399
0.5557384
0.5618966
0.5325333
0.549286
0.5520923
0.53551
0.5589555
0.5559565
0.537396
0.5495079
0.5600874
0.5603054
0.5400032
0.5532859
0.5571004
0.560906
0.538012
0.5536537
0.5506138
0.5573248
0.536915
0.5533817
0.5494565
0.5534483
0.5345269
0.5544529
0.5439798
0.5483418
0.528757
0.5520968
0.5359903
0.5430752
0.5289078
0.5458676
0.529516
0.5423424
0.5381319
0.5422396
0.5243761
0.5384127
0.5383568
0.5397279
0.5200657
0.5334116
0.534723
0.5345091
0.5149059
0.5278937
0.5302994
0.5285843
0.5084365
0.5214024
0.5249725
0.5219259
0.5025513
0.5155614
0.5198626
0.5154949
0.497276
0.510289
0.5148567
0.5096554
0.4924072
0.5050005
0.510375
0.5040667
0.4876822
0.4996582
0.5056036
0.4986921
0.4828234
0.4943218
0.5006021
0.4932033
0.478016
0.4894216
0.4958285
0.487831
0.4733684
0.4845574
0.4912557
0.4827265
0.4683405
0.4794194
0.4862851
0.4772642
0.4628798
0.4739605
0.4808736
0.4714441
0.4568735
0.4762905
0.4652942
0.4750117
0.5762135
0.5706684
0.5590878
0.5783596
0.5518828
0.572249
0.5677777
0.5710611
0.5735307
0.5606711
0.5682275
0.5592848
0.5716176
0.566725
0.5690593
0.5769085
0.5318936
0.5548253
0.5989139
0.5391877
0.5203652
0.5618609
0.5261135
0.5427109
0.5407709
0.5474734
0.5297569
0.5308277
0.5302037
0.5245538
0.5160465
0.5159612
0.5233253
0.5206862
0.518292
0.5049135
0.4936549
0.5093092
0.4997214
0.5075944
0.5137544
0.5040785
0.5119156
0.4988491
0.4907922
0.5035335
0.4925537
0.4982091
0.5046846
0.4979835
0.4991812
0.4880294
0.4790125
0.4913997
0.4804549
0.488194
0.493803
0.4853722
0.4911769
0.4787533
0.4705805
0.4837496
0.4724964
0.4807963
0.4856602
0.4775519
0.4834452
0.4712169
0.4631509
0.5507492
0.5460202
0.5458803
0.5386237
0.5310848
0.5479718
0.550761
0.5340321
0.5321737
0.5452064
0.5429503
0.5520105
0.558008
0.5551438
0.5365184
0.5485493
0.5382858
0.5500393
0.5569756
0.559292
0.5595229
0.5598491
0.5395126
0.5527245
0.5363782
0.5518816
0.5491765
0.5594981
0.5505625
0.5573345
0.5369093
0.5533268
0.5351551
0.5525062
0.5474516
0.5570874
0.5496102
0.553638
0.5346848
0.5545935
0.530573
0.5529705
0.5450815
0.5519034
0.5442561
0.5486202
0.5290282
0.5523555
0.5289236
0.5389748
0.5259115
0.5386676
0.5247847
0.538859
0.5388091
0.5401688
0.5209652
0.5298371
0.5152682
0.5288126
0.5152929
0.528332
0.5307222
0.5290187
0.5096277
0.5174817
0.5026057
0.5166211
0.5030401
0.5160806
0.5203769
0.5159943
0.5042415
0.5113723
0.4968188
0.5115839
0.4978192
0.5108406
0.5154178
0.5101918
0.4990851
0.5056504
0.4916169
0.5070561
0.4929755
0.5055716
0.5109543
0.5046327
0.4941672
0.4999936
0.4868347
0.5020934
0.488261
0.5002388
0.5062001
0.4992652
0.4891151
0.4941791
0.4820303
0.4969339
0.4794127
0.4830242
0.4723489
0.4870429
0.4739867
0.4851673
0.4918972
0.4833409
0.4744453
0.4778197
0.4674909
0.4820574
0.4689601
0.4800225
0.486926
0.4778825
0.4693797
0.4723797
0.4622307
0.4767394
0.4634882
0.4745496
0.4814926
0.4720521
0.4639605
0.4667029
0.4563983
0.470993
0.4574481
0.4708002
0.4658638
0.4756011
0.6345067
0.5716319
0.5472295
0.5246556
0.5226605
0.5281363
0.4970934
0.5440619
0.5600224
0.6001906
0.535573
0.6075206
0.5478745
0.5642368
0.5513955
0.5566503
0.5671424
0.5831105
0.5675882
0.5566922
0.5680244
0.5663718
0.6264886
0.5373475
0.5588111
0.5621174
0.6025348
0.5411214
0.5221898
0.5635776
0.5663798
0.5665029
0.6160659
0.5483205
0.5807151
0.5499864
0.5911884
0.5601723
0.5752224
0.5624263
0.554813
0.5989229
0.5519959
0.5623891
0.530829
0.6101948
0.5682078
0.597625
0.6280123
0.5683194
0.5453725
0.5461717
0.5470936
0.5467905
0.5393728
0.5968942
0.5252922
0.5520211
0.5346136
0.5313057
0.5314087
0.5335848
0.5051839
0.51028
0.5063001
0.5043098
0.5047441
0.4983374
0.502988
0.4986011
0.4951555
0.5020495
0.4958973
0.4965581
0.4932706
0.4878032
0.4918845
0.4877851
0.4851072
0.490974
0.4865823
0.4848769
0.4844403
0.4779453
0.4828545
0.4785929
0.4771577
0.4702992
0.4755512
0.4712408
0.5244693
0.5499714
0.6293844
0.5390703
0.5351732
0.64669
0.5166657
0.5435869
0.5185872
0.5423869
0.6477272
0.5365098
0.5424102
0.6367316
0.5289976
0.547499
0.5332398
0.5495744
0.63539
0.546612
0.5499142
0.6194255
0.543296
0.552366
0.5520089
0.5515997
0.5516801
0.6015067
0.5561646
0.5940532
0.5589226
0.5563333
0.5590766
0.5525886
0.5920707
0.553859
0.5539497
0.5717304
0.5549411
0.5507459
0.527309
0.5475848
0.5371052
0.5454132
0.5257276
0.5350504
0.5208469
0.534337
0.5204187
0.5338619
0.5350758
0.5348978
0.5200447
0.5149369
0.5251453
0.5184564
0.5199963
0.5246603
0.5201235
0.5163162
0.514816
0.5096976
0.5197777
0.5131001
0.5148818
0.5195055
0.5150096
0.5113002
0.509733
0.5047661
0.5147103
0.5077798
0.5046952
0.4997667
0.5095549
0.5025194
0.4834036
0.4949165
0.5011862
0.4937892
0.4840764
0.4883423
0.4770576
0.4918615
0.4785503
0.4900096
0.4964627
0.4884034
0.4948733
0.4900094
0.4995478
0.4922605
0.4897935
0.4851722
0.4944581
0.4871739
0.5035521
0.5577993
0.5583039
0.5251856
0.5458535
0.5825733
0.5394107
0.5566016
0.5598742
0.622601
0.6251303
0.5614203
0.600973
0.5481394
0.5937412
0.5669625
0.5636113
0.5746389
0.5641718
0.6017975
0.5561186
0.5903534
0.5338139
0.5805659
0.5655678
0.6226758
0.6101969
0.5548587
0.5514942
0.5545411
0.5611069
0.5376101
0.5607254
0.5378184
0.5534627
0.5569717
0.5240222
0.5092505
0.5225195
0.5153354
0.6120576
0.5536498
0.5610125
0.6293178
0.5458961
0.599817
0.5544995
0.6008011
0.5556781
0.5593262
0.6071488
0.5656707
0.5840219
0.5485698
0.6000963
0.5381768
0.6140374
0.5547684
0.5558929
0.6196215
0.5041396
0.5566481
0.5229284
0.5563915
0.5426326
0.5600262
0.5641507
0.5628473
0.5272949
0.527299
0.5258311
0.5260794
0.5085045
0.5110367
0.5065809
0.5087969
0.5083827
0.5022639
0.504338
0.5083076
0.5039891
0.5059005
0.5008748
0.5042133
0.5017455
0.4966121
0.5021191
0.4981658
0.4827375
0.4853879
0.4799197
0.4838933
0.4823208
0.4756373
0.4780732
0.4827303
0.4751865
0.4724883
0.5388154
0.6436328
0.5488122
0.5260489
0.5200064
0.5374693
0.529893
0.6480066
0.5362466
0.6440399
0.5420086
0.5211676
0.5256747
0.5472424
0.5424734
0.6441533
0.5471028
0.6276635
0.5499668
0.5355803
0.5391713
0.5521736
0.5505721
0.6259331
0.5533669
0.5991998
0.5541751
0.5570941
0.5576133
0.553734
0.5545179
0.5973382
0.5563382
0.5509144
0.5544258
0.5760681
0.5202975
0.5252642
0.5164094
0.5199028
0.5189696
0.5130035
0.5165832
0.5239439
0.5149559
0.5200571
0.5111166
0.5147807
0.5140881
0.5079226
0.5113694
0.5189171
0.5095731
0.5147878
0.5059268
0.5095524
0.5090125
0.5029019
0.5060624
0.5137866
0.5041187
0.5094209
0.500447
0.5043098
0.493709
0.4991422
0.4899936
0.4942319
0.4938502
0.4880702
0.4906073
0.4985124
0.4883127
0.4939261
0.48469
0.4890433
0.4680619
0.4554279
0.4674753
0.4504343
0.4509674
0.455911
0.4686125
0.4494358
0.4591607
0.4499987
0.5330233
0.5323914
0.5319045
0.5265586
0.4978122
0.5149647
0.4878262
0.5230122
0.4811733
0.5295163
0.4948478
0.5018325
0.4829729
0.5060104
0.4855138
0.5148321
0.4785353
0.4933509
0.4728955
0.4978881
0.4721133
0.5023449
0.4728384
0.483297
0.4628781
0.4876005
0.4640495
0.4938118
0.4628145
0.457824
0.4559171
0.5254889
0.550915
0.5398528
0.6322577
0.5197652
0.543606
0.5377037
0.6488614
0.5339904
0.5503475
0.5473727
0.6361356
0.5450903
0.5513399
0.5500973
0.6175342
0.5521451
0.5517349
0.5518167
0.6016195
0.5590245
0.5525523
0.5538237
0.5920035
0.5557463
0.5519781
0.5534692
0.5809613
0.553335
0.5466655
0.550863
0.5700031
0.54738
0.5420574
0.5462934
0.5605055
0.5452834
0.5398639
0.5438816
0.5550573
0.5418222
0.5368005
0.5406958
0.550054
0.5370285
0.5318905
0.5358271
0.543922
0.5315064
0.5262768
0.5302131
0.537364
0.5253351
0.5200511
0.5238759
0.5306423
0.5195278
0.5144196
0.5179424
0.5246243
0.5142641
0.5091444
0.5125489
0.5192227
0.5091631
0.5041957
0.5072101
0.5141377
0.5041093
0.4991814
0.501934
0.508972
0.499061
0.4941255
0.4966868
0.5037748
0.4942529
0.489389
0.4916392
0.4989317
0.489169
0.4845529
0.4865532
0.4938329
0.4837387
0.479403
0.4811603
0.4884081
0.4780227
0.4738418
0.4754264
0.4826922
0.5472317
0.5468754
0.548706
0.5471378
0.539507
0.6026619
0.5253628
0.5499534
0.5366114
0.6479695
0.5180195
0.5450124
0.5432836
0.6375686
0.5298487
0.5483822
0.5504206
0.6198302
0.5438335
0.5528801
0.5527202
0.6054049
0.5532347
0.554714
0.5561785
0.5940287
0.5589163
0.5563499
0.5560163
0.5840218
0.5575655
0.5540945
0.5536608
0.571413
0.5546402
0.5504492
0.5497032
0.562864
0.5504662
0.546714
0.548386
0.5579836
0.5487861
0.5457628
0.5473111
0.5540165
0.5459513
0.5442477
0.5428259
0.548601
0.5415473
0.5394955
0.5372629
0.5425595
0.5364984
0.5337234
0.5309611
0.535918
0.5305669
0.5272979
0.5248408
0.5297245
0.524841
0.5211888
0.519453
0.5241091
0.5195748
0.5157714
0.5143191
0.5189357
0.5144402
0.5107374
0.509087
0.5136891
0.509296
0.5056451
0.5038142
0.5084032
0.5041229
0.5004935
0.498688
0.503396
0.4991588
0.4955071
0.4935942
0.4983652
0.4941422
0.4905655
0.4882049
0.4930699
0.488875
0.4852853
0.4824974
0.487513
0.4833232
0.4796381
0.4773828
0.481582
0.4764092
0.4735904
0.5146763
0.518576
0.5157085
0.5134484
0.5106738
0.5062629
0.5110816
0.5054131
0.4773052
0.4835879
0.4793416
0.4774582
0.5362172
0.5434087
0.5291952
0.5461389
0.5276035
0.541692
0.5313576
0.5408245
0.5297829
0.5427462
0.5385232
0.5425631
0.5457153
0.5402417
0.5554402
0.544313
0.5477636
0.5544595
0.5464011
0.5446979
0.5372574
0.5504899
0.5411492
0.5422849
0.5489978
0.5420108
0.5399022
0.5432682
0.5374754
0.5322964
0.5443266
0.5362738
0.5377018
0.5429879
0.536936
0.5341555
0.5258112
0.5205299
0.5243492
0.5311158
0.5253424
0.5302375
0.5253509
0.5216936
0.5096673
0.5142717
0.5098803
0.5062228
0.5040099
0.4997877
0.4961177
0.4993257
0.4821515
0.4779442
0.4769621
0.4741455
0.540051
0.6455299
0.5274318
0.5501263
0.5372887
0.6450666
0.5222236
0.5430866
0.5477913
0.6282539
0.5362312
0.5506898
0.5499177
0.6127636
0.5486429
0.5513476
0.5534649
0.5992696
0.5571749
0.5542759
0.5554652
0.5891257
0.5585191
0.5551918
0.5546821
0.5780594
0.5563197
0.5523963
0.5509713
0.5673501
0.5526227
0.5479407
0.5469105
0.5587976
0.547002
0.544172
0.5449017
0.5539683
0.5447787
0.5420216
0.541265
0.5490616
0.5410468
0.53789
0.5361665
0.5431323
0.5361263
0.5325746
0.5308236
0.5367617
0.5304899
0.5269865
0.5255487
0.5305347
0.5247457
0.5216283
0.5197727
0.5247304
0.5193717
0.5158822
0.5143993
0.5194959
0.5142208
0.5105595
0.5089988
0.5142092
0.5089759
0.5053473
0.5035245
0.508837
0.5037205
0.4998513
0.4981773
0.5035327
0.4985696
0.4944045
0.4930799
0.4985202
0.4936083
0.4893614
0.4876871
0.4933056
0.4884216
0.4840627
0.4819586
0.4878076
0.4829726
0.4784407
0.4760072
0.4819665
0.4772414
0.4725551
0.5509264
0.5496263
0.5444867
0.6172763