/*--------------------------------*- C++ -*----------------------------------*\
  =========                 |
  \\      /  F ield         | OpenFOAM: The Open Source CFD Toolbox
   \\    /   O peration     | Website:  https://openfoam.org
    \\  /    A nd           | Version:  7
     \\/     M anipulation  |
\*---------------------------------------------------------------------------*/
FoamFile
{
    version     2.0;
    format      ascii;
    class       surfaceScalarField;
    location    "0.07";
    object      phi;
}
// * * * * * * * * * * * * * * * * * * * * * * * * * * * * * * * * * * * * * //

dimensions      [0 3 -1 0 0 0 0];

internalField   nonuniform List<scalar> 
234023
(
3.36938e-10
-3.452291e-09
1.296009e-09
3.914519e-10
5.789785e-10
3.985371e-10
6.373249e-10
4.627051e-09
-6.540776e-09
1.689133e-09
4.843688e-10
8.922585e-09
-1.113461e-08
1.978216e-09
4.499218e-10
1.453733e-08
-1.759625e-08
2.944714e-09
3.884261e-10
2.225906e-08
-2.731465e-08
4.680092e-09
7.183884e-10
3.417075e-08
-4.172712e-08
7.200647e-09
9.868425e-10
5.236287e-08
-6.486708e-08
1.164965e-08
1.611127e-09
8.085927e-08
-1.005225e-07
1.810036e-08
2.284293e-09
1.256481e-07
2.732082e-08
2.251332e-09
-1.547886e-07
-5.121063e-10
-8.728065e-10
3.181723e-09
2.176118e-10
-5.885524e-10
-5.336623e-10
-7.725279e-10
-1.964722e-08
2.045559e-08
2.645864e-09
1.7879e-09
2.491289e-09
2.706029e-09
2.538015e-09
-2.324992e-09
-3.480312e-09
-2.955792e-09
-3.768606e-09
-3.409829e-08
2.765671e-08
3.682614e-09
-2.673363e-09
-4.959123e-09
-3.855551e-09
-4.697005e-09
-5.528921e-08
4.07687e-08
4.473049e-09
-3.611919e-09
-7.512774e-09
-5.379902e-09
-6.768316e-09
-8.714985e-08
6.165851e-08
5.510849e-09
-5.162235e-09
-1.086894e-08
-8.169928e-09
-1.02465e-08
-1.356545e-07
9.615987e-08
7.233594e-09
-8.036613e-09
-1.696926e-08
-1.27178e-08
-1.601362e-08
-2.099631e-07
1.501651e-07
9.890529e-09
-1.234324e-08
-2.652835e-08
-1.998055e-08
-2.525321e-08
-3.246516e-07
2.363927e-07
1.33069e-08
-1.98127e-08
-4.144546e-08
-3.16929e-08
-4.013402e-08
3.711256e-07
1.801966e-08
-3.087549e-08
-6.426785e-08
-5.000667e-08
-6.172106e-08
-5.052914e-07
-3.670985e-09
-5.209676e-10
4.070579e-09
1.776434e-10
-1.229121e-08
2.442088e-08
2.472146e-09
6.150046e-10
2.10443e-09
1.719298e-09
1.81071e-09
-2.069208e-08
3.311758e-08
3.510695e-09
-3.30544e-08
4.936728e-08
4.397031e-09
-5.164074e-08
7.506442e-08
5.936361e-09
-7.988245e-08
1.176477e-07
7.691371e-09
-1.227398e-07
1.830764e-07
1.120512e-08
-1.885668e-07
2.877954e-07
1.568857e-08
4.527662e-07
2.242264e-08
-2.915137e-07
-4.540813e-09
2.62298e-10
4.056414e-09
2.416431e-10
-8.039093e-11
2.263045e-08
2.971001e-09
-9.579048e-10
5.492332e-10
-2.002487e-10
1.703631e-10
-5.2178e-10
3.145275e-08
2.603323e-09
9.359681e-12
4.652498e-08
2.837257e-09
7.905022e-10
7.131613e-08
3.70555e-09
2.743789e-09
1.118586e-07
4.871376e-09
8.458532e-09
1.757095e-07
2.76965e-09
1.949003e-08
2.766233e-07
1.422994e-09
4.377063e-07
-2.153291e-09
3.77238e-08
-3.838713e-09
4.448068e-10
3.230284e-09
2.773921e-10
8.501385e-09
3.644935e-09
2.015307e-09
-1.673421e-09
-5.236507e-10
-1.125188e-09
-8.812799e-10
4.015391e-09
4.569927e-09
4.61215e-09
1.467096e-08
4.978098e-09
2.135757e-09
6.115286e-09
6.335213e-09
6.172299e-09
2.480909e-08
6.988691e-09
2.128641e-09
9.255904e-09
9.32456e-09
9.128946e-09
4.062715e-08
1.051737e-08
2.563223e-09
1.434555e-08
1.460265e-08
1.434374e-08
6.658569e-08
1.642707e-08
2.759235e-09
2.238596e-08
2.279572e-08
2.251626e-08
1.078012e-07
2.527449e-08
2.896908e-09
3.576509e-08
3.573273e-08
3.613111e-08
1.738806e-07
3.9787e-08
1.67585e-09
5.667021e-08
5.598902e-08
5.768238e-08
6.335697e-08
-3.7948e-10
8.979089e-08
8.870843e-08
9.198318e-08
2.792795e-07
-2.953328e-09
5.671766e-10
2.04398e-09
4.814129e-10
-1.659627e-09
2.198591e-09
2.348834e-09
9.780777e-10
-3.277991e-09
4.37267e-09
2.970849e-09
1.287965e-09
-6.331196e-09
7.497561e-09
4.39569e-09
1.536098e-09
-1.018202e-08
1.234948e-08
6.725962e-09
2.000978e-09
-1.739471e-08
2.098764e-08
1.061819e-08
2.731984e-09
-2.858468e-08
3.386468e-08
1.644476e-08
4.21454e-09
-4.662094e-08
5.482311e-08
2.614786e-08
6.272431e-09
-7.529073e-08
8.859788e-08
4.207659e-08
8.820588e-09
-1.214139e-07
6.754148e-08
1.364031e-08
1.416909e-07
-1.008011e-07
-7.700651e-11
-1.105639e-11
-4.320207e-11
1.961298e-10
3.673944e-11
-5.659478e-10
1.454811e-11
5.279163e-10
-8.211816e-12
1.111212e-10
-1.04873e-09
-2.268551e-10
1.103384e-09
1.892835e-10
2.020489e-10
-2.235629e-09
3.320814e-11
2.001287e-09
1.225315e-10
1.976539e-10
-3.441178e-09
-3.615973e-10
3.20231e-09
4.016652e-10
5.113977e-10
-6.037329e-09
3.70827e-10
5.441193e-09
5.093216e-11
4.273481e-10
-9.668714e-09
3.200133e-10
8.408926e-09
3.035536e-10
8.475722e-10
-1.487566e-08
4.563927e-10
1.338177e-08
4.697951e-10
9.976745e-10
-2.423731e-08
4.332322e-10
2.208096e-08
8.322777e-10
1.546663e-09
-3.961325e-08
3.086634e-11
3.502801e-08
1.467931e-09
3.466504e-09
0.0003508225
3.273437e-05
-2.090449e-05
-0.001496117
-9.031952e-05
0.0003457593
0.0004431614
0.0004348636
0.000355724
1.524127e-05
-1.155727e-05
-9.832251e-05
-0.001505981
0.0003530166
0.0004492075
0.0004426711
0.0003605034
1.040926e-05
-9.627222e-06
-9.67476e-05
-0.001526028
0.0003575393
0.0004552746
0.0004486757
0.0003647661
1.170681e-05
-1.150645e-05
-9.672644e-05
-0.001544613
0.0003615724
0.0004607579
0.0004540421
0.0003699085
1.442808e-05
-1.393812e-05
-9.762428e-05
-0.001567145
0.0003664838
0.0004673777
0.0004605096
0.0003761384
1.749753e-05
-1.657275e-05
-9.900223e-05
-0.001594371
0.0003724812
0.0004754533
0.0004683756
0.0003835731
2.07999e-05
-1.942103e-05
-0.0001007359
-0.001626698
0.0003796282
0.0004850837
0.0004777698
0.0003923238
2.441762e-05
-2.261928e-05
-0.0001027334
-0.001664615
0.0003879731
0.0004964194
0.0004888331
0.0004025042
2.842478e-05
-2.629079e-05
-0.0001046948
-0.001708971
0.0003976337
0.0005096488
0.0005017454
-0.000519355
-0.02402677
-0.001164738
0.0007208924
-0.0009807019
0.000567951
-0.0002493606
0.005819644
0.005965751
0.006962121
0.006904566
-0.0006008957
-0.02405274
-0.001876346
0.006071457
0.00603171
0.006975312
0.006932144
-0.0006171344
-0.02411889
-0.002100794
0.006137583
0.00609621
0.007009995
0.006992136
-0.0006923128
-0.02432396
-0.002130979
0.006210276
0.006167284
0.007078241
0.007074313
-0.000809237
-0.02462894
-0.002169484
0.006304694
0.006254047
0.007178912
0.007177695
-0.0009518266
-0.02504008
-0.002197194
0.006416753
0.00635609
0.007303425
0.007303594
-0.001113645
-0.02553549
-0.002236003
0.006549324
0.006477273
0.007452964
0.007453746
-0.001295935
-0.02612195
-0.002281965
0.006704748
0.006620316
0.007629568
0.007631573
-0.02679841
-0.002339262
0.006885059
0.007834988
-0.001501059
0.006786168
0.007836578
-0.0004245552
-0.02359834
-0.0002394381
0.001024977
-0.0009292629
0.0004677906
-0.0003279434
-0.0006142014
-0.02332087
-0.0005422186
-0.0008035355
-0.02333515
-0.0005944046
-0.0009937411
-0.02347282
-0.0006609335
-0.001205979
-0.02374785
-0.000668854
-0.001434945
-0.02412478
-0.0006863308
-0.00168385
-0.02459179
-0.000694789
-0.001955867
-0.02514169
-0.0007082467
-0.02577616
-0.0007233645
-0.002254745
-0.0006371624
-0.02330437
-6.657516e-05
0.00105265
-0.000869245
0.0005142439
-0.0002878777
-0.0008326546
-0.02302363
-0.0001017546
-0.001069266
-0.02300022
-9.832008e-05
-0.001320956
-0.02311246
-0.0001086674
-0.001597286
-0.02336158
-0.0001099403
-0.001896191
-0.0237145
-0.000111378
-0.002221204
-0.02415537
-0.0001114037
-0.002575039
-0.02467532
-0.0001125331
-0.02527441
-0.0001143411
-0.002962454
-0.0006369892
-0.02295886
-3.202214e-05
0.001012519
-0.0008639108
0.0004794595
-0.0003045662
-0.0009412332
-0.02266924
-5.014336e-05
-0.001264625
-0.02263513
-4.169823e-05
-0.001596205
-0.02272644
-5.444326e-05
-0.001947657
-0.02295656
-5.356977e-05
-0.002319794
-0.02328522
-5.713895e-05
-0.00271943
-0.02369927
-5.646902e-05
-0.003150505
-0.02418695
-5.729095e-05
-0.0247477
-5.787414e-05
-0.003619339
-0.0007567855
-0.02257392
-2.656494e-05
0.001011147
-0.0008314273
0.0004999652
-0.0002812724
-0.001112529
-0.02228628
-2.721363e-05
-0.001492382
-0.02225089
-4.385389e-06
-0.001883728
-0.02232976
-5.324904e-06
-0.002296838
-0.02254193
-1.510968e-06
-0.002733231
-0.02284713
-1.695816e-06
-0.003199898
-0.02323245
-1.472677e-07
-0.003701236
-0.02368588
2.671164e-07
-0.02420512
4.694741e-07
-0.004244278
-0.000831163
-0.02213131
-3.082484e-05
0.001000663
-0.0008075232
0.0004988021
-0.0002725665
-0.001250182
-0.02184412
-2.314322e-05
-0.001690858
-0.02180305
-7.169115e-06
-0.002143418
-0.02186951
-7.691162e-06
-0.002617837
-0.02206328
-4.234693e-06
-0.003115959
-0.02234438
-4.626548e-06
-0.003645415
-0.02269976
-3.232966e-06
-0.004211124
-0.02311689
-3.282553e-06
-0.02359241
-3.560992e-06
-0.00482028
-0.000931758
-0.02163917
-3.454471e-05
0.0009939995
-0.0007774497
0.0005117094
-0.0002540955
-0.001396606
-0.02135299
-2.628038e-05
-0.001887629
-0.02130725
-4.776008e-06
-0.002392166
-0.02136209
-2.886316e-06
-0.002920131
-0.02153721
1.894063e-06
-0.003472958
-0.02179402
2.463192e-06
-0.004058501
-0.02211849
4.26661e-06
-0.004681415
-0.02249842
4.444763e-06
-0.02292918
4.106201e-06
-0.005348751
-0.001014484
-0.02109835
-3.813411e-05
0.0009834239
-0.0007491683
0.0005174869
-0.0002399496
-0.001526506
-0.02081384
-2.7127e-05
-0.002065663
-0.02076174
-6.353335e-06
-0.002618856
-0.02080469
-4.202215e-06
-0.003195915
-0.02096063
4.781304e-07
-0.003798298
-0.02119279
1.155083e-06
-0.004433562
-0.02148613
2.904557e-06
-0.005106405
-0.02182865
3.074819e-06
-0.02221462
2.501217e-06
-0.005823466
-0.001097521
-0.02051339
-4.174202e-05
0.0009721115
-0.0007189874
0.0005248604
-0.0002236834
-0.001649488
-0.02023136
-3.051876e-05
-0.00223109
-0.02017305
-7.083729e-06
-0.002827126
-0.0202041
-4.557631e-06
-0.003447473
-0.02034103
7.446067e-07
-0.004093255
-0.02054866
1.647521e-06
-0.004771901
-0.02081109
3.602264e-06
-0.005487638
-0.02111674
3.823379e-06
-0.02145907
3.196502e-06
-0.006246378
-0.001170924
-0.01988845
-4.423821e-05
0.0009580338
-0.0006888962
0.0005297985
-0.0002087143
-0.001759824
-0.01960951
-3.295159e-05
-0.00238001
-0.01954493
-7.93272e-06
-0.003014505
-0.01956423
-5.373493e-06
-0.003673262
-0.01968244
1.716167e-07
-0.004357138
-0.01986589
1.107874e-06
-0.005073076
-0.02009827
3.12157e-06
-0.005825052
-0.02036809
3.329609e-06
-0.02066858
2.584599e-06
-0.006618133
-0.001238341
-0.01922752
-4.669461e-05
0.0009421435
-0.0006580678
0.0005336755
-0.0001936473
-0.001859432
-0.0189525
-3.591536e-05
-0.002513729
-0.01888201
-8.622914e-06
-0.003181922
-0.01888998
-6.062908e-06
-0.003874197
-0.01899002
-1.476848e-07
-0.004590877
-0.01915003
8.203544e-07
-0.00533864
-0.01935343
2.924126e-06
-0.006120618
-0.01958926
3.14974e-06
-0.01985005
2.347583e-06
-0.006941489
-0.001297924
-0.018535
-4.835804e-05
0.000924058
-0.0006270373
0.0005358454
-0.0001790971
-0.001947468
-0.01826448
-3.847277e-05
-0.00263185
-0.01818859
-9.045379e-06
-0.003329534
-0.01818572
-6.575867e-06
-0.004050864
-0.01826834
-3.481255e-07
-0.0047956
-0.0184059
6.095389e-07
-0.005569966
-0.01858182
2.761862e-06
-0.006376634
-0.01878558
2.979847e-06
-0.01900944
2.115569e-06
-0.007219366
-0.001350532
-0.01781485
-5.00067e-05
0.0009043717
-0.0005955955
0.000536545
-0.0001649357
-0.002024565
-0.01754968
-4.076501e-05
-0.002735004
-0.01746872
-9.429089e-06
-0.003458033
-0.01745564
-7.046238e-06
-0.004204226
-0.01752163
-5.134895e-07
-0.004972692
-0.01763789
4.538658e-07
-0.005769201
-0.017788
2.681193e-06
-0.006595794
-0.0179619
2.917005e-06
-0.01815187
2.006234e-06
-0.007455363
-0.001395988
-0.01707123
-5.120866e-05
0.0008828173
-0.0005638719
0.0005359721
-0.0001513372
-0.002090789
-0.01681243
-4.245557e-05
-0.002823553
-0.01672667
-9.285644e-06
-0.003568268
-0.01670397
-6.961688e-06
-0.004335639
-0.01675412
-1.398764e-07
-0.005124082
-0.01685028
8.349009e-07
-0.005938858
-0.01697629
3.065348e-06
-0.006781185
-0.01712283
3.257899e-06
-0.01728185
2.262458e-06
-0.007653471
-0.001434473
-0.01630853
-5.139768e-05
0.0008593029
-0.0005317831
0.0005337338
-0.0001380813
-0.002146499
-0.01605592
-4.448677e-05
-0.00289806
-0.0159659
-9.203309e-06
-0.003660976
-0.01593409
-6.959259e-06
-0.004446216
-0.01596908
1.943464e-07
-0.005251297
-0.01604639
1.191762e-06
-0.006081145
-0.01614995
3.510572e-06
-0.006936083
-0.01627164
3.747994e-06
-0.0164031
2.758573e-06
-0.007817591
-0.001465293
-5.205842e-05
0.0008345346
-0.0004996934
0.0005296058
-0.0001254613
-0.01553017
-0.002191625
-4.44029e-05
-0.01528518
-0.002958756
-8.01135e-06
-0.01519076
-0.003737032
-5.604613e-06
-0.01515021
-0.004537418
1.86022e-06
-0.01517055
-0.00535675
2.85135e-06
-0.01522991
-0.00619915
5.03963e-06
-0.01531259
-0.007064085
5.172788e-06
-0.01541188
4.021591e-06
-0.01551893
-0.007952275
5.015498e-10
-7.701418e-10
-3.508254e-09
1.295467e-09
8.635963e-10
7.80979e-10
5.056677e-10
6.04721e-10
-4.229388e-08
1.624252e-08
5.523047e-09
-1.752036e-10
-2.30371e-09
9.014129e-11
-1.075775e-09
5.167139e-09
7.13742e-09
5.557875e-09
7.015543e-09
-6.717805e-08
2.33862e-08
7.488459e-09
2.178366e-10
-3.970829e-09
1.6538e-11
-1.589157e-09
-1.062833e-07
3.619048e-08
9.1444e-09
1.176079e-09
-5.747636e-09
8.406638e-10
-1.831979e-09
-1.65817e-07
5.586962e-08
1.178851e-08
2.051283e-09
-8.315941e-09
1.463837e-09
-2.393553e-09
-2.580713e-07
8.721968e-08
1.564195e-08
3.712768e-09
-1.212254e-08
2.556995e-09
-3.395978e-09
-4.009412e-07
1.365671e-07
2.024332e-08
5.891969e-09
-1.774084e-08
4.352934e-09
-4.538592e-09
2.139063e-07
2.620259e-08
9.799939e-09
-2.639671e-08
7.339455e-09
-5.460115e-09
-6.247024e-07
-4.568346e-10
-5.621992e-10
-1.048804e-09
3.264881e-09
7.67866e-10
-5.534374e-10
-5.427322e-10
-6.903777e-10
-2.278788e-08
2.333943e-08
5.240028e-09
-2.908356e-09
-3.760804e-09
-2.751779e-09
-3.722664e-09
2.484803e-09
2.747249e-09
2.667776e-09
2.625944e-09
-4.085632e-08
3.181374e-08
6.632378e-09
-6.675845e-08
4.618562e-08
8.054881e-09
-1.051598e-07
7.034629e-08
1.03543e-08
-1.635923e-07
1.09174e-07
1.303549e-08
-2.54061e-07
1.712765e-07
1.74603e-08
-3.939658e-07
2.688556e-07
2.208205e-08
4.224562e-07
2.944395e-08
-6.129098e-07
-6.045868e-09
2.183082e-08
4.693374e-09
-8.413578e-10
-1.069771e-09
1.701673e-10
-8.856209e-10
-3.828896e-09
-4.839772e-09
-3.59195e-09
-5.14272e-09
-1.364145e-08
2.856001e-08
5.359927e-09
-2.316563e-08
3.844563e-08
6.737037e-09
-3.769866e-08
5.725158e-08
8.463325e-09
-5.863063e-08
8.692201e-08
1.092248e-08
-9.031004e-08
1.354114e-07
1.424274e-08
-1.386758e-07
2.12821e-07
1.914478e-08
-2.131258e-07
3.350803e-07
2.526477e-08
5.271101e-07
3.435678e-08
-3.287969e-07
5.433649e-10
1.971724e-08
4.976709e-09
-1.108172e-09
-7.371605e-10
-4.569782e-11
-6.292335e-10
2.110019e-10
2.633094e-08
5.738533e-09
3.112681e-10
3.515614e-08
6.242418e-09
1.399701e-09
5.227248e-08
7.175763e-09
4.559738e-09
7.96199e-08
8.677431e-09
1.09904e-08
1.244348e-07
1.019276e-08
2.074709e-08
1.945458e-07
1.239751e-08
3.811705e-08
3.064621e-07
1.339354e-08
4.813074e-07
1.462293e-08
6.78209e-08
3.272327e-09
2.94441e-09
4.70566e-09
-1.199555e-09
-6.248124e-10
-2.306679e-10
-4.682961e-10
4.290515e-09
3.57273e-09
3.910647e-09
1.142642e-08
1.507969e-08
5.545146e-09
2.261259e-08
1.943037e-08
7.067702e-09
3.821737e-08
2.99993e-08
8.593127e-09
6.258372e-08
4.661365e-08
1.140646e-08
1.023459e-07
7.33246e-08
1.445329e-08
1.647096e-07
1.163167e-07
1.887853e-08
2.650855e-07
1.845712e-07
2.309011e-08
2.901399e-07
3.049997e-08
4.259288e-07
-1.093678e-09
1.115109e-09
1.114282e-09
3.697212e-10
6.42232e-10
5.712675e-10
4.323056e-10
2.254059e-08
4.986759e-10
7.160599e-09
-2.612201e-09
-2.666507e-09
-2.706114e-09
-2.228693e-09
-2.048541e-09
-1.47815e-09
-1.435789e-09
-1.2688e-09
6.124745e-10
2.013464e-10
1.47856e-09
3.90379e-08
-5.206967e-10
6.441733e-09
-2.660835e-09
-1.835984e-09
-1.611426e-09
-1.189365e-09
7.198328e-10
3.04869e-09
9.265241e-10
6.455239e-08
6.723732e-10
8.792907e-09
-3.320121e-09
-2.43387e-09
-2.215105e-09
-1.199502e-09
1.48018e-09
-8.680656e-11
2.115629e-09
1.047516e-07
1.064094e-09
9.949252e-09
-4.429409e-09
-2.66453e-09
-2.986524e-09
-1.191174e-09
2.730118e-09
8.659991e-10
3.493385e-09
1.704938e-07
1.957018e-09
1.15451e-08
-6.57083e-09
-3.702251e-09
-4.466714e-09
-1.56769e-09
4.607573e-09
1.354717e-09
5.144763e-09
2.731413e-07
3.691019e-09
1.263531e-08
-9.318097e-09
-4.806253e-09
-5.876998e-09
-1.555805e-09
8.044596e-09
2.442717e-09
9.261515e-09
4.391364e-07
6.035913e-09
1.123798e-08
-1.380148e-08
-6.266529e-09
-8.667162e-09
-1.511486e-09
1.33202e-08
3.812917e-09
1.56088e-08
9.505296e-09
8.656438e-09
-2.019095e-08
-7.288059e-09
-1.240556e-08
-5.625434e-10
2.204964e-08
4.775416e-09
2.467664e-08
7.015654e-07
-1.402023e-09
-2.315776e-09
3.052037e-09
1.44954e-09
-4.76016e-10
-3.910291e-09
5.308945e-09
-1.001086e-09
-2.974327e-09
-6.001771e-09
8.272621e-09
1.321184e-09
-4.309866e-09
-9.508151e-09
1.360003e-08
1.396871e-09
-5.968234e-09
-1.596127e-08
2.218363e-08
2.065894e-09
-8.770949e-09
-2.601842e-08
3.582143e-08
3.151738e-09
-1.236955e-08
-4.262948e-08
5.777323e-08
3.874919e-09
-1.642021e-08
-6.905312e-08
9.19228e-08
3.872287e-09
-2.834559e-08
-1.100334e-07
1.018146e-08
1.45574e-07
-1.626825e-08
0.0006492074
0.0006619195
-0.0002966548
-0.006324842
-0.0003134612
0.0007622498
-1.876787e-05
-6.359268e-06
-1.844692e-05
0.0007708144
-2.306989e-05
0.0008130949
9.83617e-05
-5.731776e-05
-0.006407338
-0.0008036873
0.0008158611
-6.316062e-06
2.636366e-06
0.0008100974
9.487648e-06
-1.908085e-05
-0.0065004
-0.0008787357
0.0008152641
-8.703789e-06
-5.461542e-06
0.0008191487
3.263835e-05
-3.405308e-05
-0.006564099
-0.0009111022
0.0008222675
-8.400163e-06
-5.32538e-06
0.0008277439
3.878694e-05
-4.4021e-05
-0.006662065
-0.0009095721
0.0008304246
-8.996657e-06
-5.9432e-06
0.0008400887
5.164029e-05
-5.539155e-05
-0.006776813
-0.0009240308
0.0008422939
-8.655562e-06
-5.518361e-06
0.0008547289
6.177014e-05
-6.617243e-05
-0.006914678
-0.0009377246
0.0008565187
-8.418178e-06
-5.23485e-06
0.0008722434
7.338947e-05
-7.764963e-05
-0.007076653
-0.0009549567
0.0008733169
-8.484925e-06
-5.376112e-06
0.0008917851
8.508139e-05
-0.007261882
-0.0009731086
0.0008922402
-9.493307e-06
-6.209632e-06
-8.991194e-05
0.0002059037
0.005193701
-0.0001446644
-0.005012313
-0.0001394135
7.804594e-05
-0.0001596214
-2.1638e-05
-0.0006696533
-0.02690161
-0.0004108546
0.006699787
0.006769002
0.00657114
0.006595929
0.0002688065
-0.0002180484
0.0003164491
-0.0001856842
-0.0005743723
-0.02765881
-0.0008412724
0.00669161
0.006708235
0.006574095
0.006554515
-0.0006762101
-0.02782814
-0.001043903
0.00679379
0.006798588
0.006637991
0.006642713
-0.000774638
-0.02811823
-0.001084297
0.00687018
0.006877201
0.006708327
0.006714271
-0.0009180119
-0.02847169
-0.001136313
0.006973763
0.006984275
0.006806696
0.006817164
-0.00108162
-0.0289501
-0.001147022
0.007093647
0.007107617
0.006924024
0.006938242
-0.001265093
-0.02952318
-0.001171021
0.007238004
0.007254774
0.007066002
0.007082891
-0.001466762
-0.03020386
-0.001196107
0.007407768
0.007426911
0.007232661
0.007252333
-0.03098926
0.007603455
0.007424607
-0.001691692
0.007626376
0.007449191
-0.0012287
0.0002177171
0.005238946
-0.0001902541
-0.004997534
-0.0002062548
0.0001144619
-0.0001614898
-1.559193e-05
-0.0004603302
-0.02677176
-0.0002109359
0.0002467994
-0.0001862204
0.0002368589
4.53777e-06
-0.0006726913
-0.02732111
-0.0006675562
-0.0009144742
-0.02738601
-0.0007947498
-0.001152415
-0.02757857
-0.0009626584
-0.001402484
-0.02789873
-0.000991752
-0.001670446
-0.02833733
-0.001031135
-0.001959153
-0.02888317
-0.001046092
-0.002274069
-0.02952907
-0.001068124
-0.03027639
-0.001091194
-0.002619112
0.0002348636
0.005053852
-0.0001781229
-0.004916367
-0.0001884365
0.0001413966
-0.0001505722
3.385969e-06
-0.0006557547
-0.02640477
-0.0001356414
0.0002714656
-0.0001358314
0.0002086217
1.357734e-05
-0.0009600483
-0.02688367
-0.0002348998
-0.001237369
-0.02692551
-0.0002814957
-0.001536075
-0.02706398
-0.0003245437
-0.001856617
-0.02734438
-0.000343748
-0.002205598
-0.02774652
-0.0003532017
-0.002585007
-0.02825815
-0.0003570104
-0.002997742
-0.02886737
-0.0003614983
-0.02957158
-0.0003678164
-0.00344907
0.0002341242
0.004986969
-0.0001716466
-0.004875896
-0.0001808973
0.0001457581
-0.000146133
7.722076e-06
-0.0007199423
-0.02598749
-5.265925e-05
0.0002795653
-0.0001229759
0.0001805238
-1.381161e-05
-0.00109807
-0.02642922
-0.0001264645
-0.001479914
-0.02643692
-0.0001484417
-0.001869407
-0.02654314
-0.0001857912
-0.002278145
-0.02679359
-0.0001956208
-0.002711701
-0.02716334
-0.0002067637
-0.003177181
-0.02764095
-0.0002081885
-0.00367962
-0.02821063
-0.0002115893
-0.02886791
-0.0002152944
-0.004225868
0.0002332421
0.004961945
-0.0002043297
-0.004802004
-0.0002017303
0.0001456861
-0.0001423269
9.517208e-06
-0.0008325389
-0.02553268
-4.681137e-05
0.000294016
-0.0001037247
0.0001994378
8.245595e-06
-0.001293749
-0.0259381
-5.71204e-05
-0.001735052
-0.02594225
-5.775859e-05
-0.002194442
-0.02602691
-6.216702e-05
-0.002673689
-0.02625378
-6.206704e-05
-0.003182022
-0.02659351
-6.319125e-05
-0.003725572
-0.02703625
-6.130402e-05
-0.004310178
-0.02756445
-6.130422e-05
-0.0281717
-6.263787e-05
-0.004943287
0.0002300497
0.004836321
-0.0001855414
-0.004715848
-0.0001828995
0.0001452944
-0.000139026
1.164936e-05
-0.0009515069
-0.02502235
-2.893333e-05
0.0003102484
-8.886271e-05
0.0002030887
1.481087e-05
-0.001460582
-0.02541022
-4.194661e-05
-0.001971177
-0.02539866
-4.015344e-05
-0.002498059
-0.02546664
-4.107555e-05
-0.003047922
-0.02567036
-3.779919e-05
-0.003627043
-0.0259812
-3.781646e-05
-0.004243015
-0.02638826
-3.524187e-05
-0.00490186
-0.02687355
-3.533506e-05
-0.02742872
-3.709715e-05
-0.005611295
0.0002263218
0.004775603
-0.0002064535
-0.004623983
-0.0001909347
0.0001430245
-0.000136085
1.250659e-05
-0.001055158
-0.0244603
-2.934899e-05
0.0003202448
-7.768805e-05
0.0002180898
2.726524e-05
-0.001628591
-0.02482996
-3.311295e-05
-0.002195647
-0.02480956
-2.682293e-05
-0.002782632
-0.02486278
-1.976614e-05
-0.003393585
-0.02504436
-1.314527e-05
-0.004035902
-0.02532667
-9.748279e-06
-0.004716535
-0.02569759
-5.777594e-06
-0.005441627
-0.02613907
-4.946849e-06
-0.0266414
-6.609126e-06
-0.00621823
0.0002227855
0.004658344
-0.0002031892
-0.004517901
-0.0001842034
0.0001416872
-0.0001321639
1.464108e-05
-0.001156916
-0.02384485
-2.544197e-05
0.0003317764
-6.474068e-05
0.0002260092
3.572678e-05
-0.001781648
-0.02419897
-3.338577e-05
-0.002403684
-0.02416814
-2.573817e-05
-0.00304575
-0.02420722
-1.769399e-05
-0.003713337
-0.02436653
-9.76999e-06
-0.004412662
-0.02462062
-5.567817e-06
-0.005151021
-0.02495529
-1.033645e-06
-0.005933752
-0.0253533
4.00754e-08
-0.02580301
-1.974631e-06
-0.006767666
0.0002186212
0.004553864
-0.0002098951
-0.004405729
-0.0001836726
0.0001393483
-0.0001283733
1.583612e-05
-0.001250138
-0.02318083
-2.586076e-05
0.0003405649
-5.206789e-05
0.0002363699
4.53669e-05
-0.001924485
-0.02352003
-3.510732e-05
-0.002594963
-0.02347957
-2.517835e-05
-0.003286426
-0.02350496
-1.535225e-05
-0.004003542
-0.02364251
-6.157117e-06
-0.004753148
-0.02386854
-8.246308e-07
-0.005541541
-0.02416763
4.33696e-06
-0.00637404
-0.02452268
5.702468e-06
-0.02492137
3.572643e-06
-0.007256064
0.0002143525
0.004432707
-0.0002115716
-0.004285231
-0.0001807557
0.0001372374
-0.0001241128
1.73738e-05
-0.001333967
-0.02247221
-2.527408e-05
0.0003485487
-4.029506e-05
0.0002442711
5.386456e-05
-0.00205329
-0.02279591
-3.775115e-05
-0.002768004
-0.02274642
-2.637007e-05
-0.003503738
-0.02275836
-1.624006e-05
-0.004265032
-0.02287477
-6.275917e-06
-0.005058604
-0.02307321
-6.511995e-07
-0.005890279
-0.02333766
4.829986e-06
-0.006764796
-0.02365112
6.279003e-06
-0.02400105
3.977998e-06
-0.007686501
0.0002097375
0.004306946
-0.0002140707
-0.004158088
-0.0001786176
0.000134883
-0.0001196509
1.886089e-05
-0.001409317
-0.02172372
-2.5332e-05
0.0003546307
-2.916026e-05
0.0002517663
6.223066e-05
-0.002169187
-0.02203137
-4.058313e-05
-0.002923073
-0.0219736
-2.754849e-05
-0.003697734
-0.02197269
-1.707416e-05
-0.004497628
-0.02206863
-6.39256e-06
-0.005329213
-0.02224041
-4.003047e-07
-0.006197737
-0.02247158
5.363891e-06
-0.007106983
-0.02274563
6.904183e-06
-0.02304931
4.462724e-06
-0.008060839
0.0002047604
0.004173814
-0.0002161822
-0.004023307
-0.0001768155
0.0001323378
-0.0001149926
2.038488e-05
-0.001475388
-0.02094033
-2.508225e-05
0.0003590581
-1.881925e-05
0.0002580946
7.038369e-05
-0.002271636
-0.02123065
-4.295365e-05
-0.003060075
-0.02116568
-2.852682e-05
-0.003868876
-0.02115249
-1.797691e-05
-0.004702305
-0.02122884
-6.710734e-06
-0.005566264
-0.02137525
-5.859538e-07
-0.006465683
-0.02157474
5.343562e-06
-0.007403633
-0.02181158
6.882714e-06
-0.02207237
4.288379e-06
-0.00838275
0.0001994923
0.004032482
-0.0002168169
-0.003882388
-0.0001741548
0.0001296301
-0.0001101708
2.192661e-05
-0.001534556
-0.02012584
-2.510496e-05
0.0003627969
-8.945499e-06
0.0002630883
7.822691e-05
-0.002361365
-0.02039907
-4.553124e-05
-0.003179758
-0.02032725
-2.946608e-05
-0.00401792
-0.02030245
-1.891974e-05
-0.004879939
-0.02036029
-7.040305e-06
-0.005771432
-0.02048256
-7.441695e-07
-0.006696501
-0.0206524
5.412018e-06
-0.007657622
-0.02085459
7.052853e-06
-0.02107615
4.417049e-06
-0.008656249
0.0001938151
0.003885965
-0.0002169371
-0.003736658
-0.0001712196
0.0001266313
-0.0001052988
2.370252e-05
-0.001585685
-0.01928475
-2.44335e-05
0.0003655692
2.135979e-07
0.0002669654
8.506999e-05
-0.002438392
-0.01954176
-4.705797e-05
-0.0032824
-0.01946336
-2.917368e-05
-0.004145694
-0.01942771
-1.841508e-05
-0.005032138
-0.01946802
-5.967911e-06
-0.005946798
-0.01956753
4.615746e-07
-0.006893142
-0.01970963
6.637874e-06
-0.00787247
-0.01988025
8.244186e-06
-0.0200659
5.422289e-06
-0.008885879
0.0001878057
0.003736342
-0.0002188166
-0.003583047
-0.0001708483
0.0001232874
-0.0001002976
2.557493e-05
-0.001626654
-0.01842368
-2.484469e-05
0.0003651487
8.787582e-06
0.0002705565
9.453691e-05
-0.002503112
-0.01866143
-4.836011e-05
-0.003368711
-0.0185781
-2.886075e-05
-0.004253096
-0.01853226
-1.801913e-05
-0.005160305
-0.01855581
-4.806203e-06
-0.006094262
-0.01863417
1.785127e-06
-0.007058099
-0.01875055
8.265815e-06
-0.008052215
-0.01889242
1.003159e-05
-0.01904621
7.245407e-06
-0.009076397
-1.780053e-05
-3.248721e-05
-4.121582e-05
0.0001033308
0.00378867
-0.003800497
-0.001664314
-2.325922e-05
-0.01754515
9.979877e-05
0.0003673636
0.0002720241
-0.002555735
-4.801515e-05
-0.0177664
-0.003439107
-2.552773e-05
-0.01767721
-0.004341403
-1.380216e-05
-0.01762177
-0.005266254
2.888643e-07
-0.01762939
-0.006216931
6.90335e-06
-0.01768754
-0.00719541
1.298702e-05
-0.01778002
-0.008201219
1.449171e-05
-0.01789593
1.127108e-05
-0.01802142
-0.009233262
4.92129e-10
-1.144187e-09
-3.327997e-09
1.2341e-09
1.294289e-09
7.45303e-10
4.741985e-10
4.484825e-10
-4.099649e-08
1.56777e-08
7.438365e-09
4.944815e-09
6.643447e-09
5.390306e-09
6.840422e-09
-6.567912e-08
2.289349e-08
9.525593e-09
-1.045215e-07
3.628061e-08
1.190263e-08
-1.641884e-07
5.608875e-08
1.565186e-08
-2.565095e-07
8.830572e-08
2.020612e-08
-4.002267e-07
1.383819e-07
2.634748e-08
2.177529e-07
3.48037e-08
-6.259494e-07
-5.195437e-10
-1.139745e-09
-8.791637e-10
3.206109e-09
1.322803e-09
-5.077197e-10
-5.120017e-10
-7.494659e-10
-2.119818e-08
2.286375e-08
7.415712e-09
-2.847985e-09
-3.932606e-09
-2.727597e-09
-3.607591e-09
2.153691e-09
2.579477e-09
2.396455e-09
2.568384e-09
-3.885963e-08
3.135996e-08
8.825613e-09
-6.459669e-08
4.587619e-08
1.116089e-08
-1.022422e-07
7.03678e-08
1.426186e-08
-1.60302e-07
1.093492e-07
1.844569e-08
-2.494877e-07
1.714499e-07
2.430933e-08
-3.88428e-07
2.69065e-07
3.138698e-08
4.23013e-07
4.208888e-08
-6.057616e-07
-4.552095e-09
2.182524e-08
6.036156e-09
-4.130725e-09
-5.002364e-09
-3.614883e-09
-5.089728e-09
-1.183335e-08
2.835268e-08
7.230599e-09
-2.095717e-08
3.826375e-08
9.295776e-09
-3.459463e-08
5.675163e-08
1.163783e-08
-5.443528e-08
8.650942e-08
1.536898e-08
-8.463937e-08
1.348218e-07
1.978076e-08
-1.309525e-07
2.115872e-07
2.648373e-08
-2.026893e-07
3.326862e-07
3.426112e-08
5.236939e-07
4.624283e-08
-3.146984e-07
6.516108e-10
2.003516e-08
6.417404e-09
1.566269e-09
2.5402e-08
8.144259e-09
3.891638e-09
3.311411e-08
9.20956e-09
8.011172e-09
4.818738e-08
1.201027e-08
1.489307e-08
7.405674e-08
1.487927e-08
2.595584e-08
1.158651e-07
1.895937e-08
4.38754e-08
1.827274e-07
2.399181e-08
7.284189e-08
2.876873e-07
2.985015e-08
4.535255e-07
3.823107e-08
1.197175e-07
4.48241e-09
3.149954e-09
5.714352e-09
3.903845e-09
3.924195e-09
3.938704e-09
1.523398e-08
1.307339e-08
7.105925e-09
2.913582e-08
1.583277e-08
1.033919e-08
4.858671e-08
2.428665e-08
1.298108e-08
7.888723e-08
3.802388e-08
1.722005e-08
1.261757e-07
6.045185e-08
2.25488e-08
2.013112e-07
9.597506e-08
3.003024e-08
3.195398e-07
1.524603e-07
3.950605e-08
2.417438e-07
5.324795e-08
5.076337e-07
-1.442411e-09
1.185499e-09
1.434086e-09
5.316739e-10
4.098052e-10
6.898836e-10
4.549037e-10
1.951722e-08
1.364381e-11
1.185623e-08
-2.726837e-09
-2.256675e-09
-2.447396e-09
-1.923564e-09
-1.316866e-09
5.313019e-10
-1.201945e-09
3.368897e-08
7.849354e-09
5.517922e-08
1.126875e-08
8.868391e-08
1.409758e-08
1.418525e-07
1.837163e-08
2.260812e-07
2.368294e-08
3.591664e-07
2.953066e-08
3.862897e-08
5.702639e-07
-1.778888e-09
-1.51655e-09
1.978945e-09
1.403895e-09
0.000818198
0.0001130697
-0.0007671245
-0.006363482
-5.949823e-05
0.0008182013
-3.955706e-05
-3.406509e-05
-0.0005259241
-0.02637221
-0.0005199411
0.000937231
0.001479817
-0.0002505041
-0.0002227315
0.000921227
-0.0002933055
0.001443764
-0.0002875202
-0.0001315433
-0.02660604
-0.0006287961
0.001525338
0.001563881
-0.0002744565
-0.0002617895
-0.0002187527
-0.02700925
-0.0007977635
0.001627408
0.001619631
-0.0002296069
-0.000226253
-0.0002563727
-0.02739615
-0.0007870527
0.001631536
0.001620526
-0.0002370372
-0.0002379687
-0.0003199285
-0.02787042
-0.0008050263
0.001661863
0.00164695
-0.0002355431
-0.0002389431
-0.0003763383
-0.02843393
-0.0008133801
0.001690114
0.001671484
-0.000240749
-0.0002453252
-0.02909603
-0.0008269081
0.001726076
0.001703597
-0.0002452958
-0.0002507649
-0.0004418293
-0.001005309
-0.02288744
-0.0003320544
0.005414954
0.006498713
0.005657634
0.00647268
0.0005070021
0.0004691709
-0.0007647153