/*--------------------------------*- C++ -*----------------------------------*\
  =========                 |
  \\      /  F ield         | OpenFOAM: The Open Source CFD Toolbox
   \\    /   O peration     | Website:  https://openfoam.org
    \\  /    A nd           | Version:  7
     \\/     M anipulation  |
\*---------------------------------------------------------------------------*/
FoamFile
{
    version     2.0;
    format      ascii;
    class       surfaceScalarField;
    location    "0.09";
    object      phi;
}
// * * * * * * * * * * * * * * * * * * * * * * * * * * * * * * * * * * * * * //

dimensions      [0 3 -1 0 0 0 0];

internalField   nonuniform List<scalar> 
161064
(
8.003868e-05
0.0005557671
-0.002354903
-2.593923e-05
-0.0001056229
-6.793922e-05
6.719673e-05
2.682318e-06
0.0005260242
0.000671642
0.0006510529
0.0001260406
0.002347673
-0.002235164
-0.0001340976
-0.0001264345
-7.263502e-05
7.18009e-05
2.281721e-05
0.0001229918
0.002247183
-0.002219385
-0.0001027176
-8.627222e-05
-6.349201e-05
7.507868e-05
2.661331e-05
0.0001154718
0.002227793
-0.002161595
-0.0001551199
-6.74261e-05
-6.982858e-05
6.604732e-05
4.465686e-05
0.0001446484
0.00215565
-0.002102867
-0.0001870629
-7.556399e-05
-4.954691e-05
7.338442e-05
4.135843e-05
0.0001454537
0.002097676
-0.002025757
-0.0002284436
-8.756302e-05
-3.914899e-05
8.35957e-05
5.41879e-05
0.0001414792
0.001987767
-0.001905971
-0.0002482801
-8.396382e-05
-3.17763e-05
8.361896e-05
5.71265e-05
0.0001393367
0.001858956
-0.00177206
-0.0002771274
-8.624871e-05
-1.885295e-05
8.658238e-05
6.941387e-05
0.0001178905
0.001707353
-0.001587184
-0.0002988566
-5.813155e-05
-1.860452e-05
8.677001e-05
5.076323e-05
0.000120405
-0.001369342
-0.0003100369
-6.337526e-05
-2.046308e-06
7.524418e-05
6.021896e-05
0.001488932
0.000101408
0.001266341
-0.001099496
-0.0003351706
-6.423499e-05
-8.995701e-07
7.082021e-05
6.123231e-05
9.040275e-05
0.0009781992
-0.0008063943
-0.0003600516
-6.500434e-05
2.369733e-05
7.416275e-05
6.498851e-05
7.222044e-05
0.0006632394
-0.0004846653
-0.0003389439
-4.336436e-05
1.762282e-05
5.600029e-05
5.789072e-05
5.627986e-05
0.0003454414
-0.0003650715
9.243477e-06
3.282866e-05
5.740439e-05
4.839458e-05
-3.153413e-05
-4.378214e-05
-5.114511e-05
-5.805947e-05
0.0005381585
-0.0001013979
-0.00209511
4.797753e-05
-0.0001545489
0.0005452047
0.0006139261
0.0006057902
-0.008723914
-0.0005443671
1.603773e-05
0.0002474766
-0.0003351714
0.0002224367
4.483474e-05
0.001961063
0.002013892
0.002568899
0.002528813
-0.008351726
-0.0003272706
-6.541147e-05
0.0003077254
-0.0003223336
5.145332e-05
-1.635085e-05
-0.008126551
-0.0007128248
9.185504e-05
0.0004115615
-0.0002305086
0.0001413944
7.334736e-05
-0.007774268
-0.0007691972
-3.48503e-05
0.0004100534
-0.0002175928
0.0001484237
0.0001108807
-0.007406234
-0.001021006
-3.860225e-05
0.0004612318
-0.0001603834
0.0002080274
0.0001826987
-0.006921098
-0.001247554
-8.085462e-05
0.0004786464
-0.0001093619
0.0002498324
0.0002241561
-0.006339957
-0.001545418
-0.0001055656
0.0005118956
-3.971516e-05
0.0003064343
0.0002912284
-0.005624088
-0.001854786
-0.0001305439
0.0005224137
4.005706e-05
0.0003699265
0.0003370645
-0.004776631
-0.00219601
-0.0001534926
0.0005489708
0.0001217847
0.0004286529
0.000402637
-0.003774531
-0.0025406
-0.0001854875
0.000567319
0.0002136877
0.0004859042
0.0004570778
-0.002660235
-0.002904895
-0.0001481712
0.0005855382
0.0003126426
0.0005274012
0.0005131882
-0.000262257
-0.003180706
-8.247197e-05
-0.000485162
-0.0003496083
-0.0004131581
0.0005673185
0.0004170424
0.0005730054
0.000555762
-0.000680366
-3.571656e-05
0.0005869457
-5.026137e-05
1.088598e-06
-2.327897e-05
-6.066843e-05
0.0005526578
2.81162e-05
-0.002137774
-3.185849e-05
-0.0001841331
0.0005501562
0.0006124041
0.0006104315
-0.008910288
-0.0005159462
-0.000620232
0.002135667
0.002138263
0.002621266
0.002606904
-0.008434362
-0.0005543625
-0.0002488339
-0.008286268
-0.0008322076
-2.871087e-05
-0.007958531
-0.001037957
-5.897834e-05
-0.007613677
-0.001326388
-3.947078e-05
-0.007161841
-0.001647875
-5.151521e-05
-0.006606038
-0.002040186
-6.103465e-05
-0.005911654
-0.002475078
-7.409233e-05
-0.005071279
-0.002962544
-7.383974e-05
-0.004056859
-0.003484548
-7.047096e-05
-0.002979935
-0.004002591
2.077271e-05
-0.0002285261
-0.004492843
0.0001055193
-0.0006287116
-0.0004150512
-0.0005010276
0.0009607878
-0.001070525
1.218052e-05
-3.974407e-05
1.611322e-05
-2.285553e-05
-8.448265e-05
0.0005637167
2.809992e-05
-0.002185127
-4.260874e-05
-0.0001805542
0.0005625932
0.0006299394
0.0006239412
-0.00920911
-0.0005294916
-0.0005212616
0.002194002
0.00218923
0.002686941
0.002673745
-0.00874689
-0.000730234
-0.0002863484
-0.008585254
-0.001020498
2.665447e-05
-0.008292376
-0.001285826
-4.500803e-05
-0.007949709
-0.001653999
-1.505646e-05
-0.007534525
-0.00204205
-2.10086e-05
-0.007018427
-0.002543097
-1.318678e-05
-0.00636136
-0.00311103
-2.11139e-05
-0.005541526
-0.00377252
-9.858991e-06
-0.004511197
-0.004502803
-1.207435e-05
-0.003313123
-0.005285188
8.452289e-05
-0.000192155
-0.006020803
0.0001204741
-0.0007373147
-0.0004574243
-0.0005187428
0.001438688
-0.001495263
-2.252085e-05
4.064103e-05
-1.824782e-05
-4.185541e-05
-9.359655e-05
0.0005761627
5.165177e-05
-0.00223717
-6.45013e-05
-0.000173111
0.0005712473
0.0006414202
0.0006343007
-0.009301212
-0.0005779742
-0.0006305475
0.00224841
0.002245756
0.002741729
0.002744347
-0.008879158
-0.0007956669
-0.000356621
-0.008769262
-0.00112113
-9.265341e-06
-0.00854962
-0.0014464
-5.906751e-05
-0.00833596
-0.001865176
-2.482112e-06
-0.007974783
-0.002368611
-3.461545e-05
-0.007540113
-0.002960761
-1.70062e-05
-0.006959477
-0.003670794
-2.087218e-05
-0.006201256
-0.004532667
1.926115e-06
-0.005180226
-0.005524072
2.390212e-07
-0.003943231
-0.006665244
0.0001430623
-0.0002159061
-0.007809044
0.000146463
-0.0009116867
-0.0005435271
-0.0006303324
-0.001971201
-9.585054e-06
0.001933492
-4.748575e-05
3.826247e-05
-2.039043e-05
-0.000138998
0.0005445665
8.090191e-05
-0.002293495
-6.641337e-05
-0.0001173071
0.0005357575
0.0006564466
0.0006595431
-0.009684409
-0.000568461
-0.0006362243
0.00232055
0.002315084
0.002836039
0.002839446
-0.009257053
-0.000876409
-0.0003466137
-0.009177784
-0.001208132
7.732717e-06
-0.008995055
-0.001564998
-6.413021e-05
-0.008798074
-0.002031954
-3.020421e-05
-0.008551729
-0.002591541
-2.341471e-05
-0.008227684
-0.003278395
-6.410964e-06
-0.007767505
-0.004122619
-8.354045e-06
-0.00711651
-0.005194226
1.056562e-05
-0.006144143
-0.006506438
9.999504e-06
-0.004841452
-0.008129495
0.0001615605
-0.0002822201
-0.009918102
0.0001194437
-0.001148767
-0.0006869682
-0.0007338816
0.002487053
-0.002523547
-5.169527e-05
-6.734426e-05
6.115509e-05
-3.247373e-05
-0.0001553672
0.0005440378
6.027334e-05
-0.002347325
-4.895558e-05
-0.0001005619
0.0005442314
0.0006752404
0.0006730598
-0.009895173
-0.0005832069
-0.0006450763
0.002371814
0.002371061
0.002903283
0.002908838
-0.009534867
-0.0008543636
-0.0003823513
-0.009534769
-0.001196623
-1.160744e-05
-0.00943095
-0.00159333
-7.548782e-05
-0.009354256
-0.002094569
-1.407812e-05
-0.009244336
-0.00267557
-2.589137e-05
-0.00909968
-0.003416448
-6.6027e-06
-0.008855154
-0.00435368
-1.346526e-05
-0.008446347
-0.005618522
1.548886e-05
-0.007702714
-0.007257771
7.701137e-06
-0.006425988
-0.009665398
0.0002591772
-0.0003518242
-0.01289115
0.0001663751
-0.00145014
-0.0007800333
-0.001037318
0.003170015
-0.003156163
-8.965465e-05
-8.866245e-05
5.607161e-05
-3.646916e-05
-0.0002069617
0.0006186177
-0.002441714
-6.066951e-05
-0.0001642246
0.0006232559
0.0006930804
0.0006904676
4.118671e-05
-0.0102948
-0.0005337246
-0.000704396
0.00247671
0.002460329
0.00300286
0.003009809
-0.009923699
-0.0008486423
-0.0003768175
-0.009955877
-0.001168624
4.179886e-06
-0.009925028
-0.001554059
-7.012065e-05
-0.009943336
-0.002046131
-3.012977e-05
-0.009980495
-0.002614421
-2.398972e-05
-0.01003357
-0.003357503
-5.871676e-06
-0.01005464
-0.004327603
-5.004977e-06
-0.01002807
-0.005656301
1.121317e-05
-0.009821361
-0.007508012
4.352911e-05
-0.009283829
-0.01045184
0.0002489146
-0.0009108455
-0.01530501
0.0005480571
-0.002507206
-0.001525261
-0.002474713
0.004043377
-0.004442981
-0.0001699413
-5.876629e-05
4.473866e-05
-0.0001024981
-0.0002247741
0.0005993483
7.323124e-05
-0.002500257
-4.428271e-05
-0.0001569658
0.0005964469
0.0007180778
0.0007144012
-0.01051928
-0.0005024977
-0.0007100813
0.002524418
0.002523096
0.003072707
0.003077909
-0.01020113
-0.0007557197
-0.0004110726
-0.01028779
-0.001069353
-1.26033e-05
-0.01035992
-0.001403928
-7.800725e-05
-0.01055934
-0.001843413
-3.293241e-06
-0.01079689
-0.002354207
-2.266022e-05
-0.01114752
-0.003004983
-1.892088e-06
-0.01162371
-0.003839059
-1.235785e-05
-0.01234665
-0.004945523
1.216549e-05
-0.01349939
-0.006367912
1.26442e-05
-0.01569391
-0.008633566
0.0003762358
-0.00239546
-0.01179874
0.0007990569
-0.00680708
-0.004053787
-0.00674291
0.006778319
-0.006428323
-0.000598416
-0.0003027125
-3.866874e-05
-0.000161617
-0.001644041
0.0006570226
4.737221e-05
-0.002571332
-5.012476e-05
-0.0001916568
0.0006515514
0.0007288412
0.0007283261
-0.01083575
-0.0004177774
-0.0007456877
0.00260312
0.002585363
0.003151704
0.003156528
-0.01053762
-0.0006537601
-0.0004000851
-0.01067621
-0.0009202298
-1.053524e-05
-0.01080677
-0.001197393
-7.597158e-05
-0.01107446
-0.001566698
-9.030084e-06
-0.01144179
-0.001967649
-1.922323e-05
-0.01197769
-0.002467905
-1.182511e-06
-0.01272419
-0.003092682
1.274197e-07
-0.01389068
-0.003792809
1.377321e-05
-0.01569666
-0.004632318
7.039095e-05
-0.01909421
-0.005536832
0.0003008113
-0.005457649
-0.006030946
0.0009061426
-0.006396388
-0.006855623
-0.007058486
0.004314709
-0.007581594
-0.002239614
4.885006e-05
0.0004600661
0.00975789
-0.009831175
0.0003124696
0.0002282784
-0.0006157171
0.0001187419
-0.0004305541
-0.0006531692
0.008873359
-0.007928115
0.002454217
0.000647577
-0.001213985
-0.001029006
-0.001150879
-0.0008517697
0.007367774
-0.006784551
0.003299013
0.0007788261
-0.00133033
-0.001193419
-0.001285544
-0.0009166906
0.006392984
-0.005974749
0.003640736
0.0007676615
-0.001303375
-0.001268633
-0.001337933
-0.0009229139
0.005693975
-0.005352711
0.003785315
0.0007578593
-0.001320839
-0.001289891
-0.001350794
-0.0009048054
0.005130517
0.003875283
0.0006689141
-0.001249387
-0.001303014
-0.001377278
-0.00484023
0.0006687206
-0.002619454
-5.250929e-05
-0.0001899702
0.0006636219
0.000743429
0.0007376262
4.853561e-05
-0.01102816
-0.0003306558
-0.0007677689
0.002648413
0.002637436
0.003210842
0.003212117
-0.01075699
-0.0005061547
-0.0004187796
-0.01093754
-0.0007234715
-1.620534e-05
-0.01112122
-0.000934087
-7.96272e-05
-0.01149498
-0.001194685
1.751532e-06
-0.01197086
-0.00147429
-1.748656e-05
-0.01264073
-0.001795979
-2.048847e-06
-0.01356356
-0.002162658
-7.198743e-06
-0.01485476
-0.002498167
-3.442051e-06
-0.01666866
-0.002824229
5.811052e-06
-0.019411
-0.002894921
0.0001004318
-0.02313179
-0.002565272
0.00025512
-0.02643523
-0.0006984543
3.706588e-05
0.001811853
-0.0001665914
0.001343869
0.0009756971
-0.02683791
0.004198675
-0.0002838014
0.0004805805
-0.002176926
-0.000412341
-0.001403514
-0.0251643
0.00798715
-0.0008329645
-0.0008568694
-0.00319094
-0.00201967
-0.002760315
-0.02316949
0.01059901
-0.0005698454
-0.001791216
-0.003684136
-0.003041114
-0.003507506
-0.02123391
0.01243709
-0.0005988604
-0.002305329
-0.003966957
-0.003593806
-0.003907726
-0.01944167
0.01356264
-0.0005654124
-0.002622585
-0.004125784
-0.003908257
-0.004132835
0.01414932
-0.0004394031
-0.002833715
-0.004081194
-0.01777951
-0.004193573
-0.004263589
0.0006261907
6.403899e-05
-0.00264633
-4.101881e-05
-0.0001271654
0.0006168697
0.0007520899
0.0007553252
-0.01122318
-0.0002213744
-0.0007695893
0.002679659
0.002669971
0.003272923
0.003260933
-0.01095773
-0.0003550168
-0.0004165872
-0.01115821
-0.0005054567
-1.753111e-05
-0.01137101
-0.0006371546
-8.413453e-05
-0.01176751
-0.0007995733
1.385473e-06
-0.01226303
-0.0009624357
-1.633155e-05
-0.01293263
-0.001128598
2.220945e-06
-0.01380943
-0.001287702
1.842752e-06
-0.01494479
-0.001374741
1.193243e-05
-0.01643484
-0.001353383
1.921075e-05
-0.01834712
-0.001060025
7.737814e-05
-0.0207021
-0.0003326306
0.0001223414
-0.02279079
0.001131935
0.0002582966
-0.02332351
0.004330601
0.0004007962
-0.02255726
0.006756439
0.0004644597
-0.02131414
0.008774723
0.0005811679
-0.01993038
0.01033811
0.000715219
-0.01853107
0.01139896
0.0007643713
0.01210046
0.0007529758
-0.01723519
0.0006129599
3.115549e-05
-0.002655787
-1.844225e-05
-9.538523e-05
0.0006104298
0.0007588759
0.0007561935
-0.01131679
-0.0001178245
-0.0007446967
0.002690291
0.002686748
0.003298483
0.003282416
-0.01106806
-0.0001803541
-0.0004233919
-0.01129242
-0.0002658426
-1.525537e-05
-0.01152045
-0.0003280615
-8.105837e-05
-0.01193322
-0.0003923853
5.57521e-06
-0.0124347
-0.0004454813
-1.547151e-05
-0.01309127
-0.0004729717
9.460111e-07
-0.01391351
-0.0004612878
-4.173499e-06
-0.01493256
-0.0003532641
-2.431293e-06
-0.01616719
-0.0001096208
-9.129568e-06
-0.01759048
0.0003828602
-1.95925e-05
-0.01914952
0.001266552
-4.0144e-05
-0.02048584
0.002553388
-8.513585e-05
-0.02081604
0.004741032
-8.023114e-05
-0.0204908
0.006622524
-0.0001913232
-0.01977036
0.008265843
-0.000211567
-0.01882159
0.009604904
-0.0002155648
-0.01778449
0.0105787
-0.0002168388
0.01128279
-0.0002269637
-0.01673986
0.0006147305
1.537513e-05
-0.002669709
-3.51378e-06
-9.081973e-05
0.0006130084
0.0007617153
0.0007592135
-0.0113771
-3.720249e-07
-0.0007644837
0.002703483
0.002702361
0.003312247
0.003306035
-0.01113363
-4.981924e-06
-0.0004188327
-0.01135134
-3.056099e-05
-1.757818e-05
-0.01157381
-2.43036e-05
-8.12834e-05
-0.01196994
-2.6823e-06
6.419859e-06
-0.01243723
3.653583e-05
-1.472468e-05
-0.0130302
0.0001181256
1.878418e-06
-0.01374335
0.0002543654
-2.504346e-06
-0.01458451
0.0004875551
3.399999e-07
-0.01554889
0.0008590806
-4.320299e-06
-0.01658672
0.001423374
-2.689015e-06
-0.01760587
0.002284042
1.660865e-06
-0.01850569
0.003417635
3.55789e-05
-0.01883856
0.004981369
9.252806e-05
-0.01873084
0.006427878
8.692967e-05
-0.0183277
0.007764432
9.827243e-05
-0.01773164
0.008879251
0.0001295936
-0.01702503
0.009744102
0.0001279855
0.0103787
0.0001207729
-0.01624172
0.0006184418
-4.938448e-06
-0.002693889
1.705842e-05
-8.911209e-05
0.0006197237
0.0007682115
0.0007645045
-0.01137811
0.0001061115
-0.0007828274
0.002713843
0.002717377
0.003300253
0.003322976
-0.01112106
0.0001591689
-0.0004211967
-0.01133467
0.0001986386
-1.558559e-05
-0.01154755
0.0002660562
-7.748158e-05
-0.01192062
0.000362927
7.456384e-06
-0.01235068
0.0004811212
-1.452441e-05
-0.01288362
0.0006508114
2.566875e-07
-0.01350341
0.0008794967
-5.345832e-06
-0.01421236
0.001200945
-4.431164e-06
-0.01499017
0.001645318
-8.430356e-06
-0.01580135
0.002249628
-1.507085e-05
-0.01657125
0.003069849
-1.59143e-05
-0.01718652
0.004055253
-2.234119e-05
-0.01745956
0.00526283
-8.423619e-06
-0.01746
0.006449233
-2.091713e-05
-0.01724042
0.007573276
-2.842531e-05
-0.01686462
0.00853345
-2.999388e-05
-0.01638612
0.009302712
-3.711257e-05
0.009861751
-4.900108e-05
-0.01582017
0.0006843743
-0.002720817
2.830034e-05
-0.0001668614
0.0006900767
0.0007688105
0.0007554608
-3.934377e-05
-0.01130541
0.0002033606
-0.0007954677
0.002714687
0.002716242
0.003279367
0.003293335
-0.01104994
0.0003222968
-0.0004186054
-0.01125193
0.0004149317
-1.429994e-05
-0.01144686
0.0005366589
-7.567137e-05
-0.01178712
0.0006957532
7.436224e-06
-0.01216896
0.0008767448
-1.378911e-05
-0.01263188
0.001113072
6.675227e-07
-0.01315452
0.001405964
-3.834029e-06
-0.01373446
0.001781892
-1.008336e-06
-0.01434809
0.002259988
-1.03441e-06
-0.01496136
0.002861908
9.905157e-07
-0.01551518
0.00361713
6.535596e-06
-0.01598188
0.004508463
1.34945e-05
-0.0162498
0.00550723
2.352216e-05
-0.01633537
0.006507862
2.69349e-05
-0.01626737
0.007475774
2.950227e-05
-0.01609055
0.008319422
3.721241e-05
-0.01583689
0.009010477
3.857505e-05
0.009494022
3.677049e-05
-0.01550594
0.0006823636
-2.393048e-05
-0.002688941
2.763711e-05
-0.0001853706
0.0006808301
0.0007563403
0.0007510715
-0.01119585
0.0003159257
-0.0008259603
0.002692947
0.002700013
0.003249131
0.003267155
-0.01093111
0.0004688913
-0.0004113344
-0.01110949
0.0006099743
-1.666125e-05
-0.01128714
0.0007830343
-6.872904e-05
-0.01159432
0.0009941989
8.7385e-06
-0.01193242
0.001226453
-1.161106e-05
-0.01233475
0.001513645
1.757619e-06
-0.01277815
0.001852165
-2.800682e-06
-0.01325991
0.002264531
-8.745246e-07
-0.01376007
0.002762442
-2.29274e-06
-0.01425377
0.003358792
-3.188531e-06
-0.01469766
0.00406445
-3.431455e-06
-0.01505065
0.004862995
-1.536896e-06
-0.0152905
0.005744759
2.319309e-06
-0.01541938
0.006633862
2.878144e-06
-0.01545411
0.007507092
3.406491e-06
-0.01542767
0.008289
3.986891e-06
-0.01537105
0.008953709
1.46561e-07
0.009404482
-7.74587e-06
-0.01527376
0.0006716289
-3.397166e-05
-0.00264786
3.05013e-05
-0.0001762621
0.0006710868
0.0007465332
0.0007383434
-0.01104254
0.0004027386
-0.0007930407
0.002651823
0.002662353
0.003208389
0.003226201
-0.01076458
0.0006005796
-0.0004096419
-0.01093233
0.0007917356
-1.401219e-05
-0.01108184
0.0009999527
-6.741566e-05
-0.01135218
0.00125576
8.778969e-06
-0.01164462
0.001528823
-9.920965e-06
-0.01198821
0.001854701
2.532718e-06
-0.01235936
0.00222538
-2.065003e-06
-0.01275479
0.002659765
1.922155e-07
-0.01315612
0.003163991
-2.178299e-07
-0.01354551
0.003747202
9.791025e-07
-0.01389833
0.00441495
2.316203e-06
-0.01419639
0.005156331
4.725038e-06
-0.01442023
0.005961999
6.600925e-06
-0.01458428
0.006788841
9.071735e-06
-0.01470998
0.0076215
1.129609e-05
-0.01483076
0.00839485
1.492909e-05
-0.01498125
0.009088372
1.582205e-05
0.009557046
1.828943e-05
-0.0151521
0.0006109546
-2.1571e-05
-0.002589196
3.150817e-05
-0.0001044625
0.0006043788
0.0007330503
0.0007353373
-0.01081737
0.000477619
-0.0007576348
0.002585496
0.002594737
0.003150697
0.003169194
-0.01052633
0.0007222509
-0.0004127089
-0.01068575
0.0009605127
-9.363591e-06
-0.01082468
0.001196158
-5.726629e-05
-0.01106703
0.001486712
1.139022e-05
-0.01132194
0.00179132
-7.579174e-06
-0.01161687
0.002146821
2.80757e-06
-0.01192928
0.00253973
-1.941553e-06
-0.01225647
0.002987165
-2.071513e-07
-0.01258306
0.003491608
-1.031403e-06
-0.01289563
0.004060394
-6.222936e-07
-0.0131772
0.004696865
-3.46744e-07
-0.01341743
0.005395977
5.925084e-07
-0.01361274
0.006156067
1.234108e-06
-0.01378072
0.006954347
2.473344e-06
-0.01395101
0.007788618
3.171419e-06
-0.01417224
0.008612046
4.037893e-06
-0.01450461
0.009418485
2.252753e-06
0.009965217
8.302046e-06
-0.01492108
0.0005772565
-5.140834e-05
-0.002517866
5.144698e-05
-7.086839e-05
0.0005781171
0.0007152967
0.0007180257
-0.01057498
0.0005645787
-0.0007565303
0.002521028
0.002536694
0.00308361
0.003103217
-0.01029218
0.0008347728
-0.0003953191
-0.01042587
0.001101402
-7.201851e-06
-0.01053963
0.001368556
-5.863259e-05
-0.01075228
0.001688402
1.095432e-05
-0.01097193
0.002017222
-6.255427e-06
-0.01122338
0.002395321
2.952226e-06
-0.01148515
0.002803004
-1.499611e-06
-0.01175485
0.003256731
1.338899e-07
-0.0120193
0.003756586
-5.321259e-07
-0.0122681
0.004309156
3.95781e-08
-0.01248992
0.004918324
3.643693e-07
-0.01268056
0.005585206
1.406648e-06
-0.01284301
0.006316514
2.007886e-06
-0.01300147
0.007108507
4.301964e-06
-0.01320046
0.007982248
5.360505e-06
-0.01351392
0.008913316
1.218363e-05
-0.01405716
0.009945771
1.595387e-05
0.01083714
6.233797e-05
-0.01499142
0.0005641491
-6.352105e-05
-0.002454489
6.117573e-05
-6.970746e-05
0.0005643186
0.0006978207
0.0007002538
-0.01029918
-0.0007266183
0.00245367
0.002472355
0.003005654
0.003024193
0.0006345014
-0.01000764
-0.0003779016
0.000921139
-0.01012099
-8.450056e-06
0.001223201
-0.01021912
-5.353753e-05
0.001520225
-0.01040586
1.212446e-05
0.001863019
-0.01059772
-3.106663e-06
0.002212189
-0.01081329
3.982509e-06
0.002606906
-0.01103371
-2.602941e-07
0.003023683
-0.01125649
1.109538e-06
0.003478403
-0.01146901
4.555848e-07
0.00396865
-0.01166134
1.013396e-06
0.004500473
-0.01182231
1.145962e-06
0.005078145
-0.01194782
1.983954e-06
0.005708736
-0.01203807
1.680518e-06
0.006405076
-0.01212041
2.786675e-06
0.007188064
-0.01222845
4.473753e-07
0.008089837
-0.01246731
3.636725e-06
0.009148546
-0.01300984
2.276805e-05
0.01046553
0.0001598294
-0.01441408
0.01208156
-0.01021117
-0.0004022877
-0.0001378841
0.0001184108
-5.037374e-05
0.0001499987
-0.000117138
0.0003044862
-4.521808e-06
0.0003614889
-1.86586e-05
0.002578752
0.002459991
0.002540847
0.002428061
-0.01128486
-0.001429444
0.0006655379
0.0002217676
6.890409e-05
0.0002035696
2.038837e-05
0.0004152414
0.0002496212
0.0004958168
0.0001622822
-0.01060942
-0.0008094305
6.260851e-05
8.536247e-05
-5.04044e-05
8.820955e-05
-7.212952e-05
0.0002569558
4.516819e-05
8.202298e-05
-0.0003637969
-0.01012583
-0.000581119
-0.0002202554
8.61829e-05
-2.732222e-05
8.344403e-05
-8.827168e-05
0.0001246338
1.847393e-05
0.0006339503
-0.0005133086
-0.009715003
-0.000460864
-2.0899e-05
4.444152e-05
-6.339812e-05
5.851994e-05
-8.960558e-05
6.903497e-05
-2.375702e-05
0.0005934846
-0.0005177827
-0.009221527
-0.0005839196
-9.428975e-05
5.847514e-05
-5.271133e-05
6.47782e-05
-7.045295e-05
8.358607e-05
-7.075527e-06
0.0005952852
-0.0004871507
-0.008595813
-0.0006981267
-0.0001016962
4.415227e-05
-6.410221e-05
5.474338e-05
-7.399586e-05
8.20929e-05
-5.474497e-06
0.0005876592
-0.0004509653
-0.007843067
-0.0008653916
-0.0001455195
4.469755e-05
-6.348506e-05
5.606593e-05
-6.299763e-05
9.239935e-05
1.156374e-05
0.0005829148
-0.000402993
-0.006932048
-0.00102931
-0.0001662089
1.66168e-05
-5.541179e-05
4.411419e-05
-6.906925e-05
0.0001002533
2.62177e-05
0.0005701703
-0.0003483898
-0.005865983
-0.001188904
-0.0002040966
1.979796e-05
-4.438004e-05
3.757181e-05
-6.435037e-05
9.878197e-05
2.87441e-05
0.0005427375
-0.0002919675
-0.004685374
-0.001333688
-0.0001742857
1.707489e-05
-3.663208e-05
1.821621e-05
-7.415059e-05
9.9594e-05
3.762359e-05
0.000495464
-0.0002298244
-0.003551355
-0.001425963
-0.0002173439
2.244668e-05
-4.546647e-05
-2.072961e-05
-8.711382e-05
6.475396e-05
-6.18879e-05
0.0004303401
0.0002069457
-0.0004177045
-0.001784394
-0.0003154783
1.478228e-05
-5.190966e-05
-3.318728e-05
-0.000110323
0.0001191966
5.089431e-05
0.0002715935
1.152594e-05
-0.0004593153
-0.0004080773
-0.0004389579
0.0001436433
-1.739907e-05
-0.0001664302
-0.0003795535
2.034867e-06
-0.009919744
-0.0008477192
-0.0002096498
6.728709e-05
-0.0001615797
7.074608e-05
-0.0001921295
0.002360954
0.002382936
0.002429656
0.003616954
-0.01072095
-0.0008139679
0.0002017677
-0.01071804
-0.0008204736
-5.728309e-05
-0.0103564
-0.0008867139
3.581457e-05
-0.009878463
-0.000954637
-1.901381e-05
-0.009342457
-0.001149405
-9.122345e-06
-0.008714457
-0.001383203
-2.377906e-05
-0.007967752
-0.001681551
-3.611081e-05
-0.007079264
-0.00199872
-4.962271e-05
-0.006017165
-0.002343881
-6.061299e-05
-0.004744786
-0.002700703
-9.085196e-05
-0.003164103
-0.003095308
-5.950843e-05
-0.001304005
-0.003582916
-0.0001440478
-0.003350371
-5.698066e-05
7.714355e-05
6.745761e-05
-6.386891e-06
-0.0001784555
0.0006298894
0.0004571372
0.0005957484
0.0004608131
-0.01029904
-0.0001628308
-0.002363571
0.0001067891
-0.0001308306
9.076229e-05
-0.0001471698
0.002511957
0.002571693
0.003024137
0.00395039
-0.01045887
-0.0007422139
-0.0005321558
-0.01035102
-0.000916987
-0.0002601714
-0.01007196
-0.001083079
-0.0001114045
-0.009695603
-0.001291112
-9.886515e-05
-0.009237873
-0.001565401
-8.120515e-05
-0.008687311
-0.001905334
-7.994492e-05
-0.008002134
-0.002329414
-9.83474e-05
-0.007157852
-0.002813102
-0.000103992
-0.006117625
-0.003350929
-0.0001070189
-0.004857156
-0.00395896
-7.268146e-05
-0.003312657
-0.004598644
-2.038937e-05
-0.001509971
-0.005292561
1.247758e-05
-0.004738958
6.507049e-05
1.778292e-05
0.0001262454
-5.655348e-05
-0.0002739296
-0.01033542
-0.0002489088
-0.002495787
8.638154e-05
-0.000171344
6.736753e-05
-0.0001580404
0.002568003
0.00257257
0.003922996
0.004029354
-0.01046889
-0.0006785548
-0.0004514556
-0.01033817
-0.0009429614
-0.0003910907
-0.01009245
-0.001245519
-5.662716e-05
-0.00980145
-0.001551581
-7.553843e-05
-0.009431881
-0.001927433
-2.259381e-05
-0.008945879
-0.002377071
-3.527313e-05
-0.008331756
-0.002931459
-2.526537e-05
-0.00755459
-0.003580051
-3.132981e-05
-0.006564418
-0.00433816
-1.280102e-05
-0.005316788
-0.005218842
1.772736e-07
-0.003714533
-0.006185256
6.887969e-05
-0.001731352
-0.007167055
1.178729e-05
-0.006429946
-1.457071e-05
6.794714e-05
0.0002479946
-1.942073e-05
-0.0003223132
-0.01067659
-0.0003147106
-0.002641395
7.176294e-05
-0.0001595828
6.30548e-05
-0.0001589415
0.002636283
0.002651887
0.004129942
0.004149381
-0.0106843
-0.0007115233
-0.0005898665
-0.01049515
-0.001028027
-0.0004607039
-0.01026928
-0.001363871
-0.0001167849
-0.01004724
-0.001742823
-8.986776e-05
-0.009748382
-0.002196798
-3.197481e-05
-0.009360802
-0.002748808
-5.045747e-05
-0.008853149
-0.003426771
-2.934747e-05
-0.00818103
-0.00424725
-2.579269e-05
-0.007272271
-0.005250786
5.794294e-06
-0.006062879
-0.006461697
3.370229e-05
-0.004384191
-0.00785247
0.0001315898
-0.002062655
-0.00938999
4.786436e-05
-0.008434542
4.269305e-05
5.550485e-05
0.0002938593
-3.740832e-05
-0.0004127078
-0.01092594
-0.0003201515
-0.002705855
3.326402e-05
-0.0001691108
2.169241e-05
-0.0001721913
0.002707544
0.002730165
0.004240468
0.004245407
-0.01095651
-0.0007009072
-0.0006162698
-0.01077707
-0.001048998
-0.0005050837
-0.010596
-0.001436785
-0.0001004254
-0.01043816
-0.001861395
-0.0001033934
-0.01025286
-0.00237849
-3.381861e-05
-0.009982779
-0.003008378
-3.392329e-05
-0.009610186
-0.003797604
-8.170969e-06
-0.009088273
-0.004775878
-1.638644e-06
-0.00832691
-0.006033918
3.233496e-05
-0.007231426
-0.007613351
6.617013e-05
-0.005437857
-0.009651197
0.0001667178
-0.002797246
-0.01194916
3.800264e-05
-0.01126011
1.513162e-06
0.0001085381
0.00038928
1.864887e-05
-0.0004896559
-0.011261
-0.0003034694
-0.002845582
3.407123e-05
-0.0001698834
3.516918e-05
-0.0001722916
0.002800452
0.002810242
0.004372191
0.004379947
-0.01128551
-0.0007025255
-0.0006189425
-0.01113703
-0.001050861
-0.0005289716
-0.01099992
-0.001447182
-0.0001383236
-0.01094619
-0.001883318
-0.0001072913
-0.01087441
-0.002433047
-3.130044e-05
-0.01076199
-0.003106382
-4.030851e-05
-0.01060063
-0.003960225
-5.33928e-06
-0.01034579
-0.005047091
2.910526e-06
-0.009876126
-0.006544134
5.603634e-05
-0.009084871
-0.008496309
9.940373e-05
-0.007312861
-0.0114481
0.0002840707
-0.003933943
-0.0152974
0.0001356947
-0.00411426
0.0001523178
0.0001147591
0.0004640779
-8.881783e-05
-0.0004044937
-0.003451375
-0.00431787
-0.00354839
-0.01155682
-0.0002944406
-0.002879187
6.123281e-05
-0.0001731631
7.033473e-05
-0.000182927
0.00286172
0.002870952
0.004455932
0.004462897
-0.01163347
-0.0006648971
-0.0006653704
-0.01151031
-0.001003237
-0.0005476024
-0.0114413
-0.001389341
-0.0001226757
-0.01145671
-0.001817864
-0.0001201686
-0.01151538
-0.002367284
-3.722179e-05
-0.01158132
-0.003030462
-3.396472e-05
-0.01165385
-0.003891609
-1.959758e-06
-0.01170183
-0.005018046
1.393575e-05
-0.0116985
-0.006592746
5.649172e-05
-0.01152429
-0.008764899
0.0001379099
-0.01079855
-0.01222899
0.0003040691
-0.001457667
-0.01757513
0.0005106232
-0.002629095
-0.001575859
-0.002820764
0.0001733524
-0.0003597729
-0.005268626
-0.0001168806
-0.01188232
-0.0002630576
-0.002992084
5.704777e-05
-0.0001637882
7.028853e-05
-0.0001811556
0.002932694
0.002949526
0.004587223
0.004591183
-0.01197392
-0.0006039375
-0.0006794351
-0.01191597
-0.0009113979
-0.0005608678
-0.01191356
-0.001257843
-0.0001465117
-0.01203212
-0.001653261
-0.0001240471
-0.01222855
-0.002141065
-3.30827e-05
-0.01251877
-0.002726808
-3.60921e-05
-0.01293655
-0.003477277
1.554218e-06
-0.01355474
-0.004429713
1.750014e-05
-0.01447732
-0.005738652
8.065183e-05
-0.01601311
-0.007399414
0.000182948
-0.01825141
-0.01007739
0.0004629264
-0.00430631
-0.01319828
0.0008594213
-0.006510785
-0.005513671
-0.006357847
0.0005438399
-0.006702098
-0.0004203341
0.007517532
-0.002139637
-0.0005308237
-0.001514237
-0.001060552
-0.01216076
-0.0002342868
-0.003037657
7.579909e-05
-0.0001676257
7.085106e-05
-0.0001811832
0.003000449
0.00300809
0.004676678
0.004686583
-0.01228475
-0.0005119833
-0.0007136435
-0.01224514
-0.0007742403
-0.0005768588
-0.01229739
-0.001074116
-0.0001420094
-0.01249128
-0.001405625
-0.0001297165
-0.01279912
-0.001809377
-3.288184e-05
-0.01323532
-0.002276966
-3.286272e-05
-0.01386605
-0.00284839
6.56795e-07
-0.01475325
-0.003565136
2.275168e-05
-0.01615955
-0.004379399
6.082328e-05
-0.01827049
-0.005391595
0.0001735154
-0.02185857
-0.006519285
0.0003307913
-0.006953378
-0.0071166
0.0007814399
-0.007109316
-0.006876996
-0.006875864
0.004173823
-8.165578e-05
-0.008403188
-0.002678384
3.602719e-05
0.0004494142
-0.0002887566
0.0101595
-0.01019236
-0.0004885022
0.0001754481
-0.0001700301
0.0005041749
-0.0001488812
-0.03274274
0.01194468
0.001711047
-0.0006969256
-0.0009813051
-0.0003707939
-0.0006831373
-0.003390952
-0.004255556
-0.003337563
-0.004159329
0.009428299
0.009193742
0.00931591
0.009024627
-0.02881683
0.0159312
0.001557665
-0.0008207937
-0.001061179
-0.0003796238
-0.0007243581
-0.004452143
-0.004848235
-0.004332684
-0.004795766
-0.02581645
0.01742016
0.00177606
-0.0008617719
-0.001101903
-0.0004095039
-0.0007406943
-0.00470096
-0.005009749
-0.004441746
-0.004930272
-0.02352377
0.01803107
0.001814586
-0.0008824859
-0.001101718
-0.0003687765
-0.0007158631
-0.004776413
-0.005033825
-0.004375415
-0.004883833
0.01851655
0.001435654
-0.0008446217
-0.0003181406
-0.00480654
-0.004440782
-0.02131744
-0.001060377
-0.000671431
-0.005074381
-0.004942265
-0.01240486
-0.0001993099
-0.003109165
7.079729e-05
-0.0001687263
6.409356e-05
-0.000186484
0.003062164
0.003081358
0.004771855
0.004783992
-0.01255127
-0.0004122711
-0.0007210725
-0.01254796
-0.0006120311
-0.0005843038
-0.01264348
-0.0008431408
-0.0001516531
-0.01290344
-0.001089917
-0.0001353769
-0.01329444
-0.001382505
-3.412008e-05
-0.0138491
-0.001705214
-3.457503e-05
-0.01462293
-0.002073741
-2.874613e-06
-0.01570873
-0.00249413
7.598607e-06
-0.01725696
-0.002872911
3.829996e-05
-0.01949123