/*--------------------------------*- C++ -*----------------------------------*\
  =========                 |
  \\      /  F ield         | OpenFOAM: The Open Source CFD Toolbox
   \\    /   O peration     | Website:  https://openfoam.org
    \\  /    A nd           | Version:  7
     \\/     M anipulation  |
\*---------------------------------------------------------------------------*/
FoamFile
{
    version     2.0;
    format      ascii;
    class       volScalarField;
    location    "0.08";
    object      epsilon;
}
// * * * * * * * * * * * * * * * * * * * * * * * * * * * * * * * * * * * * * //

dimensions      [0 2 -3 0 0 0 0];

internalField   nonuniform List<scalar> 
78470
(
0.004850288
0.004828883
0.004830771
0.00483576
0.004839683
0.004842211
0.004844996
0.004847864
0.00485109
0.0009472147
0.0009745283
0.0009827288
0.0009847173
0.000985471
0.0009857159
0.0009858028
0.0009857798
0.0009858019
0.0009666181
0.001011187
0.001025192
0.001028878
0.00103012
0.001030529
0.001030635
0.00103059
0.001030538
0.0009728973
0.001023293
0.001040513
0.001045259
0.001046939
0.001047428
0.001047536
0.001047432
0.001047322
0.0009743434
0.001026541
0.001044754
0.001050112
0.001052017
0.001052636
0.001052749
0.0010526
0.00105241
0.0009746976
0.001027526
0.001046164
0.001051746
0.001053812
0.001054453
0.001054576
0.001054379
0.001054112
0.0009747795
0.001027877
0.001046638
0.001052342
0.001054468
0.001055166
0.001055299
0.001055098
0.001054805
0.0009748564
0.001027994
0.001046816
0.001052533
0.001054705
0.001055407
0.00105556
0.001055369
0.001055071
0.0009748663
0.001028002
0.001046821
0.0010525
0.001054615
0.001055272
0.001055407
0.001055231
0.001054944
0.000974766
0.001027865
0.001046643
0.001052183
0.001054128
0.001054518
0.001054449
0.001054161
0.001053833
0.0009747058
0.001027688
0.00104627
0.001051439
0.001052666
0.001052002
0.001050913
0.001049984
0.001049292
0.0009746134
0.001027348
0.001045633
0.001049964
0.001048387
0.001043267
0.001038622
0.001034545
0.00103211
0.0009744942
0.001026825
0.001044637
0.001047665
0.001041573
0.001015242
0.00100474
0.0009844795
0.0009821459
0.0009743264
0.001026307
0.001043456
0.001044988
0.001034472
0.001004127
0.002192126
0.002124442
0.002124797
0.0009741223
0.001025705
0.00104228
0.001042461
0.001028001
0.0009805978
0.002082399
0.01033303
0.0009737797
0.001025212
0.001041238
0.001040612
0.001023822
0.0009754447
0.002050964
0.009191154
0.0009735677
0.001024871
0.001040713
0.001039348
0.001021764
0.0009725817
0.002035513
0.008658774
0.0009734973
0.001024659
0.00104061
0.001038899
0.001020913
0.0009705354
0.002029259
0.008420836
0.0009735398
0.001024942
0.001041056
0.00103962
0.001021914
0.0009720206
0.002037162
0.008814186
0.0009737467
0.001025444
0.001041986
0.001041166
0.001024449
0.0009762649
0.002052453
0.009228898
0.0009740548
0.001026232
0.001043235
0.001043278
0.001027672
0.0009799822
0.002072974
0.009748427
0.0009743836
0.001026995
0.001044632
0.001045787
0.001032687
0.0009867229
0.002096614
0.0105837
0.002186562
0.006389212
0.004498431
0.002081204
0.0009790771
0.0009971745
0.00100245
0.001003646
0.001004025
0.001004184
0.001004299
0.001004403
0.0110728
0.01079051
0.01077467
0.01078865
0.01079368
0.01079396
0.01079404
0.01079411
0.01079422
0.01079437
0.01109886
0.01074359
0.01076022
0.01078611
0.01079502
0.0107956
0.01079716
0.01079735
0.01079747
0.01079761
0.01114124
0.0107356
0.01076136
0.01077938
0.01079448
0.01079505
0.01079689
0.01079714
0.01079747
0.01079756
0.01115988
0.01072462
0.01075934
0.01077454
0.01079447
0.01079444
0.01079715
0.01079717
0.01079746
0.01079748
0.011162
0.01071757
0.01076103
0.01077387
0.01079427
0.01079448
0.0107972
0.01079724
0.01079749
0.01079738
0.0111677
0.01071522
0.01076199
0.01077266
0.01079417
0.01079484
0.01079745
0.01079745
0.01079758
0.01079753
0.01117318
0.0107106
0.01076156
0.01077262
0.01079402
0.01079522
0.01079775
0.01079784
0.01079803
0.010798
0.01117673
0.01071052
0.01076427
0.01077285
0.0107939
0.01079537
0.01079822
0.01079836
0.01079879
0.01079894
0.01117585
0.01071397
0.01076462
0.01077342
0.01079418
0.01079603
0.01079908
0.01080007
0.01080067
0.01080077
0.01117465
0.01071629
0.0107655
0.01077306
0.01079469
0.01079734
0.0108007
0.01080211
0.01080425
0.01080326
0.01117061
0.01071934
0.01076423
0.01077395
0.01079581
0.01080032
0.01080404
0.01081031
0.01081228
0.01080951
0.0111665
0.01071893
0.01076597
0.01077531
0.01079839
0.01080393
0.0108131
0.01083157
0.01084453
0.01079901
0.01115252
0.01071825
0.01076793
0.01077624
0.01080152
0.0108108
0.01084096
0.01086858
0.01144911
0.01077315
0.01116929
0.01071907
0.01076741
0.01077985
0.0108045
0.01081526
0.01084992
0.01107473
0.01685037
0.01111857
0.01073127
0.01077018
0.01078153
0.01080478
0.01081448
0.01083798
0.01090097
0.0032767
0.01107208
0.01073702
0.01077169
0.0107866
0.01080594
0.01081346
0.01083005
0.0108622
0.002915068
0.0110486
0.01073353
0.01077348
0.01079157
0.01080759
0.01081492
0.01082956
0.01085125
0.003202084
0.01104632
0.01073072
0.01077666
0.01079601
0.01080915
0.01081743
0.01083623
0.0108554
0.003285498
0.01105604
0.01072251
0.01077586
0.01079811
0.01081084
0.01082202
0.01084789
0.01087247
0.003146617
0.01106698
0.0107232
0.01077589
0.01079671
0.01081265
0.0108291
0.01087098
0.01095675
0.003411012
0.01107436
0.01072588
0.01077544
0.01079598
0.01081339
0.01083393
0.01089431
0.01106335
0.004356188
0.01107861
0.01102722
0.02033983
0.01144022
0.002099992
0.0009967876
0.001027653
0.001036583
0.001038869
0.001039495
0.001039736
0.001039858
0.001039985
0.01104922
0.01081446
0.01079156
0.01077293
0.01079576
0.01079699
0.01079714
0.01079723
0.01079735
0.01079751
0.01091181
0.01081795
0.01080289
0.01080062
0.0108002
0.01080022
0.01080026
0.01080034
0.01080044
0.01080058
0.01091688
0.01081235
0.01080188
0.01080068
0.01080024
0.01080033
0.01080033
0.0108004
0.01080046
0.01080055
0.01090948
0.01080706
0.01080165
0.01080061
0.01080028
0.01080046
0.01080045
0.01080046
0.01080046
0.01080047
0.01090793
0.01080677
0.01080183
0.01080062
0.01080049
0.01080062
0.01080059
0.01080059
0.01080052
0.01080045
0.01090724
0.01080691
0.01080237
0.01080075
0.01080076
0.01080077
0.01080077
0.01080079
0.01080071
0.01080059
0.01091006
0.01080842
0.01080197
0.01080096
0.01080093
0.01080094
0.01080108
0.01080119
0.01080114
0.01080103
0.01090824
0.01080964
0.01080265
0.01080092
0.01080111
0.01080126
0.01080151
0.0108019
0.01080202
0.01080201
0.01091054
0.01080936
0.01080304
0.01080103
0.01080136
0.01080179
0.01080224
0.01080334
0.01080381
0.01080379
0.01090801
0.01080728
0.01080306
0.01080119
0.01080168
0.01080276
0.01080386
0.01080629
0.01080734
0.01080672
0.01090951
0.01081076
0.01080304
0.01080154
0.01080217
0.01080401
0.01080744
0.01081337
0.01081579
0.01081244
0.01091028
0.01080811
0.01080314
0.01080191
0.01080314
0.01080747
0.01081619
0.01083395
0.01084986
0.01081627
0.01090741
0.01080894
0.01080424
0.01080216
0.01080514
0.01081407
0.01084195
0.01086478
0.01143219
0.01076325
0.01090841
0.0108131
0.01080464
0.01080229
0.01080843
0.01081866
0.01085076
0.01108344
0.01679967
0.01091523
0.0108109
0.01080145
0.01080188
0.01080923
0.01081841
0.01084069
0.01089205
0.002874545
0.01091156
0.0108159
0.01080172
0.01080287
0.01081027
0.01081506
0.01083513
0.01085559
0.002479799
0.01091178
0.0108115
0.01080198
0.01080313
0.01081141
0.01081637
0.01083067
0.0007262765
0.01090737
0.01080881
0.01080569
0.01080619
0.0108129
0.01082036
0.01082956
0.0007289972
0.01090862
0.01080702
0.01080395
0.01080647
0.01081503
0.01082656
0.01084555
0.01024165
0.004186971
0.01091071
0.01080813
0.01080626
0.01080686
0.01081739
0.01083019
0.01087621
0.01087931
0.003064301
0.01091592
0.01080908
0.01080609
0.01080813
0.01081719
0.01083655
0.01089639
0.01107082
0.004335163
0.01101725
0.02029499
0.01155313
0.002103322
0.001003252
0.001038035
0.001049172
0.001052045
0.00105283
0.001053115
0.001053237
0.001053351
0.01108471
0.01081923
0.01078585
0.0107703
0.01079561
0.01079698
0.01079716
0.01079725
0.01079737
0.01079753
0.01092689
0.01081219
0.01080317
0.01080071
0.01080017
0.01080021
0.01080026
0.01080034
0.01080044
0.01080058
0.01091283
0.01081436
0.01080185
0.01080027
0.01080024
0.01080025
0.01080033
0.0108004
0.01080046
0.01080055
0.01092671
0.01081109
0.01080116
0.01080035
0.0108003
0.01080039
0.01080041
0.01080046
0.01080046
0.01080048
0.01092945
0.01081565
0.01080119
0.01080062
0.01080043
0.01080048
0.01080054
0.01080057
0.01080052
0.01080045
0.01091661
0.01081858
0.01080119
0.01080165
0.01080056
0.01080065
0.01080068
0.01080075
0.01080069
0.01080058
0.0109313
0.01081349
0.01080098
0.01080212
0.01080064
0.0108011
0.01080101
0.01080117
0.01080112
0.01080101
0.0109274
0.01081226
0.01080097
0.01080216
0.0108008
0.01080147
0.01080158
0.0108019
0.01080203
0.01080202
0.0109323
0.01081249
0.01080127
0.01080227
0.01080105
0.010802
0.0108025
0.01080341
0.01080382
0.01080381
0.01092021
0.01081682
0.01080134
0.01080251
0.01080136
0.01080284
0.01080418
0.01080625
0.01080729
0.01080686
0.01092402
0.01081329
0.01080183
0.01080236
0.01080184
0.01080399
0.01080723
0.01081335
0.01081593
0.01081253
0.01091294
0.01081415
0.01080169
0.010802
0.01080287
0.0108075
0.01081595
0.01083431
0.01084978
0.01081664
0.01093318
0.01081463
0.01080115
0.0108024
0.01080483
0.01081382
0.01084164
0.01086301
0.01143206
0.01074987
0.01093342
0.01081314
0.01080203
0.01080192
0.01080742
0.01081851
0.01085031
0.01108021
0.01677051
0.01091477
0.01081278
0.01080076
0.01080148
0.01080925
0.01081972
0.01084229
0.01089146
0.002847729
0.0109268
0.01081227
0.0108029
0.01080265
0.01081151
0.01081601
0.01083687
0.01085724
0.002499902
0.01091963
0.01081193
0.01080239
0.01080274
0.01081202
0.01081641
0.01083192
0.0007818341
0.01091701
0.01080904
0.01080402
0.01080575
0.01081268
0.01082054
0.0108294
0.0007854229
0.01091352
0.01080922
0.01080406
0.01080649
0.01081469
0.01082677
0.01084566
0.01022878
0.004249107
0.01091584
0.01080969
0.01080585
0.01080707
0.01081754
0.01083026
0.01087889
0.01087429
0.003074579
0.0109222
0.01081136
0.01080536
0.01080814
0.0108171
0.01083656
0.01089713
0.0110737
0.00433754
0.01101708
0.0203261
0.01154172
0.002105056
0.001004643
0.001040257
0.001051875
0.001054939
0.001055789
0.001056098
0.001056218
0.001056328
0.01111099
0.01081799
0.01078768
0.01076668
0.0107954
0.01079695
0.01079714
0.01079724
0.01079736
0.01079753
0.01091147
0.01080828
0.010803
0.01080029
0.01080004
0.01080017
0.01080024
0.01080033
0.01080044
0.01080058
0.01094039
0.01081313
0.01080132
0.0108003
0.0108002
0.01080022
0.01080032
0.01080039
0.01080045
0.01080054
0.01091241
0.01081045
0.01080059
0.01080079
0.01080029
0.01080039
0.01080039
0.01080045
0.01080046
0.01080047
0.01092989
0.01081388
0.01080137
0.01080123
0.01080046
0.01080058
0.01080054
0.01080057
0.01080051
0.01080044
0.01093115
0.01081083
0.01080174
0.01080133
0.01080062
0.01080085
0.01080076
0.0108008
0.01080071
0.01080059
0.01091632
0.01081076
0.0108022
0.01080088
0.01080097
0.01080091
0.01080106
0.0108012
0.01080115
0.01080103
0.01093134
0.01080958
0.0108023
0.010801
0.01080111
0.0108012
0.01080145
0.01080187
0.01080202
0.01080203
0.01091553
0.01081264
0.01080253
0.01080113
0.0108013
0.01080159
0.0108021
0.01080329
0.01080378
0.01080379
0.01092846
0.01081425
0.01080255
0.01080162
0.01080166
0.01080268
0.0108039
0.0108061
0.01080721
0.0108068
0.01092723
0.01081099
0.01080254
0.01080188
0.01080208
0.01080406
0.01080687
0.01081321
0.01081573
0.01081218
0.01092416
0.01081101
0.01080318
0.01080178
0.01080303
0.01080741
0.01081592
0.01083436
0.01084963
0.01081654
0.01094565
0.01081125
0.01080331
0.01080207
0.01080547
0.01081396
0.01084191
0.01086327
0.0114321
0.0107497
0.01092247
0.01081558
0.01080347
0.01080228
0.01080877
0.01081896
0.01085092
0.01108076
0.01676414
0.010941
0.01080857
0.01080081
0.01080144
0.010809
0.0108182
0.01084112
0.01089209
0.00284866
0.01091649
0.01080935
0.01080275
0.01080181
0.01081034
0.01081521
0.01083615
0.01085732
0.002510926
0.01091792
0.01080754
0.01080211
0.01080156
0.01081188
0.01081682
0.0108317
0.0007981465
0.01091323
0.01080855
0.01080347
0.01080507
0.0108122
0.01082014
0.01082889
0.0008019071
0.0109149
0.01080917
0.01080578
0.0108071
0.01081494
0.01082681
0.01084549
0.01022885
0.004312831
0.0109143
0.01080788
0.010807
0.01080756
0.01081845
0.01083061
0.01087894
0.01087565
0.003082321
0.01092229
0.0108092
0.01080534
0.01080762
0.01081729
0.01083654
0.01089709
0.01107489
0.004339367
0.01101657
0.0203448
0.01153148
0.002105152
0.001003736
0.001038697
0.00104994
0.001052886
0.001053694
0.001053995
0.001054107
0.001054214
0.01114479
0.01081749
0.01078694
0.01076678
0.01079533
0.01079693
0.01079714
0.01079724
0.01079736
0.01079753
0.01090688
0.01080721
0.01080322
0.01080005
0.01080017
0.01080017
0.01080023
0.01080033
0.01080044
0.01080058
0.01091135
0.01081095
0.01080047
0.01080041
0.01080022
0.01080022
0.01080032
0.0108004
0.01080045
0.01080054
0.01091926
0.01081306
0.01080125
0.01080146
0.01080033
0.01080051
0.01080045
0.01080047
0.01080046
0.01080047
0.01094099
0.01081049
0.01080231
0.01080114
0.01080065
0.01080066
0.0108006
0.01080062
0.01080053
0.01080045
0.0109192
0.01081433
0.01080236
0.01080085
0.01080087
0.01080074
0.01080077
0.0108008
0.01080071
0.0108006
0.01092451
0.0108146
0.01080236
0.01080116
0.01080089
0.01080095
0.01080105
0.01080118
0.01080112
0.01080102
0.01091525
0.01081204
0.01080228
0.01080101
0.01080107
0.01080117
0.01080146
0.01080187
0.01080201
0.01080202
0.01093094
0.01081415
0.01080273
0.01080113
0.0108013
0.01080155
0.01080217
0.01080329
0.01080375
0.01080378
0.01093322
0.01081662
0.01080336
0.01080129
0.01080161
0.01080255
0.01080371
0.01080604
0.01080715
0.01080678
0.01091831
0.01081535
0.0108034
0.01080166
0.01080255
0.01080393
0.01080708
0.01081307
0.01081555
0.01081221
0.01091536
0.01080962
0.01080257
0.01080157
0.01080288
0.01080736
0.01081615
0.0108344
0.01084959
0.01081661
0.01091847
0.010814
0.01080391
0.01080138
0.01080584
0.01081367
0.01084134
0.01086254
0.01143162
0.01074886
0.01096839
0.01082044
0.0108057
0.01080299
0.01081047
0.01082008
0.01085219
0.01108058
0.01676166
0.01091952
0.01080865
0.0108021
0.01080233
0.01080943
0.01081722
0.01084186
0.0108919
0.002848742
0.01091372
0.01080722
0.01080098
0.01080171
0.01080955
0.01081546
0.01083591
0.01085692
0.002512406
0.01091531
0.01080829
0.01080357
0.01080197
0.01081167
0.01081671
0.01083159
0.0007981531
0.01091306
0.01080842
0.01080354
0.01080449
0.01081259
0.01082021
0.01082902
0.000801821
0.01091222
0.01080867
0.01080487
0.01080673
0.01081466
0.01082662
0.01084537
0.01022934
0.004309675
0.0109141
0.01080782
0.01080728
0.01080772
0.01081852
0.01083075
0.01087902
0.01087546
0.00308187
0.01091975
0.0108089
0.01080533
0.01080767
0.01081734
0.01083654
0.01089707
0.01107544
0.004338867
0.01101621
0.0203501
0.01153376
0.002103933
0.0009981272
0.001029672
0.001038817
0.001041228
0.001041856
0.001042108
0.001042188
0.001042282
0.01109914
0.01081934
0.01079377
0.01077134
0.01079566
0.01079694
0.01079712
0.01079723
0.01079734
0.01079751
0.01091817
0.01081167
0.0108029
0.01080025
0.01080038
0.01080018
0.01080026
0.01080035
0.01080045
0.01080059
0.01094488
0.01082098
0.01080179
0.01080155
0.01080022
0.01080035
0.01080033
0.0108004
0.01080046
0.01080054
0.0109116
0.01080995
0.01080163
0.01080054
0.01080053
0.01080043
0.01080044
0.01080046
0.01080047
0.01080048
0.01092693
0.01082034
0.01080149
0.01080157
0.01080037
0.01080061
0.01080051
0.01080055
0.0108005
0.01080044
0.01094172
0.01081777
0.01080162
0.01080182
0.01080053
0.01080081
0.01080072
0.01080077
0.01080069
0.01080057
0.01091941
0.01081833
0.01080127
0.01080212
0.01080062
0.0108011
0.01080107
0.01080118
0.01080111
0.01080099
0.0109353
0.01081334
0.01080124
0.01080214
0.01080083
0.01080144
0.01080152
0.01080188
0.010802
0.010802
0.01093181
0.01081408
0.0108012
0.01080217
0.01080105
0.01080201
0.01080245
0.01080336
0.01080377
0.01080376
0.01092954
0.01081524
0.01080168
0.01080199
0.01080131
0.01080276
0.01080411
0.01080616
0.0108072
0.0108068
0.01092416
0.0108188
0.01080276
0.01080213
0.01080193
0.01080404
0.0108074
0.01081333
0.0108158
0.01081244
0.01091098
0.01080971
0.01080161
0.01080192
0.01080288
0.01080751
0.01081602
0.01083441
0.01084981
0.01081669
0.01093966
0.01081122
0.01080107
0.01080198
0.01080498
0.01081365
0.01084177
0.01086332
0.01143092
0.0107474
0.01095847
0.01081876
0.01080143
0.01080114
0.01080609
0.01081759
0.01084963
0.011078
0.01675546
0.01091819
0.01081128
0.01080681
0.01080128
0.01081261
0.0108207
0.01084336
0.01089225
0.002850262
0.01092461
0.01080587
0.01080346
0.01080384
0.01081135
0.01081484
0.01083657
0.01085683
0.0025093
0.01091556
0.01080888
0.01080191
0.01080297
0.01081065
0.01081646
0.01083185
0.0007819394
0.01091186
0.01080804
0.01080745
0.01080496
0.01081316
0.01082096
0.01082959
0.0007851416
0.01091104
0.01081081
0.01080423
0.01080649
0.01081455
0.01082658
0.01084536
0.01022867
0.004306331
0.01091663
0.01081026
0.01080571
0.01080721
0.01081778
0.01083024
0.01087849
0.01087089
0.003075933
0.01092162
0.01081132
0.01080545
0.01080802
0.01081718
0.0108363
0.010897
0.01107697
0.004337948
0.01101592
0.0203523
0.01153489
0.002094423
0.0009820981
0.001001549
0.001007191
0.001008444
0.001008783
0.001009068
0.001008991
0.001009126
0.01109764
0.01081813
0.01079884
0.01077777
0.01079595
0.0107969
0.01079705
0.01079716
0.01079728
0.01079743
0.01091846
0.01081001
0.01080354
0.01080073
0.01080017
0.01080024
0.01080025
0.01080034
0.01080044
0.01080059
0.01090326
0.01080837
0.01080246
0.01080037
0.0108003
0.01080026
0.01080034
0.0108004
0.01080046
0.01080054
0.01093919
0.01081688
0.01080139
0.01080176
0.0108003
0.0108005
0.01080045
0.01080047
0.01080046
0.01080047
0.01090459
0.01081276
0.01080106
0.01080189
0.01080053
0.01080075
0.01080062
0.01080061
0.01080052
0.01080044
0.0109275
0.0108097
0.01080438
0.01080134
0.01080076
0.01080083
0.01080081
0.01080082
0.01080071
0.01080059
0.01091072
0.01080961
0.01080375
0.01080111
0.01080096
0.01080097
0.01080108
0.01080119
0.01080113
0.01080101
0.01091048
0.01081251
0.01080271
0.01080122
0.0108011
0.01080126
0.0108015
0.01080188
0.01080199
0.01080198
0.01091359
0.01081087
0.01080389
0.01080122
0.01080134
0.01080175
0.01080221
0.0108033
0.01080375
0.01080373
0.01093349
0.01080933
0.01080528
0.01080194
0.01080189
0.01080269
0.01080389
0.0108062
0.01080723
0.01080664
0.01090416
0.01081161
0.01080085
0.01080233
0.01080221
0.01080427
0.01080746
0.01081342
0.0108157
0.01081234
0.01091744
0.01080931
0.01080092
0.01080167
0.01080278
0.01080734
0.01081595
0.01083399
0.01084985
0.01081621
0.01092282
0.01080994
0.01080153
0.01080213
0.01080469
0.01081393
0.01084189
0.01086465
0.0114294
0.0107593
0.01091464
0.01081025
0.01080758
0.01080261
0.010809
0.01081847
0.0108508
0.01108018
0.01675319
0.01094484
0.01081264
0.0108014
0.01080168
0.01080811
0.0108165
0.01084071
0.0108922
0.002853659
0.01091269
0.01080665
0.01080412
0.01080123
0.01081198
0.01081689
0.01083562
0.01085632
0.002491027
0.01092786
0.01080544
0.01080306
0.01080411
0.01081143
0.01081585
0.01083082
0.0007268585
0.01091948
0.01081069
0.01080433
0.01080498
0.01081245
0.01082013
0.01082974
0.0007286382
0.01092497
0.01081089
0.01080461
0.01080648
0.0108146
0.01082656
0.01084446
0.01024379
0.004187338
0.0109108
0.01080952
0.01080759
0.01080774
0.01081767
0.01083022
0.01087385
0.01086303
0.002974489
0.01091425
0.01080949
0.0108061
0.01080808
0.01081733
0.01083573
0.01089676
0.01108304
0.004203864
0.01101149
0.02029498
0.01152786
0.00207234
0.00214308
0.002213728
0.002229131
0.002226416
0.002227854
0.002231147
0.002227816
0.002230642
0.01114376
0.0107649
0.01077082
0.01079547
0.01079651
0.01079664
0.01079675
0.01079743
0.0107973
0.01079496
0.0110403
0.01073199
0.01076704
0.01078553
0.0107947
0.01079554
0.01079719
0.01079736
0.01079748
0.01079763
0.01092802
0.01064743
0.01076172
0.01077744
0.01079497
0.01079568
0.01079696
0.01079739
0.01079748
0.01079729
0.01093025
0.01064163
0.01076281
0.01077397
0.01079417
0.01079493
0.01079725
0.01079744
0.01079748
0.01079746
0.01092229
0.01063412
0.01076459
0.01077121
0.010793
0.01079462
0.0107973
0.01079751
0.01079751
0.01079728
0.0110363
0.01070672
0.01077542
0.01077902
0.0107947
0.01079477
0.01079706
0.01079711
0.01079745
0.01079735
0.01103452
0.01070773
0.01076549
0.01077329
0.01079249
0.01079425
0.0107975
0.01079761
0.01079781
0.01079782
0.01103238
0.01070386
0.01076226
0.0107739
0.01079272
0.01079463
0.01079799
0.01079797
0.01079846
0.01079866
0.01103527
0.01070073
0.01076656
0.01077436
0.01079411
0.01079595
0.01079905
0.01080005
0.01080048
0.01080069
0.01106623
0.01069839
0.01077443
0.01077829
0.01079546
0.01079767
0.01080067
0.010802
0.01080388
0.01080277
0.01093616
0.01063288
0.01076646
0.0107725
0.01079694
0.01080064
0.01080387
0.01081029
0.01081204
0.01080938
0.01092074
0.01063728
0.01076472
0.01077364
0.01079857
0.01080404
0.01081288
0.01083147
0.01084544
0.01079894
0.01105331
0.01069018
0.01077132
0.01077674
0.01080141
0.01081071
0.010841
0.01086709
0.01143826
0.01078554
0.01105102
0.01070178
0.0107775
0.01078221
0.01080464
0.01081562
0.01084961
0.01107787
0.01675239
0.01092115
0.01062889
0.01077089
0.01077582
0.01080573
0.01081597
0.01083864
0.01090027
0.002939556
0.0109307
0.01062314
0.01076946
0.01078497
0.01080662
0.01081214
0.01083057
0.01086334
0.002485253
0.01091332
0.0106435
0.01077675
0.01078301
0.01080827
0.01081426
0.01082994
0.01085235
0.004478812
0.01093169
0.01065599
0.01078057
0.01078762
0.01080995
0.01081648
0.01083666
0.01086058
0.00459573
0.01103574
0.0107048
0.01078311
0.01079464
0.01081139
0.01082154
0.0108478
0.01083173
0.003354236
0.01112412
0.01071612
0.01078029
0.01079556
0.01081305
0.01082884
0.01086721
0.01096324
0.002508498
0.01108077
0.01072348
0.01077842
0.01079642
0.01081398
0.01083308
0.01089586
0.01101068
0.003606661
0.01108449
0.01101965
0.02003306
0.01143562
0.004582354
0.004907004
0.002140335
0.005008256
0.00489477
0.004952126
0.004906913
0.004892967
0.004974594
0.01129699
0.000946002
0.0009692246
0.0009759767
0.0009774772
0.0009786462
0.0009790205
0.0009789221
0.0009788884
0.0009795314
0.01158713
0.0009675638
0.001010491
0.001023605
0.00102679
0.001028122
0.001028454
0.001028517
0.001028487
0.001028555
0.01104613
0.0009775598
0.001024228
0.001040375
0.001044534
0.001046195
0.001046651
0.001046765
0.00104668
0.001046605
0.01104352
0.0009807395
0.001028157
0.001045235
0.001049908
0.001051767
0.00105231
0.001052447
0.001052291
0.001052111
0.01104135
0.0009814296
0.001029192
0.001046762
0.001051684
0.001053691
0.001054291
0.001054427
0.001054225
0.001053966
0.01110989
0.0009782869
0.001029192
0.001047271
0.001052477
0.001054599
0.001055163
0.001055263
0.001055036
0.001054733
0.01125706
0.000977736
0.001029109
0.001047399
0.001052723
0.001054788
0.001055409
0.001055541
0.00105533
0.001055021
0.01125742
0.0009775333
0.001028884
0.001047334
0.001052704
0.00105475
0.00105531
0.001055415
0.001055208
0.001054902
0.01127569
0.0009772606
0.001028828
0.001047035
0.001052311
0.001054168
0.00105452
0.001054431
0.001054121
0.00105377
0.01113121
0.0009780442
0.001028963
0.001046825
0.001051596
0.001052793
0.001052008
0.001050898
0.00104989
0.001049123
0.01106761
0.0009810519
0.001028898
0.001046148
0.001050013
0.00104839
0.001043228
0.001038542
0.001034232
0.00103151
0.01106593
0.0009802036
0.001028393
0.001045229
0.001047712
0.001041665
0.001015246
0.001004656
0.0009835193
0.0009795999
0.01111018
0.0009779902
0.001027841
0.001044198
0.001045173
0.001034674
0.001004263
0.008958878
0.0114144
0.01079795
0.01125762
0.0009768535
0.001026807
0.001042842
0.001042597
0.001028396
0.0009817399
0.009637627
0.01685894
0.01108408
0.0009792832
0.001026596
0.001041943
0.001040745
0.001024676
0.0009791888
0.009976719
0.003676118
0.01106798
0.0009803059
0.001026496
0.001041387
0.001039661
0.001022945
0.0009782622
0.01013319
0.003373007
0.01105832
0.0009809323
0.001026757
0.00104132
0.001039185
0.001021831
0.0009741453
0.01021979
0.003391054
0.01107582
0.0009805172
0.00102696
0.001041693
0.001039834
0.001022403
0.0009733804
0.01022258
0.003429184
0.01113148
0.000977816
0.001027222
0.001042414
0.001041393
0.001024795
0.0009770754
0.01014832
0.00344897
0.011255
0.0009770197
0.001027405
0.001043592
0.001043456
0.001028052
0.0009815005
0.009980098
0.003486118
0.01134339
0.0009760576
0.001027572
0.001044675
0.001045711
0.00103277
0.0009876087
0.009646506
0.004185826
0.01142565
0.008684696
0.02061645
0.01234064
0.005183373
0.001971352
0.004891031
0.0113807
0.01077711
0.004807508
0.002029786
0.002101536
0.002085866
0.002157931
0.0107205
0.01075801
0.004802532
0.002121846
0.002132246
0.002124838
0.002176453
0.01069255
0.01063605
0.004807846
0.00213718
0.002137625
0.002191702
0.002198436
0.0107298
0.01067846
0.004811621
0.002140561
0.002139578
0.002202501
0.00220166
0.01072388
0.01069481
0.004814433
0.002141602
0.002140218
0.002204137
0.002202582
0.01072344
0.01070001
0.004816994
0.002142195
0.002140754
0.002204811
0.002203121
0.01072123
0.01069803
0.004819694
0.002142659
0.00214113
0.002205352
0.002203651
0.01072056
0.01069734
0.004822602
0.00214296
0.002141299
0.0022059
0.002204238
0.01071996
0.01069485
0.002143074
0.002206574
0.01071895
0.001952634
0.002005771
0.01127968
0.01063963
0.01136186
0.01067716
0.002019242
0.002025514
0.01130082
0.01067745
0.01138294
0.01067156
0.002027452
0.002028502
0.01130493
0.01070115
0.01140392
0.01067625
0.002028841
0.00202948
0.01130502
0.01070611
0.01142676
0.01068684
0.002029827
0.002030103
0.0113041
0.01070686
0.01144331
0.01069617
0.002029998
0.002030315
0.01130383
0.01070793
0.01145834
0.01068987
0.002030121
0.002030392
0.01130028
0.01070574
0.01145971
0.01068929
0.002030243
0.002030328
0.01129498
0.01070126
0.01145851
0.01068983
0.00203014
0.002029562
0.01129195
0.01069725
0.01145247
0.01068891
0.002029827
0.002030096
0.01129198
0.01069723
0.01144954
0.01068108
0.002029773
0.002029816
0.01129081
0.01070134
0.01144077
0.01069122
0.002029203
0.002028514
0.01129612
0.01072201
0.01142527
0.0107109
0.002029714
0.002029844
0.01130648
0.01072026
0.01139286
0.01072029
0.002114336
0.004678617
0.004443278
0.01141508
0.0110007
0.01151933
0.004434407
0.002030251
0.002028405
0.01131107
0.01071015
0.01129883
0.01071546
0.009321912
0.01684535
0.003974891
0.002028098
0.002028716
0.01140576
0.01069654
0.01127905
0.01070415
0.008694615
0.003655108
0.003346214
0.002029249
0.002027441
0.01133679
0.01067694
0.01133397
0.01068192
0.008434507
0.00333176
0.003338898
0.002027814
0.002026569
0.01135977
0.01066508
0.01135852
0.01068116
0.008770886
0.003353038
0.003405038
0.002028872
0.002027021
0.01136682
0.01066326
0.01136126
0.01068603
0.009132874
0.003417015
0.003436895
0.00203043
0.00202783
0.01137223
0.01067056
0.01138238
0.01069213
0.009579424
0.003445895
0.003472046
0.002031899
0.002028783
0.01138989
0.01067241
0.01139798
0.01069562
0.01028351
0.003545649
0.004233483
0.002033206
0.002029566
0.0114025
0.01067258
0.0114041
0.01069751
0.01150623
0.009362599
0.00437796
0.03985466
0.006458626
0.009760167
0.005517897
0.002033952
0.01140733
0.01067215
0.004900726
0.01129611
0.0108888
0.004920512
0.01129604
0.01092376
0.01105686
0.01152839
0.004459311
0.01144089
0.01105992
0.01149384
0.004484417
0.003688529
0.01676692
0.003428468
0.03847011
0.006494937
0.004335514
0.03883102
0.006529872
0.004926212
0.01129739
0.01091941
0.004930724
0.01129669
0.01094206
0.01104406
0.01150509
0.004480703
0.01143086
0.01104696
0.01149176
0.004486374
0.003422861
0.0167733
0.003419827
0.03845722
0.006538597
0.004337742
0.03881364
0.006537911
0.004927952
0.01130808
0.01094421
0.004935448
0.01130776
0.01094624
0.01104574
0.01149726
0.004487148
0.01143159
0.01104641
0.01148843
0.004488599
0.003420586
0.01677135
0.003421382
0.03873133
0.006551438
0.004339223
0.03887151
0.006543542
0.004936908
0.0113153
0.01096197
0.004937751
0.01133017
0.01095414
0.01104618
0.01149439
0.004489164
0.01143246
0.01104651
0.01148878
0.004489469
0.003421923
0.01676469
0.003422034
0.03884584
0.006551944
0.004338969
0.03889972
0.00655059
0.004940869
0.01131608
0.01097387
0.004938124
0.01131483
0.01096228
0.01104618
0.01149553
0.004489241
0.01143074
0.01104567
0.01149027
0.004489228
0.003422455
0.0167576
0.003422189
0.03888868
0.006549954
0.004338325
0.0388765
0.006551902
0.004939525
0.01130712
0.01095688
0.004936104
0.0113098
0.01094824
0.01104597
0.01149256
0.004488406
0.01143098
0.01104531
0.01149023
0.004486918
0.003421698
0.01675583
0.00342088
0.03888017
0.006544392
0.004295325
0.0387231
0.006552147
0.004934267
0.01131092
0.01095311
0.004921709
0.0112973
0.01092973
0.003420128
0.01677959
0.003423504
0.03860864
0.0065397
0.003656105
0.0368733
0.006534021
0.004918712
0.0113025
0.01093414
0.004735233
0.01129738
0.0109008
0.003429432
0.01684293
0.003692421
0.03688672
0.006520625
0.003868869
0.03639658
0.006517332
0.004901108
0.01138281
0.01079568
0.001947161
0.004760988
0.01073045
0.0107438
0.001992474
0.00204692
0.004885183
0.01076497
0.01062416
0.002043225
0.002065959
0.004954976
0.01071838
0.01069989
0.005326541
0.00208364
0.002066357
0.004951145
0.01076844
0.01065326
0.002048934
0.002054597
0.004867315
0.01072851
0.01068453
0.002078478
0.002081459
0.002135151
0.01075844
0.01069258
0.005273225
0.002082446
0.002087197
0.004939519
0.010766
0.01066409
0.002072421
0.002060363
0.01077611
0.002069563
0.01063889
0.01145338
0.01069964
0.001949311
0.002009812
0.01066995
0.01113373
0.01061685
0.002040915
0.002058931
0.0108549
0.01105331
0.01079328
0.002093624
0.004408293
0.002103107
0.01083133
0.01103693
0.01082432
0.004418737
0.002121737
0.004476393
0.002125449
0.01084672
0.01105436
0.01085998
0.00443757
0.002125212
0.004495479
0.002122855
0.01076437
0.01110089
0.01071924
0.004470006
0.002116678
0.004407016
0.002093718
0.01070789
0.01131471
0.01070731
0.002068596
0.002047437
0.01072175
0.01139177
0.01069787
0.002061981
0.002056827
0.01068482
0.01132898
0.01068588
0.002038777
0.002066351
0.01070362
0.01111956
0.01078838
0.00441527
0.002093099
0.004473574
0.002114316
0.01086101
0.01104229
0.01083949
0.004445428
0.002121588
0.004486196
0.002123071
0.01082722
0.01105524
0.01083534
0.004463958
0.002120267
0.004393191
0.002103867
0.01068991
0.01131786
0.01070056