/*--------------------------------*- C++ -*----------------------------------*\
  =========                 |
  \\      /  F ield         | OpenFOAM: The Open Source CFD Toolbox
   \\    /   O peration     | Website:  https://openfoam.org
    \\  /    A nd           | Version:  7
     \\/     M anipulation  |
\*---------------------------------------------------------------------------*/
FoamFile
{
    version     2.0;
    format      ascii;
    class       volScalarField;
    location    "0.08";
    object      k;
}
// * * * * * * * * * * * * * * * * * * * * * * * * * * * * * * * * * * * * * //

dimensions      [0 2 -2 0 0 0 0];

internalField   nonuniform List<scalar> 
78470
(
0.003868814
0.003877501
0.003879256
0.003881923
0.003884098
0.00388547
0.003886985
0.003888567
0.003890418
0.003755527
0.003762454
0.003762887
0.003762895
0.003763398
0.003763635
0.00376394
0.003764219
0.003764548
0.003757523
0.003762985
0.003763991
0.003763946
0.003764356
0.003764618
0.003764923
0.003765177
0.003765447
0.00375751
0.003763655
0.003764469
0.003764284
0.003764803
0.003764946
0.003765229
0.003765411
0.003765573
0.003757383
0.003763849
0.003764364
0.003764287
0.003764752
0.003765
0.003765285
0.003765436
0.003765486
0.00375722
0.003763981
0.003764549
0.003764401
0.003764945
0.003765131
0.003765447
0.003765553
0.003765491
0.003757044
0.003764025
0.003764517
0.00376441
0.003764968
0.003765268
0.003765655
0.003765822
0.003765765
0.003757109
0.003764033
0.003764548
0.003764412
0.003765101
0.0037655
0.003766053
0.003766363
0.003766382
0.003757099
0.003764002
0.003764543
0.003764416
0.003765174
0.003765759
0.003766601
0.003767225
0.003767452
0.003756861
0.003763757
0.003764365
0.003764229
0.003765168
0.003765994
0.003767318
0.003768429
0.003768986
0.00375678
0.003763551
0.003764033
0.003763868
0.003764916
0.003766085
0.003768151
0.003770142
0.00377105
0.003756662
0.003763078
0.003763447
0.003763094
0.003764186
0.003765647
0.003769236
0.003772329
0.003773279
0.003756506
0.003762259
0.003762374
0.003761708
0.003762816
0.003764178
0.003765529
0.00377081
0.003774994
0.003756233
0.003761483
0.003760947
0.003759673
0.003759544
0.003762263
0.003794226
0.003841652
0.003825558
0.003755847
0.00376042
0.00375922
0.003756853
0.003754808
0.003753645
0.003776516
0.004151209
0.003755066
0.003759526
0.003757448
0.003754266
0.00375026
0.003745953
0.003746623
0.003796507
0.003754608
0.003758935
0.003756751
0.00375252
0.003747868
0.003741992
0.003728611
0.003646696
0.003754495
0.00375857
0.003756901
0.003752385
0.003748027
0.003742383
0.003723359
0.003579176
0.003754625
0.003759314
0.003758059
0.003754265
0.003750697
0.003746424
0.003733812
0.003692652
0.003755144
0.003760486
0.00376009
0.003757346
0.00375521
0.003752791
0.003751037
0.00380978
0.003755918
0.003762331
0.003762767
0.003761446
0.003761022
0.003761136
0.00377465
0.003952883
0.003756784
0.003764135
0.003765714
0.003765924
0.003767609
0.003771089
0.00380392
0.004179684
0.00382904
0.005081165
0.004020901
0.003766271
0.003753692
0.003763465
0.003763422
0.003763499
0.003763814
0.00376409
0.003764393
0.003764727
0.003525592
0.003476525
0.00347591
0.003475248
0.003475053
0.003475042
0.003475049
0.003475061
0.003475078
0.003475104
0.003532725
0.003478616
0.003476239
0.003475348
0.003475003
0.00347498
0.003474943
0.003474949
0.003474963
0.003474985
0.003545866
0.003478929
0.003476345
0.00347556
0.003475033
0.003475009
0.003474962
0.003474963
0.003474961
0.003474974
0.003551049
0.003479864
0.003476335
0.003475732
0.003475047
0.003475046
0.00347497
0.003474971
0.00347496
0.003474961
0.003551672
0.003479926
0.003476271
0.003475775
0.003475071
0.003475067
0.003474987
0.003474987
0.003474968
0.003474962
0.003553168
0.003479951
0.003476236
0.003475809
0.003475095
0.003475084
0.003475011
0.003475018
0.003475005
0.003474996
0.003554513
0.003479677
0.003476215
0.003475803
0.003475124
0.003475119
0.003475058
0.003475085
0.003475086
0.00347509
0.003555349
0.003479613
0.003476127
0.003475809
0.00347516
0.003475178
0.003475135
0.003475214
0.003475262
0.00347529
0.003555097
0.00347953
0.003476132
0.003475811
0.003475193
0.003475246
0.003475279
0.003475472
0.003475605
0.003475664
0.00355478
0.003479713
0.003476125
0.003475852
0.003475257
0.003475369
0.003475558
0.003476045
0.003476333
0.00347621
0.003553813
0.003479612
0.003476187
0.003475889
0.003475361
0.003475552
0.0034762
0.003477505
0.00347802
0.003477521
0.003552849
0.003480063
0.003476236
0.003476013
0.003475545
0.003476255
0.003478149
0.003481699
0.003484694
0.003478884
0.003549195
0.003479806
0.003476273
0.003476258
0.003476134
0.003477802
0.00348435
0.003488399
0.003615062
0.00349287
0.003553692
0.003479498
0.003476488
0.003476577
0.003476847
0.003478944
0.003486549
0.003535073
0.005324045
0.003539402
0.003480256
0.003476762
0.003476832
0.003476988
0.003478954
0.003484193
0.003496664
0.003737121
0.003525802
0.003479434
0.003476699
0.003476967
0.003477205
0.003478786
0.003482575
0.00348891
0.003696523
0.003519708
0.003479476
0.003476753
0.003477088
0.003477489
0.00347906
0.003482441
0.003486498
0.003685103
0.003519497
0.003479261
0.003476761
0.003477164
0.003477746
0.003479542
0.003483835
0.003486947
0.003716564
0.003521978
0.003478953
0.003476743
0.003477147
0.003478036
0.003480464
0.003486317
0.003490198
0.003749925
0.003524608
0.003478599
0.003476606
0.003477098
0.003478384
0.00348195
0.003491294
0.003508539
0.003816063
0.003526332
0.003479023
0.003476687
0.003477076
0.003478496
0.003482908
0.0034962
0.003529303
0.003909943
0.003527336
0.003519406
0.00627442
0.00366511
0.003767044
0.003755082
0.003764122
0.003764129
0.003764415
0.003764701
0.003765015
0.003765331
0.003765689
0.003519907
0.003477001
0.003475435
0.003475699
0.003474975
0.003474912
0.003474924
0.00347494
0.003474959
0.003474987
0.003494661
0.003478239
0.003475259
0.003474922
0.003474813
0.003474823
0.003474825
0.003474837
0.003474852
0.003474875
0.003495707
0.00347684
0.003475054
0.003474925
0.003474813
0.003474835
0.003474831
0.003474843
0.00347485
0.003474864
0.003493989
0.003475553
0.003475079
0.003474897
0.003474814
0.003474853
0.003474847
0.003474849
0.003474848
0.00347485
0.003493585
0.003475489
0.003475122
0.00347488
0.00347485
0.003474873
0.003474866
0.003474868
0.003474858
0.003474849
0.003493416
0.00347551
0.003475237
0.003474896
0.003474897
0.003474893
0.003474892
0.003474901
0.003474893
0.003474885
0.003494065
0.003475835
0.003475128
0.003474927
0.003474922
0.003474915
0.00347494
0.003474971
0.003474977
0.003474981
0.003493627
0.003476115
0.003475269
0.003474907
0.003474948
0.003474966
0.00347501
0.003475098
0.003475148
0.003475186
0.003494183
0.003475996
0.003475367
0.003474927
0.003474986
0.003475058
0.003475136
0.003475369
0.003475501
0.003475554
0.003493612
0.003475542
0.003475388
0.003474966
0.003475042
0.003475246
0.003475441
0.003475944
0.003476212
0.003476164
0.003493907
0.003476408
0.003475361
0.00347504
0.003475144
0.003475492
0.003476145
0.003477367
0.003477966
0.003477385
0.003494163
0.003475763
0.003475435
0.003475151
0.003475361
0.00347623
0.003478004
0.003481554
0.003484065
0.003478323
0.003493422
0.003476052
0.003475718
0.003475247
0.003475838
0.003477694
0.003483693
0.003487408
0.003611052
0.00349352
0.003493586
0.003477109
0.003475822
0.003475336
0.003476672
0.00347888
0.003485867
0.00353711
0.005313107
0.003495339
0.003476468
0.003475113
0.003475297
0.003476969
0.003479038
0.003483978
0.003496093
0.003737128
0.003494357
0.003477759
0.003475074
0.003475501
0.003477231
0.003478366
0.003482927
0.003489497
0.00370418
0.003494446
0.003476678
0.00347516
0.003475525
0.003477436
0.003478618
0.003482775
0.003733268
0.003493424
0.003476
0.003475994
0.003476162
0.003477707
0.00347943
0.003482426
0.003737976
0.00349371
0.003475545
0.003475585
0.003476164
0.003478102
0.003480711
0.003484945
0.0035027
0.003691245
0.003494196
0.003475748
0.003476055
0.003476215
0.003478525
0.00348137
0.003491576
0.003503268
0.003809935
0.003495387
0.00347591
0.003475984
0.003476435
0.003478398
0.003482607
0.003495719
0.003531103
0.003906772
0.003517329
0.006257844
0.003692012
0.003767319
0.003754855
0.003764324
0.003764363
0.003764662
0.003764956
0.003765279
0.003765597
0.003765962
0.003530464
0.003477682
0.003475599
0.003475755
0.003474982
0.003474908
0.003474924
0.00347494
0.003474959
0.003474987
0.003498128
0.003476517
0.003475386
0.003474942
0.003474809
0.00347482
0.003474824
0.003474837
0.003474853
0.003474875
0.003494202
0.003477414
0.00347506
0.003474821
0.003474815
0.003474817
0.003474828
0.003474842
0.003474851
0.003474864
0.003497456
0.003476484
0.0034749
0.003474836
0.003474818
0.003474837
0.003474838
0.003474848
0.003474848
0.00347485
0.003498122
0.003477461
0.003474825
0.003474881
0.003474839
0.003474845
0.003474856
0.003474864
0.003474857
0.003474849
0.003495015
0.003478294
0.003474811
0.003475099
0.00347486
0.003474871
0.003474876
0.003474894
0.003474889
0.003474883
0.003498602
0.003476862
0.003474794
0.003475197
0.003474866
0.003474958
0.003474933
0.003474967
0.003474971
0.003474976
0.003497677
0.00347658
0.003474809
0.003475199
0.003474889
0.003475017
0.003475031
0.003475099
0.003475147
0.003475188
0.003498817
0.003476605
0.003474873
0.003475216
0.003474927
0.003475108
0.003475196
0.003475383
0.003475501
0.003475554
0.003495913
0.003477805
0.003474849
0.003475267
0.00347498
0.003475262
0.003475512
0.003475936
0.003476198
0.003476189
0.003496844
0.003476857
0.003475009
0.003475231
0.003475075
0.003475485
0.003476101
0.003477364
0.003477995
0.003477397
0.00349418
0.003477353
0.00347501
0.003475171
0.003475307
0.003476235
0.003477956
0.003481628
0.003484023
0.003478432
0.003498939
0.003477191
0.003474912
0.003475298
0.003475777
0.003477634
0.003483634
0.003487011
0.003611197
0.003493408
0.003499084
0.003476811
0.003475171
0.003475256
0.003476448
0.003478842
0.003485779
0.003536354
0.005306283
0.003494634
0.003477086
0.003474894
0.003475201
0.003476974
0.003479339
0.003484354
0.003495999
0.003737148
0.003497564
0.003476656
0.003475391
0.00347544
0.003477499
0.003478592
0.003483336
0.003489881
0.003704179
0.003495852
0.003476662
0.003475242
0.003475443
0.003477575
0.003478646
0.003483001
0.003732479
0.003495332
0.003475871
0.003475624
0.003476063
0.003477665
0.003479482
0.003482335
0.003737926
0.003494455
0.003475961
0.003475591
0.003476172
0.003478028
0.00348077
0.003484968
0.003502592
0.003681789
0.003495007
0.003476011
0.003475937
0.003476255
0.003478568
0.003481393
0.003492192
0.003502622
0.003812117
0.003496456
0.003476341
0.003475793
0.00347642
0.003478391
0.003482614
0.003495897
0.003531803
0.003907741
0.003517313
0.006263058
0.003691713
0.003768376
0.003754981
0.003764361
0.003764382
0.00376467
0.003764979
0.003765322
0.003765646
0.003766013
0.003538465
0.003477489
0.003475566
0.003475872
0.003474986
0.003474905
0.003474922
0.003474939
0.003474959
0.003474987
0.003494473
0.003475647
0.003475395
0.003474863
0.003474784
0.003474815
0.003474822
0.003474836
0.003474852
0.003474875
0.003500721
0.003476775
0.003474912
0.003474845
0.003474809
0.003474813
0.003474828
0.00347484
0.003474849
0.003474864
0.003494054
0.003476502
0.003474777
0.003474946
0.003474819
0.003474839
0.003474836
0.003474846
0.003474847
0.003474849
0.003498211
0.003477073
0.003474897
0.003475013
0.003474842
0.003474866
0.003474857
0.003474864
0.003474856
0.003474848
0.003498538
0.003476247
0.003475022
0.003475013
0.003474857
0.003474911
0.003474888
0.003474903
0.003474893
0.003474884
0.003494985
0.003476494
0.003475144
0.00347488
0.00347492
0.003474907
0.003474935
0.003474972
0.003474977
0.003474981
0.003498586
0.003475917
0.003475174
0.00347491
0.003474938
0.00347495
0.003474997
0.003475091
0.003475145
0.003475189
0.003494803
0.003476875
0.003475189
0.003474924
0.003474968
0.003475016
0.003475104
0.003475356
0.003475492
0.003475548
0.003497925
0.003476997
0.003475178
0.003475039
0.003475034
0.00347523
0.00347545
0.003475901
0.003476179
0.003476174
0.003497603
0.003476222
0.003475205
0.003475117
0.003475122
0.003475506
0.003476024
0.003477333
0.003477948
0.003477315
0.003496921
0.003476384
0.003475404
0.003475109
0.003475336
0.00347622
0.003477955
0.003481642
0.00348399
0.003478405
0.003502016
0.00347616
0.003475459
0.003475215
0.003475912
0.00347768
0.003483703
0.003487073
0.003611164
0.003493542
0.003496445
0.003477576
0.003475523
0.003475333
0.003476754
0.003478957
0.003485918
0.003536471
0.005304829
0.00350094
0.003475636
0.003474971
0.003475207
0.003476929
0.003479005
0.003484092
0.003496146
0.003737201
0.003495085
0.003476045
0.003475386
0.003475277
0.003477241
0.003478418
0.003483182
0.003489894
0.003703568
0.003495446
0.003475602
0.00347524
0.003475196
0.003477538
0.003478743
0.003482951
0.003732297
0.003494345
0.003475787
0.003475511
0.003475921
0.003477567
0.003479401
0.003482213
0.003737833
0.003494699
0.003475899
0.003475972
0.003476331
0.003478086
0.003480786
0.003484931
0.003502357
0.003689984
0.003494592
0.003475524
0.003476216
0.00347638
0.003478771
0.003481482
0.003492202
0.003502865
0.00381417
0.003496432
0.003475772
0.003475801
0.003476321
0.003478434
0.003482619
0.003495892
0.003532051
0.003908299
0.003517206
0.006266431
0.003689126
0.003768531
0.003754921
0.003764323
0.003764308
0.003764642
0.003764933
0.003765279
0.003765599
0.003765969
0.003547796
0.003477387
0.003475565
0.003475884
0.003474972
0.003474903
0.003474922
0.003474939
0.003474959
0.003474987
0.003493381
0.003475426
0.003475446
0.003474804
0.003474814
0.003474814
0.003474818
0.003474835
0.003474852
0.003474875
0.003493827
0.003476571
0.003474752
0.003474871
0.003474811
0.003474812
0.003474828
0.003474841
0.003474849
0.003474864
0.00349571
0.003476957
0.003474879
0.003475078
0.003474821
0.003474863
0.003474846
0.00347485
0.003474846
0.003474849
0.003500861
0.003476063
0.003475186
0.003474972
0.003474874
0.003474881
0.003474867
0.003474872
0.003474859
0.003474849
0.003495592
0.00347729
0.003475136
0.003474874
0.00347491
0.003474883
0.00347489
0.003474902
0.003474894
0.003474886
0.00349701
0.003477097
0.003475117
0.003474944
0.003474905
0.003474916
0.003474933
0.003474967
0.003474972
0.003474978
0.003494726
0.003476652
0.003475144
0.003474899
0.00347493
0.003474945
0.003474997
0.003475092
0.003475144
0.003475187
0.003498527
0.00347686
0.00347521
0.003474913
0.003474965
0.003475005
0.003475117
0.003475358
0.003475487
0.003475547
0.00349891
0.003477585
0.003475334
0.003474945
0.003475019
0.003475197
0.003475406
0.003475889
0.003476168
0.00347617
0.003495392
0.003477487
0.003475387
0.003475046
0.003475213
0.003475475
0.003476068
0.003477303
0.003477909
0.003477322
0.00349489
0.003476045
0.003475268
0.003475059
0.003475301
0.003476208
0.003478006
0.003481654
0.003483985
0.00347842
0.003495386
0.003477221
0.003475574
0.003475034
0.003475986
0.003477621
0.003483568
0.003486914
0.003611026
0.003493386
0.003507227
0.003478159
0.003475968
0.003475459
0.00347714
0.00347922
0.003486196
0.003536426
0.005305521
0.003495926
0.003475765
0.003475274
0.003475404
0.003477033
0.003478786
0.003484255
0.003496102
0.003737026
0.00349442
0.003475651
0.003474995
0.003475254
0.00347707
0.00347847
0.003483135
0.003489803
0.00370365
0.003494858
0.003475724
0.003475575
0.003475286
0.003477495
0.003478718
0.003482928
0.003732277
0.003494282
0.003475765
0.003475528
0.003475788
0.003477653
0.003479418
0.00348224
0.003737817
0.003494077
0.00347578
0.003475775
0.003476245
0.003478027
0.003480743
0.003484902
0.00350226
0.003685966
0.003494539
0.003475493
0.003476282
0.003476409
0.003478789
0.003481514
0.003492221
0.003502804
0.003813578
0.003495852
0.003475691
0.003475799
0.003476331
0.003478446
0.003482619
0.003495888
0.003532177
0.003907883
0.003517134
0.00626738
0.003689968
0.003768449
0.003755053
0.003764362
0.003764208
0.003764571
0.003764761
0.003765083
0.003765382
0.003765737
0.003534906
0.003477724
0.003475466
0.003475727
0.00347498
0.003474906
0.003474922
0.00347494
0.00347496
0.003474988
0.003496055
0.003476351
0.003475333
0.00347482
0.003474852
0.003474812
0.003474823
0.003474838
0.003474853
0.003474876
0.003501733
0.00347869
0.003474899
0.003475105
0.003474809
0.003474842
0.003474831
0.003474842
0.00347485
0.003474863
0.003493974
0.003476272
0.003475029
0.003474839
0.003474858
0.003474841
0.003474843
0.003474847
0.003474849
0.003474851
0.003497551
0.003478529
0.003474848
0.00347508
0.003474827
0.003474875
0.003474851
0.003474861
0.003474854
0.003474847
0.003501058
0.003477639
0.00347487
0.003475111
0.00347485
0.003474902
0.003474884
0.003474897
0.003474889
0.003474882
0.003495821
0.003478004
0.003474803
0.003475172
0.003474858
0.003474952
0.003474943
0.003474969
0.003474971
0.003474973
0.003499636
0.00347658
0.003474834
0.003475163
0.003474891
0.003475006
0.003475017
0.003475096
0.003475142
0.003475184
0.003498792
0.003476796
0.003474819
0.003475171
0.003474926
0.00347511
0.003475189
0.003475376
0.003475492
0.003475544
0.003498188
0.003477144
0.003474912
0.003475123
0.003474968
0.003475247
0.003475502
0.003475919
0.003476181
0.003476178
0.003496875
0.003478177
0.003475176
0.003475156
0.003475098
0.003475502
0.003476145
0.003477364
0.003477968
0.003477378
0.003493861
0.003476155
0.003475044
0.003475139
0.003475313
0.003476243
0.003477978
0.003481651
0.003484035
0.003478442
0.003500708
0.003476032
0.003474918
0.003475189
0.003475809
0.003477603
0.003483667
0.003487077
0.003610904
0.003493033
0.003505051
0.003477756
0.003474936
0.003475073
0.003476147
0.003478635
0.003485631
0.003535842
0.005304539
0.00349549
0.003476603
0.003476268
0.003475133
0.003477706
0.003479566
0.003484591
0.003496181
0.003738898
0.00349721
0.003475048
0.003475568
0.003475716
0.003477486
0.003478337
0.003483269
0.003489788
0.003704325
0.003494917
0.003475911
0.003475171
0.003475494
0.00347727
0.00347865
0.003482993
0.003732477
0.003494102
0.003475629
0.003476397
0.003475884
0.003477764
0.003479581
0.003482378
0.003737929
0.003493843
0.003476266
0.003475612
0.003476165
0.003477999
0.00348073
0.0034849
0.003502572
0.003692177
0.003495178
0.003476073
0.003475896
0.003476272
0.003478625
0.003481393
0.003492106
0.003501797
0.003815189
0.003496326
0.003476279
0.00347581
0.003476384
0.003478407
0.003482562
0.003495872
0.003532591
0.003908321
0.003517072
0.006268816
0.003690264
0.00376815
0.003753698
0.003763682
0.003763187
0.00376354
0.00376376
0.003764099
0.003764339
0.003764709
0.003535174
0.003477865
0.003475321
0.003475499
0.003474963
0.003474913
0.003474928
0.003474945
0.003474964
0.003474991
0.003496191
0.003476042
0.003475484
0.003474933
0.003474798
0.003474824
0.003474822
0.003474836
0.003474853
0.003474876
0.00349249
0.003476195
0.003475266
0.003474828
0.003474824
0.003474817
0.00347483
0.003474842
0.00347485
0.003474864
0.003500579
0.00347811
0.003474852
0.003475133
0.00347482
0.003474861
0.003474848
0.00347485
0.003474848
0.00347485
0.003492762
0.003477291
0.003474858
0.003475146
0.003474856
0.003474896
0.003474869
0.003474871
0.003474858
0.003474848
0.003498212
0.003475667
0.003475673
0.003474993
0.003474886
0.003474897
0.003474896
0.003474905
0.003474894
0.003474885
0.00349439
0.003475932
0.003475513
0.003474918
0.003474919
0.003474912
0.003474938
0.00347497
0.003474973
0.003474977
0.003494308
0.003476638
0.003475253
0.003474938
0.003474938
0.003474959
0.003475006
0.003475095
0.003475141
0.00347518
0.003494994
0.003476246
0.003475534
0.003474934
0.003474978
0.003475046
0.00347513
0.003475361
0.00347549
0.003475541
0.003499574
0.003475648
0.003475881
0.003475122
0.003475083
0.003475228
0.00347545
0.003475926
0.00347619
0.003476149
0.003492623
0.003477126
0.003474826
0.003475217
0.003475161
0.003475551
0.003476156
0.003477383
0.003477949
0.003477365
0.003495886
0.00347631
0.003474856
0.00347507
0.003475283
0.003476201
0.003477962
0.003481563
0.003484065
0.003478301
0.003497022
0.003476068
0.003475061
0.003475216
0.003475751
0.003477669
0.003483697
0.003487365
0.003610457
0.003493327
0.003495066
0.003476119
0.003476512
0.003475406
0.003476802
0.003478849
0.00348588
0.003536344
0.00530373
0.003502366
0.003476931
0.003475014
0.003475249
0.003476734
0.003478616
0.003483993
0.003496134
0.003739247
0.003494342
0.00347587
0.003475701
0.003475121
0.003477585
0.003478786
0.003483048
0.00348966
0.003704931
0.003498034
0.003475168
0.003475457
0.003475736
0.003477456
0.003478513
0.003482811
0.003733299
0.003496354
0.003476413
0.003475665
0.003475889
0.003477597
0.003479383
0.003482469
0.00373791
0.003497437
0.003476175
0.003475714
0.003476161
0.003478005
0.003480722
0.003484707
0.003503271
0.003698382
0.003494194
0.003475987
0.003476353
0.003476388
0.003478597
0.003481386
0.003491058
0.003499325
0.003808757
0.003495018
0.00347593
0.003475988
0.003476406
0.003478434
0.003482439
0.003495803
0.003534108
0.003902399
0.003516158
0.006256683
0.003688078
0.003766516
0.003789306
0.003793362
0.003794657
0.003796031
0.003796208
0.003797821
0.003797861
0.003798588
0.003546833
0.003478067
0.003475976
0.003474973
0.003474978
0.003474953
0.003474978
0.003474996
0.003475005
0.003475091
0.0035183
0.003481444
0.003476198
0.003475338
0.003475031
0.003474977
0.003474939
0.003474947
0.003474964
0.003474991
0.003498373
0.003480594
0.003476385
0.003475609
0.003475003
0.003475001
0.003474952
0.003474954
0.00347496
0.003474981
0.003498828
0.003482459
0.003476423
0.003475757
0.003475075
0.003475034
0.003474967
0.003474962
0.00347496
0.003474962
0.003497002
0.003480631
0.00347676
0.003475856
0.00347514
0.003475068
0.003474985
0.003474978
0.003474967
0.003474964
0.003514735
0.003483694
0.003476038
0.003475632
0.003475089
0.003475088
0.003475024
0.00347503
0.003475009
0.003475001
0.003514689
0.003480193
0.003476348
0.003475798
0.003475169
0.003475148
0.003475066
0.003475092
0.003475091
0.003475091
0.003514318
0.003480217
0.003476263
0.003475778
0.003475207
0.003475197
0.003475136
0.003475222
0.003475265
0.003475291
0.003514918
0.003480261
0.003476248
0.003475766
0.0034752
0.003475247
0.003475275
0.003475463
0.003475597
0.003475649
0.003524117
0.003483074
0.003476074
0.003475627
0.003475266
0.003475347
0.00347555
0.003476039
0.003476318
0.003476207
0.003500325
0.003480456
0.003477008
0.003475816
0.003475382
0.003475555
0.003476166
0.003477508
0.003477991
0.003477493
0.003496615
0.003481008
0.003476416
0.003476001
0.003475502
0.00347628
0.00347811
0.003481679
0.003484635
0.003478863
0.003519582
0.003484027
0.003476448
0.003476358
0.003476133
0.003477788
0.003484376
0.003487278
0.003612556
0.003493657
0.003518609
0.003484725
0.003476902
0.003476372
0.003476863
0.00347903
0.003486498
0.003535169
0.005301772
0.003496817
0.003481123
0.00347782
0.00347609
0.003477276
0.003479302
0.00348436
0.003496237
0.003741268
0.003499046
0.003480542
0.003476443
0.00347621
0.003477355
0.003478497
0.00348271
0.003488919
0.003702573
0.003494823
0.003480535
0.00347739
0.00347595
0.003477683
0.003478923
0.003482538
0.003488337
0.003659632
0.003499301
0.003479497
0.00347736
0.003476127
0.00347797
0.003479338
0.00348394
0.003489582
0.003714637
0.003514732
0.003480311
0.003476897
0.003476902
0.003478192
0.003480371
0.003486305
0.003480791
0.003742422
0.00353836
0.003479614
0.003476659
0.003477148
0.003478496
0.003481902
0.003490471
0.003510119
0.003782442
0.003526662
0.003479247
0.003476742
0.003477044
0.003478628
0.003482728
0.003496582
0.003517837
0.003884951
0.003527568
0.003516709
0.006194462
0.003666197
0.003851211
0.003871747
0.003777812
0.003878235
0.003880375
0.003887303
0.003864342
0.003880166
0.003891693
0.003573139
0.003754722
0.003762183
0.003762826
0.003762528
0.003763199
0.003763338
0.003763612
0.003763941
0.003764305
0.003639414
0.003755798
0.00376309
0.003764304
0.003763795
0.003764507
0.003764589
0.003764876
0.003765105
0.003765395
0.003517626
0.003756294
0.003763519
0.003764592
0.003763866
0.003764618
0.003764788
0.003765124
0.003765335
0.00376553
0.003520369
0.003755567
0.003763545
0.003764688
0.00376396
0.003764663
0.003764862
0.003765257
0.003765394
0.003765461
0.003519843
0.003756153
0.003763564
0.003764782
0.003764002
0.003764746
0.003764973
0.003765382
0.003765491
0.003765453
0.00353617
0.003754607
0.003763806
0.003764959
0.003764385
0.003765221
0.003765325
0.003765687
0.003765811
0.003765748
0.003551917
0.003756988
0.003764541
0.003765127
0.003764541
0.00376519
0.003765491
0.003766044
0.003766328
0.003766346
0.003553095
0.003757033
0.0037644
0.003765056
0.003764577
0.003765358
0.003765807
0.003766625
0.0037672
0.003767413
0.003558146
0.00375665
0.003764009
0.00376447
0.003764163
0.003765095
0.003765929
0.003767264
0.003768369
0.003768924
0.003542252
0.003754216
0.003763303
0.003764217
0.003763766
0.003765015
0.003766021
0.003768127
0.003770073
0.003770964
0.003526372
0.003755538
0.003762477
0.003763294
0.003762669
0.003763954
0.003765472
0.003769158
0.003772208
0.003773142
0.003526444
0.003755034
0.003761855
0.003762421
0.003761257
0.003762768
0.003764069
0.003765533
0.003770751
0.003774814
0.003533366
0.003755162
0.00376192
0.003761531
0.003759554
0.003759599
0.003762191
0.003541916
0.003612461
0.003496469
0.003550723
0.003754187
0.003759949
0.003759371
0.003756492
0.003754698
0.003753524
0.003575992
0.005326641
0.003528086
0.003755316
0.003758915
0.003757711
0.00375361
0.003750034
0.003745883
0.003523792
0.003741205
0.003525631
0.003754245
0.003758035
0.003756689
0.003752109
0.003747702
0.00374215
0.0035112
0.003694988
0.003522902
0.003753447
0.003758406
0.00375683
0.003751995
0.003747934
0.003742331
0.003505117
0.003677072
0.003527612
0.003753471
0.003759285
0.003757942
0.00375392
0.00375062
0.003746343
0.003505868
0.00371484
0.003540695
0.003753265
0.003761123
0.003759829
0.003757218
0.00375513
0.003752814
0.003513213
0.0037515
0.003550674
0.003755576
0.00376294
0.003762845
0.00376144
0.003761016
0.003761153
0.003535243
0.003800504
0.003582363
0.003756558
0.003764351
0.003765661
0.003765904
0.003767591
0.003771017
0.003585412
0.003908648
0.003605404
0.003583884
0.006341744
0.003741381
0.0038608
0.003769333
0.003838902
0.003587987
0.003490683
0.003865602
0.003789413
0.003788508
0.003767433
0.003790576
0.00348125
0.003478939
0.003863648
0.003788147
0.003788029
0.003787321
0.003788478
0.003481607
0.003483489
0.003866684
0.003790787
0.003789727
0.003791945
0.003791774
0.003480732
0.003482303
0.003868796
0.003792805
0.003791343
0.003795034
0.003793126
0.003480869
0.003481807
0.003870343
0.00379371
0.003791944
0.003795888
0.003793949
0.00348066
0.003481434
0.003871736
0.003794344
0.003792584
0.003796566
0.003794542
0.003480595
0.003481437
0.003873225
0.003794961
0.003793179
0.00379719
0.003795178
0.003480601
0.003481483
0.003874889
0.003795608
0.003793856
0.003797852
0.00379586
0.003480656
0.003481642
0.003796343
0.003798601
0.003480744
0.003762235
0.003765294
0.003567022
0.003487296
0.003581833
0.003502668
0.003767479
0.003767133
0.003571424
0.003501116
0.003591141
0.003499845
0.003768013
0.00376843
0.003572056
0.003503706
0.003596791
0.003497921
0.003768658
0.003769361
0.003572075
0.003503651
0.003603051
0.003498462
0.003769758
0.003770079
0.0035717
0.003503329
0.003607961
0.00349882
0.003769926
0.003770314
0.003571546
0.003501452
0.003613035
0.00349683
0.003770063
0.003770394
0.0035705
0.003500848
0.003614398
0.003496182
0.003770211
0.003770323
0.003568626
0.003499527
0.003614348
0.003494406
0.003770087
0.003769343
0.003567547
0.003498329
0.003612276
0.003493639
0.00376969
0.003770045
0.003567508
0.003497025
0.003611683
0.003494293
0.003769636
0.003769709
0.003567301
0.00349815
0.003608533
0.003496942
0.003768932
0.003768067
0.003569281
0.003500439
0.003602218
0.003498424
0.003769594
0.003769749
0.003572886
0.003500899
0.003593006
0.003502635
0.003837815
0.004143751
0.003980529
0.003612824
0.00352983
0.004052194
0.003856986
0.003770307
0.003767951
0.003575487
0.003501869
0.003571834
0.003499485
0.003833686
0.005325823
0.003772359
0.003767574
0.003768356
0.003595916
0.003497232
0.003561938
0.003493061
0.003657026
0.003741162
0.003703809
0.003769025
0.00376676
0.003578256
0.003489984
0.003576964
0.003490207
0.003583096
0.003695808
0.003673607
0.003767218
0.003765638
0.003589998
0.003489016
0.003587869
0.00348716
0.003679968
0.003677951
0.003705851
0.003768542
0.003766213
0.003590298
0.003489539
0.00358959
0.003487046
0.003782453
0.003714739
0.003739095
0.003770524
0.003767239
0.003591428
0.003489826
0.003596273
0.003487008
0.003906286
0.003751306
0.003779229
0.003772384
0.003768452
0.003596439
0.003489683
0.003601377
0.003487091
0.004098436
0.003796392
0.003873755
0.003774053
0.003769466
0.003600014
0.0034897
0.003603143
0.003487535
0.00443396
0.004011575
0.00392173
0.009888928
0.003981894
0.004110583
0.00397871
0.003775042
0.003601381
0.003489866
0.003844866
0.00357442
0.003492087
0.003848008
0.003561546
0.003500376
0.003534874
0.004047871
0.003859239
0.003613181
0.003535523
0.004038737
0.003859866
0.003764202
0.005305099
0.003763766
0.009497319
0.003982097
0.003905645
0.0097075
0.003975157
0.003850353
0.00357243
0.003500237
0.003852049
0.003562571
0.003505252
0.003531684
0.004040695
0.003857531
0.003610827
0.0035324
0.004038548
0.003857874
0.003766002
0.005307844
0.003765085
0.009589479
0.003977313
0.003907619
0.00970134
0.003976069
0.00385085
0.00357475
0.003505729
0.003853742
0.003565231
0.003506135
0.003532128
0.004038619
0.003858028
0.003611094
0.003532294
0.004037681
0.003857814
0.003765937
0.005307437
0.00376565
0.009669498
0.003981956
0.003908119
0.009710802
0.003978125
0.003854847
0.003575598
0.003509761
0.003854617
0.003571999
0.003506917
0.003532232
0.004037892
0.003858144
0.003611266
0.003532323
0.004037684
0.00385818
0.003766168
0.005306332
0.00376599
0.009697255
0.003981879
0.003907894
0.009713104
0.003981184
0.003856493
0.003573854
0.003512976
0.003855311
0.003565867
0.003509815
0.003532224
0.00403822
0.003858047
0.003610842
0.003532116
0.004037833
0.003858182
0.003766311
0.005304524
0.003766317
0.009709693
0.003981019
0.003908229
0.009703807
0.003981889
0.003856368
0.003564945
0.003508552
0.003855788
0.003575808
0.003506505
0.003532162
0.004037562
0.0038577
0.003610949
0.003532029
0.004037797
0.003857937
0.003765872
0.005303913
0.003766063
0.009713066
0.003978534
0.003905626
0.009675399
0.003982333