/*--------------------------------*- C++ -*----------------------------------*\
  =========                 |
  \\      /  F ield         | OpenFOAM: The Open Source CFD Toolbox
   \\    /   O peration     | Website:  https://openfoam.org
    \\  /    A nd           | Version:  7
     \\/     M anipulation  |
\*---------------------------------------------------------------------------*/
FoamFile
{
    version     2.0;
    format      ascii;
    class       surfaceScalarField;
    location    "0.08";
    object      phi;
}
// * * * * * * * * * * * * * * * * * * * * * * * * * * * * * * * * * * * * * //

dimensions      [0 3 -1 0 0 0 0];

internalField   nonuniform List<scalar> 
233911
(
-0.001637194
0.001752666
-0.0001394732
2.400102e-05
-0.001854693
0.001886696
-1.833111e-05
-1.367164e-05
-0.001869594
0.001909651
-2.859443e-05
-1.146276e-05
-0.00189156
0.001925801
-2.622556e-05
-8.015394e-06
-0.001912113
0.001946558
-2.002823e-05
-1.441647e-05
-0.001923783
0.001956027
-2.04164e-05
-1.18274e-05
-0.001936297
0.001969158
-2.041474e-05
-1.244682e-05
-0.001948802
0.001982015
-2.077305e-05
-1.24401e-05
-0.001963693
0.001997992
-2.149456e-05
-1.280393e-05
0.03730676
0.0005150056
0.001369244
-0.0007270443
0.001290791
-0.0003041438
-0.0002526113
-0.008885306
-0.009462245
-0.01033488
-0.01051557
0.03645917
-0.001026448
0.0008017813
-0.001156303
0.001527694
0.0002290849
0.000471783
0.03658865
-0.0004374767
-9.96211e-05
-0.001189649
0.001386893
0.0001590769
5.129693e-05
0.03690126
-0.0006973722
-9.616238e-05
-0.001216281
0.001438004
0.000134237
0.000124963
0.03722311
-0.0005053759
-6.589624e-05
-0.001259995
0.001396514
7.982653e-05
3.307951e-05
0.03751445
-0.000567811
-4.260621e-05
-0.001260692
0.001427186
9.323764e-05
5.934737e-05
0.03781159
-0.0005852343
-2.37082e-05
-0.001264354
0.001432417
9.165399e-05
5.20875e-05
0.0381443
-0.0006773468
-3.095771e-05
-0.001261423
0.001457541
0.0001075914
7.187772e-05
-0.000803487
-3.125538e-05
-0.001256068
0.0001252586
0.03853678
0.001482993
9.008149e-05
0.03810803
-6.083733e-05
0.002943614
-0.009559578
-0.009591529
-0.01067666
-0.01064803
0.03677225
-0.001194551
0.001503882
0.03657515
-0.0007770294
0.0005366467
0.03673331
-0.0009386745
8.314362e-05
0.03695821
-0.0008154888
8.521352e-05
0.03724374
-0.0008664079
1.307084e-05
0.03751247
-0.000863132
9.166617e-06
0.03778877
-0.0009539509
3.047193e-07
-0.001096152
-5.317676e-06
0.03808675
0.03830524
-0.0005396211
0.003253697
-0.009634389
-0.009704728
-0.01091635
-0.01082468
0.03702221
-0.00142546
0.001513936
0.03652351
-0.00107657
0.0007982382
0.03666969
-0.001196334
0.0001114797
0.03685852
-0.001102631
9.831601e-05
0.03708016
-0.001107507
1.946218e-05
0.0372825
-0.001082582
1.710997e-05
0.03746313
-0.00113147
-3.115408e-06
-0.001235112
1.350108e-06
0.03760074
0.03827222
-0.001083727
0.003720922
-0.009678722
-0.009759106
-0.01105993
-0.01095128
0.0369026
-0.001656401
0.001600566
0.036236
-0.001416981
0.001007013
0.0364135
-0.001465679
9.18414e-05
0.03658036
-0.001410217
0.0001407308
0.03685088
-0.001384234
6.20534e-06
0.0370458
-0.00129747
1.996221e-05
0.03715819
-0.001236037
-7.817089e-06
-0.001212667
7.766318e-07
0.03713496
0.03824305
-0.001526026
0.00392214
-0.009751822
-0.009785949
-0.0111589
-0.01102622
0.03694501
-0.00192255
0.001564187
0.03623225
-0.001740283
0.001036063
0.03645308
-0.001781874
9.536943e-05
0.03663204
-0.001724905
0.0001357249
0.03688468
-0.001651059
1.418777e-05
0.03706431
-0.001496969
1.986239e-05
0.03709254
-0.001266104
1.842773e-06
-0.001022232
7.139378e-06
0.03689496
0.03813836
-0.00183935
0.004026342
-0.009746303
-0.00980034
-0.01122038
-0.01108435
0.03689744
-0.002179207
0.001497579
0.03616618
-0.002080902
0.001071876
0.03641374
-0.002138575
0.0001091361
0.03664419
-0.00207511
0.0001197601
0.03698382
-0.001984074
-6.611837e-06
0.03722124
-0.001752968
1.857312e-05
0.03729038
-0.001348863
1.361924e-05
-0.0007788029
7.851854e-06
0.0370391
0.03828653
-0.002188504
0.004115081
-0.009767243
-0.009853934
-0.01128621
-0.01114508
0.03693713
-0.002440191
0.001610391
0.03614605
-0.002382094
0.001092264
0.0364143
-0.002552413
0.0001455903
0.03677764
-0.002539659
0.0001012141
0.03725968
-0.002449854
-1.626501e-05
0.03764792
-0.002160597
1.9392e-05
0.03780865
-0.001521175
1.158179e-05
-0.0005520105
-2.378519e-06
0.03758423
0.03830762
-0.002463598
0.004129753
-0.009793301
-0.009862742
-0.0113142
-0.01119204
0.03702614
-0.002498647
0.001339938
0.03623108
-0.002645804
0.001058777
0.03649969
-0.002991998
0.000170975
0.03693235
-0.00309911
0.0001267896
0.0376239
-0.003132314
-9.096134e-06
0.03832435
-0.002892646
3.159926e-05
0.03875045
-0.001971401
2.413405e-05
-0.0004691646
3.851905e-06
0.03866375
0.03796704
-0.002500469
0.003985285
-0.009756947
-0.009766861
-0.01124566
-0.01114599
0.0367827
-0.002613347
0.001299046
0.03600271
-0.002892944
0.001027125
0.03636007
-0.003522581
0.0001732275
0.03700481
-0.003856769
0.0001129188
0.03806604
-0.004187466
-6.078554e-06
0.03930511
-0.004147826
1.610721e-05
0.040135
-0.002813465
1.217743e-05
-0.0006439571
-2.960603e-05
0.0403394
0.03790958
-0.002384357
0.0039111
-0.009699352
-0.009844701
-0.01126602
-0.01112672
0.03657097
-0.002550704
0.001275965
0.03569287
-0.003079411
0.001064566
0.03606035
-0.004063472
0.0001734099
0.03688621
-0.004781433
9.880353e-05
0.03852293
-0.005778602
-4.55782e-05
0.04069429
-0.00637141
5.221909e-05
0.04229956
-0.004428592
9.853326e-06
-0.001010621
1.239414e-05
0.04265383
0.03760984
-0.002036553
0.003797097
-0.009680047
-0.009809906
-0.01120567
-0.01105912
0.03602137
-0.002428071
0.001465835
0.03498359
-0.003106636
0.001065003
0.03530657
-0.004536887
0.000150434
0.03627088
-0.005767613
2.187262e-05
0.03876838
-0.008089832
-0.0001862707
0.04253211
-0.009879987
-0.0002551511
0.04487981
-0.006805827
2.953772e-05
-0.001641031
-0.0001119563
0.04562217
0.03703399
-0.001380995
0.003883687
-0.00966978
-0.009702123
-0.01115458
-0.01104675
0.03518493
-0.001837265
0.001258251
0.03383738
-0.002794197
0.001035115
0.03406826
-0.004833596
6.58204e-05
0.03523324
-0.006861715
-7.087077e-05
0.03841287
-0.01060324
-0.0006662322
0.04499139
-0.004658501
-0.0001017431
-0.002387661
-0.00492527
-0.004385326
0.05037932
-0.005679832
4.462734e-05
0.0005247765
-0.005364089
-0.001719239
-0.002248445
0.0004865845
-0.000819809
0.0499743
0.001462465
-0.0001168115
0.03649544
-0.0003905964
0.003867525
-0.009644882
-0.009691645
-0.01105967
-0.01095717
0.03419833
-0.0008079627
0.001267808
0.03224855
-0.001884469
0.001040056
0.03153931
-0.004136812
1.245583e-05
0.03237843
-0.007407306
-0.0002935287
0.009010042
-0.0127758
-0.001417435
0.007397508
0.009945353
0.009615529
0.009360151
-0.004706335
-0.0003022755
0.01470846
-4.665724e-05
-0.01274078
-0.002078622
-0.002241485
-0.002268486
-0.001012261
-0.01643304
-0.0001108281
-0.0004084407
0.0002405925
0.0002926111
0.0005622184
0.01360844
0.03587178
0.0009941974
0.003779406
-0.009689051
-0.009529969
-0.01094171
-0.01087525
0.03289828
0.0008171442
0.001348386
0.0303634
-0.0002624198
0.0009128356
0.02826351
-0.002034682
-2.246917e-06
0.02592012
-0.004918561
-0.0001453521
0.006830428
-0.009469709
-0.001717908
0.004362922
0.007453716
0.005684868
0.005836751
-0.004667567
-0.0005386724
0.001611485
0.001691758
0.001847081
0.001049593
0.0009618347
-0.0003897161
0.0002158549
-0.0007581664
-2.980695e-05
0.03512306
0.002957672
0.003379562
-0.009513803
-0.009389147
-0.01080162
-0.01076153
0.03174428
0.002985748
0.001210179
0.02854863
0.002030213
0.0009030159
0.02550467
0.001032562
-2.328033e-05
0.02123553
-0.0003748567
-0.000274568
0.004318144
-0.002959001
-0.001482419
0.003251773
0.004598926
0.004038401
0.003922294
-0.002399383
-0.0002689249
0.0007999932
0.0008279502
0.0008985042
0.0005377104
0.0003670281
-0.0001162491
3.747367e-05
-0.0002869024
-1.350228e-06
0.03439702
0.005370402
0.00300066
-0.009538954
-0.009228559
-0.01057396
-0.01046894
0.03077368
0.00548925
0.001119835
0.02703373
0.005038179
0.0007319846
0.02326465
0.004840418
-3.877102e-05
0.01859159
0.004522342
-0.000224142
0.003116555
0.003708377
-0.001199708
0.003039854
0.00355039
0.003417123
0.001428015
-0.0002632317
-0.0001342504
0.0005705073
0.0004983117
0.0005925488
0.0004246541
0.0001315069
-6.1125e-05
2.266771e-05
-8.993891e-05
-3.110702e-06
0.0337931
0.007656179
0.003223328
-0.009477745
-0.008986235
-0.01045532
-0.0103829
0.03017831
0.008004324
0.001099718
0.0264287
0.008210675
0.0005771145
0.02245804
0.008859745
-4.867289e-05
0.01771693
0.00964841
-0.0003849578
0.002415595
0.0104767
-0.0009957936
0.0031725
0.003062318
0.003293987
-0.0008578295
0.001707353
-6.938587e-05
0.0004624398
0.0003177211
0.0004404672
0.0004148293
-5.27367e-05
-1.878886e-05
1.064882e-05
5.669122e-05
4.185508e-06
0.03371422
0.009836
0.003234383
-0.009498822
-0.008827468
-0.01046579
-0.01033634
0.03036029
0.01036307
0.0009951761
0.02692057
0.01124724
0.0004031566
0.02316171
0.01271899
-0.0001003868
0.01845907
0.01473601
-0.000384959
0.002217131
0.01736518
-0.001041971
0.003660421
0.003135163
0.003599843
-0.003028409
0.003687194
-6.552991e-05
0.0004543226
0.000252161
0.0004349862
0.0004824061
-0.0002106683
-2.86367e-06
1.400849e-05
0.0001976036
1.919963e-06
0.03406011
0.01161607
0.003489381
-0.009599267
-0.008790986
-0.0105529
-0.01038641
0.03111314
0.01226254
0.001047504
0.02825785
0.01376707
0.0003354574
0.02503706
0.01605421
-0.0001144229
0.02088361
0.01948912
-0.00059966
0.002414251
0.02435148
-0.001116152
0.004564473
0.003696285
0.004338452
-0.005291939
0.005831627
-0.0001038518
0.0005545735
0.0002538965
0.0005355018
0.000634443
-0.0003675341
1.871559e-06
2.181491e-05
0.0003465013
-2.653517e-06
0.03500581
0.01283172
0.003381043
-0.009699312
-0.008803636
-0.01064899
-0.01045056
0.03271557
0.01353828
0.001014493
0.03061125
0.01548032
0.0003910672
0.02830715
0.01847531
-0.0001169963
0.02520296
0.02305289
-0.0004595743
0.003281797
0.03034502
-0.001739087
0.006468012
0.005046844
0.006151852
-0.007837222
0.008350143
-0.0003001485
0.0008707159
0.0003915322
0.0008175204
0.0009892556
-0.0005605392
5.747113e-06
2.904927e-05
0.0005278279
-2.084888e-06
0.0362186
0.003380661
-0.009857548
-0.008894154
-0.01078579
-0.01056788
0.01333782
0.03478213
0.001023362
0.01395139
0.03389999
0.0004261318
0.01593633
0.03335414
-3.495232e-05
0.01905612
0.0334006
-0.0005192941
0.02352572
0.005701377
-0.002003363
0.01018324
0.008262065
0.01071783
0.03088448
-0.01059549
0.01046539
-0.0004392823
0.001850408
0.0009142814
0.001628486
0.001877584
-0.0008865769
-2.531197e-05
6.042305e-05
0.0008433973
8.068484e-06
-0.01117103
-0.0005518083
0.002546473
0.003584675
0.003660148
0.003356576
-0.01010567
0.008680633
-0.001190216
-0.004326718
0.00577139
9.071276e-05
0.004138744
-0.001358786
-0.001328637
-0.001796491
0.0001767668
-0.003936196
0.003846745
-0.0004075971
-0.0004928759
0.000229192
0.0002914736
0.0002924918
0.000115599
-0.002098433
0.009007875
0.0003664833
-0.0001662566
-0.002571381
-0.002107544
-0.002546342
0.03723521
-0.0002336639
0.0002552839
-0.0007737262
0.001353336
-0.0003393741
-0.0001756241
-0.008362088
-0.01024494
-0.008677
-0.01003742
0.03669868
0.000159555
0.0001857294
-0.001264468
0.001342606
-1.166678e-05
0.0001247726
0.03702155
-0.0004234088
5.025816e-05
-0.001315024
0.001349616
6.092219e-06
9.603122e-06
0.03720822
-0.0002799469
0.0001136195
-0.001339651
0.001347077
-3.924192e-05
1.147421e-05
0.03751527
-0.0003560434
6.255457e-05
-0.001345403
0.001361469
-3.112889e-05
1.50241e-06
0.03781543
-0.0003360604
5.744622e-05
-0.001351904
0.001368452
-3.93022e-05
1.212014e-06
0.03818129
-0.0003938526
4.039635e-05
-0.00135782
0.00138046
-3.559421e-05
5.451345e-07
-0.0004661157
4.047867e-05
-0.001366866
-4.203638e-05
0.03863205
0.00138997
-6.190951e-06
-0.000258803
-0.0002483797
0.009652944
-0.0002422024
-0.000126819
0.0002523106
-0.0004144808
0.0003326904
0.0001576371
-0.0004049356
0.0002312484
0.04073183
-3.403028e-05
0.000850764
-0.0002862365
0.00029085
-0.0003277509
0.0003681777
-0.00993683
-0.01032102
-0.01030282
-0.009663688
0.04255809
-0.001417817
0.000159674
0.0428595
-0.0004141179
0.0001726389
0.04331629
-0.0008498012
-0.0001265601
0.04356215
-0.0006061158
1.44178e-05
0.04387733
-0.0006999896
-1.383842e-05
0.04420664
-0.0007010747
1.198979e-05
0.04458825
-0.0008017945
-4.6238e-06
-0.0009451103
-1.354028e-05
0.04504953
-0.0004595202
5.141132e-05
0.01001079
-4.160901e-05
-0.0006490131
0.0004001674
-0.0004131927
0.0004829472
0.04288561
-0.0005313144
0.00353849
-0.01067608
-0.01085954
-0.01050754
-0.01094004
0.04342843
-0.001481955
0.001025197
0.04303498
-0.0006332161
0.0011492
0.04330634
-0.001126723
8.869866e-05
0.04350492
-0.0009109567
0.000191477
0.04375727
-0.001018062
7.879821e-05
0.04403937
-0.001017163
4.314605e-05
0.04434704
-0.001123027
1.387173e-05
-0.001279284
-8.097294e-06
0.04468399
-0.0004168607
0.00010256
0.01021184
-8.7896e-05
-0.0009073742
0.0004832162
-0.0003811142
0.0005780955
0.04199111
-0.001063901
0.004975947
-0.01102501
-0.01100686
-0.009921952
-0.01122695
0.04278814
-0.001718989
0.0009539376
0.04254786
-0.001101172
0.001506478
0.04284546
-0.001410371
9.752073e-05
0.0430696
-0.001249424
0.0002126463
0.04329652
-0.001303286
7.77626e-05
0.04354163
-0.001282877
3.77208e-05
0.04374948
-0.001325284
-8.714158e-06
-0.001432083
-1.032057e-05
0.04391395
-0.0003907871
0.0001474001
0.01024482
-0.0001200185
-0.001069945
0.0005258915
-0.0003596978
0.0006284053
0.04199208
-0.001695403
0.005646235
-0.01110881
-0.01103147
-0.009855812
-0.01128979
0.04276758
-0.0020012
0.001107279
0.04240834
-0.001572358
0.001837433
0.04263935
-0.001744992
0.0001954548
0.04286185
-0.001583223
0.0002520298
0.04305383
-0.001596653
0.0001075935
0.04324794
-0.001508339
5.131617e-05
0.04334297
-0.001430735
2.601348e-06
-0.001396735
-2.202095e-06
0.0433106
-0.0003720974
0.0001423367
0.01025713
-0.0001188428
-0.00116669
0.0005532096
-0.0003436936
0.0006544485
0.04201455
-0.002080645
0.005587385
-0.01113336
-0.01104345
-0.009861122
-0.01125662
0.04282552
-0.002182752
0.0009347712
0.04233987
-0.001997397
0.001946744
0.04253739
-0.002095157
0.0002480203
0.04277181
-0.001977493
0.0002955733
0.04298011
-0.001875161
8.4399e-05
0.04316405
-0.001717841
4.542021e-05
0.04320554
-0.001458102
-1.227766e-05
-0.001166838
-9.63263e-06
0.04299241
-0.0003585405
0.0001631141
0.01021892
-0.0001151983
-0.001219821
0.0005727303
-0.0003322941
0.000676859
0.04204354
-0.002498825
0.005734427
-0.01111179
-0.0110625
-0.009874334
-0.01128482
0.0427766
-0.002428047
0.001009816
0.04229208
-0.002450458
0.00200945
0.04246992
-0.002515348
0.0003514938
0.04272797
-0.002419887
0.0003041026
0.04303737
-0.002249829
5.866054e-05
0.04331343
-0.002015026
3.968988e-05
0.04342108
-0.001545649
-6.484341e-06
-0.0008786707
-1.357016e-05
0.04315434
-0.0003543731
0.0001468379
0.01018267
-0.0001252821
-0.001183585
0.0005766977
-0.0003229817
0.0006857994
0.04197383
-0.002586194
0.005310246
-0.01105699
-0.01098398
-0.00987453
-0.01116612
0.04280354
-0.002487143
0.000839773
0.04228664
-0.002741049
0.00189976
0.04248951
-0.002926708
0.0003540759
0.04280305
-0.002937293
0.0003050779
0.04328214
-0.00280468
5.95025e-05
0.04377276
-0.00251208
2.582701e-05
0.04400409
-0.001744599
-2.080024e-05
-0.0006312058
-3.384962e-05
0.0437881
-0.0003473395
0.0001802538
0.01013235
-0.0001497434
-0.001164823
0.0005863365
-0.000320642
0.0006894037
0.04209065
-0.002536661
0.005082399
-0.01100686
-0.01098362
-0.009902749
-0.0111996
0.04264333
-0.002795682
0.001095795
0.04211931
-0.003046887
0.001888632
0.04243694
-0.00343006
0.0003567003
0.04293295
-0.003604016
0.0002975011
0.04369734
-0.003628118
4.995661e-05
0.04452966
-0.003341818
2.901334e-05
0.04511155
-0.002282982
-1.936839e-05
-0.0005470512
-4.243971e-05
0.04507368
-0.000346292
0.0001949143
0.01012745
-0.0001725043
-0.001134425
0.0005839527
-0.0003260827
0.0006787945
0.04188251
-0.002524666
0.005117838
-0.01099612
-0.01096872
-0.009903936
-0.01115828
0.04236779
-0.003135824
0.00115391
0.04184709
-0.003362525
0.00186346
0.04225597
-0.004003906
0.0003381906
0.04295519
-0.004469323
0.0002790066
0.04418045
-0.004863871
4.415813e-06
0.04568639
-0.00481534
-1.631397e-05
0.04676845
-0.003292318
-6.054455e-05
-0.0008175984
-9.305019e-05
0.04710244
-0.0003440805
0.0002273716
0.01010534
-0.0001755819
-0.001152932
0.0005884248
-0.0003252068
0.0006824638
0.04159613
-0.002511861
0.005421416
-0.01097331
-0.01100029
-0.009902433
-0.01124322
0.041956
-0.003234303
0.001014579
0.04136523
-0.003627819
0.001920622
0.04190579
-0.004620945
0.0002498976
0.0429272
-0.005620954
0.0002290222
0.04476134
-0.006672069
-7.151959e-05
0.04727058
-0.007233629
-3.873523e-05
0.04935298
-0.005274358
-9.050369e-05
-0.001328136
-5.889025e-05
0.0499348
-0.0003445238
0.0002212211
0.01012618
-0.0001662473
-0.001173575
0.0005866324
-0.0003274722
0.0006835923
0.04112485
-0.002128814
0.005270042
-0.01094813
-0.01095897
-0.009869103
-0.01120464
0.04139505
-0.002862404
0.0008237314
0.04054342
-0.003667659
0.001956472
0.04110551
-0.005212592
0.0001799966
0.0423636
-0.006941741
8.45676e-05
0.04501842
-0.009289956
-0.0002232
0.049372
-0.01156589
-0.000276469
0.05248912
-0.008356558
-5.385893e-06
-0.002482613
-0.0001608003
0.05369244
-0.0003504419
0.0002137013
0.01014183
-0.0001233675
-0.001216447
0.0005878566
-0.0003343429
0.0006870225
0.04060048
-0.00154642
0.005758146
-0.01091071
-0.01100743
-0.009843914
-0.01129529
0.0404622
-0.002233231
0.0007673579
0.0392307
-0.003444989
0.002043946
0.03959477
-0.005557551
4.671123e-05
0.04104975
-0.008394485
-7.311191e-05
0.04452357
-0.01280624
-0.0006237718
0.05172835
-0.005133727
8.650752e-05
-0.004519495
-0.004960115
-0.004345585
0.05836503
-0.005677711
0.0001167019
-0.001989849
-0.005461236
-0.001936509
-0.0008861652
0.0003092531
-0.0009380294
0.05822233
-0.0002526218
-8.577303e-05
-0.0003750015
0.0001365746
0.01020813
-1.336185e-05
-0.001191231
0.0005600089
-0.0003513022
0.000631994
0.03978233
-0.0003910613
0.00578342
-0.0109011
-0.01096798
-0.009862904
-0.0111216
0.03912116
-0.00121758
0.0009133303
0.03724117
-0.002571272
0.002046335
0.03682531
-0.004963029
-0.0001662122
0.03730613
-0.008798026
-0.0003708043
0.01004874
-0.01455762
-0.001145028
0.009637551
0.009700862
0.009397952
0.0001817677
0.0107468
-0.005896665
-0.0001168901
-1.162033e-05
0.01633023
-2.33353e-06
-0.01257042
-0.002226786
-0.002508519
-0.002241736
-0.00244653
-0.01665211
5.98076e-05
0.0003684752
-4.906656e-05
0.01538673
-0.0003954646
-3.428285e-05
0.01017093
0.0001792704
-0.001022338
0.0005054614
-0.000369065
0.0005713035
0.03877997
0.00144394
0.005309215
-0.01080082
-0.01073738
-0.009596171
-0.01101041
0.03765376
0.0006943472
0.0005626726
0.03446008
-0.0005334507
0.002068694
0.03199712
-0.002531967
2.96503e-05
0.02929826
-0.005814537
-0.0004299786
0.007219975
-0.01053041
-0.001237056
0.005407171
0.006996225
0.005166829
0.0003241299
0.006498963
-0.005799097
-0.0001613832
0.001454713
0.001732833
0.001500217
0.0016696
-3.043552e-06
0.0009229103
-0.0004732973
0.0004605496
-0.0009095302
2.411118e-06
-0.0003987536
-0.0002563585
0.01013542
0.0003360291
-0.0007743633
0.0005024401
-0.0004057189
0.0004671198
0.03830288
0.003356107
0.006014821
-0.01085649
-0.01072384
-0.01052228
-0.01074769
0.03622224
0.003365803
0.0006193629
0.03223368
0.002297141
0.002060985
0.02860215
0.001182412
-0.0001061326
0.02386018
-0.0006749848
-0.0006721532
0.004475816
-0.003460954
-0.001237912
0.003933263
0.004285718
0.003851425
0.0001294228
0.004193227
0.00291098
-0.002719242
-3.857192e-05
0.0003029391
0.001525717
-0.002581174
2.969903e-05
-0.0008056393
-0.0001471556
0.001675614
-0.0004240978
-0.000439829
0.009944683
0.0005143592
-0.0002556023
0.0003885206
-0.0004346676
0.0003124478
0.03787259
0.005705045
0.004792101
-0.01066814
-0.01051316
-0.0109089
-0.009922772
0.03544076
0.006227794
0.000689675
0.03105732
0.005762457
0.00165011
0.02677231
0.005614276
-0.0001856257
0.0211294
0.005107183
-0.0003634026
0.003455016
0.004138942
-0.001132173
0.003287875
0.003430537
0.003288544
5.358806e-05
0.001480472
0.002162992
-0.0003048478
6.281112e-05
-5.990557e-06
0.00145268
-0.0008761412
-0.0004332566
-4.915184e-05
-8.814012e-05
-0.0004543827
-0.0006468437
0.009871865
0.0007424438
6.106675e-05
0.0002930799
-0.0004591283
0.0001977127
0.03774908
0.008411301
0.004614671
-0.01060116
-0.01045305
-0.01054908
-0.01024339
0.03523144
0.009204027
0.0006411248
0.03069879
0.009472607
0.001399616
0.02614327
0.01031966
-0.0001985341
0.0200538
0.01131704
-0.0005053474
0.00288793
0.01222828
-0.000832771
0.003099951
0.002835833
0.002977726
-1.274305e-05
-0.0008731205
0.001623362
0.001988893
0.0001615379
-9.013037e-05
-0.0004479222
-0.0005675139
0.001118007
-5.968049e-07
-1.18435e-05
-0.0004846275
-0.0008529001
0.009800527
0.0009025075
0.0003582825
0.0002241482
-0.0004803174
0.0001381885
0.03832782
0.01099576
0.003945126
-0.01052022
-0.01033164
-0.01049648
-0.01027467
0.0358307
0.0119949
0.0007014265
0.03142443
0.01304152
0.001240511
0.02702
0.01484576
-0.000222052
0.0210667
0.01732537
-0.0004399929
0.003046121
0.02022575
-0.0006699402
0.00351674
0.002946577
0.003187762
-4.652033e-05
-0.003179695
0.001761435
0.004252291
0.0002586107
-0.0001486547
-0.00183115
-0.0006691186
0.002609684
1.261288e-05
2.662668e-05
-0.0004931578
-0.001004951
0.009790416
0.001034563
0.0004320348
0.0002052376
-0.0004837089
0.0001253751
0.03895324
0.01310193
0.003967593
-0.01049442
-0.01033809
-0.01045177
-0.01025335
0.03702327
0.01431593
0.000656441
0.03315224
0.01605539
0.00119263
0.02930652
0.01876244
-0.0001853884
0.02398921
0.02277878
-0.0007357552
0.003710377
0.02800878
-0.0004865188
0.004319971
0.003470405
0.004075794
-7.00508e-05
-0.005429076
0.002398625
0.006456933
0.0003539459
-0.0001912466
-0.003589895
-0.00110735
0.00481789
-2.186156e-05
9.246366e-05
-0.0004985693
-0.001131126
0.009788378
0.001138182
0.0004869558
0.000189884
-0.0004846695
0.0001167682
0.03975429
0.01457765
0.003807844
-0.01050862
-0.01036451
-0.01047356
-0.01031011
0.03866661
0.01585105
0.0005670555
0.03586431
0.01808
0.001168754
0.0331221
0.02162542
-0.0002377582
0.02894302
0.02699097
-0.0004926861
0.004794129
0.0356287
-0.001116264
0.005844797
0.004534994
0.005526353
0.0002142204
-0.0079664
0.002761905
0.009954127
-0.000169722
-0.0002293748
0.0002357414
-0.006285051
-0.0003833581
0.0006398721
0.002880629
0.003141542
-0.0005003107
-0.001187118
0.009828118
0.001177479
0.0004750874
0.0001848796
-0.0004848583
0.0001125247
0.04102917
0.004064791
-0.01064955
-0.01049915
-0.01058873
-0.01042971
0.0150315
0.04102382
0.0005427836
0.01633698
0.03970515
0.001218517
0.01860628
0.03916242
-0.0001021878
0.02223539
0.03846919
-0.0004861436
0.02765104
0.008084262
-0.001130664
0.01061364
0.007806483
0.01041989
0.03630092
0.0003183834
0.006722906
0.01295194
-6.446815e-05
-0.0118445
-9.060965e-05
-0.000649222
-0.003306686
0.003934351
0.0001121672
-0.0005004395
-0.001214102
0.009860812
0.000491148
0.0001835001
-0.0004850128
0.0001126055
0.001157289
-0.0123288
0.0003315948
0.01458041
-0.0001094388
-0.0135473
0.01107353
-0.001236831
-0.000140451
-0.004920286
0.005905716
0.0001151579
0.004733976
-0.001623898
-0.001219378
-0.001614007
0.002015455
0.0003728317
-0.004954422
-0.0002378716
-0.001385405
0.0002916185
-0.001658284
-0.004962264
-0.006012072
-0.005859276
0.002433354
0.01995634
-0.002102669
1.626392e-05
0.00897598
0.0003890157
-1.714321e-05
-0.002579875
-0.002116512
-0.002565061
0.03752692
0.0002323466
0.0001487346
-0.008737102
-0.0101101
-0.008773337
-0.01003218
0.03648476
0.0009494488
0.0002784337
0.03677367
-0.0002410797
2.434222e-06
0.03698587
-0.0001619156
6.332966e-05
0.0372978
-0.00029074
4.136427e-05
0.03760743
-0.0002875836
3.540122e-05
0.03797503
-0.0003486584
2.146051e-05
-0.0004288469
1.773137e-05
0.03842662
-0.0004944603
-9.778406e-05
0.01021041
-0.0002959016
4.268697e-05
0.0002491414
-0.0004872625
0.0002667377
0.04063826
0.00278785
0.0006675326
-0.0006380418
-0.000116208
-0.0006762977
-0.0001028822
-0.01056248
-0.01069023
-0.0106335
-0.009823236
0.04244539
-0.001212654
-0.0002024575
0.04271017
0.0005708737
0.0002864335
0.04308732
-0.0006945389
-5.024629e-05
0.04332449
-0.0004371549
5.249172e-05
0.04359118
-0.0005688208
-2.449982e-06
0.04391495
-0.0006169123
1.755197e-05
0.04430349
-0.0007470584
5.232368e-06
-0.0009059366
-1.272161e-06
0.04476831
0.03888628
-0.002692226
-0.002373057
-0.0005047258
0.001008574
-0.001244505
0.001254487
-0.0004151492
0.001605556
-0.001112255
0.001162526
0.04110394
0.001614122
0.002494564
0.04180614
-0.0013943
0.0005046413
0.04248323
1.225191e-05
0.001030731
0.04279626
-0.001041943
0.0001230709
0.04325127
-0.0008522134
0.0001515259
0.04366125
-0.0009488618
4.886067e-05
0.04403345
-0.0009687926
2.28298e-05
0.04440096
-0.001102826
2.125315e-06
-0.001271206
-1.113777e-05
0.04476927
0.03967257
-0.001901207
-0.004414767
-0.001105945
0.001313012
-0.001231411
0.001527909
0.04083325
9.969991e-05
0.00532969
0.04165432
-0.001979053
0.0007176189
0.04245917
-0.0007758163
0.001489695
0.04271201
-0.001392301
0.0001950432
0.0431471
-0.001247776
0.0001731178
0.04352543
-0.001283119
3.369481e-05
0.04384535
-0.001250255
-7.404551e-07
0.04408662
-0.001319592
-3.321579e-05
-0.001441929
-2.593904e-05
0.04427296
0.04120562
-0.001369043
-0.005785051
-0.001122821
0.001419135
-0.001103905
0.00178557
0.04102485
-0.0007898469
0.006716544
0.04137034
-0.002190643
0.0009733789
0.0421091
-0.001384671
0.00170753
0.04225267
-0.001685745
0.0003453318
0.04268102
-0.001628057
0.0002039602
0.0431615
-0.001672
1.599778e-05
0.04349135
-0.001530119
1.321787e-06
0.04367741
-0.001475437
-2.761348e-05
-0.00142702
-2.37898e-05
0.04368409
0.04183851
-0.001086811
-0.006033362
-0.001177182
0.001396679
-0.001134308
0.001798144
0.04112743
-0.00120023
0.006708849
0.04145686
-0.002403315
0.0008180066
0.04220348
-0.001920454
0.001735916
0.0424189
-0.002049881
0.0003967311
0.04282523
-0.002021388
0.0002825705
0.04321447
-0.002038601
6.176675e-05
0.04350741
-0.001796183
1.853672e-05
0.04357674
-0.001522436
-3.460093e-05
-0.001211602
-3.393586e-05
0.04338562
0.0421532
-0.0009485967
-0.006748039
-0.001098583
0.001532778
-0.001019771
0.002012103
0.04114393
-0.001558839
0.007102301
0.04133223
-0.002511932
0.0009301363
0.04222801
-0.002418432
0.001611641
0.04255048
-0.002436958
0.0004161045
0.0429467
-0.002442048
0.0003285432
0.04333106
-0.002430555
6.625638e-05
0.04366386
-0.00210615
1.685206e-05
0.04380658
-0.001633868
-3.776725e-05
-0.0009361346
-3.597902e-05
0.04355352
0.04267957
-0.0008794581
-0.006654161
-0.001240858
0.001374794
-0.001137021
0.001877862
0.04103386
-0.001997938
0.007395055
0.04112351
-0.002713241
0.0009514302
0.04197464
-0.002861321
0.001491515
0.04257154
-0.002932771
0.000252999
0.04316128
-0.002985199
0.0002584863
0.04369036
-0.002966927
6.679367e-05
0.04421418
-0.002610835
6.691556e-06
0.04443372
-0.001831635
-4.257575e-05
-0.000701182
-5.008617e-05
0.044215
0.04287803
-0.0008558889
-0.007175285
-0.001183247
0.001485203
-0.001069549
0.002010442
0.04122073
-0.002402607
0.007144367
0.04120834
-0.002859694
0.001254646
0.04194836
-0.003165726
0.001453012
0.04260375
-0.003423014
0.0001915535
0.04336937
-0.003654685
0.0002013676
0.04408642
-0.00373535
0.0001013336
0.04494973
-0.003450011
4.879346e-06
0.04553784
-0.00239333
-4.578854e-05
-0.0006446187
-6.388666e-05
0.04550273
0.04282205
-0.0007884946
-0.006796836
-0.001261923
0.00139765
-0.001156131
0.00189696
0.04094042
-0.002690177
0.007287041
0.0410127
-0.003068928
0.001290864
0.04172826
-0.003440853
0.001423028
0.04249112
-0.004012868
0.0001651854
0.04347903
-0.004535233
0.0001716464
0.04459968
-0.004901375
4.978663e-05
0.04610568
-0.004945025
-2.729396e-05
0.04722199
-0.003490866
-7.932666e-05
-0.0009984986
-0.0001030257
0.04758585
0.04209089
-0.0007521811
-0.006593439
-0.00114227
0.001564403
-0.001040842
0.002054123
0.04044121
-0.002548067
0.006928988
0.0404833
-0.003022196
0.0009257636
0.04119516
-0.003661605
0.001429514
0.0419247
-0.004618377
0.0001258622
0.04314953
-0.005644717
0.0001136778
0.04496963
-0.006763491
-2.949996e-05
0.04752648
-0.007462977
-7.76335e-05
0.04965683
-0.005614213
-9.750916e-05
-0.001613214
-8.145826e-05
0.05029411
0.04212746
-0.0007686527
-0.006332155
-0.0011824
0.001513641
-0.001095204
0.001954337
0.04003885
-0.002067712
0.006878299
0.03994079
-0.002896363
0.0007959607
0.04046359
-0.003719495
0.001491558
0.04094904
-0.005082855
0.0001590275
0.04229115
-0.00688485
-1.740451e-05
0.04508313
-0.009520052
-0.0002586248
0.04928747
-0.01172744
-0.0002163406
0.05235794
-0.008646998
-4.307591e-05
-0.003062409
-0.0001317409
0.05377808
0.04137562
-0.0004731878
-0.006521103
-0.001031661
0.001686594
-0.0009439032
0.00210816
0.03924399
-0.00162707
0.007449135
0.03888073
-0.002403177
0.0006374345
0.03907156
-0.003404058
0.001537679
0.03941234
-0.005420352
4.342508e-05
0.04093881
-0.008320431
-0.0001639949
0.04419228
-0.01288931
-0.0005079802
0.05111458
-0.00500587
-5.849084e-05
-0.004358581
-0.004857878
-0.004282414
0.05730363
-0.005446516
-1.989199e-05
-0.001940353
-0.005379918
-0.001932669
-0.001031337
0.0001950548
-0.001055898
0.05691223
-0.000267663
-0.000201909
0.04207416
0.0005572046
-0.007802255
-0.001029701
0.001670075
-0.0009257902
0.001952226
0.03915225
-0.0002447482
0.007323007
0.03778785
-0.0009849448
0.0008594951
0.03713656
-0.002214864
0.001508439
0.03652177
-0.00477217
-0.0001996092
0.03713675
-0.00889934
-0.0004068715
0.009901185
-0.01461832
-0.0008029096
0.009531479
0.009690566
0.009400406
0.0001191459
0.01055975
-0.005694589
-8.899104e-05
6.121279e-05
0.01595061
-2.195701e-05
-0.01227064
-0.002168398
-0.002425643
-0.002176883
-0.002394822
-0.01608079
0.0001187467
0.0002714329
-5.190867e-05
0.01471118
0.0414774
0.001801727
-0.007192233
-0.001114097
0.001477799
-0.0008783835
0.00195407
0.03830907
0.001554828
0.006677968
0.0362563
0.001146538
0.0004839624
0.03484828
-0.0003089991
0.001570856
0.03256138
-0.002438999
-1.662656e-05
0.02952061
-0.005852007
-0.0004365419
0.007223757
-0.01046705
-0.0007576959
0.005265047
0.007153697
0.00524748
4.112648e-05
0.00628997
-0.005482642
-2.576255e-05
0.001491503
0.001715446
0.001492639
0.001701475
-2.301587e-06
0.0009138126
-0.0004727198
0.000463891
-0.0009043684
1.686017e-06
0.03998943
0.002679273
-0.005900638