/*--------------------------------*- C++ -*----------------------------------*\
  =========                 |
  \\      /  F ield         | OpenFOAM: The Open Source CFD Toolbox
   \\    /   O peration     | Website:  https://openfoam.org
    \\  /    A nd           | Version:  7
     \\/     M anipulation  |
\*---------------------------------------------------------------------------*/
FoamFile
{
    version     2.0;
    format      ascii;
    class       volScalarField;
    location    "0.03";
    object      p;
}
// * * * * * * * * * * * * * * * * * * * * * * * * * * * * * * * * * * * * * //

dimensions      [0 2 -2 0 0 0 0];

internalField   nonuniform List<scalar> 
77997
(
27.61116
27.61116
27.61117
27.61117
27.61118
27.61119
27.61121
27.61123
27.61126
27.61116
27.61116
27.61116
27.61117
27.61118
27.61118
27.6112
27.61122
27.61124
27.61116
27.61116
27.61117
27.61117
27.61118
27.61119
27.6112
27.61122
27.61125
27.61116
27.61116
27.61117
27.61117
27.61118
27.61119
27.61121
27.61123
27.61126
27.61116
27.61116
27.61117
27.61117
27.61118
27.61119
27.61121
27.61123
27.61127
27.61116
27.61116
27.61116
27.61117
27.61118
27.61119
27.6112
27.61123
27.61126
27.61131
27.61116
27.61116
27.61116
27.61117
27.61117
27.61118
27.6112
27.61122
27.61125
27.6113
0.1001763
0.1034798
0.1070777
0.1095693
0.1120237
0.1148228
0.1180885
0.1219598
0.1265374
0.657048
0.6631871
0.6903409
0.7044375
0.7229494
0.741518
0.762988
0.7879717
0.816967
1.000968
1.018026
1.033539
1.053741
1.074531
1.101646
1.132781
1.170102
1.213641
1.41366
1.428726
1.452083
1.478885
1.509221
1.545907
1.588687
1.639265
1.698304
1.784925
1.803611
1.82166
1.8518
1.886224
1.930043
1.981911
2.043386
2.115384
2.168925
2.189235
2.211707
2.246378
2.287456
2.338555
2.399551
2.471518
2.555783
2.53253
2.554106
2.576657
2.614054
2.659639
2.71651
2.784974
2.865612
2.96005
2.89256
2.915041
2.940533
2.981072
3.031353
3.093599
3.168763
3.25704
3.360285
3.238239
3.261259
3.28833
3.331239
3.385209
3.451824
3.53244
3.626918
3.73724
3.573775
3.597193
3.626141
3.67124
3.728368
3.798663
3.883745
3.983238
4.099174
3.896131
3.91975
3.950069
3.99688
4.056488
4.129643
4.218167
4.321467
4.441563
4.205604
4.229367
4.26082
4.308974
4.37046
4.445771
4.536825
4.642848
4.765823
4.501303
4.525186
4.557469
4.60655
4.66936
4.746163
4.838892
4.946651
5.071344
4.783137
4.807015
4.839863
4.889504
4.953133
5.030798
5.124466
5.233089
5.358489
5.050856
5.074522
5.107709
5.157548
5.221548
5.299539
5.393487
5.502227
5.627475
5.304506
5.327637
5.360995
5.410732
5.474703
5.552539
5.646194
5.754402
5.878762
5.543761
5.56617
5.599527
5.648881
5.712456
5.789765
5.882656
5.989838
6.112734
27.61116
27.61116
27.61117
27.61117
27.61118
27.61119
27.61121
27.61123
27.61116
27.61116
27.61116
27.61117
27.61117
27.61118
27.6112
27.61121
27.61123
27.61116
27.61116
27.61116
27.61117
27.61118
27.61118
27.6112
27.61122
27.61124
27.61116
27.61116
27.61117
27.61117
27.61118
27.61119
27.6112
27.61123
27.61126
27.61116
27.61116
27.61117
27.61117
27.61118
27.61119
27.61121
27.61123
27.61127
27.61116
27.61116
27.61117
27.61117
27.61118
27.61119
27.61121
27.61123
27.61127
27.61116
27.61116
27.61117
27.61118
27.61119
27.61121
27.61123
27.61126
27.6113
0.1754598
0.1637912
0.1656587
0.1703177
0.1737545
0.1783842
0.1838307
0.1904464
0.1981829
0.5547475
0.6253521
0.6150294
0.6404995
0.6522339
0.6694151
0.6857335
0.705915
0.7292638
0.7563833
0.9168728
0.9844635
1.003382
1.008816
1.0271
1.045943
1.072143
1.10245
1.139088
1.18156
1.382353
1.402344
1.424952
1.441358
1.467187
1.496552
1.532562
1.575068
1.625369
1.68393
1.792432
1.78094
1.801396
1.815591
1.845234
1.878712
1.922305
1.973965
2.035386
2.107144
2.169209
2.165742
2.189262
2.208245
2.242723
2.283122
2.334095
2.394959
2.4669
2.551014
2.540441
2.530992
2.553511
2.574535
2.612162
2.657305
2.714206
2.782615
2.863278
2.95765
2.897961
2.891177
2.914783
2.938814
2.979721
3.029673
3.091979
3.167087
3.25538
3.358574
3.246004
3.237151
3.260834
3.286904
3.330374
3.384117
3.450851
3.531451
3.62597
3.736249
3.581788
3.572617
3.59681
3.624815
3.670545
3.727525
3.797969
3.883037
3.982568
4.098488
3.905243
3.894824
3.919343
3.948794
3.996292
4.055757
4.129119
4.217652
4.321004
4.441103
4.215629
4.204152
4.228955
4.259547
4.308428
4.369803
4.445345
4.536419
4.642508
4.765497
4.512264
4.499721
4.524763
4.556156
4.606016
4.668721
4.745751
4.83854
4.946376
5.071098
4.795187
4.78139
4.806568
4.838511
4.888969
4.952498
5.030414
5.124147
5.232858
5.35829
5.063702
5.048867
5.074079
5.106271
5.156981
5.22088
5.299139
5.393166
5.502007
5.627299
5.317514
5.302527
5.327303
5.359521
5.410178
5.474039
5.552167
5.645889
5.754204
5.878607
5.524916
5.541483
5.565797
5.597947
5.648263
5.711746
5.78934
5.882321
5.989627
6.112582
27.61116
27.61116
27.61116
27.61117
27.61118
27.61119
27.6112
27.61122
27.61116
27.61116
27.61116
27.61116
27.61117
27.61118
27.61119
27.6112
27.61122
27.61116
27.61116
27.61116
27.61117
27.61117
27.61118
27.61119
27.61121
27.61123
27.61116
27.61116
27.61116
27.61117
27.61117
27.61118
27.6112
27.61122
27.61124
27.61116
27.61116
27.61116
27.61117
27.61118
27.61119
27.6112
27.61123
27.61126
27.61116
27.61116
27.61117
27.61117
27.61118
27.61119
27.6112
27.61123
27.61126
27.61116
0.1687076
0.2554065
0.219301
0.234539
0.2331608
0.2410103
0.2474286
0.2564533
0.684756
0.6317336
0.5977789
0.6056721
0.6018804
0.6170315
0.6292434
0.6482392
0.669756
0.9875317
0.9920309
1.009721
1.010425
1.031206
1.048222
1.075412
1.105536
1.142546
1.185005
1.412173
1.413619
1.416898
1.429896
1.449007
1.476246
1.510893
1.552654
1.60258
1.660427
1.77582
1.783108
1.798508
1.81466
1.843317
1.876528
1.920259
1.97191
2.033618
2.105282
2.160961
2.168935
2.184246
2.205506
2.237504
2.277592
2.328174
2.388889
2.460872
2.544793
2.521758
2.531371
2.549371
2.574094
2.610527
2.656078
2.713006
2.781434
2.862286
2.956612
2.880877
2.891321
2.910487
2.938283
2.977802
3.028158
3.090364
3.165426
3.253834
3.356981
3.225116
3.236147
3.256684
3.286918
3.329271
3.383631
3.45037
3.530966
3.62561
3.735927
3.559747
3.571168
3.592622
3.624797
3.669437
3.727017
3.797443
3.882526
3.982188
4.098111
3.881325
3.892963
3.915155
3.948823
3.995347
4.055491
4.128847
4.217398
4.320877
4.44098
4.190321
4.202046
4.224793
4.259569
4.307512
4.369568
4.445102
4.536187
4.642386
4.765374
4.485827
4.497506
4.520628
4.556188
4.605134
4.668536
4.745574
4.838351
4.946297
5.071007
4.767627
4.779186
4.802541
4.838574
4.888147
4.952372
5.030291
5.12399
5.232795
5.358213
5.035276
5.046707
5.070105
5.106346
5.156172
5.22075
5.299018
5.393009
5.501941
5.62722
5.288796
5.300153
5.323443
5.359667
5.409482
5.474003
5.552142
5.645803
5.754183
5.878562
5.527885
5.539052
5.562072
5.598087
5.647563
5.711679
5.789271
5.882207
5.989568
6.112512
27.61116
27.61116
27.61116
27.61116
27.61117
27.61118
27.61118
27.61119
27.61116
27.61116
27.61116
27.61116
27.61116
27.61117
27.61118
27.61119
27.6112
27.61116
27.61116
27.61116
27.61116
27.61117
27.61117
27.61118
27.61119
27.61121
27.61116
27.61116
27.61116
27.61116
27.61117
27.61118
27.61119
27.6112
27.61122
27.61116
27.61116
27.61116
27.61117
27.61117
27.61118
27.61119
27.61121
27.61124
27.61116
27.61116
27.61116
27.61117
27.61117
27.61118
27.6112
27.61122
27.61124
27.61116
0.1676535
0.2212539
0.1808055
0.1876789
0.1868121
0.1920739
0.1971579
0.2039763
0.6862689
0.6319715
0.5973937
0.6089474
0.5994114
0.6188888
0.6291879
0.6486223
0.6693447
1.004175
0.9905116
0.9991203
0.9893497
1.005048
1.019975
1.045338
1.074511
1.110388
1.422003
1.414921
1.415507
1.423507
1.439721
1.466122
1.499803
1.541283
1.590851
1.648122
1.785791
1.783344
1.796228
1.807899
1.834044
1.865837
1.908944
1.960197
2.021685
2.092854
2.169094
2.169373
2.183799
2.202255
2.232948
2.272042
2.322286
2.382751
2.454671
2.53832
2.528387
2.531112
2.548867
2.571403
2.607316
2.652252
2.709066
2.777365
2.858213
2.952382
2.886539
2.890625
2.909856
2.936129
2.975515
3.02552
3.087724
3.162757
3.251189
3.354243
3.229793
3.235067
3.2559
3.28502
3.327573
3.381799
3.448643
3.529278
3.623984
3.734236
3.563697
3.569806
3.59171
3.623012
3.668003
3.725586
3.796174
3.881296
3.981021
4.09693
3.884511
3.891254
3.914103
3.947099
3.994065
4.054297
4.127857
4.216495
4.320063
4.44019
4.192806
4.200037
4.223578
4.257809
4.306256
4.368461
4.444242
4.535453
4.641777
4.76481
4.487591
4.495156
4.519211
4.554302
4.603813
4.667407
4.744731
4.837675
4.945774
5.070564
4.768798
4.776571
4.800964
4.836584
4.886775
4.951223
5.029464
5.123349
5.232327
5.357841
5.035797
5.043693
5.068228
5.104071
5.154543
5.219375
5.298006
5.392256
5.501415
5.626836
5.288913
5.296897
5.321497
5.357341
5.407929
5.472691
5.551199
5.645119
5.753702
5.878226
5.527465
5.535404
5.559825
5.595301
5.645471
5.709814
5.787856
5.881236
5.988899
6.112092
27.61115
27.61115
27.61115
27.61116
27.61116
27.61116
27.61116
27.61117
27.61115
27.61115
27.61115
27.61115
27.61116
27.61116
27.61116
27.61117
27.61117
27.61115
27.61115
27.61115
27.61116
27.61116
27.61116
27.61117
27.61117
27.61118
27.61115
27.61115
27.61115
27.61116
27.61116
27.61117
27.61117
27.61118
27.6112
27.61115
27.61115
27.61116
27.61116
27.61116
27.61117
27.61118
27.61119
27.61121
27.61115
27.61116
27.61116
27.61116
27.61117
27.61117
27.61118
27.6112
27.61121
27.61116
0.1690124
0.2318755
0.1828304
0.1951567
0.1902379
0.1969576
0.2014223
0.2084716
0.7092603
0.6359247
0.5913929
0.5963932
0.5821414
0.5974624
0.6069288
0.625437
0.6458602
1.006096
0.9916918
1.00236
0.989922
1.006202
1.020277
1.045834
1.074898
1.110758
1.426096
1.417462
1.412762
1.418106
1.430344
1.454864
1.48759
1.528484
1.577684
1.783426
1.783686
1.796045
1.806894
1.832064
1.863023
1.905993
1.957111
2.01862
2.089598
2.166873
2.169662
2.18211
2.200408
2.229778
2.268092
2.318027
2.378256
2.450124
2.533592
2.525117
2.530903
2.547832
2.571093
2.606505
2.651248
2.708071
2.776319
2.857245
2.951354
2.88365
2.890556
2.908797
2.935713
2.974555
3.024419
3.086608
3.161551
3.250038
3.353044
3.226971
3.234903
3.255028
3.284984
3.327159
3.381394
3.448289
3.528855
3.623638
3.733872
3.56119
3.569685
3.590851
3.622968
3.667592
3.725216
3.795849
3.880939
3.980727
4.096629
3.882102
3.891125
3.913249
3.9471
3.993759
4.054085
4.127708
4.216299
4.319928
4.440049
4.190646
4.2
4.222773
4.257862
4.306037
4.368346
4.444177
4.53532
4.641677
4.7647
4.485586
4.495149
4.51841
4.554392
4.603652
4.667361
4.744714
4.837587
4.945712
5.07049
4.766977
4.77666
4.800268
4.836794
4.886777
4.951292
5.029564
5.123374
5.232342
5.357828
5.034108
5.043821
5.067512
5.104318
5.154544
5.219458
5.298105
5.392279
5.501415
5.626832
5.287493
5.297225
5.320965
5.357805
5.408157
5.472986
5.551532
5.645326
5.75386
5.878326
5.52633
5.535882
5.559294
5.595911
5.645784
5.71031
5.788279
5.881452
5.989
6.112165
27.61115
27.61114
27.61115
27.61115
27.61115
27.61115
27.61114
27.61114
27.61115
27.61115
27.61115
27.61115
27.61115
27.61115
27.61115
27.61115
27.61114
27.61115
27.61115
27.61115
27.61115
27.61115
27.61115
27.61115
27.61115
27.61115
27.61115
27.61115
27.61115
27.61115
27.61115
27.61115
27.61116
27.61116
27.61117
27.61115
27.61115
27.61115
27.61115
27.61115
27.61116
27.61116
27.61117
27.61118
27.61115
27.61115
27.61115
27.61115
27.61116
27.61116
27.61117
27.61117
27.61119
27.61115
0.1686236
0.2302675
0.1824025
0.1931913
0.1892712
0.1957163
0.200575
0.2079461
0.7086708
0.6353829
0.5914519
0.5970068
0.5823238
0.5982429
0.6071467
0.6257092
0.6456866
1.005908
0.991899
1.002191
0.9900966
1.006103
1.020117
1.045619
1.074721
1.110643
1.425566
1.416837
1.412122
1.417634
1.429741
1.454354
1.486923
1.527819
1.576935
1.783162
1.783623
1.795899
1.80693
1.832077
1.863061
1.906009
1.957091
2.01852
2.167237
2.169442
2.181891
2.200042
2.229417
2.267747
2.317681
2.377933
2.449775
2.525767
2.530965
2.547894
2.570976
2.606381
2.651115
2.707949
2.776201
2.85711
2.951188
2.883743
2.890537
2.908695
2.935537
2.974378
3.02424
3.086438
3.161414
3.249893
3.352886
3.227171
3.234938
3.255009
3.284878
3.327044
3.381263
3.448183
3.528785
3.623581
3.733815
3.56107
3.569663
3.590808
3.622857
3.667465
3.725082
3.795742
3.880859
3.980674
4.096589
3.882087
3.891112
3.913185
3.94694
3.993573
4.053881
4.127542
4.216176
4.319848
4.440002
4.190487
4.199903
4.222633
4.2576
4.305758
4.368054
4.443936
4.535135
4.641552
4.764622
4.485355
4.49489
4.51807
4.553861
4.603082
4.666757
4.744242
4.837227
4.945449
5.070315
4.766782
4.776276
4.799957
4.836207
4.886253
4.95072
5.029106
5.122986
5.232039
5.357615
5.033397
5.042975
5.066646
5.103005
5.153137
5.21793
5.296875
5.391377
5.500744
5.626388
5.286578
5.296306
5.32041
5.356752
5.407524
5.472191
5.550935
5.644821
5.753379
5.878032
5.524881
5.534131
5.55764
5.593062
5.642294
5.706922
5.785331
5.879639
5.987563
6.111416
27.61114
27.61114
27.61114
27.61114
27.61113
27.61113
27.61112
27.61111
27.61114
27.61114
27.61114
27.61114
27.61114
27.61113
27.61113
27.61112
27.61111
27.61114
27.61114
27.61114
27.61114
27.61114
27.61114
27.61113
27.61113
27.61112
27.61114
27.61114
27.61114
27.61114
27.61114
27.61114
27.61114
27.61114
27.61113
27.61114
27.61114
27.61114
27.61114
27.61114
27.61114
27.61115
27.61115
27.61115
27.61114
27.61114
27.61114
27.61114
27.61115
27.61115
27.61115
27.61115
27.61115
27.61114
0.1675942
0.2234993
0.1814854
0.1892757
0.1876258
0.1931033
0.1981819
0.2044056
0.6857838
0.6304485
0.5942917
0.604369
0.5942214
0.6133026
0.6235396
0.6438051
0.6657496
1.005147
0.9911401
1.000116
0.9903869
1.006133
1.021271
1.046551
1.075624
1.11102
1.422806
1.414375
1.414585
1.422077
1.438081
1.46449
1.498092
1.539764
1.589336
1.785585
1.783375
1.795947
1.808159
1.834316
1.866297
1.909408
1.960603
2.021868
2.167325
2.168895
2.183513
2.202048
2.232811
2.271922
2.322126
2.382547
2.454352
2.525604
2.530435
2.548404
2.571374
2.607485
2.652466
2.709307
2.777581
2.858342
2.885303
2.890528
2.909658
2.936141
2.975559
3.025549
3.08774
3.162737
3.251132
3.354141
3.228199
3.234945
3.255875
3.285087
3.327672
3.381881
3.448688
3.529291
3.623959
3.73417
3.564685
3.570222
3.591945
3.623174
3.668108
3.725628
3.796161
3.881258
3.98095
4.096825
3.885018
3.891755
3.914324
3.947292
3.994119
4.054309
4.127801
4.216415
4.31996
4.440063
4.193443
4.200843
4.223849
4.258143
4.306407
4.368551
4.444247
4.535406
4.641679
4.764692
4.487975
4.495691
4.519278
4.554428
4.603724
4.667271
4.744509
4.837471
4.945565
5.07039
4.769693
4.777194
4.801228
4.836945
4.887016
4.951397
5.029568
5.123407
5.232279
5.357792
5.036515
5.043878
5.06794
5.103928
5.153943
5.218967
5.297368
5.391842
5.50094
5.626566
5.2906
5.297766
5.321745
5.357893
5.408301
5.473067
5.551577
5.645481
5.75378
5.878378
5.52954
5.536449
5.559497
5.595337
5.644871
5.709361
5.786784
5.880736
5.988058
6.111806
27.61113
27.61113
27.61113
27.61113
27.61112
27.61111
27.6111
27.61108
27.61114
27.61113
27.61113
27.61113
27.61113
27.61112
27.61112
27.6111
27.61109
27.61114
27.61114
27.61113
27.61113
27.61113
27.61113
27.61112
27.61111
27.6111
27.61114
27.61114
27.61113
27.61113
27.61113
27.61113
27.61112
27.61112
27.61111
27.61114
27.61113
27.61114
27.61114
27.61113
27.61113
27.61113
27.61113
27.61112
27.61114
27.61114
27.61114
27.61114
27.61114
27.61114
27.61113
27.61113
27.61113
27.61114
0.1671622
0.2519395
0.2163784
0.2302742
0.2292039
0.2373617
0.2442113
0.2560125
0.6817514
0.6274726
0.5941993
0.6013549
0.5960978
0.6115048
0.6238698
0.6439615
0.6654622
0.987283
0.9937357
1.010709
1.012913
1.033187
1.050495
1.077442
1.107204
1.143911
1.410529
1.411192
1.414417
1.426875
1.445462
1.472734
1.507331
1.549451
1.599446
1.773268
1.78333
1.798389
1.815895
1.844311
1.877722
1.921342
1.972793
2.034165
2.164425
2.168517
2.184015
2.204158
2.236289
2.276161
2.32676
2.387523
2.459511
2.524745
2.531823
2.550176
2.574215
2.610774
2.656185
2.713124
2.781488
2.862242
2.881951
2.891767
2.910471
2.93799
2.97753
3.02779
3.089988
3.16505
3.253443
3.228024
3.236768
3.257227
3.286924
3.329268
3.383505
3.450245
3.530839
3.625479
3.735761
3.561154
3.571933
3.592848
3.624808
3.669347
3.726837
3.797254
3.882322
3.981993
4.097925
3.882956
3.893852
3.91546
3.948817
3.995115
4.055155
4.128512
4.217089
4.320606
4.440771
4.191143
4.203053
4.224919
4.259514
4.307263
4.369223
4.444754
4.535847
4.642069
4.765121
4.487171
4.498102
4.51997
4.555358
4.603895
4.66727
4.744431
4.837463
4.945561
5.070505
4.767263
4.779207
4.802416
4.837908
4.887754
4.951817
5.029829
5.123532
5.23229
5.357856
5.034364
5.045276
5.067694
5.103319
5.152171
5.216822
5.295419
5.390674
5.500014
5.626136
5.286086
5.298965
5.322883
5.358448
5.409722
5.47391
5.552412
5.645836
5.753729
5.878429
5.528788
5.536821
5.557378
5.59099
5.636306
5.701667
5.779361
5.877259
5.98492
6.110629
27.61113
27.61113
27.61113
27.61112
27.61112
27.61111
27.6111
27.61108
27.61105
27.61113
27.61113
27.61113
27.61113
27.61112
27.61112
27.61111
27.61109
27.61107
27.61113
27.61113
27.61113
27.61113
27.61112
27.61112
27.61111
27.6111
27.61108
27.61113
27.61113
27.61113
27.61113
27.61113
27.61112
27.61111
27.6111
27.61108
27.61113
27.61113
27.61113
27.61113
27.61113
27.61112
27.61112
27.61111
27.6111
27.61113
27.61113
27.61113
27.61113
27.61113
27.61113
27.61112
27.61111
27.61111
27.61113
27.61113
27.61113
27.61113
27.61113
27.61112
27.61111
27.6111
27.61108
0.1599639
0.1312532
0.1333875
0.1224206
0.1211749
0.1339916
0.1459536
0.1366784
0.1387289
0.5277048
0.6185049
0.6058772
0.6286593
0.6398308
0.6578249
0.6746136
0.6986641
0.7238295
0.930535
0.9864138
1.004696
1.012217
1.030753
1.049838
1.07574
1.105255
1.141189
1.408637
1.400156
1.422516
1.437324
1.463047
1.492764
1.528553
1.571957
1.622315
1.809456
1.780449
1.79859
1.816706
1.846108
1.88029
1.923795
1.975302
2.036338
2.186402
2.166994
2.18911
2.207106
2.241614
2.28186
2.332784
2.393763
2.465661
2.534257
2.530876
2.553877
2.574548
2.612491
2.657573
2.714533
2.782868
2.863416
2.910006
2.891982
2.913307
2.93856
2.979373
3.029324
3.09163
3.166719
3.254978
3.262384
3.238786
3.260327
3.286866
3.330394
3.384052
3.450782
3.531346
3.625817
3.597458
3.572412
3.597033
3.624836
3.670492
3.727384
3.797782
3.882834
3.982326
4.098217
3.921492
3.896282
3.919912
3.949023
3.996139
4.055543
4.128802
4.217349
4.320686
4.440793
4.235767
4.207441
4.228691
4.260178
4.308355
4.369732
4.445123
4.536171
4.642209
4.765203
4.517438
4.501324
4.524682
4.556118
4.605017
4.667852
4.744763
4.83777
4.945684
5.070597
4.815896
4.781626
4.806221
4.838731
4.888895
4.952432
5.030264
5.123965
5.232522
5.358049
5.061431
5.046354
5.072564
5.104638
5.153821
5.218405
5.29626
5.391399
5.500306
5.626372
5.329457
5.30213
5.325422
5.35946
5.41029
5.474215
5.552629
5.646279
5.753986
5.878728
5.54638
5.543587
5.562238
5.594765
5.641542
5.706305
5.782537
5.879139
5.98589
6.111243
27.61113
27.61113
27.61112
27.61112
27.61112
27.6111
27.61109
27.61107
27.61104
27.61113
27.61113
27.61113
27.61112
27.61112
27.61111
27.6111
27.61108
27.61106
27.61113
27.61113
27.61113
27.61112
27.61112
27.61111
27.6111
27.61109
27.61107
27.61113
27.61113
27.61113
27.61113
27.61112
27.61112
27.61111
27.61109
27.61107
27.61113
27.61113
27.61113
27.61113
27.61112
27.61112
27.61111
27.6111
27.61109
27.61113
27.61113
27.61113
27.61113
27.61112
27.61112
27.61111
27.61111
27.61109
27.61107
27.61113
27.61113
27.61113
27.61112
27.61112
27.61111
27.6111
27.61109
27.61107
0.1898216
0.1835874
0.1883455
0.1510846
0.1606242
0.1927965
0.2021533
0.09769079
0.08969447
0.4623141
0.6498025
0.6531594
0.6747242
0.6860981
0.7031369
0.7237585
0.7489401
0.7757332
0.8453024
1.006391
1.027068
1.049238
1.070361
1.091943
1.117097
1.144737
1.178194
1.250458
1.408175
1.424297
1.445313
1.471532
1.501826
1.538737
1.582721
1.633831
1.646173
1.784819
1.80144
1.82584
1.855543
1.890797
1.934199
1.985359
2.045945
2.017091
2.166422
2.188966
2.209035
2.244386
2.285066
2.336303
2.397509
2.469648
2.400238
2.534165
2.554627
2.577066
2.61492
2.660292
2.71722
2.785522
2.865983
2.762053
2.894675
2.91394
2.940042
2.980645
3.030748
3.093007
3.168171
3.256461
3.135792
3.238445
3.263011
3.28822
3.331452
3.385132
3.451736
3.532297
3.626738
3.466786
3.575219
3.596391
3.626045
3.671113
3.72815
3.798405
3.883449
3.982926
3.792878
3.897465
3.919922
3.950192
3.996596
4.056127
4.129217
4.217769
4.321083
4.441231
4.09285
4.208148
4.230118
4.261434
4.308869
4.370295
4.445483
4.536494
4.64248
4.7655
4.401189
4.503611
4.522612
4.557014
4.60478
4.667873
4.744612
4.837776
4.945686
5.070705
4.683891
4.786295
4.807071
4.839945
4.889647
4.953126
5.03081
5.124308
5.232693
5.35821
4.962219
5.049045
5.07005
5.104397
5.151144
5.216337
5.294013
5.390434
5.499431
5.626099
5.215124
5.304339
5.327413
5.360547
5.412648
5.476521
5.554951
5.647438
5.754429
5.879088
5.464138
5.542138
5.557636
5.590296
5.626896
5.694993
5.770603
5.875596
5.982246
6.110396
27.61116
27.61116
27.61116
27.61116
27.61116
27.61116
27.61116
27.61116
27.61116
27.61116
27.61116
27.61116
27.61116
27.61116
27.61116
27.61116
27.61116
27.61116
27.61116
27.61116
27.61116
27.61116
27.61116
27.61116
27.61116
27.61116
27.61116
27.61116
27.61116
27.61116
27.61116
27.61116
27.61116
27.61116
27.61116
27.61116
27.61116
27.61116
27.61116
27.61116
27.61116
27.61116
0.04974942
27.61116
27.61116
0.03198737
27.61116
0.05023855
0.05134794
27.61116
27.61116
0.02979001
0.03866371
27.61117
0.05175668
0.05274591
27.61116
27.61117
0.03919698
0.04046623
27.61117
0.05311318
0.05384774
27.61117
27.61117
0.04007918
0.04104887
27.61118
0.05422893
0.05492376
27.61118
27.61118
0.04018872
0.04165379
27.6112
0.05543477
0.05621964
27.61119
27.6112
0.04059252
0.04237661
27.61122
0.05687602
0.05779709
27.6112
27.61122
0.04114731
0.04336299
27.61124
0.05860923
0.05969719
27.61122
27.61124
0.04193279
0.0445772
27.61129
0.06067824
0.06193539
27.61126
27.61128
0.04290302
0.04609276
0.06309818
27.6113
0.0441423
0.09955644
0.3187512
0.09209614
0.3326533
0.2949075
0.5450528
0.6301737
0.4624641
0.5353308
0.6991695
0.6586939
0.9332455
0.996965
0.8460885
0.9297406
1.099487
1.040401
1.359103
1.413003
1.249688
1.331668
1.508473
1.437553
1.757555
1.805289
1.652356
1.730789
1.896168
1.82881
2.144322
2.187086
2.037627
2.114176
2.271488
2.206139
2.514187
2.553247
2.409734
2.486254
2.635925
2.575148
2.874501
2.910181
2.771091
2.845465
2.989156
2.930753
3.222144
3.254179
3.121121
3.194167
3.330931
3.275589
3.557949
3.587142
3.459353
3.530504
3.660705
3.608031
3.881073
3.907602
3.785264
3.854285
3.977812
3.927772
4.191341
4.215066
4.098355
4.165042
4.281988
4.234314
4.48826
4.509376
4.398344
4.462348
4.572756
4.527063
4.771237
4.790072
4.6846
4.745851
4.849654
4.806598
5.039949
5.056653
4.956986
5.015471
5.112702
5.072115
5.294786
5.308888
5.215406
5.271103
5.361295
5.323703
5.535095
5.546772
5.459243
5.512057
5.595502
5.56086
27.61116
27.61116
27.61116
27.61116
27.61116
27.61116
27.61116
0.0303079
27.61116
0.04059053
27.61116
27.61116
27.61116
27.61116
27.61116
27.61116
27.61116
0.04183516
27.61116
0.04268303
27.61116
27.61116
27.61116
27.61115
27.61115
27.61115
27.61116
0.04295482
27.61116
0.04305399
27.61115
27.61115
27.61115
27.61115
27.61115
27.61115
27.61115
0.04328905
27.61115
0.04324311
27.61115
27.61115
27.61115
27.61114
27.61114
27.61114
27.61115
0.04329323
27.61115
0.04325953
27.61114
27.61114
27.61114
27.61114
27.61114
27.61114
27.61114
0.04302946
27.61114
0.04293479
27.61114
27.61114
27.61114
27.61113
27.61113
27.61113
27.61114
0.04259208
27.61113
0.04259387
27.61113
27.61113
27.61113
27.61113
27.61113
27.61113
27.61113
0.04145588
27.61113
0.03255526
27.61113
27.61113
27.61113
27.61113
27.61113
27.61113
27.61113
27.61113
27.61113
27.61113
27.61112
27.61112
27.61112
27.61112
27.61112
27.61112
27.61112
27.61112
27.61112
27.61112
27.61112
27.61109
27.6111
27.61109
27.61109
27.6111
27.61109
27.61108
27.61109
27.61108
27.61109
27.61109
27.61108
27.61103
27.61103
27.61113
27.61113
27.61113
27.61113
27.61113
27.61113
27.61113
27.61113
27.61113
27.61113
27.61113
27.61113
27.61113
27.61113
27.61113
27.61113
27.61113
27.61113
27.61113
27.61113
27.61113
27.61113
27.61113
27.61113
27.61113
27.61113
27.61113
27.61113
27.61113
27.61113
0.0339819
27.61113
0.04327854
27.61113
0.01675411
0.03008158
27.61113
27.61113
0.04651966
0.04989715
27.61113
0.0300385
0.02959489
27.61113
27.61113
0.05103483
0.0522108
27.61113
0.02947007
0.0190244
27.61113
27.61112
0.05236104
0.03681281
27.61112
0.04821994
27.61112
27.61112
0.04950732
0.0995136
27.61112
0.04893451
27.61112
27.61112
0.1001665
0.05238035
27.61111
0.02042706
0.03127446
27.61111
27.61111
0.04047786
0.05759302
27.6111
0.03147845
0.02536311
27.6111
27.6111
0.05813925
0.05464179
27.61109
0.03814878
0.04664067
27.61109
27.61108
0.05010218
0.06170936
0.04449004
27.61108
0.06370088
0.1015904
0.3371808
0.3007102
0.1034763
0.3248756
0.5332715
0.6982276
0.6632747
0.5480562
0.6454611
0.9260766
1.101327
1.042306
0.92273
0.9795867
1.331273
1.506117
1.43921
1.362486
1.415396
1.720809
1.876549
1.82719
1.726749
1.859943
1.745891
2.092092
2.308941
2.22027
2.108624
2.171098
2.19355
2.466333
2.62616
2.564769
2.543268
2.568888
2.830614
2.96942
2.910499
2.883818
2.91744
3.210172
3.33444
3.281315
3.227591
3.264735
3.53789
3.668518
3.61228
3.53943
3.564762
3.86101
3.975095
3.93651
3.878872
3.902853
4.162302
4.283201
4.241517
4.21186
4.233658
4.447025
4.578499
4.509356
4.491159
4.516389
4.750542
4.831373
4.798503
4.767098
4.791149
5.022638
5.107914
5.068454
5.032469
5.046487
5.277594
5.363926
5.332742
5.287126
5.299055
5.505994
5.592078
5.564503
5.538678
5.601788
5.54523
27.61116
27.61116
27.61116
27.61116
27.61116
27.61116
27.61116
0.1643955
0.11854
0.1045517
0.172239
0.1020718
0.3374192
0.3651266
0.07843066
0.0738371
0.2879437
0.2918591
0.1056648
0.375769
0.3816855
0.0760861
0.07824574
0.2979557
0.2958964
0.1084347
0.3919346
0.3911922
0.07798144
0.08060006
0.3024388
0.3016709
0.1106027
0.4005209
0.3982007
0.07947841
0.08240401
0.3061986
0.3067733
0.1130345
0.4097524
0.4067286
0.08081164
0.08426423
0.3123379
0.3134856
0.1158964
0.4202487
0.4165529
0.08250014
0.0866066
0.3199594
0.3215674
0.1192626
0.4325458
0.4283187
0.08458161
0.08941935
0.3293239
0.3313719
0.123224
0.4470046
0.4421801
0.08709942
0.0926491
0.3406832
0.34334
0.4640149
0.09013579
0.3543345
0.5265052
0.4810588
0.4739264
0.5028426
0.8983016
0.8449879
0.8456339
0.86273
1.298106
1.241988
1.243757
1.262041
1.694484
1.638543
1.64274
1.657907
2.077652
2.023639
2.028121
2.041546
2.447886
2.396202
2.400904
2.412489
2.807645
2.757996
2.762759
2.77283
3.156124
3.108811
3.11335
3.122153
3.493105
3.448137
3.452436
3.459875
3.818143
3.775212
3.77945
3.785235
4.130344
4.089587
4.093784
4.09798
4.428828
4.390655
4.394722
4.397291
4.713204
4.678088
4.681994
4.682735
4.984355
4.951822
4.955704
4.954547
5.240777
5.211698
5.215682
5.211844
5.481888
5.456986
5.460481
5.454764
27.61116
27.61116
27.61116
27.61116
27.61116
27.61116
27.61116
27.61116
27.61116
27.61116
27.61116
27.61116
27.61116
0.08001288
0.2800447
0.2661125
0.07455668
0.3162189
0.2671772
27.61116
27.61116
27.61116
27.61116
27.61116
27.61116
27.61116
27.61116
27.61116
27.61116
27.61116
27.61116
27.61116
0.0778375
0.3385925
0.2716585
0.08033461
0.3663567
0.2757998
27.61115
27.61116
27.61116
27.61116
27.61116
27.61116
27.61116
27.61116
27.61116
27.61116
27.61116
27.61116
27.61116
0.08131592
0.3764944
0.2780063
0.08189942
0.38652
0.2795329
27.61115
27.61115
27.61115
27.61115
27.61115
27.61115
27.61115
27.61115
27.61115
27.61115
27.61115
27.61115
27.61115
0.0824194
0.3903991
0.2803299
0.08237752
0.3920509
0.2798815
27.61115
27.61115
27.61115
27.61115
27.61115
27.61115
27.61115
27.61114
27.61115
27.61115
27.61115
27.61115
27.61115
0.08239603
0.3920581
0.2799413
0.08231004
0.3901137
0.2801272
27.61114
27.61114
27.61114
27.61114
27.61114
27.61114
27.61114
27.61114
27.61114
27.61114
27.61114
27.61114
27.61114
0.08184849
0.386645
0.2800329
0.08127558
0.3761038
0.2776795
27.61113
27.61114
27.61114
27.61114
27.61114
27.61113
27.61113
27.61113
27.61113
27.61114
27.61114
27.61114
27.61114
0.08029754
0.3663961
0.2770537
0.07917844
0.3385561
0.2726344
27.61113
27.61113
27.61113
27.61113
27.61113
27.61113
27.61113
27.61113
27.61113
27.61113
27.61113
27.61113
27.61113
0.07651498
0.3179463
0.2710768
0.08102718
0.2833235
0.2714085
27.61113
27.61113
27.61112
27.61113
27.61112
27.61112
27.61113
27.61112
27.61111
27.61111
27.61111
27.61111
27.61111
27.61105
27.61107
27.61105
27.61106
27.61105
27.61113
27.61113
27.61113
27.61113
27.61113
27.61113
27.61113
27.61112
27.61112
27.61112
27.61112
27.61112
27.61112
27.61112
27.61113
27.61113
27.61113
27.61113
0.1785915
0.2881912
0.3001831
0.1128495
0.1111735
0.3378618
0.3691964
0.1865713
0.3051728
0.3068388
0.1138486
0.1160961
0.3821463
0.3927154
0.09039114
0.3483834
0.3480907
0.1268253
0.1245083
0.4507476
0.4471293
0.3605812
0.1290982
0.4689299
27.61116
27.61116
0.04225044
0.02901659
0.04374222
0.02471126
0.02581325
27.61116
27.61116
27.61116
27.61116
27.61116
0.02076497
0.02382621
0.0495281
0.02491296
0.02429427
0.05034423
0.02574359
0.02540982
0.05154256
0.02616977
0.02699866
0.05178775
0.02704359
0.02737822
0.05283086
0.02769618
0.0282531
0.05291187
0.02795733
0.02834981
0.05389184
0.02865655
0.02918794
0.05397239
0.02860456
0.02924906
0.0551334
0.02946165
0.030104
0.05522545
0.02933771
0.03016755
0.05668953
0.03036731
0.03113747
0.05675561
0.03023339
0.03121037
0.05850722
0.0314458
0.03233657
0.05859448
0.03131272
0.03242077
0.06050993
0.0327092
0.03372555
0.06074161
0.03254279
0.033827
0.06293597
0.03416143
0.03532094
0.2865673
0.3288565
0.3299748
0.2945342
0.6828301
0.7006799
0.69237
0.7187303
1.071402
1.090021
1.080934
1.106344
1.475085
1.495222
1.486583
1.508897
1.86747
1.883436
1.875132
1.900035
2.247607
2.260147
2.251722
2.279545
2.614959
2.62474
2.616572
2.645983
2.971939
2.978855
2.970755
3.001788
3.318249
3.321457
3.313721
3.346199
3.651386
3.652119
3.644614
3.67847
3.971573
3.970175
3.962926
3.997913
4.278799
4.275173
4.268084
4.304433
4.571929
4.566741
4.559804
4.597329
4.84997
4.844451
4.837528
4.876053
5.114231
5.10835
5.101659
5.140632
5.363264
5.357498
5.350979
5.389609
5.597774
5.592163
5.623923
5.585946
27.61116
27.61116
0.02055192
0.01971197
27.61116
27.61116
27.61116
27.61116
0.02086091
0.02127929
27.61116
27.61116
0.0209514
0.02122983
27.61116
27.61116
27.61116
27.61116
0.02326356
0.02150538
27.61115
27.61115
0.02331276
0.02185453
27.61116