/*--------------------------------*- C++ -*----------------------------------*\
  =========                 |
  \\      /  F ield         | OpenFOAM: The Open Source CFD Toolbox
   \\    /   O peration     | Website:  https://openfoam.org
    \\  /    A nd           | Version:  7
     \\/     M anipulation  |
\*---------------------------------------------------------------------------*/
FoamFile
{
    version     2.0;
    format      ascii;
    class       volScalarField;
    location    "0.07";
    object      nut;
}
// * * * * * * * * * * * * * * * * * * * * * * * * * * * * * * * * * * * * * //

dimensions      [0 2 -1 0 0 0 0];

internalField   nonuniform List<scalar> 
109978
(
0.000655182
0.0006372828
0.0006357418
0.0006355724
0.0006355818
0.0006357637
0.0006373155
0.0006053423
0.0006022834
0.0006019112
0.0006019225
0.0006021753
0.0006357879
0.000602299
0.0005988255
0.0005983503
0.0005983556
0.0005986608
0.0006356212
0.0006019189
0.0005983368
0.0005978164
0.0005978146
0.0005981388
0.0006355982
0.0006018491
0.0005982323
0.0005976916
0.0005976841
0.0005980135
0.0006356024
0.0006018384
0.0005982103
0.0005976615
0.0005976493
0.0005979799
0.0006356145
0.0006018466
0.0005982118
0.0005976586
0.000597645
0.0005979761
0.0006356308
0.0006018607
0.0005982244
0.0005976698
0.0005976547
0.0005979858
0.00063565
0.0006018792
0.0005982418
0.0005976863
0.0005976707
0.0005980017
0.0006356718
0.0006019007
0.0005982629
0.0005977069
0.000597691
0.0005980219
0.000635696
0.000601925
0.0005982868
0.0005977305
0.000597714
0.0005980453
0.0006357228
0.0006019518
0.0005983135
0.000597757
0.0005977403
0.0005980714
0.0006357521
0.0006019814
0.0005983429
0.0005977862
0.0005977693
0.0005981001
0.0006357841
0.0006020136
0.000598375
0.0005978181
0.0005978011
0.0005981315
0.0006358187
0.0006020487
0.0005984099
0.0005978529
0.0005978355
0.0005981658
0.0006358562
0.0006020867
0.0005984478
0.0005978907
0.000597873
0.0005982029
0.0006358967
0.000602128
0.0005984891
0.000597932
0.0005979146
0.0005982438
0.0006359405
0.000602173
0.0005985346
0.0005979777
0.0005979603
0.0005982896
0.0006359882
0.0006022236
0.0005985867
0.0005980307
0.0005980133
0.0005983434
0.0006360424
0.0006022854
0.0005986537
0.0005981004
0.0005980839
0.0005984145
0.0006361155
0.0006023842
0.0005987683
0.0005982227
0.0005982087
0.0005985378
0.0006362587
0.0006026009
0.0005990274
0.0005984999
0.0005984861
0.0005988025
0.0001007349
0.000603007
0.0005994999
0.0005989993
0.0005989742
0.0005992393
0.0005965918
0.0005959567
0.0005960012
0.0005960123
0.0005960074
0.0005960243
0.0001006751
0.0001006845
0.0001006845
0.0001006845
0.0001006846
0.0001006846
0.0001006758
0.0001006845
0.0001006846
0.0001006846
0.0001006846
0.0001006846
0.0001006757
0.0001006844
0.0001006845
0.0001006845
0.0001006845
0.0001006846
0.0001006756
0.0001006844
0.0001006845
0.0001006845
0.0001006845
0.0001006845
0.0001006755
0.0001006843
0.0001006844
0.0001006844
0.0001006844
0.0001006844
0.0001006755
0.0001006843
0.0001006843
0.0001006843
0.0001006843
0.0001006843
0.0001006753
0.0001006842
0.0001006843
0.0001006843
0.0001006842
0.0001006842
0.0001006752
0.0001006842
0.0001006842
0.0001006842
0.0001006842
0.0001006841
0.000100675
0.0001006841
0.0001006841
0.0001006841
0.0001006841
0.000100684
0.0001006749
0.000100684
0.000100684
0.000100684
0.0001006839
0.0001006839
0.0001006747
0.0001006839
0.0001006839
0.0001006839
0.0001006838
0.0001006838
0.0001006745
0.0001006838
0.0001006838
0.0001006838
0.0001006837
0.0001006837
0.0001006742
0.0001006837
0.0001006837
0.0001006836
0.0001006836
0.0001006835
0.000100674
0.0001006836
0.0001006836
0.0001006835
0.0001006834
0.0001006834
0.0001006737
0.0001006834
0.0001006834
0.0001006833
0.0001006833
0.0001006832
0.0001006734
0.0001006833
0.0001006833
0.0001006832
0.0001006831
0.000100683
0.0001006731
0.0001006832
0.0001006831
0.000100683
0.0001006829
0.0001006829
0.0001006728
0.000100683
0.000100683
0.0001006829
0.0001006828
0.0001006827
0.0001006724
0.0001006828
0.0001006828
0.0001006827
0.0001006826
0.0001006825
0.000100672
0.0001006827
0.0001006826
0.0001006825
0.0001006824
0.0001006823
0.0001006716
0.0001006825
0.0001006824
0.0001006823
0.0001006821
0.000100682
0.0001006712
0.0001006823
0.0001006822
0.0001006821
0.0001006819
0.0001006818
0.0001006708
0.0001006821
0.000100682
0.0001006818
0.0001006817
0.0001006815
0.0005976661
0.0005963171
0.0005964147
0.0005964585
0.0005964547
0.0005964319
0.0001006756
0.0001006846
0.0001006846
0.0001006846
0.0001006846
0.0001006847
0.0001006768
0.0001006846
0.0001006846
0.0001006847
0.0001006847
0.0001006847
0.0001006767
0.0001006845
0.0001006845
0.0001006846
0.0001006846
0.0001006846
0.0001006767
0.0001006845
0.0001006845
0.0001006845
0.0001006845
0.0001006846
0.0001006766
0.0001006844
0.0001006844
0.0001006845
0.0001006845
0.0001006845
0.0001006765
0.0001006843
0.0001006844
0.0001006844
0.0001006844
0.0001006844
0.0001006763
0.0001006843
0.0001006843
0.0001006843
0.0001006843
0.0001006843
0.0001006762
0.0001006842
0.0001006842
0.0001006842
0.0001006842
0.0001006842
0.0001006761
0.0001006841
0.0001006841
0.0001006841
0.0001006841
0.0001006841
0.0001006759
0.000100684
0.000100684
0.000100684
0.000100684
0.000100684
0.0001006757
0.000100684
0.0001006839
0.0001006839
0.0001006839
0.0001006839
0.0001006755
0.0001006838
0.0001006838
0.0001006838
0.0001006838
0.0001006837
0.0001006753
0.0001006837
0.0001006837
0.0001006837
0.0001006836
0.0001006836
0.000100675
0.0001006836
0.0001006836
0.0001006835
0.0001006835
0.0001006834
0.0001006747
0.0001006835
0.0001006834
0.0001006834
0.0001006833
0.0001006833
0.0001006745
0.0001006834
0.0001006833
0.0001006832
0.0001006832
0.0001006831
0.0001006741
0.0001006832
0.0001006831
0.0001006831
0.000100683
0.0001006829
0.0001006738
0.000100683
0.000100683
0.0001006829
0.0001006828
0.0001006827
0.0001006735
0.0001006829
0.0001006828
0.0001006827
0.0001006826
0.0001006825
0.0001006731
0.0001006827
0.0001006826
0.0001006825
0.0001006824
0.0001006823
0.0001006727
0.0001006825
0.0001006824
0.0001006823
0.0001006822
0.0001006821
0.0001006722
0.0001006823
0.0001006822
0.0001006821
0.000100682
0.0001006819
0.0001006718
0.0001006821
0.000100682
0.0001006819
0.0001006817
0.0001006816
0.0005978025
0.0005965073
0.000596623
0.0005966826
0.000596675
0.0005966336
0.0001006756
0.0001006846
0.0001006846
0.0001006846
0.0001006847
0.0001006847
0.0001006768
0.0001006846
0.0001006846
0.0001006846
0.0001006847
0.0001006847
0.0001006767
0.0001006845
0.0001006846
0.0001006846
0.0001006846
0.0001006846
0.0001006767
0.0001006845
0.0001006845
0.0001006845
0.0001006845
0.0001006846
0.0001006766
0.0001006845
0.0001006845
0.0001006845
0.0001006845
0.0001006845
0.0001006765
0.0001006844
0.0001006844
0.0001006844
0.0001006844
0.0001006844
0.0001006763
0.0001006843
0.0001006843
0.0001006843
0.0001006843
0.0001006843
0.0001006762
0.0001006843
0.0001006842
0.0001006842
0.0001006842
0.0001006842
0.0001006761
0.0001006842
0.0001006842
0.0001006841
0.0001006841
0.0001006841
0.0001006759
0.0001006841
0.0001006841
0.000100684
0.000100684
0.000100684
0.0001006757
0.000100684
0.000100684
0.0001006839
0.0001006839
0.0001006839
0.0001006755
0.0001006839
0.0001006838
0.0001006838
0.0001006838
0.0001006837
0.0001006753
0.0001006838
0.0001006837
0.0001006837
0.0001006836
0.0001006836
0.000100675
0.0001006837
0.0001006836
0.0001006835
0.0001006835
0.0001006834
0.0001006747
0.0001006835
0.0001006835
0.0001006834
0.0001006833
0.0001006833
0.0001006744
0.0001006834
0.0001006833
0.0001006832
0.0001006832
0.0001006831
0.0001006741
0.0001006833
0.0001006832
0.0001006831
0.000100683
0.0001006829
0.0001006738
0.0001006831
0.000100683
0.0001006829
0.0001006828
0.0001006827
0.0001006734
0.0001006829
0.0001006828
0.0001006827
0.0001006826
0.0001006825
0.0001006731
0.0001006828
0.0001006826
0.0001006825
0.0001006824
0.0001006823
0.0001006727
0.0001006826
0.0001006825
0.0001006823
0.0001006822
0.0001006821
0.0001006722
0.0001006824
0.0001006822
0.0001006821
0.000100682
0.0001006819
0.0001006718
0.0001006822
0.000100682
0.0001006819
0.0001006817
0.0001006816
0.0005978302
0.0005965567
0.000596687
0.0005967488
0.0005967421
0.0005966955
0.0001006756
0.0001006846
0.0001006846
0.0001006846
0.0001006847
0.0001006847
0.0001006768
0.0001006846
0.0001006846
0.0001006847
0.0001006847
0.0001006847
0.0001006767
0.0001006846
0.0001006846
0.0001006846
0.0001006846
0.0001006846
0.0001006767
0.0001006845
0.0001006845
0.0001006845
0.0001006845
0.0001006846
0.0001006766
0.0001006845
0.0001006845
0.0001006845
0.0001006845
0.0001006845
0.0001006765
0.0001006844
0.0001006844
0.0001006844
0.0001006844
0.0001006844
0.0001006764
0.0001006844
0.0001006844
0.0001006843
0.0001006843
0.0001006843
0.0001006762
0.0001006843
0.0001006843
0.0001006842
0.0001006842
0.0001006842
0.0001006761
0.0001006842
0.0001006842
0.0001006841
0.0001006841
0.0001006841
0.0001006759
0.0001006841
0.0001006841
0.000100684
0.000100684
0.000100684
0.0001006757
0.000100684
0.000100684
0.0001006839
0.0001006839
0.0001006839
0.0001006755
0.0001006839
0.0001006839
0.0001006838
0.0001006838
0.0001006837
0.0001006753
0.0001006838
0.0001006838
0.0001006837
0.0001006836
0.0001006836
0.000100675
0.0001006837
0.0001006836
0.0001006836
0.0001006835
0.0001006834
0.0001006748
0.0001006836
0.0001006835
0.0001006834
0.0001006833
0.0001006833
0.0001006745
0.0001006835
0.0001006834
0.0001006833
0.0001006832
0.0001006831
0.0001006742
0.0001006833
0.0001006832
0.0001006831
0.000100683
0.0001006829
0.0001006738
0.0001006832
0.000100683
0.0001006829
0.0001006828
0.0001006827
0.0001006735
0.000100683
0.0001006829
0.0001006827
0.0001006826
0.0001006825
0.0001006731
0.0001006828
0.0001006827
0.0001006825
0.0001006824
0.0001006823
0.0001006727
0.0001006826
0.0001006825
0.0001006823
0.0001006822
0.0001006821
0.0001006723
0.0001006824
0.0001006823
0.0001006821
0.000100682
0.0001006819
0.0001006718
0.0001006822
0.0001006821
0.0001006819
0.0001006817
0.0001006816
0.0005978234
0.0005965633
0.0005966858
0.0005967499
0.0005967435
0.0005966965
0.0001006756
0.0001006846
0.0001006846
0.0001006846
0.0001006847
0.0001006847
0.0001006768
0.0001006846
0.0001006846
0.0001006847
0.0001006847
0.0001006847
0.0001006767
0.0001006846
0.0001006846
0.0001006846
0.0001006846
0.0001006846
0.0001006767
0.0001006845
0.0001006845
0.0001006845
0.0001006845
0.0001006846
0.0001006766
0.0001006845
0.0001006845
0.0001006845
0.0001006845
0.0001006845
0.0001006765
0.0001006844
0.0001006844
0.0001006844
0.0001006844
0.0001006844
0.0001006764
0.0001006844
0.0001006844
0.0001006843
0.0001006843
0.0001006843
0.0001006762
0.0001006843
0.0001006843
0.0001006842
0.0001006842
0.0001006842
0.0001006761
0.0001006842
0.0001006842
0.0001006841
0.0001006841
0.0001006841
0.0001006759
0.0001006841
0.0001006841
0.000100684
0.000100684
0.000100684
0.0001006757
0.000100684
0.000100684
0.0001006839
0.0001006839
0.0001006839
0.0001006755
0.0001006839
0.0001006839
0.0001006838
0.0001006838
0.0001006837
0.0001006753
0.0001006838
0.0001006838
0.0001006837
0.0001006836
0.0001006836
0.000100675
0.0001006837
0.0001006836
0.0001006836
0.0001006835
0.0001006834
0.0001006748
0.0001006836
0.0001006835
0.0001006834
0.0001006833
0.0001006833
0.0001006745
0.0001006835
0.0001006834
0.0001006833
0.0001006832
0.0001006831
0.0001006742
0.0001006833
0.0001006832
0.0001006831
0.000100683
0.0001006829
0.0001006738
0.0001006832
0.000100683
0.0001006829
0.0001006828
0.0001006827
0.0001006735
0.000100683
0.0001006829
0.0001006827
0.0001006826
0.0001006825
0.0001006731
0.0001006828
0.0001006827
0.0001006825
0.0001006824
0.0001006823
0.0001006727
0.0001006826
0.0001006825
0.0001006823
0.0001006822
0.0001006821
0.0001006723
0.0001006824
0.0001006823
0.0001006821
0.000100682
0.0001006819
0.0001006718
0.0001006822
0.0001006821
0.0001006819
0.0001006817
0.0001006816
0.000597821
0.0005965383
0.000596653
0.0005967179
0.0005967093
0.0005966651
0.0001006755
0.0001006846
0.0001006846
0.0001006846
0.0001006847
0.0001006847
0.0001006767
0.0001006846
0.0001006846
0.0001006847
0.0001006847
0.0001006847
0.0001006767
0.0001006846
0.0001006846
0.0001006846
0.0001006846
0.0001006846
0.0001006767
0.0001006845
0.0001006845
0.0001006845
0.0001006846
0.0001006846
0.0001006766
0.0001006845
0.0001006845
0.0001006845
0.0001006845
0.0001006845
0.0001006765
0.0001006844
0.0001006844
0.0001006844
0.0001006844
0.0001006844
0.0001006763
0.0001006844
0.0001006844
0.0001006843
0.0001006843
0.0001006843
0.0001006762
0.0001006843
0.0001006843
0.0001006843
0.0001006842
0.0001006842
0.0001006761
0.0001006842
0.0001006842
0.0001006842
0.0001006841
0.0001006841
0.0001006759
0.0001006841
0.0001006841
0.0001006841
0.000100684
0.000100684
0.0001006757
0.000100684
0.000100684
0.000100684
0.0001006839
0.0001006839
0.0001006755
0.0001006839
0.0001006839
0.0001006838
0.0001006838
0.0001006837
0.0001006753
0.0001006838
0.0001006838
0.0001006837
0.0001006837
0.0001006836
0.000100675
0.0001006837
0.0001006836
0.0001006836
0.0001006835
0.0001006834
0.0001006747
0.0001006836
0.0001006835
0.0001006834
0.0001006834
0.0001006833
0.0001006745
0.0001006835
0.0001006834
0.0001006833
0.0001006832
0.0001006831
0.0001006741
0.0001006833
0.0001006832
0.0001006831
0.000100683
0.0001006829
0.0001006738
0.0001006832
0.0001006831
0.0001006829
0.0001006828
0.0001006827
0.0001006734
0.000100683
0.0001006829
0.0001006828
0.0001006826
0.0001006825
0.0001006731
0.0001006828
0.0001006827
0.0001006826
0.0001006824
0.0001006823
0.0001006727
0.0001006826
0.0001006825
0.0001006824
0.0001006822
0.0001006821
0.0001006722
0.0001006824
0.0001006823
0.0001006821
0.000100682
0.0001006819
0.0001006718
0.0001006822
0.0001006821
0.0001006819
0.0001006818
0.0001006816
0.0005977349
0.0005963843
0.0005964783
0.0005965336
0.0005965252
0.0005964909
0.0001006755
0.0001006846
0.0001006846
0.0001006846
0.0001006846
0.0001006847
0.0001006768
0.0001006846
0.0001006846
0.0001006847
0.0001006847
0.0001006847
0.0001006767
0.0001006846
0.0001006846
0.0001006846
0.0001006846
0.0001006846
0.0001006767
0.0001006845
0.0001006846
0.0001006846
0.0001006846
0.0001006846
0.0001006766
0.0001006845
0.0001006845
0.0001006845
0.0001006845
0.0001006845
0.0001006765
0.0001006844
0.0001006844
0.0001006844
0.0001006844
0.0001006844
0.0001006764
0.0001006844
0.0001006844
0.0001006844
0.0001006843
0.0001006843
0.0001006762
0.0001006843
0.0001006843
0.0001006843
0.0001006842
0.0001006842
0.0001006761
0.0001006842
0.0001006842
0.0001006842
0.0001006841
0.0001006841
0.0001006759
0.0001006841
0.0001006841
0.0001006841
0.000100684
0.000100684
0.0001006757
0.000100684
0.000100684
0.000100684
0.0001006839
0.0001006839
0.0001006755
0.0001006839
0.0001006839
0.0001006839
0.0001006838
0.0001006837
0.0001006753
0.0001006838
0.0001006838
0.0001006837
0.0001006837
0.0001006836
0.000100675
0.0001006837
0.0001006837
0.0001006836
0.0001006835
0.0001006834
0.0001006748
0.0001006836
0.0001006835
0.0001006834
0.0001006834
0.0001006833
0.0001006745
0.0001006834
0.0001006834
0.0001006833
0.0001006832
0.0001006831
0.0001006742
0.0001006833
0.0001006832
0.0001006831
0.000100683
0.0001006829
0.0001006738
0.0001006831
0.0001006831
0.000100683
0.0001006828
0.0001006827
0.0001006735
0.000100683
0.0001006829
0.0001006828
0.0001006827
0.0001006825
0.0001006731
0.0001006828
0.0001006827
0.0001006826
0.0001006824
0.0001006823
0.0001006727
0.0001006826
0.0001006825
0.0001006824
0.0001006822
0.0001006821
0.0001006722
0.0001006824
0.0001006823
0.0001006822
0.000100682
0.0001006819
0.0001006718
0.0001006822
0.0001006821
0.0001006819
0.0001006818
0.0001006816
0.0005980318
0.0005971708
0.0005972755
0.0005973044
0.0005972998
0.0005972965
0.0001006754
0.0001006846
0.0001006846
0.0001006846
0.0001006846
0.0001006846
0.0001006765
0.0001006846
0.0001006846
0.0001006846
0.0001006846
0.0001006846
0.0001006764
0.0001006846
0.0001006846
0.0001006846
0.0001006846
0.0001006846
0.0001006764
0.0001006846
0.0001006846
0.0001006845
0.0001006845
0.0001006845
0.0001006763
0.0001006845
0.0001006845
0.0001006845
0.0001006844
0.0001006844
0.0001006762
0.0001006845
0.0001006844
0.0001006844
0.0001006844
0.0001006843
0.0001006761
0.0001006844
0.0001006844
0.0001006843
0.0001006843
0.0001006842
0.0001006759
0.0001006843
0.0001006843
0.0001006842
0.0001006842
0.0001006841
0.0001006758
0.0001006843
0.0001006842
0.0001006841
0.0001006841
0.000100684
0.0001006756
0.0001006842
0.0001006841
0.000100684
0.000100684
0.0001006839
0.0001006754
0.0001006841
0.000100684
0.0001006839
0.0001006839
0.0001006838
0.0001006752
0.000100684
0.0001006839
0.0001006838
0.0001006837
0.0001006837
0.000100675
0.0001006839
0.0001006838
0.0001006837
0.0001006836
0.0001006835
0.0001006747
0.0001006838
0.0001006837
0.0001006835
0.0001006835
0.0001006834
0.0001006744
0.0001006836
0.0001006835
0.0001006834
0.0001006833
0.0001006832
0.0001006742
0.0001006835
0.0001006834
0.0001006832
0.0001006831
0.000100683
0.0001006738
0.0001006834
0.0001006832
0.0001006831
0.000100683
0.0001006829
0.0001006735
0.0001006832
0.0001006831
0.0001006829
0.0001006828
0.0001006827
0.0001006732
0.0001006831
0.0001006829
0.0001006827
0.0001006826
0.0001006825
0.0001006728
0.0001006829
0.0001006827
0.0001006825
0.0001006824
0.0001006823
0.0001006724
0.0001006827
0.0001006825
0.0001006823
0.0001006822
0.000100682
0.0001006719
0.0001006825
0.0001006823
0.0001006821
0.0001006819
0.0001006818
0.0001006708
0.0001006823
0.0001006821
0.0001006819
0.0001006817
0.0001006816
0.0002105608
0.0002081322
0.0002081054
0.0002081004
0.0002080888
0.0002080793
0.000100647
0.0001007436
0.0001007444
0.0001007446
0.0001007447
0.0001007446
0.0001007439
0.0001006489
0.0001007404
0.0001007407
0.0001007414
0.0001007414
0.0001007414
0.0001007407
0.0001006488
0.0001007399
0.0001007404
0.0001007411
0.0001007412
0.0001007412
0.0001007405
0.0001006487
0.00010074
0.0001007403
0.0001007411
0.0001007413
0.0001007412
0.0001007406
0.0001006485
0.0001007398
0.0001007402
0.000100741
0.0001007412
0.0001007411
0.0001007404
0.0001006482
0.0001007398
0.0001007401
0.000100741
0.0001007411
0.000100741
0.0001007403
0.0001006479
0.0001007396
0.00010074
0.0001007409
0.0001007409
0.0001007409
0.0001007401
0.0001006476
0.0001007395
0.00010074
0.0001007407
0.0001007408
0.0001007407
0.0001007399
0.0001006472
0.0001007394
0.0001007398
0.0001007406
0.0001007407
0.0001007405
0.0001007397
0.0001006468
0.0001007392
0.0001007397
0.0001007405
0.0001007405
0.0001007404
0.0001007395
0.0001006463
0.0001007391
0.0001007396
0.0001007403
0.0001007404
0.0001007402
0.0001007393
0.0001006458
0.0001007389
0.0001007395
0.0001007402
0.0001007402
0.00010074
0.000100739
0.0001006452
0.0001007387
0.0001007393
0.00010074
0.00010074
0.0001007398
0.0001007388
0.0001006446
0.0001007385
0.0001007392
0.0001007399
0.0001007398
0.0001007396
0.0001007385
0.0001006439
0.0001007383
0.000100739
0.0001007397
0.0001007396
0.0001007393
0.0001007382
0.0001006432
0.0001007381
0.0001007388
0.0001007396
0.0001007394
0.0001007391
0.0001007379
0.0001006425
0.0001007379
0.0001007387
0.0001007394
0.0001007392
0.0001007388
0.0001007375
0.0001006416
0.0001007376
0.0001007385
0.0001007392
0.000100739
0.0001007386
0.0001007372
0.0001006408
0.0001007374
0.0001007383
0.000100739
0.0001007388
0.0001007382
0.0001007369
0.0001006398
0.0001007372
0.0001007381
0.0001007388
0.0001007385
0.0001007379
0.0001007366
0.0001006389
0.0001007369
0.0001007379
0.0001007386
0.0001007382
0.0001007376
0.0001007363
0.0001006378
0.0001007366
0.0001007377
0.0001007383
0.0001007379
0.0001007373
0.0001007359
0.0001006365
0.00063683
0.0001007374
0.0001007381
0.0001007375
0.0001007369
0.0001007355
0.0003024103
0.0001867466
0.0001006465
0.0001006792
0.0003042406
0.0002927575
0.0001006557
0.0001006843
0.0001006491
0.0001006846
0.0002924905
0.0002922457
0.0001006605
0.0001006842
0.0001006488
0.0001006839
0.000292255
0.0002922233
0.0001006604
0.000100684
0.0001006487
0.0001006838
0.0002922419
0.0002922265
0.0001006603
0.0001006838
0.0001006486
0.0001006836
0.0002922515
0.0002922364
0.0001006601
0.0001006838
0.0001006484
0.0001006837
0.000292265
0.0002922495
0.00010066
0.0001006838
0.0001006482
0.0001006837
0.000292282
0.0002922655
0.0001006597
0.0001006837
0.0001006479
0.0001006836
0.0002923015
0.0002922839
0.0001006595
0.0001006837
0.0001006476
0.0001006836
0.0002923234
0.0002923049
0.0001006592
0.0001006836
0.0001006473
0.0001006835
0.0002923478
0.0002923284
0.0001006589
0.0001006835
0.0001006469
0.0001006835
0.0002923748
0.0002923546
0.0001006585
0.0001006835
0.0001006465
0.0001006834
0.0002924043
0.0002923834
0.0001006582
0.0001006834
0.0001006461
0.0001006834
0.0002924366
0.000292415
0.0001006577
0.0001006833
0.0001006457
0.0001006833
0.0002924717
0.0002924494
0.0001006573
0.0001006832
0.0001006452
0.0001006832
0.0002925096
0.0002924866
0.0001006568
0.0001006831
0.0001006447
0.0001006831
0.0002925504
0.0002925268
0.0001006563
0.0001006829
0.0001006441
0.000100683
0.0002925944
0.0002925701
0.0001006557
0.0001006828
0.0001006436
0.0001006829
0.0002926415
0.0002926166
0.0001006551
0.0001006826
0.0001006429
0.0001006827
0.000292692
0.0002926666
0.0001006544
0.0001006825
0.0001006421
0.0001006826
0.0002927462
0.0002927208
0.0001006538
0.0001006823
0.0001006413
0.0001006825
0.0002928051
0.0002927832
0.000100653
0.0001006821
0.0001006404
0.0001006823
0.0002928749
0.0002928811
0.0001006523
0.0001006819
0.0001006395
0.0001006822
0.0002930008
0.0001016918
0.0001006366
0.0001006818
0.0001006535
0.0001007009
0.0002111431
0.0001006571
0.000100702
0.0002087746
0.0001006498
0.0001007027
0.0002087828
0.0001006615
0.0001007033
0.0002087397
0.0001006498
0.0001007034
0.0002087563
0.0001006615
0.0001007035
0.0002087563
0.0001006498
0.0001007033
0.0002087662
0.0001006616
0.0001007033
0.00020875
0.0001006498
0.0001007032
0.0002087514
0.0001006616
0.0001007033
0.000208754
0.0001006498
0.0001007032
0.0002087557
0.0001006616
0.0001007033
0.0002087726
0.0001006498
0.0001007034
0.0002087537
0.0001006616
0.0001007034
0.0002087649
0.0001006497
0.0001007034
0.0002087543
0.0001006615
0.0001007027
0.0002111475
0.0001006481
0.000100702
0.0001867506
0.0001006587
0.0001006794
0.0003024115
0.0001006983
0.0001006493
0.0001006846
0.0003042422
0.0002927584
0.0001006981
0.000100649
0.0001006839
0.0002924906
0.0002922457
0.000100698
0.0001006489
0.0001006838
0.0002922566
0.0002922249
0.0001006979
0.0001006484
0.0001006837
0.000292266
0.0002922484
0.000100698
0.0001006481
0.0001006836
0.0002922813
0.0002922645
0.000100698
0.0001006478
0.0001006836
0.0002923009
0.000292283
0.0001006981
0.0001006475
0.0001006835
0.0002923228
0.000292304
0.0001006982
0.0001006472
0.0001006835
0.0002923472
0.0002923275
0.0001006983
0.0001006468
0.0001006834
0.000292374
0.0002923535
0.0001006984
0.0001006464
0.0001006834
0.0002924037
0.0002923825
0.0001006985
0.0001006459
0.0001006833
0.000292436
0.000292414
0.0001006987
0.0001006454
0.0001006832
0.0002924711
0.0002924488
0.0001006988
0.0001006449
0.0001006831
0.0002925091
0.0002924857
0.0001006989
0.0001006444
0.000100683
0.0002925498
0.0002925259
0.0001006991
0.0001006438
0.0001006829
0.0002925938
0.0002925691
0.0001006993
0.0001006432
0.0001006828
0.0002926408
0.0002926147
0.0001006995
0.0001006424
0.0001006826
0.0002926905
0.0002926645
0.0001006998
0.0001006407
0.0001006823
0.0002928055
0.0002927817
0.0001007001
0.0001006398
0.0001006822
0.0002928756
0.000292881
0.0001006818
0.0001006533
0.000100682
0.0002930015
0.0001016951
0.0001007898
0.0001441905
0.0003043265
0.0002930088
0.000210559
0.0002081804
0.0001006795
0.0001006789
0.0002926751
0.0002924835
0.0002081304
0.0002081284
0.0001006786
0.0001006789
0.0002924256
0.0002924464
0.0002081043
0.000208118
0.0001006786
0.0001006789
0.0002924007
0.0002924331
0.0002080994
0.0002081068
0.0001006786
0.000100679
0.000292391
0.0002924379
0.0002080876
0.000208094
0.0001006787
0.0001006791
0.0002924096
0.0002080778
0.0001006787
0.0001007139
0.0001417797
0.0001007123
0.0001415645
0.0001007127
0.0001414968
0.0001007149
0.0001414919
0.0001007133
0.0001415007
0.0001007154
0.000141501
0.0001007135
0.0001415095
0.0001007155
0.0001415099
0.000100714
0.000141522
0.0001007159
0.0001415225
0.0001007145
0.0001415368
0.0001007164
0.0001415375
0.0001007151
0.0001415543
0.0001007169
0.000141555
0.0001007157
0.0001415746
0.0001007175
0.0001415753
0.0001007165
0.0001415976
0.0001007182
0.0001415983
0.0001007173
0.0001416233
0.000100719
0.000141624
0.0001007182
0.0001416519
0.0001007199
0.0001416525
0.0001007192
0.0001416833
0.0001007208
0.0001416838
0.0001007203
0.0001417177
0.0001007219
0.0001417181
0.0001007215
0.0001417552
0.0001007231
0.0001417553
0.0001007228
0.0001417958
0.0001007245
0.0001417956
0.0001007243
0.0001418395
0.0001007259
0.000141839
0.0001007259
0.0001418866
0.0001007275
0.0001418858
0.0001007277
0.0001419371
0.0001007293
0.0001419358
0.0001007297
0.0001419911
0.0001007313
0.0001419893
0.0001007318
0.0001420488
0.0001007334
0.0001420465
0.0001007341
0.0001421103
0.0001007358
0.0001421075
0.0001007367
0.0001421761
0.0001007384
0.0001421731
0.0001007396
0.000142249
0.0001007413
0.0001422537
0.0001008587
0.0001008516
0.0001008635
0.0001008658
0.0001008426
0.0001008754
0.0001008668
0.0001008646
0.000100855
0.0001008735
0.0001008608
0.0001008663
0.0001008635
0.0001008605
0.0001008674
0.0001008544
0.0001008081
0.0001008316
0.000208181
0.0001006795
0.0001006789
0.0003043271
0.0002930051
0.0002081285
0.000100679
0.0001006789
0.0002926723
0.0002924808
0.0002081186
0.0001006791
0.000100679
0.0002924242
0.0002924461
0.0002081068
0.0001006791
0.000100679
0.0002923988
0.0002924301
0.0002080942
0.0001006792
0.0001006791
0.0002923882
0.0002924364
0.0001006793
0.0002924072
0.0001006978
0.0001006488
0.0001006836
0.0002922421
0.0002922277
0.0001006978
0.0001006486
0.0001006838
0.0002922532
0.000292237
0.0001006996
0.0001006416
0.0001006829
0.0002927444
0.0002927213
0.0001007896
0.0001421066
0.0001008284
0.0001469478
0.0001006932
0.0001419594
0.0001006959
0.0001469298
0.0001008126
0.0001008367
0.0001007124
0.0001414942
0.0001007159
0.0001415412
0.0001007129
0.0001414973
0.0001007155
0.000141494
0.0001007132
0.000141505
0.0001007156
0.0001415021
0.0001007133
0.0001415159
0.0001007161
0.0001415119
0.0001007138
0.0001415295
0.0001007167
0.0001415253
0.0001007143
0.0001415456
0.0001007173
0.0001415411
0.0001007148
0.0001415644
0.000100718
0.0001415596
0.0001007154
0.0001415858
0.0001007187
0.0001415808
0.0001007161
0.0001416099
0.0001007196
0.0001416048
0.0001007169
0.0001416367
0.0001007205
0.0001416315
0.0001007177
0.0001416663
0.0001007216
0.0001416611
0.0001007186
0.0001416987
0.0001007227
0.0001416936
0.0001007197
0.0001417341
0.000100724
0.0001417291
0.0001007208
0.0001417723
0.0001007253
0.0001417677
0.0001007221
0.0001418137
0.0001007268
0.0001418093
0.0001007234
0.0001418582
0.0001007285
0.0001418543
0.000100725
0.000141906
0.0001007303
0.0001419025
0.0001007266
0.0001419571
0.0001007323
0.0001419542
0.0001007285
0.0001420119
0.0001007345
0.0001420095
0.0001007305
0.0001420703
0.0001007369
0.0001420684
0.0001007327
0.0001421328
0.0001007395
0.0001421314
0.0001007352
0.0001422014
0.0001007424
0.0001421991
0.000100738
0.0001032123
0.0001422883
0.0001007781
0.0001008644
0.0001008647
0.0001008632
0.0001008446
0.0001008696
0.0001008668
0.0001008539
0.0001008663
0.000100865
0.0001008615
0.0001008619
0.0001008557
0.0001008547
0.0001008807
0.0001008551
0.0001008601
0.00010079
0.0001441975
0.0001007898
0.0001421072
0.0001008287
0.0001469542
0.0001006932
0.0001419585
0.0001006957
0.0001469289
0.0001007139
0.0001417778
0.0001007125
0.0001415637
0.0001007124
0.0001414936
0.0001007157
0.0001415405
0.0001007126
0.000141496
0.000100715
0.0001414916
0.0001007129
0.0001414958
0.0001007153
0.0001414945
0.0001007133
0.0001414994
0.0001007156
0.0001415002
0.0001007145
0.0001415367
0.0001007163
0.0001415371
0.0001007143
0.0001415452
0.000100717
0.0001415407
0.0001007151
0.0001415539
0.000100717
0.0001415546
0.0001007148
0.000141564
0.0001007177
0.0001415592
0.0001007157
0.0001415742
0.0001007177
0.000141575
0.0001007154
0.0001415854
0.0001007185
0.0001415804
0.0001007165
0.0001415972
0.0001007184
0.000141598
0.0001007161
0.0001416095
0.0001007193
0.0001416044
0.0001007173
0.0001416229
0.0001007191
0.0001416236
0.0001007168
0.0001416363
0.0001007203
0.0001416311
0.0001007192
0.000141683
0.0001007208
0.0001416835
0.0001007186
0.0001416983
0.0001007224
0.0001416932
0.0001007203
0.0001417174
0.0001007221
0.0001417177
0.0001007196
0.0001417336
0.0001007236
0.0001417287
0.0001007228
0.0001417956
0.0001007244
0.0001417952
0.000100722
0.0001418133
0.0001007264
0.0001418089
0.0001007233
0.0001418578
0.0001007281
0.0001418539
0.0001007259
0.0001418862
0.0001007277
0.0001418853
0.000100725
0.0001419056
0.0001007299
0.0001419021
0.0001007277
0.0001419367
0.0001007295
0.000141949
0.0001007367
0.0001421893
0.0001007384
0.0001421722
0.0001007352
0.0001422024
0.0001007419
0.0001421982
0.0001007396
0.0001422493
0.0001007415
0.0001422558
0.0001007381
0.0001455948
0.0001422883
0.0001007782
0.0001823086
0.0001678859
0.0001732936
0.0001728178
0.0001732917
0.0001726269
0.000173126
0.0001731347
0.0001730883
0.0001729142
0.0001733348
0.0001725731
0.0001728707
0.0001735667
0.0001729224
0.0001730826
0.0001742237
0.0001742158
0.0001727769
0.0001724135
0.0001727715
0.0001730669
0.0001732168
0.0001726316
0.000173536
0.0001742223
0.0001739096
0.0001735696
0.0001725134
0.0001726174
0.0001727051
0.0001738637
0.0001720867
0.0001723842
0.0001726715
0.0001728644
0.0001733524
0.0001725229
0.000181873
0.0001678777
0.0001583631
0.0001572649
0.0001582158
0.0001573459
0.0001008668
0.0001474997
0.0001008795
0.0001475079
0.0001008656
0.0001474856
0.000147487
0.0001008751
0.0001008664
0.0001475036
0.000100876
0.0001474988
0.0001008668
0.0001475067
0.0001475015
0.0001008773
0.0001007132
0.0001414969
0.0001007153
0.0001415005
0.0001008712
0.0001475426
0.0001008815
0.0001475376
0.0001008725
0.0001475536
0.0001008824
0.0001475492
0.0001008733
0.0001475603
0.0001475547
0.0001008846
0.0001008749
0.0001475725
0.000100885
0.0001475682
0.0001008759
0.0001475802
0.0001475746
0.0001008874
0.000100881
0.0001476186
0.0001008915
0.0001476143