/*--------------------------------*- C++ -*----------------------------------*\
  =========                 |
  \\      /  F ield         | OpenFOAM: The Open Source CFD Toolbox
   \\    /   O peration     | Website:  https://openfoam.org
    \\  /    A nd           | Version:  7
     \\/     M anipulation  |
\*---------------------------------------------------------------------------*/
FoamFile
{
    version     2.0;
    format      ascii;
    class       volScalarField;
    location    "0.04";
    object      p;
}
// * * * * * * * * * * * * * * * * * * * * * * * * * * * * * * * * * * * * * //

dimensions      [0 2 -2 0 0 0 0];

internalField   nonuniform List<scalar> 
80136
(
2.914545
2.914762
2.915102
2.915564
2.916112
2.916759
2.917479
2.914338
2.914562
2.914937
2.915407
2.915992
2.916672
2.917423
2.914011
2.914209
2.914613
2.915114
2.915741
2.916473
2.917285
2.913534
2.913737
2.914182
2.91472
2.915403
2.916203
2.917097
2.912903
2.913116
2.913606
2.914194
2.914946
2.915832
2.916829
2.912108
2.912348
2.912877
2.913526
2.914356
2.915343
2.916464
2.91112
2.911414
2.911979
2.9127
2.913617
2.914719
2.91598
2.909957
2.91029
2.910891
2.911687
2.912696
2.913923
2.915338
2.908555
2.908941
2.909589
2.910466
2.911571
2.912931
2.914503
2.906932
2.907365
2.908055
2.909008
2.910207
2.911696
2.913428
2.905062
2.905532
2.906268
2.907289
2.908577
2.910186
2.912067
2.902938
2.903426
2.904208
2.905285
2.906651
2.90836
2.910376
2.900554
2.901034
2.901858
2.902974
2.904401
2.906186
2.908304
2.897873
2.898334
2.8992
2.900342
2.901812
2.903647
2.905833
2.894913
2.895363
2.896234
2.897384
2.898872
2.900727
2.90294
2.8916
2.892089
2.892939
2.894089
2.895573
2.89742
2.899623
2.888057
2.888501
2.889335
2.890464
2.891924
2.893738
2.895896
2.884177
2.884576
2.885406
2.886502
2.887925
2.889679
2.891761
2.879971
2.880353
2.88117
2.882233
2.883613
2.885299
2.88729
2.875486
2.875827
2.876631
2.877643
2.878972
2.880555
2.882437
2.870694
2.871021
2.871821
2.872806
2.874105
2.875638
2.877432
2.865643
2.865921
2.866726
2.867634
2.868914
2.870287
2.872054
2.860334
2.860573
2.861395
2.86232
2.863582
2.865074
2.866744
2.914587
2.914718
2.914979
2.915453
2.91587
2.916422
2.917054
2.917816
2.914515
2.914539
2.914736
2.915083
2.915551
2.916105
2.916743
2.917474
2.91434
2.914376
2.914559
2.914956
2.915415
2.915999
2.916676
2.917427
2.914096
2.914038
2.91419
2.914615
2.915107
2.915739
2.916467
2.917284
2.913719
2.913595
2.913727
2.914195
2.914719
2.915405
2.916204
2.9171
2.913155
2.912965
2.913099
2.913617
2.91419
2.914947
2.91583
2.916831
2.91247
2.912183
2.912334
2.912891
2.913523
2.914358
2.915342
2.916467
2.911499
2.911142
2.911401
2.911987
2.912696
2.913618
2.914717
2.915984
2.910598
2.909983
2.91029
2.910899
2.911684
2.912697
2.913921
2.91534
2.909244
2.90856
2.908942
2.909595
2.910462
2.911572
2.912928
2.914506
2.907763
2.906938
2.907371
2.908062
2.909005
2.910208
2.911693
2.913428
2.906025
2.905071
2.905536
2.906275
2.907287
2.908578
2.910184
2.912069
2.90399
2.902964
2.903422
2.904218
2.905282
2.906652
2.908358
2.910377
2.901725
2.900623
2.901025
2.901873
2.902971
2.904404
2.906185
2.908305
2.8991
2.897947
2.898308
2.899217
2.900338
2.901815
2.903646
2.905834
2.896507
2.895054
2.895343
2.896259
2.897381
2.898875
2.900727
2.902941
2.893211
2.891573
2.892058
2.892952
2.894085
2.895576
2.89742
2.899625
2.889947
2.888115
2.888485
2.889355
2.890461
2.891927
2.893738
2.895898
2.886487
2.88432
2.884565
2.885434
2.886503
2.887931
2.889681
2.891765
2.882187
2.880068
2.880333
2.881195
2.88223
2.883616
2.885297
2.88729
2.877998
2.875621
2.875814
2.876662
2.877647
2.878981
2.880563
2.882445
2.873257
2.870796
2.871002
2.871847
2.872796
2.874103
2.875618
2.877426
2.868364
2.865772
2.865907
2.866765
2.867651
2.868929
2.870325
2.872062
2.856229
2.860455
2.860525
2.861418
2.862275
2.863578
2.864969
2.866726
2.914607
2.914825
2.915253
2.91564
2.916206
2.916836
2.917526
2.914469
2.91454
2.914755
2.915128
2.915578
2.91614
2.916787
2.9175
2.914244
2.914332
2.914555
2.914935
2.9154
2.915992
2.916672
2.917425
2.913839
2.913966
2.914204
2.914606
2.915115
2.915745
2.916478
2.917293
2.913368
2.913485
2.913743
2.914166
2.914716
2.9154
2.916203
2.917101
2.912697
2.912839
2.91312
2.913585
2.91419
2.914942
2.91583
2.916833
2.911931
2.912048
2.912358
2.912855
2.913521
2.91435
2.915339
2.916468
2.910952
2.911066
2.911415
2.911955
2.912692
2.913609
2.914713
2.915983
2.909816
2.909908
2.910291
2.910867
2.911678
2.912687
2.913916
2.915339
2.908403
2.908516
2.908938
2.909566
2.910455
2.911562
2.912922
2.914505
2.906783
2.906902
2.907358
2.908033
2.908996
2.910197
2.911686
2.913425
2.904897
2.905032
2.905522
2.906245
2.907276
2.908567
2.910176
2.91207
2.902761
2.902902
2.903418
2.904183
2.90527
2.906639
2.908349
2.910374
2.900347
2.900503
2.901027
2.901829
2.902958
2.904389
2.906176
2.908303
2.897495
2.897787
2.898321
2.899166
2.900325
2.901798
2.903637
2.90583
2.894588
2.894819
2.89535
2.896196
2.897366
2.898857
2.900716
2.902937
2.891342
2.891512
2.89206
2.8929
2.89407
2.895557
2.89741
2.899619
2.887779
2.887944
2.888468
2.889292
2.890443
2.891907
2.893726
2.895892
2.883842
2.884047
2.884548
2.885362
2.886483
2.88791
2.88967
2.891756
2.879667
2.879842
2.880328
2.881124
2.882212
2.883595
2.885285
2.887285
2.875144
2.875349
2.875811
2.876589
2.877631
2.878959
2.880553
2.882431
2.870345
2.870554
2.871005
2.871773
2.872783
2.874088
2.875617
2.877431
2.865243
2.865503
2.865928
2.866688
2.867638
2.868898
2.870305
2.872028
2.859784
2.860162
2.860571
2.861349
2.862285
2.86359
2.865017
2.866782
2.914622
2.914852
2.91526
2.915659
2.916219
2.916835
2.917537
2.914451
2.914539
2.914745
2.915125
2.915572
2.91614
2.916781
2.917498
2.914219
2.914343
2.914554
2.914946
2.915405
2.915998
2.916673
2.917428
2.913809
2.913965
2.91419
2.914605
2.915112
2.915744
2.916476
2.917293
2.913363
2.913494
2.913736
2.914169
2.914716
2.915401
2.916203
2.917104
2.912686
2.912845
2.913109
2.913586
2.914188
2.914941
2.91583
2.916837
2.911887
2.912052
2.912342
2.912856
2.913518
2.91435
2.915339
2.916473
2.910886
2.911064
2.911393
2.911955
2.912687
2.913608
2.914712
2.915988
2.909717
2.909895
2.910261
2.910867
2.911671
2.912686
2.913913
2.915343
2.908311
2.908502
2.908909
2.909566
2.910447
2.91156
2.91292
2.914508
2.906689
2.906888
2.907329
2.908034
2.908987
2.910195
2.911681
2.913423
2.904806
2.905023
2.905494
2.906247
2.907268
2.908565
2.910173
2.91207
2.902661
2.902901
2.903392
2.904187
2.905265
2.906639
2.908346
2.910372
2.900264
2.900507
2.901007
2.901835
2.902956
2.904389
2.906174
2.908301
2.897565
2.897814
2.898323
2.899176
2.900327
2.9018
2.903635
2.905829
2.894587
2.89484
2.895342
2.896205
2.897367
2.898858
2.900716
2.902936
2.891258
2.891526
2.892043
2.892908
2.894071
2.895559
2.89741
2.89962
2.887709
2.887951
2.888447
2.889298
2.890443
2.891909
2.893727
2.895891
2.883824
2.884062
2.884539
2.88537
2.886487
2.887913
2.889672
2.89176
2.879615
2.879857
2.88032
2.881132
2.882214
2.883597
2.885285
2.887282
2.875136
2.875374
2.875815
2.876603
2.877641
2.878968
2.880561
2.88244
2.870349
2.870588
2.871011
2.871783
2.872781
2.874081
2.875602
2.877419
2.865307
2.865558
2.865957
2.866717
2.867669
2.868924
2.870347
2.872054
2.859975
2.860229
2.860596
2.861355
2.862254
2.863561
2.864942
2.86674
2.914622
2.914842
2.915263
2.915649
2.916225
2.916842
2.91754
2.914446
2.914536
2.914747
2.91513
2.915576
2.916147
2.916791
2.917505
2.914219
2.914332
2.91455
2.914941
2.915401
2.915998
2.916674
2.917429
2.913794
2.913946
2.914186
2.914599
2.915111
2.915745
2.916479
2.917296
2.91335
2.913469
2.913732
2.914158
2.914712
2.915398
2.916202
2.917105
2.912671
2.912816
2.913104
2.913572
2.914183
2.914937
2.915828
2.916837
2.911881
2.912021
2.912338
2.91284
2.913511
2.914344
2.915335
2.916472
2.910884
2.911038
2.911389
2.911939
2.912679
2.913601
2.914707
2.915985
2.909713
2.909871
2.910255
2.91085
2.911663
2.912678
2.913908
2.91534
2.908311
2.908484
2.908903
2.909549
2.910438
2.911552
2.912913
2.914506
2.906689
2.906873
2.907323
2.908018
2.908978
2.910187
2.911675
2.91342
2.90481
2.905008
2.905487
2.90623
2.907258
2.908557
2.910166
2.912069
2.902672
2.902883
2.903385
2.90417
2.905254
2.90663
2.908339
2.91037
2.900248
2.900473
2.900994
2.901813
2.902943
2.904379
2.906167
2.9083
2.897535
2.897776
2.898309
2.899153
2.900314
2.90179
2.903629
2.905827
2.894552
2.89479
2.895326
2.896179
2.897353
2.898848
2.900708
2.902934
2.891259
2.891494
2.892031
2.892884
2.894058
2.895549
2.897404
2.899617
2.887674
2.887901
2.888429
2.88927
2.890429
2.891898
2.893719
2.895889
2.883772
2.884
2.884519
2.885342
2.886474
2.887904
2.889668
2.891757
2.879576
2.879798
2.880301
2.881103
2.8822
2.883585
2.885278
2.887282
2.875099
2.875318
2.875802
2.87658
2.877634
2.878962
2.880562
2.882439
2.870314
2.87053
2.870995
2.871755
2.872769
2.874072
2.875598
2.877423
2.865279
2.865502
2.86595
2.866694
2.867664
2.868914
2.870343
2.872042
2.859937
2.860166
2.860586
2.861332
2.862257
2.863572
2.864962
2.86677
2.914621
2.914839
2.915259
2.915647
2.916218
2.916841
2.91754
2.914444
2.914534
2.914745
2.915127
2.915574
2.916145
2.91679
2.917503
2.914216
2.91433
2.914548
2.914938
2.915399
2.915995
2.916672
2.917427
2.913792
2.913944
2.914184
2.914597
2.915109
2.915743
2.916478
2.917294
2.913346
2.913465
2.91373
2.914156
2.914711
2.915396
2.9162
2.917103
2.912666
2.912813
2.913101
2.91357
2.914181
2.914935
2.915826
2.916835
2.911869
2.912016
2.912334
2.912838
2.91351
2.914342
2.915334
2.91647
2.910876
2.911033
2.911386
2.911936
2.912678
2.913599
2.914705
2.915983
2.909709
2.909866
2.910253
2.910848
2.911661
2.912677
2.913905
2.915337
2.908301
2.908477
2.908899
2.909547
2.910436
2.91155
2.912911
2.914502
2.906675
2.906868
2.907317
2.908017
2.908976
2.910185
2.911672
2.913416
2.904787
2.905001
2.905479
2.906228
2.907256
2.908555
2.910164
2.912066
2.902662
2.902881
2.903382
2.904169
2.905253
2.906629
2.908337
2.910367
2.900251
2.900473
2.900995
2.901813
2.902943
2.904378
2.906165
2.908298
2.897541
2.897777
2.898311
2.899153
2.900313
2.90179
2.903628
2.905826
2.89455
2.894789
2.895324
2.896178
2.897352
2.898847
2.900707
2.902932
2.891253
2.891492
2.892029
2.892883
2.894056
2.895548
2.897402
2.899617
2.887656
2.887896
2.888423
2.889267
2.890426
2.891895
2.893718
2.895886
2.883783
2.883999
2.884519
2.88534
2.886473
2.887903
2.889667
2.891757
2.879572
2.879794
2.880297
2.881096
2.882194
2.883578
2.885273
2.887274
2.8751
2.87532
2.875804
2.876581
2.87764
2.878966
2.880567
2.882441
2.870317
2.870525
2.870987
2.871738
2.872752
2.874048
2.87558
2.877402
2.865286
2.865508
2.865965
2.86671
2.867704
2.868945
2.870384
2.87206
2.859926
2.860145
2.860557
2.861289
2.862202
2.863508
2.864908
2.866725
2.914621
2.914848
2.915255
2.915653
2.916217
2.916835
2.917535
2.914443
2.914534
2.91474
2.91512
2.915568
2.916137
2.916781
2.917497
2.914211
2.914337
2.914548
2.91494
2.915401
2.915993
2.916671
2.917425
2.9138
2.913956
2.914183
2.914599
2.915106
2.91574
2.916474
2.91729
2.913353
2.913484
2.913729
2.914162
2.91471
2.915396
2.916199
2.917099
2.912674
2.912832
2.9131
2.913578
2.914182
2.914935
2.915824
2.91683
2.911883
2.912037
2.912334
2.912847
2.913511
2.914343
2.915332
2.916465
2.910876
2.911043
2.911385
2.911944
2.91268
2.913601
2.914705
2.915978
2.909695
2.909874
2.910253
2.910856
2.911665
2.912679
2.913906
2.915333
2.908297
2.908489
2.908899
2.909557
2.910441
2.911553
2.912912
2.914499
2.906684
2.906893
2.907324
2.908032
2.908985
2.910191
2.911675
2.913415
2.904822
2.905038
2.905491
2.906246
2.907265
2.908562
2.910167
2.912065
2.902698
2.902917
2.903396
2.90419
2.905265
2.906637
2.908342
2.910368
2.900231
2.900494
2.900998
2.901831
2.902953
2.904386
2.90617
2.908299
2.897555
2.897813
2.898321
2.899175
2.900326
2.901799
2.903635
2.905829
2.894582
2.894837
2.895339
2.896204
2.897366
2.898857
2.900714
2.902936
2.89129
2.891541
2.892046
2.892911
2.894072
2.895561
2.897412
2.899622
2.887696
2.887944
2.88844
2.889295
2.890441
2.891908
2.893727
2.895893
2.883783
2.88403
2.884537
2.885368
2.886493
2.887919
2.889681
2.891767
2.879619
2.879844
2.880321
2.881125
2.882212
2.883592
2.885285
2.887284
2.875199
2.875405
2.875843
2.876622
2.877667
2.878987
2.880586
2.882458
2.870397
2.870598
2.871019
2.871774
2.872773
2.874067
2.875594
2.877416
2.865355
2.86558
2.865992
2.866738
2.867713
2.868946
2.870385
2.87208
2.859972
2.86021
2.860583
2.861328
2.862237
2.863541
2.864928
2.866731
2.914606
2.91481
2.915232
2.915632
2.916168
2.916848
2.917532
2.914455
2.914532
2.914745
2.915116
2.915568
2.916131
2.916785
2.917493
2.914235
2.914325
2.914545
2.914925
2.915393
2.91598
2.916668
2.917421
2.913818
2.913953
2.914192
2.914596
2.915107
2.915737
2.916473
2.917286
2.913347
2.913471
2.913729
2.914156
2.914708
2.915391
2.916195
2.917094
2.912677
2.912827
2.913105
2.913575
2.91418
2.914933
2.915822
2.916824
2.911863
2.912028
2.912336
2.912842
2.91351
2.91434
2.91533
2.916457
2.910907
2.911038
2.911399
2.91194
2.912681
2.913598
2.914702
2.91597
2.909803
2.909876
2.910279
2.910854
2.911668
2.912677
2.913904
2.915325
2.908353
2.908485
2.908918
2.909552
2.910443
2.911551
2.91291
2.91449
2.906716
2.906893
2.907338
2.908029
2.908985
2.910189
2.911674
2.913409
2.904793
2.905032
2.90549
2.906239
2.907264
2.908559
2.910166
2.912057
2.902695
2.902913
2.903404
2.904186
2.905264
2.906636
2.908343
2.910366
2.900359
2.900511
2.901022
2.901827
2.902954
2.904385
2.90617
2.908295
2.897573
2.897797
2.898329
2.899167
2.900325
2.901797
2.903635
2.905828
2.894596
2.894817
2.895345
2.896195
2.897363
2.898855
2.900714
2.902934
2.891312
2.891524
2.892049
2.8929
2.894069
2.895558
2.897411
2.89962
2.887673
2.887937
2.888434
2.889285
2.890436
2.891903
2.893724
2.895889
2.883948
2.884016
2.884563
2.885358
2.886495
2.887917
2.889682
2.891765
2.879595
2.879819
2.880318
2.881107
2.882202
2.883577
2.885274
2.887272
2.87516
2.875375
2.875848
2.876619
2.877692
2.879002
2.880608
2.882462
2.87044
2.870564
2.871001
2.871729
2.872734
2.874012
2.875558
2.877379
2.865294
2.865556
2.866029
2.866771
2.867845
2.869032
2.870497
2.872113
2.859844
2.860114
2.860499
2.861225
2.862108
2.863402
2.864847
2.866659
2.914561
2.91475
2.915088
2.915349
2.916032
2.916518
2.917025
2.91792
2.914498
2.914536
2.914724
2.915073
2.915547
2.916107
2.916747
2.91747
2.91433
2.914357
2.914546
2.914943
2.915404
2.915982
2.916673
2.917425
2.913955
2.914016
2.914178
2.914603
2.915097
2.915731
2.916462
2.917278
2.913694
2.913569
2.913712
2.914182
2.914708
2.915395
2.916196
2.917091
2.913067
2.912923
2.913081
2.9136
2.914178
2.914936
2.91582
2.91682
2.912252
2.912123
2.912316
2.912871
2.91351
2.914346
2.91533
2.916453
2.911678
2.911064
2.911394
2.911961
2.912683
2.913604
2.914704
2.915967
2.910103
2.909889
2.910285
2.910873
2.911673
2.912683
2.913907
2.915323
2.908868
2.908499
2.908928
2.909578
2.910449
2.911559
2.912913
2.914489
2.907235
2.906985
2.907336
2.908063
2.908995
2.9102
2.91168
2.913411
2.905778
2.905185
2.905488
2.906282
2.907274
2.908571
2.910172
2.912059
2.904181
2.903026
2.903424
2.90423
2.905278
2.90665
2.90835
2.910369
2.901128
2.900561
2.901012
2.901865
2.902965
2.904398
2.906178
2.908299
2.898294
2.897937
2.898311
2.899215
2.900337
2.901813
2.903644
2.905832
2.896658
2.894997
2.89534
2.896256
2.897377
2.898873
2.900724
2.90294
2.892295
2.891687
2.892041
2.89296
2.894083
2.895577
2.897423
2.899628
2.890102
2.888097
2.888417
2.889344
2.89045
2.891922
2.893736
2.895898
2.885467
2.88406
2.884589
2.885407
2.886515
2.887938
2.889696
2.891776
2.880917
2.879981
2.880333
2.881165
2.882222
2.883598
2.885288
2.887283
2.878433
2.875734
2.875884
2.876703
2.877712
2.87902
2.880619
2.882477
2.872553
2.870793
2.871041
2.871807
2.872759
2.87404
2.875572
2.877388
2.868315
2.865828
2.866022
2.866817
2.86781
2.869003
2.870463
2.872121
2.85716
2.86037
2.860492
2.861292
2.862143
2.86342
2.864844
2.86664
2.914579
2.914712
2.915025
2.915375
2.915868
2.9165
2.917114
2.91785
2.914503
2.914533
2.914748
2.91508
2.915533
2.91613
2.916756
2.917453
2.914384
2.91434
2.914549
2.914927
2.915396
2.915975
2.916666
2.917424
2.914025
2.913987
2.914196
2.9146
2.9151
2.915733
2.916466
2.917275
2.913598
2.913528
2.913723
2.914171
2.914708
2.915392
2.916194
2.917087
2.913024
2.912903
2.913098
2.913595
2.914181
2.914935
2.91582
2.916816
2.912307
2.912113
2.912329
2.912864
2.913513
2.914344
2.91533
2.916449
2.911541
2.911053
2.911406
2.911955
2.912687
2.913602
2.914704
2.915962
2.910248
2.909847
2.910298
2.910866
2.911677
2.912682
2.913908
2.915318
2.909115
2.90852
2.908936
2.909573
2.910453
2.911557
2.912914
2.914483
2.90754
2.906978
2.907337
2.908057
2.908997
2.910199
2.911682
2.913408
2.905613
2.905168
2.905485
2.906276
2.907276
2.908569
2.910172
2.912053
2.903329
2.903011
2.903422
2.904222
2.90528
2.906649
2.908352
2.910368
2.901535
2.900661
2.901008
2.901866
2.902967
2.904397
2.906179
2.908295
2.898798
2.897831
2.89834
2.899198
2.900341
2.901811
2.903645
2.90583
2.896313
2.894904
2.895366
2.896236
2.897381
2.898869
2.900724
2.902937
2.893367
2.891629
2.892059
2.89294
2.894087
2.895574
2.897423
2.899625
2.88981
2.888167
2.888414
2.889337
2.89045
2.891918
2.893734
2.895894
2.885936
2.883906
2.8846
2.885381
2.886522
2.887936
2.8897
2.891774
2.88165
2.879932
2.880347
2.881141
2.882217
2.883584
2.885281
2.887274
2.877849
2.87553
2.875887
2.876675
2.877751
2.879039
2.880649
2.882484
2.87326
2.870705
2.871026
2.871751
2.872731
2.873992
2.875553
2.877367
2.868146
2.865735
2.8661
2.866832
2.868045
2.869108
2.870613
2.87216
2.862807
2.860248
2.860463
2.861192
2.861993
2.863285
2.864795
2.866596
2.914543
2.914597
2.914486
2.914545
2.914561
2.914676
2.91458
2.914759
2.914554
2.914705
2.914716
2.914954
2.914744
2.915068
2.91474
2.914967
2.915017
2.915366
2.915052
2.915466
2.915055
2.915386
2.915442
2.915774
2.915445
2.915943
2.915496
2.915862
2.915841
2.916504
2.915895
2.916511
2.915973
2.916475
2.916578
2.917021
2.916444
2.917239
2.916577
2.9171
2.917108
2.91788
2.917117
2.917988
2.917216
2.917883
2.917969
2.917851
2.918023
2.914527
2.914424
2.91451
2.914533
2.914338
2.914396
2.914383
2.91416
2.91434
2.914361
2.914028
2.914141
2.91411
2.913668
2.914046
2.914046
2.913621
2.913704
2.913599
2.913154
2.913624
2.913579
2.913038
2.913151
2.91303
2.912419
2.913053
2.912977
2.912309
2.912427
2.91227
2.91157
2.912336
2.912231
2.911429
2.911575
2.911381
2.910577
2.911433
2.911326
2.910382
2.910543
2.910385
2.90927
2.910425
2.910286
2.909103
2.909288
2.909022
2.907784
2.90913
2.908952
2.907561
2.907759
2.907502
2.906086
2.907622
2.907412
2.905801
2.906046
2.905776
2.904108
2.905888
2.905638
2.903768
2.90406
2.903769
2.901868
2.903885
2.903595
2.901477
2.901812
2.90152
2.89929
2.901638
2.901283
2.898898
2.899247
2.898925
2.896236
2.899073
2.898654
2.895963
2.896272
2.89584
2.893404
2.896368
2.895774
2.892809
2.893343
2.892871
2.890182
2.893278
2.892671
2.889379
2.890005
2.889719
2.886173
2.88996
2.889408
2.885636
2.886134
2.885634
2.882306
2.886209
2.885402
2.881515
2.882169
2.881736
2.877857
2.882061
2.881443
2.877133
2.877703
2.877228
2.873308
2.877691
2.876868
2.872461
2.873125
2.87265
2.868343
2.873024
2.872271
2.867485
2.868137
2.867633
2.863039
2.86807
2.86716
2.86216
2.862919
2.862289
2.857481
2.862796
2.861937
2.85674
2.857384
2.914618
2.914473
2.914537
2.914612
2.91447
2.914523
2.914607
2.91447
2.914544
2.914617
2.914458
2.914529
2.914616
2.914458
2.914536
2.914619
2.914453
2.914533
2.914614
2.914454
2.914533
2.914617
2.914451
2.914531
2.914614
2.914451
2.914531
2.914615
2.914449
2.91453
2.914616
2.91445
2.914529
2.91461
2.914453
2.914531
2.914609
2.914457
2.914526
2.9146
2.914465
2.914535
2.914607
2.91447
2.914526
2.914599
2.914468
2.914528
2.914574
2.914478
2.914536
2.914534
2.914686
2.914552
2.914701
2.914551
2.914644
2.915029
2.914746
2.914953
2.914672
2.914917
2.915366
2.915039
2.915368
2.914953
2.91541
2.916014
2.915472
2.915816
2.91547
2.915744
2.916525
2.915952
2.916401
2.915809
2.916352
2.917162
2.916511
2.917167
2.916366
2.917257
2.918018
2.917891
2.914337
2.914012
2.91412
2.91437
2.914159
2.914033
2.913604
2.913688
2.914113
2.913717
2.913566
2.913025
2.913116
2.91368
2.913067
2.912943
2.912305
2.912406
2.912991
2.912479
2.91029
2.908965
2.909382
2.910419
2.909381
2.908977
2.907532
2.907782
2.909162
2.907898
2.907454
2.905728
2.905867
2.907794
2.905667
2.905385
2.904027
2.904136
2.90544
2.904242
2.90356
2.901716
2.901841
2.904022
2.901788
2.90117
2.898588
2.899215
2.90147
2.899266
2.898663
2.895974
2.896348
2.899212
2.896267
2.89577
2.892954
2.893474
2.895933
2.893757
2.89287
2.889754
2.889761
2.893525
2.889138
2.88894
2.884769
2.886288
2.888726
2.886147
2.885315
2.881366
2.882314
2.885831
2.882757
2.881473
2.877162
2.877621
2.882278
2.877299
2.876799
2.872666
2.873367
2.876811
2.873611
2.872526
2.867698
2.868267
2.872921
2.868436
2.867335
2.862365
2.862996
2.867772
2.863217
2.861974
2.856712
2.857395
2.862441
2.857664
2.914545
2.914543
2.914659
2.914573
2.91458
2.914663
2.91487
2.91471
2.914726
2.914878
2.91521
2.914976
2.914986
2.915217
2.915669
2.915368
2.915379
2.915673
2.916199
2.915837
2.915856
2.916201
2.916837
2.916442
2.916453
2.916849
2.917534
2.917054
2.917075
2.917537
2.91783
2.917845
2.914433
2.914516
2.91451
2.91443
2.914223
2.914384
2.914367
2.914214
2.913879
2.914118
2.914101
2.91387
2.913375
2.913697
2.913684
2.913362
2.912723
2.913142
2.91313
2.912709
2.911915
2.912412
2.912393
2.911899
2.910939
2.911537
2.911511
2.910931
2.909794
2.910514
2.910485
2.909787
2.908366
2.909218
2.909191
2.908359
2.906731
2.90772
2.907689
2.906722
2.90485
2.905997
2.90596
2.904842
2.902701
2.904011
2.903966
2.902697
2.900285
2.901769
2.901707
2.900264
2.897542
2.899219
2.899149
2.897493
2.894554
2.896366
2.896316
2.894485
2.89138
2.893395
2.893329
2.891298
2.887844
2.890128
2.890047
2.887757
2.883829
2.886324
2.886257
2.883744
2.879635
2.88236
2.882279
2.879553
2.875102
2.877978
2.877896
2.875014
2.870317
2.873387
2.873295
2.870229
2.8652
2.868425
2.868333
2.865105
2.85984
2.863138
2.863022
2.859741
2.91454
2.914539
2.914536
2.914537
2.914539
2.914537
2.914538
2.914537
2.914534
2.914534
2.914536
2.914532
2.914531
2.91453
2.914537
2.914527
2.914531
2.914537
2.918029
2.917306
2.917811
2.917313
2.917851
2.914519
2.914362
2.914385
2.914515
2.914414
2.912175
2.911478
2.911542
2.912493
2.911293
2.911286
2.910272
2.910578
2.911206
2.910654
2.914546
2.914605
2.9146
2.914546
2.914542
2.914484
2.914488
2.914541
2.914542
2.914545
2.914642
2.91475
2.914745
2.91464
2.914854
2.915029
2.915024
2.914854
2.915186
2.915451
2.915444
2.915182
2.915616
2.915934
2.915926
2.915607
2.916179
2.916573
2.916564
2.916166
2.916765
2.917195
2.917195
2.916759
2.917504
2.91798
2.917982
2.917492
2.914454
2.914343
2.914349
2.914456
2.914241
2.914067
2.914072
2.914241
2.913894
2.913611
2.913624
2.9139
2.913415
2.913037
2.913055
2.913419
2.912755
2.912279
2.912303
2.912769
2.911961
2.911382
2.911415
2.91198
2.911009
2.910327
2.910367
2.911038
2.909841
2.909007
2.909063
2.909875
2.908431
2.907466
2.907528
2.90847
2.906814
2.905703
2.90577
2.906858
2.904943
2.903673
2.903744
2.904994
2.90281
2.901372
2.901449
2.902871
2.900395
2.89876
2.898833
2.900457
2.897641
2.895799
2.895862
2.897692
2.894779
2.892772
2.892825
2.894815
2.891627
2.889441
2.889478
2.89166
2.888005
2.885583
2.885632
2.888036
2.884074
2.881541
2.881584
2.884127
2.879843
2.877111
2.877159
2.879899
2.87536
2.872459
2.872502
2.875424
2.87056
2.867463
2.867505
2.870629
2.865449
2.862139
2.862164
2.865521
2.86013
2.85664
2.860195
2.856689
2.914538
2.914535
2.914535
2.914536
2.914536
2.914535
2.914533
2.914534
2.914533
2.914534
2.914534
2.914535
2.914533
2.914535
2.914532
2.914529
2.91453
2.91453
2.914533
2.914478
2.914482
2.914532
2.914596
2.914571
2.91456
2.91461
2.914558
2.914604
2.914585
2.914743
2.914753
2.91462
2.914777
2.914601
2.914879
2.914699
2.914677
2.91484
2.914709
2.914895
2.914878
2.91502
2.915011
2.914876
2.915185
2.914963
2.914981
2.915194
2.915176
2.91542
2.915395
2.915173
2.915522
2.91535
2.915353
2.915586
2.915477
2.915928
2.915944
2.915567
2.915945
2.915536
2.916339
2.915843
2.915801
2.916218
2.915799
2.916244
2.916291
2.916528
2.916529
2.916182
2.914293
2.914385
2.914383
2.91425
2.914312
2.914044
2.914016
2.914249
2.913981
2.914274
2.913837
2.914096
2.914021
2.913828
2.913856
2.913612
2.913621
2.913858
2.913371
2.913695
2.913675
2.913363
2.913386
2.91304
2.913046
2.913397
2.909817
2.91022
2.910531
2.910236
2.909436
2.909718
2.908975
2.909082
2.909559
2.908372
2.909179
2.909162
2.908367
2.908457
2.907512
2.907558
2.908499
2.906743
2.907775
2.907719
2.906735
2.904917
2.905944
2.905844
2.905138
2.904806
2.904146
2.903635
2.904199
2.905149
2.897296
2.899177
2.898642
2.897241
2.897363
2.895773
2.895857
2.897353
2.894576
2.896329
2.896282
2.894525
2.891406
2.893504
2.893413
2.891322
2.891374
2.889251
2.889441
2.891378
2.888465
2.889768
2.889768
2.887933
2.888702
2.885397
2.885273
2.888118
2.885343
2.888234
2.882657
2.886022
2.886293
2.886417
2.883531
2.883284
2.882993
2.88149
2.881452
2.883721
2.879554
2.882127
2.881838
2.879566
2.879652
2.876952
2.877041
2.879759
2.875111
2.877832
2.877751
2.874993
2.865545
2.862288
2.86234
2.865614
2.859878
2.863286
2.863174
2.859779
2.860103
2.856688
2.860196
2.856727
2.854832
2.855
2.85582
2.856576
2.858011
2.859163
2.861427
2.851675
2.855063
2.855013
2.85587
2.856632
2.857997
2.859293
2.861362
2.854423
2.85468
2.855023
2.855773
2.856602
2.857947
2.859224
2.861294
2.854525
2.85475
2.855074
2.855825
2.856688
2.858005
2.85937
2.861354
2.854449
2.854667
2.855051
2.855782
2.856657
2.85796
2.859321
2.861307
2.854433
2.854671
2.855085
2.855828
2.856771
2.858045
2.859447
2.861357
2.854427
2.854703
2.855068
2.855809
2.856711
2.857991
2.859382
2.861359
2.854192
2.854656
2.855149
2.855896
2.857099
2.858205
2.859686
2.861428
2.852038
2.854876
2.855013
2.855853
2.856872
2.858049
2.859512
2.861403
2.857121
2.854838
2.855285
2.855931
2.857991
2.858469
2.860107
2.861555
2.856706
2.852292
2.85752
2.856306
2.850584
2.852156
2.85635
2.850859
2.851611
2.856938
2.85173
2.854331
2.857747
2.854223
2.857643
2.854752
2.851162
2.851196
2.854828
2.854204
2.857772
2.854113
2.857639
2.854443
2.850893
2.850943
2.854533
2.914543
2.914543
2.914536
2.914537
2.914532
2.914543
2.914543
2.914531
2.91454
2.914533
2.914539
2.914529
2.914539
2.914527
2.914537
2.914526
2.914538
2.914527
2.914533
2.914531
2.914542
2.914541
2.914544
2.91453
2.914541
2.914531
2.91454
2.914532
2.914532
2.914537
2.914536
2.914536
2.914535
2.914537
2.914535
2.914533
2.914526
2.914527
2.914531
2.914531
2.914532
2.914577
2.914572
2.914534
2.914503
2.91446
2.914481
2.914532
2.914953
2.915118
2.915019
2.914854
2.915062
2.914878
2.91513
2.914985
2.915322
2.915563
2.915201
2.915409
2.915458
2.915252
2.915577
2.915364
2.916828
2.916429
2.916474
2.916829
2.916832
2.917237
2.917201
2.916821
2.91785
2.9178
2.917787
2.914322
2.914442
2.914372
2.914285
2.913719
2.913466
2.91362
2.913831
2.912764
2.913136
2.913097
2.912851
2.912699
2.912439
2.912308
2.912424
2.912855
2.909263
2.908635
2.908998
2.909667
2.908826
2.909574
2.908546
2.909126
2.90791
2.907087
2.908287
2.907575
2.907345
2.908187
2.906968
2.907713
2.90674
2.905682
2.905676
2.90678
2.905537
2.906333
2.904964
2.905908
2.903244
2.903932
2.904079
2.904086
2.903257
2.902877
2.90315
2.901846
2.901537
2.90293
2.9015
2.902801
2.900825
2.901743
2.901463
2.900584
2.900963
2.898838
2.898544
2.900447
2.898356
2.900711
2.898193
2.899914
2.898385
2.899056
2.896458
2.895069
2.895855
2.897273
2.895556
2.897081
2.89485
2.896189
2.894862
2.892907
2.892966
2.894911
2.892603
2.894336
2.891858
2.893361
2.890119
2.888281
2.889353
2.891004
2.888952
2.890533
2.88811
2.889701
2.87812
2.875892
2.877132
2.879267
2.876642
2.878866
2.875589
2.87762
2.875513
2.872632
2.872673
2.875557
2.870511
2.873565
2.873471
2.870422
2.870715
2.867601
2.867649
2.870793
2.865335
2.868588
2.868472
2.86523
2.863672
2.861039
2.862484
2.865084
2.855383
2.856904
2.858151
2.859609
2.914543
2.914543
2.914541
2.914533
2.914541
2.914532
2.914541
2.914542
2.914539
2.914541
2.914537
2.91453
2.914537
2.914536
2.91453
2.91453
2.914526
2.914541
2.914532
2.914533
2.917122
2.91712
2.917501
2.917381
2.917961
2.917993
2.917986
2.917424
2.91732
2.917445
2.914509
2.914503
2.914427
2.914432
2.914352
2.914365
2.914453
2.914455
2.912337
2.912513
2.912398
2.911814
2.912112
2.91454
2.914542
2.91453
2.914545
2.914541
2.914532
2.914541
2.914532
2.914538
2.914529
2.914537
2.91453
2.914539
2.91453
2.914536
2.914529
2.914539
2.914525
2.914532
2.914532
2.914531
2.914563
2.914526
2.914538
2.914531
2.9145
2.914538
2.914523
2.914511
2.914538
2.914526
2.914504
2.914943
2.914788
2.914869
2.914973
2.915106
2.915257
2.914991
2.915185
2.915272
2.915107
2.915376
2.915191
2.915478
2.915711
2.915408
2.915602
2.914309
2.914193
2.91437
2.914235
2.913908
2.913799
2.914139
2.913835
2.913765
2.913949
2.913837
2.913652
2.909909
2.909596
2.910269
2.909654
2.909377
2.910138
2.909591
2.909153
2.908686
2.908122
2.909097
2.908401
2.908134
2.908709
2.907703
2.90841
2.90713
2.906429
2.907579
2.906772
2.897837
2.897042
2.899213
2.897318
2.895234
2.894062
2.895985
2.894644
2.892145
2.890759
2.893002
2.891413
2.890592
2.891915
2.891286
2.889708
2.88879
2.887062
2.889343
2.887859
2.876081
2.87433
2.877151
2.875199
2.8644
2.866394
2.86542
2.86324
2.861082
2.858993
2.862407
2.859983
2.858913
2.860975
2.859983
2.857683
2.852414
2.849549
2.851139
2.853932
2.851448
2.851437
2.852605
2.851019
2.848716
2.852267
2.85214
2.848614
2.850339
2.850854
2.852025
2.851918
2.848471
2.848589
2.914616
2.914547
2.914587
2.914616
2.914786
2.914656
2.914733
2.914811
2.915076
2.914896
2.914997
2.915161
2.915501
2.915257
2.915398
2.915599
2.915998
2.915691
2.915867
2.916098
2.916619
2.916284
2.916476
2.916769
2.917259
2.916877
2.917094
2.917425
2.918033
2.91764
2.917865
2.918223
2.914474
2.914542
2.914504
2.914471
2.914306
2.91444
2.91436
2.914286
2.914013
2.914208
2.914095
2.913943
2.913556
2.913812
2.913666
2.913433
2.912962
2.913297
2.913106
2.91279
2.912194
2.912613
2.912372
2.911979
2.911277
2.911786
2.911494
2.911026
2.910204
2.910813
2.910466
2.90991
2.908856
2.909571
2.90917
2.908505
2.907301
2.908125
2.907664
2.906895
2.905513
2.906461
2.905932
2.905062
2.903459
2.904538
2.903938