/*--------------------------------*- C++ -*----------------------------------*\
  =========                 |
  \\      /  F ield         | OpenFOAM: The Open Source CFD Toolbox
   \\    /   O peration     | Website:  https://openfoam.org
    \\  /    A nd           | Version:  7
     \\/     M anipulation  |
\*---------------------------------------------------------------------------*/
FoamFile
{
    version     2.0;
    format      ascii;
    class       surfaceScalarField;
    location    "0.04";
    object      phi;
}
// * * * * * * * * * * * * * * * * * * * * * * * * * * * * * * * * * * * * * //

dimensions      [0 3 -1 0 0 0 0];

internalField   nonuniform List<scalar> 
238548
(
1.68427e-05
-1.664854e-05
9.885457e-09
1.633775e-06
2.89256e-06
2.068075e-06
2.78541e-06
-1.668642e-06
-2.938975e-06
-2.138457e-06
-2.83769e-06
2.429976e-05
-1.596454e-05
-4.558568e-07
9.466869e-07
3.294989e-06
1.72254e-06
2.999204e-06
3.160428e-05
-1.457517e-05
-6.945245e-07
2.155753e-07
3.548974e-06
1.206772e-06
2.993932e-06
3.812637e-05
-1.31443e-05
-6.477373e-07
-4.141124e-07
3.810125e-06
8.247522e-07
3.049249e-06
4.371113e-05
-1.115806e-05
-6.225575e-07
-1.046121e-06
3.938092e-06
3.21494e-07
2.98244e-06
4.808247e-05
-8.836854e-06
-4.469132e-07
-1.679436e-06
3.956628e-06
-1.626175e-07
2.797901e-06
-5.997663e-06
-3.211427e-07
-2.261377e-06
3.818988e-06
-7.22244e-07
2.477573e-06
5.108831e-05
1.762445e-05
-2.48076e-05
5.371486e-07
-1.181386e-06
-3.561065e-06
-1.976983e-06
-3.282964e-06
2.502626e-05
-2.342145e-05
5.519886e-08
3.254202e-05
-2.162689e-05
-4.63957e-07
3.928285e-05
-1.943417e-05
-4.509075e-07
4.517936e-05
-1.659768e-05
-4.568654e-07
4.991593e-05
-1.321194e-05
-3.615325e-07
-9.106228e-06
-2.528803e-07
5.32774e-05
1.844385e-05
-3.390843e-05
8.816902e-07
-6.610316e-07
-4.21779e-06
-1.734208e-06
-3.611619e-06
2.645876e-05
-3.204118e-05
6.048856e-07
3.446667e-05
-2.965649e-05
2.177288e-08
4.178358e-05
-2.673028e-05
-2.072163e-08
4.829484e-05
-2.300014e-05
-1.087896e-07
5.367215e-05
-1.850559e-05
-8.359308e-08
-1.306153e-05
-7.089085e-08
5.769837e-05
1.986593e-05
-4.368563e-05
8.834329e-07
-2.201912e-07
-4.961643e-06
-1.64539e-06
-4.144853e-06
2.846238e-05
-4.135357e-05
7.159924e-07
3.715487e-05
-3.8433e-05
8.408674e-08
4.519891e-05
-3.481491e-05
4.061698e-08
5.252374e-05
-3.025631e-05
-6.858779e-08
5.877899e-05
-2.470175e-05
-5.909641e-08
-1.7942e-05
-5.615746e-08
6.371566e-05
2.154624e-05
-5.437133e-05
9.88205e-07
2.13187e-07
-5.796845e-06
-1.541977e-06
-4.723097e-06
3.095062e-05
-5.16353e-05
8.774151e-07
4.05591e-05
-4.82242e-05
1.828097e-07
4.95971e-05
-4.399146e-05
1.386596e-07
5.801246e-05
-3.867485e-05
3.234798e-09
6.545125e-05
-3.213872e-05
-1.685869e-09
-2.41215e-05
-2.026898e-08
7.16512e-05
2.356054e-05
-6.603261e-05
1.053166e-06
6.537392e-07
-6.72136e-06
-1.484502e-06
-5.400147e-06
3.39073e-05
-6.293915e-05
9.572211e-07
4.458285e-05
-5.911255e-05
2.129176e-07
5.479894e-05
-5.437549e-05
1.680417e-07
6.453702e-05
-4.84308e-05
1.799687e-08
7.345292e-05
-4.106298e-05
8.36676e-09
-3.19335e-05
-1.757462e-08
8.128242e-05
2.575206e-05
-7.886036e-05
1.295086e-06
1.118315e-06
-7.771608e-06
-1.416205e-06
-6.149769e-06
3.717128e-05
-7.541351e-05
1.055327e-06
4.907223e-05
-7.12777e-05
2.644226e-07
6.066164e-05
-6.617118e-05
2.064551e-07
7.196168e-05
-5.977205e-05
4.129933e-08
8.266663e-05
-5.17935e-05
2.567167e-08
-4.179684e-05
-8.774305e-09
9.253889e-05
2.810745e-05
-9.282973e-05
1.465567e-06
1.625072e-06
-8.900584e-06
-1.346912e-06
-6.980968e-06
4.067444e-05
-8.911161e-05
1.131291e-06
5.389135e-05
-8.479467e-05
3.002526e-07
6.698797e-05
-7.949805e-05
2.303929e-07
8.004406e-05
-7.288192e-05
5.392102e-08
9.281973e-05
-6.460192e-05
3.277164e-08
-5.412129e-05
-8.799036e-09
0.0001051528
3.047112e-05
-0.0001080383
1.674112e-06
2.223206e-06
-1.00887e-05
-1.244999e-06
-7.82612e-06
4.423736e-05
-0.0001041012
1.223597e-06
5.883316e-05
-9.973138e-05
3.410857e-07
7.352092e-05
-9.444192e-05
2.562708e-07
8.845913e-05
-8.788722e-05
6.717257e-08
0.0001034979
-7.968061e-05
3.999768e-08
-6.923309e-05
-1.132182e-08
0.0001186212
3.281603e-05
-0.0001244218
1.842703e-06
2.890323e-06
-1.134789e-05
-1.101835e-06
-8.71563e-06
4.773971e-05
-0.0001203282
1.303402e-06
6.369711e-05
-0.0001160633
3.746816e-07
7.997543e-05
-0.0001109985
2.783219e-07
9.68293e-05
-0.0001048187
7.773511e-08
0.0001142238
-9.712198e-05
4.681199e-08
-8.733571e-05
-3.511642e-09
0.0001323298
3.500086e-05
-0.000141906
1.978881e-06
3.648906e-06
-1.267213e-05
-8.78348e-07
-9.593986e-06
5.100084e-05
-0.0001377201
1.391965e-06
6.82371e-05
-0.0001337033
4.038252e-07
8.600989e-05
-0.0001290691
2.979755e-07
0.0001046711
-0.0001235637
8.387518e-08
0.000124301
-0.000116798
4.609506e-08
-0.0001082755
-1.628433e-08
0.0001452571
3.692699e-05
-0.0001603452
2.052131e-06
4.512864e-06
-1.403066e-05
-5.553905e-07
-1.046676e-05
5.386643e-05
-0.0001561367
1.477184e-06
7.222319e-05
-0.0001524835
4.235583e-07
9.12931e-05
-0.0001484531
3.141567e-07
0.0001115066
-0.0001438653
8.815256e-08
0.000133029
-0.0001383666
4.615529e-08
-0.000131539
-1.433589e-08
0.0001563066
3.851051e-05
-0.0001795341
2.056842e-06
5.478501e-06
-1.541771e-05
-1.48385e-07
-1.129088e-05
5.621436e-05
-0.0001753916
1.551124e-06
7.547765e-05
-0.0001721826
4.358372e-07
9.558364e-05
-0.0001688864
3.273835e-07
0.0001170242
-0.0001653957
8.988611e-08
0.0001400187
-0.0001614062
4.496582e-08
-0.0001565783
-1.904522e-08
0.0001650771
3.963225e-05
-0.000199298
2.042795e-06
6.548717e-06
-1.677786e-05
3.297942e-07
-1.201172e-05
5.792892e-05
-0.0001953119
1.623747e-06
7.784964e-05
-0.0001925457
4.42516e-07
9.868299e-05
-0.0001900566
3.369734e-07
0.0001209576
-0.0001877592
8.899318e-08
0.0001449193
-0.0001854102
4.223008e-08
-0.0001827469
-2.220128e-08
0.0001711099
4.037363e-05
-0.0002193851
1.923495e-06
7.706489e-06
-1.812586e-05
9.232997e-07
-1.271393e-05
5.899744e-05
-0.0002155741
1.638465e-06
7.928584e-05
-0.000213269
4.350275e-07
0.0001004986
-0.0002116089
3.39681e-07
0.0001231845
-0.0002105311
8.599784e-08
0.0001475851
-0.0002098508
3.993569e-08
-0.0002093925
-2.471307e-08
0.0001742554
4.068684e-05
-0.0002397687
2.199579e-06
8.830849e-06
-1.948269e-05
1.564882e-06
-1.341579e-05
5.936366e-05
-0.0002359127
1.661765e-06
7.974888e-05
-0.0002340995
4.453588e-07
0.0001010015
-0.0002332023
3.40772e-07
0.0001236764
-0.0002332883
8.228066e-08
0.000147995
-0.0002342047
3.528266e-08
-0.0002358788
-2.88604e-08
0.0001745098
4.054419e-05
-0.0002599839
2.067763e-06
1.007154e-05
-2.070947e-05
2.280036e-06
-1.403881e-05
5.9098e-05
-0.0002560926
1.626216e-06
7.929381e-05
-0.0002547252
4.299174e-07
0.0001002496
-0.0002544919
3.339367e-07
0.0001224931
-0.0002556085
7.670404e-08
0.0001461994
-0.0002579423
3.133304e-08
-0.000261557
-3.194526e-08
0.0001719095
3.996223e-05
-0.0002798795
1.878074e-06
1.144229e-05
-2.184713e-05
3.02228e-06
-1.456203e-05
5.823299e-05
-0.0002759622
1.598865e-06
7.801255e-05
-0.00027491
4.052573e-07
9.838731e-05
-0.0002751874
3.207624e-07
0.0001198195
-0.0002771064
6.578836e-08
0.000142407
-0.0002805499
1.988891e-08
-0.0002857673
-3.922846e-08
0.0001666564
3.908309e-05
-0.0002993671
1.863816e-06
1.27586e-05
-2.292206e-05
3.802981e-06
-1.509892e-05
5.688024e-05
-0.0002953314
1.571968e-06
7.605826e-05
-0.0002944808
3.927659e-07
9.561443e-05
-0.0002950591
3.155006e-07
0.0001159054
-0.0002974654
6.790015e-08
0.0001369006
-0.0003015752
3.016217e-08
-0.0003078397
-3.072966e-08
0.0001590036
3.79655e-05
-0.0003182614
1.723292e-06
1.411759e-05
-2.395651e-05
4.57694e-06
-1.553254e-05
5.521212e-05
-0.0003140915
1.513373e-06
7.370885e-05
-0.000313335
3.574561e-07
9.234033e-05
-0.0003139693
2.787048e-07
0.0001112989
-0.0003164615
3.746704e-08
0.0001302728
-0.0003205259
-2.332753e-08
-0.0003270238
-5.562719e-08
0.0001495124
3.666068e-05
-0.0003365374
1.667789e-06
1.542582e-05
-2.491242e-05
5.380934e-06
-1.594694e-05
5.32872e-05
-0.000332198
1.479906e-06
7.10898e-05
-0.0003315084
3.707455e-07
8.878239e-05
-0.0003319881
3.26141e-07
0.0001063389
-0.0003341313
1.133016e-07
0.0001231383
-0.0003374602
1.347929e-07
-0.0003427281
3.790087e-08
0.0001388046
3.521754e-05
-0.0003541686
1.494422e-06
1.674947e-05
-2.580997e-05
6.215135e-06
-1.62355e-05
5.139475e-05
-0.0003497734
1.398135e-06
6.880866e-05
-0.0003492229
3.005091e-07
8.600982e-05
-0.00034937
1.80771e-07
0.0001026905
-0.0003508065
-5.510713e-09
0.0001171769
-0.000351693
-2.537007e-07
-0.0003541938
-4.356638e-08
0.0001286861
3.345986e-05
1.377749e-06
1.805517e-05
-2.661776e-05
7.149196e-06
-1.649348e-05
-0.0003710994
4.915135e-05
1.444009e-06
-0.0003669091
6.631601e-05
4.636482e-07
-0.0003668514
8.329633e-05
5.971891e-07
-0.0003669476
9.969635e-05
4.833482e-07
-0.00036769
0.0001136168
1.197251e-06
-0.0003668107
5.721538e-07
-0.0003616234
0.0001204742
-7.353561e-08
-4.424445e-07
3.139486e-06
-9.004463e-07
5.905478e-09
8.367182e-08
-8.20183e-08
-5.496431e-08
-6.031036e-07
-4.665111e-07
-6.060628e-07
-3.008812e-07
-4.193992e-06
5.079035e-06
-6.826966e-07
3.204534e-07
1.125758e-07
-1.856308e-07
-1.488694e-07
-4.181104e-07
-6.622353e-06
7.660711e-06
-6.24287e-07
1.497617e-07
2.201874e-07
-2.190864e-07
-1.468013e-07
-5.47515e-07
-8.790244e-06
9.44083e-06
-5.637969e-07
6.836372e-07
2.815412e-07
-3.06331e-07
-1.980843e-07
-6.601417e-07
-1.056627e-05
1.118639e-05
-3.635947e-08
3.698577e-07
3.441569e-07
-3.838049e-07
-2.537656e-07
-7.687154e-07
-1.229291e-05
1.280792e-05
-2.936343e-07
9.013434e-07
3.703044e-07
-4.46793e-07
-2.774526e-07
-8.277515e-07
-1.380836e-05
1.402583e-05
3.471334e-07
6.35975e-07
3.934833e-07
-4.546284e-07
-3.116444e-07
-8.835408e-07
-1.479892e-05
4.052652e-07
1.033975e-06
-4.908227e-07
4.155881e-07
-3.393057e-07
1.465781e-05
7.595121e-08
4.400305e-07
9.490519e-07
-3.195284e-06
2.748643e-09
8.602256e-08
-8.315031e-08
5.549094e-08
5.968254e-07
4.650381e-07
6.073314e-07
1.88852e-05
-1.874567e-05
-8.982579e-09
2.164911e-06
2.56795e-06
2.177581e-06
2.718305e-06
-2.229068e-06
-2.585836e-06
-2.229946e-06
-2.704458e-06
2.759737e-05
-1.798353e-05
-4.439357e-07
1.895264e-06
2.801589e-06
2.001034e-06
2.561617e-06
3.566425e-05
-1.652432e-05
-6.639068e-07
1.614353e-06
2.714445e-06
1.610923e-06
2.487189e-06
4.301688e-05
-1.49113e-05
-6.142487e-07
1.389107e-06
2.428238e-06
1.633498e-06
2.074398e-06
4.9336e-05
-1.268752e-05
-5.987539e-07
7.103025e-07
2.542007e-06
1.04818e-06
2.044135e-06
5.421694e-05
-1.008811e-05
-5.338993e-07
7.063264e-07
2.106347e-06
1.009697e-06
1.4718e-06
-6.849047e-06
-3.571451e-07
-1.307024e-07
1.945074e-06
3.781794e-07
1.306752e-06
5.760271e-05
2.989599e-07
4.219221e-06
7.430004e-07
-5.144887e-06
-3.677909e-07
1.831763e-07
-8.550317e-08
1.539103e-07
1.986585e-05
-2.835019e-05
5.457709e-07
-2.110968e-06
-3.072879e-06
-2.184493e-06
-2.901522e-06
2.916432e-05
-2.730147e-05
7.477238e-08
3.786375e-05
-2.529313e-05
-3.94453e-07
4.571981e-05
-2.2717e-05
-5.011461e-07
5.254324e-05
-1.939609e-05
-5.716471e-07
5.80447e-05
-1.546895e-05
-4.820759e-07
-1.0654e-05
-3.443488e-07
6.194124e-05
4.368311e-07
6.861168e-06
8.214398e-07
-8.068319e-06
-1.920299e-07
2.300083e-07
-2.342972e-07
1.452706e-07
2.093255e-05
-3.86446e-05
8.642736e-07
-2.102691e-06
-3.370943e-06
-2.061442e-06
-3.085541e-06
3.091551e-05
-3.728749e-05
6.080337e-07
4.014935e-05
-3.458951e-05
8.44162e-08
4.867199e-05
-3.114549e-05
-1.148068e-07
5.622372e-05
-2.679614e-05
-2.603844e-07
6.248258e-05
-2.155882e-05
-2.524905e-07
-1.521489e-05
-1.963638e-07
6.71689e-05
6.199612e-07
9.661783e-06
8.775756e-07
-1.07852e-05
-6.40221e-07
3.373169e-07
-2.998803e-07
2.287124e-07
2.262892e-05
-4.965269e-05
1.059378e-06
-2.202444e-06
-3.789694e-06
-2.365879e-06
-3.438779e-06
3.332625e-05
-4.812318e-05
8.544048e-07
4.330322e-05
-4.482027e-05
3.380059e-07
5.266921e-05
-4.056388e-05
9.317302e-08
6.115691e-05
-3.523894e-05
-1.133848e-07
6.844826e-05
-2.876101e-05
-1.482235e-07
-2.08877e-05
-1.378154e-07
7.420309e-05
7.870248e-07
1.253277e-05
8.685379e-07
-1.372036e-05
-8.021961e-07
4.334888e-07
-3.825153e-07
2.832852e-07
2.454734e-05
-6.159727e-05
1.255174e-06
-2.261593e-06
-4.249768e-06
-2.501846e-06
-3.85642e-06
3.625288e-05
-6.005657e-05
1.105392e-06
4.724566e-05
-5.618414e-05
5.539958e-07
5.774949e-05
-5.121465e-05
2.856794e-07
6.748975e-05
-4.500305e-05
2.718199e-08
7.615456e-05
-3.738268e-05
-4.460452e-08
-2.805627e-05
-7.733967e-08
8.338005e-05
9.742435e-07
1.564326e-05
9.272763e-07
-1.693322e-05
-1.071406e-06
5.708993e-07
-4.573192e-07
3.46337e-07
2.687471e-05
-7.456064e-05
1.379331e-06
-2.384399e-06
-4.798646e-06
-2.752672e-06
-4.301703e-06
3.972221e-05
-7.319817e-05
1.25153e-06
5.191217e-05
-6.883483e-05
6.738764e-07
6.377012e-05
-6.328896e-05
3.846156e-07
7.503071e-05
-5.633733e-05
9.180451e-08
8.540884e-05
-4.774734e-05
-5.127169e-09
-3.71311e-05
-6.416093e-08
9.453079e-05
1.142507e-06
1.91492e-05
8.023346e-07
-2.04261e-05
-1.12532e-06
6.596631e-07
-5.848458e-07
3.826517e-07
2.931627e-05
-8.905842e-05
1.392093e-06
-2.369131e-06
-5.247892e-06
-2.86127e-06
-4.436878e-06
4.347358e-05
-8.771255e-05
1.412627e-06
5.711012e-05
-8.29838e-05
7.770649e-07
7.055637e-05
-7.700473e-05
4.761126e-07
8.362104e-05
-6.951279e-05
1.522242e-07
9.607242e-05
-6.020747e-05
3.46241e-08
-4.858693e-05
-4.646633e-08
0.0001075655
1.385203e-06
2.277757e-05
5.397909e-07
-2.430515e-05
-1.024827e-06
8.240806e-07
-6.68352e-07
4.718016e-07
3.207543e-05
-0.0001048511
1.471372e-06
-2.276773e-06
-5.969043e-06
-2.903405e-06
-5.13932e-06
4.754311e-05
-0.0001036243
1.575637e-06
6.27069e-05
-9.870925e-05
8.621635e-07
7.789068e-05
-9.250264e-05
5.447583e-07
9.298286e-05
-8.474375e-05
1.9284e-07
0.0001078355
-7.508339e-05
5.600926e-08
-6.289942e-05
-4.647268e-08
0.0001221861
1.605504e-06
2.700166e-05
4.307545e-07
-2.849189e-05
-1.23018e-06
9.500389e-07
-8.041183e-07
5.382938e-07
3.473654e-05
-0.0001221011
1.519348e-06
-2.18338e-06
-6.593469e-06
-3.054366e-06
-5.500212e-06
5.166192e-05
-0.0001210492
1.72327e-06
6.84417e-05
-0.000116092
9.442091e-07
8.546555e-05
-0.0001098817
6.116287e-07
0.0001027339
-0.0001021772
2.324123e-07
0.0001202055
-9.259242e-05
7.762677e-08
-8.04448e-05
-4.722867e-08
0.0001377863
1.872763e-06
3.142642e-05
2.778774e-07
-3.298547e-05
-1.402729e-06
1.115831e-06
-9.356802e-07
6.310528e-07
3.744948e-05
-0.0001406955
1.605587e-06
-2.141233e-06
-7.284031e-06
-3.181172e-06
-6.011468e-06
5.573572e-05
-0.0001398993
1.867427e-06
7.409512e-05
-0.0001350985
1.021983e-06
9.295643e-05
-0.0001291358
6.713039e-07
0.0001124408
-0.0001218492
2.654674e-07
0.0001326493
-0.0001128495
9.521729e-08
-0.0001014719
-3.939251e-08
0.0001537127
2.161328e-06
3.621012e-05
1.177774e-07
-3.775979e-05
-1.670201e-06
1.29463e-06
-1.078646e-06
7.248051e-07
3.995501e-05
-0.0001605568
1.721069e-06
-2.064307e-06
-7.991259e-06
-3.266037e-06
-6.514145e-06
5.953832e-05
-0.0001600938
2.003281e-06
7.937327e-05
-0.0001556275
1.097933e-06
9.995955e-05
-0.00015015
7.258963e-07
0.0001215312
-0.0001436287
2.917647e-07
0.0001443207
-0.0001356965
1.037189e-07
-0.0001257831
-6.098128e-08
0.0001686759
2.462259e-06
4.127486e-05
-6.565822e-08
-4.282113e-05
-1.914926e-06
1.475878e-06
-1.237295e-06
8.260219e-07
4.215281e-05
-0.0001814908
1.860585e-06
-1.923966e-06
-8.773185e-06
-3.332463e-06
-6.997779e-06
6.289504e-05
-0.0001814729
2.114164e-06
8.401065e-05
-0.0001774827
1.163352e-06
0.0001060957
-0.0001726902
7.694741e-07
0.0001294629
-0.0001672182
3.106038e-07
0.0001544481
-0.000160745
1.093041e-07
-0.0001527942
-5.966092e-08
0.0001815048
2.770158e-06
4.666245e-05
-2.306137e-07
-4.829899e-05
-2.046579e-06
1.634663e-06
-1.41381e-06
9.22684e-07
4.396931e-05
-0.0002032002
2.042527e-06
-1.776009e-06
-9.639954e-06
-3.331789e-06
-7.497688e-06
6.567096e-05
-0.0002038308
2.207362e-06
8.779834e-05
-0.000200399
1.224738e-06
0.0001110811
-0.0001964512
8.055812e-07
0.0001358626
-0.0001922357
3.258982e-07
0.0001625482
-0.0001874998
1.143306e-07
-0.000181865
-5.776085e-08
0.0001916572
3.090176e-06
5.240341e-05
-2.0591e-07
-5.371148e-05
-2.786029e-06
1.780396e-06
-1.596237e-06
1.025664e-06
4.513198e-05
-0.0002254342
2.17566e-06
-1.733152e-06
-1.015941e-05
-3.356756e-06
-7.781692e-06
6.769089e-05
-0.0002270121
2.246165e-06
9.055224e-05
-0.0002240837
1.26597e-06
0.0001146831
-0.0002210723
8.273489e-07
0.0001404275
-0.0002182219
3.308263e-07
0.000168235
-0.0002153781
1.128432e-07
-0.0002122478
-6.115943e-08
0.000198657
3.495693e-06
5.800249e-05
3.76165e-07
-5.949899e-05
-3.78246e-06
2.01039e-06
-1.742839e-06
1.139619e-06
4.614534e-05
-0.0002476808
2.330696e-06
-2.139088e-06
-1.038924e-05
-3.892144e-06
-7.885275e-06
6.902075e-05
-0.0002505523
2.303324e-06
9.223779e-05
-0.0002481613
1.29565e-06
0.0001167998
-0.0002461365
8.419933e-07
0.0001430139
-0.0002446837
3.336725e-07
0.0001713281
-0.0002437643
1.119257e-07
-0.0002431902
-5.772858e-08
0.0002023031
3.786119e-06
6.409617e-05
-4.920077e-07
-6.519526e-05
-3.553573e-06
2.110735e-06
-1.955353e-06
1.203245e-06
4.632763e-05
-0.0002710556
2.060199e-06
-1.331142e-06
-1.057921e-05
-3.334319e-06
-7.568831e-06
6.933668e-05
-0.0002742253
2.325757e-06
9.275942e-05
-0.0002724155
1.276904e-06
0.0001173766
-0.0002712555
8.42622e-07
0.0001435829
-0.0002711331
3.253543e-07
0.0001718037
-0.000272057
1.070554e-07
-0.0002739502
-6.203888e-08
0.000202597
4.135756e-06
6.964124e-05
-1.484098e-06
-7.073069e-05
-3.048864e-06
2.278503e-06
-2.099048e-06
1.307258e-06
4.636021e-05
-0.0002940381
2.145935e-06
-2.79143e-07
-1.170487e-05
-2.86723e-06
-8.604475e-06
6.90795e-05
-0.0002976547
2.336371e-06
9.224666e-05
-0.0002964229
1.270187e-06
0.0001165071
-0.0002960203
8.383296e-07
0.0001422116
-0.00029708
3.190551e-07
0.0001697204
-0.0002996365
1.020364e-07
-0.0003037833
-5.961887e-08
0.0001995808
4.594903e-06
7.568437e-05
-7.949254e-07
-7.661378e-05
-4.655202e-06
2.508907e-06
-2.20679e-06
1.482613e-06
4.577016e-05
-0.0003163323
2.240432e-06
-5.194531e-07
-1.179637e-05
-3.123833e-06
-8.398706e-06
6.813165e-05
-0.000320716
2.29865e-06
9.076668e-05
-0.0003199057
1.253073e-06
0.0001143448
-0.000320099
8.213426e-07
0.000139106
-0.0003220812
3.058394e-07
0.0001653186
-0.0003259259
9.651868e-08
-0.0003319291
-5.904576e-08
0.0001934843
4.909775e-06
8.164022e-05
-1.881831e-06
-8.225316e-05
-4.202221e-06
2.617438e-06
-2.39751e-06
1.567322e-06
4.467742e-05
-0.0003384159
2.150383e-06
5.069686e-07
-1.235121e-05
-2.328697e-06
-8.707475e-06
6.653801e-05
-0.0003432476
2.242881e-06
8.848811e-05
-0.0003426903
1.227195e-06
0.000111126
-0.00034323
8.085454e-07
0.0001345639
-0.0003457657
3.144206e-07
0.0001589235
-0.000350369
1.136652e-07
-0.0003576109
-2.852721e-08
0.0001846026
5.291072e-06
8.735222e-05
-1.630042e-06
-8.771637e-05
-5.330213e-06
2.826222e-06
-2.529846e-06
1.736974e-06
4.347474e-05
-0.0003597223
2.170424e-06
6.731025e-07
-1.244659e-05
-2.308049e-06
-8.5341e-06
6.462162e-05
-0.0003650547
2.173545e-06
8.574553e-05
-0.0003646528
1.195928e-06
0.000107296
-0.0003652843
7.82483e-07
0.0001291878
-0.0003679342
3.140659e-07
0.0001512341
-0.0003725591
1.202012e-07
-0.0003800507
1.932694e-08
0.0001735991
5.60976e-06
9.29069e-05
-2.485421e-06
-9.306254e-05
-5.120046e-06
2.980242e-06
-2.678771e-06
1.849856e-06
4.199179e-05
-0.0003804416
2.124476e-06
1.476038e-06
-1.291902e-05
-1.563366e-06
-8.722943e-06
6.240028e-05
-0.0003861103
2.126817e-06
8.272086e-05
-0.0003858279
1.225199e-06
0.0001031976
-0.0003862884
8.534897e-07
0.0001234718
-0.0003885446
4.49425e-07
0.0001429046
-0.0003921786
3.215021e-07
-0.0003984793
2.209711e-07
0.0001611498
5.922068e-06
9.831407e-05
-2.588804e-06
-9.814892e-05
-5.830518e-06
3.160997e-06
-2.805275e-06
1.976361e-06
4.025713e-05
-0.0004004056
2.112857e-06
1.951174e-06
-1.308807e-05
-1.204914e-06
-8.569927e-06
6.012602e-05
-0.0004065928
2.011559e-06
7.992563e-05
-0.00040655
1.222818e-06
9.975791e-05
-0.000406796
8.560039e-07
0.0001189828
-0.0004083547
5.796387e-07
0.0001360471
-0.0004098941
3.973143e-07
-0.0004125773
6.19494e-07
0.000149482
1.322185e-05
-2.864554e-06
-9.0149e-06
3.909431e-06
0.0001129772
-0.000118229
3.820413e-05
2.161098e-06
-0.0004195226
-8.525879e-06
2.603608e-06
-7.264631e-07
5.76593e-05
2.037946e-06
-0.0004266421
7.724033e-05
1.479128e-06
-0.0004271467
9.700188e-05
1.361019e-06
-0.0004273216
0.0001159435
1.305286e-06
-0.0004281184
0.0001313783
1.714497e-06
-0.0004258464
1.566307e-06
-0.0004217633
0.0001395698
-4.387998e-07
1.51275e-07
2.809706e-06
-8.075229e-07
-1.138031e-07
-5.627885e-07
-4.52046e-07
-5.859966e-07
2.349853e-05
-7.705688e-06
-7.045543e-08
-4.197775e-07
1.267173e-06
-3.047708e-07
2.151287e-07
-3.54333e-06
-4.658078e-06
-3.638714e-06
-4.639881e-06
2.971809e-05
-6.727617e-06
-6.486254e-07
-7.552328e-07
1.536238e-06
-1.885239e-07
5.643181e-07
3.583732e-05
-6.604404e-06
-2.136291e-07
-1.555346e-06
2.029583e-06
-3.496872e-07
5.743446e-07
4.089717e-05
-5.526779e-06
-3.458676e-07
-1.490956e-06
2.067428e-06
-1.930362e-07
4.294423e-07
4.496361e-05
-4.389192e-06
-2.484057e-07
-2.208029e-06
2.559817e-06
-4.048408e-07
6.242688e-07
-2.96244e-06
-1.794718e-07
-2.19676e-06
2.480351e-06
-3.953968e-07
6.06943e-07
4.761047e-05
4.388883e-07
-1.497644e-07
8.503182e-07
-2.837346e-06
9.725999e-08
5.639733e-07
4.520152e-07
5.847234e-07
1.786062e-05
-1.756806e-05
2.353953e-09
1.992661e-06
2.374533e-06
1.98044e-06
2.433034e-06
-2.087925e-06
-2.446401e-06
-2.045521e-06
-2.504634e-06
2.705047e-05
-1.701427e-05
-3.251259e-07
3.553269e-05
-1.545603e-05
-4.176001e-07
4.286858e-05
-1.416743e-05
-3.870129e-07
4.916122e-05
-1.204049e-05
-3.775984e-07
5.411196e-05
-9.54061e-06
-3.331301e-07
-6.481079e-06
-2.225414e-07
5.74961e-05
8.709354e-06
-2.476229e-05
6.525991e-08
4.099935e-07
3.531457e-07
-1.316843e-06
-2.415319e-07
3.600487e-06
4.758758e-06
3.690292e-06
4.733483e-06
1.887997e-05
-2.756564e-05
3.728132e-07
2.841578e-05
-2.651938e-05
4.423848e-08
3.75365e-05
-2.474655e-05
-2.244773e-07
4.554389e-05
-2.2335e-05
-3.407907e-07
5.246131e-05
-1.912038e-05
-4.089676e-07
5.801645e-05
-1.522463e-05
-3.530038e-07
-1.050064e-05
-2.536489e-07
6.194542e-05
8.870753e-06
-3.303833e-05
6.978209e-07
7.750821e-07
1.693623e-07
-1.70306e-06
-5.338507e-07
1.972548e-05
-3.809023e-05
5.341649e-07
3.033473e-05
-3.689088e-05
3.703522e-07
4.004129e-05
-3.44452e-05
7.676771e-08
4.883796e-05
-3.109488e-05
-1.512633e-07
5.653735e-05
-2.67912e-05
-2.887395e-07
6.289727e-05
-2.15533e-05
-2.835868e-07
-1.52138e-05
-2.175461e-07
6.763199e-05
1.011849e-05
-4.271457e-05
3.305043e-07
1.648935e-06
3.626203e-07
-2.118866e-06
-6.654877e-07
2.155609e-05
-4.911343e-05
6.450126e-07
3.279718e-05
-4.786214e-05
5.848185e-07
4.326348e-05
-4.49349e-05
3.616137e-07
5.294029e-05
-4.076163e-05
8.325246e-08
6.161854e-05
-3.545363e-05
-1.290357e-07
6.903654e-05
-2.893659e-05
-1.826348e-07
-2.101472e-05
-1.630749e-07
7.48627e-05
1.090543e-05
-5.311188e-05
4.799979e-07
2.138386e-06
4.095462e-07
-2.636545e-06
-8.994309e-07
2.341672e-05
-6.115923e-05
7.897837e-07
3.572653e-05
-5.986491e-05
7.984762e-07
4.724224e-05
-5.648546e-05
5.891098e-07
5.808647e-05
-5.160753e-05
2.876429e-07
6.8036e-05
-4.53934e-05
1.759465e-08
7.684879e-05
-3.770906e-05
-8.488904e-08
-2.829787e-05
-1.11492e-07
8.416668e-05
1.20996e-05
-6.446473e-05
4.981404e-07
2.695484e-06
5.490963e-07
-3.374955e-06
-1.114407e-06
2.571905e-05
-7.429072e-05
8.916526e-07
3.918661e-05
-7.302147e-05
9.40898e-07
5.193767e-05
-6.929849e-05
7.361311e-07
6.415758e-05
-6.38565e-05
4.137729e-07
7.565063e-05
-5.689519e-05
1.006745e-07
8.619914e-05
-4.822343e-05
-3.890039e-08
-3.749752e-05
-9.83163e-08
9.543259e-05
1.326296e-05
-7.683026e-05
5.26523e-07
3.180937e-06
6.98953e-07
-4.136869e-06
-1.166714e-06
2.815004e-05
-8.870703e-05
9.214716e-07
4.297507e-05
-8.751691e-05
1.083334e-06
5.716691e-05
-8.357629e-05
8.633046e-07
7.099617e-05
-7.773221e-05
5.228916e-07
8.431334e-05
-7.023372e-05
1.737663e-07
9.695851e-05
-6.08386e-05
4.469192e-09
-4.90987e-05
-8.575105e-08
0.0001085998
1.462334e-05
-9.014306e-05
6.962638e-07
3.362944e-06
8.810461e-07
-4.876126e-06
-1.374641e-06
3.080342e-05
-0.0001043984
9.829909e-07
4.704529e-05
-0.0001034072
1.224364e-06
6.278515e-05
-9.942735e-05
9.736261e-07
7.838007e-05
-9.339392e-05
6.116593e-07
9.374694e-05
-8.563825e-05
2.3058e-07
0.0001088165
-7.588458e-05
3.287668e-08
-6.357624e-05
-8.624737e-08
0.0001233332
1.583696e-05
-0.0001046341
7.560799e-07
4.000834e-06
1.067388e-06
-5.693477e-06
-1.476533e-06
3.340897e-05
-0.0001214691
1.018066e-06
5.116579e-05
-0.0001207866
1.346032e-06
6.853868e-05
-0.000116932
1.07621e-06
8.600314e-05
-0.0001109428
6.963086e-07
0.0001035687
-0.0001032577
2.864307e-07
0.0001212774
-9.357984e-05
6.401457e-08
-8.130704e-05
-8.342661e-08
0.0001390451
1.706252e-05
-0.000120188
8.71182e-07
4.592986e-06
1.262297e-06
-6.556812e-06
-1.678341e-06
3.598032e-05
-0.0001398529
1.071766e-06
5.52095e-05
-0.0001396102
1.46202e-06
7.419803e-05
-0.0001360678
1.169357e-06
9.353736e-05
-0.0001303824
7.715835e-07
0.0001133449
-0.000123135
3.353344e-07
0.0001338141
-0.0001140462
9.264089e-08
-0.0001025543
-7.140553e-08
0.0001550927
1.814202e-05
-0.0001367378
9.248376e-07
5.344465e-06
1.477623e-06
-7.420773e-06
-1.918157e-06
3.834468e-05
-0.0001594773
1.142812e-06
5.896501e-05
-0.0001597924
1.565268e-06
7.94748e-05
-0.0001567354
1.255922e-06
0.000100577
-0.0001515972
8.387825e-07
0.000122494
-0.000145136
3.75863e-07
0.0001455579
-0.0001371194
1.12722e-07
-0.0001270804
-7.83428e-08
0.0001701019
1.90657e-05
-0.0001541218
9.089142e-07
6.170481e-06
1.620771e-06
-8.23557e-06
-2.14643e-06
4.041404e-05
-0.0001801806
1.215691e-06
6.226303e-05
-0.000181162
1.634793e-06
8.410707e-05
-0.0001787382
1.322238e-06
0.0001067456
-0.0001743548
8.884844e-07
0.0001304838
-0.0001689665
4.028828e-07
0.0001557655
-0.0001624155
1.239185e-07
-0.0001543431
-7.363757e-08
0.0001830415
1.975773e-05
-0.0001723069
9.692141e-07
6.968751e-06
1.702628e-06
-8.886569e-06
-2.326689e-06
4.207541e-05
-0.0002017676
1.311677e-06
6.495261e-05
-0.000203519
1.687225e-06
8.788379e-05
-0.000201824
1.379368e-06
0.0001117571
-0.000198349
9.265535e-07
0.0001369379
-0.0001942419
4.205823e-07
0.000163946
-0.0001894419
1.324282e-07
-0.0001836899
-6.896038e-08
0.0001933044
2.003595e-05
-0.0001915355
8.61194e-07
8.315766e-06
2.020477e-06
-9.559059e-06
-2.445778e-06
4.320239e-05
-0.0002241012
1.342945e-06
6.690218e-05
-0.0002266646
1.692066e-06
9.063461e-05
-0.0002256977
1.407353e-06
0.0001153803
-0.0002232101
9.427954e-07
0.0001415449
-0.0002204995
4.238818e-07
0.0001696901
-0.0002176019
1.276935e-07
-0.0002143721
-7.359478e-08
0.000200384
2.055959e-05
-0.0002107679
9.61579e-07
9.835528e-06
2.07448e-06
-1.121455e-05
-2.984051e-06
4.408035e-05
-0.0002467501
1.45884e-06
6.815396e-05
-0.0002501742
1.739399e-06
9.23105e-05
-0.0002499924
1.433818e-06
0.0001175081
-0.0002485207
9.550435e-07
0.0001441583
-0.0002472364
4.203938e-07
0.000172829
-0.0002462829
1.219832e-07
-0.0002456169
-7.704557e-08
0.0002040934
2.077235e-05
-0.000230021
7.560073e-07
1.050147e-05
2.477689e-06
-1.233519e-05
-2.919296e-06
4.439246e-05
-0.0002696249
1.315056e-06
6.858901e-05
-0.0002738011
1.75615e-06
9.284901e-05
-0.000274398
1.422545e-06
0.000118102
-0.0002738803
9.492059e-07
0.0001447406
-0.000273956
4.063134e-07
0.0001733205
-0.0002748624
1.066988e-07
-0.0002766846
-8.817583e-08
0.0002044137
2.081929e-05
-0.0002490345
9.927012e-07
1.05436e-05
2.266236e-06
-1.244147e-05
-3.166734e-06
4.429065e-05
-0.0002923107
1.360237e-06
6.82987e-05
-0.0002972391
1.766267e-06
9.232284e-05
-0.000298561
1.409073e-06
0.000117227
-0.0002988829
9.367825e-07
0.0001433627
-0.000300161
3.883874e-07
0.0001712316
-0.0003027218
9.239198e-08
-0.0003068008
-9.669371e-08
0.0002013852
2.045019e-05
-0.0002679758
9.521088e-07
1.252515e-05
2.693168e-06
-1.405851e-05
-3.620812e-06
4.366081e-05
-0.0003146657
1.384843e-06
6.729962e-05
-0.0003203039
1.7247e-06
9.082727e-05
-0.0003222085
1.372875e-06
0.0001150522
-0.0003231886
9.019653e-07
0.0001402365
-0.0003254025
3.629475e-07
0.0001667999
-0.0003292605
7.177848e-08
-0.000335206
-1.054697e-07
0.000195251
1.998876e-05
-0.0002865107
8.277596e-07
1.303309e-05
3.032022e-06
-1.458403e-05
-3.762652e-06
4.268853e-05
-0.000336549
1.333798e-06
6.574137e-05
-0.0003427832
1.669231e-06
8.855682e-05
-0.0003451298
1.332954e-06
0.0001118138
-0.0003465157
8.786353e-07
0.0001356595
-0.0003492915
3.577247e-07
0.0001603498
-0.0003539191
8.17508e-08
-0.000361093
-8.370395e-08
0.0001862922
1.937192e-05
-0.0003044822
7.939894e-07
1.450064e-05
3.232584e-06
-1.587427e-05
-4.053514e-06
4.145473e-05
-0.0003577737
1.312336e-06
6.380258e-05
-0.0003645469
1.589229e-06
8.580168e-05
-0.0003672055
1.272427e-06
0.0001079684
-0.0003687253
8.252966e-07
0.0001302473
-0.0003715945
3.38127e-07
0.0001526052
-0.0003762321
7.534599e-08
-0.0003836322
-4.051316e-08
0.0001752039
1.865635e-05
-0.000321764
7.226365e-07
1.510977e-05
3.569818e-06
-1.651503e-05
-4.26182e-06
4.001408e-05
-0.0003782912
1.284042e-06
6.160478e-05
-0.000385557
1.546078e-06
8.278802e-05
-0.0003884541
1.290438e-06
0.0001038365
-0.0003898228
9.024893e-07
0.000124459
-0.0003922506
4.829583e-07
0.0001441576
-0.0003958934
2.83928e-07
-0.0004020634
1.903769e-07
0.0001626196
1.773701e-05
-0.000338509
5.329708e-07
1.631809e-05
3.840207e-06
-1.726722e-05
-4.416138e-06
3.840388e-05
-0.0003980791
1.233777e-06
5.93592e-05
-0.0004059253
1.424339e-06
8.003797e-05
-0.0004091555
1.245327e-06
0.0001004532
-0.0004102612
8.789537e-07
0.0001199947
-0.0004118104
5.978852e-07
0.0001372822
-0.0004132132
4.295583e-07
-0.0004156329
6.08749e-07
0.0001508619
1.660013e-05
4.175792e-07
-0.0003548225
-1.751254e-05
-4.456538e-06
1.728798e-05
3.976839e-06
3.654501e-05
1.275189e-06
-0.0004171383
5.694342e-05
1.489734e-06
-0.0004257758
7.7378e-05
1.534753e-06
-0.000429646
9.759702e-05
1.42328e-06
-0.0004305427
0.0001166764
1.41588e-06
-0.0004310007
0.0001321904
1.686441e-06
-0.0004286995
1.810018e-06
-0.0004243583
0.0001406719
-4.479895e-07
3.53931e-08
2.804371e-06
-7.61684e-07
-1.782622e-08
-5.758107e-07
-4.54263e-07
-5.821812e-07
2.418683e-05
-7.294375e-06
2.562243e-08
-3.760772e-06
-4.744107e-06
-3.752636e-06
-4.730977e-06
2.997653e-05
-6.251901e-06
-1.863863e-07
3.618028e-05
-6.344695e-06
-7.26744e-08
4.124746e-05
-5.297795e-06
-1.15272e-07
4.531985e-05
-4.242319e-06
-7.847797e-08
-2.830517e-06
-6.511886e-08
4.803601e-05