/*--------------------------------*- C++ -*----------------------------------*\
  =========                 |
  \\      /  F ield         | OpenFOAM: The Open Source CFD Toolbox
   \\    /   O peration     | Website:  https://openfoam.org
    \\  /    A nd           | Version:  7
     \\/     M anipulation  |
\*---------------------------------------------------------------------------*/
FoamFile
{
    version     2.0;
    format      ascii;
    class       volScalarField;
    location    "0.08";
    object      epsilon;
}
// * * * * * * * * * * * * * * * * * * * * * * * * * * * * * * * * * * * * * //

dimensions      [0 2 -3 0 0 0 0];

internalField   nonuniform List<scalar> 
89125
(
0.002086874
0.002193645
0.002212749
0.002215539
0.00221577
0.002216162
0.002215895
0.002215809
0.0009572602
0.0009894022
0.001005018
0.001009319
0.001010477
0.001010804
0.001010886
0.001010916
0.00101088
0.00479439
0.0009759894
0.001016045
0.0010304
0.001034764
0.001036031
0.001036517
0.001036769
0.001036761
0.001036715
0.004793322
0.0009828941
0.001026184
0.001042088
0.001046773
0.001048322
0.001048811
0.001049106
0.001049078
0.001049064
0.004796611
0.0009843145
0.001028532
0.001044986
0.001049893
0.00105151
0.001052155
0.001052353
0.00105245
0.001052347
0.004797799
0.0009846185
0.001028931
0.001045498
0.00105044
0.001052094
0.001052756
0.001052953
0.001053063
0.00105298
0.0047985
0.0009841479
0.001027871
0.001044045
0.001048751
0.001050283
0.001050935
0.001051013
0.001051226
0.001051092
0.004798157
0.0009819193
0.001023743
0.001038845
0.001043006
0.001044373
0.001044985
0.001045018
0.001045269
0.001045174
0.004796618
0.0009739045
0.001009228
0.001020971
0.001024077
0.001024997
0.001025526
0.001025221
0.001025579
0.001025581
0.004786639
0.0009420046
0.0009585878
0.00096505
0.0009663306
0.0009667637
0.0009678944
0.0009667763
0.0009685327
0.0009678332
0.004800139
0.001984674
0.002053377
0.002070401
0.002062456
0.002062573
0.002063972
0.002101743
0.002101937
0.002070632
0.009225
0.009241325
0.004337234
0.009379998
0.009228427
0.009287857
0.01029352
0.004567916
0.009395015
0.001915045
0.001947449
0.001955727
0.001942695
0.001941994
0.001941619
0.00194168
0.001942133
0.001951182
0.0009383447
0.0009618956
0.0009692894
0.0009709213
0.0009714871
0.0009717493
0.0009718704
0.000972
0.0009722863
0.000953675
0.0009939371
0.001006346
0.001009565
0.001010534
0.001010908
0.001011064
0.001011129
0.001011147
0.0009603754
0.001006499
0.001022352
0.001026743
0.001028104
0.001028615
0.001028814
0.001028871
0.001028836
0.0009621964
0.001010306
0.00102744
0.001032458
0.001034077
0.001034692
0.001034928
0.001034992
0.001034946
0.0009627097
0.001011477
0.001029095
0.001034394
0.001036152
0.001036831
0.001037092
0.001037163
0.001037111
0.0009628242
0.001011835
0.00102964
0.001035057
0.001036879
0.001037589
0.001037863
0.001037939
0.001037886
0.0009628166
0.001011946
0.001029834
0.001035307
0.001037165
0.001037892
0.001038176
0.001038254
0.0010382
0.0108248
0.0108036
0.01080275
0.01080279
0.01080282
0.01080274
0.01080288
0.01080277
0.01080281
0.002096662
0.01079846
0.01080055
0.01080046
0.01080045
0.01080045
0.01080038
0.01080046
0.01080038
0.01080041
0.0009820629
0.01079682
0.01080074
0.01080056
0.0108005
0.01080052
0.01080049
0.01080047
0.01080047
0.01080048
0.000996264
0.01079623
0.01080034
0.01080039
0.01080034
0.01080034
0.01080033
0.01080031
0.01080032
0.01080031
0.001001917
0.01079428
0.01080024
0.01080022
0.01080014
0.01080014
0.01080007
0.01080015
0.01080006
0.01080009
0.00100278
0.01079558
0.0107979
0.01079702
0.01079631
0.01079643
0.01079542
0.01079694
0.01079528
0.01079577
0.001002671
0.01079648
0.0107992
0.0107985
0.01079773
0.01079786
0.01079708
0.01079844
0.01079728
0.01079694
0.001001029
0.01078979
0.01078212
0.01077786
0.01077196
0.0107721
0.01076899
0.01077543
0.01077195
0.01077129
0.0009953051
0.01077714
0.01076993
0.01077019
0.01076241
0.01077162
0.01076517
0.01078621
0.01076955
0.01077017
0.0009731428
0.01075778
0.01070875
0.01068909
0.01068242
0.0106788
0.01067311
0.01069762
0.01067224
0.01067032
0.002128164
0.01085818
0.01086729
0.01086612
0.01086743
0.01087028
0.01087262
0.01088842
0.01092903
0.01089731
0.005458817
0.01078812
0.01078415
0.01078419
0.01078424
0.01078425
0.01078425
0.01078425
0.01078425
0.01078426
0.002035816
0.01078755
0.01078767
0.01078769
0.01078769
0.01078769
0.01078769
0.01078769
0.01078769
0.01078769
0.002055841
0.01078749
0.01078762
0.01078765
0.01078765
0.01078764
0.01078764
0.01078764
0.01078764
0.01078764
0.002059636
0.01078748
0.01078759
0.01078761
0.01078761
0.01078761
0.0107876
0.0107876
0.0107876
0.0107876
0.002060422
0.01078747
0.01078758
0.01078759
0.01078758
0.01078758
0.01078757
0.01078757
0.01078757
0.01078757
0.002060654
0.01078746
0.01078757
0.01078757
0.01078756
0.01078756
0.01078756
0.01078755
0.01078755
0.01078755
0.002060669
0.01078746
0.01078756
0.01078757
0.01078756
0.01078755
0.01078755
0.01078755
0.01078755
0.01078755
0.002060471
0.01078746
0.01078756
0.01078756
0.01078755
0.01078755
0.01078754
0.01078754
0.01078754
0.01078754
0.01082214
0.01080529
0.01080504
0.01080519
0.01080514
0.01080515
0.01080515
0.01080512
0.01080512
0.002112569
0.01080246
0.01080365
0.01080335
0.0108034
0.01080335
0.01080336
0.01080338
0.01080336
0.01080334
0.0009998115
0.01080031
0.0108035
0.01080339
0.01080336
0.01080333
0.01080332
0.01080334
0.01080332
0.01080333
0.001026604
0.01080051
0.01080334
0.01080329
0.01080323
0.01080322
0.01080324
0.01080322
0.01080324
0.01080323
0.00103593
0.01079992
0.01080325
0.01080323
0.01080316
0.01080315
0.0108032
0.01080314
0.01080323
0.01080319
0.001037707
0.01080004
0.01080325
0.01080322
0.01080313
0.01080314
0.0108032
0.01080314
0.01080323
0.01080319
0.001037407
0.01079955
0.01080338
0.01080316
0.01080308
0.0108031
0.01080331
0.0108031
0.01080346
0.01080333
0.001034663
0.01078649
0.0108038
0.01080378
0.0108038
0.01080349
0.01080344
0.01080349
0.01080351
0.0108035
0.001024524
0.01077857
0.01080609
0.01080357
0.01080498
0.01080464
0.0108068
0.01080426
0.01080804
0.01080419
0.0009880183
0.01073145
0.01082227
0.01081362
0.0108091
0.01080932
0.01080812
0.01081102
0.01080838
0.01081634
0.002203332
0.0108902
0.01091586
0.01092142
0.01090716
0.01090268
0.01090245
0.01090882
0.01090669
0.01091118
0.005453591
0.01078409
0.0007239151
0.0007909607
0.0008142783
0.0008209551
0.0008229772
0.0008237052
0.0008239579
0.0008239584
0.0009661003
0.01078755
0.01078733
0.01078756
0.01078757
0.01078755
0.01078754
0.01078753
0.01078753
0.01078753
0.0009833402
0.01078748
0.01079055
0.01079055
0.01079055
0.01079055
0.01079055
0.01079055
0.01079055
0.01079055
0.0009912464
0.01078745
0.01079055
0.01079055
0.01079055
0.01079055
0.01079055
0.01079055
0.01079055
0.01079055
0.0009936042
0.01078743
0.01079055
0.01079055
0.01079055
0.01079055
0.01079055
0.01079055
0.01079055
0.01079055
0.0009943914
0.01078742
0.01079055
0.01079055
0.01079055
0.01079055
0.01079055
0.01079055
0.01079055
0.01079055
0.0009946758
0.01078742
0.01079056
0.01079056
0.01079056
0.01079056
0.01079056
0.01079056
0.01079056
0.01079056
0.0009947836
0.01078742
0.01079056
0.01079056
0.01079056
0.01079056
0.01079056
0.01079056
0.01079056
0.01079056
0.01082209
0.01080525
0.01080504
0.010805
0.01080505
0.01080505
0.01080504
0.01080503
0.01080503
0.002117027
0.01080231
0.01080346
0.01080326
0.01080328
0.01080327
0.01080329
0.0108033
0.01080328
0.01080328
0.001006447
0.01080047
0.01080345
0.01080338
0.01080327
0.01080328
0.01080327
0.01080326
0.01080327
0.01080325
0.001037015
0.01080052
0.01080333
0.01080333
0.01080322
0.01080321
0.01080321
0.01080318
0.01080319
0.01080318
0.001048474
0.01079999
0.01080323
0.01080324
0.01080316
0.01080314
0.01080314
0.01080309
0.01080311
0.01080307
0.001050797
0.01079943
0.01080322
0.0108032
0.01080312
0.01080311
0.01080309
0.01080304
0.01080306
0.01080302
0.001050428
0.0107991
0.01080316
0.01080321
0.01080313
0.01080305
0.01080303
0.01080291
0.01080297
0.01080283
0.001047087
0.01078176
0.01080378
0.01080347
0.01080322
0.01080328
0.01080342
0.01080342
0.01080396
0.01080374
0.001034544
0.01078102
0.01080369
0.01080489
0.01080435
0.01080386
0.01080357
0.01080323
0.0108033
0.01080304
0.0009939041
0.01071122
0.01081486
0.0108169
0.01081976
0.01082518
0.01081901
0.01081683
0.01081817
0.01081491
0.002214241
0.01087221
0.01091996
0.0109114
0.01094812
0.01094377
0.01093825
0.01093023
0.01094383
0.01093639
0.005418635
0.01078415
0.0007908703
0.0008790435
0.000917824
0.0009295532
0.0009331088
0.0009343767
0.0009347633
0.000934664
0.0009792668
0.0107876
0.01078757
0.01078777
0.0107878
0.01078779
0.01078777
0.01078777
0.01078777
0.01078777
0.001008548
0.01078757
0.01079055
0.01079055
0.01079055
0.01079055
0.01079055
0.01079055
0.01079055
0.01079055
0.001020347
0.01078754
0.01079055
0.01079055
0.01079055
0.01079055
0.01079055
0.01079055
0.01079055
0.01079055
0.001023989
0.01078752
0.01079055
0.01079055
0.01079055
0.01079055
0.01079055
0.01079055
0.01079055
0.01079055
0.001025211
0.01078751
0.01079055
0.01079055
0.01079055
0.01079055
0.01079055
0.01079055
0.01079055
0.01079055
0.001025672
0.0107875
0.01079056
0.01079055
0.01079055
0.01079055
0.01079055
0.01079055
0.01079055
0.01079055
0.001025863
0.0107875
0.01079056
0.01079056
0.01079056
0.01079055
0.01079055
0.01079055
0.01079055
0.01079055
0.01082197
0.01080522
0.01080492
0.01080501
0.01080498
0.01080504
0.01080499
0.010805
0.01080498
0.002117394
0.01080238
0.01080343
0.01080314
0.01080321
0.01080316
0.01080322
0.01080318
0.01080319
0.01080318
0.001007908
0.01080045
0.01080343
0.01080327
0.01080318
0.01080314
0.01080315
0.01080311
0.01080316
0.01080313
0.001039385
0.01080048
0.01080331
0.01080327
0.01080314
0.0108031
0.01080312
0.01080307
0.01080314
0.0108031
0.001051408
0.01079917
0.01080316
0.0108032
0.01080304
0.01080301
0.01080308
0.01080297
0.01080313
0.01080306
0.001053795
0.01079935
0.01080312
0.01080313
0.01080299
0.01080294
0.01080299
0.0108029
0.01080306
0.01080299
0.001053283
0.01079832
0.01080303
0.01080309
0.01080283
0.01080276
0.01080294
0.01080277
0.01080314
0.01080305
0.001049659
0.01077895
0.01080363
0.01080305
0.01080324
0.01080326
0.01080289
0.01080305
0.01080302
0.01080314
0.001036467
0.01077629
0.01080405
0.01080372
0.01080318
0.01080369
0.01080452
0.01080438
0.01080532
0.01080478
0.0009952095
0.01071087
0.01080907
0.01081417
0.0108161
0.01081759
0.01081755
0.01081942
0.0108218
0.01081577
0.00221684
0.01088876
0.01091004
0.0109285
0.01092033
0.01093994
0.01091742
0.01094227
0.01095071
0.01091603
0.005314992
0.01078421
0.0008124317
0.0009148464
0.0009616542
0.0009762506
0.000980699
0.0009822838
0.0009827579
0.0009826173
0.000983553
0.01078762
0.01078759
0.01078782
0.01078785
0.01078783
0.01078781
0.01078781
0.0107878
0.01078781
0.001016203
0.01078759
0.01079055
0.01079055
0.01079055
0.01079055
0.01079055
0.01079055
0.01079055
0.01079055
0.001030193
0.01078757
0.01079055
0.01079055
0.01079055
0.01079055
0.01079055
0.01079055
0.01079055
0.01079055
0.001034477
0.01078755
0.01079055
0.01079055
0.01079055
0.01079055
0.01079055
0.01079055
0.01079055
0.01079055
0.001035913
0.01078753
0.01079055
0.01079055
0.01079055
0.01079055
0.01079055
0.01079055
0.01079055
0.01079055
0.001036461
0.01078753
0.01079056
0.01079055
0.01079055
0.01079055
0.01079055
0.01079055
0.01079055
0.01079055
0.00103669
0.01078752
0.01079056
0.01079056
0.01079055
0.01079055
0.01079055
0.01079055
0.01079055
0.01079055
0.01082203
0.0108053
0.01080496
0.01080496
0.01080499
0.01080499
0.01080499
0.010805
0.01080498
0.002117697
0.01080229
0.0108034
0.01080316
0.01080317
0.01080317
0.01080318
0.01080317
0.01080319
0.01080317
0.001007611
0.01080042
0.01080342
0.01080326
0.01080318
0.01080316
0.01080317
0.01080314
0.01080319
0.01080316
0.001038873
0.01080052
0.01080329
0.01080328
0.01080314
0.01080312
0.01080313
0.01080309
0.01080316
0.01080311
0.00105067
0.01079998
0.01080315
0.01080321
0.01080304
0.01080303
0.01080309
0.010803
0.01080316
0.01080309
0.001052857
0.01079956
0.01080312
0.01080315
0.01080299
0.01080296
0.01080298
0.01080293
0.01080306
0.010803
0.001051936
0.010799
0.01080302
0.0108031
0.01080282
0.01080279
0.01080292
0.01080281
0.01080315
0.01080308
0.001048133
0.01077776
0.01080361
0.01080314
0.01080328
0.01080331
0.01080293
0.01080315
0.01080308
0.01080318
0.001035172
0.01077845
0.01080427
0.01080357
0.01080323
0.01080373
0.0108043
0.01080438
0.01080529
0.01080479
0.0009944314
0.01070769
0.01080902
0.01081422
0.01081714
0.01081771
0.0108175
0.01082098
0.01082193
0.01081594
0.002217594
0.01086013
0.01090629
0.01092325
0.01092519
0.01093855
0.01091824
0.01094388
0.0109501
0.01091726
0.004849797
0.01078419
0.0008124264
0.0009148631
0.0009616527
0.0009762447
0.0009806946
0.0009822798
0.0009827522
0.0009826088
0.0009827218
0.01078761
0.01078759
0.01078782
0.01078785
0.01078783
0.01078781
0.01078781
0.0107878
0.01078781
0.001016077
0.01078759
0.01079055
0.01079055
0.01079055
0.01079055
0.01079055
0.01079055
0.01079055
0.01079055
0.001030158
0.01078757
0.01079055
0.01079055
0.01079055
0.01079055
0.01079055
0.01079055
0.01079055
0.01079055
0.001034465
0.01078755
0.01079055
0.01079055
0.01079055
0.01079055
0.01079055
0.01079055
0.01079055
0.01079055
0.001035905
0.01078753
0.01079055
0.01079055
0.01079055
0.01079055
0.01079055
0.01079055
0.01079055
0.01079055
0.001036446
0.01078753
0.01079056
0.01079055
0.01079055
0.01079055
0.01079055
0.01079055
0.01079055
0.01079055
0.001036657
0.01078752
0.01079056
0.01079056
0.01079055
0.01079055
0.01079055
0.01079055
0.01079055
0.01079055
0.01082201
0.01080513
0.01080486
0.01080495
0.01080492
0.01080496
0.01080492
0.01080496
0.01080498
0.002117009
0.01080231
0.01080346
0.01080324
0.01080325
0.01080325
0.01080325
0.01080324
0.01080324
0.01080322
0.001004877
0.01080046
0.01080348
0.01080334
0.01080334
0.0108033
0.01080331
0.01080329
0.01080331
0.01080328
0.001033631
0.01080053
0.01080336
0.01080332
0.01080325
0.01080323
0.01080322
0.0108032
0.01080321
0.01080319
0.001044202
0.01079911
0.01080322
0.01080324
0.01080318
0.01080318
0.01080315
0.01080313
0.01080313
0.0108031
0.001045234
0.0107966
0.01080321
0.01080321
0.01080314
0.01080313
0.01080308
0.01080306
0.01080308
0.01080305
0.00104323
0.01079316
0.01080314
0.01080321
0.01080315
0.0108031
0.010803
0.01080301
0.01080298
0.01080287
0.001038322
0.01078157
0.01080389
0.01080357
0.01080337
0.0108034
0.01080353
0.01080354
0.01080411
0.01080393
0.001026223
0.01077767
0.01080368
0.01080474
0.01080425
0.01080411
0.01080355
0.01080327
0.01080343
0.01080311
0.0009889975
0.01071566
0.01081555
0.01081729
0.01081951
0.01082578
0.0108209
0.01081727
0.01081835
0.01081566
0.002214126
0.01085766
0.01091984
0.01091117
0.01094617
0.01094326
0.01093159
0.01092916
0.01094239
0.01093408
0.00495234
0.01078414
0.000790869
0.0008790618
0.0009178228
0.0009295477
0.0009331002
0.0009343639
0.0009347384
0.0009346273
0.0009791258
0.0107876
0.01078757
0.01078777
0.0107878
0.01078779
0.01078777
0.01078777
0.01078777
0.01078777
0.001008377
0.01078757
0.01079055
0.01079055
0.01079055
0.01079055
0.01079055
0.01079055
0.01079055
0.01079055
0.001020278
0.01078754
0.01079055
0.01079055
0.01079055
0.01079055
0.01079055
0.01079055
0.01079055
0.01079055
0.001023953
0.01078752
0.01079055
0.01079055
0.01079055
0.01079055
0.01079055
0.01079055
0.01079055
0.01079055
0.001025188
0.01078751
0.01079055
0.01079055
0.01079055
0.01079055
0.01079055
0.01079055
0.01079055
0.01079055
0.001025607
0.0107875
0.01079056
0.01079055
0.01079055
0.01079055
0.01079055
0.01079055
0.01079055
0.01079055
0.001025703
0.0107875
0.01079056
0.01079056
0.01079056
0.01079055
0.01079055
0.01079055
0.01079055
0.01079055
0.01082246
0.01080556
0.01080517
0.01080522
0.01080522
0.01080518
0.01080523
0.01080526
0.01080564
0.002108974
0.0108025
0.01080366
0.01080349
0.01080354
0.01080352
0.01080352
0.01080353
0.01080352
0.01080351
0.0009992096
0.0108004
0.01080353
0.01080343
0.01080342
0.01080341
0.01080342
0.01080342
0.01080345
0.01080344
0.001009819
0.01080056
0.01080333
0.01080333
0.01080325
0.01080325
0.01080325
0.01080325
0.01080328
0.01080326
0.001029703
0.01079841
0.01080323
0.01080327
0.01080315
0.01080317
0.01080317
0.01080317
0.01080324
0.01080321
0.001017635
0.01078755
0.01080331
0.01080327
0.01080314
0.01080317
0.01080316
0.01080319
0.01080324
0.01080322
0.001021249
0.01078785
0.01080342
0.01080318
0.01080306
0.01080314
0.01080309
0.01080318
0.01080343
0.01080334
0.001007394
0.01078651
0.01080397
0.01080397
0.01080396
0.01080362
0.01080348
0.01080361
0.01080369
0.01080366
0.0009987626
0.01079348
0.01080453
0.01080384
0.01080376
0.01080537
0.01080424
0.01080465
0.01080809
0.01080415
0.0009738538
0.01074987
0.01082343
0.01081405
0.01081083
0.01080892
0.01080935
0.01081106
0.01080893
0.01081725
0.002191745
0.01085088
0.01091574
0.0109208
0.01090656
0.01090108
0.01090816
0.01090651
0.01090458
0.0109101
0.002089452
0.01078409
0.0007238958
0.0007909136
0.00081425
0.0008209429
0.0008229653
0.0008236823
0.0008238981
0.0008238406
0.0009655804
0.01078755
0.01078733
0.01078756
0.01078757
0.01078755
0.01078754
0.01078753
0.01078753
0.01078753
0.000983239
0.01078748
0.01079055
0.01079055
0.01079055
0.01079055
0.01079055
0.01079055
0.01079055
0.01079055
0.0009911246
0.01078745
0.01079055
0.01079055
0.01079055
0.01079055
0.01079055
0.01079055
0.01079055
0.01079055
0.0009935684
0.01078743
0.01079055
0.01079055
0.01079055
0.01079055
0.01079055
0.01079055
0.01079055
0.01079055
0.0009943778
0.01078742
0.01079055
0.01079055
0.01079055
0.01079055
0.01079055
0.01079055
0.01079055
0.01079055
0.0009945765
0.01078742
0.01079056
0.01079055
0.01079055
0.01079056
0.01079056
0.01079056
0.01079056
0.01079056
0.0009941792
0.01078742
0.01079056
0.01079056
0.01079056
0.01079056
0.01079056
0.01079056
0.01079056
0.01079056
0.01081996
0.01082098
0.01082089
0.01082132
0.01082086
0.0108212
0.01082077
0.01082114
0.01082607
0.00209542
0.01080093
0.01080099
0.01080101
0.01080101
0.01080103
0.01080104
0.01080113
0.01080108
0.01080105
0.002151517
0.01079821
0.0108006
0.01080056
0.01080059
0.01080057
0.01080058
0.01080058
0.01080062
0.01080058
0.0009969108
0.01079673
0.01080043
0.01080041
0.0108004
0.01080039
0.01080039
0.01080037
0.01080037
0.01080036
0.00100057
0.01079595
0.01080002
0.01080027
0.01080018
0.01080018
0.01080019
0.01080018
0.01080015
0.01080016
0.0009984109
0.01079083
0.01079486
0.01079784
0.01079641
0.01079634
0.01079679
0.01079653
0.0107966
0.01079649
0.002252071
0.01080015
0.01079738
0.0107987
0.0107976
0.01079693
0.01079778
0.01079767
0.01079718
0.01079767
0.002231953
0.01079332
0.01078182
0.01077701
0.01077364
0.01077135
0.01077292
0.01077408
0.01077187
0.01077302
0.002218859
0.0107867
0.01077478
0.01076509
0.01077
0.0107694
0.01077937
0.01077948
0.01077046
0.01077752
0.002185439
0.01077977
0.01071157
0.01068942
0.01068149
0.01067732
0.01069059
0.01069188
0.01066366
0.01068648
0.002162889
0.01085914
0.01089479
0.01090978
0.01093516
0.01096075
0.01086298
0.01087307
0.01093926
0.01084383
0.00487062
0.01078812
0.01078414
0.01078418
0.01078424
0.01078425
0.01078425
0.01078425
0.01078425
0.01078425
0.002062988
0.01078755
0.01078767
0.01078769
0.01078769
0.01078769
0.01078769
0.01078768
0.01078768
0.01078768
0.002135068
0.01078749
0.01078762
0.01078765
0.01078765
0.01078764
0.01078764
0.01078764
0.01078764
0.01078764
0.002145669
0.01078748
0.01078759
0.01078761
0.01078761
0.0107876
0.0107876
0.0107876
0.0107876
0.0107876
0.00214829
0.01078747
0.01078758
0.01078759
0.01078758
0.01078757
0.01078757
0.01078757
0.01078757
0.01078757
0.002150712
0.01078746
0.01078757
0.01078757
0.01078756
0.01078756
0.01078755
0.01078755
0.01078755
0.01078755
0.002152107
0.01078746
0.01078756
0.01078757
0.01078756
0.01078755
0.01078755
0.01078754
0.01078754
0.01078754
0.002145292
0.01078746
0.01078756
0.01078756
0.01078755
0.01078755
0.01078754
0.01078754
0.01078754
0.01078754
0.0107826
0.01079
0.01080767
0.01080182
0.01058359
0.01079591
0.01058743
0.01079701
0.01080548
0.004833518
0.0009473721
0.0009684124
0.000975383
0.0009777112
0.0009784639
0.0009784411
0.0009782458
0.0009780917
0.0009793169
0.004931726
0.0009703427
0.001010037
0.001022631
0.001026172
0.001027185
0.001027442
0.001027459
0.001027465
0.00102756
0.002135813
0.0009804751
0.001023917
0.001039514
0.001043921
0.001045301
0.001045779
0.001045927
0.001045983
0.001045951
0.002202948
0.0009824154
0.001027367
0.001043932
0.001048833
0.001050432
0.001051017
0.001051243
0.001051294
0.001051226
0.002236851
0.0009821076
0.001027899
0.001044816
0.001049876
0.001051582
0.001052197
0.001052445
0.001052518
0.001052436
0.002200613
0.0009793565
0.001026536
0.001043413
0.001048406
0.001050041
0.001050605
0.001050866
0.001050935
0.001050863
0.004805111
0.000975727
0.001022078
0.001038173
0.001042739
0.00104426
0.001044696
0.001044943
0.001045045
0.001044935
0.004952878
0.0009671479
0.001007688
0.001020253
0.001023805
0.001024909
0.001025124
0.001025176
0.001025355
0.001025205
0.00444799
0.0009381054
0.0009578207
0.0009645777
0.0009661023
0.0009670679
0.0009667188
0.0009670241
0.0009674149
0.0009668614
0.004941401
0.0107528
0.01069819
0.01071321
0.01069928
0.0107171
0.01073149
0.01074036
0.01071754
0.01073505
0.01171258
0.01171571
0.01168065
0.01172068
0.01179785
0.01171072
0.01170317
0.01172746
0.01168871
0.004956011
0.01077852
0.01077864
0.0107786
0.01077859
0.01077858
0.01077858
0.01077858
0.01077858
0.0107786
0.004517757
0.0009384478
0.0009616513
0.0009690305
0.0009708519
0.0009714747
0.0009717404
0.00097185
0.0009718907
0.0009719063
0.004568666
0.0009536444
0.0009938999
0.001006298
0.001009544
0.001010525
0.001010904
0.001011054
0.001011096
0.001011071
0.004569566
0.0009604856
0.001006533
0.001022354
0.00102674
0.001028097
0.001028609
0.001028807
0.00102886
0.00102882
0.004502553
0.0009626611
0.001010402
0.001027457
0.001032455
0.001034066
0.00103468
0.001034917
0.001034981
0.001034935
0.002085964
0.0009632369
0.001011599
0.001029114
0.001034386
0.001036133
0.001036809
0.00103707
0.001037143
0.001037097
0.004529689
0.000963234
0.001011942
0.001029648
0.001035031
0.001036842
0.001037547
0.001037823
0.001037903
0.001037859
0.004502732
0.0009632124
0.001012037
0.001029825
0.001035243
0.001037081
0.001037805
0.001038095
0.001038186
0.001038149
0.001975253
0.01086967
0.005000814
0.01079941
0.009358519
0.004044185
0.01147068
0.001865378
0.009362846
0.004090023
0.004030286
0.01179381
0.01182732
0.001923007
0.001956116
0.004375267
0.004051754
0.0042257
0.01175743
0.0116867
0.001986106
0.002004778
0.009260003
0.004151261
0.004030549
0.0116895
0.01172379
0.002005958
0.001997829
0.009336541
0.004025399
0.004022852
0.01171247
0.01171727
0.001994312
0.001993807
0.00935731
0.004022845
0.004023335
0.01171418
0.01171333
0.001993795
0.001993975
0.009724961
0.004022721
0.004022923
0.01170598
0.01172316
0.001994276
0.001994396
0.004432532
0.004022533
0.004023523
0.01173565
0.01180723
0.001994313
0.001994351
0.009245627
0.004023254
0.004031124
0.01167746
0.01171522
0.001994838
0.001997023
0.004336752
0.004051741
0.004226504
0.01170627
0.01169398
0.002005206
0.002013886
0.001867904
0.001939554
0.00554495
0.01077802
0.004535979
0.01078463
0.001915236
0.001958418
0.004548779
0.01077874
0.004568175
0.01077896
0.001968504
0.001974421
0.004568907
0.01077914
0.004571154
0.01077915
0.001975461
0.001976196
0.004571129
0.01077919
0.00457163
0.01077919
0.001976302
0.00197641
0.004571573
0.01077919
0.004571748
0.01077919
0.00197641
0.001976425
0.004571697
0.01077919
0.004571746
0.01077919
0.001976373
0.001976309
0.004571699
0.01077919
0.004571502
0.01077919
0.00197619
0.0019761
0.004571264
0.01077919
0.004570387
0.01077919
0.0108599
0.004763457
0.01079083
0.01085826
0.004892964
0.01078751
0.01179943
0.001909168
0.0118345
0.001940685
0.01085373
0.004895804
0.01078814
0.01085688
0.004898593
0.01078764
0.01174485
0.00196123
0.01171975
0.00197089
0.01085351
0.004898676
0.01078746
0.01085683
0.004898215
0.0107875
0.01171913
0.001977813
0.01171749
0.006150548
0.001985204
0.0108535
0.00489889
0.01078765
0.01085691
0.004897307
0.01078779
0.01171591
0.001981145
0.01170897
0.006141175
0.001984452
0.01085349
0.004899246
0.01078747
0.01085685
0.00489798
0.01078788
0.0117179
0.006137173
0.00198401
0.01171231
0.004606642
0.001976307
0.01085351
0.00489907
0.0107874
0.01085688
0.004895947
0.01078818
0.01171494
0.001976209
0.01172075
0.006220094
0.001983773
0.0108535
0.004896681
0.01078733
0.01085792
0.004887212
0.01078907
0.01171009
0.005686376
0.001989427
0.01172737
0.005684919
0.001979625
0.01086015
0.004891744
0.01080321
0.01086116
0.004774197
0.01080541
0.01182676
0.006214439
0.001949918
0.01181987
0.006146206
0.001915463
0.01086385
0.005049184
0.01079309
0.00195257
0.01078898
0.008794833
0.008794412
0.001967458
0.002022462
0.01079991
0.008782414
0.00877885
0.002038064
0.002036608
0.01079494
0.008790189
0.008796106
0.002036746
0.002047221
0.01058224
0.008782032
0.008837948
0.004419652
0.002075658
0.002094564
0.01080094
0.008841453
0.008784225
0.004485821
0.002091496
0.002069691
0.01078781
0.008797119
0.008790327
0.004506291
0.002058632
0.002082217
0.01080075
0.008828557
0.008783075
0.00451158
0.002099135
0.00208119
0.01079739
0.008802022
0.008800534
0.002052743
0.002047291
0.01061255
0.008747297
0.008825127
0.002067599
0.002078011
0.0106926
0.004981355
0.010784
0.00195909
0.002023859
0.01072068
0.002193596
0.01069188
0.002059533
0.004858717
0.002103801
0.01068016
0.002190211
0.0107007
0.004811963
0.002122667
0.004819231
0.002132163
0.01068563
0.002226482
0.0107246
0.004791779
0.002129605
0.005243792
0.002119449
0.01070935
0.002184164
0.01071117
0.002105786
0.002102934
0.01072872
0.002122405
0.0107452
0.005194346
0.002109001
0.004865724
0.002110108
0.01069237
0.004991333
0.0107616
0.005230143
0.00208515
0.002052763
0.01071188
0.004633265
0.01075453
0.002039376
0.002030293
0.01060057
0.0048763
0.01075879
0.002016534
0.001959982
0.01077242
0.01102066
0.001963869
0.004221255
0.01145321
0.006173735
0.001866692
0.01033247
0.003985878
0.01169097
0.001926171
0.00196228
0.0106758
0.01033941
0.004089018
0.004113921
0.01170135
0.001980182
0.001989628
0.009710367
0.009731633
0.004044668
0.004080938
0.01172573
0.001992503
0.001994521
0.009845009
0.009346643
0.003996267
0.004026988
0.01183334
0.001993892
0.001994095
0.009227071
0.009217988
0.004025336
0.004025382
0.01169979
0.001994141
0.001994229
0.009415588
0.009292837
0.004024776
0.004023771
0.01165681
0.001994442
0.001994732
0.009434394
0.004420524
0.00402385
0.004024363
0.0117146
0.001994493
0.001994494
0.004417773
0.009330279
0.004024167
0.004023538
0.01173803
0.001994803
0.001995224
0.009402405
0.009393053
0.004023208
0.004025826
0.01164847
0.001997285
0.001996468
0.009261154
0.009817834
0.004036166
0.00407676
0.01077805
0.004466716
0.01078471
0.001866132
0.001945858
0.01077874
0.004566594
0.01077896
0.001916726
0.001957496
0.01077914
0.004570859
0.01077915
0.001967382
0.001973304
0.01077918
0.004539823
0.01077919
0.001974559
0.001978032
0.01077921
0.004521158
0.01077921
0.001984765
0.001987557
0.01077308
0.002087658
0.01077309
0.001993874
0.001993684
0.01077922
0.004536379
0.01077919
0.001985051
0.001980222
0.01077922
0.00450056
0.01077917
0.001984407
0.001978697
0.01072554
0.00400489
0.004940229
0.002019259
0.002155924
0.01078851
0.01060593
0.008767238
0.008835967
0.002163529
0.002197288
0.002281184
0.01056636
0.01057352
0.008824502
0.008802815
0.002208242
0.002314806
0.002328058
0.01057304
0.01057216
0.008806292
0.008801667
0.002215729
0.002332958
0.002335131
0.0105713
0.01057065
0.008795875
0.008794234
0.00221592
0.002335865
0.002336233
0.01057082
0.01057063
0.00879399
0.00879273
0.002215855
0.002336259
0.002336312
0.01057079
0.01057074
0.008793486
0.008793048
0.002215867
0.002336626
0.002336605
0.01057094
0.01057091
0.008795618
0.008794977
0.00221604
0.002336483
0.00233651
0.01057122
0.0105713
0.00879596
0.008796177
0.002215806
0.002336527
0.00233652
0.01057123
0.01057147
0.008796324
0.008796967
0.002004047
0.004832199
0.002092824
0.004714767
0.01068892
0.002167576
0.01071682
0.002115761
0.00482113
0.00213217
0.002120775
0.01068308
0.002178322
0.0106765
0.002134245
0.004824713
0.002137778
0.002188473
0.01072031
0.002198848
0.01070824
0.002136731
0.004825495
0.002138702
0.002198362
0.01071244
0.002201064
0.01072407
0.002137299
0.004826619
0.002138971
0.00219939
0.01072104
0.002201454
0.01072528
0.002137385
0.004827043
0.002138767
0.00219962
0.01071559
0.002201378
0.01072751
0.002136848
0.004825216
0.002137107
0.002199176
0.01070797
0.002199975
0.01073995
0.002133377
0.004820068
0.002124889
0.002196205
0.01071823
0.002189233
0.01070656
0.002105688
0.004793754
0.002033731
0.002172376
0.01046815
0.002113646
0.01074656
0.002010217
0.004079085
0.002151079
0.01073886
0.01102242
0.002038281
0.00413433
0.004126419
0.0106467
0.01065747
0.01122214
0.01136661
0.002069187
0.004137727
0.004426074
0.0106824
0.01070436
0.01111818
0.0111357
0.002067283
0.004404138
0.004166687
0.0107272
0.01070491
0.01107244
0.01121919
0.002063481
0.004113263
0.004137709
0.01070293
0.01070959
0.01115324
0.01129099
0.002063456
0.004114377
0.004114291
0.01071323
0.01071247
0.01117294
0.01122017
0.002072572
0.004152365
0.004176885
0.01071377
0.01070972
0.0111937
0.01125689
0.002073458
0.004512094
0.004173211
0.01075157
0.01070469
0.01115632
0.01128804
0.002073277
0.004127416
0.004404656
0.01071699
0.01075837
0.01111562
0.01114251
0.009384238
0.01149453
0.009366944
0.01151006
0.01146762
0.009724017
0.01145752
0.01151752
0.009349167
0.01150063
0.01145368
0.009348211
0.01151682
0.01144859
0.009365877
0.01152001
0.01142992
0.009738779
0.0114986
0.01155036
0.01076434
0.003790278
0.01076412
0.003882148
0.001931277
0.001990236
0.002063908
0.01077851
0.01077858
0.01077905
0.01077907
0.001958186
0.002084239
0.002095095
0.01077866
0.01077868
0.01077927
0.0107792
0.00194627
0.002096776
0.002095946
0.01077866
0.0107786
0.01077922
0.01077916
0.001942091
0.002095159
0.002094935
0.01077858
0.01077858
0.01077914
0.01077912
0.001941929
0.002094904
0.002094911
0.01077857
0.01077857
0.01077911
0.01077911
0.001941507
0.002094883
0.002094894
0.01077857
0.01077857
0.0107791
0.0107791
0.001941863
0.002094946
0.002095044
0.01077857