/*--------------------------------*- C++ -*----------------------------------*\
  =========                 |
  \\      /  F ield         | OpenFOAM: The Open Source CFD Toolbox
   \\    /   O peration     | Website:  https://openfoam.org
    \\  /    A nd           | Version:  7
     \\/     M anipulation  |
\*---------------------------------------------------------------------------*/
FoamFile
{
    version     2.0;
    format      ascii;
    class       volScalarField;
    location    "0.08";
    object      k;
}
// * * * * * * * * * * * * * * * * * * * * * * * * * * * * * * * * * * * * * //

dimensions      [0 2 -2 0 0 0 0];

internalField   nonuniform List<scalar> 
109978
(
0.003730456
0.003739344
0.003738056
0.003737229
0.003736323
0.003735395
0.003730691
0.003740486
0.003738835
0.003738003
0.003736946
0.00373595
0.003730413
0.003740692
0.003738946
0.003738103
0.003737019
0.003736017
0.00373074
0.003740761
0.003739049
0.003738192
0.003737102
0.003736096
0.003731043
0.003740902
0.003739159
0.003738278
0.00373719
0.00373618
0.00373135
0.003741056
0.0037393
0.0037384
0.003737308
0.003736297
0.003731625
0.003741236
0.003739476
0.003738555
0.003737463
0.003736454
0.003732007
0.003741443
0.003739681
0.00373874
0.003737647
0.003736637
0.003732423
0.003741703
0.003739922
0.003738957
0.003737859
0.003736849
0.003732814
0.003742002
0.003740179
0.003739204
0.003738106
0.003737094
0.003733177
0.003742333
0.003740456
0.003739468
0.003738362
0.003737346
0.003733545
0.003742666
0.003740748
0.003739761
0.003738653
0.003737636
0.003733929
0.003743026
0.003741077
0.003740087
0.003738976
0.003737954
0.00373432
0.003743395
0.003741438
0.003740444
0.003739326
0.003738299
0.003734723
0.003743788
0.003741828
0.003740828
0.003739703
0.003738669
0.003735139
0.003744207
0.003742245
0.00374124
0.003740106
0.003739065
0.003735576
0.003744656
0.003742689
0.003741678
0.003740535
0.003739486
0.00373604
0.003745132
0.003743161
0.003742143
0.00374099
0.003739932
0.003736533
0.003745641
0.003743662
0.003742637
0.003741472
0.003740405
0.003737043
0.003746177
0.003744193
0.003743161
0.003741983
0.003740904
0.003737587
0.003746744
0.003744755
0.003743714
0.003742521
0.00374143
0.003738159
0.003747346
0.00374535
0.003744299
0.00374309
0.003741984
0.003478995
0.003748003
0.00374598
0.003744916
0.003743689
0.003742566
0.00372934
0.003739259
0.003737872
0.003736944
0.00373594
0.003734933
0.003496965
0.003476022
0.003474116
0.003474043
0.003473969
0.003473966
0.003495239
0.003474835
0.003474117
0.003474018
0.003473961
0.003473964
0.003494325
0.003474705
0.003474118
0.003473999
0.003473973
0.003473975
0.003494143
0.003474803
0.003474124
0.00347401
0.003473989
0.003473989
0.003494288
0.003474946
0.00347413
0.003474031
0.003474008
0.003474008
0.00349477
0.003474952
0.003474133
0.003474052
0.003474027
0.003474027
0.003494622
0.003474825
0.003474136
0.003474072
0.003474047
0.003474047
0.00349446
0.003474722
0.003474146
0.00347409
0.003474069
0.003474067
0.003494821
0.003474639
0.003474162
0.003474106
0.003474089
0.003474087
0.003495282
0.003474621
0.003474181
0.003474123
0.003474109
0.003474106
0.003495661
0.003474616
0.0034742
0.003474141
0.003474129
0.003474126
0.003496052
0.003474626
0.00347422
0.003474161
0.003474149
0.003474145
0.003496487
0.003474632
0.00347424
0.003474181
0.003474168
0.003474165
0.003496877
0.003474648
0.003474262
0.003474201
0.003474188
0.003474184
0.003497292
0.003474666
0.003474285
0.003474222
0.003474209
0.003474204
0.00349781
0.003474686
0.003474307
0.003474243
0.003474229
0.003474224
0.003498308
0.003474709
0.003474329
0.003474264
0.00347425
0.003474245
0.003498831
0.003474735
0.003474352
0.003474285
0.003474271
0.003474266
0.003499388
0.003474761
0.003474375
0.003474307
0.003474292
0.003474287
0.003499936
0.003474788
0.0034744
0.003474329
0.003474313
0.003474308
0.00350046
0.003474822
0.003474425
0.003474351
0.003474335
0.00347433
0.003501008
0.003474863
0.003474451
0.003474374
0.003474358
0.003474352
0.003499239
0.003474907
0.003474478
0.003474398
0.003474381
0.003474375
0.003729669
0.003741211
0.003739115
0.003738114
0.003737093
0.003736086
0.003496862
0.003475176
0.003474099
0.003473976
0.003473938
0.003473936
0.003499422
0.003474792
0.003474115
0.003474075
0.003473952
0.003473953
0.0034949
0.003474821
0.003474064
0.003474026
0.003473963
0.003473958
0.003496435
0.003474885
0.003474054
0.003474085
0.00347398
0.003473992
0.003495397
0.003474781
0.003474068
0.003474095
0.003474
0.003474001
0.003495049
0.003474703
0.003474088
0.003474111
0.003474019
0.003474024
0.003494826
0.003474611
0.003474105
0.003474113
0.003474037
0.003474039
0.003494764
0.003474556
0.003474119
0.003474102
0.003474054
0.003474056
0.003494949
0.003474554
0.003474133
0.003474112
0.003474071
0.003474074
0.003495542
0.003474557
0.003474149
0.003474124
0.003474089
0.003474092
0.003495789
0.003474548
0.003474168
0.003474138
0.003474107
0.00347411
0.003495866
0.003474555
0.003474189
0.003474158
0.003474125
0.003474129
0.003495935
0.003474571
0.00347421
0.003474184
0.003474145
0.003474149
0.003496264
0.003474593
0.003474233
0.003474214
0.003474166
0.00347417
0.003496713
0.003474617
0.003474255
0.003474235
0.003474187
0.00347419
0.003497157
0.003474637
0.003474277
0.003474257
0.003474207
0.00347421
0.003497453
0.003474658
0.0034743
0.003474277
0.003474227
0.003474231
0.003497806
0.00347468
0.003474322
0.003474296
0.003474248
0.003474252
0.003498277
0.003474701
0.003474346
0.003474317
0.003474269
0.003474273
0.003498669
0.003474724
0.00347437
0.00347434
0.00347429
0.003474295
0.003499087
0.003474748
0.003474394
0.003474364
0.003474311
0.003474318
0.003499575
0.003474771
0.003474419
0.003474386
0.003474333
0.00347434
0.003500206
0.003474796
0.003474443
0.003474408
0.003474356
0.003474363
0.003728266
0.003741586
0.003739332
0.003738262
0.003737138
0.003736087
0.003493778
0.003474998
0.003474083
0.00347392
0.003473923
0.003473926
0.003496904
0.003475188
0.003474013
0.003474143
0.00347395
0.003473953
0.003495807
0.003474817
0.003474023
0.003474012
0.003473965
0.00347396
0.003494272
0.003474567
0.003474021
0.003474017
0.003473983
0.003473978
0.003494082
0.003474521
0.003474035
0.003474015
0.003473997
0.003473995
0.003494206
0.003474494
0.003474054
0.003474029
0.003474014
0.003474009
0.00349438
0.003474477
0.003474069
0.003474047
0.003474033
0.003474031
0.003494197
0.003474496
0.003474087
0.003474067
0.003474052
0.00347405
0.00349437
0.003474517
0.003474109
0.00347409
0.003474072
0.003474068
0.003494773
0.003474529
0.003474126
0.003474102
0.00347409
0.003474083
0.003495022
0.003474569
0.003474145
0.003474124
0.003474109
0.003474104
0.003495503
0.003474576
0.003474163
0.003474145
0.003474127
0.003474124
0.003495803
0.003474566
0.003474181
0.00347416
0.003474146
0.003474142
0.003496476
0.003474577
0.003474201
0.003474176
0.003474165
0.00347416
0.003497219
0.003474594
0.003474222
0.003474196
0.003474184
0.003474181
0.003497723
0.003474613
0.003474243
0.003474215
0.003474204
0.003474201
0.003497966
0.003474632
0.003474265
0.003474235
0.003474224
0.00347422
0.003498277
0.003474653
0.003474287
0.003474257
0.003474245
0.00347424
0.003498812
0.003474674
0.00347431
0.00347428
0.003474267
0.003474261
0.003499395
0.003474699
0.003474333
0.003474304
0.00347429
0.003474284
0.003499737
0.003474722
0.003474356
0.003474326
0.003474311
0.003474306
0.003500288
0.003474745
0.003474379
0.003474348
0.003474333
0.003474328
0.00350102
0.003474769
0.003474402
0.00347437
0.003474356
0.00347435
0.003728245
0.003741366
0.003739459
0.003738505
0.003737196
0.003736154
0.003493617
0.003474879
0.003474071
0.003473923
0.003473916
0.003473919
0.003505293
0.003475229
0.003474019
0.00347412
0.00347395
0.003473959
0.003496181
0.003474757
0.003474042
0.003474034
0.00347398
0.003473963
0.0034941
0.003474489
0.003474027
0.003474035
0.003473981
0.003473989
0.003493909
0.003474443
0.003474033
0.003474019
0.003473997
0.003473995
0.003494017
0.003474448
0.003474047
0.00347404
0.00347401
0.003474015
0.00349413
0.003474455
0.003474064
0.00347406
0.003474028
0.003474036
0.003494347
0.003474463
0.003474082
0.003474077
0.003474048
0.003474053
0.003494402
0.003474496
0.003474106
0.003474099
0.003474068
0.003474072
0.003494658
0.003474483
0.003474123
0.003474116
0.003474087
0.003474088
0.003494701
0.003474497
0.003474139
0.003474128
0.003474103
0.003474105
0.003494962
0.003474542
0.003474163
0.003474156
0.003474124
0.003474127
0.003496223
0.003474611
0.003474186
0.003474199
0.003474144
0.003474149
0.003496993
0.003474628
0.003474207
0.003474223
0.003474165
0.00347417
0.003497596
0.003474648
0.003474226
0.003474235
0.003474183
0.003474189
0.003498074
0.003474665
0.003474247
0.003474257
0.003474203
0.003474208
0.003498481
0.003474689
0.003474266
0.003474275
0.003474222
0.003474228
0.003498942
0.0034747
0.003474287
0.003474291
0.003474242
0.003474248
0.003499402
0.003474712
0.003474308
0.003474308
0.003474263
0.003474269
0.003499589
0.003474726
0.003474329
0.003474324
0.003474285
0.003474289
0.003499936
0.003474739
0.003474349
0.003474342
0.003474305
0.003474311
0.003500567
0.003474753
0.00347437
0.003474361
0.003474326
0.003474333
0.003501334
0.003474772
0.003474392
0.003474384
0.003474348
0.003474355
0.003728197
0.003741293
0.003739302
0.003738174
0.003737093
0.003735999
0.003494767
0.003474851
0.003474073
0.003473923
0.003473916
0.003473919
0.003501463
0.003475242
0.003474019
0.003474122
0.00347395
0.00347396
0.003497137
0.003474755
0.003474042
0.003474035
0.00347398
0.003473963
0.00349392
0.003474488
0.003474028
0.003474035
0.003473982
0.003473989
0.003493906
0.003474443
0.003474035
0.00347402
0.003473997
0.003473995
0.003493959
0.003474447
0.003474049
0.003474041
0.003474011
0.003474015
0.003494044
0.003474455
0.003474066
0.003474062
0.003474029
0.003474036
0.003494136
0.003474463
0.003474085
0.003474078
0.003474049
0.003474053
0.003494187
0.003474496
0.003474108
0.0034741
0.003474069
0.003474072
0.003494399
0.003474483
0.003474125
0.003474117
0.003474088
0.003474088
0.003494842
0.003474497
0.003474141
0.003474128
0.003474104
0.003474105
0.00349554
0.003474541
0.003474164
0.003474156
0.003474125
0.003474127
0.003496427
0.003474611
0.003474188
0.0034742
0.003474145
0.003474149
0.003497531
0.003474628
0.003474209
0.003474224
0.003474165
0.00347417
0.00349818
0.003474648
0.003474228
0.003474236
0.003474183
0.003474189
0.003498607
0.003474664
0.003474248
0.003474257
0.003474204
0.003474208
0.003498978
0.003474689
0.003474268
0.003474275
0.003474222
0.003474228
0.003499319
0.003474699
0.003474289
0.003474291
0.003474243
0.003474248
0.003499628
0.003474712
0.00347431
0.003474307
0.003474263
0.003474269
0.00349996
0.003474726
0.003474331
0.003474324
0.003474285
0.003474289
0.003500486
0.003474739
0.003474352
0.003474341
0.003474305
0.003474311
0.003500792
0.003474752
0.003474372
0.003474361
0.003474327
0.003474332
0.003501391
0.003474772
0.003474395
0.003474384
0.003474349
0.003474355
0.003729173
0.003741331
0.003739192
0.003738159
0.003737063
0.003735999
0.00349341
0.003474979
0.003474085
0.003473919
0.003473924
0.003473926
0.003501639
0.003475182
0.003474013
0.003474142
0.003473949
0.003473953
0.003495676
0.003474817
0.003474022
0.00347401
0.003473965
0.00347396
0.003494086
0.003474565
0.003474022
0.003474017
0.003473984
0.003473978
0.003494089
0.003474518
0.003474037
0.003474015
0.003473998
0.003473996
0.003494128
0.003474491
0.003474057
0.003474029
0.003474015
0.003474009
0.003494491
0.003474475
0.003474073
0.003474047
0.003474034
0.003474031
0.003494195
0.003474495
0.003474091
0.003474067
0.003474053
0.00347405
0.003494282
0.003474516
0.003474113
0.00347409
0.003474073
0.003474068
0.00349457
0.003474528
0.00347413
0.003474103
0.003474091
0.003474084
0.003495216
0.003474567
0.003474149
0.003474124
0.00347411
0.003474104
0.003495862
0.003474573
0.003474168
0.003474146
0.003474129
0.003474125
0.003496269
0.003474563
0.003474186
0.003474161
0.003474147
0.003474142
0.00349677
0.003474574
0.003474206
0.003474176
0.003474166
0.003474161
0.003497383
0.003474591
0.003474227
0.003474197
0.003474186
0.003474181
0.003497844
0.00347461
0.003474248
0.003474216
0.003474205
0.003474201
0.003498263
0.003474629
0.00347427
0.003474236
0.003474225
0.00347422
0.00349861
0.003474649
0.003474293
0.003474258
0.003474246
0.00347424
0.003498989
0.003474671
0.003474316
0.003474281
0.003474268
0.003474262
0.003499572
0.003474696
0.00347434
0.003474305
0.003474291
0.003474284
0.003500004
0.003474718
0.003474362
0.003474327
0.003474313
0.003474307
0.003500603
0.00347474
0.003474385
0.003474349
0.003474334
0.003474328
0.003501267
0.003474764
0.003474409
0.00347437
0.003474356
0.00347435
0.003729377
0.003741123
0.003739068
0.00373848
0.003737174
0.003736138
0.003495368
0.003475155
0.003474112
0.003473974
0.00347394
0.003473937
0.003498673
0.003474788
0.003474125
0.003474072
0.003473952
0.003473953
0.00349894
0.003474814
0.003474071
0.003474023
0.003473963
0.003473958
0.003494784
0.003474878
0.003474061
0.003474084
0.00347398
0.003473992
0.003494397
0.003474774
0.003474076
0.003474095
0.003474001
0.003474001
0.003494443
0.003474697
0.003474097
0.003474111
0.003474019
0.003474024
0.003494402
0.003474604
0.003474115
0.003474113
0.003474038
0.003474039
0.003494246
0.003474551
0.00347413
0.003474102
0.003474055
0.003474057
0.003494247
0.00347455
0.003474143
0.003474112
0.003474072
0.003474074
0.003494535
0.003474553
0.003474159
0.003474125
0.00347409
0.003474092
0.003494992
0.003474544
0.003474178
0.003474138
0.003474108
0.00347411
0.003495433
0.00347455
0.0034742
0.003474158
0.003474127
0.003474129
0.003496129
0.003474566
0.003474222
0.003474184
0.003474147
0.003474149
0.003496556
0.003474587
0.003474244
0.003474214
0.003474168
0.00347417
0.00349705
0.00347461
0.003474267
0.003474235
0.003474188
0.00347419
0.003497471
0.00347463
0.003474289
0.003474257
0.003474209
0.00347421
0.003497855
0.003474651
0.003474312
0.003474277
0.003474229
0.003474231
0.003498213
0.003474672
0.003474335
0.003474296
0.003474249
0.003474252
0.00349862
0.003474693
0.003474359
0.003474317
0.00347427
0.003474273
0.00349911
0.003474716
0.003474383
0.00347434
0.003474292
0.003474295
0.0034996
0.003474739
0.003474408
0.003474364
0.003474313
0.003474318
0.003500173
0.003474762
0.003474432
0.003474386
0.003474335
0.00347434
0.003500856
0.003474786
0.003474457
0.003474408
0.003474358
0.003474364
0.003729907
0.003741412
0.003738757
0.003738296
0.003736918
0.003735898
0.003500792
0.003476012
0.003474114
0.003474044
0.003473968
0.003473966
0.00349726
0.003474814
0.003474116
0.003474011
0.00347396
0.003473962
0.003497031
0.003474683
0.003474117
0.003473994
0.003473973
0.003473973
0.003496252
0.003474783
0.003474123
0.003474006
0.003473989
0.003473987
0.003495598
0.003474928
0.003474129
0.003474027
0.003474007
0.003474006
0.003495358
0.003474937
0.003474132
0.003474048
0.003474027
0.003474025
0.003495247
0.003474814
0.003474135
0.003474068
0.003474047
0.003474046
0.003494938
0.003474712
0.003474146
0.003474088
0.003474068
0.003474067
0.003494696
0.00347463
0.003474162
0.003474104
0.003474089
0.003474087
0.003494864
0.003474613
0.003474181
0.003474121
0.003474109
0.003474106
0.003494987
0.003474607
0.0034742
0.00347414
0.003474129
0.003474125
0.003495179
0.003474617
0.00347422
0.00347416
0.003474148
0.003474145
0.003495602
0.003474623
0.00347424
0.003474179
0.003474168
0.003474164
0.00349619
0.003474638
0.003474262
0.0034742
0.003474188
0.003474184
0.003496564
0.003474656
0.003474284
0.00347422
0.003474208
0.003474204
0.003496857
0.003474675
0.003474306
0.003474241
0.003474229
0.003474224
0.003497243
0.003474698
0.003474329
0.003474262
0.003474249
0.003474244
0.003497608
0.003474724
0.003474352
0.003474284
0.00347427
0.003474265
0.003497938
0.003474749
0.003474375
0.003474305
0.003474291
0.003474286
0.003498333
0.003474776
0.003474399
0.003474327
0.003474313
0.003474308
0.003498791
0.003474809
0.003474425
0.003474349
0.003474334
0.003474329
0.003499347
0.003474849
0.00347445
0.003474373
0.003474356
0.003474352
0.003499238
0.003474893
0.003474477
0.003474396
0.003474377
0.003474372
0.00374903
0.003762494
0.003756141
0.003753992
0.003749372
0.003745527
0.003551268
0.003477842
0.003477038
0.003476277
0.003476454
0.003476269
0.003476219
0.003604961
0.003479443
0.00347688
0.003475979
0.003476281
0.003476047
0.003476034
0.003571319
0.003479874
0.00347709
0.003476054
0.003476365
0.003476104
0.003476077
0.003558102
0.003479822
0.003477159
0.003476122
0.003476409
0.003476151
0.003476125
0.003548964
0.003479651
0.003477224
0.003476195
0.003476473
0.003476226
0.003476187
0.003543617
0.003479507
0.003477267
0.003476275
0.003476521
0.003476279
0.003476242
0.003543406
0.003479328
0.003477285
0.003476357
0.003476572
0.003476339
0.003476301
0.003543777
0.003479176
0.003477296
0.003476436
0.003476621
0.003476392
0.003476355
0.003544477
0.003479126
0.003477328
0.003476515
0.003476672
0.003476449
0.003476411
0.003545168
0.00347918
0.003477388
0.003476589
0.003476731
0.00347651
0.00347647
0.003547542
0.003479191
0.003477471
0.00347666
0.003476794
0.003476576
0.003476534
0.003550221
0.003479183
0.003477545
0.003476726
0.003476857
0.003476637
0.003476596
0.00355314
0.003479195
0.003477616
0.003476792
0.003476924
0.003476701
0.003476661
0.003556276
0.003479255
0.003477694
0.003476859
0.003476991
0.003476767
0.003476726
0.003559621
0.00347933
0.00347777
0.003476927
0.00347706
0.003476834
0.003476791
0.003563086
0.003479377
0.003477848
0.003476996
0.003477129
0.003476901
0.003476857
0.003566749
0.003479432
0.003477927
0.003477065
0.003477198
0.003476968
0.003476922
0.003570758
0.003479504
0.003478007
0.003477135
0.003477268
0.003477035
0.003476988
0.003575099
0.003479572
0.003478089
0.003477204
0.003477339
0.003477101
0.003477054
0.003579748
0.003479634
0.003478174
0.003477274
0.00347741
0.003477169
0.00347712
0.003584728
0.00347971
0.00347826
0.003477344
0.003477482
0.003477235
0.003477185
0.003590254
0.003479793
0.003478346
0.003477412
0.003477552
0.0034773
0.003477249
0.00359629
0.00373704
0.003478426
0.00347748
0.003477618
0.00347736
0.003477312
0.003744029
0.003752119
0.003540453
0.003482038
0.003739755
0.003739487
0.003550988
0.00348621
0.003625158
0.003491867
0.003741239
0.003736221
0.003604938
0.003491152
0.003533312
0.003492144
0.003740996
0.003736099
0.003571246
0.003489981
0.003534077
0.003490493
0.003740791
0.003735939
0.003558014
0.003488058
0.003535153
0.003488948
0.003741183
0.003736097
0.003548869
0.00348658
0.003537461
0.003487166
0.003741914
0.003736461
0.003543513
0.003485255
0.003540663
0.003485933
0.003742345
0.003736618
0.003543307
0.003484421
0.003547471
0.003485044
0.003742956
0.00373694
0.003543722
0.003483311
0.003553631
0.003483301
0.003743775
0.003737382
0.00354442
0.003482255
0.003557113
0.003482299
0.003744877
0.003737964
0.003545102
0.00348159
0.003560794
0.00348169
0.003746067
0.003738641
0.00354747
0.003480934
0.003564897
0.003481462
0.003747167
0.003739366
0.003550149
0.003480253
0.003569156
0.003481311
0.003748255
0.003740154
0.00355306
0.003479905
0.003573158
0.00348113
0.003749445
0.00374102
0.003556198
0.00347957
0.003576964
0.003481021
0.003750742
0.003741918
0.003559536
0.00347931
0.003581138
0.003480996
0.003752019
0.003742876
0.003563
0.003479167
0.003585522
0.003480997
0.003753298
0.003743935
0.003566651
0.003479006
0.003590025
0.003481006
0.003754622
0.003745111
0.003570662
0.003478845
0.003594757
0.003480998
0.003756004
0.003746375
0.003574994
0.003478711
0.003599823
0.003480974
0.003757446
0.003747731
0.003579649
0.003478635
0.003605076
0.003480934
0.00375897
0.003749176
0.00358462
0.003478561
0.003610238
0.003480871
0.003760582
0.003750707
0.003590149
0.003478497
0.003615617
0.003480821
0.00376226
0.003484048
0.003596186
0.003478465
0.003621157
0.003480758
0.003735513
0.003542946
0.003483075
0.003737445
0.003602366
0.003489025
0.003739538
0.003535655
0.003486531
0.003736698
0.003603762
0.003487147
0.003733564
0.00353273
0.003486602
0.003734998
0.003578877
0.003485728
0.003731426
0.003533951
0.003485219
0.00373418
0.003540983
0.003486539
0.003732284
0.00358768
0.00348761
0.003734738
0.00353266
0.003485767
0.003734771
0.003585693
0.003485627
0.003735373
0.003532829
0.003486524
0.003736383
0.003602846
0.003486906
0.003739224
0.003535205
0.003486463
0.003737959
0.003601985
0.003489074
0.003735351
0.003543529
0.003482944
0.003752419
0.003540375
0.003481993
0.003744093
0.003756702
0.003474932
0.003475527
0.003744163
0.003745585
0.003753456
0.003475365
0.003474892
0.003749396
0.003742895
0.003751547
0.003474919
0.003474875
0.003745415
0.003741164
0.003747247
0.00347492
0.003474776
0.003743347
0.003738469
0.003743855
0.003474838
0.003474748
0.003740524
0.003736078
0.003474793
0.003737998
0.003486208
0.003625151
0.00349188
0.003739764
0.003739486
0.003491152
0.003533332
0.003492148
0.003741245
0.003736219
0.003489975
0.00353409
0.003490491
0.003740994
0.003736098
0.003488053
0.003535166
0.003488948
0.003740788
0.003735938
0.003486576
0.003537468
0.003487167
0.003741181
0.003736096
0.003485247
0.003540666
0.003485933
0.003741911
0.00373646
0.003483426
0.003553598
0.00348331
0.003742974
0.003736938
0.003482259
0.00355711
0.003482301
0.003743776
0.003737377
0.003481596
0.00356079
0.003481694
0.00374488
0.003737957
0.003480943
0.003564879
0.003481463
0.00374607
0.003738634
0.003480251
0.003569153
0.003481315
0.003747169
0.003739361
0.003479902
0.003573148
0.003481134
0.003748256
0.003740149
0.003479562
0.003576961
0.003481025
0.003749447
0.003741017
0.003479306
0.003581142
0.003480999
0.003750746
0.003741914
0.00347916
0.00358553
0.003481001
0.003752023
0.003742874
0.003479001
0.003590038
0.003481008
0.003753304
0.003743931
0.003478838
0.003594781
0.003481
0.003754627
0.003745107
0.003478706
0.003599849
0.003480976
0.003756013
0.003746369
0.003478628
0.003605114
0.003480935
0.003757454
0.003747729
0.003478561
0.003610275
0.003480871
0.003758983
0.003749176
0.003478496
0.00361567
0.003480821
0.003760597
0.003750713
0.003478466
0.003621212
0.003480777
0.003762281
0.003484044
0.003503042
0.003748861
0.003744135
0.003745582
0.003748835
0.003756712
0.003474935
0.003475527
0.003749396
0.003742899
0.003762534
0.003753599
0.003475368
0.003474892
0.003745428
0.003741171
0.003756189
0.003751558
0.003474919
0.003474875
0.003743355
0.003738475
0.00375401
0.00374725
0.003474921
0.003474776
0.00374053
0.003736083
0.003749362
0.003743859
0.00347484
0.003474748
0.003738002
0.003745501
0.003474795
0.003494472
0.003734497
0.003484907
0.003723328
0.003486972
0.003738839
0.003489263
0.003735027
0.003486477
0.003742652
0.003484781
0.00373793
0.003485699
0.003750051
0.003483462
0.003741783
0.003484666
0.003756009
0.003482471
0.003744606
0.003479844
0.003760046
0.003482607
0.003746279
0.003479743
0.00376164
0.003483008
0.003747052
0.003479649
0.003762409
0.003483151
0.003746051
0.003479496
0.003763296
0.003482221
0.003745146
0.003479846
0.003765093
0.00348092
0.003745048
0.003480266
0.003766502
0.003480514
0.003745572
0.003480373
0.003767792
0.003480593
0.003746651
0.003480467
0.003769186
0.003480901
0.003747973
0.003480638
0.003770625
0.003481369
0.003749788
0.003481034
0.003772128
0.003482055
0.003751755
0.003481675
0.003773621
0.003483002
0.003753964
0.003482581
0.003775084
0.003484181
0.00375671
0.003483623
0.003776619
0.003485555
0.003759555
0.003484784
0.003778289
0.003487061
0.003762584
0.003486036
0.003780318
0.00348868
0.003765712
0.00348731
0.003782805
0.003490429
0.003768967
0.003488665
0.003785739
0.003492259
0.003772442
0.003490125
0.00378903
0.003494211
0.00377609
0.00350435
0.003494809
0.003516268
0.003521197
0.003530105
0.00352947
0.003535892
0.003525762
0.003532245
0.003526124
0.003537707
0.00352828
0.003535198
0.003525627
0.003512775
0.0035084
0.003490858
0.00351351
0.003484413
0.003547465
0.003485054
0.003742349
0.003736621
0.003491273
0.003764414
0.003484546
0.003740298
0.003483707
0.003721986
0.003496355
0.003722519
0.003490291
0.003511998
0.003501798
0.003732708
0.003488499
0.003724252
0.003486258
0.003736575
0.003486203
0.003742788
0.003484475
0.003739316
0.0034862
0.003747438
0.003483025
0.003742916
0.003485886
0.0037528
0.003482444
0.003745459
0.003482075
0.003759254
0.003482761
0.003746752
0.003479736
0.003761837
0.00348302
0.00374584
0.003479674
0.003762942
0.003482836
0.003744953
0.003479508
0.003763232
0.003481602
0.00374477
0.00348116
0.003764324
0.003480417
0.00374467
0.003480571
0.003766158
0.003480326
0.003745534
0.003480538
0.003767467
0.003480434
0.003746673
0.003480557
0.003768731
0.003480602
0.003748312
0.003480751
0.003769938
0.003480815
0.003750116
0.003481121
0.003771231
0.003481203
0.003752336
0.003481823
0.003772478
0.003481919
0.003754696
0.003482781
0.003773622
0.003482748
0.003757411
0.003483896
0.003774921
0.00348371
0.003760372
0.003485079
0.003776353
0.003484883
0.003763549
0.003486355
0.003778026
0.00348619
0.003766807
0.003487682
0.003779999
0.003487544
0.003770236
0.003489049
0.00378242
0.003488992
0.003773871
0.003490475
0.003785279
0.003490592
0.003777637
0.003634518
0.00378842
0.00349176
0.003513319
0.003506299
0.003530058
0.003524349
0.003538266
0.003534881
0.003527406
0.003530499
0.003535614
0.003536491
0.003526243
0.003534561
0.003514762
0.003523408
0.003504779
0.00349676
0.003503424
0.003752801
0.003491102
0.003764517
0.003484513
0.003742682
0.003483989
0.003722991
0.003496734
0.003722589
0.003479142
0.003770668
0.003478941
0.00376013
0.003478567
0.003761971
0.003478452
0.003765156
0.003478728
0.003771458
0.003478325
0.003760626
0.003478616
0.003758079
0.003477666
0.003765662
0.003478578
0.003765641
0.003478258
0.003755155
0.003478437
0.003753297
0.003477559
0.003760158
0.003478449
0.003760854
0.003478167
0.003750171
0.003478334
0.003747826
0.003477418
0.003754802
0.003478298
0.003754815
0.00347804
0.003744483
0.003478247
0.003749335
0.003478936
0.003494469
0.003734507
0.003484926
0.003723353
0.003501795
0.003732697
0.003488509
0.003724313
0.003486971
0.003738817
0.003489182
0.003735015
0.003486255
0.003736572
0.003486214
0.003742778
0.003486476
0.003742628
0.003484702
0.003737932
0.00348447
0.003739318
0.003486219
0.003747441
0.003485699
0.003750042
0.003483354
0.003741783
0.003483025
0.003742915
0.003485907
0.003752808
0.003484668
0.003756004
0.003482344
0.003744604
0.003482444
0.003745455
0.003482088
0.003759255
0.003479847
0.003760037
0.003482443
0.003746274
0.00348276
0.003746746
0.003479743
0.003761835
0.003479653
0.003762419
0.00348315
0.003746057
0.003482836
0.003744961
0.003479512
0.003763245
0.00347949
0.003763296
0.003481944
0.003745149
0.003481605
0.003744766
0.003481187
0.003764331
0.003479836
0.003765094
0.003480606
0.003745055
0.003480421
0.003744674
0.003480596
0.003766162
0.003480258
0.0037665
0.003480174
0.003745573
0.003480329
0.003745518
0.003480556
0.003767464
0.003480366
0.003767784
0.00348022
0.003746655
0.003480435
0.003746673
0.003480567
0.003768738
0.003480455
0.003769193
0.003480496
0.00374797
0.003480605
0.003748296
0.003480753
0.003769939
0.003480624
0.00377063
0.003480937
0.003749793
0.003480816
0.003750118
0.003481126
0.003771238
0.00348102
0.00377215
0.003481602
0.003751759
0.003481205
0.003752329
0.003481829
0.003772479
0.003482402
0.003754701
0.003482801
0.003773596
0.003482561
0.003775135
0.003483679
0.003756713
0.003482751
0.00375741
0.003483901
0.003774924
0.003483601
0.003776671
0.003485027
0.003759562
0.003483713
0.003760369
0.003485084
0.003776374
0.003484762
0.003778379
0.003486512
0.003762581
0.003484886
0.003763542
0.003486362
0.003778031
0.00348601
0.003780395
0.003488106
0.003765715
0.003486191
0.003766808
0.003487691
0.003780004
0.003487283
0.003782921
0.003489834
0.003768977
0.003487549
0.003770247
0.003489056
0.003782436
0.003488631
0.003785877
0.003491641
0.003772464
0.003488996
0.003773898
0.003490485
0.003785304
0.003490093
0.00378921
0.00349357
0.003776126
0.003490599
0.003500221
0.003788455
0.003491867
0.003701893
0.00375101
0.003770561
0.003478949
0.003478059
0.003760081
0.003478828
0.003771385
0.003479432
0.003760641
0.003478675
0.003765626
0.00347934
0.003755183
0.003478543
0.003760872
0.003479229
0.003750189
0.003478386
0.00375487
0.003479075
0.003744493
0.003478247
0.003749335
0.003478937
0.003738995
0.003600371
0.003720348
0.003606654
0.003692358
0.003607722
0.003730394
0.003616129
0.0037002
0.003600534
0.003738353
0.003592029
0.003711573
0.003595371
0.003744073
0.003567098
0.00372178
0.003584286
0.003748233
0.003559222
0.003729552
0.003572364
0.003749208
0.003558323
0.003733766
0.003565968
0.003749367
0.003559729
0.003736944
0.003563207
0.003749582
0.003561293
0.003739665
0.003564002
0.003750148
0.003564349
0.00374195
0.003566914
0.003750698
0.003567954
0.003743705
0.003570692
0.003751047
0.003571898
0.003744561
0.003574434
0.003751448
0.003576421
0.003745456
0.003578275
0.003751842
0.003581298
0.003746339
0.003582352
0.003752232
0.003586499
0.003747154
0.003586855
0.00375257
0.003592328
0.003748032
0.003591806
0.00375279
0.003598611
0.00374861
0.003597212
0.00375301
0.003603684
0.003749002
0.003601903
0.003753233
0.003608752
0.003749374
0.003606471
0.003753491
0.00361402
0.003749718
0.003611168
0.003753778
0.003619535
0.003750053
0.003615845
0.003754096
0.003625209
0.0037504
0.003620815
0.00375444
0.003631255
0.00375077
0.003626086
0.003754821
0.003637805
0.003751157
0.003752363
0.003733859
0.003752598
0.003730014
0.003754481
0.003754819
0.003747136
0.003764519
0.00375595
0.003732418
0.003761242
0.003749936
0.003753237
0.003727788
0.003729753
0.003752973
0.003759669
0.003757623
0.003746651
0.003745599
0.003747584
0.003743362
0.003636318
0.00371083
0.003605773
0.003723974
0.003757139
0.003742812
0.00362437
0.003699854
0.003609845
0.003725029
0.003602158
0.003708404
0.003601007
0.003733965
0.003577355
0.003719543
0.003595034
0.003742641
0.003558061
0.003727855
0.003585294
0.003747648
0.003554405
0.003732903
0.003574156
0.003750158
0.003556653
0.003736068
0.003566871
0.00375006
0.003558948
0.003738834
0.003565194
0.003749805
0.003561273
0.003741055
0.003566772
0.003750031
0.003563923
0.003743236
0.003569247
0.003750573
0.003567171
0.00374406
0.003573092
0.003750796
0.0035703
0.003744961