/*--------------------------------*- C++ -*----------------------------------*\
  =========                 |
  \\      /  F ield         | OpenFOAM: The Open Source CFD Toolbox
   \\    /   O peration     | Website:  https://openfoam.org
    \\  /    A nd           | Version:  7
     \\/     M anipulation  |
\*---------------------------------------------------------------------------*/
FoamFile
{
    version     2.0;
    format      ascii;
    class       volScalarField;
    location    "0.08";
    object      nut;
}
// * * * * * * * * * * * * * * * * * * * * * * * * * * * * * * * * * * * * * //

dimensions      [0 2 -1 0 0 0 0];

internalField   nonuniform List<scalar> 
109978
(
0.0006553728
0.0006383873
0.0006367368
0.0006364977
0.0006364336
0.0006365415
0.0006375473
0.0006065265
0.0006033401
0.0006029036
0.0006028332
0.0006030122
0.0006359887
0.0006034963
0.0005998882
0.0005993498
0.0005992709
0.0005995014
0.000635846
0.0006031131
0.0005993992
0.0005988147
0.0005987285
0.0005989776
0.0006358405
0.000603045
0.0005992939
0.0005986868
0.0005985953
0.0005988492
0.0006358599
0.000603035
0.0005992714
0.0005986546
0.0005985581
0.0005988132
0.0006358819
0.0006030439
0.0005992732
0.0005986501
0.0005985524
0.0005988085
0.0006359154
0.0006030587
0.0005992863
0.0005986603
0.000598561
0.0005988171
0.0006359524
0.0006030801
0.0005993049
0.0005986761
0.000598576
0.000598832
0.0006359875
0.0006031056
0.0005993263
0.0005986961
0.0005985958
0.0005988517
0.0006360203
0.0006031345
0.0005993498
0.0005987183
0.0005986167
0.0005988727
0.0006360536
0.0006031633
0.0005993747
0.0005987432
0.0005986415
0.0005988974
0.0006360885
0.0006031944
0.0005994029
0.0005987712
0.0005986692
0.0005989247
0.0006361242
0.0006032264
0.0005994341
0.0005988019
0.0005986993
0.0005989544
0.0006361609
0.0006032605
0.0005994677
0.0005988351
0.0005987319
0.0005989865
0.0006361989
0.000603297
0.0005995039
0.0005988709
0.000598767
0.000599021
0.0006362389
0.0006033363
0.0005995429
0.0005989096
0.0005988055
0.0005990583
0.0006362816
0.0006033787
0.0005995854
0.0005989521
0.0005988475
0.0005990995
0.0006363277
0.0006034262
0.0005996339
0.0005990013
0.0005988963
0.0005991475
0.0006363785
0.000603484
0.0005996964
0.0005990665
0.0005989616
0.0005992119
0.0006364481
0.000603578
0.0005998058
0.0005991833
0.0005990798
0.0005993277
0.0006365865
0.0006037891
0.0006000589
0.0005994541
0.0005993496
0.0005995839
0.0001010096
0.0006041905
0.0006005245
0.0005999464
0.0005998285
0.0006000109
0.0005968154
0.0005970951
0.0005970307
0.0005969698
0.0005968888
0.0005968317
0.000100756
0.0001006435
0.0001006167
0.0001006177
0.000100617
0.0001006171
0.0001007215
0.000100623
0.0001006176
0.0001006169
0.0001006164
0.0001006166
0.0001007085
0.0001006203
0.0001006179
0.0001006165
0.0001006164
0.0001006166
0.0001007034
0.0001006219
0.0001006177
0.0001006164
0.0001006165
0.0001006166
0.0001007067
0.0001006245
0.0001006174
0.0001006165
0.0001006165
0.0001006167
0.0001007169
0.0001006246
0.000100617
0.0001006166
0.0001006166
0.0001006167
0.0001007136
0.0001006223
0.0001006169
0.0001006166
0.0001006167
0.0001006168
0.0001007119
0.0001006205
0.0001006169
0.0001006167
0.0001006167
0.0001006169
0.0001007191
0.0001006188
0.000100617
0.0001006167
0.0001006168
0.000100617
0.0001007271
0.0001006182
0.0001006171
0.0001006167
0.0001006168
0.000100617
0.0001007335
0.0001006179
0.0001006171
0.0001006168
0.0001006169
0.0001006171
0.0001007399
0.0001006177
0.0001006172
0.0001006168
0.000100617
0.0001006172
0.000100747
0.0001006175
0.0001006172
0.0001006169
0.000100617
0.0001006172
0.000100753
0.0001006175
0.0001006173
0.000100617
0.0001006171
0.0001006173
0.0001007596
0.0001006175
0.0001006174
0.000100617
0.0001006172
0.0001006174
0.000100768
0.0001006175
0.0001006175
0.0001006171
0.0001006172
0.0001006174
0.000100776
0.0001006175
0.0001006175
0.0001006172
0.0001006173
0.0001006175
0.0001007843
0.0001006177
0.0001006176
0.0001006172
0.0001006174
0.0001006176
0.0001007931
0.0001006178
0.0001006177
0.0001006173
0.0001006174
0.0001006177
0.0001008016
0.0001006179
0.0001006178
0.0001006174
0.0001006175
0.0001006177
0.0001008095
0.0001006181
0.0001006179
0.0001006175
0.0001006176
0.0001006178
0.0001008177
0.0001006185
0.000100618
0.0001006175
0.0001006177
0.0001006179
0.000100782
0.0001006187
0.0001006181
0.0001006176
0.0001006177
0.000100618
0.0005978954
0.0005975666
0.0005974976
0.0005974678
0.0005973853
0.0005972892
0.0001007535
0.0001006286
0.0001006175
0.0001006168
0.0001006165
0.0001006167
0.0001007812
0.0001006205
0.0001006173
0.0001006178
0.0001006162
0.0001006166
0.000100705
0.0001006224
0.0001006164
0.0001006168
0.0001006163
0.0001006164
0.0001007356
0.0001006234
0.0001006159
0.0001006175
0.0001006162
0.0001006167
0.0001007167
0.0001006215
0.000100616
0.0001006175
0.0001006163
0.0001006166
0.0001007103
0.0001006201
0.0001006161
0.0001006175
0.0001006164
0.0001006167
0.0001007057
0.0001006187
0.0001006162
0.0001006173
0.0001006164
0.0001006167
0.0001007039
0.0001006178
0.0001006163
0.0001006169
0.0001006165
0.0001006168
0.0001007066
0.0001006175
0.0001006163
0.0001006168
0.0001006165
0.0001006168
0.0001007167
0.0001006172
0.0001006163
0.0001006168
0.0001006165
0.0001006169
0.0001007207
0.0001006167
0.0001006164
0.0001006168
0.0001006166
0.0001006169
0.0001007213
0.0001006166
0.0001006165
0.0001006169
0.0001006166
0.000100617
0.0001007217
0.0001006166
0.0001006166
0.000100617
0.0001006167
0.0001006171
0.0001007268
0.0001006166
0.0001006166
0.0001006172
0.0001006167
0.0001006171
0.000100734
0.0001006166
0.0001006167
0.0001006173
0.0001006168
0.0001006172
0.0001007412
0.0001006166
0.0001006168
0.0001006174
0.0001006169
0.0001006173
0.0001007458
0.0001006167
0.0001006169
0.0001006174
0.0001006169
0.0001006173
0.0001007514
0.0001006167
0.0001006169
0.0001006175
0.000100617
0.0001006174
0.000100759
0.0001006167
0.000100617
0.0001006175
0.0001006171
0.0001006175
0.0001007653
0.0001006167
0.0001006171
0.0001006176
0.0001006171
0.0001006176
0.000100772
0.0001006168
0.0001006172
0.0001006177
0.0001006172
0.0001006177
0.00010078
0.0001006168
0.0001006173
0.0001006177
0.0001006172
0.0001006178
0.0001007904
0.0001006169
0.0001006173
0.0001006178
0.0001006173
0.0001006179
0.0005979061
0.0005977813
0.0005977207
0.0005977035
0.0005976098
0.0005974919
0.0001006925
0.0001006245
0.0001006179
0.0001006161
0.0001006164
0.0001006166
0.000100733
0.0001006281
0.0001006151
0.000100619
0.0001006162
0.0001006166
0.0001007267
0.0001006228
0.0001006156
0.0001006167
0.0001006164
0.0001006165
0.000100697
0.0001006184
0.0001006156
0.0001006165
0.0001006163
0.0001006165
0.0001006933
0.0001006177
0.0001006157
0.0001006163
0.0001006164
0.0001006166
0.000100695
0.0001006174
0.0001006159
0.0001006163
0.0001006164
0.0001006166
0.0001006974
0.000100617
0.000100616
0.0001006163
0.0001006165
0.0001006167
0.0001006938
0.0001006171
0.000100616
0.0001006164
0.0001006165
0.0001006168
0.0001006964
0.0001006171
0.0001006161
0.0001006165
0.0001006166
0.0001006168
0.0001007032
0.000100617
0.0001006161
0.0001006165
0.0001006166
0.0001006168
0.0001007068
0.0001006173
0.0001006161
0.0001006166
0.0001006167
0.0001006169
0.0001007144
0.0001006171
0.0001006162
0.0001006167
0.0001006167
0.000100617
0.0001007191
0.0001006167
0.0001006162
0.0001006167
0.0001006168
0.000100617
0.0001007304
0.0001006166
0.0001006163
0.0001006167
0.0001006168
0.000100617
0.0001007432
0.0001006166
0.0001006164
0.0001006168
0.0001006169
0.0001006171
0.0001007516
0.0001006166
0.0001006165
0.0001006168
0.0001006169
0.0001006172
0.0001007552
0.0001006166
0.0001006165
0.0001006169
0.000100617
0.0001006172
0.00010076
0.0001006166
0.0001006166
0.0001006169
0.0001006171
0.0001006173
0.0001007689
0.0001006166
0.0001006167
0.000100617
0.0001006172
0.0001006174
0.0001007785
0.0001006167
0.0001006167
0.0001006171
0.0001006172
0.0001006175
0.0001007841
0.0001006167
0.0001006168
0.0001006172
0.0001006173
0.0001006176
0.0001007932
0.0001006167
0.0001006169
0.0001006173
0.0001006174
0.0001006177
0.0001008056
0.0001006168
0.0001006169
0.0001006173
0.0001006175
0.0001006177
0.000597935
0.0005978127
0.0005977961
0.0005977924
0.0005976845
0.0005975623
0.0001006917
0.0001006229
0.0001006179
0.0001006162
0.0001006164
0.0001006165
0.0001008877
0.0001006291
0.0001006152
0.0001006187
0.0001006163
0.0001006167
0.0001007325
0.0001006216
0.0001006159
0.000100617
0.0001006165
0.0001006165
0.0001006944
0.0001006174
0.0001006157
0.0001006168
0.0001006162
0.0001006167
0.0001006906
0.0001006168
0.0001006158
0.0001006164
0.0001006163
0.0001006166
0.0001006919
0.0001006168
0.0001006158
0.0001006165
0.0001006163
0.0001006166
0.0001006935
0.0001006168
0.0001006159
0.0001006165
0.0001006163
0.0001006167
0.0001006968
0.0001006167
0.000100616
0.0001006166
0.0001006164
0.0001006168
0.000100697
0.000100617
0.0001006161
0.0001006166
0.0001006165
0.0001006168
0.0001007012
0.0001006164
0.0001006161
0.0001006167
0.0001006166
0.0001006168
0.0001007011
0.0001006162
0.0001006161
0.0001006167
0.0001006166
0.0001006169
0.0001007052
0.0001006166
0.0001006162
0.0001006168
0.0001006166
0.000100617
0.0001007275
0.0001006174
0.0001006162
0.0001006172
0.0001006167
0.0001006171
0.00010074
0.0001006174
0.0001006163
0.0001006174
0.0001006168
0.0001006171
0.0001007503
0.0001006174
0.0001006163
0.0001006173
0.0001006168
0.0001006172
0.0001007582
0.0001006174
0.0001006164
0.0001006174
0.0001006169
0.0001006173
0.0001007647
0.0001006175
0.0001006164
0.0001006174
0.0001006169
0.0001006173
0.0001007722
0.0001006174
0.0001006165
0.0001006174
0.000100617
0.0001006174
0.0001007797
0.0001006173
0.0001006165
0.0001006174
0.000100617
0.0001006175
0.0001007825
0.0001006172
0.0001006166
0.0001006174
0.0001006171
0.0001006175
0.0001007881
0.0001006171
0.0001006167
0.0001006174
0.0001006172
0.0001006176
0.0001007987
0.000100617
0.0001006168
0.0001006174
0.0001006172
0.0001006177
0.0001008117
0.000100617
0.0001006168
0.0001006175
0.0001006173
0.0001006178
0.0005979239
0.0005978074
0.0005977851
0.0005977654
0.0005976795
0.0005975518
0.0001007077
0.0001006225
0.0001006179
0.0001006162
0.0001006164
0.0001006165
0.00010081
0.0001006291
0.0001006152
0.0001006187
0.0001006163
0.0001006167
0.0001007528
0.0001006215
0.0001006159
0.000100617
0.0001006165
0.0001006165
0.0001006921
0.0001006173
0.0001006157
0.0001006168
0.0001006162
0.0001006167
0.000100691
0.0001006168
0.0001006158
0.0001006164
0.0001006163
0.0001006166
0.0001006913
0.0001006168
0.0001006158
0.0001006165
0.0001006163
0.0001006166
0.0001006922
0.0001006167
0.0001006159
0.0001006165
0.0001006163
0.0001006167
0.000100693
0.0001006167
0.000100616
0.0001006166
0.0001006164
0.0001006168
0.0001006932
0.000100617
0.0001006161
0.0001006166
0.0001006165
0.0001006168
0.0001006968
0.0001006164
0.0001006161
0.0001006167
0.0001006166
0.0001006168
0.000100704
0.0001006162
0.0001006161
0.0001006167
0.0001006166
0.0001006169
0.0001007159
0.0001006165
0.0001006162
0.0001006168
0.0001006166
0.000100617
0.0001007318
0.0001006174
0.0001006162
0.0001006172
0.0001006167
0.0001006171
0.0001007517
0.0001006174
0.0001006163
0.0001006174
0.0001006168
0.0001006171
0.0001007628
0.0001006174
0.0001006163
0.0001006173
0.0001006168
0.0001006172
0.0001007698
0.0001006174
0.0001006164
0.0001006174
0.0001006169
0.0001006173
0.0001007756
0.0001006175
0.0001006164
0.0001006174
0.0001006169
0.0001006173
0.0001007809
0.0001006174
0.0001006165
0.0001006174
0.000100617
0.0001006174
0.0001007855
0.0001006172
0.0001006166
0.0001006174
0.000100617
0.0001006175
0.0001007907
0.0001006172
0.0001006166
0.0001006174
0.0001006171
0.0001006175
0.0001007993
0.0001006171
0.0001006167
0.0001006174
0.0001006172
0.0001006176
0.0001008041
0.000100617
0.0001006168
0.0001006174
0.0001006172
0.0001006177
0.000100814
0.000100617
0.0001006168
0.0001006175
0.0001006173
0.0001006178
0.0005980076
0.0005977874
0.0005977448
0.0005977303
0.0005976399
0.0005975176
0.0001006855
0.0001006243
0.0001006179
0.0001006161
0.0001006164
0.0001006166
0.0001008274
0.000100628
0.000100615
0.000100619
0.0001006162
0.0001006166
0.0001007228
0.0001006228
0.0001006156
0.0001006166
0.0001006164
0.0001006165
0.0001006936
0.0001006183
0.0001006156
0.0001006165
0.0001006163
0.0001006165
0.000100694
0.0001006176
0.0001006157
0.0001006163
0.0001006164
0.0001006166
0.0001006947
0.0001006173
0.0001006159
0.0001006163
0.0001006164
0.0001006166
0.0001007006
0.000100617
0.000100616
0.0001006163
0.0001006165
0.0001006167
0.0001006944
0.0001006171
0.000100616
0.0001006164
0.0001006165
0.0001006168
0.0001006951
0.0001006171
0.0001006161
0.0001006165
0.0001006166
0.0001006168
0.0001006998
0.000100617
0.0001006161
0.0001006165
0.0001006166
0.0001006168
0.0001007107
0.0001006173
0.0001006161
0.0001006166
0.0001006167
0.0001006169
0.0001007213
0.0001006171
0.0001006162
0.0001006167
0.0001006167
0.000100617
0.0001007279
0.0001006167
0.0001006163
0.0001006167
0.0001006168
0.000100617
0.0001007365
0.0001006166
0.0001006163
0.0001006167
0.0001006168
0.000100617
0.000100747
0.0001006165
0.0001006164
0.0001006168
0.0001006169
0.0001006171
0.0001007547
0.0001006165
0.0001006165
0.0001006168
0.0001006169
0.0001006172
0.0001007615
0.0001006165
0.0001006166
0.0001006169
0.000100617
0.0001006172
0.000100767
0.0001006165
0.0001006166
0.0001006169
0.0001006171
0.0001006173
0.0001007731
0.0001006165
0.0001006167
0.000100617
0.0001006172
0.0001006174
0.0001007827
0.0001006166
0.0001006168
0.0001006171
0.0001006172
0.0001006175
0.0001007897
0.0001006167
0.0001006168
0.0001006172
0.0001006173
0.0001006176
0.0001007997
0.0001006167
0.0001006169
0.0001006173
0.0001006174
0.0001006177
0.0001008108
0.0001006167
0.000100617
0.0001006173
0.0001006174
0.0001006177
0.0005979424
0.0005976174
0.0005975536
0.0005975684
0.0005974585
0.0005973489
0.0001007299
0.0001006284
0.0001006176
0.0001006168
0.0001006165
0.0001006167
0.0001007733
0.0001006203
0.0001006173
0.0001006177
0.0001006162
0.0001006166
0.0001007824
0.0001006222
0.0001006164
0.0001006168
0.0001006162
0.0001006164
0.0001007055
0.0001006232
0.0001006159
0.0001006175
0.0001006162
0.0001006167
0.0001006985
0.0001006214
0.0001006159
0.0001006174
0.0001006163
0.0001006166
0.0001006993
0.00010062
0.0001006161
0.0001006174
0.0001006164
0.0001006167
0.0001006983
0.0001006186
0.0001006162
0.0001006173
0.0001006164
0.0001006167
0.0001006946
0.0001006177
0.0001006163
0.0001006169
0.0001006165
0.0001006168
0.0001006941
0.0001006174
0.0001006163
0.0001006168
0.0001006165
0.0001006168
0.0001006988
0.0001006171
0.0001006164
0.0001006168
0.0001006165
0.0001006169
0.0001007061
0.0001006166
0.0001006165
0.0001006168
0.0001006166
0.0001006169
0.0001007131
0.0001006165
0.0001006166
0.0001006168
0.0001006166
0.000100617
0.000100725
0.0001006165
0.0001006166
0.000100617
0.0001006167
0.0001006171
0.0001007323
0.0001006165
0.0001006167
0.0001006172
0.0001006167
0.0001006171
0.0001007405
0.0001006165
0.0001006168
0.0001006173
0.0001006168
0.0001006172
0.0001007474
0.0001006165
0.0001006168
0.0001006174
0.0001006169
0.0001006173
0.0001007536
0.0001006166
0.0001006169
0.0001006174
0.0001006169
0.0001006173
0.0001007593
0.0001006166
0.000100617
0.0001006174
0.000100617
0.0001006174
0.0001007658
0.0001006166
0.0001006171
0.0001006175
0.0001006171
0.0001006175
0.0001007738
0.0001006166
0.0001006171
0.0001006176
0.0001006171
0.0001006176
0.0001007818
0.0001006166
0.0001006172
0.0001006177
0.0001006172
0.0001006177
0.0001007914
0.0001006167
0.0001006173
0.0001006177
0.0001006173
0.0001006178
0.0001008029
0.0001006167
0.0001006174
0.0001006178
0.0001006173
0.0001006179
0.0005982955
0.000598468
0.0005983463
0.000598346
0.0005982313
0.0005981527
0.0001008169
0.0001006434
0.0001006166
0.0001006178
0.000100617
0.0001006171
0.0001007455
0.0001006227
0.0001006176
0.0001006169
0.0001006164
0.0001006166
0.0001007434
0.0001006201
0.0001006179
0.0001006164
0.0001006164
0.0001006166
0.0001007304
0.0001006217
0.0001006177
0.0001006164
0.0001006165
0.0001006166
0.0001007191
0.0001006243
0.0001006173
0.0001006165
0.0001006165
0.0001006167
0.0001007155
0.0001006244
0.000100617
0.0001006166
0.0001006166
0.0001006167
0.0001007137
0.0001006222
0.0001006169
0.0001006166
0.0001006166
0.0001006168
0.0001007079
0.0001006204
0.0001006169
0.0001006167
0.0001006167
0.0001006169
0.000100703
0.0001006187
0.000100617
0.0001006167
0.0001006168
0.000100617
0.0001007057
0.0001006181
0.0001006171
0.0001006167
0.0001006168
0.000100617
0.0001007073
0.0001006177
0.0001006171
0.0001006168
0.0001006169
0.0001006171
0.0001007102
0.0001006176
0.0001006172
0.0001006168
0.0001006169
0.0001006171
0.0001007167
0.0001006174
0.0001006172
0.0001006169
0.000100617
0.0001006172
0.0001007265
0.0001006173
0.0001006173
0.0001006169
0.0001006171
0.0001006173
0.0001007325
0.0001006173
0.0001006174
0.000100617
0.0001006171
0.0001006173
0.0001007371
0.0001006173
0.0001006175
0.0001006171
0.0001006172
0.0001006174
0.0001007434
0.0001006174
0.0001006175
0.0001006171
0.0001006173
0.0001006175
0.0001007492
0.0001006175
0.0001006176
0.0001006172
0.0001006173
0.0001006176
0.0001007545
0.0001006176
0.0001006177
0.0001006173
0.0001006174
0.0001006176
0.0001007609
0.0001006177
0.0001006178
0.0001006174
0.0001006175
0.0001006177
0.0001007684
0.000100618
0.0001006179
0.0001006174
0.0001006175
0.0001006178
0.0001007777
0.0001006183
0.000100618
0.0001006175
0.0001006176
0.0001006179
0.000100782
0.0001006187
0.0001006181
0.0001006176
0.0001006177
0.000100618
0.0002122193
0.0002098906
0.0002096658
0.0002096043
0.0002094663
0.0002093565
0.0001013773
0.0001012895
0.0001011612
0.0001009589
0.0001010207
0.000100984
0.0001009815
0.0001026365
0.0001014195
0.0001010842
0.0001008147
0.0001009378
0.0001008838
0.0001008951
0.0001018855
0.0001013779
0.0001011372
0.0001008225
0.000100957
0.0001008903
0.0001008985
0.0001015572
0.000101378
0.0001011414
0.0001008284
0.0001009529
0.0001008904
0.0001008972
0.0001013279
0.0001013667
0.0001011449
0.0001008462
0.0001009545
0.0001008981
0.0001009017
0.0001011802
0.000101367
0.0001011431
0.0001008592
0.0001009567
0.0001009005
0.0001009046
0.0001011663
0.0001013692
0.0001011339
0.0001008732
0.0001009593
0.0001009051
0.0001009097
0.0001012051
0.0001013775
0.0001011213
0.0001008846
0.0001009613
0.0001009084
0.0001009138
0.0001012198
0.000101389
0.000101115
0.0001008946
0.0001009637
0.0001009125
0.0001009182
0.0001012344
0.0001014005
0.0001011185
0.0001009029
0.0001009674
0.0001009177
0.0001009232
0.000101287
0.000101399
0.0001011282
0.0001009101
0.0001009721
0.0001009236
0.0001009285
0.0001013438
0.0001014053
0.0001011335
0.0001009152
0.0001009762
0.0001009274
0.0001009327
0.0001014052
0.0001014109
0.0001011372
0.0001009194
0.0001009808
0.000100932
0.0001009374
0.0001014723
0.0001014166
0.0001011433
0.0001009236
0.0001009856
0.0001009367
0.0001009421
0.0001015444
0.0001014245
0.0001011496
0.0001009282
0.0001009905
0.0001009416
0.0001009468
0.0001016168
0.0001014319
0.0001011565
0.0001009328
0.0001009955
0.0001009463
0.0001009515
0.0001016933
0.0001014399
0.0001011636
0.0001009373
0.0001010004
0.0001009511
0.000100956
0.0001017784
0.0001014489
0.0001011711
0.0001009414
0.0001010053
0.0001009556
0.0001009605
0.0001018724
0.0001014569
0.000101179
0.0001009455
0.0001010101
0.00010096
0.0001009648
0.0001019727
0.0001014628
0.0001011869
0.0001009493
0.000101015
0.0001009642
0.000100969
0.0001020802
0.0001014667
0.0001011949
0.0001009525
0.0001010194
0.0001009679
0.0001009728
0.0001022002
0.0001014689
0.0001012019
0.0001009548
0.0001010233
0.0001009712
0.0001009761
0.0001023314
0.0006369801
0.0001012069
0.0001009562
0.0001010256
0.0001009725
0.0001009787
0.0003038637
0.0001881214
0.0001008221
0.0001007084
0.0003056387
0.0002941516
0.0001013734
0.0001007621
0.0001029319
0.0001008763
0.000293936
0.0002934843
0.0001026362
0.0001008583
0.0001009013
0.0001008747
0.000293672
0.0002934505
0.0001018851
0.0001008403
0.0001009229
0.0001008482
0.0002936471
0.0002934401
0.0001015568
0.0001008082
0.0001009504
0.0001008226
0.0002936613
0.0002934469
0.0001013276
0.0001007831
0.0001010106
0.0001007902
0.0002936911
0.0002934634
0.0001011797
0.0001007637
0.0001010969
0.0001007721
0.0002937083
0.0002934697
0.000101166
0.0001007534
0.0001012739
0.0001007621
0.000293733
0.0002934828
0.0001012059
0.0001007319
0.0001014075
0.0001007317
0.0002937665
0.0002935007
0.000101221
0.0001007133
0.0001014795
0.0001007148
0.0002938126
0.0002935256
0.0001012357
0.0001007018
0.0001015575
0.0001007032
0.0002938627
0.0002935546
0.0001012884
0.00010069
0.0001016445
0.000100698
0.0002939087
0.0002935856
0.0001013455
0.000100678
0.0001017347
0.0001006941
0.0002939539
0.0002936192
0.0001014072
0.0001006714
0.0001018205
0.0001006899
0.0002940035
0.0002936561
0.0001014747
0.0001006644
0.000101902
0.000100687
0.0002940574
0.0002936942
0.0001015469
0.0001006583
0.0001019916
0.0001006854
0.0002941105
0.0002937348
0.0001016197
0.0001006544
0.0001020854
0.0001006844
0.0002941637
0.0002937797
0.0001016962
0.00010065
0.0001021818
0.0001006833
0.0002942187
0.0002938296
0.0001017817
0.0001006457
0.0001022833
0.0001006818
0.0002942763
0.0002938834
0.0001018758
0.0001006417
0.0001023917
0.0001006799
0.0002943366
0.0002939417
0.0001019767
0.0001006386
0.0001024977
0.0001006776
0.0002944015
0.0002940083
0.0001020844
0.0001006352
0.0001025878
0.0001006747
0.0002944772
0.0002941103
0.0001022047
0.0001006317
0.0001026742
0.000100672
0.0002946075
0.0001013265
0.0001023364
0.0001006285
0.0001027585
0.0001006683
0.0002121217
0.0001012508
0.0001007308
0.0002097975
0.0001025423
0.0001008035
0.0002098504
0.0001009532
0.000100781
0.0002097307
0.0001025495
0.0001007975
0.0002096406
0.0001008973
0.0001007891
0.000209683
0.000101972
0.0001007716
0.000209578
0.0001009247
0.0001007611
0.0002096554
0.0001010684
0.0001007867
0.0002095932
0.0001021719
0.0001007866
0.0002096728
0.0001008965
0.0001007699
0.0002096776
0.0001021261
0.0001007721
0.0002097107
0.0001008987
0.0001007883
0.0002097286
0.0001025383
0.0001007928
0.0002098263
0.0001009421
0.0001007804
0.0002097978
0.0001025385
0.0001008047
0.000212115
0.0001012621
0.0001007282
0.0001881243
0.0001008209
0.0001007071
0.0003038672
0.0002097382
0.0001006013
0.0001006289
0.0003058335
0.0002944005
0.000209581
0.0001006286
0.0001006213
0.0002942745
0.0002937593
0.0002095272
0.0001006221
0.0001006216
0.0002938533
0.0002936563
0.0002093966
0.0001006225
0.0001006206
0.0002937464
0.0002935398
0.0002092996
0.0001006218
0.0001006207
0.0002936307
0.0002934583
0.0001006216
0.0002935534
0.0001007616
0.0001029321
0.0001008766
0.00030564
0.0002941525
0.0001008581
0.0001009024
0.0001008748
0.0002939361
0.0002934842
0.0001008399
0.0001009238
0.0001008482
0.0002936731
0.0002934517
0.0001008079
0.0001009512
0.0001008226
0.0002936467
0.000293441
0.0001007827
0.0001010112
0.0001007902
0.0002936626
0.0002934472
0.0001007631
0.0001010972
0.0001007721
0.0002936897
0.0002934623
0.000100732
0.000101407
0.000100732
0.0002937322
0.0002934819
0.0001007132
0.0001014796
0.000100715
0.0002937657
0.0002934996
0.0001007017
0.0001015577
0.0001007034
0.0002938119
0.0002935245
0.0001006899
0.0001016443
0.0001006982
0.0002938619
0.0002935535
0.0001006776
0.0001017349
0.0001006944
0.0002939079
0.0002935846
0.0001006707
0.0001018205
0.0001006902
0.0002939532
0.0002936182
0.0001006635
0.0001019021
0.0001006872
0.0002940027
0.0002936551
0.0001006574
0.0001019918
0.0001006856
0.0002940568
0.0002936932
0.0001006533
0.0001020857
0.0001006847
0.0002941099
0.0002937339
0.000100649
0.0001021822
0.0001006834
0.0002941631
0.0002937787
0.0001006446
0.0001022839
0.0001006819
0.0002942181
0.0002938286
0.0001006406
0.0001023923
0.0001006799
0.0002942757
0.000293882
0.0001006375
0.0001024985
0.0001006776
0.0002943375
0.000293943
0.0001006344
0.0001025884
0.0001006747
0.0002944029
0.0002940076
0.0001006307
0.0001026752
0.000100672
0.0002944786
0.0002941102
0.0001006275
0.0001027594
0.0001006685
0.0002946086
0.0001013261
0.0001018815
0.0001455198
0.0003058312
0.0002943997
0.0002122141
0.0002097389
0.0001006013
0.0001006289
0.0002942748
0.0002937596
0.0002098914
0.000209586
0.0001006287
0.0001006213
0.0002938529
0.000293656
0.0002096674
0.0002095271
0.0001006222
0.0001006216
0.0002937479
0.0002935406
0.0002096046
0.0002093967
0.0001006226
0.0001006206
0.0002936295
0.0002934585
0.0002094654
0.0002093004
0.0001006219
0.0001006207
0.0002935549
0.0002093557
0.0001006217
0.000100653
0.0001429148
0.0001004336
0.0001424516
0.0001004675
0.0001427026
0.0001005114
0.000142604
0.0001004613
0.0001427734
0.00010045
0.0001426653
0.0001004573
0.0001429245
0.0001004332
0.000142748
0.0001004472
0.0001430461
0.0001004176
0.0001428078
0.0001003352
0.0001431266
0.0001004299
0.0001428422
0.0001003412
0.0001431571
0.000100443
0.0001428611
0.0001003402
0.000143173
0.0001004434
0.0001428437
0.0001003343
0.0001431893
0.0001004145
0.0001428282
0.0001003333
0.0001432239
0.000100366
0.0001428285
0.000100328
0.0001432507
0.0001003334
0.0001428403
0.0001003163
0.0001432756
0.0001003164
0.0001428629
0.0001003047
0.0001433027
0.0001003064
0.0001428901
0.0001002954
0.0001433309
0.0001003032
0.0001429271
0.000100294
0.0001433605
0.00010031
0.0001429672
0.0001003022
0.0001433902
0.0001003268
0.0001430116
0.0001003188
0.0001434196
0.0001003506
0.0001430667
0.0001003399
0.0001434507
0.0001003792
0.0001431236
0.0001003647
0.0001434846
0.0001004109
0.0001431842
0.0001003924
0.0001435256
0.0001004459
0.0001432469
0.0001004215
0.0001435754
0.0001004845
0.0001433122
0.0001004528
0.0001436341
0.0001005253
0.0001433825
0.0001004865
0.0001437028
0.0001005691
0.0001434674
0.0001017768
0.0001013301
0.0001016689
0.0001021005
0.0001021732
0.0001023317
0.0001023637
0.0001022769
0.0001022746
0.0001021351
0.0001024587
0.0001021149
0.000102511
0.0001019787
0.0001018609
0.0001017072
0.0001013493
0.0001020981
0.0001007529
0.0001012739
0.0001007624
0.0002937073
0.000293468
0.0001010794
0.0001436571
0.0001008528
0.0001481774
0.000100391
0.0001428016
0.0001007057
0.000147826
0.0001013804
0.000102153
0.0001008279
0.0001425684
0.0001005231
0.0001424686
0.0001004825
0.0001426356
0.0001004544
0.0001427748
0.0001004497
0.0001426953
0.000100464
0.0001428702
0.0001004288
0.0001427718
0.0001004729
0.0001429801
0.0001004167
0.0001428245
0.0001003756
0.0001431105
0.0001004349
0.0001428533
0.0001003392
0.0001431609
0.0001004475
0.0001428387
0.0001003381
0.0001431841
0.0001004417
0.0001428236
0.0001003362
0.0001431883
0.0001004048
0.0001428222
0.0001003672
0.0001432084
0.0001003566
0.0001428217
0.0001003427
0.0001432434
0.000100335
0.0001428401
0.0001003283
0.0001432685
0.00010032
0.0001428639
0.0001003148
0.000143293
0.0001003077
0.0001428975
0.0001003066
0.0001433165
0.0001002991
0.0001429344
0.0001003048
0.000143342
0.0001002987
0.0001429794
0.000100314
0.0001433668
0.0001003106
0.0001430268
0.0001003322
0.0001433899
0.0001003277
0.0001430812
0.0001003565
0.0001434164
0.0001003488
0.0001431405
0.0001003833
0.0001434456
0.0001003759
0.0001432039
0.0001004127
0.0001434797
0.0001004068
0.0001432691
0.0001004437
0.0001435196
0.000100439
0.000143338
0.0001004758
0.0001435683
0.0001004732
0.0001434131
0.0001005089
0.0001436262
0.0001005112
0.0001435486
0.0001029155
0.0001437072
0.0001005375
0.0001018863
0.0001016113
0.000102322
0.0001019943
0.0001025516
0.0001023573
0.0001020947
0.000102358
0.000102321
0.0001024729
0.0001018879
0.0001024202
0.0001016967
0.0001021767
0.0001018042
0.0001014828
0.0001019492
0.0001456079
0.0001010832
0.0001436545
0.0001008526
0.0001482238
0.000100404
0.0001428306
0.0001007203
0.0001478371
0.0001007792
0.0001436362
0.0001008551
0.0001432009
0.0001008469
0.0001431553
0.0001007588
0.0001432739
0.0001007924
0.0001433462
0.0001008749
0.0001431263
0.0001008745
0.0001430658
0.00010077
0.0001432273
0.0001007884
0.0001432197
0.0001008859
0.0001430102
0.0001008705
0.0001429683
0.0001007652
0.0001431112
0.0001007871
0.0001431225
0.000100884
0.0001429089
0.0001008698
0.0001428565
0.0001007655
0.0001430023
0.0001007832
0.0001429996
0.0001008819
0.0001427923
0.0001007805
0.0001428887
0.0001008822
0.0001006533
0.0001429182
0.0001004345
0.0001424529
0.0001008278
0.0001425676
0.0001005233
0.0001424709
0.0001004675
0.0001427013
0.0001005102
0.0001426034
0.0001004824
0.000142634
0.0001004548
0.0001427751
0.0001004613
0.0001427716
0.000100449
0.0001426644
0.0001004496
0.0001426947
0.0001004648
0.0001428694
0.0001004573
0.0001429237
0.0001004319
0.0001427474
0.0001004288
0.0001427712
0.0001004738
0.0001429797
0.0001004474
0.0001430455
0.0001004163
0.0001428073
0.0001004167
0.000142824
0.0001003759
0.00014311
0.0001003353
0.000143126
0.0001004279
0.0001428417
0.0001004349
0.0001428527
0.0001003393
0.0001431604
0.0001003404
0.0001431862
0.0001004435
0.0001428434
0.0001004417
0.0001428233
0.0001003363
0.0001431881
0.0001003343
0.0001431888
0.0001004111
0.0001428278
0.0001004049
0.0001428217
0.0001003685
0.0001432081
0.0001003332
0.0001432236
0.0001003623
0.0001428283
0.0001003568
0.0001428213
0.0001003438
0.0001432431
0.0001003279
0.0001432503
0.0001003295
0.0001428399
0.0001003351
0.0001428394
0.0001003293
0.0001432679
0.0001003165
0.0001432751
0.0001003122
0.0001428626
0.0001003201
0.0001428634
0.0001003151
0.0001432927
0.0001003046
0.0001433025
0.0001003017
0.0001428896
0.0001003078
0.0001428967
0.0001003067
0.0001433161
0.0001002952
0.0001433306
0.0001002985
0.0001429267
0.0001002992
0.000142934
0.0001003049
0.0001433417
0.0001002938
0.0001433607
0.0001003054
0.0001429668
0.0001002988
0.0001429788
0.0001003141
0.0001433664
0.0001003155
0.0001430265
0.0001003323
0.0001433889
0.0001003187
0.0001434203
0.0001003459
0.0001430663
0.0001003278
0.0001430808
0.0001003566
0.000143416
0.0001003397
0.0001434513
0.0001003743
0.0001431233
0.0001003489
0.0001431399
0.0001003834
0.0001434455
0.0001003645
0.000143486
0.0001004059
0.0001431837
0.000100376
0.0001432033
0.0001004128
0.0001434793
0.0001003922
0.0001435268
0.0001004407
0.0001432465
0.0001004069
0.0001432686
0.000100444
0.0001435192
0.0001004213
0.0001435774
0.0001004793
0.0001433119
0.0001004391
0.0001433375
0.000100476
0.000143568
0.0001004525
0.0001436363
0.0001005199
0.0001433818
0.0001004734
0.0001434143
0.0001005091
0.0001436254