/*--------------------------------*- C++ -*----------------------------------*\
  =========                 |
  \\      /  F ield         | OpenFOAM: The Open Source CFD Toolbox
   \\    /   O peration     | Website:  https://openfoam.org
    \\  /    A nd           | Version:  7
     \\/     M anipulation  |
\*---------------------------------------------------------------------------*/
FoamFile
{
    version     2.0;
    format      ascii;
    class       volVectorField;
    location    "0.08";
    object      U;
}
// * * * * * * * * * * * * * * * * * * * * * * * * * * * * * * * * * * * * * //

dimensions      [0 1 -1 0 0 0 0];

internalField   nonuniform List<vector> 
109978
(
(0.4671312 0.04266915 0.0009845113)
(0.473263 0.02598304 -0.003850184)
(0.4555968 0.02289719 -0.00274187)
(0.4459585 0.02404681 -0.002368063)
(0.4340313 0.02227494 -0.002320505)
(0.4221354 0.02269698 -0.002226777)
(0.4626385 0.027493 0.005315352)
(0.4810157 0.02477086 -0.00598618)
(0.4610208 0.02412146 -0.005577492)
(0.4527737 0.0246583 -0.00416849)
(0.4394373 0.02501624 -0.004301683)
(0.4275765 0.02511711 -0.004129228)
(0.455691 0.03570795 0.003726479)
(0.482991 0.0384505 -0.005537638)
(0.4616236 0.03786554 -0.005666185)
(0.4536462 0.0381526 -0.004090246)
(0.4398826 0.03823835 -0.004225423)
(0.428053 0.03816435 -0.004054422)
(0.4607851 0.05020288 0.004063238)
(0.4825901 0.05146547 -0.005325445)
(0.4614567 0.05123324 -0.006302711)
(0.453416 0.05075013 -0.004334497)
(0.4396116 0.05068441 -0.004595186)
(0.4276846 0.05050257 -0.004361732)
(0.4636724 0.06331933 0.004049458)
(0.4830333 0.06432838 -0.005209533)
(0.461279 0.06371131 -0.006369496)
(0.4527661 0.06326334 -0.004569343)
(0.438918 0.06309814 -0.005196523)
(0.426875 0.06280689 -0.004643624)
(0.4663571 0.07557762 0.004227737)
(0.4832827 0.07681359 -0.004950179)
(0.4612169 0.07594224 -0.006328151)
(0.4522794 0.07560927 -0.004694949)
(0.4383093 0.07532603 -0.005345561)
(0.4262029 0.07497371 -0.004835906)
(0.4684128 0.08686623 0.003763937)
(0.4835615 0.08903008 -0.004616616)
(0.4612518 0.08817079 -0.006453651)
(0.4518445 0.08795608 -0.004846386)
(0.437835 0.08763172 -0.00547052)
(0.4257245 0.08723798 -0.005027243)
(0.4718616 0.09848754 0.003197039)
(0.4837061 0.1012522 -0.004483048)
(0.461286 0.1004418 -0.006690698)
(0.4514582 0.1002784 -0.005000001)
(0.4373582 0.09994643 -0.005604534)
(0.4252154 0.0995268 -0.0052138)
(0.4754678 0.1104102 0.002993443)
(0.4841242 0.1136582 -0.00440293)
(0.461433 0.112897 -0.00690232)
(0.4511265 0.1126761 -0.005177522)
(0.436892 0.1123357 -0.005750524)
(0.4247015 0.1119065 -0.005394645)
(0.4782691 0.1230995 0.002850414)
(0.4848905 0.1263117 -0.00414072)
(0.4614244 0.1254945 -0.007086767)
(0.4508275 0.1252307 -0.005346838)
(0.4365101 0.124874 -0.005902693)
(0.4242494 0.1244036 -0.005566936)
(0.4802029 0.1361492 0.002622503)
(0.4860215 0.1392269 -0.003615749)
(0.4612628 0.1382404 -0.007197064)
(0.4503489 0.1378567 -0.005522361)
(0.4358191 0.1374685 -0.00606295)
(0.4234214 0.1369448 -0.0057373)
(0.4815433 0.1492358 0.002564698)
(0.4864148 0.1522779 -0.003459406)
(0.4608331 0.1510511 -0.007310158)
(0.4498447 0.150641 -0.005699681)
(0.4351879 0.1501999 -0.006251005)
(0.4227239 0.1496169 -0.005920994)
(0.482603 0.1623515 0.002565351)
(0.4865607 0.1654381 -0.003608932)
(0.4604908 0.1640159 -0.007455267)
(0.449422 0.1635492 -0.005889586)
(0.4345906 0.1630653 -0.006433353)
(0.4219997 0.1624306 -0.006096075)
(0.4834517 0.1756473 0.002539985)
(0.4865529 0.178626 -0.003793447)
(0.4601698 0.1771571 -0.007633301)
(0.4489755 0.1766466 -0.006066181)
(0.4339423 0.1761033 -0.006606136)
(0.4212032 0.1753929 -0.006262912)
(0.484097 0.1891384 0.002496014)
(0.4864428 0.1920565 -0.003986065)
(0.4597961 0.1905041 -0.007809619)
(0.4484711 0.189935 -0.006231973)
(0.4332193 0.189317 -0.006768654)
(0.420311 0.1885128 -0.006421938)
(0.4845933 0.202815 0.002384859)
(0.4862612 0.2057047 -0.004170056)
(0.459345 0.2040622 -0.007979878)
(0.4478873 0.2034123 -0.006388373)
(0.4324001 0.2027047 -0.006923693)
(0.4193106 0.2017931 -0.006572928)
(0.4849697 0.2166541 0.002211794)
(0.4860339 0.2195691 -0.004348496)
(0.4588064 0.2178256 -0.008141691)
(0.4472149 0.2170851 -0.006535862)
(0.4314748 0.2162787 -0.007069826)
(0.4181907 0.2152496 -0.006716286)
(0.4852852 0.2307166 0.002031504)
(0.4857397 0.2336348 -0.00450403)
(0.4581762 0.2318045 -0.0082941)
(0.4464442 0.2309656 -0.006673969)
(0.4304287 0.2300498 -0.007207941)
(0.41694 0.2288936 -0.006850983)
(0.4855606 0.2449845 0.001854959)
(0.4854233 0.2479323 -0.004646733)
(0.4574575 0.2460114 -0.00844045)
(0.445574 0.245072 -0.006801291)
(0.4292535 0.2440386 -0.007336192)
(0.4155454 0.2427435 -0.006975617)
(0.4856338 0.2594429 0.001695293)
(0.4850264 0.2624407 -0.004796218)
(0.4566416 0.2604592 -0.008583245)
(0.4445974 0.2594227 -0.006918509)
(0.4279424 0.2582645 -0.007456169)
(0.4139966 0.2568162 -0.00709176)
(0.4856815 0.274219 0.001521206)
(0.4845767 0.2772128 -0.004937148)
(0.4557324 0.2751773 -0.008723215)
(0.4435107 0.2740413 -0.007026773)
(0.4264806 0.272746 -0.007566838)
(0.4122762 0.27113 -0.007198541)
(0.4856029 0.2893519 0.001327771)
(0.4840804 0.2923199 -0.005114365)
(0.4547268 0.2902011 -0.008849322)
(0.442302 0.2889504 -0.007124408)
(0.4248592 0.2875053 -0.00767153)
(0.4103732 0.2857069 -0.007298254)
(0.4514954 0.3146362 -0.002880663)
(0.4836609 0.3079165 -0.005424653)
(0.4536401 0.3055712 -0.008957779)
(0.4409619 0.3041811 -0.007216505)
(0.4230653 0.3025714 -0.007773887)
(0.4082631 0.3005681 -0.007393262)
(0.4639559 0.01437377 0.01443768)
(0.4722511 -0.001551149 0.01075019)
(0.4555442 -0.001003292 0.01526024)
(0.4458784 0.0003279175 0.0133223)
(0.4338506 0.00017875 0.01240664)
(0.4220618 0.0003199421 0.0129499)
(0.4534264 -0.04429768 -0.04394989)
(0.4347441 -0.002264931 -0.02340514)
(0.4846226 0.0490578 0.02819081)
(0.4396292 0.01152657 -0.006073266)
(0.4484089 0.0236337 0.005148518)
(0.4300799 0.0187031 0.0003867544)
(0.4913051 -0.003193812 -0.09801966)
(0.4130393 0.01046483 -0.0452987)
(0.4914992 0.04134719 0.03121957)
(0.4356526 0.02768771 -0.01546397)
(0.4536818 0.03273396 0.003888337)
(0.4293953 0.03053641 -0.003227951)
(0.5026343 0.01281553 -0.1012113)
(0.4053593 0.0369837 -0.04851867)
(0.4810329 0.0463401 0.01958782)
(0.4300984 0.04363446 -0.01312262)
(0.4453528 0.04318159 0.001582226)
(0.4267648 0.04421865 -0.001216546)
(0.4955236 0.02012216 -0.08985878)
(0.4052277 0.05716001 -0.04414381)
(0.4800005 0.05399919 0.01780027)
(0.4293548 0.05475028 -0.01367474)
(0.4431917 0.05409393 -0.0009066763)
(0.4260528 0.05408572 -0.002930451)
(0.487892 0.02785862 -0.07829681)
(0.4103605 0.07228128 -0.04056395)
(0.4808565 0.06511804 0.01874753)
(0.4302655 0.06734295 -0.0128056)
(0.4435678 0.06636992 -5.111429e-05)
(0.426173 0.06632269 -0.001992281)
(0.4807344 0.03581187 -0.06961386)
(0.4176958 0.08474623 -0.03642948)
(0.4826775 0.07622978 0.02160579)
(0.4320511 0.07954911 -0.01234958)
(0.444854 0.07831998 0.0009403042)
(0.4264157 0.07811286 -0.002270785)
(0.4739781 0.04205705 -0.06278665)
(0.4240918 0.09629272 -0.03032706)
(0.482951 0.08792474 0.02141042)
(0.4343959 0.09220481 -0.01120962)
(0.4457939 0.09053069 0.001726859)
(0.4268316 0.09044307 -0.001758399)
(0.4683892 0.04938948 -0.05397868)
(0.4305229 0.1075107 -0.0270477)
(0.4833473 0.1004438 0.02077209)
(0.4367154 0.1045282 -0.01001963)
(0.4473935 0.1027813 0.002939363)
(0.4271402 0.1026624 -0.001596918)
(0.46664 0.05952131 -0.04455029)
(0.4332307 0.1193876 -0.02563635)
(0.4828405 0.1138152 0.01887609)
(0.438088 0.1168249 -0.009276746)
(0.448231 0.1153477 0.003435472)
(0.4272753 0.1153741 -0.001379396)
(0.4647198 0.06701441 -0.04142671)
(0.4362946 0.1321689 -0.02691783)
(0.4831541 0.127275 0.01864788)
(0.4391765 0.1290426 -0.008390384)
(0.4484359 0.1280856 0.003805737)
(0.4269967 0.1279462 -0.001364879)
(0.4637536 0.07425333 -0.03836773)
(0.4375212 0.1442455 -0.02612207)
(0.4836728 0.1405065 0.01902867)
(0.43961 0.1414815 -0.007885682)
(0.4485488 0.1408777 0.004216905)
(0.426599 0.1405197 -0.001405727)
(0.4633243 0.08330077 -0.03657265)
(0.4389721 0.1567533 -0.02541163)
(0.4844161 0.1537723 0.02010793)
(0.4397872 0.1542022 -0.007657436)
(0.4485738 0.1538595 0.004465353)
(0.4260564 0.1534079 -0.00155452)
(0.4626099 0.09476573 -0.03573929)
(0.4395629 0.1694578 -0.02576039)
(0.4844516 0.1670304 0.02055891)
(0.4393068 0.1671842 -0.007996765)
(0.4482496 0.1668538 0.004337709)
(0.425363 0.1664286 -0.001704974)
(0.4617649 0.1047904 -0.03444384)
(0.4406606 0.182462 -0.02803898)
(0.4846993 0.1802667 0.02119131)
(0.4388702 0.1802913 -0.008305196)
(0.4477137 0.1798815 0.003953621)
(0.4246222 0.1794987 -0.001822262)
(0.4611139 0.1136741 -0.03318274)
(0.441294 0.1956579 -0.02947542)
(0.4846897 0.1936766 0.02111974)
(0.4383673 0.1936366 -0.008522172)
(0.4472867 0.1931569 0.003946653)
(0.4238397 0.1926826 -0.001851344)
(0.4606592 0.1216413 -0.03209675)
(0.4417539 0.2090669 -0.03042151)
(0.484639 0.2073069 0.02122951)
(0.437727 0.2071407 -0.008682134)
(0.4467061 0.2066179 0.003929582)
(0.4229429 0.2059872 -0.001906447)
(0.4601894 0.1303926 -0.03118236)
(0.4419929 0.2227221 -0.03129429)
(0.4844821 0.2211212 0.02128192)
(0.4369939 0.2208486 -0.008834271)
(0.4461529 0.2202887 0.004052325)
(0.4219508 0.2194901 -0.001937494)
(0.4595292 0.1390706 -0.03040249)
(0.4423405 0.2365364 -0.03206231)
(0.484363 0.2351817 0.0215904)
(0.4361476 0.2348101 -0.008992985)
(0.4455675 0.2342068 0.004241945)
(0.4208358 0.2332019 -0.001993217)
(0.4588404 0.1473918 -0.02971951)
(0.4422833 0.2504602 -0.03241096)
(0.4842857 0.2494499 0.02203107)
(0.4351773 0.249009 -0.009170401)
(0.4448219 0.2483876 0.004442265)
(0.4195694 0.2471541 -0.00204773)
(0.4583006 0.1562244 -0.02907831)
(0.4421109 0.2645634 -0.03286248)
(0.4842188 0.2639312 0.02260132)
(0.4341268 0.2634458 -0.009352312)
(0.4439124 0.2628363 0.004633847)
(0.4181385 0.2613948 -0.002136169)
(0.4579058 0.1656561 -0.02861011)
(0.4422059 0.279023 -0.03390127)
(0.4840646 0.2786491 0.02311349)
(0.4329898 0.2781145 -0.009497969)
(0.4428431 0.2775322 0.004873879)
(0.4165291 0.2759188 -0.002209533)
(0.4575383 0.1753447 -0.02830653)
(0.4424804 0.2939615 -0.03526736)
(0.4839352 0.2936952 0.02368651)
(0.4318051 0.2930571 -0.009607378)
(0.441695 0.2924741 0.005190799)
(0.4147542 0.290704 -0.002247532)
(0.4270425 0.1955799 -0.03747762)
(0.4426793 0.3092863 -0.0367427)
(0.4838618 0.3091179 0.02437918)
(0.4305424 0.3083827 -0.009723401)
(0.4404712 0.30773 0.005576445)
(0.412805 0.3057953 -0.002271023)
(0.4627277 0.00810512 0.002426133)
(0.4971905 -0.003668768 0.002974187)
(0.4670841 -0.004629887 0.001820763)
(0.4551429 -0.001921815 0.0003912303)
(0.4429568 -0.003397461 0.001914528)
(0.4313144 -0.003115863 0.002578366)
(0.4850734 -0.1167091 -0.001008983)
(0.4095367 -0.01907976 -0.02491246)
(0.4882094 0.04943751 0.007740546)
(0.434417 0.004618283 -0.003202444)
(0.453954 0.0248177 0.003511978)
(0.4291203 0.01557852 0.0006035112)
(0.3758635 0.003130526 -0.05163647)
(0.4215045 0.01187706 -0.01624375)
(0.5150791 0.03499987 0.001423971)
(0.4493015 0.02218794 -0.01163531)
(0.4602055 0.02900313 -0.003694613)
(0.4329121 0.02842952 -0.002423693)
(0.3251982 0.006257145 -0.01214045)
(0.4289264 0.0304914 -0.02136562)
(0.5097411 0.05032992 -0.002523654)
(0.4392771 0.04346413 -0.01120956)
(0.45642 0.04433027 -0.001832942)
(0.4283903 0.04256326 -0.001387378)
(0.4125151 0.01780931 0.003251535)
(0.43688 0.05837802 -0.01950984)
(0.5089609 0.05734841 -0.002886698)
(0.4487518 0.05454589 -0.008773023)
(0.459797 0.05324008 -0.001903646)
(0.4334287 0.05374701 -0.002012613)
(0.4428845 0.02383668 0.00143474)
(0.438772 0.0748291 -0.01963083)
(0.5088249 0.06816166 -0.001647999)
(0.4451413 0.06840551 -0.008561225)
(0.4570246 0.06686586 -0.0002212821)
(0.4293311 0.06773341 -0.002356918)
(0.4554935 0.03636971 0.0003244372)
(0.4403854 0.09054846 -0.0183087)
(0.5066338 0.07908678 0.0006408124)
(0.4472887 0.08075936 -0.007437909)
(0.456057 0.0781515 -5.910712e-05)
(0.4311804 0.07874903 -0.001976512)
(0.46057 0.04679255 -0.002995527)
(0.4417293 0.1021633 -0.01786548)
(0.5027004 0.09007103 0.00258635)
(0.4462767 0.09350507 -0.006753034)
(0.4543654 0.09115696 -9.08247e-05)
(0.4295861 0.09188091 -0.001547712)
(0.4670701 0.05648787 -0.004806791)
(0.4430957 0.1108126 -0.01598326)
(0.4981932 0.1020697 0.003160109)
(0.4442866 0.1057679 -0.006274649)
(0.4526299 0.1032835 -0.0002443986)
(0.4294854 0.1038049 -0.0007722738)
(0.4725736 0.06262763 -0.004550889)
(0.4459734 0.1222031 -0.0148802)
(0.4945539 0.1148173 0.002424558)
(0.4442047 0.1178527 -0.006061025)
(0.4511687 0.1156439 -0.0006497503)
(0.4292849 0.1161687 -0.0002978018)
(0.4708062 0.06675803 -0.004338975)
(0.4465199 0.1340446 -0.01540961)
(0.4926356 0.12823 0.002094533)
(0.4442915 0.1301582 -0.005290415)
(0.4512094 0.1283731 -0.0001098618)
(0.4296172 0.1283127 0.0004900414)
(0.4722388 0.06961065 -0.00146518)
(0.4434578 0.1465627 -0.01567868)
(0.4912171 0.1414752 0.001825585)
(0.4440138 0.1423393 -0.004562818)
(0.4510678 0.1409281 0.0002482485)
(0.4288642 0.1407034 0.0003797576)
(0.472993 0.07910401 0.001881579)
(0.443137 0.1594637 -0.01640031)
(0.4902171 0.1547483 0.002058604)
(0.4443642 0.1546688 -0.004157275)
(0.4505701 0.1533498 0.000503024)
(0.4284308 0.1532336 7.426863e-05)
(0.4708908 0.1082429 0.003216599)
(0.4430386 0.1712058 -0.01677849)
(0.4905778 0.1682411 0.003146733)
(0.4448387 0.167353 -0.003990137)
(0.4501685 0.1660557 0.000795242)
(0.428002 0.1659982 0.000166047)
(0.4699017 0.1145715 0.006197831)
(0.4415037 0.1840416 -0.0165898)
(0.4914594 0.1813363 0.003696516)
(0.4454527 0.1802053 -0.003653335)
(0.4503223 0.1793583 0.001147391)
(0.4274524 0.1791064 0.0003286572)
(0.4698111 0.1211226 0.007577931)
(0.4427833 0.198317 -0.01739471)
(0.4921178 0.1946942 0.004383784)
(0.4449628 0.1933782 -0.003696853)
(0.4497255 0.1928522 0.001131819)
(0.4266686 0.1924251 0.0006034141)
(0.4695539 0.1272898 0.008322766)
(0.4423367 0.2123575 -0.01789527)
(0.4924083 0.2085137 0.004946975)
(0.444244 0.2068273 -0.00363493)
(0.4492066 0.2063849 0.001215392)
(0.4258098 0.2058364 0.0007998575)
(0.4690002 0.1377269 0.008981383)
(0.4422273 0.2263317 -0.01833045)
(0.4925617 0.2224703 0.005607013)
(0.4432614 0.2205217 -0.003854978)
(0.4486335 0.2201161 0.001153154)
(0.4248945 0.2194388 0.0008821698)
(0.4686469 0.1472632 0.009333335)
(0.4416913 0.2404849 -0.01848232)
(0.4927719 0.2367486 0.006356982)
(0.4424116 0.2344526 -0.003987722)
(0.4480071 0.2340758 0.001018708)
(0.4238044 0.2332138 0.001028631)
(0.4687522 0.1536747 0.009497543)
(0.4415543 0.254816 -0.01908684)
(0.4930778 0.2511373 0.007104784)
(0.4417759 0.2486236 -0.003872182)
(0.447352 0.2483001 0.0009399963)
(0.4225648 0.2472 0.001004846)
(0.4687809 0.1626258 0.01007252)
(0.4416226 0.2691464 -0.02018995)
(0.4935777 0.2657553 0.00769785)
(0.4412584 0.2630774 -0.003628909)
(0.44678 0.262871 0.0009728731)
(0.4211787 0.2614261 0.0009192271)
(0.4680598 0.1739594 0.01020605)
(0.4404864 0.2833004 -0.02074313)
(0.4939905 0.2806328 0.008383476)
(0.4403029 0.2778606 -0.00336073)
(0.4460429 0.2777861 0.001161993)
(0.4194822 0.2760409 0.0008776773)
(0.4673311 0.183978 0.0098937)
(0.4388232 0.29778 -0.02107857)
(0.4941066 0.2957002 0.009070041)
(0.4387817 0.292918 -0.003199798)
(0.4448339 0.2928773 0.001359813)
(0.4175631 0.2909346 0.0008860294)
(0.4665431 0.1934336 0.009455268)
(0.4370279 0.3126822 -0.02153881)
(0.4940327 0.3110701 0.009735708)
(0.4369567 0.3082977 -0.003159131)
(0.4432768 0.308226 0.001505987)
(0.415454 0.3061488 0.0009098676)
(0.4449827 0.006056759 0.000161788)
(0.5023381 -0.007752691 0.0008049401)
(0.4686299 -0.007435808 -0.004979787)
(0.460255 -0.004170246 0.0006945136)
(0.4438037 -0.003176289 0.0003302586)
(0.4314094 -0.002955825 0.0007260546)
(0.5312079 -0.1118101 0.005360212)
(0.400714 -0.02725372 -0.01441692)
(0.4769792 0.03758049 0.002774104)
(0.4267764 0.001091899 -0.001610263)
(0.4460418 0.01962257 0.0005902186)
(0.4263683 0.01582323 0.002239415)
(0.2094705 -0.004279579 -0.002659054)
(0.445799 0.01377417 -0.0147821)
(0.5321505 0.02856675 0.003971188)
(0.4531197 0.01923467 -0.005839832)
(0.4640078 0.02780499 0.002519868)
(0.4327602 0.02881097 -0.0003883089)
(0.4911497 -0.05148032 0.002707889)
(0.4488914 0.03764425 -0.008732413)
(0.5129576 0.04649568 -0.0008948277)
(0.4452526 0.04697953 -0.004597324)
(0.4475932 0.04240471 -0.00214777)
(0.4272409 0.04439171 0.0007843144)
(0.4734199 0.01484798 0.003449608)
(0.4466747 0.05493316 -0.01580498)
(0.5056409 0.05661668 0.001539226)
(0.4455544 0.05731981 -0.002096754)
(0.456336 0.05485231 0.0009204621)
(0.4287167 0.05425426 0.0005773745)
(0.477777 0.04085756 0.002451202)
(0.4418049 0.07100408 -0.01458692)
(0.5019307 0.06855939 0.004659947)
(0.4416521 0.07111345 -0.0007738514)
(0.4519165 0.06731696 0.0004389403)
(0.4267319 0.06818889 0.001804109)
(0.4803634 0.06088963 0.0004319471)
(0.4384139 0.08609687 -0.0118903)
(0.4973121 0.07992205 0.00553837)
(0.4405411 0.0820023 -0.0002106964)
(0.4516386 0.07875499 0.001498074)
(0.4273586 0.07865807 0.00128924)
(0.4798679 0.08101471 -0.00164035)
(0.4382658 0.09920211 -0.0118644)
(0.4950801 0.09077069 0.004878627)
(0.4415511 0.09329392 4.575989e-05)
(0.4505464 0.0907696 0.001411758)
(0.4265572 0.09142218 0.0008461392)
(0.4851134 0.07177056 -0.001732028)
(0.4441992 0.1107345 -0.01138272)
(0.4935514 0.1012048 0.006170738)
(0.4437204 0.1045803 -0.0002556727)
(0.4493477 0.1026924 0.000852533)
(0.4269482 0.1038231 0.0008252878)
(0.4880585 0.0692956 -0.0005683957)
(0.4508063 0.1213117 -0.008814886)
(0.4936661 0.1136765 0.005407662)
(0.4451948 0.1167552 -0.001086715)
(0.4480065 0.1154712 0.0002181103)
(0.4272856 0.1165859 0.0005929209)
(0.4849441 0.07011091 0.000366218)
(0.4509416 0.1340002 -0.00653969)
(0.4897997 0.1271281 0.004275634)
(0.4427804 0.129922 -0.001186969)
(0.4447821 0.1281374 -0.0002299322)
(0.4262415 0.1286466 0.0008002872)
(0.483511 0.08292822 0.0017649)
(0.4535512 0.1485944 -0.009287151)
(0.4887669 0.1408159 0.003158222)
(0.4422901 0.142519 -0.001474191)
(0.4459387 0.1407404 0.0003776451)
(0.4259386 0.1405798 0.0008896315)
(0.481877 0.08915591 0.005076799)
(0.4522628 0.1606172 -0.0107755)
(0.4891318 0.1548536 0.002587209)
(0.4418923 0.1551447 -0.001849592)
(0.4468264 0.1537069 0.0008064474)
(0.4254172 0.1536059 0.0006626665)
(0.4789103 0.09933167 0.007768122)
(0.4472174 0.1728104 -0.01129545)
(0.486847 0.1679865 0.002540451)
(0.4404146 0.1680278 -0.001995587)
(0.4455437 0.1665246 0.0005062971)
(0.4241499 0.1665198 0.0003207495)
(0.4784895 0.1062714 0.01061231)
(0.4479076 0.1860819 -0.01457927)
(0.4855284 0.1811964 0.003170321)
(0.4383849 0.1805998 -0.001981606)
(0.4451363 0.1794126 0.0007236781)
(0.4231537 0.1791051 0.0004924952)
(0.4780716 0.1135325 0.01165028)
(0.447152 0.1992594 -0.01467174)
(0.4855217 0.1949796 0.003213758)
(0.4390079 0.1931755 -0.001489315)
(0.4445292 0.1924312 0.0007593304)
(0.422421 0.1924321 0.0005865113)
(0.4775243 0.1223133 0.01188692)
(0.4460767 0.2132918 -0.0154689)
(0.4855745 0.2087979 0.003436361)
(0.438003 0.2064195 -0.001359446)
(0.4436996 0.2057496 0.0007418207)
(0.4213933 0.2060191 0.000718989)
(0.476881 0.1325219 0.01208607)
(0.4449027 0.2273378 -0.01534713)
(0.485748 0.2227838 0.00344148)
(0.4381976 0.2198609 -0.001040557)
(0.4422127 0.219208 0.000410593)
(0.4204267 0.2195328 0.0007908245)
(0.4765136 0.1423547 0.01201684)
(0.4440965 0.2413488 -0.01592564)
(0.4860904 0.2367472 0.003865068)
(0.4379061 0.2339661 -0.0009035318)
(0.4410885 0.2331054 0.0003508595)
(0.4193583 0.2332078 0.0008514956)
(0.4763743 0.1505374 0.0124963)
(0.4432031 0.2550235 -0.01686275)
(0.4863623 0.2507199 0.004288559)
(0.4372786 0.2483755 -0.0006179858)
(0.4403537 0.2472617 0.0005543939)
(0.418156 0.2469102 0.0009395972)
(0.4762684 0.1573868 0.01365747)
(0.4431282 0.2693303 -0.01773346)
(0.4868574 0.2651789 0.004572156)
(0.4365326 0.2630195 -0.0002822377)
(0.4403444 0.2618033 0.001030523)
(0.4168112 0.2611137 0.001024324)
(0.4760941 0.1684712 0.01383331)
(0.4422041 0.2839871 -0.018696)
(0.4863448 0.2801072 0.004737679)
(0.4351657 0.2778182 8.171162e-05)
(0.4397169 0.2766196 0.001500095)
(0.4152041 0.2757052 0.001089939)
(0.4754548 0.1781641 0.01329354)
(0.4410077 0.2986444 -0.02006184)
(0.4858978 0.2952789 0.005148944)
(0.4337387 0.2926776 0.0005133834)
(0.4388332 0.2916294 0.001908667)
(0.4133865 0.2905465 0.001166738)
(0.4747887 0.1873346 0.01280631)
(0.4396213 0.3135272 -0.02138528)
(0.485742 0.3107464 0.005577093)
(0.4324603 0.3078257 0.0009362431)
(0.4376602 0.3068846 0.00219047)
(0.4113035 0.3056962 0.00122048)
(0.4399242 0.006073872 -0.007527563)
(0.4974644 -0.01026846 0.001163541)
(0.4712366 -0.008118332 0.001801321)
(0.4621442 -0.005861439 -0.000614831)
(0.4444143 -0.003141782 -0.0003821774)
(0.4326941 -0.003001513 0.0001753473)
(0.5406873 -0.1032849 0.003128166)
(0.3961074 -0.02561267 -0.004194783)
(0.4775737 0.03721292 3.788049e-05)
(0.4265031 0.002432619 -0.0009070335)
(0.4421068 0.01497027 -0.0005043156)
(0.4251219 0.01552431 -0.0001498689)
(0.2918635 0.006043021 -0.02337001)
(0.4426069 0.006885563 -0.003995865)
(0.5249626 0.02023852 -0.00151821)
(0.4514229 0.0217205 -0.0004709034)
(0.4631342 0.02584946 0.0006680477)
(0.4348992 0.02820918 -0.0003421936)
(0.4723359 -0.02602449 -0.001008191)
(0.4684725 0.04056307 0.002246786)
(0.5164013 0.04587674 -0.001224648)
(0.4528496 0.04519438 -0.00211218)
(0.4556282 0.04333336 -0.001268693)
(0.4288462 0.04380852 -0.002105196)
(0.4696142 0.02077318 0.002624782)
(0.4460514 0.0554396 0.002721054)
(0.5021676 0.05753491 -0.001469766)
(0.4469141 0.05781749 -0.0008744997)
(0.455019 0.05627558 -0.0009210258)
(0.434085 0.0542536 -0.0005522593)
(0.479528 0.02983869 -0.002774725)
(0.4345156 0.07104609 -0.0003283101)
(0.4931652 0.07010438 -0.0009557155)
(0.4393187 0.07175576 -0.0009642431)
(0.4493417 0.0677728 -0.0007992116)
(0.4264471 0.06856322 -0.0004285799)
(0.4869292 0.04185026 -0.003756544)
(0.4354691 0.08822527 -0.00212221)
(0.4898384 0.0817171 -0.0006742973)
(0.4418731 0.08185342 -0.0002072708)
(0.4487412 0.07891026 -0.0007542705)
(0.430038 0.07882628 -0.0001123075)
(0.4887976 0.04772207 -0.001334557)
(0.4376908 0.1012981 -0.00161116)
(0.4924179 0.0924065 0.000202405)
(0.4435226 0.09349567 -0.0004848365)
(0.4504673 0.08983783 -0.0003569619)
(0.4313129 0.09106509 -0.0003460655)
(0.4911791 0.05509883 -0.001517654)
(0.4397593 0.1112098 -0.001249434)
(0.4913946 0.1031114 0.0005731537)
(0.445276 0.1051784 -0.0006941969)
(0.4497729 0.1022564 -0.0004750082)
(0.4297975 0.1034256 -0.0003721372)
(0.4935317 0.06165816 -0.001768927)
(0.4466113 0.1216111 -0.0006812691)
(0.4919699 0.1146598 0.0006078677)
(0.4475919 0.1173661 -0.0004267388)
(0.4498144 0.115148 -0.0005987824)
(0.4297471 0.1158454 -0.0005051221)
(0.4895229 0.06801459 -0.00165154)
(0.4493049 0.1329309 -0.0005832776)
(0.4892249 0.1278025 0.0003371165)
(0.4458831 0.1303132 -0.0004047903)
(0.4484087 0.1284357 -0.0006157721)
(0.4281359 0.1286092 -0.0009148648)
(0.4879304 0.0909184 -0.0006598683)
(0.4501038 0.1452778 -0.001230641)
(0.4853032 0.140908 -0.0002397615)
(0.443783 0.1424414 -0.0001823442)
(0.4467477 0.1407326 -0.0005322865)
(0.427566 0.1404495 -0.0007124147)
(0.4856874 0.1040596 0.001077318)
(0.4542763 0.1588807 -0.00165321)
(0.4863767 0.1540602 -0.001029064)
(0.4450211 0.1538265 -0.0001304184)
(0.447274 0.153063 -0.0009248165)
(0.4277603 0.152732 -0.00066466)
(0.4825359 0.09922001 0.007198511)
(0.4587187 0.1704649 -0.001375436)
(0.4925427 0.168242 -0.0008789361)
(0.448832 0.1668277 -0.0007390525)
(0.4498041 0.1661814 -0.001445416)
(0.4289428 0.1655188 -0.0005476778)
(0.4812594 0.101999 0.01164108)
(0.45265 0.1840269 0.0005768129)
(0.4896951 0.1809082 -0.001443675)
(0.4456735 0.1804387 -0.0002376302)
(0.4484403 0.1793856 -0.001893744)
(0.4264885 0.1790679 -0.000848984)
(0.4802314 0.1110115 0.01166761)
(0.4527978 0.1984471 -0.0009435801)
(0.4907168 0.1945569 -0.001282722)
(0.4455981 0.1932131 -0.0008618932)
(0.4481647 0.1928343 -0.001834878)
(0.4253234 0.1923568 -0.001431316)
(0.4796419 0.1197513 0.01112138)
(0.4508696 0.2120194 -0.0004151928)
(0.4885372 0.2079305 -0.001442887)
(0.4443888 0.2066124 -0.0006813586)
(0.4466496 0.2060478 -0.001911213)
(0.4243079 0.2056849 -0.001025555)
(0.479137 0.1292591 0.01087253)
(0.4519682 0.2261935 -0.001746202)
(0.4896221 0.2220064 -0.0009546102)
(0.4442271 0.2201762 -0.0005442124)
(0.4463555 0.219682 -0.001752622)
(0.4230926 0.219324 -0.001490705)
(0.478686 0.1370206 0.01046218)
(0.4491686 0.2396787 -0.001250405)
(0.4888734 0.2361085 -0.000701831)
(0.4430717 0.234326 -0.0004390037)
(0.4455301 0.233523 -0.001496491)
(0.4218688 0.2329815 -0.001284621)
(0.4783857 0.1442976 0.009642021)
(0.4474654 0.2535573 -0.001163474)
(0.4874861 0.250192 -0.0005482051)
(0.4415766 0.2487848 -0.0001810467)
(0.4447536 0.2477448 -0.001218266)
(0.4204091 0.2470309 -0.001370544)
(0.4784916 0.1535793 0.007981789)
(0.4458848 0.2676371 -0.001196649)
(0.4862446 0.2645682 -0.0004201033)
(0.4400066 0.2633185 2.355403e-05)
(0.4435134 0.2624458 -0.0009875908)
(0.418875 0.2611988 -0.001177039)
(0.4762763 0.1676182 0.008190749)
(0.4439196 0.2816656 -0.001230027)
(0.4854816 0.2793168 -0.0001272565)
(0.4377594 0.2782094 0.0002071829)
(0.442447 0.2774872 -0.000741303)
(0.4171095 0.2757355 -0.001012205)
(0.4741642 0.1771031 0.008154027)
(0.4406418 0.2961073 -0.0008240487)
(0.4832953 0.2941732 -3.4145e-05)
(0.4350817 0.2932207 0.0005455057)
(0.4408658 0.2925215 -0.0004767646)
(0.4149685 0.2905848 -0.0008299255)
(0.4718584 0.1859923 0.008397262)
(0.4387289 0.3108454 -0.00151588)
(0.4818693 0.3094254 5.669458e-05)
(0.4330473 0.3083619 0.0008966757)
(0.4391085 0.3078326 -0.0002281265)
(0.4127505 0.3057567 -0.0006459946)
(0.4404481 -0.0001474221 0.00140203)
(0.4934201 -0.008355135 -6.953321e-05)
(0.4684135 -0.006250768 0.001548864)
(0.4557425 -0.001883811 8.176674e-05)
(0.4439086 -0.00280524 0.0005872064)
(0.4310294 -0.002103093 0.0001911964)
(0.5386577 -0.1157887 -8.369378e-05)
(0.3956254 -0.02614851 0.005078632)
(0.477731 0.03797767 -6.855985e-05)
(0.4265819 0.001974475 0.001016053)
(0.4424187 0.01529274 0.0004767594)
(0.4252244 0.01532488 0.0001797648)
(0.2546428 2.341173e-05 0.006327247)
(0.4422681 0.006850631 0.003734988)
(0.5257668 0.02054102 0.001518276)
(0.4518191 0.02180504 0.0005019182)
(0.4632048 0.02587717 -0.0006543604)
(0.4350574 0.0282563 0.0003459151)
(0.5065889 -0.09194645 -0.004053933)
(0.4684514 0.04094001 -0.00206217)
(0.5166608 0.04603635 0.001237564)
(0.4531172 0.0452209 0.00213341)
(0.4559735 0.04345388 0.001267881)
(0.4289092 0.04381313 0.002136476)
(0.4871989 -0.00852619 -0.003923147)
(0.4458559 0.05545069 -0.0027444)
(0.5021047 0.05752553 0.001503981)
(0.446933 0.05783381 0.0009076268)
(0.4550747 0.05629366 0.0009167502)
(0.43426 0.0542466 0.0005683344)
(0.4912957 0.02962228 0.001428799)
(0.4350011 0.07130506 0.0005723033)
(0.4931903 0.07011702 0.0009775666)
(0.4394342 0.0717776 0.0009887995)
(0.4493597 0.06777903 0.0007981926)
(0.4264516 0.06858043 0.0004697282)
(0.494388 0.04054077 0.004064278)
(0.4355298 0.08831976 0.002303627)
(0.4896731 0.08175905 0.0007503372)
(0.4418119 0.08186297 0.0002445264)
(0.4486901 0.07890589 0.0007637435)
(0.4300549 0.07883075 0.0001387439)
(0.4962709 0.05902304 0.006258825)
(0.4375755 0.1012349 0.001705959)
(0.4923584 0.09240087 -0.0001149173)
(0.4435872 0.0934848 0.0005166583)
(0.4504646 0.08982959 0.0003581047)
(0.4313467 0.09105822 0.0003706019)
(0.4981961 0.07771499 0.007169507)
(0.4396816 0.1111787 0.001290602)
(0.4914053 0.103079 -0.0005146426)
(0.4453424 0.105165 0.0007209211)
(0.4498078 0.1022525 0.0004727382)
(0.4298034 0.1034204 0.0003936602)
(0.4992104 0.08857538 0.005789557)
(0.4466632 0.121638 0.0007636394)
(0.492 0.1146182 -0.0005560951)
(0.4476537 0.1173509 0.0004551289)
(0.4498278 0.1151524 0.0005973935)
(0.4297442 0.1158452 0.0005226713)
(0.4943352 0.08738144 0.004314064)
(0.4493695 0.1329606 0.0006790597)
(0.4892169 0.1277791 -0.0002826846)
(0.445886 0.1303122 0.000444589)
(0.4484233 0.1284446 0.0006201674)
(0.4281333 0.1286109 0.0009245806)
(0.494071 0.08290076 0.004238033)
(0.4501471 0.1453157 0.001404935)
(0.4852796 0.1409069 0.0002794785)
(0.4437815 0.1424396 0.0002359202)
(0.4467631 0.1407389 0.000536794)
(0.427564 0.1404494 0.0007218364)
(0.4922222 0.08813742 0.004798173)
(0.4540903 0.1588012 0.001735278)
(0.486233 0.1540484 0.001084064)
(0.4449996 0.1538371 0.0001784675)
(0.4472591 0.1530687 0.0009305058)
(0.4277574 0.1527325 0.0006709316)
(0.4885081 0.09670265 0.001997415)
(0.4585443 0.1703797 0.001472255)
(0.4924112 0.1682036 0.000957703)
(0.4487301 0.166807 0.0007547231)
(0.4497726 0.1661827 0.001462843)
(0.4289151 0.1655245 0.0005555773)
(0.4815705 0.1075196 -0.00683543)
(0.4528149 0.1839843 -0.0005096152)
(0.4896361 0.180866 0.001467408)
(0.4456971 0.180427 0.0002785884)
(0.4484507 0.1793941 0.001899013)
(0.4264875 0.1790615 0.0008485562)
(0.4798153 0.1144805 -0.009566491)
(0.4528571 0.1983963 0.0009286419)
(0.4906927 0.1945702 0.001277994)
(0.4455145 0.193201 0.000879432)
(0.4482143 0.1928501 0.001836123)
(0.4252837 0.1923688 0.001419723)
(0.478544 0.1223231 -0.01090423)
(0.4505819 0.2119816 0.0002689979)
(0.4883394 0.2079029 0.001480943)
(0.444259 0.2066274 0.000709062)
(0.4466767 0.2060614 0.0019126)
(0.4242916 0.2056842 0.001014125)
(0.4775348 0.1304774 -0.01184135)
(0.4518719 0.2261256 0.001642158)
(0.4895432 0.2219991 0.000956205)
(0.444047 0.2201443 0.0005437386)
(0.4463948 0.2197003 0.001753847)
(0.4229735 0.2193589 0.001470087)
(0.4763418 0.1404949 -0.01231192)
(0.4488183 0.2396623 0.001079535)
(0.4887412 0.2360689 0.0007163231)
(0.4429037 0.234331 0.0004516465)
(0.4455243 0.2335431 0.001495733)
(0.4218403 0.2329864 0.001271309)
(0.4749038 0.151243 -0.01285828)
(0.446929 0.2535131 0.0008582827)
(0.487234 0.2501487 0.0005871284)
(0.441412 0.2487764 0.0001716047)
(0.4446636 0.2477635 0.00120713)
(0.4203666 0.247044 0.0013591)
(0.4735098 0.1616586 -0.01367914)
(0.4470065 0.2678309 0.001853873)
(0.4864956 0.2646193 0.0003378806)
(0.4399591 0.2633344 -2.897733e-05)
(0.4434164 0.2624749 0.000994461)
(0.4188139 0.2612178 0.001180643)
(0.4714901 0.1714842 -0.01410699)
(0.4437386 0.2816431 0.001190359)
(0.4853632 0.2793474 0.0001305259)