/*--------------------------------*- C++ -*----------------------------------*\
  =========                 |
  \\      /  F ield         | OpenFOAM: The Open Source CFD Toolbox
   \\    /   O peration     | Website:  https://openfoam.org
    \\  /    A nd           | Version:  7
     \\/     M anipulation  |
\*---------------------------------------------------------------------------*/
FoamFile
{
    version     2.0;
    format      ascii;
    class       volScalarField;
    location    "0.04";
    object      k;
}
// * * * * * * * * * * * * * * * * * * * * * * * * * * * * * * * * * * * * * //

dimensions      [0 2 -2 0 0 0 0];

internalField   nonuniform List<scalar> 
109978
(
0.00374244
0.003744833
0.003744178
0.003743753
0.003743292
0.003742828
0.003742367
0.003745302
0.003744467
0.003743998
0.003743483
0.003742979
0.003742296
0.003745399
0.003744527
0.003744042
0.003743519
0.003743011
0.003742392
0.003745435
0.003744581
0.003744091
0.003743564
0.003743055
0.003742542
0.003745493
0.003744633
0.00374414
0.003743614
0.003743104
0.00374271
0.003745561
0.003744701
0.003744204
0.003743676
0.003743167
0.003742861
0.003745644
0.003744787
0.003744283
0.003743756
0.003743247
0.003743072
0.003745746
0.003744889
0.003744378
0.00374385
0.00374334
0.0037433
0.003745875
0.003745007
0.003744489
0.003743958
0.003743447
0.003743513
0.003746018
0.003745134
0.003744613
0.003744081
0.003743569
0.00374371
0.003746172
0.003745274
0.003744748
0.003744212
0.003743698
0.003743908
0.003746338
0.003745424
0.003744897
0.003744361
0.003743845
0.003744112
0.003746522
0.00374559
0.003745062
0.003744523
0.003744005
0.003744319
0.003746706
0.003745773
0.003745241
0.0037447
0.003744179
0.003744532
0.003746902
0.00374597
0.003745435
0.00374489
0.003744365
0.003744751
0.003747111
0.00374618
0.003745642
0.003745093
0.003744565
0.00374498
0.003747336
0.003746404
0.003745862
0.003745309
0.003744777
0.003745223
0.003747575
0.003746643
0.003746096
0.003745538
0.003745001
0.003745482
0.00374783
0.003746897
0.003746345
0.003745781
0.003745239
0.003745748
0.003748099
0.003747166
0.003746609
0.003746038
0.003745491
0.003746033
0.003748383
0.00374745
0.003746887
0.00374631
0.003745755
0.003746332
0.003748686
0.003747751
0.003747182
0.003746596
0.003746034
0.003609044
0.003749018
0.00374807
0.003747492
0.003746898
0.003746328
0.003742047
0.003744734
0.00374402
0.003743545
0.003743035
0.003742533
0.003615318
0.003607893
0.00360677
0.003606735
0.003606705
0.003606706
0.003613743
0.003607134
0.003606789
0.003606721
0.0036067
0.003606703
0.003613202
0.003607065
0.003606789
0.003606718
0.003606707
0.003606709
0.00361312
0.003607123
0.003606789
0.003606724
0.003606715
0.003606716
0.003613166
0.003607192
0.003606788
0.003606732
0.003606723
0.003606724
0.00361343
0.003607215
0.003606785
0.003606741
0.003606731
0.003606732
0.003613084
0.003607144
0.003606784
0.003606749
0.00360674
0.003606741
0.003612669
0.003607083
0.003606785
0.003606758
0.00360675
0.00360675
0.003612746
0.003607033
0.003606791
0.003606765
0.003606759
0.003606758
0.003612849
0.003607016
0.003606799
0.003606773
0.003606767
0.003606766
0.003612951
0.003607011
0.003606807
0.003606781
0.003606776
0.003606775
0.003613072
0.003607013
0.003606816
0.00360679
0.003606785
0.003606784
0.00361321
0.003607015
0.003606825
0.003606799
0.003606794
0.003606792
0.0036133
0.003607021
0.003606834
0.003606808
0.003606803
0.003606801
0.003613397
0.003607029
0.003606844
0.003606817
0.003606812
0.00360681
0.003613531
0.003607038
0.003606854
0.003606827
0.003606821
0.003606819
0.003613652
0.00360705
0.003606864
0.003606836
0.00360683
0.003606828
0.003613773
0.003607061
0.003606874
0.003606846
0.003606839
0.003606838
0.003613889
0.003607074
0.003606885
0.003606856
0.003606849
0.003606847
0.003614008
0.003607087
0.003606896
0.003606866
0.003606858
0.003606857
0.003614112
0.003607105
0.003606907
0.003606876
0.003606868
0.003606867
0.003614224
0.003607125
0.003606919
0.003606886
0.003606878
0.003606877
0.003613269
0.003607148
0.003606931
0.003606897
0.003606888
0.003606887
0.003741984
0.003745505
0.003744565
0.003744059
0.003743541
0.003743027
0.003614881
0.003607321
0.003606779
0.0036067
0.003606689
0.003606692
0.003615808
0.003607118
0.003606768
0.003606739
0.003606693
0.003606696
0.00361285
0.003607109
0.003606749
0.003606724
0.003606699
0.003606701
0.003613848
0.003607143
0.003606738
0.003606754
0.003606706
0.003606712
0.003613206
0.003607092
0.003606744
0.003606754
0.003606715
0.00360672
0.003613012
0.003607044
0.003606751
0.003606762
0.003606723
0.003606727
0.003612858
0.003607
0.003606759
0.003606762
0.003606732
0.003606735
0.003612743
0.003606966
0.003606767
0.00360676
0.003606739
0.003606742
0.003612667
0.003606961
0.003606772
0.003606765
0.003606747
0.003606749
0.003612783
0.00360696
0.003606779
0.003606771
0.003606756
0.003606757
0.003612805
0.003606958
0.003606788
0.003606777
0.003606764
0.003606765
0.003612848
0.003606962
0.003606797
0.003606786
0.003606772
0.003606774
0.003612896
0.003606969
0.003606807
0.003606797
0.003606781
0.003606782
0.003612955
0.003606978
0.003606817
0.00360681
0.00360679
0.003606792
0.003612998
0.003606988
0.003606827
0.00360682
0.003606799
0.003606801
0.00361304
0.003606997
0.003606837
0.003606831
0.003606808
0.00360681
0.003613107
0.003607006
0.003606847
0.003606841
0.003606817
0.003606819
0.003613171
0.003607016
0.003606857
0.00360685
0.003606827
0.003606828
0.003613236
0.003607025
0.003606867
0.003606858
0.003606836
0.003606838
0.003613301
0.003607036
0.003606878
0.003606867
0.003606846
0.003606848
0.003613372
0.003607046
0.003606889
0.003606878
0.003606855
0.003606858
0.003613468
0.003607057
0.0036069
0.003606889
0.003606865
0.003606868
0.003613588
0.003607067
0.003606912
0.0036069
0.003606875
0.003606878
0.003741388
0.003745655
0.00374469
0.003744075
0.003743556
0.003743021
0.003612555
0.003607176
0.003606775
0.003606683
0.003606684
0.003606688
0.003614002
0.003607432
0.003606719
0.003606776
0.003606692
0.003606697
0.003613121
0.003607137
0.003606727
0.003606721
0.003606701
0.003606701
0.003612487
0.003606995
0.003606725
0.003606727
0.003606707
0.003606711
0.00361242
0.003606959
0.00360673
0.003606723
0.003606715
0.003606716
0.003612426
0.003606942
0.003606738
0.003606729
0.003606722
0.003606722
0.00361252
0.00360693
0.003606745
0.003606737
0.003606731
0.00360673
0.003612508
0.003606934
0.003606752
0.003606746
0.003606739
0.003606739
0.003612528
0.003606946
0.003606761
0.003606756
0.003606748
0.003606747
0.003612664
0.003606954
0.003606769
0.003606763
0.003606756
0.003606755
0.003612687
0.003606968
0.003606778
0.003606773
0.003606764
0.003606763
0.003612742
0.00360697
0.003606786
0.003606782
0.003606773
0.003606772
0.003612816
0.003606965
0.003606794
0.003606789
0.003606782
0.00360678
0.003612963
0.00360697
0.003606803
0.003606796
0.00360679
0.003606789
0.003613134
0.003606977
0.003606812
0.003606805
0.003606799
0.003606798
0.003613231
0.003606985
0.003606822
0.003606814
0.003606807
0.003606807
0.003613266
0.003606994
0.003606831
0.003606823
0.003606816
0.003606816
0.003613306
0.003607003
0.003606841
0.003606832
0.003606825
0.003606825
0.003613393
0.003607013
0.003606851
0.003606842
0.003606835
0.003606834
0.003613481
0.003607024
0.003606862
0.003606853
0.003606845
0.003606845
0.003613569
0.003607034
0.003606871
0.003606864
0.003606855
0.003606855
0.00361368
0.003607044
0.003606882
0.003606873
0.003606864
0.003606865
0.003613828
0.003607054
0.003606892
0.003606883
0.003606874
0.003606875
0.00374137
0.003745659
0.003744737
0.003744182
0.003743584
0.003743037
0.003612455
0.003607137
0.003606771
0.003606684
0.003606682
0.003606686
0.003617715
0.00360742
0.003606721
0.003606775
0.003606691
0.003606698
0.003613083
0.003607079
0.003606733
0.003606727
0.003606705
0.003606702
0.003612385
0.003606933
0.003606728
0.003606729
0.003606707
0.003606712
0.003612306
0.003606913
0.003606732
0.003606729
0.003606716
0.003606717
0.003612345
0.003606913
0.003606738
0.003606739
0.003606721
0.003606725
0.00361241
0.003606919
0.003606744
0.003606747
0.003606729
0.003606733
0.003612473
0.003606921
0.003606752
0.003606753
0.003606738
0.00360674
0.003612471
0.003606935
0.003606762
0.003606762
0.003606748
0.003606749
0.003612581
0.003606929
0.003606769
0.003606769
0.003606756
0.003606756
0.003612624
0.003606937
0.003606777
0.003606776
0.003606763
0.003606764
0.003612746
0.003606959
0.003606787
0.003606789
0.003606773
0.003606774
0.003613008
0.003606987
0.003606798
0.003606806
0.003606782
0.003606784
0.003613127
0.003607002
0.003606808
0.003606818
0.003606791
0.003606793
0.003613271
0.003607008
0.003606817
0.003606825
0.003606798
0.003606802
0.00361336
0.003607016
0.003606825
0.003606835
0.003606807
0.00360681
0.003613411
0.003607025
0.003606834
0.003606843
0.003606816
0.003606819
0.00361346
0.00360703
0.003606843
0.00360685
0.003606825
0.003606828
0.003613516
0.003607036
0.003606852
0.003606857
0.003606835
0.003606837
0.003613591
0.003607042
0.003606861
0.003606864
0.003606844
0.003606846
0.003613684
0.003607049
0.003606871
0.003606872
0.003606853
0.003606856
0.003613797
0.003607055
0.00360688
0.003606881
0.003606862
0.003606866
0.003613941
0.003607063
0.00360689
0.003606892
0.003606872
0.003606876
0.003741375
0.00374566
0.003744672
0.003744089
0.003743529
0.003742987
0.003613033
0.003607134
0.003606772
0.003606684
0.003606682
0.003606686
0.003614829
0.003607425
0.003606721
0.003606775
0.003606691
0.003606698
0.003613775
0.003607077
0.003606733
0.003606727
0.003606705
0.003606703
0.003612354
0.003606933
0.003606728
0.003606729
0.003606707
0.003606712
0.003612293
0.003606913
0.003606732
0.003606729
0.003606716
0.003606717
0.003612323
0.003606914
0.003606738
0.003606739
0.003606721
0.003606725
0.003612379
0.003606919
0.003606745
0.003606747
0.003606729
0.003606733
0.003612442
0.003606921
0.003606752
0.003606753
0.003606738
0.00360674
0.003612467
0.003606935
0.003606762
0.003606762
0.003606748
0.003606749
0.003612597
0.003606929
0.00360677
0.003606769
0.003606756
0.003606756
0.00361261
0.003606937
0.003606777
0.003606776
0.003606764
0.003606764
0.003612747
0.003606959
0.003606788
0.00360679
0.003606773
0.003606774
0.003613041
0.003606987
0.003606798
0.003606806
0.003606782
0.003606784
0.003613423
0.003607002
0.003606808
0.003606818
0.003606791
0.003606793
0.003613548
0.003607008
0.003606817
0.003606825
0.003606799
0.003606802
0.003613613
0.003607016
0.003606825
0.003606835
0.003606807
0.00360681
0.003613645
0.003607025
0.003606834
0.003606843
0.003606816
0.003606819
0.003613679
0.00360703
0.003606843
0.00360685
0.003606825
0.003606828
0.003613709
0.003607036
0.003606853
0.003606857
0.003606835
0.003606837
0.003613773
0.003607042
0.003606862
0.003606864
0.003606844
0.003606846
0.003613876
0.003607048
0.003606871
0.003606872
0.003606853
0.003606856
0.003613966
0.003607055
0.003606881
0.003606881
0.003606862
0.003606866
0.003614044
0.003607062
0.003606891
0.003606892
0.003606872
0.003606876
0.003741766
0.003745665
0.003744619
0.003744071
0.003743512
0.003742978
0.003612386
0.003607172
0.003606776
0.003606683
0.003606684
0.003606688
0.003617112
0.003607432
0.003606719
0.003606776
0.003606692
0.003606697
0.003612859
0.003607136
0.003606726
0.003606721
0.003606701
0.003606701
0.003612401
0.003606994
0.003606725
0.003606726
0.003606707
0.003606711
0.003612395
0.003606958
0.003606731
0.003606723
0.003606715
0.003606716
0.003612366
0.003606942
0.003606739
0.003606729
0.003606722
0.003606722
0.003612499
0.003606929
0.003606746
0.003606738
0.003606731
0.00360673
0.003612499
0.003606933
0.003606753
0.003606746
0.00360674
0.003606739
0.003612539
0.003606946
0.003606763
0.003606757
0.003606748
0.003606747
0.003612622
0.003606953
0.003606771
0.003606764
0.003606757
0.003606755
0.003612629
0.003606968
0.003606779
0.003606773
0.003606765
0.003606763
0.00361277
0.00360697
0.003606788
0.003606783
0.003606773
0.003606772
0.003612928
0.003606965
0.003606796
0.003606789
0.003606782
0.00360678
0.003613104
0.003606969
0.003606805
0.003606797
0.003606791
0.003606789
0.003613256
0.003606976
0.003606814
0.003606806
0.003606799
0.003606798
0.003613342
0.003606984
0.003606824
0.003606815
0.003606808
0.003606807
0.003613405
0.003606993
0.003606833
0.003606823
0.003606817
0.003606816
0.003613459
0.003607002
0.003606843
0.003606833
0.003606826
0.003606825
0.003613528
0.003607012
0.003606854
0.003606843
0.003606836
0.003606835
0.003613606
0.003607023
0.003606864
0.003606854
0.003606846
0.003606845
0.003613686
0.003607033
0.003606874
0.003606864
0.003606855
0.003606855
0.003613798
0.003607043
0.003606884
0.003606874
0.003606865
0.003606864
0.003613939
0.003607053
0.003606894
0.003606883
0.003606874
0.003606874
0.003741897
0.003745561
0.003744549
0.003744127
0.003743545
0.003743016
0.003613606
0.003607312
0.003606784
0.0036067
0.00360669
0.003606692
0.003615559
0.003607115
0.00360677
0.003606738
0.003606692
0.003606695
0.00361497
0.003607106
0.003606751
0.003606723
0.003606699
0.003606701
0.003612815
0.00360714
0.00360674
0.003606754
0.003606706
0.003606712
0.003612576
0.003607089
0.003606747
0.003606754
0.003606715
0.003606719
0.003612557
0.003607042
0.003606755
0.003606762
0.003606723
0.003606727
0.00361256
0.003606997
0.003606762
0.003606762
0.003606732
0.003606735
0.003612484
0.003606964
0.00360677
0.00360676
0.00360674
0.003606742
0.003612516
0.003606959
0.003606776
0.003606765
0.003606748
0.003606749
0.003612625
0.003606959
0.003606783
0.003606771
0.003606756
0.003606757
0.003612676
0.003606956
0.003606792
0.003606777
0.003606764
0.003606765
0.00361276
0.00360696
0.003606801
0.003606786
0.003606773
0.003606774
0.003612876
0.003606967
0.003606811
0.003606797
0.003606781
0.003606782
0.003613016
0.003606976
0.003606821
0.00360681
0.003606791
0.003606792
0.003613129
0.003606985
0.003606831
0.00360682
0.0036068
0.003606801
0.003613191
0.003606995
0.003606841
0.003606831
0.003606809
0.00360681
0.003613253
0.003607004
0.003606851
0.003606841
0.003606818
0.003606819
0.003613307
0.003607013
0.003606862
0.00360685
0.003606827
0.003606828
0.003613374
0.003607022
0.003606872
0.003606858
0.003606837
0.003606838
0.003613452
0.003607033
0.003606884
0.003606867
0.003606846
0.003606848
0.003613543
0.003607043
0.003606895
0.003606877
0.003606856
0.003606858
0.003613656
0.003607053
0.003606906
0.003606888
0.003606865
0.003606868
0.003613794
0.003607064
0.003606917
0.0036069
0.003606875
0.003606879
0.003742068
0.003745515
0.00374438
0.003744052
0.003743426
0.00374291
0.003617084
0.003607886
0.00360677
0.003606735
0.003606705
0.003606705
0.003614542
0.003607126
0.003606789
0.003606718
0.0036067
0.003606703
0.003614164
0.003607056
0.003606789
0.003606716
0.003606707
0.003606709
0.003613755
0.003607114
0.003606789
0.003606722
0.003606714
0.003606715
0.003613446
0.003607184
0.003606787
0.003606731
0.003606723
0.003606723
0.003613273
0.003607209
0.003606785
0.00360674
0.003606731
0.003606732
0.003613088
0.003607139
0.003606783
0.003606748
0.00360674
0.003606741
0.003612837
0.003607079
0.003606785
0.003606757
0.003606749
0.003606749
0.003612707
0.00360703
0.003606791
0.003606764
0.003606758
0.003606758
0.003612783
0.003607012
0.003606799
0.003606772
0.003606767
0.003606766
0.003612763
0.003607008
0.003606807
0.003606781
0.003606776
0.003606775
0.003612784
0.003607009
0.003606816
0.00360679
0.003606785
0.003606783
0.003612777
0.003607011
0.003606825
0.003606798
0.003606794
0.003606792
0.003612855
0.003607017
0.003606834
0.003606808
0.003606802
0.003606801
0.00361293
0.003607025
0.003606844
0.003606817
0.003606811
0.00360681
0.003612986
0.003607034
0.003606854
0.003606826
0.003606821
0.003606819
0.003613055
0.003607045
0.003606864
0.003606836
0.00360683
0.003606828
0.003613121
0.003607057
0.003606874
0.003606845
0.003606839
0.003606837
0.003613184
0.003607069
0.003606885
0.003606855
0.003606849
0.003606847
0.003613255
0.003607082
0.003606895
0.003606865
0.003606858
0.003606857
0.003613333
0.003607099
0.003606907
0.003606875
0.003606868
0.003606866
0.003613431
0.00360712
0.003606918
0.003606886
0.003606877
0.003606877
0.003613269
0.003607142
0.00360693
0.003606896
0.003606887
0.003606886
0.003748274
0.00375695
0.003753795
0.003752376
0.003750102
0.003748117
0.003631566
0.003608163
0.003607873
0.003607651
0.003607679
0.003607621
0.003607594
0.003677196
0.003609192
0.003607833
0.003607586
0.003607625
0.003607565
0.003607543
0.003650787
0.003609435
0.003607899
0.003607614
0.003607655
0.003607587
0.003607563
0.003640171
0.003609384
0.003607928
0.00360764
0.003607681
0.003607612
0.003607588
0.003633137
0.003609278
0.003607957
0.003607671
0.003607712
0.003607641
0.003607616
0.003629071
0.003609184
0.003607977
0.0036077
0.003607735
0.003607668
0.003607642
0.003627257
0.003609068
0.003607993
0.00360773
0.003607758
0.003607695
0.003607668
0.003629752
0.00360896
0.003608011
0.003607761
0.003607781
0.00360772
0.003607691
0.00363004
0.003608906
0.003608034
0.003607792
0.003607805
0.003607745
0.003607716
0.003630487
0.003608899
0.00360806
0.003607822
0.003607831
0.00360777
0.003607742
0.00363197
0.003608875
0.003608091
0.003607851
0.003607859
0.003607799
0.00360777
0.003633239
0.003608848
0.003608124
0.00360788
0.003607888
0.003607827
0.003607798
0.003634547
0.003608835
0.003608157
0.00360791
0.003607917
0.003607856
0.003607827
0.003636077
0.003608854
0.003608192
0.00360794
0.003607947
0.003607885
0.003607855
0.003637703
0.003608877
0.003608226
0.003607971
0.003607978
0.003607915
0.003607884
0.003639017
0.003608888
0.003608261
0.003608002
0.003608009
0.003607945
0.003607913
0.00364036
0.003608905
0.003608296
0.003608033
0.00360804
0.003607975
0.003607943
0.003642044
0.003608933
0.003608332
0.003608064
0.003608071
0.003608006
0.003607972
0.003644155
0.00360896
0.003608368
0.003608096
0.003608103
0.003608036
0.003608002
0.003646373
0.003608985
0.003608405
0.003608127
0.003608136
0.003608067
0.003608032
0.003648734
0.00360902
0.003608442
0.003608159
0.003608168
0.003608097
0.003608061
0.003651476
0.003609058
0.003608481
0.00360819
0.0036082
0.003608128
0.003608091
0.003654526
0.003745578
0.003608518
0.003608222
0.003608232
0.003608157
0.00360812
0.0037475
0.003755432
0.00362956
0.00361176
0.00374444
0.003744265
0.003631408
0.003614585
0.003692411
0.003618529
0.003745044
0.003742882
0.003677179
0.003618222
0.003624319
0.003618684
0.003745024
0.003742757
0.003650741
0.003617349
0.003624856
0.003617361
0.003744826
0.003742571
0.003640106
0.00361605
0.003625903
0.003616282
0.00374494
0.003742499
0.003633066
0.003615221
0.003627924
0.003615207
0.003745289
0.003742512
0.00362899
0.003614299
0.003630614
0.003614376
0.00374556
0.00374258
0.003627174
0.003613658
0.003632582
0.003613701
0.003745948
0.003742734
0.003629687
0.00361289
0.003635571
0.003612647
0.003746453
0.003742933
0.003629967
0.003612039
0.003636901
0.003612028
0.003747049
0.003743176
0.003630412
0.003611456
0.003638807
0.003611599
0.003747645
0.003743468
0.003631892
0.003610925
0.003640643
0.003611401
0.003748231
0.003743791
0.003633152
0.003610482
0.003642629
0.003611259
0.003748839
0.003744152
0.003634463
0.003610253
0.003644661
0.003611119
0.003749498
0.003744553
0.003635973
0.003610048
0.003646588
0.003611019
0.003750205
0.00374497
0.003637588
0.003609879
0.003648694
0.00361097
0.003750908
0.003745424
0.003638911
0.003609775
0.003650841
0.003610939
0.00375162
0.003745926
0.003640239
0.003609653
0.003653099
0.003610916
0.003752355
0.003746485
0.003641927
0.003609528
0.003655548
0.00361089
0.003753123
0.00374709
0.003644026
0.003609413
0.003658141
0.003610856
0.00375392
0.003747745
0.003646244
0.003609337
0.003660942
0.003610808
0.003754752
0.003748446
0.003648603
0.003609256
0.003663677
0.003610753
0.003755625
0.003749198
0.003651352
0.003609178
0.003666613
0.003610699
0.003756534
0.003611322
0.0036544
0.003609121
0.003669474
0.003610641
0.00374553
0.003632771
0.003612698
0.003746149
0.00367856
0.00361696
0.003746961
0.003626128
0.003614448
0.003745945
0.003668835
0.003614664
0.003744927
0.003623893
0.003614097
0.00374531
0.003653162
0.003613531
0.00374449
0.003624958
0.003613165
0.003744937
0.003628603
0.003613787
0.003744749
0.003661358
0.003615119
0.003745262
0.00362397
0.003613532
0.003745599
0.003655409
0.003613633
0.003745401
0.003623923
0.003613937
0.003745857
0.003670146
0.003614405
0.003746858
0.003625837
0.00361429
0.003746416
0.003678315
0.003616974
0.003745477
0.003633102
0.003612666
0.003755558
0.003629511
0.003611757
0.003747515
0.003755223
0.003607168
0.003607488
0.003746832
0.0037485
0.00375324
0.003607391
0.00360714
0.003749773
0.003746897
0.003751931
0.00360717
0.003607155
0.003747971
0.003746042
0.003749846
0.003607176
0.003607108
0.003746825
0.003744614
0.003747922
0.003607136
0.003607095
0.003745434
0.003743403
0.003607114
0.003744161
0.003614589
0.003692431
0.003618534
0.003744442
0.003744268
0.003618224
0.003624326
0.003618685
0.003745046
0.003742881
0.003617346
0.003624858
0.00361736
0.003745024
0.003742757
0.003615252
0.003627927
0.003615207
0.003744945
0.0037425
0.003614296
0.003630612
0.003614375
0.003745289
0.003742513
0.003613655
0.003632581
0.003613702
0.003745561
0.00374258
0.003612891
0.003635572
0.003612649
0.003745952
0.003742734
0.003612042
0.003636896
0.003612029
0.003746457
0.003742932
0.003611459
0.003638802
0.003611599
0.00374705
0.003743176
0.003610926
0.003640638
0.003611401
0.003747648
0.003743468
0.003610485
0.003642623
0.00361126
0.003748231
0.00374379
0.003610143
0.003646592
0.003611022
0.003749508
0.003744552
0.00360988
0.003648697
0.00361097
0.003750206
0.00374497
0.003609774
0.003650846
0.003610938
0.003750909
0.003745424
0.003609652
0.003653104
0.003610916
0.003751622
0.003745926
0.003609526
0.00365555
0.003610891
0.003752357
0.003746487
0.003609416
0.003658142
0.003610857
0.003753127
0.003747089
0.003609335
0.003660962
0.003610809
0.003753922
0.003747745
0.003609256
0.003663702
0.003610754
0.003754756
0.003748448
0.003609179
0.00366666
0.003610701
0.00375563
0.003749202
0.003609122
0.003669525
0.003610648
0.003756541
0.00361132
0.003626673
0.003752426
0.003620795
0.003739384
0.003613144
0.003736066
0.003614585
0.003741821
0.003616762
0.003743079
0.003613966
0.00374367
0.003613249
0.003743595
0.003613484
0.003746773
0.003612413
0.003744275
0.003612668
0.003749531
0.003611904
0.003745254
0.003609769
0.003751789
0.003611862
0.003746012
0.00360962
0.003752975
0.003612066
0.0037459
0.003609509
0.003753438
0.003612013
0.003744992
0.003609364
0.003754394
0.003611568
0.00374394
0.003609346
0.003755804
0.003610587
0.003743456
0.00360949
0.003757037
0.003610119
0.003743502
0.003609608
0.003758046
0.003610008
0.003743896
0.003609657
0.003759082
0.003610049
0.003744469
0.003609645
0.003760077
0.003610116
0.003745341
0.003609638
0.003761091
0.003610227
0.003746289
0.003609665
0.003762014
0.003610399
0.003747455
0.003609799
0.003762848
0.003610726
0.003748945
0.003610028
0.00376364
0.003611142
0.003750508
0.003610319
0.003764467
0.003611598
0.003752198
0.003610638
0.003765535
0.003612094
0.003753946
0.003610966
0.003766953
0.003612608
0.003755763
0.003611329
0.003768684
0.003613083
0.003757702
0.003611735
0.003770651
0.003613542
0.003759726
0.003625756
0.0036178
0.003636797
0.003638534
0.003646289
0.003644193
0.003649444
0.003639998
0.003646876
0.00364226
0.003649356
0.003644723
0.00364884
0.003642909
0.003631838
0.00362945
0.003615677
0.003630276
0.003616046
0.003625906
0.003616282
0.003744824
0.003742571
0.003610252
0.003644657
0.00361112
0.00374884
0.003744152
0.003612386
0.003734482
0.003622531
0.003729587
0.00361549
0.003629952
0.003624214
0.003740987
0.003615035
0.003731921
0.0036141
0.003743516
0.00361384
0.003744452
0.003612779
0.003743903
0.003613686
0.003746047
0.003611921
0.003744898
0.003613541
0.003748306
0.003611544
0.003745878
0.003610836
0.003751563
0.003611628
0.003746056
0.003609629
0.00375322
0.003612039
0.003745046
0.003609564
0.003753568
0.003611851
0.003744023
0.00360941
0.003754212
0.003611259
0.003743413
0.003610255
0.003755322
0.00361029
0.003743057
0.003609731
0.00375686
0.003610091
0.003743276
0.003609656
0.003757937
0.003610075
0.003743707
0.003609606
0.003758902
0.003610136
0.003744455
0.003609583
0.003759797
0.00361015
0.003745275
0.003609572
0.00376068
0.003610177
0.003746372
0.003609669
0.003761476
0.003610269
0.00374762
0.003609863
0.003762112
0.003610427
0.003749116
0.003610144
0.003762753
0.003610671
0.003750778
0.003610448
0.003763443
0.00361104
0.003752584
0.003610773
0.003764253
0.00361144
0.003754415
0.003611107
0.003765276
0.003611823
0.00375632
0.003611425
0.003766634
0.003612216
0.003758338
0.003611736
0.00376827
0.003612638
0.003620671
0.003770068
0.003612023
0.003632209
0.003628262
0.00364415
0.003642811
0.003649234
0.003649418
0.003642306
0.003645589
0.003649898
0.003648938
0.003644433
0.003646655
0.003636025
0.003640658
0.003625858
0.003618101
0.00362619
0.003753014
0.003619161
0.003759694
0.003612961
0.003746191
0.003612348
0.003734409
0.003622587
0.003730142
0.003609319
0.003761781
0.003608983
0.003756794
0.003608854
0.003759266
0.003609218
0.003759376
0.003609002
0.003763036
0.003608804
0.003757167
0.003608882
0.003756966
0.003608588
0.003759488
0.003608938
0.003760078
0.003608822
0.003754463
0.003608811
0.003754389
0.003608517
0.003756689
0.003608862
0.003757418
0.003608769
0.003751765
0.003608742
0.003751506
0.003608434
0.003753849
0.003608789
0.003754314
0.003608696
0.003748916
0.003608664
0.00374873
0.003608368
0.003750871
0.00360872
0.003751371
0.003608629
0.003620793
0.003739384
0.003613149
0.00373607
0.003624207
0.003740976
0.003615038
0.003731931
0.003614587
0.003741813
0.003616715
0.003743073
0.003614099
0.003743517
0.003613842
0.003744449
0.003613965
0.003743663
0.00361321
0.003743594
0.003612778
0.003743919
0.003613691
0.00374605
0.003612668
0.003749537
0.003611901
0.003745255
0.003611544
0.003745878
0.00361084
0.003751563
0.00360977
0.003751787
0.003611784
0.003746016
0.003611628
0.00374606
0.00360963
0.003753226
0.003609618
0.003752975
0.003611974
0.003745903
0.003612039
0.00374505
0.003609565
0.003753573
0.003609352
0.003755814
0.003610576
0.003743461
0.003610289
0.003743055
0.003609731
0.003756861
0.00360961
0.003758056
0.003610001
0.003743909
0.003610078
0.003743709
0.003609606
0.003758905
0.003609644
0.003760083
0.003610114
0.003745346
0.003610152
0.003745279
0.003609575
0.003760683
0.003609634
0.00376108
0.003610006
0.003746293
0.003610179
0.003746375
0.003609671
0.003761474
0.00360966
0.003762002
0.003610164
0.003747462
0.00361027
0.003747625
0.003609865
0.003762116
0.003609793
0.003762848
0.003610481
0.003748947
0.003610428
0.003749119
0.003610146
0.003762751
0.003610023
0.003763637
0.003610882
0.003750516
0.003610637
0.00376554
0.003612097
0.003753952
0.003611443
0.003754419
0.00361111
0.003765281
0.003610959
0.00376699
0.003612312
0.00375577
0.003611829
0.003756324
0.003611428
0.003766646
0.003611321
0.003768735
0.003612776
0.003757713
0.003612222
0.00375835
0.00361174
0.003768287
0.003611725
0.003770717
0.003613221
0.003759743
0.003612647
0.003773878
0.00377008
0.003612039
0.003708834
0.003745279
0.003746827
0.003748501
0.0037482
0.00375522
0.003607169
0.003607488
0.003746673
0.003734551
0.003745892
0.003731409
0.003748232
0.003746751
0.003741198
0.003756263
0.00374883
0.003733813
0.003753375
0.003743866
0.003748029
0.003729174
0.003731074
0.003746997
0.003753382
0.003741612
0.003619302
0.003759686
0.003612944
0.003745876
0.003751994
0.00373601
0.003733987
0.003730402
0.003744087
0.003730673
0.003730342
0.00374974
0.003743591
0.003740057
0.003742585
0.003730332
0.003731872
0.003742561
0.003750828
0.003731873
0.003743389
0.003733484
0.003710892
0.003745779
0.003748231
0.003747905
0.003748454
0.003747238
0.003709075
0.003714819
0.003675243
0.003719561
0.00374663
0.003748398
0.003746984
0.003748994
0.003744159
0.003746489
0.003746287
0.00374481
0.003744533
0.003747107
0.003744985
0.003747161
0.003742048
0.00374447
0.003742651
0.003744235
0.00374251
0.003745042
0.003742836
0.003745137
0.003739821
0.003742084
0.003741899
0.003740493
0.003740103
0.003742616
0.00374054
0.003742713
0.003737811
0.00374035
0.003738275
0.003740452
0.003669704
0.003717558
0.003698432
0.00367439
0.003696897
0.003704969
0.003679412
0.00372281
0.003677259
0.003727777
0.00370523
0.003690112
0.003674581
0.003712177
0.003671479
0.003730954
0.003671649
0.003735574
0.003714835
0.003664151
0.00365254
0.003721583
0.003667324
0.003739535
0.003656416
0.003745268
0.003634785
0.003730167
0.003632027
0.003732984
0.003648487
0.003746795
0.003646601
0.003746305
0.00373377
0.003634191
0.003634841
0.003738315
0.003640173
0.003746963
0.003609504
0.003753433
0.003611894
0.003745
0.003609478
0.003757018
0.003609956
0.003743515
0.003610082
0.003743298
0.003609651
0.003757927
0.003654825
0.003750734
0.003747261
0.003661424
0.00365657
0.003747612
0.003659162
0.003750722
0.003658804
0.003751134
0.003747897
0.003666566
0.003660731
0.00374808
0.003662991
0.003751111
0.003663164
0.003751549
0.003748375
0.003671977
0.003667877
0.003751975
0.003748859
0.00367752
0.003610668
0.00375079
0.003610441
0.003763448
0.003610299
0.003764504
0.003611319
0.003752208
0.003611031
0.00375259
0.003610769
0.003764285
0.00367758
0.003752939
0.00374985
0.003688892
0.003682323
0.003753481
0.003750393
0.003694697
0.003760278
0.003749114
0.003748736
0.003767834
0.003697842
0.003715935
0.003687024
0.003745263
0.003749227
0.003730237
0.003731945
0.003749369
0.003735713
0.003751187
0.003728435
0.003748889
0.003734309
0.003728612
0.003739776
0.003728392
0.003732417
0.003731538
0.003753848
0.003737796
0.003747619
0.003734495
0.003726377
0.003746172
0.003746811
0.003612366
0.003744263
0.003613422
0.0037449
0.003613604
0.003748324
0.003611916
0.003759069
0.003609863
0.003744484
0.003609465
0.003727182
0.003748801
0.003752198
0.00373391
0.003754777
0.003732053
0.003749203
0.003732017
0.003754331
0.003742567
0.003732391
0.003747852
0.003733338
0.00374842
0.003733935
0.003740403
0.003737606
0.003750869
0.003748853
0.003729259
0.003759751
0.003749046
0.003767711
0.003747901
0.00369783
0.003720193
0.003735703
0.003688249
0.003745717
0.003747416
0.003746345
0.003746861
0.003745461
0.003747038
0.003745751