/*--------------------------------*- C++ -*----------------------------------*\
  =========                 |
  \\      /  F ield         | OpenFOAM: The Open Source CFD Toolbox
   \\    /   O peration     | Website:  https://openfoam.org
    \\  /    A nd           | Version:  7
     \\/     M anipulation  |
\*---------------------------------------------------------------------------*/
FoamFile
{
    version     2.0;
    format      ascii;
    class       volScalarField;
    location    "0.04";
    object      nut;
}
// * * * * * * * * * * * * * * * * * * * * * * * * * * * * * * * * * * * * * //

dimensions      [0 2 -1 0 0 0 0];

internalField   nonuniform List<scalar> 
77997
(
0.0005965687
0.0005696404
0.0005657576
0.0005649671
0.0005648517
0.0005648373
0.0005648389
0.0005648482
0.0005648547
0.0005965491
0.001303503
0.001274301
0.001264167
0.00126177
0.001261212
0.001261109
0.001261166
0.00126126
0.0005696826
0.001276447
0.001249095
0.001239387
0.001237105
0.001236599
0.001236516
0.001236577
0.001236657
0.0005662377
0.001276754
0.001254111
0.001246221
0.001244491
0.001244135
0.001244089
0.001244172
0.00124427
0.0005669917
0.001302275
0.001294752
0.001289884
0.00128875
0.001288414
0.001288333
0.001288445
0.001288597
0.0005791248
0.000600633
0.0005881969
0.0005862501
0.0005860245
0.0005859924
0.0005859763
0.0005860357
0.0005861602
0.0005862504
0.0002395096
0.0002752704
0.0002745423
0.0002744753
0.0002744522
0.0002744274
0.000274509
0.0002743795
0.0002738442
0.0002744441
0.0003181268
0.0003171466
0.0003170894
0.0003171121
0.0003171458
0.0003171898
0.0003172429
0.0003173135
0.0003174426
0.001351349
0.001323739
0.001314187
0.001311853
0.001311258
0.001311158
0.001311264
0.001311452
0.001311617
0.001316203
0.001263183
0.001247284
0.001243088
0.00124192
0.001241636
0.001241714
0.001241924
0.001242104
0.001305451
0.001244976
0.001225226
0.001219781
0.001218174
0.001217738
0.001217795
0.001218035
0.001218247
0.001302775
0.001239936
0.001218808
0.001212683
0.001210781
0.001210232
0.001210268
0.001210533
0.001210774
0.001301984
0.001238367
0.001216699
0.001210244
0.001208165
0.001207539
0.001207561
0.001207843
0.001208103
0.001301669
0.001237755
0.001215847
0.001209227
0.001207052
0.001206382
0.001206393
0.001206683
0.001206953
0.00130152
0.001237481
0.001215467
0.001208767
0.00120654
0.001205845
0.001205848
0.001206144
0.001206417
0.00130143
0.001237336
0.001215271
0.001208532
0.001206279
0.001205573
0.001205576
0.001205873
0.001206146
0.001301361
0.001237243
0.001215155
0.001208398
0.001206134
0.001205424
0.001205426
0.001205724
0.001205995
0.001301302
0.001237171
0.001215072
0.001208307
0.001206038
0.001205327
0.00120533
0.001205629
0.001205899
0.001301246
0.001237107
0.001215004
0.001208235
0.001205963
0.001205253
0.001205258
0.001205557
0.001205827
0.001301188
0.001237046
0.00121494
0.00120817
0.001205898
0.00120519
0.001205196
0.001205497
0.001205766
0.00130113
0.001236986
0.001214879
0.001208109
0.001205838
0.001205131
0.001205139
0.001205442
0.001205711
0.001301073
0.001236932
0.001214828
0.00120806
0.001205792
0.001205085
0.001205095
0.001205399
0.00120567
0.001301024
0.001236893
0.001214799
0.00120804
0.001205777
0.001205075
0.001205088
0.001205394
0.001205665
0.001300991
0.001236889
0.001214821
0.001208082
0.001205833
0.001205137
0.001205152
0.001205457
0.00120573
0.000601071
0.001274093
0.001254633
0.001248814
0.001247914
0.001247769
0.001247648
0.001247563
0.0006010043
0.0001009437
0.0001009604
0.0001009599
0.0001009598
0.0001009597
0.0001009597
0.0001009597
0.0001009598
0.001273226
0.0001009605
0.0001009429
0.0001009428
0.0001009428
0.0001009428
0.0001009428
0.0001009428
0.0001009428
0.001260649
0.00010096
0.0001009427
0.0001009426
0.0001009426
0.0001009426
0.0001009426
0.0001009426
0.0001009426
0.001278062
0.0001009595
0.0001009425
0.0001009424
0.0001009424
0.0001009424
0.0001009424
0.0001009424
0.0001009424
0.0005963314
0.0001009402
0.0001009616
0.0001009614
0.0001009611
0.000100961
0.000100961
0.000100961
0.000100961
0.0006022942
0.0005351688
0.0005240446
0.0005216961
0.0005213714
0.0005213269
0.0005213346
0.0005213967
0.0005215056
0.0001009117
0.0001009105
0.0001009097
0.0001009096
0.0001009094
0.0001009092
0.0001009089
0.0001009087
0.0001009083
0.0006082563
0.0001009361
0.0001009358
0.0001009356
0.0001009355
0.0001009354
0.0001009353
0.0001009352
0.0001009351
0.000100935
0.0006034061
0.0001009355
0.0001009348
0.0001009347
0.0001009345
0.0001009344
0.0001009343
0.0001009341
0.000100934
0.0001009338
0.0006023088
0.0001009355
0.0001009349
0.0001009347
0.0001009346
0.0001009345
0.0001009343
0.0001009342
0.000100934
0.0001009338
0.0006020724
0.0001009357
0.000100935
0.0001009349
0.0001009348
0.0001009346
0.0001009345
0.0001009343
0.0001009341
0.0001009339
0.000601986
0.0001009358
0.0001009351
0.000100935
0.0001009349
0.0001009347
0.0001009346
0.0001009344
0.0001009341
0.0001009339
0.0006019242
0.000100936
0.0001009353
0.0001009351
0.000100935
0.0001009349
0.0001009347
0.0001009345
0.0001009342
0.000100934
0.0006018752
0.0001009362
0.0001009354
0.0001009353
0.0001009351
0.0001009351
0.0001009349
0.0001009349
0.0001009346
0.0001009343
0.0006018252
0.0001009364
0.0001009356
0.0001009354
0.0001009353
0.0001009351
0.000100935
0.000100935
0.0001009347
0.0001009344
0.0006017743
0.0001009366
0.0001009358
0.0001009356
0.0001009355
0.0001009353
0.0001009352
0.0001009351
0.0001009349
0.0001009346
0.0006017204
0.0001009368
0.000100936
0.0001009358
0.0001009357
0.0001009355
0.0001009353
0.0001009353
0.000100935
0.0001009347
0.0006016638
0.0001009371
0.0001009363
0.000100936
0.0001009359
0.0001009357
0.0001009354
0.0001009354
0.0001009352
0.0001009348
0.0006016046
0.0001009373
0.0001009365
0.0001009363
0.0001009361
0.0001009359
0.0001009356
0.0001009356
0.0001009354
0.000100935
0.0006015421
0.0001009376
0.0001009368
0.0001009365
0.0001009363
0.0001009361
0.0001009359
0.0001009358
0.0001009356
0.0001009352
0.000601478
0.0001009378
0.000100937
0.0001009368
0.0001009366
0.0001009364
0.0001009361
0.0001009361
0.0001009359
0.0001009355
0.0006014123
0.0001009381
0.0001009373
0.000100937
0.0001009368
0.0001009366
0.0001009364
0.0001009364
0.0001009362
0.0001009358
0.0001010507
0.0001009384
0.0001009376
0.0001009373
0.0001009371
0.0001009369
0.0001009368
0.0001009368
0.0001009366
0.0001009362
0.0006042119
0.00127475
0.001243188
0.001234635
0.001233267
0.001233063
0.001232859
0.001232702
0.0006040936
0.0001009269
0.0001009436
0.000100943
0.0001009428
0.0001009427
0.0001009427
0.0001009427
0.0001009428
0.001271993
0.0001009438
0.000100927
0.000100927
0.000100927
0.000100927
0.000100927
0.000100927
0.000100927
0.001250358
0.0001009432
0.000100927
0.000100927
0.000100927
0.000100927
0.000100927
0.000100927
0.000100927
0.001277669
0.000100943
0.0001009442
0.0001009429
0.0001009428
0.0001009429
0.0001009429
0.0001009429
0.0001009429
0.0005855545
0.000100962
0.001737066
0.001590225
0.001545869
0.001534632
0.001532157
0.001531916
0.001532108
0.0005387335
0.0001009105
0.0001009177
0.0001009177
0.0001009175
0.0001009173
0.0001009172
0.0001009171
0.0001009169
0.001299599
0.0001009364
0.000100919
0.000100919
0.0001009189
0.0001009188
0.0001009186
0.0001009185
0.0001009184
0.001272633
0.0001009358
0.0001009188
0.0001009188
0.0001009187
0.0001009186
0.0001009184
0.0001009183
0.0001009181
0.000100918
0.00126329
0.0001009357
0.0001009188
0.0001009188
0.0001009187
0.0001009185
0.0001009184
0.0001009182
0.000100918
0.0001009178
0.001260757
0.0001009359
0.0001009189
0.0001009188
0.0001009186
0.0001009185
0.0001009183
0.0001009181
0.0001009179
0.0001009177
0.001259933
0.000100936
0.000100919
0.0001009188
0.0001009187
0.0001009185
0.0001009183
0.0001009181
0.0001009179
0.0001009177
0.001259574
0.0001009362
0.0001009191
0.0001009189
0.0001009188
0.0001009186
0.0001009184
0.0001009181
0.0001009179
0.0001009177
0.001259394
0.0001009364
0.0001009192
0.0001009191
0.0001009189
0.0001009187
0.0001009184
0.0001009182
0.000100918
0.0001009177
0.001259283
0.0001009366
0.0001009194
0.0001009192
0.000100919
0.0001009188
0.0001009186
0.0001009183
0.0001009181
0.0001009178
0.001259204
0.0001009368
0.0001009196
0.0001009194
0.0001009192
0.000100919
0.0001009187
0.0001009185
0.0001009182
0.0001009179
0.001259137
0.000100937
0.0001009198
0.0001009196
0.0001009194
0.0001009191
0.0001009189
0.0001009186
0.0001009183
0.0001009181
0.001259077
0.0001009372
0.0001009201
0.0001009198
0.0001009196
0.0001009193
0.0001009191
0.0001009188
0.0001009185
0.0001009182
0.001259017
0.0001009375
0.0001009203
0.0001009201
0.0001009198
0.0001009196
0.0001009193
0.000100919
0.0001009187
0.0001009185
0.00125896
0.0001009378
0.0001009206
0.0001009203
0.0001009201
0.0001009198
0.0001009195
0.0001009192
0.000100919
0.0001009187
0.001258905
0.000100938
0.0001009208
0.0001009206
0.0001009203
0.00010092
0.0001009198
0.0001009195
0.0001009192
0.0001009189
0.001258855
0.0001009383
0.0001009211
0.0001009208
0.0001009206
0.0001009203
0.00010092
0.0001009197
0.0001009194
0.0001009192
0.001258821
0.0001009386
0.0001009214
0.0001009211
0.0001009208
0.0001009206
0.0001009203
0.00010092
0.0001009197
0.0001009194
0.0006040413
0.001273663
0.001240855
0.00123122
0.00122986
0.001229702
0.001229447
0.001229231
0.0006037893
0.0001009269
0.0001009434
0.0001009427
0.0001009424
0.0001009424
0.0001009424
0.0001009424
0.0001009424
0.001269013
0.0001009437
0.000100927
0.000100927
0.000100927
0.000100927
0.000100927
0.000100927
0.000100927
0.001247127
0.0001009431
0.000100927
0.000100927
0.000100927
0.000100927
0.000100927
0.000100927
0.000100927
0.00127461
0.0001009428
0.0001009429
0.0001009418
0.0001009415
0.0001009416
0.0001009416
0.0001009416
0.0001009416
0.0005836788
0.0001009617
0.001590485
0.001432066
0.001373371
0.001357919
0.001354446
0.00135398
0.00135413
0.0005278087
0.00010091
0.0001009177
0.0001009179
0.0001009177
0.0001009175
0.0001009174
0.0001009172
0.000100917
0.001281155
0.0001009362
0.0001009191
0.0001009191
0.000100919
0.0001009188
0.0001009187
0.0001009186
0.0001009185
0.00123977
0.0001009353
0.0001009189
0.0001009189
0.0001009188
0.0001009187
0.0001009186
0.0001009184
0.0001009183
0.001226443
0.0001009353
0.0001009189
0.0001009188
0.0001009187
0.0001009186
0.0001009185
0.0001009183
0.0001009181
0.0001009179
0.001222726
0.0001009355
0.0001009189
0.0001009188
0.0001009187
0.0001009186
0.0001009184
0.0001009182
0.000100918
0.0001009178
0.001221545
0.0001009356
0.000100919
0.0001009189
0.0001009187
0.0001009185
0.0001009184
0.0001009182
0.0001009179
0.0001009177
0.001221051
0.0001009358
0.0001009191
0.0001009189
0.0001009188
0.0001009186
0.0001009184
0.0001009182
0.0001009179
0.0001009177
0.001220812
0.0001009359
0.0001009193
0.0001009191
0.0001009189
0.0001009187
0.0001009185
0.0001009182
0.000100918
0.0001009177
0.001220672
0.0001009361
0.0001009194
0.0001009192
0.000100919
0.0001009188
0.0001009186
0.0001009183
0.0001009181
0.0001009178
0.001220579
0.0001009364
0.0001009196
0.0001009194
0.0001009192
0.000100919
0.0001009187
0.0001009185
0.0001009182
0.0001009179
0.001220505
0.0001009366
0.0001009198
0.0001009196
0.0001009194
0.0001009191
0.0001009189
0.0001009186
0.0001009184
0.0001009181
0.00122044
0.0001009368
0.0001009201
0.0001009198
0.0001009196
0.0001009193
0.0001009191
0.0001009188
0.0001009185
0.0001009183
0.001220379
0.0001009371
0.0001009203
0.0001009201
0.0001009198
0.0001009196
0.0001009193
0.000100919
0.0001009187
0.0001009185
0.001220323
0.0001009373
0.0001009206
0.0001009203
0.0001009201
0.0001009198
0.0001009195
0.0001009192
0.000100919
0.0001009187
0.001220269
0.0001009376
0.0001009208
0.0001009206
0.0001009203
0.00010092
0.0001009198
0.0001009195
0.0001009192
0.0001009189
0.001220224
0.0001009379
0.0001009211
0.0001009208
0.0001009206
0.0001009203
0.00010092
0.0001009197
0.0001009194
0.0001009192
0.001220198
0.0001009382
0.0001009214
0.0001009211
0.0001009208
0.0001009206
0.0001009203
0.00010092
0.0001009197
0.0001009194
0.0006040722
0.001274589
0.001242217
0.001232794
0.001231589
0.001231491
0.00123121
0.001230946
0.0006037236
0.0001009269
0.0001009433
0.0001009426
0.0001009423
0.0001009422
0.0001009422
0.0001009422
0.0001009422
0.001268719
0.0001009437
0.000100927
0.000100927
0.000100927
0.000100927
0.000100927
0.000100927
0.000100927
0.001246873
0.000100943
0.000100927
0.000100927
0.000100927
0.000100927
0.000100927
0.000100927
0.000100927
0.001274245
0.0001009428
0.0001009428
0.0001009415
0.0001009412
0.0001009413
0.0001009413
0.0001009413
0.0001009413
0.000583492
0.0001009613
0.001548561
0.001376765
0.001311986
0.001294592
0.001290676
0.00129014
0.001290297
0.0005254884
0.00010091
0.0001009176
0.0001009178
0.0001009177
0.0001009174
0.0001009173
0.0001009171
0.0001009169
0.001274749
0.0001009361
0.0001009191
0.0001009191
0.000100919
0.0001009189
0.0001009187
0.0001009186
0.0001009185
0.001229863
0.0001009352
0.000100919
0.000100919
0.0001009189
0.0001009188
0.0001009187
0.0001009185
0.0001009184
0.001214348
0.0001009352
0.0001009189
0.0001009189
0.0001009188
0.0001009187
0.0001009186
0.0001009184
0.0001009183
0.00121006
0.0001009354
0.0001009189
0.0001009189
0.0001009188
0.0001009186
0.0001009185
0.0001009183
0.0001009181
0.0001009179
0.00120871
0.0001009355
0.000100919
0.0001009189
0.0001009187
0.0001009186
0.0001009184
0.0001009182
0.000100918
0.0001009178
0.001208147
0.0001009357
0.0001009191
0.000100919
0.0001009188
0.0001009186
0.0001009184
0.0001009182
0.000100918
0.0001009177
0.001207875
0.0001009358
0.0001009193
0.0001009191
0.0001009189
0.0001009187
0.0001009185
0.0001009182
0.000100918
0.0001009177
0.001207718
0.000100936
0.0001009194
0.0001009192
0.000100919
0.0001009188
0.0001009186
0.0001009183
0.0001009181
0.0001009178
0.001207615
0.0001009362
0.0001009196
0.0001009194
0.0001009192
0.000100919
0.0001009187
0.0001009185
0.0001009182
0.0001009179
0.001207534
0.0001009365
0.0001009198
0.0001009196
0.0001009194
0.0001009191
0.0001009189
0.0001009186
0.0001009184
0.0001009181
0.001207468
0.0001009367
0.0001009201
0.0001009198
0.0001009196
0.0001009193
0.0001009191
0.0001009188
0.0001009185
0.0001009183
0.001207411
0.000100937
0.0001009203
0.0001009201
0.0001009198
0.0001009196
0.0001009193
0.000100919
0.0001009187
0.0001009185
0.001207358
0.0001009372
0.0001009206
0.0001009203
0.0001009201
0.0001009198
0.0001009195
0.0001009192
0.000100919
0.0001009187
0.001207307
0.0001009375
0.0001009208
0.0001009206
0.0001009203
0.00010092
0.0001009198
0.0001009195
0.0001009192
0.0001009189
0.001207266
0.0001009378
0.0001009211
0.0001009208
0.0001009206
0.0001009203
0.00010092
0.0001009197
0.0001009194
0.0001009192
0.001207244
0.0001009381
0.0001009214
0.0001009211
0.0001009208
0.0001009206
0.0001009203
0.00010092
0.0001009197
0.0001009194
0.0006041086
0.00127588
0.001244385
0.001235396
0.001234336
0.001234266
0.001233976
0.001233616
0.0006037413
0.0001009269
0.0001009433
0.0001009426
0.0001009423
0.0001009422
0.0001009422
0.0001009422
0.0001009422
0.001269747
0.0001009437
0.000100927
0.000100927
0.000100927
0.000100927
0.000100927
0.000100927
0.000100927
0.001248306
0.000100943
0.000100927
0.000100927
0.000100927
0.000100927
0.000100927
0.000100927
0.000100927
0.001275271
0.0001009428
0.0001009428
0.0001009415
0.0001009412
0.0001009413
0.0001009413
0.0001009413
0.0001009413
0.000583536
0.0001009613
0.001548412
0.001376629
0.001311846
0.001294446
0.001290531
0.001290003
0.001290166
0.0005252863
0.00010091
0.0001009176
0.0001009178
0.0001009177
0.0001009174
0.0001009173
0.0001009171
0.0001009169
0.001274752
0.0001009361
0.0001009191
0.0001009191
0.000100919
0.0001009189
0.0001009187
0.0001009186
0.0001009185
0.001229878
0.0001009352
0.000100919
0.000100919
0.0001009189
0.0001009188
0.0001009187
0.0001009185
0.0001009184
0.001214381
0.0001009352
0.0001009189
0.0001009189
0.0001009188
0.0001009187
0.0001009186
0.0001009184
0.0001009183
0.00121012
0.0001009354
0.0001009189
0.0001009189
0.0001009188
0.0001009186
0.0001009185
0.0001009183
0.0001009181
0.00120879
0.0001009355
0.000100919
0.0001009189
0.0001009187
0.0001009186
0.0001009184
0.0001009182
0.000100918
0.001208221
0.0001009357
0.0001009191
0.000100919
0.0001009188
0.0001009186
0.0001009184
0.0001009182
0.000100918
0.0001009177
0.001207939
0.0001009358
0.0001009193
0.0001009191
0.0001009189
0.0001009187
0.0001009185
0.0001009182
0.000100918
0.0001009177
0.001207778
0.000100936
0.0001009194
0.0001009192
0.000100919
0.0001009188
0.0001009186
0.0001009183
0.0001009181
0.0001009178
0.001207661
0.0001009362
0.0001009196
0.0001009194
0.0001009192
0.000100919
0.0001009187
0.0001009185
0.0001009182
0.0001009179
0.00120757
0.0001009365
0.0001009198
0.0001009196
0.0001009194
0.0001009191
0.0001009189
0.0001009186
0.0001009184
0.0001009181
0.001207507
0.0001009367
0.0001009201
0.0001009198
0.0001009196
0.0001009193
0.0001009191
0.0001009188
0.0001009185
0.0001009183
0.001207465
0.000100937
0.0001009203
0.0001009201
0.0001009198
0.0001009196
0.0001009193
0.000100919
0.0001009187
0.0001009185
0.001207424
0.0001009372
0.0001009206
0.0001009203
0.0001009201
0.0001009198
0.0001009195
0.0001009192
0.000100919
0.0001009187
0.001207374
0.0001009375
0.0001009208
0.0001009206
0.0001009203
0.0001009201
0.0001009198
0.0001009195
0.0001009192
0.0001009189
0.001207334
0.0001009378
0.0001009211
0.0001009208
0.0001009206
0.0001009203
0.00010092
0.0001009197
0.0001009194
0.0001009192
0.001207313
0.0001009381
0.0001009214
0.0001009211
0.0001009209
0.0001009206
0.0001009203
0.00010092
0.0001009197
0.0001009194
0.000604394
0.001281286
0.001252677
0.001245305
0.001244407
0.001244335
0.001244053
0.001243542
0.0006039248
0.0001009269
0.0001009435
0.0001009428
0.0001009425
0.0001009425
0.0001009425
0.0001009425
0.0001009425
0.001275665
0.0001009438
0.000100927
0.000100927
0.000100927
0.000100927
0.000100927
0.000100927
0.000100927
0.001255502
0.0001009431
0.000100927
0.000100927
0.000100927
0.000100927
0.000100927
0.000100927
0.000100927
0.001281272
0.0001009429
0.0001009429
0.0001009418
0.0001009415
0.0001009416
0.0001009416
0.0001009416
0.0001009416
0.0005841322
0.0001009617
0.001590076
0.001431724
0.001373
0.001357532
0.001354077
0.001353648
0.001353837
0.0005260544
0.00010091
0.0001009177
0.0001009179
0.0001009177
0.0001009175
0.0001009174
0.0001009172
0.000100917
0.00128117
0.0001009362
0.0001009191
0.0001009192
0.000100919
0.0001009189
0.0001009188
0.0001009187
0.0001009185
0.001239827
0.0001009353
0.000100919
0.000100919
0.0001009189
0.0001009188
0.0001009187
0.0001009186
0.0001009184
0.001226583
0.0001009353
0.0001009189
0.0001009189
0.0001009188
0.0001009187
0.0001009186
0.0001009184
0.0001009182
0.001223016
0.0001009355
0.0001009189
0.0001009189
0.0001009187
0.0001009186
0.0001009185
0.0001009183
0.0001009181
0.001221944
0.0001009356
0.000100919
0.0001009189
0.0001009187
0.0001009186
0.0001009184
0.0001009182
0.000100918
0.001221408
0.0001009358
0.0001009191
0.000100919
0.0001009188
0.0001009186
0.0001009184
0.0001009182
0.000100918
0.001221115
0.0001009359
0.0001009193
0.0001009191
0.0001009189
0.0001009187
0.0001009185
0.0001009182
0.000100918
0.0001009177
0.00122096
0.0001009361
0.0001009194
0.0001009192
0.000100919
0.0001009188
0.0001009186
0.0001009183
0.0001009181
0.0001009178
0.001220795
0.0001009364
0.0001009196
0.0001009194
0.0001009192
0.000100919
0.0001009187
0.0001009185
0.0001009182
0.0001009179
0.001220661
0.0001009366
0.0001009198
0.0001009196
0.0001009194
0.0001009191
0.0001009189
0.0001009186
0.0001009184
0.0001009181
0.001220608
0.0001009368
0.0001009201
0.0001009198
0.0001009196
0.0001009193
0.0001009191
0.0001009188
0.0001009185
0.0001009183
0.001220631
0.0001009371
0.0001009203
0.0001009201
0.0001009198
0.0001009196
0.0001009193
0.000100919
0.0001009187
0.0001009185
0.001220645
0.0001009373
0.0001009206
0.0001009203
0.0001009201
0.0001009198
0.0001009195
0.0001009192
0.000100919
0.0001009187
0.001220581
0.0001009376
0.0001009208
0.0001009206
0.0001009203
0.00010092
0.0001009198
0.0001009195
0.0001009192
0.0001009189
0.001220523
0.0001009379
0.0001009211
0.0001009208
0.0001009206
0.0001009203
0.00010092
0.0001009197
0.0001009194
0.0001009192
0.001220502
0.0001009382
0.0001009214
0.0001009211
0.0001009208
0.0001009206
0.0001009203
0.00010092
0.0001009197
0.0001009194
0.0006068595
0.001297445
0.001282281
0.001277445
0.001276527
0.00127652
0.001276228
0.001275649
0.000606428
0.0001009269
0.0001009438
0.0001009434
0.0001009432
0.0001009432
0.0001009432
0.0001009432
0.0001009432
0.00129308
0.000100944
0.000100927
0.000100927
0.000100927
0.000100927
0.000100927
0.000100927
0.000100927
0.00128314
0.0001009436
0.000100927
0.000100927
0.000100927
0.000100927
0.000100927
0.000100927
0.000100927
0.00129838
0.0001009432
0.0001009443
0.000100943
0.0001009429
0.0001009429
0.0001009429
0.0001009429
0.0001009429
0.0005894966
0.000100962
0.001736874
0.00159014
0.001545604
0.001534326
0.001531988
0.001531896
0.001532234
0.0005311303
0.0001009103
0.0001009179
0.000100918
0.0001009178
0.0001009177
0.0001009175
0.0001009174
0.0001009173
0.00129965
0.0001009364
0.0001009192
0.0001009192
0.000100919
0.0001009189
0.0001009188
0.0001009187
0.0001009186
0.001272753
0.0001009358
0.000100919
0.000100919
0.0001009189
0.0001009188
0.0001009187
0.0001009185
0.0001009184
0.00126369
0.0001009358
0.0001009189
0.0001009189
0.0001009188
0.0001009187
0.0001009185
0.0001009184
0.0001009182
0.00126188
0.0001009359
0.0001009189
0.0001009188
0.0001009187
0.0001009186
0.0001009184
0.0001009182
0.000100918
0.001261696
0.0001009361
0.000100919
0.0001009189
0.0001009187
0.0001009185
0.0001009183
0.0001009181
0.0001009179
0.001260952
0.0001009362
0.0001009191
0.0001009189
0.0001009188
0.0001009186
0.0001009184
0.0001009182
0.0001009179
0.001260496
0.0001009364
0.0001009192
0.0001009191
0.0001009189
0.0001009187
0.0001009184
0.0001009182
0.000100918
0.001260559
0.0001009366
0.0001009194
0.0001009192
0.000100919
0.0001009188
0.0001009186
0.0001009183
0.0001009181
0.0001009178
0.00126003
0.0001009368
0.0001009196
0.0001009194
0.0001009192
0.000100919
0.0001009187
0.0001009185
0.0001009182
0.0001009179
0.001259638
0.000100937
0.0001009198
0.0001009196
0.0001009194
0.0001009191
0.0001009189
0.0001009186
0.0001009183
0.0001009181
0.001259647
0.0001009373
0.0001009201
0.0001009198
0.0001009196
0.0001009193
0.0001009191
0.0001009188
0.0001009185
0.0001009183
0.00126002
0.0001009375
0.0001009203
0.0001009201
0.0001009198
0.0001009196
0.0001009193
0.000100919
0.0001009187
0.0001009185
0.001260393
0.0001009378
0.0001009206
0.0001009203
0.0001009201
0.0001009198
0.0001009195
0.0001009192
0.000100919
0.0001009187
0.00126007
0.000100938
0.0001009208
0.0001009206
0.0001009203
0.0001009201
0.0001009198
0.0001009195
0.0001009192
0.0001009189
0.001259882
0.0001009383
0.0001009211
0.0001009209
0.0001009206
0.0001009203
0.00010092
0.0001009197
0.0001009194
0.0001009192
0.001259805
0.0001009386
0.0001009214
0.0001009212
0.0001009209
0.0001009206
0.0001009203
0.00010092
0.0001009197
0.0001009194
0.0006096717
0.0005970376
0.0005814766
0.0005809719
0.0005785302
0.0005778871
0.0005778418
0.000578175
0.000576636
0.0006105911
0.0001009439
0.0001009435
0.0001009434
0.0001009434
0.0001009434
0.0001009434
0.0001009434
0.0001009434
0.0005968307
0.0001009436
0.0001009429
0.0001009428
0.0001009428
0.0001009427
0.0001009427
0.0001009427
0.0001009427
0.00057913
0.0001009434
0.0001009427
0.0001009426
0.0001009425
0.0001009425
0.0001009425
0.0001009425
0.0001009425
0.0005824515
0.0001009432
0.0001009425
0.0001009424
0.0001009423
0.0001009423
0.0001009423
0.0001009423
0.0001009423
0.0005939396
0.0001009402
0.0001009617
0.0001009615
0.0001009611
0.000100961
0.0001009611
0.0001009611
0.0001009611
0.0005653516
0.0003106624
0.0003005438
0.0002967449
0.0002962971
0.000296476
0.0002965247
0.0002966882
0.0002967566
0.0001009123
0.0001009106
0.0001009121
0.0001009116
0.000100911
0.0001009108
0.0001009108
0.0001009105
0.0001009042
0.0006001242
0.0001009363
0.0001009363
0.0001009362
0.0001009361
0.0001009361
0.000100936
0.0001009359
0.0001009356
0.0005803903
0.0001009355
0.000100935
0.0001009349
0.0001009349
0.0001009347
0.0001009346
0.0001009345
0.0001009343
0.0005776422
0.0001009356
0.000100935
0.0001009348
0.0001009347
0.0001009346
0.0001009345
0.0001009343
0.0001009341
0.000578093
0.0001009357
0.000100935
0.0001009349
0.0001009348
0.0001009347
0.0001009345
0.0001009343
0.0001009341
0.0005802028
0.0001009358
0.0001009352
0.000100935
0.0001009349
0.0001009348
0.0001009346
0.0001009344
0.0001009342
0.0005799979
0.000100936
0.0001009353
0.0001009351
0.000100935
0.0001009349
0.0001009347
0.0001009345
0.0001009342
0.0005779577
0.0001009362
0.0001009355
0.0001009353
0.0001009351
0.000100935
0.0001009348
0.0001009348
0.0001009346
0.0005801284
0.0001009363
0.0001009356
0.0001009354
0.0001009353
0.0001009351
0.0001009349
0.0001009348
0.0001009346
0.0005782857
0.0001009366
0.0001009358
0.0001009356
0.0001009355
0.0001009353
0.000100935
0.0001009348
0.0001009346
0.0001009342
0.0005772671
0.0001009368
0.0001009361
0.0001009358
0.0001009357
0.0001009355
0.0001009352
0.000100935
0.0001009347
0.0001009344
0.0005772747
0.0001009371
0.0001009363
0.000100936
0.0001009359
0.0001009357
0.0001009354
0.0001009352
0.0001009349
0.0001009346
0.0005777363
0.0001009373
0.0001009365
0.0001009363
0.0001009361
0.0001009359
0.0001009356
0.0001009354
0.0001009351
0.0001009348
0.0005797929
0.0001009375
0.0001009368
0.0001009365
0.0001009363
0.0001009361
0.000100936
0.0001009359
0.0001009355
0.0001009351
0.0005786291
0.0001009378
0.000100937
0.0001009368
0.0001009366
0.0001009364
0.0001009362
0.000100936
0.0001009357
0.0001009354
0.0005776834
0.0001009381
0.0001009373
0.000100937
0.0001009387
0.0001009395
0.0001009394
0.000100938
0.0001009368
0.0001009361
0.000576344
0.0001009384
0.0001009376
0.0001009374
0.0001009377
0.0001009377
0.0001009374
0.0001009377
0.0001009363
0.000100936
0.0006041583
0.000601119
0.0002825266
0.0002929811
0.0002700375
0.0002670005
0.0002723781
0.0002700594
0.000265781
0.0002698138
0.001340044
0.001311327
0.001304064
0.001303437
0.001302884
0.001302146
0.001301705
0.001302272
0.000263104
0.001314969
0.00126477
0.001251365
0.001248536
0.001247848
0.001247594
0.001247563
0.001247627
0.0002636233
0.001313412
0.001264573
0.00125121
0.001248293
0.001247681
0.00124762
0.001247721
0.001247845
0.0006039594
0.001332365
0.001302513
0.001293468
0.001290813
0.001290237
0.001290651
0.001291042
0.00129157
0.0006036043
0.0001009893
0.0001009883
0.0001009887
0.0001009888
0.0001009888
0.0001009891
0.0001009891
0.0001009893
0.0001009893
0.0006422183
0.0006201538
0.000619891
0.0006111421
0.0006068763
0.0006146973
0.0006140355
0.0006194257
0.0006202986
0.000101126
0.0001011201
0.000101124
0.0001011291
0.000101146
0.0001011303
0.0001011511
0.0001009007
0.0001009097
0.0002658554
0.001352146
0.001324884
0.001314548
0.001311788
0.001311224
0.001311574
0.001311993
0.001311357
0.0002654007
0.001316287
0.001263352
0.001247387
0.001243072
0.001241956
0.001241867
0.001241961
0.001242007
0.0002653089
0.001305022
0.001244863
0.001225219
0.001219829
0.001218317
0.001218001
0.001218087
0.00121822
0.0002662615
0.001301149
0.001239606
0.001218767
0.001212793
0.001211032
0.00121062
0.001210712
0.001210884
0.0002790622
0.001299783
0.001237978
0.001216639
0.001210392
0.001208493
0.001208041
0.001208157
0.001208371
0.0002847984
0.00130073
0.001237521
0.001215831
0.001209414
0.001207434
0.001206967
0.001207113
0.001207372
0.0002659477
0.001301068
0.001237351
0.00121549
0.001208971
0.00120694
0.00120646
0.001206628
0.001206933
0.0002851593
0.001300446
0.001237222
0.001215304
0.001208729
0.001206657
0.001206158
0.00120633
0.001206671
0.0002693187
0.001300877
0.001237159
0.001215203
0.001208574
0.00120646
0.001205927
0.001206081
0.001206434
0.0002669644
0.001300968
0.001237101
0.001215125
0.001208456
0.0012063
0.001205722
0.001205843
0.00120619
0.001206405
0.0002689284
0.001300814
0.001237027
0.001215049
0.001208365
0.001206174
0.001205554
0.001205637
0.001205965
0.001206195
0.0002676413
0.00130045
0.001236933
0.001214978
0.001208305
0.001206098
0.001205443
0.001205484
0.001205788
0.001206024
0.0002761731
0.001299998
0.001236873
0.001214951
0.001208309
0.001206103
0.001205422
0.001205425
0.001205696
0.001205916
0.0002743672
0.001300447
0.001236881
0.001215051
0.001208479
0.001206302
0.001205592
0.001205528
0.001205728
0.001205898
0.0002707447
0.00129979
0.001236935
0.001215448
0.001209117
0.001207054
0.001206273
0.001206003
0.001205988
0.001206018
0.0002679379
0.00129853
0.001237476
0.001217115
0.001211665
0.00120998
0.001208946
0.001207879
0.001206986
0.001206444
0.0002346216
0.0002345732
0.0006054611
0.000260082
0.0002599841
0.0001009577
0.0006041599
0.0005786195
0.00056887
0.0005860675
0.0001010233
0.0005570098
0.000101019
0.0005558946
0.0005667804
0.0005504862
0.0005585311
0.0001010454
0.0005424323
0.0001010442
0.0005491734
0.0005664502
0.0005511784
0.0005390091
0.0001010436
0.0005393818
0.0001010436
0.0005562774
0.0005702315
0.0005760723
0.0005435496
0.0001010453
0.0005627437
0.0001010477
0.0005803107
0.000599559
0.0006233174
0.0005660889
0.0001009902
0.0002429734
0.0001009929
0.0002758677
0.0001417016
0.0001924208
0.0006520038
0.0001009017
0.0002746156
0.0001416311
0.0001416472
0.0006306888
0.0006181592
0.0001009436
0.0001008913
0.0002745342
0.0001416624
0.000141668
0.0006105599
0.0006072435
0.0001008639
0.0001008637
0.0002745379
0.0001416771
0.0001416887
0.0006058245
0.0006052682
0.0001008628
0.0001008725
0.0002744287
0.0001417023
0.000141718
0.000605041
0.0006049642
0.0001008615
0.0001008808
0.000274437
0.0001417344
0.000141754
0.0006049218
0.0006048754
0.0001008611
0.0001008864
0.0002744236
0.000141774
0.0001417976
0.0006048773
0.0006048933
0.0001008605
0.0001008886
0.0002738394
0.0001418215
0.0001418492
0.0006049429
0.000604892
0.00010086
0.0001008899
0.0002744061
0.0001418773
0.0001419106
0.000604978
0.0006051712
0.0001008597
0.0001008908
0.0001419442
0.0006052175
0.0001008598
0.0003195186
0.000651745
0.0001009674
0.0002650272
0.0001009763
0.0006530987
0.0006352594
0.0002658754
0.000101664
0.0002655457
0.0001011053
0.0006311202
0.0006289453
0.0002653972