/*--------------------------------*- C++ -*----------------------------------*\
  =========                 |
  \\      /  F ield         | OpenFOAM: The Open Source CFD Toolbox
   \\    /   O peration     | Website:  https://openfoam.org
    \\  /    A nd           | Version:  7
     \\/     M anipulation  |
\*---------------------------------------------------------------------------*/
FoamFile
{
    version     2.0;
    format      ascii;
    class       surfaceScalarField;
    location    "0.04";
    object      phi;
}
// * * * * * * * * * * * * * * * * * * * * * * * * * * * * * * * * * * * * * //

dimensions      [0 3 -1 0 0 0 0];

internalField   nonuniform List<scalar> 
234023
(
7.164663e-11
-2.418573e-09
1.741886e-09
3.957477e-10
3.53218e-10
1.704248e-10
2.610837e-10
3.541042e-09
-5.40361e-09
2.070485e-09
5.855101e-10
7.517042e-09
-9.804029e-09
2.400983e-09
5.649195e-10
1.285296e-08
-1.599963e-08
3.471922e-09
5.163497e-10
2.024374e-08
-2.546256e-08
5.402812e-09
8.42976e-10
3.173516e-08
-3.94968e-08
8.320715e-09
1.24586e-09
4.940365e-08
-6.214417e-08
1.308651e-08
1.782666e-09
7.756319e-08
-9.766671e-08
1.992826e-08
2.1932e-09
1.228833e-07
2.968182e-08
1.689473e-09
-1.530345e-07
-7.047071e-10
-3.474729e-10
3.800773e-09
1.812996e-10
-7.724423e-10
-7.235093e-10
-1.051087e-09
-1.444334e-08
2.277342e-08
1.320516e-09
9.250715e-10
2.08848e-09
1.770046e-09
1.767063e-09
-2.975856e-09
-3.731687e-09
-3.637245e-09
-4.432903e-09
-2.664753e-08
3.035918e-08
2.385129e-09
-3.388673e-09
-5.165952e-09
-4.417476e-09
-5.471136e-09
-4.562458e-08
4.445909e-08
2.776299e-09
-4.439779e-09
-7.694529e-09
-6.02305e-09
-7.816623e-09
-7.522364e-08
6.680766e-08
3.315893e-09
-6.200805e-09
-1.115509e-08
-9.006615e-09
-1.168144e-08
-1.213361e-07
1.040028e-07
4.328044e-09
-9.42891e-09
-1.749769e-08
-1.392873e-08
-1.807313e-08
-1.929268e-07
1.621558e-07
5.922923e-09
-1.436685e-08
-2.751699e-08
-2.181054e-08
-2.819586e-08
-3.053091e-07
2.544956e-07
7.717634e-09
-2.252477e-08
-4.325089e-08
-3.43254e-08
-4.436342e-08
3.991142e-07
9.751475e-09
-3.452485e-08
-6.747183e-08
-5.383575e-08
-6.77262e-08
-4.86093e-07
-4.251252e-09
-1.107969e-10
4.408316e-09
1.618586e-10
-6.026907e-09
2.603818e-08
1.135194e-09
-2.526707e-10
1.57176e-09
6.431368e-10
8.886079e-10
-1.160786e-08
3.558118e-08
2.024112e-09
-2.074516e-08
5.310761e-08
2.292141e-09
-3.543114e-08
8.042558e-08
3.20926e-09
-5.889147e-08
1.262247e-07
3.837594e-09
-9.572325e-08
1.964171e-07
6.055992e-09
-1.545739e-07
3.085019e-07
8.318913e-09
4.849643e-07
1.232481e-08
-2.49679e-07
-4.800261e-09
5.221047e-10
4.216723e-09
1.513043e-10
5.867228e-09
2.353246e-08
2.004374e-09
-1.623759e-09
-1.063838e-10
-1.041405e-09
-6.826479e-10
8.682345e-09
3.301014e-08
1.189294e-09
1.29468e-08
4.936995e-08
9.828247e-10
1.871808e-08
7.550849e-08
1.203993e-09
2.71688e-08
1.190109e-07
1.632617e-09
4.152655e-08
1.87447e-07
-2.336301e-09
6.347171e-08
2.957767e-07
-5.725478e-09
4.689529e-07
-1.263644e-08
9.491891e-08
-3.967316e-09
8.12804e-10
3.195847e-09
3.034105e-10
1.563619e-08
3.487232e-09
9.113028e-10
-2.536026e-09
-1.311654e-09
-2.282868e-09
-1.99702e-09
4.270539e-09
4.370685e-09
4.516679e-09
2.543182e-08
4.529349e-09
1.066646e-09
6.629327e-09
6.151647e-09
6.15043e-09
4.037585e-08
6.333984e-09
1.133071e-09
9.933258e-09
9.063512e-09
9.212969e-09
6.269647e-08
9.634483e-09
1.487063e-09
1.550478e-08
1.430813e-08
1.471975e-08
9.752051e-08
1.547948e-08
1.082267e-09
2.431479e-08
2.268476e-08
2.336524e-08
1.508583e-07
2.437749e-08
6.729863e-10
3.883068e-08
3.605798e-08
3.77718e-08
2.341154e-07
3.90979e-08
-2.649094e-09
6.158935e-08
5.715678e-08
6.078717e-08
6.350828e-08
-8.203054e-09
9.787452e-08
9.154367e-08
9.808572e-08
3.635327e-07
-2.722629e-09
9.957868e-10
1.707454e-09
4.726491e-10
-2.392717e-09
3.234889e-09
2.100514e-09
1.20305e-09
-4.977327e-09
6.566743e-09
2.393302e-09
1.611118e-09
-9.417315e-09
1.055459e-08
3.759717e-09
1.752796e-09
-1.413762e-08
1.674996e-08
5.823282e-09
2.228509e-09
-2.345574e-08
2.746553e-08
9.889901e-09
2.987464e-09
-3.715003e-08
4.297147e-08
1.586326e-08
4.492777e-09
-5.866858e-08
6.787673e-08
2.544681e-08
6.688165e-09
-9.27176e-08
1.072812e-07
4.188123e-08
9.372324e-09
-1.461698e-07
6.859164e-08
1.413862e-08
1.675557e-07
-1.02207e-07
1.277971e-10
3.063792e-11
7.146681e-12
1.976802e-10
-6.520844e-11
-7.775297e-10
1.314759e-10
7.589447e-10
-5.960641e-11
2.032289e-10
-1.328858e-09
-3.971312e-11
1.480046e-09
1.377818e-10
3.776407e-10
-2.974372e-09
3.222516e-10
2.656133e-09
-2.60763e-11
3.803849e-10
-4.392575e-09
1.172602e-10
4.102392e-09
2.184005e-10
8.341591e-10
-7.593621e-09
8.904239e-10
6.883585e-09
-1.59271e-10
7.094779e-10
-1.191514e-08
9.635917e-10
1.030292e-08
8.942807e-11
1.189485e-09
-1.799338e-08
1.427567e-09
1.608569e-08
8.667015e-11
1.615778e-09
-2.890544e-08
1.797189e-09
2.627765e-08
3.189077e-10
2.33697e-09
-4.634638e-08
1.588095e-09
4.08332e-08
9.738024e-10
4.048412e-09
0.0003337
2.46005e-05
-1.422865e-05
-0.001400621
-9.050286e-05
0.0003300779
0.0004109573
0.0004060162
0.0003366073
9.144799e-06
-6.074222e-06
-9.579106e-05
-0.001404893
0.00033487
0.0004143303
0.0004118057
0.0003398975
6.512776e-06
-5.11571e-06
-9.508668e-05
-0.001419632
0.0003382454
0.000418829
0.00041635
0.000343424
8.057481e-06
-6.721182e-06
-9.539296e-05
-0.00143549
0.0003416748
0.0004234867
0.0004209606
0.0003478828
1.011331e-05
-8.468064e-06
-9.634475e-05
-0.001455165
0.0003460101
0.0004292777
0.0004266941
0.0003533985
1.241985e-05
-1.033119e-05
-9.773997e-05
-0.001479293
0.00035138
0.00043641
0.000433756
0.0003599981
1.483354e-05
-1.229241e-05
-9.950447e-05
-0.001507978
0.0003578179
0.0004449302
0.0004421951
0.0003677611
1.748528e-05
-1.450825e-05
-0.0001015688
-0.001541624
0.0003653944
0.0004549438
0.0004521167
0.0003767726
2.035503e-05
-1.703656e-05
-0.0001036502
-0.001580896
0.0003741819
0.0004666069
0.0004636662
-0.0004044395
-0.02250472
-0.001085115
0.0007166869
-0.001044871
0.0006106926
-0.0003898849
0.005453709
0.005597129
0.006555691
0.006495122
-0.0005131873
-0.02251838
-0.001794017
0.005686667
0.005656523
0.006555423
0.006522528
-0.0005227258
-0.02258811
-0.002022272
0.005742591
0.00571123
0.006589243
0.006576858
-0.0005923999
-0.02276679
-0.002058636
0.005809817
0.005776622
0.006656224
0.00665244
-0.0006940155
-0.02304557
-0.002096606
0.005894077
0.005855107
0.006747663
0.00674695
-0.0008178419
-0.02341719
-0.002126287
0.005995798
0.005948996
0.006861279
0.00686123
-0.0009562807
-0.02386817
-0.002163174
0.006115774
0.006060321
0.006996915
0.006996776
-0.001110808
-0.02440036
-0.002207281
0.006256734
0.006191662
0.00715702
0.007156755
-0.02501416
-0.002261336
0.006420041
0.007342312
-0.001283049
0.006343553
0.007341828
-0.0003246044
-0.02209818
-0.0002366888
0.00104244
-0.0009775302
0.0005305931
-0.0004407502
-0.0005155032
-0.02182485
-0.0005026313
-0.0006917961
-0.02184542
-0.000566399
-0.0008642318
-0.02196953
-0.0006248277
-0.001052185
-0.02222278
-0.0006348406
-0.001252288
-0.02256685
-0.0006502339
-0.001467985
-0.02299361
-0.000658868
-0.001701815
-0.02349517
-0.0006713596
-0.0240731
-0.0006858293
-0.001957044
-0.0005387105
-0.02182118
-4.937011e-05
0.001064037
-0.0009261525
0.0005749157
-0.0004017231
-0.0007242051
-0.02154831
-9.103855e-05
-0.0009397474
-0.0215354
-9.447572e-05
-0.001165836
-0.02163618
-0.00010726
-0.001411759
-0.02186697
-0.0001098864
-0.001675478
-0.02219066
-0.0001124708
-0.001960682
-0.02259562
-0.000112785
-0.002269065
-0.02307255
-0.0001142406
-0.02362151
-0.0001160772
-0.002604578
-0.0005581066
-0.02151479
-2.10122e-05
0.001037569
-0.0009117443
0.0005544671
-0.0004075562
-0.0008323175
-0.02122854
-4.556689e-05
-0.001125363
-0.02120528
-3.707449e-05
-0.001422788
-0.02128927
-4.948553e-05
-0.001736776
-0.02150369
-4.929041e-05
-0.002066987
-0.02180783
-5.262035e-05
-0.00241987
-0.02219035
-5.238087e-05
-0.002798521
-0.02264075
-5.314353e-05
-0.02315799
-5.378897e-05
-0.003208246
-0.0006753344
-0.02116831
-1.744096e-05
0.001036931
-0.0008809286
0.0005727754
-0.0003824875
-0.000993396
-0.020887
-2.347087e-05
-0.001337348
-0.02085832
-3.009347e-06
-0.001688678
-0.02093228
-5.658912e-06
-0.002059306
-0.02113058
-2.479272e-06
-0.002448827
-0.02141508
-3.23231e-06
-0.002863814
-0.02177337
-1.995723e-06
-0.003307669
-0.02219515
-1.741428e-06
-0.02267775
-1.727464e-06
-0.003786179
-0.0007539776
-0.02076985
-2.223051e-05
0.001029037
-0.0008554348
0.0005729903
-0.0003688461
-0.00112743
-0.02048879
-2.476531e-05
-0.001526081
-0.02045408
-5.588041e-06
-0.001932947
-0.02051797
-7.445196e-06
-0.002359422
-0.02070024
-3.859289e-06
-0.00280575
-0.02096436
-4.381147e-06
-0.003278726
-0.02129719
-3.197961e-06
-0.003782339
-0.02168828
-3.256119e-06
-0.02213395
-3.595105e-06
-0.004322541
-0.0008495439
-0.02032433
-2.717279e-05
0.00102268
-0.0008259222
0.0005825438
-0.0003481086
-0.001265889
-0.02004599
-2.644684e-05
-0.001711084
-0.02000536
-3.520013e-06
-0.002166316
-0.02005938
-3.350095e-06
-0.002642682
-0.02022527
1.391973e-06
-0.003140159
-0.0204685
1.610536e-06
-0.003665721
-0.02077481
3.178991e-06
-0.004223242
-0.02113405
3.292036e-06
-0.02154149
2.900149e-06
-0.004818604
-0.0009319673
-0.01983309
-3.177985e-05
0.001012816
-0.0007967474
0.000586405
-0.0003299663
-0.00139151
-0.01955738
-2.907436e-05
-0.001881118
-0.01951046
-5.293774e-06
-0.002381605
-0.01955422
-4.674412e-06
-0.002903847
-0.01970336
3.322855e-07
-0.003447971
-0.01992518
8.055857e-07
-0.004020648
-0.02020459
2.453062e-06
-0.004625849
-0.02053146
2.611609e-06
-0.02090024
2.0555e-06
-0.005269153
-0.00101149
-0.01930002
-3.590122e-05
0.001001198
-0.0007661574
0.0005901414
-0.0003108592
-0.001509363
-0.01902756
-3.194848e-05
-0.002038988
-0.01897467
-6.162921e-06
-0.002580166
-0.01900797
-5.070307e-06
-0.003143557
-0.01914042
4.481728e-07
-0.003729159
-0.0193407
1.124253e-06
-0.004343587
-0.01959312
2.959782e-06
-0.004990456
-0.01988777
3.171635e-06
-0.02021847
2.561835e-06
-0.005674785
-0.001083457
-0.01872868
-3.93176e-05
0.0009869959
-0.0007350885
0.0005917733
-0.0002922501
-0.001616577
-0.01845988
-3.456006e-05
-0.002182752
-0.01840129
-7.215328e-06
-0.002760663
-0.01842415
-5.908599e-06
-0.003360908
-0.01854006
-1.166245e-07
-0.003983356
-0.01871893
6.82129e-07
-0.004634216
-0.01894487
2.616145e-06
-0.00531694
-0.01920789
2.84735e-06
-0.0195017
2.154952e-06
-0.006035864
-0.001149158
-0.0181227
-4.239633e-05
0.0009706899
-0.0007032218
0.0005917666
-0.0002736593
-0.001713725
-0.01785827
-3.704538e-05
-0.002312681
-0.0177943
-8.030071e-06
-0.002923271
-0.017807
-6.56501e-06
-0.003556177
-0.01790672
-4.318325e-07
-0.004210855
-0.01806465
3.885368e-07
-0.00489336
-0.01826478
2.412885e-06
-0.005606428
-0.01849749
2.670426e-06
-0.01875593
1.932381e-06
-0.006354135
-0.001207999
-0.01748595
-4.487413e-05
0.0009523034
-0.0006709059
0.0005899664
-0.0002552396
-0.00180056
-0.01722642
-3.928898e-05
-0.002428714
-0.01715747
-8.681269e-06
-0.003068227
-0.01716038
-7.106975e-06
-0.00372982
-0.01724441
-7.114372e-07
-0.004412503
-0.0173821
1.341355e-07
-0.005121997
-0.01755753
2.239925e-06
-0.005860656
-0.01776134
2.510173e-06
-0.01798653
1.736801e-06
-0.006631791
-0.001260093
-0.016822
-4.733771e-05
0.0009322545
-0.0006381223
0.000586439
-0.0002370953
-0.001877291
-0.01656798
-4.12481e-05
-0.002531086
-0.01649447
-9.20345e-06
-0.003195879
-0.01648807
-7.523141e-06
-0.003882438
-0.01655699
-8.659054e-07
-0.004589276
-0.01667526
8.372968e-10
-0.005321746
-0.01682725
2.195883e-06
-0.006081674
-0.0170039
2.479481e-06
-0.01719824
1.664113e-06
-0.006871631
-0.001305765
-0.01613479
-4.954633e-05
0.0009103064
-0.0006049012
0.0005815345
-0.000218835
-0.001944159
-0.01588682
-4.276768e-05
-0.002620163
-0.01580908
-9.394262e-06
-0.003306917
-0.01579376
-7.554497e-06
-0.004015062
-0.01584818
-6.687759e-07
-0.004742643
-0.01594795
2.65342e-07
-0.00549453
-0.01607784
2.472658e-06
-0.006271867
-0.0162293
2.742478e-06
-0.01639518
1.881064e-06
-0.007076806
-0.001344914
-0.01542806
-5.150678e-05
0.0008864177
-0.0005712904
0.000575163
-0.0002006016
-0.002001275
-0.01518638
-4.408147e-05
-0.002696284
-0.01510465
-9.421529e-06
-0.003401823
-0.01508078
-7.441839e-06
-0.004128551
-0.01512115
-3.065679e-07
-0.004873847
-0.01520337
7.197051e-07
-0.005642212
-0.01531247
2.990799e-06
-0.006434042
-0.01544076
3.287808e-06
-0.01558101
2.420355e-06
-0.007250636
-0.001377126
-5.287789e-05
0.0008609068
-0.0005374868
0.0005668366
-0.0001830062
-0.01470531
-0.00204855
-4.452611e-05
-0.01447043
-0.002759585
-8.689199e-06
-0.01438492
-0.003481282
-6.38708e-06
-0.0143527
-0.004224029
1.031402e-06
-0.01437943
-0.004984742
2.090772e-06
-0.01444475
-0.005767186
4.302159e-06
-0.01453432
-0.006570998
4.519752e-06
-0.01464147
3.565536e-06
-0.01475879
-0.007396784
2.846841e-10
-5.727999e-10
-2.366211e-09
1.776198e-09
4.999939e-10
5.689368e-10
2.75268e-10
3.668121e-10
-3.527318e-08
1.835129e-08
2.362835e-09
-1.90407e-10
-1.73546e-09
5.489676e-10
-6.029311e-10
3.892227e-09
5.675482e-09
4.142832e-09
5.493509e-09
-5.88791e-08
2.572318e-08
3.356892e-09
6.53061e-11
-3.222383e-09
7.143595e-10
-1.033472e-09
-9.67058e-08
3.912244e-08
3.894329e-09
1.073145e-09
-4.829762e-09
1.696114e-09
-1.158425e-09
-1.551076e-07
6.01183e-08
4.899166e-09
2.083744e-09
-7.129712e-09
2.672796e-09
-1.51959e-09
-2.465578e-07
9.381982e-08
6.253429e-09
3.808495e-09
-1.062748e-08
4.234726e-09
-2.184197e-09
-3.89795e-07
1.469023e-07
6.921864e-09
6.410778e-09
-1.580462e-08
6.836632e-09
-2.679721e-09
2.298624e-07
7.616066e-09
1.106553e-08
-2.401386e-08
1.082352e-08
-2.652512e-09
-6.179609e-07
-2.005473e-10
-7.388707e-10
-3.522028e-10
3.942785e-09
3.176978e-10
-7.241548e-10
-7.523191e-10
-9.198427e-10
-1.649346e-08
2.610265e-08
2.003807e-09
-3.546504e-09
-4.444318e-09
-3.350928e-09
-4.282567e-09
1.463867e-09
1.965236e-09
1.728739e-09
1.843593e-09
-3.201018e-08
3.478985e-08
2.857451e-09
-5.558372e-08
5.026863e-08
3.224014e-09
-9.149308e-08
7.604249e-08
4.066645e-09
-1.475045e-07
1.178355e-07
4.566041e-09
-2.355006e-07
1.849063e-07
6.134958e-09
-3.742747e-07
2.901601e-07
6.494416e-09
4.55487e-07
8.017832e-09
-5.952732e-07
-2.406834e-09
2.335323e-08
1.769657e-09
-6.853583e-10
-6.88382e-10
5.678628e-10
-3.945411e-10
-4.399198e-09
-5.477031e-09
-4.358273e-09
-5.878778e-09
-6.469083e-09
3.083517e-08
2.012459e-09
-1.249765e-08
4.104355e-08
2.819606e-09
-2.35093e-08
6.19217e-08
3.415531e-09
-4.004493e-08
9.341293e-08
4.175543e-09
-6.62939e-08
1.45732e-07
5.331127e-09
-1.081549e-07
2.289867e-07
6.95501e-09
-1.750374e-07
3.604707e-07
8.652398e-09
5.662681e-07
1.169819e-08
-2.826479e-07
3.810775e-09
2.060249e-08
2.285422e-09
-8.523615e-10
-2.679046e-10
3.633837e-10
-2.721541e-11
7.178596e-09
2.756184e-08
2.572299e-09
1.10836e-08
3.716009e-08
2.523014e-09
1.708473e-08
5.622036e-08
1.987756e-09
2.665087e-08
8.531563e-08
2.129329e-09
4.126437e-08
1.339256e-07
1.032145e-09
6.113237e-08
2.095088e-07
4.091004e-10
9.095605e-08
3.304477e-07
-3.452561e-09
5.193412e-07
-8.79901e-09
1.360563e-07
6.994257e-09
3.050212e-09
2.264118e-09
-1.12251e-09
-3.442507e-10
-1.336289e-10
-2.040708e-10
4.315084e-09
3.293881e-09
3.84626e-09
2.028479e-08
1.435594e-08
2.08622e-09
3.673796e-08
1.967551e-08
3.293022e-09
5.818426e-08
3.197427e-08
3.529685e-09
9.052626e-08
4.986189e-08
5.330804e-09
1.418221e-07
7.870068e-08
6.178488e-09
2.196188e-07
1.249796e-07
7.979521e-09
3.416164e-07
1.981723e-07
7.678394e-09
3.126098e-07
9.058131e-09
5.3282e-07
-9.642893e-10
1.78324e-09
8.536832e-10
3.340411e-10
6.635105e-10
5.828562e-10
4.096036e-10
3.268337e-08
-6.359461e-11
4.123686e-09
-3.890699e-09
-3.835677e-09
-3.834619e-09
-3.519188e-09
-2.150835e-09
-1.275211e-09
-1.473315e-09
-1.120048e-09
4.331097e-10
-2.11819e-10
1.317504e-09
5.313197e-08
-1.043246e-09
3.904877e-09
-2.891431e-09
-1.7526e-09
-1.820165e-09
-1.02298e-09
7.418743e-10
3.293152e-09
1.175342e-09
8.442618e-08
9.5222e-11
5.077743e-09
-3.541955e-09
-2.349678e-09
-2.501787e-09
-1.075228e-09
1.575094e-09
-3.346653e-10
2.133129e-09
1.330896e-07
5.261848e-10
5.787022e-09
-4.711628e-09
-2.440509e-09
-3.43309e-09
-9.318058e-10
3.259519e-09
9.020876e-10
3.745567e-09
2.110495e-07
1.179807e-09
5.746701e-09
-6.94884e-09
-3.287456e-09
-4.937605e-09
-1.052845e-09
5.571551e-09
1.207917e-09
5.641443e-09
3.30793e-07
2.827039e-09
4.938182e-09
-9.839903e-09
-4.30131e-09
-6.512913e-09
-8.378374e-10
9.555843e-09
2.201008e-09
9.992815e-09
5.205925e-07
5.209227e-09
1.452883e-10
-1.454292e-08
-5.559916e-09
-9.400428e-09
-3.979993e-10
1.603074e-08
3.680535e-09
1.689803e-08
8.836924e-09
-1.189569e-08
-2.089713e-08
-5.46435e-09
-1.257495e-08
2.806885e-09
2.676287e-08
4.755216e-09
2.846977e-08
8.169879e-07
-1.559972e-09
-3.218097e-09
4.180934e-09
1.334706e-09
-9.351591e-10
-5.273202e-09
7.351733e-09
-9.129939e-10
-3.997908e-09
-8.243544e-09
1.065596e-08
1.596295e-09
-5.721778e-09
-1.203342e-08
1.676741e-08
1.889332e-09
-7.785504e-09
-1.981439e-08
2.691439e-08
2.923903e-09
-1.103944e-08
-3.151067e-08
4.245594e-08
4.330466e-09
-1.538226e-08
-5.042948e-08
6.735608e-08
5.396383e-09
-1.995703e-08
-8.074959e-08
1.057167e-07
6.09926e-09
-3.160062e-08
-1.270903e-07
1.313446e-08
1.64255e-07
-1.559942e-08
0.0006476087
0.0006549588
-0.0002586746
-0.005949503
-0.0002833244
0.0007854898
-6.609975e-05
-4.808043e-05
-8.033939e-05
0.0007901141
-7.557375e-05
0.0008387673
0.0001114604
-6.150605e-05
-0.00602495
-0.0008594576
0.0008395611
-2.87482e-05
-2.239391e-05
0.0008389254
1.135518e-05
-1.428651e-05
-0.006090499
-0.0009403403
0.0008424156
-2.949566e-05
-2.713302e-05
0.000847059
2.417295e-05
-2.538994e-05
-0.00615199
-0.0009656305
0.0008489302
-2.950143e-05
-2.740337e-05
0.0008556917
3.047815e-05
-3.348006e-05
-0.006236652
-0.0009681187
0.0008572586
-3.009083e-05
-2.817454e-05
0.0008680926
4.020586e-05
-4.211887e-05
-0.00634066
-0.0009829487
0.0008692917
-3.013539e-05
-2.832323e-05
0.0008829004
4.818627e-05
-5.033223e-05
-0.006465059
-0.0009988003
0.0008838761
-3.03055e-05
-2.864021e-05
0.0009005647
5.699822e-05
-5.872045e-05
-0.006611523
-0.001018038
0.0009011579
-3.083898e-05
-2.943497e-05
0.0009203929
6.57004e-05
-0.006778219
-0.001038724
0.0009207403
-3.23183e-05
-3.085766e-05
-6.776636e-05
0.0002310093
0.004939268
-0.0001853697
-0.004773547
-0.0001686327
0.000104315
-0.0001411869
-5.855668e-06
-0.0005463375
-0.02519189
-0.0003762541
0.006319964
0.00634859
0.006166388
0.0061564
0.0003135337
-0.0003348414
0.0003615085
-0.0003021769
-0.0004933114
-0.02586725
-0.0007927621
0.006276305
0.006286626
0.006137314
0.006112728
-0.0005761144
-0.02603809
-0.0009942723
0.006360586
0.006363012
0.006183021
0.006186278
-0.000661452
-0.02628748
-0.001047601
0.006431531
0.006434967
0.006246691
0.006248591
-0.0007846118
-0.02661024
-0.001089595
0.00652357
0.006529618
0.006333689
0.006339506
-0.0009255329
-0.02704109
-0.001105178
0.006632435
0.006640657
0.006439694
0.006448118
-0.001081881
-0.02756182
-0.00112554
0.006762777
0.006772774
0.006567403
0.006577576
-0.001252255
-0.02817832
-0.001150195
0.006916458
0.006928061
0.006717635
0.006729452
-0.02888951
0.007092967
0.006890042
-0.00144046
0.007107786
0.00690553
-0.001179943
0.0002571551
0.005122471
-0.0002355484
-0.004907448
-0.0002539234
0.0001403235
-0.0001428688
1.983904e-05
-0.000340212
-0.02503834
-0.0001435475
0.0002879865
-0.0002853954
0.0002392163
-0.000148284
-0.000544071
-0.02556725
-0.0005987819
-0.000784562
-0.02563087
-0.0007331347
-0.001000088
-0.02580638
-0.0008903996
-0.001223087
-0.02610031
-0.0009217658
-0.001457193
-0.02650004
-0.0009571781
-0.001707573
-0.0269984
-0.0009719036
-0.001978297
-0.02758718
-0.0009917774
-0.02826762
-0.001013089
-0.002272926
0.0002673471
0.005011426
-0.0002255461
-0.004860552
-0.0002489339
0.0001584539
-0.0001403219
3.812693e-05
-0.0005471545
-0.02468342
-0.0001048229
0.0003327765
-0.0002267499
0.0002470145
-0.0001053583
-0.000830746
-0.02515921
-0.0002154824
-0.001088543
-0.02520256
-0.0002649845
-0.001356975
-0.02532901
-0.0003161919
-0.001643875
-0.02558823
-0.0003350686
-0.001952068
-0.02595697
-0.0003473499
-0.002285132
-0.0264269
-0.0003512233
-0.002644732
-0.0269855
-0.0003563184
-0.02763054
-0.0003625143
-0.003035383
0.0002656129
0.004954911
-0.0002252522
-0.004821486
-0.0002399189
0.0001611789
-0.000137374
4.232785e-05
-0.0006195642
-0.0243264
-3.923323e-05
0.0003475935
-0.0002128395
0.0002435726
-9.755814e-05
-0.000969835
-0.02474309
-0.0001114134
-0.001315522
-0.02475977
-0.00013418
-0.001664393
-0.02485849
-0.0001711396
-0.002029362
-0.02509167
-0.0001808791
-0.002413769
-0.02543367
-0.0001915177
-0.002824938
-0.02587485
-0.0001932566
-0.003266317
-0.02640088
-0.0001963839
-0.02700704
-0.0001999519
-0.003743651
0.0002630393
0.004925049
-0.0002478078
-0.004756337
-0.0002510373
0.000159409
-0.0001347892
4.247419e-05
-0.0007473965
-0.02391706
-3.477907e-05
0.0003620617
-0.00019048
0.0002595137
-7.569932e-05
-0.001156752
-0.02430385
-5.335499e-05
-0.001556688
-0.02431034
-5.250749e-05
-0.001968068
-0.02439072
-6.204282e-05
-0.002397979
-0.02460231
-6.19291e-05
-0.002851215
-0.02491896
-6.469594e-05
-0.003334193
-0.02533055
-6.33151e-05
-0.003851214
-0.02582186
-6.373219e-05
-0.02638617
-6.522908e-05
-0.004408573
0.0002592011
0.0048333
-0.0002432607
-0.004675515
-0.0002415651
0.0001575079
-0.0001325384
4.286947e-05
-0.0008568015
-0.02345949
-2.448141e-05
0.0003761623
-0.0001741457
0.0002643913
-6.493277e-05
-0.001317803
-0.02382723
-4.038317e-05
-0.001778281
-0.02382029
-3.515922e-05
-0.002251762
-0.02388626
-3.842953e-05
-0.002745675
-0.02407778
-3.447559e-05
-0.003264104
-0.02436993
-3.498652e-05
-0.003814028
-0.02475112
-3.271294e-05
-0.004400196
-0.02520613
-3.282292e-05
-0.02572643
-3.45295e-05
-0.005029006
0.0002552451
0.004754316
-0.0002520492
-0.004583265
-0.0002422186
0.0001547398
-0.0001298109
4.304205e-05
-0.0009629663
-0.0229512
-2.511063e-05
0.0003836115
-0.0001569859
0.0002761681
-5.018244e-05
-0.00147825
-0.02330351
-3.488682e-05
-0.001991178
-0.02328677
-2.410966e-05
-0.002520087
-0.02333994
-2.075711e-05
-0.003071023
-0.02351204
-1.341378e-05
-0.003648572
-0.02377962
-1.115016e-05
-0.004259131
-0.02412986
-7.513374e-06
-0.004907664
-0.02454741
-6.895736e-06
-0.0250226
-8.537101e-06
-0.005600054
0.0002508778
0.004649697
-0.0002524764
-0.00447915
-0.0002372219
0.0001518773
-0.0001268111
4.32068e-05
-0.001060909
-0.0223936
-2.504848e-05
0.0003925978
-0.0001407992
0.0002830855
-3.830014e-05
-0.001625555
-0.0227318
-3.614544e-05
-0.002188897
-0.02270546
-2.326112e-05
-0.002769284
-0.02274619
-1.803975e-05
-0.003373048
-0.02289897
-8.971193e-06
-0.004004293
-0.02314208
-5.489304e-06
-0.00466956
-0.02346097
-1.174724e-06
-0.005373232
-0.02384091
-2.114219e-07
-0.02427066
-2.043917e-06
-0.006121075
0.0002461503
0.004540398
-0.0002545456
-0.004366701
-0.0002334409
0.0001485605
-0.0001235467
4.312516e-05
-0.001151605
-0.02178998
-2.624751e-05
0.0003988334
-0.0001251754
0.0002906618
-2.598764e-05
-0.001762815
-0.02211398
-3.855629e-05
-0.00237199
-0.02207901
-2.343878e-05
-0.002999116
-0.02210761
-1.652965e-05
-0.00365006
-0.02224134
-6.243293e-06
-0.004329373
-0.02245981
-1.832192e-06
-0.005042846
-0.0227477
3.157719e-06
-0.005794894
-0.0230901
4.404781e-06
-0.02347535
2.448959e-06
-0.006590094
0.0002409209
0.004420981
-0.000255068
-0.004246191
-0.0002288046
0.000145132
-0.0001200501
4.307943e-05
-0.001234194
-0.02114375
-2.731222e-05
0.0004039004
-0.0001101475
0.0002963096
-1.411279e-05
-0.001887917
-0.02145311
-4.170132e-05
-0.002539005
-0.02141019
-2.494432e-05
-0.003208358
-0.02142681
-1.735163e-05
-0.003901697
-0.02154195
-6.164132e-06
-0.004623538
-0.02173601
-1.28197e-06
-0.005379324
-0.02199337
4.079124e-06
-0.006172995
-0.02229907
5.483648e-06
-0.02264134
3.394033e-06
-0.007008241
0.0002352256
0.004294119
-0.0002550337
-0.004118538
-0.0002239293
0.0001414553
-0.0001163606
4.306151e-05
-0.001309206
-0.02045903
-2.865716e-05
0.0004076156
-9.57538e-05
0.0003011463
-2.255922e-06
-0.002001186
-0.0207533
-4.488218e-05
-0.002689924
-0.02070297
-2.652356e-05
-0.003396896
-0.02070803
-1.837646e-05
-0.004127862
-0.02080493
-6.481756e-06
-0.004887071
-0.02097517
-1.240019e-06
-0.005679537
-0.02120293
4.43423e-06
-0.006508361
-0.02147349
5.913732e-06
-0.02177453
3.713826e-06
-0.007376951
0.0002290619
0.004160215
-0.0002545698
-0.003983763
-0.0002190733
0.0001375605
-0.0001124969
4.306448e-05
-0.001376136
-0.0197402
-2.984422e-05
0.0004097352
-8.179183e-05
0.0003048517
9.473472e-06
-0.002102436
-0.02001852
-4.7771e-05
-0.002824692
-0.01996142
-2.797898e-05
-0.003565007
-0.01995536
-1.94625e-05
-0.004329074
-0.02003463
-6.947406e-06
-0.005120628
-0.020182
-1.477959e-06
-0.005944459
-0.02038128
4.419289e-06
-0.006803074
-0.02061831
5.950165e-06
-0.02088072
3.645003e-06
-0.007698793
0.0002225372
0.004018902
-0.000252837
-0.003843144
-0.0002134397
0.0001334962
-0.0001084943
4.297907e-05
-0.001435474
-0.01899057
-3.079588e-05
0.0004108909
-6.815613e-05
0.0003074883
1.908309e-05
-0.002191801
-0.01925304
-5.040591e-05
-0.002943583
-0.01918963
-2.920661e-05
-0.003713115
-0.01917297
-2.038488e-05
-0.004505911
-0.01923541
-7.291763e-06
-0.00532552
-0.0193608
-1.595922e-06
-0.006175994
-0.01953313
4.52623e-06
-0.007059366
-0.0197386
6.144954e-06
-0.01996529
3.801414e-06
-0.00797693
0.0002155676
0.003872513
-0.0002507766
-0.003697062
-0.0002079234
0.0001291689
-0.0001043807
4.289218e-05
-0.001487358
-0.01821488
-3.137889e-05
0.0004107751
-5.497672e-05
0.0003090911
2.860568e-05
-0.00226956
-0.01846137
-5.224158e-05
-0.003046955
-0.01839205
-2.957804e-05
-0.003841852
-0.01836531
-2.031942e-05
-0.004659575
-0.01841168
-6.675057e-06
-0.005503213
-0.01851611
-7.820434e-07
-0.006376329
-0.01866302
5.473146e-06
-0.007279882
-0.01883944
7.12582e-06
-0.01903309
4.681607e-06
-0.00821489
0.0002082812
0.003720892
-0.0002485412
-0.003545069
-0.0002028911
0.000124588
-0.0001000597
4.279829e-05
-0.001531606
-0.01741748
-3.211431e-05
0.000408998
-4.228299e-05
0.0003097562
3.833952e-05
-0.002335872
-0.01764745
-5.373248e-05
-0.003135224
-0.01757271
-2.941384e-05
-0.003951802
-0.01753642
-1.974918e-05
-0.004791179
-0.01756721
-5.401992e-06
-0.005655384
-0.01765195
7.622622e-07
-0.006547653
-0.01777499
7.229181e-06
-0.00746818
-0.01792461
8.985253e-06
-0.0180886
6.560374e-06
-0.008416803
3.055169e-05
-4.93838e-05
-7.267718e-05
0.0001318221
0.003772011
-0.003812325
-0.001568307
-3.159471e-05
-0.01660243
4.708723e-05
0.0004061987
0.0003092371
-0.002390575
-5.343088e-05
-0.01681628
-0.003208567
-2.698525e-05
-0.01673642
-0.004044056
-1.639298e-05
-0.01669093
-0.004902068
-1.30139e-06
-0.01670687
-0.005784316
4.989603e-06
-0.0167726
-0.006693029
1.132369e-05
-0.01687329
-0.007627576
1.289295e-05
-0.01699843
1.022957e-05
-0.01713584
-0.008587001
3.695106e-10
-5.484766e-10
-2.375754e-09
1.607643e-09
4.944545e-10
5.953185e-10
2.781404e-10
2.527303e-10
-3.482837e-08
1.766981e-08
2.211102e-09
3.840701e-09
5.393657e-09
4.000325e-09
5.455574e-09
-5.888105e-08
2.503945e-08
3.194894e-09
-9.697496e-08
3.910537e-08
3.57549e-09
-1.563638e-07
6.031715e-08
4.905002e-09
-2.488785e-07
9.499418e-08
5.466281e-09
-3.948564e-07
1.48771e-07
6.377779e-09
2.341608e-07
7.374247e-09
-6.269216e-07
-6.301658e-10
-4.956285e-10
-2.713418e-10
3.737204e-09
5.582888e-10
-6.264865e-10
-6.836244e-10
-9.100841e-10
-1.567399e-08
2.538538e-08
2.324046e-09
-3.357198e-09
-4.478812e-09
-3.278261e-09
-4.155379e-09
1.254055e-09
1.950464e-09
1.524286e-09
1.922733e-09
-3.128863e-08
3.422531e-08
2.660074e-09
-5.521606e-08
4.985584e-08
3.447427e-09
-9.111698e-08
7.599913e-08
4.159304e-09
-1.476637e-07
1.181e-07
5.157628e-09
-2.355377e-07
1.851209e-07
6.241257e-09
-3.74785e-07
2.905392e-07
6.984274e-09
4.563522e-07
8.926207e-09
-5.96223e-07
-6.724428e-10
2.352457e-08
1.71412e-09
-4.654188e-09
-5.614761e-09
-4.421107e-09
-5.777838e-09
-5.190679e-09
3.035878e-08
1.897978e-09
-1.119956e-08
4.113401e-08
2.998281e-09
-2.151049e-08
6.128878e-08
3.538058e-09
-3.731288e-08
9.33617e-08
4.786636e-09
-6.279792e-08
1.456354e-07
5.599368e-09
-1.033941e-07
2.286629e-07
7.316094e-09
-1.690072e-07
3.59369e-07
7.959475e-09
5.651526e-07
1.037408e-08
-2.748273e-07
3.550454e-09
2.109139e-08
2.101439e-09
8.083063e-09
2.666128e-08
2.886079e-09
1.447126e-08
3.516364e-08
2.5991e-09
2.328581e-08
5.205245e-08
3.626256e-09
3.645599e-08
8.027306e-08
3.922565e-09
5.542217e-08
1.258718e-07
4.378077e-09
8.342626e-08
1.985621e-07
4.472204e-09
1.252568e-07
3.127217e-07
2.736555e-09
4.927688e-07
9.821012e-10
1.889092e-07
7.910126e-09
3.428426e-09
1.401631e-09
4.056113e-09
3.729736e-09
3.97893e-09
2.359594e-08
1.195503e-08
1.173085e-09
4.227654e-08
1.599506e-08
3.680841e-09
6.709898e-08
2.636589e-08
4.375962e-09
1.052334e-07
4.145392e-08
6.484052e-09
1.631428e-07
6.60811e-08
8.288327e-09
2.532943e-07
1.045464e-07
1.09514e-08
3.925099e-07
1.661915e-07
1.378228e-08
2.638648e-07
1.760411e-08
6.107655e-07
-8.677718e-10
1.811574e-09
6.827763e-10
5.637003e-10
4.385208e-10
7.462095e-10
4.277513e-10
2.781203e-08
-5.231142e-10
6.614253e-09
-3.912612e-09
-3.331967e-09
-3.594779e-09
-3.276236e-09
-1.916462e-09
-1.496494e-10
-1.855729e-09
4.422849e-08
2.881998e-09
7.009272e-08
4.86298e-09
1.100375e-07
6.485727e-09
1.725657e-07
8.326906e-09
2.700326e-07
1.042887e-08
4.224652e-07
1.132989e-08
1.283336e-08
6.600933e-07
-2.609082e-09
-1.165951e-09
2.601877e-09
9.12795e-10
0.0008445083
0.0001217612
-0.0008219585
-0.005987598
-6.153543e-05
0.0008443241
-6.825145e-05
-6.206305e-05
-0.0004698394
-0.02466021
-0.0004702387
0.0009890146
0.001495389
-0.0003350811
-0.0002979948
0.0009760553
-0.0003770305
0.001464914
-0.0003601766
-0.0001141902
-0.02485068
-0.000626883
0.001559014
0.001594553
-0.0003242706
-0.0003096836
-0.000178658
-0.02523402
-0.0007867812
0.001645369
0.001639821
-0.0002819182
-0.0002797206
-0.0002100544
-0.02557937
-0.0007836715
0.001655049
0.001646197
-0.0002879441
-0.0002904623
-0.0002603073
-0.02600837
-0.000801416
0.00168404
0.001672182
-0.0002883096
-0.0002934543
-0.0003055919
-0.02651621
-0.0008105687
0.001713471
0.001698736
-0.0002946201
-0.0003014472
-0.02711371
-0.000824209
0.001749752
0.001732105
-0.0003013002
-0.0003092856
-0.0003575604
-0.0009645674
-0.02145522
-0.0002593145
0.005072568
0.006129148
0.005320311
0.006096962
0.0005000979
0.0004986727
-0.00081239