/*--------------------------------*- C++ -*----------------------------------*\
  =========                 |
  \\      /  F ield         | OpenFOAM: The Open Source CFD Toolbox
   \\    /   O peration     | Website:  https://openfoam.org
    \\  /    A nd           | Version:  7
     \\/     M anipulation  |
\*---------------------------------------------------------------------------*/
FoamFile
{
    version     2.0;
    format      ascii;
    class       volScalarField;
    location    "0.06";
    object      epsilon;
}
// * * * * * * * * * * * * * * * * * * * * * * * * * * * * * * * * * * * * * //

dimensions      [0 2 -3 0 0 0 0];

internalField   nonuniform List<scalar> 
78470
(
0.004798067
0.00477206
0.004773992
0.004777995
0.004780778
0.004782767
0.004784851
0.004787039
0.004789452
0.0009473365
0.000973235
0.0009814733
0.0009834631
0.0009841592
0.0009843806
0.0009844347
0.0009843848
0.0009843736
0.0009664803
0.001009846
0.001023773
0.001027461
0.00102866
0.001029043
0.001029116
0.001029044
0.001028963
0.0009727621
0.001021871
0.001039023
0.001043787
0.001045409
0.001045883
0.001045961
0.001045838
0.00104571
0.0009742257
0.001025093
0.00104327
0.001048633
0.001050491
0.001051083
0.001051164
0.001050999
0.001050802
0.0009746032
0.001026067
0.001044664
0.001050255
0.001052259
0.001052883
0.001052969
0.001052763
0.001052503
0.0009747152
0.001026421
0.001045139
0.001050851
0.001052914
0.001053583
0.001053672
0.001053456
0.001053167
0.0009747799
0.001026531
0.001045308
0.001051045
0.001053136
0.0010538
0.001053891
0.001053671
0.001053371
0.0009747914
0.00102654
0.001045299
0.001051006
0.001053035
0.00105364
0.001053682
0.001053443
0.001053134
0.0009747299
0.001026432
0.001045143
0.001050711
0.001052552
0.001052865
0.001052651
0.001052249
0.001051869
0.0009746707
0.001026269
0.001044798
0.001050004
0.001051122
0.001050349
0.001049036
0.001047896
0.001047117
0.0009745764
0.001025978
0.001044228
0.001048615
0.001046926
0.001041683
0.001036648
0.001032245
0.001029748
0.0009744536
0.001025536
0.001043342
0.001046468
0.001040262
0.001013869
0.001003438
0.0009826944
0.000979723
0.0009743021
0.001025082
0.001042301
0.001044004
0.001033514
0.001002951
0.002184057
0.002103723
0.002108687
0.000974126
0.001024582
0.001041307
0.001041732
0.001027515
0.0009803092
0.002078155
0.0100493
0.0009738731
0.001024176
0.001040436
0.001040133
0.00102379
0.0009759075
0.002052251
0.009178242
0.0009737165
0.001023897
0.001039993
0.001039087
0.001021972
0.0009734074
0.002040068
0.008758986
0.0009736402
0.001023734
0.001039878
0.001038651
0.001021105
0.0009712998
0.002034605
0.00856183
0.0009736595
0.001023942
0.001040206
0.001039172
0.001021829
0.0009723866
0.00204027
0.008861222
0.0009738135
0.001024324
0.001040928
0.001040397
0.001023912
0.0009760098
0.002052073
0.009181217
0.0009740564
0.001024925
0.001041901
0.001042087
0.001026545
0.0009789348
0.002067904
0.009585989
0.0009743122
0.001025503
0.001042993
0.001044127
0.00103089
0.0009846916
0.002086023
0.01022936
0.002171097
0.005721145
0.00440219
0.002080578
0.0009794219
0.0009957788
0.001001124
0.001002305
0.001002658
0.001002787
0.001002872
0.001002944
0.01137732
0.01118594
0.01117025
0.01118156
0.01118548
0.01118566
0.01118571
0.01118577
0.01118585
0.01118596
0.01140666
0.01114662
0.01115973
0.01118057
0.01118663
0.0111871
0.01118824
0.01118836
0.01118843
0.01118853
0.01145095
0.01113903
0.01116108
0.01117508
0.01118636
0.0111866
0.011188
0.0111882
0.01118843
0.01118849
0.01146921
0.01112964
0.01115973
0.01117129
0.01118633
0.01118618
0.01118816
0.01118822
0.01118842
0.01118843
0.01147116
0.01112366
0.01116148
0.01117068
0.01118612
0.01118616
0.01118823
0.01118827
0.01118845
0.01118838
0.01147718
0.01112156
0.01116224
0.01116966
0.01118612
0.01118637
0.01118839
0.01118843
0.01118856
0.0111885
0.01148371
0.01111791
0.01116252
0.01116969
0.01118612
0.01118662
0.01118862
0.01118874
0.0111889
0.01118884
0.01148798
0.01111792
0.0111637
0.01116978
0.01118612
0.01118682
0.01118898
0.01118915
0.01118952
0.01118957
0.01148729
0.0111207
0.01116379
0.01117016
0.01118634
0.01118733
0.01118964
0.01119045
0.01119091
0.01119096
0.01148599
0.01112242
0.01116443
0.01116998
0.0111868
0.01118838
0.01119089
0.01119198
0.01119357
0.01119288
0.01148176
0.01112519
0.01116426
0.01117076
0.01118762
0.01119072
0.01119348
0.01119805
0.01119955
0.01119752
0.01147666
0.01112482
0.01116483
0.01117188
0.01118951
0.01119343
0.0112004
0.01121341
0.01122041
0.01118801
0.01146215
0.01112389
0.01116677
0.01117257
0.0111918
0.01119873
0.01122307
0.01124393
0.01162877
0.01111006
0.01147875
0.01112472
0.01116662
0.01117521
0.01119402
0.01120241
0.01122947
0.01140802
0.01665081
0.01142882
0.01113309
0.01116789
0.01117651
0.01119433
0.01120185
0.01122017
0.01127009
0.003282715
0.01137642
0.01113794
0.01116858
0.01118037
0.01119514
0.01120103
0.01121398
0.01123906
0.002931925
0.01135072
0.01113558
0.01117017
0.01118422
0.01119631
0.01120202
0.01121346
0.01123041
0.003223092
0.01134601
0.01113323
0.01117283
0.01118747
0.01119747
0.01120394
0.01121866
0.01123359
0.003296889
0.01135295
0.01112663
0.0111725
0.01118917
0.01119875
0.01120749
0.01122745
0.01124669
0.003147303
0.01136085
0.01112738
0.01117247
0.01118807
0.01120015
0.01121289
0.01124551
0.01131417
0.003390618
0.0113669
0.01112957
0.01117198
0.0111875
0.01120071
0.01121633
0.01126426
0.01138503
0.004300612
0.01137062
0.01135526
0.01872465
0.01147193
0.002099326
0.0009969833
0.001026147
0.00103515
0.001037392
0.001037997
0.001038202
0.001038294
0.001038385
0.01135382
0.01120156
0.01118281
0.0111687
0.01118736
0.01118809
0.01118818
0.01118825
0.01118834
0.01118846
0.01126107
0.01120452
0.01119263
0.01119097
0.01119061
0.01119063
0.01119066
0.01119072
0.01119079
0.01119089
0.0112648
0.01120024
0.01119193
0.01119105
0.01119064
0.01119071
0.01119071
0.01119076
0.0111908
0.01119086
0.01125868
0.01119521
0.01119174
0.01119095
0.01119067
0.01119082
0.0111908
0.01119081
0.0111908
0.01119081
0.01125631
0.01119479
0.01119188
0.01119094
0.01119084
0.01119092
0.0111909
0.0111909
0.01119085
0.01119079
0.01125613
0.01119502
0.01119209
0.01119103
0.01119103
0.01119104
0.01119104
0.01119105
0.01119099
0.0111909
0.01125771
0.011196
0.01119186
0.01119118
0.01119116
0.01119117
0.01119127
0.01119135
0.01119132
0.01119124
0.01125704
0.01119714
0.01119211
0.01119116
0.01119129
0.01119144
0.0111916
0.0111919
0.01119199
0.011192
0.01125808
0.01119619
0.01119244
0.01119123
0.01119148
0.01119186
0.01119219
0.011193
0.01119335
0.01119336
0.01125686
0.01119527
0.0111926
0.01119136
0.01119174
0.01119258
0.01119342
0.01119521
0.01119597
0.01119562
0.01125777
0.01119835
0.01119272
0.0111916
0.01119213
0.01119356
0.01119617
0.01120048
0.01120228
0.01119984
0.01125893
0.01119598
0.01119289
0.011192
0.0111929
0.01119626
0.01120283
0.0112154
0.0112259
0.01120243
0.01125623
0.01119714
0.01119344
0.01119216
0.01119454
0.01120139
0.0112238
0.01124086
0.01161317
0.01109631
0.01125672
0.01120046
0.01119388
0.01119223
0.01119714
0.01120495
0.01122996
0.0114164
0.01658975
0.01126364
0.01119807
0.01119172
0.011192
0.01119781
0.01120458
0.01122226
0.01126321
0.002879723
0.01125977
0.01120305
0.01119156
0.0111927
0.01119849
0.01120227
0.01121794
0.01123353
0.00249241
0.01125977
0.0111988
0.01119192
0.01119284
0.01119939
0.01120325
0.01121424
0.0007277599
0.01125552
0.01119607
0.01119471
0.01119503
0.01120043
0.01120628
0.01121338
0.000730127
0.01125519
0.0111946
0.01119339
0.0111953
0.01120209
0.011211
0.01122561
0.01074426
0.004215102
0.01125665
0.01119529
0.01119522
0.01119565
0.01120384
0.01121357
0.01124929
0.01126472
0.003047352
0.01125934
0.01119604
0.01119514
0.01119667
0.01120362
0.01121841
0.01126576
0.0113951
0.004279718
0.01134724
0.01869101
0.01157009
0.002102562
0.001003478
0.001036502
0.001047703
0.00105053
0.001051288
0.001051535
0.001051625
0.001051702
0.01139272
0.0112052
0.01117902
0.01116659
0.01118727
0.01118808
0.0111882
0.01118827
0.01118835
0.01118847
0.01127246
0.01119965
0.01119278
0.01119105
0.01119059
0.01119062
0.01119065
0.01119072
0.01119079
0.01119089
0.01125914
0.01120097
0.01119199
0.01119067
0.01119065
0.01119065
0.01119071
0.01119076
0.0111908
0.01119086
0.0112679
0.0111987
0.0111913
0.01119074
0.01119068
0.01119074
0.01119077
0.0111908
0.0111908
0.01119081
0.01127394
0.01120313
0.01119125
0.01119096
0.01119077
0.01119082
0.01119086
0.01119088
0.01119084
0.01119079
0.01126354
0.01120552
0.01119124
0.01119183
0.01119086
0.01119096
0.01119097
0.01119103
0.01119098
0.0111909
0.01127509
0.01120118
0.01119112
0.01119223
0.01119093
0.01119131
0.01119125
0.01119135
0.01119131
0.01119123
0.01127173
0.01119976
0.01119113
0.01119225
0.01119106
0.0111916
0.01119165
0.0111919
0.011192
0.01119201
0.0112756
0.01120027
0.01119137
0.01119235
0.01119125
0.01119202
0.01119234
0.01119302
0.01119335
0.01119337
0.01126677
0.01120386
0.01119142
0.01119254
0.01119148
0.01119267
0.01119361
0.01119515
0.01119593
0.01119573
0.01126958
0.01120121
0.01119183
0.01119245
0.01119187
0.01119356
0.01119607
0.01120046
0.01120239
0.01119989
0.011259
0.01120143
0.01119163
0.01119203
0.01119267
0.01119627
0.01120267
0.01121573
0.01122574
0.01120274
0.01127507
0.01120198
0.01119148
0.0111924
0.01119436
0.01120117
0.01122361
0.01123926
0.01161274
0.0110826
0.01127761
0.01120108
0.01119195
0.01119204
0.0111965
0.0112048
0.0112297
0.01141472
0.01655551
0.01126048
0.01119998
0.011191
0.01119169
0.01119784
0.01120545
0.01122337
0.01126264
0.002852814
0.01127172
0.01119946
0.01119271
0.01119258
0.01119948
0.01120303
0.01121925
0.01123467
0.002512596
0.01126346
0.01119886
0.01119213
0.01119257
0.01119991
0.01120331
0.01121525
0.0007834819
0.01126265
0.01119621
0.01119348
0.01119471
0.0112003
0.01120645
0.01121327
0.0007866246
0.01125811
0.01119625
0.01119351
0.01119533
0.01120182
0.01121122
0.01122561
0.01073372
0.004281698
0.01125982
0.01119663
0.01119491
0.01119581
0.01120397
0.01121357
0.01125153
0.01126005
0.003057456
0.01126367
0.01119782
0.01119447
0.01119667
0.01120356
0.0112184
0.01126628
0.01139636
0.00428099
0.01134706
0.01870871
0.01155588
0.002104033
0.001004853
0.001038708
0.001050396
0.001053417
0.00105424
0.001054508
0.001054597
0.001054669
0.01141931
0.01120432
0.01118037
0.01116373
0.01118714
0.01118806
0.01118818
0.01118826
0.01118835
0.01118847
0.0112595
0.01119601
0.01119281
0.0111907
0.0111905
0.0111906
0.01119064
0.01119071
0.01119078
0.01119089
0.01128231
0.01120068
0.01119137
0.01119071
0.01119061
0.01119063
0.0111907
0.01119076
0.01119079
0.01119086
0.0112584
0.01119778
0.01119088
0.01119104
0.01119067
0.01119074
0.01119075
0.0111908
0.0111908
0.01119081
0.0112734
0.01120106
0.01119143
0.01119147
0.0111908
0.01119089
0.01119087
0.01119089
0.01119084
0.01119079
0.01127473
0.0111989
0.01119188
0.01119154
0.01119093
0.01119111
0.01119103
0.01119106
0.01119099
0.0111909
0.01126126
0.01119807
0.01119237
0.01119112
0.01119121
0.01119115
0.01119126
0.01119137
0.01119133
0.01119125
0.01127369
0.01119673
0.01119243
0.01119122
0.0111913
0.01119135
0.01119157
0.01119188
0.01119199
0.01119201
0.01126052
0.01119929
0.01119259
0.01119131
0.01119143
0.01119168
0.01119205
0.01119295
0.01119332
0.01119335
0.01127214
0.01120063
0.01119259
0.01119168
0.01119172
0.01119253
0.01119338
0.01119506
0.01119588
0.01119569
0.01127088
0.01119878
0.0111925
0.01119201
0.01119203
0.01119361
0.01119577
0.01120036
0.01120223
0.01119963
0.01126791
0.01119851
0.01119306
0.01119197
0.0111928
0.0111962
0.01120261
0.01121575
0.01122559
0.01120268
0.01128802
0.01119902
0.01119319
0.01119209
0.01119476
0.0112013
0.0112238
0.01123945
0.01161248
0.01108297
0.01126749
0.01120186
0.01119313
0.01119224
0.01119741
0.01120512
0.01123022
0.01141506
0.01654572
0.01128212
0.01119594
0.01119112
0.01119167
0.01119768
0.01120441
0.01122259
0.01126324
0.002853767
0.01126203
0.01119691
0.01119225
0.01119191
0.01119855
0.01120239
0.01121869
0.01123473
0.002523855
0.01126288
0.01119518
0.01119216
0.01119165
0.01119981
0.0112036
0.01121504
0.0007998418
0.01125912
0.01119552
0.01119298
0.01119419
0.01119994
0.01120616
0.01121289
0.0008031402
0.01125885
0.01119599
0.01119476
0.01119577
0.01120195
0.01121127
0.01122541
0.01073377
0.004338633
0.01125841
0.01119488
0.01119592
0.01119614
0.01120459
0.0112138
0.01125152
0.01126105
0.003064215
0.01126273
0.0111958
0.01119445
0.01119627
0.01120369
0.01121837
0.01126624
0.01139732
0.004282352
0.01134648
0.01872091
0.0115483
0.0021041
0.001003949
0.001037159
0.001048475
0.001051373
0.001052155
0.001052413
0.001052494
0.001052564
0.01145226
0.01120359
0.01117994
0.01116377
0.01118709
0.01118805
0.01118818
0.01118825
0.01118834
0.01118846
0.01125591
0.01119524
0.01119293
0.01119049
0.01119058
0.01119059
0.01119064
0.01119071
0.01119078
0.01119089
0.01125788
0.01119797
0.01119078
0.01119077
0.01119062
0.01119062
0.0111907
0.01119076
0.0111908
0.01119086
0.01126526
0.01120097
0.01119127
0.01119167
0.0111907
0.01119085
0.01119079
0.01119081
0.0111908
0.0111908
0.0112826
0.01119806
0.01119247
0.01119137
0.01119096
0.01119096
0.01119091
0.01119091
0.01119085
0.01119079
0.01126337
0.01120093
0.01119243
0.01119108
0.01119113
0.01119101
0.01119104
0.01119106
0.011191
0.0111909
0.01126919
0.01120153
0.01119235
0.01119132
0.01119114
0.01119115
0.01119125
0.01119135
0.01119131
0.01119124
0.0112597
0.01119844
0.01119235
0.01119121
0.01119127
0.01119135
0.01119156
0.01119188
0.01119198
0.01119201
0.011274
0.01120052
0.01119269
0.01119131
0.01119143
0.01119166
0.0111921
0.01119296
0.01119331
0.01119335
0.01127462
0.01120274
0.01119316
0.01119137
0.01119167
0.01119243
0.01119327
0.01119502
0.01119584
0.01119567
0.01126276
0.01120153
0.01119336
0.01119171
0.01119238
0.01119351
0.01119583
0.01120025
0.01120214
0.01119967
0.01126105
0.01119735
0.0111927
0.01119176
0.01119271
0.0111962
0.01120276
0.01121576
0.01122558
0.01120273
0.01126298
0.01120089
0.01119397
0.01119167
0.01119504
0.01120109
0.01122349
0.01123901
0.01161236
0.011082
0.01130612
0.01120641
0.01119534
0.01119279
0.01119875
0.01120576
0.01123096
0.01141448
0.01654005
0.01126488
0.01119609
0.01119172
0.01119227
0.01119789
0.01120378
0.01122313
0.01126289
0.002853946
0.01125926
0.01119532
0.01119116
0.01119174
0.01119801
0.01120264
0.01121853
0.01123445
0.002525308
0.01126105
0.01119556
0.01119307
0.01119193
0.01119964
0.0112035
0.01121502
0.0007998493
0.01125832
0.01119575
0.0111932
0.01119387
0.01120026
0.01120623
0.01121299
0.0008030561
0.01125746
0.01119569
0.01119399
0.01119548
0.01120174
0.01121111
0.01122529
0.01073402
0.004337715
0.01125811
0.0111949
0.01119616
0.01119626
0.01120465
0.01121391
0.01125157
0.01126078
0.003064109
0.01126158
0.01119567
0.01119446
0.01119631
0.01120372
0.01121836
0.01126624
0.01139787
0.004282116
0.01134617
0.01872611
0.011549
0.002102897
0.0009983327
0.001028136
0.001037374
0.001039727
0.001040346
0.001040561
0.001040614
0.001040673
0.0114088
0.01120556
0.01118532
0.01116742
0.01118729
0.01118805
0.01118817
0.01118824
0.01118833
0.01118845
0.01126541
0.01119883
0.01119277
0.01119065
0.01119076
0.01119058
0.01119065
0.01119072
0.01119079
0.01119089
0.01128658
0.01120874
0.0111917
0.01119177
0.01119061
0.01119074
0.01119071
0.01119076
0.0111908
0.01119086
0.01125776
0.0111972
0.01119186
0.01119086
0.01119087
0.01119078
0.01119079
0.0111908
0.01119081
0.01119081
0.01127135
0.01120702
0.01119141
0.01119174
0.01119073
0.01119093
0.01119084
0.01119088
0.01119084
0.01119078
0.01128337
0.01120518
0.01119157
0.01119196
0.01119084
0.01119108
0.011191
0.01119104
0.01119098
0.01119089
0.01126641
0.01120516
0.01119126
0.0111922
0.01119092
0.01119132
0.01119127
0.01119135
0.0111913
0.01119122
0.01127771
0.01120071
0.01119128
0.01119222
0.01119107
0.01119158
0.01119162
0.01119189
0.01119198
0.01119199
0.0112753
0.01120131
0.01119124
0.01119226
0.01119124
0.01119202
0.01119231
0.011193
0.01119332
0.01119334
0.01127429
0.01120307
0.01119168
0.01119214
0.01119147
0.01119262
0.01119355
0.01119509
0.01119587
0.01119568
0.01126909
0.01120568
0.0111925
0.01119223
0.01119193
0.0111936
0.01119618
0.01120044
0.01120229
0.01119983
0.0112574
0.01119716
0.01119159
0.01119208
0.01119266
0.01119626
0.0112027
0.0112158
0.01122574
0.01120277
0.01128254
0.01119891
0.01119129
0.01119211
0.01119441
0.01120104
0.01122367
0.01123953
0.01161178
0.01108041
0.01129796
0.01120575
0.01119143
0.0111914
0.01119528
0.01120416
0.01122937
0.01141317
0.01653611
0.0112633
0.01119826
0.01119654
0.01119154
0.01120039
0.01120602
0.01122414
0.01126319
0.002854816
0.0112697
0.01119393
0.01119268
0.0111932
0.01119922
0.01120214
0.01121901
0.01123439
0.002521969
0.01126101
0.01119621
0.01119184
0.0111926
0.0111989
0.01120345
0.01121517
0.0007835874
0.01125821
0.01119537
0.01119624
0.01119426
0.01120067
0.01120672
0.0112134
0.0007863418
0.01125708
0.01119759
0.01119354
0.01119532
0.01120172
0.01121109
0.0112254
0.01073388
0.004331684
0.01126018
0.01119696
0.01119481
0.01119593
0.01120414
0.01121358
0.01125123
0.01125695
0.003057479
0.01126306
0.01119774
0.01119455
0.01119659
0.01120362
0.0112182
0.01126622
0.01139856
0.004280885
0.01134597
0.01872412
0.01154976
0.002093474
0.0009824506
0.001000123
0.001005887
0.001007093
0.001007417
0.001007666
0.001007568
0.001007668
0.01140648
0.01120418
0.01118927
0.0111726
0.01118746
0.01118802
0.01118812
0.01118819
0.01118828
0.01118839
0.01126634
0.01119791
0.01119307
0.01119108
0.01119058
0.01119064
0.01119065
0.01119071
0.01119079
0.01119089
0.01125265
0.01119611
0.01119251
0.01119072
0.01119069
0.01119066
0.01119071
0.01119076
0.0111908
0.01119086
0.01128241
0.01120468
0.01119142
0.01119189
0.01119067
0.01119086
0.0111908
0.01119081
0.0111908
0.01119081
0.01125398
0.01119899
0.01119109
0.01119196
0.01119086
0.01119102
0.01119091
0.01119091
0.01119085
0.01119079
0.01127155
0.01119658
0.01119361
0.01119138
0.01119103
0.01119106
0.01119106
0.01119107
0.01119099
0.0111909
0.01125883
0.01119715
0.01119307
0.01119128
0.01119116
0.01119119
0.01119127
0.01119135
0.01119131
0.01119123
0.01125798
0.01119844
0.01119211
0.01119137
0.01119129
0.01119143
0.0111916
0.01119189
0.01119197
0.01119198
0.01126082
0.01119784
0.01119307
0.01119138
0.01119145
0.01119184
0.01119216
0.01119296
0.01119331
0.01119331
0.0112764
0.01119635
0.01119415
0.0111918
0.01119186
0.01119256
0.01119343
0.01119514
0.0111959
0.01119556
0.01125338
0.01119895
0.01119103
0.01119235
0.01119214
0.01119374
0.01119615
0.0112005
0.01120221
0.01119977
0.01126516
0.0111979
0.01119122
0.01119179
0.0111926
0.01119618
0.01120267
0.01121542
0.01122588
0.01120237
0.01126845
0.01119718
0.0111915
0.01119221
0.01119424
0.0112013
0.01122376
0.01124088
0.01161072
0.01109208
0.01126165
0.01119758
0.01119613
0.01119249
0.01119762
0.0112048
0.01123002
0.01141428
0.01654203
0.011288
0.01120105
0.01119146
0.01119175
0.01119698
0.01120332
0.01122224
0.01126315
0.002858096
0.01125902
0.01119488
0.0111939
0.01119144
0.0111999
0.0112035
0.01121826
0.01123399
0.002503457
0.01127239
0.01119382
0.01119259
0.01119342
0.01119936
0.01120282
0.01121439
0.0007283394
0.01126538
0.01119751
0.01119373
0.01119418
0.01120015
0.01120615
0.0112135
0.0007297731
0.01127029
0.01119731
0.01119378
0.01119533
0.01120175
0.01121098
0.01122488
0.0107458
0.004210272
0.01125636
0.01119652
0.0111965
0.01119631
0.01120403
0.01121363
0.01124756
0.01124942
0.002957845
0.01125807
0.01119641
0.01119512
0.01119664
0.01120373
0.01121779
0.01126617
0.01140361
0.004152262
0.01134159
0.01868096
0.01154473
0.002071773
0.002134752
0.002204305
0.002219537
0.002216356
0.002217821
0.002220773
0.002217387
0.002220065
0.01145228
0.01116471
0.01116836
0.0111872
0.01118771
0.01118775
0.01118789
0.01118842
0.01118835
0.01118652
0.01134118
0.01113581
0.01116552
0.01117965
0.01118638
0.011187
0.01118825
0.01118835
0.01118843
0.01118855
0.01127444
0.01105932
0.01116409
0.01117324
0.01118683
0.01118701
0.01118802
0.01118838
0.01118844
0.01118832
0.01127603
0.01105312
0.0111651
0.01117044
0.01118621
0.01118645
0.01118826
0.01118839
0.01118843
0.01118843
0.01126931
0.01104667
0.01116668
0.01116824
0.01118547
0.01118621
0.01118828
0.01118844
0.01118846
0.01118831
0.01133478
0.011112
0.01117294
0.01117391
0.0111863
0.01118621
0.01118813
0.01118825
0.01118848
0.01118839
0.0113334
0.01111493
0.01116457
0.01116977
0.01118488
0.01118596
0.01118853
0.01118858
0.01118877
0.01118876
0.01133186
0.01111203
0.01116284
0.01117037
0.01118505
0.01118622
0.0111888
0.01118889
0.01118931
0.01118943
0.01133413
0.01110886
0.0111653
0.01117054
0.01118628
0.01118723
0.01118961
0.0111904
0.0111908
0.01119091
0.01136288
0.01110528
0.01117207
0.01117344
0.01118717
0.01118854
0.01119086
0.0111919
0.01119336
0.01119255
0.01128098
0.01104658
0.01116817
0.01116934
0.01118855
0.01119092
0.01119335
0.01119803
0.01119942
0.01119743
0.01126958
0.01105046
0.01116695
0.01117038
0.01118941
0.01119352
0.01120021
0.01121339
0.01122124
0.01118802
0.01134966
0.01109911
0.01117048
0.01117277
0.01119171
0.01119869
0.0112231
0.01124321
0.01161788
0.01112132
0.01134734
0.01110764
0.01117469
0.0111764
0.01119424
0.01120257
0.01122936
0.01141168
0.01657618
0.01127012
0.01104375
0.01117202
0.01117224
0.01119535
0.01120259
0.01122049
0.01126977
0.002943329
0.01127654
0.01103868
0.01117119
0.01117905
0.01119563
0.01119999
0.01121434
0.01124029
0.002498188
0.01126036
0.01105618
0.01117633
0.0111773
0.01119704
0.01120153
0.0112137
0.01123082
0.004519284
0.01127793
0.0110664
0.01117873
0.0111807
0.01119822
0.01120313
0.01121894
0.01123694
0.004611856
0.01133445
0.01111173
0.01117918
0.01118626
0.01119928
0.01120714
0.01122748
0.01121371
0.003359635
0.011413
0.01112138
0.01117612
0.01118689
0.01120044
0.01121272
0.01124269
0.01131911
0.002502338
0.01136436
0.0111275
0.01117436
0.01118772
0.01120114
0.01121569
0.01126554
0.01133522
0.003561654
0.0113666
0.01134731
0.01848791
0.01147064
0.004541341
0.004853233
0.002137354
0.004951888
0.004837843
0.004891198
0.004852464
0.004837754
0.004911406
0.01153178
0.0009461653
0.0009679775
0.0009747399
0.0009762672
0.0009773596
0.0009777273
0.0009776022
0.0009775312
0.0009781341
0.01184505
0.0009676092
0.001009131
0.001022165
0.001025391
0.001026648
0.001026971
0.001027006
0.001026953
0.00102699
0.01134699
0.0009775686
0.001022759
0.001038878
0.001043102
0.001044689
0.001045129
0.001045205
0.001045097
0.001045
0.01134354
0.0009808289
0.001026721
0.00104374
0.001048466
0.001050258
0.001050778
0.001050865
0.001050695
0.001050506
0.01134472
0.0009814439
0.001027742
0.001045245
0.001050233
0.001052169
0.001052746
0.001052831
0.001052618
0.001052362
0.01141073
0.0009784402
0.001027754
0.001045741
0.001050989
0.001053016
0.001053567
0.00105363
0.001053394
0.001053097
0.01147998
0.0009777028
0.001027566
0.001045825
0.001051205
0.001053203
0.001053803
0.001053874
0.001053637
0.001053327
0.01148786
0.000977488
0.001027355
0.001045772
0.001051191
0.001053148
0.001053669
0.001053686
0.001053423
0.001053097
0.01149629
0.0009772379
0.001027342
0.001045522
0.001050841
0.001052603
0.001052877
0.001052643
0.001052219
0.001051814
0.01143215
0.0009782207
0.001027585
0.001045368
0.00105018
0.001051243
0.001050366
0.001049024
0.001047813
0.00104696
0.01136242
0.0009811029
0.001027556
0.001044779
0.001048711
0.001046964
0.00104167
0.001036579
0.001031949
0.001029167
0.01135996
0.0009803349
0.001027124
0.001043954
0.001046575
0.001040368
0.001013887
0.001003352
0.00098174
0.0009772001
0.01140429
0.0009780714
0.001026535
0.001042983
0.001044199
0.001033712
0.001003097
0.009684878
0.0116037
0.01114362
0.01147835
0.0009770514
0.001025737
0.001041865
0.001041913
0.001027935
0.0009814695
0.01023766
0.01665676
0.01137662
0.0009793323
0.001025578
0.001041141
0.001040349
0.001024687
0.0009796644
0.01052571
0.003683812
0.01136394
0.0009804529
0.0010256
0.001040689
0.001039449
0.001023179
0.0009790691
0.01065543
0.003393627
0.01135485
0.0009811512
0.001025837
0.001040607
0.001038986
0.00102204
0.0009749176
0.01072486
0.003416068
0.01136944
0.0009807321
0.001025948
0.001040858
0.00103943
0.00102233
0.0009737566
0.01072933
0.003441822
0.01142518
0.0009780204
0.001026053
0.001041382
0.001040644
0.00102427
0.0009768167
0.01067167
0.003449771
0.01147665
0.0009770712
0.001026035
0.001042246
0.001042266
0.001026925
0.0009804454
0.01053455
0.003471449
0.01157266
0.0009760234
0.001026053
0.001043042
0.001044055
0.001030975
0.0009855875
0.01025216
0.004133425
0.01166251
0.009442776
0.01891672
0.01208473
0.00513618
0.001969328
0.004851741
0.01162203
0.01116203
0.004757978
0.002021705
0.002093855
0.002085274
0.002148981
0.01110927
0.01115408
0.00475352
0.002113643
0.002124525
0.002116872
0.00216873
0.01109419
0.01104336
0.004757244
0.002128681
0.00212961
0.002182752
0.002189777
0.01112971
0.0110715
0.004759907
0.002131622
0.002131094
0.002192862
0.002192623
0.01112048
0.01108705
0.004761876
0.002132418
0.002131599
0.002194252
0.002193302
0.01111678
0.0110886
0.00476378
0.002132876
0.002131986
0.002194764
0.002193703
0.01111511
0.01108759
0.00476577
0.002133204
0.002132238
0.002195164
0.002194092
0.0111147
0.01108661
0.004767902
0.002133369
0.002132261
0.002195572
0.002194531
0.01111481
0.01108475
0.002133327
0.00219609
0.01111487
0.001951697
0.002004234
0.01151229
0.0110334
0.01157345
0.0110751
0.002017268
0.002023584
0.01152453
0.01107106
0.01159841
0.01106463
0.002025317
0.002026401
0.01152905
0.01109234
0.01161803
0.0110654
0.002026636
0.002027209
0.01152954
0.01109484
0.01163933
0.01107443
0.002027407
0.002027679
0.01152875
0.01109418
0.0116568
0.01108145
0.002027604
0.002027874
0.01152817
0.01109342
0.01167674
0.01107374
0.002027753
0.002027994
0.01152424
0.01109107
0.01168802
0.0110732
0.002027834
0.002027867
0.01151818
0.01108621
0.01168934
0.01107166
0.002027717
0.002027381
0.01151472
0.01108196
0.01168263
0.01107072
0.002027521
0.002027651
0.01151479
0.01108092
0.01168004
0.0110645
0.002027441
0.002027384
0.01151354
0.0110852
0.01166854
0.01107515
0.002026947
0.002026409
0.01151977
0.01110299
0.01163823
0.01109389
0.002027256
0.002027449
0.01153158
0.01110507
0.01160113
0.01110905
0.002094678
0.004506954
0.004334789
0.01160364
0.01131236
0.01167623
0.004419775
0.002027513
0.002026271
0.01153937
0.01109742
0.01152395
0.01110005
0.009265979
0.01664034
0.00397085
0.002026041
0.002026548
0.01162327
0.01108184
0.01150114
0.01108531
0.008781448
0.003662897
0.003363288
0.002027027
0.002025484
0.01155709
0.01106141
0.01155848
0.01106763
0.008572169
0.003351747
0.003365023
0.002025919
0.002025
0.01158209
0.01105417
0.01159002
0.01106891
0.008836399
0.003377559
0.003421461
0.002026824
0.002025344
0.01158805
0.01105645
0.0115955
0.01107665
0.0091196
0.003429667
0.003443164
0.002027958
0.002025923
0.01160028
0.0110632
0.01162189
0.0110822
0.009463942
0.003446832
0.003465548
0.002029048
0.002026608
0.0116219
0.0110648
0.01164087
0.01108486
0.01000163
0.003531924
0.004191077
0.002029987
0.002027186
0.01163689
0.01106416
0.01164827
0.01108543
0.01103476
0.009386879
0.004316146
0.03781667
0.006392944
0.009786599
0.005470632
0.002030549
0.01164289
0.01106386
0.0048555
0.01153297
0.01126475
0.004873655
0.01152008
0.01130152
0.01135675
0.0116878
0.004444138
0.01161941
0.01136091
0.01166308
0.004469088
0.00368508
0.01658941
0.003424805
0.03660465
0.006418875
0.004281044
0.03671675
0.006459863
0.004878106
0.01152532
0.01129495
0.004882654
0.01152033
0.01131784
0.01134788
0.0116662
0.004465522
0.01161171
0.0113505
0.01165299
0.004471399
0.003419107
0.01656027
0.003416618
0.03637963
0.006467608
0.004281134
0.03654138
0.006468802
0.004879574
0.01153589
0.01131979
0.00488703
0.0115281
0.01132119
0.0113495
0.01165887
0.004472085
0.01161218
0.01134995
0.01164831
0.00447365
0.0034169
0.01655115
0.003417987
0.03645884
0.006473651
0.004282262
0.03655412
0.006471235
0.004886569
0.01154259
0.01133435
0.004889072
0.01154745
0.0113293
0.01135003
0.01165552
0.004474104
0.01161268
0.0113502
0.01164843
0.004474389
0.003418178
0.01654279
0.003418442
0.03652466
0.006473669
0.004282253
0.03656568
0.006473291
0.004890186
0.01154725
0.01134296
0.0048892
0.01153656
0.01133552
0.01134999
0.0116562
0.004474208
0.01161177
0.01134962
0.01165003
0.004474142
0.003418675
0.01653556
0.003418418
0.0365576
0.006472331
0.0042815
0.03655166
0.006473607
0.004889121
0.01153354
0.01133046
0.004886037
0.01153793
0.01132297
0.01134951
0.01165514
0.004473512
0.01161193
0.01134912
0.01165185
0.004471881
0.003418166
0.01654105
0.003417145
0.03655125
0.006471411
0.004240279
0.03644393
0.006473673
0.004884794
0.01153586
0.01132688
0.004873056
0.01152457
0.01130401
0.003416829
0.01657102
0.003419754
0.03624572
0.006469177
0.003607734
0.03488165
0.006467003
0.004870773
0.01152746
0.01131055
0.004696436
0.01153402
0.01127492
0.003425778
0.0166415
0.003688974
0.03484209
0.006457903
0.003818843
0.0347223
0.006446076
0.004863996
0.01162486
0.01117566
0.001945117
0.004716201
0.01113053
0.0111363
0.001984457
0.002039827
0.004835065
0.01115888
0.01103732
0.002036225
0.002058923
0.00490713
0.01111108
0.01109312
0.005247717
0.002075844
0.002059601
0.0048981
0.01116058
0.01105614
0.002041722
0.002047646
0.004813749
0.01112955
0.01107962
0.002070645
0.002074215
0.002132632
0.01115341
0.01108849
0.005216394
0.00207461
0.002079664
0.004890631
0.01116298
0.01106203
0.002064727
0.002052906
0.01116841
0.002061536
0.01103131
0.01169742
0.0110939
0.001948209
0.002007664
0.01105438
0.01142292
0.01100227
0.002037474
0.002055626
0.01121948
0.01135474
0.01116437
0.002087482
0.004389191
0.002101229
0.01120589
0.01133726
0.01119802
0.004397682
0.002119466
0.004455584
0.002123142
0.01122049
0.0113503
0.0112319
0.004416141
0.002123036
0.004475107
0.002120312
0.01113187
0.01140118
0.01109894
0.004449038
0.002113233
0.004385927
0.002090984
0.01108828
0.01153487
0.01109225
0.002063399
0.002044263
0.01110448
0.01162078
0.01107726
0.002058384
0.002052105
0.0110711
0.01156609
0.01106677
0.002036164
0.002061433
0.01107692
0.01141812
0.0111528
0.004394539
0.002090359
0.004452998
0.002111335
0.01123107
0.01134444
0.01120763
0.004424162
0.002119368
0.004465498
0.002120692
0.01120185
0.01135558
0.01121079
0.004442017
0.002118066
0.004371576
0.002101846
0.01106393
0.01153049
0.0110771
0.002083381
0.002062352
0.01132474