/*--------------------------------*- C++ -*----------------------------------*\
  =========                 |
  \\      /  F ield         | OpenFOAM: The Open Source CFD Toolbox
   \\    /   O peration     | Website:  https://openfoam.org
    \\  /    A nd           | Version:  7
     \\/     M anipulation  |
\*---------------------------------------------------------------------------*/
FoamFile
{
    version     2.0;
    format      ascii;
    class       volScalarField;
    location    "0.06";
    object      p;
}
// * * * * * * * * * * * * * * * * * * * * * * * * * * * * * * * * * * * * * //

dimensions      [0 2 -2 0 0 0 0];

internalField   nonuniform List<scalar> 
78470
(
2.780309
2.784109
2.767316
2.751984
2.741771
2.72855
2.716744
2.702925
2.686476
2.797794
2.850939
2.704233
2.776414
2.720263
2.733093
2.709944
2.702532
2.683286
2.79791
2.862279
2.71296
2.813043
2.729435
2.735525
2.715832
2.711817
2.697845
2.766033
2.894801
2.682348
2.819856
2.723655
2.74742
2.720615
2.725365
2.714785
2.747222
2.925746
2.65893
2.829004
2.719191
2.742223
2.722146
2.730495
2.729192
2.725959
2.957725
2.641468
2.819766
2.716303
2.753445
2.731446
2.745981
2.74979
2.714421
2.994604
2.636067
2.82403
2.713737
2.749118
2.727166
2.743226
2.749415
2.691141
3.003259
2.641818
2.831086
2.714977
2.755579
2.730365
2.740353
2.746182
2.660764
3.088728
2.667764
2.847625
2.717338
2.751064
2.717937
2.716526
2.710244
2.681833
3.094004
2.666705
2.855196
2.716695
2.744171
2.710078
2.679801
2.669585
2.677854
3.086093
2.669181
2.873531
2.722596
2.745532
2.694435
2.638364
2.562298
2.692336
3.013973
2.659942
2.884686
2.734987
2.748932
2.69563
2.503823
2.44792
2.691512
3.040132
2.676163
2.907194
2.775593
2.805563
2.706113
2.455445
2.142948
2.700742
2.984257
2.672775
2.933093
2.805228
2.862742
2.795684
2.653042
1.91992
2.684118
2.964507
2.654492
3.004772
2.961257
3.081167
3.002329
2.197373
2.651432
2.927622
2.617227
3.009784
2.973463
3.113588
3.15447
3.221402
2.626481
2.85866
2.623426
2.936647
2.904772
3.073118
3.151587
3.234628
2.522583
2.772868
2.556259
2.843027
2.806212
2.971028
3.061245
3.138404
2.43294
2.655753
2.455981
2.726047
2.663068
2.829632
2.915587
2.994071
2.304159
2.514854
2.316818
2.552168
2.473273
2.611543
2.70998
2.790986
2.173732
2.368644
2.150297
2.365336
2.23735
2.33621
2.402286
2.48115
2.022011
2.199723
1.958112
2.110716
1.917953
1.894478
1.891354
1.822326
1.078228
-0.57128
-2.058569
2.7158
2.74205
2.748543
2.749251
2.731335
2.722923
2.708046
2.695084
2.674513
3.111161
2.665303
2.750141
2.716151
2.761756
2.725229
2.732838
2.710513
2.702665
2.682927
3.045266
2.681214
2.781773
2.709262
2.779173
2.725119
2.737293
2.714588
2.711069
2.695414
2.994044
2.601002
2.807154
2.676111
2.795914
2.716834
2.750866
2.720393
2.726419
2.714248
2.96786
2.611673
2.820566
2.667852
2.804179
2.71534
2.753806
2.723757
2.734067
2.728945
2.961496
2.600533
2.822679
2.648209
2.811664
2.709282
2.760951
2.730647
2.746934
2.749158
2.964588
2.586159
2.814499
2.633983
2.813317
2.706886
2.75423
2.725004
2.741191
2.746995
2.962137
2.602383
2.824114
2.641332
2.82524
2.70677
2.742886
2.723831
2.735997
2.744301
2.962335
2.596792
2.766981
2.636259
2.825752
2.700538
2.734565
2.708896
2.710285
2.707233
2.962236
2.592236
2.762999
2.634589
2.829882
2.699598
2.72616
2.701955
2.67287
2.668176
2.976077
2.567966
2.778774
2.634376
2.847103
2.707797
2.735355
2.683204
2.635516
2.557631
2.984046
2.57903
2.81324
2.640525
2.852344
2.726586
2.749002
2.7029
2.482327
2.448232
2.992037
2.562415
2.823622
2.652766
2.887331
2.761012
2.799753
2.676149
2.442227
2.104921
2.97718
2.558362
2.81769
2.655808
2.908846
2.790685
2.837005
2.815561
2.731391
1.913833
2.916918
2.588175
2.854224
2.685033
2.965729
2.912409
3.097144
3.005068
2.055499
2.861597
2.532253
2.865362
2.654801
2.957781
2.929975
3.141921
3.167141
3.228577
2.801594
2.509921
2.80669
2.644752
2.929619
2.885968
3.091968
3.155828
3.208594
2.708272
2.430973
2.727616
2.572829
2.839353
2.80547
2.984058
3.059265
3.103008
2.600337
2.353146
2.614597
2.474481
2.725755
2.666378
2.848662
2.90973
2.943474
2.485396
2.226603
2.478936
2.331705
2.54868
2.477545
2.623406
2.712299
2.750908
2.348984
2.111357
2.331342
2.163247
2.359603
2.231778
2.342808
2.393019
2.363216
2.211413
1.952856
2.167785
1.96689
2.103403
1.918005
1.855474
1.848952
1.620128
2.066997
1.028505
-0.501757
-1.685544
2.740763
2.770969
2.743921
2.787331
2.73096
2.729566
2.708494
2.697699
2.677725
3.002293
2.707883
2.812906
2.710545
2.795381
2.725236
2.738916
2.708042
2.7017
2.6824
3.067727
2.750739
2.939635
2.691981
2.845236
2.714858
2.734238
2.707001
2.7046
2.692787
2.997364
2.675971
2.961941
2.66132
2.861706
2.706233
2.748855
2.714171
2.724872
2.71213
3.055429
2.63342
3.028585
2.625479
2.881416
2.698104
2.739865
2.712672
2.728774
2.725918
3.005918
2.63012
3.052767
2.604926
2.890355
2.700012
2.754764
2.7234
2.746223
2.746551
3.030444
2.593688
3.095894
2.589414
2.902075
2.704089
2.755176
2.718395
2.739028
2.746005
3.034221
2.584847
3.112461
2.592737
2.893643
2.70969
2.768152
2.725396
2.740947
2.746609
3.030457
2.537002
3.150678
2.61696
2.909089
2.711302
2.774065
2.711455
2.715277
2.710083
3.027382
2.544488
3.161495
2.623962
2.917737
2.717771
2.769624
2.708069
2.680222
2.671734
3.018939
2.565469
3.152495
2.619348
2.931263
2.706604
2.767104
2.68282
2.645696
2.559001
2.996917
2.573266
3.122443
2.616679
2.960202
2.727182
2.757567
2.707183
2.478041
2.447541
2.993911
2.536184
3.123523
2.606652
2.976506
2.75526
2.821406
2.669679
2.457544
2.117307
2.991518
2.570997
3.104489
2.61
3.007796
2.78816
2.843038
2.828164
2.730413
1.89828
2.975829
2.574935
3.063968
2.581925
3.056834
2.941788
3.126166
3.014748
2.07085
2.942394
2.48704
3.017295
2.547318
3.050211
2.965829
3.163611
3.227582
3.238646
2.898082
2.533057
2.944113
2.559141
2.985965
2.885146
3.117708
3.158734
3.199477
2.919729
2.322238
2.839639
2.491679
2.87636
2.802846
2.992079
3.056427
2.692253
2.304207
2.722936
2.407804
2.7692
2.654663
2.859346
2.903152
2.620222
2.15926
2.584153
2.264601
2.58865
2.47335
2.621864
2.695866
3.003119
2.418978
2.060491
2.441802
2.097766
2.407068
2.214971
2.363441
2.387011
2.362064
2.343341
1.880172
2.286878
1.896162
2.14218
1.892663
1.834974
1.83308
1.531295
1.010997
-0.5171247
-1.718621
2.745992
2.746837
2.727247
2.776681
2.72131
2.724721
2.705329
2.695678
2.675044
2.953316
2.669307
2.806445
2.700196
2.789532
2.722554
2.740882
2.70746
2.701768
2.681914
3.062884
2.621578
2.906011
2.674113
2.831679
2.707384
2.737453
2.706083
2.706494
2.69243
3.101458
2.469576
2.95295
2.626765
2.860909
2.701177
2.750623
2.715712
2.727646
2.71313
3.081672
2.505073
3.021421
2.600993
2.886716
2.701208
2.756107
2.715252
2.732953
2.727317
3.015942
2.508479
3.039852
2.571324
2.895682
2.719617
2.782504
2.729658
2.752219
2.750586
3.329842
2.32588
3.075173
2.540345
2.893574
2.708018
2.783279
2.725506
2.74727
2.748176
3.010135
2.47354
3.079923
2.549904
2.911402
2.704604
2.762583
2.723188
2.740153
2.746177
3.304447
2.344492
3.139764
2.548697
2.918994
2.689223
2.75383
2.704658
2.710039
2.7084
3.012346
2.463749
3.134694
2.565343
2.927075
2.686828
2.738851
2.699522
2.67583
2.670514
3.33497
2.328147
3.16593
2.554878
2.932015
2.685619
2.749827
2.679206
2.64251
2.55697
3.103885
2.420863
3.136389
2.572015
2.948924
2.708218
2.763725
2.71072
2.472693
2.445951
3.360628
2.304512
3.163135
2.556997
2.973372
2.747995
2.823472
2.655896
2.454427
2.107478
3.33981
2.248254
3.103149
2.549526
2.999238
2.781855
2.851675
2.823381
2.728765
1.888725
2.960761
2.457112
3.059532
2.538377
3.084501
2.952463
3.140657
3.00823
2.063869
3.075675
2.324829
3.055025
2.508698
3.078474
2.987193
3.183665
3.231183
3.243525
2.841086
2.447888
2.921134
2.559641
2.994139
2.876492
3.134874
3.152111
3.198852
2.868485
2.357052
2.842829
2.507313
2.884426
2.806766
3.002833
3.040502
2.655757
2.347853
2.701551
2.429063
2.772134
2.660406
2.870891
2.898409
2.685567
2.140006
2.56941
2.285336
2.585198
2.472299
2.643456
2.662009
3.163427
2.369808
2.080173
2.419212
2.122909
2.402901
2.21539
2.365566
2.360266
2.32418
2.413063
1.846948
2.276011
1.913225
2.135012
1.89119
1.824397
1.805399
1.487559
0.981671
-0.5260709
-1.72724
2.745175
2.78282
2.734141
2.798666
2.721423
2.72563
2.704195
2.694514
2.67422
2.954045
2.660579
2.813356
2.696604
2.807186
2.724236
2.746606
2.703697
2.699317
2.680503
3.068089
2.682318
2.95804
2.671376
2.860682
2.702416
2.736489
2.701866
2.701226
2.690804
3.001685
2.55273
3.01462
2.627567
2.891584
2.705162
2.751464
2.712318
2.725877
2.710779
3.350329
2.417799
3.104792
2.570959
2.905796
2.697742
2.757068
2.710544
2.729308
2.72568
3.098733
2.499672
3.160754
2.546327
2.901077
2.696084
2.763311
2.719931
2.746606
2.745444
3.162747
2.465599
3.228574
2.525616
2.892934
2.683758
2.75301
2.712441
2.736185
2.744544
3.332771
2.27429
3.260547
2.517731
2.883373
2.674882
2.762481
2.721682
2.739666
2.745862
3.189112
2.366465
3.290566
2.523109
2.920741
2.690795
2.762916
2.702366
2.710991
2.708912
3.340021
2.198419
3.320135
2.552438
2.92785
2.688732
2.752013
2.699216
2.679172
2.671022
3.178356
2.517087
3.290952
2.548297
2.923039
2.671766
2.746849
2.67558
2.645198
2.554682
3.091517
2.421719
3.258536
2.548974
2.940525
2.702152
2.762917
2.708148
2.468298
2.443192
3.378614
2.341335
3.247601
2.553531
2.954005
2.728165
2.824251
2.651866
2.458782
2.105688
3.127591
2.378964
3.200799
2.556613
3.020829
2.77041
2.855271
2.826707
2.729043
1.885681
3.120143
2.418699
3.1665
2.51909
3.079983
2.917978
3.139714
3.010387
2.062953
3.293525
2.247281
3.0881
2.470707
3.093812
2.980542
3.187859
3.237233
3.247798
2.885813
2.507688
2.988789
2.51714
3.019701
2.868191
3.141227
3.156888
3.202163
3.084198
2.215048
2.866032
2.454057
2.892947
2.800781
3.004932
3.046359
2.635391
2.299621
2.739608
2.390693
2.787538
2.64771
2.874446
2.900857
2.703225
2.110584
2.597315
2.25302
2.60227
2.465257
2.648817
2.671003
2.883319
2.373819
2.047754
2.453496
2.094603
2.424424
2.20475
2.367072
2.360512
2.325448
2.396324
1.845831
2.301205
1.892876
2.146161
1.878447
1.821695
1.79822
1.472562
0.9744199
-0.532766
-1.739279
2.744749
2.77212
2.722857
2.791962
2.718546
2.722749
2.703145
2.694963
2.675489
2.962136
2.634384
2.800113
2.679519
2.803217
2.719247
2.746183
2.704228
2.700206
2.682163
3.051525
2.70542
2.948868
2.669883
2.860053
2.698344
2.728987
2.700163
2.700386
2.691673
3.18677
2.383949
3.008328
2.58811
2.879718
2.696379
2.756598
2.717353
2.729299
2.713492
3.128359
2.470855
3.07625
2.563021
2.916763
2.695505
2.75255
2.711404
2.73069
2.727902
3.116724
2.421521
3.178344
2.538899
2.883666
2.685103
2.76917
2.723019
2.753402
2.752346
3.550261
2.079551
3.242826
2.543146
2.892022
2.683313
2.778908
2.724579
2.753598
2.754933
3.128965
2.535138
3.253335
2.540829
2.8918
2.669501
2.764404
2.720782
2.743376
2.74977
3.551893
2.086914
3.285544
2.529113
2.907048
2.701993
2.786573
2.715352
2.723788
2.716449
3.22163
2.283501
3.313959
2.584625
2.935216
2.689101
2.770465
2.707178
2.686339
2.676945
3.241636
2.329419
3.302049
2.57018
2.947287
2.687949
2.771867
2.684976
2.65252
2.563113
3.595664
1.94032
3.267117
2.569714
2.96712
2.715439
2.780564
2.716493
2.483138
2.452864
3.033359
2.568484
3.206504
2.566285
2.995458
2.745055
2.828296
2.658547
2.464941
2.108525
3.6164
1.887653
3.214283
2.593806
3.04605
2.808651
2.874847
2.83091
2.7332
1.89153
3.065833
2.373685
3.155411
2.483007
3.10236
2.9693
3.155762
3.013549
2.06545
3.048
2.385885
3.075813
2.47609
3.10361
2.965857
3.199484
3.243825
3.247524
3.080297
2.241942
3.002346
2.469042
3.018072
2.894744
3.148143
3.157821
3.203403
2.707458
2.379891
2.847468
2.470603
2.891996
2.793319
3.007124
3.045776
2.728425
2.225825
2.738008
2.383562
2.788758
2.65525
2.879714
2.906381
2.480748
2.179011
2.580776
2.256988
2.596686
2.463609
2.653285
2.672808
3.044784
2.367944
2.051382
2.445445
2.097305
2.425534
2.206452
2.366398
2.352251
2.311442
2.238192
1.902211
2.285492
1.898099
2.144716
1.878718
1.824833
1.793328
1.467343
0.9693063
-0.5338489
-1.730596
2.760667
2.786023
2.738442
2.792326
2.729919
2.738199
2.708981
2.697897
2.676207
2.971312
2.640203
2.811266
2.699138
2.806825
2.720761
2.742272
2.707805
2.700604
2.683176
3.061912
2.660936
2.934589
2.674209
2.84502
2.71111
2.7537
2.708515
2.711182
2.695207
3.029698
2.566368
3.014139
2.637747
2.898904
2.697805
2.734853
2.708959
2.716719
2.710951
3.363558
2.388209
3.075202
2.57384
2.897834
2.735737
2.781934
2.734415
2.741534
2.73078
3.05847
2.524136
3.122691
2.568999
2.92689
2.691568
2.75123
2.71609
2.743942
2.745509
3.074709
2.481745
3.10428
2.547187
2.918118
2.70083
2.770081
2.719207
2.74233
2.747175
3.186738
2.363325
3.172432
2.540723
2.904914
2.680876
2.745002
2.713455
2.73581
2.744129
3.011224
2.516173
3.138503
2.557813
2.92239
2.698317
2.759414
2.706352
2.717271
2.7113
3.048307
2.449004
3.182452
2.568794
2.917408
2.672342
2.727235
2.695294
2.67644
2.671717
3.072801
2.50768
3.173232
2.577233
2.931951
2.676509
2.741429
2.677831
2.645355
2.559156
3.048061
2.56507
3.194925
2.590618
2.953038
2.702698
2.756442
2.708305
2.47012
2.448094
3.327019
2.295126
3.174291
2.57708
2.969098
2.735838
2.825692
2.654674
2.45678
2.109155
3.074671
2.358745
3.135646
2.558903
3.001998
2.771355
2.860549
2.829129
2.734302
1.899045
3.024779
2.415434
3.113377
2.534665
3.079041
2.907031
3.138342
3.012909
2.067392
3.383029
2.108961
3.072721
2.479533
3.087813
3.01046
3.191735
3.238033
3.242113
2.932683
2.560976
2.974086
2.562134
3.019188
2.853086
3.141049
3.153857
3.200385
3.074334
2.21426
2.840439
2.466954
2.899635
2.80137
3.009992
3.044278
2.655294
2.317162
2.735228
2.410149
2.781957
2.650101
2.873423
2.895867
2.615568
2.162304
2.557191
2.271974
2.590759
2.466905
2.645569
2.65925
2.859287
2.397731
2.078613
2.432605
2.113357
2.407952
2.210197
2.363086
2.354657
2.32977
2.398453
1.848609
2.273705
1.911596
2.138372
1.888935
1.835426
1.799289
1.478106
0.9748452
-0.5285483
-1.720223
2.755043
2.779867
2.735229
2.781442
2.732383
2.72798
2.707595
2.700905
2.679486
2.963225
2.669544
2.822584
2.694058
2.802554
2.722921
2.74509
2.709619
2.703453
2.687444
3.077545
2.729069
2.931081
2.678131
2.847808
2.709307
2.735066
2.707102
2.706015
2.695463
3.10168
2.434316
2.992985
2.622437
2.879767
2.694631
2.749861
2.71644
2.727186
2.716308
3.011395
2.525102
3.026894
2.596726
2.903179
2.696223
2.744206
2.714507
2.732575
2.730711
3.210805
2.285576
3.127499
2.600267
2.900356
2.698346
2.769238
2.727207
2.752866
2.752496
3.131688
2.492793
3.1201
2.580606
2.8915
2.696109
2.77194
2.724427
2.754898
2.757914
3.061838
2.526085
3.157801
2.585592
2.89907
2.719362
2.785461
2.729869
2.748242
2.752536
3.12922
2.523133
3.168887
2.599431
2.894575
2.709899
2.786174
2.720222
2.731553
2.721033
3.080852
2.4854
3.192723
2.619495
2.916919
2.719152
2.776756
2.714244
2.688962
2.680067
3.094138
2.528926
3.171239
2.595524
2.911614
2.720386
2.787323
2.693008
2.659122
2.570018
3.430022
2.125013
3.181083
2.615709
2.954113
2.711705
2.766774
2.712408
2.490129
2.459606
2.991103
2.510131
3.1177
2.586595
2.973744
2.752597
2.837717
2.676272
2.469362
2.126974
3.397154
2.142468
3.107899
2.585041
3.02454
2.784654
2.856129
2.830745
2.741506
1.91425
3.003119
2.427873
3.087551
2.52236
3.079752
2.995323
3.150086
3.017978
2.074796
3.064559
2.436294
3.043777
2.55123
3.05944
2.929166
3.191787
3.244003
3.244753
3.07883
2.178981
2.991048
2.482841
2.993341
2.910116
3.137589
3.164348
3.206759
2.70388
2.388357
2.797917
2.484295
2.867001
2.782628
2.992518
3.052929
2.655432
2.291444
2.729798
2.390365
2.775001
2.657334
2.865706
2.899559
2.568173
2.220678
2.563511
2.263925
2.575506
2.465184
2.611424
2.698995
2.888147
2.448423
2.055756
2.451091
2.100718
2.410154
2.213754
2.348167
2.348959
2.342574
2.382184
1.890083
2.279738
1.898121
2.142938
1.890813
1.858887
1.809341
1.508745
0.974252
-0.5107419
-1.717829
2.74381
2.776934
2.734617
2.750211
2.713755
2.711286
2.698086
2.671668
2.654365
2.974852
2.71923
2.790922
2.716964
2.796075
2.723948
2.734957
2.719465
2.696152
2.691069
3.028094
2.635986
2.828405
2.691819
2.809854
2.725392
2.756487
2.716842
2.715897
2.699528
3.052434
2.663332
2.965572
2.669391
2.86849
2.711344
2.756462
2.717863
2.71889
2.715326
3.006972
2.569564
2.946984
2.64846
2.862309
2.709294
2.770069
2.73075
2.742116
2.734078
3.034007
2.601342
2.99264
2.636778
2.890536
2.710272
2.762493
2.724662
2.745107
2.749171
3.826285
2.540973
2.911722
2.643494
2.878096
2.705835
2.757304
2.72483
2.745636
2.751701
3.769968
2.609014
2.905601
2.63897
2.87425
2.699157
2.742284
2.719864
2.738218
2.747573
3.668257
2.611131
2.896773
2.655046
2.87194
2.70804
2.751484
2.713744
2.721448
2.716018
3.497975
2.675568
2.899131
2.657938
2.887781
2.699925
2.724043
2.702274
2.678659
2.675482
3.105921
2.517293
2.91517
2.638965
2.892678
2.703377
2.746595
2.688341
2.646158
2.56874
3.115453
2.632038
3.040733
2.662852
2.943454
2.73451
2.757947
2.707769
2.495646
2.462245
3.13591
2.441593
3.016366
2.617146
2.950342
2.764085
2.823037
2.681632
2.456352
2.114982
3.074904
2.525306
3.004511
2.632564
2.989576
2.79933
2.863061
2.84108
2.749527
1.942311
3.222767
2.518698
2.98434
2.644999
3.037045
2.923602
3.126266
3.025991
2.08558
3.133789
2.345144
2.978891
2.516706
3.05572
2.987028
3.177693
3.177697
3.240086
2.890579
2.489409
2.933391
2.589147
2.985384
2.868961
3.114894
3.170021
3.215783
2.79622
2.365258
2.802144
2.501872
2.871578
2.805677
2.997351
3.073879
3.111378
2.748459
2.34293
2.719506
2.431209
2.760363
2.653912
2.860056
2.919678
2.944339
3.288207
2.153784
2.469875
2.287544
2.55694
2.465176
2.626555
2.701435
2.750937
2.627134
2.118225
2.357538
2.148238
2.36788
2.226041
2.322854
2.374198
2.338748
2.261485
1.944159
2.164428
1.959334
2.11032
1.912284
1.888137
1.823528
1.516013
2.076971
1.013821
-0.4814592
-1.695154
2.781505
2.774031
2.666067
2.779016
2.741576
2.716586
2.698349
2.688082
2.659769
2.91803
2.76065
2.853045
2.690995
2.811705
2.714158
2.743516
2.721113
2.704083
2.697585
2.974717
2.74943
2.863866
2.690312
2.816892
2.719927
2.753419
2.715634
2.712429
2.69867
3.011421
2.67532
2.941913
2.664527
2.864747
2.710562
2.752652
2.720691
2.723525
2.718847
3.122252
2.644386
2.932714
2.63396
2.86511
2.700944
2.754155
2.725234
2.73918
2.734524
3.17647
2.637613
3.034244
2.636964
2.880524
2.704033
2.753868
2.727723
2.748149
2.751986
3.254685
2.661202
2.953803
2.623374
2.853877
2.704677
2.767475
2.732981
2.753143
2.757717
3.641505
2.713857
3.032288
2.630394
2.869371
2.713425
2.762603
2.728698
2.745341
2.751434
3.49735
2.66209
3.041575
2.637792
2.86372
2.718887
2.770425
2.724932
2.730405
2.72081
3.241768
2.695568
3.08908
2.657752
2.893237
2.715992
2.738923
2.711228
2.686977
2.678162
3.068918
2.673495
2.959421
2.633661
2.887802
2.716536
2.763296
2.700219
2.652336
2.574116
3.156722
2.567501
3.091388
2.654364
2.935591
2.734705
2.759117
2.70179
2.516573
2.461957
3.089022
2.634935
3.028784
2.633378
2.935252
2.772464
2.824652
2.713552
2.475342
2.15513
3.005332
2.531527
3.047155
2.651292
2.984635
2.801685
2.88133
2.819597
2.719709
1.93926
3.330461
2.600775
2.991126
2.606097
3.024756
2.961779
3.102264
2.993505
2.076006
3.002224
2.553244
2.975922
2.576021
3.034291
2.959563
3.144122
3.172568
3.245186
2.954328
2.446053
2.927134
2.5624
2.970082
2.893217
3.092796
3.171353
3.250536
2.832772
2.432072
2.776692
2.509025
2.853572
2.790809
2.97703
3.079404
3.143776
2.725715
2.354386
2.69058
2.416861
2.745947
2.651855
2.835024
2.927813
2.984425
2.665242
2.273598
2.483289
2.292327
2.549127
2.463174
2.611151
2.711085
2.760343
2.907118
2.164954
2.368976
2.142525
2.369033
2.235433
2.328781
2.391283
2.430933
2.247227
2.027216
2.179931
1.956067
2.110014
1.915723
1.901006
1.842707
1.702276
2.061123
1.004192
-0.5295799
-2.016563
2.827864
2.920215
2.855044
2.894195
2.926625
2.833489
2.638079
2.853082
2.715569
2.803138
2.703464
2.840892
2.828197
2.716264
2.793989
2.722435
2.878524
2.745984
2.7845
2.800812
2.692282
2.817817
2.68863
2.783192
2.747717
2.779863
2.797209
2.686962
2.810467
2.689505
2.824005
2.773368
2.787251
2.776968
2.676186
2.789416
2.667279
2.785359
2.749116
2.768892
2.767565
2.665209
2.781824
2.66012
2.783102
2.736699
2.758481
2.753091
2.652031
2.767565
2.646855
2.767008
2.718936
2.744473
2.738357
2.638946
2.755669
2.63239
2.754453
2.70756
2.731689
2.622666
2.613781
2.693519
2.767035
2.799351
2.936914
2.72606
2.96955
2.759099
2.787366
2.796307
3.02052
2.746808
2.951078
2.731093
2.781614
2.80082
3.042256
2.742465
2.946399
2.729703
2.781464
2.814494
3.066413
2.737195
2.942324
2.738068
2.786355
2.828141
3.072627
2.741769
2.929021
2.737866
2.799884
2.823464
3.068741
2.738748
2.925702
2.736043
2.802818
2.818851
3.060173
2.724796
2.907943
2.717908
2.789924
2.810848
3.058186
2.715004
2.899542
2.700839
2.787289
2.82669
3.0604
2.720975
2.913744
2.706497
2.804881
2.803704
3.075453
2.729931
2.92019
2.728127
2.813906
2.802916
3.08685
2.752198
2.923763
2.743416
2.810035
2.791517
3.092779
2.767668
2.944194
2.754418
2.7821
2.775912
3.077904
2.754609
2.933734
2.736196
1.41534
1.109038
0.9437826
2.704039
1.244572
0.8649032
0.7783404
2.73392
2.754306
3.018586
2.720315
2.938206
2.713238
3.204501
2.055101
3.206601
2.712845
2.722351
2.935789
2.702993
3.005223
2.67577
3.245016
3.231053
3.247345
2.670347
2.635501
2.830612
2.654149
3.067048
2.634145
3.163129
3.24024
3.170473
2.567353
2.560844
2.741407
2.573114
2.903014
2.561534
3.025756
3.132163
3.032131
2.457628
2.474402
2.614457
2.481389
2.707992
2.470262
2.831749
2.988467
2.83734
2.334578
2.364022
2.488583
2.36324
2.54783
2.359498
2.536879
2.781568
2.539868
2.203593
2.230734
2.355483
2.234755
2.397397
2.22994
1.951049
2.428762
1.904153
2.061473
2.093066
2.214579
2.097738
2.25073
2.09553
-2.502122
-3.450364
1.650899
-2.667588
-2.486994
-2.290629
-1.890725
1.922939
2.072434
1.954336
2.834239
2.961721
2.912222
2.858691
3.110768
2.887264
1.276895
0.8650315
0.7802902
2.735079
1.234551
0.8642953
0.7767144
3.19389
2.068844
3.18429
-2.74659
-2.332283
1.552759
-2.836573
-2.283044
2.861741
2.987537
2.920531
2.856956
3.115538
2.881837
1.234334
0.870275
0.7720269
2.730746
1.225415
0.8720519
0.7719122
3.190523
2.063705
3.200644
-2.839842
-2.267616
1.495803
-2.891807
-2.237105
2.872215
2.999888
2.894134
2.861542
3.063199
2.893992
1.221513
0.8731706
0.771775
2.729562
1.223277
0.873286
0.7717894
3.198475
2.061667
3.201675
-2.895217
-2.222008
1.4753
-2.915521
-2.20899
2.864402
3.070044
2.892558
2.857646
3.056182
2.876135
1.222467
0.8746484
0.7712733
2.729923
1.225159
0.8765855
0.7726261
3.202315
2.063762
3.206746
-2.916343
-2.212086
1.467074
-2.923947
-2.189492
2.866883
3.155718
2.871372
2.862968
3.122407
2.902976
1.22754
0.880013
0.7747578
2.73401
1.227292
0.8833072
0.7767797
3.20544
2.067996
3.205395
-2.924004
-2.191824
1.473082
-2.916181
-2.208797
2.877787
3.190372
2.923336
2.861423
3.007399
2.896141
1.230317
0.8823512
0.7796695
2.735544
1.231951
0.8847306
0.7824708
3.207105
2.073295
3.206611
-2.914991
-2.202713
1.505437
-2.885551
-2.207639
2.874154
3.148248
2.895911
2.860854
2.992073
2.922612
3.211354
2.086284
3.205188
-2.885496
-2.217346
1.493584
-2.76242
-2.326121
2.854835
3.132596
2.866084
2.826153
2.932817
2.85925
3.198949
2.074992
3.211071
-2.763718
-2.308875
1.636857
-2.685504
-2.342069
2.854645
2.878758
2.923023
2.912347
2.79926
2.69879
2.866376
2.680343
2.8434
2.753016
2.755388
2.822763
2.711707
2.822667
2.813602
2.72219
2.826345
2.764455
2.696898
2.833838
2.782803
2.731186
2.805759
2.718883
2.838281
2.743224
2.696084
2.777855
2.693882
2.810631
2.765792
2.70369
2.755912
2.769804
2.674742
2.792455
2.720741
2.708632
2.725831
2.67438
2.764573
2.637343
2.618407
2.740163
3.109093
2.764853
2.789347
2.803012
2.724867
3.126902
2.818881
2.792785
2.779114
2.837373
3.093129
2.816209
2.825239
2.878451
2.768088
2.766131
3.142541
2.797724
3.264715
2.773958
2.886454
2.747627
2.765916
3.122243
2.87007
3.263048
2.765405
2.941435
2.803987
2.739643
2.998884
2.783214
2.972177
2.743373
3.108865
2.774942
2.754139
2.947649
2.743478
2.790258
2.857015
2.701172
2.939966
2.680695
2.843027
2.86798
2.776765
3.495197
2.761811
2.818175
2.82101
2.803264
3.260738
2.744036
3.080644
2.791879
2.957978
2.755728
2.910256
3.181973
2.846853
3.249386
2.828293
2.961793
2.784968
2.838391
3.084839
2.829112
2.977298
2.828541
3.111409
2.829684
2.823667
2.940706
2.728236
2.764138
2.80334
1.267459
0.8842714
0.8064487
2.662738
1.442057
1.144669
1.081248
1.593579
1.924267
1.43884
2.717365
3.00239
2.746773
2.78782
2.777886
3.220114
2.201657
3.221131
2.772267
2.990654
2.757963
2.766164
2.773677
3.25406
3.252951
3.256356
2.725444
2.917129
2.675698
2.901752
2.670682
2.75157
2.679612
3.184802
3.264818
3.179261
2.65876
2.81988
2.590663
2.7102
2.569678
2.666184
2.597374
3.031452
3.137174
3.025071
2.557129
2.711998
2.545209
2.615332
2.461574
2.573077
2.548397
2.82545
2.995307
2.823129
2.356599
2.528511
2.325495
2.500691
2.291573
2.421757
2.334619
2.544538
2.783548
2.537816
2.199209
2.320292
2.208471
2.313377
2.196004
2.228629
1.936603
2.446397
1.932675
2.059511
2.231958
2.053852
2.061982
2.096036
-2.609178
-2.594773
1.801233
-2.731792
-3.30406
-2.020573
-2.231732
1.935179
1.923665
2.845886
2.828742
2.960499
2.783982
2.9234
2.888224
2.995187
2.736773
2.99407
2.899717
2.991102
2.722202
2.994457
2.897344
2.984751
2.724756
2.984288
2.889528
2.976468
2.741384
2.975577
2.869001
2.971594
2.752152
2.972674
2.870959
2.995959
2.754539
2.950945
2.745152
2.983509
2.754208
2.888449
2.748899
2.927964
2.755455
2.900965
2.847689
2.953427
2.747122
2.924484
2.866766
2.977684
2.802654
2.8996
2.813809
2.985073
2.748382
2.974344
2.901984
2.965606
2.736782
2.963874
2.851144
2.71178
2.798406
2.248039
2.809501
2.679118
2.664998
2.476982
1.443157
1.92371
1.578122
2.913942
2.713256
2.935453
2.770557
2.845372
3.147556
3.1838
2.978834
2.892633
3.112363
3.181355
2.98559
2.125659
2.865226
2.881961
2.791999
2.891715
2.707091
3.245672
3.196346
3.244361
3.160045
3.244841
3.189281
3.257697
3.256225
3.227969
3.254142
2.762388
2.761477
2.788641
2.734554
3.227082
3.127736
3.166736
3.157343
3.212483
3.129902
3.179433
3.208885
3.236168
3.211239
2.712653
2.64908
2.70774
2.675086
3.125626
3.002973
3.048601
3.073525
3.109215
2.998077
3.054953
3.09859
3.131817
3.112893
2.58784
2.533742
2.626902
2.560945
2.978711
2.821388
2.872696
2.92891
2.958442
2.80689
2.881151
2.936538
2.986302
2.96756
2.468783
2.404929
2.504172
2.446643
2.764425
2.545951
2.595089
2.717542
2.74401
2.528224
2.61763
2.702511
2.774911
2.741784
2.337636
2.272289
2.368862
2.316913
2.428925
2.127758
2.074247
2.393268
2.382269
2.086508
2.16972
2.314893
2.443014
2.351678
2.194753
2.131128
2.225228
2.175484
1.752563
1.413029
0.1474633
1.843857
1.625506
1.244945
0.1581399
1.162161
1.70048
1.016037
2.053711
1.989513
2.082736
2.033413
-3.500731
-0.4915883
-2.605845
-1.56007
2.845475
2.777871
2.706549
2.664988
2.397728
2.827563
2.707447
2.638508
2.40911
2.887531
3.115712
3.179421
3.010984
2.87854
3.118164
3.188212
2.899645
2.0698
2.903639
1.512595
1.274744
0.1067257
1.830843
1.485772
1.24902
0.03697065
-1.857963
-1.810437
-2.527658
-0.504831
-2.516396
2.848015
2.790576
2.709823
2.642652
2.397145
2.821703
2.719673
2.631145
2.393596
2.88301
3.107536
3.1752
3.006297
2.889321
3.093828
3.193051
2.899828
2.069963
2.89997
1.752677
2.349033
1.724264
1.41735
1.253334
0.03311131
1.803766
1.410948
1.218303
0.005397152
-1.782523
-1.74732
-2.529652
-0.520163
-2.529202
2.841556
2.784371
2.722062
2.634573
2.389815
2.826815
2.724693
2.637216
2.388196
2.892371
3.0953
3.196922
3.010163
2.89524
3.097316
3.201713
2.893147
2.063048
2.892371
1.384775
1.222256
-0.0004396476
1.799426
1.385782
1.2162
-0.01282839
-1.779783
-1.73195
-2.534734
-0.5297684
-2.531176
2.84179
2.798349
2.724877
2.638506
2.388185
2.824618
2.725343
2.636197
2.388333
2.896125
3.09665
3.204602
3.007995
2.898661
3.093833
3.206817
2.89312
2.063102
2.893322
1.702947
2.303202
1.696047
1.377716
1.213472
-0.01478159
1.793629
1.372924
1.209119
-0.01848477
-1.769782
-1.742847
-2.539712
-0.5339728
-2.535601
2.842049
2.795142
2.90222
3.099203
3.210158
3.017399
2.90333
3.102817
3.210133
2.896528
2.066891
2.897198
1.375637
1.208431
-0.01845155
1.799434
1.379425
1.215401
-0.01166106
-1.751954
-1.766289
-2.534734
-0.532341
-2.539942
2.815139
2.838005
2.900678
3.096612
3.206697
3.012767
2.900069
3.096066
3.20255
2.896657
2.069151
2.897433
1.706677
2.31846
1.721633
1.395131
1.21492
-0.009228267
1.806733
1.417745
1.225507
0.01257947
-1.727741
-1.770024
-2.530158
-0.5214848
-2.532461
2.79967
2.849939
1.239888
0.8863558
0.7855115
2.742872
1.250851
0.8872849
0.7880845
2.900238
3.103488
3.20651
3.027593
2.896703
3.120277
3.190644
2.904287
2.079499
2.906858
1.462324
1.216553
0.01223911
1.830207
1.598957
1.262542
0.06419554
-1.734539
-1.811057
-2.522376
-0.5020409
-2.509205
2.78274
2.84083
1.249596
0.8827952
0.7937668
2.74526
1.29801
0.8850273
0.7985944
2.893099
3.127929
3.204649
3.019395
2.905957
3.126718
3.197014
2.918396
2.086089
2.917014
1.639213
1.256964
0.06350971
1.847114
1.655761
1.283674
0.1028767
-1.779238
-1.849562
-2.49643
-0.4955927
-2.536638
2.760436
2.817081
2.697206
2.653805
2.725867
2.650502
2.771868
2.905139
3.125115
3.196209
3.024514
2.896037
3.159609
3.224057
2.904138
2.114991
2.908375
3.116911
3.00127
3.059969
3.071643
3.109994
3.007354
3.046186
2.956892
2.805008
2.882624
2.914927
2.972791
2.820752
2.87385
2.734766
2.527537
2.622262
2.702558
2.747927
2.5491
2.593689
2.380704
2.088537
2.16562
2.403393
2.450438
2.140502
2.096236
1.651527
1.247764
0.1516399
1.90597
1.78534
1.434712
0.3129633
-2.674423
-0.4702434
-3.385026
-2.049028
2.837596
2.878966
2.924395
2.820331
2.768737
2.829655
2.963448
2.930564
2.991932
2.756172
2.989006
2.94522
2.998132
2.725167
2.985878
2.935297
2.988315
2.712546
2.976218
2.926834
2.987412
2.724618
2.954973
2.919841
2.989027
2.735837
2.91855
2.895876
2.985072
2.741658
2.841731
2.742421
3.010096
2.773568
2.859754
2.833274
2.942492
2.766703
2.923795
2.876515
2.926023
2.75636
2.907925
2.812951
2.975975
2.761227
2.879356
2.899321
2.996127
2.764798
2.951033
2.917809
2.973082
2.725375
2.929421
2.889254
2.947955
2.71293
1.376975
2.33164
-1.43572
1.034685
2.237805
-1.787922
1.525076
0.3834912
1.262278
-0.7460217
0.8222703
1.087377
-0.1425363
0.7712972
2.899479
2.723472
2.920687
2.766042
3.059486
3.185602
3.071972
2.093392
2.892353
2.892059
2.840803
2.747189
2.807371
2.774079
3.254215
3.246576
3.266504