/*--------------------------------*- C++ -*----------------------------------*\
  =========                 |
  \\      /  F ield         | OpenFOAM: The Open Source CFD Toolbox
   \\    /   O peration     | Website:  https://openfoam.org
    \\  /    A nd           | Version:  7
     \\/     M anipulation  |
\*---------------------------------------------------------------------------*/
FoamFile
{
    version     2.0;
    format      ascii;
    class       volVectorField;
    location    "0.06";
    object      U;
}
// * * * * * * * * * * * * * * * * * * * * * * * * * * * * * * * * * * * * * //

dimensions      [0 1 -1 0 0 0 0];

internalField   nonuniform List<vector> 
105127
(
(-0.9002406 0.400732 -0.008260377)
(-0.7352903 0.4413968 0.01624823)
(-0.6547099 0.4560687 0.00770936)
(-0.6000783 0.4569166 0.006132138)
(-0.5567437 0.4579221 0.005876)
(-1.155604 0.2330132 -0.04890213)
(-1.043778 0.3053966 0.0009499758)
(-0.9532526 0.3304644 -0.002828094)
(-0.8805823 0.3475277 -0.004486356)
(-0.8199795 0.3605035 -0.004961345)
(-1.073394 0.2063487 -0.02426405)
(-0.9956712 0.2946025 0.01520637)
(-0.9247824 0.3440302 0.01067442)
(-0.8623122 0.3744186 0.008976888)
(-0.8076875 0.3967559 0.007649747)
(-0.9798166 0.1377471 -0.02294635)
(-0.9301992 0.2119979 0.0127564)
(-0.8804252 0.2618011 0.007483583)
(-0.8308077 0.3003846 0.004835356)
(-0.7849873 0.3278374 0.004007761)
(-0.902187 0.1138087 -0.0210148)
(-0.8732238 0.1823405 0.01131675)
(-0.8366851 0.2335043 0.006231996)
(-0.7967193 0.2725896 0.004090903)
(-0.7588143 0.3033344 0.003289251)
(-0.8413026 0.08789782 -0.01917834)
(-0.8207351 0.145338 0.01238447)
(-0.7935991 0.1907466 0.007811497)
(-0.762057 0.2282687 0.005997697)
(-0.7305579 0.2595525 0.005209645)
(-0.7886271 0.07460022 -0.01810029)
(-0.7737252 0.1253153 0.0121068)
(-0.7531629 0.1672531 0.007615261)
(-0.7284187 0.203509 0.006031272)
(-0.7020104 0.2336623 0.005291181)
(-0.7438647 0.06285636 -0.01699339)
(-0.7321916 0.1067903 0.01212299)
(-0.716159 0.1444027 0.007682296)
(-0.6958457 0.1779199 0.006231507)
(-0.6740704 0.2068705 0.00566208)
(-0.7044682 0.05480336 -0.01604319)
(-0.6949953 0.09375639 0.01197223)
(-0.6822892 0.1279151 0.007660896)
(-0.6654541 0.1590392 0.00628644)
(-0.6476261 0.1868872 0.00587557)
(-0.6696341 0.04814703 -0.01521894)
(-0.6616301 0.08277401 0.01181435)
(-0.6513355 0.1138301 0.007629679)
(-0.637204 0.1425368 0.006341632)
(-0.6219843 0.1686925 0.005936934)
(-0.6384386 0.04289139 -0.01447744)
(-0.6314521 0.07401464 0.01162046)
(-0.622973 0.1024316 0.007606864)
(-0.6108667 0.1289009 0.006372626)
(-0.5978197 0.1533711 0.005975901)
(-0.6102858 0.03853156 -0.01382154)
(-0.6041752 0.06673266 0.01148199)
(-0.5969453 0.09272612 0.007563517)
(-0.5864523 0.1171757 0.006380514)
(-0.5751573 0.1400591 0.006005814)
(-0.5846906 0.03489193 -0.01321793)
(-0.5792797 0.06061716 0.01134975)
(-0.572994 0.08446142 0.007514199)
(-0.5638227 0.1071199 0.006367564)
(-0.5539258 0.1284993 0.006025239)
(-0.5612846 0.03178741 -0.01266885)
(-0.5564121 0.05536401 0.01121049)
(-0.5508528 0.07729041 0.007451192)
(-0.5427889 0.09839427 0.006341195)
(-0.5340474 0.1183301 0.006026888)
(-0.5397976 0.02911894 -0.01216322)
(-0.5353005 0.05079563 0.01105201)
(-0.5304821 0.07107182 0.007431529)
(-0.5232062 0.09069756 0.006300833)
(-0.5153743 0.1093112 0.00601412)
(-0.5199898 0.02677512 -0.01170137)
(-0.5158061 0.04680377 0.01088517)
(-0.5115576 0.06560595 0.007499654)
(-0.5049368 0.08385359 0.006239723)
(-0.4978513 0.101281 0.005987382)
(-0.5016641 0.02470933 -0.0112697)
(-0.4977577 0.04327469 0.01071724)
(-0.4939403 0.06076919 0.00769343)
(-0.4878768 0.07774994 0.006160989)
(-0.4814346 0.09408293 0.005949827)
(-0.4846495 0.02287071 -0.01086946)
(-0.480978 0.04013047 0.0105565)
(-0.4775235 0.05649819 0.007839439)
(-0.4719328 0.07226594 0.006077746)
(-0.4660692 0.08760438 0.005904874)
(-0.468817 0.02121794 -0.01049444)
(-0.4653101 0.03729594 0.01039874)
(-0.4621976 0.05260878 0.007775681)
(-0.4571233 0.06730895 0.006020457)
(-0.4516625 0.08172255 0.005853133)
(-0.4540643 0.01972475 -0.01014736)
(-0.4506899 0.03471876 0.01024367)
(-0.4478749 0.04900834 0.007694265)
(-0.4433261 0.06282298 0.005991425)
(-0.4381382 0.07633107 0.005795888)
(-0.4403021 0.0183673 -0.00982324)
(-0.4370411 0.0323687 0.01009058)
(-0.4344767 0.04569853 0.007610925)
(-0.4303529 0.05871132 0.005967608)
(-0.4254207 0.07136184 0.005739343)
(-0.4274459 0.01712737 -0.009523499)
(-0.4242822 0.03021739 0.009939271)
(-0.4219263 0.04267057 0.007527963)
(-0.4181699 0.05491008 0.005944102)
(-0.4134623 0.06676494 0.005686009)
(-0.4154268 0.01598407 -0.009241405)
(-0.4123474 0.02823294 0.009791604)
(-0.4101808 0.03989945 0.007445694)
(-0.4067076 0.05137117 0.005915106)
(-0.4022731 0.06251317 0.005651918)
(-0.3790455 0.01327675 -0.007140565)
(-0.3909087 0.02537113 -0.01647424)
(-0.3949071 0.0361403 -0.01886838)
(-0.3959533 0.04809432 0.005985074)
(-0.3918314 0.05857695 0.005629394)
(-0.9229367 0.4268945 -0.01655799)
(-0.7561464 0.4754795 0.00027906)
(-0.6806246 0.4713222 -0.005076522)
(-0.6269481 0.4715586 -0.004375804)
(-0.5823481 0.4722689 -0.004257056)
(-1.291736 0.1174165 -0.008812857)
(-1.154384 0.2307143 -0.04170669)
(-1.022849 0.2999186 -0.04075661)
(-0.934065 0.3308256 -0.03681964)
(-0.8613091 0.3527443 -0.03654605)
(-0.8028671 0.3670046 -0.03760194)
(-1.103518 0.08042553 -0.0003511598)
(-1.016069 0.2401049 0.01222334)
(-0.9495374 0.3049117 0.01905044)
(-0.890451 0.352343 0.02486493)
(-0.8345963 0.3831448 0.02630865)
(-0.7852455 0.4068619 0.02985092)
(-1.003269 0.04177485 -0.002860254)
(-0.9636996 0.1429162 -0.01466062)
(-0.9055956 0.2046812 -0.009891595)
(-0.8601182 0.2477807 -0.01211774)
(-0.8104914 0.2821319 -0.01213687)
(-0.7668892 0.309107 -0.01216999)
(-0.9096826 0.03468469 -0.002323885)
(-0.8820834 0.1310419 -0.0009708307)
(-0.8468529 0.1890914 0.007501594)
(-0.8150416 0.2365447 0.00897961)
(-0.7777411 0.273105 0.009538859)
(-0.7422045 0.3025353 0.0097509)
(-0.8427621 0.02491176 -0.002837592)
(-0.8309085 0.09625435 -0.007950561)
(-0.8012097 0.1461832 -0.002512239)
(-0.7768112 0.1879636 -0.003244806)
(-0.7453055 0.223042 -0.003545768)
(-0.7151961 0.2523833 -0.003155429)
(-0.7877537 0.02089657 -0.003012184)
(-0.7770403 0.08471428 -0.004554619)
(-0.7558282 0.1297344 0.001364756)
(-0.737834 0.1696573 0.00158106)
(-0.7129652 0.2035767 0.001534175)
(-0.6881846 0.2326347 0.00177265)
(-0.7413067 0.01697553 -0.003224837)
(-0.7345112 0.07020234 -0.005558685)
(-0.7169729 0.1097343 -0.0004440731)
(-0.7030886 0.1454513 -0.0006013284)
(-0.6824422 0.1770053 -0.0009606313)
(-0.6616004 0.2048164 -0.0008494511)
(-0.700855 0.01454646 -0.00330873)
(-0.6953159 0.06179896 -0.004759163)
(-0.6811699 0.09730309 0.0002326745)
(-0.6704941 0.1301344 0.0003755839)
(-0.6534976 0.1596516 -6.236914e-06)
(-0.6360287 0.1861394 2.657329e-05)
(-0.6653643 0.01249707 -0.003381222)
(-0.661152 0.05411129 -0.004707362)
(-0.6491443 0.08594457 -7.925923e-06)
(-0.6407676 0.115776 0.0001060327)
(-0.626473 0.1431105 -0.0003286998)
(-0.6116573 0.1680583 -0.000402159)
(-0.6337091 0.01095525 -0.003417902)
(-0.6302615 0.04832129 -0.00443169)
(-0.6199475 0.07714845 0.000109406)
(-0.61333 0.1044872 0.0002668328)
(-0.6012032 0.1298465 -0.0001459381)
(-0.5885609 0.1533109 -0.0002824255)
(-0.6052413 0.009688379 -0.003441966)
(-0.6024154 0.04340108 -0.004266826)
(-0.5933558 0.06961445 0.0001090683)
(-0.5880791 0.09469036 0.0002700724)
(-0.5776555 0.1182019 -0.0001274373)
(-0.5667771 0.1401995 -0.0003239896)
(-0.5794316 0.008654439 -0.003454222)
(-0.5770563 0.03932292 -0.004099805)
(-0.5689846 0.06328923 0.0001388807)
(-0.5647497 0.08638063 0.0003067378)
(-0.5556946 0.1082158 -6.497711e-05)
(-0.5462577 0.128825 -0.0002805739)
(-0.5558901 0.007788085 -0.003456974)
(-0.5538642 0.03583638 -0.003955436)
(-0.5465782 0.05783138 0.000152365)
(-0.5431579 0.07916094 0.0003202349)
(-0.5352152 0.09946087 -3.096093e-05)
(-0.5269639 0.1187606 -0.0002443679)
(-0.5342985 0.007052779 -0.003452878)
(-0.5325511 0.0328298 -0.003818702)
(-0.5259031 0.0530939 0.000163218)
(-0.523123 0.07285832 0.0003416546)
(-0.5161 0.09175179 2.211351e-06)
(-0.5088251 0.1098323 -0.0002039947)
(-0.5144099 0.006420034 -0.003442644)
(-0.5128859 0.03020195 -0.003691646)
(-0.5067624 0.04893914 0.0001671914)
(-0.5045017 0.06730709 0.0003690057)
(-0.498246 0.08489945 4.408864e-05)
(-0.4917777 0.1018494 -0.0001609984)
(-0.4960232 0.005870414 -0.003428081)
(-0.4946791 0.02787903 -0.003573903)
(-0.4889858 0.04525721 0.000161747)
(-0.4871644 0.06234457 0.0003974756)
(-0.4815614 0.07877031 8.999116e-05)
(-0.4757544 0.09466465 -0.0001230899)
(-0.4789763 0.005386467 -0.003410945)
(-0.4777796 0.02580355 -0.003466958)
(-0.4724635 0.04195694 0.0001393099)
(-0.4709896 0.05782908 0.0003838662)
(-0.4659294 0.07324899 0.0001392666)
(-0.460694 0.08815579 -9.210558e-05)
(-0.4631337 0.004956575 -0.003391331)
(-0.4620655 0.02394037 -0.003369204)
(-0.4571066 0.03898215 0.0001133502)
(-0.4558713 0.05376331 0.0003137023)
(-0.4512401 0.06824052 0.0001845463)
(-0.4465347 0.08222967 -6.654324e-05)
(-0.4483805 0.00457202 -0.00336976)
(-0.4474201 0.0222585 -0.003276644)
(-0.4427706 0.03628783 9.392321e-05)
(-0.4417291 0.05011474 0.0002618128)
(-0.4374678 0.06366416 0.0002152585)
(-0.4332209 0.07680491 -4.477265e-05)
(-0.4346197 0.004226934 -0.0033467)
(-0.4337516 0.02072785 -0.003187015)
(-0.4293667 0.03382832 8.56567e-05)
(-0.4284926 0.04678031 0.0002439821)
(-0.4245538 0.05946219 0.0002285666)
(-0.4206924 0.07181029 -2.998239e-05)
(-0.4217667 0.003916101 -0.003321403)
(-0.4209794 0.01932457 -0.003099374)
(-0.4168237 0.03156944 8.515572e-05)
(-0.4160946 0.04370159 0.0002460244)
(-0.41244 0.05558144 0.0002376836)
(-0.4089031 0.06718981 -2.002045e-05)
(-0.4097482 0.003632995 -0.003294344)
(-0.409036 0.01803268 -0.003014674)
(-0.4050844 0.02948533 8.703745e-05)
(-0.4044798 0.04085145 0.00025247)
(-0.4010672 0.05200093 0.0002512178)
(-0.3978045 0.062901 -7.743891e-06)
(-0.3985217 0.002967374 0.004267409)
(-0.3978593 0.01683367 -0.002932944)
(-0.3940923 0.02754968 8.876869e-05)
(-0.3935808 0.03820006 0.0002542162)
(-0.3903919 0.04862581 0.0002746678)
(-0.3873765 0.05890098 1.024635e-05)
(-0.9362571 0.4295994 -0.009772401)
(-0.7758377 0.4188208 0.005241853)
(-0.6913071 0.4309414 0.006313251)
(-0.6348056 0.4639496 0.01295987)
(-0.588899 0.4702794 0.01309996)
(-1.294578 0.1204799 0.0008218918)
(-1.157851 0.2353911 -0.003775019)
(-1.032299 0.2973762 -0.01270621)
(-0.9440372 0.3289987 -0.01641819)
(-0.8681069 0.35249 -0.01748343)
(-0.8083282 0.3675701 -0.01883059)
(-1.098419 0.08210657 0.002358896)
(-1.013561 0.2341028 0.008711792)
(-0.9522733 0.3111479 0.009817606)
(-0.8911892 0.3619077 0.01229309)
(-0.8367427 0.393739 0.01307458)
(-0.7867121 0.4147969 0.01391764)
(-1.010882 0.04181216 0.002642114)
(-0.9666833 0.1395017 0.003323496)
(-0.9129012 0.2001576 -5.903858e-05)
(-0.8610384 0.2450234 -7.592972e-05)
(-0.8113643 0.2812929 -0.001756526)
(-0.7663092 0.3096143 -0.001398185)
(-0.907375 0.03398067 0.002404776)
(-0.8805174 0.1293621 0.006265228)
(-0.8513359 0.1890206 0.003507857)
(-0.8152277 0.2360684 0.004217583)
(-0.7797918 0.2744955 0.003511818)
(-0.7425074 0.3029343 0.003114649)
(-0.8463398 0.02377959 0.002001773)
(-0.8311441 0.09483857 0.004062542)
(-0.8062693 0.1449599 0.0001630982)
(-0.7774072 0.1866605 0.000421504)
(-0.746815 0.2223231 -0.0002726033)
(-0.7153717 0.251846 -0.0001847707)
(-0.7874096 0.02016464 0.00182771)
(-0.7766596 0.08381719 0.00413551)
(-0.7603037 0.1297777 0.001051379)
(-0.7382174 0.1693671 0.001778225)
(-0.7143524 0.2037353 0.001168514)
(-0.688607 0.2325884 0.001264295)
(-0.741837 0.0162075 0.00158216)
(-0.7345769 0.06935014 0.003424431)
(-0.7214727 0.1093948 0.0001859131)
(-0.7034761 0.1448403 0.0006807073)
(-0.6836455 0.1766132 6.613532e-05)
(-0.661876 0.2044315 0.0001637188)
(-0.7006705 0.01391714 0.00147196)
(-0.695261 0.0612126 0.003318704)
(-0.6854062 0.09730624 0.0003891083)
(-0.6708269 0.1299314 0.0009044195)
(-0.6546146 0.1596012 0.0003446982)
(-0.636316 0.1860663 0.0004322946)
(-0.6651955 0.01193161 0.001348618)
(-0.661189 0.05356399 0.003070915)
(-0.6532688 0.08585568 0.000229708)
(-0.6411192 0.1155022 0.0006673218)
(-0.6275127 0.1429277 0.0001118682)
(-0.6118903 0.1678896 0.0001899835)
(-0.6333875 0.01045766 0.001256571)
(-0.6302888 0.0478798 0.002948284)
(-0.6239169 0.07713889 0.0002428074)
(-0.6136737 0.1043253 0.0006624742)
(-0.6021817 0.1297625 0.0001313114)
(-0.5887619 0.1532242 0.0002057293)
(-0.6048751 0.009241875 0.001173367)
(-0.602458 0.04300672 0.002820925)
(-0.5972073 0.06959797 0.0002167183)
(-0.5884291 0.09453777 0.000599418)
(-0.5785914 0.1181098 8.512498e-05)
(-0.5669402 0.1400958 0.0001488255)
(-0.5790338 0.0082524 0.001101479)
(-0.5770988 0.03897417 0.002720065)
(-0.5727208 0.06328946 0.0002137139)
(-0.5651015 0.08626429 0.0005705086)
(-0.5565974 0.1081503 7.349909e-05)
(-0.546396 0.1287421 0.0001290142)
(-0.5554872 0.00742334 0.001035807)
(-0.5539055 0.0355158 0.00262705)
(-0.5502083 0.05783973 0.0002104557)
(-0.5435138 0.07905795 0.0005420585)
(-0.5360912 0.09940449 5.998183e-05)
(-0.5270828 0.1186859 0.0001071874)
(-0.5339118 0.006719982 0.0009754682)
(-0.5325856 0.0325321 0.002541488)
(-0.5294338 0.05310864 0.0002131615)
(-0.5234872 0.07275773 0.0005184915)
(-0.5169489 0.09170442 5.180867e-05)
(-0.5089336 0.1097672 9.31529e-05)
(-0.5140517 0.006115463 0.0009198341)
(-0.5129146 0.02992375 0.002461165)
(-0.5102067 0.04895177 0.0002158291)
(-0.5048726 0.06719244 0.0004911181)
(-0.4990625 0.08485859 4.62008e-05)
(-0.4918789 0.101789 8.172837e-05)
(-0.4957019 0.005590417 0.0008686903)
(-0.494705 0.02762226 0.002383892)
(-0.4923626 0.04526996 0.0002154633)
(-0.4875385 0.0622457 0.000451369)
(-0.4823342 0.07873388 4.260846e-05)
(-0.4758529 0.09461197 7.049416e-05)
(-0.4786931 0.005129689 0.0008220339)
(-0.4778 0.02557214 0.002312729)
(-0.4757587 0.0419787 0.000213002)
(-0.4713705 0.05780795 0.0004266391)
(-0.4666795 0.07321381 3.722198e-05)
(-0.460791 0.08811192 6.165214e-05)
(-0.4628873 0.004721788 0.0007799122)
(-0.4620721 0.02372952 0.002249324)
(-0.460282 0.03901003 0.0002154873)
(-0.4562673 0.0537902 0.000441309)
(-0.4520148 0.06820683 3.022516e-05)
(-0.4466297 0.08219148 5.424799e-05)
(-0.448171 0.004358031 0.0007411419)
(-0.4474146 0.02206149 0.002189662)
(-0.4458367 0.0363136 0.0002175225)
(-0.4421408 0.05012705 0.0004506258)
(-0.4382638 0.06363565 2.163698e-05)
(-0.4333123 0.07676921 4.66882e-05)
(-0.4344463 0.004030828 0.0007054898)
(-0.4337361 0.0205419 0.002132843)
(-0.4323398 0.03385043 0.0002199364)
(-0.4289137 0.04677169 0.000451389)
(-0.4253584 0.05944159 1.661701e-05)
(-0.4207845 0.07177951 3.96579e-05)
(-0.4216319 0.003734535 0.0006719085)
(-0.4209567 0.01915009 0.002077942)
(-0.4197173 0.03158992 0.0002217695)
(-0.4165212 0.04368497 0.0004450268)
(-0.413243 0.05556992 1.256342e-05)
(-0.4089994 0.06716347 3.323125e-05)
(-0.4096579 0.003465319 0.0006407483)
(-0.4090068 0.01786856 0.002025926)
(-0.4079027 0.0295055 0.000223837)
(-0.4049062 0.04083425 0.0004398474)
(-0.4018682 0.05198216 1.457375e-05)
(-0.3979116 0.06287474 2.928469e-05)
(-0.3983193 0.002986497 0.0005477465)
(-0.3978264 0.01668274 0.001973333)
(-0.3968389 0.02757414 0.0002240083)
(-0.39402 0.03818914 0.0004314192)
(-0.3911923 0.04864586 5.993212e-06)
(-0.3874854 0.05887277 2.430682e-05)
(-0.9387435 0.4302136 -0.009046892)
(-0.775904 0.4220367 0.000801412)
(-0.6942121 0.4261721 0.001070774)
(-0.6360327 0.4309444 0.001193768)
(-0.5884768 0.4329189 0.001193508)
(-1.328095 0.1162822 -0.001199793)
(-1.167714 0.2324497 -0.008611367)
(-1.035727 0.2935363 -0.01377952)
(-0.9438543 0.3260321 -0.01627718)
(-0.8679714 0.3500754 -0.01710324)
(-0.8079813 0.365879 -0.01657283)
(-1.103811 0.08500177 0.001173236)
(-1.008506 0.2362348 0.001903894)
(-0.9492856 0.3015784 0.002082664)
(-0.888154 0.3536744 0.004549991)
(-0.833687 0.3874172 0.005831463)
(-0.7836703 0.4086614 0.005829576)
(-1.017371 0.04215766 0.0006884226)
(-0.9659754 0.1374496 -0.002310783)
(-0.9093861 0.1957569 0.0008886692)
(-0.8601221 0.2415385 0.001835833)
(-0.8099548 0.2787654 0.001507933)
(-0.765123 0.3068287 0.001145066)
(-0.9145519 0.03530212 0.001001159)
(-0.8775698 0.1282713 0.0003835709)
(-0.8483297 0.1875726 0.001941557)
(-0.8152563 0.2375516 0.002779244)
(-0.7783755 0.2742721 0.003222073)
(-0.7423339 0.3036545 0.003351977)
(-0.8506823 0.02369297 0.0005862543)
(-0.8312526 0.09406958 -0.0003898287)
(-0.8056105 0.1435891 -0.0001723469)
(-0.7776669 0.1850775 -0.0004673052)
(-0.7461308 0.2204396 4.848028e-06)
(-0.7152198 0.2499795 -0.0001460026)
(-0.7924747 0.02022947 0.0005048968)
(-0.776385 0.084177 -0.0004432768)
(-0.7589393 0.1298994 0.0004355815)
(-0.7380846 0.1699834 0.0003792746)
(-0.7136961 0.2039719 0.0007626751)
(-0.6883886 0.2330035 0.0008335729)
(-0.7459551 0.01617093 0.0003961516)
(-0.7347489 0.06945989 -0.0007660091)
(-0.7204641 0.1091681 -0.0001569809)
(-0.7035652 0.1446104 -0.0003856828)
(-0.6831671 0.1761797 -0.0001333612)
(-0.661731 0.2039655 -0.0001458947)
(-0.7046991 0.01393065 0.0003506654)
(-0.6953402 0.06152647 -0.0007137326)
(-0.6843195 0.09745121 -2.971098e-05)
(-0.6708713 0.1301831 -0.0002031643)
(-0.6541708 0.1597322 2.317191e-05)
(-0.6361754 0.1861876 3.435376e-05)
(-0.6688102 0.01192892 0.0003151318)
(-0.6613451 0.05378889 -0.0007418793)
(-0.6522646 0.085908 -0.0001159276)
(-0.6412074 0.1155825 -0.0003168984)
(-0.6271423 0.1429182 -0.0001282438)
(-0.6117957 0.1678368 -0.0001527371)
(-0.6367469 0.01046134 0.0002898591)
(-0.6304374 0.04810881 -0.0007102858)
(-0.6229259 0.0772441 -8.476965e-05)
(-0.6137584 0.1044698 -0.0002779914)
(-0.601845 0.1298474 -9.934782e-05)
(-0.5886964 0.1532813 -0.0001335594)
(-0.6079707 0.009241474 0.0002667326)
(-0.6026217 0.04320414 -0.0006905683)
(-0.5962457 0.06968075 -7.998482e-05)
(-0.5885196 0.09464874 -0.0002744075)
(-0.5782859 0.1181711 -0.0001067565)
(-0.5669074 0.1401356 -0.0001550502)
(-0.5818974 0.00825009 0.0002461929)
(-0.577267 0.03915473 -0.0006657237)
(-0.571779 0.06336979 -6.22776e-05)
(-0.5651903 0.08637202 -0.0002538695)
(-0.5563108 0.1082163 -9.128598e-05)
(-0.5463856 0.1287969 -0.0001449821)
(-0.5581325 0.007418179 0.0002280404)
(-0.5540805 0.0356788 -0.0006435906)
(-0.5492868 0.05790974 -4.797642e-05)
(-0.5436012 0.07915548 -0.0002379844)
(-0.5358182 0.09946326 -8.003778e-05)
(-0.5270898 0.1187384 -0.0001363756)
(-0.5363521 0.006713293 0.0002121275)
(-0.5327667 0.03268135 -0.0006226088)
(-0.5285287 0.05317154 -3.405253e-05)
(-0.5235714 0.07285239 -0.0002201982)
(-0.516688 0.09176056 -6.75886e-05)
(-0.508952 0.1098195 -0.0001247551)
(-0.516303 0.00610733 0.0001979946)
(-0.5131014 0.03006032 -0.0006034228)
(-0.5093141 0.04900748 -2.160576e-05)
(-0.5049518 0.06728261 -0.0002011388)
(-0.4988143 0.08491113 -5.367158e-05)
(-0.4919072 0.1018386 -0.0001113631)
(-0.4977794 0.005581061 0.0001852865)
(-0.4948975 0.02774582 -0.0005864161)
(-0.4914807 0.04531568 -1.163549e-05)
(-0.4876115 0.06231929 -0.0001842117)
(-0.4820977 0.07878102 -4.063058e-05)
(-0.4758867 0.09465649 -9.912708e-05)
(-0.4806135 0.005119302 0.0001735457)
(-0.4780014 0.02568281 -0.0005719531)
(-0.4748953 0.0420136 -6.152885e-06)
(-0.4714352 0.05785777 -0.0001764245)
(-0.466445 0.07325378 -3.042962e-05)
(-0.4608263 0.088151 -8.903251e-05)
(-0.4646663 0.004710794 0.0001627871)
(-0.4622847 0.02383034 -0.0005593792)
(-0.4594426 0.03903854 -2.998528e-06)
(-0.4563228 0.05382676 -0.0001736379)
(-0.4517744 0.06824153 -2.167533e-05)
(-0.4466641 0.08222711 -7.996299e-05)
(-0.4498205 0.004346425 0.0001528878)
(-0.4476377 0.02215533 -0.0005479647)
(-0.4450206 0.03634059 -5.222508e-07)
(-0.4421879 0.05016316 -0.000171802)
(-0.4380168 0.06366622 -1.472008e-05)
(-0.4333442 0.07680196 -7.239391e-05)
(-0.4359778 0.00401912 0.0001439109)
(-0.4339676 0.02063063 -0.0005366515)
(-0.4315431 0.03387806 3.28532e-06)
(-0.428955 0.04681095 -0.0001672108)
(-0.4251087 0.05946886 -7.94606e-06)
(-0.4208133 0.07181032 -6.568345e-05)
(-0.4230537 0.003723015 0.0001355823)
(-0.421195 0.01923413 -0.0005253025)
(-0.4189364 0.03161721 8.53887e-06)
(-0.4165579 0.04372541 -0.000160227)
(-0.4129934 0.05559515 -1.086771e-06)
(-0.4090243 0.06719252 -6.089331e-05)
(-0.410976 0.00345377 0.0001283465)
(-0.4092514 0.01794816 -0.0005142323)
(-0.4071363 0.02953038 1.415573e-05)
(-0.404938 0.04087154 -0.0001537723)
(-0.4016182 0.0520067 7.879411e-06)
(-0.3979325 0.06290454 -5.69895e-05)
(-0.3986871 0.002972477 7.8492e-05)
(-0.3980767 0.01675563 -0.0005032289)
(-0.3960862 0.02759343 2.079776e-05)
(-0.3940446 0.03821839 -0.0001471459)
(-0.3909394 0.04866326 1.854962e-05)
(-0.3875016 0.05890334 -5.604164e-05)
(-0.9396162 0.434748 -0.003771302)
(-0.7763772 0.4173617 0.0005371304)
(-0.6943743 0.4262248 0.0003314668)
(-0.6360972 0.4313649 0.0001674745)
(-0.5886686 0.4336871 7.105784e-05)
(-1.321001 0.115626 -0.0004556677)
(-1.169307 0.2352713 0.0001039006)
(-1.039372 0.294706 -0.0004784314)
(-0.9463743 0.3276367 -0.0006805912)
(-0.8682805 0.3509691 -0.0004979254)
(-0.8076535 0.3660408 -0.0003449445)
(-1.099898 0.0846811 0.0003179575)
(-1.006472 0.2351503 0.0008933342)
(-0.9483545 0.2996972 0.0003506283)
(-0.8888018 0.3396681 4.060055e-05)
(-0.8330706 0.3739013 1.972313e-05)
(-0.7827208 0.3997846 9.28218e-05)
(-1.016182 0.04219579 0.0005108972)
(-0.9642674 0.1362268 0.001347533)
(-0.9069101 0.1942661 0.0008136746)
(-0.8575975 0.2396148 0.0009762811)
(-0.8099998 0.2752278 0.0006315797)
(-0.7655866 0.3030224 0.0003034994)
(-0.9128357 0.03543987 0.0005556266)
(-0.8762518 0.1249205 0.001006767)
(-0.8490256 0.1878798 0.0007140451)
(-0.8146344 0.2351219 0.001144418)
(-0.7788178 0.2722794 0.0008209015)
(-0.742605 0.302062 0.001027815)
(-0.8490829 0.02340524 0.0004499448)
(-0.8309394 0.09339608 0.001545745)
(-0.8061696 0.1430538 0.0001463272)
(-0.777317 0.1842922 0.000756137)
(-0.7465564 0.2195081 0.0001503277)
(-0.7154087 0.2489788 0.0003736366)
(-0.7913235 0.02006215 0.0003452895)
(-0.7758864 0.08351504 0.00120599)
(-0.7592714 0.1298377 0.0003264907)
(-0.7379161 0.1694959 0.0007006048)
(-0.7139528 0.2036271 0.0003416517)
(-0.6884333 0.2326161 0.0004402456)
(-0.7450079 0.0160925 0.0002862761)
(-0.7344163 0.06917533 0.001073816)
(-0.7208945 0.1089858 0.0001800639)
(-0.7034909 0.1443051 0.0005098807)
(-0.6834663 0.1758908 0.0001585279)
(-0.6617974 0.2036408 0.0002322866)
(-0.7038582 0.01388058 0.0002585056)
(-0.6950061 0.0613306 0.0009922152)
(-0.6847098 0.09740712 0.0001973103)
(-0.6708177 0.130055 0.0004946494)
(-0.6544467 0.1596452 0.0001870784)
(-0.6362378 0.1860787 0.0002456325)
(-0.6680594 0.01189086 0.0002390543)
(-0.6610608 0.05365162 0.0009270813)
(-0.652669 0.08585343 0.0001598068)
(-0.6411796 0.1154768 0.0004331989)
(-0.6274165 0.142833 0.0001400074)
(-0.6118589 0.167735 0.0001894711)
(-0.6360559 0.01043313 0.0002266352)
(-0.6301684 0.0480069 0.0008828343)
(-0.6233187 0.07722414 0.000151276)
(-0.6137374 0.1044154 0.0004115577)
(-0.602109 0.1298155 0.0001335911)
(-0.5887563 0.1532382 0.0001811271)
(-0.6073285 0.009218025 0.0002163245)
(-0.6023712 0.04311886 0.0008439541)
(-0.5966337 0.06966547 0.0001381832)
(-0.5885064 0.09460511 0.0003847598)
(-0.5785424 0.1181458 0.0001178377)
(-0.5669636 0.1400997 0.0001634854)
(-0.5812945 0.008229975 0.0002075434)
(-0.5770282 0.03908237 0.0008112419)
(-0.5721586 0.06336321 0.0001298636)
(-0.5651811 0.08634166 0.0003653989)
(-0.5565591 0.1082036 0.0001086489)
(-0.5464388 0.1287745 0.0001521291)
(-0.5575631 0.007400145 0.0001997649)
(-0.5538516 0.03561436 0.0007816923)
(-0.5496579 0.05790651 0.000122652)
(-0.5435956 0.07913017 0.0003483192)
(-0.5360599 0.09945415 0.0001004665)
(-0.5271405 0.1187204 0.0001423173)
(-0.5358137 0.006696749 0.0001925676)
(-0.5325459 0.03262308 0.0007548228)
(-0.528892 0.05317063 0.0001170159)
(-0.5235692 0.07282983 0.0003329626)
(-0.5169224 0.09175447 9.369972e-05)
(-0.5090012 0.1098054 0.0001340549)
(-0.515792 0.006092208 0.0001858301)
(-0.512888 0.03000646 0.000729931)
(-0.5096705 0.04900715 0.0001119775)
(-0.5049525 0.06726059 0.0003173605)
(-0.499041 0.08490706 8.713376e-05)
(-0.4919546 0.1018267 0.0001254393)
(-0.497293 0.005567063 0.0001795439)
(-0.4946913 0.02769644 0.0007065716)
(-0.4918316 0.04531629 0.0001072581)
(-0.4876144 0.06230087 0.0003017743)
(-0.4823159 0.07877845 8.135556e-05)
(-0.4759332 0.09464605 0.0001173181)
(-0.4801491 0.005106244 0.0001737419)
(-0.477801 0.02563825 0.0006850405)
(-0.4752384 0.04201609 0.0001031926)
(-0.4714402 0.0578472 0.0002903281)
(-0.4666579 0.07325271 7.682315e-05)
(-0.4608728 0.0881424 0.0001107687)
(-0.4642218 0.0046986 0.0001684036)
(-0.4620886 0.02378986 0.0006654528)
(-0.4597753 0.03904259 0.0001004561)
(-0.4563302 0.05382173 0.0002833101)
(-0.4519859 0.06824119 7.340164e-05)
(-0.4467113 0.08221883 0.000105536)
(-0.4493937 0.004335032 0.00016353)
(-0.4474454 0.0221179 0.0006471378)
(-0.4453434 0.03634536 9.789095e-05)
(-0.4421982 0.05015909 0.0002765767)
(-0.4382277 0.06366749 6.965503e-05)
(-0.4333923 0.07679429 0.0001003517)
(-0.4355674 0.004008359 0.0001588982)
(-0.4337785 0.02059604 0.000629614)
(-0.431857 0.03388369 9.536737e-05)
(-0.4289673 0.04680697 0.0002694613)
(-0.4253191 0.05947145 6.603088e-05)
(-0.4208632 0.07180125 9.539856e-05)
(-0.4226584 0.003712934 0.0001544439)
(-0.4210084 0.01920215 0.00061242)
(-0.4192426 0.03162413 9.21416e-05)
(-0.4165724 0.04372189 0.0002606713)
(-0.4132045 0.05560253 6.119916e-05)
(-0.409079 0.06718237 9.031389e-05)
(-0.4105952 0.003444226 0.0001507453)
(-0.4090664 0.01791869 0.000595329)
(-0.4074357 0.02953965 8.813675e-05)
(-0.4049524 0.04086906 0.0002513307)
(-0.4018303 0.05201787 5.68554e-05)
(-0.3979903 0.06288937 8.671506e-05)
(-0.3982942 0.002970726 0.0001357655)
(-0.3978911 0.01672822 0.0005783387)
(-0.3963796 0.02760559 8.305492e-05)
(-0.3940597 0.0382148 0.0002416341)
(-0.3911572 0.04868712 4.854234e-05)
(-0.3875743 0.05888211 8.408028e-05)
(-0.9359021 0.4322327 0.001541594)
(-0.7734259 0.4533765 -0.002783793)
(-0.6927891 0.4656258 -0.001665617)
(-0.6372525 0.4701139 -0.000150566)
(-0.5914916 0.4722804 0.0004419234)
(-1.322898 0.1153201 0.0001246036)
(-1.167181 0.2344916 0.00248971)
(-1.036293 0.2959686 0.00654209)
(-0.9437814 0.3286677 0.010726)
(-0.8680328 0.3525418 0.01268186)
(-0.8082219 0.3680495 0.01283539)
(-1.099387 0.08414615 4.362572e-05)
(-1.008633 0.2336338 -0.001744313)
(-0.9495346 0.2984295 -0.001277254)
(-0.8887006 0.3484371 -0.001880826)
(-0.8339244 0.383498 -0.002577864)
(-0.7838369 0.406127 -0.002707488)
(-1.017037 0.04228577 2.504407e-05)
(-0.9650582 0.136507 -0.001109471)
(-0.9091212 0.1946084 -0.001870656)
(-0.8600715 0.2403234 -0.00355971)
(-0.8105791 0.2774209 -0.003360529)
(-0.7658519 0.3048022 -0.002918682)
(-0.9135022 0.03551403 -2.876456e-05)
(-0.8764683 0.1252935 -0.001371002)
(-0.8492016 0.1880036 -0.001419779)
(-0.814903 0.2363413 -0.001936051)
(-0.7789502 0.2742771 -0.001799704)
(-0.7420019 0.3029573 -0.001745931)
(-0.8497028 0.02329261 -3.198438e-05)
(-0.8310933 0.09355408 -0.001662938)
(-0.8063431 0.1432177 -0.0003761516)
(-0.7776003 0.1845998 -0.001073707)
(-0.746557 0.2199809 -0.0005392692)
(-0.7151821 0.2493592 -0.0006130805)
(-0.7918134 0.02006723 -1.310756e-05)
(-0.7759816 0.08363361 -0.00133564)
(-0.7593506 0.1299503 -0.0005294042)
(-0.7380141 0.1697505 -0.0009279249)
(-0.7139903 0.203991 -0.0006035651)
(-0.6884178 0.2328687 -0.0006751961)
(-0.7454241 0.01609514 2.854472e-07)
(-0.7344733 0.06923039 -0.001121399)
(-0.7209412 0.1090566 -0.0002590365)
(-0.7035433 0.144414 -0.0006056353)
(-0.6834806 0.1760317 -0.0002691096)
(-0.661785 0.2037702 -0.000326479)
(-0.7042196 0.01388196 4.946824e-06)
(-0.6950396 0.06136419 -0.001030777)
(-0.6847358 0.09744974 -0.0002584084)
(-0.6708426 0.1301209 -0.0005658704)
(-0.6544586 0.1597273 -0.0002687005)
(-0.6362402 0.1861526 -0.0003238984)
(-0.6683858 0.01189018 7.880842e-06)
(-0.661079 0.05366933 -0.000946481)
(-0.6526833 0.08587858 -0.0001909789)
(-0.6411927 0.1155121 -0.0004700785)
(-0.6274228 0.1428753 -0.0001827254)
(-0.6118611 0.1677779 -0.0002317238)
(-0.6363558 0.01043212 8.548993e-06)
(-0.6301789 0.04801651 -0.0008965141)
(-0.623327 0.0772382 -0.0001732742)
(-0.6137446 0.1044346 -0.0004376087)
(-0.6021129 0.1298384 -0.0001642203)
(-0.5887585 0.1532614 -0.0002122491)
(-0.6076067 0.009216987 8.756202e-06)
(-0.6023772 0.04312418 -0.000852332)
(-0.5966384 0.06967351 -0.0001517602)
(-0.5885103 0.09461582 -0.0004009155)
(-0.5785447 0.1181586 -0.000137217)
(-0.5669654 0.140113 -0.0001836006)
(-0.5815543 0.008228587 8.554273e-06)
(-0.5770316 0.03908517 -0.0008169478)
(-0.5721615 0.06336746 -0.0001393323)
(-0.5651835 0.08634728 -0.0003766265)
(-0.5565605 0.1082103 -0.0001222446)
(-0.5464399 0.1287818 -0.0001663758)
(-0.5578068 0.0073985 8.132877e-06)
(-0.5538537 0.03561589 -0.0007855276)
(-0.5496598 0.05790898 -0.0001291672)
(-0.5435972 0.07913334 -0.0003557469)
(-0.5360606 0.09945798 -0.0001096683)
(-0.5271411 0.1187247 -0.0001521425)
(-0.536043 0.006695251 7.565557e-06)
(-0.5325472 0.03262388 -0.0007574899)
(-0.5288932 0.05317199 -0.0001217117)
(-0.5235702 0.07283175 -0.0003382416)
(-0.5169228 0.09175691 -0.0001001412)
(-0.5090014 0.109808 -0.0001410035)
(-0.5160084 0.006090781 6.998981e-06)
(-0.5128889 0.03000684 -0.0007318624)
(-0.5096713 0.04900792 -0.000115443)
(-0.5049531 0.06726174 -0.0003213999)
(-0.499041 0.08490863 -9.188563e-05)
(-0.4919545 0.1018284 -0.0001304285)
(-0.497498 0.005565672 6.430237e-06)
(-0.4946919 0.02769648 -0.0007080017)
(-0.4918321 0.04531656 -0.0001098023)
(-0.4876146 0.06230123 -0.0003046289)
(-0.4823157 0.0787794 -8.452201e-05)
(-0.4759326 0.09464736 -0.0001207846)
(-0.4803437 0.005104902 5.860346e-06)
(-0.4778018 0.0256379 -0.0006862822)
(-0.4752388 0.04201589 -0.0001052751)
(-0.47144 0.05784711 -0.0002928103)
(-0.4666572 0.07325347 -7.912764e-05)
(-0.4608715 0.08814386 -0.0001134089)
(-0.4644072 0.004697273 5.314293e-06)
(-0.4620897 0.02378892 -0.0006665673)
(-0.4597756 0.03904158 -0.0001020284)
(-0.4563295 0.05382094 -0.0002855029)
(-0.4519842 0.06824138 -7.444071e-05)
(-0.4467087 0.08222063 -0.0001074107)
(-0.4495709 0.004333614 4.767575e-06)
(-0.447447 0.02211612 -0.0006483782)
(-0.4453438 0.036343 -9.924772e-05)
(-0.4421969 0.05015707 -0.0002794453)