/*--------------------------------*- C++ -*----------------------------------*\
  =========                 |
  \\      /  F ield         | OpenFOAM: The Open Source CFD Toolbox
   \\    /   O peration     | Website:  https://openfoam.org
    \\  /    A nd           | Version:  7
     \\/     M anipulation  |
\*---------------------------------------------------------------------------*/
FoamFile
{
    version     2.0;
    format      ascii;
    class       volScalarField;
    location    "0.09";
    object      epsilon;
}
// * * * * * * * * * * * * * * * * * * * * * * * * * * * * * * * * * * * * * //

dimensions      [0 2 -3 0 0 0 0];

internalField   nonuniform List<scalar> 
109978
(
0.001918171
0.001971782
0.001976528
0.001977058
0.001977016
0.001976433
0.001972051
0.002076432
0.002086883
0.002088164
0.002088117
0.002087213
0.001976821
0.00208708
0.002099005
0.002100623
0.002100571
0.002099474
0.001977318
0.002088433
0.002100727
0.002102511
0.002102499
0.002101338
0.001977411
0.002088679
0.002101164
0.002102998
0.002102996
0.002101814
0.001977419
0.002088799
0.002101284
0.002103144
0.002103161
0.002101974
0.001977398
0.002088846
0.002101317
0.002103207
0.002103229
0.002102042
0.001977412
0.002088855
0.00210134
0.002103227
0.002103255
0.002102068
0.00197742
0.002088857
0.002101343
0.002103236
0.002103266
0.00210208
0.001977407
0.002088859
0.002101345
0.00210324
0.002103271
0.002102085
0.001977415
0.002088859
0.002101343
0.002103242
0.002103274
0.002102087
0.001977418
0.002088859
0.002101339
0.002103242
0.002103275
0.002102087
0.001977409
0.002088859
0.002101336
0.002103242
0.002103275
0.002102087
0.001977419
0.002088858
0.002101336
0.002103241
0.002103274
0.002102086
0.001977409
0.002088856
0.002101328
0.00210324
0.002103272
0.002102085
0.001977412
0.002088856
0.002101327
0.002103238
0.00210327
0.002102083
0.001977417
0.002088853
0.002101323
0.002103234
0.002103264
0.002102079
0.001977405
0.00208885
0.002101318
0.002103225
0.002103254
0.002102068
0.00197741
0.002088836
0.002101297
0.002103201
0.002103228
0.002102042
0.00197739
0.002088798
0.002101246
0.002103131
0.002103153
0.002101967
0.001977332
0.002088641
0.002101035
0.002102887
0.002102899
0.002101718
0.001977057
0.00208809
0.002100336
0.002102112
0.002102123
0.002100986
0.01060974
0.002086902
0.002098905
0.002100576
0.002100624
0.002099665
0.002106338
0.002108188
0.00210789
0.002107836
0.002107823
0.002107723
0.01061994
0.01060915
0.01060905
0.01060905
0.01060904
0.01060905
0.01061902
0.01060899
0.01060894
0.01060892
0.01060891
0.01060891
0.010619
0.010609
0.01060894
0.01060891
0.01060891
0.0106089
0.01061897
0.010609
0.01060894
0.01060891
0.0106089
0.0106089
0.01061898
0.010609
0.01060894
0.01060891
0.0106089
0.0106089
0.01061897
0.010609
0.01060894
0.01060891
0.0106089
0.0106089
0.01061897
0.010609
0.01060894
0.01060891
0.0106089
0.0106089
0.01061897
0.010609
0.01060894
0.01060891
0.0106089
0.0106089
0.01061897
0.010609
0.01060894
0.01060891
0.0106089
0.0106089
0.01061897
0.010609
0.01060894
0.01060891
0.0106089
0.0106089
0.01061897
0.010609
0.01060894
0.01060891
0.0106089
0.0106089
0.01061896
0.010609
0.01060894
0.01060891
0.0106089
0.0106089
0.01061896
0.010609
0.01060894
0.01060891
0.0106089
0.0106089
0.01061896
0.010609
0.01060894
0.01060891
0.0106089
0.0106089
0.01061896
0.010609
0.01060894
0.01060891
0.0106089
0.0106089
0.01061896
0.010609
0.01060894
0.01060891
0.0106089
0.0106089
0.01061896
0.010609
0.01060894
0.01060891
0.0106089
0.0106089
0.01061896
0.010609
0.01060894
0.01060891
0.0106089
0.0106089
0.01061896
0.010609
0.01060894
0.01060891
0.0106089
0.0106089
0.01061896
0.010609
0.01060894
0.01060891
0.0106089
0.0106089
0.01061896
0.010609
0.01060893
0.01060891
0.0106089
0.0106089
0.01061896
0.010609
0.01060893
0.01060891
0.0106089
0.0106089
0.01061896
0.010609
0.01060893
0.01060891
0.0106089
0.0106089
0.002103289
0.002108091
0.002107469
0.002107227
0.002107217
0.002107252
0.01061897
0.01060897
0.01060893
0.01060892
0.01060892
0.01060892
0.01061769
0.0106089
0.01060887
0.01060883
0.01060881
0.0106088
0.01061767
0.01060894
0.01060889
0.01060884
0.01060881
0.0106088
0.01061764
0.01060893
0.01060889
0.01060884
0.01060881
0.0106088
0.01061765
0.01060894
0.0106089
0.01060885
0.01060881
0.0106088
0.01061764
0.01060894
0.0106089
0.01060885
0.01060882
0.0106088
0.01061764
0.01060894
0.0106089
0.01060885
0.01060882
0.0106088
0.01061764
0.01060894
0.0106089
0.01060885
0.01060882
0.0106088
0.01061764
0.01060894
0.0106089
0.01060885
0.01060882
0.0106088
0.01061764
0.01060894
0.0106089
0.01060885
0.01060882
0.0106088
0.01061764
0.01060894
0.0106089
0.01060885
0.01060882
0.0106088
0.01061764
0.01060894
0.0106089
0.01060885
0.01060882
0.0106088
0.01061764
0.01060894
0.0106089
0.01060885
0.01060882
0.0106088
0.01061764
0.01060894
0.0106089
0.01060885
0.01060882
0.0106088
0.01061764
0.01060894
0.0106089
0.01060885
0.01060882
0.0106088
0.01061764
0.01060894
0.0106089
0.01060885
0.01060882
0.0106088
0.01061764
0.01060894
0.0106089
0.01060885
0.01060882
0.0106088
0.01061764
0.01060894
0.0106089
0.01060885
0.01060882
0.0106088
0.01061764
0.01060894
0.0106089
0.01060885
0.01060882
0.0106088
0.01061764
0.01060894
0.0106089
0.01060885
0.01060882
0.0106088
0.01061764
0.01060894
0.0106089
0.01060884
0.01060881
0.0106088
0.01061764
0.01060893
0.01060889
0.01060884
0.01060881
0.0106088
0.01061764
0.01060893
0.01060889
0.01060884
0.01060881
0.0106088
0.002102838
0.002107653
0.002106841
0.002106566
0.002106536
0.002106632
0.01061899
0.01060894
0.01060891
0.01060891
0.0106089
0.0106089
0.01061767
0.01060886
0.01060885
0.01060882
0.01060881
0.0106088
0.01061766
0.01060887
0.01060885
0.01060883
0.01060881
0.0106088
0.01061765
0.01060887
0.01060887
0.01060884
0.01060882
0.0106088
0.01061766
0.01060888
0.01060887
0.01060884
0.01060882
0.0106088
0.01061766
0.01060888
0.01060887
0.01060885
0.01060882
0.0106088
0.01061766
0.01060888
0.01060887
0.01060885
0.01060882
0.0106088
0.01061766
0.01060888
0.01060887
0.01060885
0.01060882
0.0106088
0.01061766
0.01060888
0.01060887
0.01060885
0.01060882
0.0106088
0.01061766
0.01060888
0.01060887
0.01060885
0.01060882
0.0106088
0.01061766
0.01060888
0.01060887
0.01060885
0.01060882
0.0106088
0.01061766
0.01060888
0.01060887
0.01060885
0.01060882
0.0106088
0.01061766
0.01060888
0.01060887
0.01060885
0.01060882
0.0106088
0.01061766
0.01060888
0.01060887
0.01060885
0.01060882
0.0106088
0.01061766
0.01060888
0.01060887
0.01060885
0.01060882
0.0106088
0.01061766
0.01060888
0.01060887
0.01060885
0.01060882
0.0106088
0.01061766
0.01060888
0.01060887
0.01060885
0.01060882
0.0106088
0.01061766
0.01060888
0.01060887
0.01060885
0.01060882
0.0106088
0.01061766
0.01060888
0.01060887
0.01060885
0.01060882
0.0106088
0.01061766
0.01060887
0.01060887
0.01060884
0.01060882
0.0106088
0.01061766
0.01060887
0.01060887
0.01060884
0.01060882
0.0106088
0.01061766
0.01060887
0.01060886
0.01060884
0.01060882
0.0106088
0.01061766
0.01060887
0.01060886
0.01060884
0.01060882
0.0106088
0.002102689
0.002107497
0.002106676
0.00210633
0.00210628
0.002106386
0.01061898
0.01060892
0.0106089
0.0106089
0.0106089
0.0106089
0.01061764
0.01060883
0.01060883
0.01060882
0.01060881
0.0106088
0.01061765
0.01060884
0.01060883
0.01060882
0.01060881
0.0106088
0.01061762
0.01060883
0.01060883
0.01060883
0.01060881
0.0106088
0.01061763
0.01060884
0.01060883
0.01060883
0.01060881
0.0106088
0.01061763
0.01060883
0.01060883
0.01060883
0.01060882
0.0106088
0.01061763
0.01060883
0.01060883
0.01060883
0.01060881
0.0106088
0.01061763
0.01060883
0.01060883
0.01060883
0.01060881
0.0106088
0.01061763
0.01060883
0.01060883
0.01060883
0.01060881
0.0106088
0.01061763
0.01060883
0.01060883
0.01060883
0.01060881
0.0106088
0.01061763
0.01060883
0.01060883
0.01060883
0.01060881
0.0106088
0.01061763
0.01060883
0.01060883
0.01060883
0.01060881
0.0106088
0.01061763
0.01060883
0.01060883
0.01060883
0.01060881
0.0106088
0.01061763
0.01060883
0.01060883
0.01060883
0.01060881
0.0106088
0.01061763
0.01060883
0.01060883
0.01060883
0.01060881
0.0106088
0.01061763
0.01060883
0.01060883
0.01060883
0.01060881
0.0106088
0.01061763
0.01060883
0.01060883
0.01060882
0.01060881
0.0106088
0.01061763
0.01060883
0.01060883
0.01060882
0.01060881
0.0106088
0.01061763
0.01060883
0.01060883
0.01060882
0.01060881
0.0106088
0.01061763
0.01060883
0.01060883
0.01060882
0.01060881
0.0106088
0.01061763
0.01060883
0.01060883
0.01060882
0.01060881
0.0106088
0.01061763
0.01060883
0.01060883
0.01060882
0.01060881
0.0106088
0.01061763
0.01060883
0.01060883
0.01060882
0.01060881
0.0106088
0.002102678
0.002107486
0.002106634
0.002106302
0.002106257
0.00210637
0.01061898
0.01060892
0.0106089
0.0106089
0.0106089
0.0106089
0.01061764
0.01060883
0.01060883
0.01060882
0.01060881
0.0106088
0.01061766
0.01060884
0.01060883
0.01060882
0.01060881
0.0106088
0.01061762
0.01060883
0.01060883
0.01060883
0.01060881
0.0106088
0.01061763
0.01060884
0.01060883
0.01060883
0.01060881
0.0106088
0.01061763
0.01060883
0.01060883
0.01060883
0.01060882
0.0106088
0.01061763
0.01060883
0.01060883
0.01060883
0.01060881
0.0106088
0.01061763
0.01060883
0.01060883
0.01060883
0.01060881
0.0106088
0.01061763
0.01060883
0.01060883
0.01060883
0.01060881
0.0106088
0.01061763
0.01060883
0.01060883
0.01060883
0.01060881
0.0106088
0.01061763
0.01060883
0.01060883
0.01060883
0.01060881
0.0106088
0.01061763
0.01060883
0.01060883
0.01060883
0.01060881
0.0106088
0.01061763
0.01060883
0.01060883
0.01060883
0.01060881
0.0106088
0.01061763
0.01060883
0.01060883
0.01060883
0.01060881
0.0106088
0.01061763
0.01060883
0.01060883
0.01060883
0.01060881
0.0106088
0.01061763
0.01060883
0.01060883
0.01060882
0.01060881
0.0106088
0.01061763
0.01060883
0.01060883
0.01060882
0.01060881
0.0106088
0.01061763
0.01060883
0.01060883
0.01060882
0.01060881
0.0106088
0.01061763
0.01060883
0.01060883
0.01060882
0.01060881
0.0106088
0.01061763
0.01060883
0.01060883
0.01060882
0.01060881
0.0106088
0.01061763
0.01060883
0.01060883
0.01060882
0.01060881
0.0106088
0.01061763
0.01060883
0.01060883
0.01060882
0.01060881
0.0106088
0.01061763
0.01060883
0.01060883
0.01060882
0.01060881
0.0106088
0.002102685
0.002107526
0.002106723
0.002106415
0.002106401
0.002106508
0.01061899
0.01060894
0.01060891
0.01060891
0.0106089
0.0106089
0.01061766
0.01060885
0.01060885
0.01060882
0.01060881
0.0106088
0.01061767
0.01060887
0.01060885
0.01060882
0.01060881
0.0106088
0.01061765
0.01060886
0.01060886
0.01060883
0.01060881
0.0106088
0.01061765
0.01060887
0.01060886
0.01060884
0.01060881
0.0106088
0.01061765
0.01060887
0.01060886
0.01060884
0.01060882
0.0106088
0.01061765
0.01060887
0.01060886
0.01060884
0.01060882
0.0106088
0.01061765
0.01060887
0.01060886
0.01060884
0.01060882
0.0106088
0.01061765
0.01060887
0.01060886
0.01060884
0.01060882
0.0106088
0.01061765
0.01060887
0.01060886
0.01060884
0.01060882
0.0106088
0.01061765
0.01060887
0.01060886
0.01060884
0.01060882
0.0106088
0.01061765
0.01060887
0.01060886
0.01060884
0.01060882
0.0106088
0.01061765
0.01060887
0.01060886
0.01060884
0.01060882
0.0106088
0.01061765
0.01060887
0.01060886
0.01060884
0.01060882
0.0106088
0.01061765
0.01060887
0.01060886
0.01060884
0.01060882
0.0106088
0.01061765
0.01060887
0.01060886
0.01060884
0.01060882
0.0106088
0.01061765
0.01060887
0.01060886
0.01060884
0.01060882
0.0106088
0.01061765
0.01060886
0.01060886
0.01060884
0.01060882
0.0106088
0.01061765
0.01060886
0.01060886
0.01060884
0.01060881
0.0106088
0.01061765
0.01060886
0.01060886
0.01060884
0.01060881
0.0106088
0.01061765
0.01060886
0.01060885
0.01060883
0.01060881
0.0106088
0.01061765
0.01060886
0.01060885
0.01060883
0.01060881
0.0106088
0.01061764
0.01060886
0.01060885
0.01060883
0.01060881
0.0106088
0.002102882
0.002107984
0.002107376
0.002107092
0.002107087
0.002107165
0.01061898
0.01060896
0.01060893
0.01060892
0.01060891
0.01060892
0.01061768
0.01060889
0.01060886
0.01060882
0.0106088
0.0106088
0.01061768
0.01060892
0.01060887
0.01060883
0.01060881
0.0106088
0.01061763
0.01060891
0.01060887
0.01060883
0.01060881
0.0106088
0.01061763
0.01060892
0.01060888
0.01060883
0.01060881
0.0106088
0.01061763
0.01060892
0.01060888
0.01060883
0.01060881
0.0106088
0.01061762
0.01060892
0.01060888
0.01060883
0.01060881
0.0106088
0.01061762
0.01060892
0.01060888
0.01060883
0.01060881
0.0106088
0.01061762
0.01060892
0.01060888
0.01060883
0.01060881
0.0106088
0.01061762
0.01060892
0.01060888
0.01060883
0.01060881
0.0106088
0.01061762
0.01060892
0.01060888
0.01060883
0.01060881
0.0106088
0.01061762
0.01060892
0.01060888
0.01060883
0.01060881
0.0106088
0.01061762
0.01060892
0.01060888
0.01060883
0.01060881
0.0106088
0.01061762
0.01060892
0.01060888
0.01060883
0.01060881
0.0106088
0.01061762
0.01060892
0.01060888
0.01060883
0.01060881
0.0106088
0.01061762
0.01060892
0.01060888
0.01060883
0.01060881
0.0106088
0.01061762
0.01060892
0.01060888
0.01060883
0.01060881
0.0106088
0.01061762
0.01060892
0.01060888
0.01060883
0.01060881
0.0106088
0.01061762
0.01060892
0.01060888
0.01060883
0.01060881
0.0106088
0.01061762
0.01060892
0.01060887
0.01060883
0.01060881
0.0106088
0.01061762
0.01060892
0.01060887
0.01060883
0.01060881
0.0106088
0.01061762
0.01060891
0.01060887
0.01060883
0.01060881
0.0106088
0.01061762
0.01060891
0.01060887
0.01060883
0.01060881
0.0106088
0.002101559
0.002104278
0.002103897
0.002103772
0.002103767
0.00210374
0.01061921
0.01060913
0.01060904
0.01060904
0.01060904
0.01060904
0.01061798
0.01060895
0.01060892
0.01060891
0.01060891
0.01060891
0.01061802
0.01060896
0.01060891
0.0106089
0.0106089
0.0106089
0.01061798
0.01060895
0.01060891
0.0106089
0.0106089
0.0106089
0.01061798
0.01060895
0.01060891
0.0106089
0.0106089
0.01060889
0.01061798
0.01060895
0.01060891
0.0106089
0.0106089
0.0106089
0.01061798
0.01060895
0.01060891
0.0106089
0.01060889
0.01060889
0.01061797
0.01060895
0.01060891
0.0106089
0.01060889
0.01060889
0.01061797
0.01060895
0.01060891
0.0106089
0.01060889
0.01060889
0.01061797
0.01060895
0.01060891
0.0106089
0.01060889
0.01060889
0.01061797
0.01060895
0.01060891
0.0106089
0.01060889
0.01060889
0.01061797
0.01060895
0.01060891
0.0106089
0.01060889
0.01060889
0.01061797
0.01060895
0.01060891
0.0106089
0.01060889
0.01060889
0.01061797
0.01060895
0.01060891
0.0106089
0.01060889
0.01060889
0.01061797
0.01060895
0.01060891
0.0106089
0.01060889
0.01060889
0.01061797
0.01060895
0.01060891
0.0106089
0.01060889
0.01060889
0.01061797
0.01060895
0.01060891
0.0106089
0.01060889
0.01060889
0.01061797
0.01060895
0.01060891
0.0106089
0.01060889
0.01060889
0.01061797
0.01060895
0.01060891
0.0106089
0.01060889
0.01060889
0.01061797
0.01060895
0.01060891
0.0106089
0.01060889
0.01060889
0.01061797
0.01060895
0.01060891
0.0106089
0.0106089
0.0106089
0.01061797
0.01060895
0.01060891
0.0106089
0.0106089
0.0106089
0.01061797
0.01060895
0.01060891
0.0106089
0.0106089
0.01060891
0.005959334
0.006074325
0.006077786
0.006078291
0.006078351
0.006078214
0.01065172
0.01060839
0.01060768
0.01060768
0.01060764
0.01060765
0.01060778
0.01064845
0.01060957
0.0106086
0.01060839
0.01060828
0.01060828
0.01060843
0.01064845
0.01060938
0.01060841
0.01060818
0.01060812
0.01060811
0.01060824
0.01064842
0.01060925
0.01060844
0.01060819
0.0106081
0.01060808
0.01060821
0.01064842
0.01060936
0.01060838
0.01060816
0.01060809
0.01060807
0.01060819
0.01064841
0.0106093
0.01060839
0.01060816
0.01060808
0.01060807
0.01060819
0.01064841
0.01060929
0.01060839
0.01060816
0.01060808
0.01060806
0.01060819
0.01064841
0.01060928
0.01060837
0.01060815
0.01060808
0.01060806
0.01060819
0.01064841
0.01060929
0.01060837
0.01060815
0.01060808
0.01060806
0.01060819
0.01064841
0.01060929
0.01060837
0.01060815
0.01060808
0.01060806
0.01060819
0.01064841
0.01060929
0.01060837
0.01060815
0.01060808
0.01060806
0.01060819
0.01064841
0.0106093
0.01060837
0.01060815
0.01060808
0.01060806
0.01060819
0.01064841
0.01060929
0.01060837
0.01060815
0.01060808
0.01060806
0.01060819
0.01064841
0.01060929
0.01060837
0.01060815
0.01060808
0.01060806
0.01060819
0.01064841
0.0106093
0.01060837
0.01060815
0.01060808
0.01060806
0.01060818
0.01064841
0.01060929
0.01060837
0.01060815
0.01060808
0.01060806
0.01060818
0.01064841
0.01060929
0.01060837
0.01060815
0.01060808
0.01060806
0.01060818
0.01064841
0.01060929
0.01060838
0.01060815
0.01060808
0.01060806
0.01060819
0.01064841
0.01060929
0.01060837
0.01060815
0.01060808
0.01060806
0.01060819
0.01064841
0.0106093
0.01060838
0.01060815
0.01060808
0.01060806
0.01060819
0.01064841
0.01060929
0.01060838
0.01060816
0.01060809
0.01060807
0.01060819
0.01064841
0.01060929
0.01060839
0.01060817
0.01060809
0.01060808
0.0106082
0.01064845
0.01060932
0.01060842
0.01060819
0.01060816
0.01060809
0.01060823
0.004153638
0.006770465
0.01065408
0.01061614
0.004125019
0.004299195
0.005959305
0.006083368
0.01061687
0.01061672
0.004298746
0.004308156
0.006074345
0.006088009
0.01061704
0.01061704
0.004303237
0.004308696
0.006077795
0.006088057
0.01061718
0.01061709
0.004303624
0.004308802
0.006078313
0.006088173
0.01061719
0.01061712
0.004303663
0.004308547
0.006078378
0.006088105
0.0106172
0.01061712
0.004303216
0.006078228
0.0106172
0.004115804
0.004276086
0.01064974
0.010616
0.01064875
0.01061597
0.004281624
0.004284932
0.01064576
0.01061551
0.01064853
0.01061552
0.004286239
0.004286063
0.01064577
0.01061548
0.01064849
0.01061552
0.004285876
0.004285667
0.01064574
0.0106155
0.01064847
0.01061552
0.004286129
0.004286065
0.01064574
0.0106155
0.01064846
0.01061551
0.004286138
0.00428615
0.01064573
0.01061551
0.01064845
0.01061552
0.004286063
0.004286235
0.01064573
0.01061553
0.01064846
0.01061553
0.00428616
0.004286221
0.01064573
0.01061552
0.01064845
0.01061552
0.004286215
0.004286244
0.01064573
0.01061552
0.01064845
0.01061552
0.004286107
0.004286202
0.01064573
0.01061552
0.01064845
0.01061552
0.004286179
0.004286218
0.01064573
0.01061552
0.01064845
0.01061552
0.004286194
0.004286221
0.01064573
0.01061552
0.01064845
0.01061552
0.004286122
0.004286184
0.01064573
0.01061552
0.01064845
0.01061552
0.00428619
0.004286198
0.01064573
0.01061552
0.01064845
0.01061552
0.004286106
0.004286159
0.01064573
0.01061552
0.01064845
0.01061552
0.004286172
0.004286208
0.01064573
0.01061552
0.01064845
0.01061552
0.00428619
0.004286218
0.01064573
0.01061552
0.01064845
0.01061552
0.004286125
0.004286195
0.01064573
0.01061552
0.01064845
0.01061552
0.004286194
0.004286192
0.01064573
0.01061552
0.01064845
0.01061552
0.004286105
0.004286161
0.01064573
0.01061552
0.01064845
0.01061552
0.004286111
0.00428611
0.01064573
0.01061552
0.01064845
0.01061552
0.004285911
0.004285469
0.01064573
0.01061551
0.01064845
0.01061551
0.00428502
0.01039759
0.01064842
0.01061551
0.01064571
0.01061178
0.005961251
0.01064847
0.01060855
0.006030857
0.01064777
0.01060827
0.00603389
0.01064481
0.01060763
0.006033097
0.0106475
0.01060749
0.00603471
0.01064479
0.01060754
0.006034928
0.01064754
0.01060759
0.006034697
0.01064477
0.01060759
0.006034727
0.01064751
0.01060758
0.006034355
0.01064476
0.01060757
0.006035074
0.01064752
0.01060758
0.006033878
0.01064476
0.01060757
0.006035317
0.0106475
0.01060754
0.006033345
0.01064474
0.01060749
0.006033739
0.01064761
0.01060757
0.006030935
0.01064492
0.01060826
0.00596142
0.01065058
0.01060856
0.006770578
0.01065116
0.01061609
0.00415364
0.01061712
0.004303233
0.01061223
0.01064872
0.01061597
0.0041158
0.004276077
0.01061177
0.0106485
0.01061552
0.004281635
0.004284927
0.01061176
0.01064844
0.01061552
0.00428593
0.004285652
0.01061176
0.01064843
0.01061551
0.004286104
0.004286066
0.01061176
0.01064842
0.01061553
0.004286111
0.004286158
0.01061178
0.01064842
0.01061553
0.0042861
0.004286261
0.01061177
0.01064842
0.01061552
0.004286033
0.004286135
0.01061178
0.01064842
0.01061552
0.004286086
0.004286199
0.01061178
0.01064842
0.01061552
0.004286148
0.004286126
0.01061177
0.01064842
0.01061552
0.004286001
0.004286083
0.01061178
0.01064842
0.01061552
0.004286219
0.004286245
0.01061177
0.01064842
0.01061552
0.004286067
0.004286091
0.01061178
0.01064842
0.01061552
0.004286056
0.00428616
0.01061178
0.01064842
0.01061552
0.00428617
0.004286208
0.01061178
0.01064842
0.01061552
0.004286092
0.004286185
0.01061178
0.01064842
0.01061552
0.004286107
0.004286107
0.01061178
0.01064842
0.01061552
0.004286067
0.00428617
0.01061178
0.01064842
0.01061552
0.004286193
0.00428615
0.01061178
0.01064842
0.01061552
0.004286142
0.004286066
0.01061177
0.01064842
0.01061551
0.004285969
0.004285447
0.0106155
0.01064839
0.01061175
0.004284965
0.01039625
0.01061889
0.008770079
0.01061237
0.008859661
0.01061074
0.008875786
0.0106115
0.008882427
0.01061033
0.008883738
0.01061132
0.008885048
0.01061022
0.008887868
0.01061143
0.008885571
0.01060992
0.008884948
0.01061135
0.008886865
0.01060993
0.008885391
0.01061133
0.008886093
0.01060988
0.008885439
0.01061133
0.008885701
0.01060991
0.008885441
0.01061131
0.008885698
0.01060992
0.008885476
0.0106113
0.008885504
0.0106099
0.008885484
0.01061133
0.008885532
0.01060992
0.008885429
0.01061131
0.008885547
0.01060991
0.008885465
0.0106113
0.008885506
0.0106099
0.008885464
0.01061133
0.008885529
0.0106099
0.008885459
0.0106113
0.008885595
0.0106099
0.008885431
0.01061132
0.008885481
0.0106099
0.008885411
0.01061131
0.008885552
0.01060991
0.008885453
0.0106113
0.008885453
0.0106099
0.008885428
0.01061132
0.008885494
0.0106099
0.008885427
0.01061131
0.008885537
0.0106099
0.008885396
0.01061133
0.008885455
0.01060992
0.008885329
0.01061131
0.008885443
0.01060992
0.008885344
0.01061136
0.008885387
0.01060993
0.008885348
0.01061131
0.008885272
0.01060991
0.008884372
0.01059154
0.01059251
0.01059125
0.01058971
0.01059303
0.01058836
0.01059072
0.01058986
0.010592
0.01058839
0.01059126
0.01058944
0.01059099
0.01059056
0.0105915
0.01059134
0.01061739
0.01060989
0.006083366
0.01061686
0.01061671
0.004125017
0.004299255
0.006088017
0.01061697
0.01061703
0.004298795
0.004308198
0.006088053
0.01061709
0.01061708
0.004303261
0.004308697
0.006088174
0.0106171
0.0106171
0.004303657
0.004308849
0.00608812
0.0106169
0.01061321
0.004303681
0.004308548
0.01061174
0.01064846
0.01061551
0.00428626
0.004286097
0.01061178
0.01064842
0.01061551
0.004286093
0.004286152
0.01062653
0.008866346
0.01062663
0.008550187
0.0106173
0.01060961
0.01061189
0.008881691
0.01061037
0.008877334
0.01061155
0.008886447
0.01061011
0.008884294
0.01061138
0.008886007
0.01060991
0.008885365
0.01061135
0.008885216
0.01061006
0.00888628
0.01061127
0.008885338
0.01060993
0.008886277
0.0106113
0.008885419
0.0106099
0.008885516
0.01061125
0.008885542
0.01060988
0.008885589
0.01061127
0.008885516
0.01060988
0.008885555
0.01061127
0.008885488
0.01060988
0.008885543
0.01061127
0.008885503
0.01060988
0.0088855
0.01061127
0.008885493
0.01060987
0.008885487
0.01061127
0.008885502
0.01060988
0.00888547
0.01061128
0.008885546
0.01060987
0.008885505
0.01061128
0.008885482
0.01060988
0.008885522
0.01061127
0.008885467
0.01060988
0.008885552
0.01061127
0.00888549
0.01060987
0.008885449
0.01061127
0.008885471
0.01060988
0.008885467
0.01061128
0.008885485
0.01060988
0.008885473
0.01061128
0.008885408
0.01060988
0.008885606
0.01061127
0.008885392
0.01060988
0.008885439
0.01061127
0.008885397
0.01060989
0.008885364
0.01061132
0.008885275
0.01060985
0.008885239
0.0106112
0.01012232
0.008884836
0.01060389
0.01059188
0.0105905
0.0105909
0.0105916
0.01059049
0.01058908
0.01059183
0.01058919
0.0105906
0.01058998
0.01059113
0.01059037
0.01059257
0.01058841
0.01059218
0.01059129
0.01061854
0.008770449
0.01062017
0.008934625
0.01062007
0.008586138
0.01062655
0.008866137
0.01062667
0.008549974
0.01061957
0.008941429
0.01061847
0.008961844
0.01061237
0.0088595
0.01061071
0.008875772
0.01061189
0.008881765
0.01061039
0.008877304
0.01061149
0.008882507
0.0106103
0.008883783
0.01061155
0.008886492
0.01061014
0.008884309
0.01061142
0.008884851
0.01060992
0.008885005
0.01061135
0.00888523
0.01061009
0.008886202
0.01061134
0.008886988
0.01060989
0.00888543
0.01061127
0.008885382
0.01060996
0.008886341
0.01061129
0.008885593
0.0106099
0.008885859
0.01061139
0.008886205
0.01060986
0.008884861
0.01061134
0.008885537
0.0106099
0.008885448
0.01061129
0.008885722
0.0106099
0.008885569
0.01061137
0.008885652
0.01060986
0.008884764
0.01061135
0.008885503
0.01060991
0.008885406
0.01061128
0.008885563
0.01060991
0.008885709
0.01061131
0.008885639
0.01060988
0.008885481
0.01061129
0.008885558
0.0106099
0.008885548
0.01061131
0.008885445
0.01060988
0.008885494
0.01061128
0.008885767
0.0106099
0.008885451
0.01061132
0.008885395
0.01060989
0.00888575
0.01061132
0.008884984
0.01060997
0.008884466
0.01061128
0.008678661
0.008884436
0.01060369
0.006850425
0.007511434
0.0072666
0.007303439
0.007268377
0.007295391
0.007277868
0.007280141
0.007270846
0.007287334
0.007269633
0.007302846
0.007288014
0.007260264
0.007284983
0.007266162
0.007225619
0.007225286
0.00727178
0.00730669
0.01062024
0.008934283
0.01061935
0.008585575
0.007321472
0.007314674
0.007261157
0.007301013
0.007255772
0.007215554
0.00724044
0.007260031
0.007304559
0.007299317
0.007299795
0.007236765
0.007322268
0.007309246
0.007297081
0.007291528
0.007261702
0.007294506
0.006890941
0.007562284
0.01056232
0.008510299
0.01055641
0.008504041
0.007932471
0.007986683
0.007940333
0.007981757
0.0105655
0.008505491
0.008504319
0.01055759
0.01056549
0.008507766
0.008506516
0.01055848
0.01056554
0.008509328
0.01055839
0.008507673
0.01056557
0.008508887
0.01055842
0.008507579
0.01056536
0.00850864
0.008507622
0.0105583
0.01056557
0.008509058
0.01055843
0.00850758
0.01061133
0.00888618
0.01060985
0.008885473
0.01061129
0.008886177
0.0106099
0.008885682
0.0106113
0.008885669
0.01060987
0.008885541
0.01061133
0.008886353
0.01060987
0.008885021
0.01061136
0.008886051
0.01060986
0.008885598
0.01061128
0.008886224
0.0106099
0.008886004
0.01061133
0.008885607
0.0106099
0.008884929
0.01061132
0.008886156
0.01060988
0.00888497
0.01061142
0.008886033
0.01060985
0.008884672
0.01061136
0.008884961
0.01060989
0.008885097
0.01061132
0.008884776
0.01060989
0.008884669
0.01061128
0.008884755
0.01060992
0.00888471
0.01061139
0.008884917
0.01060987
0.008885084
0.01061135
0.008886234
0.01060987
0.008884963
0.01061135
0.008886174
0.01060985
0.008885994
0.0106113
0.008885644
0.01060991
0.008885786
0.01061132
0.008886455
0.01060986
0.008885595
0.01061129
0.00888595
0.01060987
0.008885708
0.01056547
0.00850901
0.008507632
0.01055838
0.01056548
0.008509049
0.01055836
0.008507575
0.01056547
0.008509015
0.008507736
0.01055824
0.01061133
0.008886295
0.01060987
0.008885021
0.01056547
0.008509009
0.01055837
0.008507584
0.0105655
0.008508967
0.01055837
0.008507683
0.01056548
0.008508904
0.008507633
0.01055825
0.01056549
0.008508938
0.01055837
0.008507681
0.01056554
0.008508968
0.00850759
0.01055837
0.01061129
0.008886349
0.01060983
0.0088854
0.01056556
0.008508877
0.008507437
0.01055845
0.01056533
0.008507593
0.008506625
0.01055848
0.007311284
0.007832065
0.007711563
0.007586608
0.01064841
0.008504844
0.01065125
0.008456798
0.007086023
0.007238201
0.007276337
0.007315691
0.007275316
0.007306971
0.007213988
0.007251774
0.007296383
0.007301007
0.007241071
0.007239265
0.007277659
0.0073055
0.00731848
0.007263913
0.007287533
0.007303974
0.007272031
0.007267566
0.008916341
0.01062151
0.008952554
0.01061884
0.008969515
0.008932745
0.01062063
0.01061591
0.008938218
0.008961887
0.01061951
0.01061753
0.00897269
0.008938799
0.01062199
0.01061603
0.008940203
0.00896242
0.01061949
0.01061837
0.00897286
0.008939474
0.01062212
0.01061595
0.008940353
0.008961284
0.01061946
0.01061842
0.008973007
0.008938182
0.01062216
0.01061601
0.008940504
0.008962142
0.01061873
0.01061841
0.008974189
0.01060873
0.008939151
0.01061409
0.008885145
0.01061023
0.008887171
0.01061129
0.008885281
0.01060994
0.008884645
0.01061136
0.008885689
0.0106099
0.008885472
0.01061133
0.008886018
0.01060988
0.008886189
0.01061127
0.007294463
0.007298113
0.007280814
0.007311689
0.007302171
0.007290878
0.007293834
0.007303065
0.007279667
0.007261667
0.007301842
0.00727085
0.007321416
0.007324724
0.007252837
0.007208947
0.007246748
0.007271123
0.007041495
0.007187833
0.007314096
0.007839499
0.007586698
0.007733545
0.01064772
0.008512532
0.008494459
0.01065107
0.01056237
0.008485843
0.01055658
0.008495543
0.007938558
0.007987282
0.007943523
0.01056525
0.00850811
0.008506458
0.01055851
0.01056536
0.008508643
0.01055843
0.008507496
0.0105653
0.008508773
0.01055845
0.008507611
0.01056557
0.008509456
0.008507958
0.01055843
0.01056541
0.008509035
0.008507684
0.0105584
0.01056538
0.008508974
0.01055827
0.008507673
0.01056545
0.00850939
0.00850793
0.01055844
0.01056541
0.00850899
0.008507663
0.01055841
0.01056537
0.008508927
0.01055828
0.008507638
0.01056538
0.008508954
0.01055833
0.008507687
0.01056546
0.008508936
0.008507658
0.01055839
0.01056549
0.008509008
0.01055826
0.008507642
0.01056533
0.008508845
0.008507585
0.01055844
0.01056532
0.008508792
0.008507452
0.01055846
0.01056545
0.008508983
0.01055826
0.008506965
0.01061787
0.01061788
0.01061786
0.01061822
0.01064838
0.01060952
0.0106085
0.01060836
0.01060826
0.01060823
0.01060822
0.01039712
0.01064842
0.01061552
0.01012176
0.01060379
0.01061178
0.01039698
0.008678065
0.0106038
0.01061891
0.00891613
0.01061433
0.008953531
0.01061954
0.008939098
0.01061753
0.008962799
0.01061942
0.008940946
0.01061835
0.008962363
0.01061948
0.008941182
0.01061842
0.008962088
0.0106195
0.008941308
0.01061845
0.008962101
0.01061951
0.008941335
0.01061847
0.00896189
0.0105655
0.008505981
0.01055776
0.008504325
0.0105655
0.008507736
0.01055852
0.008506507
0.01056562
0.008508867
0.01055845
0.008507738
0.01056546
0.008509061
0.01055834
0.008507525
0.01056538
0.008508696
0.01055843
0.008507682
0.01056545
0.008508879
0.01055845
0.008507675
0.01056547
0.008509018
0.0105584
0.008507764
0.01056548
0.008509026
0.01055838
0.00850776
0.01056549
0.008509043
0.01055836
0.008507791
0.01056549
0.008509047
0.01055837
0.00850775
0.01056549
0.008509003
0.01055837
0.008507746
0.0105655
0.008509005
0.01055837
0.00850776
0.01056549
0.008509037
0.01055837
0.00850775
0.01056549
0.008508979
0.01055837
0.008507689
0.01056549
0.008509017
0.01055838
0.008507724