/*--------------------------------*- C++ -*----------------------------------*\
  =========                 |
  \\      /  F ield         | OpenFOAM: The Open Source CFD Toolbox
   \\    /   O peration     | Website:  https://openfoam.org
    \\  /    A nd           | Version:  7
     \\/     M anipulation  |
\*---------------------------------------------------------------------------*/
FoamFile
{
    version     2.0;
    format      ascii;
    class       volScalarField;
    location    "0.09";
    object      p;
}
// * * * * * * * * * * * * * * * * * * * * * * * * * * * * * * * * * * * * * //

dimensions      [0 2 -2 0 0 0 0];

internalField   nonuniform List<scalar> 
77308
(
-0.003253185
-0.003000408
-0.002616858
-0.0006820374
-0.001431468
-0.0001226441
-0.02011509
-0.01979957
-0.02039053
-0.02122678
-0.02504772
-0.02346944
-0.03801817
-0.03884052
-0.04338224
-0.04829705
-0.0501281
-0.05723655
-0.04869657
-0.04991592
-0.05187376
-0.05586635
-0.05878966
-0.06488285
-0.06322531
-0.06491547
-0.06857401
-0.07245022
-0.07731498
-0.08355065
-0.0744772
-0.07611442
-0.07944611
-0.0838257
-0.08918278
-0.09617285
-0.0862421
-0.08801013
-0.09226645
-0.09698369
-0.103558
-0.1113366
-0.09561906
-0.09794813
-0.1019735
-0.1072757
-0.1142661
-0.1228723
-0.1045972
-0.1068794
-0.1118058
-0.1175508
-0.1254912
-0.1349261
-0.1112884
-0.113695
-0.1184256
-0.1245904
-0.1326725
-0.1426807
-0.1172696
-0.119994
-0.1255971
-0.1322354
-0.1412042
-0.1519061
-0.1203162
-0.1232734
-0.1278052
-0.1349051
-0.1434189
-0.1543173
-0.1215086
-0.1237196
-0.1272948
-0.1362021
-0.1434392
-0.1543448
-0.1217793
-0.124074
-0.1284639
-0.1350148
-0.1432155
-0.1535484
20.59722
20.59757
20.55643
20.52045
20.47605
20.42488
20.57071
20.54238
20.48336
20.4688
20.3956
20.3724
20.75535
20.76233
20.74707
20.7184
20.67364
20.61601
20.58201
20.55821
20.51109
20.48034
20.41893
20.36778
20.75918
20.75513
20.72915
20.6972
20.65574
20.59894
20.70836
20.68164
20.63465
20.57652
20.52152
20.45298
20.77134
20.74861
20.72667
20.68301
20.63637
20.57376
20.75497
20.73102
20.69662
20.64627
20.58909
20.522
20.79139
20.76897
20.74134
20.69718
20.64185
20.57831
20.79784
20.77698
20.74435
20.70022
20.63851
20.57417
-0.003688941
-0.008256831
-0.008514888
-0.008776374
-0.009430739
-0.009768527
-0.01390937
-0.01996833
-0.0210258
-0.02109749
-0.02308965
-0.02442452
-0.02668896
-0.02975125
-0.03661961
-0.0366341
-0.03914143
-0.04081897
-0.04379944
-0.04678725
-0.04049265
-0.04864249
-0.05032053
-0.05192917
-0.05535802
-0.05863798
-0.0635501
-0.05878958
-0.06300063
-0.06407974
-0.06746235
-0.07068884
-0.07557054
-0.08114353
-0.06705547
-0.07486386
-0.0760378
-0.07948785
-0.0836694
-0.08910689
-0.09588203
-0.07988117
-0.0863456
-0.08758273
-0.09207275
-0.09656872
-0.1031653
-0.1108221
-0.08939094
-0.09564305
-0.09773808
-0.1020419
-0.1072248
-0.1142816
-0.1228278
-0.101194
-0.1047928
-0.1067006
-0.1119075
-0.1175282
-0.1255546
-0.1349506
-0.1060015
-0.1116859
-0.1135704
-0.1186035
-0.124617
-0.1327808
-0.1427734
-0.1137129
-0.1176691
-0.1201244
-0.1259462
-0.1325121
-0.1416276
-0.1523321
-0.1183571
-0.1205975
-0.1232004
-0.1280815
-0.134962
-0.1435818
-0.1546974
-0.1205001
-0.1212685
-0.1233897
-0.1277831
-0.1361096
-0.1436515
-0.1550532
-0.122289
-0.1245297
-0.1289305
-0.1350901
-0.1440449
-0.154833
20.62405
20.58728
20.67194
20.64392
20.59356
20.53876
20.47801
20.55273
20.59997
20.56687
20.51978
20.48397
20.41687
20.38897
20.67516
20.76534
20.78237
20.77137
20.7319
20.69428
20.63558
20.61784
20.56924
20.55716
20.51981
20.48337
20.42653
20.3715
20.68245
20.7756
20.76378
20.73336
20.70104
20.65672
20.60102
20.70004
20.72431
20.68997
20.63678
20.58287
20.52242
20.45644
20.73483
20.78477
20.75289
20.73272
20.68882
20.64065
20.5788
20.75016
20.77012
20.73232
20.70007
20.64728
20.58958
20.52274
20.77844
20.80344
20.77047
20.74697
20.69916
20.64453
20.58041
20.82922
20.81045
20.77685
20.74852
20.70049
20.63966
20.57497
-0.00390084
-0.008961192
-0.00951456
-0.01042616
-0.01159944
-0.01226447
-0.0177005
-0.02076892
-0.02006233
-0.02005625
-0.02078536
-0.02217357
-0.02326465
-0.03438481
-0.03722702
-0.0375688
-0.04113498
-0.04317095
-0.04671298
-0.05041158
-0.04898317
-0.04862891
-0.05001693
-0.05149127
-0.05447422
-0.05774366
-0.06226737
-0.06182967
-0.06329924
-0.06445105
-0.06827567
-0.07158167
-0.07679397
-0.08247418
-0.07319458
-0.07417324
-0.07620535
-0.07923678
-0.08353884
-0.08891735
-0.0956486
-0.0845106
-0.08588128
-0.08792537
-0.09212327
-0.09686145
-0.10348
-0.1112092
-0.09474543
-0.09538182
-0.09805007
-0.101996
-0.1074881
-0.114492
-0.1231464
-0.1028244
-0.1042234
-0.1068875
-0.111733
-0.1176077
-0.1255542
-0.1350222
-0.1094753
-0.1110359
-0.1140876
-0.1188634
-0.1253625
-0.1335399
-0.1437185
-0.1153891
-0.1170514
-0.1200962
-0.1256614
-0.132282
-0.1413018
-0.1519723
-0.1188943
-0.1205613
-0.123836
-0.129059
-0.136142
-0.1450274
-0.1561114
-0.1204692
-0.1215469
-0.1260647
-0.1317341
-0.138664
-0.1480634
-0.159282
-0.1222426
20.69648
20.68075
21.01201
20.88831
20.80999
20.84803
20.60923
20.49463
20.50669
20.3002
20.31817
20.40566
20.23552
20.29921
20.79068
20.8027
20.79404
20.75794
20.73931
20.65456
20.62303
20.57051
20.53679
20.53105
20.47557
20.46711
20.3875
20.35517
20.77167
20.78065
20.76871
20.73129
20.69401
20.64965
20.58912
20.70302
20.72738
20.6621
20.63244
20.56626
20.52305
20.4457
20.77768
20.78412
20.75215
20.73427
20.67997
20.64092
20.57157
20.76594
20.76321
20.72354
20.70086
20.6417
20.59096
20.51991
20.80497
20.80034
20.76919
20.74666
20.69737
20.64579
20.57954
20.81316
20.80664
20.77549
20.74636
20.69894
20.63818
20.57482
-0.003775478
-0.007596072
-0.007467053
-0.007499495
-0.008104009
-0.008421509
-0.01665237
-0.02114273
-0.02137478
-0.02131873
-0.02310789
-0.02410822
-0.02633838
-0.03544241
-0.03598393
-0.03600485
-0.03812524
-0.03920417
-0.04217617
-0.04486954
-0.0490488
-0.04867756
-0.0505982
-0.05170949
-0.05508563
-0.05818034
-0.06282948
-0.06137517
-0.06266333
-0.06353959
-0.06688731
-0.06981541
-0.07471609
-0.08005049
-0.07353535
-0.07424391
-0.07631858
-0.07920319
-0.08356974
-0.08886337
-0.09558321
-0.08423304
-0.08574364
-0.08753184
-0.09172081
-0.09630064
-0.1028453
-0.1104717
-0.09396772
-0.09535116
-0.09784354
-0.1019752
-0.1074278
-0.1144441
-0.1230615
-0.1025752
-0.104265
-0.1067353
-0.1117557
-0.1175584
-0.1255546
-0.1349895
-0.1095898
-0.1111062
-0.1140295
-0.1189704
-0.1254207
-0.1336471
-0.1438089
-0.115325
-0.1171439
-0.1201805
-0.1258701
-0.1324715
-0.1415322
-0.1521933
-0.1186393
-0.1206086
-0.1237325
-0.1291026
-0.1360607
-0.1449507
-0.1560033
-0.1204484
-0.121578
-0.1263567
-0.1315825
-0.1384176
-0.1475939
-0.1587389
-0.1220889
20.69718
20.70625
20.99173
20.70906
20.73035
20.67803
20.58007
20.47316
20.49766
20.32362
20.47165
20.45236
20.4229
20.3492
20.81181
20.81465
20.82282
20.76017
20.72315
20.67928
20.62767
20.58367
20.5372
20.53782
20.51949
20.48101
20.42916
20.37313
20.79597
20.79461
20.76424
20.73712
20.69656
20.65049
20.59415
20.70781
20.72242
20.67408
20.62965
20.58447
20.52502
20.45921
20.79098
20.79096
20.75734
20.7348
20.68707
20.64087
20.57632
20.78038
20.76824
20.73184
20.69998
20.64802
20.59085
20.52345
20.81197
20.80661
20.77236
20.74867
20.69978
20.646
20.58053
20.81957
20.81334
20.77873
20.74873
20.70108
20.63899
20.57614
-0.00382192
-0.008299873
-0.008466289
-0.008803655
-0.00980026
-0.0102186
-0.01742412
-0.0208713
-0.02061762
-0.02033961
-0.02156614
-0.02241874
-0.0241985
-0.03521205
-0.03649922
-0.03654007
-0.03945236
-0.04056166
-0.04407006
-0.04688287
-0.04911234
-0.04852631
-0.05031952
-0.05133777
-0.05438856
-0.05748195
-0.0618699
-0.06138437
-0.06288565
-0.06375368
-0.06746316
-0.0704011
-0.07555147
-0.08092539
-0.07348854
-0.07408629
-0.07630306
-0.07909138
-0.08344004
-0.088736
-0.09541162
-0.08426362
-0.08565938
-0.08760989
-0.09181822
-0.09648984
-0.1031035
-0.1107751
-0.09419915
-0.09526817
-0.09794477
-0.1019734
-0.1075548
-0.1145901
-0.1232842
-0.1025421
-0.1040787
-0.1067502
-0.1117229
-0.1176659
-0.1256983
-0.1351858
-0.1094272
-0.1109413
-0.1141575
-0.1190795
-0.1257453
-0.134006
-0.1442663
-0.1151559
-0.1169498
-0.1201301
-0.1258454
-0.132485
-0.1415747
-0.1522428
-0.1186018
-0.1205981
-0.1238834
-0.1293164
-0.1363969
-0.1453481
-0.1564541
-0.120452
-0.1215342
-0.1262954
-0.1317129
-0.1385386
-0.1478217
-0.1589739
-0.121912
20.68065
20.68224
20.99042
21.00978
20.75
20.90129
20.58625
20.43554
20.43562
20.24231
20.19552
20.50991
20.22582
20.31897
20.83137
20.83686
20.85304
20.78159
20.74938
20.67716
20.62633
20.55542
20.49504
20.55499
20.44194
20.46947
20.38292
20.35712
20.81252
20.79463
20.78542
20.7254
20.69767
20.6524
20.58666
20.71047
20.74449
20.64896
20.62626
20.56023
20.52637
20.44513
20.79798
20.79627
20.75335
20.73887
20.67457
20.64375
20.56758
20.76849
20.77396
20.72141
20.70563
20.64137
20.59422
20.52007
20.81573
20.80878
20.76984
20.75077
20.69652
20.64777
20.57862
20.8201
20.81315
20.77671
20.74887
20.69929
20.6391
20.57565
-0.003796879
-0.007453257
-0.007449735
-0.007449667
-0.00815944
-0.008434616
-0.01927978
-0.021394
-0.0215411
-0.02129647
-0.02301352
-0.02390339
-0.0260366
-0.03497551
-0.03592006
-0.03558303
-0.03803926
-0.03891347
-0.04203792
-0.0446346
-0.04919587
-0.04859099
-0.05065435
-0.05154189
-0.05484146
-0.05785726
-0.0623696
-0.06109558
-0.06246413
-0.06323163
-0.06668202
-0.06952342
-0.07446607
-0.07973529
-0.07348255
-0.07400881
-0.07629975
-0.07898286
-0.0833847
-0.08860899
-0.09529089
-0.08411295
-0.08546265
-0.0873912
-0.09149396
-0.09612979
-0.1026565
-0.1102858
-0.09402864
-0.09515982
-0.09784714
-0.1018412
-0.1074204
-0.1144129
-0.1230793
-0.1025078
-0.1040052
-0.1066678
-0.1115899
-0.1175052
-0.1254926
-0.1349521
-0.1094829
-0.1109222
-0.1141318
-0.1190043
-0.1256587
-0.1338928
-0.1441398
-0.1151339
-0.1169095
-0.1200843
-0.1257725
-0.1324005
-0.1414771
-0.1521279
-0.1185759
-0.1205682
-0.1238498
-0.1292606
-0.1363276
-0.1452754
-0.1563792
-0.1204427
-0.1215279
-0.126259
-0.1316764
-0.1384828
-0.1477783
-0.1589295
-0.1218882
20.61225
20.55189
21.1292
21.05938
20.69112
20.73148
20.56625
20.43142
20.42705
20.2114
20.20263
20.46943
20.29411
20.34948
20.83032
20.83813
20.83776
20.78764
20.73686
20.69752
20.6243
20.55405
20.4945
20.55209
20.44388
20.46292
20.39232
20.36258
20.81469
20.7948
20.7852
20.72732
20.69699
20.65661
20.58701
20.70865
20.74289
20.64989
20.62861
20.56028
20.52896
20.44611
20.79788
20.79667
20.75366
20.73951
20.67431
20.64457
20.5675
20.7699
20.77364
20.72209
20.70646
20.64191
20.59506
20.52052
20.81533
20.80888
20.7697
20.75091
20.69611
20.64757
20.57823
20.82013
20.81352
20.77721
20.74945
20.69993
20.63962
20.57617
-0.003884441
-0.007596188
-0.007659766
-0.007847375
-0.008626172
-0.009029109
-0.0174418
-0.02106616
-0.02102453
-0.0208841
-0.02216654
-0.02308715
-0.02494074
-0.035343
-0.0359246
-0.0361034
-0.03842925
-0.03963571
-0.04280809
-0.04556901
-0.04891599
-0.04857615
-0.05023661
-0.05141376
-0.05439859
-0.05750771
-0.06185606
-0.0613038
-0.06252053
-0.06353078
-0.0669096
-0.06988187
-0.07485264
-0.08018229
-0.07337642
-0.0740509
-0.076144
-0.07897672
-0.08323678
-0.08850668
-0.09512202
-0.0842235
-0.08555792
-0.08746206
-0.09159396
-0.09620836
-0.1027564
-0.1103733
-0.09401351
-0.09523156
-0.09771422
-0.101807
-0.1072443
-0.1142456
-0.1228514
-0.1023595
-0.1040279
-0.1066147
-0.1116002
-0.1174533
-0.1254459
-0.1348965
-0.1092657
-0.1109043
-0.1138913
-0.1188139
-0.1252869
-0.1334879
-0.1436466
-0.11514
-0.1169582
-0.1200802
-0.1257422
-0.1323491
-0.1413986
-0.1520797
-0.1185923
-0.1204962
-0.1236583
-0.1289817
-0.1359595
-0.1447934
-0.1558182
-0.1204456
-0.1215547
-0.1262512
-0.1314538
-0.1382652
-0.1473872
-0.1584962
-0.1219139
20.62051
20.51315
20.92841
20.66036
20.79281
20.67687
20.65904
20.47947
20.52272
20.39233
20.43614
20.44198
20.39209
20.32501
20.81447
20.81479
20.82714
20.75423
20.73262
20.67696
20.6336
20.58416
20.53961
20.53927
20.51244
20.47795
20.4228
20.37047
20.79869
20.79666
20.76539
20.7356
20.69771
20.65013
20.59546
20.71259
20.72547
20.67474
20.62804
20.58384
20.52344
20.45861
20.79193
20.79211
20.75745
20.73487
20.68723
20.64101
20.57676
20.77892
20.7685
20.73178
20.69987
20.64797
20.59059
20.52357
20.81291
20.80734
20.77248
20.74918
20.70025
20.64664
20.58128
20.82
20.81366
20.77877
20.74841
20.70077
20.63833
20.57574
-0.003996409
-0.007110544
-0.007504337
-0.007599314
-0.008308622
-0.008696964
-0.01690673
-0.02149029
-0.0220601
-0.0221532
-0.02378339
-0.02486299
-0.02691891
-0.03349778
-0.03550887
-0.03532493
-0.03774846
-0.03890234
-0.04193721
-0.04465913
-0.04897492
-0.04873296
-0.05056058
-0.05180805
-0.05493232
-0.05807835
-0.06250676
-0.06113409
-0.06222277
-0.06322503
-0.0664609
-0.06946127
-0.07430988
-0.07963065
-0.07331159
-0.07394162
-0.07614066
-0.07889727
-0.08320378
-0.08842593
-0.09504957
-0.08403105
-0.08531392
-0.08736424
-0.09130898
-0.09597978
-0.1024096
-0.1100386
-0.09392161
-0.09507439
-0.0976944
-0.1016063
-0.10708
-0.1139928
-0.1225903
-0.1026313
-0.103872
-0.1066374
-0.1113189
-0.1171955
-0.1250649
-0.1344968
-0.1097136
-0.1108864
-0.1139751
-0.1185975
-0.1250957
-0.1332065
-0.1433704
-0.1152143
-0.1168063
-0.1199188
-0.1254009
-0.1320223
-0.1410176
-0.1516985
-0.1187056
-0.1204235
-0.1236976
-0.128852
-0.1358976
-0.1447319
-0.1558253
-0.1204279
-0.1215171
-0.125928
-0.1316045
-0.1384385
-0.1478375
-0.1591859
-0.1218038
20.60873
20.51651
21.00733
20.83188
20.82359
20.68175
20.63801
20.48962
20.5042
20.31131
20.34708
20.34444
20.31491
20.28544
20.79395
20.80274
20.79181
20.76652
20.73222
20.67574
20.6274
20.56561
20.5335
20.52367
20.4792
20.45943
20.39884
20.35446
20.77715
20.78286
20.76867
20.73649
20.69247
20.65435
20.59037
20.70861
20.72606
20.66234
20.63556
20.56596
20.52546
20.44595
20.78058
20.7851
20.7528
20.73575
20.67938
20.64194
20.57191
20.76869
20.76379
20.72459
20.70212
20.64265
20.59162
20.52082
20.80616
20.80124
20.76909
20.74756
20.69691
20.64584
20.57935
20.81396
20.80726
20.77641
20.74667
20.69997
20.63829
20.57555
-0.0037956
-0.00352713
-0.00348146
-0.00362128
-0.003820052
-0.004081883
-0.01459059
-0.02040109
-0.02150645
-0.02170647
-0.02299869
-0.02418231
-0.0259943
-0.03185278
-0.03562367
-0.03547545
-0.03769742
-0.03914367
-0.04207423
-0.04497692
-0.04531573
-0.04850107
-0.05005085
-0.05164169
-0.05447098
-0.05773497
-0.06201335
-0.05648019
-0.06215647
-0.06341836
-0.06652037
-0.06965914
-0.07447181
-0.07985737
-0.06982209
-0.07409147
-0.07588262
-0.07893729
-0.08299189
-0.08830823
-0.09483779
-0.07964064
-0.0854914
-0.08732992
-0.09143961
-0.09600349
-0.102487
-0.1100906
-0.09167988
-0.09547027
-0.09734982
-0.1016129
-0.1067478
-0.1137314
-0.1222099
-0.09857722
-0.1039558
-0.1064721
-0.1114286
-0.1171648
-0.1251027
-0.1345255
-0.1065171
-0.1112834
-0.1133896
-0.1182352
-0.1243385
-0.1323735
-0.1423431
-0.1138116
-0.1170625
-0.1199445
-0.125583
-0.1321559
-0.1412356
-0.152066
-0.1180717
-0.1203288
-0.1231708
-0.1278253
-0.1348632
-0.1431179
-0.1540233
-0.1204237
-0.1216851
-0.1251783
-0.1300771
-0.1368454
-0.1458971
-0.1564429
-0.1223385
-0.125179
-0.1297829
-0.1359681
-0.1438498
-0.1539793
20.62537
20.58457
20.75101
20.70591
20.64859
20.58873
20.53534
20.59322
20.59823
20.57643
20.51952
20.48072
20.44498
20.39805
20.74079
20.76918
20.78052
20.76553
20.73515
20.69013
20.63777
20.64875
20.55812
20.54994
20.51339
20.47731
20.42549
20.37005
20.73758
20.77713
20.76398
20.73304
20.7008
20.65792
20.6029
20.73691
20.72635
20.68968
20.63703
20.58219
20.52217
20.4562
20.76571
20.7861
20.7528
20.73384
20.68886
20.64153
20.5797
20.77046
20.77042
20.73271
20.70036
20.64755
20.58961
20.52312
20.79233
20.80445
20.77074
20.74817
20.69977
20.6458
20.5817
20.83321
20.81077
20.77718
20.74821
20.70027
20.63822
20.57396
-0.001479332
-0.001323673
-0.001344068
-0.001390069
-0.001463547
-0.001556051
-0.01572344
-0.02173054
-0.02284217
-0.02370402
-0.02519659
-0.02659046
-0.02856781
-0.02952988
-0.0353231
-0.03484481
-0.0370131
-0.03837554
-0.04121923
-0.04407554
-0.04191055
-0.04892654
-0.05039787
-0.05221732
-0.0551227
-0.05845347
-0.06278877
-0.05472315
-0.06187592
-0.0633345
-0.06622265
-0.06940707
-0.07413751
-0.07951937
-0.06757285
-0.0740553
-0.0760725
-0.07895272
-0.08309522
-0.08837165
-0.09492565
-0.07964932
-0.08534781
-0.08732709
-0.09126365
-0.09590285
-0.1023089
-0.1099218
-0.08935896
-0.09530409
-0.09752119
-0.1014859
-0.1067249
-0.1136219
-0.1221193
-0.09904233
-0.1038358
-0.1066692
-0.1112259
-0.1170515
-0.1248738
-0.134298
-0.1082523
-0.1110855
-0.1135582
-0.1180578
-0.1242461
-0.1322221
-0.142222
-0.1134466
-0.1168086
-0.119804
-0.1251821
-0.1318048
-0.1407277
-0.1515173
-0.1167652
-0.1200909
-0.1230954
-0.1274941
-0.1345965
-0.1429473
-0.1538624
-0.1200343
-0.1214332
-0.1244649
-0.129249
-0.1362839
-0.1444699
-0.1552655
-0.1213754
-0.1230073
-0.126878
-0.1326349
-0.1414541
-0.152268
20.65805
20.60362
20.65166
20.59353
20.56301
20.50283
20.45069
20.60051
20.56883
20.53614
20.49118
20.45519
20.41335
20.36827
20.77315
20.75893
20.75933
20.74763
20.71607
20.67217
20.61406
20.66559
20.57968
20.55469
20.50933
20.47493
20.42092
20.36611
20.71149
20.76195
20.75515
20.73063
20.69656
20.65749
20.60027
20.72467
20.71087
20.68144
20.63611
20.57613
20.52145
20.45305
20.7432
20.7729
20.74754
20.72831
20.68272
20.63723
20.57451
20.76282
20.75602
20.73135
20.6973
20.64693
20.58919
20.52267
20.78261
20.79267
20.76875
20.74308
20.69704
20.64275
20.5786
20.80116
20.79816
20.7776
20.74314
20.70082
20.63713
20.57397
-0.001043182
-0.01071594
-0.001621096
-0.01631999
-0.01102597
-0.002971093
-0.0122965
-0.01195027
-0.003176126
-0.002805528
-0.01100611
-0.01190505
-0.003031016
-0.01352872
-0.01366486
-0.002957441
-0.002799412
-0.01222946
-0.01314756
-0.001662137
-0.01559772
-0.01718278
-0.002713936
-0.002296199
-0.01485096
-0.0162379
-0.00218159
-0.01966529
-0.01835915
-0.001544838
-0.002676816
-0.01853908
-0.01686112
-0.001318877
-0.02189347
-0.02214609
-0.002229504
-0.002753448
-0.02077739
-0.02010155
-0.02337263
-0.001236837
-0.02203211
-0.01709134
-0.02444769
-0.01548186
-0.01690176
-0.02868924
-0.02538263
-0.03021251
-0.03667533
-0.03004014
-0.03101196
-0.04110495
-0.03986821
-0.0385866
-0.05855194
-0.0424048
-0.04297646
-0.05450462
-0.05303522
-0.0595478
-0.06627504
-0.0552822
-0.05626309
-0.06773585
-0.06650088
-0.06743364
-0.07881824
-0.06735966
-0.06829112
-0.07881822
-0.07726414
-0.07934309
-0.09129529
-0.07886825
-0.07851584
-0.08975431
-0.0899789
-0.09191383
-0.09965142
-0.0893446
-0.09111601
-0.09917598
-0.09901798
-0.1008821
-0.1063982
-0.09914816
-0.09972166
-0.1065266
-0.1057807
-0.1074017
-0.1130977
-0.1063548
-0.106586
-0.1126189
-0.1127133
-0.1141897
-0.1177121
-0.1126147
-0.1139509
-0.1173171
-0.1173689
-0.1185701
-0.120291
-0.1174358
-0.1179398
-0.1200267
-0.1204442
-0.120961
-0.1217548
-0.1202941
-0.1210927
-0.1212958
-0.121636
-0.1218298
20.59613
-0.122116
20.63255
-0.1242004
20.65305
20.64961
-0.1214233
-0.1243107
20.65173
20.62897
-0.1284967
20.65406
20.66292
-0.1233836
-0.1280552
20.68313
20.65767
-0.1351008
20.63148
20.64551
-0.1270634
-0.1341281
20.67004
20.65514
-0.1433779
20.59079
20.60795
-0.1329866
-0.1421962
20.6258
20.61558
-0.1537543
20.53433
20.55639
-0.1406308
-0.1521512
20.56878
20.56523
20.47349
-0.1503932
20.51022
20.54019
20.71384
20.66569
20.57887
20.701
20.80713
20.55111
20.71649
20.60781
20.49721
20.68479
20.73537
20.68014
20.72148
20.69746
20.71336
20.69179
20.71268
20.61135
20.74295
20.66216
20.62402
20.69936
20.73133
20.70562
20.76701
20.709
20.71154
20.73838
20.75771
20.69252
20.77162
20.72342
20.70296
20.74963
20.76487
20.72807
20.80407
20.74805
20.7326
20.77311
20.78569
20.74279
20.8084
20.764
20.74715
20.78626
20.79206
20.76812
20.82646
20.78303
20.77073
20.80563
20.81108
20.78872
20.83567
20.8008
20.79066
20.8217
20.82377
-0.001731189
-0.01325353
-0.01021374
-0.001592292
-0.01772756
-0.01080473
-0.1219629
20.59503
-0.1224762
20.61828
-0.001787569
-0.01489081
-0.009936804
-0.001580548
-0.02057592
-0.0102818
-0.12166
20.61205
-0.1216906
20.59196
-0.001748979
-0.01630455
-0.009572144
-0.00164057
-0.01878122
-0.009845916
-0.1216
20.59663
-0.1215258
20.57677
-0.001710707
-0.0176002
-0.009527389
-0.001738197
-0.01550698
-0.009964116
-0.1215026
20.56785
-0.1214689
20.58063
-0.001703587
-0.02016373
-0.00944456
-0.001706848
-0.01958945
-0.009759774
-0.1214671
20.56086
-0.1214363
20.58116
-0.001701506
-0.01835698
-0.009850975
-0.001808369
-0.01474128
-0.009821412
-0.1214373
20.57409
-0.1214241
20.59342
-0.001631511
-0.01829072
-0.01025258
-0.00177049
-0.01393801
-0.009937139
-0.1215472
20.5855
-0.1214979
20.6102
-0.001555376
-0.01682946
-0.01056273
-0.001672491
-0.01328489
-0.01006634
-0.1223061
20.6228
-0.1218242
20.59214
-0.001459716
-0.01583306
-0.01017491
-0.01018016
-0.001336226
-0.00930449
-0.009305807
-0.010191
-0.01010249
-0.00133856
-0.008787238
-0.008844699
-0.01002219
-0.009971007
-0.00138293
-0.008894576
-0.009061092
-0.01018633
-0.01033858
-0.001450095
-0.00926169
-0.009510136
-0.01060478
-0.01093741
-0.001537663
-0.009841277
-0.01018862
-0.01125385
-0.01171828
-0.01056646
-0.01205616
-0.03012862
-0.04039876
-0.03918414
-0.02897578
-0.03576365
-0.04249156
-0.05408782
-0.0526611
-0.03806834
-0.05776384
-0.0688427
-0.07857121
-0.07882445
-0.06723242
-0.07971242
-0.08021289
-0.08987693
-0.08856578
-0.08143915
-0.08630505
-0.120822
-0.12111
-0.1214811
-0.1208383
-0.1215664
-0.1219834
20.62816
-0.1216345
20.58328
-0.1419128
20.63055
20.59921
-0.1345696
-0.1428042
20.58363
20.57478
-0.1545132
20.58534
20.57363
-0.1422734
-0.1520536
20.53591
20.53875
20.51716
-0.1528177
20.4661
-0.004011009
-0.003946788
-0.02089845
-0.01287318
-0.01298635
-0.02143133
-0.03484482
-0.02791132
-0.02774838
-0.03521967
-0.04698188
-0.04021665
-0.0407347
-0.04757107
-0.06189729
-0.05531353
-0.05501152
-0.06251438
-0.07300266
-0.06663481
-0.06674482
-0.07344063
-0.08449101
-0.07835845
-0.07839524
-0.08483898
-0.09524463
-0.08981439
-0.08965839
-0.09547495
-0.1037574
-0.09884726
-0.0988356
-0.1038046
-0.1101564
-0.1060917
-0.1059873
-0.1102219
-0.1159403
-0.1127661
-0.1125621
-0.1158863
-0.1194113
-0.1173504
-0.1172104
-0.1194072
-0.1210738
-0.1200568
-0.1200567
-0.1211202
-0.1226746
-0.1217254
-0.1239094
-0.1216877
-0.1231643
-0.121972
-0.1237028
-0.1261426
-0.1240824
-0.12779
-0.1246772
-0.126778
-0.1247612
-0.1273289
-0.1350369
-0.1282407
-0.1343769
-0.1295998
-0.1325548
-0.1293418
-0.1329718
-0.140958
-0.1348276
-0.1423173
-0.1368644
-0.1403303
-0.1358798
-0.140745
-0.1514891
-0.1430036
-0.1522362
-0.1455568
-0.1498787
-0.1442878
-0.1503922
-0.1531586
-0.1564148
-0.154765
-0.121311
-0.1212028
-0.1227332
-0.1215956
-0.1229098
-0.1260631
-0.1236815
-0.1265708
-0.1314646
-0.1278276
-0.1319306
-0.1390877
-0.1342711
-0.1389267
-0.1482271
-0.1421331
-0.1482442
-0.1594567
-0.1518681
-0.1601204
20.66386
20.61886
20.61451
20.65425
20.56748
20.69517
20.65041
20.60594
20.62109
20.73627
20.73099
20.60994
20.64818
20.63063
20.67106
20.65808
20.72104
20.6888
20.61203
20.61878
20.62724
20.62726
20.66981
20.67796
20.67344
20.577
20.60121
20.60288
20.57042
20.62964
20.65638
20.64252
20.53134
20.56675
20.5559
20.51255
20.57575
20.61808
20.59325
20.51459
20.46022
20.55816
20.68805
20.59989
20.59885
20.67382
20.70312
20.67474
20.69392
20.71468
20.70225
20.64058
20.64851
20.71176
20.74263
20.6991
20.7075
20.75747
20.75259
20.7097
20.7187
20.7659
20.77612
20.73454
20.74385
20.78856
20.79161
20.75222
20.75977
20.80233
20.80879
20.77252
20.7793
20.81992
20.82498
20.79274
20.79787
20.83538
-0.001923376
-0.003613919
-0.1211233
-0.1212761
-0.121611
-0.1205191
-0.1211548
-0.121144
-0.1215427
-0.1214315
-0.121155
20.51509
20.76892
20.79379
20.63462
20.53807
20.75449
20.76646
-0.00163006
-0.004438846
-0.1209994
-0.1211981
-0.1214563
-0.1205558
-0.1210814
-0.1211483
-0.1214519
-0.1213511
-0.1211855
20.56006
20.77243
20.74872
20.6091
20.48355
20.77492
20.82428
-0.001666689
-0.004438991
-0.1209267
-0.1211337
-0.1213783
-0.1205169
-0.120961
-0.1211203
-0.1213984
-0.1212951
-0.1212215
20.57026
20.7626
20.7411
20.6249
20.48828
20.78638
20.82098
-0.001716131
-0.002603651
-0.1208637
-0.121086
-0.1213463
-0.1204611
-0.1208664
-0.1210742
-0.1213495
-0.1212358
-0.1211789
20.54245
20.79592
20.77725
20.65229
20.53354
20.76604
20.75992
-0.002041123
-0.002553546
-0.1208423
-0.121055
-0.1213354
-0.1204212
-0.120821
-0.1210467
-0.1213063
-0.1211949
-0.1211719
20.46822
20.79956
20.83467
20.69411
20.55814
20.80561
20.73525
-0.003174734
-0.002110927
-0.1208717
-0.1210565
-0.1213109
-0.1203434
-0.1208114
-0.1210254
-0.1212757
-0.1211184
-0.1211582
20.46248
20.78395
20.82979
20.6943
20.56458
20.78299
20.72322
-0.004265874
-0.001808895
-0.1209426
-0.1210166
-0.1213126
-0.1203119
-0.1208562
-0.1210469
-0.1213151
-0.1210981
-0.1211638
20.47845
20.7844
20.82195
20.70318
20.55222
20.77795
20.75178
-0.003614455
-0.001762263
-0.1210106
-0.1209962
-0.1213826
-0.1203289
-0.1210015
-0.1211107
-0.1214766
-0.1209883
-0.1212553
20.54122
20.75778
20.75884
20.64024
20.50618
20.77039
20.79814
-0.002866956
-0.00259888
-0.01686049
-0.02828995
-0.02511593
-0.01705489
-0.02411777
-0.05583587
-0.06757638
-0.06616403
-0.05885146
-0.06568655
-0.09083442
-0.09868466
-0.09851763
-0.08711679
-0.1010437
-0.1003846
-0.1058143
-0.1059284
-0.1016383
-0.1053021
-0.1078989
-0.112194
-0.1121996
-0.1058796
-0.1142157
-0.1134988
-0.1166846
-0.1170309
-0.114764
-0.1177407
-0.118146
-0.1200392
-0.12013
-0.1184362
-0.1201789
-0.1396662
-0.1354202
-0.1402314
-0.1356318
-0.139899
-0.1343239
-0.1417244
-0.1485197
-0.1435491
-0.1497545
-0.1419872
-0.1522219
-0.1423247
-0.1512852
-0.1539002
-0.1546712
-0.152423
-0.1210086
-0.1212933
-0.1241268
20.65501
20.61165
-0.1216231
-0.125221
20.64766
20.62536
-0.1278926
20.7211
20.67376
-0.1242834
-0.1282723
20.63836
20.65473
-0.1337594
20.6934
20.64911
-0.1282194
-0.1346845
20.59082
20.61909
20.57404
20.69601
20.80374
20.52624
20.71364
20.59646
20.64667
20.63054
20.52338
20.56572
20.59164
20.58239
20.55424
20.60633
20.57687
20.46778
20.52732
20.5528
20.53389
20.55291
20.43203
20.5004
20.48652
20.65313
20.72461
20.51736
20.72438
20.73238
20.70442
20.72245
20.70257
20.72958
20.62615
20.70208
20.7353
20.61972
20.74962
20.71263
20.74022
20.75684
20.71312
20.77299
20.70573
20.74686
20.75448
20.69299
20.77682
20.73205
20.77004
20.77969
20.73027
20.80377
20.74776
20.78536
20.79129
20.74455
20.81038
20.77074
20.80596
20.81187
20.76817
20.82667
20.79099
20.82216
20.82419
20.78907
20.8361
-0.006302219
-0.01406713
-0.0145326
-0.006742998
-0.002913429
-0.00254451
-0.0199759
-0.02906275
-0.02956132
-0.02004558
-0.03371113
-0.0424045
-0.04328323
-0.03356255
-0.04731232
-0.05746948
-0.05755074
-0.04763059
-0.06042288
-0.06862548
-0.06912396
-0.06080901
-0.07228638
-0.08002165
-0.08054638
-0.07250481
-0.08405205
-0.09112925
-0.09129764
-0.0843983
-0.09439827
-0.10035
-0.1005276
-0.09452287
-0.1024539
-0.1073662
-0.1074892
-0.1026514
-0.1094217
-0.1134737
-0.1134864
-0.1096821
-0.1152256
-0.1181525
-0.1181115
-0.115277
-0.1188968
-0.1204551
-0.1203625
-0.1189155
-0.1208779
-0.1214376
-0.121367
-0.1208699
-0.1213067
-0.1218273
-0.1212374
20.60033
20.6242
20.6496
20.62132
20.63213
-0.1211768
-0.1214484
20.61543
20.61124
-0.1228017
-0.124124
-0.1227938
20.65471
20.64851
20.63707
20.64458
20.63293
20.65306
-0.1261251
-0.127793
-0.1263314
20.66685
20.66285
20.64334
20.65641
20.63375
20.65804
-0.1318181
-0.134702
-0.1319984
20.65329
20.64354
20.62748
20.64983
20.62822
20.64952
-0.1394502
-0.1428533
-0.1392914
20.62965
20.60773
20.60772
20.60576
20.59597
20.60496
-0.148709
-0.1526279
-0.1486246
20.58373
20.55437
20.55901
20.5523
20.54585
20.5509
20.52661
20.4958
20.49998
20.67923
20.6662
20.65793
20.65908
20.70472
20.67684
20.67821
20.68984
20.696
20.70249
20.68644
20.69976
20.70819
20.71634
20.70804
20.71647
20.73
20.74804
20.7305
20.73469
20.74802
20.76274
20.75159
20.75324
20.76455
20.7858
20.77067
20.7683
20.78033
20.80007
20.78783
20.78429
20.79727
20.81943
20.80697
20.80233
20.81439
20.83349
20.81853
20.82576
-0.004152999
-0.001621939
20.5912
20.60955
-0.1211451
-0.1214095
20.59612
20.59016
-0.004314308
-0.00142274
20.61108
20.59386
-0.1212459
-0.1213158
20.5914
20.60815
-0.003927298
-0.001649551
20.60619
20.59861
-0.1212033
-0.1212675
20.59326
20.60894
-0.002040223
-0.003278192
20.61493
20.60566
-0.1211627
-0.1212221
20.60373
20.62065
-0.0036408
-0.002152823
20.6152
20.61346
-0.1211533
-0.1211639
20.61723
20.60281
-0.001861138
-0.003984333
20.58718
20.60753
-0.1211572
-0.121101
20.60533
20.59402
-0.001872814
-0.004126267
20.59149
20.60861
-0.1211914
-0.1210101
20.61277
20.59396
-0.001969651
-0.003377025
20.59881
20.59306
-0.1212741
-0.1209891
20.58915
20.60804
-0.003859801
-0.004007759
-0.003983975
-0.003518524
-0.00321878
-0.004207197
-0.006170801
-0.01350027
-0.01396727
-0.006631241
-0.003683909
-0.00354754
-0.003576957
-0.003517475
-0.00392073
-0.003477358
-0.003798249
-0.003769421
-0.00426717
-0.003817405
-0.003987295
-0.003719357
-0.004223409
-0.003716251
-0.004134916
-0.004025677
-0.004559171
-0.003907007
-0.004143016
-0.004025067
-0.004300613
-0.004733766
-0.004304323
-0.004198072
-0.00482141
-0.004216643
-0.004262233
-0.004384084
-0.004495549
-0.005082832
-0.004558092
-0.004447282
-0.005116333
-0.004467587
-0.004451798
-0.004674184
-0.004733512
-0.005426067
-0.004824935
-0.00470602
-0.005492185
-0.004757877
-0.004705273
-0.005041563
-0.03490531
-0.02727952
-0.02746548
-0.03463699
-0.04669253
-0.0569434
-0.05699955
-0.04696733
-0.1209672
-0.119667
-0.1196203
-0.120894
-0.1209861
-0.1208604
-0.121259
-0.1211979
-0.1208883
20.61071
20.60805
-0.1211571
-0.1210532
-0.1218303
-0.1211681
-0.1210723
20.59102
20.61251
-0.1339896
-0.1386405
-0.1384538
-0.1427968
-0.1389741
-0.1388421
20.58215
20.61328
20.60173
20.57646
20.54636
20.58741
-0.1421734
-0.1474771
-0.1450762
20.55777
20.55162
20.50615
20.47682
20.52883
20.52462
20.81975
20.81095
20.81915
20.81162
20.81212
20.81144
20.84108
20.81243
20.83236
20.85188
20.81747
20.84163
20.81294
20.85243
20.81811
-0.002683824
-0.001168782
-0.01539634
-0.008988845
-0.01396092
-0.0181694
-0.02987382
-0.02196451
-0.02836831
-0.03309105
-0.04317181
-0.03369221
-0.04115966
-0.04298282
-0.0580997
-0.05002881