/*--------------------------------*- C++ -*----------------------------------*\
  =========                 |
  \\      /  F ield         | OpenFOAM: The Open Source CFD Toolbox
   \\    /   O peration     | Website:  https://openfoam.org
    \\  /    A nd           | Version:  7
     \\/     M anipulation  |
\*---------------------------------------------------------------------------*/
FoamFile
{
    version     2.0;
    format      ascii;
    class       surfaceScalarField;
    location    "0.09";
    object      phi;
}
// * * * * * * * * * * * * * * * * * * * * * * * * * * * * * * * * * * * * * //

dimensions      [0 3 -1 0 0 0 0];

internalField   nonuniform List<scalar> 
228133
(
2.935893e-05
-1.613809e-05
-0.0004232105
-3.742014e-05
-1.196126e-05
3.264656e-05
3.90126e-06
1.425088e-05
-9.935806e-06
-0.0004157622
-8.537986e-05
5.978947e-06
-5.650464e-06
-0.0004262933
-0.0001013711
6.037286e-06
-5.726615e-06
-0.0004624821
-0.0001095125
7.437401e-06
-8.112466e-06
-0.000487451
-0.0001154401
9.413424e-06
-0.0005290068
-0.0001249514
-8.87869e-06
-0.0001002383
-0.001717239
-4.69507e-05
0.0004078311
0.0004018074
0.0005067631
0.0004984346
8.135849e-05
-8.127222e-05
7.661862e-05
-2.71136e-05
-0.0001286138
-0.001801336
-2.181594e-05
0.0004205296
0.0004083768
0.0005142485
0.0005083727
-0.0001626601
-0.00190327
-3.905726e-05
0.0004379556
0.0004454982
0.0005466575
0.0005462621
-0.0001977408
-0.002032507
-4.250971e-05
0.0004816792
0.0004674977
0.0005900343
0.0005708864
-0.0002479671
-0.002130254
-5.366502e-05
0.0005053491
0.0005032263
0.0006173842
0.0006081853
-0.00232709
-4.986179e-05
0.000554837
0.0006783768
-0.0002879951
0.0005313159
0.0006524498
-6.105329e-05
-0.001630412
-2.394616e-05
9.388369e-05
-9.391955e-05
4.881564e-05
-5.060734e-05
-0.0001352031
-0.001654346
-7.284033e-05
-0.0002140706
-0.001741564
-8.283879e-05
-0.0002937746
-0.001847784
-0.0001050192
-0.0003639124
-0.001953818
-0.0001062983
-0.002117228
-0.0001225681
-0.0004512056
-0.0001599397
-0.001556985
-8.377815e-06
0.0001150137
-7.127038e-05
7.408066e-05
-2.29327e-05
-0.0002278241
-0.001581956
-4.505493e-06
-0.0003112664
-0.001646641
-1.148023e-05
-0.0004056036
-0.001734044
-1.940259e-05
-0.0004997659
-0.001841536
-1.811909e-05
-0.00198285
-2.690605e-05
-0.0006072384
-0.0001961564
-0.001448435
-1.495545e-05
0.0001122525
-6.309951e-05
7.346627e-05
-2.005755e-05
-0.0002896359
-0.001466182
-2.2295e-05
-0.0003977061
-0.001520098
-1.847326e-05
-0.0005112203
-0.001596655
-2.387525e-05
-0.0006318664
-0.001695898
-2.499237e-05
-0.001823967
-2.815538e-05
-0.0007625939
-0.000244491
-0.00132822
-1.033066e-05
0.000113814
-4.995268e-05
7.878037e-05
-8.035455e-06
-0.0003574095
-0.0013428
-1.046343e-05
-0.0004835771
-0.001389909
-4.021227e-06
-0.000617597
-0.001456945
-5.690487e-06
-0.0007609687
-0.001548315
-4.211227e-06
-0.001662764
-5.862999e-06
-0.0009163086
-0.0002809155
-0.001185016
-1.414865e-05
0.0001095192
-3.739987e-05
7.985763e-05
-1.164356e-07
-0.0004114288
-0.001197147
-1.513949e-05
-0.0005575434
-0.001238026
-5.767724e-06
-0.0007108799
-0.001297131
-6.477324e-06
-0.0008760467
-0.001378144
-5.004949e-06
-0.001479762
-5.493207e-06
-0.001053556
-0.0003169273
-0.001026542
-1.555606e-05
0.000105563
-2.404078e-05
8.150901e-05
1.097809e-05
-0.0004628209
-0.001037886
-1.336742e-05
-0.0006254698
-0.001072239
-3.138942e-06
-0.0007967461
-0.00112309
-2.76527e-06
-0.0009809277
-0.001193303
-6.59129e-07
-0.001280803
-8.054065e-07
-0.001179081
-0.0003454057
-0.000854816
-1.582897e-05
9.947127e-05
-1.136094e-05
8.093488e-05
2.046337e-05
-0.0005055985
-0.0008639941
-1.369896e-05
-0.0006839006
-0.0008924123
-1.524316e-06
-0.0008712061
-0.0009351312
-6.529862e-07
-0.001072868
-0.0009935881
1.947034e-06
-0.001066687
2.347478e-06
-0.001289332
-0.0003693937
-0.0006715041
-1.595927e-05
9.2381e-05
2.599851e-06
7.822847e-05
2.883174e-05
-0.0005441858
-0.0006783391
-1.086292e-05
-0.0007353103
-0.0007021409
8.529688e-07
-0.0009374052
-0.0007356502
2.613797e-06
-0.001154151
-0.000781626
4.783942e-06
-0.0008393972
5.26955e-06
-0.001386711
-0.000391574
-0.0004868525
-9.053751e-06
8.421081e-05
1.873224e-05
7.478735e-05
3.824573e-05
-0.0005721576
-0.0004967112
-1.04447e-06
-0.000776629
-0.0005127032
1.503368e-05
-0.0009906958
-0.0005383897
1.680609e-05
-0.001220205
-0.0005735848
2.14678e-05
-0.0006166432
2.36057e-05
-0.001466565
-0.0004082148
-6.003201e-05
-3.618458e-06
7.691912e-05
3.653877e-05
7.199968e-05
4.896812e-05
-9.154397e-05
-7.259367e-05
-8.52754e-05
-0.0006013105
-5.117627e-05
1.858664e-05
-0.0001061199
-7.403267e-05
-9.087327e-05
-0.0008125206
-3.937095e-05
2.522529e-05
-0.0001221231
-7.099828e-05
-9.422611e-05
-0.001035389
-2.927758e-05
2.769198e-05
-0.0001376582
-7.308122e-05
-0.0001031967
-0.001273979
-2.090736e-05
2.932799e-05
-0.000156645
-7.487216e-05
-0.0001118985
-1.308027e-05
3.150911e-05
-7.91486e-05
-0.001529877
-0.000177545
-0.0001224801
5.493248e-05
-7.579508e-05
1.550499e-06
-7.3004e-06
-1.068204e-05
-1.127639e-05
-1.146112e-05
0.0001195435
-0.0001364387
2.096117e-06
-1.052992e-05
-3.916945e-06
-9.178942e-06
-1.27514e-05
0.0001881011
-0.0002004612
1.959114e-06
-9.525941e-06
3.69794e-07
-6.749309e-06
-1.306455e-05
0.0002540349
-0.0002555239
5.826372e-07
-1.083524e-05
3.586295e-06
-5.72058e-06
-1.540175e-05
0.0003221106
-0.0003211508
1.305164e-06
-1.01926e-05
7.546613e-06
-3.837084e-06
-1.668932e-05
0.0003974384
2.052202e-06
-1.050221e-05
1.079999e-05
-2.662251e-06
-1.898887e-05
-0.0003912175
4.243411e-06
-1.010597e-07
-3.68034e-06
-2.127654e-07
-2.492509e-07
8.952278e-06
-9.738727e-07
-7.31651e-06
-3.354022e-08
-6.283607e-07
1.352261e-05
-1.831792e-06
-1.082401e-05
1.673177e-07
-1.034137e-06
1.848276e-05
-2.767371e-06
-1.477438e-05
2.116237e-07
-1.152647e-06
2.352406e-05
-3.726121e-06
-1.877975e-05
4.294317e-07
-1.447632e-06
2.892336e-05
-4.667407e-06
-2.303232e-05
6.221085e-07
-1.845744e-06
-0.002381054
-0.00025602
0.0004856677
0.009113712
0.0010398
-0.002348556
-0.002839741
-0.002813808
-0.002354048
-0.0007615191
0.001005879
0.009077322
0.000968746
-0.002316898
-0.002814734
-0.002804748
-0.002359639
-0.001170972
0.001312802
0.009063662
0.001062684
-0.002302185
-0.002802344
-0.002804008
-0.002374972
-0.001557137
0.001707847
0.009082663
0.001027554
-0.002288667
-0.002801784
-0.002795504
-0.00237942
-0.001980384
0.002133874
0.009133774
0.0009586473
-0.002278178
-0.002797868
-0.002790446
-0.002385794
-0.00241612
0.009175258
0.000923059
-0.002273199
-0.00279683
-0.002789818
0.002563444
0.006022641
0.03248304
0.001667581
-0.00156273
0.0003207535
-0.001362302
-0.001044719
-0.008124613
-0.00821162
-0.009959809
-0.01022822
0.007603192
0.03304615
0.003714803
-0.008680839
-0.008274984
-0.01061622
-0.01076946
0.009184791
0.03297991
0.00381086
-0.008807189
-0.008395966
-0.01068948
-0.01047973
0.01101513
0.03271743
0.003579417
-0.00888947
-0.008329565
-0.01054602
-0.01036213
0.01283716
0.03254065
0.003769401
-0.009025841
-0.008317213
-0.01047215
-0.01031688
0.03265299
0.003359035
-0.009108383
-0.010437
0.01484493
-0.008244199
-0.01023022
0.00350625
0.02972606
1.678751e-05
-0.001378632
0.001087201
-0.000599391
0.0001247715
0.006248296
0.02953939
0.0007647196
0.008581445
0.02972434
0.0009224248
0.01073293
0.02978604
0.0007799084
0.0128067
0.02975371
0.0007131696
0.02995697
0.000736672
0.01476605
0.004844685
0.02725355
0.0005413207
-0.001736574
0.0004323841
-0.0009890574
-0.0006202555
0.006737728
0.02701852
0.000627823
0.008879631
0.02706643
0.0005160075
0.01100109
0.02722457
0.0004400088
0.01303989
0.02728544
0.0004294688
0.02756865
0.0004208318
0.01500737
0.004389614
0.02488855
0.0001326428
-0.001506098
0.0004778034
-0.0008401829
-0.0002887727
0.006567366
0.0246903
0.0001504692
0.008806572
0.02476977
5.745634e-05
0.01107678
0.02487634
7.802047e-05
0.01327326
0.02503363
5.533763e-05
0.02542123
0.0001097351
0.01531095
0.004920178
0.02255354
5.581164e-05
-0.001506721
0.0003432922
-0.0009588545
-0.000518698
0.007090268
0.02232151
0.0001987007
0.009426341
0.02238003
5.366813e-05
0.01165641
0.02255388
9.238594e-05
0.01380862
0.02286078
2.063756e-05
0.02331229
7.008175e-05
0.01584748
0.004904002
0.0200857
8.867967e-05
-0.001419004
0.0002712312
-0.0009338486
-0.0004432199
0.007199648
0.01986008
0.0001657789
0.009604839
0.01998696
-1.211865e-05
0.01192514
0.02020939
2.419394e-05
0.01419088
0.02062911
-3.406192e-05
0.02117264
-9.680678e-06
0.0163402
0.005199773
0.01747896
0.000159924
-0.001380688
0.0001506611
-0.0009787726
-0.0005441571
0.007538903
0.01731617
0.0002047801
0.01002942
0.01748426
1.2178e-05
0.01244322
0.0177665
2.909073e-05
0.01481515
0.01827107
-1.389846e-05
0.01891488
-7.44981e-06
0.01708036
0.005331547
0.01476769
0.0001764675
-0.001308036
4.679143e-05
-0.0009898859
-0.0005456159
0.007790046
0.01466269
0.0001949877
0.01039811
0.01486816
8.026191e-06
0.01295467
0.01519827
1.167852e-05
0.01548509
0.01576621
-2.555255e-05
0.01650329
-2.282217e-05
0.0179195
0.005570592
0.0001835338
-0.001246727
-8.607799e-05
-0.001002606
-0.0006061914
0.01195517
0.008140587
0.000184633
0.01190806
0.01088643
-3.343104e-06
0.01212567
0.0136146
-1.378834e-05
0.01248389
0.01635496
-4.597661e-05
0.01307183
-6.101531e-05
0.01387735
0.0190419
1.416671e-05
3.947211e-05
-5.989707e-05
-0.0005020325
-1.150999e-05
2.539813e-06
3.81234e-05
2.985113e-06
-7.590074e-05
-0.002013498
-6.146068e-05
8.427386e-05
0.0001261657
-3.33682e-05
-3.875055e-05
9.121647e-05
-9.19357e-06
0.0001292428
-1.015596e-05
-5.734995e-05
-0.002089267
-9.0761e-05
0.0001482548
0.00014803
-4.0364e-05
-3.789007e-05
-6.573898e-05
-0.002197361
-0.0001085002
0.0001611548
0.0001562634
-4.155869e-05
-3.219302e-05
-7.811496e-05
-0.002334476
-0.0001155188
0.0001706922
0.0001656967
-4.110024e-05
-3.584551e-05
-0.002504245
-0.0001221617
0.0001833061
-4.767165e-05
-9.243167e-05
0.0001772418
-3.586514e-05
1.335733e-05
9.463106e-05
-1.61137e-05
-0.0004363567
2.538359e-06
9.441299e-06
-1.697902e-05
6.825214e-07
0.0001176297
0.000102044
0.0001291251
-5.227699e-05
-0.001913782
-1.903779e-05
0.0004900348
0.0005030708
0.0004790069
0.0004841442
1.78865e-05
-1.67426e-05
7.704592e-06
-2.695949e-05
-8.687806e-05
-0.001982065
-1.864789e-05
-0.0001388587
-0.002045995
-3.034878e-05
-0.0001855956
-0.0021554
-3.773423e-05
-0.0002371702
-0.002289684
-4.688238e-05
-0.00246054
-4.029554e-05
-0.0002904414
2.497054e-05
0.0004315453
-1.732943e-05
-0.000429
-2.481088e-05
1.544504e-05
-1.169917e-05
1.087858e-05
-0.0001287942
-0.001831212
1.173028e-06
2.629941e-05
-9.435563e-06
5.028032e-06
-7.867946e-07
-0.0001978019
-0.001927687
-5.821032e-05
-0.0002677953
-0.002000283
-5.855727e-05
-0.0003428808
-0.002101453
-8.388058e-05
-0.0004223929
-0.002234035
-8.243571e-05
-0.002398712
-9.833149e-05
-0.0005084577
2.510082e-05
0.0004348482
-3.549122e-05
-0.0004352674
-5.971774e-06
1.470619e-05
-9.928386e-06
1.200356e-05
-0.0001793262
-0.00174776
-4.747928e-06
5.552068e-05
-1.076918e-05
3.892352e-05
8.569178e-06
-0.0002706073
-0.001825483
-1.54283e-05
-0.0003689361
-0.00188877
-2.466495e-05
-0.0004726168
-0.001981707
-3.546826e-05
-0.0005838455
-0.00210425
-3.667546e-05
-0.002259504
-4.513336e-05
-0.0007048258
2.341042e-05
0.0004264723
-2.311649e-05
-0.0004060861
-3.603473e-05
1.366061e-05
-9.416863e-06
1.111083e-05
-0.0002338202
-0.001629988
-1.095459e-05
4.561261e-05
1.200107e-05
2.756773e-05
2.686604e-05
-0.0003489974
-0.001707396
-2.520481e-05
-0.0004717958
-0.001765431
-1.901314e-05
-0.0006018582
-0.001851553
-2.396664e-05
-0.0007413719
-0.001966498
-2.323059e-05
-0.002110885
-2.583745e-05
-0.0008923092
2.22362e-05
0.0004033477
-3.213864e-05
-0.000389422
-1.720273e-05
1.26167e-05
-9.786963e-06
1.034971e-05
-0.0002775712
-0.001498143
-1.451608e-05
5.691415e-05
2.122891e-05
4.056378e-05
3.120507e-05
-0.0004215957
-0.001559318
-1.451688e-05
-0.0005659386
-0.001612841
-1.226876e-05
-0.0007217773
-0.001689506
-1.189881e-05
-0.0008883312
-0.001793839
-1.03161e-05
-0.001925038
-1.139832e-05
-0.001068643
2.015405e-05
0.0003738212
-4.014493e-05
-0.0003495562
-1.671771e-05
1.121818e-05
-8.342939e-06
9.568441e-06
-0.000320058
-0.001338746
-1.746856e-05
6.499668e-05
2.122976e-05
4.543692e-05
3.231781e-05
-0.0004849241
-0.001391492
-1.809959e-05
-0.0006524822
-0.001439496
-1.155452e-05
-0.000831647
-0.001507699
-9.12022e-06
-0.001023499
-0.001600875
-6.117012e-06
-0.001717867
-5.642137e-06
-0.001230521
1.823177e-05
0.0003351998
-3.448886e-05
-0.0003103577
-1.94176e-05
1.046076e-05
-7.664028e-06
8.035856e-06
-0.0003604269
-0.001158335
-1.712269e-05
6.373264e-05
2.887072e-05
5.052404e-05
3.845469e-05
-0.0005443699
-0.001205413
-1.550273e-05
-0.0007321674
-0.001246187
-8.65028e-06
-0.0009331452
-0.001305332
-4.154163e-06
-0.001148049
-0.001386077
-5.536141e-07
-0.001487647
7.698138e-07
-0.001379844
1.57088e-05
0.000286781
-3.418564e-05
-0.0002555537
-2.457673e-05
8.227321e-06
-4.011868e-06
7.6108e-06
-0.0003934285
-0.0009646973
-1.892553e-05
6.388344e-05
4.127547e-05
5.081815e-05
4.691072e-05
-0.0005962003
-0.001000862
-1.547878e-05
-0.0008032169
-0.001034855
-5.840455e-06
-0.00102425
-0.001084477
-4.750025e-07
-0.00126053
-0.001152247
4.397231e-06
-0.001237229
6.317018e-06
-0.001514918
1.407121e-05
0.0002344464
-4.062512e-05
-0.0002078519
-1.39923e-05
7.243986e-06
-8.784683e-07
7.58614e-06
-0.0004232981
-0.0007628567
-1.792496e-05
7.048068e-05
4.457256e-05
6.051687e-05
4.7853e-05
-0.0006454777
-0.0007824877
-7.057638e-06
-0.0008705822
-0.0008106452
1.747814e-06
-0.001110856
-0.000851354
9.764954e-06
-0.001366548
-0.0009062929
1.452107e-05
-0.0009742282
1.744618e-05
-0.001641726
1.091023e-05
0.0001837977
-3.896365e-05
-0.0001523674
-1.089657e-05
5.871376e-06
-2.556494e-06
4.204783e-06
-0.0004482292
-0.0005402187
-1.031846e-05
7.042139e-05
4.74877e-05
6.109002e-05
4.785688e-05
-0.0006849679
-0.0005420541
-4.739529e-06
-0.0009288069
-0.0005640224
1.224975e-05
-0.001185278
-0.0005952449
1.716809e-05
-0.001458981
-0.0006348696
2.374722e-05
-0.000682453
2.608018e-05
-0.001753231
7.404676e-06
0.0001252342
-3.728734e-05
-8.744955e-05
-1.24547e-05
3.604054e-06
-1.594071e-06
2.542721e-06
-0.0004827194
-6.814902e-05
-5.142975e-06
7.055122e-05
5.394088e-05
6.860394e-05
5.562706e-05
-7.945393e-05
-6.80223e-05
-8.907268e-05
-0.0007267734
-6.742391e-05
2.518619e-05
-8.908268e-05
-6.955389e-05
-7.85393e-05
-0.0009806565
-6.688686e-05
2.712495e-05
-9.773673e-05
-6.934703e-05
-7.806838e-05
-0.001246655
-7.130129e-05
3.502429e-05
-0.0001060761
-7.570438e-05
-8.349746e-05
-0.00152988
-7.293971e-05
3.822149e-05
-0.0001169044
-8.229147e-05
-8.840242e-05
-7.815011e-05
4.206706e-05
-8.908868e-05
-0.00183521
-0.0001236854
-9.675651e-05
3.106756e-06
-2.495394e-05
-3.570435e-07
6.221711e-05
-6.686448e-09
-7.033513e-07
9.5626e-09
-8.248185e-06
-1.110839e-05
-1.125019e-05
-8.705661e-06
-3.303605e-07
5.728482e-05
-8.900727e-05
-3.957732e-05
3.48109e-06
-1.386769e-07
0.0001267572
-0.0001590925
-3.447501e-05
-4.749984e-07
-1.362382e-07
0.0001923232
-0.0002248894
-3.60882e-05
1.903759e-06
1.842483e-06
0.0002572136
-0.0002872927
-4.104475e-05
-2.020007e-06
1.892728e-06
0.0003267163
-0.0003597462
-4.002229e-05
-1.780319e-06
-3.076324e-07
0.0003998276
-4.306281e-05
-2.542409e-06
-0.0004320649
4.74749e-06
1.214944e-05
1.384405e-05
-4.605223e-05
3.200276e-06
-2.018883e-06
1.412985e-05
4.51523e-06
7.752917e-06
5.543261e-05
-6.819891e-05
3.823157e-06
-3.325041e-06
9.247375e-06
1.087746e-05
8.093919e-05
-9.45598e-05
-4.131847e-06
-2.372406e-06
1.29246e-05
1.109905e-05
0.0001108933
-0.0001246775
-6.714065e-06
-3.5254e-06
1.649499e-05
1.187063e-05
0.0001403616
-0.0001547063
-9.747138e-06
-4.273772e-06
2.01742e-05
1.12633e-05
0.000171515
-1.194913e-05
-4.858363e-06
-0.000186145
9.41513e-06
-0.0005337362
0.001949555
-2.10298e-05
-0.0007059367
-0.0006982676
-0.0006483144
-0.0007808603
-0.009260223
0.0005580347
0.01018281
-5.144536e-05
0.0001547486
-0.0102959
-0.0008335534
0.0009095207
0.010444
-0.0003788103
-7.898249e-05
-0.01030069
-0.001251111
0.001367518
0.01032216
-5.888554e-05
-0.000145074
-0.010266
-0.001562992
0.00174109
0.01022477
8.208364e-06
-0.0001543897
-0.01024692
-0.001958944
0.002103686
0.01018169
7.487852e-05
-0.0001929641
-0.0102563
-0.002363187
0.01018369
0.0001266432
0.002502122
-0.0002608191
-0.008259198
0.0005911872
0.007612229
0.0003412492
1.172173e-05
0.0001197334
-0.0001561032
0.007144005
0.03655957
0.001313221
-0.01021574
-0.009993637
-0.009928035
-0.009773894
-0.001029112
-0.0007725848
-0.0008983369
-0.0007378697
0.00915297
0.03825313
0.004596976
-0.01051344
-0.01024227
-0.01045615
-0.009932412
0.01128343
0.03840933
0.004911973
-0.01051625
-0.01041216
-0.01038631
-0.01032617
0.01348184
0.03799244
0.00466724
-0.01041982
-0.01031244
-0.01026496
-0.01028146
0.01567984
0.0379504
0.004920367
-0.01042384
-0.01028014
-0.01025754
-0.01033784
0.03800349
0.004271212
-0.01035421
-0.01028658
0.01801686
-0.01023381
-0.01037809
-0.0002106047
-0.007308066
-9.028669e-05
0.007369075
5.879254e-05
8.202654e-05
0.0001725764
-7.351272e-05
0.003803345
0.03364124
-0.0006728671
-7.964353e-05
4.314672e-05
-0.0002121093
5.324364e-05
0.007158969
0.03489687
0.000765362
0.01021541
0.03497448
0.001300833
0.01300406
0.03475806
0.001225632
0.01565012
0.03481412
0.001203399
0.03511542
0.001214408
0.01806045
-0.0002166492
-0.007557435
0.0002767605
0.007245145
7.193113e-05
9.201883e-05
0.0001628685
-7.46396e-05
0.00560833
0.03123115
0.0003817958
-0.0007217496
-0.000839573
-0.0006565934
-0.000820794
0.007933232
0.0322267
0.0009730831
0.01047668
0.03193801
0.00100903
0.01297158
0.03177647
0.0009267087
0.01540177
0.03189004
0.0009233518
0.03228179
0.0009066547
0.01774958
-0.0002066626
-0.007006225
0.0003722474
0.006736973
-2.767599e-05
6.640432e-05
0.000144943
-8.000451e-05
0.005124879
0.0285308
0.0001678085
-0.0007406395
-0.0005121432
-0.0006837691
-0.0005231481
0.007839862
0.02930353
0.0003586632
0.01051938
0.02902254
0.0002934015
0.01309825
0.02900819
0.0002674359
0.01556955
0.02923591
0.0002381655
0.02971169
0.0002995439
0.01794984
-0.0001946212
-0.00654651
0.0003769864
0.006162651
8.352735e-05
6.797343e-05
0.0001302959
-8.030315e-05
0.005570322
0.02565456
0.0001718536
-0.0007617323
-0.0006608918
-0.0006810683
-0.0007064265
0.008444716
0.02622335
0.0004044821
0.01107968
0.02617742
0.000263825
0.0136329
0.02634836
0.0001989991
0.01609126
0.02669005
0.0001081361
0.0272151
0.0001822976
0.01847563
-0.0001759786
-0.00589144
0.0004118746
0.00552442
3.581381e-05
6.135369e-05
0.0001190309
-8.507457e-05
0.00554174
0.02275605
0.0001518451
-0.0007885557
-0.0005882484
-0.0007060999
-0.000623495
0.008484476
0.02318809
0.0002583116
0.01121685
0.02329919
0.0001337267
0.01391775
0.0235566
0.0001150576
0.01653606
0.02402085
1.684005e-05
0.02464976
4.64015e-05
0.01904532
-0.0001651846
-0.005256864
0.0004095664
0.004871343
7.823476e-05
4.582295e-05
0.0001009415
-8.386058e-05
0.005899954
0.01976066
0.0001988437
-0.0008235324
-0.0006624965
-0.0007479958
-0.0007094581
0.008846135
0.02017145
0.0002752331
0.01167355
0.02036686
0.0001170891
0.0144837
0.02069352
8.203144e-05
0.01722717
0.02126326
2.122584e-07
0.02200513
-1.952689e-06
0.01986631
-0.000150405
-0.00457357
0.0004232798
0.004183826
9.290887e-05
3.178837e-05
7.79979e-05
-8.582622e-05
0.006053969
0.01667899
0.0001961667
-0.0008402722
-0.0006839998
-0.0007677106
-0.000700014
0.009125717
0.01705034
0.0002443475
0.012104
0.01730195
9.465516e-05
0.01508703
0.01768132
4.085234e-05
0.01802331
0.0183341
-3.266871e-05
0.0191874
-4.470498e-05
0.02086292
0.0007326138
-2.107365e-05
-0.0003307494
-2.899035e-05
-0.00373042
0.003378619
0.00632165
0.0001958622
0.01352421
-0.0007500368
-0.0008772519
-0.0008192956
0.009527209
0.0002073013
0.01382212
0.01267996
5.457081e-05
0.01409128
0.01587251
-2.159324e-05
0.01449657
0.01906676
-8.46802e-05
0.01517856
-0.0001308863
0.01611223
0.0222118
3.760796e-05
3.472692e-06
-6.294165e-05
-0.0004862935
-2.487372e-06
3.15956e-06
3.749018e-05
2.618231e-06
-6.266793e-05
-0.001980192
-1.939177e-05
0.0001295146
-1.741695e-05
0.0001294196
-1.573106e-05
-4.025231e-05
-0.002103693
-2.25344e-05
-5.111211e-05
-0.00219602
-2.80837e-05
-6.556433e-05
-0.002354516
-3.222418e-05
-0.002525745
-3.441796e-05
-7.935097e-05
9.936853e-05
-1.677477e-05
-2.77775e-05
-0.000418669
1.284957e-05
0.0001165958
0.0001064268
0.0001279805
-0.0001221474
-0.001893202
-1.411939e-05
0.0004803255
0.0004899213
0.0004835563
0.0004810027
3.131062e-05
9.963051e-06
3.120305e-05
3.148801e-06
-0.0001306565
-0.001964305
-2.602527e-05
-0.0001688568
-0.00206363
-3.221128e-05
-0.0002088546
-0.002153148
-4.06082e-05
-0.0002617144
-0.002300759
-4.777934e-05
-0.002465912
-4.90899e-05
-0.0003127534
-5.114287e-05
-0.001592117
-3.182182e-05
5.09188e-05
2.745942e-05
-8.153058e-05
-1.10685e-05
0.0003687122
0.0004701858
0.0003828728
0.0004675317
-0.000115531
-0.001835681
8.039807e-06
-0.0001947322
-0.001901661
-4.165302e-05
-0.0002631072
-0.002007261
-4.655161e-05
-0.0003407664
-0.002095694
-6.367535e-05
-0.0004188588
-0.002235793
-6.930867e-05
-0.002397439
-7.794652e-05
-0.0005077168
-0.0001213727
-0.001461613
2.440552e-05
4.723657e-05
-6.780518e-06
-6.38123e-05
-1.01808e-05
-0.0001980813
-0.00176078
-2.939868e-06
-0.0002849167
-0.001817985
-1.226935e-05
-0.0003826928
-0.00190721
-2.693999e-05
-0.0004847865
-0.00199742
-3.164899e-05
-0.0005954382
-0.002124258
-3.755861e-05
-0.002279645
-4.152367e-05
-0.0007168422
-9.211048e-05
-0.001381406
-6.486198e-06
8.012142e-05
1.87851e-05
-7.381152e-05
-6.704779e-06
-0.0002217455
-0.0016351
-6.999628e-06
-0.0003445982
-0.001699913
-2.04242e-05
-0.0004729932
-0.001776781
-2.104655e-05
-0.0006071842
-0.001861268
-2.592793e-05
-0.0007489811
-0.00197902
-2.667206e-05
-0.002122687
-2.959103e-05
-0.000902185
-0.0001261033
-0.00125348
5.539772e-07
6.213203e-05
1.058844e-05
-6.623528e-05
-8.862282e-06
-0.0002703965
-0.001495807
-9.516286e-06
-0.0004196971
-0.0015544
-1.072933e-05
-0.0005713872
-0.001623643
-1.371678e-05
-0.0007307431
-0.001701453
-1.235779e-05
-0.0009005574
-0.001808008
-1.151403e-05
-0.00193929
-1.183966e-05
-0.001083514
-0.0001386945
-0.001119828
-5.093186e-06
5.758158e-05
8.936358e-06
-5.299824e-05
-3.384143e-06
-0.0003071143
-0.001332807
-1.204881e-05
-0.0004791512
-0.001386367
-1.409544e-05
-0.0006559825
-0.001445202
-1.316442e-05
-0.0008409494
-0.001515051
-1.055546e-05
-0.001037708
-0.001609685
-7.681535e-06
-0.001726945
-6.971823e-06
-0.001248724
-0.0001614069
-0.0009724941
-4.636287e-06
5.604434e-05
1.10353e-05
-4.389369e-05
-4.476296e-06
-0.0003461159
-0.001153437
-1.178372e-05
-0.0005397748
-0.001196712
-1.149902e-05
-0.0007379788
-0.001245821
-9.8281e-06
-0.0009463655
-0.001305945
-4.873016e-06
-0.001167621
-0.001387997
-9.85779e-07
-0.001489899
7.840281e-07
-0.001404682
-0.0001733728
-0.0008102717
-5.911197e-06
5.272337e-05
1.216835e-05
-4.214588e-05
-5.684221e-06
-0.0003775927
-0.0009556515
-1.249095e-05
-0.0005910493
-0.0009878425
-1.089199e-05
-0.0008122537
-0.001023975
-6.481567e-06
-0.001043454
-0.001074737
-4.833525e-07
-0.001288372
-0.001143464
4.781652e-06
-0.001229021
7.146691e-06
-0.001550079
-0.000183156
-0.0006311285
-6.295549e-06
3.712585e-05
8.895245e-06
-3.067076e-05
-5.041931e-06
-0.0004022415
-0.0007424854
-1.200556e-05
-0.0006415427
-0.0007523812
-3.217846e-06
-0.0008855882
-0.0007791457
9.63591e-07
-0.001138747
-0.0008216314
9.817741e-06
-0.001405669
-0.0008767904
1.47703e-05
-0.0009448016
1.794817e-05
-0.001690391
-0.0001929603
-0.0004476308
-7.492122e-06
2.955724e-05
4.327172e-06
-1.445855e-05
-2.471222e-06
-0.0004311627
-0.0005080549
-6.546579e-06
-0.0006866827
-0.0004984936
-3.107138e-06
-0.0009508089
-0.0005097773
7.007395e-06
-0.001221244
-0.0005455351
1.150631e-05
-0.001506212
-0.0005849585
1.688329e-05
-0.0006323175
1.846432e-05
-0.00181108
-0.0001974178
-5.940078e-05
-6.399986e-06
-7.240277e-05
-6.173307e-05
-7.256272e-05
2.513181e-05
3.606046e-06
-1.625235e-06
-4.826271e-06
-0.0004434964
-5.723136e-05
-5.136852e-06
-7.318874e-05
-5.777481e-05
-7.378756e-05
-0.0007214541
-0.0002136744
1.832453e-05
-0.0009936939
-0.0002258919
1.547936e-05
-0.001263276
-0.0002613118
2.038328e-05
-0.001553453
-0.0002784817
2.192087e-05
-0.0003029209
2.387253e-05
-0.001864655
2.409759e-06
-2.372586e-05
5.539482e-07
-1.083103e-05
-8.428216e-06
-1.091302e-05
-8.466394e-06
5.501532e-05
-1.072553e-06
-8.506089e-05
-2.762412e-05
1.510865e-06
-0.0006967474
5.108848e-06
6.693081e-06
-1.964279e-08
1.581033e-05
-3.581358e-05
0.0001269844
0.000110194
0.0001250668
0.0001290487
-0.0008986954
1.307985e-05
-1.183963e-06
-7.382615e-06
2.722377e-05
-5.568103e-05
-0.00114483
7.175623e-06
4.969274e-06
-9.296286e-06
4.605363e-05
-6.407955e-05
-0.001405816
7.915951e-06
3.972154e-06
-1.239121e-05
6.220831e-05
-7.920049e-05
6.401107e-06
6.673427e-06
7.767375e-05
-0.001691966
-1.767185e-05
-8.984742e-05
1.261917e-05
-3.314599e-06
4.866094e-06
-3.011997e-05
2.644733e-06
1.330456e-05
5.598587e-05
-0.0006312043
-2.801103e-06
0.001997044
-0.00070802
-0.0007110045
-0.0002021229
0.0001974887
-0.01018914
-0.0001333049
0.01043471
-0.0001076357
0.003781031
0.03496262
-0.0009182902
-0.002740531
-0.002923285
0.0009518946
0.00133818
-0.003032311
0.0001694494
-0.003684475
6.763299e-05
0.006236171
0.03636378
-0.00254829
-0.003326817
-0.002827914
0.001091057
0.001587917
0.007208989
0.03741564
0.0006198245
-0.003703991
-0.00317792
0.0007472705
0.00101912
0.009166815
0.03652866
0.0005128759
-0.003748343
-0.003049107
0.0007506027
0.001117467
0.03781458
0.0004471029
-0.003876056
0.0006533467
0.01054268
-0.003211077
0.0008865046
0.004595309
0.03071283
0.00107404
-0.00768614
-0.009727019
-0.008026516
-0.009581184
-0.0008199153
-0.000547222
0.0004430201
-0.0004372021
0.008914634
0.03735173
0.0008568668
-0.01046948
-0.01022712
-0.01011966
-0.01039845
0.009794998
0.03613294
0.002546288
0.01060872
0.03625156
0.004210477
0.01285435
0.03754851
0.002288738
0.01435332
0.03706871
0.002881334
0.03726304
0.002200157
0.01697591
0.002205233
0.02796215
-0.000761631
-0.0007560961
0.0001867901
0.001313765
0.0005626171
0.00539804
0.0341052
-0.0006191424
0.008087687
0.03384454
0.0003641196
0.01066048
0.03395153
0.00102807
0.01351617
0.03482109
0.001097351
0.0160718
0.03465203
0.001064449
0.03483609
0.00105018
0.01866298
0.002508413
0.02564893
0.0002638467
-0.001034428
-0.0001312541
0.0008583116
-0.0001516687
0.005421681
0.03138513
0.000188594
0.008183276
0.03136879
0.0006872376
0.01068863
0.03171189
0.0007433122
0.01343136
0.03196728
0.001037791
0.01588729
0.03221686
0.0009026046
0.0323466
0.0009657239
0.01831771
0.002017132
0.02352627
-0.0001772584
-0.0007355052
-1.403141e-05
0.0009393027
9.302341e-05
0.005024708
0.02850915
3.62105e-05
0.007858744
0.02861039
0.0002830295
0.01056654
0.02916438
0.0001331153
0.01326452
0.02920656
0.0003301733
0.01587006
0.02963874
0.0002107453
0.02981858
0.0003658484
0.01833177
0.002296064
0.02139643
3.270629e-05
-0.0008370158
-0.0001192473
0.0008164417
-5.910579e-05
0.005309179
0.02560056
6.73318e-05
0.008182591
0.02585121
0.000290252
0.01105194
0.02637321
0.000185646
0.01373038
0.02654716
0.0001799544
0.01637317
0.02701408
9.001284e-05
0.02740305
0.0001635917
0.01880741
0.002340591
0.01903628
4.742252e-06
-0.0006925891
-5.331995e-05
0.000736047
2.466982e-05
0.005377272
0.02265504
6.068446e-05
0.008311635
0.02300874
0.0001664108
0.0112085
0.02349183
0.0001182436
0.01403342
0.02370357
0.0001337313
0.01676288
0.02427908
2.238118e-05
0.02484054
5.646442e-05
0.01931533
0.002555481
0.01658283
3.273139e-05
-0.0006772165
-8.284899e-05
0.0006272159
-1.903759e-06
0.005654976
0.01966428
9.010432e-05
0.008706338
0.02006869
0.0001639292
0.01170456
0.02049981
0.0001108882
0.01460056
0.02081842
7.118258e-05
0.01742916
0.02146362
-1.292717e-05
0.02217053
-1.640767e-05
0.02011362
0.002626061
0.01405785
-2.945838e-06
-0.0005943493
-6.945304e-05
0.0005410469
2.461096e-05
0.005798058
0.01658544
0.0001030134
0.009003538
0.016955
0.0001525579
0.0121369
0.01736503
9.607459e-05
0.01520679
0.01775338
3.599791e-05
0.01822397
0.01845569
-4.192289e-05
0.01929581
-5.919323e-05
0.02111318
0.002783895
2.022152e-05
0.01135663
0.0004490015
4.038603e-05
-0.0005231081
-6.916902e-05
0.006054642
0.000101595
0.01340896
0.009398692
0.000114202
0.01370404
0.0127115
5.413977e-05
0.01405265
0.01600236
-3.597424e-05
0.0144769
0.01928378
-0.0001078374
0.01519743
-0.0001571075
0.01611868
0.02248713
3.764625e-05
1.269877e-06
-6.592881e-05
-0.0004873406
-6.953831e-07
3.251199e-06
3.767169e-05
3.01523e-06
-9.555565e-05
-0.001941771
-1.425757e-05
0.0001377229
-4.061539e-06
0.0001363654
-3.699534e-06
-5.462833e-05
-0.002028806
-1.764031e-05
-5.926136e-05
-0.002150668
-2.020666e-05
-6.989499e-05
-0.002286798
-2.309913e-05
-0.002459386
-2.505257e-05
-8.385247e-05
0.000102321
-6.07186e-06
-2.89805e-05
-0.0004200516
4.020406e-06
0.0001182427
0.0001025426
0.0001279771
-0.0001064417
-0.001881643
-7.767705e-06
0.0004790976
0.0004794091
0.0004785962
0.0004759397
3.136456e-05
2.744975e-06
3.37824e-05
7.981704e-07
-0.000115795
-0.001948033
-1.040939e-05
-0.000153708
-0.002011653
-1.145111e-05
-0.0001952122
-0.002131878
-1.789469e-05
-0.0002434653
-0.002264257
-2.206714e-05
-0.002435552
-2.325187e-05
-0.000293137
-9.736205e-05
-0.001632826
-2.03029e-05
0.0003901429
0.0004716214
0.0003869555
0.0004699494
-0.000144409
-0.001831527
4.971399e-06
-0.0002207831
-0.001890242
-2.306995e-05
-0.0002757087
-0.001978227
-2.50524e-05
-0.0003499946
-0.002084693
-3.657448e-05
-0.00042507
-0.002219128
-3.936217e-05
-0.002382801
-4.500599e-05
-0.0005107615
-0.0001316284
-0.001487695
1.090246e-05
-0.0002027214
-0.001761741
-1.633421e-06
-0.0002910068
-0.00180637
-7.856539e-06
-0.0003845192
-0.001893982
-1.76728e-05
-0.0004860709
-0.001992408
-2.238202e-05
-0.0005969942
-0.002118859
-2.690443e-05
-0.00227417
-3.003971e-05
-0.0007171091
-9.728139e-05
-0.001395649
-1.250901e-06
-0.0002301763
-0.001632467
-3.3788e-06
-0.0003529621
-0.001691968
-1.204014e-05
-0.0004820834
-0.0017718
-1.410639e-05
-0.0006162626
-0.001865135
-1.902102e-05
-0.0007583359
-0.001982993
-2.046458e-05
-0.002127539
-2.271419e-05
-0.0009118441
-0.0001278185
-0.001268778
1.501609e-06
-0.0002713017
-0.001494215
-4.284842e-06
-0.0004212922
-0.001545933
-6.773564e-06
-0.0005762655
-0.001620302
-1.024231e-05