/*--------------------------------*- C++ -*----------------------------------*\
  =========                 |
  \\      /  F ield         | OpenFOAM: The Open Source CFD Toolbox
   \\    /   O peration     | Website:  https://openfoam.org
    \\  /    A nd           | Version:  7
     \\/     M anipulation  |
\*---------------------------------------------------------------------------*/
FoamFile
{
    version     2.0;
    format      ascii;
    class       volVectorField;
    location    "0.09";
    object      U;
}
// * * * * * * * * * * * * * * * * * * * * * * * * * * * * * * * * * * * * * //

dimensions      [0 1 -1 0 0 0 0];

internalField   nonuniform List<vector> 
77308
(
(-0.001162853 -0.04908944 -0.00174744)
(-0.001250786 -0.05424887 -0.00234703)
(-0.0009396169 -0.05702475 -0.002432658)
(-0.001062901 -0.06177789 -0.002786619)
(-0.001359161 -0.0652362 -0.002914797)
(-0.00162707 -0.07061813 -0.003262465)
(-0.002797586 -0.04872716 -0.001273596)
(-0.002995732 -0.05361693 -0.0007974853)
(-0.003973152 -0.05730011 -0.001201274)
(-0.004965226 -0.06160439 -0.001347859)
(-0.006154924 -0.06426565 -0.001484635)
(-0.007539305 -0.07068568 -0.001810878)
(-0.0004386439 -0.04439946 -0.0006578269)
(-0.00282824 -0.04590569 -0.001479417)
(-0.004672925 -0.04879857 -0.001755169)
(-0.007326459 -0.0523981 -0.001877668)
(-0.009061913 -0.05516414 -0.002102244)
(-0.0115189 -0.0602704 -0.002107078)
(-0.003517129 -0.04412628 -6.574902e-05)
(-0.00519829 -0.04616421 0.0001692863)
(-0.00750137 -0.04870792 -5.201716e-05)
(-0.01003308 -0.05155944 -8.65759e-05)
(-0.01278827 -0.05495888 -9.44354e-05)
(-0.01547462 -0.05916054 -0.0002119978)
(-0.004080681 -0.04077195 -0.0001694918)
(-0.006627887 -0.04238095 -0.0003274291)
(-0.009645215 -0.04426317 -0.0003567265)
(-0.01282539 -0.04685094 -0.0004831519)
(-0.01614189 -0.04979463 -0.0005490893)
(-0.01970413 -0.05369745 -0.0006155725)
(-0.005135352 -0.0381409 5.60606e-05)
(-0.008262978 -0.03962452 -5.683369e-05)
(-0.01185326 -0.0414299 4.323457e-05)
(-0.01554918 -0.04366149 -2.792099e-05)
(-0.01952609 -0.04654286 -1.490655e-05)
(-0.02374148 -0.05000322 -5.004964e-05)
(-0.005880007 -0.03431077 4.797937e-06)
(-0.009516497 -0.03558051 -0.0001555768)
(-0.01366998 -0.03709198 -1.754922e-05)
(-0.01792498 -0.03909097 -9.57688e-05)
(-0.0224843 -0.04161553 -9.648637e-05)
(-0.02733482 -0.04473297 -0.0001187127)
(-0.00671769 -0.03028027 -1.662652e-05)
(-0.0106918 -0.03143022 -0.0001222529)
(-0.01536106 -0.03275929 3.783471e-05)
(-0.02007399 -0.03449943 -3.193446e-05)
(-0.02517332 -0.03673433 -2.027097e-05)
(-0.03056683 -0.03945528 -4.041989e-05)
(-0.007245569 -0.02570562 1.618923e-05)
(-0.01168529 -0.02666949 -0.0001332475)
(-0.0167446 -0.02777555 4.999017e-05)
(-0.02190471 -0.02923628 -2.113496e-05)
(-0.02745479 -0.03114193 -6.343273e-06)
(-0.03334648 -0.03344083 -2.035086e-05)
(-0.007669022 -0.02085144 -1.676809e-05)
(-0.0125349 -0.02161638 -0.0001696139)
(-0.01793432 -0.02245007 -2.226263e-06)
(-0.02343243 -0.02364722 -7.822825e-05)
(-0.02939023 -0.02513321 -8.420309e-05)
(-0.03566987 -0.02700142 -0.0001127758)
(-0.008213387 -0.01568795 6.397487e-05)
(-0.01310388 -0.01619533 3.352485e-05)
(-0.01878364 -0.01695913 0.0002217213)
(-0.02461114 -0.01779905 0.0001795983)
(-0.03082231 -0.01897272 0.0002218868)
(-0.03745558 -0.02037118 0.0002464916)
(-0.008523403 -0.01047423 2.839056e-05)
(-0.01355826 -0.01092379 0.00013521)
(-0.0194009 -0.01112285 0.0001761576)
(-0.02525943 -0.01175365 0.0001068809)
(-0.03167336 -0.01248691 7.407679e-05)
(-0.03841689 -0.01343443 5.718832e-05)
(-0.005908465 -0.005706622 0.0003790517)
(-0.01263445 -0.005331205 0.000741369)
(-0.01953424 -0.004561008 0.0005116182)
(-0.02486189 -0.00359402 0.0008071465)
(-0.03184348 -0.002965733 0.0008656901)
(-0.03900085 -0.002440248 0.001000968)
(-0.006982076 -0.0003519165 0.0001510861)
(-0.01463406 0.0001441107 -0.0001323089)
(-0.02183841 0.0008990729 -0.0004549196)
(-0.02986305 0.00179123 -0.0004237002)
(-0.03788323 0.002588251 -0.0006303428)
(-0.04624081 0.003233889 -0.0008877911)
(0.0214337 1.035561 -0.01449285)
(0.08335198 1.038827 0.02710718)
(0.1146691 1.025533 0.05005551)
(0.1533648 1.025145 0.0415061)
(0.1967984 1.025708 0.03276697)
(0.2417142 1.029537 0.02745299)
(0.1475199 0.9436919 0.02350525)
(0.1843226 0.9880223 0.03205555)
(0.2258952 0.9834578 0.02849639)
(0.2755198 0.9772835 0.02520978)
(0.3256376 0.9762374 0.02561491)
(0.3784045 0.975802 0.02613254)
(0.05464321 0.8150388 0.006183506)
(0.136746 0.8268844 0.01080473)
(0.2082533 0.837682 0.01184115)
(0.2688301 0.834848 0.009967972)
(0.329376 0.8298335 0.007085674)
(0.3849579 0.8357074 0.007130896)
(0.1092703 0.7906446 0.007477471)
(0.155591 0.8051224 0.004515546)
(0.2197167 0.8135472 0.003474149)
(0.2791952 0.8273745 0.004526585)
(0.3392252 0.832912 0.004366383)
(0.3951852 0.8400702 0.00388349)
(0.08882484 0.7004383 -0.003254665)
(0.151388 0.7126996 -0.003446335)
(0.2164293 0.7189039 -0.002533739)
(0.2807379 0.7217437 -0.001576237)
(0.3462655 0.7237547 -0.0004077932)
(0.4053927 0.7336878 -0.0005913865)
(0.1060395 0.6526396 -0.004444776)
(0.1644931 0.6647382 -0.002425112)
(0.2342257 0.672606 -0.001868707)
(0.2994391 0.6822442 -0.0009349712)
(0.3624939 0.6918173 -0.0004458775)
(0.4218455 0.7047174 -0.0004648056)
(0.101823 0.5790634 -0.003366358)
(0.1672068 0.5871982 -0.0006596211)
(0.2384163 0.5939614 -0.002538071)
(0.3059748 0.6018385 -0.00133116)
(0.3719837 0.6131824 -0.001223592)
(0.4351075 0.6272568 -0.001093087)
(0.1106376 0.5144933 -0.001913969)
(0.1752249 0.5229626 0.0007684235)
(0.2494036 0.5320685 -0.001694779)
(0.3193143 0.5426402 -0.0005653591)
(0.3881389 0.557519 -0.0005794425)
(0.4547872 0.5750411 -0.0004224617)
(0.1119338 0.4393654 -0.001425401)
(0.180821 0.4472991 0.001134543)
(0.2578172 0.4560941 -0.001572159)
(0.3314745 0.4671277 -0.0003960325)
(0.4044188 0.483482 -0.0004760419)
(0.475984 0.5034509 -0.0002365242)
(0.1173213 0.365048 -0.00121746)
(0.1885213 0.3726266 0.001387725)
(0.2688959 0.3818817 -0.001354337)
(0.3467612 0.3938967 -0.0003062136)
(0.4244591 0.4115042 -0.0003839949)
(0.5030221 0.4339114 -0.000290151)
(-0.001329789 -0.04916311 -0.0008555413)
(-0.00158003 -0.04869081 -0.001489647)
(-0.001342734 -0.05099359 -0.002330868)
(-0.001658957 -0.05385584 -0.002754546)
(-0.001949337 -0.05727914 -0.002898769)
(-0.002344796 -0.06145385 -0.002997428)
(-0.001251352 -0.05330298 -0.001608411)
(-0.001187158 -0.04834891 0.0002154714)
(-0.001080979 -0.04769392 0.001424418)
(-0.002806957 -0.04915884 0.001389335)
(-0.003719405 -0.05174139 0.001590204)
(-0.005056218 -0.05500029 0.001402973)
(-0.006249563 -0.05907555 0.002081406)
(-0.000631527 -0.05093464 -0.002437859)
(-0.001867152 -0.04490674 0.0001009919)
(-0.003910733 -0.04747015 -0.001127079)
(-0.005371178 -0.04938266 -0.001116671)
(-0.007299448 -0.05230779 -0.001955522)
(-0.009084646 -0.05571879 -0.001714492)
(-0.01112775 -0.05994217 -0.00232698)
(-0.0006726153 -0.05122361 -0.001589897)
(-0.003271204 -0.04410713 0.0001755181)
(-0.005171868 -0.045116 3.490329e-05)
(-0.00769155 -0.04712165 -9.834435e-05)
(-0.01005874 -0.0495654 -0.0004753551)
(-0.01273259 -0.05279696 -0.0003882931)
(-0.01551907 -0.05670308 -0.0006685182)
(-0.0003821587 -0.04774236 -0.003004082)
(-0.004148967 -0.04106946 -5.514763e-05)
(-0.006993103 -0.0427176 -0.0004221723)
(-0.009824475 -0.04439441 -0.000300128)
(-0.01300156 -0.04691467 -0.0004839011)
(-0.01625698 -0.04994941 -0.0004848321)
(-0.01981448 -0.05371485 -0.0005641532)
(-0.0009036308 -0.04659521 -0.001333155)
(-0.004786026 -0.0383629 -6.125988e-06)
(-0.008512818 -0.03947795 -0.0001055459)
(-0.01187897 -0.04115429 -7.212715e-05)
(-0.01561962 -0.04333674 -0.0001644335)
(-0.01956273 -0.04616692 -0.0001432867)
(-0.02378846 -0.04959213 -0.0002031084)
(-0.001233465 -0.04172059 -0.001349609)
(-0.005537294 -0.03472102 -6.225346e-05)
(-0.009816594 -0.03565204 -0.0001994743)
(-0.01368133 -0.03712705 -9.601303e-05)
(-0.01802294 -0.03912153 -0.0001511591)
(-0.02253388 -0.04165255 -0.0001265324)
(-0.02740151 -0.04475359 -0.0001489547)
(-0.001188198 -0.03768705 -0.001294602)
(-0.006376811 -0.0305607 -1.940853e-05)
(-0.01096502 -0.03139777 -0.0001234288)
(-0.01535927 -0.03269442 -3.999849e-05)
(-0.02016092 -0.03442509 -6.968873e-05)
(-0.02522092 -0.03664087 -4.200836e-05)
(-0.03063776 -0.0393531 -5.516865e-05)
(-0.001225493 -0.03112123 -0.002069977)
(-0.006877697 -0.02596861 -4.420487e-05)
(-0.01199696 -0.02670479 -0.0001437158)
(-0.01674255 -0.02779923 -2.484037e-05)
(-0.0220064 -0.02925912 -5.158505e-05)
(-0.02750576 -0.03114822 -9.615796e-06)
(-0.03342393 -0.03345659 -1.379742e-05)
(-0.001619336 -0.02581745 -0.001807779)
(-0.007371318 -0.02108039 -5.57314e-05)
(-0.01287241 -0.02152566 -6.556723e-05)
(-0.01798286 -0.02233651 -2.786339e-06)
(-0.0235834 -0.02348471 9.030719e-07)
(-0.02948641 -0.02494118 3.404949e-05)
(-0.03579283 -0.02677687 3.839295e-05)
(-0.001633791 -0.01951012 -0.001356894)
(-0.007876511 -0.01620209 1.31622e-05)
(-0.01342234 -0.01631145 -0.0001544187)
(-0.01883913 -0.01701763 7.238518e-05)
(-0.02472037 -0.01788729 2.63392e-05)
(-0.03088576 -0.01907703 0.000114752)
(-0.03754371 -0.02049197 0.0001171717)
(-0.001779645 -0.01293207 -0.001183085)
(-0.008714631 -0.01036638 -0.0001608627)
(-0.01400802 -0.01012346 0.0001364515)
(-0.01978981 -0.01031987 9.650294e-05)
(-0.02578135 -0.01079609 0.0001347108)
(-0.03223491 -0.01133819 0.0001506237)
(-0.03906205 -0.01211987 0.0001703818)
(-0.0007942896 -0.007034125 9.682573e-05)
(-0.006561661 -0.005122602 0.0003529048)
(-0.01342873 -0.005003448 0.0005277462)
(-0.01935069 -0.004615666 0.0002589414)
(-0.02468991 -0.004911728 0.0002813462)
(-0.03156318 -0.004663186 0.0002157653)
(-0.03822321 -0.004952387 0.0004828181)
(-0.007015062 -0.0005020019 -0.0001330151)
(-0.01162585 -0.00019168 -0.0004380158)
(-0.01732934 -0.0004133073 -0.00254611)
(-0.0239003 -0.0003304594 -0.003481952)
(-0.02996513 -0.0003956308 -0.00457549)
(-0.03650928 -0.0003067748 -0.005594974)
(0.009316885 1.049734 0.01489281)
(0.004987268 1.014627 -0.01144119)
(0.06461431 1.04382 -0.1040692)
(0.1339971 1.015337 -0.0535272)
(0.1678275 1.003213 -0.04057037)
(0.2030065 0.9971209 -0.03327828)
(0.2441348 0.9998926 -0.02483243)
(0.03267558 0.9431174 0.06005668)
(0.1359418 0.958956 0.009279581)
(0.1769788 0.9934976 0.07459673)
(0.229199 0.9991006 0.07242293)
(0.2790445 0.9902792 0.06001713)
(0.3311217 0.99121 0.07008618)
(0.382748 0.9887217 0.04700524)
(-0.002182523 0.8479235 0.01360273)
(0.04662092 0.8171347 -0.02431048)
(0.125591 0.8327671 -0.0003766103)
(0.2019802 0.8382029 0.003817246)
(0.2685975 0.8334182 -0.002815417)
(0.3336932 0.8335903 -0.002451589)
(0.3920072 0.8410837 -0.001795484)
(0.01127287 0.8626301 0.009117551)
(0.1102489 0.8063067 0.00369762)
(0.1553406 0.8247598 0.01505971)
(0.2181123 0.8295221 0.01208813)
(0.277656 0.8320869 0.006887982)
(0.3372403 0.8382149 0.00703592)
(0.3943134 0.8477383 0.00685028)
(0.01599348 0.7987836 0.0076574)
(0.09036921 0.7217698 -0.0006432969)
(0.1538178 0.7303623 0.003837013)
(0.2206543 0.7206627 0.0003956361)
(0.2846727 0.7189429 0.001770215)
(0.3458592 0.7238451 -0.0003368338)
(0.4043695 0.7354838 0.003123885)
(0.01566134 0.7357477 0.01368127)
(0.09682549 0.6654659 -0.004515541)
(0.1706623 0.674737 0.006018688)
(0.2361439 0.6782128 0.0009261787)
(0.3003475 0.6865387 0.003945036)
(0.361329 0.6967998 -6.859253e-06)
(0.4204471 0.7100552 0.003191438)
(0.01652993 0.6611418 0.0102331)
(0.09359995 0.5875599 -0.003284945)
(0.1724476 0.5899586 0.002192808)
(0.2382871 0.5941135 -0.001229644)
(0.3066978 0.6020894 0.001376818)
(0.3716544 0.6132789 -0.001087516)
(0.4349137 0.6277239 0.0005023296)
(0.01659192 0.5859413 0.01139743)
(0.1037975 0.5209332 -0.002082485)
(0.1801866 0.5250519 0.002556385)
(0.2485149 0.5333771 -0.0007069166)
(0.3195109 0.5441485 0.001049968)
(0.3873326 0.5588917 -0.000340193)
(0.4541671 0.5765417 0.0003010157)
(0.01755246 0.5071946 0.01338992)
(0.105942 0.4435076 -0.001880501)
(0.1854447 0.4474299 0.001661428)
(0.2568251 0.4556937 -0.0006506378)
(0.3317831 0.4666681 0.0004238823)
(0.4038073 0.4829731 -0.0004259019)
(0.4756539 0.5028926 -7.560846e-05)
(0.05064347 0.3478525 0.0003940806)
(0.1115107 0.3691388 -0.00190034)
(0.1928834 0.3729721 0.001332584)
(0.2678347 0.3821665 -0.0006117815)
(0.3469658 0.3940539 4.721875e-05)
(0.4237415 0.4116336 -0.0003963203)
(0.5027626 0.4340214 -0.0007874484)
(-0.001104404 -0.04841171 -2.336515e-05)
(-0.0005600774 -0.04792061 0.0003075923)
(-0.0007490588 -0.05115627 0.0004649416)
(-0.001234935 -0.05331215 0.0004496382)
(-0.001590133 -0.05721791 0.0005105514)
(-0.002039105 -0.06137318 0.0005525156)
(-0.001550066 -0.05274997 0.001681332)
(-0.003212223 -0.04878304 -0.0001639507)
(-0.002366193 -0.04905277 -0.00059082)
(-0.003622503 -0.05139364 -0.0007470031)
(-0.004301217 -0.05364221 -0.001034678)
(-0.005628608 -0.05741341 -0.001122851)
(-0.006863354 -0.06159831 -0.001202359)
(-0.0002071741 -0.04799843 -0.001477124)
(-0.0008607871 -0.04501019 0.0005085569)
(-0.003948552 -0.04657132 -0.0006217663)
(-0.005029788 -0.04875488 -0.0003305672)
(-0.007275667 -0.05085075 -0.000579591)
(-0.00889003 -0.05433732 -0.0005950543)
(-0.01104164 -0.05824562 -0.0006838231)
(-0.00189383 -0.04174131 0.0008695799)
(-0.003733132 -0.04486062 5.233079e-05)
(-0.00546832 -0.04520789 -0.0001003146)
(-0.007892499 -0.04776949 -0.0003194037)
(-0.01027942 -0.05009055 -0.0004084616)
(-0.01283537 -0.05345315 -0.0005043336)
(-0.01565109 -0.05742122 -0.0005919325)
(-0.0008879441 -0.04103987 -0.0003354535)
(-0.003735127 -0.04142763 -0.0001212213)
(-0.00682206 -0.04254101 -0.0003303445)
(-0.009651481 -0.04424909 -0.0002146182)
(-0.01297686 -0.0465461 -0.0003325628)
(-0.01620261 -0.04956538 -0.000332327)
(-0.01980885 -0.05324522 -0.0003974073)
(-0.001622723 -0.03733346 -1.977598e-05)
(-0.004800663 -0.03862782 -0.0002845142)
(-0.008283977 -0.03943401 -0.0001083584)
(-0.01187665 -0.04127518 -0.0001626876)
(-0.01561369 -0.04337474 -0.0001741596)
(-0.01957967 -0.04623862 -0.000195352)
(-0.02382181 -0.04964901 -0.0002299187)
(-0.001702663 -0.0338491 -0.0001760191)
(-0.005408484 -0.03473699 -0.0003539429)
(-0.009491763 -0.03560253 -0.0001905424)
(-0.01358803 -0.03705136 -0.0001592046)
(-0.01796051 -0.03897922 -0.0001576039)
(-0.02251814 -0.04149011 -0.0001489286)
(-0.0274145 -0.04455826 -0.0001686833)
(-0.00207303 -0.02975666 -3.85247e-05)
(-0.006180467 -0.03061446 -0.0003438899)
(-0.01065199 -0.03135543 -0.0001289806)
(-0.01528156 -0.03264277 -0.0001113874)
(-0.02009829 -0.03432977 -7.597329e-05)
(-0.02522166 -0.03653025 -6.618116e-05)
(-0.03066344 -0.0392269 -7.155443e-05)
(-0.002198488 -0.0254476 -0.0001591661)
(-0.006704546 -0.02600313 -0.0004096116)
(-0.01161349 -0.02653762 -0.000158624)
(-0.0166429 -0.02759449 -0.0001042562)
(-0.02194391 -0.02896359 -7.138956e-05)
(-0.02751705 -0.03081403 -4.543469e-05)
(-0.03347017 -0.03307803 -4.805416e-05)
(-0.00238176 -0.02052567 -0.0002622347)
(-0.007053316 -0.02094409 -0.0004197904)
(-0.01240522 -0.02143829 -3.864327e-06)
(-0.01788685 -0.02207668 -1.285463e-05)
(-0.02349286 -0.02319766 8.182232e-05)
(-0.02949549 -0.02459725 0.0001002264)
(-0.03582469 -0.02641758 0.0001186084)
(-0.002426747 -0.01526895 -0.0002905308)
(-0.007619735 -0.015743 -0.0003024248)
(-0.0130567 -0.01557729 -0.0001645467)
(-0.01873414 -0.01619198 4.989157e-06)
(-0.02472782 -0.01690885 1.04112e-05)
(-0.0309455 -0.01796895 6.630743e-05)
(-0.03765467 -0.01928522 4.718722e-05)
(-0.002593859 -0.01004546 -0.0001590459)
(-0.007710665 -0.009850712 -0.0001942837)
(-0.01336513 -0.009980393 0.0005661603)
(-0.01975083 -0.00955966 0.0004312309)
(-0.02562563 -0.01010221 0.0006023596)
(-0.03216666 -0.0105773 0.0006361713)
(-0.03902601 -0.01136004 0.0006970717)
(-0.0005852107 -0.006160525 0.0004188394)
(-0.006261454 -0.004403253 -7.326526e-05)
(-0.01481903 -0.002919848 -0.0004826659)
(-0.0191409 -0.002981641 0.0003323863)
(-0.02565165 -0.003511874 4.421764e-05)
(-0.03187823 -0.003546968 0.0001956155)
(-0.03889327 -0.003841609 0.0001356043)
(-0.007699203 -0.0001033549 0.0007367158)
(-0.03923654 1.063894 -0.01019628)
(-0.06633866 1.048092 -0.02123795)
(-0.0002344787 0.7505118 -0.07854216)
(0.125885 0.8356314 -0.1370038)
(0.1736316 0.8564032 -0.07529994)
(0.1865473 0.8076616 -0.05600914)
(0.2616145 0.8865594 -0.07977336)
(0.04421793 0.9450901 0.04350568)
(0.1510599 0.9986344 0.0150399)
(0.2188699 0.9510138 0.06200136)
(0.2052493 0.9601471 0.06408235)
(0.2666989 0.9944174 0.06294344)
(0.3000247 0.9867757 0.06031796)
(0.3474304 0.9894312 0.05651289)
(0.01715474 0.7923113 -0.03419176)
(0.08548949 0.8293811 -0.0249867)
(0.1538593 0.7964336 0.004401479)
(0.2013004 0.7960559 0.01658722)
(0.2719769 0.8258689 0.01656019)
(0.3291271 0.8166036 0.01305695)
(0.3906862 0.822868 0.01325081)
(0.03001891 0.778513 0.01368124)
(0.09318328 0.820588 0.0017343)
(0.1602397 0.8108465 0.01288361)
(0.2136287 0.8129205 0.01456298)
(0.2765823 0.8332122 0.01585602)
(0.3378195 0.8384506 0.01469808)
(0.3926177 0.8454388 0.01483247)
(0.01884457 0.6841352 -0.005363779)
(0.08474016 0.7235388 0.0002922446)
(0.1550177 0.7060006 0.001742906)
(0.2144763 0.7174721 0.00270581)
(0.281992 0.7154161 0.001147236)
(0.3413801 0.7280969 0.002804889)
(0.4043409 0.7300995 0.002637796)
(0.02622834 0.6468248 0.002277194)
(0.09301168 0.668683 0.004556599)
(0.1619405 0.6653274 0.002590709)
(0.2296221 0.6772257 0.004015972)
(0.2965638 0.6863078 -0.0005364607)
(0.3586874 0.6987414 0.001058976)
(0.4214041 0.7079579 0.001866753)
(0.02716695 0.5707802 -0.0005020797)
(0.0935609 0.5876316 0.002791704)
(0.1668951 0.5836212 0.0006781019)
(0.2332016 0.5950815 0.001293998)
(0.3046058 0.5999265 0.0001455959)
(0.3701833 0.6141413 -0.0001348123)
(0.4349 0.6263635 0.0004869275)
(0.03168182 0.5086682 0.001493576)
(0.09988403 0.5211861 0.00335849)
(0.1748348 0.5234543 0.001224805)
(0.2456631 0.533437 0.0006987987)
(0.3180663 0.5425719 0.0001104469)
(0.3861681 0.5590583 -0.0002705444)
(0.4539645 0.5755575 -1.472357e-05)
(0.03316065 0.4337592 0.0005878918)
(0.1019802 0.4438055 0.003344713)
(0.1803286 0.4458808 0.001355389)
(0.2548026 0.4554652 0.0004764693)
(0.3303107 0.4653994 0.0001581748)
(0.4029507 0.4827038 -0.000266952)
(0.4753482 0.5016547 -7.8884e-05)
(0.03627947 0.3635164 0.0007414905)
(0.1077455 0.3687 0.003642631)
(0.1879447 0.3719272 0.001084326)
(0.2658719 0.3809869 0.0003703843)
(0.3456932 0.3922929 -0.000161314)
(0.4227787 0.4102116 -0.0003220834)
(0.50274 0.4322192 -0.0008511138)
(-0.001135363 -0.04894295 1.929788e-05)
(-0.001675797 -0.04760871 -0.0005045331)
(-0.00118374 -0.05024842 -0.000613626)
(-0.001557679 -0.05342586 -0.0006717803)
(-0.001737883 -0.05681002 -0.0007907824)
(-0.002161517 -0.06114999 -0.0008196673)
(-0.001556365 -0.05364324 0.0005048269)
(-0.002727191 -0.04874633 8.551545e-05)
(-0.001925472 -0.04860524 0.0002555204)
(-0.003292038 -0.04988189 0.0004222281)
(-0.003963033 -0.05263256 0.0004735345)
(-0.00534447 -0.0558944 0.0003864506)
(-0.006408597 -0.0600895 0.0005099647)
(-0.001295025 -0.04866571 -0.0008424422)
(-0.001155983 -0.04491882 0.000281494)
(-0.004762908 -0.04715468 -0.0005178967)
(-0.005333859 -0.04871144 -0.0005889892)
(-0.007567144 -0.05168764 -0.0008810028)
(-0.009096082 -0.05494976 -0.0009522799)
(-0.01121358 -0.0591344 -0.001121934)
(-0.002073875 -0.04274596 0.0004470122)
(-0.003741482 -0.04487459 9.212852e-05)
(-0.005573351 -0.04488904 6.737698e-05)
(-0.007974406 -0.04718458 -0.0001389517)
(-0.0102098 -0.04941002 -0.0001261202)
(-0.01287468 -0.05268737 -0.0002171517)
(-0.01561189 -0.05655018 -0.0002540038)
(-0.0009065538 -0.04159787 4.329448e-05)
(-0.003943317 -0.04137741 4.814806e-06)
(-0.007039675 -0.04271233 -0.0002089425)
(-0.009830502 -0.04426571 -0.0002378962)
(-0.01311016 -0.04671495 -0.00035095)
(-0.01631 -0.04968962 -0.0003875754)
(-0.01989815 -0.05341094 -0.0004540725)
(-0.00163901 -0.03781337 0.0001532923)
(-0.004888223 -0.03852611 1.2015e-05)
(-0.008342824 -0.03930981 -2.056014e-05)
(-0.01194166 -0.04107731 -9.042855e-05)
(-0.01565417 -0.04314681 -0.0001185335)
(-0.01962821 -0.04597172 -0.0001440104)
(-0.02385747 -0.04935449 -0.0001743739)
(-0.001651915 -0.03441703 9.179162e-06)
(-0.005472383 -0.0347111 -3.895701e-05)
(-0.009564039 -0.0356369 -0.0001004815)
(-0.01365529 -0.03703534 -0.0001111847)
(-0.0180346 -0.03897849 -0.0001469321)
(-0.02258308 -0.04147338 -0.0001531375)
(-0.02748304 -0.04454184 -0.0001784519)
(-0.001946911 -0.03015074 -6.865585e-05)
(-0.006109963 -0.03054475 -3.639973e-05)
(-0.01068613 -0.03130805 -5.66509e-05)
(-0.01532627 -0.03255926 -6.891035e-05)
(-0.02016538 -0.03422832 -8.168927e-05)
(-0.02529267 -0.03640412 -8.430355e-05)
(-0.03074366 -0.03908648 -9.872094e-05)
(-0.002071349 -0.02563093 -4.185338e-05)
(-0.00668889 -0.02597057 -3.50738e-05)
(-0.01166962 -0.02648653 -7.031339e-05)
(-0.01669972 -0.02753866 -5.618811e-05)
(-0.02203816 -0.02888294 -7.12381e-05)
(-0.02761115 -0.03071423 -5.864533e-05)
(-0.03358029 -0.03296923 -6.95872e-05)
(-0.002324209 -0.02068272 2.300253e-05)
(-0.00713364 -0.02087028 -6.268614e-05)
(-0.01246728 -0.02135069 -1.530142e-05)
(-0.01799821 -0.02192498 -4.954081e-05)
(-0.02363152 -0.02299495 -3.361395e-05)
(-0.02963722 -0.02436075 -3.175711e-05)
(-0.03597942 -0.02615905 -3.801946e-05)
(-0.002270889 -0.01552776 2.815143e-05)
(-0.007683284 -0.01581262 -9.708002e-06)
(-0.01316026 -0.01541246 -9.009487e-05)
(-0.01885896 -0.0159437 -5.99116e-05)
(-0.0248778 -0.01658496 -9.21502e-05)
(-0.03108314 -0.01762019 -6.378794e-05)
(-0.03780941 -0.01890334 -8.94536e-05)
(-0.002489454 -0.01018451 -2.644612e-05)
(-0.007801182 -0.009666327 -0.000135816)
(-0.01334791 -0.00979704 7.426887e-05)
(-0.01993101 -0.009283721 -4.300099e-05)
(-0.02572797 -0.009779818 -6.355595e-05)
(-0.03225139 -0.0102292 -7.455017e-05)
(-0.03908005 -0.01100374 -9.908559e-05)
(-0.0003325899 -0.006231145 0.0004037995)
(-0.006018744 -0.00434433 6.153489e-05)
(-0.01508392 -0.002365661 -4.787297e-05)
(-0.01959045 -0.002504482 -8.322148e-05)
(-0.02615545 -0.003159135 -8.419624e-05)
(-0.03247206 -0.003177622 -0.0001650416)
(-0.0395779 -0.003452654 -0.0002233681)
(-0.007546242 -0.0001173981 0.0003272915)
(-0.03135689 1.082042 -0.00253714)
(-0.07258472 1.042814 -0.003738476)
(-0.01382406 0.766416 -0.01849349)
(0.1225098 0.7475781 -0.08934924)
(0.1778241 0.8596693 -0.002750431)
(0.2016531 0.90756 -0.03007638)
(0.226698 0.9126319 -0.01150712)
(0.04811616 0.9818718 0.02520784)
(0.1533436 1.007186 0.009696321)
(0.2335671 0.9791735 0.02543984)
(0.1830333 0.9214785 0.09523599)
(0.2409468 0.9955527 -0.003470984)
(0.2890579 1.000272 0.03085104)
(0.3661162 0.9837536 -0.001039387)
(0.03006087 0.8066293 -0.00766204)
(0.08833198 0.8366852 -0.01536464)
(0.1651686 0.8108454 -0.009453175)
(0.2008032 0.7818707 -0.0008868665)
(0.2674521 0.8380729 -0.004609605)
(0.3360172 0.8315968 -0.002014294)
(0.3989073 0.8301468 -0.003741083)
(0.02965373 0.7952582 0.0004500952)
(0.09402069 0.8231246 0.0006654019)
(0.1673003 0.8324114 0.004278569)
(0.2135646 0.8110338 0.001199633)
(0.275224 0.8445469 0.008967497)
(0.3370051 0.8463919 0.00419921)
(0.3966946 0.8521382 0.005966904)
(0.02336839 0.7019367 -0.005980121)
(0.0835074 0.7186349 -0.003027294)
(0.157979 0.7244683 0.001267769)
(0.2202674 0.7015509 -0.008589013)
(0.2770776 0.7370732 0.00259017)
(0.3470559 0.72914 -0.0042352)
(0.4035549 0.7378885 0.004296267)
(0.02610266 0.6576549 -0.002139827)
(0.08980076 0.667468 -0.005813019)
(0.1689721 0.6762009 0.003806164)
(0.23126 0.6742798 -0.004256211)
(0.2943824 0.6919995 0.002626788)
(0.3631916 0.6985986 -0.002474471)
(0.4193688 0.7116195 0.001775306)
(0.02942101 0.5867661 -0.0009221432)
(0.0932081 0.5870205 -0.003482852)
(0.1696728 0.5902973 5.018728e-05)
(0.2368041 0.5922902 -0.003094369)
(0.3046566 0.6052185 0.001847428)
(0.3714775 0.6148843 -0.001573355)
(0.4342134 0.6290897 0.0009834217)
(0.0332146 0.5173027 -0.001248719)
(0.1019757 0.5212855 -0.002604555)
(0.1763185 0.5263921 4.34807e-05)
(0.2469462 0.533413 -0.001930837)
(0.3181919 0.5450989 0.0002206056)
(0.3868124 0.5599235 -0.001269244)
(0.4538594 0.5772452 -0.0001244853)
(0.03306825 0.4411893 -0.002710188)
(0.1018283 0.4454871 -0.001512978)
(0.1813625 0.4474991 -0.0001659663)
(0.2553639 0.4556252 -0.001023556)
(0.330856 0.466733 7.81156e-05)
(0.4034392 0.4833521 -0.0005971443)
(0.4755219 0.5025741 5.721918e-06)
(0.03529578 0.3685595 -0.001621845)
(0.1090097 0.3696697 -0.001466157)
(0.1889726 0.3726647 -0.000476918)
(0.266529 0.3816119 -0.0006678846)
(0.3463594 0.3932608 -0.0002864444)
(0.4231897 0.4110276 -0.0005611741)
(0.5032981 0.4332739 -0.0006946134)
(-0.001087776 -0.04916837 -1.979653e-05)
(-0.001258562 -0.04762077 1.274309e-05)
(-0.001005074 -0.05065054 8.999809e-06)
(-0.001521952 -0.0532977 1.198906e-05)
(-0.001631425 -0.05674157 2.843493e-05)
(-0.002133878 -0.06101124 4.188551e-06)
(-0.001868848 -0.05387813 -0.0006917082)
(-0.003036891 -0.04885605 -0.0001678729)
(-0.002043925 -0.04895127 -0.0002554819)
(-0.003589131 -0.05037979 -0.0002895199)
(-0.00418468 -0.05289261 -0.0004951337)
(-0.005495024 -0.05624788 -0.0005114884)
(-0.0065968 -0.06043759 -0.0005881863)
(-0.001918479 -0.0496929 -0.0002742875)
(-0.000701262 -0.04514455 0.0001043404)
(-0.004823576 -0.04686658 -0.0002545946)
(-0.005178326 -0.0484926 -0.0001173627)
(-0.007600611 -0.05123869 -0.0002402925)
(-0.00903051 -0.05448285 -0.0002299269)
(-0.01120149 -0.05859221 -0.0002771024)
(-0.002177201 -0.04317387 0.0001872021)
(-0.004069283 -0.04517608 -2.866752e-05)
(-0.005709919 -0.04491343 -0.000146956)
(-0.008105527 -0.04740258 -0.0002242203)
(-0.01033402 -0.04954336 -0.000298533)
(-0.01293834 -0.05286943 -0.000343887)
(-0.01568765 -0.0567291 -0.0003970636)
(-0.0009385222 -0.04203622 -0.0001097585)
(-0.00390826 -0.04146721 -8.789164e-05)
(-0.007019537 -0.04264809 -0.0001819724)
(-0.009779296 -0.04419923 -0.0001544973)
(-0.0131187 -0.04655695 -0.0002046586)
(-0.01629745 -0.04952112 -0.0002151485)
(-0.01990898 -0.05320339 -0.0002474508)
(-0.001699747 -0.03786249 -4.182719e-05)
(-0.00493735 -0.03862742 -0.0001282209)
(-0.008322794 -0.03930205 -0.000119892)
(-0.01195536 -0.04112598 -0.0001500781)
(-0.01567727 -0.04316111 -0.0001718162)
(-0.01965332 -0.04600467 -0.000191611)
(-0.02389135 -0.04937939 -0.0002149521)
(-0.001641001 -0.0344704 -0.0001316059)
(-0.005428406 -0.03473068 -0.0001498874)
(-0.009491479 -0.03560993 -0.0001260358)
(-0.0136209 -0.03699441 -0.0001223484)
(-0.01802774 -0.03890713 -0.0001265935)
(-0.02259404 -0.04139557 -0.0001265436)
(-0.02750922 -0.04444697 -0.0001350399)
(-0.00197373 -0.03014563 -0.0001013056)
(-0.006085832 -0.03054967 -0.0001385152)
(-0.01061244 -0.03127393 -9.075432e-05)
(-0.0153055 -0.03251738 -9.516396e-05)
(-0.02016418 -0.03416846 -8.278802e-05)
(-0.02532098 -0.03633719 -7.533209e-05)
(-0.03078361 -0.03900775 -7.345708e-05)
(-0.002074207 -0.02565758 -0.000113352)
(-0.006638943 -0.02596003 -0.0001398321)
(-0.01157596 -0.02640544 -8.623342e-05)
(-0.0166681 -0.02742891 -7.459616e-05)
(-0.02204024 -0.02872584 -5.468804e-05)
(-0.02765158 -0.03052869 -3.314303e-05)
(-0.03363369 -0.03275732 -2.694123e-05)
(-0.002297844 -0.02066653 -9.825334e-05)
(-0.00703454 -0.02080391 -0.0001242259)
(-0.01233842 -0.02126656 -3.020514e-05)
(-0.01795703 -0.02176271 -3.652086e-05)
(-0.02361739 -0.02278981 -4.98866e-07)
(-0.02966658 -0.024103 1.695529e-05)
(-0.03602098 -0.02587969 2.93724e-05)
(-0.002231301 -0.01547431 -8.62656e-05)
(-0.007623975 -0.01573248 -8.892205e-05)
(-0.01305451 -0.01520165 -6.300629e-05)
(-0.01880215 -0.01568384 -2.29321e-05)
(-0.02486874 -0.01625582 -1.543167e-05)
(-0.03109185 -0.01724145 1.630423e-05)
(-0.03784443 -0.01848414 1.754227e-05)
(-0.0024699 -0.01004887 -4.924716e-05)
(-0.007670684 -0.009519756 -4.685896e-05)
(-0.01316206 -0.009701853 8.958906e-05)
(-0.01988397 -0.009052004 8.277215e-05)
(-0.02566118 -0.009549903 0.0001390504)
(-0.03221815 -0.009916747 0.0001696069)
(-0.0390524 -0.0106817 0.0001896968)
(-0.0003400558 -0.006193523 0.0003165728)
(-0.005937878 -0.004363792 5.561831e-06)
(-0.01500114 -0.00238096 -4.245282e-05)
(-0.01945214 -0.002405819 8.616067e-05)
(-0.02615123 -0.003171753 8.151672e-05)
(-0.03239537 -0.003093819 0.0001518911)
(-0.03954477 -0.003396945 0.0001619993)
(-0.007591704 -8.601095e-05 5.959455e-05)
(-0.02790162 1.091163 -0.003431686)
(-0.09622646 1.059234 -0.02750354)
(-0.0901132 0.8122595 -0.02785714)
(0.05309919 0.5432415 -0.00602838)
(0.2383086 0.8980278 -0.02236252)
(0.1835885 0.8359484 -0.01764887)
(0.2853024 0.9353672 -0.02080043)
(0.05121834 0.957682 0.002706279)
(0.15796 1.023774 0.02173257)
(0.3130423 0.9787095 0.02090517)
(0.2375571 0.984081 0.004391858)
(0.2037305 0.9630567 -0.01300394)
(0.2899288 1.014901 -0.001626567)
(0.3024515 0.9902937 0.005234578)
(0.03183716 0.8179416 -0.0003939049)
(0.09028837 0.832923 -0.003838456)
(0.1733557 0.7952105 0.0002059992)
(0.2217127 0.8217312 -0.002290181)
(0.2588838 0.7998951 -0.002887414)
(0.3245164 0.8310191 0.0002760932)
(0.3791468 0.8169821 -0.0005200742)
(0.03366499 0.7865823 0.0008540512)
(0.09682896 0.8287342 0.001440776)
(0.1605642 0.8017093 -0.0001800283)
(0.2194673 0.8509646 -0.002794594)
(0.2726881 0.8136066 0.004052185)
(0.334106 0.8537722 0.004643103)
(0.3866881 0.8342311 0.005822061)
(0.01931057 0.6989864 0.001886277)
(0.08693465 0.7375651 0.001012036)
(0.1519638 0.6901937 0.006113803)
(0.215953 0.7394386 0.0003862712)
(0.28659 0.7068423 0.00622115)
(0.3331873 0.7487737 0.001835007)
(0.4063973 0.7290565 0.007416852)
(0.02406657 0.6494989 0.0005642859)
(0.0964356 0.6744117 -0.004965953)
(0.1526745 0.6596781 0.002623531)
(0.2284753 0.687426 -0.003944257)
(0.2873795 0.6823097 0.00488483)
(0.3541702 0.7064927 -0.001668078)
(0.4186423 0.7078258 0.004637266)
(0.02608204 0.5775868 0.001799979)
(0.09115341 0.5934571 3.349922e-05)
(0.1653923 0.5798166 0.002712529)
(0.2257163 0.6037987 -0.0006525665)
(0.3031019 0.5997504 0.004106288)
(0.365816 0.6191501 -0.0009068144)
(0.4342245 0.627649 0.002435131)
(0.03017164 0.5171681 0.0009570487)
(0.09938993 0.5234657 0.0006196806)
(0.1723296 0.5238865 0.002683934)
(0.2437705 0.5367765 -0.0009915947)
(0.3183454 0.5417816 0.001856323)
(0.3852094 0.5612025 -0.0007390065)
(0.4541805 0.5756703 0.0006509397)