/*--------------------------------*- C++ -*----------------------------------*\
  =========                 |
  \\      /  F ield         | OpenFOAM: The Open Source CFD Toolbox
   \\    /   O peration     | Website:  https://openfoam.org
    \\  /    A nd           | Version:  7
     \\/     M anipulation  |
\*---------------------------------------------------------------------------*/
FoamFile
{
    version     2.0;
    format      ascii;
    class       volScalarField;
    location    "0.04";
    object      epsilon;
}
// * * * * * * * * * * * * * * * * * * * * * * * * * * * * * * * * * * * * * //

dimensions      [0 2 -3 0 0 0 0];

internalField   nonuniform List<scalar> 
109978
(
0.001922644
0.001976285
0.001981033
0.001981549
0.001981499
0.001980905
0.001976614
0.002080726
0.002091185
0.002092458
0.002092391
0.002091476
0.001981391
0.00209129
0.002103293
0.002104924
0.002104872
0.002103764
0.001981906
0.002092658
0.002105023
0.002106818
0.002106798
0.002105625
0.00198202
0.00209293
0.002105434
0.002107298
0.002107293
0.0021061
0.001982038
0.002093023
0.002105553
0.002107447
0.002107459
0.002106262
0.001982046
0.002093047
0.0021056
0.002107509
0.002107527
0.002106327
0.001982049
0.002093058
0.002105615
0.00210753
0.002107552
0.002106353
0.00198205
0.002093062
0.002105622
0.00210754
0.002107563
0.002106364
0.00198205
0.002093064
0.002105625
0.002107544
0.002107568
0.002106369
0.00198205
0.002093064
0.002105626
0.002107545
0.002107572
0.002106371
0.00198205
0.002093065
0.002105626
0.002107546
0.002107573
0.002106372
0.00198205
0.002093065
0.002105626
0.002107546
0.002107573
0.002106372
0.00198205
0.002093064
0.002105625
0.002107546
0.002107572
0.002106372
0.00198205
0.002093064
0.002105625
0.002107545
0.002107571
0.002106371
0.00198205
0.002093063
0.002105623
0.002107543
0.00210757
0.002106369
0.001982049
0.002093061
0.00210562
0.002107539
0.002107564
0.002106365
0.001982047
0.002093057
0.002105614
0.00210753
0.002107554
0.002106355
0.001982043
0.002093045
0.002105594
0.002107506
0.002107528
0.002106329
0.001982028
0.002093005
0.002105535
0.002107436
0.002107452
0.002106254
0.001981967
0.002092849
0.002105321
0.002107192
0.002107199
0.002106005
0.001981696
0.002092297
0.002104613
0.002106416
0.002106422
0.002105272
0.01160037
0.002091105
0.002103172
0.002104875
0.00210492
0.002103949
0.002110913
0.002112937
0.002112705
0.002112642
0.002112627
0.002112524
0.01160566
0.01160088
0.01160083
0.01160083
0.01160083
0.01160083
0.01160516
0.01160078
0.01160076
0.01160075
0.01160075
0.01160075
0.01160514
0.01160079
0.01160076
0.01160075
0.01160074
0.01160074
0.01160514
0.01160078
0.01160076
0.01160075
0.01160074
0.01160074
0.01160514
0.01160078
0.01160076
0.01160075
0.01160074
0.01160074
0.01160514
0.01160078
0.01160076
0.01160075
0.01160074
0.01160074
0.01160514
0.01160078
0.01160076
0.01160075
0.01160074
0.01160074
0.01160514
0.01160078
0.01160076
0.01160075
0.01160074
0.01160074
0.01160514
0.01160078
0.01160076
0.01160075
0.01160074
0.01160074
0.01160514
0.01160078
0.01160076
0.01160075
0.01160074
0.01160074
0.01160514
0.01160078
0.01160076
0.01160075
0.01160074
0.01160074
0.01160514
0.01160078
0.01160076
0.01160075
0.01160074
0.01160074
0.01160514
0.01160078
0.01160076
0.01160075
0.01160074
0.01160074
0.01160513
0.01160078
0.01160076
0.01160075
0.01160074
0.01160074
0.01160513
0.01160078
0.01160076
0.01160075
0.01160074
0.01160074
0.01160513
0.01160078
0.01160076
0.01160075
0.01160074
0.01160074
0.01160513
0.01160078
0.01160076
0.01160075
0.01160074
0.01160074
0.01160513
0.01160078
0.01160076
0.01160075
0.01160074
0.01160074
0.01160513
0.01160078
0.01160076
0.01160075
0.01160074
0.01160074
0.01160513
0.01160078
0.01160076
0.01160075
0.01160074
0.01160074
0.01160513
0.01160078
0.01160076
0.01160075
0.01160074
0.01160074
0.01160513
0.01160078
0.01160076
0.01160075
0.01160074
0.01160074
0.01160513
0.01160078
0.01160076
0.01160075
0.01160074
0.01160074
0.002107357
0.002112245
0.002111763
0.002111548
0.002111529
0.002111562
0.0116051
0.01160078
0.01160076
0.01160075
0.01160075
0.01160075
0.01160447
0.01160072
0.01160071
0.01160069
0.01160069
0.01160068
0.01160446
0.01160074
0.01160072
0.0116007
0.01160069
0.01160068
0.01160445
0.01160074
0.01160072
0.0116007
0.01160069
0.01160068
0.01160445
0.01160074
0.01160072
0.0116007
0.01160069
0.01160068
0.01160445
0.01160074
0.01160072
0.0116007
0.01160069
0.01160068
0.01160445
0.01160074
0.01160072
0.0116007
0.01160069
0.01160068
0.01160445
0.01160074
0.01160072
0.0116007
0.01160069
0.01160068
0.01160445
0.01160074
0.01160072
0.0116007
0.01160069
0.01160068
0.01160445
0.01160074
0.01160072
0.0116007
0.01160069
0.01160068
0.01160445
0.01160074
0.01160072
0.0116007
0.01160069
0.01160068
0.01160445
0.01160074
0.01160072
0.0116007
0.01160069
0.01160068
0.01160445
0.01160074
0.01160072
0.0116007
0.01160069
0.01160068
0.01160445
0.01160074
0.01160072
0.0116007
0.01160069
0.01160068
0.01160445
0.01160074
0.01160072
0.0116007
0.01160069
0.01160068
0.01160445
0.01160074
0.01160072
0.0116007
0.01160069
0.01160068
0.01160445
0.01160074
0.01160072
0.0116007
0.01160069
0.01160068
0.01160445
0.01160074
0.01160072
0.0116007
0.01160069
0.01160068
0.01160445
0.01160074
0.01160072
0.0116007
0.01160069
0.01160068
0.01160445
0.01160074
0.01160072
0.0116007
0.01160069
0.01160068
0.01160445
0.01160074
0.01160072
0.0116007
0.01160069
0.01160068
0.01160445
0.01160074
0.01160072
0.0116007
0.01160069
0.01160068
0.01160445
0.01160074
0.01160072
0.0116007
0.01160069
0.01160068
0.002106917
0.00211168
0.002111088
0.002110817
0.002110796
0.002110893
0.01160511
0.01160076
0.01160074
0.01160075
0.01160074
0.01160074
0.01160446
0.01160071
0.0116007
0.01160069
0.01160069
0.01160068
0.01160445
0.01160071
0.01160071
0.01160069
0.01160069
0.01160068
0.01160445
0.01160071
0.01160071
0.0116007
0.01160069
0.01160068
0.01160445
0.01160071
0.01160071
0.0116007
0.01160069
0.01160068
0.01160445
0.01160071
0.01160071
0.0116007
0.01160069
0.01160068
0.01160445
0.01160071
0.01160071
0.0116007
0.01160069
0.01160068
0.01160445
0.01160071
0.01160071
0.0116007
0.01160069
0.01160068
0.01160445
0.01160071
0.01160071
0.0116007
0.01160069
0.01160068
0.01160445
0.01160071
0.01160071
0.0116007
0.01160069
0.01160068
0.01160445
0.01160071
0.01160071
0.0116007
0.01160069
0.01160068
0.01160445
0.01160071
0.01160071
0.0116007
0.01160069
0.01160068
0.01160445
0.01160071
0.01160071
0.0116007
0.01160069
0.01160068
0.01160445
0.01160071
0.01160071
0.0116007
0.01160069
0.01160068
0.01160445
0.01160071
0.01160071
0.0116007
0.01160069
0.01160068
0.01160445
0.01160071
0.01160071
0.0116007
0.01160069
0.01160068
0.01160445
0.01160071
0.01160071
0.0116007
0.01160069
0.01160068
0.01160445
0.01160071
0.01160071
0.0116007
0.01160069
0.01160068
0.01160445
0.01160071
0.01160071
0.0116007
0.01160069
0.01160068
0.01160445
0.01160071
0.01160071
0.0116007
0.01160069
0.01160068
0.01160445
0.01160071
0.01160071
0.0116007
0.01160069
0.01160068
0.01160445
0.01160071
0.01160071
0.0116007
0.01160069
0.01160068
0.01160445
0.01160071
0.01160071
0.0116007
0.01160069
0.01160068
0.002106798
0.002111517
0.002110875
0.002110571
0.002110541
0.002110653
0.0116051
0.01160076
0.01160074
0.01160075
0.01160074
0.01160074
0.01160445
0.0116007
0.0116007
0.01160069
0.01160069
0.01160068
0.01160445
0.0116007
0.0116007
0.01160069
0.01160069
0.01160068
0.01160444
0.0116007
0.0116007
0.01160069
0.01160069
0.01160068
0.01160444
0.0116007
0.0116007
0.01160069
0.01160069
0.01160068
0.01160444
0.0116007
0.0116007
0.01160069
0.01160069
0.01160068
0.01160444
0.0116007
0.0116007
0.01160069
0.01160069
0.01160068
0.01160444
0.0116007
0.0116007
0.01160069
0.01160069
0.01160068
0.01160444
0.0116007
0.0116007
0.01160069
0.01160069
0.01160068
0.01160444
0.0116007
0.0116007
0.01160069
0.01160069
0.01160068
0.01160444
0.0116007
0.0116007
0.01160069
0.01160069
0.01160068
0.01160444
0.0116007
0.0116007
0.01160069
0.01160069
0.01160068
0.01160444
0.0116007
0.0116007
0.01160069
0.01160069
0.01160068
0.01160444
0.0116007
0.0116007
0.01160069
0.01160069
0.01160068
0.01160444
0.0116007
0.0116007
0.01160069
0.01160069
0.01160068
0.01160444
0.0116007
0.0116007
0.01160069
0.01160069
0.01160068
0.01160444
0.0116007
0.0116007
0.01160069
0.01160069
0.01160068
0.01160444
0.0116007
0.0116007
0.01160069
0.01160069
0.01160068
0.01160444
0.0116007
0.0116007
0.01160069
0.01160069
0.01160068
0.01160444
0.0116007
0.0116007
0.01160069
0.01160069
0.01160068
0.01160444
0.0116007
0.0116007
0.01160069
0.01160069
0.01160068
0.01160444
0.0116007
0.0116007
0.01160069
0.01160069
0.01160068
0.01160444
0.0116007
0.0116007
0.01160069
0.01160069
0.01160068
0.002106818
0.002111509
0.002110852
0.002110558
0.002110526
0.002110642
0.0116051
0.01160076
0.01160074
0.01160075
0.01160074
0.01160074
0.01160445
0.0116007
0.0116007
0.01160069
0.01160069
0.01160068
0.01160445
0.0116007
0.0116007
0.01160069
0.01160069
0.01160068
0.01160444
0.0116007
0.0116007
0.01160069
0.01160069
0.01160068
0.01160444
0.0116007
0.0116007
0.01160069
0.01160069
0.01160068
0.01160443
0.0116007
0.0116007
0.01160069
0.01160069
0.01160068
0.01160444
0.0116007
0.0116007
0.01160069
0.01160069
0.01160068
0.01160443
0.0116007
0.0116007
0.01160069
0.01160069
0.01160068
0.01160443
0.0116007
0.0116007
0.01160069
0.01160069
0.01160068
0.01160443
0.0116007
0.0116007
0.01160069
0.01160069
0.01160068
0.01160443
0.0116007
0.0116007
0.01160069
0.01160069
0.01160068
0.01160443
0.0116007
0.0116007
0.01160069
0.01160069
0.01160068
0.01160443
0.0116007
0.0116007
0.01160069
0.01160069
0.01160068
0.01160443
0.0116007
0.0116007
0.01160069
0.01160069
0.01160068
0.01160443
0.0116007
0.0116007
0.01160069
0.01160069
0.01160068
0.01160443
0.0116007
0.0116007
0.01160069
0.01160069
0.01160068
0.01160443
0.0116007
0.0116007
0.01160069
0.01160069
0.01160068
0.01160443
0.0116007
0.0116007
0.01160069
0.01160069
0.01160068
0.01160443
0.0116007
0.0116007
0.01160069
0.01160069
0.01160068
0.01160443
0.0116007
0.0116007
0.01160069
0.01160069
0.01160068
0.01160443
0.0116007
0.0116007
0.01160069
0.01160069
0.01160068
0.01160444
0.0116007
0.0116007
0.01160069
0.01160069
0.01160068
0.01160444
0.0116007
0.01160069
0.01160069
0.01160069
0.01160068
0.00210682
0.002111581
0.002110952
0.002110674
0.002110659
0.002110769
0.01160511
0.01160076
0.01160074
0.01160075
0.01160074
0.01160074
0.01160446
0.01160071
0.0116007
0.01160069
0.01160069
0.01160068
0.01160445
0.01160071
0.0116007
0.01160069
0.01160069
0.01160068
0.01160444
0.01160071
0.01160071
0.0116007
0.01160069
0.01160068
0.01160445
0.01160071
0.01160071
0.0116007
0.01160069
0.01160068
0.01160444
0.01160071
0.01160071
0.0116007
0.01160069
0.01160068
0.01160444
0.01160071
0.01160071
0.0116007
0.01160069
0.01160068
0.01160444
0.01160071
0.01160071
0.0116007
0.01160069
0.01160068
0.01160444
0.01160071
0.01160071
0.0116007
0.01160069
0.01160068
0.01160444
0.01160071
0.01160071
0.0116007
0.01160069
0.01160068
0.01160444
0.01160071
0.01160071
0.0116007
0.01160069
0.01160068
0.01160444
0.01160071
0.01160071
0.0116007
0.01160069
0.01160068
0.01160444
0.01160071
0.01160071
0.0116007
0.01160069
0.01160068
0.01160444
0.01160071
0.01160071
0.0116007
0.01160069
0.01160068
0.01160444
0.01160071
0.01160071
0.0116007
0.01160069
0.01160068
0.01160444
0.01160071
0.01160071
0.0116007
0.01160069
0.01160068
0.01160444
0.01160071
0.01160071
0.0116007
0.01160069
0.01160068
0.01160444
0.01160071
0.01160071
0.0116007
0.01160069
0.01160068
0.01160444
0.01160071
0.01160071
0.0116007
0.01160069
0.01160068
0.01160444
0.01160071
0.01160071
0.0116007
0.01160069
0.01160068
0.01160444
0.01160071
0.01160071
0.0116007
0.01160069
0.01160068
0.01160444
0.01160071
0.0116007
0.0116007
0.01160069
0.01160068
0.01160444
0.01160071
0.0116007
0.0116007
0.01160069
0.01160068
0.002107058
0.002112091
0.002111601
0.002111356
0.002111342
0.002111416
0.01160511
0.01160077
0.01160075
0.01160075
0.01160075
0.01160075
0.01160446
0.01160072
0.01160071
0.01160069
0.01160068
0.01160068
0.01160446
0.01160073
0.01160071
0.01160069
0.01160069
0.01160068
0.01160444
0.01160073
0.01160071
0.0116007
0.01160069
0.01160068
0.01160444
0.01160073
0.01160071
0.0116007
0.01160069
0.01160068
0.01160444
0.01160073
0.01160071
0.0116007
0.01160069
0.01160068
0.01160444
0.01160073
0.01160071
0.0116007
0.01160069
0.01160068
0.01160444
0.01160073
0.01160071
0.0116007
0.01160069
0.01160068
0.01160444
0.01160073
0.01160071
0.0116007
0.01160069
0.01160068
0.01160444
0.01160073
0.01160071
0.0116007
0.01160069
0.01160068
0.01160444
0.01160073
0.01160071
0.0116007
0.01160069
0.01160068
0.01160444
0.01160073
0.01160071
0.0116007
0.01160069
0.01160068
0.01160444
0.01160073
0.01160071
0.0116007
0.01160069
0.01160068
0.01160444
0.01160073
0.01160071
0.0116007
0.01160069
0.01160068
0.01160444
0.01160073
0.01160071
0.0116007
0.01160069
0.01160068
0.01160444
0.01160073
0.01160071
0.0116007
0.01160069
0.01160068
0.01160444
0.01160073
0.01160071
0.0116007
0.01160069
0.01160068
0.01160444
0.01160073
0.01160071
0.0116007
0.01160069
0.01160068
0.01160444
0.01160073
0.01160071
0.0116007
0.01160069
0.01160068
0.01160444
0.01160073
0.01160071
0.0116007
0.01160069
0.01160068
0.01160444
0.01160073
0.01160071
0.0116007
0.01160069
0.01160068
0.01160444
0.01160073
0.01160071
0.0116007
0.01160069
0.01160068
0.01160444
0.01160073
0.01160071
0.0116007
0.01160069
0.01160068
0.002105898
0.002108854
0.002108475
0.002108334
0.002108319
0.002108288
0.01160523
0.01160087
0.01160082
0.01160083
0.01160083
0.01160083
0.01160459
0.01160077
0.01160075
0.01160075
0.01160075
0.01160075
0.01160461
0.01160077
0.01160075
0.01160074
0.01160074
0.01160074
0.01160459
0.01160076
0.01160075
0.01160074
0.01160074
0.01160074
0.01160459
0.01160076
0.01160075
0.01160074
0.01160074
0.01160074
0.01160459
0.01160076
0.01160075
0.01160074
0.01160074
0.01160074
0.01160459
0.01160076
0.01160075
0.01160074
0.01160074
0.01160074
0.01160459
0.01160076
0.01160075
0.01160074
0.01160074
0.01160074
0.01160459
0.01160076
0.01160075
0.01160074
0.01160074
0.01160074
0.01160459
0.01160076
0.01160075
0.01160074
0.01160074
0.01160074
0.01160459
0.01160076
0.01160075
0.01160074
0.01160074
0.01160074
0.01160459
0.01160076
0.01160075
0.01160074
0.01160074
0.01160074
0.01160459
0.01160076
0.01160075
0.01160074
0.01160074
0.01160074
0.01160459
0.01160076
0.01160075
0.01160074
0.01160074
0.01160074
0.01160459
0.01160076
0.01160075
0.01160074
0.01160074
0.01160074
0.01160459
0.01160076
0.01160075
0.01160074
0.01160074
0.01160074
0.01160459
0.01160076
0.01160075
0.01160074
0.01160074
0.01160074
0.01160459
0.01160076
0.01160075
0.01160074
0.01160074
0.01160074
0.01160459
0.01160076
0.01160075
0.01160074
0.01160074
0.01160074
0.01160459
0.01160076
0.01160075
0.01160074
0.01160074
0.01160074
0.01160459
0.01160076
0.01160075
0.01160074
0.01160074
0.01160074
0.01160459
0.01160076
0.01160075
0.01160074
0.01160074
0.01160074
0.01160459
0.01160076
0.01160075
0.01160074
0.01160074
0.01160074
0.005960885
0.006059473
0.006061636
0.00606177
0.006061767
0.006061615
0.01162007
0.01160003
0.01159989
0.0115999
0.01159989
0.01159989
0.01159998
0.01161856
0.01160043
0.01160016
0.01160011
0.01160007
0.01160007
0.01160016
0.01161854
0.01160025
0.01160003
0.01159997
0.01159996
0.01159996
0.01160004
0.01161852
0.0116002
0.01160002
0.01159996
0.01159994
0.01159993
0.01160002
0.01161852
0.01160024
0.01160002
0.01159996
0.01159993
0.01159993
0.01160001
0.01161851
0.01160022
0.01160001
0.01159996
0.01159993
0.01159993
0.01160001
0.01161851
0.01160022
0.01160001
0.01159995
0.01159993
0.01159993
0.01160001
0.01161851
0.01160022
0.01160001
0.01159995
0.01159993
0.01159993
0.01160001
0.01161851
0.01160022
0.01160001
0.01159995
0.01159993
0.01159993
0.01160001
0.01161851
0.01160022
0.01160001
0.01159995
0.01159993
0.01159993
0.01160001
0.01161851
0.01160022
0.01160001
0.01159995
0.01159993
0.01159993
0.01160001
0.01161851
0.01160022
0.01160001
0.01159995
0.01159993
0.01159993
0.01160001
0.01161851
0.01160022
0.01160001
0.01159995
0.01159993
0.01159993
0.01160001
0.01161851
0.01160022
0.01160001
0.01159995
0.01159993
0.01159993
0.01160001
0.01161851
0.01160022
0.01160001
0.01159995
0.01159993
0.01159993
0.01160001
0.01161851
0.01160022
0.01160001
0.01159995
0.01159993
0.01159993
0.01160001
0.01161851
0.01160022
0.01160001
0.01159995
0.01159993
0.01159993
0.01160001
0.01161851
0.01160022
0.01160001
0.01159995
0.01159993
0.01159993
0.01160001
0.01161851
0.01160022
0.01160001
0.01159995
0.01159993
0.01159993
0.01160001
0.01161851
0.01160022
0.01160001
0.01159995
0.01159993
0.01159993
0.01160001
0.01161851
0.01160022
0.01160001
0.01159996
0.01159993
0.01159993
0.01160001
0.01161851
0.01160022
0.01160001
0.01159996
0.01159994
0.01159993
0.01160001
0.01161852
0.01160022
0.01160002
0.01159997
0.01159996
0.01159995
0.01160003
0.004158789
0.006755103
0.0116209
0.01160386
0.004131125
0.004298572
0.005960843
0.006061276
0.01160435
0.01160427
0.004301288
0.004306738
0.006059503
0.006064477
0.01160445
0.01160443
0.004305381
0.004307194
0.006061651
0.006064317
0.01160453
0.01160445
0.004305687
0.004307257
0.006061796
0.006064349
0.01160453
0.01160447
0.0043057
0.004306988
0.006061789
0.006064258
0.01160453
0.01160447
0.00430524
0.006061623
0.01160453
0.00412636
0.0042871
0.01161904
0.01160403
0.01161863
0.01160395
0.004292028
0.00429556
0.0116172
0.01160361
0.01161854
0.01160363
0.0042961
0.00429623
0.01161718
0.01160361
0.01161853
0.01160361
0.004296192
0.004296201
0.01161717
0.0116036
0.01161852
0.01160361
0.004296301
0.004296292
0.01161716
0.01160359
0.01161852
0.0116036
0.004296271
0.004296285
0.01161716
0.0116036
0.01161852
0.0116036
0.004296274
0.004296291
0.01161716
0.0116036
0.01161852
0.0116036
0.004296278
0.004296285
0.01161716
0.0116036
0.01161852
0.0116036
0.004296279
0.004296287
0.01161716
0.0116036
0.01161852
0.0116036
0.004296274
0.004296284
0.01161716
0.0116036
0.01161852
0.0116036
0.004296277
0.004296282
0.01161716
0.0116036
0.01161852
0.0116036
0.004296277
0.004296283
0.01161716
0.0116036
0.01161852
0.0116036
0.004296273
0.004296278
0.01161716
0.0116036
0.01161852
0.0116036
0.004296275
0.004296282
0.01161716
0.0116036
0.01161852
0.0116036
0.00429627
0.00429628
0.01161716
0.0116036
0.01161852
0.0116036
0.004296274
0.004296278
0.01161716
0.0116036
0.01161852
0.0116036
0.004296273
0.00429628
0.01161716
0.0116036
0.01161852
0.0116036
0.004296269
0.004296277
0.01161716
0.0116036
0.01161852
0.0116036
0.004296269
0.004296275
0.01161716
0.0116036
0.01161852
0.0116036
0.004296261
0.00429626
0.01161716
0.0116036
0.01161852
0.0116036
0.004296241
0.004296182
0.01161716
0.0116036
0.01161852
0.0116036
0.004296108
0.004295607
0.01161716
0.0116036
0.01161851
0.0116036
0.004295227
0.0115487
0.0116185
0.0116036
0.01161716
0.01160198
0.005960295
0.01161854
0.01160175
0.006028361
0.01161823
0.01160164
0.006030346
0.01161676
0.01160133
0.006030518
0.01161811
0.01160129
0.006031081
0.01161675
0.01160129
0.006031405
0.01161812
0.0116013
0.006031107
0.01161674
0.01160128
0.006031349
0.0116181
0.01160128
0.00603133
0.01161673
0.01160128
0.006031382
0.01161811
0.01160128
0.006031038
0.01161674
0.01160129
0.006030922
0.01161811
0.01160128
0.006030489
0.01161674
0.01160129
0.006030579
0.01161814
0.01160133
0.006028598
0.01161684
0.01160164
0.005960429
0.01161959
0.01160176
0.006755336
0.01161949
0.01160384
0.004158787
0.01160449
0.004305259
0.01160239
0.01161861
0.01160395
0.004126356
0.004287088
0.01160198
0.01161852
0.01160363
0.004292036
0.004295557
0.01160198
0.01161851
0.01160361
0.00429624
0.004296186
0.01160197
0.01161851
0.0116036
0.004296285
0.00429629
0.01160197
0.0116185
0.0116036
0.00429627
0.00429627
0.01160198
0.0116185
0.0116036
0.004296285
0.004296311
0.01160198
0.0116185
0.0116036
0.00429629
0.004296279
0.01160198
0.0116185
0.0116036
0.004296271
0.004296287
0.01160198
0.0116185
0.0116036
0.004296296
0.00429628
0.01160198
0.0116185
0.0116036
0.004296277
0.004296299
0.01160198
0.0116185
0.0116036
0.004296315
0.004296318
0.01160198
0.0116185
0.0116036
0.004296298
0.004296268
0.01160198
0.0116185
0.0116036
0.004296262
0.004296284
0.01160198
0.0116185
0.0116036
0.00429628
0.004296289
0.01160198
0.0116185
0.0116036
0.004296281
0.004296292
0.01160198
0.0116185
0.0116036
0.004296285
0.004296272
0.01160198
0.0116185
0.0116036
0.004296276
0.004296291
0.01160198
0.0116185
0.0116036
0.004296264
0.004296239
0.01160198
0.0116185
0.0116036
0.004296241
0.004296188
0.01160198
0.0116185
0.0116036
0.004296122
0.004295631
0.0116036
0.01161851
0.01160197
0.004295241
0.01154832
0.01160001
0.008732815
0.01160751
0.008848753
0.01160727
0.008863705
0.01160734
0.008869935
0.01160708
0.008870462
0.0116073
0.008871255
0.01160703
0.008871371
0.01160729
0.008871353
0.01160702
0.0088713
0.01160728
0.008871411
0.011607
0.008871372
0.01160728
0.008871351
0.011607
0.008871313
0.01160727
0.008871342
0.011607
0.008871331
0.01160727
0.008871328
0.011607
0.008871309
0.01160727
0.008871311
0.011607
0.008871301
0.01160727
0.008871314
0.011607
0.008871305
0.01160727
0.008871305
0.011607
0.008871297
0.01160727
0.008871298
0.011607
0.00887129
0.01160727
0.00887131
0.011607
0.008871307
0.01160727
0.008871293
0.011607
0.008871286
0.01160727
0.008871304
0.011607
0.008871297
0.01160727
0.008871292
0.011607
0.008871284
0.01160727
0.008871286
0.011607
0.008871278
0.01160727
0.008871295
0.011607
0.008871288
0.01160727
0.008871281
0.011607
0.008871273
0.01160727
0.00887128
0.011607
0.00887127
0.01160727
0.008871269
0.011607
0.008871253
0.01160727
0.008871249
0.011607
0.008871227
0.01160726
0.008871
0.01160699
0.00887042
0.01159177
0.01159293
0.01159139
0.01159093
0.01159299
0.01159014
0.01159129
0.01159125
0.01159207
0.01159006
0.01159157
0.01159109
0.01159145
0.01159169
0.01159092
0.01159202
0.01159772
0.01159559
0.006061267
0.01160435
0.01160427
0.004131121
0.00429863
0.006064482
0.01160441
0.01160443
0.004301334
0.004306779
0.006064314
0.01160448
0.01160445
0.004305403
0.004307193
0.006064355
0.01160448
0.01160447
0.004305719
0.004307304
0.006064281
0.01160445
0.01160277
0.004305717
0.004306991
0.01160198
0.01161852
0.0116036
0.004296118
0.004296257
0.01160198
0.0116185
0.0116036
0.004296277
0.004296276
0.01160822
0.008844029
0.01160866
0.008539223
0.01159757
0.01159509
0.01160744
0.008869178
0.01160715
0.008866135
0.01160734
0.008871079
0.01160706
0.00887079
0.01160728
0.008871428
0.011607
0.008871349
0.01160729
0.008871332
0.01160702
0.00887133
0.01160727
0.008871359
0.01160699
0.00887137
0.01160727
0.008871328
0.01160699
0.008871314
0.01160726
0.008871334
0.01160699
0.008871335
0.01160726
0.008871317
0.01160699
0.008871309
0.01160726
0.008871311
0.01160699
0.008871301
0.01160726
0.008871309
0.01160699
0.008871309
0.01160726
0.008871303
0.01160699
0.008871298
0.01160726
0.0088713
0.01160699
0.00887129
0.01160726
0.008871304
0.01160698
0.008871308
0.01160726
0.008871295
0.01160699
0.008871286
0.01160726
0.008871296
0.01160699
0.0088713
0.01160726
0.008871288
0.01160699
0.008871284
0.01160726
0.008871286
0.01160699
0.008871277
0.01160726
0.008871288
0.01160699
0.008871289
0.01160726
0.008871281
0.01160699
0.008871273
0.01160726
0.008871275
0.01160699
0.008871275
0.01160726
0.008871258
0.01160699
0.008871255
0.01160726
0.0088711
0.01160698
0.008871206
0.01160724
0.01147829
0.008870021
0.0116041
0.01159123
0.0115911
0.01159141
0.01159249
0.01159091
0.01159052
0.0115921
0.01159102
0.01159131
0.01159152
0.01159156
0.01159179
0.01159233
0.01158996
0.01159226
0.01159187
0.01159972
0.008733082
0.01160391
0.008883955
0.01160183
0.008555925
0.01160822
0.008843801
0.01160869
0.008539049
0.01160019
0.00890598
0.01160366
0.008911017
0.01160751
0.008848582
0.01160726
0.008863664
0.01160744
0.008869233
0.01160716
0.008866091
0.01160734
0.008869998
0.01160707
0.008870495
0.01160734
0.008871188
0.01160707
0.008870774
0.01160729
0.008870614
0.01160702
0.008871338
0.01160729
0.008871364
0.01160704
0.008871367
0.01160728
0.00887145
0.01160699
0.008871411
0.01160727
0.008871397
0.01160701
0.008871412
0.01160727
0.008871375
0.011607
0.008871387
0.01160728
0.008871402
0.01160699
0.008870593
0.01160727
0.008871331
0.011607
0.008871338
0.01160726
0.00887133
0.011607
0.008871339
0.01160728
0.008871352
0.01160699
0.008870556
0.01160727
0.008871318
0.011607
0.008871332
0.01160726
0.008871327
0.011607
0.008871342
0.01160727
0.008871323
0.01160699
0.00887132
0.01160726
0.008871323
0.011607
0.008871326
0.01160727
0.008871317
0.01160699
0.008871319
0.01160726
0.008871333
0.011607
0.008871328
0.01160727
0.008871327
0.01160699
0.00887133
0.01160727
0.008871086
0.011607
0.008870416
0.01160724
0.008658368
0.008870151
0.01160408
0.006876886
0.007505483
0.007278472
0.007311607
0.007274359
0.007303533
0.007283094
0.007283618
0.007279735
0.00729321
0.007274058
0.007308115
0.007294369
0.007264763
0.007290582
0.007279907
0.007234556
0.007233833
0.007279281
0.007310692
0.01160397
0.008883628
0.01160171
0.008555451
0.00732335
0.007323794
0.007274282
0.007304405
0.007263954
0.007229363
0.007248528
0.007264209
0.007310412
0.007303589
0.007302382
0.007248627
0.007327685
0.007314108
0.007302833
0.007295711
0.007269625
0.007305355
0.006916546
0.007555877
0.01160791
0.008517549
0.01160732
0.008513071
0.007931861
0.00798222
0.007937966
0.007977601
0.01160858
0.008516438
0.008516546
0.01160632
0.01160829
0.008515615
0.008515341
0.01160669
0.01160841
0.008516236
0.01160673
0.008515875
0.01160841
0.008515925
0.01160671
0.008515703
0.01160841
0.008515919
0.00851572
0.01160665
0.01160841
0.00851593
0.0116067
0.008515699
0.01160728
0.008871389
0.01160699
0.008871346
0.01160726
0.008871647
0.011607
0.00887143
0.01160726
0.008871377
0.01160699
0.008871386
0.01160726
0.008871843
0.011607
0.008870831
0.01160727
0.008871745
0.01160698
0.008871453
0.01160726
0.008871646
0.01160699
0.008871456
0.01160728
0.008871339
0.01160699
0.008870567
0.01160726
0.008871836
0.011607
0.008870803
0.01160728
0.008871474
0.01160699
0.008870598
0.01160726
0.008870592
0.011607
0.008870605
0.01160728
0.008870542
0.01160699
0.008870525
0.01160726
0.008870545
0.011607
0.008870529
0.01160728
0.008870592
0.01160699
0.008870576
0.01160726
0.008871826
0.011607
0.008870818
0.01160727
0.008871814
0.01160698
0.008871834
0.01160726
0.008871328
0.011607
0.008871456
0.01160727
0.008871618
0.01160698
0.008871413
0.01160726
0.008871622
0.01160698
0.008871414
0.0116084
0.008515922
0.008515657
0.0116067
0.0116084
0.008515892
0.0116067
0.008515649
0.0116084
0.008515893
0.00851572
0.01160665
0.01160726
0.008871825
0.01160699
0.008870795
0.01160839
0.008515922
0.0116067
0.008515652
0.0116084
0.00851588
0.0116067
0.008515648
0.0116084
0.00851588
0.008515644
0.01160665
0.0116084
0.008515879
0.0116067
0.008515646
0.0116084
0.008515878
0.008515643
0.01160669
0.01160726
0.008871118
0.01160698
0.008871329
0.0116084
0.008515871
0.008515624
0.0116067
0.01160837
0.008514927
0.008514941
0.01160668
0.007313437
0.007828007
0.007705711
0.007589966
0.01161701
0.00850525
0.01162228
0.008456016
0.007104522
0.007250757
0.007287138
0.007319173
0.007282018
0.007310129
0.007229182
0.007263955
0.007305319
0.00730496
0.007252019
0.007251584
0.007284437
0.007314765
0.007323237
0.007270036
0.007296028
0.007309088
0.007272884
0.007274341
0.008883949
0.01160361
0.00890208
0.01160035
0.008914986
0.008895364
0.01160355
0.01159846
0.008903364
0.008910116
0.0116001
0.01160285
0.008916996
0.008900432
0.01160447
0.0115985
0.008904829
0.008911269
0.01160019
0.01160357
0.008917117
0.008901696
0.01160453
0.01159856
0.008904984
0.008910448
0.01160014
0.01160363
0.008917206
0.008900697
0.01160454
0.01159858
0.008905092
0.008911331
0.01160004
0.01160367
0.008918356
0.01159531
0.008901664
0.01160111
0.008871347
0.01160703
0.008870649
0.01160729
0.008870692
0.01160702
0.00887062
0.01160727
0.008871424
0.011607
0.008871331
0.01160726
0.008871619
0.01160699
0.008871632
0.01160724
0.007297043
0.007301062
0.007285392
0.007318269
0.007304959
0.00730102
0.007300208
0.007306645
0.007282692
0.007273669
0.00730891
0.007275435
0.007330097
0.007328491
0.007260644
0.007222931
0.007259747
0.007277786
0.00706072
0.007201459
0.007316497
0.007835429
0.007590199
0.007727235
0.01161632
0.008512972
0.008492443
0.01162224
0.01160833
0.008499704
0.01160676
0.008509243
0.007933584
0.007979459
0.007937698
0.01160823
0.008515688
0.008515367
0.01160674
0.01160835
0.00851591
0.0116067
0.008515703
0.01160835
0.008515937
0.0116067
0.008515716
0.01160844
0.00851623
0.008515851
0.01160673
0.01160836
0.008515889
0.008515652
0.0116067
0.01160836
0.00851589
0.01160665
0.008515654
0.01160839
0.008516201
0.00851582
0.01160673
0.01160836
0.008515887
0.00851565
0.0116067
0.01160836
0.008515888
0.01160665
0.008515651
0.01160836
0.008515879
0.01160669
0.008515645
0.0116084
0.008515882
0.008515648
0.0116067
0.0116084
0.008515881
0.01160665
0.008515645
0.01160835
0.008515886
0.00851565
0.01160671
0.01160835
0.00851584
0.008515632
0.01160671
0.01160835
0.008515749
0.01160665
0.008515207
0.01160448
0.01160448
0.01160448
0.01160463
0.01161849
0.01160033
0.01160011
0.01160007
0.01160003
0.01160005
0.01160004
0.0115486
0.0116185
0.0116036
0.01147817
0.01160408
0.01160197
0.01154835
0.008657481
0.01160408
0.01160042
0.00888373
0.01160037
0.008903057
0.01160015
0.008904247
0.01160284
0.00891103
0.01160018
0.008905586
0.01160356
0.008911228
0.01160018
0.008905797
0.01160362
0.008911262
0.01160018
0.008905897
0.01160365
0.00891129
0.01160018
0.00890588
0.01160366
0.008911052
0.01160858
0.008516878
0.01160637
0.008516567
0.01160829
0.008515599
0.0116067
0.008515343
0.01160839
0.008515977
0.01160671
0.008515805
0.01160838
0.008516026
0.01160671
0.008515772
0.01160841
0.008515977
0.0116067
0.008515771
0.0116084
0.008515988
0.01160671
0.008515753
0.0116084
0.008515977
0.0116067
0.008515744
0.0116084
0.008515972
0.0116067
0.008515733
0.0116084
0.00851596
0.0116067
0.008515723
0.0116084
0.008515959
0.0116067
0.008515721
0.0116084
0.008515953
0.0116067
0.008515715
0.0116084
0.008515947
0.0116067
0.00851571
0.0116084
0.008515952
0.0116067
0.008515714
0.0116084
0.008515945
0.0116067
0.008515704
0.0116084
0.008515946
0.0116067
0.008515708
0.0116084
0.008515941
0.0116067
0.008515702
0.0116084