/*--------------------------------*- C++ -*----------------------------------*\
  =========                 |
  \\      /  F ield         | OpenFOAM: The Open Source CFD Toolbox
   \\    /   O peration     | Website:  https://openfoam.org
    \\  /    A nd           | Version:  7
     \\/     M anipulation  |
\*---------------------------------------------------------------------------*/
FoamFile
{
    version     2.0;
    format      ascii;
    class       volScalarField;
    location    "0.06";
    object      k;
}
// * * * * * * * * * * * * * * * * * * * * * * * * * * * * * * * * * * * * * //

dimensions      [0 2 -2 0 0 0 0];

internalField   nonuniform List<scalar> 
80136
(
0.00373305
0.003732702
0.003732584
0.003732561
0.003732558
0.003732561
0.003732566
0.003732701
0.003731986
0.003731759
0.003731702
0.003731691
0.003731692
0.003731697
0.003732585
0.003731759
0.003731468
0.003731391
0.003731373
0.003731373
0.003731378
0.003732562
0.003731703
0.00373139
0.003731302
0.00373128
0.003731279
0.003731285
0.003732561
0.003731692
0.003731371
0.003731278
0.003731253
0.003731252
0.003731258
0.003732566
0.003731693
0.003731369
0.003731273
0.003731247
0.003731245
0.003731252
0.003732574
0.0037317
0.003731374
0.003731277
0.00373125
0.003731247
0.003731255
0.003732583
0.00373171
0.003731383
0.003731285
0.003731257
0.003731254
0.003731262
0.003732593
0.003731721
0.003731394
0.003731295
0.003731267
0.003731264
0.003731272
0.003732605
0.003731733
0.003731406
0.003731308
0.00373128
0.003731277
0.003731286
0.003732617
0.003731746
0.00373142
0.003731322
0.003731295
0.003731292
0.003731302
0.003732631
0.003731761
0.003731435
0.003731338
0.00373131
0.003731309
0.003731319
0.003732645
0.003731776
0.003731451
0.003731354
0.003731327
0.003731326
0.003731337
0.003732659
0.003731792
0.003731467
0.003731371
0.003731345
0.003731344
0.003731356
0.003732674
0.003731808
0.003731484
0.003731388
0.003731362
0.003731363
0.003731375
0.003732689
0.003731824
0.003731501
0.003731405
0.00373138
0.00373138
0.003731393
0.003732704
0.00373184
0.003731518
0.003731422
0.003731397
0.003731398
0.003731411
0.003732718
0.003731856
0.003731534
0.003731438
0.003731414
0.003731415
0.003731428
0.003732733
0.003731872
0.00373155
0.003731455
0.00373143
0.00373143
0.003731443
0.003732747
0.003731888
0.003731566
0.00373147
0.003731445
0.003731446
0.003731458
0.003732761
0.003731903
0.003731582
0.003731486
0.003731461
0.003731461
0.003731472
0.003732775
0.003731918
0.003731598
0.003731504
0.00373148
0.003731481
0.003731491
0.003732788
0.003731934
0.003731617
0.003731526
0.003731506
0.003731509
0.003731521
0.003713171
0.003712746
0.003712501
0.003712459
0.003712465
0.003712476
0.003712488
0.003712497
0.003713181
0.003538651
0.003538649
0.003538649
0.003538649
0.00353865
0.00353865
0.00353865
0.003712748
0.00353865
0.003538647
0.003538647
0.003538647
0.003538647
0.003538647
0.003538647
0.003712505
0.00353865
0.003538647
0.003538647
0.003538647
0.003538647
0.003538648
0.003538647
0.00371247
0.003538651
0.003538648
0.003538648
0.003538648
0.003538648
0.003538648
0.003538648
0.003712482
0.003538651
0.003538649
0.003538648
0.003538649
0.003538649
0.003538649
0.003538649
0.003712503
0.003538652
0.003538649
0.003538649
0.003538649
0.00353865
0.00353865
0.003538649
0.003712528
0.003538653
0.00353865
0.00353865
0.00353865
0.00353865
0.00353865
0.00353865
0.003712556
0.003538653
0.003538651
0.003538651
0.003538651
0.003538651
0.003538651
0.003538651
0.003712586
0.003538654
0.003538651
0.003538651
0.003538652
0.003538652
0.003538652
0.003538652
0.003712619
0.003538655
0.003538652
0.003538652
0.003538653
0.003538653
0.003538653
0.003538653
0.003712654
0.003538656
0.003538653
0.003538653
0.003538654
0.003538654
0.003538655
0.003538655
0.003712691
0.003538657
0.003538654
0.003538654
0.003538655
0.003538655
0.003538656
0.003538656
0.003712731
0.003538658
0.003538655
0.003538655
0.003538656
0.003538657
0.003538657
0.003538658
0.003712773
0.003538659
0.003538656
0.003538656
0.003538657
0.003538658
0.003538658
0.003538659
0.003712815
0.00353866
0.003538657
0.003538657
0.003538658
0.003538659
0.00353866
0.00353866
0.003712859
0.003538661
0.003538658
0.003538658
0.003538659
0.00353866
0.003538661
0.003538662
0.003712895
0.003538662
0.003538659
0.003538659
0.00353866
0.003538661
0.003538662
0.003538663
0.003712943
0.003538662
0.00353866
0.00353866
0.003538661
0.003538662
0.003538663
0.003538664
0.003712982
0.003538663
0.003538661
0.003538661
0.003538662
0.003538663
0.003538663
0.003538664
0.003713025
0.003538664
0.003538661
0.003538662
0.003538663
0.003538663
0.003538664
0.003538665
0.003713063
0.003538665
0.003538662
0.003538662
0.003538663
0.003538664
0.003538665
0.003538666
0.003713103
0.003538665
0.003538663
0.003538663
0.003538664
0.003538665
0.003538665
0.003538666
0.003538792
0.003538666
0.003538664
0.003538664
0.003538665
0.003538665
0.003538666
0.003538666
0.003712907
0.003732347
0.003732094
0.003731997
0.003731979
0.003731978
0.003731981
0.003712917
0.003538588
0.00353865
0.00353865
0.00353865
0.00353865
0.00353865
0.00353865
0.003732351
0.003538654
0.003538588
0.003538588
0.003538588
0.003538588
0.003538588
0.003538588
0.003732097
0.003538654
0.003538588
0.003538588
0.003538588
0.003538588
0.003538588
0.003538588
0.003732001
0.003538655
0.003538588
0.003538589
0.003538589
0.003538589
0.003538589
0.003538589
0.003731985
0.003538656
0.003538589
0.003538589
0.003538589
0.003538589
0.003538589
0.003538589
0.003731987
0.003538657
0.00353859
0.00353859
0.00353859
0.00353859
0.00353859
0.00353859
0.003731994
0.003538658
0.00353859
0.00353859
0.003538591
0.003538591
0.003538591
0.003538591
0.003732003
0.003538659
0.003538591
0.003538591
0.003538591
0.003538592
0.003538592
0.003538591
0.003732014
0.00353866
0.003538592
0.003538592
0.003538592
0.003538592
0.003538593
0.003538593
0.003732026
0.003538662
0.003538592
0.003538593
0.003538593
0.003538593
0.003538594
0.003538594
0.003732039
0.003538663
0.003538593
0.003538594
0.003538594
0.003538594
0.003538595
0.003538595
0.003732053
0.003538664
0.003538594
0.003538595
0.003538595
0.003538596
0.003538596
0.003538596
0.003732067
0.003538665
0.003538595
0.003538596
0.003538596
0.003538597
0.003538597
0.003538598
0.003732082
0.003538666
0.003538596
0.003538597
0.003538597
0.003538598
0.003538598
0.003538599
0.003732097
0.003538668
0.003538597
0.003538598
0.003538598
0.003538599
0.0035386
0.0035386
0.003732113
0.003538669
0.003538598
0.003538599
0.003538599
0.0035386
0.003538601
0.003538602
0.003732128
0.00353867
0.003538599
0.0035386
0.0035386
0.003538601
0.003538602
0.003538603
0.003732143
0.00353867
0.0035386
0.0035386
0.003538601
0.003538602
0.003538603
0.003538604
0.003732159
0.003538671
0.003538601
0.003538601
0.003538602
0.003538603
0.003538604
0.003538605
0.003732173
0.003538671
0.003538601
0.003538602
0.003538603
0.003538604
0.003538604
0.003538605
0.003732188
0.003538672
0.003538602
0.003538603
0.003538604
0.003538604
0.003538605
0.003538606
0.003732201
0.003538672
0.003538603
0.003538604
0.003538604
0.003538605
0.003538605
0.003538606
0.003732216
0.003538673
0.003538604
0.003538604
0.003538605
0.003538606
0.003538606
0.003538606
0.003712668
0.003732101
0.00373163
0.003731474
0.003731439
0.003731434
0.003731436
0.003712675
0.003538588
0.00353865
0.003538648
0.003538648
0.003538648
0.003538648
0.003538648
0.003732105
0.003538654
0.003538588
0.003538588
0.003538588
0.003538588
0.003538588
0.003538588
0.003731632
0.003538652
0.003538588
0.003538588
0.003538588
0.003538588
0.003538588
0.003538588
0.003731478
0.003538653
0.003538588
0.003538589
0.003538589
0.003538589
0.003538589
0.003538589
0.003731444
0.003538654
0.003538589
0.003538589
0.003538589
0.003538589
0.003538589
0.003538589
0.003731443
0.003538655
0.00353859
0.00353859
0.00353859
0.00353859
0.00353859
0.00353859
0.003731449
0.003538656
0.00353859
0.00353859
0.003538591
0.003538591
0.003538591
0.003538591
0.003731458
0.003538657
0.003538591
0.003538591
0.003538591
0.003538591
0.003538592
0.003538591
0.003731469
0.003538658
0.003538592
0.003538592
0.003538592
0.003538592
0.003538593
0.003538593
0.003731482
0.00353866
0.003538592
0.003538593
0.003538593
0.003538593
0.003538594
0.003538594
0.003731495
0.003538661
0.003538593
0.003538594
0.003538594
0.003538594
0.003538595
0.003538595
0.003731509
0.003538662
0.003538594
0.003538595
0.003538595
0.003538596
0.003538596
0.003538596
0.003731524
0.003538663
0.003538595
0.003538596
0.003538596
0.003538597
0.003538597
0.003538598
0.00373154
0.003538665
0.003538596
0.003538597
0.003538597
0.003538598
0.003538598
0.003538599
0.003731556
0.003538666
0.003538597
0.003538598
0.003538598
0.003538599
0.0035386
0.0035386
0.003731572
0.003538667
0.003538598
0.003538599
0.003538599
0.0035386
0.003538601
0.003538602
0.003731589
0.003538667
0.003538599
0.0035386
0.0035386
0.003538601
0.003538602
0.003538603
0.003731605
0.003538668
0.0035386
0.0035386
0.003538601
0.003538602
0.003538603
0.003538604
0.003731621
0.003538669
0.003538601
0.003538601
0.003538602
0.003538603
0.003538604
0.003538605
0.003731636
0.003538669
0.003538601
0.003538602
0.003538603
0.003538604
0.003538604
0.003538605
0.003731651
0.00353867
0.003538602
0.003538603
0.003538604
0.003538604
0.003538605
0.003538606
0.003731666
0.00353867
0.003538603
0.003538604
0.003538604
0.003538605
0.003538605
0.003538606
0.003731681
0.003538671
0.003538604
0.003538604
0.003538605
0.003538606
0.003538606
0.003538606
0.003712617
0.003732005
0.003731478
0.003731288
0.003731245
0.003731238
0.00373124
0.003712626
0.003538588
0.003538649
0.003538648
0.003538647
0.003538648
0.003538648
0.003538648
0.00373201
0.003538653
0.003538588
0.003538588
0.003538588
0.003538588
0.003538588
0.003538588
0.00373148
0.003538652
0.003538588
0.003538588
0.003538588
0.003538588
0.003538588
0.003538588
0.003731291
0.003538652
0.003538588
0.003538589
0.003538589
0.003538589
0.003538589
0.003538589
0.00373125
0.003538653
0.003538589
0.003538589
0.003538589
0.003538589
0.003538589
0.003538589
0.003731246
0.003538654
0.00353859
0.00353859
0.00353859
0.00353859
0.00353859
0.00353859
0.003731251
0.003538655
0.00353859
0.00353859
0.003538591
0.003538591
0.003538591
0.003538591
0.00373126
0.003538657
0.003538591
0.003538591
0.003538591
0.003538591
0.003538591
0.003538591
0.003731272
0.003538658
0.003538592
0.003538592
0.003538592
0.003538592
0.003538592
0.003538592
0.003731284
0.003538659
0.003538592
0.003538593
0.003538593
0.003538593
0.003538594
0.003538594
0.003731298
0.00353866
0.003538593
0.003538594
0.003538594
0.003538594
0.003538595
0.003538595
0.003731312
0.003538662
0.003538594
0.003538595
0.003538595
0.003538596
0.003538596
0.003538596
0.003731327
0.003538663
0.003538595
0.003538596
0.003538596
0.003538597
0.003538597
0.003538598
0.003731343
0.003538664
0.003538596
0.003538597
0.003538597
0.003538598
0.003538598
0.003538599
0.00373136
0.003538665
0.003538597
0.003538598
0.003538598
0.003538599
0.0035386
0.0035386
0.003731376
0.003538666
0.003538598
0.003538599
0.003538599
0.0035386
0.003538601
0.003538602
0.003731393
0.003538667
0.003538599
0.003538599
0.0035386
0.003538601
0.003538602
0.003538603
0.003731409
0.003538668
0.0035386
0.0035386
0.003538601
0.003538602
0.003538603
0.003538604
0.003731425
0.003538668
0.003538601
0.003538601
0.003538602
0.003538603
0.003538604
0.003538605
0.003731441
0.003538669
0.003538601
0.003538602
0.003538603
0.003538604
0.003538604
0.003538605
0.003731456
0.003538669
0.003538602
0.003538603
0.003538603
0.003538604
0.003538605
0.003538606
0.003731471
0.00353867
0.003538603
0.003538604
0.003538604
0.003538605
0.003538605
0.003538606
0.003731486
0.00353867
0.003538604
0.003538604
0.003538605
0.003538606
0.003538606
0.003538606
0.003712611
0.003732006
0.003731478
0.003731288
0.003731245
0.003731239
0.00373124
0.003712624
0.003538588
0.003538649
0.003538648
0.003538647
0.003538648
0.003538648
0.003538648
0.00373201
0.003538653
0.003538588
0.003538588
0.003538588
0.003538588
0.003538588
0.003538588
0.00373148
0.003538652
0.003538588
0.003538588
0.003538588
0.003538588
0.003538588
0.003538588
0.003731291
0.003538652
0.003538588
0.003538589
0.003538589
0.003538589
0.003538589
0.003538589
0.00373125
0.003538653
0.003538589
0.003538589
0.003538589
0.003538589
0.003538589
0.003538589
0.003731246
0.003538654
0.00353859
0.00353859
0.00353859
0.00353859
0.00353859
0.00353859
0.003731251
0.003538655
0.00353859
0.00353859
0.003538591
0.003538591
0.003538591
0.003538591
0.00373126
0.003538657
0.003538591
0.003538591
0.003538591
0.003538591
0.003538592
0.003538591
0.003731272
0.003538658
0.003538592
0.003538592
0.003538592
0.003538592
0.003538592
0.003538592
0.003731284
0.003538659
0.003538592
0.003538593
0.003538593
0.003538593
0.003538594
0.003538594
0.003731298
0.00353866
0.003538593
0.003538594
0.003538594
0.003538594
0.003538595
0.003538595
0.003731313
0.003538662
0.003538594
0.003538595
0.003538595
0.003538596
0.003538596
0.003538596
0.003731328
0.003538663
0.003538595
0.003538596
0.003538596
0.003538597
0.003538597
0.003538598
0.003731343
0.003538664
0.003538596
0.003538597
0.003538597
0.003538598
0.003538598
0.003538599
0.00373136
0.003538665
0.003538597
0.003538598
0.003538598
0.003538599
0.0035386
0.0035386
0.003731376
0.003538666
0.003538598
0.003538599
0.003538599
0.0035386
0.003538601
0.003538602
0.003731393
0.003538667
0.003538599
0.0035386
0.0035386
0.003538601
0.003538602
0.003538603
0.003731409
0.003538668
0.0035386
0.0035386
0.003538601
0.003538602
0.003538603
0.003538604
0.003731425
0.003538668
0.003538601
0.003538601
0.003538602
0.003538603
0.003538604
0.003538605
0.003731441
0.003538669
0.003538601
0.003538602
0.003538603
0.003538604
0.003538604
0.003538605
0.003731456
0.003538669
0.003538602
0.003538603
0.003538603
0.003538604
0.003538605
0.003538606
0.003731471
0.00353867
0.003538603
0.003538604
0.003538604
0.003538605
0.003538605
0.003538606
0.003731486
0.00353867
0.003538604
0.003538604
0.003538605
0.003538606
0.003538606
0.003538606
0.003712629
0.003732101
0.003731631
0.003731475
0.00373144
0.003731436
0.003731437
0.003712639
0.003538588
0.00353865
0.003538648
0.003538648
0.003538648
0.003538648
0.003538648
0.003732106
0.003538654
0.003538588
0.003538588
0.003538588
0.003538588
0.003538588
0.003538588
0.003731633
0.003538652
0.003538588
0.003538588
0.003538588
0.003538588
0.003538588
0.003538588
0.003731478
0.003538653
0.003538588
0.003538589
0.003538589
0.003538589
0.003538589
0.003538589
0.003731445
0.003538654
0.003538589
0.003538589
0.003538589
0.003538589
0.003538589
0.003538589
0.003731443
0.003538655
0.00353859
0.00353859
0.00353859
0.00353859
0.00353859
0.00353859
0.003731449
0.003538656
0.00353859
0.00353859
0.003538591
0.003538591
0.003538591
0.003538591
0.003731458
0.003538657
0.003538591
0.003538591
0.003538591
0.003538591
0.003538592
0.003538591
0.003731469
0.003538658
0.003538592
0.003538592
0.003538592
0.003538592
0.003538593
0.003538593
0.003731482
0.00353866
0.003538592
0.003538593
0.003538593
0.003538593
0.003538594
0.003538594
0.003731496
0.003538661
0.003538593
0.003538594
0.003538594
0.003538594
0.003538595
0.003538595
0.003731511
0.003538662
0.003538594
0.003538595
0.003538595
0.003538596
0.003538596
0.003538596
0.003731526
0.003538663
0.003538595
0.003538596
0.003538596
0.003538597
0.003538597
0.003538598
0.003731541
0.003538665
0.003538596
0.003538597
0.003538597
0.003538598
0.003538598
0.003538599
0.003731557
0.003538666
0.003538597
0.003538598
0.003538598
0.003538599
0.0035386
0.0035386
0.003731573
0.003538667
0.003538598
0.003538599
0.003538599
0.0035386
0.003538601
0.003538602
0.00373159
0.003538667
0.003538599
0.0035386
0.0035386
0.003538601
0.003538602
0.003538603
0.003731606
0.003538668
0.0035386
0.0035386
0.003538601
0.003538602
0.003538603
0.003538604
0.003731622
0.003538669
0.003538601
0.003538601
0.003538602
0.003538603
0.003538604
0.003538605
0.003731637
0.003538669
0.003538601
0.003538602
0.003538603
0.003538604
0.003538604
0.003538605
0.003731652
0.00353867
0.003538602
0.003538603
0.003538604
0.003538604
0.003538605
0.003538606
0.003731666
0.00353867
0.003538603
0.003538604
0.003538604
0.003538605
0.003538606
0.003538606
0.003731681
0.003538671
0.003538604
0.003538604
0.003538605
0.003538606
0.003538606
0.003538606
0.003712787
0.00373235
0.003732097
0.003732003
0.003731984
0.003731982
0.003731986
0.003712793
0.003538588
0.00353865
0.00353865
0.00353865
0.00353865
0.00353865
0.00353865
0.003732354
0.003538654
0.003538588
0.003538588
0.003538588
0.003538588
0.003538588
0.003538588
0.003732099
0.003538654
0.003538588
0.003538588
0.003538588
0.003538588
0.003538588
0.003538588
0.003732003
0.003538655
0.003538588
0.003538589
0.003538589
0.003538589
0.003538589
0.003538589
0.003731988
0.003538656
0.003538589
0.003538589
0.003538589
0.003538589
0.003538589
0.003538589
0.003731989
0.003538657
0.00353859
0.00353859
0.00353859
0.00353859
0.00353859
0.00353859
0.003731994
0.003538658
0.00353859
0.00353859
0.003538591
0.003538591
0.003538591
0.003538591
0.003732001
0.003538659
0.003538591
0.003538591
0.003538591
0.003538592
0.003538592
0.003538591
0.003732014
0.00353866
0.003538592
0.003538592
0.003538592
0.003538592
0.003538593
0.003538593
0.003732026
0.003538662
0.003538592
0.003538593
0.003538593
0.003538593
0.003538594
0.003538594
0.003732041
0.003538663
0.003538593
0.003538594
0.003538594
0.003538594
0.003538595
0.003538595
0.003732058
0.003538664
0.003538594
0.003538595
0.003538595
0.003538596
0.003538596
0.003538596
0.003732072
0.003538666
0.003538595
0.003538596
0.003538596
0.003538597
0.003538597
0.003538598
0.003732085
0.003538667
0.003538596
0.003538597
0.003538597
0.003538598
0.003538598
0.003538599
0.003732098
0.003538668
0.003538597
0.003538598
0.003538598
0.003538599
0.0035386
0.0035386
0.003732115
0.003538669
0.003538598
0.003538599
0.003538599
0.0035386
0.003538601
0.003538602
0.003732134
0.003538669
0.003538599
0.0035386
0.0035386
0.003538601
0.003538602
0.003538603
0.003732149
0.00353867
0.0035386
0.0035386
0.003538601
0.003538602
0.003538603
0.003538604
0.003732161
0.003538671
0.003538601
0.003538601
0.003538602
0.003538603
0.003538604
0.003538605
0.003732174
0.003538671
0.003538601
0.003538602
0.003538603
0.003538604
0.003538604
0.003538605
0.003732188
0.003538672
0.003538602
0.003538603
0.003538604
0.003538604
0.003538605
0.003538606
0.003732201
0.003538672
0.003538603
0.003538604
0.003538604
0.003538605
0.003538606
0.003538606
0.003732215
0.003538673
0.003538604
0.003538604
0.003538605
0.003538606
0.003538606
0.003538606
0.003713043
0.003712279
0.003711087
0.003710962
0.003710976
0.003710941
0.003710976
0.003711007
0.003713052
0.003538651
0.003538649
0.003538649
0.003538649
0.003538649
0.00353865
0.003538649
0.003712281
0.00353865
0.003538647
0.003538647
0.003538647
0.003538647
0.003538647
0.003538647
0.003711102
0.00353865
0.003538647
0.003538647
0.003538647
0.003538647
0.003538647
0.003538647
0.003710936
0.003538651
0.003538648
0.003538648
0.003538648
0.003538648
0.003538648
0.003538648
0.003710949
0.003538651
0.003538648
0.003538648
0.003538649
0.003538649
0.003538649
0.003538649
0.003710959
0.003538652
0.003538649
0.003538649
0.003538649
0.003538649
0.003538649
0.003538649
0.003710944
0.003538652
0.00353865
0.00353865
0.00353865
0.00353865
0.00353865
0.00353865
0.00371092
0.003538653
0.003538651
0.00353865
0.003538651
0.003538651
0.003538651
0.003538651
0.003711022
0.003538654
0.003538651
0.003538651
0.003538652
0.003538652
0.003538652
0.003538652
0.003711059
0.003538655
0.003538652
0.003538652
0.003538653
0.003538653
0.003538653
0.003538653
0.003711086
0.003538656
0.003538653
0.003538653
0.003538654
0.003538654
0.003538654
0.003538655
0.003711218
0.003538657
0.003538654
0.003538654
0.003538655
0.003538655
0.003538656
0.003538656
0.003711178
0.003538658
0.003538655
0.003538655
0.003538656
0.003538656
0.003538657
0.003538657
0.003711238
0.003538659
0.003538656
0.003538656
0.003538657
0.003538658
0.003538658
0.003538659
0.003711278
0.00353866
0.003538657
0.003538657
0.003538658
0.003538659
0.003538659
0.00353866
0.00371131
0.003538661
0.003538658
0.003538658
0.003538659
0.00353866
0.003538661
0.003538661
0.003711407
0.003538661
0.003538659
0.003538659
0.00353866
0.003538661
0.003538662
0.003538663
0.003711459
0.003538662
0.00353866
0.00353866
0.003538661
0.003538662
0.003538663
0.003538664
0.003711442
0.003538663
0.003538661
0.003538661
0.003538662
0.003538662
0.003538663
0.003538664
0.003711498
0.003538664
0.003538661
0.003538662
0.003538663
0.003538663
0.003538664
0.003538665
0.003711519
0.003538665
0.003538662
0.003538662
0.003538663
0.003538664
0.003538665
0.003538665
0.003711568
0.003538665
0.003538663
0.003538663
0.003538665
0.003538665
0.003538666
0.003538666
0.003711619
0.003538666
0.003538663
0.003538664
0.003538665
0.003538665
0.003538666
0.003538666
0.003669225
0.003668113
0.003665837
0.003665986
0.00366841
0.003665921
0.003666082
0.003668492
0.003667812
0.003733037
0.003732692
0.00373258
0.003732551
0.003732549
0.003732557
0.003732556
0.003665997
0.003732694
0.003731982
0.003731755
0.003731698
0.003731687
0.003731688
0.00373169
0.003666311
0.00373258
0.003731756
0.003731465
0.003731388
0.003731369
0.003731368
0.003731371
0.003665766
0.003732559
0.0037317
0.003731388
0.0037313
0.003731277
0.003731274
0.003731277
0.003665909
0.003732554
0.003731689
0.003731369
0.003731276
0.003731251
0.003731247
0.003731251
0.003667283
0.003732553
0.00373169
0.003731368
0.003731273
0.003731247
0.003731243
0.003731247
0.0037121
0.003732561
0.003731697
0.003731373
0.003731278
0.003731252
0.003731248
0.003731253
0.003666789
0.003732576
0.003731707
0.003731383
0.003731287
0.003731261
0.003731259
0.003731264
0.003666114
0.003732591
0.003731719
0.003731395
0.003731299
0.003731273
0.003731272
0.003731279
0.003666172
0.003732603
0.003731732
0.003731408
0.003731312
0.003731287
0.003731287
0.003731295
0.003666352
0.003732611
0.003731745
0.003731421
0.003731326
0.003731302
0.003731302
0.003731312
0.003712343
0.003732618
0.003731758
0.003731436
0.003731341
0.003731317
0.003731318
0.003731329
0.00366728
0.003732635
0.003731774
0.003731451
0.003731356
0.003731332
0.003731334
0.003731346
0.003667173
0.003732655
0.00373179
0.003731467
0.003731372
0.003731348
0.00373135
0.003731362
0.003666715
0.003732672
0.003731806
0.003731483
0.003731388
0.003731364
0.003731365
0.003731378
0.003666825
0.003732686
0.003731822
0.0037315
0.003731404
0.00373138
0.003731381
0.003731394
0.003667242
0.003732694
0.003731838
0.003731516
0.003731421
0.003731396
0.003731398
0.003731411
0.003669622
0.00373271
0.003731853
0.003731532
0.003731437
0.003731413
0.003731414
0.003731427
0.003667287
0.003732731
0.00373187
0.003731549
0.003731454
0.003731429
0.00373143
0.003731442
0.003667278
0.003732746
0.003731886
0.003731565
0.003731471
0.003731446
0.003731446
0.003731458
0.003667377
0.00373276
0.003731903
0.003731584
0.003731491
0.003731466
0.003731465
0.003731474
0.003667481
0.003732775
0.003731921
0.003731605
0.003731515
0.003731492
0.003731491
0.003731497
0.003667578
0.003732792
0.00373195
0.003731649
0.00373158
0.003731561
0.003731557
0.003731549
0.003715508
0.003664515
0.003664517
0.003538728
0.003715338
0.003714382
0.003667796
0.00366585
0.003538843
0.003538841
0.003714157
0.00371405
0.003665802
0.003665737
0.003538834
0.003538838
0.003714028
0.003714026
0.003665715
0.003665731
0.003538831
0.003538838
0.003714026
0.003714034
0.003665723
0.003665763
0.003538831
0.003538839
0.003714037
0.003714045
0.003665755
0.003665796
0.00353883
0.003538839
0.003714047
0.003714055
0.003665787
0.003665824
0.003538829
0.003538838
0.00371406
0.003714066
0.003665816
0.003665851
0.00353883
0.003538838
0.003714068
0.003665845
0.003538831
0.003715337
0.003714381
0.003667803
0.003538837
0.003665851
0.003538833
0.003714157
0.003714051
0.003665806
0.003538828
0.003665741
0.00353883
0.003714031
0.003714031
0.003665724
0.003538828
0.003665744
0.003538831
0.00371403
0.003714043
0.003665745
0.003538829
0.003665796
0.003538832
0.003714047
0.003714061
0.003665797
0.00353883
0.003665861
0.003538834
0.003714067
0.003714082
0.003665857
0.003538831
0.00366593
0.003538835
0.003714089
0.003714105
0.003665923
0.003538832
0.003666004
0.003538837
0.003714114
0.003714131
0.003665998
0.003538833
0.003666084
0.003538839
0.003714141
0.003714158
0.003666077
0.003538835
0.003666173
0.003538841
0.00371417
0.003714187
0.003666165
0.003538836
0.003666268
0.003538844
0.003714202
0.003714219
0.003666259
0.003538838
0.00366637
0.003538846
0.003714237
0.003714253
0.00366636
0.003538839
0.003666478
0.003538849
0.003714274
0.003714288
0.003666466
0.003538841
0.003666587
0.003538852
0.003714312
0.003714327
0.003666577
0.003538844
0.003666699
0.003538854
0.003714347
0.003714363
0.003666696
0.003538848
0.003666812
0.003538857
0.003714386
0.0037144
0.00366681
0.003538852
0.00366693
0.00353886
0.003714426
0.00371444
0.003666926
0.003538857
0.003667041
0.003538862
0.003714462
0.003714476
0.003667041
0.003538861
0.003667154
0.003538865
0.003714501
0.003714513
0.003667153
0.003538866
0.003667266
0.003538868
0.003714537
0.003714548
0.003667265
0.003538871
0.003667376
0.00353887
0.003714573
0.003714583
0.003667373
0.003538876
0.003667482
0.003538873
0.003714607
0.003714616
0.003667478
0.00353888
0.003667586
0.003538875
0.003714639
0.00371465
0.003667579
0.003538885
0.003667681
0.003538876
0.003668109
0.003668119
0.003538606
0.00366639
0.003666403
0.003538606
0.003666351
0.003666363
0.003538606
0.003666272
0.003666272
0.003538606
0.003666252
0.003666253
0.003538606
0.003666215
0.003666251
0.003538606
0.00366622
0.003666231
0.003538606
0.003666208
0.003666249
0.003538606
0.003666202
0.003666242
0.003538606
0.00366621
0.003666253
0.003538606
0.003666216
0.003666238
0.003538606
0.003666275
0.003666243
0.003538606
0.003666267
0.003666264
0.003538606
0.003666336
0.003666386
0.003538606
0.003666354
0.003666413
0.003538606
0.003668232
0.003668123
0.003538606
0.003665042
0.003664505
0.003538727
0.003715453
0.003712353
0.003538844
0.003538961
0.003715104
0.003714064
0.003665953
0.003538834
0.003538839
0.003713905
0.003713987
0.003665852
0.003538832
0.003538839
0.003714021
0.00371402
0.003668408
0.003538832
0.003538839
0.003713963
0.003713796
0.003666048
0.00353883
0.00353884
0.003713799
0.003713981
0.003665944
0.00353883
0.003538839
0.003714042
0.00371405
0.003538833
0.003713833
0.00353883
0.003666966
0.003538831
0.003714102
0.003713898
0.003538829
0.003665777
0.003538831
0.003713975
0.003714022
0.003538829
0.003665829
0.003538833
0.003714028
0.003714041
0.003538831
0.003667185
0.003538834
0.003714027
0.003713941
0.003538835
0.003666144
0.00353884
0.00371396
0.003714104
0.003538835
0.003666166
0.003538842
0.003714138
0.003714154
0.003538837
0.003666272
0.003538844
0.00371417
0.003714188
0.003538838
0.003667425
0.003538846
0.003714174
0.00371407
0.003538959
0.003668101
0.003538849
0.003713936
0.003714002
0.003538842
0.00366782
0.003538851
0.003714161
0.003714136
0.003538845
0.003666732
0.003538855
0.003714262
0.003714317
0.003538849
0.003666806
0.003538858
0.003714347
0.003714359
0.003538853
0.003667039
0.003538859
0.003714389
0.003714406
0.003538856
0.003669645
0.003538861
0.003714351
0.003714211
0.003538863
0.003667439
0.003538867
0.003714228
0.003714407
0.003538867
0.003667261
0.003538868
0.003714501
0.003714515
0.003538872
0.00366736
0.00353887
0.00371453
0.003714544
0.003538876
0.00366746
0.003538873
0.003714569
0.00371458
0.003538881
0.00366756
0.003538876
0.003714603
0.003714612
0.003538885
0.003667671
0.003538878
0.003714635
0.003714645
0.00353905
0.003681218
0.003539175
0.003678264
0.003539165
0.003677901
0.003539157
0.003677587
0.003539146
0.003677389
0.003539157
0.003677568
0.003539148
0.003677391
0.003539158
0.0036776
0.003539151
0.003677415
0.003539158
0.003677628
0.003539153
0.003677435
0.003539159
0.003677652
0.003539155
0.003677455
0.003539159
0.003677672
0.003539157
0.003677468
0.00367769
0.003539163
0.00353917
0.003678264
0.003539162
0.0036779
0.003539154
0.003677588
0.003539145
0.00367739
0.003539155
0.003677572
0.003539148
0.003677396
0.003539157
0.003677613
0.003539153
0.00367743
0.00353916
0.003677657
0.003539158
0.003677467
0.003539163
0.003677705
0.003539163
0.003677509
0.003539166
0.003677757
0.003539168
0.003677554
0.003539169
0.003677814
0.003539174
0.003677602
0.003539173
0.003677876
0.003539181
0.003677655
0.003539177
0.003677944
0.003539188
0.003677713
0.003539181
0.003678017
0.003539196
0.003677773
0.003539186
0.003678095
0.003539205
0.003677838
0.00353919
0.003678177
0.003539214
0.003677905
0.003539195
0.003678261
0.003539225
0.003677974
0.0035392
0.003678348
0.003539234
0.003678049
0.003539206
0.003678437
0.003539246
0.003678123
0.003539211
0.003678525
0.003539257
0.003678193
0.003539216
0.003678613
0.003539267
0.003678268
0.003539221
0.003678701
0.003539278
0.003678339
0.003539226
0.003678787
0.003539288
0.003678409
0.00353923
0.00367887
0.003539299
0.003678476
0.003539235
0.00367895
0.003539309
0.003678539
0.003539239
0.003679027
0.003539319
0.003678601
0.003538885
0.003538881
0.003538884
0.00353888
0.003538884
0.00353888
0.003538884
0.00353888
0.003538884
0.00353888
0.003538884
0.00353888
0.003538884
0.00353888
0.003538884
0.00353888
0.00353887
0.00353888
0.003668488
0.003538831
0.003538837
0.003713996
0.003713828
0.003538837
0.003665945
0.003538832
0.003715314
0.003714368
0.003538831
0.003667941
0.003538835
0.003713885
0.003713809
0.003538954
0.003711983
0.003538958
0.003713741
0.003713784
0.003539164
0.003678601
0.003539163
0.003680486
0.00353916
0.003678603
0.003539158
0.00368051
0.003538867
0.003538876
0.003539154
0.003677634
0.003539152
0.003677708
0.003539152
0.003677569
0.003539153
0.003677372
0.003539153
0.003677597
0.003539157
0.003677387
0.003539154
0.003677625
0.00353916
0.003677411
0.003539155
0.00367765
0.003539163
0.003677431
0.003539155
0.00367767
0.003539164
0.00367745
0.003539155
0.003677687
0.003539165
0.003677465
0.003539151
0.003677632
0.003539145
0.003677708
0.003539148
0.00367757
0.003539144
0.003677375
0.00353915
0.003677606
0.003539147
0.003677394
0.003539152
0.003677648
0.003539151
0.003677429