/*--------------------------------*- C++ -*----------------------------------*\
  =========                 |
  \\      /  F ield         | OpenFOAM: The Open Source CFD Toolbox
   \\    /   O peration     | Website:  https://openfoam.org
    \\  /    A nd           | Version:  7
     \\/     M anipulation  |
\*---------------------------------------------------------------------------*/
FoamFile
{
    version     2.0;
    format      ascii;
    class       volVectorField;
    location    "0.06";
    object      U;
}
// * * * * * * * * * * * * * * * * * * * * * * * * * * * * * * * * * * * * * //

dimensions      [0 1 -1 0 0 0 0];

internalField   nonuniform List<vector> 
80136
(
(0.0003357266 -0.0003271007 5.971022e-07)
(0.0005282563 -0.0003213117 -4.208495e-07)
(0.0007309768 -0.0002886307 -2.961338e-06)
(0.000909491 -0.0002641495 -2.532184e-06)
(0.001069343 -0.0002217074 -3.285227e-06)
(0.001198603 -0.0001759408 -1.889429e-07)
(0.001294344 -0.0001181667 -7.581937e-07)
(0.0003607942 -0.00052733 -1.755801e-07)
(0.0005560374 -0.0005073984 3.182262e-07)
(0.0007717107 -0.0004718887 -6.963917e-06)
(0.0009608873 -0.0004238882 -4.009949e-06)
(0.001132607 -0.0003622004 -3.674469e-06)
(0.001274794 -0.0002872376 -2.328077e-06)
(0.001383601 -0.000195568 -1.581617e-06)
(0.0003704722 -0.0007601313 2.507914e-06)
(0.0005929741 -0.0007341035 7.0293e-06)
(0.0008212778 -0.0006835928 -8.483743e-07)
(0.001027466 -0.000617508 1.784862e-06)
(0.001217557 -0.0005294173 8.160863e-07)
(0.001377281 -0.0004229654 1.451488e-06)
(0.001505236 -0.0002938912 8.623012e-07)
(0.0003988391 -0.001000492 -3.431772e-06)
(0.0006398014 -0.000969952 5.278531e-06)
(0.0008880197 -0.0009067805 -3.646199e-06)
(0.001114689 -0.0008223257 -1.39381e-07)
(0.001327123 -0.0007118853 -7.403394e-07)
(0.001510527 -0.0005761858 9.39234e-08)
(0.001663823 -0.0004111543 -5.692987e-08)
(0.0004309425 -0.001266873 -4.076641e-06)
(0.0006957301 -0.001232793 6.610229e-06)
(0.0009685207 -0.001157639 -3.516842e-06)
(0.001222117 -0.001057111 3.667571e-07)
(0.001463768 -0.0009248582 -4.3655e-07)
(0.001678315 -0.0007607453 4.337017e-07)
(0.001865416 -0.0005597063 2.107142e-07)
(0.0004718853 -0.001553853 -5.422595e-06)
(0.0007611982 -0.001519547 6.531103e-06)
(0.001063368 -0.001433229 -4.325609e-06)
(0.00134712 -0.00131937 2.793284e-08)
(0.001623377 -0.001168646 -7.786253e-07)
(0.00187573 -0.0009799288 2.472489e-07)
(0.002105326 -0.0007462886 6.016342e-08)
(0.0005206892 -0.00187158 2.113082e-06)
(0.0008311538 -0.001836571 6.809493e-06)
(0.001168398 -0.001742686 -3.967406e-06)
(0.001486271 -0.001618756 1.701829e-07)
(0.001802967 -0.00145346 -7.017565e-07)
(0.00210053 -0.001244727 3.177385e-07)
(0.002381609 -0.0009829186 9.928546e-08)
(0.0005698086 -0.002217773 4.508842e-06)
(0.0009079095 -0.002183487 6.182163e-06)
(0.001280892 -0.002086497 -4.082148e-06)
(0.001635866 -0.001956862 5.798107e-08)
(0.001997095 -0.001783038 -7.46091e-07)
(0.002346044 -0.001561892 3.028286e-07)
(0.002687766 -0.00128073 1.12284e-07)
(0.0006151761 -0.002594681 8.825258e-06)
(0.0009842528 -0.002564757 6.587829e-06)
(0.001394732 -0.002468315 -3.957318e-06)
(0.001789224 -0.002338384 7.846942e-08)
(0.002197604 -0.002163218 -7.578494e-07)
(0.002602587 -0.001938801 3.265944e-07)
(0.003009919 -0.00165051 -3.341931e-08)
(0.0006628872 -0.003004706 1.124109e-05)
(0.001059556 -0.002980521 6.405341e-06)
(0.001506986 -0.002888525 -4.09584e-06)
(0.001940451 -0.002763812 -3.365109e-09)
(0.002396332 -0.002595604 -7.579612e-07)
(0.002858519 -0.002378964 4.397258e-07)
(0.003336115 -0.002099717 3.339053e-07)
(0.0007070219 -0.003444336 1.275345e-05)
(0.001129776 -0.003427986 6.783773e-06)
(0.001611174 -0.003345659 -4.317874e-06)
(0.002081656 -0.003232298 -6.697219e-08)
(0.002582123 -0.003080009 -8.555828e-07)
(0.003098252 -0.002883529 3.57374e-07)
(0.003642591 -0.002631901 1.645586e-07)
(0.000745383 -0.00391269 1.151377e-05)
(0.001192252 -0.003905683 7.537158e-06)
(0.001702439 -0.003836408 -4.736249e-06)
(0.002205658 -0.003739548 -1.199948e-07)
(0.002744801 -0.003610554 -8.941324e-07)
(0.003306424 -0.003444562 3.275017e-07)
(0.003908698 -0.003234275 3.93753e-07)
(0.0007751808 -0.00440245 6.823695e-06)
(0.001244905 -0.004407316 8.11086e-06)
(0.001777121 -0.004354705 -5.456448e-06)
(0.00230713 -0.004279024 -1.879782e-07)
(0.002876858 -0.004179157 -1.044058e-06)
(0.003474366 -0.00405169 2.180977e-07)
(0.004121145 -0.003892038 1.343774e-07)
(0.0007836888 -0.004908815 2.225128e-06)
(0.001284376 -0.004931867 1.01729e-05)
(0.0018306 -0.00489501 -5.880267e-06)
(0.002380912 -0.004843443 -1.213372e-07)
(0.002971945 -0.004776284 -1.100857e-06)
(0.003593424 -0.004692536 7.20795e-08)
(0.004269713 -0.004590245 1.405486e-07)
(0.0008006648 -0.005426274 -5.211072e-06)
(0.001309471 -0.005472368 9.468243e-06)
(0.00186549 -0.005448683 -6.747387e-06)
(0.002425652 -0.005423202 -2.859988e-07)
(0.003027635 -0.005390159 -1.287339e-06)
(0.003660327 -0.005352216 1.699076e-08)
(0.004349967 -0.005309522 -1.007458e-07)
(0.0008270879 -0.00595404 1.397246e-05)
(0.001315584 -0.006014618 1.016382e-05)
(0.001879796 -0.006008962 -5.646297e-06)
(0.00243933 -0.006008532 -1.962501e-07)
(0.003042865 -0.006009769 -1.259853e-06)
(0.003674021 -0.006017289 -2.154925e-07)
(0.00436147 -0.00603411 -1.27827e-07)
(0.0008216355 -0.006482357 6.457105e-06)
(0.00131367 -0.006552984 8.676568e-06)
(0.001871677 -0.006568045 -6.210375e-06)
(0.002424827 -0.006589675 -4.335623e-07)
(0.003018883 -0.006622879 -1.447818e-06)
(0.003635981 -0.006672094 -1.949183e-07)
(0.004305139 -0.00674502 -4.263489e-07)
(0.000801665 -0.007002116 -1.338075e-06)
(0.001297287 -0.007086875 8.032049e-06)
(0.001843251 -0.007117426 -7.049519e-06)
(0.002384558 -0.007159117 -8.068201e-07)
(0.002960491 -0.007219956 -1.719929e-06)
(0.003551911 -0.007305532 -7.818626e-07)
(0.004187391 -0.007428277 -6.728087e-07)
(0.0007853669 -0.007511605 8.535125e-07)
(0.00126873 -0.007610077 8.331121e-06)
(0.00179961 -0.007651979 -6.958896e-06)
(0.002322434 -0.007707358 -7.146448e-07)
(0.002872559 -0.007787526 -1.845686e-06)
(0.003427708 -0.007896797 -4.65564e-07)
(0.004014395 -0.008057617 -1.009702e-06)
(0.0007567402 -0.008010101 -5.206716e-06)
(0.00123425 -0.008118044 7.15637e-06)
(0.001746173 -0.008169295 -8.081175e-06)
(0.00224918 -0.008234225 -1.974861e-06)
(0.002771183 -0.008325827 -3.189681e-06)
(0.003281865 -0.00845019 -3.151971e-06)
(0.003805698 -0.008631676 -2.652374e-06)
(0.0007315465 -0.008489378 -4.271058e-06)
(0.001190606 -0.008606835 7.031983e-06)
(0.001683643 -0.008664351 -7.691943e-06)
(0.00216608 -0.008726542 -8.75966e-07)
(0.002656717 -0.008815816 -2.496055e-06)
(0.003121897 -0.008918179 4.468873e-07)
(0.003574255 -0.009096237 -2.249488e-06)
(0.0006882684 -0.008955165 -1.106388e-05)
(0.001146284 -0.009079941 5.678235e-06)
(0.001626616 -0.009145549 -1.064738e-05)
(0.002097844 -0.00920993 -7.121126e-06)
(0.002579558 -0.009285125 -9.158551e-06)
(0.003001425 -0.009378222 -1.645791e-05)
(0.003377993 -0.009489447 -1.093712e-05)
(0.0006382992 -0.009405791 -1.457499e-05)
(0.00109209 -0.009542851 9.22886e-06)
(0.001553761 -0.009615063 -7.887857e-06)
(0.002026502 -0.009655321 1.734923e-06)
(0.002488256 -0.009714949 -3.367234e-06)
(0.002917384 -0.009662548 1.581692e-05)
(0.003249129 -0.009716806 -6.316058e-06)
(0.0002891842 -3.810422e-05 2.180418e-05)
(0.0005021805 -2.864888e-05 5.298682e-05)
(0.0008395894 -4.2399e-05 2.347942e-05)
(0.001039885 -4.167657e-05 6.530205e-05)
(0.001237724 -1.834572e-05 4.461262e-05)
(0.001452725 -3.653409e-05 6.415806e-05)
(0.001602825 -1.217519e-05 4.85411e-05)
(0.001678061 -1.611373e-05 7.207069e-05)
(4.336205e-05 -0.000290681 -2.177357e-05)
(0.0003397363 -0.0003319524 -1.467127e-07)
(0.0005444514 -0.000310138 9.295109e-07)
(0.0007381782 -0.0002755536 -3.252162e-06)
(0.0009170761 -0.0002517135 -2.426446e-07)
(0.001080384 -0.0002145242 -2.727208e-06)
(0.001209814 -0.0001705665 -2.230353e-06)
(0.001306286 -0.0001151874 -1.613734e-06)
(2.85708e-05 -0.0004987306 -6.293102e-05)
(0.0003469309 -0.0005473449 2.356858e-07)
(0.000567347 -0.0005172965 1.275278e-06)
(0.0007712273 -0.0004833342 -4.579755e-06)
(0.0009640824 -0.0004325858 -2.6347e-06)
(0.001133552 -0.0003687458 -4.152094e-06)
(0.001275771 -0.0002940748 -2.970043e-06)
(0.001383979 -0.0001997375 -2.155643e-06)
(4.948561e-05 -0.0008627073 -3.534992e-05)
(0.000357178 -0.0007763586 4.482465e-06)
(0.0006063572 -0.0007343933 6.695807e-06)
(0.0008205606 -0.0006840464 7.192832e-07)
(0.00102995 -0.0006167458 1.894495e-06)
(0.001217599 -0.0005290342 -1.569261e-07)
(0.001377667 -0.0004224943 2.248597e-07)
(0.001505234 -0.0002935013 -1.144981e-07)
(5.737947e-05 -0.001211698 -4.417486e-05)
(0.0003828272 -0.001021761 2.791034e-06)
(0.0006573393 -0.0009725236 5.674671e-06)
(0.0008873289 -0.0009105212 1.751265e-07)
(0.001118458 -0.0008245368 1.470011e-06)
(0.001327899 -0.000713678 -5.387316e-07)
(0.001511825 -0.0005775041 8.891145e-08)
(0.00166509 -0.0004118156 -2.362923e-07)
(6.133724e-05 -0.001558856 -4.941803e-05)
(0.0004086207 -0.001287431 4.51827e-06)
(0.0007154952 -0.001233721 8.241074e-06)
(0.0009673258 -0.001159379 1.918747e-06)
(0.001226114 -0.001057755 3.280457e-06)
(0.001464514 -0.0009254249 8.908526e-07)
(0.001679758 -0.0007608577 1.41413e-06)
(0.001867042 -0.000559506 6.589985e-07)
(7.553635e-05 -0.00187758 -9.42345e-05)
(0.0004487515 -0.001570685 3.428564e-06)
(0.0007834359 -0.001521774 8.155842e-06)
(0.001062274 -0.001435023 1.818247e-06)
(0.001351664 -0.001320629 3.448122e-06)
(0.001624418 -0.001169693 9.468193e-07)
(0.00187757 -0.0009804439 1.590281e-06)
(0.00210764 -0.0007463164 7.589658e-07)
(7.904522e-05 -0.002306584 -8.161733e-05)
(0.0005053642 -0.001888589 2.816237e-06)
(0.000849021 -0.001839649 9.517438e-06)
(0.001167515 -0.001744079 2.199404e-06)
(0.001490621 -0.001620068 4.142196e-06)
(0.001804102 -0.001454522 1.398456e-06)
(0.002102608 -0.001245248 2.152295e-06)
(0.002384308 -0.0009829066 1.219889e-06)
(8.313245e-05 -0.002733924 -9.539625e-05)
(0.0005627578 -0.002242024 2.188249e-06)
(0.0009255979 -0.002186753 9.901283e-06)
(0.001280921 -0.002088368 2.140844e-06)
(0.001640339 -0.00195856 4.383942e-06)
(0.001998489 -0.001784462 1.446008e-06)
(0.002348425 -0.001562807 2.325992e-06)
(0.002691106 -0.001281083 1.285878e-06)
(9.864204e-05 -0.003243 -9.901758e-05)
(0.0006079331 -0.002623273 1.726829e-06)
(0.0009998972 -0.002567833 1.067552e-05)
(0.001394784 -0.002470476 2.14957e-06)
(0.001793607 -0.002340336 4.700347e-06)
(0.002199026 -0.002164906 1.507026e-06)
(0.002605106 -0.001940059 2.365248e-06)
(0.003013243 -0.001650995 1.117266e-06)
(0.000104638 -0.00374656 -0.0001205031)
(0.0006608865 -0.003041166 1.036611e-06)
(0.0010753 -0.002983838 1.152999e-05)
(0.001507523 -0.002891267 2.08627e-06)
(0.001945001 -0.002766113 4.930078e-06)
(0.002397924 -0.002597678 1.499706e-06)
(0.002861432 -0.002380691 2.428556e-06)
(0.003340136 -0.002100902 1.385872e-06)
(0.0001079972 -0.00427822 -0.0001471803)
(0.0007033049 -0.003489186 1.147425e-06)
(0.00114629 -0.003430563 1.249886e-05)
(0.001611666 -0.00334889 2.174422e-06)
(0.002086335 -0.003234836 5.146239e-06)
(0.002583649 -0.003082427 1.376527e-06)
(0.003101047 -0.002885736 2.101885e-06)
(0.00364605 -0.00263373 3.513908e-07)
(0.0001029562 -0.004819481 -0.0001748282)
(0.0007344179 -0.003968094 1.661098e-06)
(0.001211628 -0.003908207 1.309477e-05)
(0.001702512 -0.003840342 2.254124e-06)
(0.002210696 -0.003742357 5.303471e-06)
(0.002746317 -0.003613316 1.29835e-06)
(0.003309418 -0.003447118 1.990389e-06)
(0.00391232 -0.00323658 4.574089e-07)
(0.0001097191 -0.005457403 -0.0001805211)
(0.0007590583 -0.00446446 2.934704e-06)
(0.001269596 -0.004408685 1.384991e-05)
(0.001776908 -0.00435886 2.50629e-06)
(0.002312714 -0.004281973 5.483157e-06)
(0.002878317 -0.004182216 1.273596e-06)
(0.003477225 -0.004054676 1.80313e-06)
(0.004124259 -0.003894905 2.136054e-07)
(0.0001126326 -0.006135085 -0.0002032396)
(0.0007483215 -0.00497977 6.188343e-06)
(0.001312385 -0.004934445 1.455803e-05)
(0.001828768 -0.004899507 2.734404e-06)
(0.002386844 -0.004846719 5.622397e-06)
(0.002973186 -0.004779638 1.154073e-06)
(0.003596322 -0.004695783 1.715771e-06)
(0.004272719 -0.004593463 7.692685e-08)
(0.0001586178 -0.006731639 -0.0002947897)
(0.0007705241 -0.005481188 5.71561e-06)
(0.00134439 -0.005476068 1.460826e-05)
(0.001864334 -0.00545195 2.772466e-06)
(0.002432246 -0.005426718 5.702688e-06)
(0.003028967 -0.005393721 1.162839e-06)
(0.003663143 -0.005355877 1.582759e-06)
(0.004352733 -0.005313164 1.459932e-07)
(0.00012106 -0.007521645 -0.0002275533)
(0.0008071782 -0.006014204 3.971211e-06)
(0.001335701 -0.006019126 1.610432e-05)
(0.001877967 -0.006012171 2.535114e-06)
(0.002444922 -0.006012394 5.815583e-06)
(0.003043879 -0.006013644 9.496269e-07)
(0.003676752 -0.006021234 1.537271e-06)
(0.004364052 -0.006038205 -1.031108e-07)
(4.251477e-05 -0.007922815 -0.0002677709)
(0.0008056146 -0.006574044 5.067609e-06)
(0.001339967 -0.006558972 1.605382e-05)
(0.001871083 -0.006573309 2.582218e-06)
(0.002430771 -0.006594234 5.80968e-06)
(0.003020117 -0.006627349 9.797962e-07)
(0.00363857 -0.006676738 1.377464e-06)
(0.004307556 -0.00674972 2.353206e-08)
(0.0001263085 -0.008857477 -0.0002995035)
(0.0007890252 -0.007088312 5.977264e-06)
(0.001329362 -0.007091142 1.522441e-05)
(0.001842885 -0.00712229 2.438973e-06)
(0.002391009 -0.007163643 5.502993e-06)
(0.002961493 -0.007224684 5.906975e-07)
(0.003554461 -0.007310254 1.133837e-06)
(0.004189615 -0.007433472 -3.81371e-07)
(7.093832e-05 -0.00937038 -0.0003217528)
(0.0007681954 -0.007603861 6.030989e-06)
(0.001298483 -0.007614976 1.483153e-05)
(0.001798886 -0.007657373 2.558136e-06)
(0.002328634 -0.007712991 5.543155e-06)
(0.002873726 -0.00779354 9.493854e-07)
(0.003429925 -0.00790378 1.356984e-06)
(0.00401618 -0.008064506 4.927219e-08)
(0.0001169936 -0.01017303 -0.0003457145)
(0.000742228 -0.008107386 6.827846e-06)
(0.001267608 -0.008123498 1.343858e-05)
(0.001745258 -0.008174638 1.989707e-06)
(0.002255183 -0.00823917 4.336088e-06)
(0.002770995 -0.008331339 -7.881621e-08)
(0.003283682 -0.008454474 -2.668844e-07)
(0.003807655 -0.008638301 -7.179887e-07)
(8.107358e-05 -0.01072355 -0.0003637363)
(0.000724666 -0.008592712 7.315196e-06)
(0.001222669 -0.008612664 1.348367e-05)
(0.00168366 -0.00867171 3.095252e-06)
(0.002172315 -0.008736454 5.94234e-06)
(0.002658726 -0.008826592 1.857615e-06)
(0.003123151 -0.008935852 3.505012e-06)
(0.003573736 -0.00911022 6.475214e-07)
(9.779393e-05 -0.01148644 -0.0003540478)
(0.0006667426 -0.00906525 7.362396e-06)
(0.001179289 -0.00908251 1.03303e-05)
(0.001621894 -0.009150908 1.255297e-06)
(0.00210065 -0.009212856 9.696226e-07)
(0.002571827 -0.009291375 -1.049419e-06)
(0.003000156 -0.009369846 -7.479391e-06)
(0.003382297 -0.00949962 -6.00564e-07)
(0.001726786 -0.01195682 6.293624e-05)
(0.0005887476 -0.009527644 1.193372e-05)
(0.001127276 -0.009553553 1.230787e-05)
(0.001553699 -0.009627906 5.448314e-06)
(0.002032095 -0.009682455 1.070876e-05)
(0.002501817 -0.009742863 5.707859e-06)
(0.002914925 -0.009744243 2.155403e-05)
(0.003232103 -0.009758007 -1.535348e-07)
(0.0002783612 -3.310643e-05 -1.96318e-05)
(0.0005685878 -9.355745e-05 5.840062e-06)
(0.0007037896 -7.77606e-05 -2.390525e-05)
(0.0008981539 -8.345073e-05 -8.266895e-07)
(0.001040137 -6.797328e-05 -1.22862e-05)
(0.001168327 -5.434045e-05 -1.020872e-05)
(0.001259535 -3.664612e-05 -6.603569e-06)
(3.323187e-05 -0.000279848 1.892077e-05)
(0.0003190644 -0.0003090268 -4.61261e-07)
(0.0005285029 -0.0003050367 -1.256635e-05)
(0.0007378568 -0.0002572041 -1.551553e-05)
(0.0009202767 -0.0002435995 -1.203169e-05)
(0.001080673 -0.0002032793 -1.16082e-05)
(0.001213536 -0.0001608206 -1.100586e-05)
(0.001311161 -0.000108754 -7.154336e-06)
(0.000105001 -0.0005773327 -5.929543e-06)
(0.0003419383 -0.0005252211 1.529219e-05)
(0.00054851 -0.000498945 1.132791e-06)
(0.0007665625 -0.0004650214 -2.844391e-06)
(0.0009612045 -0.0004192174 -3.363611e-06)
(0.001132462 -0.0003574561 -4.83785e-06)
(0.001277096 -0.0002829078 -3.579727e-06)
(0.00138647 -0.0001926375 -2.609561e-06)
(0.0001058088 -0.0007577155 2.67779e-05)
(0.0003372057 -0.0007658963 2.007412e-05)
(0.0005857656 -0.0007287978 5.663453e-06)
(0.0008141144 -0.0006770192 1.455512e-06)
(0.001025975 -0.0006115992 -3.547369e-07)
(0.00121596 -0.0005240282 -1.556201e-06)
(0.001377665 -0.0004183136 -1.29791e-06)
(0.001506097 -0.0002904712 -9.297455e-07)
(0.0001264226 -0.001021705 1.372808e-05)
(0.0003732124 -0.001011427 2.409621e-05)
(0.0006332237 -0.0009689687 6.503662e-06)
(0.0008809433 -0.0009054799 4.019832e-06)
(0.001112926 -0.0008206072 1.464073e-06)
(0.00132574 -0.0007102623 3.719683e-09)
(0.001511317 -0.0005741945 2.644736e-07)
(0.001665524 -0.0004091733 5.863367e-08)
(0.0001332432 -0.001286645 1.84456e-05)
(0.0004008853 -0.00128078 2.827612e-05)
(0.0006885993 -0.001231425 8.843572e-06)
(0.000960278 -0.001156789 5.87734e-06)
(0.001219822 -0.001055689 3.014682e-06)
(0.001461963 -0.0009235499 1.310632e-06)
(0.001678876 -0.0007589764 1.478814e-06)
(0.001867287 -0.0005576613 9.656148e-07)
(0.0001503629 -0.001584509 1.416579e-05)
(0.0004439641 -0.001573674 3.099229e-05)
(0.0007545224 -0.001519616 9.976874e-06)
(0.001054969 -0.001434262 6.625154e-06)
(0.001344793 -0.001319574 3.580994e-06)
(0.001621629 -0.001168793 1.696715e-06)
(0.001876615 -0.0009792726 1.9129e-06)
(0.002108025 -0.00074482 1.267777e-06)
(0.0001646936 -0.001903866 1.24856e-05)
(0.0004867014 -0.001894794 2.67501e-05)
(0.0008253096 -0.001836417 1.267921e-05)
(0.001158809 -0.001744135 6.887479e-06)
(0.00148387 -0.001619335 4.388931e-06)
(0.001801095 -0.001454065 2.198826e-06)
(0.002101627 -0.001244456 2.529983e-06)
(0.002384923 -0.0009817578 1.872688e-06)
(0.0001843681 -0.002248776 1.872195e-05)
(0.0005359419 -0.002245365 2.769362e-05)
(0.0009022957 -0.002184247 1.546369e-05)
(0.001270614 -0.002088638 7.207389e-06)
(0.001633376 -0.001958187 4.924823e-06)
(0.001995086 -0.00178442 2.358256e-06)
(0.002347245 -0.001562528 2.790645e-06)
(0.002691804 -0.001280618 2.059753e-06)
(0.0001988955 -0.002620471 1.964648e-05)
(0.0005791923 -0.002626423 2.561255e-05)
(0.0009788001 -0.002565318 1.6921e-05)
(0.001383472 -0.002470734 7.230755e-06)
(0.001786556 -0.002340041 5.34809e-06)
(0.002195195 -0.002165025 2.442434e-06)
(0.002603516 -0.001939976 2.894088e-06)
(0.003013492 -0.001650746 1.903146e-06)
(0.0002144778 -0.003027403 2.489267e-05)
(0.0006234049 -0.003040402 2.567032e-05)
(0.001054375 -0.002981132 1.89224e-05)
(0.001494543 -0.002891082 7.380733e-06)
(0.001937579 -0.00276585 5.680181e-06)
(0.002393571 -0.002597918 2.463373e-06)
(0.002859587 -0.002380925 2.973615e-06)
(0.003340075 -0.002101421 2.219979e-06)
(0.0002265072 -0.003460379 2.21095e-05)
(0.0006626253 -0.003483926 2.675533e-05)
(0.001124109 -0.00342918 2.009086e-05)
(0.00159749 -0.003348259 7.690579e-06)
(0.002078304 -0.003234661 5.891161e-06)
(0.00257863 -0.003082696 2.301099e-06)
(0.003098235 -0.002886063 2.636926e-06)
(0.003644837 -0.002634385 1.062047e-06)
(0.0002363449 -0.00392047 1.209286e-05)
(0.0006974303 -0.003956455 2.99266e-05)
(0.001185563 -0.003907365 2.002471e-05)
(0.001687946 -0.003838988 8.016259e-06)
(0.00220188 -0.003742155 5.851085e-06)
(0.002740861 -0.0036134 2.181209e-06)
(0.003306395 -0.003447331 2.389316e-06)
(0.003910367 -0.003236516 1.082473e-06)
(0.0002452906 -0.004392678 2.341646e-05)
(0.0007239604 -0.004449736 3.650046e-05)
(0.001236634 -0.004409189 1.984071e-05)
(0.001761772 -0.004357293 8.857926e-06)
(0.002302827 -0.004281859 5.880743e-06)
(0.002872399 -0.004182297 2.107725e-06)
(0.003473957 -0.004054761 2.191445e-06)
(0.004122181 -0.003894995 6.93929e-07)
(0.0002443256 -0.004905726 3.905455e-05)
(0.0007314869 -0.004964963 4.071318e-05)
(0.001272575 -0.004934612 1.686089e-05)
(0.00181457 -0.004897991 9.068851e-06)
(0.002376061 -0.004846562 5.512214e-06)
(0.002967169 -0.004779637 1.922662e-06)
(0.003592853 -0.004695874 1.842172e-06)
(0.004270293 -0.004593289 4.455494e-07)
(0.0002527943 -0.005435922 3.472125e-05)
(0.000752494 -0.005491946 4.891005e-05)
(0.001297768 -0.00547431 1.860282e-05)
(0.001849337 -0.005452434 1.007115e-05)
(0.002420633 -0.00542652 5.764456e-06)
(0.003022571 -0.005393843 1.890863e-06)
(0.003659749 -0.005355805 1.75224e-06)
(0.00435037 -0.005313044 3.070652e-07)
(0.00025575 -0.005953434 5.66234e-06)
(0.0007635495 -0.006024689 3.247775e-05)
(0.001305912 -0.006016829 2.054469e-05)
(0.001862085 -0.006012889 8.766642e-06)
(0.002434384 -0.006012099 5.674021e-06)
(0.003037618 -0.006013638 1.588379e-06)
(0.003673376 -0.006021182 1.396326e-06)
(0.004361707 -0.006037924 4.526992e-08)
(0.0002603964 -0.006470648 3.865679e-05)
(0.0007627983 -0.006558527 4.078305e-05)
(0.001302927 -0.006557856 2.203932e-05)
(0.001854025 -0.00657192 9.447724e-06)
(0.002419872 -0.006593845 5.923154e-06)
(0.003013446 -0.006627145 1.506673e-06)
(0.003635418 -0.006676472 1.314998e-06)
(0.004305248 -0.00674937 -1.5109e-07)
(0.0002545727 -0.006975197 4.398856e-05)
(0.0007495342 -0.007083287 4.685724e-05)
(0.00128533 -0.007092404 2.067295e-05)
(0.001826288 -0.007121481 9.683154e-06)
(0.002379373 -0.007163504 5.396231e-06)
(0.00295517 -0.00722417 1.121508e-06)
(0.003551304 -0.00730988 6.616225e-07)
(0.00418755 -0.007432716 -5.367761e-07)
(0.0002489448 -0.00749158 3.329048e-05)
(0.000734575 -0.007600755 4.439524e-05)
(0.001257017 -0.00761641 1.96997e-05)
(0.001783294 -0.007656699 9.53893e-06)
(0.00231759 -0.007712891 5.325394e-06)
(0.002867441 -0.007792656 1.200389e-06)
(0.003427165 -0.007902789 8.091887e-07)
(0.004014166 -0.008062782 -6.167627e-07)
(0.0002401075 -0.007976197 3.553795e-05)
(0.0007117961 -0.008103366 4.833807e-05)
(0.001221164 -0.008124175 1.777368e-05)
(0.001730311 -0.008173327 8.977359e-06)
(0.002243956 -0.00823859 3.76896e-06)
(0.002765761 -0.008329851 9.375992e-08)
(0.003281554 -0.008453302 -1.017714e-06)
(0.003806422 -0.008636516 -1.243941e-06)
(0.0002310022 -0.008455561 3.304406e-05)
(0.0006871149 -0.008590116 4.654215e-05)
(0.001178373 -0.008615042 1.732263e-05)
(0.001669497 -0.008669874 9.811913e-06)
(0.002161708 -0.008734798 5.016208e-06)
(0.002653278 -0.008821926 1.652098e-06)
(0.003120898 -0.00893045 1.044497e-06)
(0.003571956 -0.009101741 -7.635181e-07)
(0.0002146263 -0.008896978 1.898535e-05)
(0.0006522536 -0.009057214 4.730667e-05)
(0.001132159 -0.009086682 1.201027e-05)
(0.001611187 -0.009148412 7.647352e-06)
(0.002092522 -0.009210993 3.954612e-07)
(0.002570625 -0.009287562 -8.357803e-07)
(0.003002044 -0.009368119 -4.54334e-06)
(0.00338353 -0.009497481 2.232646e-07)
(0.0001929426 -0.009368147 1.389982e-05)
(0.0006063831 -0.00951614 4.983216e-05)
(0.001077463 -0.009551719 1.02852e-05)
(0.001545883 -0.009620799 1.147732e-05)
(0.002023218 -0.009672382 7.15652e-06)
(0.002496645 -0.009722187 4.988817e-06)
(0.002911131 -0.009715489 5.442968e-06)
(0.003229317 -0.009721186 -1.150264e-06)
(0.0002795472 -2.618411e-05 -3.465236e-06)
(0.0005906548 -8.344009e-05 1.472694e-06)
(0.0007082926 -6.748348e-05 -6.251763e-06)
(0.0009105875 -7.78413e-05 -2.318783e-06)
(0.001052317 -6.242768e-05 -3.986417e-06)
(0.001183386 -5.073498e-05 -1.526838e-06)
(0.001273115 -3.332484e-05 -2.098491e-06)
(2.631592e-05 -0.0002843417 1.954742e-06)
(0.0003184324 -0.0003085183 4.911293e-07)
(0.0005279654 -0.0003066298 -1.37638e-06)
(0.0007385189 -0.0002530879 -2.139901e-06)
(0.0009197685 -0.0002394712 -6.379399e-07)
(0.001078872 -0.0001994971 -1.489065e-06)
(0.001211474 -0.0001588877 -7.630319e-07)
(0.001308278 -0.0001062127 -5.609044e-07)
(9.587836e-05 -0.0006072709 -8.296181e-07)
(0.0003437373 -0.000525851 1.855913e-06)
(0.0005480114 -0.0004984565 4.811548e-07)
(0.0007666691 -0.0004640216 -8.776997e-07)
(0.0009615157 -0.0004186241 -3.757855e-07)
(0.00113226 -0.0003563584 -1.176712e-06)
(0.001276697 -0.0002822487 -4.987746e-07)
(0.001385738 -0.0001917863 -3.835305e-07)
(9.356998e-05 -0.0007672664 7.86952e-06)
(0.0003317833 -0.0007684842 3.320639e-06)
(0.0005845626 -0.0007300123 2.091458e-06)
(0.0008138727 -0.0006772083 6.856764e-07)
(0.001026303 -0.0006114099 6.937876e-07)
(0.001215824 -0.0005234449 -3.085904e-08)
(0.001377482 -0.0004177144 3.201521e-07)
(0.001505823 -0.0002895636 3.725133e-07)
(0.000120532 -0.001039487 2.949323e-07)
(0.0003720679 -0.001013893 1.835126e-06)
(0.0006333061 -0.0009705743 1.578115e-06)
(0.0008812216 -0.0009066871 9.110105e-07)
(0.001113638 -0.000821147 9.413791e-07)
(0.001326079 -0.0007103656 2.331859e-07)
(0.001511635 -0.000573868 6.725639e-07)
(0.001666061 -0.0004083846 6.537893e-07)
(0.0001252155 -0.001296463 2.594374e-06)
(0.000398172 -0.001280423 2.771827e-06)
(0.0006882763 -0.001231482 2.853984e-06)
(0.0009601628 -0.001157633 1.778084e-06)
(0.001220587 -0.001055969 1.828628e-06)
(0.001462449 -0.0009235728 9.679405e-07)
(0.001679603 -0.0007584644 1.428903e-06)
(0.001868553 -0.0005565593 1.328768e-06)
(0.0001388894 -0.00159561 5.551471e-06)
(0.0004371559 -0.001572355 2.992472e-06)
(0.0007537993 -0.001519268 3.489291e-06)
(0.001054291 -0.001435168 1.975138e-06)
(0.001345639 -0.00131995 2.106088e-06)
(0.001622259 -0.001169013 1.123688e-06)
(0.00187765 -0.0009789069 1.704928e-06)
(0.002109963 -0.0007437098 1.585538e-06)
(0.0001511432 -0.001916225 9.48334e-06)
(0.0004758199 -0.001891954 3.346449e-06)
(0.0008236407 -0.001835575 4.569874e-06)
(0.001157324 -0.001744852 2.312432e-06)
(0.001484664 -0.001619665 2.577578e-06)
(0.001801689 -0.001454339 1.430138e-06)
(0.002102936 -0.001244122 2.137911e-06)
(0.002387481 -0.000980593 2.071979e-06)
(0.0001662709 -0.00226832 1.542175e-05)
(0.0005195668 -0.00224266 4.392418e-06)
(0.0008992803 -0.00218405 5.73459e-06)
(0.001268156 -0.00208951 2.525455e-06)
(0.001633994 -0.001958717 2.825116e-06)
(0.001995628 -0.00178491 1.489683e-06)
(0.002348735 -0.001562464 2.329415e-06)
(0.002694925 -0.001279898 2.293633e-06)
(0.0001801905 -0.002648905 1.562814e-05)
(0.000562252 -0.002624301 4.113524e-06)
(0.0009752443 -0.002565943 6.178036e-06)
(0.001380662 -0.002471833 2.551125e-06)
(0.001787053 -0.002340786 3.013331e-06)
(0.002195579 -0.002165629 1.489671e-06)
(0.002604931 -0.001940133 2.365216e-06)
(0.003016418 -0.001650129 2.204768e-06)
(0.0001943384 -0.00306104 1.689645e-05)
(0.0006049421 -0.003038372 3.929437e-06)
(0.001050272 -0.002982197 6.431044e-06)
(0.001491391 -0.002892293 2.415084e-06)
(0.001938018 -0.002766787 2.993814e-06)
(0.002393897 -0.002598728 1.362402e-06)
(0.0028612 -0.002381408 2.316448e-06)
(0.003343424 -0.002101511 2.358946e-06)
(0.0002064664 -0.00350102 1.670585e-05)
(0.0006437526 -0.003482428 3.700005e-06)
(0.001119939 -0.003430909 6.576371e-06)
(0.00159427 -0.003349614 2.386264e-06)
(0.002078577 -0.003235816 2.963939e-06)
(0.002578722 -0.003083608 1.127462e-06)
(0.003099368 -0.002886891 1.931643e-06)
(0.003647111 -0.002635004 1.493819e-06)
(0.0002165261 -0.003970922 1.570033e-05)
(0.0006778554 -0.00395482 2.980307e-06)
(0.001181824 -0.003909742 5.958056e-06)
(0.001684877 -0.003840321 2.052795e-06)
(0.002202212 -0.00374338 2.640791e-06)
(0.002740862 -0.003614322 8.060434e-07)
(0.003307481 -0.003448151 1.541429e-06)
(0.003912405 -0.003237254 1.161622e-06)
(0.0002262009 -0.004461744 1.381865e-05)
(0.0007080031 -0.004448948 3.734347e-06)
(0.001233337 -0.004412944 5.700316e-06)
(0.001759288 -0.004358686 2.167502e-06)
(0.00230305 -0.004283121 2.475526e-06)
(0.002872364 -0.004183137 5.80657e-07)
(0.003474639 -0.00405575 1.157748e-06)
(0.004123469 -0.003895909 6.648026e-07)
(0.0002325651 -0.004968658 -1.132828e-06)
(0.0007299537 -0.004961954 1.642378e-06)
(0.00127118 -0.004936446 3.524323e-06)
(0.001813659 -0.004898895 1.584785e-06)
(0.002376588 -0.004847392 1.976305e-06)
(0.002967053 -0.004780329 1.868353e-07)
(0.003593428 -0.004696606 6.7343e-07)
(0.004271129 -0.004594153 1.57872e-07)
(0.0002364685 -0.005484823 5.999854e-06)
(0.0007436437 -0.005484652 3.041397e-06)
(0.001295773 -0.005472693 4.492332e-06)
(0.001847628 -0.005452637 1.778147e-06)
(0.00242083 -0.005426857 1.921186e-06)
(0.003022367 -0.005394321 -3.789109e-08)
(0.003659971 -0.005356566 3.374015e-07)
(0.004350825 -0.005313802 -1.858104e-07)
(0.0002370738 -0.006014544 1.240733e-05)
(0.0007456567 -0.006016518 1.883087e-06)
(0.001302931 -0.006015677 5.004235e-06)
(0.001859131 -0.006012892 1.325182e-06)
(0.002434507 -0.006012292 1.652881e-06)
(0.003036957 -0.006014094 -4.61837e-07)
(0.003673518 -0.006021745 -1.651197e-07)
(0.00436177 -0.00603879 -7.255081e-07)
(0.0002387717 -0.006546457 1.389452e-05)
(0.0007464299 -0.00655174 3.681666e-06)
(0.001299385 -0.006558652 5.571596e-06)
(0.001850972 -0.006572155 1.473462e-06)
(0.0024196 -0.006594367 1.481305e-06)
(0.003012865 -0.006627727 -7.650357e-07)
(0.003635183 -0.006677445 -5.600768e-07)
(0.004305095 -0.006750358 -1.1844e-06)
(0.0002357082 -0.007063665 9.53857e-06)
(0.0007376573 -0.007076394 3.273417e-06)
(0.001282662 -0.007093113 4.43575e-06)
(0.001823671 -0.007121765 8.423903e-07)
(0.002379245 -0.007163932 6.294779e-07)
(0.002954145 -0.007224786 -1.604388e-06)
(0.003551088 -0.007310688 -1.5587e-06)
(0.004187097 -0.007434019 -2.093991e-06)
(0.0002299107 -0.00757637 9.804666e-06)
(0.00072122 -0.007593223 2.818807e-06)
(0.001254377 -0.007617332 4.017985e-06)
(0.001780684 -0.007657536 5.773435e-07)
(0.002317168 -0.007714266 2.847195e-07)
(0.002866652 -0.007794393 -1.869739e-06)
(0.003426402 -0.00790551 -1.899691e-06)
(0.004013296 -0.008065455 -2.62313e-06)
(0.0002228393 -0.008075983 5.58787e-06)
(0.0007011136 -0.008095509 1.319338e-06)
(0.001218891 -0.008125177 1.925752e-06)
(0.00172748 -0.008173746 -1.244162e-06)
(0.002243187 -0.008239159 -2.103806e-06)
(0.002763632 -0.00833084 -4.217528e-06)
(0.003280608 -0.00845451 -4.897036e-06)
(0.003805443 -0.008639046 -4.931358e-06)
(0.0002144821 -0.008559131 5.467438e-06)
(0.0006767188 -0.008583097 1.153854e-06)
(0.001176833 -0.008617768 1.73282e-06)
(0.001667645 -0.008672585 -7.173928e-07)
(0.002161044 -0.008739914 -1.253561e-06)
(0.002652146 -0.00882803 -3.207744e-06)
(0.003118845 -0.00894048 -3.392136e-06)
(0.003569222 -0.00911016 -4.834953e-06)
(0.0002029089 -0.009022699 -3.672306e-06)
(0.0006472938 -0.009050151 -1.90733e-06)
(0.001130208 -0.009088872 -2.60875e-06)
(0.001606402 -0.009148833 -4.896078e-06)
(0.002088768 -0.009211053 -8.040172e-06)