/*--------------------------------*- C++ -*----------------------------------*\
  =========                 |
  \\      /  F ield         | OpenFOAM: The Open Source CFD Toolbox
   \\    /   O peration     | Website:  https://openfoam.org
    \\  /    A nd           | Version:  7
     \\/     M anipulation  |
\*---------------------------------------------------------------------------*/
FoamFile
{
    version     2.0;
    format      ascii;
    class       volScalarField;
    location    "0.05";
    object      epsilon;
}
// * * * * * * * * * * * * * * * * * * * * * * * * * * * * * * * * * * * * * //

dimensions      [0 2 -3 0 0 0 0];

internalField   nonuniform List<scalar> 
109978
(
0.001921793
0.0019754
0.001980146
0.001980665
0.001980617
0.001980025
0.001975756
0.002079877
0.002090332
0.002091605
0.002091542
0.002090629
0.001980534
0.002090457
0.002102445
0.002104073
0.002104021
0.002102915
0.001981041
0.002091826
0.00210417
0.002105963
0.002105946
0.002104775
0.001981157
0.002092091
0.002104586
0.002106445
0.002106441
0.00210525
0.001981173
0.002092191
0.002104703
0.002106592
0.002106606
0.00210541
0.001981177
0.002092217
0.002104749
0.002106655
0.002106673
0.002105476
0.001981182
0.002092227
0.002104764
0.002106675
0.002106699
0.002105502
0.001981183
0.002092231
0.002104769
0.002106684
0.00210671
0.002105513
0.001981182
0.002092233
0.002104772
0.002106688
0.002106715
0.002105519
0.001981183
0.002092233
0.002104772
0.00210669
0.002106718
0.00210552
0.001981183
0.002092234
0.002104772
0.00210669
0.002106719
0.002105521
0.001981182
0.002092234
0.002104772
0.00210669
0.002106719
0.002105521
0.001981183
0.002092233
0.002104771
0.00210669
0.002106718
0.002105521
0.001981182
0.002092233
0.00210477
0.002106689
0.002106717
0.00210552
0.001981182
0.002092232
0.002104769
0.002106687
0.002106715
0.002105518
0.001981182
0.00209223
0.002104766
0.002106683
0.002106709
0.002105514
0.001981179
0.002092226
0.002104759
0.002106674
0.0021067
0.002105504
0.001981175
0.002092213
0.00210474
0.002106651
0.002106673
0.002105478
0.00198116
0.002092174
0.002104681
0.00210658
0.002106598
0.002105402
0.001981099
0.002092018
0.002104467
0.002106336
0.002106345
0.002105154
0.001980827
0.002091466
0.00210376
0.002105561
0.002105568
0.002104421
0.01139165
0.002090274
0.002102321
0.002104021
0.002104067
0.002103099
0.002110014
0.002111996
0.002111753
0.002111692
0.002111677
0.002111574
0.01139812
0.01139192
0.01139185
0.01139185
0.01139185
0.01139185
0.0113975
0.0113918
0.01139177
0.01139176
0.01139175
0.01139176
0.01139747
0.0113918
0.01139177
0.01139175
0.01139175
0.01139175
0.01139746
0.0113918
0.01139177
0.01139175
0.01139175
0.01139175
0.01139747
0.0113918
0.01139177
0.01139175
0.01139175
0.01139175
0.01139746
0.0113918
0.01139177
0.01139175
0.01139175
0.01139175
0.01139746
0.0113918
0.01139177
0.01139175
0.01139175
0.01139175
0.01139746
0.0113918
0.01139177
0.01139175
0.01139175
0.01139175
0.01139746
0.0113918
0.01139177
0.01139175
0.01139175
0.01139175
0.01139746
0.0113918
0.01139177
0.01139175
0.01139175
0.01139175
0.01139746
0.0113918
0.01139177
0.01139175
0.01139175
0.01139175
0.01139746
0.0113918
0.01139177
0.01139175
0.01139175
0.01139175
0.01139746
0.0113918
0.01139177
0.01139175
0.01139175
0.01139175
0.01139746
0.0113918
0.01139177
0.01139175
0.01139175
0.01139175
0.01139746
0.0113918
0.01139177
0.01139175
0.01139175
0.01139175
0.01139746
0.0113918
0.01139177
0.01139175
0.01139175
0.01139175
0.01139746
0.0113918
0.01139177
0.01139175
0.01139175
0.01139175
0.01139746
0.0113918
0.01139177
0.01139175
0.01139175
0.01139175
0.01139746
0.0113918
0.01139177
0.01139175
0.01139175
0.01139175
0.01139746
0.0113918
0.01139177
0.01139175
0.01139175
0.01139175
0.01139746
0.0113918
0.01139177
0.01139175
0.01139175
0.01139175
0.01139746
0.0113918
0.01139177
0.01139175
0.01139175
0.01139175
0.01139746
0.0113918
0.01139177
0.01139175
0.01139175
0.01139175
0.00210653
0.002111417
0.002110911
0.002110691
0.002110673
0.002110706
0.01139743
0.01139179
0.01139176
0.01139176
0.01139176
0.01139176
0.01139663
0.01139173
0.01139171
0.01139169
0.01139168
0.01139168
0.01139662
0.01139175
0.01139172
0.0113917
0.01139168
0.01139167
0.01139661
0.01139175
0.01139173
0.0113917
0.01139168
0.01139168
0.01139661
0.01139175
0.01139173
0.0113917
0.01139168
0.01139168
0.01139661
0.01139175
0.01139173
0.0113917
0.01139168
0.01139168
0.01139661
0.01139175
0.01139173
0.0113917
0.01139168
0.01139168
0.01139661
0.01139175
0.01139173
0.0113917
0.01139168
0.01139168
0.01139661
0.01139175
0.01139173
0.0113917
0.01139168
0.01139168
0.01139661
0.01139175
0.01139173
0.0113917
0.01139168
0.01139168
0.01139661
0.01139175
0.01139173
0.0113917
0.01139168
0.01139168
0.01139661
0.01139175
0.01139173
0.0113917
0.01139168
0.01139168
0.01139661
0.01139175
0.01139173
0.0113917
0.01139168
0.01139168
0.01139661
0.01139175
0.01139173
0.0113917
0.01139168
0.01139168
0.01139661
0.01139175
0.01139173
0.0113917
0.01139168
0.01139168
0.01139661
0.01139175
0.01139173
0.0113917
0.01139168
0.01139168
0.01139661
0.01139175
0.01139173
0.0113917
0.01139168
0.01139168
0.01139661
0.01139175
0.01139173
0.0113917
0.01139168
0.01139168
0.01139661
0.01139175
0.01139173
0.0113917
0.01139168
0.01139168
0.01139661
0.01139175
0.01139173
0.0113917
0.01139168
0.01139168
0.01139661
0.01139175
0.01139173
0.0113917
0.01139168
0.01139168
0.01139661
0.01139175
0.01139173
0.0113917
0.01139168
0.01139168
0.01139661
0.01139175
0.01139173
0.0113917
0.01139168
0.01139168
0.002106097
0.002110877
0.002110249
0.002109975
0.002109953
0.00211005
0.01139744
0.01139177
0.01139175
0.01139175
0.01139175
0.01139175
0.01139662
0.01139171
0.0113917
0.01139169
0.01139168
0.01139168
0.01139662
0.01139172
0.01139171
0.01139169
0.01139168
0.01139167
0.01139661
0.01139172
0.01139171
0.0113917
0.01139168
0.01139168
0.01139661
0.01139172
0.01139171
0.0113917
0.01139169
0.01139168
0.01139661
0.01139172
0.01139171
0.0113917
0.01139169
0.01139168
0.01139661
0.01139172
0.01139171
0.0113917
0.01139169
0.01139168
0.01139661
0.01139172
0.01139171
0.0113917
0.01139169
0.01139168
0.01139661
0.01139172
0.01139171
0.0113917
0.01139169
0.01139168
0.01139661
0.01139172
0.01139171
0.0113917
0.01139169
0.01139168
0.01139661
0.01139172
0.01139171
0.0113917
0.01139169
0.01139168
0.01139661
0.01139172
0.01139171
0.0113917
0.01139169
0.01139168
0.01139661
0.01139172
0.01139171
0.0113917
0.01139169
0.01139168
0.01139661
0.01139172
0.01139171
0.0113917
0.01139169
0.01139168
0.01139661
0.01139172
0.01139171
0.0113917
0.01139169
0.01139168
0.01139661
0.01139172
0.01139171
0.0113917
0.01139169
0.01139168
0.01139661
0.01139172
0.01139171
0.0113917
0.01139169
0.01139168
0.01139661
0.01139172
0.01139171
0.0113917
0.01139169
0.01139168
0.01139661
0.01139172
0.01139171
0.0113917
0.01139169
0.01139168
0.01139661
0.01139172
0.01139171
0.0113917
0.01139169
0.01139168
0.01139661
0.01139172
0.01139171
0.0113917
0.01139169
0.01139168
0.01139661
0.01139172
0.01139171
0.0113917
0.01139169
0.01139168
0.01139661
0.01139172
0.01139171
0.0113917
0.01139169
0.01139168
0.002105973
0.002110717
0.002110042
0.002109729
0.002109696
0.002109807
0.01139744
0.01139176
0.01139174
0.01139175
0.01139175
0.01139175
0.01139661
0.01139169
0.01139169
0.01139169
0.01139168
0.01139168
0.01139661
0.0113917
0.01139169
0.01139169
0.01139168
0.01139168
0.01139659
0.01139169
0.01139169
0.01139169
0.01139168
0.01139168
0.0113966
0.0113917
0.01139169
0.01139169
0.01139168
0.01139168
0.01139659
0.01139169
0.01139169
0.01139169
0.01139168
0.01139168
0.01139659
0.01139169
0.01139169
0.01139169
0.01139168
0.01139168
0.01139659
0.01139169
0.01139169
0.01139169
0.01139168
0.01139168
0.01139659
0.01139169
0.01139169
0.01139169
0.01139168
0.01139168
0.01139659
0.01139169
0.01139169
0.01139169
0.01139168
0.01139168
0.01139659
0.01139169
0.01139169
0.01139169
0.01139168
0.01139168
0.01139659
0.01139169
0.01139169
0.01139169
0.01139168
0.01139168
0.01139659
0.01139169
0.01139169
0.01139169
0.01139168
0.01139168
0.01139659
0.01139169
0.01139169
0.01139169
0.01139168
0.01139168
0.01139659
0.01139169
0.01139169
0.01139169
0.01139168
0.01139168
0.01139659
0.01139169
0.01139169
0.01139169
0.01139168
0.01139168
0.01139659
0.01139169
0.01139169
0.01139169
0.01139168
0.01139168
0.01139659
0.01139169
0.01139169
0.01139169
0.01139168
0.01139168
0.01139659
0.01139169
0.01139169
0.01139169
0.01139168
0.01139168
0.01139659
0.01139169
0.01139169
0.01139169
0.01139168
0.01139168
0.01139659
0.01139169
0.01139169
0.01139169
0.01139168
0.01139168
0.01139659
0.01139169
0.01139169
0.01139169
0.01139168
0.01139168
0.01139659
0.01139169
0.01139169
0.01139169
0.01139168
0.01139168
0.002105986
0.002110709
0.002110013
0.002109713
0.002109679
0.002109794
0.01139744
0.01139176
0.01139174
0.01139175
0.01139175
0.01139175
0.01139661
0.01139169
0.01139169
0.01139169
0.01139168
0.01139168
0.01139661
0.0113917
0.01139169
0.01139169
0.01139168
0.01139168
0.01139659
0.01139169
0.01139169
0.01139169
0.01139168
0.01139168
0.01139659
0.0113917
0.01139169
0.01139169
0.01139168
0.01139168
0.01139659
0.01139169
0.01139169
0.01139169
0.01139168
0.01139168
0.01139659
0.01139169
0.01139169
0.01139169
0.01139168
0.01139168
0.01139659
0.01139169
0.01139169
0.01139169
0.01139168
0.01139168
0.01139659
0.01139169
0.01139169
0.01139169
0.01139168
0.01139168
0.01139659
0.01139169
0.01139169
0.01139169
0.01139168
0.01139168
0.01139659
0.01139169
0.01139169
0.01139169
0.01139168
0.01139168
0.01139659
0.01139169
0.01139169
0.01139169
0.01139168
0.01139168
0.01139659
0.01139169
0.01139169
0.01139169
0.01139168
0.01139168
0.01139659
0.01139169
0.01139169
0.01139169
0.01139168
0.01139168
0.01139659
0.01139169
0.01139169
0.01139169
0.01139168
0.01139168
0.01139659
0.01139169
0.01139169
0.01139169
0.01139168
0.01139168
0.01139659
0.01139169
0.01139169
0.01139169
0.01139168
0.01139168
0.01139659
0.01139169
0.01139169
0.01139169
0.01139168
0.01139168
0.01139659
0.01139169
0.01139169
0.01139169
0.01139168
0.01139168
0.01139659
0.01139169
0.01139169
0.01139169
0.01139168
0.01139168
0.01139659
0.01139169
0.01139169
0.01139169
0.01139168
0.01139168
0.01139659
0.01139169
0.01139169
0.01139169
0.01139168
0.01139168
0.01139659
0.01139169
0.01139169
0.01139169
0.01139168
0.01139168
0.002105983
0.002110776
0.002110111
0.002109829
0.002109816
0.002109925
0.01139744
0.01139177
0.01139175
0.01139175
0.01139175
0.01139175
0.01139662
0.01139171
0.0113917
0.01139169
0.01139168
0.01139168
0.01139661
0.01139171
0.0113917
0.01139169
0.01139168
0.01139167
0.0113966
0.01139171
0.01139171
0.01139169
0.01139168
0.01139168
0.01139661
0.01139171
0.01139171
0.01139169
0.01139168
0.01139168
0.0113966
0.01139171
0.01139171
0.0113917
0.01139168
0.01139168
0.0113966
0.01139171
0.01139171
0.0113917
0.01139168
0.01139168
0.0113966
0.01139171
0.01139171
0.0113917
0.01139168
0.01139168
0.0113966
0.01139171
0.01139171
0.0113917
0.01139168
0.01139168
0.0113966
0.01139171
0.01139171
0.0113917
0.01139168
0.01139168
0.0113966
0.01139171
0.01139171
0.0113917
0.01139168
0.01139168
0.0113966
0.01139171
0.01139171
0.0113917
0.01139168
0.01139168
0.0113966
0.01139171
0.01139171
0.0113917
0.01139168
0.01139168
0.0113966
0.01139171
0.01139171
0.0113917
0.01139168
0.01139168
0.0113966
0.01139171
0.01139171
0.0113917
0.01139168
0.01139168
0.0113966
0.01139171
0.01139171
0.0113917
0.01139168
0.01139168
0.0113966
0.01139171
0.01139171
0.0113917
0.01139168
0.01139168
0.0113966
0.01139171
0.01139171
0.0113917
0.01139168
0.01139168
0.0113966
0.01139171
0.01139171
0.0113917
0.01139168
0.01139168
0.0113966
0.01139171
0.01139171
0.01139169
0.01139168
0.01139168
0.0113966
0.01139171
0.0113917
0.01139169
0.01139168
0.01139168
0.0113966
0.01139171
0.0113917
0.01139169
0.01139168
0.01139168
0.0113966
0.01139171
0.0113917
0.01139169
0.01139168
0.01139168
0.002106214
0.002111277
0.002110764
0.002110513
0.002110499
0.002110574
0.01139744
0.01139179
0.01139176
0.01139176
0.01139176
0.01139176
0.01139663
0.01139172
0.01139171
0.01139169
0.01139168
0.01139168
0.01139662
0.01139174
0.01139171
0.01139169
0.01139168
0.01139168
0.0113966
0.01139174
0.01139172
0.01139169
0.01139168
0.01139168
0.0113966
0.01139174
0.01139172
0.01139169
0.01139168
0.01139168
0.01139659
0.01139174
0.01139172
0.01139169
0.01139168
0.01139168
0.01139659
0.01139174
0.01139172
0.01139169
0.01139168
0.01139168
0.01139659
0.01139174
0.01139172
0.01139169
0.01139168
0.01139168
0.01139659
0.01139174
0.01139172
0.01139169
0.01139168
0.01139168
0.01139659
0.01139174
0.01139172
0.01139169
0.01139168
0.01139168
0.01139659
0.01139174
0.01139172
0.01139169
0.01139168
0.01139168
0.01139659
0.01139174
0.01139172
0.01139169
0.01139168
0.01139168
0.01139659
0.01139174
0.01139172
0.01139169
0.01139168
0.01139168
0.01139659
0.01139174
0.01139172
0.01139169
0.01139168
0.01139168
0.01139659
0.01139174
0.01139172
0.01139169
0.01139168
0.01139168
0.01139659
0.01139174
0.01139172
0.01139169
0.01139168
0.01139168
0.01139659
0.01139174
0.01139172
0.01139169
0.01139168
0.01139168
0.01139659
0.01139174
0.01139172
0.01139169
0.01139168
0.01139168
0.01139659
0.01139174
0.01139172
0.01139169
0.01139168
0.01139168
0.01139659
0.01139174
0.01139172
0.01139169
0.01139168
0.01139168
0.01139659
0.01139174
0.01139172
0.01139169
0.01139168
0.01139168
0.01139659
0.01139174
0.01139172
0.01139169
0.01139168
0.01139168
0.01139659
0.01139174
0.01139171
0.01139169
0.01139168
0.01139168
0.002105029
0.002107945
0.002107569
0.002107429
0.002107415
0.002107384
0.0113976
0.0113919
0.01139185
0.01139185
0.01139185
0.01139185
0.0113968
0.01139178
0.01139176
0.01139175
0.01139175
0.01139175
0.01139682
0.01139178
0.01139175
0.01139175
0.01139175
0.01139175
0.01139679
0.01139177
0.01139175
0.01139175
0.01139175
0.01139175
0.01139679
0.01139177
0.01139175
0.01139175
0.01139175
0.01139175
0.01139679
0.01139177
0.01139175
0.01139175
0.01139175
0.01139175
0.01139679
0.01139177
0.01139175
0.01139175
0.01139175
0.01139175
0.01139679
0.01139177
0.01139175
0.01139175
0.01139175
0.01139175
0.01139679
0.01139177
0.01139175
0.01139175
0.01139175
0.01139175
0.01139679
0.01139177
0.01139175
0.01139175
0.01139175
0.01139175
0.01139679
0.01139177
0.01139175
0.01139175
0.01139175
0.01139175
0.01139679
0.01139177
0.01139175
0.01139175
0.01139175
0.01139175
0.01139679
0.01139177
0.01139175
0.01139175
0.01139175
0.01139175
0.01139679
0.01139177
0.01139175
0.01139175
0.01139175
0.01139175
0.01139679
0.01139177
0.01139175
0.01139175
0.01139175
0.01139175
0.01139679
0.01139177
0.01139175
0.01139175
0.01139175
0.01139175
0.01139679
0.01139177
0.01139175
0.01139175
0.01139175
0.01139175
0.01139679
0.01139177
0.01139175
0.01139175
0.01139175
0.01139175
0.01139679
0.01139177
0.01139175
0.01139175
0.01139175
0.01139175
0.01139679
0.01139177
0.01139175
0.01139175
0.01139175
0.01139175
0.01139679
0.01139177
0.01139175
0.01139175
0.01139175
0.01139175
0.01139679
0.01139177
0.01139175
0.01139175
0.01139175
0.01139175
0.01139679
0.01139177
0.01139175
0.01139175
0.01139175
0.01139175
0.005960194
0.006063089
0.006065549
0.006065757
0.006065761
0.006065612
0.01141676
0.01139111
0.01139088
0.01139089
0.01139088
0.01139088
0.01139099
0.0114148
0.01139167
0.01139127
0.0113912
0.01139114
0.01139114
0.01139125
0.01141478
0.01139147
0.01139111
0.01139103
0.01139101
0.01139101
0.01139111
0.01141476
0.0113914
0.0113911
0.01139102
0.01139098
0.01139097
0.01139107
0.01141475
0.01139147
0.01139109
0.01139101
0.01139098
0.01139097
0.01139107
0.01141475
0.01139144
0.01139109
0.011391
0.01139097
0.01139097
0.01139106
0.01141475
0.01139143
0.01139109
0.011391
0.01139097
0.01139097
0.01139106
0.01141475
0.01139143
0.01139109
0.011391
0.01139097
0.01139097
0.01139106
0.01141475
0.01139143
0.01139109
0.011391
0.01139097
0.01139097
0.01139106
0.01141475
0.01139144
0.01139109
0.011391
0.01139097
0.01139097
0.01139106
0.01141475
0.01139143
0.01139109
0.011391
0.01139097
0.01139097
0.01139106
0.01141475
0.01139144
0.01139109
0.011391
0.01139097
0.01139097
0.01139106
0.01141475
0.01139144
0.01139109
0.011391
0.01139097
0.01139097
0.01139106
0.01141475
0.01139143
0.01139109
0.011391
0.01139097
0.01139097
0.01139106
0.01141475
0.01139144
0.01139109
0.011391
0.01139097
0.01139097
0.01139106
0.01141475
0.01139143
0.01139109
0.011391
0.01139097
0.01139097
0.01139106
0.01141475
0.01139144
0.01139109
0.011391
0.01139097
0.01139097
0.01139106
0.01141475
0.01139144
0.01139109
0.011391
0.01139097
0.01139097
0.01139106
0.01141475
0.01139143
0.01139109
0.011391
0.01139097
0.01139097
0.01139106
0.01141475
0.01139144
0.01139109
0.011391
0.01139097
0.01139097
0.01139106
0.01141475
0.01139143
0.01139109
0.011391
0.01139098
0.01139097
0.01139107
0.01141475
0.01139143
0.01139109
0.01139101
0.01139098
0.01139098
0.01139107
0.01141476
0.01139145
0.0113911
0.01139102
0.01139102
0.011391
0.01139109
0.004157914
0.006759587
0.01141785
0.01139581
0.004129922
0.004298918
0.00596015
0.006066256
0.01139637
0.01139626
0.004300993
0.004307239
0.006063117
0.00606982
0.01139647
0.01139645
0.004305187
0.004307709
0.006065564
0.006069683
0.01139657
0.01139649
0.004305511
0.004307779
0.006065782
0.006069726
0.01139657
0.01139651
0.00430553
0.004307512
0.006065784
0.006069634
0.01139658
0.01139651
0.004305073
0.006065621
0.01139658
0.004124189
0.004284793
0.01141547
0.01139592
0.01141491
0.01139584
0.004289887
0.004293384
0.01141309
0.01139541
0.01141479
0.01139544
0.00429407
0.00429415
0.01141307
0.01139541
0.01141477
0.01139542
0.00429407
0.004294046
0.01141305
0.01139542
0.01141476
0.01139543
0.00429422
0.004294201
0.01141305
0.01139541
0.01141476
0.01139542
0.004294185
0.004294201
0.01141304
0.01139542
0.01141476
0.01139543
0.004294188
0.004294218
0.01141304
0.01139543
0.01141476
0.01139543
0.004294201
0.004294212
0.01141304
0.01139543
0.01141476
0.01139543
0.004294205
0.004294214
0.01141304
0.01139543
0.01141476
0.01139543
0.004294193
0.004294208
0.01141304
0.01139543
0.01141476
0.01139543
0.004294201
0.004294208
0.01141304
0.01139543
0.01141476
0.01139543
0.004294201
0.004294209
0.01141304
0.01139543
0.01141475
0.01139543
0.004294191
0.004294199
0.01141304
0.01139543
0.01141475
0.01139543
0.004294198
0.004294207
0.01141304
0.01139543
0.01141475
0.01139543
0.004294187
0.004294201
0.01141304
0.01139543
0.01141475
0.01139543
0.004294197
0.004294202
0.01141304
0.01139543
0.01141475
0.01139543
0.004294196
0.004294204
0.01141304
0.01139543
0.01141475
0.01139543
0.004294188
0.0042942
0.01141304
0.01139543
0.01141475
0.01139543
0.004294189
0.0042942
0.01141304
0.01139543
0.01141475
0.01139543
0.004294175
0.004294182
0.01141304
0.01139543
0.01141475
0.01139543
0.004294158
0.004294106
0.01141304
0.01139543
0.01141475
0.01139543
0.004294016
0.004293513
0.01141304
0.01139542
0.01141475
0.01139542
0.004293138
0.01131426
0.01141474
0.01139542
0.01141304
0.0113933
0.005961328
0.01141478
0.01139268
0.006029617
0.01141438
0.01139252
0.006031912
0.01141252
0.01139215
0.006031821
0.01141422
0.01139209
0.00603261
0.01141251
0.01139209
0.006032981
0.01141424
0.01139211
0.006032709
0.0114125
0.01139209
0.006032888
0.01141423
0.01139209
0.006032848
0.01141249
0.01139209
0.006032967
0.01141424
0.01139209
0.006032509
0.0114125
0.0113921
0.006032584
0.01141424
0.01139209
0.006031891
0.01141249
0.01139209
0.006032071
0.01141426
0.01139214
0.006029788
0.01141261
0.01139252
0.005961472
0.0114161
0.01139268
0.006759802
0.01141605
0.01139578
0.004157913
0.01139653
0.004305091
0.01139378
0.0114149
0.01139584
0.004124185
0.004284782
0.01139329
0.01141477
0.01139544
0.004289896
0.00429338
0.0113933
0.01141475
0.01139543
0.004294119
0.004294031
0.01139329
0.01141474
0.01139542
0.004294203
0.004294199
0.01139329
0.01141474
0.01139543
0.004294184
0.004294189
0.01139331
0.01141474
0.01139543
0.004294194
0.004294239
0.0113933
0.01141474
0.01139543
0.004294198
0.004294191
0.01139331
0.01141474
0.01139543
0.004294179
0.004294208
0.0113933
0.01141474
0.01139543
0.004294215
0.004294191
0.0113933
0.01141474
0.01139542
0.004294177
0.004294209
0.01139331
0.01141474
0.01139543
0.004294239
0.004294244
0.0113933
0.01141474
0.01139543
0.004294207
0.004294175
0.01139331
0.01141474
0.01139543
0.004294167
0.004294202
0.01139331
0.01141474
0.01139543
0.004294198
0.004294212
0.01139331
0.01141474
0.01139543
0.004294193
0.004294212
0.0113933
0.01141474
0.01139543
0.004294196
0.004294182
0.01139331
0.01141474
0.01139543
0.004294184
0.004294212
0.01139331
0.01141474
0.01139543
0.004294185
0.004294161
0.0113933
0.01141474
0.01139543
0.004294159
0.004294107
0.0113933
0.01141474
0.01139542
0.004294037
0.00429354
0.01139542
0.01141474
0.01139329
0.004293138
0.01131374
0.01139317
0.008741196
0.01139933
0.008851561
0.011399
0.008866694
0.0113991
0.008873388
0.0113987
0.008874033
0.01139904
0.008874958
0.01139864
0.008875203
0.01139905
0.008875118
0.01139859
0.008874985
0.01139903
0.00887518
0.01139859
0.008875101
0.01139903
0.008875118
0.01139857
0.008875047
0.01139902
0.008875107
0.01139857
0.008875082
0.01139902
0.008875085
0.01139857
0.008875055
0.01139902
0.008875058
0.01139857
0.008875046
0.01139902
0.008875067
0.01139857
0.008875051
0.01139902
0.008875052
0.01139857
0.00887504
0.01139902
0.008875041
0.01139857
0.00887503
0.01139902
0.008875067
0.01139857
0.008875056
0.01139902
0.008875037
0.01139857
0.008875025
0.01139902
0.008875058
0.01139857
0.008875042
0.01139902
0.008875036
0.01139857
0.008875023
0.01139902
0.008875028
0.01139857
0.008875016
0.01139902
0.008875046
0.01139857
0.008875033
0.01139902
0.008875022
0.01139857
0.008875009
0.01139902
0.008875021
0.01139857
0.008875003
0.01139902
0.008875005
0.01139857
0.008874981
0.01139902
0.00887499
0.01139857
0.008874967
0.011399
0.00887473
0.01139856
0.008874142
0.01138234
0.01138354
0.01138197
0.0113813
0.01138373
0.01138037
0.01138183
0.01138163
0.0113827
0.0113803
0.01138211
0.01138144
0.01138197
0.01138218
0.01138154
0.01138254
0.01139102
0.01138787
0.006066247
0.01139637
0.01139625
0.004129919
0.004298976
0.006069826
0.01139643
0.01139645
0.00430104
0.004307279
0.006069679
0.01139651
0.01139648
0.004305209
0.004307708
0.006069731
0.01139651
0.0113965
0.004305544
0.004307826
0.006069655
0.01139646
0.01139429
0.004305548
0.004307515
0.01139329
0.01141476
0.01139542
0.004294089
0.004294179
0.01139331
0.01141474
0.01139542
0.004294188
0.004294191
0.01140142
0.008848715
0.01140181
0.008541548
0.01139086
0.01138736
0.01139927
0.008872481
0.01139872
0.008869434
0.01139912
0.008874825
0.01139863
0.008874437
0.01139903
0.008875217
0.01139858
0.008875084
0.01139905
0.008875033
0.01139861
0.008875077
0.01139901
0.008875095
0.01139857
0.008875138
0.01139901
0.008875069
0.01139856
0.008875058
0.011399
0.00887509
0.01139856
0.008875101
0.011399
0.008875064
0.01139856
0.008875057
0.011399
0.008875059
0.01139856
0.008875048
0.011399
0.008875057
0.01139855
0.008875061
0.011399
0.008875048
0.01139855
0.008875042
0.011399
0.008875045
0.01139855
0.008875032
0.011399
0.008875057
0.01139855
0.008875061
0.011399
0.008875039
0.01139856
0.008875028
0.011399
0.008875041
0.01139855
0.008875052
0.011399
0.008875029
0.01139855
0.008875025
0.011399
0.008875027
0.01139855
0.008875016
0.011399
0.008875032
0.01139855
0.008875037
0.011399
0.008875021
0.01139856
0.008875013
0.011399
0.008875011
0.01139856
0.008875015
0.011399
0.008874994
0.01139856
0.008874992
0.01139901
0.008874853
0.01139855
0.008874938
0.01139896
0.01120778
0.008873774
0.01139485
0.01138188
0.01138159
0.01138193
0.01138305
0.01138142
0.01138085
0.01138273
0.01138132
0.0113818
0.01138194
0.01138212
0.01138225
0.01138302
0.01138019
0.01138289
0.01138238
0.01139284
0.008741482
0.01139662
0.008895985
0.0113948
0.008561962
0.01140143
0.008848493
0.01140184
0.008541373
0.01139333
0.008914482
0.01139608
0.008922931
0.01139933
0.008851394
0.01139899
0.008866659
0.01139927
0.008872539
0.01139874
0.008869392
0.0113991
0.008873455
0.01139868
0.00887407
0.01139912
0.008874935
0.01139865
0.008874426
0.01139905
0.008874388
0.0113986
0.008875026
0.01139905
0.008875063
0.01139862
0.008875117
0.01139903
0.008875225
0.01139857
0.008875143
0.01139901
0.008875136
0.01139858
0.008875184
0.01139902
0.008875143
0.01139857
0.008875168
0.01139903
0.008875199
0.01139855
0.00887437
0.01139902
0.008875095
0.01139857
0.008875087
0.011399
0.008875087
0.01139857
0.008875097
0.01139903
0.008875129
0.01139855
0.008874329
0.01139902
0.008875079
0.01139857
0.008875077
0.011399
0.008875078
0.01139857
0.008875102
0.01139902
0.008875068
0.01139855
0.008875063
0.011399
0.008875072
0.01139857
0.008875071
0.01139902
0.008875055
0.01139855
0.008875065
0.011399
0.008875086
0.01139857
0.00887507
0.01139902
0.008875064
0.01139856
0.008875085
0.01139901
0.008874801
0.01139858
0.008874171
0.01139897
0.008661313
0.008873882
0.01139481
0.0068731
0.007508689
0.007279282
0.007313133
0.00727608
0.007305122
0.007285114
0.00728588
0.007280711
0.007295256
0.007276095
0.00731029
0.007296305
0.007266829
0.007292354
0.007280226
0.007235983
0.00723502
0.007281096
0.007313294
0.01139669
0.008895655
0.01139461
0.008561475
0.007326227
0.007325016
0.007274721
0.007306683
0.007265417
0.007229401
0.007250022
0.007266295
0.00731248
0.007305686
0.00730484
0.007249323
0.007329786
0.007316183
0.007304896
0.007298069
0.007271086
0.007306552
0.006912914
0.00755924
0.01139615
0.008518201
0.01139497
0.008513251
0.007931877
0.007983691
0.007939037
0.007978457
0.01139723
0.008516425
0.008516457
0.01139381
0.01139693
0.008515801
0.008515422
0.0113944
0.0113971
0.008516607
0.01139445
0.008516105
0.0113971
0.008516275
0.01139443
0.008515941
0.01139709
0.008516262
0.008515973
0.01139435
0.01139709
0.00851629
0.01139442
0.008515939
0.01139903
0.00887516
0.01139856
0.008875084
0.01139901
0.008875399
0.01139857
0.008875178
0.01139901
0.008875161
0.01139855
0.008875148
0.01139901
0.008875636
0.01139856
0.008874607
0.01139902
0.008875526
0.01139855
0.008875212
0.011399
0.008875417
0.01139856
0.008875232
0.01139903
0.008875099
0.01139855
0.00887435
0.01139901
0.00887562
0.01139857
0.008874569
0.01139904
0.008875275
0.01139855
0.008874364
0.01139902
0.008874392
0.01139857
0.008874385
0.01139902
0.008874299
0.01139856
0.008874273
0.01139901
0.008874305
0.01139858
0.008874283
0.01139903
0.008874389
0.01139855
0.008874355
0.01139901
0.008875621
0.01139857
0.008874588
0.01139902
0.008875601
0.01139855
0.008875593
0.01139901
0.008875092
0.01139857
0.008875231
0.01139902
0.008875379
0.01139855
0.008875163
0.011399
0.008875377
0.01139855
0.008875169
0.01139707
0.00851628
0.008515885
0.01139442
0.01139707
0.008516254
0.01139441
0.008515877
0.01139707
0.008516253
0.00851595
0.01139435
0.01139901
0.008875612
0.01139856
0.008874563
0.01139706
0.00851628
0.01139442
0.008515877
0.01139708
0.008516232
0.01139441
0.008515879
0.01139707
0.008516231
0.008515871
0.01139435
0.01139707
0.008516228
0.01139442
0.008515876
0.01139708
0.008516227
0.008515871
0.01139441
0.011399
0.008874887
0.01139855
0.008875067
0.01139708
0.008516219
0.008515845
0.01139442
0.01139702
0.008515257
0.00851515
0.0113944
0.007313105
0.007828888
0.007707879
0.007588968
0.01141416
0.008507367
0.01141929
0.008456606
0.007104043
0.007250877
0.007288499
0.00732165
0.007283948
0.007312558
0.007228922
0.007264492
0.007306606
0.007307105
0.00725288
0.007251902
0.007285926
0.007315994
0.007325586
0.007271733
0.007297505
0.007311505
0.007275229
0.007275602
0.008891767
0.01139667
0.00891364
0.01139325
0.008928012
0.008903632
0.01139641
0.01139105
0.008911648
0.008922129
0.01139321
0.0113952
0.008930308
0.008908965
0.01139751
0.01139116
0.008913272
0.008923201
0.01139332
0.01139599
0.008930449
0.008910134
0.0113976
0.01139119
0.008913456
0.008922349
0.01139327
0.01139605
0.008930552
0.008909104
0.01139762
0.01139123
0.008913584
0.00892324
0.01139309
0.01139609
0.008931711
0.01138698
0.008910079
0.01139312
0.008875051
0.01139865
0.008874492
0.01139903
0.008874491
0.0113986
0.008874364
0.01139902
0.008875193
0.01139857
0.008875087
0.01139901
0.008875386
0.01139856
0.008875392
0.01139899
0.007299145
0.007303072
0.007287475
0.007320448
0.007307411
0.00730202
0.007302047
0.007308996
0.007285029
0.007274239
0.007310665
0.007277545
0.00733143
0.007330788
0.007262065
0.007223137
0.00726041
0.007279623
0.00706004
0.007201307
0.007316111
0.007836291
0.007589115
0.007729489
0.01141353
0.008515081
0.008493237
0.01141923
0.01139654
0.00849911
0.01139405
0.008509358
0.007934485
0.007981173
0.007939339
0.01139685
0.008515945
0.008515455
0.01139447
0.01139701
0.008516246
0.01139442
0.008515939
0.01139701
0.008516293
0.01139443
0.008515959
0.01139713
0.008516602
0.008516097
0.01139446
0.01139702
0.008516245
0.008515886
0.01139442
0.01139702
0.008516246
0.01139436
0.008515887
0.01139707
0.008516568
0.008516057
0.01139446
0.01139702
0.008516243
0.008515883
0.01139442
0.01139702
0.008516243
0.01139436
0.008515882
0.01139702
0.008516229
0.01139441
0.008515875
0.01139707
0.008516233
0.008515876
0.01139442
0.01139707
0.008516231
0.01139435
0.008515873
0.01139701
0.008516238
0.008515878
0.01139443
0.011397
0.008516183
0.008515851
0.01139443
0.01139702
0.008516099
0.01139435
0.008515428
0.01139666
0.01139667
0.01139666
0.01139686
0.01141473
0.01139157
0.0113912
0.01139115
0.0113911
0.01139111
0.01139111
0.0113141
0.01141473
0.01139542
0.01120766
0.01139482
0.0113933
0.01131383
0.00866041
0.01139481
0.01139332
0.008891553
0.01139248
0.00891462
0.01139326
0.008912534
0.01139519
0.008923046
0.0113933
0.008914027
0.01139597
0.008923158
0.01139332
0.008914274
0.01139604
0.008923166
0.01139332
0.008914387
0.01139607
0.0089232
0.01139333
0.008914383
0.01139608
0.008922967
0.01139723
0.008516869
0.01139388
0.008516475
0.01139693
0.008515783
0.01139441
0.008515423
0.01139707
0.008516308
0.01139444
0.008516062
0.01139705
0.00851639
0.01139442
0.008515997
0.01139709
0.008516318
0.01139442
0.008516022
0.01139708
0.008516344
0.01139443
0.008515991
0.01139707
0.008516335
0.01139442
0.008515984
0.01139708
0.00851633
0.01139441
0.00851597
0.01139708
0.008516312
0.01139441
0.008515957
0.01139707
0.008516312
0.01139442
0.008515955
0.01139708
0.008516304
0.01139441
0.008515947
0.01139708
0.008516296
0.01139441
0.008515941
0.01139707
0.008516306
0.01139442