/*--------------------------------*- C++ -*----------------------------------*\
  =========                 |
  \\      /  F ield         | OpenFOAM: The Open Source CFD Toolbox
   \\    /   O peration     | Website:  https://openfoam.org
    \\  /    A nd           | Version:  7
     \\/     M anipulation  |
\*---------------------------------------------------------------------------*/
FoamFile
{
    version     2.0;
    format      ascii;
    class       volScalarField;
    location    "0.05";
    object      nut;
}
// * * * * * * * * * * * * * * * * * * * * * * * * * * * * * * * * * * * * * //

dimensions      [0 2 -1 0 0 0 0];

internalField   nonuniform List<scalar> 
109978
(
0.0006567606
0.0006388499
0.0006373151
0.0006371527
0.0006371725
0.0006373667
0.0006388884
0.0006069067
0.000603858
0.0006034926
0.0006035156
0.000603782
0.0006373547
0.0006038652
0.0006003995
0.0005999303
0.0005999455
0.0006002632
0.000637177
0.0006034779
0.0005998988
0.0005993854
0.0005993946
0.0005997318
0.0006371452
0.0006033954
0.0005997854
0.0005992507
0.0005992538
0.000599596
0.0006371354
0.0006033741
0.0005997501
0.0005992076
0.0005992063
0.0005995498
0.0006371318
0.0006033675
0.0005997364
0.0005991899
0.0005991875
0.0005995317
0.000637131
0.0006033642
0.0005997316
0.0005991841
0.0005991803
0.0005995246
0.0006371307
0.000603363
0.0005997291
0.0005991812
0.0005991769
0.0005995212
0.0006371302
0.0006033624
0.0005997283
0.00059918
0.0005991755
0.0005995198
0.0006371303
0.0006033622
0.0005997277
0.0005991794
0.0005991744
0.0005995192
0.0006371303
0.000603362
0.0005997274
0.0005991791
0.0005991742
0.0005995189
0.0006371301
0.000603362
0.0005997273
0.0005991791
0.000599174
0.0005995188
0.0006371303
0.000603362
0.0005997273
0.000599179
0.000599174
0.0005995188
0.00063713
0.000603362
0.0005997273
0.0005991791
0.0005991741
0.0005995189
0.0006371303
0.0006033622
0.0005997276
0.0005991795
0.0005991745
0.0005995194
0.0006371305
0.0006033626
0.0005997284
0.0005991805
0.0005991761
0.0005995205
0.0006371307
0.0006033638
0.0005997303
0.000599183
0.0005991789
0.0005995232
0.0006371319
0.0006033673
0.0005997357
0.0005991897
0.0005991863
0.0005995305
0.0006371361
0.0006033787
0.0005997527
0.00059921
0.0005992077
0.0005995519
0.0006371562
0.0006034234
0.0005998137
0.0005992792
0.0005992796
0.0005996225
0.000637242
0.0006035823
0.0006000159
0.0005994997
0.0005995005
0.000599831
0.0001008749
0.0006039267
0.0006004275
0.0005999389
0.0005999279
0.000600208
0.0005981856
0.0005975351
0.0005975836
0.0005976029
0.0005976081
0.0005976379
0.0001008281
0.0001008393
0.0001008393
0.0001008394
0.0001008393
0.0001008393
0.0001008289
0.0001008393
0.0001008394
0.0001008394
0.0001008394
0.0001008394
0.0001008288
0.0001008393
0.0001008394
0.0001008394
0.0001008394
0.0001008394
0.0001008288
0.0001008393
0.0001008394
0.0001008394
0.0001008394
0.0001008394
0.0001008288
0.0001008393
0.0001008394
0.0001008394
0.0001008394
0.0001008394
0.0001008288
0.0001008393
0.0001008394
0.0001008394
0.0001008394
0.0001008394
0.0001008288
0.0001008393
0.0001008394
0.0001008394
0.0001008394
0.0001008394
0.0001008288
0.0001008393
0.0001008394
0.0001008394
0.0001008394
0.0001008394
0.0001008288
0.0001008393
0.0001008394
0.0001008394
0.0001008394
0.0001008394
0.0001008288
0.0001008393
0.0001008394
0.0001008394
0.0001008394
0.0001008394
0.0001008288
0.0001008393
0.0001008394
0.0001008394
0.0001008394
0.0001008394
0.0001008288
0.0001008393
0.0001008394
0.0001008394
0.0001008394
0.0001008394
0.0001008288
0.0001008393
0.0001008394
0.0001008394
0.0001008394
0.0001008394
0.0001008288
0.0001008393
0.0001008394
0.0001008394
0.0001008394
0.0001008394
0.0001008288
0.0001008393
0.0001008394
0.0001008394
0.0001008394
0.0001008394
0.0001008288
0.0001008393
0.0001008394
0.0001008394
0.0001008394
0.0001008394
0.0001008288
0.0001008393
0.0001008394
0.0001008394
0.0001008394
0.0001008394
0.0001008288
0.0001008393
0.0001008394
0.0001008394
0.0001008394
0.0001008394
0.0001008288
0.0001008393
0.0001008394
0.0001008394
0.0001008394
0.0001008394
0.0001008288
0.0001008393
0.0001008394
0.0001008394
0.0001008394
0.0001008394
0.0001008288
0.0001008393
0.0001008394
0.0001008394
0.0001008394
0.0001008394
0.0001008288
0.0001008393
0.0001008394
0.0001008394
0.0001008394
0.0001008394
0.0001008288
0.0001008393
0.0001008394
0.0001008394
0.0001008394
0.0001008394
0.0005992587
0.0005978901
0.0005979907
0.0005980447
0.00059805
0.0005980401
0.0001008284
0.0001008394
0.0001008394
0.0001008394
0.0001008394
0.0001008394
0.0001008298
0.0001008394
0.0001008394
0.0001008395
0.0001008395
0.0001008395
0.0001008299
0.0001008394
0.0001008394
0.0001008395
0.0001008395
0.0001008395
0.0001008299
0.0001008394
0.0001008394
0.0001008395
0.0001008395
0.0001008395
0.0001008299
0.0001008394
0.0001008394
0.0001008395
0.0001008395
0.0001008395
0.0001008299
0.0001008394
0.0001008394
0.0001008395
0.0001008395
0.0001008395
0.0001008299
0.0001008394
0.0001008394
0.0001008395
0.0001008395
0.0001008395
0.0001008299
0.0001008394
0.0001008394
0.0001008395
0.0001008395
0.0001008395
0.0001008299
0.0001008394
0.0001008394
0.0001008395
0.0001008395
0.0001008395
0.0001008299
0.0001008394
0.0001008394
0.0001008395
0.0001008395
0.0001008395
0.0001008299
0.0001008394
0.0001008394
0.0001008395
0.0001008395
0.0001008395
0.0001008299
0.0001008394
0.0001008394
0.0001008395
0.0001008395
0.0001008395
0.0001008299
0.0001008394
0.0001008394
0.0001008395
0.0001008395
0.0001008395
0.0001008299
0.0001008394
0.0001008394
0.0001008395
0.0001008395
0.0001008395
0.0001008299
0.0001008394
0.0001008394
0.0001008395
0.0001008395
0.0001008395
0.0001008299
0.0001008394
0.0001008394
0.0001008395
0.0001008395
0.0001008395
0.0001008299
0.0001008394
0.0001008394
0.0001008395
0.0001008395
0.0001008395
0.0001008299
0.0001008394
0.0001008394
0.0001008395
0.0001008395
0.0001008395
0.0001008299
0.0001008394
0.0001008394
0.0001008395
0.0001008395
0.0001008395
0.0001008299
0.0001008394
0.0001008394
0.0001008395
0.0001008395
0.0001008395
0.0001008299
0.0001008394
0.0001008394
0.0001008395
0.0001008395
0.0001008395
0.0001008299
0.0001008394
0.0001008394
0.0001008395
0.0001008395
0.0001008395
0.0001008299
0.0001008394
0.0001008394
0.0001008395
0.0001008395
0.0001008395
0.0005993975
0.0005980846
0.0005982026
0.0005982732
0.000598277
0.0005982493
0.0001008284
0.0001008394
0.0001008394
0.0001008394
0.0001008394
0.0001008394
0.0001008299
0.0001008394
0.0001008395
0.0001008395
0.0001008395
0.0001008395
0.0001008299
0.0001008394
0.0001008395
0.0001008395
0.0001008395
0.0001008395
0.0001008299
0.0001008394
0.0001008394
0.0001008395
0.0001008395
0.0001008395
0.0001008299
0.0001008394
0.0001008394
0.0001008395
0.0001008395
0.0001008395
0.0001008299
0.0001008394
0.0001008394
0.0001008395
0.0001008395
0.0001008395
0.0001008299
0.0001008394
0.0001008394
0.0001008395
0.0001008395
0.0001008395
0.0001008299
0.0001008394
0.0001008394
0.0001008395
0.0001008395
0.0001008395
0.0001008299
0.0001008394
0.0001008394
0.0001008395
0.0001008395
0.0001008395
0.0001008299
0.0001008394
0.0001008394
0.0001008395
0.0001008395
0.0001008395
0.0001008299
0.0001008394
0.0001008394
0.0001008395
0.0001008395
0.0001008395
0.0001008299
0.0001008394
0.0001008394
0.0001008395
0.0001008395
0.0001008395
0.0001008299
0.0001008394
0.0001008394
0.0001008395
0.0001008395
0.0001008395
0.0001008299
0.0001008394
0.0001008394
0.0001008395
0.0001008395
0.0001008395
0.0001008299
0.0001008394
0.0001008394
0.0001008395
0.0001008395
0.0001008395
0.0001008299
0.0001008394
0.0001008394
0.0001008395
0.0001008395
0.0001008395
0.0001008299
0.0001008394
0.0001008394
0.0001008395
0.0001008395
0.0001008395
0.0001008299
0.0001008394
0.0001008394
0.0001008395
0.0001008395
0.0001008395
0.0001008299
0.0001008394
0.0001008394
0.0001008395
0.0001008395
0.0001008395
0.0001008299
0.0001008394
0.0001008394
0.0001008395
0.0001008395
0.0001008395
0.0001008299
0.0001008394
0.0001008394
0.0001008395
0.0001008395
0.0001008395
0.0001008299
0.0001008394
0.0001008394
0.0001008395
0.0001008395
0.0001008395
0.0001008299
0.0001008394
0.0001008394
0.0001008395
0.0001008395
0.0001008395
0.0005994263
0.0005981387
0.0005982689
0.0005983417
0.0005983457
0.0005983122
0.0001008284
0.0001008395
0.0001008394
0.0001008394
0.0001008394
0.0001008394
0.0001008299
0.0001008395
0.0001008395
0.0001008395
0.0001008395
0.0001008395
0.0001008299
0.0001008395
0.0001008395
0.0001008395
0.0001008395
0.0001008395
0.0001008299
0.0001008395
0.0001008395
0.0001008395
0.0001008395
0.0001008395
0.0001008299
0.0001008395
0.0001008395
0.0001008395
0.0001008395
0.0001008395
0.0001008299
0.0001008395
0.0001008395
0.0001008395
0.0001008395
0.0001008395
0.0001008299
0.0001008395
0.0001008395
0.0001008395
0.0001008395
0.0001008395
0.0001008299
0.0001008395
0.0001008395
0.0001008395
0.0001008395
0.0001008395
0.0001008299
0.0001008395
0.0001008395
0.0001008395
0.0001008395
0.0001008395
0.0001008299
0.0001008395
0.0001008395
0.0001008395
0.0001008395
0.0001008395
0.0001008299
0.0001008395
0.0001008395
0.0001008395
0.0001008395
0.0001008395
0.0001008299
0.0001008395
0.0001008395
0.0001008395
0.0001008395
0.0001008395
0.0001008299
0.0001008395
0.0001008395
0.0001008395
0.0001008395
0.0001008395
0.0001008299
0.0001008395
0.0001008395
0.0001008395
0.0001008395
0.0001008395
0.0001008299
0.0001008395
0.0001008395
0.0001008395
0.0001008395
0.0001008395
0.0001008299
0.0001008395
0.0001008395
0.0001008395
0.0001008395
0.0001008395
0.0001008299
0.0001008395
0.0001008395
0.0001008395
0.0001008395
0.0001008395
0.0001008299
0.0001008395
0.0001008395
0.0001008395
0.0001008395
0.0001008395
0.0001008299
0.0001008395
0.0001008395
0.0001008395
0.0001008395
0.0001008395
0.0001008299
0.0001008395
0.0001008395
0.0001008395
0.0001008395
0.0001008395
0.0001008299
0.0001008395
0.0001008395
0.0001008395
0.0001008395
0.0001008395
0.0001008299
0.0001008395
0.0001008395
0.0001008395
0.0001008395
0.0001008395
0.0001008299
0.0001008395
0.0001008395
0.0001008395
0.0001008395
0.0001008395
0.0005994187
0.0005981413
0.0005982697
0.0005983432
0.0005983485
0.0005983142
0.0001008284
0.0001008395
0.0001008394
0.0001008394
0.0001008394
0.0001008394
0.0001008299
0.0001008395
0.0001008395
0.0001008395
0.0001008395
0.0001008395
0.0001008299
0.0001008395
0.0001008395
0.0001008395
0.0001008395
0.0001008395
0.0001008299
0.0001008395
0.0001008395
0.0001008395
0.0001008395
0.0001008395
0.0001008299
0.0001008395
0.0001008395
0.0001008395
0.0001008395
0.0001008395
0.0001008299
0.0001008395
0.0001008395
0.0001008395
0.0001008395
0.0001008395
0.0001008299
0.0001008395
0.0001008395
0.0001008395
0.0001008395
0.0001008395
0.0001008299
0.0001008395
0.0001008395
0.0001008395
0.0001008395
0.0001008395
0.0001008299
0.0001008395
0.0001008395
0.0001008395
0.0001008395
0.0001008395
0.0001008299
0.0001008395
0.0001008395
0.0001008395
0.0001008395
0.0001008395
0.0001008299
0.0001008395
0.0001008395
0.0001008395
0.0001008395
0.0001008395
0.0001008299
0.0001008395
0.0001008395
0.0001008395
0.0001008395
0.0001008395
0.0001008299
0.0001008395
0.0001008395
0.0001008395
0.0001008395
0.0001008395
0.0001008299
0.0001008395
0.0001008395
0.0001008395
0.0001008395
0.0001008395
0.0001008299
0.0001008395
0.0001008395
0.0001008395
0.0001008395
0.0001008395
0.0001008299
0.0001008395
0.0001008395
0.0001008395
0.0001008395
0.0001008395
0.0001008299
0.0001008395
0.0001008395
0.0001008395
0.0001008395
0.0001008395
0.0001008299
0.0001008395
0.0001008395
0.0001008395
0.0001008395
0.0001008395
0.0001008299
0.0001008395
0.0001008395
0.0001008395
0.0001008395
0.0001008395
0.0001008299
0.0001008395
0.0001008395
0.0001008395
0.0001008395
0.0001008395
0.0001008299
0.0001008395
0.0001008395
0.0001008395
0.0001008395
0.0001008395
0.0001008299
0.0001008395
0.0001008395
0.0001008395
0.0001008395
0.0001008395
0.0001008299
0.0001008394
0.0001008395
0.0001008395
0.0001008395
0.0001008395
0.0005994156
0.0005981159
0.0005982376
0.000598309
0.0005983128
0.0005982812
0.0001008284
0.0001008394
0.0001008394
0.0001008394
0.0001008394
0.0001008394
0.0001008299
0.0001008395
0.0001008395
0.0001008395
0.0001008395
0.0001008395
0.0001008299
0.0001008395
0.0001008395
0.0001008395
0.0001008395
0.0001008395
0.0001008299
0.0001008395
0.0001008395
0.0001008395
0.0001008395
0.0001008395
0.0001008299
0.0001008395
0.0001008395
0.0001008395
0.0001008395
0.0001008395
0.0001008299
0.0001008395
0.0001008395
0.0001008395
0.0001008395
0.0001008395
0.0001008299
0.0001008395
0.0001008395
0.0001008395
0.0001008395
0.0001008395
0.0001008299
0.0001008395
0.0001008395
0.0001008395
0.0001008395
0.0001008395
0.0001008299
0.0001008395
0.0001008395
0.0001008395
0.0001008395
0.0001008395
0.0001008299
0.0001008395
0.0001008395
0.0001008395
0.0001008395
0.0001008395
0.0001008299
0.0001008395
0.0001008395
0.0001008395
0.0001008395
0.0001008395
0.0001008299
0.0001008395
0.0001008395
0.0001008395
0.0001008395
0.0001008395
0.0001008299
0.0001008395
0.0001008395
0.0001008395
0.0001008395
0.0001008395
0.0001008299
0.0001008395
0.0001008395
0.0001008395
0.0001008395
0.0001008395
0.0001008299
0.0001008395
0.0001008395
0.0001008395
0.0001008395
0.0001008395
0.0001008299
0.0001008395
0.0001008395
0.0001008395
0.0001008395
0.0001008395
0.0001008299
0.0001008395
0.0001008395
0.0001008395
0.0001008395
0.0001008395
0.0001008299
0.0001008395
0.0001008395
0.0001008395
0.0001008395
0.0001008395
0.0001008299
0.0001008395
0.0001008395
0.0001008395
0.0001008395
0.0001008395
0.0001008299
0.0001008395
0.0001008395
0.0001008395
0.0001008395
0.0001008395
0.0001008299
0.0001008395
0.0001008395
0.0001008395
0.0001008395
0.0001008395
0.0001008299
0.0001008395
0.0001008395
0.0001008395
0.0001008395
0.0001008395
0.0001008299
0.0001008395
0.0001008395
0.0001008395
0.0001008395
0.0001008395
0.0005993264
0.0005979589
0.0005980582
0.0005981186
0.0005981223
0.0005981011
0.0001008284
0.0001008394
0.0001008394
0.0001008394
0.0001008394
0.0001008394
0.0001008299
0.0001008394
0.0001008395
0.0001008395
0.0001008395
0.0001008395
0.0001008299
0.0001008394
0.0001008395
0.0001008395
0.0001008395
0.0001008395
0.0001008299
0.0001008394
0.0001008395
0.0001008395
0.0001008395
0.0001008395
0.0001008299
0.0001008394
0.0001008395
0.0001008395
0.0001008395
0.0001008395
0.0001008299
0.0001008394
0.0001008395
0.0001008395
0.0001008395
0.0001008395
0.0001008299
0.0001008394
0.0001008395
0.0001008395
0.0001008395
0.0001008395
0.0001008299
0.0001008394
0.0001008395
0.0001008395
0.0001008395
0.0001008395
0.0001008299
0.0001008394
0.0001008395
0.0001008395
0.0001008395
0.0001008395
0.0001008299
0.0001008394
0.0001008395
0.0001008395
0.0001008395
0.0001008395
0.0001008299
0.0001008394
0.0001008395
0.0001008395
0.0001008395
0.0001008395
0.0001008299
0.0001008394
0.0001008395
0.0001008395
0.0001008395
0.0001008395
0.0001008299
0.0001008394
0.0001008395
0.0001008395
0.0001008395
0.0001008395
0.0001008299
0.0001008394
0.0001008395
0.0001008395
0.0001008395
0.0001008395
0.0001008299
0.0001008394
0.0001008395
0.0001008395
0.0001008395
0.0001008395
0.0001008299
0.0001008394
0.0001008395
0.0001008395
0.0001008395
0.0001008395
0.0001008299
0.0001008394
0.0001008395
0.0001008395
0.0001008395
0.0001008395
0.0001008299
0.0001008394
0.0001008395
0.0001008395
0.0001008395
0.0001008395
0.0001008299
0.0001008394
0.0001008395
0.0001008395
0.0001008395
0.0001008395
0.0001008299
0.0001008394
0.0001008395
0.0001008395
0.0001008395
0.0001008395
0.0001008299
0.0001008394
0.0001008395
0.0001008395
0.0001008395
0.0001008395
0.0001008299
0.0001008394
0.0001008395
0.0001008395
0.0001008395
0.0001008395
0.0001008299
0.0001008394
0.0001008395
0.0001008395
0.0001008395
0.0001008395
0.0005996209
0.0005987339
0.0005988441
0.0005988814
0.0005988869
0.000598896
0.0001008284
0.0001008395
0.0001008394
0.0001008394
0.0001008394
0.0001008393
0.0001008295
0.0001008395
0.0001008395
0.0001008394
0.0001008394
0.0001008394
0.0001008295
0.0001008395
0.0001008395
0.0001008395
0.0001008394
0.0001008394
0.0001008295
0.0001008395
0.0001008395
0.0001008395
0.0001008394
0.0001008394
0.0001008295
0.0001008395
0.0001008395
0.0001008395
0.0001008395
0.0001008394
0.0001008295
0.0001008395
0.0001008395
0.0001008395
0.0001008395
0.0001008394
0.0001008295
0.0001008395
0.0001008395
0.0001008395
0.0001008395
0.0001008394
0.0001008295
0.0001008395
0.0001008395
0.0001008395
0.0001008395
0.0001008394
0.0001008295
0.0001008395
0.0001008395
0.0001008395
0.0001008395
0.0001008394
0.0001008295
0.0001008395
0.0001008395
0.0001008395
0.0001008395
0.0001008394
0.0001008295
0.0001008395
0.0001008395
0.0001008395
0.0001008395
0.0001008394
0.0001008295
0.0001008395
0.0001008395
0.0001008395
0.0001008395
0.0001008394
0.0001008295
0.0001008395
0.0001008395
0.0001008395
0.0001008395
0.0001008394
0.0001008295
0.0001008395
0.0001008395
0.0001008395
0.0001008395
0.0001008394
0.0001008295
0.0001008395
0.0001008395
0.0001008395
0.0001008395
0.0001008394
0.0001008295
0.0001008395
0.0001008395
0.0001008395
0.0001008395
0.0001008394
0.0001008295
0.0001008395
0.0001008395
0.0001008395
0.0001008395
0.0001008394
0.0001008295
0.0001008395
0.0001008395
0.0001008395
0.0001008395
0.0001008394
0.0001008295
0.0001008395
0.0001008395
0.0001008395
0.0001008395
0.0001008394
0.0001008295
0.0001008395
0.0001008395
0.0001008395
0.0001008395
0.0001008394
0.0001008295
0.0001008395
0.0001008395
0.0001008395
0.0001008395
0.0001008394
0.0001008295
0.0001008395
0.0001008395
0.0001008395
0.0001008394
0.0001008394
0.0001008295
0.0001008395
0.0001008395
0.0001008395
0.0001008394
0.0001008394
0.0002122043
0.000209817
0.0002097997
0.0002098041
0.0002098045
0.0002098094
0.0001007949
0.0001008808
0.0001008831
0.0001008833
0.0001008834
0.0001008834
0.0001008826
0.0001007969
0.0001008771
0.0001008796
0.0001008802
0.0001008801
0.0001008801
0.0001008793
0.0001007969
0.000100876
0.000100879
0.0001008798
0.0001008799
0.00010088
0.0001008792
0.0001007969
0.0001008764
0.000100879
0.0001008798
0.00010088
0.0001008801
0.0001008793
0.0001007969
0.0001008764
0.0001008791
0.0001008798
0.00010088
0.0001008801
0.0001008794
0.000100797
0.0001008765
0.0001008791
0.0001008799
0.0001008801
0.0001008801
0.0001008794
0.000100797
0.0001008765
0.000100879
0.0001008799
0.0001008801
0.0001008801
0.0001008794
0.000100797
0.0001008765
0.0001008791
0.0001008799
0.0001008801
0.0001008801
0.0001008794
0.000100797
0.0001008765
0.0001008791
0.0001008799
0.0001008801
0.0001008801
0.0001008794
0.000100797
0.0001008765
0.0001008791
0.0001008799
0.0001008801
0.0001008801
0.0001008794
0.000100797
0.0001008765
0.0001008791
0.0001008799
0.0001008801
0.0001008801
0.0001008794
0.000100797
0.0001008765
0.0001008791
0.0001008799
0.0001008801
0.0001008801
0.0001008794
0.000100797
0.0001008765
0.0001008791
0.0001008799
0.0001008801
0.0001008801
0.0001008794
0.000100797
0.0001008765
0.0001008791
0.0001008799
0.0001008801
0.0001008801
0.0001008794
0.000100797
0.0001008765
0.0001008791
0.0001008799
0.0001008801
0.0001008801
0.0001008794
0.000100797
0.0001008765
0.0001008791
0.0001008799
0.0001008801
0.0001008801
0.0001008794
0.000100797
0.0001008765
0.0001008791
0.0001008799
0.0001008801
0.0001008801
0.0001008794
0.000100797
0.0001008765
0.0001008791
0.0001008799
0.0001008801
0.0001008801
0.0001008794
0.000100797
0.0001008765
0.0001008791
0.0001008799
0.0001008801
0.0001008801
0.0001008794
0.000100797
0.0001008765
0.0001008791
0.0001008799
0.0001008801
0.0001008801
0.0001008794
0.000100797
0.0001008765
0.0001008791
0.0001008799
0.00010088
0.0001008801
0.0001008794
0.000100797
0.0001008765
0.000100879
0.0001008798
0.00010088
0.00010088
0.0001008793
0.0001007968
0.0001008764
0.000100879
0.0001008797
0.0001008798
0.00010088
0.0001008792
0.0003040274
0.0001884158
0.0001007946
0.0001008332
0.0003059424
0.0002946628
0.0002122046
0.0002099032
0.000100834
0.0001008329
0.0002943096
0.0002941456
0.0002098155
0.0002098611
0.0001008329
0.0001008332
0.000294068
0.0002941168
0.0002097987
0.0002098615
0.0001008329
0.0001008332
0.0002940511
0.0002941151
0.0002098032
0.0002098625
0.0001008329
0.0001008333
0.0002940527
0.0002941343
0.0002098039
0.0002098653
0.0001008329
0.0001008333
0.0002940852
0.0002098094
0.0001008329
0.0003057824
0.0002942926
0.000100805
0.0001008405
0.0001007972
0.0001008405
0.000294024
0.0002937823
0.0001008104
0.0001008397
0.0001007968
0.0001008395
0.0002937829
0.0002937612
0.0001008104
0.0001008398
0.0001007968
0.0001008394
0.0002937558
0.0002937504
0.0001008104
0.0001008393
0.0001007968
0.0001008393
0.0002937553
0.0002937536
0.0001008104
0.0001008392
0.0001007968
0.0001008392
0.0002937533
0.0002937534
0.0001008104
0.0001008392
0.0001007968
0.0001008392
0.0002937531
0.0002937539
0.0001008104
0.0001008392
0.0001007968
0.0001008393
0.0002937534
0.0002937537
0.0001008104
0.0001008393
0.0001007968
0.0001008393
0.0002937535
0.0002937537
0.0001008104
0.0001008393
0.0001007968
0.0001008393
0.0002937531
0.0002937535
0.0001008104
0.0001008392
0.0001007968
0.0001008393
0.0002937534
0.0002937536
0.0001008104
0.0001008393
0.0001007968
0.0001008393
0.0002937534
0.0002937536
0.0001008104
0.0001008392
0.0001007968
0.0001008392
0.000293753
0.0002937533
0.0001008104
0.0001008393
0.0001007968
0.0001008393
0.0002937533
0.0002937535
0.0001008104
0.0001008392
0.0001007968
0.0001008392
0.0002937529
0.0002937533
0.0001008104
0.0001008392
0.0001007968
0.0001008393
0.0002937533
0.0002937534
0.0001008104
0.0001008393
0.0001007968
0.0001008393
0.0002937533
0.0002937535
0.0001008104
0.0001008392
0.0001007968
0.0001008392
0.000293753
0.0002937535
0.0001008104
0.0001008393
0.0001007968
0.0001008393
0.0002937532
0.0002937538
0.0001008104
0.0001008393
0.0001007968
0.0001008393
0.0002937532
0.0002937546
0.0001008104
0.0001008392
0.0001007968
0.0001008393
0.0002937547
0.0002937603
0.0001008104
0.0001008392
0.0001007968
0.0001008393
0.0002937626
0.0002937963
0.0001008104
0.0001008393
0.0001007968
0.0001008393
0.000293823
0.0001016812
0.0001007969
0.0001008393
0.0001008105
0.0001008564
0.0002126893
0.0001008067
0.0001008661
0.0002103046
0.0001007978
0.0001008672
0.0002103178
0.0001008115
0.0001008679
0.0002102729
0.0001007979
0.000100868
0.0002102927
0.0001008116
0.0001008681
0.0002102934
0.0001007979
0.0001008677
0.0002103028
0.0001008117
0.0001008677
0.0002102885
0.0001007979
0.0001008677
0.0002102891
0.0001008117
0.0001008677
0.0002102904
0.000100798
0.0001008677
0.0002102929
0.0001008118
0.0001008678
0.0002103098
0.0001007979
0.000100868
0.0002102852
0.0001008117
0.0001008679
0.0002103007
0.0001007977
0.000100868
0.000210286
0.0001008116
0.0001008672
0.0002126884
0.0001007963
0.0001008661
0.0001884092
0.0001008089
0.0001008333
0.0003040278
0.0001008333
0.0002940838
0.0001008576
0.0001007973
0.0001008405
0.0003057832
0.0002942935
0.0001008568
0.0001007969
0.0001008395
0.000294024
0.0002937822
0.0001008562
0.0001007969
0.0001008393
0.0002937532
0.0002937514
0.0001008562
0.0001007969
0.0001008392
0.0002937567
0.000293754
0.0001008562
0.0001007969
0.0001008392
0.0002937539
0.0002937546
0.0001008563
0.0001007969
0.0001008393
0.000293752
0.0002937531
0.0001008563
0.0001007969
0.0001008393
0.0002937515
0.0002937526
0.0001008563
0.0001007969
0.0001008393
0.0002937522
0.0002937528
0.0001008563
0.0001007969
0.0001008393
0.0002937524
0.0002937522
0.0001008563
0.0001007969
0.0001008393
0.0002937511
0.0002937508
0.0001008563
0.0001007969
0.0001008393
0.0002937518
0.0002937519
0.0001008563
0.0001007969
0.0001008393
0.0002937508
0.0002937522
0.0001008563
0.0001007969
0.0001008393
0.0002937521
0.0002937525
0.0001008563
0.0001007969
0.0001008393
0.0002937526
0.000293753
0.0001008563
0.0001007969
0.0001008393
0.000293752
0.0002937524
0.0001008563
0.0001007969
0.0001008393
0.0002937516
0.0002937521
0.0001008562
0.0001007969
0.0001008393
0.0002937518
0.0002937524
0.0001008563
0.0001007969
0.0001008393
0.0002937541
0.000293756
0.0001008563
0.0001007969
0.0001008393
0.0002937558
0.0002937593
0.0001008563
0.0001007969
0.0001008393
0.0002937642
0.0002937964
0.0001008393
0.000100797
0.0001008564
0.0002938229
0.0001016863
0.0001009433
0.0001458556
0.0001008878
0.0001433147
0.0001008862
0.0001430989
0.000100886
0.0001430323
0.0001008898
0.0001430284
0.0001008863
0.0001430304
0.0001008904
0.0001430317
0.0001008861
0.0001430301
0.0001008896
0.0001430289
0.000100886
0.0001430304
0.0001008896
0.0001430297
0.0001008859
0.0001430299
0.0001008894
0.0001430294
0.0001008859
0.0001430298
0.0001008894
0.0001430296
0.0001008858
0.0001430297
0.0001008894
0.0001430295
0.0001008858
0.0001430295
0.0001008894
0.0001430294
0.0001008859
0.0001430295
0.0001008894
0.0001430294
0.0001008858
0.0001430294
0.0001008894
0.0001430293
0.0001008858
0.0001430294
0.0001008894
0.0001430293
0.0001008859
0.0001430296
0.0001008894
0.0001430295
0.0001008858
0.0001430294
0.0001008894
0.0001430293
0.0001008859
0.0001430295
0.0001008894
0.0001430294
0.0001008858
0.0001430293
0.0001008894
0.0001430292
0.0001008858
0.0001430293
0.0001008894
0.0001430292
0.0001008859
0.0001430294
0.0001008894
0.0001430293
0.0001008858
0.0001430293
0.0001008894
0.0001430292
0.0001008858
0.0001430293
0.0001008894
0.0001430292
0.0001008858
0.0001430292
0.0001008893
0.0001430291
0.0001008859
0.0001430295
0.0001008894
0.0001430299
0.000100886
0.0001430324
0.0001008894
0.0001430411
0.0001010391
0.0001010322
0.0001010426
0.0001010475
0.0001010259
0.0001010574
0.0001010441
0.0001010457
0.0001010352
0.0001010582
0.0001010406
0.0001010474
0.0001010429
0.0001010401
0.0001010468
0.0001010364
0.0001009658
0.0001009959
0.0002099045
0.0001008341
0.000100833
0.0003059431
0.0002946591
0.0002098622
0.0001008333
0.0001008332
0.0002943068
0.0002941431
0.0002098627
0.0001008334
0.0001008333
0.0002940668
0.000294117
0.0002098631
0.0001008333
0.0001008333
0.0002940492
0.0002941118
0.0002098651
0.0001008337
0.000100851
0.0002940517
0.000294134
0.0001008568
0.0001007969
0.0001008394
0.0002937824
0.0002937599
0.0001008563
0.0001007969
0.0001008393
0.000293752
0.0002937525
0.0001008513
0.0001435065
0.0001008553
0.0001484611
0.0001009674
0.0001010006
0.0001008852
0.0001430311
0.0001008908
0.0001430794
0.0001008861
0.0001430303
0.0001008905
0.0001430298
0.0001008866
0.0001430312
0.0001008898
0.0001430305
0.000100886
0.0001430293
0.0001008901
0.0001430297
0.000100886
0.0001430297
0.0001008896
0.0001430301
0.000100886
0.0001430295
0.0001008896
0.0001430295
0.0001008859
0.0001430297
0.0001008895
0.0001430298
0.000100886
0.0001430295
0.0001008895
0.0001430295
0.0001008859
0.0001430295
0.0001008895
0.0001430294
0.0001008859
0.0001430295
0.0001008895
0.0001430295
0.0001008859
0.0001430294
0.0001008895
0.0001430294
0.0001008859
0.0001430294
0.0001008895
0.0001430293
0.000100886
0.0001430295
0.0001008895
0.0001430295
0.0001008859
0.0001430294
0.0001008895
0.0001430293
0.0001008859
0.0001430294
0.0001008895
0.0001430295
0.0001008859
0.0001430293
0.0001008895
0.0001430293
0.0001008859
0.0001430293
0.0001008895
0.0001430292
0.0001008859
0.0001430293
0.0001008895
0.0001430294
0.0001008859
0.0001430293
0.0001008895
0.0001430292
0.0001008859
0.0001430292
0.0001008895
0.0001430293
0.0001008859
0.0001430294
0.0001008895
0.0001430293
0.0001008861
0.0001430318
0.0001008896
0.00014303
0.0001008861
0.0001029853
0.0001430481
0.0001009199
0.000101043
0.0001010451
0.0001010427
0.0001010289
0.0001010476
0.0001010519
0.0001010344
0.0001010485
0.0001010445
0.0001010422
0.0001010404
0.0001010393
0.000101032
0.0001010589
0.0001010346
0.0001010416
0.000100946
0.0001458505
0.0001009558
0.0001437873
0.0001009934
0.0001485968
0.0001008513
0.0001435106
0.000100855
0.0001484649
0.0001009881
0.0001432592
0.0001009454
0.0001433262
0.0001008878
0.0001433178
0.0001008863
0.0001430999
0.0001008852
0.0001430306
0.0001008907
0.0001430804
0.0001008859
0.0001430316
0.00010089
0.0001430282
0.0001008861
0.0001430288
0.0001008904
0.0001430304
0.000100886
0.0001430433
0.0001008896
0.0001430285
0.000100886
0.0001430288
0.0001008899
0.0001430293
0.000100886
0.00014303
0.0001008896
0.0001430293
0.000100886
0.0001430293
0.0001008895
0.0001430297
0.0001008858
0.0001430295
0.0001008895
0.0001430296
0.000100886
0.0001430299
0.0001008896
0.0001430436
0.0001008859
0.0001430295
0.0001008894
0.0001430291
0.000100886
0.0001430292
0.0001008895
0.0001430291
0.000100886
0.0001430295
0.0001008896
0.0001430435
0.0001008859
0.0001430294
0.0001008894
0.000143029
0.000100886
0.000143029
0.0001008894
0.0001430291
0.0001008858
0.0001430289
0.0001008895
0.0001430289
0.000100886
0.000143029
0.0001008894
0.0001430289
0.0001008858
0.0001430289
0.0001008895
0.000143029
0.000100886
0.0001430291
0.0001008894
0.0001430289
0.0001008858
0.0001430289
0.0001008895
0.0001430292
0.0001008859
0.0001430324
0.0001008895
0.0001430436
0.0001008863
0.0001464214
0.0001430476
0.0001009199
0.0001838701
0.0001695376
0.000174811
0.0001740764
0.0001749509
0.0001742929
0.0001747897
0.0001748038
0.0001747549
0.0001745802
0.0001750026
0.000174242
0.0001745435
0.0001752317
0.0001745827
0.0001747395
0.0001758899
0.0001758968
0.0001749301
0.0001742607
0.0001009551
0.0001437919
0.0001009942
0.0001486057
0.0001739656
0.0001738058
0.00017488
0.0001742969
0.0001752022
0.0001758875
0.0001755642
0.0001752454
0.0001741794
0.0001743024
0.0001743706
0.0001755338
0.0001737477
0.0001740547
0.0001743439
0.000174533
0.0001750402
0.0001742496
0.0001828393
0.0001684373
0.0001010783
0.0001491589
0.0001011022
0.0001491965
0.0001595996
0.0001588495
0.0001596966
0.0001587843
0.0001010752
0.0001491267
0.0001491194
0.0001010919
0.0001010749
0.0001491291
0.0001491234
0.0001010931
0.0001010758
0.0001491296
0.0001010932
0.0001491251
0.0001010759
0.0001491332
0.0001010932
0.0001491275
0.0001010758
0.0001491331
0.0001491278
0.0001010936
0.0001010757
0.0001491333
0.000101093
0.0001491275
0.0001008859
0.0001430296
0.0001008895
0.0001430291
0.000100886
0.0001430245
0.0001008894
0.0001430279
0.0001008861
0.00014303
0.0001008895
0.0001430294
0.0001008861
0.0001430225
0.0001008894
0.0001430395
0.0001008859
0.0001430235
0.0001008895
0.0001430281
0.000100886
0.0001430248
0.0001008895
0.0001430283
0.0001008859
0.0001430296
0.0001008896
0.0001430436
0.0001008861
0.0001430221
0.0001008894
0.0001430393
0.0001008861
0.0001430286