/*--------------------------------*- C++ -*----------------------------------*\
  =========                 |
  \\      /  F ield         | OpenFOAM: The Open Source CFD Toolbox
   \\    /   O peration     | Website:  https://openfoam.org
    \\  /    A nd           | Version:  7
     \\/     M anipulation  |
\*---------------------------------------------------------------------------*/
FoamFile
{
    version     2.0;
    format      ascii;
    class       volScalarField;
    location    "0.01";
    object      p;
}
// * * * * * * * * * * * * * * * * * * * * * * * * * * * * * * * * * * * * * //

dimensions      [0 2 -2 0 0 0 0];

internalField   nonuniform List<scalar> 
82743
(
0.5321292
1.134036
0.5901993
0.7626592
0.5734075
0.6179543
0.4980456
0.4717209
0.3805427
0.2394425
1.509112
0.6744954
1.096084
0.8294723
0.9780987
0.7997567
0.7420113
0.6014946
0.363226
2.020021
0.8018859
1.39341
0.9416768
1.242695
1.040751
1.084414
0.7750827
0.1485907
2.060304
0.6418474
1.445055
1.537732
1.659084
1.379124
1.194501
0.9643256
0.3092135
2.480996
0.1887006
0.7853431
0.01214228
1.205655
1.375043
1.723154
0.7373736
0.40858
2.322002
0.2334091
0.3453585
0.1685803
1.094372
1.756835
1.43897
1.198657
0.9891683
3.121861
1.052612
0.304361
-3.833542
1.135191
1.453994
3.494859
2.138549
2.330099
1.613991
1.183196
1.93619
4.10636
2.684067
3.442527
3.122168
0.7395627
2.261884
4.421764
3.234199
3.995531
3.867668
1.117593
2.408817
4.716943
3.712288
4.398053
4.382875
0.4768339
2.420001
4.924912
4.072771
4.678817
4.789491
0.6779453
2.479105
4.937039
4.432597
4.832877
5.085593
0.3475439
2.582339
4.734024
4.113436
4.786734
4.919797
3.696157
2.622819
-0.09966305
1.479055
2.351467
4.677022
3.829623
4.113237
3.842064
3.188778
2.810857
1.973667
2.5526
2.401564
4.453779
3.450283
3.580109
3.327094
3.016954
2.690853
2.184915
2.252875
2.269516
4.399325
3.324191
3.549601
3.285384
3.007638
2.839801
2.503779
2.55964
2.20816
4.321168
3.137307
3.315625
3.109537
2.954229
2.81159
2.585753
2.545768
0.9451827
0.7470806
0.6489231
0.5680139
0.468205
0.4065181
0.3634795
0.3429401
0.3203317
2.564606
1.582576
0.9180053
1.148317
1.034712
0.8516258
0.8875215
0.7339456
0.6963224
0.5758286
2.506807
1.676748
1.228285
1.124861
1.106248
0.8049014
0.9834585
0.7789724
0.731931
0.5820905
2.531643
1.666741
1.464187
1.198129
1.419519
1.056204
1.329003
1.123438
1.134086
0.8080329
2.633664
1.746782
1.627406
1.117623
1.457232
1.40919
1.563613
1.414715
1.171963
0.9549862
2.646981
1.64553
1.71077
0.8107293
1.060188
0.84895
1.440466
1.568153
1.831796
0.8297381
2.788733
1.732811
1.764943
0.5021012
0.5308555
1.167665
1.097508
1.704765
1.363486
0.9983718
3.129926
2.051006
2.429539
1.338313
0.3362864
-5.649453
0.9949899
3.486912
2.519663
2.877374
2.278286
2.480009
1.099256
3.895461
2.969685
3.494439
2.832761
3.547958
0.9084169
4.215028
3.338208
3.838734
3.376905
4.14167
1.002974
4.482059
3.670478
4.134466
3.775495
4.547904
0.7084086
4.657374
3.910335
4.295832
4.029875
4.772486
0.8861042
4.754661
4.086642
4.30886
4.44323
4.834817
-0.05707886
4.776276
4.150722
4.248965
4.283682
4.689128
4.707239
3.388615
2.154055
-2.002573
2.249133
4.751059
4.172003
4.161553
4.010869
4.114415
3.853495
3.134149
2.663203
2.01107
1.996125
4.678325
4.099818
4.024377
3.804298
3.695623
3.410389
3.076416
2.68429
2.162129
2.258581
4.591959
4.039176
3.881556
3.65233
3.613141
3.310951
2.992291
2.790827
2.451425
2.422815
4.516801
3.996855
3.823246
3.585879
3.485521
3.189067
2.993543
2.822242
2.589206
2.528042
0.7618483
0.7926717
0.4748022
0.4552269
0.3482353
0.3349372
0.2765524
0.2537727
0.216272
3.206125
1.565807
0.8474784
0.7319295
0.7419444
0.56424
0.640688
0.512801
0.5017692
0.4032522
3.25078
0.1720457
1.724377
0.4657748
1.072935
0.7279673
0.9295711
0.7619306
0.7183985
0.5853905
1.913026
0.7048679
1.885859
0.6241905
1.436758
0.8932791
1.236068
1.002569
1.068677
0.757393
2.37089
0.3703299
2.243455
0.4406286
1.481411
1.398792
1.59649
1.427845
1.18366
0.9837565
2.189056
0.5804072
2.555326
0.07760325
0.8399631
0.5588587
1.318508
1.473596
1.87837
0.8533299
2.342529
0.5681105
2.456176
-0.09242477
0.5411433
1.14096
1.302309
1.922202
1.433152
1.021468
2.763136
1.06045
3.096605
0.8107961
0.3600753
-5.651466
0.9348279
3.078661
1.53353
3.361479
2.028934
2.322167
1.248357
3.551082
1.975457
4.089278
2.314023
3.726616
0.8308286
0.8692511
3.859752
2.355575
4.322498
2.995466
3.966348
0.7436339
1.02584
4.177391
2.602349
4.551055
3.345032
3.887868
0.3027208
0.6055085
4.412992
2.701004
4.89367
3.655693
4.65573
0.8823044
4.573913
2.804975
4.879725
4.083143
4.838309
0.2230796
4.606181
2.774433
4.882325
3.752779
4.67356
4.684739
3.257243
2.078433
-2.335231
1.417
4.555674
2.695595
4.878602
3.439767
4.18833
3.802256
3.140732
2.732305
1.872922
2.274761
4.473577
2.635887
4.788718
3.163562
3.657916
3.264636
3.023688
2.634993
2.177584
2.262335
4.379194
2.561511
4.792255
2.974338
3.550961
3.176988
2.970428
2.792177
2.447611
2.507636
4.305737
2.505265
4.753376
2.842384
3.362337
3.013231
2.935165
2.783729
2.573462
2.525139
0.7477563
0.4723451
0.2333963
0.2462369
0.1624893
0.1766504
0.1374722
0.1287553
0.101294
3.308747
2.040895
0.7548595
0.9172012
0.8808485
0.6682593
0.7267652
0.5843615
0.5614289
0.4566445
2.944872
1.115739
1.881654
0.572675
1.169597
0.7227202
0.9242644
0.7535737
0.7038459
0.570238
1.818834
1.53441
1.936699
0.7870745
1.565654
0.9471337
1.27197
1.003229
1.064254
0.7423917
2.344585
1.041525
2.311921
0.5191372
1.589143
1.388602
1.600608
1.477882
1.156871
0.9602192
2.225761
1.321473
2.553657
0.1912939
1.05606
0.8052991
1.418023
1.605497
1.936671
0.8784451
2.334622
1.273998
2.39365
-0.03780112
0.6293569
1.136433
1.320261
2.10698
1.478969
1.055864
2.737413
1.821842
3.134095
0.8056545
0.3051719
-5.677929
0.9672622
3.044344
2.270834
3.346054
2.278666
2.426377
1.257806
3.493609
2.700407
4.102934
2.380596
3.775641
0.9333936
1.015685
3.78913
3.078034
4.325852
3.011121
4.204486
0.7501065
1.006286
4.055215
3.34907
4.532579
3.389271
3.908523
0.2222684
0.7470057
4.27847
3.485398
4.909215
3.596954
4.70159
0.9286392
4.397473
3.668932
4.875326
4.154477
4.873895
0.6735059
4.406792
3.569141
4.923781
3.782987
4.709581
4.682641
3.163708
2.01839
-2.411288
1.471812
4.385896
3.453584
4.897726
3.482869
4.229271
3.766503
3.072207
2.640965
1.776993
2.115904
4.326727
3.364165
4.82984
3.202988
3.781367
3.28723
3.040569
2.63235
2.18512
2.217489
4.267954
3.251576
4.770977
2.986977
3.689634
3.174441
2.954353
2.751852
2.392903
2.439752
4.221353
3.164131
4.710755
2.868638
3.540628
3.033366
2.940806
2.771531
2.558968
2.5024
0.7522076
0.4897743
0.2567597
0.2695346
0.1797558
0.200236
0.158929
0.152487
0.1250867
3.588103
2.121753
0.6988256
0.7122349
0.7375896
0.5324223
0.6123794
0.4822693
0.4697769
0.3724541
3.486339
0.5687028
1.954368
0.3596651
1.100902
0.696793
0.9391777
0.773141
0.7301393
0.5961497
1.797113
1.020111
2.034389
0.5531196
1.519189
0.8858754
1.253938
0.984339
1.056145
0.7328606
2.589674
0.4710025
2.524968
0.2994762
1.52745
1.360644
1.586272
1.461178
1.167313
0.9614659
2.28999
0.8064216
2.808568
-0.08968097
0.8899429
0.6718058
1.368562
1.570133
1.968171
0.8482782
2.307878
0.7782537
2.623459
-0.2886968
0.5270238
1.088127
1.300202
2.152909
1.508578
1.074439
2.75233
1.368433
3.354936
0.6060173
0.2273534
-5.709359
0.9722614
3.030907
1.790398
3.473927
2.057487
2.360846
1.251126
3.488292
2.225321
4.300541
2.13138
3.863614
1.042668
0.9305484
3.791527
2.613559
4.49136
2.835691
4.277244
0.7580076
0.9883624
4.056278
2.86891
4.624586
3.174683
3.84339
-0.1574283
0.9256628
4.297582
3.015289
5.071224
3.393237
4.704292
0.9349002
4.552485
3.131509
5.012838
3.990891
4.847882
0.664026
4.622204
3.028177
5.083368
3.594978
4.649222
4.673358
3.143067
1.973322
-2.466932
1.44398
4.591203
2.882031
5.191958
3.264861
4.22164
3.752562
3.066614
2.649792
1.760786
2.119768
4.518536
2.778286
5.099364
2.988292
3.723665
3.231959
3.017749
2.616755
2.176774
2.229463
4.376959
2.723224
5.149127
2.753803
3.550592
3.108722
2.929376
2.741725
2.387285
2.445139
4.280497
2.63068
5.072781
2.635069
3.392982
2.942643
2.900611
2.75274
2.549841
2.498992
0.7436384
0.4649834
0.2280876
0.2394135
0.1533498
0.1751265
0.1372258
0.1298583
0.1016717
3.699874
2.163597
0.8106731
0.9058394
0.8892898
0.6628302
0.7303122
0.58427
0.5636493
0.4584852
3.586955
0.6622464
2.055902
0.3713942
1.115718
0.7035923
0.9448578
0.7723332
0.7297336
0.5935324
1.810503
1.223757
2.127251
0.5809292
1.59623
0.9357153
1.287572
1.003237
1.070623
0.7423081
2.545815
0.6709483
2.618626
0.2769774
1.54987
1.39535
1.593316
1.458116
1.173517
0.9615643
2.262552
1.073918
2.934535
-0.1470838
0.8723652
0.6670883
1.361005
1.560328
1.971607
0.8521807
2.309775
0.9385453
2.662893
-0.3037766
0.4992436
1.054028
1.29333
2.165689
1.516812
1.083712
2.748536
1.597796
3.475256
0.566825
0.1820353
-5.742027
0.978347
3.023746
1.976685
3.569324
2.098048
2.389509
1.258336
3.473378
2.404803
4.386643
2.136229
3.892491
1.047314
0.9535328
3.805008
2.779164
4.550453
2.852328
4.360632
0.7539258
0.9893946
4.03268
3.006471
4.64819
3.196425
3.884115
-0.2473281
1.004041
4.308883
3.125227
5.101884
3.399804
4.73033
0.9343856
4.546221
3.196574
5.041187
4.003116
4.856147
0.7190504
4.608376
3.063362
5.090621
3.596325
4.656363
4.681658
3.128076
1.963624
-2.480337
1.444012
4.561817
2.896207
5.196391
3.260853
4.215853
3.745919
3.05895
2.640726
1.74954
2.102667
4.48956
2.783477
5.102648
2.984578
3.719785
3.228753
3.014431
2.615184
2.176816
2.224417
4.367928
2.722703
5.157491
2.748231
3.544894
3.103724
2.924442
2.736368
2.381085
2.435649
4.277125
2.632735
5.092725
2.63366
3.391244
2.939248
2.896937
2.749369
2.546548
2.494982
0.7602985
0.5211602
0.2832941
0.2984769
0.2075518
0.221379
0.1800831
0.1694066
0.1420922
3.630521
2.12397
0.7294583
0.7122891
0.7718824
0.561529
0.6330434
0.5025463
0.4825189
0.3829143
3.625444
0.6545643
2.060636
0.4177565
1.203151
0.7448881
1.00049
0.8190498
0.7731039
0.6332714
1.945335
1.145519
2.139056
0.6129291
1.587773
0.9159976
1.291675
1.010805
1.079331
0.7591185
2.84617
0.6135852
2.624329
0.3153162
1.557689
1.372922
1.622678
1.511984
1.187231
0.9970806
2.501337
0.9991958
2.929351
-0.07854018
0.9599115
0.7695294
1.431883
1.625791
1.949639
0.8945197
2.487477
0.9339414
2.727397
-0.2746902
0.5255468
1.096713
1.32188
2.139589
1.505859
1.085061
2.938542
1.543514
3.487934
0.6123253
0.2042605
-5.730729
0.9737897
3.201482
1.93902
3.619002
2.083042
2.39262
1.236441
3.59055
2.354081
4.34199
2.183682
3.798698
0.9161465
1.020374
4.028239
2.753346
4.523818
2.877721
4.223868
0.7495293
1.001039
4.095451
3.029204
4.66558
3.242438
3.890092
0.2052185
0.7809731
4.304396
3.344946
4.941295
3.512977
4.730869
0.897897
4.386894
3.526529
4.871487
4.066518
4.850611
0.7259536
4.423262
3.530511
4.91511
3.737356
4.67579
4.671837
3.122504
1.985251
-2.468925
1.448376
4.39134
3.395279
4.883651
3.449309
4.208612
3.748997
3.050719
2.63484
1.748024
2.09953
4.375614
3.295793
4.82664
3.180345
3.761101
3.275344
3.031697
2.632873
2.189976
2.228759
4.346702
3.174662
4.776362
2.963408
3.662002
3.157312
2.93943
2.743174
2.380057
2.433345
4.302451
3.07871
4.733963
2.843025
3.508811
3.013516
2.923643
2.76182
2.55048
2.495683
0.7053596
0.4039092
0.1565312
0.1235096
0.09141207
0.06133325
0.07159608
0.03663253
0.01412178
3.315368
2.052816
1.068619
1.220079
1.222933
0.9347602
1.024074
0.8374132
0.8075377
0.6750576
2.78521
0.9454283
1.970405
0.5222557
1.256149
0.7350872
1.021721
0.8106387
0.780337
0.6223341
1.61384
1.314896
2.058992
0.7258429
1.708129
1.069137
1.388255
1.121774
1.174459
0.8455121
2.119247
0.8291851
2.429537
0.4117639
1.628383
1.463774
1.65137
1.475573
1.234801
1.022201
1.899192
0.9795051
2.705209
0.0345141
0.9199702
0.6195966
1.373672
1.508254
1.919102
0.8856489
2.00365
0.9581171
2.563965
-0.1389407
0.5783634
1.135418
1.376456
2.146042
1.544449
1.111194
2.440018
1.478151
3.136787
0.7872736
0.2976935
-5.697374
0.9499076
2.80129
1.945884
3.379193
2.060877
2.332817
1.203453
3.243229
2.364876
4.097002
2.288441
3.84792
0.9416894
0.9644466
3.756977
2.780517
4.309079
2.981672
4.084425
0.7030851
0.9204647
3.884901
2.962391
4.56045
3.328968
3.962954
0.3048181
0.7233663
4.481637
2.993218
4.877367
3.592982
4.699781
0.7914929
4.625427
2.922613
4.847544
4.052031
4.814269
0.6317709
4.648044
2.837099
4.840746
3.717604
4.652889
4.665407
3.150957
2.041047
-2.422124
1.475817
4.529032
2.709446
4.858483
3.419511
4.162076
3.775024
3.105795
2.698831
1.812028
2.132078
4.465061
2.640851
4.778583
3.152428
3.650057
3.25606
3.013564
2.641284
2.193108
2.233397
4.349301
2.593482
4.792957
2.958601
3.537438
3.158097
2.949863
2.771411
2.414324
2.454318
4.315841
2.511589
4.764456
2.827922
3.352843
2.997307
2.919592
2.771707
2.560083
2.504559
0.8402467
1.127239
0.9186845
0.916154
0.7719195
0.7100796
0.5865324
0.5595363
0.4995721
3.169708
1.825593
0.9885734
0.9351721
1.005346
0.7950571
0.8266543
0.6804466
0.6450291
0.5338907
3.351422
0.5897199
2.07268
0.7343053
1.441541
0.9850082
1.143297
0.9421798
0.8670887
0.7294342
2.417388
1.241834
2.175684
0.7557569
1.630345
1.015604
1.368697
1.119272
1.151808
0.8208511
3.041841
0.7487226
2.537995
0.518713
1.6045
1.423943
1.624377
1.458281
1.223636
1.012151
2.834078
1.058011
2.806276
0.1178001
1.051227
0.7741547
1.493702
1.595834
1.892036
0.8634316
2.857736
1.080259
2.70566
-0.04366329
0.6278592
1.228142
1.437311
2.073242
1.594181
1.169424
3.2884
1.516278
3.30001
0.8977167
0.402765
-5.614389
0.9891545
3.616538
1.997179
3.580683
1.906466
2.540414
1.17394
3.897544
2.445589
4.129534
2.441572
3.403368
1.051082
4.531051
2.865515
4.369865
3.015385
4.108642
1.046986
4.111381
2.999419
4.592216
3.449423
4.554164
0.8669305
4.235693
3.788803
4.508087
3.869472
4.719028
0.820519
4.592478
3.866419
4.386847
4.310649
4.797476
0.7815775
4.678809
4.001746
4.266327
4.202757
4.624926
4.673292
3.24229
2.113845
-2.297165
1.543351
4.75066
4.080326
4.133084
3.954651
4.084149
3.825092
3.086686
2.694727
1.820975
2.138716
4.658899
3.973742
3.96935
3.744258
3.670426
3.399399
3.072315
2.706755
2.245968
2.251141
4.627633
3.949813
3.826995
3.589132
3.575519
3.278892
2.966056
2.786617
2.41154
2.450696
4.530966
3.843641
3.748977
3.496129
3.44881
3.15086
2.968525
2.808198
2.57785
2.513073
1.003954
0.8986693
0.9098241
0.848021
0.7328528
0.6638778
0.5980553
0.5644585
0.5362799
2.767295
1.685438
1.47084
1.350206
1.419528
1.116328
1.158123
0.9784955
0.9160926
0.7676173
2.651613
0.608129
1.632335
0.5662591
1.176538
0.681435
1.041788
0.7638723
0.7132544
0.5627116
2.739064
1.231829
1.98258
0.8819155
1.689882
1.103588
1.460658
1.22926
1.258496
0.9010465
2.592148
0.7679179
2.09676
0.5810702
1.575539
1.45137
1.644825
1.405758
1.268317
1.00639
2.494793
0.9024643
2.337025
0.2262067
0.9754527
0.3560852
1.370627
1.452748
1.837885
0.7951518
2.723768
0.9658847
2.265112
0.1643431
0.5384991
1.095175
1.24449
1.9827
1.577588
1.280292
3.160662
1.491408
2.885053
1.090088
0.3433389
-5.611055
1.266111
3.301606
1.961494
3.276522
2.088806
2.291683
1.249359
3.855466
2.422728
3.874146
2.619536
3.169309
1.202825
4.215666
2.802519
4.120258
3.148673
3.757944
1.209524
4.313018
2.967949
4.415196
3.596903
4.280353
1.118077
4.48748
3.288414
4.593178
3.872348
4.536411
0.9169842
4.433212
2.727608
4.666252
4.349601
4.7602
0.2449053
4.866744
2.708002
4.67352
4.09563
4.614442
4.71232
3.46445
2.27342
-1.635496
1.49789
4.910043
2.360668
4.604799
3.809494
4.08342
3.817269
3.171932
2.817254
1.999132
2.316122
4.909693
2.431178
4.436706
3.47394
3.582832
3.338332
3.027442
2.69673
2.240404
2.268841
4.822249
2.294328
4.336892
3.28831
3.516324
3.256116
2.984235
2.821096
2.46633
2.493283
4.732987
2.216112
4.304758
3.119519
3.288651
3.087496
2.935794
2.797668
2.572171
2.519301
1.13719
0.2535738
1.642821
1.080989
-0.04842939
1.213839
0.2253451
0.2712018
-0.1489373
0.6240282
0.8435819
0.9210584
0.2755187
0.2653674
0.6148029
0.5889026
0.5623074
0.7516395
0.2226555
0.2207572
0.453391
0.4641658
0.5318837
0.6802533
0.1964911
0.2053787
0.4562811
0.4626687
0.4400618
0.6059652
0.1659092
0.1757507
0.3887243
0.4308555
0.4396852
0.5583346
0.1491076
0.1566621
0.4031136
0.4084185
0.3921518
0.4801084
0.1315661
0.1368647
0.3577987
0.3518608
0.3631616
0.4276806
0.1197196
0.1212481
0.3250857
0.3124463
0.3292227
0.1084496
0.2903784
1.384855
1.599301
1.975665
1.474839
1.744635
1.795618
2.356236
1.600426
2.633564
2.272546
1.807904
1.993181
2.707584
1.585785
2.839151
2.557324
1.920854
2.074488
2.889947
1.695692
2.961053
2.763438
1.981485
2.149497
2.968887
1.753331
3.00568
2.84463
2.072857
2.184445
3.14571
1.919522
3.128982
3.019024
2.301368
2.378308
-0.179221
-5.781298
1.035352
-0.05213597
-8.749851
1.915789
1.965145
2.07965
1.329634
0.7160121
1.539179
1.327877
0.8313703
3.43125
2.297687
3.401286
3.281452
2.664372
2.718376
0.7700516
-5.599727
3.796856
2.746343
3.735044
3.61836
3.07534
3.124154
2.437542
4.201613
3.213718
4.113944
4.017016
3.482977
3.531625
3.185138
4.545117
3.587156
4.448215
4.357821
3.815629
3.870582
3.702241
4.801429
3.899817
4.70997
4.624727
4.077856
4.144021
4.116874
4.964319
4.128072
4.899773
4.805653
4.275382
4.358338
4.438459
5.046503
4.288213
5.021622
4.888608
4.398861
4.500359
4.969255
-0.3724397
-1.209015
-0.2285983
-0.2162509
5.077437
4.386686
5.072047
4.919822
4.458975
4.579977
5.070634
4.386894
5.067812
4.912036
4.442357
4.57987
5.017009
4.355067
5.01887
4.85874
4.385557
4.539577
4.948567
4.300072
4.946097
4.785895
4.31755
4.478938
4.875455
4.248831
4.869199
4.711977
4.422598
0.1560206
2.714247
1.193066
0.1339707
3.475267
1.238113
0.07861582
-8.722055
1.223289
0.3151374
-8.744716
1.200286
0.8091399
1.550896
1.370095
0.82848
-5.587536
4.766481
4.824707
-0.749008
1.435637
-1.181716
1.348085
4.221649
4.039214
4.05773
4.721646
4.225357
3.970308
3.96729
0.1132312
3.859241
1.436424
0.1178142
4.430837
1.357964
0.2492836
-8.816925
1.127669
0.2988968
-8.853025
1.245983
0.8310058
1.508315
1.334673
0.8325618
-5.671888
4.784879
4.790963
-1.311975
1.460469
-1.444724
1.218332
4.214342
3.977752
3.994356
4.69205
4.189211
3.936999
3.946048
0.2794338
0.7366834
1.58565
-2.389971
0.9997853
0.5881513
1.47301
0.1117562
4.534258
1.481678
0.1165341
4.677277
1.519844
0.3108834
-8.852565
1.129842
0.3076971
-8.860002
1.312299
0.8394124
1.492406
1.322023
0.8510822
-5.690301
4.79959
4.786183
4.17876
3.945681
3.948533
4.679706
4.177665
3.93919
3.936353
0.8870021
0.6301823
1.580797
-2.461923
0.8815216
0.574954
1.548419
0.1172857
4.700949
1.582646
0.1205547
4.758317
1.593314
0.2796985
-8.880193
1.066695
0.2731372
-8.908235
1.333026
0.8559216
1.513781
1.338927
0.8563008
-5.737889
4.782599
4.794902
4.175447
3.922557
3.923367
4.682478
4.170668
3.916781
3.916831
0.8601047
0.5868997
1.543982
-2.478959
0.8550442
0.5743036
1.521992
0.1223646
4.760481
1.608248
0.1232924
4.755861
1.596854
0.2711125
-8.911947
1.067329
0.2774487
-8.906149
1.340414
0.85657
1.515336
1.338881
0.8606151
-5.739452
4.795387
4.779878
4.169147
3.91348
3.912751
4.666356
4.1651
3.914224
3.914381
0.8532114
0.5751856
1.524452
-2.473941
0.8529663
0.5823915
1.526462
0.1218499
4.742018
1.573997
0.1195273
4.645905
1.537021
0.3022572
-8.897975
1.114414
0.313117
-8.884373
1.333433
0.8594216
1.500891
1.327665
0.8489923
-5.713165
4.782593
4.775568
4.162905
3.922414
3.919549
4.657911
4.156883
3.924635
3.927336
0.850806
0.5902068
1.528062
-2.445427
0.8622803
0.6139199
1.543
0.1172915
4.594447
1.47819
0.1234473
4.463351
1.413633
0.3295693
-8.874748
1.15474
0.279336
-8.82756
1.358676
0.8395948
1.46809
1.267849
0.8470451
-5.661276
4.767645
4.762258
4.164137
3.91429
3.916541
4.65436
4.168225
3.954925
3.962257
0.8706664
0.6208897
1.541371
-2.325626
0.9067918
0.7338893
1.607324
0.139438
4.388308
1.337153
0.1653765
3.645843
1.507612
0.3752364
-8.773382
1.167591
0.1387712
-8.780407
1.395758
0.8502152
1.377981
1.216262
0.8440993
-5.691033
4.781526
4.801712
4.177936
3.94722
3.932695
4.695783
4.169035
4.034465
4.027381
0.918612
0.7356739
1.569951
-1.906037
0.9198523
0.9359873
1.632705
0.1468686
3.17116
1.176673
0.4695207
1.50994
0.583075
-0.5017358
-0.4616683
0.3153558
0.4504786
0.5532211
-0.511674
-0.5438577
0.3180974
0.4167826
1.076361
1.273833
0.4172065
2.19048
0.6233056
0.7754092
1.01769
0.4155983
2.301714
0.7504626
1.538776
1.407217
0.8525716
2.651773
0.9344619
0.1809737
-8.781745
0.3546987
0.1264557
-6.317215
1.909325
1.114324
1.714963
2.140761
1.651381
2.001322
1.345731
0.8673164
1.443846
1.331891
0.7279496
1.678601
1.887209
1.324011
3.104448
1.479635
-4.215677
0.7537705
1.788234
2.463384
3.161869
4.174528
3.562385
4.12634
4.403207
4.117046
4.12971
4.906889
4.118029
4.823595
4.880258
-0.694777
0.2210493
-0.4579254
-1.172341
4.680484
4.194078
4.376674
4.912393
4.280173
4.161629
3.957761
3.930276
4.847297
4.129266
4.005663
4.037213
0.6752496
0.8824582
1.454654
-1.125531
0.438118
1.132341
1.752591
4.755423
4.357487
4.46129
4.926187
4.299318
4.738207
4.136653
4.381396
4.917497
3.831551
4.239031
4.658734
4.239298
4.3292
4.312953
4.835716
4.153216
4.552594
3.927034
4.214809
4.732821
4.125012
0.4122148
0.8741843
-0.1167396
0.6224757
-0.009420429
0.7656002
-0.1736064
0.9309418
0.1505151
0.7404025
-0.1722392
0.7718024
0.07707542
0.6038155
-0.1341277
0.6549052
0.08070963
0.5151822
-0.1061399
0.5458778
0.05423712
0.4360238
-0.07928021
0.4767551
0.06111867
0.3830522
-0.07349052
0.4199277
0.05572009
0.320157
-0.07511031
0.3764912
0.04859485
0.2768597
-0.08661535
0.3357586
0.03099115
0.2367438
1.322576
1.261072
1.214296
1.207556
1.733966
1.831103
1.78231
1.402522
1.876087
2.026943
2.016508
1.470428
1.965077
2.151149
2.144091
1.556441
2.044246
2.240621
2.237683
1.635215
2.21633
2.402738
2.396252
1.807583
0.1894724
-0.6953244
-4.938268
0.4678267
-0.1729502
-0.6899211
-6.091337
1.771788
1.20335
1.911842
2.528396
2.688997
2.6808
2.120516
-1.165355
0.4401518
0.4665859
0.2964304
-1.299703
0.864561
0.4999509
-0.4929006
-5.446725
-0.4955717
0.9890991
0.679997
0.9583996
0.4442425
2.923942
3.063941
3.06265
2.502266
1.910432
2.186829
2.246141
2.279091
2.002957
2.263248
2.225378
1.852413
2.090883
1.785516
1.076886
0.3688955
1.054801
0.3694497
3.339421
3.47073
3.478678
2.892941
3.24339
2.845142
3.035281
3.22342
3.084559
3.096369
3.03269
2.943449
3.503532
2.806979
1.586709
0.1139221
1.376061
0.2260796
3.700088
3.830284
3.854762
3.222536
3.920941
3.31044
3.59856
3.862434
3.802943
3.664318
3.639347
3.578648
4.262258
3.409147
1.680822
-0.03744113
1.375898
0.05846866
3.970626
4.11995
4.146552
3.474473
4.383446
3.7539
4.015273
4.334163
4.329256
4.056256
4.02032
4.016918
4.780023
3.827862
1.320412
-0.1025368
1.075868
-0.1779694
4.156806
4.312327
4.346353
3.654331
4.75148
4.181852
4.397518
4.609301
4.622942
4.233206
4.397575
4.362391
5.185066
4.168371
0.5658037
-0.4782155
0.6991669
-0.3880148
4.26894
4.406973
4.466251
3.757203
4.95829
4.440832
4.859286
4.758542
4.908993
4.407482
4.783184
4.618703
5.479796
4.458904
-2.845549
-1.251064
-1.12594
-2.708509
4.317718
4.439818
4.516629
3.798224
4.088985
3.949994
4.027244
4.631295
4.207496
3.963553
3.969306
3.420168
3.3397
3.23402
3.395247
3.323183
3.251712
3.183649
0.9401859
2.407268
2.364749
2.3463
-0.4134788
2.261015
1.898896
0.9415965
1.466571
1.73339
-1.636601
2.408588
1.067279
0.6099712
4.300871
4.424081
4.509809
3.779609
4.248141
4.361371
4.455377
3.72265
4.183037
4.287611
4.384235
3.650963
4.117525
4.20889
4.307591
3.579081
0.2943873
0.2521896
-0.3230697
-0.6791771
-6.191841
0.5921025
-0.3698015
-0.7517744
-6.394665
2.013936
2.052712
2.152873
-1.254159
0.633935
0.3329125
0.4048494
-1.373832
0.7082537
0.4208917
-5.587809
0.8118202
0.7229778
0.8343459
0.7221072
4.949279
4.493016
4.801708
4.78833
4.845838
4.405827
4.673451
4.882436
3.903195
4.379984
4.651524
4.85517
3.924689
4.337467
4.6043
4.484217
4.553711
4.750101
4.625982
4.457229
4.525184
-0.7009784
2.183127
1.968862
2.046442
-0.6678575
2.106634
1.766668
2.6465
0.874823
0.8057292
-2.107187
2.595986
0.7197512
0.5715009
0.3803535
0.3778726
-0.5850817
-0.8172274
-6.51335
0.560171
-0.6033881
-0.8624912
-6.546355
2.10882
2.127553
2.18074
-1.447727
0.6396646
0.3377969
0.3152763
-1.44881
0.6094234
0.4116259
-5.661513
0.7889609
0.6124293
0.8054057
0.5702757
4.850093
4.470258
4.670848
4.833887
4.811571
4.45275
4.644979
4.844372
3.893403
4.318462
4.678107
4.839078
3.879843
4.311779
4.564253
4.416218
4.508124
4.696369
4.592155
4.396644
4.483575
-0.6393788
2.108265
1.94242
2.038597
-0.6616872
2.010053
1.841791
-0.9591437
-4.151018
0.2963542
-2.300917
-1.0691
-4.409194
0.1969244
0.4257575
0.4211345
-0.5897948
-0.8164193
-6.546953
0.6092992
-0.5972727
-0.8476972
-6.560015
2.162389
2.136767
2.171098
-1.463163
0.5711524
0.3805897
0.2720724
-1.474239
0.5317178
0.3884286
-5.672933
0.8370156
0.5714934
0.8219788
0.4964455
4.823745
4.515249
4.660384
4.870581
4.798049
4.505831
4.648467
-1.450874
1.277962
-1.515028
1.225742
4.837481
3.911384
4.311062
4.700547
4.825912
3.911035
4.304534
4.554816
4.38058
4.478498
4.687649
4.556458
4.377018
4.477018
-0.6732302
2.035574
1.877933
1.988457
-0.7165287
1.999866
1.826747
-1.05551
-4.559875
0.07298624
-2.42584
-1.008618
-4.636508
0.04375037
0.4569412
0.4467029
-0.6624681
-0.9336969
-6.596197
0.5082495
-0.6836742
-0.951981
-6.62164
2.179857
2.166888
2.18566
-1.505322
0.5030508
0.3514032
0.1968938
-1.527358
0.4646812
0.3370266
-5.720104
0.8378759
0.4918717
0.8257032
0.4345808
4.784012
4.476132
4.63982
4.852765
4.784716
4.50269
4.650829
-1.547407
1.180733
-1.561248
1.162227
4.821162
3.868123
4.270126
4.655619
4.826577
3.851889
4.267741
4.543853
4.363831
4.465609
4.678312
4.546291
4.361515
4.462707
-0.7231608
1.998886
1.83043
1.964389
-0.7374367
1.986675
1.812771
-1.102012
-4.685451
0.01572311
-2.470135
-1.092
-4.695891
0.006443415
0.4672883
0.4556156
-0.6971327
-0.9650804
-6.627166
0.5012647
-0.6914633
-0.9612537
-6.623423
2.19002
2.154589
2.188455
-1.535762
0.4516529
0.3287889
0.1859159
-1.533926
0.4546809
0.3245763
-5.742748
0.8276953
0.4382448
0.8403622
0.4812816
4.784254
4.506252
4.651839
4.853356
4.780006
4.488167
4.640767
-1.559716
1.162606
-1.569412
1.168496
4.825737
3.848306
4.26444
4.648457
4.81618
3.856468
4.262716
4.540348
4.357784
4.46238
4.672854
4.542588
4.35702
4.460621
-0.7383166
1.985607
1.813021
1.96839
-0.7314147
1.994402
1.820992
-1.112491
-4.705435
0.0008960841
-2.479089
-1.109598
-4.706302
-0.002156242
0.4557016
0.4479231
-0.6623743
-0.9366288
-6.606857
0.5503431
-0.6479255
-0.9097112
-6.590759
2.182965
2.117565
2.183483
-1.520372
0.4730787
0.3448895
0.2409747
-1.505218
0.5136625
0.3376572
-5.725248
0.8309936
0.4879215
0.8469126
0.5716606
4.786227
4.487509
4.641794
4.846204
4.796299
4.483023
4.635918
-1.554148
1.189601
-1.539274
1.220812
4.816137
3.880409
4.284458
4.675559
4.81231
3.876693
4.285326
4.534079
4.356878
4.457653
4.6637
4.537285
4.356854
4.456631
-0.7239642
2.000276
1.828901
2.008492
-0.6947819
2.02479
1.85298
-1.100587
-4.701982
0.009965809
-2.463718
-1.10505
-4.696457
0.01364705
0.4208976
0.4273731
-0.614504
-0.871696
-6.568399
0.5909314
-0.5928489
-0.805629
-6.529992
2.211318
1.940913
2.143099
-1.473153
0.5836022
0.3872808
0.3654267
-1.452628
0.6622083
0.3357841
-5.685258
0.8125043
0.5759452
0.8084893
0.622779
4.782269
4.430089
4.622875
4.821384
4.815729
4.437379
4.642084
-1.547993
1.229459
-1.459025
1.293649
4.812941
3.846181
4.287253
4.650645
4.816314
3.855817
4.294139
4.542706
4.363529
4.459785
4.64641
4.538759
4.366471
4.461755
-0.6706738
2.022164
1.853022
2.097361
-0.5786753
2.119428
1.97493
-1.044669
-4.667583
0.06223393
-2.412361
-1.055236
-4.651143
0.07361216
0.4030944
0.4062438
-0.4529203
-0.7433172
-6.448165
0.5588716
-0.4265661
-0.6708031
-6.296751
2.193133
1.684876
2.053416
-1.402085
0.7443086
0.3978245
0.3124346
-1.258912
0.555593
0.3011331
-5.612106
0.8466503
0.7659177
0.8792542
0.7740645
4.80417
4.377053
4.624366
4.843273
4.835685
4.379804
4.678663
-1.491605
1.294937
-1.287997
1.17327
4.820621
3.876327
4.309407
4.648028
4.844714
3.829095
4.335192
4.555119
4.381446
4.473698
4.656661
4.553557
4.390585
4.478423
-0.5689386
2.121311
1.918521
2.218862
-0.2141615
2.178382
2.095722
-0.8803732
-4.574542
0.1659005
-2.222087
-0.946961
-4.445812
0.2209294
0.3185735
0.3562418
0.7616016
-0.4027938
-0.2228709
0.4955947
0.4434188
0.007769096
1.185635
1.006731
-0.2389606
-0.5366512
0.4748679
0.6227575
1.263175
0.940633
-0.5778747
-0.74841
0.5266838
1.00343
0.8403666
-0.7199093
-0.6502724
0.5318443
0.4913848
0.6716173
0.7502145
-0.5607946
-0.5240443
0.4251025
0.6956134
0.6594906
-0.5616083
-0.5271361
0.3701327
0.5495197
-0.5746223
0.3007286
0.9361114
1.934882
1.219362
1.646946
1.552753
1.105136
0.9523418
0.5858995
2.655705
0.9977808
0.8859197
1.529025
1.208535
0.6785497
2.120367
2.430016
0.6764924
-0.2082291
-0.6531877
-6.19242
0.3887349
0.1084803
-0.5979645
-5.577643
-1.238256
0.9146219
0.4572725
0.3671742
-1.277134
0.3740216
0.5616006
-5.452695
0.8885313
0.5825187
1.068361
0.6573815
2.261226
2.221935
1.790817
3.545518
1.919676
1.913749
2.298766
2.25156
2.366535
1.829634
2.205793
2.178642
1.038657
0.6431339
1.136217
0.7316185
2.683786
2.810509
2.206036
3.824119
2.343533
3.108756
3.133615
2.931362
3.397844
3.259324
2.974775
2.912994
1.278124
0.5824353
1.24449
0.7139977
3.074969
2.834537
2.696605
4.330721
3.311892
3.003443
4.166384
3.57576
3.253308
3.92306
4.042214
3.212352
3.549019
1.250603
0.3644219
1.237616
0.4754196
3.472527
3.304065
3.238505
4.235246
4.418881
3.805966
3.324596
4.205432
3.991377
4.036753
4.380497
4.101841
3.924854
3.887636
0.9799784
0.02073886
1.04408
0.2055071
4.057445
3.63507
3.524963
4.702593
4.029425
3.741203
4.484944
0.5875691
-0.4177174
0.6864914
-0.5656572
4.759506
4.330524
4.665579
4.878594
4.894937
4.354336
4.734822
4.841906
3.792564
4.345591
4.773655
4.928815
3.707686
4.484252
4.569739
4.37933
4.495588
4.746293
4.541377
4.427925
4.527997
3.330734
3.347068
3.295367
3.68843
3.149143
3.349971
3.260526
-0.03363171
2.126723
1.971598
2.629149
0.9506059
2.280173
2.279922
-0.2684791
-3.812247
0.5210112
-1.448782
-0.4386061
-3.575297
0.5968253
0.03420401
0.725521
-0.0135084
0.7116153
0.8929181
0.7643851
0.7436624
0.8092731
0.2425118
0.3415938
-0.09807953
0.9242939
0.1531183
0.6854628
-0.2058338
0.9298274
0.1592406
0.6436555
-0.2048747
0.7165041
0.09271477
0.4992063
-0.1530969
0.643604
0.1115474
0.4445554
-0.1354672
0.5233452
0.07492775
0.3608861
-0.1005828
0.4705963
0.07682187
0.3279235
-0.0970832
0.4069082