/*--------------------------------*- C++ -*----------------------------------*\
  =========                 |
  \\      /  F ield         | OpenFOAM: The Open Source CFD Toolbox
   \\    /   O peration     | Website:  https://openfoam.org
    \\  /    A nd           | Version:  7
     \\/     M anipulation  |
\*---------------------------------------------------------------------------*/
FoamFile
{
    version     2.0;
    format      ascii;
    class       surfaceScalarField;
    location    "0.01";
    object      phi;
}
// * * * * * * * * * * * * * * * * * * * * * * * * * * * * * * * * * * * * * //

dimensions      [0 3 -1 0 0 0 0];

internalField   nonuniform List<scalar> 
249116
(
0.01859295
-0.08920184
-0.004513657
0.02301936
0.02417641
0.02767599
0.02741421
-0.002652201
-0.01069713
-0.004747537
-0.00906659
0.01364479
-0.08374976
-0.005512396
0.02164121
0.0221454
0.02530589
0.02511779
0.01174483
-0.07568823
-0.006289867
0.019296
0.01970432
0.02249325
0.02238448
0.0102351
-0.06914887
-0.005742629
0.01758462
0.01798329
0.02044184
0.02039146
0.008531493
-0.06173236
-0.005197217
0.01582328
0.01612644
0.01836151
0.01832196
0.006667851
-0.05599622
-0.004735513
0.01445411
0.01471406
0.01672637
0.01670083
0.004905786
-0.051637
-0.004377156
0.0133732
0.01355177
0.01543528
0.01541597
0.003600352
-0.04905992
-0.004138968
0.01263885
0.01277328
0.01455989
0.0145323
-0.04712528
-0.003956473
0.01208273
0.01389383
0.002669617
0.01216776
0.01386817
0.02469511
-0.08326459
0.001362681
-0.002994287
-0.01154151
-0.006949166
-0.01051011
0.02039169
-0.07821682
-0.001229535
0.01830585
-0.07185422
-0.001748177
0.01659262
-0.06573858
-0.001697078
0.01398057
-0.05764454
-0.00147577
0.01076517
-0.05142211
-0.001358717
0.007699747
-0.04731037
-0.001261203
0.005527181
-0.04565453
-0.001232825
-0.04448673
-0.001192594
0.004081228
0.02895424
-0.07967417
0.002156853
-0.003913645
-0.01191317
-0.007763314
-0.0111114
0.02577722
-0.0755941
0.0005542849
0.02446038
-0.070523
-1.439288e-05
0.02345564
-0.06466133
-7.252144e-05
0.01993309
-0.05406181
-6.019198e-05
0.01484918
-0.04633557
-2.631919e-06
0.009968708
-0.04241793
-1.197598e-05
0.006894615
-0.04250809
-7.23457e-05
-0.04241159
-9.305069e-05
0.004912521
0.0315789
-0.07757912
0.00297151
-0.004549872
-0.01220066
-0.008355624
-0.01153934
0.02977908
-0.07456589
0.0007715955
0.03017771
-0.07148822
0.0005665744
0.03132805
-0.06686372
0.001052056
0.02749692
-0.05155274
0.001322057
0.01907701
-0.03907372
0.001158048
0.01126781
-0.03554495
0.000936221
0.007095313
-0.03930752
0.0009719335
-0.04152538
0.0007763471
0.005432754
0.03428526
-0.07671058
0.002813065
-0.004984276
-0.01238985
-0.008768094
-0.01182466
0.03405652
-0.07539156
0.001054393
0.03773408
-0.0764002
0.001234409
0.04477832
-0.02046294
0.00298959
-0.0151455
-0.02208222
-0.0192069
0.03912245
-0.0157187
0.003216746
-0.006776083
-0.01685329
-0.009765556
0.02298674
-0.007885305
0.002378927
-0.004007398
-0.007547749
-0.005876492
0.01004051
-0.006336655
0.002500966
-0.00566191
-0.006604367
-0.006496758
0.005111661
-0.008197741
0.002533564
-0.00903242
-0.009402353
-0.01027972
-0.009682693
0.002281171
-0.01122888
0.004152837
-0.01024768
-0.01168847
0.03438862
-0.07588493
0.002865951
-0.005078031
-0.01234164
-0.008844849
-0.01181573
0.03482911
-0.07666181
0.000829747
0.01239937
-0.08157185
3.940439e-05
0.005257796
0.01217082
0.01013337
0.0131683
-0.02164809
0.0004162014
0.01840859
0.0007620526
-0.01874322
-0.002962672
-0.005414157
-0.006577612
-0.001191697
-0.01635225
0.01059235
0.0007093035
-0.00132166
-0.000936975
-0.0005023263
-7.376889e-05
0.003316629
0.0003734053
-0.007908617
-0.0006002613
-0.0007160084
-0.0006675538
-0.0001342522
-0.0005675677
-0.0006365036
0.0007430949
-0.002486864
-0.001246398
-0.001681796
-0.002321709
0.0003020131
-0.01011271
0.0005601878
-0.0004321917
0.03095277
-0.0728906
0.00244079
-0.004784644
-0.01184744
-0.008396147
-0.01135969
0.02799856
-0.07414285
0.0004352338
0.01138227
-0.08068665
-0.001463554
0.001287915
0.01100533
0.00490139
0.02671293
-0.02326043
-0.0007572542
0.001926113
0.003183446
0.002930228
0.0006472394
0.002251667
-0.0005717788
-0.001567526
-0.0001123687
0.0006969919
0.01074136
-0.01045026
-0.0005867291
0.0005496172
-0.0002930632
4.864546e-05
-0.0007065884
0.02790306
-0.06804166
0.002306021
-0.004634311
-0.01137249
-0.008075986
-0.01097526
0.02249507
-0.06895897
0.0002240935
0.007781353
-0.07297139
-0.001533039
-0.0002393468
0.006408548
0.002362277
0.02457999
-0.02040627
-0.0005548531
0.0007853866
0.001932435
0.001450751
-6.090599e-06
0.001370325
-0.0002355835
-0.001099526
-3.521443e-05
-0.05141462
0.0001265234
0.001487448
-0.002932143
0.002147187
-0.001196673
0.01050196
0.01423818
0.002355442
0.01140308
0.01328359
0.02611356
-0.062251
0.002223697
-0.004642633
-0.0109315
-0.007885742
-0.01066808
0.019714
-0.06240132
-0.0001581196
0.006301606
-0.06459814
-0.0008329813
-0.0005816058
0.004856761
0.00159695
0.02161626
-0.01781482
-0.000615405
0.0005452647
0.001554912
0.001102613
-8.722502e-05
0.001157265
-0.0001982503
-0.000922238
-3.677582e-05
-0.05232467
-0.0002401853
0.002039734
-0.003224883
0.0005207098
-0.001807649
0.003622323
0.02524234
-0.05596346
0.00220281
-0.004810024
-0.0105788
-0.007867187
-0.01047671
0.01838078
-0.055449
-9.07684e-05
0.0056094
-0.05640546
-0.0008067126
-0.0004139425
0.004339768
0.001459568
0.01891502
-0.01545309
-0.0006021186
0.0004770949
0.001363364
0.000973534
-6.44074e-05
0.001005086
-0.0001762319
-0.0007927154
-3.613841e-05
-0.05669626
0.0008559363
0.002187516
-0.003317428
0.0006357393
-0.001839634
0.005849464
0.02515872
-0.04966995
0.002277715
-0.005081031
-0.01030574
-0.007970851
-0.01037235
0.01838533
-0.04851559
-0.0001600477
0.005245741
-0.04835607
-0.0008017993
3.136464e-05
0.004194489
0.001666132
0.01632576
-0.01315839
-0.0005578953
0.0004746379
0.001239653
0.0009171002
4.875755e-06
0.0008698033
-0.0001580822
-0.00067712
-3.460069e-05
-0.01323805
0.0004939037
0.00190321
-0.003000946
9.232282e-05
-0.002732543
-0.01836141
0.008217063
-0.01369194
-0.01637786
0.02586924
-0.04383881
0.002419752
-0.005448485
-0.0101259
-0.008178415
-0.01036737
0.01955444
-0.04189851
-0.0003022995
0.005145218
-0.04046732
-0.0007096253
0.0007854078
0.004292405
0.002152275
0.01370426
-0.01078346
-0.0004957275
0.0005358117
0.001154325
0.0009063139
0.0001236887
0.0007320489
-0.0001405561
-0.0005589608
-3.253196e-05
0.0003454905
-0.01453964
-0.0001916143
0.001147727
0.02741536
-0.03883548
0.002459266
-0.005911893
-0.01004771
-0.008479953
-0.01043843
0.02218434
-0.03641401
-0.0002534973
0.005504831
-0.03305569
-0.001408066
0.002355276
0.004912121
0.003408525
0.01089647
-0.008150499
-0.0004315829
0.0007088633
0.00113657
0.0009972176
0.0003477913
0.0005678466
-0.0001227424
-0.0004173805
-2.772364e-05
0.0002111606
-0.0161136
-0.0004042092
-0.001279436
-0.0005348281
-0.001011911
0.01585236
0.003280467
0.02938963
-0.03493435
0.002679247
-0.006422379
-0.01008829
-0.008864534
-0.01059483
0.02602478
-0.03282811
-0.0002210778
0.006761119
-0.02955926
-0.001852092
0.004810366
0.006652789
0.006156148
0.007780784
-0.005625494
-0.0006968702
0.001425685
0.001489886
0.001339562
0.001047556
0.000228567
-0.0002319722
0.0002260723
-7.239569e-05
-0.0001502704
-0.0005101571
0.000448412
4.466128e-05
1.708313e-05
-0.0006610959
0.0006598484
1.310173e-05
-1.185375e-05
-0.001195374
0.001404892
-4.531982e-05
-0.0001641948
-0.001758158
0.01642337
-0.01294629
-4.632876e-05
-0.002456146
-0.003030671
-0.003027157
0.00684139
0.03161838
-0.03243518
0.002979704
-0.006892498
-0.0101847
-0.009236523
-0.01078355
0.02919577
-0.03044412
3.859984e-05
0.0285067
-0.02773161
-0.00113858
0.03005557
-0.02500475
-0.001937492
0.005161931
0.006860851
0.006518249
0.006852332
0.03595726
-0.02187644
-0.001406447
0.002768606
0.005567687
0.003897249
0.005147647
0.04284982
-0.02214271
-0.001293981
0.001723537
0.006143425
0.003435449
0.005241717
0.04529734
-0.02684561
-0.001922277
0.002851861
0.009313275
0.004910861
0.009244369
0.03904904
-0.03624002
-0.002165718
0.007674964
0.01333298
0.01140645
0.01223964
-0.03981018
-0.0009124735
0.009416463
0.01241159
0.03205092
0.01247172
0.01342101
0.03302067
-0.03062218
0.003084271
-0.007242443
-0.01024715
-0.009514322
-0.01091405
0.03120045
-0.02906605
0.000442125
0.03082749
-0.02727114
-8.750932e-05
0.03183848
-0.02535279
-0.0006629637
0.03455287
-0.02401379
-0.0005770426
0.03772559
-0.02471636
-0.000599076
0.03882366
-0.02730483
-0.0006388582
0.03566461
-0.03240577
-0.0006752113
-0.0345751
-0.0005037727
0.0309333
0.0339941
-0.02936288
0.003213927
-0.0074792
-0.01028493
-0.00969936
-0.01100386
0.03241965
-0.02812275
0.000631142
0.03177429
-0.0269541
0.000328301
0.0323624
-0.02591665
-2.426248e-05
0.03368548
-0.02530054
-3.633656e-05
0.03494632
-0.02591237
-6.48348e-05
0.03515812
-0.02746494
-5.169816e-05
0.03304524
-0.03027649
-1.640261e-05
-0.03178336
7.268467e-06
0.03024624
0.03455515
0.003292051
-0.007648486
-0.01029725
-0.009831579
-0.01105466
-0.02837812
0.03311414
0.0007068348
-0.02738859
0.03241342
0.0003946908
-0.02664808
0.03254056
-3.042618e-06
-0.02604075
0.03298357
1.958942e-05
-0.02576315
0.03329501
-1.984922e-05
-0.02620397
0.03299455
-2.244907e-05
-0.02714204
0.03148145
-3.063457e-05
-0.02873276
-2.242183e-05
0.02939212
-0.02967162
0.0009161423
0.0006258942
0.000775916
-0.02803771
-0.0006804875
0.001572018
-0.0001519008
-0.0001409244
-0.0008214234
0.001242452
-0.0008335064
0.001574687
-0.0006384319
0.0006035879
-0.02422687
-0.002274203
0.001626618
-0.0001419746
-0.0001371512
0.001451314
-0.0007294738
0.0006165447
-0.02158114
-0.002512795
0.001490377
-0.0001354965
-0.0001363634
0.001330966
-0.0005732326
0.0004914314
-0.01945807
-0.002339384
0.001358457
-0.0001285227
-0.0001296784
0.001218154
-0.0004963669
0.0004123552
-0.01756152
-0.002142623
0.001240998
-0.0001167719
-0.0001186939
0.001124028
-0.0004014183
0.0003231327
-0.01596271
-0.001979653
0.00114242
-0.0001070152
-0.0001083288
0.001050236
-0.0003123724
0.0002421779
-0.01474219
-0.001848093
0.001063992
-9.724533e-05
-9.883684e-05
0.0009956036
-0.0002263017
0.0001757551
-0.01385458
-0.001747181
0.001005394
-8.989745e-05
-9.183804e-05
0.0009540735
-0.0001665982
-0.01320539
-0.001672231
0.000961297
-8.441469e-05
-8.643489e-05
0.0001294798
0.0002878915
0.004418589
0.006544613
-0.02173125
-0.0004306289
0.001016415
-0.0009958692
0.0005177801
0.007395263
0.004457174
0.007451235
0.01954053
-0.100466
-0.001427414
0.02752585
0.02754111
0.02707857
0.02688546
-0.006258394
-0.008962316
-0.006548993
-0.009422111
0.01634441
-0.09567754
-0.002570871
0.02428733
0.02401695
0.02402545
0.02360239
0.01329625
-0.08670056
-0.002655637
0.0217771
0.02164344
0.02146447
0.02122948
0.01155837
-0.07933215
-0.002792723
0.01977111
0.01965448
0.01941688
0.01927765
0.009570315
-0.07104811
-0.002545091
0.01781678
0.01771088
0.01748836
0.01736802
0.007443678
-0.06422883
-0.002330747
0.01616749
0.01611959
0.01586554
0.01579808
0.005441948
-0.05928742
-0.002164745
0.01493043
0.01490272
0.01464214
0.01460144
0.003997571
-0.05627814
-0.002054753
0.01406478
0.01404857
0.01376624
0.01375871
-0.05406804
-0.001990161
0.01343846
0.01314103
0.00295955
0.01341807
0.01314219
0.0004856336
0.02034393
0.007447555
-0.01906642
-0.0007526004
0.001160786
-0.0008599713
0.0006230842
0.02803963
-0.09418773
0.00407074
-0.00803125
-0.01031225
-0.008353916
-0.01032849
0.02465611
-0.09131246
-0.002211101
0.02142198
-0.08403698
-0.001177628
0.01934697
-0.07704887
-0.001905352
0.01618791
-0.06768866
-0.001676156
0.01249315
-0.06032955
-0.00156324
0.00895232
-0.05552562
-0.00148217
0.006434847
-0.05353404
-0.00145945
-0.05209124
-0.001454817
0.004720268
0.0004093545
0.01922033
0.007883397
-0.01825662
-0.0005496667
0.001123726
-0.0008518257
0.0006037899
0.03278865
-0.09006564
0.004880697
-0.008898753
-0.01096097
-0.00898462
-0.01079024
0.03078344
-0.08832389
-0.0004290729
0.02858146
-0.08254178
0.0006923806
0.02738058
-0.07582627
-9.424889e-05
0.02331487
-0.06375139
6.82407e-05
0.01738801
-0.05446199
5.666232e-05
0.01167317
-0.04987215
4.939416e-05
0.008101423
-0.04997755
-5.708308e-05
-0.049739
-0.0001562506
0.005812378
0.0003803709
0.0183597
0.008165032
-0.01744211
-0.0007744909
0.001115417
-0.0008214002
0.0006235687
0.03655834
-0.08754042
0.005365157
-0.009498854
-0.01132657
-0.009469004
-0.01118277
0.03620802
-0.08712554
-7.64369e-05
0.03606852
-0.08336713
0.001531424
0.03686328
-0.07675477
0.001185794
0.03222012
-0.0591293
0.001343125
0.02234069
-0.04464827
0.001223761
0.01332412
-0.04089548
0.000976119
0.008237917
-0.04487055
0.0009511414
-0.04746408
0.0006880167
0.006051334
0.0003565363
0.01761672
0.008329473
-0.01688653
-0.0007512126
0.001110959
-0.0008040683
0.0006339388
0.03884558
-0.08661693
0.005690798
-0.009843413
-0.01158224
-0.009755765
-0.01146537
0.04055926
-0.08800812
0.0002232813
0.04476535
-0.08812039
0.001781578
0.05004327
-0.02222363
0.002335899
-0.01917601
-0.02140611
-0.01857325
0.04422504
-0.01676705
0.00170551
-0.009435501
-0.01633661
-0.00926067
0.02656887
-0.007215894
0.001242989
-0.005734148
-0.007183394
-0.005722729
0.01171241
-0.006395092
0.001310646
-0.006236321
-0.00618042
-0.00603687
0.006325537
-0.009268481
0.001403905
-0.01017764
-0.00901822
-0.009889675
-0.01118878
0.001577651
-0.01092959
0.004594466
-0.0115947
-0.01131643
0.0003424702
0.01717571
0.008383385
-0.01651181
-0.0007455349
0.001111813
-0.0007921078
0.0006418611
0.03931753
-0.08565706
0.005603864
-0.009955489
-0.01163829
-0.009880041
-0.01154149
0.04165363
-0.08941482
-9.966156e-05
0.01291616
-0.09448567
0.0007133197
0.01093603
0.01249877
0.01099403
-0.0002826656
0.01489308
-0.02419716
0.0002792806
-0.0002056772
0.02114944
0.0003864566
-0.01766026
-0.003120979
-0.007102202
-0.003146755
-0.007067067
-0.01579943
-0.0006516886
0.009973066
-0.001351101
0.0006132472
7.53287e-06
0.003523377
-3.000961e-05
-0.006955746
-0.0008172193
-0.0005823755
-0.0005754662
-0.0009651901
-0.0002317999
-0.0006046445
0.0001123807
-0.0002307551
-0.002520938
-0.00161868
-0.0025429
-0.001631144
8.882525e-05
-0.0003848782
-0.01074631
0.0003316936
-0.0004781066
0.0003316409
0.01680336
0.008215695
-0.01596204
-0.0007772271
0.001114968
-0.0007717577
0.0006511606
0.03542467
-0.08256528
0.00548094
-0.009549477
-0.01124326
-0.009571047
-0.01119281
0.03446139
-0.08742251
-0.000593801
0.01161889
-0.09533109
0.0002476747
0.005088661
0.01172511
0.005162921
0.0001099012
0.02688088
-0.02671545
-3.343648e-05
0.002238717
0.003488702
0.002278344
0.00337123
-2.945526e-05
0.002477486
-0.001214357
-0.001253952
2.027685e-05
-0.05685891
0.0005522133
0.002331495
0.002791772
0.002596571
0.003467629
0.01152207
0.0113614
0.0003146397
-0.001595351
0.0005829201
0.01203872
0.01155059
0.0005107223
-0.001166495
0.0003033934
0.01605513
0.0080908
-0.01507812
-0.0007762245
0.001101808
-0.0007464964
0.0006555234
0.03191239
-0.07725085
0.005356419
-0.009228949
-0.01090304
-0.009269774
-0.01087546
0.02719076
-0.08172654
-0.0007502532
0.00609357
-0.0865138
-7.747497e-05
0.002632205
0.005984942
0.002207176
-2.217554e-05
0.02599667
0.00389852
-0.02405161
0.0002721577
-0.06080968
-0.0007701333
0.002073188
-0.001399131
0.002385943
-0.001135651
0.00292309
0.0002642007
0.01501103
0.008012956
-0.01393319
-0.0007849103
0.001083332
-0.0007117411
0.0006641407
0.02968512
-0.07078912
0.005355499
-0.009006605
-0.01061546
-0.009031456
-0.01062514
0.02341392
-0.07410438
-0.001509093
0.00412963
-0.07655681
0.001031741
0.0018398
0.003828911
0.001793846
0.0002372168
0.02271891
0.002308248
-0.02028119
-0.0008535594
-0.06307144
-0.0008176883
0.0004198443
-0.001701027
0.0007312645
-0.00143384
0.004823019
0.000212363
0.01373634
0.00800482
-0.01262754
-0.0007704803
0.001055623
-0.000676087
0.0006707735
0.02868377
-0.06378387
0.005309084
-0.008939482
-0.01045605
-0.008913316
-0.01048645
0.02163885
-0.06589517
-0.001255068
0.003626736
-0.06674339
0.0005156203
0.001687014
0.003464072
0.001725257
0.0003070708
0.01966518
0.00187149
-0.01755674
-0.0006602801
-0.06642423
0.0003055851
0.0006353656
-0.001666439
0.0006434438
-0.00173783
0.006028595
0.0001539793
0.01236511
0.008045237
-0.01128345
-0.0007373642
0.00102494
-0.0006403676
0.0006777337
0.02857228
-0.05665085
0.00527292
-0.008972045
-0.01038495
-0.008915473
-0.01042804
0.02133685
-0.05761672
-0.001203088
0.00351354
-0.05716191
0.0002173157
0.001816417
0.003459579
0.001946703
0.0002951483
0.01688655
0.001798653
-0.01488548
-0.0005813335
-0.07185337
0.0009243354
0.0006142009
-0.00186412
0.0003136484
-0.002090976
0.008025928
9.036844e-05
0.01100255
0.008129731
-0.009994416
-0.0006779625
0.0009819912
-0.0006097981
0.0006833574
0.02932839
-0.04985156
0.005272139
-0.009104804
-0.01040583
-0.009021576
-0.01044786
0.0222228
-0.04946245
-0.001350985
0.003588429
-0.0474702
0.0004827482
0.002075575
0.003629848
0.002044853
0.0003284265
0.0143036
0.001660763
-0.01234994
-0.0003544235
-0.07479759
0.001081152
0.001003413
-0.0009723003
-0.0007672203
-0.005342861
-0.0004538792
-0.005682575
0.01365626
0.0010921
-0.000669888
2.807219e-05
0.009730128
0.008253572
-0.008842209
-0.0006091346
0.0009412561
-0.0005844194
0.000688545
0.03095589
-0.04394283
0.005290806
-0.009340155
-0.01052873
-0.009253579
-0.01057369
0.02487857
-0.04250087
-0.001137767
0.004461159
-0.03802694
-5.710007e-05
0.002878784
0.004175107
0.002569284
0.0001529824
-0.009071019
-0.000160081
0.01099612
0.0004465677
0.0008048989
0.0004727378
0.0008189461
-0.06465403
-8.858092e-05
-0.008172107
-0.008873541
-0.009097767
-0.009489786
0.0008731768
-0.001134486
0.02476208
0.001361271
-0.0002838097
-2.858575e-05
0.008636665
0.008407042
-0.007912213
-0.0005157516
0.0009006012
-0.0005683332
0.0006863837
0.03385945
-0.03955658
0.00531981
-0.009677719
-0.01077075
-0.009634048
-0.01080374
0.03029341
-0.03805229
-0.00110364
0.006505694
-0.03360997
-0.000254139
0.005839646
0.006263252
0.005669882
0.007730198
-0.006278405
-0.0002743217
0.0003532973
0.00121707
0.001298244
0.001230806
0.001228795
0.0001618824
4.034912e-05
-0.0003110744
0.0002397748
-0.0001448347
1.39031e-05
-0.002120554
-0.0002988039
0.01095781
-0.001309772
0.0001631455
-0.002670543
-0.002098021
-0.002623272
-4.914894e-05
-0.003240762
-4.792895e-06
-0.01346824
0.003894554
0.003899526
0.004466308
0.004502549
-7.491761e-05
-0.006918712
0.01009852
6.61135e-05
-0.003171018
-0.05376652
0.0003440213
-0.010619
-0.01399003
-0.01073082
-0.01327802
-0.001578769
0.0001204341
-0.001400392
0.03743483
0.00190549
-0.0006742429
0.00187443
-0.0002954633
-7.84642e-05
0.007818246
0.008521777
-0.007219446
-0.0004422852
0.0008735002
-0.0005549435
0.0006874246
0.03651319
-0.03658869
0.005392699
-0.009936358
-0.01098138
-0.009966655
-0.01100968
0.03475787
-0.03551361
-0.0007447841
0.03266103
-0.03261276
-3.894526e-05
0.03479532
-0.02868962
-0.001083795
0.006209429
0.006853121
0.006017109
0.006621953
0.04169577
-0.02480879
-0.0007317169
0.003727496
0.005021292
0.003639089
0.004845727
0.04988538
-0.02534332
-0.0007448853
0.003306189
0.005133149
0.003252833
0.004912422
0.05174301
-0.03137959
-0.00106498
0.004879657
0.009513575
0.004809652
0.009461759
0.04502809
-0.04191251
-0.001028639
0.01160105
0.01233478
0.01141805
0.01213647
-0.04571008
-0.001028391
0.03708756
-0.0001107473
0.007214254
0.008607735
-0.006718039
-0.0003936542
0.0008578307
-0.0005430607
0.0006914844
0.03811041
-0.03456274
0.005568755
-0.01013285
-0.01114163
-0.01018672
-0.01115964
0.037265
-0.03389967
-0.0003263913
0.03606176
-0.03207905
0.000581993
0.03716466
-0.02993868
-0.0005168027
0.04045362
-0.02817531
-0.000499502
0.04415693
-0.02900422
-0.0006414986
0.04503528
-0.03220773
-0.0006890831
0.04126483
-0.03808091
-0.0007363657
-0.04069132
-0.0004445684
0.03618687
-0.000131909
0.006779868
0.008671693
-0.006359839
-0.0003610126
0.0008470642
-0.0005344858
0.0006944227
0.03920024
-0.0330961
0.005651412
-0.01027046
-0.0112474
-0.01032852
-0.01125797
0.03870861
-0.03280732
3.040338e-05
0.03749912
-0.03156418
0.001022927
0.03790162
-0.03036783
2.373447e-06
0.03933607
-0.02958104
-6.506929e-05
0.04078656
-0.03028666
-0.0002328994
0.04093246
-0.03213402
-0.0002713122
0.03842465
-0.03536721
-0.0002223013
-0.03708812
-0.0001983295
0.03502705
-0.0001457362
0.006462966
0.008710708
-0.006091159
-0.0003427326
0.0008407098
-0.000527146
0.0006981925
0.03986716
0.005731794
-0.01035779
-0.01132219
-0.01042023
-0.01132368
-0.0319791
0.03957502
0.0001305385
-0.03193888
0.03832491
0.001194872
-0.03111427
0.03813126
0.0002291797
-0.0304064
0.03849009
0.000139114
-0.0300594
0.03878261
-3.879638e-05
-0.03056023
0.03837223
-8.381971e-05
-0.03166227
0.03657854
-9.762998e-05
-0.03350653
-7.27464e-05
0.03412799
-0.03458725
0.001514801
0.000455068
-0.000881313
-0.02753108
-0.0002840527
-0.0008421875
0.001514331
-0.0008350433
0.004227594
-0.09475567
-0.001529357
0.003387469
0.005600311
-0.001172008
-0.0009794738
0.002424483
-0.003581294
0.004459758
-0.003456098
0.004005852
-0.08501197
-0.002339089
0.005209187
0.005550991
-0.0009124282
-0.0007760268
0.003408823
-0.07773031
-0.002532257
0.004928582
0.005106477
-0.000732442
-0.0006589035
0.002790215
-0.0699071
-0.002271987
0.004474204
0.004617071
-0.0006867499
-0.0006337194
0.00217686
-0.06376686
-0.002099234
0.004125522
0.004235871
-0.000629065
-0.0005803215
0.001620197
-0.05886771
-0.001937844
0.003838187
0.003920209
-0.0005910606
-0.0005513147
0.001199228
-0.0554991
-0.001833409
0.003634182
0.003693354
-0.0005565229
-0.0005205911
-0.05294887
-0.001748142
0.003475227
-0.0005345952
0.0008926488
0.003519232
-0.000504655
0.004416308
-0.0002837907
0.006235963
-0.02054462
0.0001926066
0.007491533
0.004404058
0.007481511
0.01803604
-0.09407682
-0.0005207915
0.02610311
0.02646432
0.02608397
0.02625103
-0.006106794
-0.008560211
-0.006225142
-0.008876128
0.0156119
-0.0934825
-0.001419903
0.01311903
-0.08385441
-0.001320335
0.01148489
-0.0774656
-0.001423293
0.009554805
-0.06925354
-0.001268566
0.007479845
-0.06285555
-0.001167093
0.005516954
-0.05799403
-0.001075525
0.004069441
-0.05508111
-0.001025227
-0.05288411
-0.0009961399
0.003010669
0.0276512
-0.08118354
-0.00178694
0.00106147
0.003304293
-0.004655623
0.001007061
0.01775467
0.02738842
0.01775671
0.02727773
0.02616333
-0.09113999
0.002621775
0.02209504
-0.09001834
-0.001606981
0.020682
-0.08279664
-0.000822364
0.01889472
-0.07629349
-0.001290183
0.01611066
-0.0670366
-0.001109041
0.01246472
-0.05972858
-0.001044275
0.008979702
-0.0550078
-0.00098338
0.006464705
-0.05304792
-0.0009776414
-0.05163525
-0.0009977873
0.004758814
0.03160742
-0.07466886
-0.0008360756
0.00104607
0.002354623
-0.004787059
0.0006525301
0.03118031
-0.08891481
0.003082626
0.02888828
-0.08759335
-0.0005620284
0.02821315
-0.08183641
0.0004072722
0.02710079
-0.07518197
-9.341718e-05
0.02326639
-0.06320572
7.17667e-05
0.01742277
-0.05389456
6.627345e-05
0.01172582
-0.04932467
6.320247e-05
0.008158469
-0.04951138
-2.626657e-05
-0.04930438
-0.0001526064
0.005823957
0.03535394
-0.07195004
-0.001664842
0.001290519
0.002701323
-0.004522694
0.001053287
0.0352086
-0.08671643
0.003312117
0.03429835
-0.08651527
-0.0002442766
0.03551077
-0.08260887
0.00109147
0.03631725
-0.07572303
0.0009203661
0.03187645
-0.05839084
0.0009690531
0.0221587
-0.04380642
0.0008533684
0.0132607
-0.04014087
0.0006903233
0.008233236
-0.04425843
0.0007256576
-0.04704967
0.0006193473
0.006047193
0.03631987
-0.0699193
-0.001535785
0.001094837
0.002559073
-0.004499691
0.001001426
0.03762121
-0.08589107
0.003564106
0.03856176
-0.08724639
1.384804e-05
0.04361951
-0.08703225
0.001147202
0.04910348
-0.02166333
0.001322142
-0.01875439
-0.02127099
-0.01850454
0.04310834
-0.01655337
0.001118093
-0.009452052
-0.01640623
-0.009396621
0.0260241
-0.007226031
0.0008107888
-0.005971865
-0.007175127
-0.005916974
0.01158485
-0.006421269
0.0008202421
-0.006248952
-0.00634965
-0.00619134
0.006073698
-0.009175182
0.0009333974
-0.01005627
-0.009103777
-0.009941542
-0.01106308
0.001108656
-0.01090752
0.004254197
-0.0115432
-0.01124738
0.03671875
-0.06832698
-0.001614308
0.001041874
0.002593313
-0.004433949
0.00107155
0.03815949
-0.08516857
0.003440609
0.04009796
-0.08897443
-0.0003100944
0.01240591
-0.09332047
0.0006333909
0.01093829
0.01219907
0.01092285
-0.0003720703
0.01446857
-0.02358144
0.0002275243
-0.0002853757
0.02117148
0.0002065573
-0.01732758
-0.003114627
-0.00704796
-0.003127133
-0.007028717
-0.01548036
-0.0003383535
0.009183071
-0.0007950629
0.0002046606
-2.454088e-05
0.003531649
2.482727e-05
-0.006825461
-0.0005738879
-0.0009877045
-0.0005787159
-0.0009874415
-0.0001349067
-0.000577309
7.477187e-05
-0.0002184982
-0.00251428
-0.001645216
-0.002524698
-0.001635048
1.774695e-05
-0.0002752044
-0.01062043
0.0001512754
-0.0003364601
0.03524969
-0.06547436
-0.001828412
0.001068718
0.002727791
-0.004268151
0.001166734
0.03440722
-0.08221005
0.00336489
0.03316244
-0.0877322
-0.0005912486
0.01176941
-0.09418533
0.0002438756
0.005235961
0.01178404
0.005241684
-0.0001739825
0.02589388
-0.02552654
0.0001319572
0.002312002
0.003419784
0.002308291
0.003404015
-1.701218e-05
0.002481671
-0.001225634
-0.001245632
6.607877e-06
-0.05635007
-1.492968e-05
0.002638848
0.00348752
0.002628642
0.003425408
0.01134438
0.01126643
-0.0008483823
0.01161115
0.0113632
0.03408126
-0.06149057
-0.001918364
0.0009844773
0.002735703
-0.004097405
0.001199384
0.03095322
-0.07704378
0.003318188
0.02586175
-0.08262312
-0.0007678771
0.006312187
-0.08509598
-8.757673e-05
0.002289975
0.00617043
0.00200991
0.02482289
-0.0004914752
0.004165216
-0.02250644
0.0003219934
-0.05858313
-0.0008716123
0.00248761
-0.002080367
0.002110561
-0.002849529
0.002666278
0.03298201
-0.05649428
-0.002002728
0.0008748715
0.00274218
-0.003885576
0.001261856
0.02869413
-0.07074905
0.003348649
0.02052378
-0.07467077
-0.001291104
0.0116096
-0.07594986
0.0007997897
-0.06591167
-0.0001187954
0.001197144
0.001927707
-0.0007724195
-0.002787763
0.02152044
0.01726816
0.02123185
0.01805494
0.00764485
-0.0410424
0.001992859
0.004287529
-0.001282464
0.01341046
0.01498918
-0.05717454
-0.0005697144
0.005988288
0.03259755
-0.05108932
-0.001988667
0.0006872238
0.002662185
-0.003686882
0.001292625
0.02755656
-0.06371904
0.003320048
0.01898299
-0.0662477
-0.001104569
0.009372623
-0.06620403
0.0003801527
-0.0566896
1.311182e-05
0.0007333502
0.002646514
-0.0009496116
-0.002292817
0.002293514
-0.04365038
3.817984e-05
0.001979499
-0.001703236
-0.06074839
0.0001929598
0.005979985
0.0324989
-0.04562101
-0.001936297
0.0004809871
0.002604112
-0.003485375
0.001338449
0.02724835
-0.05647004
0.003274473
0.01868254
-0.05785621
-0.001028768
0.008768822
-0.05615362
8.061048e-05
-0.01368293
0.0001861935
0.0004485559
0.002406778
-0.001225858
-0.001323557
-0.01043739
-0.01349956
-0.01079301
-0.003669351
-0.002099438
0.00165095
-0.004958332
-0.01642105
-0.0181532
-0.07080845
0.001017111
0.006297905
0.0327975
-0.04044742
-0.001886297
0.0002546191
0.00253566
-0.003295016
0.001389078
0.027987
-0.04960113
0.003213723
0.0191342
-0.04920676
-0.001147638
0.003153779
-0.04665469
0.0003116993
0.001686433
0.00332028
0.001645827
0.000212649
0.001016284
-0.01154873
-0.0002093627
-0.07571181
0.0008074161
0.0002550319
-0.005674903
0.001340405
-0.005333434
0.01458996
0.0334499
-0.03595934
-0.001796401
3.404758e-05
0.002488097
-0.003133801
0.001439239
0.02952579
-0.0435609
0.003174685
0.02225442
-0.04208959
-0.0009835891
0.00401621
-0.03731492
2.014227e-05
0.00246075
0.003945044
0.002415389
7.504934e-05
-0.008614891
-7.598917e-05
0.01028626
0.0004025653
0.0007725581
0.0004050449
0.0007656025
-0.0163937
-0.0001249567
-0.008907129
-0.01099732
-0.008850174
-0.01137873
-0.01595978
0.02705574
-0.0153896
-0.01485472
0.03454324
-0.03253302
-0.00168885
-0.0001894319
0.002444097
-0.003033309
0.001467128
0.03229216
-0.03911498
0.003124956
0.02776622
-0.03769207
-0.0009752237
0.006168708
-0.03290693
-0.0002323471
0.005575182
0.006093862
0.005498678
0.0001542661
0.007377409
-0.006063668
-0.0001009388
0.001191923
0.001203932
0.001211187
0.001194588
9.284522e-08
0.0002509538
-0.0002525718
0.0001947636
-0.0001929222
-3.156412e-07
-0.002108193
-4.553801e-05
0.01077533
-0.001334682
3.716247e-05
-0.002612658
-0.002104836
-0.002606587
2.781253e-05
-0.003350772
-3.676011e-06
-0.01342667
0.003947361
0.003927479
0.004429004
0.004449455
-0.0002864021
-0.007158637
-0.00364069
0.0001610063
0.001451401
0.004028807
0.001443436
0.004001078
-0.002601341
-0.01375633
0.000299359
-0.003021288
-0.002674524
-0.002975746
0.008680182
0.03557499
-0.03006743
-0.001663659
-0.0003537312
0.002416159
-0.002961195
0.001491075
0.03488096
-0.03616514
0.003136875
0.0323444
-0.03515894
-0.0007413536
0.03173035
-0.03215429
-0.0001775493
0.03413289
-0.02826766
-0.0007135131
0.006083063
0.006755695
0.005985283
0.006670776
0.04099233
-0.02443233
-0.0004633846
0.003736275
0.004953114
0.003706424
0.004908734
0.04908636
-0.02511035
-0.0004495345
0.00336978
0.005023558
0.003347733
0.004979873
0.05078878
-0.03133793
-0.0005932117
0.004991679
0.00966474
0.004927552
0.009579749
0.04349595
-0.04161198
-0.000609513
0.01106412
0.0133128
0.01097395
0.0131348
-0.04505042
-0.0006560027
0.01242301
0.01187532
0.03728394
0.01358356
0.01300816
0.03630348
-0.02828262
-0.001655099
-0.000469515
0.00238746
-0.00290077
0.00151886
0.03657847
-0.03412454
0.003253175
0.035136
-0.03365283
-0.0003900625
0.03531606
-0.03193353
0.0001811699
0.03670887
-0.02970864
-0.0004686429
0.04024262
-0.02803131
-0.0004342951
0.04396194
-0.02895613
-0.0005150554
0.04473154
-0.03224613
-0.0005504951
0.04113344
-0.03814643
-0.0006038276
-0.04032196
-0.0003852875
0.03634569
0.03680865
-0.02697072
-0.00165911
-0.000550812
0.002365323
-0.002848872
0.001542149
0.03767655
-0.03266197
0.003320939
0.03672387
-0.032591
-7.87422e-05
0.03681758
-0.03159537
0.0005910369
0.03762184
-0.03042466
-8.588473e-05
0.03936027
-0.02967167
-0.0001631523
0.0408785
-0.03041947
-0.0002878027
0.04098342
-0.03230937
-0.0003129941
0.03841677
-0.03554035
-0.0002617445
-0.03719376
-0.0001652626
0.03525551
0.03711578
-0.001670713
-0.0006063064
0.002356418
-0.002802836
0.001567103
-0.02596095
0.03834669
0.003376738
-0.03153783
0.03761577
2.724974e-05
-0.0317568
0.03764408
0.0007846709
-0.03121349
0.03789092
0.0001406859
-0.030583
0.03856277
5.204135e-05