/*--------------------------------*- C++ -*----------------------------------*\
  =========                 |
  \\      /  F ield         | OpenFOAM: The Open Source CFD Toolbox
   \\    /   O peration     | Website:  https://openfoam.org
    \\  /    A nd           | Version:  7
     \\/     M anipulation  |
\*---------------------------------------------------------------------------*/
FoamFile
{
    version     2.0;
    format      ascii;
    class       volScalarField;
    location    "0.07";
    object      k;
}
// * * * * * * * * * * * * * * * * * * * * * * * * * * * * * * * * * * * * * //

dimensions      [0 2 -2 0 0 0 0];

internalField   nonuniform List<scalar> 
78470
(
0.003855359
0.003862497
0.003864313
0.00386672
0.00386859
0.003869818
0.003871149
0.003872554
0.003874195
0.003755894
0.003760762
0.003761283
0.003761299
0.003761729
0.003761936
0.003762199
0.003762443
0.003762729
0.003757528
0.003761316
0.003762257
0.003762219
0.003762578
0.003762811
0.003763075
0.003763296
0.003763531
0.003757517
0.003761908
0.003762673
0.003762518
0.003762971
0.003763097
0.003763343
0.003763504
0.003763643
0.003757414
0.003762076
0.00376258
0.003762519
0.003762932
0.003763152
0.003763397
0.00376353
0.003763571
0.003757282
0.003762195
0.003762748
0.003762624
0.003763097
0.003763265
0.003763539
0.003763633
0.003763578
0.003757146
0.00376225
0.003762718
0.003762631
0.003763119
0.003763389
0.003763723
0.003763872
0.003763819
0.003757198
0.003762242
0.003762739
0.003762643
0.003763238
0.003763591
0.003764072
0.003764346
0.003764364
0.003757198
0.003762217
0.003762713
0.003762635
0.003763294
0.003763822
0.003764553
0.003765102
0.003765302
0.00375701
0.003762009
0.003762562
0.003762477
0.003763293
0.003764031
0.003765182
0.003766156
0.00376665
0.003756928
0.003761818
0.003762264
0.003762157
0.003763077
0.003764121
0.003765913
0.003767649
0.00376845
0.003756801
0.003761399
0.00376176
0.003761487
0.003762444
0.003763752
0.003766858
0.003769534
0.003770408
0.003756638
0.00376068
0.003760816
0.003760277
0.003761242
0.003762496
0.003763969
0.003768613
0.00377189
0.003756375
0.003759978
0.003759559
0.003758495
0.00375839
0.003760812
0.003789722
0.003828638
0.003815751
0.003756028
0.003759034
0.003758052
0.003755968
0.003754216
0.003753297
0.003774096
0.004115208
0.003755364
0.003758246
0.003756475
0.003753677
0.003750216
0.003746563
0.003747491
0.003795461
0.003754976
0.00375773
0.003755882
0.003752205
0.00374812
0.003743063
0.003731422
0.003661039
0.003754851
0.003757424
0.003756018
0.003752082
0.003748258
0.003743369
0.003726608
0.003598735
0.003754948
0.003758078
0.003757034
0.00375372
0.003750587
0.003746896
0.003735677
0.003699115
0.003755397
0.003759103
0.003758815
0.003756414
0.003754552
0.003752466
0.003750783
0.003803549
0.003756087
0.003760722
0.003761162
0.00376001
0.003759644
0.003759806
0.003771577
0.003931642
0.003756861
0.003762299
0.003763743
0.003763925
0.003765425
0.003768512
0.003797604
0.004133972
0.00382026
0.004918403
0.003992885
0.003766262
0.003754332
0.003761695
0.003761763
0.003761823
0.003762108
0.003762345
0.003762612
0.003762907
0.00354935
0.003508421
0.003507898
0.003507347
0.003507189
0.003507181
0.003507187
0.003507198
0.003507213
0.003507235
0.003556727
0.003510261
0.003508111
0.003507409
0.003507149
0.003507131
0.003507104
0.00350711
0.003507122
0.003507142
0.003569231
0.003510419
0.003508206
0.003507579
0.003507171
0.003507156
0.00350712
0.003507122
0.003507121
0.003507132
0.003574195
0.003511193
0.003508169
0.003507715
0.003507183
0.003507186
0.003507128
0.003507129
0.00350712
0.003507121
0.003574785
0.003511228
0.003508115
0.00350775
0.003507204
0.003507204
0.003507143
0.003507143
0.003507128
0.003507121
0.003576278
0.003511211
0.003508087
0.003507777
0.003507224
0.003507221
0.003507165
0.00350717
0.003507159
0.003507151
0.003577687
0.003510985
0.00350806
0.003507771
0.003507246
0.003507253
0.003507207
0.003507229
0.003507231
0.003507235
0.003578575
0.003510922
0.003508007
0.003507779
0.003507276
0.003507304
0.003507274
0.003507342
0.003507384
0.00350741
0.003578353
0.003510882
0.003508017
0.003507784
0.003507306
0.003507365
0.003507401
0.003507568
0.003507685
0.003507738
0.003578036
0.003511042
0.003508016
0.003507819
0.003507362
0.003507474
0.003507646
0.003508065
0.003508316
0.003508218
0.003577074
0.00351099
0.00350806
0.003507853
0.003507456
0.003507642
0.003508217
0.003509337
0.003509774
0.003509349
0.003576041
0.003511378
0.003508122
0.003507964
0.003507625
0.003508265
0.003509925
0.003512965
0.003515575
0.003510497
0.00357244
0.003511107
0.003508157
0.003508182
0.003508152
0.003509625
0.003515524
0.003519077
0.003621657
0.003521544
0.003576767
0.003510849
0.003508345
0.003508473
0.003508772
0.003510653
0.003517397
0.003560718
0.005215901
0.003563082
0.003511461
0.003508574
0.00350869
0.003508905
0.003510663
0.0035153
0.003526459
0.003739582
0.003549453
0.003510795
0.003508521
0.003508823
0.003509092
0.00351051
0.003513864
0.00351946
0.003703752
0.003543248
0.003510802
0.003508562
0.003508937
0.003509335
0.003510737
0.003513728
0.003517321
0.003693123
0.003542714
0.003510638
0.003508586
0.003509017
0.003509561
0.00351116
0.003514964
0.00351772
0.00372086
0.003544822
0.003510347
0.003508573
0.003509009
0.003509816
0.003511975
0.003517125
0.003520585
0.003750252
0.00354706
0.003510089
0.003508459
0.003508964
0.003510123
0.003513278
0.003521542
0.003537069
0.003808643
0.003548615
0.003510475
0.003508531
0.003508937
0.003510221
0.003514087
0.003525964
0.003554433
0.003893881
0.003549536
0.003545328
0.005994949
0.003654328
0.003766994
0.003755531
0.003762264
0.003762398
0.003762632
0.003762896
0.003763167
0.003763447
0.003763763
0.003543804
0.003508995
0.00350755
0.003507698
0.003507126
0.003507078
0.003507089
0.003507103
0.003507119
0.003507143
0.003522955
0.003510158
0.003507409
0.003507104
0.003507002
0.003507012
0.003507013
0.003507023
0.003507036
0.003507056
0.003523849
0.003508948
0.003507228
0.00350711
0.003507002
0.003507022
0.003507018
0.003507028
0.003507035
0.003507046
0.003522288
0.00350771
0.003507242
0.003507078
0.003507003
0.003507039
0.003507032
0.003507034
0.003507033
0.003507034
0.003521785
0.003507629
0.00350728
0.003507062
0.003507036
0.003507055
0.003507049
0.003507051
0.003507041
0.003507034
0.003521689
0.003507663
0.003507355
0.003507075
0.003507076
0.003507073
0.003507072
0.00350708
0.003507072
0.003507065
0.003522176
0.003507925
0.003507267
0.003507103
0.003507099
0.003507093
0.003507115
0.003507141
0.003507146
0.00350715
0.003521888
0.003508202
0.003507362
0.003507086
0.003507121
0.00350714
0.003507177
0.003507254
0.003507296
0.003507331
0.003522282
0.003508004
0.003507453
0.003507102
0.003507154
0.003507223
0.00350729
0.003507492
0.003507606
0.003507653
0.003521876
0.003507691
0.003507486
0.003507135
0.003507206
0.003507386
0.003507559
0.003507994
0.003508222
0.00350819
0.003522114
0.003508497
0.003507479
0.003507199
0.003507297
0.003507608
0.003508183
0.003509233
0.003509746
0.003509237
0.003522401
0.003507901
0.003507554
0.003507308
0.003507491
0.003508264
0.003509813
0.003512842
0.003515023
0.00351003
0.003521694
0.003508205
0.003507765
0.003507385
0.003507922
0.003509559
0.003514959
0.003518219
0.003617965
0.003521767
0.003521812
0.003509136
0.00350788
0.003507462
0.003508662
0.003510596
0.003516785
0.003562713
0.005202286
0.003523549
0.003508516
0.003507291
0.003507437
0.003508925
0.003510703
0.003515111
0.003525935
0.00373952
0.003522572
0.003509744
0.003507218
0.003507614
0.003509139
0.003510146
0.00351418
0.003519925
0.003710586
0.003522626
0.003508708
0.00350731
0.003507625
0.003509326
0.003510366
0.003514019
0.003735921
0.003521623
0.003508039
0.00350803
0.003508164
0.003509552
0.003511075
0.00351371
0.003740003
0.003521703
0.003507631
0.003507673
0.003508176
0.003509903
0.003512197
0.003515923
0.003529789
0.003699664
0.003522105
0.003507792
0.003508096
0.003508226
0.003510272
0.003512756
0.003521771
0.00353261
0.003803069
0.003522987
0.003507945
0.003508037
0.003508428
0.003510154
0.003513844
0.003525542
0.003556534
0.003890547
0.00354343
0.005980062
0.003678856
0.003767204
0.003755336
0.003762453
0.00376261
0.00376286
0.003763124
0.0037634
0.003763681
0.003764003
0.003554242
0.003509619
0.003507661
0.00350774
0.003507131
0.003507074
0.003507089
0.003507103
0.003507119
0.003507143
0.003525976
0.003508623
0.003507498
0.003507123
0.003506998
0.003507009
0.003507012
0.003507024
0.003507036
0.003507056
0.003522289
0.003509334
0.003507245
0.003507011
0.003507006
0.003507006
0.003507016
0.003507028
0.003507035
0.003507046
0.003524884
0.003508588
0.003507084
0.003507026
0.003507008
0.003507022
0.003507025
0.003507033
0.003507033
0.003507035
0.003525952
0.00350955
0.003507016
0.003507066
0.003507024
0.003507031
0.00350704
0.003507047
0.003507041
0.003507034
0.003523163
0.003510249
0.003507009
0.003507267
0.003507042
0.003507055
0.003507058
0.003507075
0.00350707
0.003507064
0.003526329
0.003508986
0.003506989
0.00350736
0.003507047
0.003507132
0.003507111
0.003507138
0.003507142
0.003507147
0.003525479
0.003508679
0.003507003
0.00350736
0.003507068
0.003507186
0.003507194
0.003507254
0.003507296
0.003507332
0.003526489
0.003508749
0.00350706
0.003507377
0.003507102
0.003507268
0.003507338
0.003507501
0.003507606
0.003507652
0.003523994
0.003509809
0.003507045
0.003507422
0.003507149
0.003507405
0.003507615
0.003507984
0.003508208
0.003508212
0.003524796
0.003509
0.003507182
0.003507394
0.003507236
0.003507602
0.003508152
0.00350923
0.003509771
0.003509246
0.003522246
0.003509359
0.003507172
0.003507321
0.00350744
0.003508266
0.003509773
0.003512914
0.003514978
0.003510132
0.003526474
0.003509267
0.003507117
0.003507441
0.003507874
0.003509503
0.003514911
0.003517833
0.003618071
0.003521603
0.003526867
0.003508965
0.003507317
0.003507404
0.003508482
0.003510561
0.003516714
0.003562164
0.005195026
0.003522657
0.003509079
0.003507079
0.003507355
0.003508934
0.003510952
0.003515425
0.003525837
0.003739517
0.00352544
0.003508711
0.003507523
0.003507566
0.003509382
0.003510347
0.003514536
0.003520246
0.003710574
0.003523614
0.003508676
0.003507369
0.003507558
0.003509454
0.003510391
0.003514224
0.00373521
0.003523293
0.003507937
0.003507715
0.003508083
0.003509518
0.003511125
0.003513632
0.003739922
0.003522284
0.003507999
0.003507684
0.003508186
0.003509838
0.003512257
0.003515933
0.003529663
0.003691353
0.003522761
0.003508051
0.003507995
0.003508263
0.003510311
0.003512769
0.003522336
0.003531911
0.003805297
0.003523956
0.003508338
0.00350786
0.003508415
0.003510148
0.003513848
0.003525692
0.003557045
0.003891126
0.003543416
0.005983192
0.003678249
0.003768103
0.003755445
0.003762473
0.00376262
0.003762864
0.003763145
0.003763437
0.003763723
0.003764047
0.003561906
0.003509435
0.003507641
0.003507832
0.003507134
0.003507071
0.003507087
0.003507102
0.003507119
0.003507143
0.003522626
0.003507789
0.003507524
0.003507049
0.003506978
0.003507005
0.00350701
0.003507022
0.003507036
0.003507055
0.003528226
0.003508887
0.003507087
0.003507035
0.003506999
0.003507003
0.003507015
0.003507027
0.003507034
0.003507046
0.003522117
0.003508504
0.003506979
0.003507118
0.003507007
0.003507025
0.003507023
0.003507032
0.003507032
0.003507034
0.003525932
0.00350912
0.003507083
0.003507189
0.003507028
0.003507049
0.003507041
0.003507048
0.00350704
0.003507033
0.003526251
0.003508425
0.003507206
0.003507189
0.003507041
0.00350709
0.003507069
0.003507081
0.003507073
0.003507065
0.003522921
0.003508524
0.00350733
0.003507063
0.0035071
0.003507086
0.00350711
0.003507143
0.003507146
0.00350715
0.003526179
0.003508006
0.003507355
0.00350709
0.003507114
0.003507123
0.003507166
0.003507248
0.003507294
0.003507333
0.003522748
0.003508822
0.003507369
0.003507102
0.003507139
0.003507184
0.003507259
0.00350748
0.003507598
0.003507648
0.00352566
0.003508971
0.003507358
0.003507203
0.003507197
0.003507375
0.003507559
0.003507956
0.003508193
0.0035082
0.003525343
0.003508377
0.003507367
0.003507285
0.003507274
0.00350762
0.003508078
0.003509204
0.00350973
0.003509175
0.003524672
0.00350848
0.003507548
0.003507282
0.003507468
0.003508253
0.003509767
0.003512925
0.003514944
0.00351011
0.003529558
0.003508331
0.003507601
0.003507361
0.003507984
0.003509546
0.003514971
0.003517888
0.003618014
0.0035218
0.003524366
0.003509483
0.003507641
0.003507464
0.003508734
0.003510656
0.003516844
0.003562259
0.005193219
0.00352834
0.003507751
0.003507153
0.00350736
0.003508894
0.003510672
0.003515211
0.003525979
0.003739584
0.003523061
0.003508145
0.003507471
0.003507416
0.003509152
0.003510192
0.003514399
0.003520257
0.003710053
0.003523349
0.003507713
0.003507392
0.003507335
0.003509425
0.003510476
0.003514174
0.003735047
0.003522362
0.003507826
0.003507606
0.003507957
0.003509433
0.003511055
0.003513526
0.003739838
0.003522462
0.003507926
0.003508011
0.00350832
0.003509881
0.003512272
0.003515891
0.003529457
0.003697254
0.003522368
0.003507588
0.003508253
0.003508364
0.003510479
0.003512841
0.003522339
0.003532122
0.003806895
0.003523763
0.003507803
0.003507866
0.003508327
0.003510184
0.003513849
0.003525686
0.003557269
0.003891524
0.003543303
0.005985923
0.003676154
0.003768249
0.003755389
0.003762447
0.003762559
0.003762842
0.003763105
0.003763401
0.003763684
0.003764009
0.003570814
0.003509281
0.00350764
0.003507847
0.003507123
0.00350707
0.003507087
0.003507102
0.003507119
0.003507143
0.003521668
0.003507598
0.003507562
0.003506992
0.003507001
0.003507004
0.003507007
0.003507022
0.003507036
0.003507055
0.003521944
0.003508546
0.003506956
0.003507053
0.003507001
0.003507001
0.003507015
0.003507027
0.003507034
0.003507046
0.003523737
0.003509081
0.003507058
0.003507249
0.003507009
0.003507048
0.003507031
0.003507034
0.003507032
0.003507034
0.003528337
0.003508213
0.003507369
0.003507149
0.003507058
0.003507062
0.003507049
0.003507054
0.003507042
0.003507034
0.003523451
0.003509225
0.003507321
0.003507057
0.003507089
0.003507064
0.00350707
0.00350708
0.003507073
0.003507066
0.003524871
0.003509136
0.003507297
0.003507119
0.003507084
0.003507091
0.003507108
0.003507138
0.003507142
0.003507148
0.003522618
0.003508584
0.003507324
0.00350708
0.003507107
0.00350712
0.003507166
0.003507248
0.003507292
0.003507332
0.003526184
0.003508862
0.003507384
0.003507093
0.003507136
0.003507175
0.003507272
0.003507482
0.003507594
0.003507647
0.003526418
0.003509532
0.003507492
0.003507115
0.003507184
0.003507346
0.003507524
0.003507947
0.003508183
0.003508197
0.003523284
0.003509378
0.003507557
0.003507207
0.003507354
0.003507594
0.003508108
0.003509176
0.0035097
0.003509184
0.003522873
0.003508175
0.003507441
0.003507232
0.00350744
0.003508248
0.003509809
0.003512933
0.003514941
0.003510124
0.003523301
0.00350919
0.003507743
0.003507217
0.00350805
0.003509493
0.003514869
0.00351776
0.003617923
0.003521634
0.003534212
0.003510149
0.003508093
0.00350758
0.003509078
0.003510859
0.003517059
0.003562163
0.005193316
0.003523832
0.003507873
0.003507364
0.003507522
0.00350897
0.003510495
0.003515351
0.003525915
0.003739454
0.003522408
0.003507793
0.003507163
0.003507383
0.003509007
0.003510247
0.00351436
0.003520181
0.003710117
0.00352285
0.003507805
0.003507659
0.003507411
0.003509385
0.003510451
0.003514161
0.003735029
0.003522218
0.003507848
0.003507639
0.003507855
0.003509512
0.003511071
0.00351355
0.003739825
0.003522016
0.00350783
0.003507831
0.003508244
0.003509829
0.003512233
0.003515863
0.003529367
0.003693797
0.003522298
0.003507571
0.003508314
0.003508389
0.003510496
0.003512869
0.003522354
0.003532055
0.003806469
0.003523337
0.003507744
0.003507868
0.003508336
0.003510194
0.003513848
0.003525685
0.003557397
0.003891191
0.003543235
0.005986975
0.003676814
0.003768191
0.003755515
0.00376247
0.003762467
0.003762764
0.003762947
0.003763224
0.00376349
0.003763805
0.003558641
0.003509679
0.003507567
0.00350772
0.00350713
0.003507072
0.003507088
0.003507103
0.00350712
0.003507144
0.00352411
0.003508437
0.003507478
0.00350701
0.003507038
0.003507
0.003507011
0.003507024
0.003507037
0.003507057
0.003529225
0.00351079
0.003507083
0.003507276
0.003506998
0.00350703
0.003507018
0.003507028
0.003507035
0.003507046
0.003522048
0.003508271
0.00350722
0.003507026
0.003507044
0.003507027
0.003507029
0.003507032
0.003507034
0.003507035
0.003525375
0.003510501
0.00350704
0.00350725
0.003507014
0.003507058
0.003507036
0.003507045
0.003507039
0.003507032
0.003528518
0.003509754
0.003507058
0.003507281
0.003507033
0.003507083
0.003507065
0.003507077
0.003507069
0.003507063
0.003523947
0.003509994
0.003506998
0.003507336
0.003507042
0.003507128
0.003507117
0.00350714
0.003507142
0.003507144
0.003527183
0.003508707
0.003507024
0.003507328
0.003507069
0.003507176
0.003507183
0.003507251
0.003507292
0.003507329
0.003526484
0.003508899
0.003507008
0.003507337
0.003507102
0.003507268
0.003507332
0.003507496
0.003507597
0.003507645
0.003526037
0.00350929
0.0035071
0.003507297
0.003507142
0.003507393
0.003507604
0.00350797
0.003508194
0.003508203
0.003524764
0.00351018
0.003507333
0.003507325
0.003507255
0.003507618
0.003508189
0.003509229
0.003509746
0.003509229
0.003521954
0.003508206
0.003507206
0.003507309
0.003507443
0.00350827
0.003509788
0.003512935
0.003514984
0.003510139
0.003528293
0.003508213
0.003507106
0.003507349
0.003507895
0.003509476
0.003514936
0.003517894
0.003617798
0.003521244
0.003532219
0.003509856
0.003507113
0.003507238
0.003508181
0.003510386
0.003516608
0.003561732
0.005192555
0.003523435
0.003508566
0.003508393
0.003507297
0.003509575
0.003511127
0.003515628
0.003525989
0.003741045
0.003525076
0.003507243
0.003507614
0.003507767
0.00350935
0.003510123
0.003514477
0.003520167
0.003710681
0.003522879
0.003507976
0.003507315
0.003507582
0.00350919
0.00351041
0.003514213
0.003735207
0.00352216
0.003507718
0.003508408
0.003507943
0.003509608
0.003511204
0.003513667
0.003739923
0.003521863
0.003508283
0.003507694
0.003508178
0.003509813
0.003512222
0.003515875
0.003529654
0.003699397
0.003522875
0.003508095
0.00350796
0.00350828
0.003510359
0.003512771
0.003522259
0.003531128
0.003807754
0.003523824
0.003508276
0.003507879
0.003508384
0.003510162
0.003513802
0.003525674
0.003557698
0.003891516
0.003543181
0.005987552
0.003676963
0.003767943
0.003754348
0.00376188
0.003761561
0.00376186
0.003762063
0.003762356
0.003762571
0.003762901
0.003558678
0.003509729
0.003507473
0.003507543
0.003507117
0.003507079
0.003507092
0.003507107
0.003507124
0.003507146
0.003524312
0.003508192
0.003507582
0.003507114
0.00350699
0.003507012
0.00350701
0.003507023
0.003507037
0.003507057
0.003520856
0.003508213
0.003507424
0.003507015
0.003507013
0.003507006
0.003507017
0.003507028
0.003507035
0.003507046
0.003528228
0.003510155
0.003507041
0.003507295
0.003507007
0.003507047
0.003507032
0.003507035
0.003507033
0.003507034
0.003521142
0.003509106
0.003507037
0.003507304
0.00350704
0.003507076
0.003507051
0.003507053
0.003507041
0.003507033
0.003525875
0.003507758
0.003507739
0.003507149
0.003507067
0.003507073
0.003507075
0.003507083
0.003507073
0.003507065
0.003522539
0.003508047
0.003507594
0.003507094
0.003507094
0.003507091
0.003507113
0.00350714
0.003507143
0.003507147
0.003522385
0.003508558
0.003507343
0.003507112
0.003507113
0.003507134
0.003507174
0.003507251
0.003507291
0.003507326
0.00352304
0.00350829
0.003507605
0.00350711
0.003507145
0.003507215
0.003507284
0.003507485
0.003507596
0.003507642
0.003527096
0.003507752
0.003507906
0.003507259
0.003507237
0.003507376
0.003507565
0.003507979
0.003508203
0.003508177
0.003520985
0.003509074
0.003507018
0.003507372
0.003507309
0.003507656
0.003508187
0.003509245
0.00350973
0.003509221
0.003524014
0.003508462
0.003507056
0.003507236
0.003507419
0.00350824
0.003509777
0.003512849
0.003515021
0.00351001
0.003524906
0.003508133
0.00350721
0.003507369
0.00350785
0.00350954
0.003514963
0.003518192
0.003617429
0.003521463
0.003523124
0.003508202
0.00350848
0.003507524
0.003508782
0.003510567
0.003516799
0.0035621
0.005192941
0.003529893
0.003509088
0.003507177
0.003507383
0.003508721
0.003510357
0.003515121
0.003525948
0.003741339
0.003522411
0.003507943
0.003507824
0.003507277
0.003509466
0.003510495
0.003514278
0.003520057
0.003711218
0.003525819
0.003507352
0.003507547
0.003507789
0.003509337
0.003510268
0.003514056
0.003735944
0.003524259
0.003508404
0.003507753
0.003507936
0.003509464
0.00351104
0.003513746
0.003739947
0.003525325
0.003508162
0.003507776
0.003508175
0.003509818
0.003512203
0.003515726
0.003530239
0.003705148
0.003522057
0.003508029
0.003508389
0.003508376
0.003510331
0.003512773
0.00352133
0.003528848
0.003801767
0.003522658
0.003507969
0.003508039
0.003508403
0.003510184
0.003513697
0.003525632
0.003559061
0.003886883
0.003542251
0.005975928
0.003675186
0.003766548
0.003784385
0.003787998
0.003789245
0.003790321
0.003790519
0.003791952
0.003791947
0.003792604
0.003570119
0.00350972
0.003507912
0.003507124
0.003507134
0.003507114
0.003507136
0.003507153
0.003507159
0.003507228
0.003541609
0.003512743
0.003508073
0.003507405
0.003507174
0.003507129
0.003507101
0.003507109
0.003507124
0.003507147
0.003526338
0.003511813
0.0035082
0.003507622
0.003507144
0.003507152
0.003507113
0.003507115
0.003507121
0.003507137
0.003526742
0.003513436
0.003508235
0.003507736
0.003507204
0.003507177
0.003507126
0.003507122
0.00350712
0.003507121
0.003525067
0.003511754
0.003508529
0.003507813
0.003507254
0.003507205
0.003507142
0.003507137
0.003507127
0.003507123
0.003538459
0.003514586
0.003507939
0.003507649
0.003507223
0.003507225
0.003507175
0.003507178
0.003507162
0.003507155
0.003538415
0.003511428
0.003508194
0.003507771
0.003507281
0.003507273
0.003507211
0.003507235
0.003507234
0.003507235
0.003538103
0.003511445
0.003508099
0.003507756
0.003507314
0.003507319
0.003507275
0.003507348
0.003507386
0.00350741
0.003538636
0.003511445
0.003508119
0.00350775
0.003507311
0.003507366
0.003507397
0.003507561
0.003507677
0.003507726
0.003546935
0.003513829
0.003507967
0.003507641
0.003507378
0.00350746
0.003507638
0.003508059
0.003508301
0.003508213
0.003528146
0.003511578
0.003508735
0.00350778
0.003507476
0.003507649
0.003508187
0.003509339
0.003509749
0.003509326
0.003524902
0.003512116
0.003508252
0.00350796
0.003507587
0.003508287
0.003509887
0.003512954
0.003515523
0.003510476
0.00354268
0.003514902
0.003508238
0.003508268
0.003508144
0.003509618
0.003515549
0.003518223
0.003619258
0.003521953
0.003541991
0.003515527
0.003508667
0.003508296
0.003508804
0.003510715
0.003517365
0.003561008
0.005196883
0.003525085
0.003512206
0.003509545
0.003508035
0.003509174
0.003510917
0.00351542
0.003526141
0.003743019
0.003526947
0.003511628
0.003508264
0.003508161
0.003509224
0.003510253
0.003513977
0.003519539
0.003709117
0.003522898
0.003511663
0.003509157
0.003507917
0.00350953
0.003510619
0.003513809
0.003518904
0.003670552
0.003527247
0.003510771
0.003509111
0.003508091
0.003509773
0.003510971
0.00351505
0.003519991
0.003718934
0.003538524
0.003511517
0.003508712
0.003508796
0.003509965
0.003511896
0.003517128
0.003512132
0.00374468
0.003560031
0.003510976
0.003508504
0.003509004
0.003510217
0.003513239
0.003520828
0.003538417
0.003779558
0.003548112
0.003510665
0.003508586
0.003508912
0.003510334
0.003513929
0.003526311
0.003543035
0.00386905
0.003548844
0.003542843
0.005920921
0.003656191
0.003840148
0.003857799
0.003776479
0.003863951
0.003865551
0.003871564
0.003850057
0.003865923
0.003875414
0.003588249
0.003755137
0.003760543
0.003761233
0.003760974
0.003761548
0.003761679
0.003761919
0.003762199
0.003762511
0.003656728
0.003756029
0.003761393
0.003762544
0.003762085
0.003762712
0.003762782
0.003763035
0.003763234
0.003763487
0.003541401
0.003756489
0.003761696
0.00376279
0.003762143
0.003762815
0.003762966
0.003763255
0.00376344
0.003763607
0.003543391
0.003755861
0.003761789
0.003762899
0.003762238
0.003762869
0.00376304
0.003763374
0.003763494
0.003763549
0.00354328
0.003756357
0.003761788
0.003762969
0.003762269
0.003762938
0.003763139
0.003763486
0.003763582
0.003763547
0.003559251
0.003754969
0.00376205
0.003763132
0.003762614
0.003763344
0.003763429
0.003763747
0.00376386
0.003763804
0.003568687
0.003757132
0.003762651
0.003763245
0.003762731
0.003763306
0.003763584
0.003764064
0.003764319
0.003764334
0.003570514
0.003757165
0.003762522
0.003763186
0.003762777
0.003763457
0.003763859
0.003764572
0.00376508
0.003765269
0.003573803
0.003756807
0.003762187
0.003762655
0.003762408
0.003763232
0.00376398
0.00376514
0.003766107
0.003766598
0.003564883
0.003754607
0.003761622
0.003762475
0.003762082
0.003763173
0.00376407
0.003765895
0.003767592
0.003768377
0.003548663
0.003755777
0.00376083
0.00376165
0.003761112
0.003762251
0.003763609
0.003766791
0.003769432
0.003770291
0.003548583
0.003755377
0.003760301
0.003760891
0.0037599
0.003761217
0.003762405
0.003763973
0.003768559
0.003771731
0.003556075
0.003755435
0.003760305
0.003760071
0.003758387
0.003758441
0.003760752
0.00356123
0.003619575
0.003524811
0.003567628
0.003754606
0.00375863
0.003758202
0.003755664
0.003754142
0.003753202
0.003592732
0.005217619
0.003550581
0.003755545
0.003757642
0.003756749
0.003753124
0.00375005
0.003746509
0.003547741
0.003744104
0.00354825
0.003754604
0.003756921
0.00375585
0.003751855
0.003747988
0.003743189
0.003536978
0.003702673
0.00354567
0.003753885
0.003757268
0.003755972
0.003751752
0.003748187
0.003743324
0.003531883
0.003686063
0.003549822
0.003753906
0.003758034
0.003756936
0.003753428
0.003750527
0.003746829
0.003532485
0.003719438
0.00356285
0.003753678
0.00375969
0.003758585
0.003756313
0.003754486
0.003752485
0.003538688
0.003751918
0.003567348
0.003755807
0.003761257
0.003761225
0.003760006
0.00375964
0.003759813
0.003557691
0.00379542
0.003597599
0.003756687
0.003762484
0.003763698
0.003763911
0.003765409
0.003768457
0.003600436
0.003893042
0.003620505
0.003594778
0.006052391
0.003700789
0.003849102
0.003768412
0.003828697
0.003605172
0.003521692
0.003852474
0.00378435
0.003783903
0.003767492
0.003785323
0.00351258
0.003510469
0.003850517
0.003783247
0.003783468
0.003782532
0.003784041
0.003512821
0.003514475
0.003853095
0.003785772
0.003785017
0.003786815
0.00378683
0.003512101
0.0035136
0.003854916
0.003787542
0.003786351
0.003789521
0.00378796
0.003512259
0.003513142
0.003856219
0.003788282
0.003786869
0.003790231
0.003788638
0.003512116
0.003512881
0.003857441
0.003788836
0.003787422
0.003790809
0.00378915
0.003512061
0.003512866
0.003858736
0.003789372
0.003787943
0.003791352
0.003789704
0.003512068
0.003512919
0.003860191
0.003789938
0.003788534
0.003791935
0.003790302
0.003512108
0.003513048
0.003790579
0.003792597
0.003512171
0.003761917
0.003764612
0.003582279
0.003517889
0.003594838
0.003533546
0.003766545
0.003766223
0.003585521
0.003531914
0.003604296
0.003530667
0.003766977
0.003767419
0.003586495
0.003534542
0.003609387
0.00352858
0.003767586
0.003768236
0.003586617
0.003534361
0.003615197
0.003529113
0.00376856
0.003768852
0.003586307
0.003533963
0.003620092
0.003529384
0.003768734
0.003769081
0.003586124
0.003532033
0.003625763
0.003527267
0.003768873
0.003769197
0.003585036
0.003531342
0.003628048
0.00352665
0.003769001
0.003769079
0.003583175
0.003530081
0.003628231
0.003524922
0.003768865
0.003768275
0.003582099
0.00352891
0.003626162
0.003524173
0.003768541
0.003768809
0.003582082
0.003527523
0.003625557
0.003524793
0.00376847
0.003768476
0.003581892
0.003528666
0.003622222
0.003527525
0.003767809
0.00376704
0.003583883
0.00353115
0.003614586
0.003529191
0.003768371
0.003768585
0.003587445
0.003531694
0.00360482
0.003533484
0.003825724
0.004093278
0.003945919
0.003619847
0.003551315
0.004016714
0.003853561
0.003768907
0.003766928
0.003590152
0.003532602
0.003585947
0.003530294
0.003826789
0.005216236
0.003771472
0.003766576
0.003767294
0.003609286
0.003527877
0.00357681
0.00352388
0.003669414
0.003744114
0.003710263
0.003767939
0.003765825
0.003592304
0.003520641
0.00359162
0.003521003
0.003602208
0.00370337
0.003683172
0.003766321
0.003764935
0.003603014
0.003519692
0.003602624
0.003517898
0.003689171
0.003686875
0.003711901
0.003767569
0.003765441
0.003603591
0.003520218
0.003604552
0.003517915
0.003780921
0.003719356
0.003741543
0.003769288
0.00376633
0.003605797
0.003520463
0.003611649
0.003517876
0.003890867
0.003751772
0.003777083
0.003770927
0.003767381
0.00361127
0.003520334
0.003616886
0.003517892
0.004061453
0.0037917
0.003861237
0.003772366
0.003768272
0.003615127
0.003520319
0.00361872
0.003518191
0.00437869
0.004012038
0.003903992
0.00968374
0.003968744
0.004116813
0.003969216
0.003773245
0.003616608
0.003520487
0.003832984
0.003589416
0.003523221
0.003835804
0.003577564
0.00353161
0.003555407
0.004013884
0.0038557
0.003619741
0.003556148
0.004006578
0.003856347
0.003763235
0.005200243
0.003762564
0.009356074
0.003965967
0.003889746
0.009494782
0.003960008
0.003837795
0.003586701
0.003531042
0.003839612
0.003578505
0.003536069
0.003552828
0.00400748
0.003854038
0.003617745
0.00355343
0.00400526
0.003854476
0.003764839
0.005196955
0.003764143
0.00940152
0.0039622
0.003890965
0.009473718
0.003961382
0.003838204
0.003589103
0.003536494
0.003841238
0.00358072
0.003536844
0.0035532
0.004005323
0.003854611
0.003617956
0.0035533
0.004004225
0.00385444
0.003764803
0.005195464
0.003764643
0.009448074
0.003965025
0.003891353
0.009479725
0.00396263
0.003841731
0.003590162
0.003540192
0.003842022
0.003586718
0.003537919
0.003553331
0.004004515
0.003854754
0.003618088
0.003553378
0.004004189
0.003854782
0.003765015
0.005194055
0.003764904
0.009468372
0.003964742
0.003891222
0.009480606
0.003964374
0.003843329
0.003589395
0.003543008
0.003842672
0.00358148
0.00354033
0.003553301
0.004004703
0.003854659
0.003617769
0.003553216
0.004004299
0.003854791
0.003765148
0.005192129
0.003765159
0.009478012
0.003963918
0.003891528
0.009474274
0.003964738
0.003843298
0.003581133
0.003539114
0.003842757
0.003590152
0.003537194
0.003553155
0.00400428
0.003854341
0.003617845
0.003553085
0.004004549
0.003854536
0.003764814
0.005192407
0.00376491
0.009480795
0.003962844
0.003889303
0.009451161