/*--------------------------------*- C++ -*----------------------------------*\
  =========                 |
  \\      /  F ield         | OpenFOAM: The Open Source CFD Toolbox
   \\    /   O peration     | Website:  https://openfoam.org
    \\  /    A nd           | Version:  7
     \\/     M anipulation  |
\*---------------------------------------------------------------------------*/
FoamFile
{
    version     2.0;
    format      ascii;
    class       volScalarField;
    location    "0.07";
    object      nut;
}
// * * * * * * * * * * * * * * * * * * * * * * * * * * * * * * * * * * * * * //

dimensions      [0 2 -1 0 0 0 0];

internalField   nonuniform List<scalar> 
78470
(
0.0002772669
0.0002796861
0.0002798338
0.0002799203
0.0002799963
0.0002800426
0.0002800936
0.0002801497
0.0002802228
0.001340193
0.001307048
0.001296458
0.001293848
0.001293191
0.001293028
0.001293116
0.001293332
0.001293521
0.00131462
0.001260026
0.001243468
0.001238984
0.001237752
0.001237429
0.001237494
0.001237711
0.001237945
0.001306126
0.00124555
0.00122546
0.00121978
0.001218148
0.001217669
0.00121772
0.001217956
0.001218185
0.001304104
0.001241733
0.001220418
0.001214144
0.001212237
0.00121168
0.001211727
0.001211993
0.001212243
0.001303522
0.001240627
0.00121889
0.001212331
0.001210292
0.001209673
0.001209729
0.00121002
0.001210288
0.001303298
0.001240236
0.001218318
0.001211649
0.001209554
0.001208942
0.001209029
0.001209364
0.001209664
0.001303238
0.001240096
0.00121813
0.001211432
0.001209366
0.001208809
0.001208978
0.00120939
0.001209744
0.00130322
0.001240068
0.001218117
0.00121147
0.001209512
0.001209126
0.001209494
0.001210085
0.001210556
0.001303198
0.001240078
0.001218213
0.001211721
0.001210068
0.001210137
0.001211041
0.001212065
0.001212789
0.001303222
0.001240158
0.001218438
0.001212352
0.001211593
0.001213092
0.001215636
0.001217957
0.00121933
0.001303261
0.001240264
0.001218814
0.001213573
0.001216082
0.001222975
0.001230709
0.001237517
0.001241051
0.001303312
0.001240372
0.001219301
0.001215368
0.001223173
0.001255789
0.001269854
0.00129952
0.001305331
0.001303346
0.001240499
0.001219784
0.001217204
0.001229498
0.001268438
0.0005907078
0.0006241278
0.000619086
0.001303358
0.001240544
0.001220074
0.001218371
0.001234213
0.00129312
0.0006162103
0.0001494772
0.001303296
0.001240568
0.001220175
0.001218902
0.00123634
0.001294794
0.0006160541
0.0001411288
0.001303273
0.001240603
0.001220354
0.001219296
0.0012373
0.00129594
0.0006149333
0.0001385014
0.001303286
0.001240629
0.001220571
0.001219737
0.001238433
0.001298928
0.0006151248
0.0001372843
0.001303314
0.001240761
0.001220777
0.001220074
0.001238926
0.001299656
0.0006160682
0.0001393518
0.001303385
0.001240903
0.001220965
0.001220199
0.001238747
0.001298269
0.0006169588
0.0001414339
0.001303495
0.001241131
0.001221187
0.001220307
0.001238569
0.001298931
0.0006183373
0.0001438809
0.00130364
0.001241361
0.001221406
0.001220188
0.001236744
0.001296681
0.0006206272
0.000147763
0.0006028025
0.0003584917
0.0003223561
0.0006134339
0.001295357
0.00127804
0.001271306
0.001269839
0.001269568
0.001269546
0.0012696
0.001269687
0.0001010411
0.00010084
0.0001009573
0.0001008087
0.0001007584
0.0001007559
0.0001007556
0.0001007557
0.0001007557
0.0001007557
0.0001012057
0.0001013474
0.0001010849
0.0001008279
0.0001007444
0.0001007388
0.0001007248
0.0001007237
0.0001007236
0.0001007237
0.0001015341
0.0001014294
0.0001010786
0.0001008941
0.0001007492
0.0001007451
0.0001007281
0.0001007261
0.0001007236
0.0001007234
0.0001016496
0.0001015695
0.0001010919
0.0001009419
0.0001007501
0.0001007514
0.0001007266
0.0001007263
0.0001007236
0.0001007235
0.0001016647
0.0001016328
0.0001010727
0.0001009498
0.0001007533
0.0001007525
0.0001007268
0.0001007265
0.0001007237
0.0001007242
0.0001016966
0.0001016527
0.0001010634
0.000100962
0.0001007549
0.0001007508
0.0001007263
0.0001007264
0.0001007246
0.0001007247
0.0001017231
0.0001016784
0.000101062
0.0001009615
0.0001007567
0.0001007498
0.0001007263
0.0001007266
0.000100725
0.0001007257
0.0001017386
0.0001016751
0.0001010412
0.0001009609
0.000100759
0.000100751
0.0001007263
0.0001007288
0.0001007275
0.0001007281
0.0001017331
0.0001016432
0.00010104
0.0001009569
0.0001007585
0.0001007491
0.0001007266
0.000100728
0.0001007298
0.0001007322
0.0001017263
0.0001016336
0.0001010327
0.0001009614
0.0001007572
0.0001007445
0.0001007275
0.0001007402
0.0001007374
0.0001007394
0.000101709
0.0001016032
0.0001010418
0.0001009552
0.0001007536
0.0001007297
0.0001007331
0.0001007478
0.0001007569
0.0001007546
0.0001016912
0.0001016295
0.0001010351
0.0001009503
0.0001007428
0.0001007365
0.0001007578
0.0001007886
0.0001008487
0.000100914
0.000101615
0.0001016214
0.0001010186
0.0001009554
0.0001007484
0.0001007589
0.000100847
0.0001008281
0.0001023315
0.000102037
0.0001017102
0.0001015987
0.0001010328
0.0001009433
0.0001007603
0.0001007805
0.0001008844
0.0001015234
0.0001458476
0.0001013878
0.0001015389
0.0001010277
0.0001009421
0.0001007653
0.0001007872
0.0001008615
0.0001009841
0.0003837354
0.0001010576
0.0001014505
0.0001010144
0.0001009083
0.0001007671
0.000100787
0.000100844
0.0001009027
0.0004222898
0.0001009268
0.000101478
0.000101001
0.0001008742
0.0001007681
0.0001007888
0.0001008409
0.0001008699
0.0003821026
0.000100927
0.0001014924
0.0001009752
0.0001008434
0.0001007686
0.0001007928
0.0001008573
0.0001008591
0.0003785956
0.0001009706
0.0001015449
0.0001009795
0.0001008254
0.0001007696
0.0001008021
0.0001008877
0.0001008854
0.0004022215
0.0001010119
0.0001015233
0.000100973
0.0001008343
0.0001007724
0.0001008197
0.0001009525
0.0001011345
0.0003838642
0.000101039
0.0001015225
0.0001009816
0.0001008386
0.000100772
0.0001008283
0.0001010132
0.0001013167
0.0003152178
0.0001010555
0.0001011056
0.0001653342
0.0001050435
0.0006081912
0.001273253
0.001240553
0.001229894
0.001227365
0.001226809
0.001226723
0.001226779
0.001226856
0.0001009408
0.000100693
0.0001008006
0.0001009613
0.0001007365
0.0001007248
0.0001007244
0.0001007244
0.0001007244
0.0001007245
0.0001007863
0.0001007305
0.0001006958
0.0001006964
0.0001006942
0.0001006945
0.0001006943
0.0001006942
0.0001006942
0.0001006942
0.0001007977
0.0001007067
0.0001006934
0.0001006961
0.0001006938
0.0001006942
0.000100694
0.000100694
0.000100694
0.0001006939
0.0001007703
0.0001006833
0.0001006963
0.000100695
0.0001006936
0.0001006941
0.0001006939
0.0001006939
0.0001006938
0.0001006938
0.00010076
0.0001006821
0.0001006969
0.0001006941
0.0001006937
0.0001006939
0.0001006937
0.0001006938
0.0001006938
0.000100694
0.000100758
0.0001006823
0.0001006979
0.0001006939
0.0001006939
0.0001006936
0.0001006936
0.0001006939
0.0001006941
0.0001006947
0.0001007663
0.0001006861
0.0001006959
0.0001006939
0.0001006938
0.0001006933
0.0001006936
0.0001006942
0.0001006948
0.0001006959
0.0001007607
0.0001006907
0.000100697
0.0001006931
0.0001006936
0.0001006934
0.0001006936
0.0001006949
0.0001006963
0.0001006983
0.0001007684
0.0001006857
0.0001006989
0.0001006932
0.0001006936
0.0001006938
0.0001006941
0.0001006969
0.0001006997
0.0001007024
0.0001007618
0.000100681
0.0001006998
0.0001006938
0.0001006938
0.0001006954
0.0001006964
0.000100702
0.0001007069
0.0001007094
0.0001007643
0.0001006968
0.000100699
0.0001006948
0.000100695
0.0001006978
0.0001007031
0.0001007165
0.0001007267
0.0001007241
0.0001007719
0.0001006854
0.000100702
0.0001006975
0.0001006982
0.0001007071
0.000100726
0.0001007615
0.0001007671
0.0001007409
0.000100757
0.000100694
0.0001007066
0.0001007001
0.0001007062
0.0001007277
0.0001008067
0.0001008105
0.0001022696
0.0001021634
0.0001007571
0.0001007132
0.0001007092
0.0001007035
0.0001007216
0.00010075
0.0001008433
0.0001015593
0.0001455746
0.0001007932
0.0001006979
0.0001007
0.0001007051
0.0001007301
0.0001007592
0.0001008288
0.0001010264
0.000437417
0.0001007722
0.0001007233
0.0001006955
0.0001007073
0.0001007345
0.0001007531
0.0001008207
0.0001009854
0.0004984162
0.0001007743
0.0001007034
0.0001006978
0.0001007063
0.0001007358
0.0001007552
0.0001008489
0.001727741
0.0001007568
0.0001006902
0.0001007094
0.0001007132
0.0001007373
0.0001007637
0.0001008403
0.001725489
0.000100758
0.0001006819
0.0001007028
0.0001007114
0.00010074
0.000100778
0.0001008379
0.0001069121
0.0002932183
0.000100765
0.000100683
0.0001007081
0.0001007108
0.0001007423
0.0001007817
0.0001009245
0.0001014542
0.0004259548
0.0001007799
0.000100684
0.0001007059
0.0001007118
0.0001007374
0.0001007928
0.0001009727
0.0001013548
0.000316222
0.0001010788
0.0001648819
0.0001054721
0.0006073112
0.0012649
0.001228275
0.001215285
0.00121215
0.001211431
0.001211303
0.001211362
0.001211459
0.0001012012
0.0001006896
0.0001008508
0.0001009853
0.0001007379
0.0001007247
0.0001007242
0.0001007243
0.0001007243
0.0001007244
0.0001008381
0.000100692
0.0001006991
0.0001006967
0.0001006942
0.0001006945
0.0001006942
0.0001006942
0.0001006942
0.0001006942
0.0001007537
0.0001007163
0.0001006943
0.0001006941
0.000100694
0.000100694
0.0001006939
0.000100694
0.0001006939
0.0001006939
0.0001008002
0.0001006987
0.0001006913
0.0001006942
0.0001006937
0.0001006939
0.0001006938
0.0001006938
0.0001006938
0.0001006938
0.0001008195
0.0001007125
0.0001006876
0.0001006943
0.0001006936
0.0001006936
0.0001006936
0.0001006938
0.0001006938
0.000100694
0.000100767
0.0001007288
0.0001006872
0.0001006972
0.0001006936
0.0001006935
0.0001006935
0.0001006938
0.0001006941
0.0001006946
0.0001008276
0.0001006996
0.0001006875
0.0001006984
0.0001006933
0.0001006942
0.0001006937
0.0001006941
0.0001006947
0.0001006958
0.0001008121
0.0001006943
0.0001006883
0.0001006981
0.0001006931
0.0001006943
0.000100694
0.0001006949
0.0001006963
0.0001006983
0.0001008297
0.0001006949
0.0001006891
0.0001006981
0.0001006931
0.0001006946
0.000100695
0.000100697
0.0001006996
0.0001007023
0.0001007834
0.0001007187
0.0001006877
0.0001006988
0.0001006932
0.0001006957
0.0001006973
0.0001007019
0.0001007065
0.0001007096
0.0001007983
0.0001007013
0.0001006915
0.0001006982
0.0001006942
0.0001006976
0.0001007027
0.0001007165
0.0001007271
0.000100724
0.0001007516
0.0001007165
0.0001006926
0.0001006977
0.0001006975
0.0001007071
0.0001007256
0.0001007624
0.0001007657
0.0001007436
0.0001008269
0.0001007067
0.0001006925
0.000100701
0.0001007057
0.0001007267
0.0001008064
0.0001008039
0.0001022781
0.0001022897
0.0001008366
0.0001007004
0.0001006977
0.0001007028
0.0001007188
0.0001007493
0.0001008425
0.0001015495
0.0001454568
0.0001007599
0.0001007135
0.0001006944
0.0001007036
0.0001007303
0.0001007635
0.0001008345
0.0001010262
0.0004415393
0.0001008126
0.0001006974
0.0001007019
0.0001007062
0.0001007382
0.0001007567
0.0001008271
0.000100991
0.0004944072
0.0001007792
0.0001006996
0.0001006984
0.0001007054
0.000100738
0.0001007562
0.0001008503
0.001604305
0.0001007762
0.0001006828
0.0001007044
0.000100712
0.0001007369
0.000100765
0.000100837
0.001601477
0.0001007566
0.0001006854
0.0001007024
0.0001007117
0.000100739
0.0001007794
0.000100838
0.0001070244
0.0002874977
0.0001007651
0.0001006846
0.0001007055
0.0001007112
0.0001007432
0.0001007822
0.0001009343
0.0001014586
0.0004250249
0.0001007851
0.0001006879
0.0001007021
0.000100711
0.0001007378
0.0001007931
0.0001009756
0.0001013649
0.0003161876
0.0001010795
0.0001648727
0.0001055614
0.0006071385
0.001263231
0.001225673
0.001212172
0.00120883
0.001208051
0.001207909
0.001207973
0.001208076
0.0001013964
0.0001006894
0.0001008344
0.0001010209
0.0001007395
0.0001007248
0.0001007243
0.0001007243
0.0001007243
0.0001007244
0.000100777
0.0001006787
0.0001007012
0.000100696
0.000100694
0.0001006946
0.0001006943
0.0001006942
0.0001006942
0.0001006942
0.0001008613
0.0001006978
0.0001006906
0.0001006951
0.000100694
0.000100694
0.000100694
0.000100694
0.000100694
0.0001006939
0.0001007496
0.000100702
0.0001006898
0.0001006961
0.0001006937
0.000100694
0.0001006938
0.0001006939
0.0001006938
0.0001006938
0.0001008192
0.0001007059
0.0001006897
0.0001006962
0.0001006935
0.0001006938
0.0001006936
0.0001006938
0.0001006938
0.000100694
0.0001008256
0.0001006902
0.000100693
0.0001006953
0.000100693
0.0001006939
0.0001006935
0.0001006939
0.0001006941
0.0001006946
0.0001007645
0.0001006998
0.0001006957
0.0001006922
0.0001006935
0.0001006932
0.0001006934
0.0001006941
0.0001006948
0.0001006959
0.0001008245
0.0001006816
0.0001006964
0.0001006927
0.0001006932
0.0001006931
0.0001006934
0.0001006947
0.0001006962
0.0001006983
0.0001007618
0.0001007029
0.0001006955
0.0001006924
0.0001006932
0.0001006932
0.0001006935
0.0001006967
0.0001006995
0.0001007022
0.000100816
0.0001006979
0.0001006948
0.0001006942
0.0001006936
0.0001006953
0.0001006964
0.0001007014
0.0001007062
0.0001007093
0.0001008088
0.0001006873
0.0001006957
0.0001006962
0.0001006946
0.0001006981
0.0001007016
0.0001007161
0.0001007264
0.0001007227
0.0001007985
0.0001006941
0.0001007005
0.0001006967
0.0001006978
0.0001007071
0.0001007257
0.0001007627
0.0001007651
0.0001007431
0.0001008872
0.0001006826
0.0001007023
0.0001006994
0.0001007073
0.0001007279
0.0001008076
0.000100805
0.0001022761
0.0001023005
0.0001007912
0.0001007151
0.0001007041
0.0001007037
0.000100723
0.0001007514
0.0001008447
0.0001015508
0.0001454279
0.0001008662
0.0001006757
0.0001006977
0.0001007042
0.00010073
0.0001007592
0.0001008311
0.0001010287
0.0004414085
0.0001007683
0.0001006899
0.0001007021
0.0001007046
0.0001007347
0.0001007544
0.0001008252
0.0001009911
0.0004920804
0.0001007745
0.0001006814
0.0001007008
0.0001007024
0.0001007374
0.0001007578
0.0001008494
0.001571367
0.0001007565
0.000100682
0.0001007031
0.0001007103
0.0001007359
0.0001007641
0.000100835
0.00156848
0.0001007573
0.0001006828
0.0001007076
0.0001007146
0.0001007398
0.0001007799
0.0001008373
0.0001070112
0.0002844153
0.0001007565
0.0001006745
0.0001007104
0.0001007133
0.0001007459
0.0001007837
0.0001009343
0.00010146
0.0004243855
0.0001007804
0.0001006767
0.0001007027
0.0001007102
0.0001007384
0.0001007934
0.0001009757
0.000101368
0.0003161376
0.0001010779
0.0001648953
0.0001055225
0.0006071609
0.001264333
0.001227491
0.00121436
0.001211169
0.001210423
0.001210293
0.001210364
0.001210471
0.0001016001
0.0001006871
0.0001008397
0.0001010211
0.0001007394
0.0001007248
0.0001007243
0.0001007243
0.0001007243
0.0001007244
0.0001007594
0.0001006762
0.0001007018
0.0001006948
0.0001006944
0.0001006945
0.0001006942
0.0001006942
0.0001006942
0.0001006942
0.0001007467
0.000100701
0.0001006895
0.0001006954
0.0001006939
0.000100694
0.000100694
0.000100694
0.000100694
0.000100694
0.0001007794
0.0001007077
0.0001006895
0.0001006976
0.0001006935
0.0001006943
0.0001006938
0.0001006939
0.0001006938
0.0001006938
0.0001008635
0.000100683
0.0001006969
0.0001006947
0.0001006936
0.0001006939
0.0001006936
0.0001006938
0.0001006938
0.000100694
0.0001007723
0.0001007103
0.0001006943
0.0001006922
0.0001006937
0.0001006934
0.0001006934
0.0001006938
0.0001006941
0.0001006947
0.0001008024
0.0001007009
0.0001006932
0.0001006932
0.0001006933
0.0001006933
0.0001006934
0.0001006941
0.0001006947
0.0001006959
0.0001007592
0.0001006958
0.0001006952
0.0001006921
0.0001006931
0.000100693
0.0001006934
0.0001006948
0.0001006962
0.0001006983
0.000100826
0.0001006922
0.000100695
0.0001006919
0.000100693
0.000100693
0.0001006937
0.0001006967
0.0001006994
0.0001007022
0.0001008253
0.0001007089
0.0001006962
0.0001006921
0.0001006932
0.0001006947
0.0001006958
0.0001007013
0.0001007061
0.0001007093
0.0001007695
0.0001007118
0.0001006987
0.0001006941
0.0001006954
0.0001006976
0.0001007021
0.0001007157
0.0001007259
0.0001007229
0.0001007672
0.0001006883
0.0001006989
0.0001006957
0.0001006973
0.000100707
0.0001007263
0.0001007629
0.0001007652
0.0001007433
0.0001007686
0.0001007099
0.0001007042
0.0001006962
0.000100708
0.0001007272
0.0001008057
0.000100803
0.0001022735
0.0001022992
0.0001009669
0.0001007097
0.0001007097
0.0001007044
0.0001007288
0.000100755
0.000100848
0.000101549
0.0001454706
0.0001007862
0.0001006815
0.0001007016
0.0001007067
0.0001007315
0.0001007563
0.0001008333
0.0001010276
0.0004413574
0.0001007564
0.0001006868
0.0001006974
0.0001007041
0.0001007325
0.0001007552
0.0001008247
0.0001009898
0.0004918111
0.0001007661
0.0001006815
0.0001007053
0.0001007036
0.0001007368
0.0001007574
0.0001008492
0.001571338
0.0001007533
0.0001006826
0.0001007036
0.0001007086
0.0001007371
0.0001007644
0.0001008353
0.001568636
0.0001007493
0.0001006808
0.0001007049
0.0001007132
0.0001007391
0.0001007793
0.0001008369
0.0001070022
0.0002840244
0.000100755
0.0001006737
0.0001007116
0.0001007134
0.0001007462
0.0001007841
0.0001009346
0.0001014583
0.0004243263
0.0001007732
0.0001006752
0.0001007027
0.0001007103
0.0001007386
0.0001007935
0.0001009757
0.0001013702
0.00031611
0.0001010771
0.0001649085
0.0001055467
0.000607489
0.001271527
0.001238272
0.001227299
0.001224683
0.001224068
0.001223974
0.001224068
0.001224183
0.0001013126
0.0001006908
0.0001007793
0.0001009757
0.0001007375
0.0001007249
0.0001007244
0.0001007245
0.0001007245
0.0001007246
0.0001008039
0.000100687
0.0001006992
0.0001006942
0.0001006947
0.0001006943
0.0001006942
0.0001006942
0.0001006942
0.0001006942
0.0001008777
0.0001007338
0.0001006866
0.0001006983
0.0001006938
0.0001006944
0.000100694
0.000100694
0.000100694
0.0001006939
0.0001007521
0.0001006937
0.0001006945
0.0001006928
0.0001006939
0.0001006937
0.0001006938
0.0001006938
0.0001006938
0.0001006938
0.0001008102
0.0001007278
0.0001006868
0.0001006968
0.0001006935
0.000100694
0.0001006936
0.0001006938
0.0001006938
0.000100694
0.0001008673
0.0001007058
0.0001006865
0.0001006964
0.0001006933
0.0001006938
0.0001006936
0.0001006938
0.0001006941
0.0001006946
0.000100786
0.0001007165
0.0001006861
0.0001006971
0.0001006931
0.000100694
0.0001006937
0.0001006942
0.0001006948
0.0001006958
0.0001008461
0.0001006865
0.0001006876
0.0001006965
0.000100693
0.000100694
0.0001006939
0.0001006949
0.0001006963
0.0001006983
0.0001008327
0.0001006913
0.0001006871
0.0001006967
0.0001006931
0.0001006946
0.0001006949
0.000100697
0.0001006995
0.0001007022
0.0001008224
0.0001007004
0.000100688
0.0001006957
0.0001006931
0.0001006955
0.0001006973
0.0001007017
0.0001007063
0.0001007095
0.0001007983
0.0001007225
0.0001006927
0.0001006963
0.0001006946
0.0001006981
0.0001007035
0.0001007167
0.0001007267
0.0001007237
0.0001007512
0.0001006908
0.0001006948
0.0001006971
0.0001006977
0.0001007074
0.0001007261
0.0001007628
0.0001007659
0.0001007436
0.0001008675
0.0001006763
0.0001006931
0.000100699
0.000100706
0.0001007265
0.0001008068
0.0001008048
0.0001022723
0.0001022915
0.0001009355
0.0001007042
0.0001006913
0.0001006998
0.0001007139
0.0001007465
0.000100841
0.0001015419
0.0001454717
0.0001007761
0.0001006998
0.0001007162
0.0001007019
0.00010074
0.0001007666
0.0001008377
0.0001010288
0.0004415473
0.0001008113
0.000100668
0.0001007053
0.0001007097
0.0001007384
0.0001007534
0.0001008262
0.0001009897
0.0004925915
0.0001007668
0.0001006857
0.0001006988
0.0001007058
0.0001007337
0.0001007563
0.0001008504
0.001604087
0.0001007553
0.0001006787
0.0001007158
0.0001007097
0.0001007382
0.0001007664
0.0001008375
0.001602053
0.000100748
0.0001006881
0.0001007021
0.0001007113
0.0001007387
0.000100779
0.000100837
0.0001070236
0.000285183
0.0001007667
0.000100683
0.0001007047
0.000100711
0.0001007441
0.0001007824
0.0001009331
0.0001014438
0.0004254855
0.000100783
0.0001006849
0.0001007024
0.0001007102
0.0001007379
0.0001007926
0.0001009755
0.0001013773
0.000316243
0.0001010764
0.0001649411
0.0001055472
0.0006101548
0.001291379
0.001272599
0.001265168
0.001263825
0.001263546
0.001263408
0.001263662
0.001263734
0.0001013315
0.0001007062
0.0001007335
0.0001009121
0.0001007347
0.0001007256
0.0001007252
0.0001007253
0.0001007253
0.0001007253
0.0001008099
0.0001006851
0.0001007009
0.000100696
0.0001006937
0.0001006944
0.0001006942
0.0001006942
0.0001006942
0.0001006942
0.0001007445
0.0001007023
0.0001006993
0.0001006936
0.000100694
0.0001006939
0.000100694
0.000100694
0.000100694
0.000100694
0.0001008659
0.0001007345
0.0001006873
0.0001006979
0.0001006937
0.0001006942
0.0001006939
0.0001006939
0.0001006938
0.0001006938
0.0001007488
0.0001007199
0.0001006901
0.0001006974
0.0001006937
0.000100694
0.0001006936
0.0001006938
0.0001006938
0.000100694
0.0001008347
0.0001006683
0.0001007038
0.0001006938
0.0001006934
0.0001006933
0.0001006935
0.0001006938
0.0001006941
0.0001006947
0.0001007785
0.0001006821
0.0001007007
0.0001006922
0.0001006934
0.000100693
0.0001006935
0.0001006941
0.0001006948
0.0001006959
0.0001007752
0.0001006918
0.0001006959
0.0001006924
0.0001006932
0.000100693
0.0001006935
0.0001006948
0.0001006962
0.0001006983
0.0001007851
0.0001006873
0.0001007005
0.0001006922
0.0001006933
0.0001006936
0.000100694
0.0001006968
0.0001006996
0.0001007023
0.0001008551
0.0001006705
0.0001007066
0.0001006954
0.0001006942
0.0001006952
0.0001006966
0.0001007019
0.0001007066
0.0001007093
0.0001007445
0.0001007228
0.0001006902
0.0001006976
0.0001006955
0.0001006986
0.0001007034
0.0001007169
0.0001007266
0.0001007239
0.0001008027
0.0001007037
0.0001006911
0.0001006953
0.0001006971
0.0001007068
0.0001007258
0.0001007616
0.0001007671
0.0001007403
0.0001008151
0.0001006853
0.0001006962
0.000100699
0.0001007055
0.0001007276
0.0001008074
0.0001008096
0.0001022632
0.0001021888
0.0001007819
0.0001006863
0.00010072
0.0001007045
0.0001007237
0.0001007499
0.0001008437
0.0001015482
0.0001454729
0.0001009094
0.0001007104
0.0001006949
0.0001007041
0.0001007273
0.0001007538
0.0001008294
0.0001010269
0.0004411008
0.000100762
0.0001007
0.0001007081
0.0001007015
0.0001007389
0.000100759
0.0001008226
0.0001009874
0.0004963627
0.0001008265
0.0001006766
0.0001007034
0.0001007087
0.0001007365
0.000100754
0.0001008496
0.001726385
0.0001008069
0.0001006959
0.0001007042
0.0001007095
0.0001007355
0.0001007633
0.0001008409
0.00172628
0.0001008196
0.0001006823
0.000100704
0.0001007111
0.0001007386
0.0001007785
0.0001008348
0.0001069207
0.0002942564
0.0001007636
0.0001006843
0.0001007128
0.0001007123
0.0001007435
0.0001007823
0.0001009178
0.0001013833
0.000438535
0.0001007748
0.0001006817
0.000100706
0.0001007107
0.0001007381
0.000100791
0.0001009743
0.0001014044
0.000325398
0.0001010638
0.0001647117
0.0001055001
0.0006161426
0.0006026162
0.000584603
0.0005809569
0.0005820628
0.0005817427
0.0005813652
0.0005822428
0.0005817229
0.0001015642
0.0001011327
0.0001009839
0.0001007383
0.0001007319
0.0001007301
0.0001007302
0.0001007256
0.0001007269
0.00010075
0.0001009163
0.0001015957
0.0001010236
0.0001008349
0.0001007487
0.0001007394
0.0001007245
0.0001007237
0.0001007237
0.0001007238
0.0001008451
0.0001023031
0.0001010613
0.000100914
0.0001007433
0.00010074
0.0001007273
0.0001007238
0.0001007234
0.0001007258
0.0001008505
0.0001024548
0.0001010536
0.0001009496
0.0001007532
0.0001007475
0.0001007256
0.0001007239
0.0001007235
0.0001007236
0.0001008217
0.0001024239
0.0001010546
0.0001009772
0.000100765
0.0001007515
0.0001007262
0.0001007242
0.0001007236
0.0001007251
0.0001007848
0.0001019338
0.0001009423
0.0001009057
0.0001007517
0.0001007523
0.0001007299
0.0001007293
0.0001007257
0.0001007262
0.0001007964
0.0001017314
0.000101042
0.0001009583
0.0001007716
0.0001007584
0.000100728
0.0001007287
0.0001007269
0.0001007269
0.0001007951
0.0001017648
0.0001010592
0.0001009516
0.0001007718
0.0001007582
0.0001007283
0.0001007321
0.0001007301
0.00010073
0.0001008022
0.0001017943
0.0001010292
0.0001009488
0.0001007594
0.0001007501
0.0001007267
0.0001007279
0.0001007308
0.0001007321
0.0001010041
0.0001019624
0.0001009524
0.0001009109
0.0001007531
0.0001007416
0.0001007273
0.0001007407
0.0001007393
0.000100743
0.0001008786
0.0001024203
0.0001010507
0.0001009642
0.0001007452
0.0001007279
0.0001007327
0.000100748
0.0001007571
0.0001007543
0.0001008181
0.0001024113
0.0001010369
0.0001009642
0.0001007406
0.0001007369
0.0001007576
0.0001007885
0.0001008377
0.0001009131
0.0001008818
0.0001020895
0.0001009894
0.0001009569
0.0001007488
0.000100759
0.0001008481
0.0001007895
0.0001022949
0.0001019532
0.0001008619
0.0001020314
0.0001009662
0.0001009169
0.0001007605
0.0001007817
0.0001008844
0.0001015088
0.0001455176
0.0001008244
0.0001024886
0.000101059
0.0001009501
0.0001007713
0.0001007918
0.0001008641
0.0001009702
0.0004286547
0.0001008579
0.0001025069
0.0001009958
0.0001008835
0.0001007693
0.0001007831
0.0001008464
0.000100896
0.0004969003
0.0001007803
0.0001023279
0.0001009898
0.0001008869
0.0001007727
0.0001007873
0.0001008427
0.0001009541
0.0002695243
0.0001008635
0.0001021686
0.0001009585
0.0001008601
0.0001007735
0.0001007901
0.000100859
0.0001009504
0.000270377
0.0001007924
0.0001017655
0.0001009224
0.0001008427
0.0001007731
0.0001008014
0.000100888
0.0001007388
0.0003759221
0.0001012576
0.0001016358
0.000100938
0.0001008475
0.0001007747
0.0001008194
0.0001009416
0.0001011592
0.0005131189
0.0001009936
0.0001015545
0.0001009598
0.0001008343
0.0001007739
0.0001008262
0.0001010201
0.0001011435
0.000375867
0.0001010076
0.0001010346
0.0001635889
0.0001051721
0.0002909017
0.0002744528
0.0006000478
0.000269797
0.000276337
0.000274081
0.000273391
0.0002764337
0.0002734412
0.0001015682
0.001341343
0.00131402
0.001305387
0.001303184
0.001302075
0.001301671
0.001301986
0.00130225
0.001301638
0.0001027408
0.001312167
0.00126096
0.001245599
0.001241406
0.001240254
0.001239906
0.001240013
0.001240195
0.001240298
0.0001008522
0.001299088
0.001244308
0.001225701
0.001220362
0.0012189
0.001218475
0.001218552
0.001218784
0.001218993
0.0001009918
0.001294391
0.001239584
0.001220067
0.001214177
0.001212473
0.001211971
0.001212057
0.001212322
0.001212571
0.0001009896
0.00129387
0.001238346
0.001218345
0.001212151
0.00121031
0.001209763
0.00120986
0.001210159
0.001210433
0.0001012874
0.001296983
0.001238509
0.001217864
0.001211479
0.001209562
0.001208979
0.001209089
0.001209427
0.001209735
0.0001008725
0.001299325
0.00123907
0.001217815
0.00121129
0.001209324
0.001208801
0.001208994
0.001209414
0.001209778
0.000100939
0.001299624
0.00123925
0.001217846
0.001211337
0.001209473
0.001209112
0.0012095
0.001210096
0.00121058
0.0001010048
0.001299726
0.001239069
0.001217824
0.001211529
0.001209977
0.001210097
0.001211028
0.001212073
0.001212823
0.0001014155
0.00129704
0.001238467
0.001217916
0.00121211
0.00121151
0.001213045
0.00121564
0.001218024
0.001219473
0.000101095
0.001293949
0.001238005
0.001218122
0.001213249
0.001215935
0.001222912
0.001230754
0.001237815
0.001241685
0.0001011091
0.001294739
0.00123822
0.001218646
0.001215033
0.00122304
0.001255716
0.001269965
0.001300748
0.001308602
0.0001011363
0.001297745
0.001238915
0.001219283
0.001216913
0.001229293
0.001268219
0.0001225827
0.000102476
0.0001019535
0.0001008204
0.001298605
0.001238914
0.001219515
0.001217988
0.001233673
0.001291538
0.000116992
0.0001458735
0.0001010658
0.00129613
0.001238492
0.001219523
0.001218339
0.001235172
0.001289798
0.0001105649
0.0003428138
0.0001010633
0.001294063
0.001238059
0.001219529
0.001218672
0.001235768
0.001288518
0.0001083729
0.0003646792
0.0001010017
0.001292698
0.001237987
0.001219697
0.001219158
0.001237262
0.001294079
0.0001072519
0.0003592864
0.0001010938
0.001293262
0.001238302
0.001219957
0.001219606
0.001238287
0.001297787
0.0001072497
0.000362412
0.0001013308
0.001296687
0.001239169
0.0012203
0.001219855
0.001238277
0.001297208
0.0001083106
0.0003672768
0.000100834
0.001299313
0.001240103
0.001220818
0.001220095
0.001238108
0.001296931
0.000111116
0.000372653
0.0001017066
0.001301257
0.001240801
0.001221323
0.001220265
0.001236633
0.001295471
0.0001173491
0.0003278542
0.0001022285
0.0001285044
0.0001664268
0.0001015528
0.0002584191
0.0006485937
0.0002708209
0.000101748
0.0001017844
0.0002792712
0.0006362747
0.0006142972
0.0006124504
0.000598845
0.00010177
0.0001012566
0.0002792735
0.0006082761
0.0006053004
0.0006071607
0.0005931582
0.000101985
0.0001025866
0.0002793861
0.0006047465
0.000604308
0.0005900558
0.0005882097
0.000101588
0.0001022008
0.000279462
0.0006044157
0.0006042488
0.0005880897
0.0005877495
0.0001016717
0.0001020223
0.0002795128
0.0006043954
0.0006042526
0.0005879065
0.000587747
0.0001016836
0.0001019766
0.0002795595
0.0006044238
0.0006042987
0.0005879285
0.0005877807
0.0001016993
0.0001019893
0.0002796108
0.0006044828
0.0006043763
0.0005879714
0.0005878296
0.0001017049
0.0001020004
0.000279675
0.0006045976
0.0006045378
0.000588024
0.0005878782
0.0001017092
0.0001020279
0.0006047921
0.0005880698
0.0001017172
0.0006523932
0.000636112
0.0001013949
0.000102823
0.0001014587
0.0001033599
0.0006325822
0.0006305092
0.0001014314
0.0001032833
0.0001017872
0.0001032676
0.0006301904
0.0006300051
0.0001014454
0.0001032227
0.0001018922
0.0001031187
0.0006299721
0.0006300023
0.0001014509
0.0001031763
0.0001020215
0.0001030567
0.0006300233
0.0006300401
0.0001014417
0.0001031528
0.0001021437
0.0001029941
0.0006300254
0.0006300528
0.0001014352
0.0001030421
0.0001022963
0.0001029384
0.0006300321
0.0006300589
0.0001014071
0.0001030223
0.0001023782
0.0001029067
0.0006300425
0.0006300509
0.0001013532
0.0001029922
0.0001023913
0.0001028107
0.000630032
0.0006299757
0.0001013213
0.0001029638
0.0001023318
0.0001027762
0.0006300025
0.0006300305
0.0001013201
0.0001028913
0.0001023235
0.0001028797
0.0006299997
0.0006300049
0.00010132
0.0001029175
0.000102225
0.0001029401
0.0006299448
0.0006298773
0.000101381
0.0001028746
0.0001019951
0.0001028544
0.0006300012
0.0006300184
0.0001014828
0.0001029045
0.0001017579
0.0001029898
0.0006259555
0.0003283144
0.0003194958
0.0001024889
0.0001017746
0.0001253136
0.0003018054
0.0006300573
0.0006298751
0.0001015834
0.0001030416
0.0001014674
0.000102868
0.0001417807
0.0001459213
0.0003221893
0.0006298441
0.0006299093
0.0001018483
0.000102904
0.0001011399
0.000102619
0.0001386742
0.0003447789
0.0003692942
0.0006299654
0.0006297818
0.000101502
0.0001026752
0.0001014698
0.0001026394
0.0001373537
0.0003693521
0.0003642417
0.0006298218
0.0006296963
0.0001018946
0.0001027076
0.0001018423
0.0001024558
0.0001391337
0.0003635306
0.0003632917
0.0006299312
0.0006297419
0.000101863
0.0001027372
0.0001019183
0.0001023964
0.0001409636
0.0003636836
0.0003662348
0.0006300876
0.0006298226