/*--------------------------------*- C++ -*----------------------------------*\
  =========                 |
  \\      /  F ield         | OpenFOAM: The Open Source CFD Toolbox
   \\    /   O peration     | Website:  https://openfoam.org
    \\  /    A nd           | Version:  7
     \\/     M anipulation  |
\*---------------------------------------------------------------------------*/
FoamFile
{
    version     2.0;
    format      ascii;
    class       volScalarField;
    location    "0.07";
    object      p;
}
// * * * * * * * * * * * * * * * * * * * * * * * * * * * * * * * * * * * * * //

dimensions      [0 2 -2 0 0 0 0];

internalField   nonuniform List<scalar> 
78470
(
2.774884
2.784449
2.763477
2.74875
2.73792
2.725717
2.715527
2.703144
2.688568
2.797139
2.830258
2.703904
2.774802
2.716181
2.731031
2.708087
2.702603
2.684175
2.802143
2.837305
2.717419
2.804781
2.728256
2.738494
2.719112
2.716674
2.703394
2.774588
2.857409
2.689948
2.813423
2.720338
2.746705
2.722535
2.729636
2.719483
2.755899
2.878572
2.670904
2.830922
2.721979
2.745004
2.725731
2.736067
2.734543
2.737994
2.898876
2.65419
2.823284
2.718894
2.756866
2.734859
2.751436
2.755683
2.733119
2.940308
2.639562
2.82519
2.718432
2.753127
2.73079
2.747695
2.755097
2.712216
2.929227
2.643232
2.826149
2.712275
2.7564
2.73418
2.746369
2.753171
2.696137
2.988184
2.652947
2.842274
2.715826
2.752658
2.720431
2.724013
2.717573
2.709714
2.994879
2.65235
2.848171
2.711688
2.74317
2.711473
2.685716
2.676427
2.699162
2.98146
2.653183
2.865903
2.717772
2.743376
2.690857
2.647128
2.5674
2.703242
2.925927
2.649578
2.87201
2.723887
2.739801
2.692988
2.500927
2.45169
2.703702
2.959068
2.659903
2.888125
2.757623
2.791421
2.675933
2.459588
2.136412
2.700368
2.903107
2.657121
2.902539
2.781714
2.832996
2.768513
2.640557
1.957982
2.678198
2.892873
2.640261
2.968564
2.93114
3.046951
2.978276
2.201174
2.637599
2.845775
2.594858
2.96569
2.933627
3.07385
3.110187
3.185947
2.600496
2.783827
2.600168
2.880722
2.852814
3.024558
3.099845
3.186647
2.492055
2.693096
2.52135
2.785486
2.755718
2.915677
3.005064
3.082646
2.395257
2.575442
2.415974
2.660228
2.606702
2.767615
2.854371
2.931138
2.259147
2.432383
2.27076
2.481695
2.411307
2.54354
2.642268
2.725233
2.124251
2.282405
2.099313
2.288934
2.172577
2.259952
2.327926
2.411382
1.966768
2.111018
1.902282
2.03276
1.84877
1.821308
1.815531
1.75418
0.9883655
-0.8215925
-2.276142
2.724745
2.746016
2.743386
2.749215
2.726351
2.72167
2.706511
2.695534
2.675903
3.054427
2.663068
2.748502
2.710381
2.759595
2.720824
2.731585
2.710307
2.70458
2.685936
2.99214
2.678901
2.773565
2.705262
2.776315
2.721759
2.737011
2.715583
2.713987
2.69945
2.943528
2.599998
2.794447
2.673
2.790699
2.712857
2.748346
2.721271
2.730328
2.71886
2.919875
2.60951
2.796898
2.663572
2.794206
2.712525
2.752039
2.725285
2.738241
2.733841
2.914653
2.601278
2.80189
2.646019
2.805698
2.707147
2.758088
2.732756
2.752001
2.755357
2.928413
2.581312
2.777808
2.625658
2.802379
2.704661
2.752445
2.727552
2.746394
2.753005
2.923045
2.59816
2.797473
2.631051
2.812487
2.704407
2.7448
2.727554
2.742231
2.751459
2.932723
2.585525
2.740496
2.621594
2.809971
2.697528
2.734644
2.712365
2.718641
2.714688
2.931697
2.586659
2.736075
2.621546
2.820619
2.69526
2.724472
2.704847
2.680056
2.675153
2.940716
2.561362
2.75882
2.622014
2.834263
2.699825
2.730398
2.682715
2.644408
2.561382
2.938847
2.571318
2.797194
2.63086
2.835396
2.714214
2.739485
2.699606
2.477196
2.452446
2.941206
2.54781
2.806625
2.6371
2.861257
2.741436
2.784367
2.648931
2.43682
2.105135
2.918428
2.538803
2.80689
2.639576
2.878605
2.767037
2.805363
2.788797
2.695662
1.927843
2.855162
2.564273
2.816787
2.660819
2.928855
2.880203
3.060859
2.979327
2.059386
2.792991
2.510875
2.821293
2.630136
2.918042
2.888058
3.102015
3.125709
3.188467
2.733024
2.475174
2.751598
2.608814
2.880238
2.83789
3.042265
3.105518
3.158017
2.638506
2.393335
2.6684
2.530333
2.782194
2.754431
2.927169
3.003141
3.045951
2.531414
2.30835
2.550742
2.426122
2.662945
2.608972
2.785299
2.849507
2.882221
2.414079
2.173786
2.411138
2.277064
2.481079
2.413909
2.555519
2.645505
2.687473
2.2743
2.055589
2.258773
2.104349
2.285733
2.164647
2.263553
2.322819
2.290868
2.132968
1.891804
2.092264
1.902708
2.0279
1.84723
1.783405
1.774098
1.549505
1.982538
0.9484746
-0.6290429
-1.95971
2.741362
2.774239
2.74229
2.787481
2.732121
2.734016
2.7123
2.702955
2.683766
2.949009
2.705873
2.800602
2.708125
2.793057
2.724661
2.740325
2.709294
2.704808
2.686458
3.023422
2.759757
2.918686
2.699178
2.8396
2.717326
2.736635
2.710363
2.708669
2.697685
2.96377
2.682962
2.931594
2.669927
2.852148
2.708127
2.747768
2.716974
2.729723
2.717201
3.021232
2.65281
2.991506
2.639524
2.874173
2.704864
2.740851
2.716778
2.734392
2.731194
2.970617
2.653023
3.004712
2.621871
2.883062
2.705906
2.753139
2.727134
2.751496
2.752402
2.995294
2.622088
3.043066
2.606956
2.894831
2.71013
2.754146
2.722352
2.743697
2.751505
2.997613
2.616228
3.047776
2.606462
2.886203
2.709914
2.763333
2.728521
2.746669
2.75299
2.993675
2.587882
3.080657
2.61909
2.897844
2.713491
2.771063
2.714141
2.72252
2.716566
2.989458
2.582761
3.083199
2.623374
2.902714
2.715525
2.763898
2.709964
2.690161
2.678109
2.97388
2.589956
3.079277
2.621288
2.913853
2.699211
2.759367
2.685031
2.657018
2.559837
2.946848
2.596516
3.047487
2.614957
2.931618
2.717796
2.746669
2.706988
2.467604
2.445461
2.939485
2.541205
3.05081
2.601014
2.950866
2.745138
2.805194
2.639567
2.449728
2.115775
2.930607
2.577883
3.021347
2.602113
2.969623
2.771396
2.811695
2.801481
2.695622
1.927448
2.913285
2.579041
2.983618
2.574784
3.014689
2.912999
3.089095
2.989628
2.073147
2.885053
2.477803
2.938988
2.530185
2.996989
2.932684
3.122055
3.183291
3.197429
2.833383
2.524956
2.867037
2.548278
2.927979
2.838457
3.066952
3.101312
3.143391
2.851211
2.301169
2.758264
2.465497
2.815485
2.754068
2.937781
2.995047
2.608715
2.279163
2.636163
2.375885
2.701286
2.601296
2.796062
2.838757
2.539599
2.130938
2.495936
2.225674
2.514823
2.412198
2.553775
2.617896
2.945457
2.333483
2.028618
2.350537
2.053832
2.327475
2.151044
2.285346
2.314116
2.288585
2.250388
1.842899
2.196702
1.84747
2.061082
1.825605
1.761506
1.759822
1.465486
0.9391891
-0.6485462
-1.996778
2.74186
2.758326
2.728587
2.777891
2.720829
2.725546
2.70687
2.698736
2.678903
2.904661
2.665391
2.795606
2.696348
2.783853
2.719122
2.740889
2.709117
2.704625
2.685836
3.011807
2.631073
2.894425
2.678768
2.824394
2.708621
2.737253
2.708501
2.710029
2.696978
3.091653
2.461795
2.917086
2.628921
2.844969
2.698543
2.747303
2.717939
2.731785
2.718223
3.044972
2.513346
2.989573
2.615035
2.873166
2.700062
2.74953
2.716708
2.737322
2.732512
2.984411
2.520973
2.996108
2.590208
2.878124
2.715516
2.775562
2.729883
2.757273
2.757895
3.295065
2.34236
3.032561
2.558327
2.871692
2.700845
2.776778
2.7275
2.753269
2.755239
2.962634
2.48179
3.024672
2.562113
2.885695
2.705754
2.765051
2.727405
2.746466
2.753499
3.29185
2.34129
3.068272
2.546811
2.895986
2.694458
2.755601
2.710668
2.720963
2.716326
2.962814
2.474221
3.062817
2.563485
2.902409
2.691268
2.738697
2.704814
2.68769
2.677414
3.279363
2.334818
3.094576
2.54995
2.895796
2.68124
2.745727
2.682223
2.655705
2.557791
3.040537
2.425116
3.059022
2.567205
2.913421
2.700994
2.751293
2.710591
2.461824
2.444096
3.284359
2.3097
3.085253
2.548291
2.934785
2.735061
2.807786
2.62581
2.445857
2.109915
3.264298
2.25274
3.021566
2.537816
2.954791
2.760243
2.812462
2.793425
2.694849
1.921798
2.895466
2.446355
2.988015
2.527639
3.032888
2.922888
3.100463
2.982431
2.063167
2.968236
2.334206
2.970694
2.503858
3.016275
2.941273
3.136715
3.185464
3.200947
2.77434
2.422704
2.837006
2.543048
2.927363
2.830755
3.08094
3.093842
3.138941
2.774219
2.337429
2.759385
2.477913
2.820026
2.759126
2.94899
2.981445
2.577869
2.306489
2.6163
2.390517
2.699749
2.606047
2.805787
2.835964
2.585188
2.10359
2.48553
2.239253
2.510501
2.410688
2.575878
2.585778
3.105089
2.288219
2.034231
2.331864
2.071155
2.321385
2.150325
2.285341
2.283535
2.24862
2.320682
1.788916
2.187132
1.85547
2.052026
1.822895
1.749649
1.731409
1.422119
0.9093602
-0.6533758
-2.022753
2.742437
2.793443
2.732662
2.797783
2.721281
2.728423
2.706885
2.698269
2.6787
2.910826
2.650675
2.802979
2.694587
2.801047
2.722182
2.747673
2.706305
2.702745
2.684711
3.027078
2.691574
2.937495
2.679535
2.852141
2.705943
2.739317
2.706144
2.706358
2.695968
2.971565
2.557175
2.976296
2.639029
2.873589
2.703351
2.750298
2.714906
2.730343
2.71596
3.307625
2.448512
3.05392
2.589418
2.889949
2.70191
2.755026
2.714588
2.735049
2.731146
3.063021
2.528397
3.091587
2.570313
2.887189
2.702164
2.764126
2.725119
2.752384
2.751589
3.124141
2.506782
3.157082
2.550391
2.875751
2.691086
2.757277
2.718523
2.741985
2.750582
3.294805
2.297208
3.182621
2.542798
2.861596
2.674343
2.757672
2.725788
2.745772
2.752504
3.125863
2.414148
3.215079
2.54045
2.886168
2.689407
2.762923
2.707496
2.720376
2.715841
3.283161
2.236247
3.222053
2.570261
2.903617
2.688986
2.750456
2.70361
2.689789
2.677373
3.119368
2.527184
3.198659
2.560607
2.896927
2.671353
2.741956
2.678269
2.657846
2.555162
3.03636
2.4492
3.167685
2.554805
2.907876
2.696185
2.75362
2.710296
2.458061
2.441108
3.299956
2.355068
3.161186
2.560783
2.930403
2.716633
2.805495
2.62249
2.449424
2.108456
3.058626
2.403432
3.100439
2.547172
2.976526
2.753432
2.817409
2.797211
2.695954
1.915625
3.046228
2.436811
3.071445
2.519315
3.038383
2.892469
3.100176
2.985013
2.061017
3.206701
2.259189
2.991704
2.460981
3.036162
2.94289
3.141057
3.190711
3.205114
2.816382
2.495493
2.903958
2.516863
2.954372
2.818885
3.085701
3.09662
3.140751
3.008123
2.205163
2.774195
2.430285
2.830099
2.75296
2.950902
2.985687
2.561281
2.271187
2.65189
2.35924
2.716612
2.594481
2.808861
2.836704
2.627217
2.073333
2.510552
2.211763
2.526597
2.403763
2.579415
2.59368
2.801706
2.299215
2.011513
2.36132
2.049031
2.341655
2.140758
2.286947
2.284442
2.252938
2.317157
1.79026
2.211514
1.840815
2.06285
1.811562
1.746887
1.723869
1.407629
0.9024745
-0.6578561
-2.03035
2.749366
2.782955
2.725367
2.790884
2.718446
2.724496
2.705254
2.69821
2.679452
2.917763
2.627208
2.789908
2.677676
2.795055
2.716007
2.747207
2.706713
2.703529
2.686241
3.011835
2.707475
2.92758
2.675559
2.848271
2.701998
2.731256
2.704215
2.704286
2.69643
3.164786
2.402147
2.966271
2.60056
2.860452
2.690083
2.750451
2.719474
2.733621
2.719107
3.093754
2.503032
3.034581
2.582252
2.891386
2.697317
2.754045
2.715571
2.73644
2.7337
3.078765
2.448942
3.112347
2.566775
2.864653
2.682372
2.763125
2.723232
2.758001
2.759384
3.484592
2.13408
3.165441
2.569954
2.879161
2.684508
2.774139
2.727214
2.759263
2.761562
3.08563
2.572276
3.178401
2.564412
2.884751
2.680963
2.76215
2.7232
2.74911
2.756255
3.478112
2.143449
3.205098
2.555483
2.879365
2.691964
2.779289
2.718167
2.732996
2.723199
3.15487
2.336723
3.214276
2.593707
2.917946
2.691065
2.762398
2.70881
2.696317
2.682947
3.172664
2.375758
3.205879
2.576888
2.917345
2.684558
2.764831
2.686196
2.664392
2.563515
3.508122
1.997777
3.163822
2.567483
2.934859
2.708158
2.765943
2.715493
2.474179
2.451575
2.972175
2.565333
3.120234
2.565278
2.95638
2.732847
2.811666
2.629335
2.457742
2.111851
3.524319
1.93195
3.109315
2.592815
2.989327
2.779436
2.83007
2.802134
2.701233
1.920598
2.992099
2.377192
3.053684
2.480475
3.051359
2.936893
3.113387
2.987654
2.063358
2.981129
2.388798
2.982621
2.465227
3.044357
2.928694
3.149562
3.196165
3.205507
2.997341
2.241005
2.906523
2.467255
2.951684
2.841819
3.090732
3.096214
3.141735
2.634139
2.355994
2.760096
2.447299
2.82831
2.746367
2.953472
2.98488
2.653906
2.201927
2.649661
2.351529
2.715818
2.602192
2.813344
2.842414
2.383506
2.141524
2.489604
2.217038
2.521257
2.402465
2.584882
2.598241
2.846601
2.29303
2.014393
2.350497
2.051601
2.341909
2.142631
2.286458
2.277487
2.239395
2.139749
1.852569
2.191469
1.846895
2.06127
1.812101
1.750209
1.719233
1.403015
0.8973675
-0.6580421
-2.028348
2.757234
2.790525
2.735377
2.787963
2.728356
2.738352
2.710396
2.701095
2.680451
2.931166
2.631193
2.799516
2.694808
2.799472
2.718709
2.741786
2.709348
2.703416
2.687639
3.023702
2.665434
2.913408
2.677361
2.829357
2.711753
2.754332
2.711335
2.715859
2.699856
2.99542
2.563601
2.976118
2.643454
2.877991
2.700646
2.736417
2.712667
2.721097
2.715995
3.315798
2.40897
3.033326
2.594075
2.868128
2.719829
2.776838
2.737677
2.746395
2.736416
3.029677
2.548104
3.071564
2.586685
2.903773
2.696877
2.752877
2.720828
2.750195
2.751391
3.033395
2.487227
3.054717
2.565379
2.891734
2.70345
2.771565
2.724455
2.749614
2.753816
3.15934
2.381836
3.113187
2.554535
2.882117
2.685669
2.746311
2.718182
2.742763
2.751162
2.967192
2.510802
3.07072
2.567635
2.89707
2.701632
2.761728
2.71119
2.726755
2.718476
3.011566
2.471367
3.111722
2.576141
2.901796
2.677172
2.726859
2.700262
2.687867
2.67799
3.025526
2.505879
3.097611
2.580204
2.905798
2.676095
2.738188
2.681401
2.658763
2.558993
3.000674
2.570716
3.11096
2.590334
2.92482
2.701188
2.749103
2.710904
2.459389
2.445524
3.263676
2.305863
3.084011
2.565312
2.940962
2.724661
2.807847
2.625108
2.447973
2.111235
3.009085
2.363152
3.045986
2.550125
2.965814
2.755591
2.820853
2.799667
2.701237
1.928127
2.966628
2.415508
3.029164
2.524321
3.032201
2.879549
3.096974
2.986871
2.065027
3.298892
2.122119
2.985092
2.463654
3.022301
2.963115
3.142041
3.190205
3.200111
2.864683
2.55084
2.891528
2.551513
2.953918
2.808423
3.085176
3.094914
3.143664
2.996442
2.19807
2.753158
2.438348
2.832796
2.753371
2.954454
2.984291
2.581572
2.280133
2.649918
2.375328
2.710403
2.597389
2.807635
2.833805
2.550526
2.109636
2.473727
2.224662
2.515394
2.405271
2.577825
2.584497
2.782127
2.312108
2.030498
2.34375
2.063142
2.32659
2.146188
2.283706
2.282114
2.258687
2.300817
1.789798
2.184316
1.853205
2.0554
1.821017
1.760475
1.726514
1.414138
0.9031427
-0.6539622
-2.015642
2.759215
2.783379
2.734101
2.778899
2.73166
2.730884
2.708584
2.703717
2.683757
2.921409
2.659079
2.808825
2.691674
2.79603
2.72068
2.745708
2.71075
2.70611
2.691523
3.042279
2.735043
2.911817
2.685101
2.836355
2.711553
2.740641
2.709992
2.70901
2.699708
3.109589
2.435044
2.953617
2.628737
2.86284
2.69678
2.747567
2.717241
2.731627
2.721557
2.98888
2.542021
2.989835
2.609966
2.884924
2.698826
2.74011
2.716896
2.737012
2.735978
3.181046
2.323587
3.064563
2.619837
2.893572
2.698496
2.763389
2.72908
2.757866
2.759474
3.074044
2.516586
3.059578
2.59841
2.884521
2.69854
2.766392
2.725546
2.75991
2.763756
3.013069
2.553943
3.088629
2.600131
2.886945
2.721931
2.782713
2.732948
2.754005
2.759182
3.069193
2.55364
3.092327
2.609197
2.883369
2.705341
2.778453
2.721195
2.738332
2.727058
3.029563
2.519047
3.107186
2.623164
2.901542
2.719245
2.773973
2.716495
2.699894
2.686653
3.029932
2.551556
3.092015
2.603339
2.887646
2.708205
2.780196
2.693435
2.669929
2.570159
3.363483
2.16212
3.091045
2.613273
2.936147
2.710139
2.751275
2.710422
2.479677
2.458199
2.939261
2.513738
3.0431
2.580422
2.943854
2.737626
2.82005
2.644371
2.46154
2.125142
3.314707
2.168434
3.025587
2.584053
2.985241
2.764448
2.820314
2.801033
2.707914
1.948736
2.931675
2.435729
3.001087
2.512626
3.033621
2.963993
3.10769
2.990347
2.07289
2.999713
2.429436
2.963765
2.535046
3.007853
2.896991
3.139572
3.195498
3.201779
3.008956
2.188426
2.904251
2.466379
2.931935
2.864659
3.08142
3.103149
3.149789
2.637403
2.359816
2.723125
2.456135
2.806344
2.736608
2.939494
2.993356
2.596273
2.266281
2.646691
2.35615
2.705698
2.604707
2.802089
2.836394
2.48706
2.179909
2.481791
2.222731
2.503884
2.406104
2.544659
2.625242
2.817155
2.359867
2.021429
2.359124
2.055288
2.3308
2.151899
2.271233
2.28184
2.27448
2.28026
1.853906
2.189174
1.849457
2.06227
1.825335
1.783573
1.740303
1.442973
0.9041637
-0.6355614
-2.002561
2.750814
2.781948
2.737089
2.753069
2.721235
2.718726
2.706848
2.683981
2.664263
2.912736
2.715836
2.778475
2.713298
2.790271
2.721931
2.734522
2.720445
2.69923
2.695565
3.007008
2.643054
2.818272
2.690598
2.801277
2.722028
2.754395
2.717653
2.718563
2.703155
3.011224
2.658829
2.934204
2.672198
2.853404
2.711666
2.756007
2.719991
2.722677
2.720457
2.969079
2.573746
2.920383
2.650982
2.846804
2.705505
2.764317
2.732306
2.747165
2.739451
2.990238
2.605397
2.952998
2.641068
2.875519
2.708683
2.760068
2.727411
2.750678
2.754907
3.731223
2.545082
2.88334
2.635609
2.860023
2.704343
2.75723
2.728458
2.75151
2.75784
3.686778
2.608735
2.873073
2.632749
2.860064
2.698959
2.741239
2.723316
2.743904
2.754255
3.590257
2.602665
2.862104
2.640031
2.85595
2.70406
2.748312
2.716409
2.728803
2.722742
3.422858
2.65756
2.861336
2.644106
2.869278
2.69606
2.721945
2.705609
2.686772
2.682253
3.051249
2.51089
2.876203
2.62107
2.870591
2.694429
2.737748
2.687521
2.65437
2.571224
3.050588
2.613293
2.982123
2.643354
2.909947
2.723926
2.749338
2.70517
2.489524
2.465924
3.083238
2.429402
2.958157
2.59877
2.916575
2.742829
2.802855
2.651436
2.450528
2.115506
3.007636
2.499831
2.946995
2.60825
2.94801
2.776218
2.826724
2.811075
2.712402
1.946727
3.148102
2.505808
2.924994
2.618787
2.991516
2.887488
3.084923
2.996487
2.085563
3.056754
2.330726
2.906206
2.498609
2.998487
2.943621
3.131742
3.132128
3.201779
2.813003
2.446232
2.859122
2.559947
2.923748
2.820304
3.05932
3.118221
3.162707
2.727273
2.328342
2.728362
2.464519
2.809128
2.756327
2.94019
3.019411
3.05444
2.659329
2.298181
2.643302
2.389185
2.693423
2.599828
2.795992
2.861662
2.883572
3.15857
2.11008
2.403794
2.23456
2.488102
2.403715
2.558852
2.642658
2.687055
2.541366
2.063633
2.282836
2.091538
2.294548
2.162535
2.249456
2.31189
2.274469
2.180303
1.882949
2.088018
1.894731
2.034287
1.844003
1.811521
1.75953
1.457793
1.992698
0.9450148
-0.6249918
-1.946953
2.77812
2.772506
2.670889
2.779616
2.745113
2.720949
2.703245
2.695927
2.668095
2.884029
2.764577
2.834274
2.691647
2.804802
2.713596
2.743427
2.721175
2.706365
2.700633
2.942113
2.753966
2.843644
2.693179
2.806574
2.719748
2.751907
2.717601
2.715676
2.702258
2.974652
2.681266
2.90825
2.669981
2.851594
2.712721
2.751797
2.72288
2.72817
2.724009
3.078482
2.653641
2.89909
2.644973
2.854192
2.701325
2.752113
2.726812
2.74314
2.73947
3.146453
2.65636
2.977863
2.642665
2.870077
2.705981
2.753537
2.730134
2.752869
2.758231
3.201748
2.667622
2.912698
2.633732
2.846257
2.70012
2.761203
2.734872
2.757333
2.763649
3.531475
2.726645
2.98386
2.632128
2.854562
2.711804
2.761641
2.731435
2.750805
2.758088
3.419097
2.679872
2.973137
2.637285
2.846288
2.709253
2.764724
2.726583
2.736951
2.727619
3.180928
2.702102
3.015379
2.647554
2.875494
2.714342
2.739036
2.713951
2.693972
2.68519
3.003578
2.666993
2.910439
2.628628
2.864103
2.706685
2.758017
2.698084
2.661058
2.578375
3.095057
2.570469
3.019921
2.640558
2.909422
2.727032
2.751644
2.699851
2.514654
2.4661
3.016236
2.618192
2.959182
2.617694
2.906848
2.750776
2.807731
2.681773
2.478872
2.152143
2.943523
2.528197
2.967496
2.631682
2.94336
2.778015
2.847808
2.794491
2.678476
1.946884
3.267263
2.582976
2.917903
2.586987
2.978685
2.930734
3.06196
2.967261
2.081756
2.933943
2.519269
2.903024
2.555134
2.978261
2.920402
3.097565
3.128975
3.205216
2.880735
2.426244
2.846513
2.540202
2.909963
2.842766
3.039081
3.119835
3.195143
2.754168
2.395303
2.705803
2.476297
2.793026
2.742277
2.920091
3.023931
3.085884
2.636705
2.316914
2.612384
2.379536
2.680024
2.598416
2.773512
2.869029
2.926712
2.557136
2.228365
2.411747
2.246073
2.480294
2.403665
2.544991
2.649777
2.698624
2.76872
2.113836
2.28562
2.091432
2.29409
2.173498
2.256032
2.330929
2.367595
2.164287
1.968353
2.09435
1.899463
2.033176
1.848523
1.8281
1.7781
1.642629
1.971589
0.927374
-0.666281
-2.27068
2.807232
2.892174
2.83164
2.874478
2.903538
2.818431
2.659197
2.843036
2.727296
2.806396
2.712906
2.836819
2.811949
2.720045
2.786025
2.727039
2.867159
2.755684
2.776325
2.783732
2.695743
2.807438
2.701165
2.778165
2.743485
2.773742
2.782664
2.691846
2.80366
2.699486
2.816103
2.772108
2.783693
2.763658
2.680846
2.782813
2.676178
2.779604
2.755586
2.770767
2.756615
2.673168
2.777955
2.671979
2.779138
2.753452
2.763087
2.743495
2.661791
2.764343
2.660067
2.764378
2.736483
2.750271
2.730674
2.649853
2.753292
2.648839
2.754139
2.72589
2.736794
2.633803
2.634974
2.706733
2.748034
2.780996
2.90285
2.724012
2.935277
2.769948
2.76679
2.770756
2.980045
2.757937
2.915176
2.741001
2.764287
2.776169
3.018729
2.764178
2.914584
2.74451
2.767061
2.792303
3.026997
2.765195
2.916551
2.757107
2.773415
2.80543
3.032868
2.769586
2.908055
2.75846
2.78787
2.812618
3.041533
2.777596
2.911118
2.764953
2.797178
2.819879
3.036102
2.765355
2.900573
2.754244
2.800741
2.818457
3.037136
2.768331
2.901331
2.74698
2.79822
2.818317
3.039906
2.771375
2.904407
2.743259
2.801269
2.796959
3.04607
2.771511
2.904378
2.75572
2.801943
2.787333
3.048239
2.783802
2.902374
2.75942
2.795972
2.773101
3.048148
2.795783
2.909773
2.762696
2.762142
2.754268
3.024642
2.777988
2.898517
2.746095
1.466027
1.162524
0.9448262
2.66349
1.324397
0.9295165
0.745736
2.715985
2.72736
2.973806
2.737288
2.889815
2.717785
3.171321
2.063626
3.170703
2.683967
2.686618
2.889122
2.698399
2.947491
2.657706
3.199905
3.194432
3.202602
2.632444
2.602054
2.774814
2.629558
2.976152
2.609471
3.109271
3.187694
3.118515
2.527969
2.520055
2.673823
2.541581
2.804055
2.527926
2.96253
3.075902
2.971956
2.415009
2.423254
2.543796
2.439934
2.611152
2.428796
2.764939
2.927356
2.771248
2.288156
2.311184
2.416656
2.318278
2.45277
2.3132
2.465842
2.708983
2.474343
2.153553
2.172491
2.281537
2.186178
2.299228
2.178111
1.880416
2.360983
1.829397
2.005507
2.031147
2.135718
2.043119
2.147727
2.037942
-2.371168
-3.721639
1.5834
-2.642956
-2.61316
-2.551947
-2.085846
1.860956
1.987337
1.89171
2.809408
2.929357
2.885023
2.836182
3.08386
2.882314
1.372979
0.9095487
0.7490834
2.69853
1.333002
0.9037331
0.7417278
3.155501
2.070968
3.144511
-2.716674
-2.433867
1.487555
-2.821005
-2.39855
2.835379
2.95571
2.912623
2.838836
3.094988
2.88949
1.339017
0.9114031
0.7323919
2.697289
1.333035
0.9103932
0.7258491
3.151336
2.062956
3.162932
-2.820203
-2.398666
1.431598
-2.882916
-2.417223
2.839286
2.960372
2.87713
2.839834
3.061193
2.881862
1.32873
0.9120707
0.7257985
2.695716
1.32971
0.9107425
0.7250841
3.161464
2.059783
3.163601
-2.885254
-2.357731
1.410547
-2.908763
-2.395482
2.839237
3.038365
2.902034
2.840439
3.030331
2.872943
1.329045
0.9122386
0.7250661
2.697324
1.331625
0.9143416
0.726601
3.164582
2.061674
3.16815
-2.90901
-2.360102
1.402266
-2.917265
-2.351164
2.846771
3.151052
2.890863
2.846205
3.075534
2.907061
1.333702
0.9177461
0.7285012
2.701905
1.333562
0.9211247
0.7310954
3.166733
2.066104
3.166173
-2.917343
-2.340664
1.408026
-2.90895
-2.3592
2.857577
3.17004
2.929903
2.84336
2.973501
2.886358
1.335872
0.919542
0.733197
2.702159
1.338748
0.9231152
0.7368191
3.167554
2.071672
3.16752
-2.908525
-2.383729
1.43914
-2.878012
-2.346618
2.864051
3.135028
2.929807
2.838286
2.962714
2.921379
3.171187
2.086476
3.16297
-2.876571
-2.389999
1.431606
-2.726596
-2.444362
2.83658
3.106323
2.865721
2.799104
2.899567
2.839498
3.156451
2.076013
3.169799
-2.733248
-2.435778
1.574074
-2.628513
-2.487364
2.834162
2.858026
2.889412
2.874978
2.791617
2.70568
2.855767
2.690736
2.836362
2.748221
2.749832
2.81271
2.715187
2.807795
2.806502
2.729362
2.81903
2.760098
2.702577
2.826163
2.778511
2.735443
2.802526
2.720969
2.82763
2.743162
2.701386
2.781188
2.69809
2.806579
2.763928
2.708161
2.755757
2.756176
2.683001
2.786166
2.721181
2.710442
2.731936
2.683906
2.759892
2.649477
2.63381
2.73385
3.084015
2.782953
2.769399
2.791394
2.74117
3.068486
2.80991
2.783804
2.780914
2.817412
3.052317
2.812953
2.809582
2.860512
2.779468
2.758536
3.101996
2.794764
3.18208
2.780455
2.868709
2.755894
2.76396
3.083225
2.857177
3.191389
2.764622
2.913554
2.805956
2.742155
2.958478
2.787781
2.940121
2.74317
3.038577
2.775584
2.774632
2.928038
2.763791
2.780927
2.828369
2.729767
2.895791
2.71104
2.817133
2.834967
2.790429
3.38338
2.78191
2.801409
2.803263
2.798211
3.186002
2.738
3.000295
2.78896
2.913621
2.742291
2.880194
3.123189
2.81101
3.156719
2.818821
2.912081
2.765978
2.8073
3.01691
2.789626
2.924877
2.815381
3.024118
2.820582
2.799891
2.899144
2.752202
2.755832
2.788068
1.34691
0.9444902
0.7692773
2.647507
1.482131
1.194449
1.033554
1.635556
1.950056
1.451682
2.731046
2.935217
2.723725
2.766394
2.751266
3.181315
2.198603
3.184318
2.735088
2.917331
2.709718
2.743733
2.753567
3.210251
3.211101
3.213172
2.68057
2.840104
2.62963
2.822541
2.648779
2.688104
2.660303
3.130794
3.210334
3.12502
2.604184
2.739591
2.535547
2.655491
2.536784
2.593394
2.559009
2.972337
3.079226
2.963711
2.500887
2.619204
2.479849
2.549156
2.42633
2.497132
2.494945
2.76499
2.933854
2.760775
2.316288
2.444814
2.281053
2.422943
2.24887
2.340593
2.280377
2.480324
2.723859
2.469291
2.179901
2.225795
2.159017
2.262236
2.148114
2.165008
1.872725
2.383949
1.871007
1.99859
2.130278
1.99146
2.000672
2.023339
-2.572996
-2.784535
1.74053
-2.582524
-3.786724
-2.271219
-2.555103
1.871021
1.857582
2.833278
2.821269
2.916301
2.793842
2.879268
2.86032
2.946134
2.744638
2.951381
2.871029
2.942652
2.732668
2.951996
2.867703
2.940776
2.738293
2.951937
2.865926
2.933634
2.752274
2.944706
2.850756
2.935107
2.76166
2.94245
2.857005
2.97793
2.789061
2.92778
2.766916
2.978399
2.788537
2.89545
2.77039
2.911033
2.77769
2.907901
2.852926
2.927136
2.773303
2.91548
2.864524
2.941574
2.78909
2.90025
2.823239
2.934558
2.754845
2.94022
2.875932
2.911915
2.740867
2.920912
2.816253
2.696737
2.768798
2.245627
2.78541
2.657742
2.644266
2.432896
1.447092
1.92457
1.621678
2.858951
2.710146
2.887193
2.748617
2.821202
3.109026
3.148278
2.95515
2.868986
3.079213
3.144079
2.965582
2.124745
2.851923
2.82535
2.74528
2.826446
2.689137
3.204215
3.150323
3.198775
3.120606
3.205862
3.144506
3.214105
3.216238
3.190914
3.215942
2.72501
2.701971
2.735685
2.682942
3.176272
3.073288
3.112604
3.109389
3.161275
3.080129
3.127924
3.159268
3.186665
3.163169
2.65489
2.604469
2.642204
2.623962
3.068554
2.941514
2.985748
3.020035
3.05274
2.941079
2.994843
3.039333
3.075115
3.053292
2.525758
2.492098
2.555187
2.508652
2.914888
2.751728
2.801895
2.868891
2.896226
2.742997
2.813255
2.871967
2.922203
2.900248
2.401223
2.357655
2.430867
2.386695
2.69587
2.4723
2.515705
2.652081
2.672966
2.456475
2.545151
2.632701
2.705379
2.669494
2.264786
2.221802
2.291546
2.25288
2.358542
2.052061
1.991269
2.326682
2.307158
2.007644
2.089084
2.245724
2.374968
2.276752
2.116213
2.074475
2.142599
2.104993
1.692721
1.335804
0.08872334
1.771645
1.56505
1.170455
0.103368
1.100404
1.635399
0.9577425
1.96996
1.926145
1.994253
1.957066
-3.732106
-0.6370261
-2.736488
-1.753685
2.845254
2.789524
2.68294
2.6454
2.366182
2.801108
2.676992
2.616296
2.373059
2.864644
3.085675
3.141605
2.984446
2.851508
3.087711
3.147595
2.877494
2.073735
2.878902
1.464946
1.196896
0.05346614
1.759778
1.441389
1.171934
-0.02417939
-2.053543
-2.043605
-2.678199
-0.6394779
-2.682748
2.84909
2.801983
2.679599
2.619336
2.359475
2.793232
2.689657
2.609972
2.355118
2.855264
3.080763
3.13387
2.980476
2.86155
3.063069
3.149745
2.873525
2.071106
2.873464
1.681634
2.275517
1.655936
1.372169
1.174033
-0.02549565
1.730694
1.36557
1.138781
-0.05826234
-2.019644
-2.02285
-2.684535
-0.6501181
-2.696997
2.833351
2.796951
2.691769
2.613104
2.349966
2.796313
2.693878
2.615645
2.347923
2.865203
3.063117
3.152869
2.984328
2.867751
3.064525
3.157091
2.866541
2.061807
2.865345
1.339017
1.141541
-0.06464965
1.72525
1.340252
1.134614
-0.07791537
-2.017095
-2.016433
-2.700962
-0.6565672
-2.703468
2.845836
2.810012
2.695439
2.618098
2.34835
2.79568
2.697094
2.616126
2.348749
2.868656
3.064125
3.160289
2.982424
2.871106
3.060901
3.161643
2.865982
2.061276
2.86615
1.6342
2.227472
1.627805
1.331425
1.132126
-0.07978292
1.718923
1.325604
1.127607
-0.08364772
-2.020073
-2.001981
-2.707485
-0.6585408
-2.709084
2.851525
2.813566
2.874572
3.065702
3.164791
2.991502
2.875427
3.069127
3.16492
2.869037
2.064639
2.869425
1.329591
1.127365
-0.08357168
1.724961
1.332204
1.133758
-0.07659348
-2.011778
-2.018749
-2.708168
-0.6572097
-2.709799
2.833302
2.848737
2.872525
3.062628
3.160461
2.986365
2.871451
3.062026
3.156513
2.868565
2.067251
2.869441
1.639009
2.243639
1.652026
1.350315
1.134243
-0.07391123
1.733534
1.369428
1.147061
-0.04983873
-2.011989
-2.008197
-2.702785
-0.6516498
-2.700935
2.820206
2.861533
1.34547
0.9229862
0.7393926
2.707459
1.353798
0.9263307
0.7485116
2.871058
3.069023
3.160313
3.000027
2.867247
3.08669
3.145644
2.875808
2.078117
2.878538
1.419056
1.140817
-0.04558859
1.763334
1.534757
1.19645
0.02118561
-2.004375
-2.047057
-2.693261
-0.6514032
-2.651725
2.791719
2.837812
1.345763
0.9196481
0.759003
2.708793
1.390519
0.9267944
0.7650753
2.86341
3.096475
3.161038
2.991694
2.880215
3.095691
3.156359
2.889392
2.087296
2.88926
1.573539
1.195191
0.01972087
1.779523
1.5881
1.221145
0.07562217
-2.008156
-2.094732
-2.651344
-0.6181982
-2.689861
2.759515
2.812119
2.700673
2.663164
2.732816
2.6577
2.77297
2.879957
3.089393
3.15594
2.997971
2.870324
3.11915
3.183826
2.881588
2.118198
2.888843
3.059055
2.944359
2.999641
3.015876
3.051252
2.946391
2.982597
2.896763
2.743894
2.818097
2.854864
2.911686
2.754642
2.806924
2.669748
2.463616
2.554138
2.639201
2.68612
2.480905
2.522304
2.313974
2.018512
2.092715
2.335116
2.386823
2.071946
2.023613
1.598947
1.18271
0.1124215
1.836744
1.734082
1.363518
0.282526
-2.842504
-0.6700856
-3.73803
-2.29445
2.834503
2.859915
2.890415
2.823494
2.775538
2.83101
2.923231
2.899442
2.944422
2.763699
2.944548
2.909366
2.94784
2.734884
2.943402
2.900852
2.941465
2.727803
2.936848
2.904224
2.944555
2.739449
2.918986
2.899312
2.945702
2.746927
2.897085
2.883847
2.951118
2.757995
2.852615
2.76523
2.996547
2.794052
2.867955
2.84945
2.9349
2.789177
2.911794
2.873586
2.911371
2.773741
2.891645
2.829564
2.941286
2.776925
2.87208
2.890914
2.952498
2.764292
2.909636
2.883164
2.923008
2.733566
2.88913
2.853717
2.890625
2.712978
1.329291
2.311685
-1.222755
1.073924
2.198333
-1.688402
1.493866
0.3066283
1.211479
-0.8369656
0.7840911
1.037608
-0.1668446
0.8346564
2.844424
2.710488
2.864668
2.742261
3.033738
3.152521
3.044126
2.099013
2.872702
2.876031
2.779091
2.705124
2.765247
2.723326
3.211183
3.202625