/*--------------------------------*- C++ -*----------------------------------*\
  =========                 |
  \\      /  F ield         | OpenFOAM: The Open Source CFD Toolbox
   \\    /   O peration     | Website:  https://openfoam.org
    \\  /    A nd           | Version:  7
     \\/     M anipulation  |
\*---------------------------------------------------------------------------*/
FoamFile
{
    version     2.0;
    format      ascii;
    class       surfaceScalarField;
    location    "0.07";
    object      phi;
}
// * * * * * * * * * * * * * * * * * * * * * * * * * * * * * * * * * * * * * //

dimensions      [0 3 -1 0 0 0 0];

internalField   nonuniform List<scalar> 
233911
(
-0.001660786
0.001771888
-0.000148248
3.714632e-05
-0.001869633
0.001891523
-1.421322e-05
-7.676536e-06
-0.001881372
0.00191856
-2.630186e-05
-1.088661e-05
-0.001902137
0.001934911
-2.472522e-05
-8.048761e-06
-0.001922592
0.00195556
-1.944722e-05
-1.352041e-05
-0.001933522
0.001965194
-2.015056e-05
-1.15216e-05
-0.001946068
0.001978405
-2.009335e-05
-1.224366e-05
-0.001958574
0.001991523
-2.063373e-05
-1.231593e-05
-0.001973505
0.002007786
-2.148262e-05
-1.279861e-05
0.03731634
0.0006014964
0.001216808
-0.0007879033
0.001326759
-0.0003944944
-0.0002397157
-0.008866877
-0.009455028
-0.01026026
-0.01045713
0.03641899
-0.001100671
0.0008187976
-0.001177006
0.001587588
0.0002452692
0.0005233781
0.03660234
-0.0004266636
-0.0001293964
-0.001238089
0.00142777
0.0001146304
6.839425e-05
0.03690176
-0.0006856202
-8.713344e-05
-0.001260824
0.001476639
0.000112251
0.0001452678
0.03722465
-0.0005045877
-6.100394e-05
-0.001303977
0.001439501
5.16949e-05
5.548714e-05
0.03751266
-0.0005669759
-3.661093e-05
-0.001302511
0.001467991
6.700929e-05
8.309393e-05
0.03780787
-0.0005849581
-2.16986e-05
-0.00130665
0.001474571
6.57011e-05
7.782731e-05
0.03813738
-0.0006721689
-2.927851e-05
-0.001303876
0.001498517
8.074444e-05
9.655511e-05
-0.0007961238
-2.920551e-05
-0.001298871
9.875015e-05
0.03852358
0.001524005
0.0001152479
0.03808629
-3.914505e-05
0.002947311
-0.009575313
-0.009595225
-0.01062044
-0.01060199
0.03670867
-0.001234715
0.001511671
0.03656744
-0.0007787719
0.0004933303
0.03673158
-0.0009211104
7.135819e-05
0.03695631
-0.0008099023
8.058118e-05
0.03724649
-0.0008625283
5.37726e-06
0.03751475
-0.0008559957
2.780685e-06
0.03778897
-0.0009403167
-6.073048e-06
-0.00107803
-1.09637e-05
0.03808184
0.03826316
-0.0005389466
0.003248325
-0.009642268
-0.009708136
-0.01087239
-0.01078889
0.03696318
-0.001444053
0.001509318
0.03650767
-0.001088507
0.0007652501
0.03668177
-0.001187142
9.192426e-05
0.03686778
-0.001094927
9.902183e-05
0.03708892
-0.001098382
1.471819e-05
0.03729114
-0.001072579
1.435505e-05
0.03746992
-0.001115426
-3.664609e-06
-0.001212542
3.915882e-07
0.03760404
0.03821972
-0.001094779
0.003733018
-0.009692158
-0.009763655
-0.01101631
-0.01092478
0.03684873
-0.001655146
0.001582076
0.03620568
-0.001424843
0.000979385
0.03640847
-0.001463816
7.38867e-05
0.03658454
-0.001406696
0.0001356998
0.0368633
-0.001376055
-1.082869e-06
0.03706
-0.001285061
1.578573e-05
0.03717383
-0.00121938
-9.876624e-06
-0.001187592
-1.059524e-06
0.03714993
0.03817107
-0.001541947
0.003959977
-0.009762995
-0.009793064
-0.011122
-0.01100583
0.03690006
-0.001915989
0.001531853
0.03621156
-0.00174739
0.001011048
0.0364527
-0.001782025
7.706637e-05
0.03663455
-0.001720749
0.0001322098
0.03689685
-0.001643336
4.978946e-06
0.03708207
-0.001485572
1.528651e-05
0.03711402
-0.001251701
3.746887e-07
-0.001000116
5.511437e-06
0.03692103
0.03809904
-0.001871559
0.004054528
-0.009753265
-0.009810627
-0.01118817
-0.0110719
0.03688087
-0.00218089
0.001483065
0.03614186
-0.002072468
0.001064089
0.03640316
-0.002135904
9.258039e-05
0.03664672
-0.002076799
0.0001124889
0.03700053
-0.001979593
-1.755246e-05
0.03724354
-0.001743007
1.442975e-05
0.03731661
-0.001334837
1.006733e-05
-0.0007589967
5.138837e-06
0.03707035
0.03820312
-0.002212273
0.004163991
-0.009772115
-0.009866432
-0.01125555
-0.01113231
0.03689992
-0.002438931
0.001561239
0.03614143
-0.002384935
0.001070964
0.03643735
-0.002550434
0.0001186045
0.0367951
-0.002535828
0.0001012886
0.03727956
-0.002444408
-1.964945e-05
0.03767393
-0.002153238
1.58638e-05
0.03784179
-0.001510201
7.50038e-06
-0.0005415041
-4.370326e-06
0.03762867
0.03824593
-0.002483234
0.004175183
-0.0098045
-0.009876698
-0.01128701
-0.01118194
0.03699146
-0.002495856
0.001311393
0.03619243
-0.00265189
0.001065984
0.03648967
-0.002996196
0.0001485238
0.03693715
-0.003102827
0.0001195159
0.03764525
-0.003138151
-1.435002e-05
0.03835037
-0.002885719
2.735823e-05
0.03878152
-0.001960292
1.894172e-05
-0.0004733973
-4.046901e-08
0.03871346
0.03791596
-0.002522049
0.004017575
-0.00977113
-0.009773998
-0.0112165
-0.01113309
0.03675398
-0.00262551
0.001291625
0.03597816
-0.00291273
0.001036669
0.03637303
-0.003538719
0.0001476546
0.037024
-0.003864019
0.0001102169
0.03809548
-0.004197987
-1.163853e-05
0.03933092
-0.004134698
1.35398e-05
0.04016642
-0.002805271
9.47311e-06
-0.0006745309
-3.140409e-05
0.04039896
0.03784568
-0.002413801
0.003954087
-0.009703294
-0.009854416
-0.01123554
-0.01111477
0.03653543
-0.002566703
0.001251442
0.03565548
-0.003107948
0.001075169
0.03606139
-0.004095451
0.0001508274
0.03691402
-0.004808911
9.226641e-05
0.03856129
-0.005798902
-4.635834e-05
0.04071989
-0.006347815
5.451943e-05
0.04231343
-0.004405023
6.208294e-06
-0.001082219
6.371362e-06
0.04271475
0.03751644
-0.00206616
0.003841972
-0.009681654
-0.00981127
-0.01117202
-0.01104111
0.03597619
-0.00245847
0.001432015
0.03497455
-0.003155734
0.001049425
0.03533986
-0.004585159
0.0001244004
0.03631808
-0.005807042
1.991312e-05
0.03881992
-0.008108409
-0.0001923275
0.04254717
-0.00981906
-0.0002560062
0.04490697
-0.006780434
1.560995e-05
-0.001772842
-0.0001111795
0.04570877
0.03695805
-0.001437385
0.003942648
-0.009672188
-0.009702507
-0.01112257
-0.01103222
0.0351335
-0.001889705
0.001255783
0.03380989
-0.002860713
0.001028598
0.03407915
-0.004900422
4.600138e-05
0.03526452
-0.006911211
-8.119647e-05
0.03846394
-0.01063155
-0.0006762739
0.04501963
-0.00471516
-0.0001159717
-0.002329136
-0.004939983
-0.004274505
0.05030009
-0.005637686
5.934185e-05
0.0004948828
-0.005243656
-0.001733768
-0.002392311
0.0005285611
-0.0009146424
0.05000767
0.001433871
-0.0001358988
0.03638658
-0.0004511857
0.003919205
-0.009640049
-0.009693544
-0.01102117
-0.01093723
0.03413905
-0.000874384
0.001232205
0.03223636
-0.00198842
0.0010304
0.03156839
-0.004227637
-4.806963e-06
0.03243148
-0.007471883
-0.0003024156
0.009075471
-0.01280345
-0.001447791
0.007401315
0.009977403
0.009596974
0.009466125
-0.00479708
-0.0003087336
0.01478016
-9.497643e-05
-0.01289791
-0.00198093
-0.002249706
-0.002244259
-0.0009500659
-0.0163432
-0.0001123716
-0.0004480595
0.0001943572
0.0002184696
0.000512502
0.01358599
0.03577355
0.0009314481
0.003822023
-0.009691886
-0.00952821
-0.01090456
-0.01085356
0.0328437
0.0007308928
0.001324569
0.03030613
-0.0003528131
0.000901968
0.02821974
-0.002128883
-1.236331e-05
0.02596201
-0.005037208
-0.0001769419
0.006898325
-0.009567735
-0.001731786
0.00438851
0.007497163
0.005674085
0.005929234
-0.004737135
-0.0005482656
0.001623416
0.001712702
0.001859943
0.001058431
0.0009781162
-0.0003940968
0.000217563
-0.0007714035
-3.017903e-05
0.03499915
0.002868797
0.003451104
-0.009504211
-0.009387743
-0.01076684
-0.01072882
0.03163713
0.002884093
0.001208819
0.02843632
0.00195813
0.0008898674
0.02543136
0.0009125537
-3.647029e-05
0.02124087
-0.0005428062
-0.0003039127
0.004365677
-0.003124959
-0.001474759
0.003266691
0.004611776
0.004028712
0.003986825
-0.002451484
-0.0002668302
0.0008030974
0.000843907
0.0009077113
0.0005424515
0.0003753481
-0.0001203254
3.965283e-05
-0.0002922873
-2.388163e-06
0.03429649
0.005242567
0.003061317
-0.009535288
-0.009222108
-0.01053939
-0.0104348
0.03071046
0.005357227
0.001112892
0.02703103
0.00492453
0.0007130343
0.02329226
0.004692078
-4.075597e-05
0.01862674
0.004360557
-0.0002378401
0.003149549
0.003540449
-0.001200273
0.003050589
0.003551715
0.003409756
0.001484385
-0.0003119281
-0.0001296234
0.0005720921
0.0005082191
0.0005973199
0.0004290861
0.0001370361
-6.319762e-05
2.324278e-05
-9.401208e-05
-3.069187e-06
0.03369682
0.007502874
0.003255316
-0.009462325
-0.008970946
-0.01042645
-0.01035272
0.03012233
0.007849537
0.001082179
0.02642527
0.008067123
0.000554464
0.02246889
0.008702882
-5.441869e-05
0.01774427
0.009480112
-0.0003949356
0.002441524
0.0103031
-0.0009975084
0.003184347
0.003061623
0.00329164
-0.0008093182
0.001664997
-6.526104e-05
0.0004655957
0.0003239111
0.0004430842
0.0004185159
-4.898893e-05
-1.969411e-05
1.08172e-05
5.365054e-05
4.215313e-06
0.03362352
0.009669443
0.003273579
-0.009499359
-0.008815274
-0.01043774
-0.0103113
0.0303152
0.01018798
0.000969874
0.02691318
0.01108223
0.0003869161
0.02316543
0.01254336
-9.273431e-05
0.01847994
0.01455645
-0.0003908467
0.002231789
0.01717864
-0.001036707
0.003681842
0.003122611
0.00360486
-0.002984203
0.0036462
-5.833842e-05
0.0004576049
0.0002537194
0.0004319507
0.0004848566
-0.0002096437
-1.64008e-06
1.314394e-05
0.0001951809
2.958878e-06
0.03396866
0.01143404
0.003535428
-0.009595204
-0.008778492
-0.01052961
-0.01036538
0.03107186
0.0120703
0.001014478
0.02825147
0.01358827
0.0003143564
0.02503839
0.01586653
-0.0001100872
0.02090366
0.01930206
-0.0006108757
0.002419793
0.02414659
-0.0011127
0.004602631
0.003667077
0.004358913
-0.005250254
0.00579604
-9.31136e-05
0.0005536744
0.0002515216
0.0005274386
0.0006344857
-0.0003692745
2.958285e-06
2.159472e-05
0.0003465979
-1.876322e-06
0.03493189
0.01263852
0.003432155
-0.009701014
-0.00879671
-0.01063727
-0.01043353
0.03268315
0.01333426
0.000984776
0.03060948
0.01529107
0.0003708567
0.02831632
0.0182731
-0.0001134104
0.02524873
0.02284492
-0.0004752663
0.003299685
0.03009785
-0.00175681
0.006538932
0.005015559
0.006200101
-0.00780567
0.008336965
-0.0002907595
0.0008687213
0.000390454
0.000810426
0.0009895481
-0.000564353
4.135351e-06
3.086869e-05
0.0005321385
-2.789377e-06
0.03615126
0.003423755
-0.009857635
-0.00889066
-0.01078196
-0.01055332
0.01314707
0.03474588
0.001002684
0.01373696
0.03389066
0.0004033081
0.01574298
0.03336205
-3.620429e-05
0.01883792
0.033444
-0.0005373628
0.02330034
0.005726626
-0.002033285
0.01025718
0.008218685
0.01078322
0.03058942
-0.01060146
0.01047223
-0.0004257584
0.00185084
0.0009176111
0.001630133
0.001883033
-0.0008925292
-2.671187e-05
6.159345e-05
0.0008504899
7.157255e-06
-0.01119631
-0.0005291786
0.00255097
0.003588199
0.003627072
0.003341712
-0.0101041
0.008721627
-0.001180097
-0.004353927
0.005787798
6.996337e-05
0.004170965
-0.001367537
-0.001322005
-0.001805164
0.0001584564
-0.004228825
0.004137825
-0.0003414257
-0.0005571807
0.0002484701
0.000288871
0.0002938124
0.0001106056
-0.002096003
0.008964214
0.0003958794
-0.0001682197
-0.002559234
-0.002104894
-0.002542348
0.03724793
-0.0002551324
0.0002911872
-0.0008148534
0.001390576
-0.0004080897
-0.0001518707
-0.008345955
-0.01025955
-0.008653137
-0.01004111
0.03667748
0.0001690382
0.0001673334
-0.001299512
0.001391818
-1.930088e-05
0.0001610686
0.03701989
-0.0004262778
5.55836e-05
-0.001358427
0.001389228
-2.872924e-05
2.621501e-05
0.03720379
-0.0002739049
0.0001076131
-0.001378585
0.001390705
-6.534785e-05
3.561905e-05
0.03751086
-0.0003468838
5.664327e-05
-0.001384226
0.001403686
-6.032062e-05
2.403808e-05
0.03780858
-0.0003282807
4.925983e-05
-0.00139027
0.001411523
-6.544062e-05
2.548767e-05
0.03817029
-0.000383108
3.312951e-05
-0.001396379
0.001423085
-6.272607e-05
2.42883e-05
-0.0004536531
3.244722e-05
-0.001405913
-6.773696e-05
0.03861434
0.00143258
1.823016e-05
-0.0002787545
-0.0002658465
0.009647072
-0.0003041591
-0.0001917958
0.0003007397
-0.0004170498
0.0003823622
0.0002017755
-0.0004050185
0.0002618867
0.04078982
-0.0001075894
0.0007929703
-0.0002944554
0.0003871881
-0.00032932
0.0004590046
-0.01000196
-0.01033838
-0.01033786
-0.009802614
0.04264816
-0.001448338
0.0001536602
0.04289258
-0.0003873508
0.0001825738
0.04333387
-0.0008409271
-0.0001137665
0.04356531
-0.0005937635
2.740839e-05
0.04387786
-0.0006880089
-8.028845e-06
0.04420295
-0.0006897957
1.472988e-05
0.04457952
-0.00078534
-3.622962e-06
-0.0009254987
-1.173443e-05
0.0450339
-0.0004725415
9.177801e-05
0.009942927
-7.056416e-05
-0.0007121819
0.0004640866
-0.0004079003
0.0005463741
0.04287712
-0.0005268984
0.003768178
-0.01070518
-0.01087771
-0.01065035
-0.01104544
0.04346614
-0.001495313
0.00096963
0.04303445
-0.000623615
0.001161282
0.04331119
-0.001126946
8.063972e-05
0.0435032
-0.0009025571
0.0001973619
0.04375693
-0.001011204
7.484736e-05
0.04403678
-0.001006659
3.979562e-05
0.04434255
-0.001105203
8.021995e-06
-0.001256859
-1.164604e-05
0.04467459
-0.0004295925
0.0001356732
0.01015843
-0.0001126565
-0.0009998478
0.0005534563
-0.0003731098
0.0006501149
0.04196117
-0.001053373
0.005318761
-0.01105651
-0.01102798
-0.01007083
-0.01134981
0.04286644
-0.001745681
0.0008544108
0.04256783
-0.001098533
0.001538782
0.04286891
-0.001413737
7.764072e-05
0.04308321
-0.001241284
0.000223443
0.04330523
-0.001293924
7.542725e-05
0.04354682
-0.001270039
3.613877e-05
0.04375303
-0.001306018
-9.053192e-06
-0.001405409
-1.096828e-05
0.04391294
-0.0004009781
0.0001752614
0.01019251
-0.0001411379
-0.001169952
0.0005979802
-0.0003501278
0.0007025098
0.04197052
-0.001708625
0.006071108
-0.01114357
-0.01106276
-0.01001831
-0.01142872
0.04285069
-0.002013323
0.0009695464
0.04243021
-0.00157725
0.001878581
0.04266338
-0.001738708
0.0001656901
0.0428732
-0.001575981
0.000260573
0.04306418
-0.0015892
0.000103216
0.04325666
-0.001495102
4.837396e-05
0.04335323
-0.001412366
-1.054285e-07
-0.001368641
-4.377081e-06
0.04331978
-0.0003793095
0.0001698991
0.01020376
-0.0001390788
-0.001272581
0.0006272827
-0.0003340595
0.000729894
0.04201254
-0.002115888
0.006029484
-0.01117054
-0.01107974
-0.0100246
-0.0113999
0.04290815
-0.0022066
0.0008295183
0.0423597
-0.002014396
0.001996644
0.04257087
-0.00209446
0.0002216508
0.0427891
-0.001969635
0.0003076374
0.04299111
-0.00187128
8.504818e-05
0.04317718
-0.001708392
4.250501e-05
0.04322128
-0.001443617
-1.247123e-05
-0.001143949
-1.017016e-05
0.04301227
-0.0003639281
0.0001871224
0.01016822
-0.0001395025
-0.001325802
0.0006469445
-0.000322103
0.0007548166
0.04200877
-0.002529183
0.006151939
-0.01115446
-0.01109127
-0.01003668
-0.01141048
0.04287488
-0.002432293
0.0008426455
0.04232886
-0.002459748
0.002055459
0.0425208
-0.002507238
0.0003134222
0.04276259
-0.002412039
0.0003131071
0.04306124
-0.002249042
6.155355e-05
0.04333519
-0.002007349
3.944003e-05
0.04344092
-0.001531759
-7.5222e-06
-0.0008602724
-1.50079e-05
0.04317739
-0.0003580878
0.0001762586
0.01012023
-0.0001489254
-0.001284515
0.0006521111
-0.0003151649
0.0007638788
0.04197354
-0.002622716
0.005728656
-0.01108987
-0.01101856
-0.01003645
-0.01129979
0.04289032
-0.002527216
0.0007393788
0.04231725
-0.002757509
0.001941795
0.04252782
-0.002926212
0.0003270063
0.04283289
-0.002933334
0.0003175111
0.04331611
-0.002810406
5.850501e-05
0.04380525
-0.002504917
2.42893e-05
0.04403611
-0.001733446
-2.16721e-05
-0.0006227442
-3.456572e-05
0.04382877
-0.0003494368
0.0002076658
0.01006791
-0.000177831
-0.001258102
0.0006604099
-0.0003121342
0.0007673154
0.04205799
-0.00256281
0.00547444
-0.01103691
-0.01100822
-0.01005798
-0.01131404
0.04271713
-0.002827571
0.0009525989
0.04216058
-0.003056418
0.001921445
0.04249446
-0.003430252
0.0003186898
0.0429775
-0.003605746
0.0003088851
0.04373639
-0.003630619
4.69718e-05
0.04456337
-0.003330918
2.637619e-05
0.04514142
-0.00227003
-2.252249e-05
-0.0005564614
-4.476355e-05
0.04511986
-0.0003466125
0.0002282425
0.01005609
-0.0002028169
-0.001230331
0.0006584313
-0.0003155382
0.000758337
0.04184978
-0.002554453
0.005524971
-0.01102195
-0.01100018
-0.01005905
-0.01128435
0.04243418
-0.00312631
0.001005958
0.04188639
-0.003371906
0.001899955
0.04231786
-0.004022824
0.0003087511
0.04301615
-0.004482621
0.0002888019
0.0442318
-0.004864653
6.747529e-06
0.04572265
-0.004791288
-1.694046e-05
0.04679608
-0.003275971
-5.801792e-05
-0.000856722
-9.34116e-05
0.04715835
-0.0003450638
0.0002583761
0.01003777
-0.0002054278
-0.001245428
0.0006613608
-0.000316013
0.0007602315
0.04155288
-0.002546488
0.005844144
-0.01100631
-0.01102613
-0.01005886
-0.01135961
0.04202313
-0.00322341
0.000878295
0.04140698
-0.003641147
0.001960561
0.04197404
-0.004654634
0.0002155758
0.04298968
-0.00564634
0.000240353
0.04481692
-0.006667772
-7.047784e-05
0.04731146
-0.007194898
-3.641741e-05
0.04936403
-0.005234812
-8.751621e-05
-0.001410639
-6.444621e-05
0.04998876
-0.000345371
0.00025666
0.01005814
-0.0001943022
-0.001271367
0.0006609715
-0.0003199872
0.0007610643
0.04109824
-0.002168619
0.005699134
-0.01097766
-0.0109892
-0.01002746
-0.01133896
0.0414666
-0.002882783
0.000723025
0.04058751
-0.00370916
0.001996534
0.0411666
-0.005261772
0.0001524499
0.04242726
-0.006981104
9.402107e-05
0.04510142
-0.009307964
-0.0002262993
0.04941559
-0.01149116
-0.000273911
0.05251663
-0.008298275
-2.197058e-05
-0.002607587
-0.0001713377
0.05377374
-0.0003536916
0.0002454042
0.0100843
-0.0001517986
-0.001320023
0.0006617605
-0.000323352
0.00076321
0.04052423
-0.001585608
0.00622923
-0.01094848
-0.01102482
-0.01000289
-0.01141763
0.04052554
-0.002272442
0.000644121
0.0392791
-0.003501099
0.002066979
0.03966336
-0.005615931
1.590302e-05
0.04111542
-0.008457572
-5.678883e-05
0.04461839
-0.01286271
-0.0006244981
0.05176667
-0.005166238
6.99983e-05
-0.004426232
-0.004979808
-0.004253126
0.05826993
-0.005554804
9.043679e-05
-0.001989489
-0.005342632
-0.001945706
-0.0009756161
0.0003150294
-0.001014334
0.05825139
-0.0002969124
-8.864902e-05
-0.0003836104
0.0001658631
0.01015795
-3.426678e-05
-0.001294721
0.0006342082
-0.0003448994
0.0007052886
0.03969738
-0.0004204256
0.006232961
-0.01093591
-0.01098133
-0.01002296
-0.01123612
0.03916261
-0.001291344
0.0007858763
0.03727866
-0.002646056
0.002059308
0.03689176
-0.005043046
-0.0001907898
0.03737228
-0.008883608
-0.0003568938
0.01009544
-0.01465868
-0.001158652
0.009634305
0.009752879
0.009396481
0.0001891014
0.01083099
-0.005961723
-0.0001291663
3.475478e-05
0.01642519
-2.049614e-05
-0.01269595
-0.002135573
-0.002538178
-0.00214873
-0.002475811
-0.01650549
7.767901e-05
0.0001484419
-6.144966e-05
0.01536521
-0.0004043264
-2.16161e-05
0.01011919
0.0001782104
-0.001123927
0.0005802148
-0.0003688685
0.0006469336
0.03873554
0.001430535
0.005739614
-0.0108287
-0.0107614
-0.00976
-0.011154
0.03769577
0.0006139431
0.0004590518
0.0344953
-0.0006265902
0.002082972
0.03209834
-0.00263699
-2.145714e-05
0.0293872
-0.005941332
-0.0004080797
0.007277366
-0.01069794
-0.001221088
0.005412885
0.00705196
0.005173555
0.0003143764
0.006555974
-0.005847524
-0.0001577106
0.001463972
0.001750492
0.001509235
0.001688553
-2.243691e-06
0.0009346776
-0.0004806256
0.0004678392
-0.0009215808
1.932585e-06
-0.0003901928
-0.0002731082
0.0100808
0.0003660856
-0.0008983952
0.000580021
-0.0004052767
0.0005458797
0.03814807
0.003287299
0.006501153
-0.01087082
-0.01073099
-0.01063653
-0.01081655
0.03623143
0.003247868
0.0004915395
0.03225166
0.002169769
0.002073269
0.0286845
0.00105844
-0.0001647319
0.02392495
-0.0008385548
-0.0006471421
0.004493845
-0.003635617
-0.001214949
0.003938752
0.004308012
0.003862211
0.0001241883
0.004245774
0.002928605
-0.002762894
-4.182766e-05
0.000313334
0.00153904
-0.002625274
3.013715e-05
-0.0007994602
-0.0001469678
0.00168919
-0.0004111835
-0.0004677021
0.009881741
0.0005515379
-0.0003583792
0.0004567079
-0.0004228999
0.0003759921
0.03777097
0.005596885
0.005198573
-0.01068579
-0.01053638
-0.01098332
-0.01001232
0.035454
0.006089041
0.0005886912
0.03104182
0.005619714
0.00167527
0.0267944
0.005471183
-0.0002060792
0.02115066
0.004936589
-0.0003692436
0.00346085
0.003958664
-0.001118947
0.00328874
0.003439647
0.003285814
4.688363e-05
0.00153219
0.002170675
-0.0003572604
6.836185e-05
-1.291751e-06
0.001495567
-0.000881971
-0.0004719084
-5.323111e-05
-8.716533e-05
-0.0004429301
-0.0006975592
0.009814346
0.0008007411
-9.639982e-06
0.0003476339
-0.0004484368
0.0002416588
0.03764753
0.00828339
0.004915099
-0.01062664
-0.01045611
-0.01063091
-0.01028015
0.03523482
0.009037818
0.0005461088
0.03069025
0.009305195
0.001413553
0.02617513
0.01014586
-0.0002139719
0.02009042
0.01112858
-0.000502214
0.002897526
0.012034
-0.0008204118
0.003108539
0.002845574
0.002986353
-1.77215e-05
-0.0008195099
0.001631097
0.001937066
0.0001665949
-8.678812e-05
-0.0004134217
-0.0005737832
0.001086322
-1.384675e-06
-1.094429e-05
-0.0004780198
-0.0009279889
0.009735968
0.0009827684
0.0003256766
0.0002683576
-0.0004732024
0.0001722489
0.03825551
0.0108513
0.004204749
-0.01054263
-0.01033414
-0.01055675
-0.01032107
0.03583221
0.01180896
0.0006220389
0.03140814
0.01285309
0.001263083
0.02703984
0.01465201
-0.0002305833
0.02109215
0.01712405
-0.0004386287
0.003046693
0.02003493
-0.0006562144
0.003528301
0.002943183
0.003192555
-5.471051e-05
-0.003128761
0.001761246
0.004199804
0.0002691153
-0.0001489019
-0.00180049
-0.000669801
0.00258201
9.623169e-06
2.755945e-05
-0.0004873501
-0.001104658
0.0097187
0.001144224
0.0004056127
0.0002471833
-0.0004765684
0.0001586651
0.03889286
0.01294315
0.004190603
-0.01050856
-0.01033432
-0.010518
-0.01027902
0.03702488
0.01411485
0.0005765666
0.03312677
0.01584794
0.00121762
0.02932363
0.01854652
-0.000201448
0.02401475
0.02256497
-0.0007429187
0.003699787
0.02779029
-0.000469033
0.004349048
0.003451461
0.004115432
-7.798892e-05
-0.00537765
0.002394656
0.0063978
0.0003629717
-0.0001921118
-0.00356083
-0.001115902
0.004779254
8.889149e-07
8.870131e-05
-0.0004941463
-0.001255551
0.009722873
0.001268148
0.0004646371
0.0002293551
-0.0004781408
0.0001486294
0.03970141
0.01439718
0.004043229
-0.01052934
-0.01036715
-0.01053263
-0.0103374
0.03867965
0.01563388
0.0004874929
0.03584497
0.01785476
0.001198728
0.0331443
0.02138477
-0.0002509935
0.02897577
0.02674823
-0.0004899876
0.004774193
0.03533288
-0.001116531
0.005911071
0.004518471
0.005589168
0.0002110801
-0.007927963
0.002742749
0.009923494
-0.0001751656
-0.0002240704
0.0002255176
-0.006269905
-0.0003549604
0.0006434982
0.002858729
0.003121192
-0.0004966076
-0.001329005
0.009765201
0.001319219
0.000459245
0.000223071
-0.0004784999
0.0001431781
0.04099437
0.004275164
-0.01067317
-0.01050369
-0.01065193
-0.01046253
0.0148427
0.04104901
0.0004736258
0.0161083
0.03968313
0.001247346
0.01837661
0.03918265
-0.0001249048
0.02197396
0.03849547
-0.0004913443
0.02738938
0.008076832
-0.001156268
0.01066996
0.007801149
0.01047733
0.03592606
0.0003047884
0.006749551
0.01288491
-6.722839e-05
-0.01179519
-8.716636e-05
-0.0006699732
-0.003296595
0.003943837
0.0001098971
-0.000496542
-0.001361639
0.009804535
0.000470659
0.0002223028
-0.0004783272
0.0001438157
0.001301
-0.01229419
0.0003015553
0.01452641
-0.0001105097
-0.01347817
0.0110549
-0.001211215
-0.0001253321
-0.004978821
0.005971466
0.0001017306
0.004659331
-0.001617122
-0.001194212
-0.001605826
0.002133033
0.0004076853
-0.005117116
-0.000292201
-0.001542304
0.0003167096
-0.001804437
-0.005110148
-0.006038332
-0.005885652
0.002633739
0.02029904
-0.002101305
2.083035e-06
0.008930872
0.0004347126
-1.119212e-05
-0.002576462
-0.002117212
-0.002561497
0.03754255
0.000187093
0.0001763422
-0.008716344
-0.0101109
-0.008753041
-0.01003452
0.03645901
0.000975385
0.0002754922
0.03677342
-0.0002620986
3.264404e-06
0.03697928
-0.000162482
6.424139e-05
0.03729414
-0.0002956631
3.74434e-05
0.03760248
-0.0002910313
3.194891e-05
0.03796788
-0.0003512641
1.899637e-05
-0.0004277188
1.584353e-05
0.0384122
-0.0005053158
-5.437195e-05
0.01015709
-0.0003576017
1.101796e-05
0.0003054605
-0.0004804514
0.0003177433
0.04060405
0.003059176
0.0006909607
-0.0007043665
-6.504381e-05
-0.0007274711
-3.795533e-05
-0.01058904
-0.01077337
-0.01069441
-0.009969572
0.04250013
-0.001339502
-0.0002158197
0.04271954
0.0006345848
0.0003039574
0.04309629
-0.0007039366
-4.867432e-05
0.04332936
-0.0004247575
5.660971e-05
0.04359666
-0.0005700604
-9.290784e-07
0.04391719
-0.0006149458
1.81154e-05
0.04429805
-0.0007388697
3.119507e-06
-0.0008927901
-2.329261e-06
0.04475372
0.03876937
-0.002834775
-0.002466911
-0.0004798358
0.001068895
-0.001203444
0.001276358
-0.0003903467
0.001659423
-0.001062192
0.001238972
0.04109174
0.001804047
0.002700936
0.04177083
-0.0014929
0.0004439286
0.04248071
4.004509e-05
0.001045947
0.04279948
-0.001051905
0.0001098391
0.04326422
-0.0008449395
0.0001528072
0.04367319
-0.0009500431
4.586244e-05
0.04404221
-0.0009647185
2.054129e-05
0.04440276
-0.001089267
-2.123139e-06
-0.001251388
-1.411282e-05
0.04476382
0.03960479
-0.002035332
-0.004618127
-0.001044823
0.001403438
-0.00116417
0.001571844
0.0408098
0.000175631
0.005742161
0.04164121
-0.002040771
0.0005708743
0.04247622
-0.0007614937
0.001505311
0.04272067
-0.001392644
0.0001739329
0.04316206
-0.001237166
0.0001742729
0.04353674
-0.0012779
2.860574e-05
0.04385328
-0.001241973
-3.138588e-06
0.04409283
-0.001303585
-3.428322e-05
-0.001416891
-2.633432e-05
0.0442737
0.04112936
-0.001491793
-0.006016722
-0.001052986
0.001518244
-0.001025388
0.001834665
0.04091819
-0.0007534431
0.007211354
0.04133757
-0.002235621
0.0007450074
0.04211527
-0.001374898
0.001714293
0.04226345
-0.001685622
0.0003104838
0.04271067
-0.001623477
0.0001996697
0.04318686
-0.001664001
1.31248e-05
0.04351123
-0.001518512
5.413607e-07
0.04369444
-0.00145718
-2.972301e-05
-0.001398856
-2.495352e-05
0.04369698
0.04182473
-0.001189245
-0.006382385
-0.001106245
0.001502968
-0.001043164
0.001872259
0.04102557
-0.001212181
0.007287385
0.04141534
-0.002429416
0.0006335369
0.04221048
-0.001917639
0.001744248
0.04244388
-0.002051452
0.0003540812
0.04286312
-0.002016813
0.0002817338
0.04324363
-0.002020173
6.070792e-05
0.04353017
-0.001777969
1.541953e-05
0.0435988
-0.001503313
-3.496766e-05
-0.00118583
-3.311267e-05
0.04340872
0.04217381
-0.001043324
-0.007051543
-0.001042005
0.001620852
-0.000943282
0.002066151
0.04101079
-0.001600981
0.007703757
0.04127637
-0.002544905
0.0006925467
0.04220623
-0.002414029
0.001621991
0.04254051
-0.002432508
0.0003601964
0.04296055
-0.002443593
0.0003198508
0.04335523
-0.00241502
6.172133e-05
0.04369193
-0.00208952
1.428876e-05
0.04383216
-0.001613708
-3.735595e-05
-0.0009134987
-3.550083e-05
0.04358032
0.0426554
-0.0009814085
-0.006967175
-0.001173868
0.001481381
-0.001044873
0.00195655
0.04089245
-0.002048029
0.007938642
0.04106549
-0.002733985
0.0007554207
0.04197747
-0.002862679
0.001478458
0.04260441
-0.002933574
0.0002011367
0.0431986
-0.002980551
0.0002602765
0.04372145
-0.002949209
6.98499e-05
0.04424094
-0.002589751
5.030603e-06
0.044463
-0.00181404
-4.340066e-05
-0.0006898395
-4.987162e-05
0.04425464
0.04290893
-0.0009552078
-0.007479192
-0.001133786
0.001571891
-0.0009934991
0.002068626
0.04105698
-0.00248254
0.007760899
0.04112579
-0.002882527
0.001032325
0.04192663
-0.003173435
0.001431362
0.04260462
-0.00343194
0.0001390688
0.04337949
-0.003663257
0.0002167231
0.04411878
-0.003737316
9.578295e-05
0.04498628
-0.003430844
-3.072002e-08
0.04556664
-0.002371234
-4.568362e-05
-0.0006537179
-6.432403e-05
0.04555007
0.04281283
-0.0009030294
-0.00711876
-0.001197661
0.001506539
-0.001066464
0.001980512
0.04080009
-0.002765802
0.007820969
0.04094043
-0.003076843
0.001059931
0.04172219
-0.003458663
0.001403418
0.04250381
-0.004034693
0.000129886
0.04349208
-0.004552506
0.000189784
0.04463084
-0.004918862
4.952686e-05
0.04613437
-0.004920902
-3.040673e-05
0.04724092
-0.003457343
-7.846549e-05
-0.001040896
-0.0001027734
0.04763746
0.04211183
-0.0008687345
-0.006900999
-0.001087918
0.001658504
-0.0009647855
0.00211826
0.04030269
-0.002633754
0.007521233
0.04042811
-0.003046108
0.0007221406
0.04120328
-0.003702239
0.001428965
0.04196341
-0.004664586
8.533662e-05
0.04319824
-0.005676299
0.0001293181
0.04502562
-0.006782872
-3.384935e-05
0.0475775
-0.007427073
-8.213138e-05
0.04966932
-0.005539263
-9.741609e-05
-0.001703231
-8.467832e-05
0.05035189
0.04212276
-0.0008742167
-0.006695078
-0.001113766
0.001626304
-0.00100247
0.002036941
0.03990702
-0.002168876
0.00745
0.03990063
-0.00292976
0.00061306
0.04048144
-0.003776362
0.001489847
0.04099631
-0.005152192
0.0001251801
0.04236066
-0.006935827
-1.079385e-05
0.04518197
-0.009571832
-0.0002586492
0.04935919
-0.01166162
-0.0002165811
0.0524213
-0.008573297
-5.004997e-05
-0.003187885
-0.0001383975
0.05387301
0.04136358
-0.0005659997
-0.006832351
-0.0009661843
0.001785118
-0.0008596366
0.002170437
0.0391274
-0.001669815
0.007966339
0.03885745
-0.002454688
0.0004389984
0.03908955
-0.003485874
0.001544391
0.03945138
-0.005502177
4.053375e-06
0.0410211
-0.008400203
-0.0001621267
0.04431131
-0.01297057
-0.000515972
0.0511605
-0.005026549
-7.165537e-05
-0.004266142
-0.004881299
-0.004195169
0.05721739
-0.005330798
-2.583416e-05
-0.001962169
-0.005265839
-0.001955099
-0.001122786
0.0002061502
-0.001147629
0.05694052
-0.0003106067
-0.0002211149
0.04208433
0.0005312811
-0.008168989
-0.0009633381
0.001762411
-0.0008374594
0.00199488
0.0389893
-0.0003268235
0.007984993
0.03772828
-0.001061268
0.0006534725
0.0371703
-0.00235568
0.001487098
0.03657007
-0.004874118
-0.0002186284
0.03719028
-0.008977744
-0.0003995544
0.00995112
-0.01472626
-0.0008131852
0.00952535
0.009729107
0.009394927
0.0001258875
0.01063603
-0.005748474
-8.887001e-05
7.467441e-05
0.0160391
-2.852806e-05
-0.01238653
-0.002073756
-0.002453252
-0.002082769
-0.002419732
-0.01592289
0.0001311048
5.583075e-05
-5.660516e-05
0.01466977
0.04144518
0.001842942
-0.007599986
-0.00103511
0.001588763
-0.0007643019
0.002022881
0.03813068
0.001438077
0.007289213
0.03618704
0.001039176
0.0003022376
0.03482463
-0.0004537798
0.001543488
0.03254786
-0.002553994
-6.481662e-05
0.02956096
-0.005977465
-0.0004214562
0.007275583
-0.01064661
-0.0007526125
0.005274612
0.007200827
0.005261809
3.592023e-05
0.006352115
-0.00552595
-2.263512e-05
0.001497339
0.001727346
0.001498843
0.001712607
-2.822435e-06
0.0009248661
-0.0004795037
0.0004706256
-0.0009153364
2.170213e-06
0.03986576
0.002768183
-0.006132061
-0.0009087865