/*--------------------------------*- C++ -*----------------------------------*\
  =========                 |
  \\      /  F ield         | OpenFOAM: The Open Source CFD Toolbox
   \\    /   O peration     | Website:  https://openfoam.org
    \\  /    A nd           | Version:  7
     \\/     M anipulation  |
\*---------------------------------------------------------------------------*/
FoamFile
{
    version     2.0;
    format      ascii;
    class       volScalarField;
    location    "0.05";
    object      epsilon;
}
// * * * * * * * * * * * * * * * * * * * * * * * * * * * * * * * * * * * * * //

dimensions      [0 2 -3 0 0 0 0];

internalField   nonuniform List<scalar> 
78470
(
0.004770437
0.00474288
0.004744584
0.004748087
0.004750331
0.004752033
0.004753769
0.004755603
0.004757596
0.0009472278
0.0009726127
0.0009808465
0.0009828346
0.0009835031
0.0009837127
0.0009837512
0.0009836878
0.0009836603
0.0009662576
0.001009184
0.001023062
0.001026752
0.00102793
0.001028298
0.001028355
0.00102827
0.001028175
0.0009725415
0.001021168
0.001038279
0.001043049
0.001044641
0.001045109
0.001045171
0.00104504
0.001044903
0.0009740134
0.001024377
0.00104253
0.001047894
0.001049726
0.001050304
0.001050369
0.001050196
0.001049996
0.0009743998
0.001025345
0.001043914
0.001049507
0.00105148
0.001052095
0.001052164
0.001051952
0.001051696
0.0009745243
0.001025695
0.001044388
0.001050104
0.001052135
0.001052789
0.001052856
0.001052631
0.001052345
0.0009745826
0.001025806
0.001044553
0.001050297
0.001052349
0.001052992
0.001053054
0.001052817
0.001052517
0.0009745894
0.001025812
0.001044544
0.001050257
0.001052245
0.00105282
0.001052817
0.001052545
0.001052225
0.0009745442
0.001025718
0.001044398
0.001049972
0.001051762
0.001052033
0.001051748
0.001051289
0.001050881
0.0009744869
0.001025564
0.001044068
0.001049285
0.001050346
0.001049515
0.001048093
0.00104685
0.001046026
0.0009743984
0.0010253
0.001043527
0.001047937
0.00104619
0.001040881
0.001035656
0.001031097
0.001028562
0.0009742777
0.001024899
0.001042698
0.001045866
0.001039602
0.00101317
0.001002728
0.0009817336
0.0009785124
0.0009741401
0.001024481
0.001041727
0.001043508
0.001033029
0.001002349
0.00217971
0.002094167
0.002100838
0.000973976
0.001024037
0.001040821
0.001041374
0.001027271
0.0009801475
0.002075755
0.009890732
0.0009737685
0.001023674
0.001040043
0.001039904
0.001023777
0.0009761229
0.002052743
0.009165639
0.0009736394
0.001023425
0.001039635
0.001038955
0.001022079
0.0009738101
0.002042295
0.00880692
0.0009735642
0.001023287
0.001039513
0.001038532
0.001021205
0.0009716782
0.002037311
0.008635462
0.0009735766
0.001023457
0.001039782
0.001038953
0.001021792
0.0009725672
0.002041884
0.008885638
0.0009737061
0.00102378
0.0010404
0.001040019
0.001023647
0.0009758801
0.002051927
0.009154936
0.000973915
0.001024286
0.001041235
0.001041496
0.001025983
0.0009784025
0.002065364
0.009498483
0.0009741319
0.001024771
0.001042174
0.001043302
0.00102999
0.0009836675
0.002080572
0.01004345
0.002162917
0.005365581
0.004350844
0.002079567
0.0009794207
0.0009950951
0.001000461
0.001001635
0.001001972
0.001002087
0.001002157
0.001002213
0.01154117
0.01139085
0.01137623
0.01138597
0.01138928
0.01138941
0.01138945
0.0113895
0.01138956
0.01138966
0.01156749
0.01135654
0.01136773
0.0113855
0.01139024
0.01139071
0.01139162
0.01139172
0.01139178
0.01139186
0.01161748
0.01134935
0.01136907
0.01138077
0.01139004
0.01139026
0.01139141
0.01139159
0.01139178
0.01139183
0.01163513
0.01134098
0.01136801
0.01137759
0.01139
0.01138991
0.01139153
0.01139161
0.01139177
0.01139178
0.0116369
0.01133576
0.01136967
0.01137706
0.01138981
0.01138988
0.01139159
0.01139164
0.01139179
0.01139174
0.011643
0.01133383
0.0113704
0.01137622
0.01138987
0.01139001
0.01139172
0.01139177
0.0113919
0.01139184
0.01165011
0.01133082
0.01137079
0.01137625
0.01138991
0.01139022
0.01139191
0.01139204
0.01139218
0.01139213
0.01165481
0.01133092
0.01137136
0.01137636
0.01138996
0.01139041
0.01139222
0.01139239
0.01139272
0.01139274
0.01165424
0.01133319
0.01137143
0.01137668
0.01139013
0.01139085
0.01139276
0.01139347
0.01139385
0.0113939
0.01165289
0.01133461
0.0113719
0.01137659
0.01139055
0.01139175
0.01139382
0.01139477
0.01139606
0.0113955
0.01164863
0.01133711
0.01137212
0.01137722
0.01139124
0.01139374
0.01139602
0.01139973
0.01140098
0.01139937
0.01164303
0.01133682
0.01137238
0.01137821
0.01139276
0.01139599
0.01140181
0.01141223
0.01141684
0.01139087
0.01162841
0.01133588
0.01137402
0.0113788
0.01139471
0.01140047
0.01142155
0.01143856
0.011731
0.01129479
0.01164452
0.01133672
0.01137416
0.01138091
0.01139659
0.01140372
0.01142672
0.01158
0.01641354
0.01159647
0.01134326
0.01137482
0.01138201
0.01139691
0.01140329
0.01141885
0.01146162
0.003285237
0.0115415
0.01134745
0.01137512
0.01138517
0.01139756
0.01140259
0.01141363
0.01143492
0.002940088
0.01151509
0.01134562
0.01137654
0.01138839
0.0113985
0.01140337
0.01141311
0.01142752
0.003233696
0.01150887
0.01134354
0.01137885
0.01139102
0.01139944
0.01140497
0.01141751
0.01143017
0.003302571
0.01151392
0.0113379
0.0113787
0.01139244
0.0114005
0.01140795
0.01142483
0.01144117
0.003147488
0.01151983
0.01133863
0.01137864
0.01139151
0.01140167
0.01141246
0.01144017
0.01149899
0.003379899
0.01152489
0.01134045
0.01137817
0.01139102
0.01140213
0.01141523
0.01145641
0.01154986
0.004270473
0.01152828
0.01152711
0.01786802
0.0115291
0.002098309
0.0009969043
0.001025411
0.001034431
0.001036652
0.001037243
0.001037432
0.001037507
0.00103758
0.01151941
0.01140273
0.01138621
0.01137489
0.01139099
0.01139151
0.01139158
0.01139163
0.0113917
0.0113918
0.0114465
0.01140562
0.01139532
0.01139398
0.01139366
0.01139368
0.0113937
0.01139375
0.0113938
0.01139389
0.01144965
0.01140211
0.01139479
0.01139406
0.01139368
0.01139374
0.01139374
0.01139378
0.01139381
0.01139386
0.01144429
0.01139738
0.01139467
0.01139395
0.01139371
0.01139384
0.01139381
0.01139382
0.01139382
0.01139382
0.01144176
0.01139697
0.01139478
0.01139393
0.01139385
0.01139391
0.0113939
0.01139389
0.01139385
0.0113938
0.01144168
0.01139723
0.01139486
0.01139401
0.01139401
0.011394
0.01139401
0.01139402
0.01139397
0.0113939
0.01144278
0.01139798
0.01139474
0.01139412
0.01139411
0.01139413
0.0113942
0.01139427
0.01139425
0.01139419
0.01144256
0.0113989
0.0113948
0.01139412
0.01139422
0.01139436
0.01139448
0.01139472
0.01139481
0.01139482
0.01144308
0.0113979
0.01139505
0.01139417
0.01139437
0.01139471
0.01139499
0.01139564
0.01139594
0.01139596
0.01144237
0.01139742
0.01139524
0.01139428
0.0113946
0.0113953
0.01139602
0.01139746
0.01139811
0.01139786
0.01144294
0.01140006
0.01139543
0.01139449
0.01139493
0.01139613
0.0113983
0.01140181
0.01140333
0.01140136
0.01144425
0.0113979
0.01139563
0.01139486
0.0113956
0.01139842
0.01140389
0.01141397
0.01142217
0.01140348
0.01144171
0.0113992
0.01139591
0.01139499
0.01139704
0.01140278
0.01142214
0.01143594
0.0117171
0.01128186
0.01144202
0.01140216
0.01139632
0.01139504
0.01139926
0.01140583
0.01142708
0.01158793
0.01635064
0.01144867
0.01139961
0.0113947
0.0113949
0.01139988
0.01140549
0.01142064
0.01145588
0.002881944
0.01144492
0.01140446
0.0113944
0.01139543
0.01140039
0.01140366
0.01141699
0.01143013
0.002498438
0.0114449
0.01140046
0.01139476
0.01139555
0.01140115
0.01140447
0.01141375
0.0007284325
0.0114408
0.01139785
0.01139708
0.01139731
0.01140198
0.011407
0.011413
0.0007306301
0.01144005
0.01139659
0.01139597
0.01139756
0.01140336
0.01141094
0.01142326
0.01100935
0.004228536
0.01144119
0.01139708
0.0113975
0.01139786
0.01140479
0.01141298
0.01144326
0.01146211
0.00303853
0.01144288
0.01139772
0.01139749
0.01139873
0.01140457
0.01141703
0.01145762
0.01156036
0.00425024
0.01152017
0.01785148
0.01161494
0.002101537
0.001003414
0.001035752
0.001046965
0.001049768
0.001050512
0.001050741
0.001050815
0.001050872
0.01156018
0.01140589
0.01138342
0.01137298
0.01139093
0.0113915
0.01139159
0.01139164
0.01139171
0.01139181
0.01145587
0.01140148
0.01139545
0.01139406
0.01139364
0.01139367
0.01139369
0.01139375
0.0113938
0.01139389
0.01144359
0.01140227
0.01139491
0.01139371
0.01139369
0.01139369
0.01139374
0.01139378
0.01139381
0.01139386
0.01145023
0.0114005
0.01139421
0.01139377
0.01139372
0.01139376
0.01139379
0.01139381
0.01139382
0.01139382
0.0114571
0.01140464
0.01139414
0.01139397
0.01139378
0.01139383
0.01139386
0.01139388
0.01139385
0.0113938
0.01144844
0.01140689
0.01139414
0.01139476
0.01139386
0.01139395
0.01139396
0.01139401
0.01139396
0.0113939
0.01145796
0.01140302
0.01139404
0.01139508
0.01139391
0.01139425
0.01139419
0.01139427
0.01139424
0.01139418
0.01145509
0.01140166
0.01139407
0.0113951
0.01139402
0.01139449
0.01139451
0.01139472
0.01139481
0.01139483
0.01145822
0.01140226
0.01139427
0.0113952
0.01139418
0.01139484
0.01139508
0.01139565
0.01139594
0.01139597
0.01145146
0.01140523
0.01139432
0.01139534
0.01139438
0.01139539
0.01139613
0.01139741
0.01139807
0.01139795
0.01145343
0.01140322
0.01139467
0.01139528
0.01139471
0.01139614
0.01139824
0.01140179
0.01140344
0.01140139
0.01144339
0.01140299
0.01139449
0.01139491
0.01139539
0.01139842
0.01140377
0.01141427
0.01142199
0.01140377
0.0114569
0.01140365
0.01139449
0.01139522
0.0113969
0.01140258
0.01142201
0.01143445
0.01171657
0.01126969
0.01146046
0.01140305
0.01139474
0.01139493
0.01139879
0.01140567
0.01142691
0.01158682
0.01631769
0.01144464
0.01140158
0.01139399
0.01139464
0.01139991
0.01140612
0.01142153
0.01145537
0.002855005
0.01145517
0.01140114
0.01139542
0.01139538
0.01140123
0.01140431
0.01141806
0.01143102
0.002518665
0.01144697
0.01140042
0.01139489
0.01139534
0.01140161
0.01140454
0.0114146
0.0007842334
0.01144676
0.01139798
0.01139604
0.01139703
0.01140188
0.01140717
0.01141291
0.0007871631
0.01144223
0.01139796
0.01139608
0.01139759
0.01140314
0.01141115
0.01142324
0.01100017
0.004297358
0.01144347
0.0113983
0.01139726
0.01139799
0.01140491
0.01141296
0.01144523
0.01145765
0.003048302
0.01144571
0.01139924
0.01139687
0.01139872
0.01140453
0.01141701
0.01145803
0.01156071
0.004251182
0.01151997
0.01786842
0.01160153
0.00210288
0.001004779
0.001037952
0.001049654
0.001052653
0.001053461
0.00105371
0.001053782
0.001053835
0.01158546
0.0114052
0.01138435
0.01137061
0.01139083
0.01139148
0.01139158
0.01139164
0.01139171
0.01139181
0.0114446
0.01139805
0.01139553
0.01139375
0.01139358
0.01139365
0.01139368
0.01139374
0.0113938
0.01139388
0.01146403
0.01140227
0.01139427
0.01139375
0.01139365
0.01139368
0.01139373
0.01139378
0.01139381
0.01139386
0.01144286
0.01139962
0.01139388
0.01139401
0.01139371
0.01139377
0.01139378
0.01139381
0.01139381
0.01139381
0.01145623
0.01140259
0.0113943
0.01139439
0.01139382
0.01139388
0.01139387
0.01139389
0.01139385
0.0113938
0.01145755
0.01140096
0.01139477
0.01139446
0.01139392
0.01139407
0.01139401
0.01139403
0.01139397
0.0113939
0.0114451
0.01139976
0.01139527
0.01139407
0.01139416
0.01139411
0.01139419
0.01139428
0.01139425
0.01139419
0.01145559
0.01139838
0.01139532
0.01139416
0.01139422
0.01139426
0.01139445
0.01139471
0.0113948
0.01139484
0.01144445
0.01140071
0.01139545
0.0113942
0.01139433
0.01139455
0.01139485
0.0113956
0.01139592
0.01139596
0.01145509
0.011402
0.01139544
0.01139452
0.01139457
0.01139527
0.01139594
0.01139734
0.01139803
0.01139792
0.01145368
0.0114008
0.0113953
0.01139488
0.01139483
0.01139618
0.011398
0.01140171
0.0114033
0.01140118
0.01145101
0.01140028
0.01139581
0.01139488
0.0113955
0.01139836
0.01140371
0.01141426
0.01142186
0.01140372
0.01146978
0.01140106
0.01139587
0.01139495
0.0113972
0.0114027
0.01142215
0.01143461
0.01171627
0.01126961
0.01145145
0.011403
0.01139571
0.01139506
0.01139951
0.01140596
0.01142737
0.01158705
0.01630672
0.01146352
0.01139789
0.01139412
0.01139463
0.01139981
0.01140534
0.01142095
0.01145592
0.002855958
0.01144617
0.01139879
0.01139492
0.01139482
0.01140045
0.01140375
0.01141761
0.01143107
0.002530036
0.01144673
0.01139714
0.01139507
0.01139456
0.01140152
0.01140476
0.01141442
0.0008006162
0.01144348
0.01139725
0.0113956
0.01139661
0.01140158
0.01140693
0.01141261
0.0008036937
0.01144267
0.01139764
0.0113971
0.01139794
0.01140321
0.01141119
0.01142303
0.01100019
0.004351883
0.01144227
0.01139667
0.01139817
0.01139824
0.01140539
0.01141313
0.0114452
0.01145848
0.003054703
0.01144514
0.01139742
0.01139683
0.01139839
0.01140463
0.01141698
0.011458
0.01156152
0.004252396
0.01151939
0.01787823
0.01159524
0.002102921
0.001003879
0.001036408
0.001047739
0.001050612
0.001051379
0.001051619
0.001051683
0.001051733
0.0116166
0.01140448
0.01138408
0.01137063
0.0113908
0.01139147
0.01139158
0.01139164
0.01139171
0.01139181
0.0114415
0.01139742
0.01139563
0.01139356
0.01139363
0.01139364
0.01139368
0.01139374
0.0113938
0.01139388
0.01144253
0.01139966
0.01139379
0.0113938
0.01139367
0.01139367
0.01139373
0.01139378
0.01139381
0.01139386
0.0114495
0.01140282
0.01139412
0.01139459
0.01139373
0.01139386
0.0113938
0.01139382
0.01139381
0.01139381
0.01146397
0.01139976
0.01139535
0.0113943
0.01139395
0.01139394
0.0113939
0.0113939
0.01139385
0.0113938
0.01144684
0.01140211
0.0113953
0.01139404
0.01139409
0.01139399
0.01139401
0.01139403
0.01139397
0.0113939
0.0114527
0.0114028
0.01139519
0.01139423
0.0113941
0.01139409
0.01139418
0.01139427
0.01139424
0.01139418
0.01144333
0.01139973
0.01139522
0.01139414
0.0113942
0.01139428
0.01139445
0.01139471
0.0113948
0.01139483
0.01145655
0.01140167
0.0113955
0.01139423
0.01139432
0.01139455
0.01139489
0.0113956
0.01139591
0.01139595
0.01145599
0.01140368
0.01139589
0.01139427
0.01139453
0.01139519
0.01139587
0.01139731
0.011398
0.01139791
0.01144633
0.01140255
0.01139615
0.01139455
0.01139511
0.01139609
0.01139799
0.01140163
0.01140323
0.01140122
0.01144525
0.01139929
0.01139557
0.01139469
0.01139545
0.01139838
0.0114038
0.01141427
0.01142186
0.01140377
0.01144656
0.0114022
0.01139677
0.01139465
0.01139743
0.01140254
0.01142196
0.01143432
0.01171629
0.01126889
0.01148501
0.01140711
0.0113979
0.01139551
0.01140061
0.01140637
0.01142787
0.01158637
0.01630015
0.01144897
0.01139785
0.01139452
0.01139509
0.01139994
0.01140489
0.01142137
0.01145554
0.002856172
0.01144347
0.0113975
0.01139413
0.01139464
0.01140004
0.01140397
0.01141748
0.01143084
0.002531478
0.01144533
0.01139738
0.01139572
0.01139478
0.01140137
0.01140467
0.01141441
0.0008006243
0.0114426
0.01139756
0.01139588
0.01139641
0.01140185
0.01140698
0.01141268
0.0008036103
0.01144165
0.01139743
0.01139641
0.01139769
0.01140304
0.01141106
0.01142292
0.01100045
0.004352446
0.01144199
0.01139672
0.0113984
0.01139834
0.01140544
0.01141322
0.01144524
0.01145822
0.003054712
0.01144448
0.01139735
0.01139686
0.01139842
0.01140466
0.01141697
0.01145801
0.01156202
0.004252274
0.0115191
0.01788309
0.01159527
0.002101706
0.0009982564
0.001027386
0.001036649
0.001038975
0.001039587
0.001039785
0.001039823
0.001039864
0.01157615
0.01140631
0.01138865
0.01137375
0.01139094
0.01139147
0.01139156
0.01139163
0.0113917
0.01139179
0.01144986
0.01140046
0.01139553
0.01139369
0.01139379
0.01139364
0.01139369
0.01139375
0.0113938
0.01139389
0.01146799
0.01141037
0.01139452
0.01139469
0.01139366
0.01139377
0.01139374
0.01139378
0.01139381
0.01139386
0.01144224
0.01139907
0.01139482
0.01139386
0.01139387
0.01139379
0.0113938
0.01139382
0.01139382
0.01139382
0.01145466
0.01140816
0.01139425
0.01139464
0.01139376
0.01139392
0.01139385
0.01139388
0.01139385
0.0113938
0.01146502
0.01140695
0.01139441
0.01139484
0.01139384
0.01139405
0.01139398
0.01139401
0.01139396
0.01139389
0.01145129
0.0114064
0.01139413
0.01139505
0.01139391
0.01139425
0.0113942
0.01139427
0.01139424
0.01139417
0.01145985
0.01140246
0.01139417
0.01139506
0.01139403
0.01139447
0.01139449
0.01139471
0.01139479
0.01139482
0.01145793
0.01140297
0.01139414
0.01139511
0.01139418
0.01139483
0.01139506
0.01139563
0.01139591
0.01139594
0.01145758
0.01140505
0.01139452
0.01139501
0.01139437
0.01139535
0.01139608
0.01139736
0.01139802
0.01139792
0.01145273
0.0114069
0.0113952
0.01139509
0.01139476
0.01139617
0.01139831
0.01140177
0.01140334
0.01140134
0.01144203
0.01139903
0.01139439
0.01139498
0.01139537
0.01139841
0.01140379
0.01141431
0.01142198
0.01140379
0.01146476
0.01140088
0.01139427
0.01139499
0.01139692
0.01140247
0.01142203
0.01143471
0.01171584
0.01126792
0.01147809
0.01140719
0.01139433
0.01139437
0.01139786
0.0114052
0.01142673
0.01158559
0.01629721
0.01144715
0.01139995
0.01139907
0.01139452
0.01140202
0.01140653
0.01142215
0.0114558
0.002856709
0.01145342
0.01139616
0.01139527
0.01139578
0.01140097
0.01140358
0.01141787
0.01143079
0.002528032
0.0114451
0.01139803
0.01139468
0.01139529
0.01140079
0.01140468
0.01141452
0.000784339
0.01144281
0.01139724
0.01139843
0.01139675
0.01140219
0.01140736
0.01141301
0.0007868798
0.0114417
0.01139911
0.01139605
0.01139757
0.01140305
0.01141104
0.01142307
0.01100044
0.004344451
0.01144373
0.01139851
0.01139719
0.01139809
0.01140505
0.01141297
0.01144498
0.0114548
0.003047795
0.01144523
0.01139916
0.01139694
0.01139866
0.01140457
0.01141685
0.01145799
0.01156233
0.004250925
0.01151897
0.01787984
0.0115959
0.002092321
0.0009824507
0.000999425
0.001005235
0.001006417
0.001006733
0.001006963
0.001006854
0.001006936
0.01157325
0.01140496
0.01139233
0.01137825
0.01139105
0.01139145
0.01139152
0.01139158
0.01139165
0.01139174
0.01145113
0.01139996
0.0113957
0.01139408
0.01139364
0.01139369
0.01139369
0.01139375
0.0113938
0.01139389
0.01143854
0.01139817
0.01139536
0.01139375
0.01139373
0.0113937
0.01139374
0.01139378
0.01139381
0.01139386
0.01146453
0.01140636
0.0113943
0.01139478
0.01139371
0.01139387
0.01139381
0.01139382
0.01139382
0.01139382
0.01143989
0.01140042
0.011394
0.01139479
0.01139386
0.011394
0.0113939
0.0113939
0.01139385
0.0113938
0.01145451
0.01139834
0.01139612
0.01139426
0.011394
0.01139402
0.01139403
0.01139403
0.01139397
0.0113939
0.01144396
0.01139901
0.01139562
0.01139421
0.0113941
0.01139414
0.0113942
0.01139427
0.01139424
0.01139418
0.01144301
0.01139942
0.01139481
0.01139428
0.01139422
0.01139435
0.01139448
0.01139471
0.01139479
0.0113948
0.01144554
0.01139953
0.01139553
0.0113943
0.01139434
0.0113947
0.01139497
0.01139561
0.01139591
0.01139592
0.01145872
0.01139813
0.0113965
0.01139455
0.01139467
0.0113953
0.01139601
0.0113974
0.01139805
0.01139782
0.01143917
0.01140073
0.01139398
0.01139516
0.01139493
0.01139627
0.01139829
0.01140182
0.01140328
0.0114013
0.01144982
0.01140025
0.01139421
0.01139464
0.01139533
0.01139836
0.01140377
0.011414
0.01142215
0.01140344
0.0114523
0.01139898
0.01139442
0.01139506
0.0113968
0.01140271
0.0114221
0.01143608
0.0117151
0.01127866
0.01144643
0.01139943
0.01139828
0.01139527
0.01139968
0.0114057
0.01142714
0.01158626
0.01630556
0.0114699
0.01140346
0.01139437
0.01139464
0.01139922
0.01140452
0.01142062
0.01145577
0.002859935
0.0114435
0.01139709
0.01139655
0.0113944
0.01140162
0.01140459
0.01141723
0.01143044
0.002509396
0.01145572
0.01139618
0.01139524
0.01139595
0.01140111
0.0114041
0.01141387
0.0007290109
0.01144926
0.01139903
0.0113963
0.01139662
0.01140177
0.0114069
0.01141309
0.0007302783
0.01145356
0.01139873
0.01139624
0.01139758
0.01140307
0.01141091
0.0114227
0.01101065
0.004221641
0.01144086
0.01139816
0.01139872
0.0113984
0.01140495
0.01141304
0.01144185
0.01144746
0.002949269
0.01144187
0.01139806
0.01139747
0.0113987
0.01140466
0.01141652
0.01145801
0.01156671
0.004124609
0.01151483
0.01784015
0.01159178
0.002070806
0.002130607
0.002199572
0.002214676
0.002211321
0.002212787
0.002215561
0.002212162
0.002214749
0.01161682
0.01137258
0.0113751
0.01139087
0.01139118
0.0113912
0.01139134
0.01139179
0.01139174
0.01139019
0.01150583
0.01134645
0.01137271
0.01138457
0.01139008
0.0113906
0.01139164
0.01139172
0.01139178
0.01139187
0.01145832
0.01127673
0.01137287
0.01137901
0.01139049
0.01139054
0.01139142
0.01139174
0.01139178
0.0113917
0.01145944
0.01127055
0.0113738
0.01137661
0.01138999
0.0113901
0.01139162
0.01139174
0.01139178
0.01139178
0.01145353
0.01126505
0.01137514
0.01137478
0.01138944
0.01138988
0.01139164
0.01139178
0.0113918
0.01139169
0.0114986
0.01132438
0.01137928
0.01137939
0.01138995
0.01138987
0.01139153
0.01139167
0.01139185
0.01139177
0.01149742
0.01132786
0.01137195
0.01137609
0.01138888
0.0113897
0.01139186
0.01139192
0.01139209
0.01139208
0.01149613
0.01132572
0.01137088
0.01137662
0.01138904
0.01138994
0.01139206
0.0113922
0.01139257
0.01139266
0.01149809
0.01132261
0.01137248
0.01137675
0.01139012
0.01139073
0.01139274
0.01139343
0.01139379
0.01139386
0.011525
0.01131905
0.01137845
0.01137908
0.01139081
0.01139184
0.01139379
0.01139469
0.01139592
0.01139525
0.01146352
0.01126555
0.01137637
0.01137576
0.01139202
0.01139388
0.01139591
0.01139972
0.0114009
0.0113993
0.01145448
0.01126885
0.01137546
0.01137669
0.01139264
0.01139607
0.01140165
0.01141222
0.0114176
0.01139092
0.01151243
0.01131301
0.01137755
0.01137877
0.01139462
0.01140046
0.01142156
0.01143829
0.01172116
0.01130618
0.01150966
0.01132004
0.01138079
0.01138159
0.01139683
0.01140381
0.01142668
0.01158379
0.01634707
0.01145518
0.01126312
0.01137986
0.01137842
0.01139784
0.01140372
0.01141906
0.01146142
0.002944852
0.01146003
0.01125871
0.0113793
0.01138387
0.01139796
0.01140171
0.01141389
0.01143605
0.002504395
0.011445
0.01127407
0.01138337
0.0113824
0.01139918
0.01140297
0.01141329
0.0114277
0.00453992
0.01146133
0.01128304
0.01138508
0.01138517
0.01140013
0.01140427
0.01141771
0.01143264
0.0046201
0.01149837
0.01132481
0.01138474
0.01138993
0.01140099
0.01140768
0.0114249
0.0114126
0.00336161
0.01156909
0.01133334
0.01138174
0.01139042
0.0114019
0.01141234
0.01143786
0.01150306
0.002498791
0.01151809
0.01133864
0.01138015
0.01139116
0.01140248
0.01141471
0.01145749
0.01150704
0.003538512
0.01151935
0.01151929
0.0176764
0.01152831
0.004519285
0.004825495
0.002135095
0.004922437
0.004808378
0.004859805
0.004825255
0.004808653
0.004878892
0.01166564
0.0009460867
0.0009673765
0.0009741229
0.0009756629
0.0009767183
0.0009770818
0.0009769433
0.0009768546
0.0009774385
0.01198156
0.000967484
0.001008463
0.001021441
0.001024691
0.001025908
0.001026229
0.001026248
0.001026184
0.001026206
0.01151135
0.0009774156
0.00102205
0.001038127
0.001042388
0.001043934
0.001044365
0.001044423
0.001044304
0.001044196
0.0115074
0.0009807195
0.001026012
0.001042987
0.001047743
0.001049499
0.001050008
0.001050071
0.001049895
0.001049702
0.01150982
0.0009812924
0.001027028
0.001044483
0.001049509
0.001051404
0.001051969
0.001052029
0.001051812
0.001051557
0.01157245
0.0009783734
0.001027041
0.001044968
0.001050242
0.001052218
0.001052767
0.00105281
0.00105257
0.001052276
0.01160971
0.0009775246
0.001026806
0.001045035
0.001050448
0.00105241
0.001052996
0.001053037
0.001052786
0.001052476
0.01162113
0.0009773021
0.001026605
0.001044987
0.001050431
0.001052343
0.001052846
0.001052818
0.001052526
0.00105219
0.01162402
0.0009770703
0.00102661
0.001044768
0.001050108
0.001051819
0.00105205
0.001051744
0.001051264
0.001050831
0.01159296
0.0009781686
0.001026901
0.001044633
0.001049468
0.001050462
0.001049538
0.001048083
0.001046771
0.001045874
0.01152259
0.0009809806
0.001026898
0.001044095
0.00104806
0.001046246
0.00104088
0.001035592
0.001030808
0.00102799
0.01151956
0.0009802491
0.001026501
0.001043316
0.001046002
0.001039712
0.001013195
0.001002641
0.0009807828
0.0009760021
0.01156378
0.0009779686
0.001025906
0.001042377
0.00104371
0.001033223
0.001002499
0.01008112
0.01171022
0.01132719
0.0116072
0.0009770061
0.001025216
0.001041374
0.001041579
0.001027699
0.0009813154
0.01056266
0.0164198
0.01153603
0.0009792153
0.001025099
0.001040739
0.001040162
0.001024689
0.0009798849
0.01081826
0.003686675
0.01152533
0.0009803822
0.001025173
0.00104034
0.001039341
0.001023297
0.0009794638
0.01093207
0.003403473
0.01151661
0.0009811253
0.001025392
0.00104025
0.001038889
0.001022145
0.0009752997
0.01099187
0.003428708
0.01152963
0.0009807013
0.00102546
0.001040442
0.001039231
0.001022297
0.0009739417
0.01099662
0.003448028
0.01158429
0.0009779933
0.001025476
0.00104087
0.001040273
0.001024009
0.0009766851
0.01094769
0.0034498
0.01160701
0.0009769527
0.001025361
0.001041575
0.001041674
0.001026363
0.0009799104
0.01082857
0.003463392
0.01170263
0.0009758565
0.001025307
0.001042227
0.001043232
0.001030076
0.0009845667
0.01057734
0.004104635
0.01178938
0.009863398
0.0179958
0.01212657
0.005111784
0.001967716
0.004831672
0.0117561
0.01136463
0.004732455
0.002017735
0.002089972
0.002084217
0.002144558
0.01131523
0.01135992
0.004728759
0.00210958
0.002120634
0.002112978
0.00216477
0.01130622
0.01125827
0.004731798
0.002124409
0.002125548
0.00217824
0.002185375
0.01133544
0.01127908
0.004733926
0.002127136
0.002126819
0.002188008
0.002188052
0.0113264
0.01129348
0.004735531
0.002127831
0.002127262
0.002189297
0.002188626
0.01132184
0.01129372
0.00473711
0.002128221
0.002127577
0.002189736
0.002188964
0.01132051
0.01129309
0.004738761
0.002128484
0.002127767
0.002190069
0.002189283
0.01132025
0.01129205
0.004740517
0.002128581
0.002127721
0.002190404
0.002189649
0.0113206
0.01129045
0.002128463
0.00219084
0.01132103
0.001950785
0.00200301
0.01164557
0.0112444
0.0116931
0.01128675
0.002015811
0.002022158
0.01165422
0.01128093
0.01171901
0.01127444
0.002023787
0.002024869
0.01165788
0.01130057
0.01173701
0.01127232
0.002025061
0.002025588
0.01165849
0.01130173
0.01175626
0.01128041
0.002025708
0.002025998
0.0116581
0.01130048
0.01177305
0.01128604
0.002025917
0.002026176
0.01165756
0.01129862
0.0117921
0.01127885
0.002026069
0.002026285
0.0116538
0.01129641
0.0118077
0.0112781
0.002026118
0.002026157
0.01164798
0.01129139
0.01181141
0.0112765
0.002026017
0.002025808
0.01164436
0.01128721
0.01180468
0.01127514
0.00202587
0.002025955
0.01164437
0.01128659
0.01180322
0.01127041
0.002025782
0.002025707
0.01164312
0.01129066
0.01179083
0.01127958
0.002025336
0.002024883
0.01164948
0.01130621
0.01175496
0.01129729
0.002025536
0.002025699
0.01166103
0.01130961
0.01171759
0.01131563
0.002085215
0.004421355
0.004287532
0.01170985
0.01148301
0.01179399
0.004407172
0.00202565
0.002024727
0.01167165
0.0113035
0.01165417
0.01130416
0.009231956
0.01640073
0.00396747
0.002024535
0.002025003
0.01174114
0.01128742
0.01163019
0.01128916
0.008823314
0.003665787
0.003371413
0.002025422
0.002024049
0.01168173
0.01126761
0.01168437
0.01127397
0.008643943
0.003361266
0.003378121
0.002024506
0.002023757
0.0117073
0.01126281
0.01171734
0.01127614
0.00886865
0.003389922
0.003429377
0.00202529
0.002024042
0.01170908
0.01126663
0.01172571
0.01128436
0.009109952
0.00343588
0.003445719
0.0020262
0.002024509
0.0117261
0.01127322
0.01175576
0.01128972
0.009402878
0.003446936
0.003461587
0.002027091
0.002025063
0.01174942
0.0112745
0.01177667
0.01129237
0.009856714
0.003524449
0.004168267
0.002027858
0.002025537
0.01176536
0.01127349
0.01178474
0.01129275
0.01075648
0.009387803
0.004282682
0.03568895
0.006356282
0.009746473
0.005435199
0.002028323
0.01177196
0.01127314
0.004833122
0.01166865
0.01145938
0.004850217
0.01164479
0.01149612
0.0115201
0.01180893
0.004431193
0.01172224
0.01152461
0.0117906
0.004456062
0.003682721
0.0163592
0.00342261
0.0345922
0.006380561
0.004251903
0.03459926
0.006425263
0.004854198
0.01165748
0.01148903
0.004858335
0.01164452
0.01151094
0.01151311
0.01178926
0.004452701
0.01171581
0.01151569
0.01177684
0.004458589
0.003416647
0.01632189
0.003414336
0.03427233
0.006431588
0.00425136
0.03437987
0.006433496
0.004855565
0.01166795
0.01151326
0.004862439
0.01165114
0.01151425
0.01151475
0.01178305
0.004459215
0.01171609
0.01151522
0.01177197
0.004460821
0.00341446
0.01631131
0.003415615
0.03428948
0.006436557
0.004252354
0.03436724
0.006435188
0.00486151
0.01167521
0.01152531
0.004864411
0.01167144
0.01152224
0.0115152
0.01177948
0.004461191
0.01171642
0.01151538
0.01177189
0.004461466
0.003415701
0.01630243
0.003415987
0.03433576
0.00643662
0.004252402
0.03437306
0.00643628
0.004864787
0.01168141
0.01153176
0.004864333
0.01166377
0.0115273
0.01151522
0.01177998
0.004461324
0.01171586
0.01151491
0.01177366
0.004461208
0.003416171
0.01629565
0.003415916
0.03436709
0.006435747
0.004251566
0.03436129
0.006436576
0.004863774
0.01166333
0.01152241
0.004860948
0.01167015
0.01151584
0.01151486
0.01177984
0.004460719
0.01171598
0.01151448
0.01177635
0.004459018
0.003415738
0.01630388
0.003414681
0.03435982
0.006435196
0.004211217
0.03428049
0.00643641
0.004859778
0.01165828
0.01151864
0.004848846
0.01165634
0.01149748
0.003414525
0.01633339
0.003417297
0.0340703
0.006433529
0.003583069
0.03297881
0.006431815
0.00484658
0.01165155
0.01150439
0.004676933
0.01166958
0.0114683
0.003423586
0.01640347
0.003686625
0.03295669
0.006424144
0.003792856
0.03295697
0.006409584
0.004843839
0.01175946
0.01137603
0.001943519
0.004693294
0.01134066
0.01133934
0.001980521
0.002036281
0.004810434
0.01136459
0.01125569
0.002032746
0.002055347
0.004883012
0.01131762
0.01130021
0.00520927
0.002071937
0.002056175
0.00487116
0.01136557
0.01126878
0.002038118
0.002044123
0.004786992
0.01133927
0.01128848
0.002066711
0.002070553
0.002130756
0.01135966
0.01129739
0.005187428
0.0020707
0.002075848
0.004865133
0.01136954
0.01127292
0.002060836
0.002049145
0.01137271
0.002057516
0.01124194
0.01183271
0.01130307
0.001947214
0.002006167
0.01126082
0.01157962
0.01121224
0.002035193
0.002053447
0.01141127
0.01151903
0.01135879
0.002083783
0.004378763
0.002099535
0.01140166
0.01150204
0.01139335
0.004388372
0.002117371
0.004444642
0.002121043
0.01141566
0.01151106
0.01142552
0.004406869
0.002120992
0.00446378
0.002118171
0.01132824
0.01156311
0.01130411
0.004438019
0.002110695
0.004376781
0.002088954
0.01129256
0.01166028
0.01129765
0.002060348
0.002042237
0.01130864
0.01174709
0.01128115
0.002056035
0.002049208
0.0112776
0.01170418
0.01127065
0.002034418
0.002058552
0.01127903
0.01157881
0.01134579
0.004385122
0.002088359
0.004442103
0.002109117
0.01142423
0.01150914
0.0114007
0.004414838
0.002117335
0.004454104
0.002118643
0.01139835
0.0115189
0.01140724
0.004430694
0.00211607
0.00436195
0.002099994
0.01126814
0.01165236
0.01127848
0.002079804
0.002059506
0.01149353
0.01180504