/*--------------------------------*- C++ -*----------------------------------*\
  =========                 |
  \\      /  F ield         | OpenFOAM: The Open Source CFD Toolbox
   \\    /   O peration     | Website:  https://openfoam.org
    \\  /    A nd           | Version:  7
     \\/     M anipulation  |
\*---------------------------------------------------------------------------*/
FoamFile
{
    version     2.0;
    format      ascii;
    class       surfaceScalarField;
    location    "0.05";
    object      phi;
}
// * * * * * * * * * * * * * * * * * * * * * * * * * * * * * * * * * * * * * //

dimensions      [0 3 -1 0 0 0 0];

internalField   nonuniform List<scalar> 
233911
(
-0.0017151
0.001795994
-0.0001446869
6.379252e-05
-0.001905509
0.001890358
4.085155e-07
1.474193e-05
-0.00191312
0.001923077
-1.049045e-05
5.332505e-07
-0.001933647
0.001942235
-1.042888e-05
1.841683e-06
-0.001952591
0.001961065
-7.103011e-06
-1.370773e-06
-0.001963652
0.001972433
-7.939386e-06
-8.408208e-07
-0.00197596
0.001985475
-8.113829e-06
-1.400878e-06
-0.001988684
0.001999305
-8.843348e-06
-1.777146e-06
-0.002003725
0.002015915
-9.992079e-06
-2.198308e-06
0.03732078
0.0007656566
0.0007893198
-0.000957268
0.001431331
-0.0006008852
-0.000183926
-0.008780698
-0.009400244
-0.01009271
-0.01029136
0.03631421
-0.001228867
0.0008615742
-0.001249103
0.001736141
0.0002520922
0.0006347351
0.03662684
-0.0004121273
-0.0001934533
-0.001374083
0.00154344
-5.987255e-06
0.0001295802
0.03690353
-0.0006588921
-5.991748e-05
-0.001389989
0.001581491
3.97047e-05
0.0002109107
0.0372252
-0.0005023253
-5.407206e-05
-0.001424934
0.001561242
-3.429401e-05
0.0001327114
0.03750438
-0.0005621954
-2.650748e-05
-0.001420862
0.001584468
-1.299271e-05
0.0001589127
0.03779539
-0.0005816682
-2.037515e-05
-0.001425985
0.001594015
-1.330497e-05
0.000156313
0.03811765
-0.0006587424
-2.708221e-05
-0.001424409
0.001615239
3.164796e-07
0.0001724195
-0.0007771679
-2.666782e-05
-0.001420243
1.766553e-05
0.03849121
0.001641129
0.0001917183
0.0380276
-6.668238e-06
0.002824564
-0.009551978
-0.009557204
-0.01046869
-0.01050197
0.03656407
-0.001278422
0.001513082
0.03653816
-0.0007900903
0.000403877
0.03672634
-0.0009025752
5.550233e-05
0.0369589
-0.0008044207
6.953279e-05
0.03725053
-0.0008520887
-1.733578e-06
0.03751778
-0.000843591
-5.329318e-06
0.03778615
-0.0009130211
-1.408618e-05
-0.001041028
-1.8185e-05
0.03806819
0.03816732
-0.0005471151
0.003124191
-0.00961309
-0.009685738
-0.01074316
-0.01070907
0.03684769
-0.001434268
0.001475471
0.03646684
-0.00111093
0.0007016915
0.03669038
-0.001178169
5.204761e-05
0.03687755
-0.001082921
9.133711e-05
0.0370975
-0.001083237
1.119184e-05
0.03730177
-0.001058194
1.033306e-05
0.03747857
-0.001085308
-4.510319e-06
-0.00116752
-1.57409e-06
0.03760664
0.03809305
-0.001120703
0.003665296
-0.009672173
-0.009750055
-0.01090491
-0.01085763
0.036761
-0.001611024
0.00150881
0.03615651
-0.001430662
0.0009242236
0.03641201
-0.001474355
4.067918e-05
0.036614
-0.001404778
0.0001198685
0.03689491
-0.001359892
-4.255548e-06
0.03709192
-0.001266701
1.149324e-05
0.03720335
-0.001186264
-1.047088e-05
-0.001137416
-3.475165e-06
0.03717672
0.03803216
-0.00157807
0.003941381
-0.009752909
-0.009784226
-0.01101852
-0.01096052
0.0368747
-0.001871203
0.001417632
0.03622503
-0.001748708
0.0009677204
0.03647984
-0.001783784
5.461837e-05
0.03666578
-0.001713635
0.0001229155
0.03693149
-0.001624615
-9.904787e-07
0.03711697
-0.001463654
1.147446e-05
0.03715453
-0.001223026
-7.961493e-07
-0.0009554056
2.910743e-06
0.03696961
0.03800113
-0.001935692
0.004025526
-0.009746285
-0.009813245
-0.01108711
-0.0110224
0.03688561
-0.002138432
0.001382751
0.03616263
-0.002063378
0.001037645
0.03643255
-0.002124732
7.102577e-05
0.03668186
-0.002074199
0.0001112555
0.03704359
-0.001964715
-2.163139e-05
0.03728949
-0.001720591
1.10418e-05
0.03736642
-0.001303258
3.297879e-06
-0.0007188626
2.55705e-07
0.03712962
0.03801292
-0.002254779
0.004188566
-0.009769787
-0.009882846
-0.01114973
-0.01108004
0.03688959
-0.00237677
0.001361665
0.03616756
-0.002384654
0.001043311
0.03648648
-0.002530082
8.642858e-05
0.03682878
-0.002524402
0.0001079039
0.03731788
-0.002435195
-1.862218e-05
0.03772013
-0.002134185
1.134835e-05
0.03790335
-0.001487271
7.848301e-07
-0.0005210016
-7.248754e-06
0.03771274
0.03801013
-0.002507067
0.004192767
-0.009798827
-0.00987431
-0.01116487
-0.01111261
0.03690559
-0.002494466
0.001222236
0.03612943
-0.00266252
0.001054031
0.0364885
-0.002990836
0.000101683
0.0369554
-0.003105718
0.0001144121
0.03768674
-0.003144063
-2.247183e-05
0.03839469
-0.002862428
2.029019e-05
0.03884191
-0.001942492
8.00403e-06
-0.0004813782
-5.410864e-06
0.03880769
0.03774445
-0.002543742
0.004010452
-0.00977416
-0.009772836
-0.0111009
-0.01107033
0.03667864
-0.002661871
0.001233216
0.03593588
-0.002957057
0.001037295
0.03639133
-0.003545302
9.901572e-05
0.03705716
-0.003878064
0.0001065129
0.03814388
-0.004212752
-1.803089e-05
0.03936905
-0.004094635
7.034296e-06
0.04022705
-0.002798798
-1.690634e-06
-0.0007312329
-3.432411e-05
0.04051122
0.03765876
-0.002457453
0.003965346
-0.009689411
-0.009851267
-0.01111694
-0.01105278
0.03644019
-0.00263803
0.001194727
0.03559035
-0.003175712
0.001068487
0.03608285
-0.004131983
9.418155e-05
0.03696962
-0.004851441
8.661165e-05
0.03861815
-0.005817513
-4.376912e-05
0.04073914
-0.006264933
4.929799e-05
0.04232536
-0.004384056
-9.572364e-07
-0.001230458
-8.963127e-07
0.04282548
0.03730518
-0.002109848
0.003837311
-0.009669325
-0.009793506
-0.01105044
-0.01097683
0.03592185
-0.002517937
0.001263243
0.03496177
-0.003248684
0.001033048
0.03539502
-0.004643123
7.789474e-05
0.03639478
-0.005865549
1.434267e-05
0.03888673
-0.00811034
-0.0001991233
0.04251455
-0.009640558
-0.0002521931
0.04492176
-0.00678489
-6.376916e-06
-0.002061298
-0.0001125927
0.04586519
0.03675719
-0.001526382
0.003944273
-0.009643144
-0.009670384
-0.01100295
-0.01096845
0.03502307
-0.00202648
0.001242665
0.03378056
-0.00301109
0.001004913
0.0341244
-0.004989726
2.760384e-06
0.03534409
-0.006975513
-0.0001097295
0.03857095
-0.01064595
-0.0006912438
0.04501756
-0.004848583
-0.0001414775
-0.00216045
-0.004965172
-0.003971485
0.05006329
-0.005594804
0.0001401072
0.0004111396
-0.00503359
-0.001753471
-0.002725072
0.0006022644
-0.001181087
0.05005908
0.001422533
-0.0001757317
0.03614158
-0.000535507
0.003920072
-0.009604494
-0.009670338
-0.0109071
-0.01087061
0.0340273
-0.001017727
0.001105531
0.03219637
-0.002194994
0.00101483
0.03162558
-0.00438629
-3.263792e-05
0.03254255
-0.00756411
-0.0003283811
0.009223346
-0.01283249
-0.00150999
0.007395177
0.01005964
0.009560919
0.009707263
-0.005004793
-0.0003277079
0.01483225
-0.0001596846
-0.0132506
-0.00174684
-0.002268347
-0.002228585
-0.0007729963
-0.01615409
-8.979996e-05
-0.0005587266
5.742839e-05
3.628902e-05
0.0003992834
0.01358454
0.03550687
0.0008329371
0.003833065
-0.009663056
-0.009489614
-0.01078574
-0.01076997
0.03273208
0.0005387674
0.001218295
0.03018533
-0.0005414414
0.0008931916
0.02814485
-0.002317239
-2.856671e-05
0.02606687
-0.005238016
-0.0002481187
0.00704353
-0.009746098
-0.001749817
0.004440747
0.00759573
0.005650282
0.006133608
-0.004884056
-0.0005692284
0.001643955
0.001759603
0.001885721
0.001073926
0.001013141
-0.0004062766
0.0002238927
-0.0008000129
-3.07444e-05
0.03475153
0.002697752
0.00348707
-0.00945488
-0.00935628
-0.01066709
-0.01062517
0.03145744
0.002675492
0.00115736
0.02822153
0.001831575
0.0008628957
0.02527235
0.0006867186
-5.477417e-05
0.02126927
-0.0008658391
-0.000369099
0.004462405
-0.003437015
-0.001451952
0.003299492
0.004639173
0.004011071
0.004116129
-0.002553534
-0.0002664836
0.0008070508
0.0008774088
0.00092743
0.0005544032
0.0003935496
-0.0001293493
4.416381e-05
-0.0003033649
-4.999108e-06
0.03409715
0.004988487
0.003090621
-0.00949934
-0.009176915
-0.01044662
-0.01035563
0.03058526
0.005093811
0.001093568
0.02702342
0.004717447
0.0006759737
0.02333641
0.004418881
-4.516204e-05
0.0187026
0.004046187
-0.0002782076
0.003213759
0.00322126
-0.001195554
0.003073431
0.003556332
0.003396354
0.001594468
-0.0004063869
-0.0001228885
0.0005740693
0.0005288967
0.0006074098
0.0004381908
0.000148019
-6.749617e-05
2.437266e-05
-0.000101937
-2.958492e-06
0.03350486
0.007185882
0.003246407
-0.00939334
-0.008914729
-0.01036016
-0.01028043
0.03001274
0.007547361
0.00103857
0.02642092
0.007801727
0.0005075356
0.02249874
0.00840159
-6.052261e-05
0.01781066
0.009148648
-0.0004143825
0.002495574
0.009972525
-0.001001287
0.00321115
0.003063339
0.003290618
-0.0007163478
0.001583965
-5.82268e-05
0.0004727861
0.0003372337
0.0004490457
0.0004271184
-4.206807e-05
-2.156861e-05
1.125255e-05
4.808389e-05
4.300263e-06
0.03344555
0.009319348
0.003297129
-0.009470433
-0.008768272
-0.01038276
-0.01025468
0.03023265
0.009842373
0.0009178855
0.0269072
0.0107694
0.000357782
0.02318051
0.01220456
-7.627978e-05
0.01853106
0.01420558
-0.0004074826
0.002262779
0.01682078
-0.001023116
0.003724057
0.003097965
0.003621117
-0.002903072
0.003566569
-4.491906e-05
0.0004677612
0.0002571856
0.0004267906
0.000492463
-0.0002081049
1.21084e-06
1.098618e-05
0.0001905218
5.386118e-06
0.03379158
0.01104811
0.003570362
-0.009565444
-0.008731187
-0.0104819
-0.01031218
0.03099795
0.01169394
0.0009420654
0.02824588
0.01324508
0.0002763846
0.02505011
0.01550036
-0.0001000225
0.02095448
0.01893412
-0.0006329061
0.002430066
0.02374877
-0.00110643
0.004685219
0.003607158
0.004410476
-0.005174722
0.005727498
-7.118315e-05
0.0005555496
0.0002441318
0.0005098065
0.0006389851
-0.0003745096
8.002279e-06
1.876565e-05
0.000345653
2.088709e-06
0.03479036
0.01222293
0.003482085
-0.009684486
-0.00875952
-0.0106102
-0.01039306
0.0326269
0.01293727
0.000920135
0.03061258
0.0149256
0.0003337933
0.02834279
0.01787461
-0.0001044583
0.02535482
0.02242926
-0.0005071672
0.003327715
0.02961216
-0.001785784
0.00670027
0.004939189
0.006310034
-0.007754891
0.008324924
-0.0002732108
0.0008700095
0.0003803106
0.0007869548
0.0009936178
-0.0005764922
4.149975e-06
3.286349e-05
0.0005417184
-2.239506e-06
0.03601917
0.003451226
-0.00983813
-0.008857662
-0.01076738
-0.01052057
0.01273628
0.03467723
0.0009534288
0.01332578
0.03387321
0.0003609304
0.01536869
0.03337597
-3.757917e-05
0.01840943
0.0335261
-0.000578279
0.02285741
0.005766813
-0.002100909
0.01043776
0.008087933
0.01094544
0.03000122
-0.01063584
0.01052501
-0.0003925951
0.001851372
0.0009113991
0.001614023
0.001893451
-0.000908702
-3.18297e-05
6.734353e-05
0.000868652
4.535985e-06
-0.01131004
-0.0004567782
0.002551215
0.003573234
0.003541823
0.003298041
-0.01007947
0.008881976
-0.00115637
-0.004428726
0.005902759
2.970035e-05
0.004182552
-0.001387717
-0.001303928
-0.00183827
0.0001115138
-0.004854953
0.004675535
-0.0002226108
-0.0005181259
0.0002727638
0.0002648795
0.0002709982
9.912382e-05
-0.002094907
0.008886272
0.0004794799
-0.0001739545
-0.002547276
-0.002099458
-0.002549281
0.03726958
-0.0002514555
0.000345147
-0.0009261889
0.001495658
-0.000550791
-7.016076e-05
-0.008325286
-0.01030894
-0.008603957
-0.01007361
0.03664449
0.0001780424
0.0001163196
-0.001400589
0.00152672
-5.240637e-05
0.0002570022
0.03701926
-0.0004293666
7.509999e-05
-0.001482114
0.001500242
-0.0001229959
8.437268e-05
0.03719291
-0.0002648066
9.576957e-05
-0.001494027
0.001510342
-0.0001365859
0.0001156519
0.0374983
-0.0003326565
4.845041e-05
-0.001500509
0.001520036
-0.0001402976
9.958699e-05
0.0377905
-0.0003184368
3.67103e-05
-0.001505906
0.001530104
-0.0001391887
0.0001045142
0.03814275
-0.0003668843
2.329604e-05
-0.001512722
0.001540973
-0.0001395021
0.0001025934
-0.0004342416
2.095685e-05
-0.001521927
-0.0001444169
0.03857222
0.001551891
9.827012e-05
-0.0003427197
-0.0003306974
0.009632103
-0.0004582763
-0.0003414652
0.0004417827
-0.0004401466
0.0005076623
0.0003392977
-0.00042627
0.00034994
0.04090205
-0.0002618914
0.0006672049
-0.000301859
0.0006183591
-0.0003003961
0.0006618425
-0.01017189
-0.01042065
-0.01041337
-0.01019008
0.04283365
-0.001471
0.0001495172
0.04295623
-0.0003454756
0.0002074825
0.04335634
-0.0008133098
-7.608469e-05
0.04356166
-0.000573656
4.946257e-05
0.04386663
-0.0006672008
3.06708e-06
0.04418443
-0.0006718171
1.519971e-05
0.04455339
-0.0007579487
-4.972346e-06
-0.0008910249
-1.125886e-05
0.04499476
-0.0005202619
0.0001946624
0.009774783
-0.0001483773
-0.0008397999
0.0006356746
-0.0004167269
0.0007020224
0.04285235
-0.0005267432
0.004248473
-0.01079874
-0.01090477
-0.01100447
-0.01130343
0.04354153
-0.001491682
0.000844584
0.04302446
-0.0006129932
0.001188467
0.04330927
-0.001117347
7.472956e-05
0.04348889
-0.0008914824
0.0002077381
0.04374703
-0.0009942595
6.718842e-05
0.04402486
-0.0009866412
3.166617e-05
0.04432701
-0.001070485
-3.703657e-06
-0.001212841
-1.841316e-05
0.04464906
-0.0004692478
0.0002108813
0.009998684
-0.0001736258
-0.001183855
0.0007401572
-0.0003672583
0.000826734
0.04189426
-0.001040731
0.006073314
-0.01111201
-0.01107183
-0.01047655
-0.01166901
0.04303524
-0.001770553
0.0006133616
0.04259881
-0.001095249
0.001620381
0.04289114
-0.001413738
5.610237e-05
0.04308201
-0.001232859
0.0002418467
0.04330728
-0.001275348
6.700857e-05
0.04354769
-0.001246291
2.957895e-05
0.04375225
-0.001268903
-1.065159e-05
-0.001353975
-1.3279e-05
0.04390509
-0.0004418945
0.0002399279
0.01002822
-0.0001879468
-0.001359966
0.0007872012
-0.0003404469
0.0008809721
0.04192176
-0.001730794
0.006993573
-0.01118509
-0.01113387
-0.01045462
-0.01178639
0.04301613
-0.002021386
0.0006652654
0.04245206
-0.001586063
0.001979112
0.04268532
-0.001725713
0.0001193959
0.04286864
-0.00157312
0.0002768055
0.0430703
-0.001576324
9.506244e-05
0.04326459
-0.001471467
4.237802e-05
0.0433667
-0.001377351
-4.134119e-06
-0.001313689
-9.091869e-06
0.04333204
-0.0004174806
0.0002376811
0.01003752
-0.0001861139
-0.001471273
0.0008191754
-0.0003207456
0.0009070475
0.04198976
-0.002174658
0.007007751
-0.01121529
-0.01116158
-0.0104639
-0.01177149
0.04307243
-0.002233115
0.0005466846
0.04238974
-0.002041826
0.002106175
0.0426092
-0.002080257
0.0001897025
0.04278997
-0.001960051
0.0003290813
0.04299769
-0.001872869
8.782837e-05
0.04319333
-0.00169257
3.694352e-05
0.04324555
-0.001417999
-1.23733e-05
-0.001099045
-1.297326e-05
0.04304679
-0.0003991322
0.0002472505
0.01000529
-0.0001888202
-0.001519014
0.0008374448
-0.0003082754
0.0009310231
0.04195051
-0.0025648
0.00705247
-0.01120457
-0.01116314
-0.01047404
-0.01174556
0.04305688
-0.002441438
0.0004847098
0.04237889
-0.002468998
0.002142798
0.0425908
-0.002478727
0.0002575892
0.04280606
-0.002400321
0.0003362702
0.04309769
-0.002258057
7.19268e-05
0.04337152
-0.001992097
3.673479e-05
0.04347595
-0.001506485
-1.265072e-05
-0.0008240679
-1.907512e-05
0.04322031
-0.000388029
0.0002420151
0.009938781
-0.0002001115
-0.001467243
0.0008428546
-0.0003043813
0.0009418978
0.04198409
-0.002681282
0.006672372
-0.01113433
-0.0111004
-0.01047007
-0.01164661
0.04304666
-0.002630431
0.0004880809
0.04236968
-0.00278998
0.002041276
0.04259623
-0.002922193
0.0003033453
0.04289195
-0.002929523
0.0003413887
0.04337622
-0.002820024
5.907793e-05
0.04386044
-0.002485461
2.048522e-05
0.0440936
-0.001715303
-2.355025e-05
-0.0006066053
-3.511064e-05
0.043904
-0.0003752024
0.0002670462
0.009881266
-0.000234286
-0.00142403
0.0008478085
-0.0003016086
0.0009447996
0.04201044
-0.002611761
0.006363077
-0.01107278
-0.01107422
-0.01047665
-0.01162662
0.04290434
-0.002902908
0.0006008189
0.04227453
-0.003083317
0.00197718
0.04260139
-0.003429689
0.0002823174
0.04306586
-0.003611579
0.0003320026
0.04380532
-0.003626788
4.482486e-05
0.04462092
-0.003300653
1.988505e-05
0.04519828
-0.002253239
-3.142665e-05
-0.0005723974
-4.81558e-05
0.04520682
-0.000368588
0.0002923742
0.009861839
-0.0002621704
-0.001397953
0.0008458865
-0.0003027439
0.0009371598
0.04178481
-0.002621601
0.006462152
-0.01106156
-0.01107459
-0.0104761
-0.01161441
0.04262239
-0.003127033
0.000619753
0.04199724
-0.00339711
0.001976245
0.04243503
-0.004043501
0.0002750349
0.04312788
-0.004503049
0.0003051369
0.04431776
-0.004848526
1.382517e-05
0.04577554
-0.004730523
-2.087358e-05
0.04685027
-0.003269863
-5.98017e-05
-0.0009280902
-9.224389e-05
0.04726388
-0.0003680604
0.0003195097
0.009856419
-0.0002683949
-0.001410769
0.0008446089
-0.0003034905
0.0009359821
0.04146056
-0.002605663
0.006782558
-0.01106566
-0.01108449
-0.01047928
-0.01166428
0.04222379
-0.003199201
0.0005036716
0.04153148
-0.003669984
0.002033663
0.04209116
-0.004704014
0.000195022
0.04309127
-0.005675167
0.0002586191
0.04490261
-0.006631275
-7.236021e-05
0.04734702
-0.007083045
-4.258751e-05
0.0493525
-0.005191093
-8.521575e-05
-0.001591437
-6.96092e-05
0.05008456
-0.0003684016
0.0003214819
0.009882247
-0.0002532468
-0.001455928
0.0008478066
-0.0003064273
0.0009382723
0.04103277
-0.002242104
0.006660319
-0.01104127
-0.01104711
-0.01045148
-0.01167947
0.04162008
-0.002953268
0.000430002
0.04068762
-0.003785625
0.002081142
0.04127388
-0.005329041
0.0001166706
0.04252936
-0.007030524
0.0001142102
0.04522641
-0.009294685
-0.0002327596
0.0494442
-0.0112805
-0.0002725307
0.05254765
-0.008251034
-4.988294e-05
-0.00289255
-0.0001824263
0.05391859
-0.0003845295
0.0003013176
0.009939539
-0.0002077345
-0.00151647
0.0008495769
-0.0003110502
0.0009351599
0.04038909
-0.001649799
0.007225418
-0.01103236
-0.01105468
-0.01043403
-0.01174146
0.04068806
-0.002328142
0.0003185676
0.03939308
-0.003603422
0.002117691
0.03979211
-0.005713042
-1.226744e-05
0.04124771
-0.008554657
-4.119586e-05
0.04479677
-0.01291918
-0.0006158088
0.05175556
-0.005235245
4.427449e-05
-0.004166128
-0.005020533
-0.004003141
0.05798252
-0.005354633
8.0188e-05
-0.001969327
-0.005152245
-0.001941862
-0.001224286
0.0003331409
-0.001200178
0.05829071
-0.0003834927
-0.0001236663
-0.0004250639
0.0002219931
0.01002107
-7.907891e-05
-0.001492663
0.0008228923
-0.0003445029
0.0008811675
0.03953003
-0.0004635163
0.007193856
-0.01100838
-0.01100198
-0.01045506
-0.01152467
0.03927964
-0.001379091
0.0004068685
0.03739393
-0.002784575
0.002081689
0.03703641
-0.005181042
-0.0002071122
0.03750702
-0.009019648
-0.0003340058
0.01019262
-0.01482573
-0.001180981
0.009630454
0.009862188
0.009399296
0.0002049446
0.01102022
-0.00611327
-0.0001545125
0.0001200252
0.01653032
-4.695296e-05
-0.01300602
-0.001871568
-0.002630907
-0.001881667
-0.002567862
-0.01624967
9.543975e-05
-0.0003850461
-9.000725e-05
0.01540499
-0.0004481062
5.98056e-06
0.009955407
0.0001775602
-0.001314791
0.0007739399
-0.0003815304
0.0008373548
0.03864814
0.001407898
0.006696197
-0.0108541
-0.01080699
-0.01019972
-0.01152188
0.03777594
0.0004989946
0.0002124048
0.03458446
-0.0007974976
0.002097601
0.03231422
-0.002830795
-0.0001085791
0.02957784
-0.006160442
-0.0003709462
0.007408433
-0.01101682
-0.001183776
0.005425505
0.007179504
0.005189451
0.0002906634
0.006674812
-0.005928684
-0.000151029
0.001480009
0.001789448
0.001522852
0.001730362
-1.203556e-06
0.000959971
-0.0004976188
0.00048369
-0.0009459093
1.070393e-06
-0.0003812468
-0.00029927
0.009925233
0.0004262266
-0.001166029
0.0007712964
-0.0004211914
0.0007507951
0.03784628
0.00314568
0.007505914
-0.01089914
-0.01075571
-0.01094753
-0.01100052
0.03625583
0.003035017
0.0002117869
0.03231176
0.001950552
0.002058917
0.02885232
0.0008256758
-0.0002518044
0.0240678
-0.001152693
-0.0005923284
0.004535174
-0.003979917
-0.001155407
0.003955065
0.004357097
0.00388701
0.0001170401
0.004340369
0.002968863
-0.002839602
-5.149585e-05
0.0003366167
0.001560944
-0.002707752
3.313412e-05
-0.0007862156
-0.0001468362
0.001710108
-0.0003855838
-0.0005298011
0.009721689
0.0006354585
-0.0006008182
0.000619936
-0.0003963356
0.0005412699
0.03755173
0.005386586
0.006080588
-0.01073336
-0.01059391
-0.01119644
-0.01025889
0.03548304
0.005829797
0.0003674715
0.03104968
0.005360233
0.001699659
0.02687244
0.005194261
-0.0002365143
0.02121744
0.004608659
-0.000384551
0.0034754
0.003609735
-0.001089383
0.003292883
0.003463736
0.003289593
3.703533e-05
0.001628783
0.00218787
-0.0004569164
7.862851e-05
3.891355e-06
0.001577427
-0.0008938328
-0.0005450283
-5.767815e-05
-8.477899e-05
-0.000418773
-0.0008035843
0.009661868
0.0009207984
-0.0001629197
0.000475944
-0.0004230894
0.0003555702
0.03744084
0.008026345
0.005576702
-0.01069158
-0.0104759
-0.01083542
-0.01040799
0.03524669
0.00871598
0.000346531
0.0306883
0.008992845
0.001433318
0.02624445
0.009815089
-0.0002375037
0.02017522
0.01076465
-0.0005011376
0.002920009
0.01166544
-0.0008042058
0.003126843
0.002869001
0.003006577
-2.448034e-05
-0.0007164219
0.001647759
0.001836156
0.000176996
-7.926514e-05
-0.0003477388
-0.0005855356
0.001025637
-5.234905e-06
-7.862458e-06
-0.0004657163
-0.00109455
0.009570126
0.001156968
0.0002578368
0.0003748142
-0.0004554958
0.0002618266
0.03810751
0.01055049
0.004779685
-0.01061055
-0.01034718
-0.01072624
-0.01043024
0.0358351
0.01144456
0.0004617236
0.03139001
0.01249433
0.001301385
0.02708629
0.01427663
-0.0002340971
0.02115344
0.01673291
-0.0004429053
0.003048166
0.01967151
-0.0006247869
0.003557152
0.002935816
0.003207915
-6.953068e-05
-0.00302984
0.001759779
0.004096065
0.0002916927
-0.0001505835
-0.001742744
-0.0006692175
0.002526994
2.320029e-06
3.323184e-05
-0.0004777865
-0.001323331
0.009540556
0.001382271
0.00035637
0.0003468073
-0.0004605076
0.0002414297
0.03877317
0.01261897
0.004653849
-0.01055671
-0.01033055
-0.0106887
-0.01034918
0.03703232
0.0137194
0.0004080845
0.03308941
0.01544842
0.001265205
0.02936448
0.01812637
-0.0002248389
0.02407979
0.02214586
-0.0007611552
0.003676181
0.02736331
-0.0004375915
0.00441955
0.0034122
0.004211221
-9.448059e-05
-0.005280164
0.002384747
0.006280362
0.0003857157
-0.0002004316
-0.003505165
-0.001127958
0.004705736
4.674739e-05
8.107113e-05
-0.0004887532
-0.001530861
0.009560105
0.001551315
0.0004271361
0.0003229062
-0.000463517
0.0002274735
0.03959777
0.01401978
0.004547492
-0.01059179
-0.0103782
-0.01069131
-0.01040269
0.03871335
0.01520414
0.0003198083
0.03582001
0.0174151
0.001260459
0.0332001
0.02091014
-0.0002683116
0.02906259
0.02626174
-0.0004855463
0.004725143
0.03473006
-0.001113675
0.006073276
0.004479562
0.005745746
0.0001994879
-0.007862166
0.002699977
0.009862265
-0.0001744213
-0.0002152129
0.0002189658
-0.006242434
-0.0002717805
0.0006524953
0.002795809
0.003062158
-0.0004921651
-0.001644477
0.009609765
0.001630395
0.00042959
0.0003145348
-0.0004632397
0.0002213974
0.04092721
0.004716485
-0.01074061
-0.01051701
-0.01082681
-0.01054131
0.01445306
0.04110152
0.0003188067
0.01566445
0.03964171
0.001307431
0.01792841
0.03921586
-0.0001631341
0.02146155
0.0385317
-0.0005060658
0.02687368
0.00801414
-0.001208555
0.01080491
0.007743815
0.01062048
0.03518607
0.0002746488
0.006746901
0.01276144
-7.590182e-05
-0.01169294
-7.720087e-05
-0.0006992741
-0.003287103
0.003964163
9.941573e-05
-0.0004925423
-0.001687595
0.009662826
0.0004322508
0.0003137256
-0.0004632969
0.0002221438
0.001618288
-0.01228762
0.0002280207
0.01443321
-0.0001086184
-0.01331059
0.01104559
-0.001148452
-9.125699e-05
-0.005106778
0.006115995
7.058868e-05
0.00448018
-0.00159869
-0.001133468
-0.00158812
0.002159747
0.0003934908
-0.005400709
-0.0003279677
-0.001961174
0.0002954062
-0.002211291
-0.005383509
-0.00592205
-0.005771632
0.003207351
0.02092234
-0.002104782
-2.998423e-05
0.008862969
0.0005431095
4.077302e-06
-0.002582158
-0.002122948
-0.002570284
0.03757586
0.0001573111
0.0002117036
-0.008690127
-0.01014204
-0.008714884
-0.01005268
0.03641232
0.00101965
0.0002602103
0.03677193
-0.0002998952
1.539158e-05
0.03696767
-0.0001633399
6.336039e-05
0.03728423
-0.0002968604
2.875692e-05
0.03759021
-0.0002932603
2.399045e-05
0.03794952
-0.0003498961
1.38768e-05
-0.0004198931
1.144147e-05
0.03837893
-0.0005545355
5.556845e-05
0.0100108
-0.0004986889
-5.990744e-05
0.0004569493
-0.0004663302
0.0004497147
0.04049291
0.003626557
0.0007228172
-0.0008141809
7.104487e-05
-0.0008018272
9.15563e-05
-0.01062461
-0.01096421
-0.01077977
-0.01035308
0.04260292
-0.001558637
-0.0002445451
0.04272641
0.0007667904
0.0003368497
0.04308958
-0.0006991485
-4.000578e-05
0.04331507
-0.0004030465
6.367842e-05
0.04358738
-0.0005722943
6.191914e-06
0.04390564
-0.0006132493
1.693706e-05
0.04427672
-0.0007243539
-1.602511e-06
-0.0008665884
-4.953167e-06
0.04471711
0.0384556
-0.003147958
-0.002592491
-0.0004289369
0.001199132
-0.001111147
0.001301806
-0.0003299301
0.001759651
-0.000946179
0.001415959
0.04102567
0.002195492
0.00310947
0.04166547
-0.001662692
0.0003088391
0.04247403
8.230545e-05
0.001064391
0.04281175
-0.001056535
9.439673e-05
0.0432917
-0.0008301888
0.0001549266
0.04369614
-0.0009467878
3.724056e-05
0.04405748
-0.000957834
1.491494e-05
0.04440301
-0.001062678
-1.090381e-05
-0.00121046
-1.900021e-05
0.04474746
0.03943709
-0.002346536
-0.005045206
-0.0009026051
0.001611958
-0.0009892331
0.001638964
0.04075046
0.000327731
0.006627705
0.04159827
-0.002118659
0.0002215211
0.04249916
-0.000734131
0.001535923
0.04274074
-0.001393793
0.0001517769
0.04319357
-0.001216161
0.0001749933
0.04355835
-0.00126487
2.030845e-05
0.04386575
-0.001229168
-6.479279e-06
0.04410113
-0.001273871
-3.484675e-05
-0.00136655
-2.713101e-05
0.04427108
0.04093721
-0.001775927
-0.006499363
-0.0008964269
0.001737597
-0.0008235243
0.001904605
0.04069589
-0.0006816973
0.008244321
0.04129423
-0.002292191
0.0002404666
0.04213995
-0.001352179
0.001751433
0.04231008
-0.001689633
0.0002451091
0.04279138
-0.001616052
0.0001953994
0.04324619
-0.001642028
1.740223e-05
0.04355527
-0.001497625
1.764112e-06
0.04372644
-0.001416358
-3.281709e-05
-0.001341664
-2.677288e-05
0.04371923
0.04177064
-0.001425854
-0.007132912
-0.000945782
0.001741325
-0.0008058675
0.001993232
0.04080946
-0.001249147
0.008536382
0.04134463
-0.002455352
0.0001746717
0.04222679
-0.001905142
0.00177698
0.04250017
-0.002045613
0.0002723084
0.04293776
-0.002009864
0.0002853011
0.04329853
-0.001979365
6.440036e-05
0.04357069
-0.001743318
1.0472e-05
0.04363988
-0.001464295
-3.362392e-05
-0.0011337
-3.113598e-05
0.04345008
0.04218542
-0.001266311
-0.007690427
-0.0009126764
0.001820002
-0.0007367276
0.002144766
0.04071138
-0.00170902
0.008986382
0.04115871
-0.002575274
0.0001573024
0.04215154
-0.002391056
0.001635883
0.04255182
-0.002432471
0.0002441718
0.04301869
-0.002448751
0.0003082806
0.04341516
-0.002372764
6.885662e-05
0.04375147
-0.002054064
1.117772e-05
0.04388015
-0.001570122
-3.550703e-05
-0.0008677928
-3.439883e-05
0.04362957
0.0425889
-0.001220953
-0.0076328
-0.00102358
0.001721081
-0.0008107712
0.002081139
0.04060895
-0.002174591
0.009117892
0.0409846
-0.002756285
0.0002934446
0.04202444
-0.002840285
0.001450661
0.04268343
-0.002920881
0.0001327678
0.04325052
-0.002963798
0.0002893457
0.04376788
-0.002907641
7.659334e-05
0.04427872
-0.002547199
2.782855e-06
0.0445136
-0.001784675
-4.388346e-05
-0.0006674729
-4.881176e-05
0.04432699
0.0429183
-0.001177909
-0.008120284
-0.001014508
0.001775183
-0.0007880785
0.002155512
0.04069765
-0.002609783
0.009018924
0.04094519
-0.002913141
0.0005101345
0.04187616
-0.003171611
0.00137754
0.04260673
-0.003445494
7.635391e-05
0.04338608
-0.00367133
0.0002601929
0.04417393
-0.003731401
8.073272e-05
0.04504301
-0.003390262
-6.130274e-06
0.04561894
-0.002342355
-4.96759e-05
-0.0006694356
-6.529722e-05
0.04563804
0.04276283
-0.001159968
-0.007786606
-0.001053632
0.001750067
-0.0008350259
0.002113592
0.04049179
-0.002861193
0.008984604
0.04077296
-0.003085207
0.0005106452
0.04168521
-0.003490439
0.001382828
0.04249443
-0.004054545
7.48658e-05
0.04348049
-0.004581905
0.0002296554
0.04467252
-0.00494495
3.533713e-05
0.04616961
-0.004867304
-4.091418e-05
0.04727861
-0.00343011
-8.104786e-05
-0.001118897
-0.0001012467
0.04773707
0.04213503
-0.001125051
-0.007548144
-0.0009648989
0.001869277
-0.0007654492
0.002208454
0.04001236
-0.002744462
0.008788495
0.04029883
-0.003092241
0.0002242367
0.04120343
-0.003786273
0.0014249
0.04204277
-0.00473473
3.586552e-05
0.04328832
-0.005730927
0.0001620948
0.04512411
-0.006798892
-5.421631e-05
0.04762705
-0.007320157
-9.267504e-05
0.0496643
-0.005456276
-9.629921e-05
-0.001896515
-8.536867e-05
0.05045767
0.04208708
-0.001100244
-0.007459502
-0.000958384
0.001877002
-0.0007658605
0.00216407
0.03963836
-0.002321951
0.008686527
0.0398024
-0.002976318
0.0001500419
0.04047217
-0.003874351
0.001499441
0.04107007
-0.005263987
4.803321e-05
0.0424919
-0.007042217
3.675747e-06
0.04531846
-0.009600955
-0.0002572555
0.04938967
-0.01144746
-0.0002164405
0.05247655
-0.00853025
-6.279856e-05
-0.003490371
-0.0001451702
0.05403315
0.04131531
-0.0007692821
-0.007473834
-0.0008192165
0.002000146
-0.000638033
0.002253836
0.03888336
-0.001721621
0.009057045
0.03880309
-0.002537612
-3.987659e-05
0.03913882
-0.003653459
0.001561074
0.03955529
-0.005639506
-5.321891e-05
0.04115555
-0.008518488
-0.0001651891
0.04450203
-0.01304676
-0.0005164854
0.05117148
-0.005072064
-9.437825e-05
-0.00401569
-0.004934943
-0.003955558
0.05695142
-0.005152988
-2.177549e-05
-0.00198782
-0.005087168
-0.001980251
-0.001360231
0.0002330717
-0.001365107
0.0569646
-0.0004000468
-0.0002781
0.04206283
0.0004761627
-0.008910252
-0.0008136648
0.001963169
-0.0006558847
0.002077466
0.03862913
-0.0004903474
0.009396282
0.03760845
-0.001187097
7.70333e-05
0.03720961
-0.002636571
0.001463643
0.03665715
-0.005052277
-0.0002418847
0.03729347
-0.009097242
-0.000391565
0.01005686
-0.01490443
-0.000821262
0.009523521
0.009815811
0.009395225
0.000138632
0.01080549
-0.005872951
-8.637571e-05
9.796738e-05
0.01612871
-4.161715e-05
-0.01267758
-0.001806214
-0.002540171
-0.001813201
-0.002500877
-0.01564514
0.0001559626
-0.0004445453
-7.550845e-05
0.014649
0.0413483
0.001929623
-0.008451697
-0.0008546993
0.001835678
-0.0005094111
0.002147447
0.03775225
0.001206217
0.008595686
0.03605115
0.0008457944
-0.0001193832
0.03478405
-0.0007493949
0.001477522
0.03254849
-0.002774652
-0.0001506522
0.02966061
-0.006192545
-0.0003877619
0.007384206
-0.01098314
-0.0007356693
0.005300236
0.00730909
0.005297676
2.617156e-05
0.006465528
-0.005586076
-1.687396e-05
0.001502166
0.001752795
0.00150435
0.001736145
-3.453107e-06
0.0009489467
-0.0004945453
0.0004849311
-0.0009385611
2.681626e-06