/*--------------------------------*- C++ -*----------------------------------*\
  =========                 |
  \\      /  F ield         | OpenFOAM: The Open Source CFD Toolbox
   \\    /   O peration     | Website:  https://openfoam.org
    \\  /    A nd           | Version:  7
     \\/     M anipulation  |
\*---------------------------------------------------------------------------*/
FoamFile
{
    version     2.0;
    format      ascii;
    class       volVectorField;
    location    "0.05";
    object      U;
}
// * * * * * * * * * * * * * * * * * * * * * * * * * * * * * * * * * * * * * //

dimensions      [0 1 -1 0 0 0 0];

internalField   nonuniform List<vector> 
105127
(
(-0.9641051 0.3836967 -0.009215614)
(-0.7907312 0.4317428 0.01973618)
(-0.7049385 0.4499284 0.01027954)
(-0.6458395 0.4512862 0.008430479)
(-0.5989621 0.4525527 0.008122372)
(-1.162717 0.2231092 -0.05230698)
(-1.04811 0.2965704 0.002293527)
(-0.9566849 0.3230608 -0.001817498)
(-0.8835404 0.341243 -0.003594949)
(-0.8225596 0.3549702 -0.004136597)
(-1.075221 0.1989759 -0.02457989)
(-0.9968707 0.2881723 0.01707287)
(-0.9259215 0.3386318 0.01177685)
(-0.8634791 0.370319 0.009935434)
(-0.8087166 0.3933001 0.0083758)
(-0.9809444 0.1341696 -0.02323619)
(-0.9319864 0.2087336 0.0145289)
(-0.8818445 0.2590256 0.008707059)
(-0.831658 0.2979158 0.005878885)
(-0.7857514 0.3256431 0.005027649)
(-0.9028724 0.1107087 -0.02108707)
(-0.8733065 0.1793014 0.01303569)
(-0.8369507 0.2307323 0.007905874)
(-0.7970233 0.2700191 0.005754418)
(-0.7591404 0.3010543 0.004872158)
(-0.841739 0.08589715 -0.01930829)
(-0.8204688 0.1433453 0.0136964)
(-0.7934297 0.1890989 0.008958323)
(-0.7620342 0.2267944 0.007145884)
(-0.7306119 0.2582612 0.006257189)
(-0.7890441 0.07278287 -0.01809417)
(-0.7733667 0.1232493 0.01343842)
(-0.7527951 0.1652886 0.008841718)
(-0.7281729 0.2016818 0.007304754)
(-0.7017895 0.2319088 0.006463024)
(-0.7441819 0.06152423 -0.01701108)
(-0.731729 0.1052966 0.01328461)
(-0.7156345 0.143 0.008797687)
(-0.6954297 0.1766497 0.007383541)
(-0.6737132 0.205662 0.006753992)
(-0.7047731 0.0536235 -0.01603347)
(-0.6945166 0.09236393 0.01306188)
(-0.6816887 0.1265551 0.008743529)
(-0.6649286 0.1577235 0.007407809)
(-0.6471667 0.1856346 0.006966945)
(-0.6699112 0.04719403 -0.01518108)
(-0.6611269 0.08165674 0.01281365)
(-0.6506848 0.1127051 0.008660402)
(-0.6366137 0.1414421 0.007416349)
(-0.6214522 0.1676515 0.006978298)
(-0.6386948 0.0420708 -0.01442157)
(-0.6309522 0.07303653 0.01255018)
(-0.6223062 0.1014186 0.008584068)
(-0.6102342 0.1278903 0.007403917)
(-0.59723 0.1523898 0.006973571)
(-0.6105147 0.03782206 -0.01375655)
(-0.6036925 0.06588964 0.01235637)
(-0.5962795 0.09184387 0.008488697)
(-0.5857967 0.1162838 0.007366942)
(-0.5745299 0.1391792 0.006963139)
(-0.5849057 0.0342606 -0.0131497)
(-0.5788168 0.05987467 0.01217248)
(-0.5723365 0.08367494 0.008390246)
(-0.5631596 0.1063171 0.007310599)
(-0.5532769 0.1276967 0.006945996)
(-0.5614972 0.03122325 -0.01259977)
(-0.5559671 0.05471008 0.01198473)
(-0.5502051 0.07658586 0.008282603)
(-0.5421261 0.09767687 0.007243652)
(-0.5333877 0.1176033 0.00691245)
(-0.5400051 0.0286162 -0.01209457)
(-0.534872 0.05021319 0.0117805)
(-0.529853 0.07043324 0.008227864)
(-0.5225471 0.09005184 0.007165648)
(-0.5147079 0.1086498 0.006865114)
(-0.5201908 0.02632761 -0.01163416)
(-0.5153976 0.04628054 0.01157317)
(-0.5109505 0.06501976 0.008251929)
(-0.5042765 0.08327118 0.007074279)
(-0.4971833 0.1006795 0.006806071)
(-0.5018607 0.02430881 -0.01120579)
(-0.4973673 0.04280325 0.01136909)
(-0.4933583 0.06024812 0.008368339)
(-0.4872131 0.07722742 0.006973399)
(-0.4807715 0.09353586 0.006738782)
(-0.484843 0.02251092 -0.01081146)
(-0.480596 0.0397033 0.01117086)
(-0.4769572 0.05602699 0.00841039)
(-0.4712816 0.07179853 0.006868774)
(-0.4654183 0.08710646 0.00666542)
(-0.4690057 0.02089327 -0.01044258)
(-0.4649445 0.03691162 0.01097767)
(-0.4616458 0.05218148 0.00831136)
(-0.4564811 0.06689029 0.006783098)
(-0.4510247 0.08126797 0.006585153)
(-0.4542425 0.01942996 -0.01010132)
(-0.4503382 0.03437458 0.01078995)
(-0.4473368 0.04863316 0.008198169)
(-0.4427013 0.06243433 0.006721784)
(-0.4375138 0.07591157 0.006499952)
(-0.4404646 0.01809865 -0.009781448)
(-0.4367008 0.03205863 0.01060659)
(-0.4339511 0.0453586 0.008087487)
(-0.4297492 0.05834615 0.006666459)
(-0.4248088 0.0709729 0.006416621)
(-0.4275901 0.01688136 -0.00948532)
(-0.4239529 0.02993578 0.01042741)
(-0.4214142 0.04235735 0.007980176)
(-0.4175845 0.05457189 0.006617392)
(-0.412862 0.06640457 0.006338239)
(-0.4155512 0.01575914 -0.009206339)
(-0.412029 0.02797591 0.01025431)
(-0.4096837 0.03961222 0.007876382)
(-0.4061369 0.05105664 0.006566916)
(-0.4016856 0.06218048 0.006282548)
(-0.3777162 0.01313728 -0.009222716)
(-0.3903055 0.02515402 -0.01906465)
(-0.3943341 0.03587145 -0.02161203)
(-0.395398 0.04779407 0.006606945)
(-0.3912545 0.05827398 0.006243766)
(-0.9809084 0.4092354 -0.01992881)
(-0.808742 0.4705696 -0.00277428)
(-0.7286576 0.4679522 -0.007192534)
(-0.6709026 0.4687195 -0.006381175)
(-0.6228306 0.4694909 -0.006104888)
(-1.286266 0.103549 -0.005811572)
(-1.158609 0.2222249 -0.04153736)
(-1.025919 0.2916264 -0.04160605)
(-0.9363115 0.3249002 -0.03709909)
(-0.863248 0.3474994 -0.0368587)
(-0.8045289 0.3624886 -0.03808223)
(-1.101974 0.07408689 -0.0003333996)
(-1.014859 0.2338584 0.01162951)
(-0.950677 0.301111 0.01861782)
(-0.8918249 0.350112 0.02476408)
(-0.8359552 0.3820229 0.02676439)
(-0.7863421 0.4060672 0.02986861)
(-0.999886 0.03793256 -0.003203179)
(-0.9618105 0.1386382 -0.01422469)
(-0.9049794 0.201015 -0.009586062)
(-0.8598945 0.2449777 -0.01147076)
(-0.8107457 0.2799555 -0.01162596)
(-0.7671583 0.307351 -0.01159507)
(-0.9083398 0.03199197 -0.0027998)
(-0.8805486 0.1270819 -0.001592855)
(-0.8460843 0.1854639 0.006525552)
(-0.814573 0.2332527 0.007933187)
(-0.7775325 0.2702329 0.00833729)
(-0.7420416 0.2999475 0.008512549)
(-0.8414392 0.02287548 -0.003346429)
(-0.8284462 0.09386207 -0.007662153)
(-0.7997093 0.1438955 -0.002256073)
(-0.7756863 0.1860099 -0.002726026)
(-0.7446841 0.2214182 -0.003026394)
(-0.7147716 0.2510467 -0.002603578)
(-0.7865345 0.01931745 -0.003512541)
(-0.7752003 0.08230802 -0.004792037)
(-0.7544798 0.1272438 0.0009986749)
(-0.7367629 0.1671486 0.00119656)
(-0.7121934 0.2012185 0.001130202)
(-0.6875527 0.2304099 0.001372841)
(-0.740118 0.01572869 -0.003714251)
(-0.7324388 0.06858963 -0.005460061)
(-0.7154386 0.1080352 -0.0003880504)
(-0.7018113 0.1438233 -0.0004770245)
(-0.6815155 0.1755092 -0.0008045189)
(-0.6608476 0.2034285 -0.0006703923)
(-0.6997715 0.0135016 -0.003803266)
(-0.6935128 0.06027138 -0.00479928)
(-0.6797208 0.09563968 0.000117721)
(-0.6692428 0.128423 0.0002200411)
(-0.6525092 0.1579877 -0.0001272263)
(-0.6351864 0.1845347 -7.544176e-05)
(-0.6643283 0.01163945 -0.003869884)
(-0.6593825 0.05292057 -0.004657942)
(-0.6476961 0.0846297 -2.089876e-05)
(-0.639487 0.1144421 6.431579e-05)
(-0.6254316 0.1418053 -0.0003196433)
(-0.6107588 0.1667976 -0.0003698721)
(-0.6327373 0.0102209 -0.003902979)
(-0.62862 0.04726302 -0.004406508)
(-0.6185546 0.07596129 5.96018e-05)
(-0.6120733 0.1032546 0.0001779779)
(-0.6001468 0.1286139 -0.0001877411)
(-0.5876284 0.1520952 -0.0003030304)
(-0.6043214 0.009061144 -0.003919411)
(-0.6008515 0.04251128 -0.004225998)
(-0.5920083 0.0686037 7.315416e-05)
(-0.5868448 0.09363608 0.0002013108)
(-0.576596 0.1171373 -0.000147355)
(-0.565824 0.1391381 -0.0003212042)
(-0.5785601 0.008110252 -0.003922429)
(-0.5755751 0.03854545 -0.004053835)
(-0.5676922 0.06239535 0.0001005284)
(-0.5635486 0.08543981 0.0002348604)
(-0.5546456 0.1072562 -9.108131e-05)
(-0.5452982 0.1278569 -0.0002841782)
(-0.5550605 0.007313685 -0.003914722)
(-0.5524542 0.03515676 -0.003899766)
(-0.5453389 0.05704507 0.0001193829)
(-0.541991 0.07832943 0.0002537813)
(-0.5341823 0.0986072 -5.493338e-05)
(-0.5260066 0.1178914 -0.0002460869)
(-0.533505 0.006636168 -0.003899568)
(-0.5312077 0.03222817 -0.003757069)
(-0.5247146 0.05239471 0.0001354903)
(-0.5219912 0.07212008 0.000280663)
(-0.515088 0.09098595 -2.391279e-05)
(-0.5078775 0.1090457 -0.0002079006)
(-0.5136479 0.006051837 -0.003878289)
(-0.5116037 0.02966628 -0.003625035)
(-0.5056175 0.04831452 0.0001486404)
(-0.5034035 0.06664949 0.0003208472)
(-0.4972608 0.08421085 1.059947e-05)
(-0.4908446 0.1011372 -0.0001674537)
(-0.4952892 0.005542962 -0.003852978)
(-0.493454 0.02739931 -0.003503394)
(-0.4878816 0.0446945 0.000155468)
(-0.4860984 0.06174298 0.000360909)
(-0.4806037 0.07814382 4.337363e-05)
(-0.4748384 0.09401709 -0.0001342384)
(-0.4782679 0.00509364 -0.003825208)
(-0.4766086 0.02537351 -0.003393288)
(-0.4714068 0.04145031 0.0001498232)
(-0.4699569 0.05728608 0.0003525366)
(-0.4649897 0.07267437 7.456558e-05)
(-0.4597931 0.08756623 -0.0001089423)
(-0.4624487 0.004693766 -0.003794888)
(-0.4609418 0.02355378 -0.003293649)
(-0.4560857 0.03852664 0.000135561)
(-0.4548754 0.05327865 0.0002994379)
(-0.4503281 0.06771536 0.0001028788)
(-0.4456474 0.08169217 -8.818408e-05)
(-0.4477174 0.004335259 -0.00376298)
(-0.4463397 0.02190899 -0.00320085)
(-0.4417859 0.03587619 0.0001222662)
(-0.4407684 0.04967206 0.0002538312)
(-0.43658 0.06318838 0.0001263491)
(-0.4323481 0.07631431 -6.986938e-05)
(-0.4339769 0.004013107 -0.003730145)
(-0.4327105 0.02041109 -0.003112053)
(-0.4284153 0.03345545 0.0001168478)
(-0.4275627 0.04637733 0.0002365769)
(-0.423689 0.05903166 0.0001391303)
(-0.419837 0.07136187 -5.711823e-05)
(-0.4211433 0.003722399 -0.003695428)
(-0.4199743 0.0190369 -0.003025633)
(-0.4159033 0.03123056 0.0001182293)
(-0.415193 0.04333383 0.0002396933)
(-0.4115972 0.05519035 0.0001489355)
(-0.4080656 0.06677882 -4.817032e-05)
(-0.4091431 0.003457077 -0.003659259)
(-0.408064 0.01777087 -0.002942093)
(-0.404193 0.02917621 0.0001219099)
(-0.4036034 0.0405145 0.0002475633)
(-0.4002455 0.05164493 0.0001642155)
(-0.3969858 0.06252395 -3.695803e-05)
(-0.397443 0.002831569 0.00409274)
(-0.3969181 0.01659513 -0.002861388)
(-0.3932285 0.02726822 0.000125944)
(-0.3927273 0.03789298 0.0002520718)
(-0.3895893 0.04831938 0.0001929428)
(-0.3865762 0.05855291 -2.278478e-05)
(-0.9926127 0.4128342 -0.01003001)
(-0.8297645 0.4128353 0.004582055)
(-0.7396759 0.4256798 0.005499411)
(-0.6786954 0.4576978 0.01108381)
(-0.6290519 0.4654192 0.01151808)
(-1.296441 0.1056065 0.0009748497)
(-1.162004 0.2270432 -0.003165842)
(-1.035772 0.2890643 -0.01246865)
(-0.9457321 0.3223816 -0.01616655)
(-0.8695245 0.3463316 -0.01734075)
(-0.80935 0.3619792 -0.01863314)
(-1.098322 0.07556846 0.002391538)
(-1.012312 0.2274395 0.008532716)
(-0.9533206 0.3067873 0.009563906)
(-0.8920427 0.3589003 0.01197013)
(-0.8374763 0.39175 0.01289856)
(-0.7872392 0.4133476 0.0137351)
(-1.00592 0.0376653 0.002649022)
(-0.9640877 0.1350443 0.003501863)
(-0.9123033 0.1963531 7.973441e-05)
(-0.8607819 0.241917 0.0003104702)
(-0.8115405 0.278855 -0.001290747)
(-0.7665513 0.3075913 -0.0009713221)
(-0.9060464 0.03107898 0.002312138)
(-0.8788939 0.1253251 0.006039729)
(-0.8506733 0.1853965 0.003219639)
(-0.8147496 0.2325121 0.003758823)
(-0.7795613 0.2714446 0.003099059)
(-0.7423372 0.3000479 0.002685241)
(-0.8433256 0.02188312 0.001907952)
(-0.8285316 0.09240333 0.004114053)
(-0.8047675 0.1426318 0.000335865)
(-0.7763152 0.1846747 0.0005911315)
(-0.7461817 0.2206496 -8.499355e-05)
(-0.7149949 0.2504396 -2.799522e-06)
(-0.785625 0.01850456 0.001712868)
(-0.7748063 0.08142255 0.004010804)
(-0.7590259 0.1272325 0.0009159435)
(-0.7371776 0.1668272 0.001574161)
(-0.7135668 0.201328 0.0009737404)
(-0.6879928 0.2303246 0.001057469)
(-0.7399371 0.01501564 0.001487616)
(-0.7324347 0.06776339 0.003403687)
(-0.7199544 0.1077044 0.000230894)
(-0.7022279 0.1432522 0.0007056471)
(-0.6827185 0.1751307 0.0001041013)
(-0.6611642 0.2030709 0.0001918097)
(-0.6991995 0.01289441 0.001367145)
(-0.6934364 0.05970677 0.003256601)
(-0.6839982 0.09561664 0.0003354186)
(-0.6696053 0.1282194 0.0008219563)
(-0.6536245 0.1579211 0.0002668932)
(-0.6354912 0.1844532 0.0003489626)
(-0.6638246 0.01111071 0.001247801)
(-0.6593785 0.05240634 0.003038039)
(-0.6518433 0.0845563 0.0002194818)
(-0.63986 0.1141981 0.0006451242)
(-0.6264789 0.1416468 9.765684e-05)
(-0.6110159 0.166647 0.0001675291)
(-0.6321963 0.009758262 0.001154646)
(-0.628615 0.04684474 0.00291268)
(-0.6225542 0.07595164 0.0002183759)
(-0.6124407 0.1031005 0.0006206904)
(-0.6011357 0.1285346 9.615483e-05)
(-0.5878504 0.152014 0.0001604698)
(-0.6037948 0.008650115 0.001072929)
(-0.6008604 0.04213588 0.002792619)
(-0.5958844 0.06859373 0.0002002429)
(-0.5872138 0.09349815 0.00057002)
(-0.5775413 0.1170599 6.374676e-05)
(-0.5660114 0.1390514 0.0001180474)
(-0.578054 0.007742242 0.001002301)
(-0.5755879 0.03820909 0.002691184)
(-0.5714496 0.06239884 0.000196255)
(-0.5639176 0.08533209 0.0005404166)
(-0.5555569 0.107199 5.177702e-05)
(-0.5454625 0.1277854 9.806676e-05)
(-0.5545856 0.006980768 0.0009385131)
(-0.5524679 0.03484698 0.002598035)
(-0.5489846 0.0570573 0.0001945746)
(-0.5423619 0.078235 0.0005152302)
(-0.5350655 0.09855888 4.154547e-05)
(-0.5261528 0.1178289 8.068366e-05)
(-0.533074 0.006332904 0.0008803387)
(-0.531217 0.0319403 0.002511792)
(-0.5282566 0.05241237 0.0001981148)
(-0.5223688 0.07202265 0.0004927924)
(-0.5159426 0.09094418 3.439275e-05)
(-0.5080132 0.1089909 6.887046e-05)
(-0.5132656 0.005774045 0.0008270599)
(-0.5116088 0.02939749 0.002431053)
(-0.5090728 0.04832992 0.0002019418)
(-0.5037867 0.06653476 0.0004628754)
(-0.4980782 0.08417512 2.899075e-05)
(-0.4909721 0.1010863 5.944797e-05)
(-0.4949591 0.005287582 0.0007784467)
(-0.4934572 0.02715081 0.002353928)
(-0.4912689 0.04471068 0.0002029236)
(-0.4864835 0.06165083 0.000420649)
(-0.4813729 0.07811603 2.539313e-05)
(-0.4749627 0.09397349 4.98802e-05)
(-0.4779883 0.004859871 0.0007342665)
(-0.4766064 0.0251478 0.002283216)
(-0.4747052 0.04147381 0.0002035853)
(-0.4703446 0.05726583 0.0004029988)
(-0.4657387 0.07265292 2.369371e-05)
(-0.4599182 0.08753074 4.294491e-05)
(-0.4622155 0.004480385 0.0006943962)
(-0.4609286 0.02334671 0.002219185)
(-0.4592674 0.03855409 0.0002071977)
(-0.4552697 0.0532975 0.0004160049)
(-0.4510926 0.06769638 2.238252e-05)
(-0.4457748 0.08166151 3.708966e-05)
(-0.4475274 0.004141211 0.0006578528)
(-0.4463169 0.02171556 0.002159107)
(-0.4448581 0.03590165 0.0002102011)
(-0.4411706 0.04968122 0.000426475)
(-0.4373603 0.06317007 1.887733e-05)
(-0.4324754 0.07628422 3.104434e-05)
(-0.4338263 0.003835439 0.0006244006)
(-0.4326797 0.02022873 0.002102026)
(-0.4313935 0.03347743 0.0002128897)
(-0.4279707 0.04636813 0.0004280872)
(-0.4244753 0.05901642 1.581854e-05)
(-0.4199652 0.07133522 2.467178e-05)
(-0.4210316 0.003557942 0.0005929498)
(-0.4199382 0.01886579 0.002047094)
(-0.4188005 0.03125094 0.0002147877)
(-0.4156042 0.04331767 0.0004224738)
(-0.4123802 0.05518119 1.279071e-05)
(-0.4081973 0.06675659 1.896794e-05)
(-0.4090743 0.003305518 0.0005637638)
(-0.4080233 0.01760975 0.001995071)
(-0.4070133 0.02919638 0.0002167448)
(-0.4040138 0.04049826 0.0004180568)
(-0.4010246 0.05162648 1.44009e-05)
(-0.3971261 0.06250194 1.57449e-05)
(-0.39758 0.00285575 0.0004767294)
(-0.3968753 0.01644664 0.001942562)
(-0.3959754 0.02729142 0.0002169043)
(-0.3931504 0.03788061 0.0004109132)
(-0.3903663 0.04831947 4.617963e-06)
(-0.3867155 0.05853261 1.148654e-05)
(-0.9945971 0.4122911 -0.008513863)
(-0.8297267 0.416362 0.0005136234)
(-0.7422484 0.4207279 0.000854718)
(-0.679795 0.4259386 0.0009749477)
(-0.6287955 0.4280782 0.0009645251)
(-1.327474 0.1016918 -0.001022962)
(-1.173443 0.2249267 -0.008307187)
(-1.039231 0.2853014 -0.0130821)
(-0.9462648 0.3200093 -0.01548682)
(-0.8697366 0.3444687 -0.01620647)
(-0.8092901 0.3607036 -0.01569664)
(-1.102289 0.07763761 0.0008101134)
(-1.007646 0.2297534 0.001635181)
(-0.950526 0.2977879 0.001979484)
(-0.8892826 0.3506769 0.004232472)
(-0.8346598 0.3854288 0.005562852)
(-0.7845121 0.4072865 0.005547093)
(-1.011511 0.03793111 0.0005651422)
(-0.9636459 0.133229 -0.002281976)
(-0.9085697 0.1922003 0.0008652913)
(-0.8595396 0.2388171 0.001796874)
(-0.810085 0.2766891 0.001567784)
(-0.7653597 0.3053269 0.001251107)
(-0.9113175 0.03206722 0.0008119046)
(-0.8764784 0.1241991 8.466912e-05)
(-0.8477383 0.1837952 0.001527319)
(-0.8149665 0.2339198 0.002243474)
(-0.7782013 0.2709337 0.002670559)
(-0.7421884 0.3005732 0.002795226)
(-0.8470355 0.02177181 0.0004884669)
(-0.8287175 0.09181391 -0.0003414977)
(-0.8039881 0.1414877 -6.180458e-05)
(-0.7765255 0.1833819 -0.0003749355)
(-0.7454981 0.2190794 0.0001022101)
(-0.7148347 0.248901 -3.494469e-05)
(-0.7898057 0.01852498 0.0004037945)
(-0.7747976 0.08169735 -0.0005548755)
(-0.7576758 0.1272778 0.0003105995)
(-0.7370838 0.1673253 0.0002098271)
(-0.7129274 0.2014543 0.0005663513)
(-0.6877493 0.2306186 0.0006490694)
(-0.7433697 0.01496674 0.0003161324)
(-0.7327241 0.06790985 -0.0007785001)
(-0.718883 0.1075577 -0.0001246454)
(-0.7023046 0.1431132 -0.0003555101)
(-0.682237 0.1748085 -0.0001105023)
(-0.6609938 0.20271 -0.0001056643)
(-0.7024967 0.01288843 0.0002778338)
(-0.6936717 0.05998259 -0.0007610812)
(-0.6828885 0.09573698 -5.987065e-05)
(-0.6696577 0.1284254 -0.0002510143)
(-0.6531839 0.1580154 -3.423245e-05)
(-0.6353321 0.184531 -1.349191e-05)
(-0.6667714 0.0110978 0.000248183)
(-0.6596541 0.0526265 -0.0007688123)
(-0.6508009 0.08462386 -0.0001124175)
(-0.6399451 0.1142935 -0.000320429)
(-0.6261031 0.1416599 -0.0001361536)
(-0.6109013 0.166619 -0.0001446091)
(-0.6348979 0.009750763 0.0002268229)
(-0.6288854 0.04705799 -0.000741616)
(-0.6215342 0.07604954 -9.335926e-05)
(-0.6125254 0.1032326 -0.0002954354)
(-0.6007938 0.1286095 -0.0001217974)
(-0.587766 0.1520594 -0.0001413228)
(-0.6062601 0.008641824 0.0002076556)
(-0.6011357 0.04232423 -0.0007178226)
(-0.5948937 0.0686774 -8.358699e-05)
(-0.5873026 0.09360813 -0.0002847434)
(-0.5772296 0.1171224 -0.0001208638)
(-0.5659584 0.1390912 -0.0001540655)
(-0.58031 0.007732738 0.0001906999)
(-0.5758633 0.03838025 -0.0006926338)
(-0.570482 0.06247672 -6.783085e-05)
(-0.564005 0.08543509 -0.0002655223)
(-0.5552645 0.1072615 -0.0001072699)
(-0.5454315 0.1278352 -0.0001459241)
(-0.5566492 0.006969541 0.0001756997)
(-0.5527446 0.0350025 -0.0006693431)
(-0.5480392 0.05712636 -5.362265e-05)
(-0.5424477 0.07832924 -0.0002487926)
(-0.5347868 0.09861561 -9.529759e-05)
(-0.5261383 0.1178779 -0.0001365589)
(-0.5349594 0.006320711 0.0001624255)
(-0.5314946 0.03208294 -0.0006474847)
(-0.5273302 0.05247485 -4.015733e-05)
(-0.522452 0.0721133 -0.0002311204)
(-0.5156762 0.09099755 -8.335654e-05)
(-0.5080096 0.1090389 -0.00012553)
(-0.5149898 0.005761607 0.0001505032)
(-0.5118868 0.0295284 -0.0006274404)
(-0.5081615 0.04838606 -2.768847e-05)
(-0.503866 0.06662032 -0.000212476)
(-0.4978245 0.08422444 -7.024285e-05)
(-0.4909778 0.1011316 -0.0001128357)
(-0.4965364 0.005274791 0.0001396934)
(-0.4937358 0.02727031 -0.0006093969)
(-0.4903718 0.0447582 -1.740308e-05)
(-0.4865586 0.06172268 -0.0001963446)
(-0.4811308 0.0781599 -5.85141e-05)
(-0.4749731 0.09401402 -0.0001016154)
(-0.4794333 0.004846687 0.0001296545)
(-0.4768882 0.02525628 -0.0005933146)
(-0.4738273 0.04151201 -1.060965e-05)
(-0.4704141 0.05731996 -0.0001865861)
(-0.4655012 0.07269029 -4.929286e-05)
(-0.4599297 0.08756635 -9.238592e-05)
(-0.4635422 0.004467153 0.000120469)
(-0.4612158 0.02344638 -0.0005789021)
(-0.4584122 0.03858603 -6.132369e-06)
(-0.4553326 0.05334067 -0.0001803824)
(-0.4508546 0.06772915 -4.129352e-05)
(-0.4457853 0.08169386 -8.443122e-05)
(-0.4487467 0.004127852 0.0001120438)
(-0.4466093 0.02180841 -0.0005656732)
(-0.4440252 0.03593107 -2.776931e-06)
(-0.4412274 0.04972188 -0.0001755435)
(-0.4371203 0.06319947 -3.480866e-05)
(-0.4324834 0.07631439 -7.771904e-05)
(-0.4349493 0.003822414 0.0001044551)
(-0.4329763 0.02031622 -0.0005527884)
(-0.4305805 0.03350646 1.236941e-06)
(-0.4280226 0.04640927 -0.0001694534)
(-0.4242352 0.05904307 -2.828658e-05)
(-0.4199709 0.07136399 -7.120641e-05)
(-0.4220664 0.003545485 9.741549e-05)
(-0.4202379 0.01894851 -0.0005401036)
(-0.4180043 0.03127919 6.336038e-06)
(-0.4156522 0.04335913 -0.0001616514)
(-0.4121416 0.05520623 -2.156003e-05)
(-0.4081999 0.06678358 -6.640108e-05)
(-0.4100261 0.00329316 9.138293e-05)
(-0.4083257 0.01768806 -0.0005276865)
(-0.4062326 0.02922211 1.17871e-05)
(-0.4040573 0.04053669 -0.0001540736)
(-0.4007872 0.05165068 -1.302917e-05)
(-0.3971258 0.06252935 -6.243135e-05)
(-0.397773 0.002841087 3.43432e-05)
(-0.3971803 0.01651844 -0.0005154853)
(-0.3952093 0.02731188 1.816503e-05)
(-0.3931872 0.03791208 -0.0001462049)
(-0.3901279 0.04833786 -2.474406e-06)
(-0.3867114 0.05855885 -6.108598e-05)
(-0.9937337 0.4181698 -0.002170495)
(-0.8304732 0.4112387 0.000475866)
(-0.7424133 0.4207373 0.0002759468)
(-0.6798868 0.4263526 0.0001508556)
(-0.629039 0.4288654 7.192567e-05)
(-1.32142 0.1011771 -0.0003186978)
(-1.174634 0.2274761 0.0001417524)
(-1.042181 0.286339 -0.0005331458)
(-0.9481876 0.32152 -0.000733974)
(-0.8699926 0.3453501 -0.0005914907)
(-0.809029 0.361094 -0.000431845)
(-1.100137 0.07752471 0.0003455692)
(-1.005849 0.2287308 0.0009140782)
(-0.9494869 0.2967623 0.0003802937)
(-0.8900499 0.3379639 6.377093e-05)
(-0.8342289 0.3719885 4.112832e-05)
(-0.7836854 0.398345 0.0001243885)
(-1.010344 0.03804602 0.0004605001)
(-0.9620133 0.1320433 0.001338217)
(-0.9063962 0.1909172 0.0008204447)
(-0.857161 0.23738 0.0009815159)
(-0.809992 0.273625 0.0006690217)
(-0.7657935 0.3018495 0.0004061758)
(-0.9096768 0.03225229 0.0005085961)
(-0.8751138 0.1207128 0.0009678037)
(-0.8485535 0.1842299 0.0006857781)
(-0.8144182 0.2317348 0.001103593)
(-0.7786427 0.2691786 0.0007827589)
(-0.7424719 0.2991257 0.000967064)
(-0.8455089 0.02152088 0.0004116551)
(-0.8283512 0.09117257 0.00153967)
(-0.804603 0.1409863 0.000175257)
(-0.77622 0.1826703 0.000727385)
(-0.7458982 0.2182184 0.0001814999)
(-0.7150292 0.2479614 0.0003438387)
(-0.7886999 0.0183784 0.0003146616)
(-0.7742997 0.08105129 0.00117996)
(-0.7580407 0.1272165 0.0003206715)
(-0.7369452 0.1668918 0.000652898)
(-0.7131833 0.2011407 0.0003184061)
(-0.6878109 0.2302717 0.0003896913)
(-0.7424441 0.01489729 0.0002641283)
(-0.7323671 0.06764382 0.001057766)
(-0.7193261 0.1073926 0.0001999376)
(-0.7022487 0.1428392 0.0004875276)
(-0.6825311 0.174549 0.0001676742)
(-0.6610748 0.2024169 0.000215213)
(-0.7016731 0.01284176 0.0002380585)
(-0.6933282 0.05979892 0.0009738119)
(-0.6832957 0.09568891 0.0002020122)
(-0.6696208 0.128308 0.0004617605)
(-0.6534571 0.1579317 0.0001771958)
(-0.635406 0.1844309 0.0002156556)
(-0.6660284 0.01106308 0.0002206925)
(-0.6593525 0.05250044 0.0009137808)
(-0.6512144 0.08457687 0.0001720879)
(-0.6399289 0.1142029 0.0004115078)
(-0.6263736 0.141588 0.0001408207)
(-0.6109752 0.1665328 0.0001717883)
(-0.6342109 0.00972422 0.0002092955)
(-0.6286018 0.04696238 0.0008696834)
(-0.6219367 0.07603039 0.000161247)
(-0.6125158 0.1031833 0.0003885486)
(-0.6010545 0.1285806 0.0001313563)
(-0.5878361 0.1520209 0.000161372)
(-0.6056173 0.008619573 0.0002000573)
(-0.6008689 0.04224468 0.0008323596)
(-0.5952889 0.06866496 0.0001501129)
(-0.5872992 0.09357101 0.0003652848)
(-0.5774824 0.1171024 0.0001186029)
(-0.5660248 0.139062 0.0001474869)
(-0.5797036 0.007713435 0.000192096)
(-0.5756085 0.03831177 0.0008000533)
(-0.5708678 0.06247114 0.0001420841)
(-0.5640053 0.08540857 0.000347069)
(-0.5555091 0.107251 0.0001098959)
(-0.5454947 0.1278166 0.0001372197)
(-0.5560739 0.006952248 0.0001850421)
(-0.5524996 0.03494135 0.0007709067)
(-0.5484153 0.05712402 0.0001354769)
(-0.5424511 0.07830764 0.0003316547)
(-0.5350246 0.09860869 0.0001028517)
(-0.5261991 0.1178635 0.0001291454)
(-0.5344133 0.006304813 0.0001784543)
(-0.5312577 0.03202741 0.0007442637)
(-0.5276971 0.05247441 0.0001301846)
(-0.5224583 0.07209387 0.0003176736)
(-0.5159069 0.09099282 9.680964e-05)
(-0.5080687 0.1090277 0.0001221808)
(-0.5144694 0.00574712 0.0001722594)
(-0.5116575 0.02947705 0.0007195813)
(-0.5085205 0.0483861 0.0001254689)
(-0.5038751 0.06660136 0.0003034107)
(-0.4980475 0.08422132 9.082716e-05)
(-0.491035 0.1011222 0.0001148278)
(-0.4960395 0.005261441 0.0001664879)
(-0.4935137 0.02722309 0.000696461)
(-0.490724 0.04475902 0.0001210457)
(-0.4865697 0.06170693 0.0002892822)
(-0.4813457 0.07815811 8.547601e-05)
(-0.475029 0.09400569 0.0001078463)
(-0.4789573 0.004834245 0.0001611552)
(-0.4766721 0.02521326 0.0006750379)
(-0.4741709 0.04151417 0.0001171672)
(-0.4704271 0.05731035 0.0002788404)
(-0.465711 0.07268991 8.142673e-05)
(-0.4599855 0.08755923 0.0001021227)
(-0.4630855 0.004455516 0.0001562223)
(-0.4610045 0.02340695 0.0006552892)
(-0.4587454 0.0385892 0.0001141964)
(-0.4553475 0.05333532 0.0002716062)
(-0.451062 0.06772939 7.836854e-05)
(-0.4458416 0.08168685 9.736187e-05)
(-0.4483075 0.004116994 0.0001517171)
(-0.4464024 0.0217719 0.0006367677)
(-0.4443485 0.03593482 0.0001112767)
(-0.4412445 0.04971757 0.0002646098)
(-0.4373263 0.06320109 7.497883e-05)
(-0.4325404 0.07630822 9.263292e-05)
(-0.4345264 0.003812166 0.0001474351)
(-0.4327733 0.02028254 0.0006190675)
(-0.4308946 0.03351103 0.0001083122)
(-0.4280413 0.04640553 0.0002573979)
(-0.4244398 0.05904577 7.152e-05)
(-0.4200292 0.07135677 8.816269e-05)
(-0.4216585 0.003535892 0.0001433082)
(-0.420038 0.01891751 0.0006017281)
(-0.4183104 0.03128506 0.0001046347)
(-0.4156724 0.04335639 0.0002486126)
(-0.4123463 0.05521307 6.67319e-05)
(-0.4082622 0.06677557 8.3312e-05)
(-0.4096327 0.003284065 0.0001399131)
(-0.4081281 0.01765959 0.0005845331)
(-0.4065313 0.02923032 0.0001000694)
(-0.4040774 0.04053537 0.0002392343)
(-0.4009923 0.05166135 6.206826e-05)
(-0.3971909 0.06251709 7.963988e-05)
(-0.3973845 0.002838798 0.0001254998)
(-0.3969827 0.01649224 0.0005673021)
(-0.3955012 0.02732279 9.441012e-05)
(-0.3932076 0.03791049 0.0002293159)
(-0.3903376 0.04835906 5.342333e-05)
(-0.3867901 0.05854174 7.67854e-05)
(-0.9906339 0.4159076 0.0004292457)
(-0.8260365 0.444629 -0.002122848)
(-0.7406316 0.4587297 -0.001230882)
(-0.6812167 0.4643366 -0.0004127748)
(-0.6317535 0.4668878 -1.242252e-05)
(-1.322952 0.1009291 3.448255e-05)
(-1.173257 0.2270165 0.002432356)
(-1.039913 0.2874671 0.006408281)
(-0.9460435 0.3224149 0.009932331)
(-0.8696781 0.346722 0.01174836)
(-0.8094051 0.3626852 0.01184526)
(-1.100047 0.0771481 1.131005e-05)
(-1.00783 0.2271101 -0.001751753)
(-0.9507626 0.2948186 -0.001248244)
(-0.8898246 0.3453427 -0.001703787)
(-0.8348086 0.3812069 -0.002369114)
(-0.7845321 0.4043655 -0.002482183)
(-1.011041 0.03813164 9.894943e-06)
(-0.9627026 0.1323026 -0.001054629)
(-0.9082757 0.19112 -0.001722938)
(-0.8594396 0.2376396 -0.003254469)
(-0.8105978 0.2753698 -0.003121536)
(-0.7659965 0.3032319 -0.002701853)
(-0.9102055 0.03235669 -3.71791e-05)
(-0.8752985 0.1210737 -0.001276386)
(-0.8486635 0.1843195 -0.001293502)
(-0.8146096 0.2326454 -0.001740768)
(-0.7788003 0.2709595 -0.001628195)
(-0.7419607 0.2999621 -0.001582147)
(-0.8460072 0.02139492 -3.136563e-05)
(-0.8284933 0.09130961 -0.001661347)
(-0.8047336 0.1411199 -0.0003987098)
(-0.7764547 0.1829045 -0.001013953)
(-0.7459184 0.2186272 -0.0005429198)
(-0.7148426 0.2482967 -0.0005803894)
(-0.7890852 0.01837808 -1.471858e-05)
(-0.7743858 0.08116041 -0.00129654)
(-0.7581071 0.1273186 -0.0005054611)
(-0.7370296 0.1670992 -0.0008573237)
(-0.713223 0.2014496 -0.0005599489)
(-0.6877989 0.2304934 -0.0006123612)
(-0.7427664 0.01489792 -3.383687e-06)
(-0.7324182 0.06769319 -0.001106184)
(-0.7193649 0.1074561 -0.0002792823)
(-0.7022911 0.1429329 -0.0005817352)
(-0.682545 0.1746739 -0.0002767322)
(-0.6610656 0.202536 -0.0003119717)
(-0.7019519 0.01284176 8.74054e-07)
(-0.6933581 0.05982848 -0.001010556)
(-0.6833182 0.09572708 -0.0002605392)
(-0.6696418 0.1283639 -0.0005301594)
(-0.6534678 0.1580013 -0.0002563835)
(-0.6354083 0.184495 -0.0002931801)
(-0.6662783 0.01106168 3.458823e-06)
(-0.6593687 0.05251603 -0.0009337266)
(-0.6512269 0.08459929 -0.000204114)
(-0.6399401 0.1142336 -0.0004495695)
(-0.6263792 0.1416248 -0.0001850986)
(-0.6109776 0.1665705 -0.0002167967)
(-0.6344391 0.009722688 4.237837e-06)
(-0.6286111 0.04697069 -0.0008832948)
(-0.6219441 0.07604278 -0.0001833584)
(-0.6125221 0.1031998 -0.0004150243)
(-0.6010579 0.1286002 -0.0001625596)
(-0.5878381 0.1520411 -0.0001938404)
(-0.6058276 0.008618118 4.538799e-06)
(-0.6008744 0.04224924 -0.0008410013)
(-0.5952932 0.06867198 -0.0001642687)
(-0.5873028 0.09358021 -0.0003823575)
(-0.5774845 0.1171135 -0.0001391747)
(-0.5660264 0.1390735 -0.0001692206)
(-0.5798988 0.007711712 4.474481e-06)
(-0.5756117 0.03831419 -0.000805932)
(-0.5708704 0.06247488 -0.0001519135)
(-0.5640076 0.08541344 -0.0003589265)
(-0.5555104 0.1072569 -0.0001243333)
(-0.5454958 0.1278229 -0.0001525595)
(-0.556256 0.006950338 4.223278e-06)
(-0.5525016 0.03494268 -0.0007749191)
(-0.548417 0.05712621 -0.0001423455)
(-0.5424526 0.0783104 -0.0003396407)
(-0.5350253 0.09861205 -0.0001127831)
(-0.5261997 0.1178672 -0.0001398641)
(-0.5345837 0.006303112 3.834448e-06)
(-0.5312591 0.03202813 -0.0007470637)
(-0.5276983 0.05247564 -0.0001351498)
(-0.5224594 0.07209561 -0.0003233695)
(-0.5159073 0.09099507 -0.0001037951)
(-0.508069 0.10903 -0.0001297928)
(-0.5146295 0.005745538 3.463881e-06)
(-0.5116585 0.02947741 -0.0007216241)
(-0.5085213 0.04838683 -0.0001291489)
(-0.5038757 0.06660244 -0.0003077759)
(-0.4980476 0.0842228 -9.600932e-05)
(-0.4910349 0.1011238 -0.0001203183)
(-0.4961905 0.005259935 3.076353e-06)
(-0.4935144 0.02722315 -0.0006979865)
(-0.4907245 0.0447593 -0.0001237819)
(-0.48657 0.06170728 -0.0002924062)
(-0.4813455 0.07815903 -8.900482e-05)
(-0.4750285 0.09400688 -0.0001116964)
(-0.4791001 0.00483282 2.67725e-06)
(-0.4766729 0.02521295 -0.0006763723)
(-0.4741713 0.04151401 -0.000119445)
(-0.470427 0.05731026 -0.0002815487)
(-0.4657103 0.07269067 -8.406904e-05)
(-0.4599842 0.08756054 -0.0001050806)
(-0.463221 0.004454129 2.312952e-06)
(-0.4610056 0.02340609 -0.0006565041)
(-0.4587458 0.03858826 -0.0001160181)
(-0.4553469 0.0533345 -0.0002739984)
(-0.4510605 0.06772959 -7.982665e-05)
(-0.4458391 0.08168834 -9.953714e-05)
(-0.4484365 0.004115536 1.938988e-06)
(-0.446404 0.02177022 -0.0006381505)
(-0.4443491 0.03593256 -0.0001130144)