/*--------------------------------*- C++ -*----------------------------------*\
  =========                 |
  \\      /  F ield         | OpenFOAM: The Open Source CFD Toolbox
   \\    /   O peration     | Website:  https://openfoam.org
    \\  /    A nd           | Version:  7
     \\/     M anipulation  |
\*---------------------------------------------------------------------------*/
FoamFile
{
    version     2.0;
    format      ascii;
    class       volScalarField;
    location    "0.06";
    object      epsilon;
}
// * * * * * * * * * * * * * * * * * * * * * * * * * * * * * * * * * * * * * //

dimensions      [0 2 -3 0 0 0 0];

internalField   nonuniform List<scalar> 
86107
(
0.0009361845
0.0009569238
0.0009638684
0.0009656432
0.0009662192
0.0009664489
0.0009665168
0.0009665161
0.0009569648
0.0009979554
0.001011001
0.001014585
0.001015683
0.001016048
0.001016139
0.001016158
0.0009639315
0.001011032
0.001027545
0.001032275
0.00103374
0.001034187
0.00103425
0.001034223
0.0009657581
0.001014695
0.00103237
0.001037647
0.001039293
0.001039733
0.001039684
0.001039521
0.0009664257
0.001015935
0.00103401
0.001039479
0.001041127
0.001041387
0.001040999
0.001040442
0.0009668025
0.001016513
0.001034704
0.001040159
0.001041536
0.001041096
0.001039562
0.0010377
0.0009670789
0.001016854
0.001035028
0.0010403
0.001040972
0.001037781
0.001031775
0.001025745
0.0009673158
0.001017094
0.001035171
0.001040099
0.001039603
0.001031902
0.001004985
0.0009940764
0.0009675397
0.001017301
0.001035251
0.001039769
0.001037936
0.001025997
0.0009932589
0.002136573
0.000967758
0.001017499
0.001035331
0.001039495
0.001036524
0.001020443
0.0009688658
0.002025407
0.008438352
0.0009679811
0.001017721
0.001035484
0.001039463
0.001035939
0.001017935
0.0009641665
0.00201074
0.0009682204
0.001017985
0.001035751
0.001039744
0.001036281
0.001018528
0.0009652682
0.002015062
0.0009684822
0.001018303
0.001036151
0.001040365
0.001037671
0.001022881
0.0009771197
0.002029697
0.0009687711
0.001018674
0.001036664
0.001041254
0.001039748
0.00102919
0.001002486
0.002124159
0.0009690832
0.001019078
0.001037225
0.001042224
0.001041954
0.001035158
0.001011455
0.001005754
0.0009694183
0.001019502
0.001037789
0.001043121
0.001043908
0.001041082
0.001036015
0.001031372
0.0009697716
0.001019935
0.001038323
0.001043868
0.001045305
0.00104499
0.001043716
0.001042311
0.0009701433
0.001020372
0.001038825
0.001044479
0.001046201
0.001046497
0.001046178
0.001045781
0.0009705359
0.001020816
0.001039302
0.001045002
0.001046813
0.001047276
0.001047215
0.001047109
0.0009709467
0.001021259
0.00103975
0.00104545
0.001047275
0.001047772
0.001047774
0.001047737
0.0009713751
0.001021694
0.001040156
0.001045815
0.001047602
0.001048074
0.001048063
0.001048026
0.0009718071
0.001022091
0.001040472
0.001046031
0.001047724
0.001048116
0.001048051
0.001047981
0.00097223
0.001022434
0.001040664
0.001046043
0.001047553
0.00104779
0.001047609
0.001047484
0.002027121
0.002055126
0.00207094
0.002075107
0.002076579
0.002077573
0.002078311
0.00207879
0.002026807
0.01118177
0.01118103
0.01118083
0.01118103
0.01118115
0.01118138
0.01118164
0.01118188
0.002054972
0.01118195
0.0111822
0.01118156
0.01118162
0.0111817
0.01118187
0.01118205
0.01118225
0.002070845
0.01118213
0.0111824
0.01118256
0.01118261
0.01118263
0.01118275
0.01118285
0.01118295
0.002075136
0.01118231
0.0111826
0.01118278
0.01118295
0.01118298
0.01118312
0.01118324
0.01118336
0.002076811
0.0111825
0.0111828
0.011183
0.01118321
0.01118342
0.01118361
0.01118383
0.01118399
0.002078184
0.01118269
0.01118301
0.01118323
0.01118348
0.01118376
0.01118403
0.01118445
0.01118483
0.002079509
0.01118289
0.01118321
0.01118346
0.01118375
0.01118411
0.01118451
0.01118534
0.01118605
0.002080815
0.01118306
0.01118338
0.01118364
0.01118397
0.01118443
0.01118477
0.01118592
0.01118931
0.002082112
0.01118322
0.01118354
0.01118378
0.01118409
0.01118457
0.01118398
0.01118285
0.01120453
0.002083412
0.01118335
0.01118365
0.01118382
0.01118401
0.01118424
0.01118258
0.01118112
0.01121308
0.006919527
0.002084712
0.01118351
0.01118379
0.01118389
0.01118396
0.01118377
0.01118175
0.01117774
0.01107457
0.00208602
0.01118372
0.01118398
0.01118407
0.01118412
0.01118401
0.01118177
0.011179
0.0111051
0.002087371
0.01118398
0.01118426
0.01118438
0.0111845
0.01118423
0.01118153
0.01117586
0.01119244
0.002088804
0.01118428
0.0111846
0.01118478
0.01118498
0.01118523
0.01118036
0.01117851
0.01119312
0.002090348
0.01118461
0.01118497
0.01118519
0.01118545
0.01118573
0.01118377
0.01117863
0.01117841
0.002092015
0.01118498
0.01118537
0.01118561
0.01118589
0.01118609
0.01118478
0.011184
0.01118013
0.002093801
0.01118538
0.0111858
0.01118603
0.01118631
0.01118659
0.01118678
0.01118692
0.01118721
0.002095722
0.01118582
0.01118625
0.01118648
0.01118674
0.01118698
0.01118709
0.01118731
0.0111874
0.00209778
0.01118632
0.01118675
0.01118696
0.01118718
0.01118735
0.01118751
0.01118769
0.01118791
0.002099993
0.01118688
0.01118732
0.0111875
0.01118767
0.01118776
0.01118781
0.01118786
0.011188
0.002102375
0.01118755
0.01118801
0.01118814
0.01118824
0.0111882
0.01118811
0.01118805
0.0111881
0.002104944
0.01118838
0.01118887
0.01118897
0.01118899
0.0111888
0.01118847
0.01118821
0.01118812
0.002108704
0.01118943
0.01118997
0.01119008
0.01119001
0.01118956
0.01118892
0.01118836
0.01118809
0.002044388
0.0009750492
0.0009906868
0.0009966179
0.000998122
0.0009985888
0.0009987761
0.0009988722
0.00204379
0.01118421
0.01116714
0.01116843
0.01116852
0.01116978
0.01117122
0.01117318
0.0111755
0.0009748965
0.01118188
0.01118454
0.01118473
0.01118488
0.01118501
0.01118511
0.01118517
0.0111852
0.0009906432
0.01118209
0.01118477
0.01118494
0.0111851
0.01118525
0.01118536
0.01118544
0.01118548
0.0009966096
0.01118227
0.01118496
0.01118515
0.01118533
0.01118551
0.01118566
0.01118578
0.01118585
0.0009981965
0.01118247
0.01118517
0.01118538
0.01118559
0.01118581
0.01118603
0.01118623
0.01118639
0.0009987917
0.01118266
0.01118538
0.01118561
0.01118587
0.01118615
0.01118647
0.01118685
0.01118721
0.0009991543
0.01118285
0.01118558
0.01118583
0.01118613
0.0111865
0.01118698
0.01118774
0.01118845
0.0009994385
0.01118302
0.01118575
0.01118602
0.01118635
0.01118681
0.01118756
0.01118908
0.01119174
0.0009996945
0.01118318
0.01118591
0.01118616
0.01118647
0.01118695
0.01118779
0.01119036
0.01120425
0.0009999428
0.01118333
0.01118602
0.0111862
0.01118638
0.01118663
0.01118718
0.01118964
0.01121212
0.006927334
0.001000193
0.01118349
0.01118615
0.01118626
0.01118633
0.01118631
0.01118634
0.0111867
0.01107292
0.001000458
0.01118369
0.01118635
0.01118644
0.01118649
0.01118644
0.01118637
0.01118677
0.01110595
0.001000741
0.01118394
0.01118662
0.01118675
0.01118687
0.01118695
0.01118728
0.01118857
0.01119129
0.001001043
0.01118425
0.01118696
0.01118715
0.01118735
0.01118762
0.01118804
0.01118921
0.01119271
0.001001363
0.01118458
0.01118733
0.01118756
0.01118781
0.0111881
0.01118855
0.01118933
0.01119027
0.001001701
0.01118496
0.01118773
0.01118799
0.01118827
0.01118858
0.01118902
0.01118967
0.01119043
0.00100206
0.01118536
0.01118815
0.01118842
0.0111887
0.01118898
0.01118932
0.01118974
0.01119018
0.001002439
0.01118581
0.01118861
0.01118887
0.01118913
0.01118937
0.01118963
0.01118993
0.01119025
0.001002842
0.0111863
0.01118911
0.01118935
0.01118957
0.01118974
0.01118992
0.01119011
0.01119034
0.001003268
0.01118687
0.01118968
0.01118989
0.01119006
0.01119015
0.01119021
0.01119029
0.01119043
0.001003715
0.01118754
0.01119036
0.01119054
0.01119062
0.01119059
0.0111905
0.01119044
0.01119049
0.00100418
0.01118837
0.01119121
0.01119137
0.01119138
0.01119118
0.01119085
0.01119059
0.01119051
0.001004664
0.01118943
0.01119231
0.01119247
0.01119238
0.01119193
0.0111913
0.01119073
0.01119046
0.002057631
0.0009898385
0.001017531
0.001026797
0.001029259
0.001029998
0.00103028
0.001030415
0.002057112
0.01118421
0.01116786
0.01116897
0.01116885
0.01117011
0.01117147
0.01117339
0.01117566
0.0009896722
0.01118191
0.01118453
0.01118473
0.01118487
0.011185
0.0111851
0.01118517
0.0111852
0.001017466
0.01118214
0.01118476
0.01118493
0.0111851
0.01118524
0.01118536
0.01118544
0.01118547
0.001026754
0.01118233
0.01118495
0.01118514
0.01118533
0.0111855
0.01118566
0.01118578
0.01118585
0.001029282
0.01118252
0.01118516
0.01118537
0.01118559
0.01118581
0.01118602
0.01118622
0.01118639
0.001030142
0.01118271
0.01118537
0.01118561
0.01118586
0.01118615
0.01118647
0.01118684
0.01118722
0.001030603
0.0111829
0.01118557
0.01118583
0.01118612
0.0111865
0.01118697
0.01118773
0.01118844
0.001030935
0.01118307
0.01118574
0.01118602
0.01118634
0.0111868
0.01118755
0.01118904
0.01119173
0.001031218
0.01118323
0.0111859
0.01118616
0.01118646
0.01118695
0.01118778
0.01119032
0.01120402
0.001031487
0.01118338
0.01118601
0.0111862
0.01118638
0.01118663
0.01118717
0.01118965
0.01121216
0.006933314
0.00103176
0.01118354
0.01118614
0.01118626
0.01118633
0.01118631
0.01118634
0.01118669
0.01107335
0.001032049
0.01118374
0.01118634
0.01118644
0.01118649
0.01118644
0.01118636
0.01118678
0.01110545
0.001032361
0.011184
0.01118662
0.01118675
0.01118688
0.01118696
0.01118725
0.01118872
0.01119228
0.001032692
0.0111843
0.01118695
0.01118715
0.01118736
0.01118761
0.01118814
0.01118899
0.01119263
0.001033042
0.01118464
0.01118732
0.01118756
0.01118783
0.01118815
0.01118862
0.01118941
0.01119057
0.001033409
0.01118501
0.01118772
0.01118799
0.01118827
0.01118859
0.01118899
0.01118951
0.01119022
0.001033798
0.01118541
0.01118814
0.01118842
0.0111887
0.01118899
0.01118932
0.01118971
0.01119016
0.001034209
0.01118586
0.01118859
0.01118886
0.01118912
0.01118936
0.01118963
0.01118992
0.01119024
0.001034644
0.01118635
0.01118909
0.01118934
0.01118956
0.01118974
0.01118991
0.01119011
0.01119033
0.0010351
0.01118692
0.01118966
0.01118989
0.01119005
0.01119014
0.0111902
0.01119029
0.01119043
0.001035574
0.0111876
0.01119034
0.01119053
0.01119062
0.01119059
0.01119049
0.01119044
0.01119048
0.001036064
0.01118843
0.01119119
0.01119136
0.01119137
0.01119118
0.01119085
0.01119059
0.0111905
0.001036573
0.01118949
0.01119229
0.01119247
0.01119239
0.01119193
0.0111913
0.01119073
0.01119046
0.00206036
0.0009951403
0.001026009
0.001037269
0.001040317
0.00104128
0.00104166
0.001041835
0.002059903
0.0111842
0.01116814
0.01116923
0.01116904
0.01117028
0.01117163
0.0111735
0.01117575
0.0009949532
0.01118191
0.01118453
0.01118472
0.01118486
0.011185
0.0111851
0.01118516
0.01118519
0.001025877
0.01118214
0.01118476
0.01118493
0.01118509
0.01118524
0.01118535
0.01118543
0.01118547
0.001037083
0.01118233
0.01118494
0.01118514
0.01118532
0.0111855
0.01118565
0.01118577
0.01118585
0.001040085
0.01118253
0.01118515
0.01118537
0.01118558
0.0111858
0.01118602
0.01118622
0.01118639
0.001041075
0.01118272
0.01118536
0.0111856
0.01118586
0.01118615
0.01118646
0.01118684
0.01118722
0.001041584
0.0111829
0.01118556
0.01118582
0.01118612
0.01118649
0.01118697
0.01118773
0.01118844
0.001041934
0.01118308
0.01118573
0.01118601
0.01118634
0.01118679
0.01118755
0.01118903
0.01119173
0.001042228
0.01118324
0.01118589
0.01118615
0.01118646
0.01118694
0.01118777
0.01119032
0.01120398
0.001042506
0.01118338
0.011186
0.01118619
0.01118637
0.01118662
0.01118716
0.01118964
0.01121215
0.006938547
0.001042784
0.01118354
0.01118613
0.01118625
0.01118632
0.0111863
0.01118632
0.01118667
0.01107291
0.001043078
0.01118375
0.01118633
0.01118644
0.01118648
0.01118643
0.01118634
0.01118676
0.01110369
0.001043394
0.011184
0.0111866
0.01118675
0.01118688
0.01118695
0.01118725
0.01118868
0.01119216
0.001043732
0.0111843
0.01118694
0.01118714
0.01118736
0.01118758
0.01118809
0.01118889
0.01119257
0.001044089
0.01118464
0.01118731
0.01118755
0.01118782
0.01118813
0.01118859
0.01118937
0.01119051
0.001044464
0.01118501
0.0111877
0.01118798
0.01118826
0.01118858
0.01118898
0.01118949
0.01119019
0.001044865
0.01118541
0.01118812
0.01118841
0.01118869
0.01118898
0.01118932
0.01118971
0.01119015
0.001045292
0.01118585
0.01118857
0.01118885
0.01118912
0.01118936
0.01118962
0.01118991
0.01119023
0.001045743
0.01118635
0.01118907
0.01118933
0.01118956
0.01118974
0.01118991
0.0111901
0.01119033
0.001046212
0.01118691
0.01118963
0.01118987
0.01119004
0.01119014
0.0111902
0.01119029
0.01119042
0.001046695
0.01118759
0.01119031
0.01119052
0.01119061
0.01119058
0.01119049
0.01119044
0.01119048
0.001047188
0.01118841
0.01119115
0.01119134
0.01119136
0.01119117
0.01119084
0.01119058
0.0111905
0.001047704
0.01118947
0.01119225
0.01119245
0.01119237
0.01119192
0.01119129
0.01119072
0.01119045
0.002060565
0.0009951969
0.001026259
0.001037872
0.001041414
0.001042879
0.001043589
0.001043891
0.002060125
0.0111842
0.01116819
0.01116923
0.01116902
0.01117022
0.0111716
0.01117347
0.01117572
0.0009949166
0.01118191
0.01118453
0.01118472
0.01118486
0.011185
0.0111851
0.01118516
0.01118519
0.00102583
0.01118214
0.01118476
0.01118493
0.01118509
0.01118524
0.01118535
0.01118543
0.01118547
0.001037041
0.01118233
0.01118494
0.01118514
0.01118532
0.0111855
0.01118566
0.01118577
0.01118585
0.001040049
0.01118253
0.01118515
0.01118537
0.01118558
0.0111858
0.01118602
0.01118622
0.01118639
0.001041043
0.01118272
0.01118536
0.0111856
0.01118586
0.01118615
0.01118646
0.01118684
0.01118722
0.001041552
0.0111829
0.01118556
0.01118582
0.01118612
0.01118649
0.01118697
0.01118773
0.01118844
0.001041897
0.01118308
0.01118573
0.01118601
0.01118633
0.01118679
0.01118755
0.01118903
0.01119173
0.001042192
0.01118324
0.01118589
0.01118615
0.01118646
0.01118694
0.01118777
0.01119032
0.01120396
0.001042477
0.01118338
0.011186
0.01118619
0.01118637
0.01118662
0.01118716
0.01118964
0.01121217
0.006939398
0.001042757
0.01118354
0.01118613
0.01118625
0.01118632
0.0111863
0.01118633
0.01118668
0.01107273
0.001043039
0.01118375
0.01118633
0.01118644
0.01118648
0.01118643
0.01118634
0.01118676
0.01110303
0.001043338
0.011184
0.0111866
0.01118675
0.01118688
0.01118696
0.01118725
0.0111887
0.01119211
0.00104366
0.0111843
0.01118694
0.01118714
0.01118736
0.01118758
0.01118811
0.01118886
0.01119258
0.001044003
0.01118464
0.01118731
0.01118755
0.01118782
0.01118814
0.01118861
0.01118939
0.01119056
0.00104437
0.01118501
0.0111877
0.01118798
0.01118826
0.01118858
0.01118898
0.01118948
0.01119016
0.001044781
0.01118541
0.01118812
0.01118841
0.01118869
0.01118898
0.01118932
0.01118971
0.01119016
0.001045233
0.01118585
0.01118857
0.01118885
0.01118912
0.01118936
0.01118962
0.01118991
0.01119024
0.001045702
0.01118634
0.01118906
0.01118933
0.01118955
0.01118974
0.01118991
0.0111901
0.01119033
0.001046189
0.01118691
0.01118963
0.01118987
0.01119004
0.01119014
0.0111902
0.01119028
0.01119042
0.00104668
0.01118758
0.01119031
0.01119052
0.01119061
0.01119058
0.01119049
0.01119043
0.01119048
0.001047181
0.01118841
0.01119115
0.01119135
0.01119136
0.01119117
0.01119084
0.01119058
0.0111905
0.001047742
0.01118946
0.01119225
0.01119245
0.01119236
0.01119191
0.01119129
0.01119072
0.01119045
0.00205972
0.0009899672
0.001018929
0.001030128
0.001034601
0.001038333
0.001040652
0.001041205
0.002059129
0.01118421
0.01116788
0.01116913
0.01116941
0.01117048
0.01117189
0.0111735
0.01117577
0.0009894949
0.01118191
0.01118453
0.01118473
0.01118487
0.011185
0.0111851
0.01118517
0.0111852
0.001017252
0.01118214
0.01118476
0.01118493
0.0111851
0.01118524
0.01118536
0.01118544
0.01118547
0.001026577
0.01118232
0.01118495
0.01118514
0.01118533
0.0111855
0.01118566
0.01118578
0.01118585
0.001029126
0.01118252
0.01118516
0.01118537
0.01118559
0.01118581
0.01118602
0.01118622
0.01118639
0.001030011
0.01118271
0.01118537
0.0111856
0.01118586
0.01118615
0.01118647
0.01118684
0.01118721
0.001030479
0.0111829
0.01118557
0.01118583
0.01118612
0.0111865
0.01118697
0.01118773
0.01118844
0.001030766
0.01118307
0.01118574
0.01118601
0.01118634
0.0111868
0.01118755
0.01118904
0.01119172
0.001031047
0.01118323
0.0111859
0.01118615
0.01118646
0.01118695
0.01118778
0.01119032
0.01120398
0.001031374
0.01118338
0.01118601
0.01118619
0.01118638
0.01118663
0.01118717
0.01118966
0.0112122
0.006939881
0.00103166
0.01118354
0.01118614
0.01118626
0.01118633
0.01118631
0.01118635
0.0111867
0.01107322
0.001031887
0.01118374
0.01118634
0.01118644
0.01118649
0.01118645
0.01118637
0.01118679
0.01110397
0.001032112
0.01118399
0.01118662
0.01118675
0.01118688
0.01118698
0.01118727
0.01118873
0.01119231
0.001032386
0.0111843
0.01118695
0.01118714
0.01118736
0.0111876
0.01118815
0.01118893
0.01119256
0.001032668
0.01118463
0.01118732
0.01118756
0.01118783
0.01118815
0.01118864
0.01118943
0.01119064
0.001032977
0.01118501
0.01118772
0.01118798
0.01118827
0.01118858
0.011189
0.0111895
0.01119018
0.001033407
0.01118541
0.01118814
0.01118841
0.0111887
0.01118899
0.01118933
0.01118972
0.01119017
0.001033934
0.01118585
0.01118859
0.01118886
0.01118912
0.01118936
0.01118963
0.01118992
0.01119024
0.001034484
0.01118634
0.01118908
0.01118934
0.01118956
0.01118974
0.01118991
0.01119011
0.01119033
0.001035024
0.01118691
0.01118965
0.01118988
0.01119005
0.01119014
0.01119021
0.01119029
0.01119043
0.001035525
0.01118759
0.01119032
0.01119053
0.01119062
0.01119058
0.0111905
0.01119044
0.01119049
0.00103601
0.01118842
0.01119117
0.01119135
0.01119137
0.01119118
0.01119085
0.0111906
0.01119051
0.001036649
0.01118946
0.01119227
0.01119246
0.01119238
0.01119193
0.0111913
0.01119074
0.01119047
0.002051058
0.0009749716
0.0009919328
0.001009437
0.001007734
0.001024855
0.001028293
0.001029014
0.002050407
0.01118421
0.01116712
0.01116862
0.01116962
0.01117094
0.01117174
0.01117334
0.01117561
0.0009741062
0.01118188
0.01118454
0.01118473
0.01118487
0.011185
0.0111851
0.01118517
0.0111852
0.0009899034
0.01118208
0.01118477
0.01118494
0.0111851
0.01118525
0.01118536
0.01118544
0.01118548
0.0009961432
0.01118227
0.01118496
0.01118515
0.01118533
0.0111855
0.01118566
0.01118578
0.01118585
0.0009976765
0.01118246
0.01118517
0.01118538
0.01118559
0.01118581
0.01118603
0.01118623
0.01118639
0.0009984292
0.01118265
0.01118537
0.01118561
0.01118586
0.01118615
0.01118647
0.01118685
0.01118721
0.0009988216
0.01118284
0.01118557
0.01118583
0.01118613
0.0111865
0.01118698
0.01118774
0.01118845
0.0009987961
0.01118302
0.01118575
0.01118602
0.01118634
0.01118681
0.01118756
0.01118907
0.01119173
0.0009989888
0.01118318
0.0111859
0.01118616
0.01118647
0.01118695
0.01118779
0.01119037
0.01120415
0.0009996137
0.01118332
0.01118601
0.01118619
0.01118638
0.01118663
0.01118719
0.01118964
0.01121207
0.006939933
0.0009999771
0.01118348
0.01118615
0.01118626
0.01118633
0.01118632
0.01118635
0.0111867
0.01107226
0.0009999767
0.01118369
0.01118634
0.01118644
0.01118649
0.01118645
0.01118637
0.01118679
0.01110355
0.0009999023
0.01118394
0.01118662
0.01118675
0.01118688
0.01118695
0.01118728
0.01118872
0.01119212
0.001000173
0.01118424
0.01118696
0.01118714
0.01118735
0.01118759
0.01118812
0.01118895
0.01119262
0.001000175
0.01118458
0.01118733
0.01118756
0.01118782
0.01118814
0.01118861
0.01118943
0.01119051
0.001000184
0.01118495
0.01118772
0.01118798
0.01118827
0.01118858
0.011189
0.01118953
0.01119026
0.001000664
0.01118535
0.01118815
0.01118841
0.0111887
0.01118899
0.01118933
0.01118973
0.01119019
0.001001499
0.0111858
0.0111886
0.01118886
0.01118912
0.01118937
0.01118963
0.01118993
0.01119025
0.001002356
0.01118628
0.01118908
0.01118934
0.01118956
0.01118974
0.01118991
0.01119011
0.01119034
0.001003092
0.01118685
0.01118966
0.01118989
0.01119005
0.01119015
0.01119021
0.01119029
0.01119043
0.001003603
0.01118752
0.01119034
0.01119052
0.0111906
0.01119057
0.01119049
0.01119043
0.01119048
0.001003991
0.01118836
0.0111912
0.01119138
0.01119139
0.01119118
0.01119086
0.01119058
0.01119051
0.001004523
0.01118936
0.0111923
0.01119247
0.01119232
0.01119187
0.01119131
0.01119073
0.01119047
0.002035938
0.002084476
0.00215299
0.002175275
0.0009913891
0.0009951949
0.0009970501
0.0009974301
0.00203568
0.01118174
0.01118104
0.01118101
0.01118083
0.01116641
0.01116883
0.01116962
0.01117241
0.002081186
0.01118195
0.0111822
0.01118168
0.01118177
0.01118193
0.01118188
0.01118211
0.01118225
0.002148573
0.01118213
0.01118239
0.01118257
0.01118261
0.01118261
0.01118276
0.01118284
0.01118296
0.002161944
0.0111823
0.01118259
0.01118278
0.01118295
0.01118302
0.01118313
0.01118326
0.01118336
0.002164613
0.0111825
0.0111828
0.011183
0.01118321
0.01118342
0.01118362
0.01118383
0.011184
0.002166834
0.0111827
0.011183
0.01118323
0.01118348
0.01118376
0.01118404
0.01118445
0.01118483
0.002168556
0.01118288
0.0111832
0.01118345
0.01118374
0.01118411
0.01118451
0.01118534
0.01118604
0.002167258
0.01118306
0.01118338
0.01118364
0.01118396
0.01118442
0.01118475
0.01118591
0.01118929
0.002163867
0.01118324
0.01118353
0.01118378
0.01118409
0.01118457
0.01118397
0.0111828
0.01120405
0.002171542
0.01118335
0.01118364
0.01118382
0.011184
0.01118424
0.01118245
0.01118064
0.01121237
0.006941596
0.002174707
0.0111835
0.01118378
0.01118389
0.01118396
0.01118376
0.01118174
0.0111775
0.01107564
0.002175161
0.01118372
0.01118398
0.01118407
0.01118412
0.01118379
0.01118167
0.01117806
0.01110613
0.002172481
0.01118398
0.01118426
0.01118438
0.01118451
0.01118436
0.01118203
0.0111759
0.01119365
0.002177026
0.01118423
0.01118461
0.01118477
0.01118499
0.01118461
0.01118347
0.01117458
0.01117771
0.002178506
0.01118463
0.01118496
0.01118519
0.01118545
0.01118565
0.0111853
0.01118301
0.01117928
0.002175691
0.01118506
0.01118534
0.01118561
0.01118588
0.01118605
0.01118607
0.01118504
0.01118444
0.0021721
0.01118538
0.01118578
0.01118603
0.01118631
0.01118659
0.01118685
0.01118698
0.01118735
0.00218018
0.01118583
0.01118623
0.01118648
0.01118674
0.01118698
0.01118719
0.01118727
0.01118762
0.002186262
0.01118641
0.0111867
0.01118696
0.01118717
0.01118735
0.01118752
0.01118762
0.01118792
0.002191342
0.01118686
0.0111873
0.01118749
0.01118767
0.01118776
0.01118782
0.01118788
0.01118804
0.002194391
0.0111875
0.01118798
0.01118813
0.01118823
0.01118803
0.01118799
0.0111879
0.0111881
0.002196414
0.01118834
0.01118882
0.01118897
0.01118899
0.01118879
0.01118848
0.01118823
0.01118814
0.002105443
0.01118937
0.01118992
0.0111901
0.01118928
0.01118895
0.01118867
0.01118818
0.01118811
0.004449677
0.00462293
0.004627066
0.002073633
0.002103545
0.002178149
0.00219546
0.002174351
0.00450598
0.0009371993
0.0009577069
0.000966192
0.0009699857
0.0009729966
0.0009730294
0.0009731468
0.0009733519
0.004521464
0.0009586667
0.0009986313
0.001011834
0.001016024
0.001017596
0.001018055
0.001018132
0.00101814
0.004477945
0.0009655052
0.001011546
0.001027946
0.001032782
0.001034354
0.001034832
0.00103489
0.001034841
0.004643352
0.0009666906
0.001015058
0.001032599
0.001037872
0.001039536
0.001039982
0.001039925
0.001039749
0.004632819
0.0009676063
0.00101628
0.001034169
0.0010396
0.00104124
0.001041496
0.001041101
0.001040536
0.004589235
0.0009677649
0.001016778
0.001034816
0.001040232
0.001041595
0.00104115
0.001039612
0.001037745
0.004674041
0.000967475
0.001017023
0.001035104
0.001040347
0.001041009
0.001037813
0.001031803
0.001025768
0.004668654
0.0009685795
0.001017339
0.00103525
0.001040138
0.001039632
0.001031932
0.001005012
0.0009940897
0.004361598
0.0009691127
0.001017551
0.001035327
0.001039807
0.00103797
0.001026048
0.000993339
0.01081416
0.004685815
0.0009681014
0.001017626
0.001035391
0.001039542
0.001036594
0.001020592
0.0009692517
0.01118513
0.006949461
0.004710086
0.0009681501
0.001017831
0.001035558
0.001039539
0.001036115
0.001018384
0.0009659883
0.01106611
0.004715718
0.0009689938
0.001018246
0.001035883
0.001039889
0.001036692
0.001020361
0.0009695481
0.01108092
0.004605865
0.0009699798
0.001018761
0.001036361
0.001040602
0.001038325
0.001025518
0.0009910316
0.01116517
0.004678895
0.0009709368
0.001019292
0.001036938
0.001041561
0.001040588
0.0010319
0.001002232
0.0009882321
0.002088053
0.0009714684
0.001019798
0.001037531
0.001042521
0.001042792
0.001038598
0.001028819
0.001005777
0.004520294
0.0009718319
0.001020138
0.001038074
0.001043341
0.001044456
0.001043358
0.001039463
0.001034309
0.004429226
0.0009713204
0.001020421
0.001038545
0.001044004
0.00104555
0.001045512
0.001044542
0.0010432
0.004647415
0.0009714523
0.001020757
0.001038964
0.001044549
0.001046276
0.001046625
0.001046385
0.001046027
0.004739527
0.0009712663
0.001021022
0.00103936
0.001045006
0.001046807
0.001047283
0.001047244
0.001047152
0.004805559
0.0009710633
0.001021286
0.001039709
0.001045356
0.001047163
0.001047673
0.001047702
0.001047694
0.00482119
0.0009713875
0.001021617
0.001039983
0.001045557
0.001047298
0.001047792
0.00104784
0.001047884
0.004832572
0.0009719213
0.001021879
0.001039943
0.001045201
0.001046775
0.001047257
0.001047433
0.001047614
0.004776718
0.0009724365
0.001021681
0.001038854
0.001043318
0.001044365
0.001044901
0.00104554
0.001046386
0.001900151
0.004682169
0.004683759
0.01117929
0.001911932
0.001966488
0.00450915
0.004624868
0.01117388
0.01117216
0.00197915
0.001986455
0.004628943
0.004641025
0.01117565
0.01117142
0.001987963
0.00198936
0.004643101
0.004650543
0.011176
0.01117028
0.001989735
0.001990482
0.004651641
0.004657297
0.0111763
0.01116965
0.001990713
0.001991334
0.004658128
0.004663298
0.01117656
0.0111693
0.00199151
0.001992016
0.004663937
0.004668575
0.01117677
0.0111689
0.001992146
0.001992478
0.004668918
0.004672921
0.01117435
0.01116875
0.001992505
0.001992665
0.004672741
0.004675553
0.01116765
0.01116862
0.004675023
0.001911943
0.001966586
0.004509137
0.01114455
0.004624607
0.01113418
0.001979213
0.001986608
0.004628686
0.01114722
0.004640922
0.01112944
0.001988061
0.001989593
0.0046433
0.01115096
0.004651022
0.01112597
0.001989932
0.001990881
0.00465275
0.01115295
0.004658987
0.0111207
0.001991088
0.001992007
0.004660835
0.01115503
0.004666796
0.01111614
0.0019922
0.001993127
0.004668884
0.01115673
0.004674666
0.01111157
0.001993311
0.001994258
0.004677114
0.01115866
0.004682707
0.01110725
0.001994448
0.001995396
0.004685492
0.01116136
0.004690734
0.01110367
0.001995594
0.001996533
0.004693881
0.01116429
0.004698794
0.01110056
0.00199674
0.001997657
0.004702234
0.0111672
0.004706693
0.01109831
0.008608135
0.002006525
0.008589749
0.01118878
0.01007379
0.01118318
0.004249956
0.006951091
0.001997869
0.001998779
0.004710434
0.01116767
0.004714528
0.01109528
0.008584865
0.002012433
0.008545254
0.01106971
0.001899371
0.01112451
0.001918897
0.001999006
0.001999934
0.004718672
0.01116719
0.004722563
0.01109136
0.008716146
0.002009419
0.00839429
0.01107264
0.00190341
0.01117961
0.003903858
0.002000185
0.002001154
0.00472719
0.01116662
0.00473104
0.01108611
0.008070533
0.002090251
0.004345956
0.01116596
0.003531511
0.01117399
0.01120356
0.004283243
0.01121179
0.002001442
0.002002467
0.004736215
0.01116601
0.004740088
0.01107997
0.002002795
0.002003884
0.004745888
0.01116528
0.004749762
0.01107337
0.002004252
0.002005408
0.004756291
0.01116436
0.004760103
0.01106635
0.002005822
0.002007043
0.004767541
0.01116332
0.004771141
0.01105922
0.002007507
0.002008795
0.004779619
0.01116207
0.004782932
0.01105175
0.002009318
0.002010666
0.004792575
0.01116061
0.004795551
0.01104386
0.002011267
0.002012677
0.004806502
0.0111588
0.004809094
0.01103534
0.002013375
0.00201485
0.004821504
0.01115634
0.004823704
0.01102571
0.002015663
0.002017207
0.00483778
0.01115319
0.00483957
0.01101502
0.002018151
0.002019747
0.004855517
0.01114827
0.004857044
0.01100168
0.004490134
0.004490418
0.01118424
0.00458463
0.004584462
0.01118417
0.01036413
0.0112014
0.004288965
0.01121238
0.01013368
0.01120271
0.004320992
0.006942694
0.01121287
0.004586249
0.004585422
0.01118421
0.004591576
0.004590055
0.01118418
0.01054942
0.01120272
0.004322031
0.01121213
0.01018501
0.01120316
0.004324072
0.0069401
0.01120463
0.0112054
0.004591971
0.004591075
0.01118419
0.004593987
0.004591833
0.01118418
0.01028463
0.01120303
0.004323978
0.01121219
0.01018857
0.01120324
0.004324263
0.006939954
0.004593194
0.004592751
0.01118418
0.004594051
0.004592141
0.01118418
0.01020594
0.01120326
0.004324157
0.01121215
0.01019422
0.01120334
0.00432423
0.006939693
0.004593878
0.004592315
0.01118418
0.004593812
0.004592058
0.01118419
0.01019841
0.01120335
0.004324246
0.01121214
0.01019494
0.01120331
0.004324108
0.006939359
0.004593489
0.004592151
0.01118418
0.004591152
0.004591613
0.01118419
0.0101909
0.01120329
0.004324194
0.01121203
0.01025392
0.01120301
0.004323811
0.006934547
0.004591073
0.004590395
0.01118418
0.004587087
0.004584157
0.01118421
0.01018799
0.01120314
0.004323934
0.01121203
0.01043221
0.01120267
0.004322043
0.006929643
0.004585346
0.004582734
0.01118416
0.004476137
0.004488974
0.01118423
0.01015871
0.01120279
0.004321145
0.0112128
0.01036353
0.01120146
0.004291646
0.00691907
0.004656879
0.004681811
0.01117933
0.001902826
0.004614534
0.01117398
0.01117196
0.001919617
0.001969394
0.004632474
0.01117564
0.0111714
0.001979651
0.001988571
0.004502825
0.01117602
0.01117243
0.004830134
0.002000816
0.002032269
0.002118928
0.01116476
0.01114939
0.004514219
0.004505671
0.002057896
0.002067844
0.002169338
0.01115438
0.0111446
0.004528443
0.002066977
0.002068442
0.002189606
0.01115462
0.0111428
0.004890406
0.002063429
0.002056945
0.002183274
0.01115503
0.01114642
0.004557209
0.002068648
0.002068861
0.01114472
0.004579695
0.01113383
0.001914347
0.001978913
0.01114458
0.002059651
0.01112693
0.002018007
0.004526805
0.002042412
0.01115083
0.004634326
0.01112621
0.004832022
0.002027884
0.002001883
0.01115333
0.004649645
0.01112037
0.001992562
0.001995849
0.01115118
0.002093939
0.01111618
0.002015326
0.004912064
0.002031291
0.01115785
0.004668192
0.01111143
0.002016939
0.001997729
0.01115846
0.004676485
0.01110677
0.001994096
0.001994587
0.0111604
0.004433847
0.01109923
0.001997254
0.002014031
0.01116776
0.004656875
0.0111021
0.00485127
0.002023106
0.002005274
0.01116842
0.0047059
0.0110987
0.001997602
0.001997687
0.01007636
0.01118086
0.004254257
0.002026172
0.008694672
0.002010793
0.008635877
0.008409637
0.01116759
0.004713249
0.01109486
0.001997883
0.001999033
0.001910561
0.01112224
0.00194235
0.002023413
0.00864663
0.002037547
0.004159254
0.01116658
0.004672227
0.01108731
0.002000659
0.002011305
0.001927611
0.01117693