/*--------------------------------*- C++ -*----------------------------------*\
  =========                 |
  \\      /  F ield         | OpenFOAM: The Open Source CFD Toolbox
   \\    /   O peration     | Website:  https://openfoam.org
    \\  /    A nd           | Version:  7
     \\/     M anipulation  |
\*---------------------------------------------------------------------------*/
FoamFile
{
    version     2.0;
    format      ascii;
    class       volScalarField;
    location    "0.03";
    object      epsilon;
}
// * * * * * * * * * * * * * * * * * * * * * * * * * * * * * * * * * * * * * //

dimensions      [0 2 -3 0 0 0 0];

internalField   nonuniform List<scalar> 
109978
(
0.001923446
0.001977134
0.001981885
0.001982399
0.001982347
0.001981751
0.001977415
0.002081542
0.002092009
0.002093281
0.002093211
0.002092294
0.001982192
0.002092094
0.002104111
0.002105744
0.002105691
0.002104582
0.001982715
0.002093458
0.002105847
0.002107644
0.002107621
0.002106445
0.001982825
0.002093737
0.002106255
0.002108122
0.002108117
0.002106922
0.001982845
0.002093823
0.002106375
0.002108273
0.002108284
0.002107084
0.001982855
0.002093847
0.002106423
0.002108335
0.002108351
0.002107149
0.001982857
0.002093858
0.002106439
0.002108356
0.002108376
0.002107175
0.001982858
0.002093862
0.002106446
0.002108366
0.002108388
0.002107186
0.001982859
0.002093864
0.002106449
0.00210837
0.002108393
0.002107191
0.001982859
0.002093864
0.00210645
0.002108372
0.002108397
0.002107194
0.001982859
0.002093865
0.00210645
0.002108372
0.002108397
0.002107194
0.001982859
0.002093865
0.00210645
0.002108372
0.002108398
0.002107194
0.001982859
0.002093865
0.00210645
0.002108372
0.002108397
0.002107194
0.001982858
0.002093864
0.002106449
0.002108371
0.002108396
0.002107193
0.001982858
0.002093863
0.002106448
0.00210837
0.002108395
0.002107192
0.001982858
0.002093862
0.002106445
0.002108366
0.002108389
0.002107188
0.001982856
0.002093858
0.002106439
0.002108357
0.002108379
0.002107178
0.001982852
0.002093845
0.002106419
0.002108333
0.002108353
0.002107152
0.001982838
0.002093805
0.00210636
0.002108262
0.002108277
0.002107076
0.001982776
0.00209365
0.002106145
0.002108018
0.002108024
0.002106828
0.001982506
0.002093098
0.002105437
0.002107242
0.002107246
0.002106094
0.0118148
0.002091905
0.002103995
0.0021057
0.002105744
0.002104771
0.002111776
0.002113842
0.002113621
0.002113557
0.002113541
0.002113437
0.01181878
0.01181553
0.01181549
0.0118155
0.01181549
0.0118155
0.01181842
0.01181546
0.01181544
0.01181544
0.01181544
0.01181544
0.0118184
0.01181546
0.01181544
0.01181544
0.01181543
0.01181543
0.0118184
0.01181546
0.01181544
0.01181544
0.01181543
0.01181543
0.0118184
0.01181546
0.01181544
0.01181544
0.01181543
0.01181543
0.0118184
0.01181546
0.01181544
0.01181544
0.01181543
0.01181543
0.0118184
0.01181546
0.01181544
0.01181544
0.01181543
0.01181543
0.0118184
0.01181546
0.01181544
0.01181544
0.01181543
0.01181543
0.0118184
0.01181546
0.01181544
0.01181544
0.01181543
0.01181543
0.0118184
0.01181546
0.01181544
0.01181544
0.01181543
0.01181543
0.0118184
0.01181546
0.01181544
0.01181544
0.01181543
0.01181543
0.0118184
0.01181546
0.01181544
0.01181544
0.01181543
0.01181543
0.01181839
0.01181546
0.01181544
0.01181544
0.01181543
0.01181543
0.01181839
0.01181546
0.01181544
0.01181544
0.01181543
0.01181543
0.01181839
0.01181546
0.01181544
0.01181544
0.01181543
0.01181543
0.01181839
0.01181546
0.01181544
0.01181544
0.01181543
0.01181543
0.01181839
0.01181546
0.01181544
0.01181544
0.01181543
0.01181543
0.01181839
0.01181546
0.01181544
0.01181544
0.01181543
0.01181543
0.01181839
0.01181546
0.01181544
0.01181544
0.01181543
0.01181543
0.01181839
0.01181546
0.01181544
0.01181544
0.01181543
0.01181543
0.01181839
0.01181546
0.01181544
0.01181544
0.01181543
0.01181543
0.01181839
0.01181546
0.01181544
0.01181544
0.01181543
0.01181543
0.01181839
0.01181546
0.01181544
0.01181544
0.01181543
0.01181543
0.002108164
0.002113045
0.002112585
0.002112373
0.002112354
0.002112387
0.01181836
0.01181546
0.01181544
0.01181544
0.01181544
0.01181544
0.01181792
0.01181542
0.01181541
0.0118154
0.01181539
0.01181539
0.01181791
0.01181543
0.01181541
0.0118154
0.01181539
0.01181539
0.01181791
0.01181543
0.01181541
0.0118154
0.01181539
0.01181539
0.01181791
0.01181543
0.01181542
0.0118154
0.01181539
0.01181539
0.01181791
0.01181543
0.01181542
0.0118154
0.01181539
0.01181539
0.01181791
0.01181543
0.01181542
0.0118154
0.01181539
0.01181539
0.0118179
0.01181543
0.01181542
0.0118154
0.01181539
0.01181539
0.0118179
0.01181543
0.01181542
0.0118154
0.01181539
0.01181539
0.0118179
0.01181543
0.01181542
0.0118154
0.01181539
0.01181539
0.0118179
0.01181543
0.01181542
0.0118154
0.01181539
0.01181539
0.0118179
0.01181543
0.01181542
0.0118154
0.01181539
0.01181539
0.0118179
0.01181543
0.01181542
0.0118154
0.01181539
0.01181539
0.0118179
0.01181543
0.01181542
0.0118154
0.01181539
0.01181539
0.0118179
0.01181543
0.01181542
0.0118154
0.01181539
0.01181539
0.0118179
0.01181543
0.01181542
0.0118154
0.01181539
0.01181539
0.0118179
0.01181543
0.01181542
0.0118154
0.01181539
0.01181539
0.0118179
0.01181543
0.01181542
0.0118154
0.01181539
0.01181539
0.0118179
0.01181543
0.01181542
0.0118154
0.01181539
0.01181539
0.0118179
0.01181543
0.01181542
0.0118154
0.01181539
0.01181539
0.0118179
0.01181543
0.01181542
0.0118154
0.01181539
0.01181539
0.0118179
0.01181543
0.01181541
0.0118154
0.01181539
0.01181539
0.0118179
0.01181542
0.01181541
0.0118154
0.01181539
0.01181539
0.002107715
0.002112458
0.002111897
0.002111628
0.002111609
0.002111705
0.01181836
0.01181545
0.01181543
0.01181544
0.01181543
0.01181543
0.01181791
0.01181541
0.0118154
0.0118154
0.01181539
0.01181539
0.01181791
0.01181541
0.0118154
0.0118154
0.01181539
0.01181539
0.0118179
0.01181541
0.01181541
0.0118154
0.01181539
0.01181539
0.0118179
0.01181541
0.01181541
0.0118154
0.01181539
0.01181539
0.0118179
0.01181541
0.01181541
0.0118154
0.01181539
0.01181539
0.0118179
0.01181541
0.01181541
0.0118154
0.01181539
0.01181539
0.0118179
0.01181541
0.01181541
0.0118154
0.01181539
0.01181539
0.0118179
0.01181541
0.01181541
0.0118154
0.01181539
0.01181539
0.0118179
0.01181541
0.01181541
0.0118154
0.01181539
0.01181539
0.0118179
0.01181541
0.01181541
0.0118154
0.01181539
0.01181539
0.0118179
0.01181541
0.01181541
0.0118154
0.01181539
0.01181539
0.0118179
0.01181541
0.01181541
0.0118154
0.01181539
0.01181539
0.0118179
0.01181541
0.01181541
0.0118154
0.01181539
0.01181539
0.0118179
0.01181541
0.01181541
0.0118154
0.01181539
0.01181539
0.0118179
0.01181541
0.01181541
0.0118154
0.01181539
0.01181539
0.0118179
0.01181541
0.01181541
0.0118154
0.01181539
0.01181539
0.0118179
0.01181541
0.01181541
0.0118154
0.01181539
0.01181539
0.0118179
0.01181541
0.01181541
0.0118154
0.01181539
0.01181539
0.0118179
0.01181541
0.01181541
0.0118154
0.01181539
0.01181539
0.0118179
0.01181541
0.01181541
0.0118154
0.01181539
0.01181539
0.0118179
0.01181541
0.01181541
0.0118154
0.01181539
0.01181539
0.0118179
0.01181541
0.01181541
0.0118154
0.01181539
0.01181539
0.0021076
0.002112291
0.002111679
0.002111385
0.002111357
0.00211147
0.01181836
0.01181544
0.01181543
0.01181544
0.01181543
0.01181543
0.01181791
0.0118154
0.0118154
0.01181539
0.01181539
0.01181539
0.0118179
0.0118154
0.0118154
0.01181539
0.01181539
0.01181539
0.01181789
0.0118154
0.0118154
0.0118154
0.01181539
0.01181539
0.01181789
0.0118154
0.0118154
0.0118154
0.01181539
0.01181539
0.01181789
0.0118154
0.0118154
0.0118154
0.01181539
0.01181539
0.01181789
0.0118154
0.0118154
0.0118154
0.01181539
0.01181539
0.01181789
0.0118154
0.0118154
0.0118154
0.01181539
0.01181539
0.01181789
0.0118154
0.0118154
0.0118154
0.01181539
0.01181539
0.01181789
0.0118154
0.0118154
0.0118154
0.01181539
0.01181539
0.01181789
0.0118154
0.0118154
0.0118154
0.01181539
0.01181539
0.01181789
0.0118154
0.0118154
0.0118154
0.01181539
0.01181539
0.01181789
0.0118154
0.0118154
0.0118154
0.01181539
0.01181539
0.01181789
0.0118154
0.0118154
0.0118154
0.01181539
0.01181539
0.01181789
0.0118154
0.0118154
0.0118154
0.01181539
0.01181539
0.01181789
0.0118154
0.0118154
0.0118154
0.01181539
0.01181539
0.01181789
0.0118154
0.0118154
0.0118154
0.01181539
0.01181539
0.01181789
0.0118154
0.0118154
0.0118154
0.01181539
0.01181539
0.01181789
0.0118154
0.0118154
0.0118154
0.01181539
0.01181539
0.01181789
0.0118154
0.0118154
0.0118154
0.01181539
0.01181539
0.01181789
0.0118154
0.0118154
0.0118154
0.01181539
0.01181539
0.01181789
0.0118154
0.0118154
0.0118154
0.01181539
0.01181539
0.01181789
0.0118154
0.0118154
0.0118154
0.01181539
0.01181539
0.002107625
0.002112282
0.002111662
0.002111374
0.002111344
0.002111461
0.01181836
0.01181544
0.01181543
0.01181544
0.01181543
0.01181543
0.01181791
0.0118154
0.0118154
0.0118154
0.01181539
0.01181539
0.0118179
0.0118154
0.0118154
0.01181539
0.01181539
0.01181539
0.01181789
0.0118154
0.0118154
0.0118154
0.01181539
0.01181539
0.01181789
0.0118154
0.0118154
0.0118154
0.01181539
0.01181539
0.01181789
0.0118154
0.0118154
0.0118154
0.01181539
0.01181539
0.01181789
0.0118154
0.0118154
0.0118154
0.01181539
0.01181539
0.01181789
0.0118154
0.0118154
0.0118154
0.01181539
0.01181539
0.01181789
0.0118154
0.0118154
0.0118154
0.01181539
0.01181539
0.01181789
0.0118154
0.0118154
0.0118154
0.01181539
0.01181539
0.01181789
0.0118154
0.0118154
0.0118154
0.01181539
0.01181539
0.01181789
0.0118154
0.0118154
0.0118154
0.01181539
0.01181539
0.01181789
0.0118154
0.0118154
0.0118154
0.01181539
0.01181539
0.01181789
0.0118154
0.0118154
0.0118154
0.01181539
0.01181539
0.01181789
0.0118154
0.0118154
0.0118154
0.01181539
0.01181539
0.01181789
0.0118154
0.0118154
0.0118154
0.01181539
0.01181539
0.01181789
0.0118154
0.0118154
0.0118154
0.01181539
0.01181539
0.01181789
0.0118154
0.0118154
0.0118154
0.01181539
0.01181539
0.01181789
0.0118154
0.0118154
0.0118154
0.01181539
0.01181539
0.01181789
0.0118154
0.0118154
0.0118154
0.01181539
0.01181539
0.01181789
0.0118154
0.0118154
0.0118154
0.01181539
0.01181539
0.01181789
0.0118154
0.0118154
0.0118154
0.01181539
0.01181539
0.01181789
0.0118154
0.0118154
0.0118154
0.01181539
0.01181539
0.00210763
0.002112358
0.002111764
0.00211149
0.002111474
0.002111584
0.01181836
0.01181545
0.01181543
0.01181544
0.01181543
0.01181543
0.01181791
0.0118154
0.0118154
0.0118154
0.01181539
0.01181539
0.0118179
0.01181541
0.0118154
0.0118154
0.01181539
0.01181539
0.0118179
0.01181541
0.0118154
0.0118154
0.01181539
0.01181539
0.0118179
0.01181541
0.0118154
0.0118154
0.01181539
0.01181539
0.0118179
0.01181541
0.0118154
0.0118154
0.01181539
0.01181539
0.0118179
0.01181541
0.0118154
0.0118154
0.01181539
0.01181539
0.0118179
0.01181541
0.0118154
0.0118154
0.01181539
0.01181539
0.0118179
0.01181541
0.0118154
0.0118154
0.01181539
0.01181539
0.0118179
0.01181541
0.0118154
0.0118154
0.01181539
0.01181539
0.0118179
0.01181541
0.0118154
0.0118154
0.01181539
0.01181539
0.0118179
0.01181541
0.0118154
0.0118154
0.01181539
0.01181539
0.0118179
0.01181541
0.0118154
0.0118154
0.01181539
0.01181539
0.0118179
0.01181541
0.0118154
0.0118154
0.01181539
0.01181539
0.0118179
0.01181541
0.0118154
0.0118154
0.01181539
0.01181539
0.0118179
0.01181541
0.0118154
0.0118154
0.01181539
0.01181539
0.0118179
0.01181541
0.0118154
0.0118154
0.01181539
0.01181539
0.0118179
0.01181541
0.0118154
0.0118154
0.01181539
0.01181539
0.0118179
0.01181541
0.0118154
0.0118154
0.01181539
0.01181539
0.0118179
0.01181541
0.0118154
0.0118154
0.01181539
0.01181539
0.0118179
0.01181541
0.0118154
0.0118154
0.01181539
0.01181539
0.0118179
0.01181541
0.0118154
0.0118154
0.01181539
0.01181539
0.0118179
0.01181541
0.0118154
0.0118154
0.01181539
0.01181539
0.002107881
0.002112876
0.002112408
0.002112169
0.002112154
0.002112229
0.01181836
0.01181545
0.01181544
0.01181544
0.01181544
0.01181544
0.01181791
0.01181541
0.0118154
0.0118154
0.01181539
0.01181539
0.01181791
0.01181542
0.01181541
0.0118154
0.01181539
0.01181539
0.0118179
0.01181542
0.01181541
0.0118154
0.01181539
0.01181539
0.0118179
0.01181542
0.01181541
0.0118154
0.01181539
0.01181539
0.0118179
0.01181542
0.01181541
0.0118154
0.01181539
0.01181539
0.0118179
0.01181542
0.01181541
0.0118154
0.01181539
0.01181539
0.0118179
0.01181542
0.01181541
0.0118154
0.01181539
0.01181539
0.0118179
0.01181542
0.01181541
0.0118154
0.01181539
0.01181539
0.0118179
0.01181542
0.01181541
0.0118154
0.01181539
0.01181539
0.0118179
0.01181542
0.01181541
0.0118154
0.01181539
0.01181539
0.0118179
0.01181542
0.01181541
0.0118154
0.01181539
0.01181539
0.0118179
0.01181542
0.01181541
0.0118154
0.01181539
0.01181539
0.0118179
0.01181542
0.01181541
0.0118154
0.01181539
0.01181539
0.0118179
0.01181542
0.01181541
0.0118154
0.01181539
0.01181539
0.0118179
0.01181542
0.01181541
0.0118154
0.01181539
0.01181539
0.0118179
0.01181542
0.01181541
0.0118154
0.01181539
0.01181539
0.0118179
0.01181542
0.01181541
0.0118154
0.01181539
0.01181539
0.0118179
0.01181542
0.01181541
0.0118154
0.01181539
0.01181539
0.0118179
0.01181542
0.01181541
0.0118154
0.01181539
0.01181539
0.0118179
0.01181542
0.01181541
0.0118154
0.01181539
0.01181539
0.0118179
0.01181542
0.01181541
0.0118154
0.01181539
0.01181539
0.0118179
0.01181542
0.01181541
0.0118154
0.01181539
0.01181539
0.00210674
0.00210973
0.002109348
0.002109207
0.002109191
0.002109159
0.01181845
0.01181553
0.01181549
0.01181549
0.01181549
0.01181549
0.011818
0.01181545
0.01181544
0.01181544
0.01181544
0.01181544
0.01181801
0.01181545
0.01181544
0.01181543
0.01181543
0.01181543
0.011818
0.01181545
0.01181544
0.01181543
0.01181543
0.01181543
0.011818
0.01181545
0.01181544
0.01181543
0.01181543
0.01181543
0.011818
0.01181545
0.01181544
0.01181543
0.01181543
0.01181543
0.011818
0.01181545
0.01181544
0.01181543
0.01181543
0.01181543
0.011818
0.01181545
0.01181544
0.01181543
0.01181543
0.01181543
0.011818
0.01181545
0.01181544
0.01181543
0.01181543
0.01181543
0.011818
0.01181545
0.01181544
0.01181543
0.01181543
0.01181543
0.011818
0.01181545
0.01181544
0.01181543
0.01181543
0.01181543
0.011818
0.01181545
0.01181544
0.01181543
0.01181543
0.01181543
0.011818
0.01181545
0.01181544
0.01181543
0.01181543
0.01181543
0.011818
0.01181545
0.01181544
0.01181543
0.01181543
0.01181543
0.011818
0.01181545
0.01181544
0.01181543
0.01181543
0.01181543
0.011818
0.01181545
0.01181544
0.01181543
0.01181543
0.01181543
0.011818
0.01181545
0.01181544
0.01181543
0.01181543
0.01181543
0.011818
0.01181545
0.01181544
0.01181543
0.01181543
0.01181543
0.011818
0.01181545
0.01181544
0.01181543
0.01181543
0.01181543
0.011818
0.01181545
0.01181544
0.01181543
0.01181543
0.01181543
0.011818
0.01181545
0.01181544
0.01181543
0.01181543
0.01181543
0.011818
0.01181545
0.01181544
0.01181543
0.01181543
0.01181543
0.01181799
0.01181545
0.01181544
0.01181543
0.01181543
0.01181543
0.005961709
0.006055518
0.006057374
0.006057441
0.006057433
0.00605728
0.01182851
0.01181461
0.01181454
0.01181454
0.01181454
0.01181454
0.0118146
0.01182747
0.01181486
0.01181471
0.01181468
0.01181466
0.01181466
0.01181472
0.01182746
0.01181472
0.01181462
0.01181458
0.01181457
0.01181457
0.01181463
0.01182745
0.01181469
0.01181461
0.01181457
0.01181455
0.01181455
0.01181461
0.01182745
0.0118147
0.01181461
0.01181457
0.01181455
0.01181455
0.01181461
0.01182744
0.01181469
0.0118146
0.01181457
0.01181455
0.01181455
0.01181461
0.01182744
0.01181469
0.0118146
0.01181457
0.01181455
0.01181455
0.01181461
0.01182744
0.01181469
0.0118146
0.01181457
0.01181455
0.01181455
0.01181461
0.01182744
0.01181469
0.0118146
0.01181457
0.01181455
0.01181455
0.01181461
0.01182744
0.01181469
0.0118146
0.01181457
0.01181455
0.01181455
0.01181461
0.01182744
0.01181469
0.0118146
0.01181457
0.01181455
0.01181455
0.01181461
0.01182744
0.01181469
0.0118146
0.01181457
0.01181455
0.01181455
0.01181461
0.01182744
0.01181469
0.0118146
0.01181457
0.01181455
0.01181455
0.01181461
0.01182744
0.01181469
0.0118146
0.01181457
0.01181455
0.01181455
0.01181461
0.01182744
0.01181469
0.0118146
0.01181457
0.01181455
0.01181455
0.01181461
0.01182744
0.01181469
0.0118146
0.01181457
0.01181455
0.01181455
0.01181461
0.01182744
0.01181469
0.0118146
0.01181457
0.01181455
0.01181455
0.01181461
0.01182744
0.01181469
0.0118146
0.01181457
0.01181455
0.01181455
0.01181461
0.01182744
0.01181469
0.0118146
0.01181457
0.01181455
0.01181455
0.01181461
0.01182744
0.01181469
0.0118146
0.01181457
0.01181455
0.01181455
0.01181461
0.01182744
0.01181469
0.0118146
0.01181457
0.01181455
0.01181455
0.01181461
0.01182744
0.01181469
0.0118146
0.01181457
0.01181455
0.01181455
0.01181461
0.01182744
0.0118147
0.01181461
0.01181457
0.01181457
0.01181456
0.01181462
0.004159555
0.006749763
0.01182908
0.01181754
0.004132249
0.00429812
0.005961671
0.006056173
0.01181794
0.0118179
0.004301411
0.004306148
0.006055549
0.006059004
0.01181803
0.01181802
0.004305398
0.004306593
0.006057391
0.006058862
0.01181809
0.01181804
0.004305689
0.004306649
0.006057467
0.006058881
0.01181809
0.01181805
0.004305695
0.004306378
0.006057453
0.006058794
0.0118181
0.01181805
0.004305233
0.006057286
0.0118181
0.004128498
0.004289388
0.01182779
0.01181777
0.01182752
0.0118177
0.004294138
0.004297695
0.01182653
0.01181744
0.01182746
0.01181745
0.004298106
0.004298281
0.01182652
0.01181744
0.01182745
0.01181743
0.004298279
0.00429831
0.01182651
0.01181742
0.01182745
0.01181743
0.004298353
0.004298352
0.01182651
0.01181742
0.01182745
0.01181742
0.004298338
0.004298348
0.01182651
0.01181742
0.01182745
0.01181742
0.004298339
0.004298347
0.01182651
0.01181742
0.01182745
0.01181742
0.00429834
0.004298345
0.01182651
0.01181742
0.01182744
0.01181742
0.004298339
0.004298345
0.0118265
0.01181742
0.01182744
0.01181742
0.004298338
0.004298343
0.0118265
0.01181742
0.01182744
0.01181742
0.004298338
0.004298342
0.0118265
0.01181742
0.01182744
0.01181742
0.004298338
0.004298343
0.0118265
0.01181742
0.01182744
0.01181742
0.004298336
0.00429834
0.0118265
0.01181742
0.01182744
0.01181742
0.004298337
0.004298342
0.0118265
0.01181742
0.01182744
0.01181742
0.004298335
0.004298341
0.0118265
0.01181742
0.01182744
0.01181742
0.004298336
0.00429834
0.0118265
0.01181742
0.01182744
0.01181742
0.004298335
0.00429834
0.0118265
0.01181742
0.01182744
0.01181742
0.004298334
0.004298338
0.0118265
0.01181742
0.01182744
0.01181742
0.004298333
0.004298335
0.0118265
0.01181742
0.01182744
0.01181742
0.004298326
0.00429832
0.0118265
0.01181742
0.01182744
0.01181742
0.004298306
0.004298241
0.0118265
0.01181742
0.01182744
0.01181742
0.004298179
0.004297682
0.0118265
0.01181742
0.01182744
0.01181742
0.004297295
0.01178416
0.01182743
0.01181742
0.01182651
0.01181633
0.005958784
0.01182748
0.01181634
0.006026686
0.01182725
0.01181626
0.0060283
0.01182624
0.01181603
0.006028748
0.01182717
0.011816
0.006029078
0.01182622
0.01181599
0.006029327
0.01182717
0.011816
0.006029018
0.01182621
0.01181599
0.006029313
0.01182716
0.01181599
0.006029297
0.01182621
0.01181599
0.006029316
0.01182716
0.01181599
0.006029044
0.01182622
0.01181599
0.00602882
0.01182717
0.01181599
0.006028622
0.01182622
0.011816
0.006028608
0.01182719
0.01181603
0.006026998
0.01182629
0.01181626
0.005958902
0.01182821
0.01181634
0.006750001
0.01182812
0.01181753
0.004159553
0.01181807
0.004305252
0.01181667
0.01182751
0.0118177
0.004128494
0.004289377
0.01181635
0.01182745
0.01181745
0.004294145
0.004297693
0.01181633
0.01182744
0.01181743
0.004298326
0.004298295
0.01181633
0.01182744
0.01181742
0.004298337
0.004298349
0.01181633
0.01182744
0.01181742
0.004298336
0.004298332
0.01181633
0.01182744
0.01181742
0.004298354
0.004298366
0.01181633
0.01182744
0.01181742
0.004298359
0.004298347
0.01181633
0.01182744
0.01181742
0.004298343
0.00429835
0.01181633
0.01182744
0.01181742
0.004298358
0.004298348
0.01181633
0.01182744
0.01181742
0.004298352
0.004298368
0.01181633
0.01182744
0.01181742
0.004298374
0.004298375
0.01181633
0.01182744
0.01181742
0.004298366
0.00429834
0.01181633
0.01182744
0.01181742
0.004298336
0.004298349
0.01181633
0.01182744
0.01181742
0.004298346
0.004298349
0.01181633
0.01182744
0.01181742
0.004298348
0.004298354
0.01181633
0.01182744
0.01181742
0.004298353
0.004298343
0.01181633
0.01182744
0.01181742
0.004298346
0.004298353
0.01181633
0.01182744
0.01181742
0.004298327
0.004298301
0.01181633
0.01182744
0.01181742
0.004298303
0.004298252
0.01181633
0.01182744
0.01181742
0.004298184
0.0042977
0.01181742
0.01182744
0.01181632
0.004297311
0.01178392
0.01181276
0.008724077
0.01182076
0.008845837
0.0118205
0.008860519
0.01182056
0.008866317
0.01182044
0.008866757
0.01182052
0.008867396
0.01182041
0.008867436
0.01182052
0.00886747
0.01182037
0.008867462
0.01182051
0.008867512
0.01182037
0.008867497
0.01182051
0.008867464
0.01182036
0.008867449
0.0118205
0.008867455
0.01182036
0.00886745
0.0118205
0.008867448
0.01182036
0.008867438
0.0118205
0.008867439
0.01182036
0.008867432
0.0118205
0.008867437
0.01182036
0.008867432
0.0118205
0.008867434
0.01182036
0.008867428
0.0118205
0.00886743
0.01182036
0.008867424
0.0118205
0.008867431
0.01182036
0.008867429
0.0118205
0.008867425
0.01182036
0.00886742
0.0118205
0.008867427
0.01182036
0.008867424
0.0118205
0.008867424
0.01182036
0.008867418
0.0118205
0.00886742
0.01182036
0.008867413
0.0118205
0.008867421
0.01182036
0.008867417
0.0118205
0.008867415
0.01182036
0.00886741
0.0118205
0.008867412
0.01182036
0.008867407
0.0118205
0.008867408
0.01182036
0.008867396
0.0118205
0.008867384
0.01182036
0.008867358
0.01182049
0.008867148
0.01182035
0.008866573
0.01180664
0.01180766
0.01180629
0.01180602
0.01180766
0.0118054
0.01180621
0.01180631
0.0118069
0.01180532
0.01180649
0.01180616
0.0118064
0.01180662
0.01180587
0.0118069
0.0118105
0.0118092
0.006056163
0.01181794
0.0118179
0.004132244
0.004298177
0.006059008
0.01181801
0.01181802
0.004301457
0.004306188
0.006058859
0.01181806
0.01181804
0.004305419
0.004306591
0.006058888
0.01181806
0.01181805
0.00430572
0.004306696
0.006058819
0.01181805
0.01181691
0.004305713
0.004306381
0.01181635
0.01182744
0.01181743
0.004298123
0.004298307
0.01181633
0.01182744
0.01181742
0.004298346
0.004298343
0.01182056
0.008839563
0.01182113
0.008536925
0.01181038
0.01180875
0.01182059
0.008865702
0.0118205
0.008862675
0.01182055
0.00886722
0.0118204
0.00886701
0.01182052
0.00886751
0.01182036
0.008867466
0.01182051
0.008867484
0.01182038
0.008867461
0.0118205
0.008867483
0.01182036
0.008867479
0.0118205
0.008867455
0.01182036
0.008867445
0.01182049
0.008867453
0.01182035
0.008867449
0.0118205
0.008867444
0.01182035
0.008867437
0.01182049
0.008867438
0.01182035
0.008867431
0.01182049
0.008867437
0.01182035
0.008867433
0.01182049
0.008867433
0.01182035
0.008867428
0.01182049
0.008867429
0.01182035
0.008867422
0.0118205
0.00886743
0.01182035
0.00886743
0.01182049
0.008867425
0.01182035
0.008867419
0.01182049
0.008867426
0.01182035
0.008867424
0.01182049
0.008867422
0.01182035
0.008867418
0.01182049
0.008867419
0.01182035
0.008867412
0.01182049
0.008867419
0.01182035
0.008867417
0.01182049
0.008867415
0.01182035
0.008867409
0.01182049
0.008867412
0.01182035
0.008867409
0.01182049
0.008867394
0.01182035
0.008867395
0.0118205
0.00886723
0.01182035
0.008867343
0.01182047
0.01174341
0.008866155
0.0118184
0.01180611
0.0118061
0.01180634
0.01180729
0.01180591
0.01180567
0.01180687
0.01180614
0.01180629
0.0118065
0.01180648
0.0118067
0.01180709
0.01180524
0.01180704
0.01180675
0.01181253
0.00872434
0.01181671
0.008871227
0.01181465
0.008550012
0.01182056
0.00883933
0.01182115
0.00853675
0.01181296
0.00889641
0.01181686
0.008898534
0.01182076
0.008845661
0.0118205
0.008860474
0.01182059
0.008865752
0.01182051
0.008862627
0.01182056
0.008866376
0.01182043
0.008866787
0.01182055
0.008867327
0.01182041
0.00886699
0.01182052
0.00886672
0.01182037
0.008867497
0.01182051
0.008867516
0.01182038
0.008867495
0.01182051
0.008867548
0.01182036
0.008867532
0.0118205
0.008867517
0.01182037
0.008867517
0.0118205
0.008867483
0.01182036
0.008867487
0.01182051
0.008867489
0.01182035
0.008866682
0.01182051
0.008867447
0.01182036
0.008867458
0.0118205
0.008867451
0.01182036
0.008867456
0.01182051
0.008867459
0.01182035
0.008866651
0.01182051
0.008867437
0.01182036
0.008867454
0.0118205
0.008867454
0.01182036
0.008867458
0.0118205
0.008867454
0.01182035
0.008867449
0.01182049
0.008867452
0.01182036
0.008867455
0.0118205
0.008867452
0.01182035
0.008867448
0.0118205
0.008867458
0.01182036
0.008867458
0.0118205
0.008867459
0.01182035
0.008867451
0.01182049
0.00886723
0.01182036
0.008866539
0.01182048
0.008655849
0.008866285
0.01181838
0.006879645
0.007500883
0.00727551
0.00730801
0.007270698
0.007299616
0.007279136
0.007279397
0.007276798
0.007288983
0.00727007
0.007303707
0.00729023
0.007260723
0.007286872
0.007277266
0.007231161
0.007230654
0.00727523
0.007305916
0.01181674
0.008870906
0.01181459
0.008549546
0.007318444
0.007320384
0.007271548
0.007300175
0.007260468
0.007227232
0.007245018
0.007260162
0.007306114
0.007299525
0.007297991
0.00724558
0.007323508
0.007310021
0.007298695
0.007291342
0.007266208
0.007301784
0.00691916
0.007551074
0.01182172
0.008515107
0.01182143
0.008511176
0.007931874
0.00798036
0.007936469
0.007976735
0.01182194
0.008514561
0.008514715
0.01182079
0.01182179
0.008513691
0.008513549
0.01182097
0.01182184
0.008514151
0.01182099
0.008513938
0.01182184
0.00851386
0.01182097
0.008513768
0.01182184
0.008513855
0.008513773
0.01182094
0.01182184
0.008513852
0.01182097
0.00851376
0.01182051
0.008867498
0.01182035
0.008867478
0.0118205
0.008867771
0.01182036
0.008867558
0.0118205
0.008867477
0.01182035
0.008867493
0.0118205
0.008867936
0.01182036
0.008866923
0.01182051
0.008867847
0.01182035
0.008867561
0.0118205
0.008867758
0.01182036
0.008867558
0.01182051
0.008867455
0.01182035
0.008866658
0.0118205
0.008867936
0.01182036
0.008866904
0.01182052
0.00886756
0.01182035
0.008866693
0.0118205
0.008866676
0.01182036
0.008866693
0.01182051
0.008866657
0.01182036
0.008866649
0.0118205
0.008866658
0.01182036
0.008866649
0.01182051
0.008866677
0.01182036
0.008866664
0.0118205
0.008867919
0.01182036
0.008866913
0.0118205
0.008867914
0.01182035
0.008867942
0.0118205
0.008867443
0.01182036
0.008867556
0.0118205
0.00886774
0.01182035
0.008867535
0.01182049
0.008867746
0.01182035
0.008867535
0.01182183
0.00851384
0.008513719
0.01182097
0.01182183
0.008513808
0.01182097
0.008513715
0.01182184
0.00851381
0.008513783
0.01182094
0.0118205
0.008867925
0.01182035
0.008866894
0.01182183
0.008513838
0.01182097
0.008513717
0.01182184
0.008513805
0.01182097
0.008513713
0.01182183
0.008513806
0.008513712
0.01182093
0.01182183
0.008513806
0.01182097
0.008513714
0.01182184
0.008513807
0.008513713
0.01182096
0.0118205
0.008867233
0.01182035
0.008867459
0.01182183
0.008513805
0.008513702
0.01182097
0.01182181
0.008512873
0.008513019
0.01182095
0.007313795
0.007827008
0.007703026
0.00759093
0.01182489
0.008501371
0.01182992
0.008454883
0.007102828
0.007248779
0.007283378
0.007314621
0.007277918
0.007305669
0.007227328
0.007261176
0.007301798
0.007300829
0.007249051
0.007249078
0.007281032
0.007311222
0.007318717
0.007266382
0.007292349
0.007304548
0.007268752
0.007271056
0.008875114
0.01181621
0.008890069
0.01181343
0.008901261
0.008886534
0.01181632
0.01181189
0.008894047
0.008897575
0.01181289
0.01181618
0.008902959
0.008891292
0.01181702
0.01181182
0.008895325
0.008898783
0.01181297
0.0118168
0.008903066
0.008892635
0.01181705
0.0118119
0.008895452
0.008897979
0.01181292
0.01181684
0.00890314
0.008891657
0.01181707
0.01181191
0.008895535
0.008898852
0.01181289
0.01181687
0.008904281
0.0118097
0.008892613
0.01181477
0.008867485
0.01182042
0.008866701
0.01182051
0.008866762
0.01182038
0.008866724
0.01182052
0.008867537
0.01182036
0.008867445
0.0118205
0.008867736
0.01182036
0.008867746
0.01182049
0.007293021
0.007297205
0.007281346
0.007313807
0.007300545
0.007297767
0.007296313
0.007302259
0.007278424
0.007270809
0.0073049
0.007271329
0.007326511
0.007324172
0.007257238
0.007220467
0.007256811
0.007273864
0.007059235
0.007199777
0.007316913
0.007834452
0.007591251
0.007724475
0.01182446
0.008509095
0.008491138
0.0118299
0.01182202
0.008498534
0.0118214
0.008506978
0.00793282
0.00797781
0.00793586
0.01182175
0.008513706
0.008513564
0.01182098
0.0118218
0.008513854
0.01182097
0.008513768
0.0118218
0.008513859
0.01182097
0.00851377
0.01182185
0.008514138
0.008513903
0.01182099
0.0118218
0.00851381
0.008513716
0.01182097
0.0118218
0.00851381
0.01182094
0.008513717
0.01182182
0.008514114
0.00851388
0.01182098
0.0118218
0.008513808
0.008513714
0.01182097
0.0118218
0.008513808
0.01182094
0.008513716
0.0118218
0.008513806
0.01182096
0.008513713
0.01182183
0.008513809
0.008513715
0.01182097
0.01182183
0.008513809
0.01182094
0.008513714
0.0118218
0.008513812
0.008513718
0.01182097
0.0118218
0.008513773
0.008513704
0.01182097
0.01182179
0.008513683
0.01182093
0.008513288
0.01181791
0.01181792
0.01181791
0.01181801
0.01182743
0.01181478
0.01181467
0.01181464
0.01181463
0.01181464
0.01181463
0.01178411
0.01182743
0.01181742
0.01174333
0.01181838
0.01181633
0.01178391
0.008654977
0.01181838
0.01181348
0.008874893
0.01181402
0.008891045
0.01181293
0.008894927
0.01181617
0.008898485
0.01181296
0.008896083
0.01181678
0.008898744
0.01181296
0.008896259
0.01181683
0.008898791
0.01181296
0.00889634
0.01181685
0.00889881
0.01181296
0.008896309
0.01181686
0.008898566
0.01182194
0.008515
0.01182082
0.008514739
0.01182179
0.008513677
0.01182097
0.008513552
0.01182183
0.008513928
0.01182098
0.008513859
0.01182183
0.008513945
0.01182097
0.008513837
0.01182184
0.008513914
0.01182097
0.008513826
0.01182183
0.00851391
0.01182097
0.008513811
0.01182184
0.008513897
0.01182097
0.008513801
0.01182184
0.008513892
0.01182097
0.008513793
0.01182184
0.008513885
0.01182097
0.008513785
0.01182184
0.008513881
0.01182097
0.008513783
0.01182184
0.008513878
0.01182097
0.008513779
0.01182183
0.008513875
0.01182097
0.008513776
0.01182183
0.008513875
0.01182097
0.008513776
0.01182183
0.008513871
0.01182097
0.008513772
0.01182183
0.008513871
0.01182097
0.008513772
0.01182183
0.008513868
0.01182097
0.008513769
0.01182183
0.008513866
0.01182097
0.008513767
0.01182183
0.008513866
0.01182097
0.008513767
0.01182183