/*--------------------------------*- C++ -*----------------------------------*\
  =========                 |
  \\      /  F ield         | OpenFOAM: The Open Source CFD Toolbox
   \\    /   O peration     | Website:  https://openfoam.org
    \\  /    A nd           | Version:  7
     \\/     M anipulation  |
\*---------------------------------------------------------------------------*/
FoamFile
{
    version     2.0;
    format      ascii;
    class       volScalarField;
    location    "0.03";
    object      k;
}
// * * * * * * * * * * * * * * * * * * * * * * * * * * * * * * * * * * * * * //

dimensions      [0 2 -2 0 0 0 0];

internalField   nonuniform List<scalar> 
77308
(
0.003733106
0.003732321
0.003732304
0.003732377
0.003732499
0.003732655
0.003742083
0.003741864
0.00374181
0.003741832
0.003741882
0.00374195
0.003741957
0.003741619
0.003741533
0.003741545
0.00374159
0.003741656
0.00374191
0.003741547
0.003741444
0.00374145
0.003741499
0.003741566
0.00374186
0.003741483
0.003741373
0.003741378
0.003741426
0.003741497
0.003741818
0.003741437
0.003741326
0.003741333
0.003741384
0.003741458
0.003741766
0.003741383
0.003741274
0.003741283
0.003741339
0.003741416
0.003741711
0.003741328
0.003741225
0.003741239
0.0037413
0.003741382
0.003741652
0.003741275
0.00374118
0.003741202
0.003741269
0.003741357
0.003741602
0.003741244
0.003741166
0.0037412
0.003741275
0.003741369
0.003741597
0.003741298
0.003741257
0.003741307
0.003741391
0.003741488
0.003741708
0.003741584
0.003741598
0.003741665
0.003741751
0.003741847
0.003732614
0.003732108
0.003732222
0.003732406
0.003732622
0.003732856
0.003671516
0.003672838
0.003674195
0.003675614
0.003677098
0.003678655
0.003759126
0.003759445
0.003759481
0.003759619
0.003760064
0.003760766
0.003752355
0.003752975
0.003753016
0.003753125
0.003753338
0.003753627
0.00375177
0.00375219
0.003752473
0.003752781
0.003753088
0.003753434
0.003751542
0.003752081
0.003752389
0.003752791
0.003753185
0.003753608
0.003750504
0.003750944
0.00375128
0.003751665
0.003752093
0.003752583
0.003749791
0.003750235
0.003750611
0.003751072
0.003751593
0.00375216
0.003748897
0.003749312
0.003749727
0.003750235
0.003750838
0.003751494
0.003748031
0.003748439
0.003748916
0.003749505
0.003750206
0.003750966
0.00374712
0.003747531
0.003748081
0.003748763
0.003749577
0.003750459
0.003746184
0.003746619
0.003747256
0.003748051
0.003748988
0.003750008
0.003641254
0.003641216
0.003641217
0.003641219
0.003641222
0.003641225
0.003733192
0.003641228
0.003641227
0.003641229
0.003641232
0.003641235
0.003641238
0.003732935
0.003641227
0.003641228
0.00364123
0.003641233
0.003641236
0.00364124
0.003732815
0.003641227
0.003641228
0.00364123
0.003641233
0.003641237
0.003641241
0.003732724
0.003641226
0.003641228
0.00364123
0.003641233
0.003641237
0.003641241
0.00373261
0.003641225
0.003641227
0.00364123
0.003641233
0.003641237
0.003641242
0.003732476
0.003641224
0.003641226
0.003641229
0.003641233
0.003641237
0.003641241
0.003732322
0.003641223
0.003641225
0.003641228
0.003641232
0.003641236
0.003641241
0.003732153
0.003641222
0.003641224
0.003641227
0.00364123
0.003641235
0.00364124
0.003731966
0.00364122
0.003641222
0.003641225
0.003641229
0.003641233
0.003641238
0.003731779
0.003641218
0.00364122
0.003641224
0.003641229
0.003641233
0.003641238
0.003731667
0.003641215
0.00364122
0.003641224
0.003641228
0.003641232
0.003641237
0.003731688
0.003641205
0.003641211
0.003641217
0.003641223
0.00364123
0.003641236
0.003715639
0.003714858
0.003714747
0.003715031
0.003715487
0.003716004
0.003810485
0.003648033
0.003644764
0.003642838
0.003643556
0.003643149
0.003643089
0.003759565
0.003642521
0.003642484
0.003642509
0.003642649
0.003642695
0.003642639
0.003758647
0.003641858
0.003642184
0.003642115
0.003641949
0.003641964
0.003642019
0.00375814
0.003641906
0.003641814
0.00364182
0.003641852
0.003641893
0.003641909
0.003756022
0.003641953
0.003642041
0.00364202
0.003642028
0.003642035
0.003642045
0.003753847
0.003641899
0.003641948
0.003641943
0.003641957
0.003641968
0.003641976
0.003751544
0.003641927
0.003641972
0.003641971
0.003641994
0.003642008
0.003642017
0.003749179
0.003641927
0.003641962
0.003641966
0.003641992
0.003642013
0.003642027
0.003746751
0.003641933
0.003641977
0.003641989
0.003642025
0.003642058
0.003642085
0.003642284
0.003641935
0.003641984
0.003642006
0.003642053
0.003642109
0.003642157
0.003641251
0.003641215
0.003641216
0.003641218
0.00364122
0.003641223
0.003733086
0.003641212
0.003641212
0.003641213
0.003641215
0.003641218
0.003641222
0.003741864
0.003641227
0.003641212
0.003641214
0.003641216
0.00364122
0.003641223
0.003741658
0.003641227
0.003641212
0.003641214
0.003641217
0.00364122
0.003641224
0.003741592
0.003641226
0.003641212
0.003641214
0.003641217
0.003641221
0.003641225
0.003741527
0.003641226
0.003641211
0.003641214
0.003641217
0.003641221
0.003641225
0.003741472
0.003641225
0.00364121
0.003641213
0.003641216
0.00364122
0.003641225
0.00374141
0.003641223
0.003641209
0.003641212
0.003641215
0.00364122
0.003641224
0.003741346
0.003641222
0.003641207
0.00364121
0.003641214
0.003641218
0.003641223
0.00374129
0.003641219
0.003641205
0.003641209
0.003641212
0.003641217
0.003641221
0.003741274
0.003641217
0.003641203
0.003641206
0.00364121
0.003641214
0.003641219
0.003741346
0.003641215
0.003641244
0.003641248
0.003641255
0.003641262
0.00364127
0.00373148
0.003641205
0.003743203
0.003742769
0.003742681
0.003742717
0.003742798
0.003714579
0.003811999
0.003644571
0.003643943
0.003647696
0.003644351
0.003644524
0.003644599
0.003752479
0.003643463
0.003642318
0.003641816
0.003641989
0.003641836
0.003641866
0.003751698
0.003642342
0.003641784
0.003641945
0.003641928
0.003641855
0.003641836
0.003751518
0.003642039
0.00364178
0.003641783
0.00364183
0.003641796
0.00364184
0.003750474
0.003642256
0.003641965
0.003641973
0.003642011
0.003642024
0.003641995
0.003749759
0.003642176
0.00364188
0.003641911
0.00364193
0.003641941
0.00364194
0.003748812
0.003642205
0.003641928
0.003641949
0.003641974
0.00364199
0.003641998
0.0037479
0.003642205
0.003641923
0.003641947
0.003641973
0.003641994
0.003642008
0.003746922
0.003642225
0.003641943
0.003641973
0.003642008
0.003642041
0.003642068
0.003745946
0.003642238
0.003641954
0.003641996
0.003642043
0.003642095
0.003642145
0.003641251
0.003641214
0.003641215
0.003641217
0.003641219
0.003641222
0.003732979
0.003641212
0.003641211
0.003641213
0.003641215
0.003641218
0.003641221
0.003741758
0.003641227
0.003641212
0.003641214
0.003641216
0.003641219
0.003641223
0.003741451
0.003641226
0.003641212
0.003641214
0.003641217
0.00364122
0.003641224
0.003741355
0.003641226
0.003641211
0.003641214
0.003641217
0.003641221
0.003641225
0.003741279
0.003641225
0.003641211
0.003641214
0.003641217
0.003641221
0.003641225
0.003741219
0.003641224
0.00364121
0.003641213
0.003641216
0.00364122
0.003641225
0.003741154
0.003641223
0.003641209
0.003641212
0.003641215
0.003641219
0.003641224
0.00374109
0.003641221
0.003641207
0.00364121
0.003641214
0.003641218
0.003641223
0.003741041
0.003641219
0.003641205
0.003641208
0.003641212
0.003641216
0.003641221
0.003741054
0.003641217
0.003641203
0.003641206
0.00364121
0.003641214
0.003641219
0.003741235
0.003641214
0.003641238
0.003641242
0.00364125
0.003641256
0.003641264
0.003730938
0.003641205
0.00374272
0.003742076
0.003741869
0.003741876
0.003741959
0.003714008
0.003814663
0.003642316
0.003644385
0.003648221
0.003646107
0.003645313
0.003644747
0.003752897
0.003643827
0.003642005
0.003642433
0.003642007
0.00364199
0.003642001
0.003751889
0.003642226
0.003642207
0.003641716
0.003642245
0.003641804
0.003641872
0.003751894
0.003642191
0.003641733
0.003641749
0.003641767
0.003641823
0.003641822
0.003750689
0.003642237
0.003642043
0.003641957
0.00364204
0.003642014
0.003642001
0.003749913
0.003642168
0.003641914
0.003641891
0.003641946
0.003641936
0.003641942
0.003748923
0.003642198
0.00364194
0.003641947
0.003641978
0.003641989
0.003641998
0.003747957
0.003642199
0.003641926
0.003641946
0.003641975
0.003641995
0.003642009
0.003746924
0.003642215
0.003641944
0.003641973
0.003642008
0.003642041
0.003642068
0.003745908
0.003642228
0.003641951
0.003641995
0.003642042
0.003642096
0.003642146
0.003641251
0.003641214
0.003641215
0.003641217
0.003641219
0.003641222
0.003732956
0.003641211
0.003641211
0.003641213
0.003641215
0.003641218
0.003641221
0.003741719
0.003641227
0.003641212
0.003641214
0.003641216
0.003641219
0.003641223
0.003741385
0.003641226
0.003641212
0.003641214
0.003641217
0.00364122
0.003641224
0.003741271
0.003641226
0.003641211
0.003641214
0.003641217
0.003641221
0.003641225
0.003741188
0.003641225
0.003641211
0.003641214
0.003641217
0.003641221
0.003641225
0.003741128
0.003641224
0.00364121
0.003641213
0.003641216
0.00364122
0.003641225
0.003741062
0.003641222
0.003641209
0.003641212
0.003641215
0.003641219
0.003641224
0.003740999
0.003641221
0.003641207
0.00364121
0.003641214
0.003641218
0.003641223
0.003740953
0.003641218
0.003641205
0.003641208
0.003641212
0.003641216
0.003641221
0.003740984
0.003641216
0.003641202
0.003641206
0.003641209
0.003641214
0.003641218
0.003741192
0.003641214
0.003641236
0.00364124
0.003641248
0.003641255
0.003641262
0.003730866
0.003641205
0.003742561
0.003741794
0.003741527
0.003741517
0.003741599
0.003713838
0.003814579
0.003643455
0.003648548
0.003645688
0.003645924
0.003645014
0.003644982
0.003752634
0.003644505
0.003641907
0.00364189
0.00364169
0.003641781
0.003641768
0.003751888
0.003642564
0.003641876
0.003642176
0.003641774
0.003642209
0.003641798
0.003751734
0.003642059
0.003641768
0.003641718
0.003641766
0.00364177
0.003641816
0.003750606
0.003642262
0.003641951
0.003642063
0.003641939
0.00364203
0.003641965
0.003749867
0.003642171
0.00364187
0.003641921
0.003641908
0.003641949
0.00364193
0.00374889
0.003642197
0.003641913
0.003641959
0.003641971
0.003641992
0.00364199
0.003747939
0.003642193
0.003641917
0.003641953
0.003641972
0.003641996
0.003642008
0.003746895
0.003642209
0.003641939
0.003641975
0.003642008
0.003642042
0.003642067
0.00374587
0.003642219
0.003641948
0.003641997
0.003642044
0.003642098
0.003642149
0.003641251
0.003641214
0.003641215
0.003641217
0.003641219
0.003641222
0.003732949
0.003641211
0.003641211
0.003641213
0.003641215
0.003641218
0.003641221
0.003741719
0.003641227
0.003641212
0.003641214
0.003641216
0.003641219
0.003641223
0.003741384
0.003641226
0.003641212
0.003641214
0.003641217
0.00364122
0.003641224
0.003741271
0.003641226
0.003641211
0.003641214
0.003641217
0.003641221
0.003641225
0.003741188
0.003641225
0.003641211
0.003641214
0.003641217
0.003641221
0.003641225
0.003741128
0.003641224
0.00364121
0.003641213
0.003641216
0.00364122
0.003641225
0.003741062
0.003641222
0.003641209
0.003641212
0.003641215
0.003641219
0.003641224
0.003740999
0.003641221
0.003641207
0.00364121
0.003641214
0.003641218
0.003641223
0.003740953
0.003641218
0.003641205
0.003641208
0.003641212
0.003641216
0.003641221
0.003740985
0.003641216
0.003641202
0.003641206
0.003641209
0.003641214
0.003641218
0.003741192
0.003641214
0.003641236
0.00364124
0.003641248
0.003641255
0.003641262
0.00373086
0.003641205
0.003742561
0.003741794
0.003741527
0.003741517
0.003741599
0.003713821
0.003814746
0.003653963
0.003648677
0.003645714
0.003645925
0.003645018
0.003644982
0.003752626
0.003644461
0.003641912
0.003641885
0.003641689
0.003641782
0.003641768
0.003751887
0.00364256
0.003641874
0.003642186
0.003641773
0.003642214
0.003641797
0.003751733
0.00364206
0.003641769
0.003641717
0.003641766
0.003641769
0.003641816
0.003750605
0.003642262
0.003641951
0.003642064
0.003641939
0.003642031
0.003641965
0.003749869
0.003642171
0.00364187
0.003641921
0.003641908
0.00364195
0.00364193
0.00374889
0.003642197
0.003641913
0.003641959
0.003641972
0.003641993
0.00364199
0.003747938
0.003642193
0.003641917
0.003641953
0.003641973
0.003641996
0.003642008
0.003746895
0.003642209
0.003641939
0.003641975
0.003642008
0.003642042
0.003642067
0.003745869
0.003642219
0.003641948
0.003641998
0.003642044
0.003642098
0.003642148
0.003641251
0.003641214
0.003641215
0.003641217
0.003641219
0.003641222
0.003732969
0.003641212
0.003641211
0.003641213
0.003641215
0.003641218
0.003641221
0.003741758
0.003641227
0.003641212
0.003641214
0.003641216
0.003641219
0.003641223
0.003741451
0.003641226
0.003641212
0.003641214
0.003641217
0.00364122
0.003641224
0.003741355
0.003641226
0.003641211
0.003641214
0.003641217
0.003641221
0.003641225
0.003741279
0.003641225
0.003641211
0.003641214
0.003641217
0.003641221
0.003641225
0.00374122
0.003641224
0.00364121
0.003641213
0.003641216
0.00364122
0.003641225
0.003741156
0.003641223
0.003641209
0.003641212
0.003641215
0.003641219
0.003641224
0.003741092
0.003641221
0.003641207
0.00364121
0.003641214
0.003641218
0.003641223
0.003741042
0.003641219
0.003641205
0.003641208
0.003641212
0.003641216
0.003641221
0.003741056
0.003641217
0.003641203
0.003641206
0.00364121
0.003641214
0.003641219
0.003741236
0.003641214
0.003641238
0.003641242
0.00364125
0.003641256
0.003641264
0.003730878
0.003641205
0.00374272
0.003742076
0.003741869
0.003741876
0.003741959
0.003713883
0.003815678
0.003647797
0.00364438
0.003648225
0.003646107
0.003645286
0.003644709
0.003752893
0.003643827
0.003641999
0.003642426
0.003642008
0.003641989
0.003642
0.003751893
0.003642219
0.00364222
0.003641716
0.003642239
0.003641804
0.003641871
0.003751897
0.003642199
0.003641733
0.003641749
0.003641767
0.003641823
0.003641824
0.003750692
0.003642236
0.003642045
0.003641957
0.00364204
0.003642014
0.003642002
0.003749914
0.003642167
0.003641915
0.003641891
0.003641946
0.003641936
0.003641942
0.003748923
0.003642198
0.00364194
0.003641947
0.003641978
0.003641989
0.003641998
0.003747957
0.003642199
0.003641926
0.003641946
0.003641975
0.003641995
0.00364201
0.003746923
0.003642215
0.003641944
0.003641973
0.003642008
0.003642041
0.003642068
0.003745907
0.003642228
0.003641951
0.003641995
0.003642041
0.003642096
0.003642147
0.003641251
0.003641215
0.003641216
0.003641218
0.003641221
0.003641224
0.003733039
0.003641212
0.003641212
0.003641214
0.003641216
0.003641219
0.003641222
0.003741864
0.003641227
0.003641212
0.003641214
0.003641217
0.00364122
0.003641224
0.003741658
0.003641227
0.003641212
0.003641214
0.003641217
0.00364122
0.003641224
0.003741593
0.003641226
0.003641212
0.003641214
0.003641217
0.003641221
0.003641225
0.00374153
0.003641226
0.003641211
0.003641214
0.003641217
0.003641221
0.003641225
0.003741479
0.003641225
0.00364121
0.003641213
0.003641216
0.00364122
0.003641225
0.003741415
0.003641223
0.003641209
0.003641212
0.003641215
0.00364122
0.003641224
0.003741349
0.003641222
0.003641207
0.00364121
0.003641214
0.003641218
0.003641223
0.003741295
0.003641219
0.003641205
0.003641209
0.003641212
0.003641217
0.003641221
0.003741282
0.003641217
0.003641203
0.003641206
0.00364121
0.003641214
0.003641219
0.003741353
0.003641215
0.003641244
0.003641248
0.003641255
0.003641262
0.00364127
0.003731047
0.003641205
0.003743201
0.003742768
0.003742681
0.003742717
0.003742797
0.003714157
0.003816231
0.003647029
0.003643942
0.003647837
0.003644322
0.003644571
0.003644515
0.003752476
0.003643457
0.003642298
0.003641812
0.003641956
0.003641829
0.003641865
0.003751687
0.003642339
0.003641783
0.003641935
0.00364195
0.003641855
0.003641836
0.003751515
0.003642041
0.00364178
0.003641783
0.003641828
0.003641797
0.00364184
0.00375047
0.003642255
0.003641966
0.003641972
0.003642015
0.00364202
0.003641995
0.00374976
0.003642176
0.00364188
0.003641911
0.003641932
0.00364194
0.003641941
0.003748815
0.003642205
0.003641929
0.003641949
0.003641974
0.00364199
0.003641998
0.003747899
0.003642206
0.003641924
0.003641948
0.003641975
0.003641995
0.003642008
0.00374692
0.003642225
0.003641943
0.003641975
0.003642008
0.003642041
0.003642068
0.003745944
0.003642238
0.003641955
0.003642
0.003642049
0.003642099
0.003642145
0.003641248
0.003641255
0.003641259
0.003641263
0.003641268
0.003641274
0.003733177
0.003641229
0.003641229
0.003641231
0.003641234
0.003641237
0.00364124
0.003732736
0.003641227
0.003641228
0.00364123
0.003641233
0.003641236
0.00364124
0.00373213
0.003641227
0.003641228
0.00364123
0.003641233
0.003641237
0.003641241
0.003732031
0.003641226
0.003641228
0.00364123
0.003641233
0.003641237
0.003641241
0.003731911
0.003641225
0.003641227
0.00364123
0.003641233
0.003641237
0.003641242
0.00373185
0.003641224
0.003641226
0.003641229
0.003641233
0.003641237
0.003641241
0.00373166
0.003641223
0.003641225
0.003641228
0.003641232
0.003641236
0.003641241
0.003731418
0.003641222
0.003641224
0.003641227
0.00364123
0.003641235
0.00364124
0.003731277
0.00364122
0.003641222
0.003641225
0.003641229
0.003641233
0.003641238
0.003731129
0.003641218
0.00364122
0.003641224
0.003641229
0.003641233
0.003641238
0.003731128
0.003641215
0.00364122
0.003641224
0.003641228
0.003641232
0.003641237
0.003731325
0.003641205
0.003641263
0.00364126
0.003641273
0.003641283
0.003641296
0.003715901
0.003695683
0.003695606
0.003695817
0.003696608
0.003697551
0.003813264
0.003645045
0.003643202
0.003646407
0.003647959
0.003647752
0.003649497
0.003760341
0.003642513
0.003642484
0.003642496
0.003642633
0.00364267
0.003642615
0.003757656
0.003641858
0.00364218
0.003642131
0.003641942
0.003641964
0.003642026
0.0037591
0.003641902
0.003641814
0.003641822
0.003641852
0.003641895
0.00364191
0.003756518
0.003641953
0.003642041
0.003642022
0.00364203
0.003642033
0.003642046
0.00375449
0.003641898
0.003641948
0.003641943
0.003641958
0.003641967
0.003641978
0.003752044
0.003641928
0.003641972
0.003641971
0.003641994
0.003642008
0.003642017
0.00374958
0.003641927
0.003641962
0.003641966
0.003641992
0.003642012
0.003642027
0.003746984
0.003641934
0.003641976
0.003641988
0.003642021
0.003642057
0.003642085
0.003742693
0.003641936
0.003641983
0.003642003
0.003642046
0.003642102
0.003642157
0.003641352
0.003641358
0.003641363
0.003641372
0.003641383
0.003641396
0.003712873
0.003742177
0.003742041
0.003742014
0.003742041
0.003742089
0.003742151
0.003712376
0.00374199
0.003741682
0.003741608
0.003741622
0.00374167
0.003741735
0.003712192
0.003741913
0.003741557
0.003741457
0.003741466
0.003741515
0.003741583
0.003711958
0.003741863
0.003741488
0.00374138
0.003741386
0.003741435
0.003741505
0.00371168
0.003741816
0.003741437
0.003741328
0.003741335
0.003741386
0.00374146
0.003712607
0.003741761
0.003741382
0.003741274
0.003741284
0.00374134
0.003741417
0.003712286
0.003741708
0.003741327
0.003741224
0.003741239
0.0037413
0.003741382
0.003710443
0.00374165
0.003741274
0.00374118
0.003741202
0.003741269
0.003741357
0.003731795
0.003741597
0.003741243
0.003741165
0.0037412
0.003741275
0.003741369
0.003710668
0.003741588
0.003741295
0.003741256
0.003741307
0.00374139
0.003741488
0.003710229
0.003741698
0.003741573
0.003741596
0.003741664
0.00374175
0.003741844
0.003711294
0.003641267
0.003641273
0.003641277
0.003641283
0.003641289
0.003641297
0.003715776
0.003717003
0.003717472
0.003717927
0.003718428
0.003718935
0.003814954
0.003650206
0.003654583
0.003649531
0.003648681
0.003646623
0.003648373
0.003793028
0.003752413
0.003753068
0.003753044
0.003753208
0.003753361
0.003753701
0.003775314
0.003751743
0.003752201
0.003752467
0.003752793
0.003753057
0.003753446
0.003783534
0.003751528
0.003752097
0.003752384
0.003752809
0.003753172
0.003753627
0.003777238
0.003750504
0.003750949
0.003751277
0.003751677
0.003752093
0.003752588
0.003772321
0.003749786
0.003750241
0.00375061
0.003751077
0.003751594
0.003752165
0.003763811
0.003748884
0.003749316
0.003749726
0.003750237
0.003750838
0.003751495
0.003759196
0.003748034
0.003748438
0.003748917
0.003749512
0.003750213
0.003750974
0.003752398
0.003747118
0.00374753
0.003748077
0.003748758
0.00374957
0.003750453
0.003745495
0.003746182
0.003746621
0.003747247
0.00374808
0.003749019
0.003750041
0.003712882
0.003733713
0.003641372
0.003711616
0.003641278
0.003732576
0.003733149
0.003731932
0.003641281
0.003641288
0.003641792
0.003641789
0.003732213
0.003731486
0.003731261
0.00364129
0.00364129
0.003641811
0.003641815
0.003732296
0.003731266
0.003731257
0.003641294
0.003641294
0.00364184
0.003641843
0.003732386
0.003731333
0.003731347
0.003641299
0.003641298
0.003641873
0.003641876
0.003732513
0.003731456
0.003731475
0.003641304
0.003641304
0.003641914
0.003641918
0.003731612
0.003641311
0.003641965
0.003733905
0.003733662
0.0037129
0.003641376
0.003712438
0.003641315
0.003733559
0.003733498
0.003712354
0.003641362
0.003712249
0.003641313
0.003733493
0.003733419
0.003712199
0.003641376
0.003712002
0.00364131
0.003733404
0.003733324
0.003711961
0.003641375
0.003711712
0.003641306
0.003733308
0.003733209
0.003711669
0.003641376
0.003711356
0.003641301
0.003733189
0.003733075
0.003711304
0.003641374
0.003710941
0.003641296
0.003733054
0.003732926
0.003710877
0.00364137
0.003710475
0.003641301
0.003732902
0.003732762
0.003710403
0.003641365
0.003709973
0.003641304
0.003732741
0.003732594
0.003709892
0.003641357
0.003709426
0.003641306
0.003732587
0.003732481
0.003709333
0.003641353
0.003708837
0.003641311
0.003732574
0.003732877
0.003708738
0.003641343
0.003708396
0.003641317
0.003732779
0.003714653
0.00370845
0.003641236
0.003698052
0.003641233
0.00367158
0.003803264
0.003714048
0.00366978
0.0036728
0.00379934
0.00379518
0.00371587
0.003717154
0.003701951
0.003690742
0.00367414
0.003795304
0.003789444
0.003717171
0.003717436
0.003677786
0.003675784
0.00367549
0.003795187
0.00378838
0.003717482
0.003717871
0.003659067
0.003658301
0.003676938
0.003798144
0.003788825
0.00371793
0.003718372
0.003657937
0.003656654
0.003678473
0.003801063
0.003789751
0.003718438
0.003718917
0.003660086
0.003659122
0.003804409
0.003718978
0.003664673
0.003758993
0.003760886
0.003815536
0.003659724
0.003789266
0.003643377
0.003759348
0.003758072
0.003793249
0.003642919
0.003783335
0.003643079
0.00375701
0.003757133
0.003785344
0.003642422
0.003781558
0.003642559
0.00375678
0.00375511
0.003783767
0.003642473
0.003775959
0.003642366
0.0037546
0.003753173
0.003777174
0.003642378
0.00377088
0.003642152
0.003752696
0.003751198
0.003771834
0.003642312
0.003765057
0.003642143
0.003750693
0.003749115
0.003765459
0.003642239
0.003759098
0.003642088
0.003748606
0.00374695
0.003759095
0.003642165
0.003752767
0.003642089
0.003746431
0.003744703
0.003752382
0.003642089
0.003746109
0.00364207
0.003744175
0.003742344
0.003745498
0.003642077
0.00373908
0.003642069
0.00364136
0.003712892
0.003641243
0.003641355
0.003712134
0.003641243
0.003715763
0.003695105
0.003716695
0.003673009
0.003641355
0.003712051
0.003641243
0.003641354
0.003712043
0.003641243
0.003716615
0.003709784
0.003716444
0.003658139
0.003641354
0.003712035
0.003641242
0.003641353
0.003712002
0.003641242
0.003716424
0.003676017
0.00371638
0.003657495
0.003641353
0.003711994
0.003641242
0.003641353
0.003712021
0.003641242
0.003716374
0.003675631
0.003716365
0.003664939
0.003641354
0.003712016
0.003641242
0.003641354
0.003712012
0.003641242
0.003716366
0.003658771
0.003716374
0.003674624
0.003641354
0.003712006
0.003641242
0.003641354
0.003712006
0.003641242
0.00371638
0.003657944
0.003716424
0.003676076
0.003641354
0.003712027
0.003641243
0.003641355
0.003712046
0.003641243
0.003716444
0.003658275
0.003716614
0.003708632
0.003641361
0.003712129
0.003641243
0.003641358
0.003712893
0.003641243
0.003716694
0.003674041
0.003715755
0.003695888
0.003641378
0.003711625
0.003641276
0.003734293
0.00364136
0.003641801
0.003641802
0.003734208
0.003733749
0.003641361
0.003641816
0.003641816
0.003733691
0.003733635
0.003641368
0.003641837
0.00364184
0.003733694
0.003733689
0.003641378
0.003641869
0.003641872
0.00373378
0.00373378
0.003641391
0.003641909
0.003641913
0.003733899
0.003733899
0.003641959
0.003734047
0.003641367
0.003712246
0.003641313
0.00373358
0.003733498
0.003641375
0.003712002
0.00364131
0.003733494
0.003733419
0.003641376
0.003711839
0.003641301
0.003733307
0.003733206
0.003641374
0.003713532
0.003641297
0.003733199
0.003733084
0.003641237
0.003700056
0.003641233
0.003732721
0.003714423
0.003714012
0.003670384
0.003670761
0.003803888
0.00371837
0.003658413
0.003657344
0.003675605
0.003676933
0.003804371
0.003789983
0.003718931
0.003663122
0.003669543
0.003677081
0.003677632
0.003799069
0.003797172
0.003660343
0.003676675
0.003825317
0.003641418
0.003718355
0.003641488
0.00371748
0.003641617
0.003716999
0.003641474
0.003717273
0.00364162
0.003716627
0.003641479
0.003717201
0.003641623
0.003716501
0.003641476
0.003717024
0.003641612
0.003716338
0.003641473
0.003716799
0.0036416
0.003716124
0.003641466
0.003716516
0.003641583
0.003715866
0.003641458
0.003716189
0.003641562
0.003715576
0.003641448
0.003715827
0.003641539
0.003715254
0.003641437
0.003715431
0.003641513
0.003714905
0.003641426
0.003715004
0.003641488
0.003714535
0.003641412
0.003714583
0.00364146
0.003714322
0.003641394
0.003714557
0.003641421
0.003715124
0.003732234
0.003714508
0.003714764
0.003641269
0.003641276
0.003641235
0.003641243
0.003732233
0.003714805
0.0037152
0.003641273
0.003641283
0.003641241
0.003641253
0.003732416
0.00371527
0.003715694
0.003641277
0.003641291
0.003641248
0.003641264
0.003732632
0.003715754
0.003716213
0.003641283
0.0036413
0.003641256
0.003641275
0.003732865
0.003716246
0.003716758
0.00364129
0.00364131
0.003641265
0.003641287
0.003716776
0.003641297
0.003641274
0.00367174
0.003718001
0.003672051
0.003716166
0.00371629
0.003673254
0.003716592
0.00371666
0.003674525
0.003716995
0.00371704
0.003675864
0.00371742
0.00371745
0.003677269
0.003717874
0.003717889
0.003678765
0.003718359
0.003718357
0.003652707
0.003776818
0.003670014
0.003778278
0.003759815
0.003759048
0.003759279
0.003650213
0.003652484
0.00364408
0.003645723
0.003759569
0.003760717
0.003759834
0.003651694
0.003650248
0.003644879
0.003644172
0.003758919
0.003761948
0.003761002
0.003650883
0.003651986
0.003643911
0.003643378
0.003759107
0.003763028
0.003761779
0.003647665
0.003649827
0.003643541
0.003643111
0.003759704
0.003763941
0.003762284
0.003646726
0.003648152
0.003643435
0.003643102
0.003764781
0.003646269
0.00364345
0.003650825
0.003781466
0.003649805
0.003772533
0.003644151
0.003774716
0.003646974
0.003768374
0.003645816
0.003773336
0.003646965
0.003765407
0.003645115
0.003768116
0.00364613
0.003761154
0.003645053
0.003763829
0.003645638
0.003756956
0.003644735
0.003758963
0.003645197
0.003752457
0.003644489
0.003753998
0.00364475
0.003747782
0.003644192
0.003748805
0.003644381
0.003742936
0.003643947
0.003743381
0.003644112
0.003737913
0.003641391
0.003641392
0.003641238
0.003698783
0.003641236
0.003731256
0.003641235
0.00369878
0.003641237
0.003716695
0.003716733
0.003652061
0.00375851
0.003645587
0.003812274
0.003651545
0.003759572
0.003643295
0.003641388
0.00364139
0.003641266
0.003698762
0.003641237
0.003731043
0.003641265
0.003698688
0.003641237
0.003716733
0.003716731
0.003653541
0.00375727
0.003643716
0.003816264
0.003650074
0.003757379
0.003643755
0.003641389
0.003641387
0.003641264
0.003698675
0.003641237
0.003730878
0.003641264
0.003698663
0.003641237
0.003716714
0.003716715
0.003655761
0.00375775
0.003643146
0.003815541
0.003651373
0.003757756
0.003643322
0.003641388
0.003641389
0.003641263
0.003698662
0.003641237
0.00373086
0.003641263
0.003698663
0.003641237
0.003716709
0.00371671
0.003656797
0.003758012
0.003643094
0.003813587
0.003653166
0.003757807
0.00364336
0.00364139
0.003641388
0.003641263
0.003698663
0.003641237
0.003730866
0.003641263
0.003698662
0.003641237
0.00371671
0.00371671
0.003649997
0.003757886
0.003643445
0.003814757
0.003656587
0.003758011
0.003643088
0.003641388
0.003641388
0.003641264
0.003698663
0.003641237
0.00373094
0.003641264
0.003698675
0.003641237
0.003716711
0.00371671
0.003651184
0.003757772
0.003643305
0.003814674
0.003655721
0.003757751
0.003643132
0.003641388
0.003641389
0.003641265
0.003698688
0.003641237
0.003731495
0.003641266
0.003698775
0.003641237
0.00371672
0.003716721
0.003650118
0.00375738
0.003643761
0.003811778
0.003653716
0.003757256
0.003643711
0.003641393
0.003641395
0.003641235
0.003698823
0.003641237
0.003731995
0.003641238
0.003699831
0.003641236
0.003716748
0.003716746
0.003651815
0.003759534
0.003643251
0.003810186
0.003651987
0.003758413
0.00364564
0.003641379
0.003641392
0.003641369
0.003712442
0.003641314
0.003734049
0.003733711
0.003641375
0.003711715
0.003641306
0.003733405
0.003733323
0.003641372
0.003710533
0.003641301
0.003733054
0.003732923
0.003641366
0.003710173
0.003641307
0.00373289
0.003732695
0.003641387
0.003710168
0.003641308
0.003732617
0.003732522
0.003641354
0.003711688
0.003641314
0.00373259
0.003732494
0.003641344
0.00370986
0.003641317
0.003732568
0.003732845
0.0036413
0.003641256
0.003641275
0.003732405
0.003732631
0.003715747
0.003716202
0.003641309
0.003641265
0.003641287
0.003732618
0.003732854
0.003716234
0.003716605
0.003641274
0.003732826
0.003716055
0.003716752
0.003717118
0.003716937
0.003698058
0.003679073
0.003669361
0.003714557
0.003799712
0.003791016
0.003717414
0.003663095
0.00366078
0.003715906
0.00367409
0.003801668
0.003792865
0.003717868
0.003662503
0.003664965
0.00367416
0.003675484
0.003783764
0.003791309
0.003659357
0.003788419
0.003643272
0.003759119
0.003760863
0.003649224
0.00364331
0.003643034
0.003761329
0.003759309
0.003761961
0.003761606
0.003648685
0.00364334
0.003643125
0.003761294
0.003761393
0.003762716
0.00376154
0.003643253
0.003761645
0.003763809
0.003642969
0.003778671
0.003643028
0.003759238
0.00375827
0.003642356
0.003780694
0.003642552
0.003757251
0.003757089
0.003642483
0.003775987
0.00364236
0.003756726
0.003755094
0.003642381
0.003771091
0.003642164
0.003754584
0.003753134
0.003642324
0.003762938
0.0036421
0.003752658
0.003751369
0.003642218
0.003759207
0.003642151
0.003750889
0.003749084
0.003642165
0.003752789
0.00364208
0.003748578
0.003746936
0.003642088
0.003746102
0.00364207
0.003746426
0.003744699
0.003642078
0.003739072
0.003642067
0.003744172
0.003742341
0.003641553
0.003717577
0.003641516
0.003717975
0.003641379
0.003641393
0.003641483
0.003717292