/*--------------------------------*- C++ -*----------------------------------*\
  =========                 |
  \\      /  F ield         | OpenFOAM: The Open Source CFD Toolbox
   \\    /   O peration     | Website:  https://openfoam.org
    \\  /    A nd           | Version:  7
     \\/     M anipulation  |
\*---------------------------------------------------------------------------*/
FoamFile
{
    version     2.0;
    format      ascii;
    class       volScalarField;
    location    "0.07";
    object      k;
}
// * * * * * * * * * * * * * * * * * * * * * * * * * * * * * * * * * * * * * //

dimensions      [0 2 -2 0 0 0 0];

internalField   nonuniform List<scalar> 
109929
(
0.003786217
0.003777715
0.003772007
0.003767722
0.003764188
0.003761243
0.003783443
0.003781094
0.003777747
0.00377458
0.003771745
0.00376922
0.003776651
0.003775775
0.003773377
0.003770832
0.003768482
0.003766313
0.003771197
0.003771168
0.003769616
0.00376773
0.003765924
0.003764165
0.003766624
0.003766909
0.003765776
0.003764337
0.003762888
0.003761428
0.003762839
0.003763315
0.003762502
0.003761437
0.003760257
0.003759073
0.003759585
0.003760132
0.003759505
0.00375865
0.003757716
0.003756744
0.003756761
0.003757334
0.003756844
0.003756154
0.003755437
0.003754596
0.003754265
0.003754833
0.003754434
0.003753866
0.003753267
0.003752568
0.003752041
0.003752585
0.003752254
0.003751769
0.003751267
0.003750692
0.003750038
0.003750566
0.003750266
0.003749845
0.003749419
0.003748947
0.003748222
0.003748725
0.003748447
0.003748079
0.003747709
0.003747295
0.003746567
0.003747038
0.003746774
0.003746449
0.003746124
0.003745756
0.003745057
0.003745481
0.003745241
0.00374494
0.003744647
0.003744318
0.003743708
0.003744045
0.003743817
0.003743537
0.00374327
0.003742976
0.003742463
0.003742715
0.003742492
0.003742232
0.003741987
0.00374172
0.003741308
0.003741481
0.003741258
0.003741016
0.003740792
0.003740547
0.003740234
0.00374033
0.003740113
0.00373989
0.003739676
0.003739445
0.003739233
0.003739257
0.003739044
0.003738842
0.003738631
0.00373841
0.003738299
0.003738255
0.003738046
0.003737861
0.00373765
0.003737437
0.003737426
0.003737319
0.003737111
0.003736942
0.00373673
0.003736529
0.003736611
0.003736446
0.00373624
0.003736079
0.003735877
0.003735679
0.003507451
0.003735633
0.00373543
0.003735274
0.003735085
0.003734884
0.003610848
0.003564561
0.003561912
0.003557227
0.003552895
0.003549029
0.003517924
0.003511615
0.003511187
0.00350951
0.003508831
0.003508445
0.003514537
0.003510139
0.00350917
0.0035086
0.003508273
0.003508047
0.003511493
0.003509012
0.003508769
0.003508463
0.003508252
0.003508058
0.003510686
0.003508428
0.0035082
0.003508008
0.003507869
0.003507745
0.003510004
0.003507945
0.00350789
0.003507799
0.003507724
0.00350764
0.003509624
0.003507669
0.00350763
0.003507576
0.003507526
0.003507472
0.003509304
0.003507445
0.003507439
0.003507414
0.00350739
0.003507355
0.003509062
0.003507283
0.003507285
0.003507274
0.003507262
0.00350724
0.003508858
0.003507152
0.00350716
0.003507158
0.003507155
0.003507143
0.003508684
0.003507045
0.003507056
0.003507059
0.003507061
0.003507055
0.003508532
0.003506955
0.003506967
0.003506973
0.003506979
0.003506978
0.003508398
0.003506878
0.00350689
0.003506898
0.003506906
0.003506908
0.003508278
0.003506811
0.003506823
0.003506832
0.003506841
0.003506845
0.003508169
0.003506752
0.003506763
0.003506773
0.003506782
0.003506788
0.00350807
0.003506699
0.00350671
0.003506719
0.003506729
0.003506736
0.003507979
0.003506651
0.003506662
0.003506671
0.003506681
0.003506688
0.003507896
0.003506608
0.003506618
0.003506627
0.003506637
0.003506644
0.003507819
0.003506569
0.003506578
0.003506587
0.003506597
0.003506604
0.003507747
0.003506533
0.003506541
0.00350655
0.003506559
0.003506566
0.00350768
0.0035065
0.003506507
0.003506516
0.003506525
0.003506532
0.003507618
0.003506469
0.003506476
0.003506485
0.003506493
0.0035065
0.00350756
0.003506441
0.003506447
0.003506455
0.003506463
0.00350647
0.00350748
0.003506415
0.003506421
0.003506428
0.003506436
0.003506442
0.003624924
0.003555826
0.003555695
0.003552363
0.003549304
0.003546395
0.003515354
0.003510903
0.003511216
0.003509422
0.00350875
0.003508354
0.003514069
0.003510087
0.003509123
0.003508569
0.003508203
0.003507975
0.003510378
0.003508912
0.003508781
0.003508504
0.003508265
0.003508067
0.003509801
0.003508389
0.003508181
0.003507996
0.003507845
0.003507724
0.003509319
0.003507906
0.003507882
0.003507792
0.003507712
0.003507622
0.003509043
0.003507642
0.003507621
0.003507567
0.003507508
0.003507452
0.003508819
0.00350742
0.003507431
0.003507405
0.003507373
0.003507337
0.003508635
0.003507262
0.003507277
0.003507264
0.003507244
0.003507221
0.003508477
0.003507133
0.003507152
0.003507148
0.003507138
0.003507125
0.003508338
0.003507028
0.003507048
0.003507048
0.003507044
0.003507038
0.003508214
0.003506939
0.003506959
0.003506962
0.003506963
0.00350696
0.003508103
0.003506863
0.003506882
0.003506887
0.00350689
0.003506891
0.003508002
0.003506797
0.003506815
0.003506821
0.003506825
0.003506828
0.003507909
0.003506738
0.003506755
0.003506762
0.003506767
0.003506771
0.003507824
0.003506686
0.003506702
0.003506708
0.003506714
0.003506719
0.003507745
0.003506639
0.003506653
0.00350666
0.003506666
0.003506672
0.003507672
0.003506596
0.00350661
0.003506616
0.003506623
0.003506628
0.003507605
0.003506557
0.00350657
0.003506576
0.003506582
0.003506588
0.003507542
0.003506522
0.003506533
0.003506539
0.003506545
0.003506551
0.003507483
0.003506489
0.0035065
0.003506505
0.003506511
0.003506517
0.003507428
0.003506459
0.003506468
0.003506474
0.003506479
0.003506485
0.003507377
0.003506431
0.00350644
0.003506444
0.00350645
0.003506455
0.003507328
0.003506405
0.003506413
0.003506417
0.003506422
0.003506428
0.003625101
0.003553575
0.003555011
0.003551865
0.003548132
0.003545024
0.003514958
0.003510624
0.003511394
0.003509436
0.003508755
0.003508353
0.003514233
0.003510076
0.003509115
0.003508538
0.003508166
0.003507935
0.003510405
0.003508879
0.003508728
0.003508463
0.003508251
0.003508044
0.003509911
0.003508367
0.003508163
0.003507983
0.003507834
0.003507714
0.003509358
0.003507882
0.003507861
0.003507791
0.003507705
0.003507619
0.003509078
0.003507635
0.003507614
0.003507562
0.003507504
0.003507448
0.003508838
0.003507412
0.003507423
0.003507403
0.003507372
0.003507336
0.003508649
0.003507255
0.003507271
0.003507262
0.003507244
0.00350722
0.003508486
0.003507125
0.003507146
0.003507146
0.003507138
0.003507125
0.003508344
0.003507021
0.003507042
0.003507047
0.003507045
0.003507037
0.003508218
0.003506932
0.003506954
0.003506961
0.003506963
0.00350696
0.003508105
0.003506856
0.003506877
0.003506886
0.00350689
0.00350689
0.003508003
0.00350679
0.00350681
0.00350682
0.003506826
0.003506828
0.003507909
0.003506731
0.003506751
0.003506761
0.003506767
0.003506771
0.003507824
0.003506679
0.003506697
0.003506708
0.003506715
0.003506719
0.003507745
0.003506632
0.003506649
0.00350666
0.003506667
0.003506672
0.003507671
0.00350659
0.003506606
0.003506616
0.003506623
0.003506628
0.003507603
0.003506551
0.003506566
0.003506576
0.003506583
0.003506588
0.00350754
0.003506515
0.00350653
0.003506539
0.003506546
0.003506551
0.003507481
0.003506483
0.003506496
0.003506505
0.003506511
0.003506517
0.003507426
0.003506453
0.003506465
0.003506473
0.00350648
0.003506485
0.003507375
0.003506425
0.003506436
0.003506444
0.00350645
0.003506455
0.003507327
0.003506399
0.00350641
0.003506417
0.003506423
0.003506428
0.003620433
0.003552096
0.003553965
0.003551519
0.003548738
0.003545901
0.00351482
0.003510535
0.003511326
0.003509416
0.00350873
0.003508315
0.003514236
0.003510061
0.003509057
0.003508516
0.003508171
0.003507926
0.003510406
0.00350886
0.003508669
0.003508379
0.003508174
0.003507995
0.003509928
0.003508334
0.003508141
0.003507968
0.003507828
0.003507708
0.003509343
0.003507857
0.003507853
0.003507782
0.003507703
0.00350762
0.003509068
0.003507623
0.003507607
0.003507557
0.003507503
0.003507447
0.00350883
0.003507401
0.003507415
0.003507398
0.003507371
0.003507336
0.003508643
0.003507246
0.003507264
0.003507258
0.003507242
0.00350722
0.00350848
0.003507117
0.00350714
0.003507143
0.003507137
0.003507125
0.003508339
0.003507012
0.003507036
0.003507043
0.003507044
0.003507037
0.003508213
0.003506924
0.003506948
0.003506958
0.003506962
0.00350696
0.0035081
0.003506849
0.003506872
0.003506883
0.003506889
0.003506891
0.003507998
0.003506783
0.003506805
0.003506817
0.003506825
0.003506828
0.003507905
0.003506725
0.003506745
0.003506758
0.003506766
0.003506771
0.003507819
0.003506673
0.003506692
0.003506705
0.003506714
0.003506719
0.00350774
0.003506626
0.003506644
0.003506657
0.003506666
0.003506672
0.003507667
0.003506584
0.003506601
0.003506613
0.003506622
0.003506628
0.0035076
0.003506546
0.003506562
0.003506573
0.003506582
0.003506588
0.003507537
0.00350651
0.003506525
0.003506536
0.003506545
0.003506551
0.003507478
0.003506478
0.003506492
0.003506502
0.003506511
0.003506517
0.003507423
0.003506448
0.003506461
0.003506471
0.003506479
0.003506485
0.003507372
0.00350642
0.003506433
0.003506442
0.00350645
0.003506455
0.003507324
0.003506395
0.003506406
0.003506415
0.003506422
0.003506428
0.003622023
0.003551369
0.003553898
0.003551154
0.003548067
0.003545077
0.003514792
0.003510534
0.003511328
0.003509417
0.003508731
0.003508315
0.003514172
0.00351006
0.003509057
0.003508518
0.003508174
0.00350793
0.003510404
0.00350886
0.003508669
0.00350838
0.003508176
0.003507997
0.003509956
0.003508334
0.003508141
0.003507968
0.003507828
0.003507709
0.003509344
0.003507857
0.003507853
0.003507782
0.003507703
0.00350762
0.00350907
0.003507623
0.003507607
0.003507557
0.003507503
0.003507447
0.003508832
0.003507401
0.003507415
0.003507398
0.003507371
0.003507336
0.003508644
0.003507246
0.003507264
0.003507258
0.003507242
0.00350722
0.003508481
0.003507117
0.00350714
0.003507143
0.003507137
0.003507125
0.00350834
0.003507012
0.003507036
0.003507043
0.003507044
0.003507037
0.003508214
0.003506924
0.003506948
0.003506958
0.003506962
0.00350696
0.003508101
0.003506849
0.003506872
0.003506883
0.003506889
0.003506891
0.003507999
0.003506783
0.003506805
0.003506817
0.003506825
0.003506828
0.003507905
0.003506725
0.003506745
0.003506758
0.003506766
0.003506771
0.00350782
0.003506673
0.003506692
0.003506705
0.003506714
0.003506719
0.003507741
0.003506626
0.003506644
0.003506657
0.003506666
0.003506672
0.003507668
0.003506584
0.003506601
0.003506613
0.003506622
0.003506628
0.0035076
0.003506545
0.003506562
0.003506573
0.003506582
0.003506588
0.003507537
0.00350651
0.003506525
0.003506536
0.003506545
0.003506551
0.003507478
0.003506478
0.003506492
0.003506502
0.003506511
0.003506517
0.003507423
0.003506448
0.003506461
0.003506471
0.003506479
0.003506485
0.003507372
0.00350642
0.003506432
0.003506442
0.003506449
0.003506455
0.003507324
0.003506395
0.003506406
0.003506415
0.003506422
0.003506428
0.003624398
0.00355137
0.003553638
0.003551457
0.00354857
0.003545677
0.00351491
0.003510621
0.003511389
0.00350943
0.003508749
0.003508348
0.003514065
0.003510075
0.003509117
0.003508544
0.003508173
0.003507944
0.003510416
0.003508876
0.003508727
0.003508463
0.003508251
0.003508045
0.003509951
0.003508365
0.003508161
0.003507982
0.003507835
0.003507716
0.003509353
0.00350788
0.003507859
0.00350779
0.003507704
0.003507619
0.003509077
0.003507633
0.003507612
0.003507561
0.003507504
0.003507448
0.003508838
0.00350741
0.003507421
0.003507401
0.003507371
0.003507336
0.003508649
0.003507253
0.003507269
0.00350726
0.003507243
0.00350722
0.003508486
0.003507123
0.003507144
0.003507145
0.003507137
0.003507124
0.003508344
0.003507019
0.003507041
0.003507045
0.003507044
0.003507037
0.003508218
0.00350693
0.003506952
0.00350696
0.003506962
0.00350696
0.003508105
0.003506854
0.003506876
0.003506885
0.00350689
0.00350689
0.003508002
0.003506788
0.003506808
0.003506819
0.003506825
0.003506828
0.003507909
0.00350673
0.003506749
0.00350676
0.003506767
0.003506771
0.003507823
0.003506678
0.003506696
0.003506707
0.003506714
0.003506719
0.003507744
0.003506631
0.003506648
0.003506658
0.003506666
0.003506672
0.003507671
0.003506588
0.003506604
0.003506615
0.003506622
0.003506628
0.003507603
0.00350655
0.003506565
0.003506575
0.003506582
0.003506588
0.00350754
0.003506514
0.003506528
0.003506538
0.003506545
0.003506551
0.003507481
0.003506482
0.003506495
0.003506504
0.003506511
0.003506517
0.003507426
0.003506452
0.003506464
0.003506472
0.003506479
0.003506485
0.003507375
0.003506424
0.003506435
0.003506443
0.00350645
0.003506455
0.003507327
0.003506398
0.003506408
0.003506416
0.003506422
0.003506427
0.003620559
0.003552324
0.003553974
0.003551933
0.003549085
0.003546084
0.003515191
0.003510897
0.003511205
0.003509413
0.003508741
0.003508345
0.003513795
0.003510085
0.003509128
0.003508579
0.003508216
0.003507989
0.003510431
0.003508907
0.003508778
0.003508503
0.003508265
0.003508067
0.00350997
0.003508385
0.003508178
0.003507996
0.003507847
0.003507727
0.003509353
0.003507902
0.003507877
0.003507789
0.003507711
0.003507622
0.003509076
0.003507638
0.003507617
0.003507564
0.003507507
0.003507453
0.003508837
0.003507416
0.003507427
0.003507403
0.003507372
0.003507337
0.003508648
0.003507258
0.003507273
0.003507261
0.003507243
0.003507221
0.003508485
0.003507129
0.003507148
0.003507145
0.003507137
0.003507125
0.003508344
0.003507024
0.003507044
0.003507046
0.003507044
0.003507037
0.003508218
0.003506936
0.003506955
0.00350696
0.003506962
0.00350696
0.003508105
0.00350686
0.003506879
0.003506885
0.003506889
0.00350689
0.003508003
0.003506794
0.003506811
0.003506819
0.003506824
0.003506828
0.003507909
0.003506735
0.003506752
0.003506759
0.003506766
0.003506771
0.003507824
0.003506683
0.003506698
0.003506706
0.003506713
0.003506719
0.003507744
0.003506636
0.00350665
0.003506658
0.003506666
0.003506672
0.003507671
0.003506594
0.003506607
0.003506614
0.003506622
0.003506628
0.003507603
0.003506555
0.003506567
0.003506574
0.003506582
0.003506588
0.00350754
0.003506519
0.003506531
0.003506537
0.003506545
0.003506551
0.003507481
0.003506487
0.003506497
0.003506503
0.00350651
0.003506517
0.003507426
0.003506456
0.003506466
0.003506472
0.003506479
0.003506485
0.003507375
0.003506428
0.003506437
0.003506443
0.003506449
0.003506455
0.003507326
0.003506402
0.00350641
0.003506416
0.003506422
0.003506428
0.003601538
0.003555629
0.003556913
0.003553867
0.003550331
0.003547029
0.003515875
0.0035116
0.003511174
0.0035095
0.003508821
0.003508434
0.003513426
0.003510135
0.003509169
0.003508599
0.003508272
0.003508046
0.003510667
0.003508998
0.003508761
0.003508458
0.003508248
0.003508055
0.003510131
0.003508418
0.003508196
0.003508008
0.003507869
0.003507745
0.00350951
0.003507933
0.003507883
0.003507796
0.003507722
0.00350764
0.003509212
0.003507659
0.003507624
0.003507574
0.003507526
0.003507472
0.003508955
0.003507435
0.003507433
0.003507411
0.003507388
0.003507354
0.003508753
0.003507274
0.00350728
0.003507271
0.003507261
0.00350724
0.00350858
0.003507143
0.003507155
0.003507156
0.003507154
0.003507143
0.00350843
0.003507037
0.003507051
0.003507057
0.00350706
0.003507055
0.003508298
0.003506947
0.003506962
0.003506971
0.003506978
0.003506977
0.00350818
0.00350687
0.003506886
0.003506896
0.003506905
0.003506907
0.003508073
0.003506804
0.003506819
0.00350683
0.00350684
0.003506844
0.003507975
0.003506745
0.003506759
0.003506771
0.003506781
0.003506787
0.003507886
0.003506692
0.003506706
0.003506718
0.003506729
0.003506735
0.003507803
0.003506645
0.003506658
0.00350667
0.00350668
0.003506688
0.003507727
0.003506602
0.003506614
0.003506626
0.003506636
0.003506644
0.003507657
0.003506563
0.003506574
0.003506586
0.003506596
0.003506603
0.003507591
0.003506527
0.003506538
0.003506549
0.003506559
0.003506566
0.00350753
0.003506494
0.003506504
0.003506515
0.003506524
0.003506531
0.003507473
0.003506464
0.003506473
0.003506483
0.003506492
0.003506499
0.00350742
0.003506436
0.003506444
0.003506454
0.003506462
0.003506469
0.00350748
0.00350641
0.003506418
0.003506427
0.003506435
0.003506441
0.004600205
0.004254269
0.004121691
0.004032621
0.003967957
0.003917626
0.003532463
0.00351707
0.003514882
0.003513392
0.003512707
0.003512343
0.003512129
0.003524904
0.00351552
0.003513487
0.003512517
0.003511962
0.003511597
0.003511331
0.003519726
0.003511881
0.003511653
0.003511105
0.00351077
0.003510529
0.003510352
0.003518245
0.003511072
0.003510923
0.003510635
0.003510424
0.003510262
0.003510129
0.003517046
0.003510124
0.003510238
0.003510094
0.003509986
0.003509889
0.00350981
0.00351623
0.003509683
0.003509804
0.003509729
0.003509676
0.003509623
0.003509576
0.003515555
0.003509285
0.003509445
0.003509411
0.003509395
0.003509374
0.003509354
0.003515004
0.003509004
0.003509167
0.003509155
0.003509159
0.003509159
0.003509157
0.003514528
0.00350877
0.003508933
0.003508935
0.003508952
0.003508965
0.003508977
0.003514114
0.00350858
0.003508736
0.003508746
0.003508771
0.003508793
0.003508815
0.003513746
0.003508418
0.003508568
0.003508581
0.00350861
0.003508638
0.003508666
0.003513415
0.003508278
0.00350842
0.003508436
0.003508467
0.003508497
0.00350853
0.003513113
0.003508154
0.003508289
0.003508306
0.003508338
0.00350837
0.003508406
0.003512836
0.003508045
0.00350817
0.00350819
0.003508222
0.003508254
0.003508291
0.003512581
0.003507947
0.003508063
0.003508086
0.003508115
0.003508148
0.003508186
0.003512345
0.003507858
0.003507965
0.003507991
0.003508018
0.003508051
0.003508089
0.003512125
0.003507777
0.003507875
0.003507901
0.003507928
0.00350796
0.003507999
0.003511921
0.003507702
0.003507792
0.003507818
0.003507846
0.003507877
0.003507915
0.00351173
0.003507634
0.003507716
0.003507741
0.003507771
0.0035078
0.003507837
0.003511553
0.00350757
0.003507646
0.00350767
0.003507701
0.003507728
0.003507765
0.003511386
0.003507511
0.003507581
0.003507605
0.003507635
0.003507661
0.003507697
0.00351123
0.003507457
0.00350752
0.003507544
0.003507574
0.003507599
0.003507633
0.003511055
0.003735653
0.003507464
0.003507487
0.003507517
0.003507541
0.003507574
0.003873843
0.004746431
0.003543279
0.00353239
0.003840592
0.003840161
0.003531923
0.003519873
0.003525237
0.003518814
0.003827046
0.003823847
0.003524102
0.003515845
0.003519978
0.003513235
0.003812842
0.003811109
0.003519003
0.003511914
0.003518008
0.003511468
0.003800909
0.003800153
0.003517552
0.003510829
0.003516773
0.003510379
0.003791459
0.003791275
0.003516361
0.003509937
0.003515931
0.003509771
0.003783459
0.003783647
0.003515581
0.003509475
0.00351528
0.003509326
0.003776665
0.003777078
0.003514937
0.003509093
0.003514745
0.003509001
0.003770728
0.003771286
0.003514414
0.003508821
0.003514288
0.003508746
0.003765482
0.003766136
0.003513964
0.003508597
0.003513889
0.003508537
0.003760785
0.003761508
0.003513572
0.003508413
0.003513535
0.003508362
0.003756546
0.003757315
0.003513225
0.003508256
0.003513217
0.003508211
0.003752689
0.003753486
0.003512912
0.00350812
0.003512928
0.003508079
0.003749157
0.003749975
0.003512627
0.003508
0.003512664
0.003507962
0.003745909
0.003746733
0.003512367
0.003507893
0.00351242
0.003507857
0.003742909
0.003743727
0.003512126
0.003507796
0.003512194
0.003507762
0.003740126
0.003740933
0.003511904
0.003507708
0.003511984
0.003507676
0.003737537
0.003738331
0.003511697
0.003507628
0.003511788
0.003507597
0.003735123
0.003735904
0.003511505
0.003507554
0.003511606
0.003507525
0.00373287
0.003733637
0.003511326
0.003507486
0.003511434
0.003507458
0.003730764
0.003731517
0.003511159
0.003507423
0.003511274
0.003507396
0.003728793
0.003729529
0.003511003
0.003507365
0.003511124
0.003507339
0.003726945
0.003727663
0.003510856
0.003507311
0.003510982
0.003507286
0.00372526
0.003510534
0.003511045
0.00350726
0.003510549
0.003506833
0.004929696
0.003535795
0.003528282
0.004929615
0.003532337
0.003528516
0.005000206
0.0035325
0.003531873
0.004886295
0.003532522
0.003532151
0.005020007
0.003532776
0.003532857
0.004860614
0.003532998
0.003532642
0.005034466
0.003532842
0.003532595
0.004981386
0.003533561
0.003533183
0.004856171
0.003532723
0.003532728
0.005034596
0.003533408
0.003532687
0.00486838
0.003532416
0.003532846
0.005023606
0.003533401
0.003532827
0.004885158
0.003531996
0.003532163
0.00499668
0.003533323
0.003531856
0.004930441
0.003531616
0.003528546
0.004928628
0.003536223
0.003528285
0.004750822
0.003542601
0.00353239
0.003873842
0.003514558
0.003808126
0.003515019
0.003519963
0.003513222
0.003826642
0.003823834
0.0035069
0.003510977
0.003507285
0.003726999
0.003727668
0.00350726
0.003510516
0.003507237
0.003725269
0.003510496
0.003860819
0.004120746
0.003865576
0.003861544
0.004600914
0.00428592
0.003526981
0.003520837
0.003852169
0.003846578
0.004254333
0.004125686
0.003519101
0.003517782
0.003835657
0.003835239
0.004121738
0.004028518
0.003517236
0.003515825
0.003824425
0.003826187
0.004032639
0.003959629
0.003516022
0.003514456
0.003815561
0.003818764
0.003967981
0.003906412
0.003515199
0.003513665
0.00380814
0.003917649
0.003514553
0.003530293
0.003995861
0.0035422
0.003982571
0.00352068
0.003951648
0.003524083
0.003944151
0.003516951
0.003918673
0.003518419
0.003914399
0.003515257
0.003892529
0.003516295
0.003889926
0.003514094
0.003871522
0.003514792
0.003869972
0.003513305
0.003853585
0.003513827
0.003852761
0.003512684
0.003837985
0.003513073
0.003837778
0.003512189
0.003824524
0.003512499
0.003824687
0.003511783
0.003812695
0.003512032
0.003813066
0.003511436
0.003802195
0.003511643
0.003802637
0.003511129
0.00379277
0.003511306
0.003793196
0.003510859
0.003784198
0.003511011
0.003784589
0.003510617
0.003776332
0.003510749
0.003776694
0.0035104
0.003769087
0.003510516
0.00376941
0.003510202
0.003762387
0.003510304
0.003762665
0.003510023
0.003756164
0.003510113
0.003756401
0.003509858
0.003750367
0.003509937
0.003750564
0.003509706
0.003744954
0.003509777
0.003745114
0.003509566
0.00373989
0.003509629
0.003740015
0.003509436
0.003735148
0.003509492
0.003735244
0.003509315
0.003730709
0.003509365
0.003730786
0.003509202
0.003726549
0.003509247
0.003726603
0.003509095
0.003722649
0.003509136
0.003722659
0.003883153
0.003873523
0.003871515
0.003863107
0.003874637
0.003867953
0.003876049
0.003872954
0.003869612
0.003875885
0.003869798
0.003874449
0.003869275
0.003876392
0.003870281
0.003874929
0.003842197
0.003871081
0.004288644
0.00352698
0.003520841
0.00386557
0.003861552
0.004127434
0.003519098
0.003517783
0.003852172
0.00384658
0.004029777
0.003517233
0.003515826
0.003835656
0.003835239
0.003960575
0.003516019
0.00351446
0.003824423
0.003826185
0.003907111
0.003515133
0.003512849
0.00381556
0.003819189
0.003518804
0.003525226
0.003518796
0.003840286
0.003840143
0.003510989
0.003518005
0.00351146
0.003812646
0.003811096
0.003509967
0.00351677
0.003510373
0.003800765
0.003800146
0.003509125
0.003515927
0.003509766
0.003791351
0.003791264
0.003508709
0.003515274
0.003509322
0.003783376
0.003783638
0.003508366
0.003514739
0.003508999
0.003776609
0.003777073
0.003508129
0.003514282
0.003508743
0.003770691
0.003771281
0.003507937
0.003513883
0.003508535
0.003765456
0.003766128
0.003507781
0.003513529
0.00350836
0.003760771
0.0037615
0.00350765
0.003513211
0.003508209
0.003756539
0.003757309
0.003507537
0.003512922
0.003508078
0.003752696
0.003753484
0.003507439
0.003512658
0.003507961
0.003749172
0.003749972
0.003507352
0.003512414
0.003507856
0.00374593
0.003746729
0.003507274
0.003512188
0.003507761
0.003742933
0.003743723
0.003507204
0.003511978
0.003507675
0.003740155
0.003740931
0.003507139
0.003511783
0.003507596
0.003737569
0.003738326
0.003507081
0.0035116
0.003507524
0.003735159
0.003735903
0.003507027
0.003511429
0.003507457
0.003732909
0.003733635
0.003506977
0.003511269
0.003507396
0.003730807
0.003731518
0.003506931
0.003511118
0.003507337
0.00372884
0.003729529
0.003735618
0.00407298
0.003725977
0.004098863
0.003553552
0.004022693
0.003547178
0.004025009
0.003841165
0.003873374
0.003525392
0.003968327
0.003525382
0.003975217
0.003519188
0.003932486
0.003519107
0.003936971
0.003516389
0.003904779
0.003516654
0.003907643
0.003514914
0.003882109
0.003515006
0.003883919
0.003513888
0.003863316
0.00351394
0.003864479
0.003513144
0.003846961
0.003513156
0.003847589
0.003512565
0.003832804
0.003512561
0.003833045
0.003512099
0.003820331
0.003512072
0.00382032
0.003511708
0.00380922
0.003511666
0.00380905
0.003511373
0.003799234
0.003511322
0.003798947
0.003511077
0.003790142
0.003511022
0.003789757
0.003510815
0.003781826
0.003510756
0.003781381
0.003510579
0.003774164
0.003510519
0.003773703
0.003510366
0.00376708
0.003510304
0.003766606
0.003510172
0.003760515
0.003510109
0.003760047
0.003509995
0.003754401
0.00350993
0.003753953
0.003509833
0.0037487
0.003509767
0.003748273
0.003509683
0.003743369
0.003509617
0.003742969
0.003509544
0.00373838
0.003509479
0.003738005
0.003509416
0.003733712
0.003509351
0.003733367
0.003509296
0.003729349
0.003509232
0.003729036
0.003509185
0.003725246
0.003509121
0.003724975
0.003509075
0.003517135
0.00372116
0.003508342
0.003870494
0.003875744
0.003870064
0.003875962
0.003872814
0.003875984
0.003872714
0.003877342
0.003875365
0.003871842
0.003877942
0.003871399
0.003873776
0.003865686
0.003880927
0.003872201
0.003861331
0.004120696
0.003735926
0.004072962
0.00372605
0.00409878
0.003553612
0.004022662
0.003547141
0.00402507
0.003576944
0.003897172
0.003579358
0.003520649
0.003951623
0.003524083
0.00394416
0.003509198
0.003726561
0.003509244
0.003726615
0.003509185
0.003725269
0.003509126
0.003724989
0.003509095
0.003722664
0.003509123
0.003722682
0.003509078
0.003721416
0.003721187
0.003508342
0.003510897
0.003510302
0.003510902
0.003507215
0.003507216
0.003510242
0.003516909
0.003508353
0.003719026
0.00350835
0.005753491
0.003950784
0.004058033
0.003688248
0.003683079
0.00403646
0.003638896
0.004000212
0.003640891
0.003991122
0.003614276
0.003962614
0.003617509
0.00395979
0.003598012
0.003935694
0.003600802
0.003935689
0.003586189
0.003914571
0.003588686
0.003916507
0.003576935
0.003897229
0.00357936
0.003900682
0.00355452
0.004033968
0.003567148
0.004027016
0.003538729
0.00397017
0.003543494
0.003970074
0.003532264
0.003929273
0.003534345
0.003929435
0.003528937
0.003898913
0.003529818
0.003899239
0.003526479
0.003875671
0.003526692
0.003875549
0.003524676
0.003856744
0.003524501
0.003856082
0.003523247
0.003840732
0.003522738
0.003839486
0.003522066
0.003826786
0.003521478
0.003825434
0.003521059
0.003814504
0.003520442
0.003813163
0.003520181
0.003803553
0.003519555
0.00380231
0.003519397
0.003793695
0.003518785
0.003792562
0.003518688
0.003784757
0.003518104
0.003783738
0.00351805
0.003776605
0.003517495
0.003775692
0.003517472
0.003769134
0.00351695
0.00376832
0.003516941
0.003762253
0.003516456
0.003761533
0.003516455
0.003755897
0.003516009
0.003755251
0.003516015
0.003750012
0.0035156
0.003749416
0.003515612
0.003744541
0.003515226
0.003743982
0.003515243
0.003739438
0.003514882
0.00373892
0.003514902
0.003734674
0.003514564
0.003734189
0.003514589
0.00373022
0.003514271
0.003729765
0.0035143
0.003726047
0.003514
0.00372562
0.003514031
0.003722135
0.003513749
0.003721732
0.00581247
0.005820398
0.005848467
0.005891665
0.005873071
0.005868851
0.005863852
0.005869954
0.005860714
0.005869142
0.005868182
0.005853001
0.005829249
0.00584017
0.005802747
0.005793675
0.00571366
0.005717915
0.005195546
0.003830299
0.005206606
0.003832529
0.003563997
0.004060745
0.003560616
0.004063915
0.005725556
0.005729672
0.003541504
0.003991657
0.003545033
0.003987689
0.003534146
0.003944661
0.003537144
0.003940898
0.003530042
0.003911241
0.003532304
0.003908233
0.00352725
0.003885237
0.003528963
0.003882879
0.003525245
0.003864365
0.003526547
0.003862518
0.003523655
0.003846872
0.00352467
0.003845505
0.003522352
0.003831962
0.00352313
0.003830901
0.003521255
0.003818949
0.003521861
0.003817986
0.00352031
0.003807436
0.003520797
0.003806571
0.003519482
0.00379713
0.003519883
0.003796371
0.003518747
0.003787834
0.003519086
0.003787157
0.003518089
0.003779396
0.003518381
0.003778788
0.003517498
0.003771678
0.003517753
0.003771137
0.003516965
0.003764592
0.003517188
0.003764106
0.003516482
0.003758077
0.003516678
0.003757607
0.00351604
0.003752032
0.003516214
0.003751584
0.003515639
0.003746418
0.00351579
0.003745986
0.00351527
0.003741188
0.003515403
0.00374077
0.003514933
0.003736309
0.003515047
0.003735907
0.003514621
0.003731752
0.003514718
0.003731358
0.003514333
0.003727486
0.003514416
0.003727102
0.003514067
0.003723488
0.003514135
0.003723111
0.003512442
0.003719431
0.003513771
0.003719359
0.005824647
0.005837294
0.005836855
0.005813115
0.005844218
0.005843505
0.005867968
0.005853102
0.005862876
0.00586237
0.005908087
0.005894015
0.005867505
0.005850236
0.005804259
0.005811489
0.005756309
0.003943502
0.005195732
0.003830281
0.005206768
0.003832511
0.00356395
0.004060688
0.003560617
0.004063911
0.003958265
0.003777142
0.004022037
0.003777716
0.00353873
0.003970169
0.003543498
0.003970075
0.003519187
0.003932452
0.003519112
0.003936971
0.003514068
0.003723511
0.003514155
0.003723129
0.00351403
0.003722149
0.003721751
0.003513724
0.003719755
0.003513986
0.003513778
0.003719387
0.005722755
0.003858019
0.005629083
0.003865148
0.003941058
0.004125893
0.003600677
0.004118264
0.00565831
0.005710767
0.003662461
0.004017882
0.00366736
0.004026756
0.003631225
0.003979443
0.00363949
0.00398173
0.003610365
0.003952129
0.003619024
0.003950747
0.003595786
0.003930704
0.003603947
0.003926727
0.003584841
0.003913201
0.003592494
0.00390739
0.003548021
0.0040202
0.00354878
0.004019193
0.00353696
0.003964306
0.00353901
0.003959844
0.003531776
0.003925698
0.003533196
0.003922013
0.003528581
0.003896527
0.003529511
0.003893682
0.003526245
0.00387353
0.003526934
0.003871224
0.003524474
0.003854527
0.003525
0.003852761
0.003523046
0.003838527
0.003523458
0.003837089
0.003521841
0.003824675
0.003522193
0.003823519
0.003520802
0.00381251
0.003521109
0.003811563
0.003519903
0.003801692
0.003520164
0.003800849
0.003519109
0.003791985
0.003519341
0.003791218
0.003518402
0.003783185
0.003518613
0.00378249