/*--------------------------------*- C++ -*----------------------------------*\
  =========                 |
  \\      /  F ield         | OpenFOAM: The Open Source CFD Toolbox
   \\    /   O peration     | Website:  https://openfoam.org
    \\  /    A nd           | Version:  7
     \\/     M anipulation  |
\*---------------------------------------------------------------------------*/
FoamFile
{
    version     2.0;
    format      ascii;
    class       surfaceScalarField;
    location    "0.07";
    object      phi;
}
// * * * * * * * * * * * * * * * * * * * * * * * * * * * * * * * * * * * * * //

dimensions      [0 3 -1 0 0 0 0];

internalField   nonuniform List<scalar> 
260377
(
-0.001479997
0.001472671
1.47831e-06
-0.0001387472
-0.000250627
-0.0001800511
-0.0002399082
0.0001379844
0.0002529766
0.0001812594
0.0002429609
-0.002173371
0.00144459
4.141047e-05
-8.951928e-05
-0.0002880647
-0.0001563877
-0.0002586543
-0.002877081
0.001377682
6.01473e-05
-3.44559e-05
-0.000309535
-0.0001225725
-0.0002675561
-0.003539697
0.001310945
5.657044e-05
7.134944e-06
-0.0003368376
-9.575133e-05
-0.0002794449
-0.004160208
0.001209464
5.737258e-05
5.235392e-05
-0.0003539814
-6.4017e-05
-0.000280681
-0.004714022
0.001082394
5.003371e-05
9.668618e-05
-0.0003653293
-3.305594e-05
-0.0002769139
-0.005179184
0.0009056874
4.063962e-05
0.0001427834
-0.0003669383
5.131936e-06
-0.0002621424
0.0006920249
3.062399e-05
0.0001887774
-0.0003579967
4.322762e-05
-0.0002416194
-0.005534221
-0.001508019
0.002192008
-4.217226e-05
9.547188e-05
0.0002983896
0.0001642424
0.0002727501
-0.002186358
0.002123019
-8.951345e-08
-0.002895593
0.002043966
4.295133e-05
-0.00357263
0.001943112
4.486973e-05
-0.004213119
0.001802298
4.765501e-05
-0.004795228
0.001620712
4.379094e-05
-0.005296566
0.001368905
3.812099e-05
0.001057131
2.933688e-05
-0.005691009
-0.001532425
0.002970594
-6.443502e-05
4.987661e-05
0.0003328737
0.0001415072
0.0002940169
-0.002240093
0.002876429
-4.574266e-05
-0.002973379
0.002776612
6.406641e-07
-0.003685971
0.00265128
4.423223e-06
-0.004373573
0.002479303
1.059701e-05
-0.005013243
0.002250181
1.020123e-05
-0.005579993
0.001926797
8.857955e-06
0.001513549
6.349862e-06
-0.006042761
-0.001579822
0.00376919
-6.426438e-05
1.251673e-05
0.000377896
0.0001289904
0.0003260878
-0.002310415
0.003658853
-5.183132e-05
-0.003078236
0.00354924
-4.805816e-06
-0.003836332
0.003410241
-8.650453e-07
-0.00458807
0.003224169
6.871397e-06
-0.005310176
0.002964723
7.564344e-06
-0.005977605
0.002587876
6.350431e-06
0.002075346
5.216131e-06
-0.006544618
-0.001629235
0.004601387
-6.876786e-05
-2.533118e-05
0.0004227449
0.0001153971
0.0003529949
-0.002391127
0.004482286
-6.154041e-05
-0.00320178
0.00437277
-1.287735e-05
-0.004019625
0.004237226
-9.13956e-06
-0.00485605
0.004061863
-1.269118e-06
-0.005693108
0.003800815
9.651756e-07
-0.006511221
0.003408265
-2.27517e-06
0.002800807
1.451221e-06
-0.007238133
-0.001676771
0.005460862
-6.916956e-05
-6.24577e-05
0.0004679866
0.0001026715
0.0003782655
-0.002465602
0.005334594
-6.347641e-05
-0.003318029
0.005239665
-1.446784e-05
-0.004198137
0.005127844
-1.050884e-05
-0.005133384
0.0050006
-3.490489e-06
-0.00611929
0.004784289
2.432873e-06
-0.007169923
0.004465168
-6.268708e-06
0.003775054
4.499689e-07
-0.00814462
-0.001716685
0.006341359
-7.545602e-05
-9.405741e-05
0.0005133003
8.880703e-05
0.0004035934
-0.002527713
0.00621196
-6.633748e-05
-0.00341454
0.006143984
-1.74918e-05
-0.004350808
0.006076672
-1.256067e-05
-0.005385177
0.006043484
-8.514637e-06
-0.006531127
0.005925074
5.164711e-06
-0.007919184
0.005868095
-1.48707e-05
0.005169285
-1.876725e-06
-0.009311538
-0.00172894
0.007226826
-7.550749e-05
-0.0001306732
0.0005563234
7.07429e-05
0.0004225878
-0.002544623
0.007094487
-6.684345e-05
-0.003437596
0.007055624
-1.866669e-05
-0.004399211
0.007050713
-1.242543e-05
-0.005508664
0.007162393
-9.455709e-06
-0.006895529
0.007292973
1.896691e-05
-0.008737792
0.007686584
2.377418e-05
0.002153652
-0.0001178517
0.001164229
0.002203184
0.001902333
-0.01087405
-0.001733743
0.008112771
-7.31733e-05
-0.0001695566
0.0005973154
5.395205e-05
0.0004392611
-0.002541184
0.007969799
-6.787204e-05
-0.003412022
0.007945564
-1.910148e-05
-0.004332366
0.007982601
-1.154393e-05
-0.005384084
0.008222035
-7.922501e-06
-0.00678203
0.008620119
7.079952e-05
-0.00253814
0.009743372
0.0002159837
-0.001602129
-0.002671772
-0.002242761
-0.002893018
0.002505587
2.942784e-06
-0.001707143
0.008983059
-6.826435e-05
-0.0002102636
0.000633494
3.316132e-05
0.000448729
-0.002477934
0.008808302
-6.771244e-05
-0.003258122
0.008747238
-2.148516e-05
-0.003996474
0.008733933
-1.298044e-05
-0.004670904
0.008919519
-2.305348e-05
-0.005387221
0.009238574
9.786219e-05
-0.002110878
0.01038413
0.0002069053
-0.0006605331
-0.002186197
-0.001277277
0.003433595
6.533773e-05
-0.003529945
-0.0004296959
-0.0007278661
-0.0007107894
-0.0002115146
0.0005200359
-0.0001302526
-0.0003360322
-5.37511e-05
-0.001713866
0.009853695
-6.561748e-05
-0.000246604
0.0006721624
1.965584e-05
0.0004636323
-0.002467444
0.009629295
-6.741403e-05
-0.003186633
0.009483946
-1.751849e-05
-0.003793123
0.009349266
-8.841272e-06
-0.004167956
0.009290173
4.179092e-06
-0.004262258
0.009226729
0.0001061474
-0.001395546
0.009439382
0.0003141693
-0.0003495367
-0.001136342
-0.0007502525
-0.003442079
0.002709623
3.43775e-05
-0.0001701486
-0.0002949476
-0.0001794757
-5.289538e-05
-0.001763234
0.01075052
-6.623143e-05
-0.0002780024
0.000715727
1.206348e-05
0.0004828572
-0.002535687
0.01047032
-6.856634e-05
-0.003265919
0.01023385
-1.967604e-05
-0.003875273
0.009965538
-6.916819e-06
-0.004235294
0.009663379
-1.318514e-05
-0.004294307
0.009182346
0.0001033959
-0.001259545
0.008604621
0.0002366744
-0.0004878482
-0.001141103
-0.0008077239
-0.002716222
0.002091212
8.135114e-05
-0.0001896602
-0.000283341
-0.0001714226
-7.146146e-05
-0.001870098
0.01170351
-6.910771e-05
-0.0003038325
0.0007670206
1.273159e-05
0.0005102953
-0.002701753
0.01137472
-7.27492e-05
-0.003516713
0.01106647
-1.765367e-05
-0.004258008
0.01071331
-6.47433e-06
-0.00487493
0.01026506
1.523795e-05
-0.005512105
0.00965309
0.0001664302
-0.001686338
0.008658648
0.0004844033
-0.001214749
-0.00166199
-0.001487459
-0.002044342
0.001605596
0.0001066194
-0.0004165302
-0.0003500393
-0.0003035463
-0.0002840957
-0.002016065
0.01273374
-7.409172e-05
-0.0003266869
0.0008247487
1.882053e-05
0.0005430452
-0.002932288
0.012368
-7.706245e-05
-0.003856469
0.01201454
-2.38951e-05
-0.004775053
0.01163018
1.714812e-06
-0.005597433
0.01111715
-2.970435e-05
-0.006824514
0.01059736
0.0002828098
-0.002087545
0.009704097
0.0003612339
-0.001744577
-0.002216317
-0.002182757
-0.001849263
-0.00207436
0.001654347
0.0001817321
-0.00217715
0.01384861
-7.924604e-05
-0.0003496088
0.0008865566
2.709427e-05
0.0005774844
-0.003172596
0.01344871
-8.525386e-05
-0.004201886
0.01306628
-2.244812e-05
-0.005209515
0.01265609
-1.828768e-05
-0.006227695
0.01213869
-3.363901e-06
-0.007344572
0.01160088
0.0001133605
-0.008884507
0.01084306
0.000400974
0.0105252
0.0004096814
-0.001888872
-0.002304954
-0.002407831
-0.002467182
-0.01075055
-0.002358414
0.01505753
-8.423331e-05
-0.0003725825
0.0009527717
3.861005e-05
0.0006149317
-0.003445701
0.01462596
-8.997182e-05
-0.004583125
0.01422441
-2.070248e-05
-0.005722538
0.01380494
-9.427994e-06
-0.006905107
0.01331859
2.668527e-06
-0.008243789
0.01284001
9.954608e-05
-0.009790863
0.01223524
0.0001548963
0.01166387
0.0004128137
-0.01134235
-0.002539118
0.01636015
-8.964159e-05
-0.0003974945
0.001021646
5.031327e-05
0.0006516695
-0.003705808
0.01589035
-9.769383e-05
-0.004920886
0.01546198
-2.249459e-05
-0.006114418
0.01501903
-2.056366e-05
-0.00733282
0.01454378
-6.788086e-06
-0.008588432
0.01410012
-4.488156e-06
-0.009961488
0.01359798
1.031505e-05
0.01318582
2.576156e-06
-0.01148601
-0.0027369
0.01776434
-9.506195e-05
-0.0004228124
0.001094644
6.53226e-05
0.0006906209
-0.003990073
0.01724711
-0.0001035902
-0.005285574
0.01677929
-2.180158e-05
-0.006544846
0.01629631
-1.800912e-05
-0.007801209
0.01580296
-2.808837e-06
-0.009049551
0.0153424
6.058824e-06
-0.0103498
0.01489201
6.216698e-06
0.01454216
9.808521e-06
-0.01171595
-0.002952735
0.01927921
-0.0001014046
-0.000448449
0.001172452
8.372207e-05
0.0007315464
-0.004294566
0.01870001
-0.0001110685
-0.0056629
0.01817116
-2.354199e-05
-0.006964643
0.0176197
-2.164611e-05
-0.008224987
0.01706944
-6.139511e-06
-0.009439363
0.0165627
-5.9209e-06
-0.01065061
0.01610602
-2.765755e-06
0.01577793
-1.30821e-05
-0.01187331
-0.003199498
0.02092308
-0.0001087928
-0.000473488
0.001256484
0.0001065418
0.0007748848
-0.004644522
0.02026454
-0.0001195007
-0.006096411
0.01964853
-2.548058e-05
-0.007445527
0.01899271
-2.389243e-05
-0.008707765
0.01833742
-5.746223e-06
-0.009873372
0.01773173
-3.427575e-06
-0.01098591
0.01721771
8.482868e-07
0.01686693
-8.82645e-07
-0.01207403
-0.003504882
0.02272439
-0.0001183413
-0.0004954889
0.00135085
0.0001397203
0.0008268307
-0.005076333
0.02196428
-0.0001282888
-0.006628658
0.02122819
-2.733049e-05
-0.008024603
0.02041255
-2.389534e-05
-0.009268109
0.01958804
-7.103505e-06
-0.01034874
0.01881771
-5.34703e-06
-0.01132611
0.01819664
-1.555787e-06
0.01780049
-3.903959e-06
-0.01225577
-0.003860139
0.02472087
-0.0001326863
-0.000516217
0.001454657
0.000177753
0.000880158
-0.005590597
0.02383927
-0.0001445289
-0.007276405
0.0229512
-3.720192e-05
-0.008746925
0.02192319
-4.011214e-05
-0.009980973
0.02083705
-1.496588e-05
-0.0109469
0.01979865
-1.502474e-05
-0.01173222
0.01898775
-5.782901e-06
0.0185269
-8.870064e-06
-0.01244976
-0.004350191
-0.0001499361
-0.0005283937
0.001578855
0.0002389908
0.0009582824
0.02697326
-0.00630289
-0.0001522636
0.02594423
-0.008182874
-3.77048e-05
0.02486889
-0.009740215
-1.880017e-05
0.02349933
-0.01092113
-1.274285e-05
0.02203071
-0.0116885
-4.227823e-06
0.02057025
-0.01220061
-3.094379e-06
0.01950295
-7.862893e-06
0.01895555
-0.01262139
5.846962e-06
3.631258e-05
-0.0002568012
7.566118e-05
-2.17887e-06
-6.289024e-06
6.613422e-06
5.234439e-06
4.914223e-05
3.787369e-05
4.858468e-05
2.330512e-05
0.0003469591
-0.0004356742
7.033275e-05
-2.065379e-05
-8.398389e-06
1.388607e-05
1.024342e-05
3.235567e-05
0.0005448577
-0.0006261373
6.767823e-05
-2.842764e-05
-1.864968e-05
1.799258e-05
1.033051e-05
4.219599e-05
0.0007280482
-0.0008005438
5.872933e-05
-4.440393e-05
-2.450807e-05
2.598734e-05
1.44951e-05
5.056048e-05
0.0008999012
-0.0009620207
4.163258e-05
-4.907466e-05
-2.969673e-05
3.097045e-05
1.772753e-05
5.94393e-05
0.001056146
-0.001108653
2.890254e-05
-6.217189e-05
-3.310545e-05
3.715584e-05
2.228723e-05
6.659497e-05
0.001194279
-0.001234782
2.014423e-05
-7.618877e-05
-3.481386e-05
4.087595e-05
2.389093e-05
7.232098e-05
0.001311008
-0.001335174
2.926944e-06
-8.302638e-05
-3.75393e-05
4.390375e-05
2.558045e-05
-5.934511e-06
-3.643481e-05
-7.608625e-05
0.0002555432
3.853366e-06
-6.603604e-06
6.237319e-06
-5.550954e-06
-4.873085e-05
-3.784264e-05
-4.84502e-05
-0.001662122
0.001656671
1.995091e-06
-0.0001800422
-0.0002247219
-0.0001903931
-0.0002226966
0.0001823587
0.0002243854
0.0001907071
0.0002253376
-0.00247652
0.001628911
3.870903e-05
-0.0001728484
-0.0002325934
-0.000184321
-0.0002220484
-0.003255098
0.001556029
5.460487e-05
-0.0001627829
-0.0002332443
-0.000165544
-0.0002103365
-0.003996358
0.001482607
5.889136e-05
-0.0001480182
-0.0002349365
-0.0001562796
-0.0002044343
-0.00469694
0.00137388
5.834739e-05
-0.0001183354
-0.0002298847
-0.0001395082
-0.0001865441
-0.005322479
0.0012283
5.619125e-05
-9.346276e-05
-0.0002229127
-0.0001219365
-0.0001706067
-0.005842141
0.001026073
5.160345e-05
-7.275857e-05
-0.0002047383
-9.482572e-05
-0.0001450512
0.0007822774
4.153256e-05
-3.805814e-05
-0.0001790555
-6.68994e-05
-0.0001154643
-0.006235849
-2.325124e-05
-0.0003440132
-7.357713e-05
0.0004337494
2.6252e-05
-1.361796e-05
6.990869e-06
-1.253267e-05
-0.001702264
0.002505025
-3.752616e-05
0.0001800776
0.0002462826
0.000190395
0.0002325087
-0.00254622
0.002471462
1.314594e-06
-0.003364478
0.002382013
3.522533e-05
-0.004154146
0.002268411
4.873397e-05
-0.004897639
0.002108052
5.697685e-05
-0.005575043
0.00189557
5.392461e-05
-0.006159972
0.001602312
4.681001e-05
0.00123674
3.555253e-05
-0.00662065
-3.271587e-05
-0.0005472661
-7.408122e-05
0.0006358417
3.431573e-05
-1.647819e-05
1.625919e-05
-1.587515e-05
-0.001735093
0.003373153
-5.53417e-05
0.0001794799
0.0002606907
0.0001826851
0.0002350165
-0.002613037
0.003342257
-3.859293e-05
-0.003463281
0.003235064
-2.166322e-06
-0.004294311
0.003087109
1.67548e-05
-0.005091379
0.002886421
2.929622e-05
-0.005836951
0.002619453
3.189084e-05
-0.006497233
0.002241082
3.037079e-05
0.001759443
2.376307e-05
-0.007037349
-4.267906e-05
-0.0007495811
-7.217572e-05
0.000835116
4.832741e-05
-2.091599e-05
2.269179e-05
-2.078317e-05
-0.001794895
0.004270283
-6.495017e-05
0.0001802307
0.0002808739
0.000188443
0.0002489032
-0.002702952
0.004255174
-5.669049e-05
-0.003585506
0.004135013
-2.220032e-05
-0.004468619
0.003971117
-1.760076e-06
-0.005340302
0.003751806
1.316938e-05
-0.00618317
0.003451113
1.877222e-05
-0.00696209
0.003007495
1.885732e-05
0.002414044
1.521324e-05
-0.007626688
-5.207217e-05
-0.0009525727
-6.987375e-05
0.001038139
5.86741e-05
-2.454087e-05
2.818146e-05
-2.593455e-05
-0.001854521
0.005201741
-7.427845e-05
0.0001784138
0.0003008906
0.0001891229
0.0002601473
-0.00279858
0.005210079
-7.238595e-05
-0.003727791
0.005089377
-3.803028e-05
-0.004679248
0.004930482
-1.704719e-05
-0.005648713
0.004720481
-4.781089e-07
-0.006624259
0.004419677
7.94774e-06
-0.007578198
0.003950604
8.55492e-06
0.003262511
9.734211e-06
-0.008434947
-6.11519e-05
-0.001163062
-6.388115e-05
0.001246629
6.659736e-05
-2.748525e-05
3.407239e-05
-3.171755e-05
-0.001909631
0.00616738
-7.572717e-05
0.0001728376
0.0003197057
0.0001899803
0.0002680259
-0.002885515
0.006200842
-7.835533e-05
-0.003862256
0.006096607
-4.495536e-05
-0.004884353
0.005966122
-2.405138e-05
-0.005969845
0.005809741
-7.258827e-06
-0.007120528
0.005568758
4.036322e-06
-0.008336478
0.005159776
5.094327e-07
0.004412507
2.356193e-06
-0.00948838
-7.04937e-05
-0.001377968
-5.457525e-05
0.001459804
6.998049e-05
-3.01652e-05
4.013231e-05
-3.671454e-05
-0.001956908
0.007166781
-7.884144e-05
0.000160645
0.0003349526
0.0001924712
0.0002728242
-0.002957233
0.00721955
-8.472081e-05
-0.003976568
0.00714876
-5.030892e-05
-0.005063163
0.00706905
-2.889355e-05
-0.006270893
0.007020947
-1.199012e-05
-0.00763331
0.006931228
5.112079e-06
-0.009248825
0.006767316
-6.894938e-06
0.006026558
-1.60838e-06
-0.01086314
-8.048749e-05
-0.001596706
-5.079845e-05
0.001678804
8.07889e-05
-3.395829e-05
4.502476e-05
-4.26667e-05
-0.0019733
0.008174115
-8.209004e-05
0.0001550148
0.000348099
0.0001920394
0.0002773959
-0.002978887
0.008244466
-8.617248e-05
-0.004006257
0.008210199
-5.273454e-05
-0.005122011
0.008202075
-2.96962e-05
-0.006407829
0.008306692
-9.382215e-06
-0.007999467
0.008522134
1.969859e-05
-0.01006288
0.008833106
2.139447e-05
0.002261863
-8.782854e-05
0.002007476
0.00218216
0.001988649
-0.01250649
-8.987399e-05
-0.001819513
-5.068082e-05
0.001899294
9.691516e-05
-3.637479e-05
4.938475e-05
-4.915083e-05
-0.001979568
0.009176802
-8.712747e-05
0.0001551971
0.0003639556
0.0001901624
0.0002815212
-0.002979451
0.009262775
-8.629714e-05
-0.003984995
0.009249643
-5.300154e-05
-0.00506121
0.009292581
-2.583487e-05
-0.00631842
0.009552169
3.809352e-06
-0.007824137
0.01003119
6.746076e-05
-0.002763544
0.01102337
0.0001726153
-0.002299626
-0.00264939
-0.002258473
-1.712656e-05
-0.003280493
0.002782522
1.341675e-05
-9.841918e-05
-0.002043205
-4.985713e-05
0.00211878
0.00011032
-3.679713e-05
5.373894e-05
-5.455969e-05
-0.001950515
0.01015902
-9.063565e-05
0.00015246
0.0003745162
0.0001834948
0.0002801953
-0.002911944
0.01024004
-8.355118e-05
-0.003819094
0.01018924
-5.393272e-05
-0.004693549
0.01017884
-2.478654e-05
-0.005573001
0.0104064
2.165311e-06
-0.006331129
0.01080791
7.926568e-05
-0.002271766
0.01205892
6.623248e-05
-0.00133217
-0.002289863
-0.001332211
-9.051445e-06
0.003817355
3.937981e-05
-0.003375403
-0.0005481927
-0.0008325066
-0.0005437742
-0.0008195723
-6.452937e-06
0.0006935245
-0.0002370906
-0.0004648376
1.485625e-05
-0.000105881
-0.002264901
-4.901976e-05
0.002336506
0.0001217892
-3.57879e-05
5.836097e-05
-6.106658e-05
-0.001956628
0.01114221
-9.352173e-05
0.0001520522
0.0003857166
0.0001818133
0.0002817664
-0.002899187
0.01119643
-8.124204e-05
-0.00372762
0.01104916
-4.900517e-05
-0.004442364
0.01089981
-1.506752e-05
-0.00490364
0.01083737
3.448397e-05
-0.004916934
0.01082193
0.0001054187
-0.001146507
0.01099766
0.0001756544
-0.0007451861
-0.001099752
-0.0007257156
2.900692e-05
-0.003541817
-0.0007573577
0.003117708
5.952603e-06
-0.0001133008
-0.00248605
-4.817311e-05
0.002556858
0.0001286157
-3.438556e-05
6.30175e-05
-6.658195e-05
-0.002014174
0.01215695
-9.679919e-05
0.000152948
0.0004012952
0.0001852397
0.0002905138
-0.002979437
0.01217439
-8.126699e-05
-0.003822818
0.01192202
-4.915637e-05
-0.004537573
0.01161743
-9.781548e-06
-0.004997565
0.01124593
3.825065e-05
-0.004964587
0.01077043
0.0001219211
-0.001074371
0.00967965
0.0001864631
-0.0007514785
-0.001070267
-0.0007002464
-1.992888e-05
-0.0005590047
0.002264965
2.716789e-05
-0.002787571
-0.0001209211
-0.002713266
-5.15967e-05
0.002787103
0.0001360105
-3.315299e-05
6.769883e-05
-7.187537e-05
-0.002135678
0.0132344
-0.0001027453
0.0001625222
0.0004252433
0.0001961361
0.0003079675
-0.003172592
0.01322397
-8.541462e-05
-0.004106036
0.01288689
-4.907754e-05
-0.004964952
0.01247689
-7.018824e-06
-0.005688504
0.01192033
6.439099e-05
-0.006136408
0.01121333
0.0001714328
-0.0016225
0.00963088
0.0003611203
-0.001433956
-0.001536158
-0.001371741
-1.445971e-05
-0.001882223
0.001614251
2.970127e-05
-0.0002868596
-0.0004039712
-0.0003988253
-0.0002801127
-0.0001284097
-0.002953482
-5.80716e-05
0.003032654
0.00014274
-3.124495e-05
7.290925e-05
-7.709434e-05
-0.002304346
0.01439875
-0.0001093113
0.0001784195
0.0004542936
0.0002124003
0.0003301032
-0.003443728
0.01437615
-8.985871e-05
-0.004521008
0.01399317
-5.28935e-05
-0.005575872
0.01353203
1.438298e-06
-0.006699578
0.01295573
5.860314e-05
-0.007655916
0.01221055
0.0002419348
-0.008937514
0.01090055
0.000373166
0.009366294
0.0006448222
-0.001810211
-0.001930209
-0.001779443
-0.001980665
-0.0001507489
-0.0003507832
1.240045e-05
-0.0002414086
-0.002529454
-0.002840112
-0.00247042
-0.002877577
-0.0001360333
-0.003211391
-6.579726e-05
0.00329685
0.0001489077
-2.873768e-05
7.846214e-05
-8.226035e-05
-0.002488267
0.01565834
-0.0001174927
0.0001967872
0.0004850163
0.0002313062
0.0003538159
-0.003730517
0.01563243
-9.928464e-05
-0.004918429
0.01521859
-5.994924e-05
-0.006123097
0.01473428
-1.58642e-05
-0.007378885
0.01416584
4.23095e-05
-0.008702516
0.01351949
0.0001280517
-0.01026917
0.01261037
0.0002578034
0.01171799
0.0002851348
-0.01249632
-0.0001439091
-0.003489208
-7.486348e-05
0.003581446
0.0001550011
-2.548114e-05
8.353206e-05
-8.651683e-05
-0.002692032
0.01702253
-0.0001241786
0.0002183442
0.0005167783
0.0002529815
0.0003796834
-0.004042579
0.01699901
-0.0001059994
-0.005342879
0.01656255
-6.437046e-05
-0.006667277
0.01606629
-1.703906e-05
-0.008047902
0.01551567
3.347061e-05
-0.009507499
0.01496435
0.0001142745
-0.01126532
0.01433326
0.0001898215
0.01379612
0.0003630281
-0.01329367
-0.0001520101
-0.003787976
-8.422593e-05
0.003887471
0.0001606409
-2.124855e-05
8.852094e-05
-9.117214e-05
-0.002897906
0.01849268
-0.0001319712
0.0002406331
0.0005483184
0.0002753528
0.0004057795
-0.004348039
0.01846767
-0.0001162244
-0.005734209
0.01800046
-7.423005e-05
-0.007130558
0.01747675
-3.46811e-05
-0.00855145
0.0169258
3.974559e-06
-0.01002572
0.016399
3.513495e-05
-0.01161826
0.01586343
7.26847e-05
0.01542966
8.845703e-05
-0.01333767
-0.0001603968
-0.004108951
-9.474506e-05
0.004215899
0.0001659823
-1.596578e-05
9.404985e-05
-9.58723e-05
-0.003121624
0.02007747
-0.0001383127
0.0002653725
0.0005805565
0.0003001992
0.0004339576
-0.004676529
0.0200435
-0.0001245073
-0.006148936
0.01953116
-8.009031e-05
-0.007610757
0.01896017
-3.960797e-05
-0.009063649
0.01838003
-4.143491e-06
-0.01052291
0.01784072
2.360429e-05
-0.01203258
0.01733232
4.698164e-05
0.01695999
5.343718e-05
-0.01360654
-0.0001689688
-0.004453197
-0.0001069409
0.004568333
0.0001705723
-9.731802e-06
0.0001004482
-0.0001005149
-0.003367441
0.02178766
-0.0001456841
0.0002933395
0.0006153285
0.000327785
0.0004650848
-0.005032293
0.02173205
-0.0001347671
-0.006586519
0.02115066
-8.881443e-05
-0.008097994
0.02049943
-4.9424e-05
-0.009554754
0.01984828
-1.763675e-05
-0.01097021
0.01925011
1.453667e-07
-0.01237936
0.0187242
1.450999e-05
0.018348
1.170704e-05
-0.01379215
-0.0001777518
-0.004823363
-0.0001211891
0.004947355
0.0001748874
-2.12414e-06
0.0001074379
-0.0001052526
-0.003648878
0.02364298
-0.000153059
0.0003253911
0.0006528113
0.0003595777
0.000500043
-0.005440472
0.02355041
-0.000146272
-0.007087694
0.0228701
-9.770035e-05
-0.00865151
0.02209659
-5.72347e-05
-0.01010734
0.02132269
-2.431927e-05
-0.01146295
0.0206086
-6.313915e-06
-0.01275727
0.02001289
6.47965e-06
0.01960694
4.965023e-06
-0.01402206
-0.0001867481
-0.005221713
-0.0001392622
0.005356789
0.0001788715
6.567374e-06
0.0001155647
-0.0001100691
-0.003996312
0.02567681
-0.0001627561
0.0003659888
0.0006974448
0.0003991301
0.0005443364
-0.005943455
0.02553019
-0.000160918
-0.007704528
0.02471409
-0.0001102458
-0.009325425
0.02376111
-6.751373e-05
-0.01076008
0.02278629
-3.60436e-05
-0.01201855
0.02188011
-1.838141e-05
-0.01315637
0.02115666
-7.512512e-06
0.02069285
-9.728309e-06
-0.01423646
-0.0001961776
-0.005653466
-0.0001601238
0.005801709
0.0001815353
1.542053e-05
0.0001252057
-0.0001141024
-0.004405145
0.02792689
-0.0001745886
0.0004114262
0.0007466829
0.0004448542
0.0005940039
-0.006547162
0.02771023
-0.0001825473
-0.008459426
0.02672002
-0.0001308663
-0.01016111
0.02551303
-9.035258e-05
-0.01158635
0.0242502
-5.363372e-05
-0.01271225
0.02302796
-3.69721e-05
-0.01363328
0.02209547
-2.355291e-05
0.0215483
-2.63547e-05
-0.01447124
0.0002742059
-0.0004331601
-0.006289157
-0.0001077508
0.0001236488
-0.0001896725
-2.179581e-05
0.006643683
-0.004955685
-0.0001913323
0.0008144385
0.0004751933
0.0005065778
0.0006617894
0.03046597
-0.007366107
-0.0002057775
0.03017416
-0.009502849
-0.0001555871
0.02897464
-0.01133144
-0.0001031586
0.02742598
-0.01270017
-8.111735e-05
0.0256873
-0.01360174
-5.806295e-05
0.02398336
-0.01420448
-4.865116e-05
0.02274376
-4.942234e-05
0.02206915
-0.01468377
3.745934e-05
-8.458196e-06
-0.0002407625
7.175263e-05
6.229194e-06
4.789455e-05
3.772084e-05
4.816422e-05
-0.00210866
0.0007002189
-4.013265e-06
3.471655e-05
-9.114266e-05
3.057915e-05
-8.598344e-06
0.000307851
0.0004119061
0.0003143208
0.0004128215
-0.002720018
0.0006422267
3.042964e-05
7.999708e-05
-0.0001255799
1.570697e-05
-3.14223e-05
-0.003355545
0.0006510092
9.259209e-06
0.0001245097
-0.0001452743
2.708087e-05
-3.105737e-05
-0.003923221
0.0005924842
1.031742e-05
0.0001514169
-0.000173245
2.263901e-05
-3.593572e-05
-0.004440733
0.0005287077
8.301671e-06
0.0001811173
-0.0001896782
2.590212e-05
-3.683881e-05
-0.004872372
0.000436032
4.352185e-06
0.0002078129
-0.0002090931
3.197541e-05
-3.944045e-05
0.0003282039
2.716448e-06
0.0002294109
-0.0002242041
3.369452e-05
-4.047371e-05
-0.00520172
-3.801776e-05
7.51446e-06
-7.215926e-05
0.0002424466
-5.473168e-06
-4.809293e-05
-3.830165e-05
-4.791626e-05
-0.001580784
0.001571551
2.079715e-06
-0.0001764402
-0.0002092453
-0.0001751167
-0.0002176832
0.0001776313
0.0002114709
0.0001783825
0.0002201494
-0.002423512
0.001551321
3.033461e-05
-0.003230245
0.001471925
3.163959e-05
-0.003977504
0.001421076
3.608415e-05
-0.004673766
0.001312432
3.466135e-05
-0.005297299
0.001174501
3.393119e-05
-0.005822555
0.0009820958
3.079535e-05
0.0007478839
2.475413e-05
-0.006225456
-0.0007416048
0.002170902
5.622933e-06
-3.699743e-05
-3.604628e-05
9.313752e-05
3.820446e-06
-0.0003101812
-0.0004162173
-0.0003192308
-0.0004132047
-0.00162589
0.002445055
-2.674416e-05
-0.002487126
0.002411637
2.234873e-06
-0.003341023
0.002343749
1.729788e-05
-0.004140494
0.002238047
3.123445e-05
-0.004889122
0.002079926
3.811067e-05
-0.00556998
0.001871575
3.770989e-05
-0.006154122
0.001580608
3.243903e-05
0.00121943
2.444599e-05
-0.006614561
-0.0007266344
0.002862961
-1.851407e-05
-8.411517e-05
-2.281476e-05
0.0001305111
2.950832e-05
-0.001646444
0.003337925
-2.840298e-05
-0.00257218
0.003315469
-1.66879e-05
-0.003455617
0.003226166
-1.146495e-06
-0.004307738
0.003086573
2.035018e-05
-0.005118642
0.002887982
3.2144e-05
-0.005873228
0.002622341
3.571053e-05
-0.006540138
0.002244585
3.330411e-05
0.001763234
2.608348e-05
-0.007086262
-0.0007956121
0.003641441
-3.14079e-08
-0.0001296706
-3.519507e-05
0.0001539908
2.80378e-05
-0.001723678
0.004236967
-3.592511e-05
-0.002666636
0.004236201
-3.446486e-05
-0.003585918
0.00414755
-2.430134e-05
-0.004491991
0.003992032
-1.145648e-06
-0.005379966
0.003774443
1.468334e-05
-0.006234055
0.003472836
2.236668e-05
-0.007021153
0.003028106
2.243555e-05
0.002432867
1.833713e-05
-0.007693909
-0.0008124916
0.00443269
-9.505568e-06
-0.0001624185
-3.640618e-05
0.0001895567
4.001668e-05
-0.001779768
0.005171993
-4.202879e-05
-0.00276333
0.005195012
-4.763398e-05
-0.003730735
0.005117146
-4.022087e-05
-0.004705788
0.004967658
-1.761886e-05
-0.005691719
0.004759538
3.584172e-07
-0.00667844
0.004456271
1.123414e-05
-0.007640676
0.003986406
1.249179e-05
0.003299168
1.278049e-05
-0.008510023
-0.0008413235
0.005251482
-5.789798e-06
-0.0001970445
-4.042739e-05
0.0002221408
4.365283e-05
-0.001836744
0.006135071
-4.338413e-05
-0.002852688
0.006186482
-5.388123e-05
-0.003866926
0.006135267
-4.883753e-05
-0.004912126
0.006015715
-2.690801e-05
-0.006012344
0.005860798
-8.299792e-06
-0.007170748
0.005613902
4.809682e-06
-0.008391684
0.005205736
2.115254e-06
0.004467251
3.034557e-06
-0.009560445
-0.0008597388
0.006081682
-9.442202e-06
-0.000229914
-4.138307e-05
0.000260874
4.940428e-05
-0.001880714
0.007122169
-4.496375e-05
-0.002925156
0.007205857
-5.9654e-05
-0.003980425
0.007195021
-5.479349e-05
-0.005088861
0.007128119
-3.286044e-05
-0.006306466
0.007079675
-1.326029e-05
-0.007666174
0.006974847
3.875698e-06
-0.009260745
0.006799508
-6.097189e-06
0.006082455
-6.077432e-06
-0.01087148
-0.0008650862
0.006921094
-9.072847e-06
-0.0002647902
-4.553029e-05
0.0002922017
5.286556e-05
-0.001895094
0.008116621
-4.653291e-05
-0.002946571
0.008232151
-6.098925e-05
-0.004010645
0.008263315
-5.695321e-05
-0.005147678
0.008268801
-3.33456e-05
-0.006437699
0.008367806
-7.492596e-06
-0.00799993
0.008536429
2.034786e-05
-0.00994109
0.00873685
2.521223e-05
0.002224342
-3.147539e-05
0.00202321
0.00217405
0.002008132
-0.01234472
-0.0008646055
0.007769447
-8.391791e-06
-0.0003034213
-5.121135e-05
0.0003223095
5.696788e-05
-0.001898355
0.00911319
-4.994688e-05
-0.002943419
0.009251491
-6.057308e-05
-0.003987009
0.009310565
-5.666124e-05
-0.005082545
0.009367312
-2.880899e-05
-0.006337007
0.009617637
8.439966e-06
-0.007802603
0.01001067
5.881157e-05
-0.002690199
0.01084831
0.000104323
-0.002279579
-0.002625924
-0.002250071
-1.590949e-05
-0.003193351
0.002734708
8.695349e-06
-0.0008538103
0.008616428
-2.049135e-06
-0.0003422368
-5.812917e-05
0.000350921
5.832345e-05
-0.001873211
0.010094
-5.204938e-05
-0.002875491
0.0102282
-5.798065e-05
-0.003823697
0.01026029
-5.545074e-05
-0.00472675
0.0102698
-2.422388e-05
-0.005618626
0.01049615
1.552691e-05
-0.006409444
0.01082241
5.834558e-05
-0.002354937
0.01192858
6.953546e-05
-0.001389461
-0.002367782
-0.001380835
-7.288678e-06
0.003737425
9.622679e-06
-0.003264622
-0.0006061986
-0.000808482
-0.0005764064
-0.0008389888
-4.087666e-06
0.0007237334
-0.0002442298
-0.0004889562
1.354013e-05
-0.0008586173
0.009470795
2.180292e-06
-0.0003782528
-6.383544e-05
0.0003828727
6.128607e-05
-0.001878627
0.01107412
-5.362374e-05
-0.002858073
0.01118215
-5.574432e-05
-0.003724193
0.01112799
-5.059002e-05
-0.004456088
0.01100157
-1.493994e-05
-0.004903248
0.01093658
4.121359e-05
-0.004897711
0.01084272
7.957287e-05
-0.00114135
0.01087352
0.000114843
-0.0007676136
-0.001117076
-0.0007558079
-0.003428816
8.19485e-06
-0.0007607922
0.003040762
-7.008224e-07
-0.0008834004
0.01035006
5.757386e-06
-0.000411474
-6.820055e-05
0.0004143418
6.370813e-05
-0.00193336
0.01208208
-5.480562e-05
-0.002934263
0.01215694
-5.514878e-05
-0.003813241
0.01200682
-4.900406e-05
-0.004539696
0.011727
-8.759389e-06
-0.004967547
0.01134715
5.553075e-05
-0.004905288
0.01080161
0.0001007727
-0.001070476
0.009591372
0.0001548178
-0.0007302941
-0.001076075
-0.0007146454
-7.512338e-06
-0.0005477262
0.002185678
5.262991e-06
-0.00270618
-0.0009335912
0.0112806
5.320254e-06
-0.0004442352
-7.214931e-05
0.0004470218
6.709342e-05
-0.002047897
0.01315219
-5.854471e-05
-0.003121853
0.01320383
-5.834798e-05
-0.00409135
0.01297787
-5.06323e-05
-0.004957886
0.01259624
-9.723499e-06
-0.005650451
0.01203134
7.277058e-05
-0.006098635
0.01130476
0.0001164653
-0.001589204
0.009711121
0.0002460662
-0.001486694
-0.001564187
-0.001463245
-2.697723e-05
-0.001809331
0.001568638
3.669137e-06
-0.0003881289
-0.0002687692
-0.0003980916
-0.0002702131
-0.001002987
0.01228033
6.672467e-06
-0.0004788837
-7.619438e-05
0.0004817988
6.987082e-05
-0.002208235
0.01430916
-6.103649e-05
-0.003386953
0.01435261
-5.992092e-05
-0.004500515
0.01408874
-5.019638e-05
-0.005559307
0.01365725
-7.71537e-07
-0.006636843
0.01306566
0.0001018157
-0.007595182
0.01231652
0.0001885132
-0.008929887
0.0109955
0.0004234885
0.009226515
1.780621e-05
-0.001785794
-0.001833362
-0.001743197
-0.001820769
-0.002346547
-0.002778091
-0.002361612
-0.002860017
-0.001081297
0.01335924
6.291969e-06
-0.0005155428
-7.961658e-05
0.0005188315
7.241602e-05
-0.002384605
0.01556179
-6.681729e-05
-0.00366955
0.01560582
-6.755293e-05
-0.004897761
0.01532
-6.299997e-05
-0.006102892
0.01486528
-1.876449e-05
-0.00731736
0.0142754
4.703703e-05
-0.00860506
0.01359241
0.0001398664
-0.01016735
0.01256591
0.0002496852
0.01159545
0.0002256577
-0.01247681
-0.00116959
0.01452625
7.867994e-06
-0.0005546949