/*--------------------------------*- C++ -*----------------------------------*\
  =========                 |
  \\      /  F ield         | OpenFOAM: The Open Source CFD Toolbox
   \\    /   O peration     | Website:  https://openfoam.org
    \\  /    A nd           | Version:  7
     \\/     M anipulation  |
\*---------------------------------------------------------------------------*/
FoamFile
{
    version     2.0;
    format      ascii;
    class       volVectorField;
    location    "0.07";
    object      U;
}
// * * * * * * * * * * * * * * * * * * * * * * * * * * * * * * * * * * * * * //

dimensions      [0 1 -1 0 0 0 0];

internalField   nonuniform List<vector> 
86107
(
(-0.03038075 0.03019398 4.89995e-05)
(-0.04900224 0.03018778 0.0001494356)
(-0.06910146 0.02850715 0.0002385057)
(-0.0875862 0.02726686 2.636271e-05)
(-0.1053316 0.02507777 0.0001357986)
(-0.1214558 0.02239052 2.616391e-05)
(-0.1354845 0.01856632 -8.640801e-05)
(-0.1468253 0.0141141 -0.0001077229)
(-0.03163285 0.04881371 -0.0001056398)
(-0.05044531 0.0484221 1.81275e-05)
(-0.07121824 0.04684504 0.0005950059)
(-0.09058219 0.04460772 0.0003841076)
(-0.1092981 0.04126465 0.0003691018)
(-0.1265167 0.03696855 0.0003234516)
(-0.1418305 0.03105903 0.0002871906)
(-0.15459 0.02377766 0.0002218375)
(-0.0318567 0.07029765 -0.0001884907)
(-0.05196601 0.06973411 -0.000549403)
(-0.07347102 0.0676222 7.201064e-05)
(-0.09392099 0.06468381 -0.0001516899)
(-0.1139818 0.06027406 -0.0001425199)
(-0.1328521 0.05438575 -0.0001721134)
(-0.1500035 0.04612225 -0.0001818907)
(-0.1648672 0.03582893 -0.0001593884)
(-0.0329425 0.09149525 5.47077e-05)
(-0.05369469 0.09099326 -0.000390508)
(-0.07623624 0.08868597 0.0002537685)
(-0.09792241 0.08528649 6.375001e-06)
(-0.1196226 0.08023456 2.954974e-05)
(-0.140729 0.07318238 -8.889089e-06)
(-0.1604927 0.06307174 -4.604105e-05)
(-0.17856 0.04993063 -3.22525e-05)
(-0.03384954 0.1139476 9.487221e-05)
(-0.0555522 0.1137653 -0.0004509081)
(-0.07916053 0.1115607 0.0002327204)
(-0.1023625 0.1081535 -3.319583e-05)
(-0.1261011 0.1030548 -3.084967e-05)
(-0.150077 0.09543716 -5.824769e-05)
(-0.1734671 0.08411977 -0.0001714634)
(-0.1964966 0.06801285 -5.500273e-05)
(-0.03489149 0.1369166 0.0001305734)
(-0.05715988 0.1371268 -0.0004229396)
(-0.08182056 0.1352364 0.0002688887)
(-0.1064129 0.1322658 1.692786e-06)
(-0.1323632 0.1278698 -2.804161e-05)
(-0.1597059 0.1206807 2.908065e-05)
(-0.1882433 0.1094284 -0.0002047007)
(-0.2187447 0.09094859 5.954633e-05)
(-0.03570631 0.1608371 -4.367583e-06)
(-0.05851536 0.1615699 -0.0004255699)
(-0.08399843 0.1606061 0.0002378416)
(-0.1097097 0.1588078 -1.331198e-05)
(-0.1376995 0.1565783 -0.0001471397)
(-0.1685133 0.1513374 6.600636e-05)
(-0.2036934 0.1438809 -0.0003353612)
(-0.2472111 0.1219995 0.0004231354)
(-0.03594766 0.1848958 4.296851e-05)
(-0.05891595 0.1861852 -0.0004185543)
(-0.08457534 0.1861688 0.0002235948)
(-0.1103508 0.185883 -9.078454e-06)
(-0.1397043 0.1868033 -0.0002525941)
(-0.1725315 0.186614 0.0001514571)
(-0.2175187 0.1878092 0.0003331896)
(-0.2772293 0.16536 -0.0009307134)
(-0.03610292 0.2091635 0.0001993777)
(-0.05900348 0.2110177 -0.0004437803)
(-0.08431282 0.2120723 0.000201996)
(-0.1090557 0.2139394 -5.596733e-05)
(-0.1369724 0.2196936 -0.0004894724)
(-0.1670824 0.2289782 0.0006421705)
(-0.2095772 0.2492789 0.001708568)
(-0.2922819 0.2482519 -0.001681772)
(-0.03556918 0.2331355 0.00039532)
(-0.05803318 0.2350938 -0.0004792969)
(-0.0817371 0.2362284 0.0001328971)
(-0.1028392 0.2383083 -0.0001205788)
(-0.1239054 0.2459037 -0.00105102)
(-0.1390357 0.2581649 0.001155951)
(-0.1564716 0.2939672 0.001477427)
(-0.2057913 0.3870069 0.007096175)
(-0.8717385 0.08392866 -0.001320213)
(-0.03583113 0.256646 0.0005419102)
(-0.05810955 0.2579755 -0.0004903242)
(-0.08113677 0.2572553 0.000201169)
(-0.09929152 0.2563627 -0.0001097032)
(-0.1161283 0.2583645 -0.000594112)
(-0.1181583 0.2614448 0.001094146)
(-0.116401 0.2757978 0.004174225)
(-0.1170848 0.3108341 0.006032372)
(-0.03682698 0.2805803 0.0006118944)
(-0.05980403 0.2810179 -0.0005056675)
(-0.0833341 0.2777732 0.0001451391)
(-0.1016159 0.2730612 -0.0001240363)
(-0.1186822 0.2667886 -0.001176314)
(-0.1196951 0.2568787 0.0008240375)
(-0.1184605 0.2401588 0.001923148)
(-0.1039545 0.2496481 0.01090657)
(-0.03897053 0.3055626 0.0006851078)
(-0.06351292 0.305082 -0.000547849)
(-0.08902918 0.2995948 0.0002038689)
(-0.1101784 0.2913711 -0.0001846895)
(-0.1320582 0.2796081 -0.000698877)
(-0.1428489 0.2593931 0.001875433)
(-0.1622867 0.232078 0.005220323)
(-0.1642206 0.1881349 0.01260933)
(-0.04189611 0.3325632 0.0007376167)
(-0.06859943 0.3317098 -0.0005709932)
(-0.09695159 0.3249281 8.430535e-05)
(-0.1215861 0.3158495 -1.826718e-05)
(-0.150196 0.3017326 -0.001951311)
(-0.1660097 0.2843983 0.004836936)
(-0.2146243 0.2513309 0.003384905)
(-0.2077883 0.1942367 0.01995098)
(-0.04511129 0.36174 0.0008103449)
(-0.07423348 0.3607111 -0.0006562164)
(-0.1048531 0.3531915 0.0001929285)
(-0.133387 0.3436269 -0.0004809403)
(-0.1631269 0.3288423 -0.001125953)
(-0.1899885 0.3136986 0.001378279)
(-0.2235674 0.2861671 0.008493682)
(-0.2672607 0.2856153 0.005023966)
(-0.04883298 0.3934073 0.0009071948)
(-0.08048581 0.3923492 -0.0006378035)
(-0.1140103 0.3845742 0.0003643971)
(-0.1459109 0.3747538 -0.0001060542)
(-0.180032 0.3611815 -0.0004860535)
(-0.2121213 0.3454301 0.001402972)
(-0.2555572 0.3257933 0.002055357)
(-0.2946905 0.3017316 0.00529699)
(-0.0525784 0.4276529 0.001000754)
(-0.08668791 0.4266259 -0.0006815956)
(-0.1224433 0.4186257 0.0004453591)
(-0.1567566 0.4089072 -0.0002073797)
(-0.1914631 0.3963681 -0.0004026027)
(-0.2258691 0.3844425 -0.0008176061)
(-0.2627121 0.368679 -0.001211437)
(-0.3029458 0.3563482 -0.001411484)
(-0.05672266 0.4644734 0.00110163)
(-0.0934284 0.4632391 -0.0006779242)
(-0.1317273 0.4546317 0.0005836145)
(-0.1682093 0.4441127 -2.925492e-05)
(-0.2045925 0.4315461 -8.547546e-05)
(-0.2396751 0.4187485 -0.0001979858)
(-0.2759624 0.4055535 -0.0005421664)
(-0.3129297 0.3941875 -0.0004779301)
(-0.06127193 0.5042369 0.001202281)
(-0.1007529 0.5026246 -0.0006973141)
(-0.1415514 0.4930636 0.0006651506)
(-0.1798405 0.4814736 -5.890947e-06)
(-0.2168391 0.4681481 -1.187079e-05)
(-0.2517578 0.4551802 -0.0002311486)
(-0.2861986 0.4426491 -0.0003565006)
(-0.3204475 0.43364 -0.0006351341)
(-0.06641414 0.5470411 0.00129999)
(-0.1091583 0.5445519 -0.0007217071)
(-0.1528623 0.5331849 0.0007509253)
(-0.1931315 0.5192604 3.6447e-05)
(-0.2309156 0.5036902 0.000103522)
(-0.2652105 0.4885306 -4.130331e-05)
(-0.2975157 0.4751016 -7.137106e-05)
(-0.3283613 0.465426 -0.0001167431)
(-0.07281853 0.593953 0.001407441)
(-0.1195134 0.5903393 -0.0006998933)
(-0.166815 0.5766547 0.000889592)
(-0.2093364 0.5596501 0.0001778634)
(-0.2475991 0.5405724 0.0002166744)
(-0.2803892 0.5219804 5.882625e-05)
(-0.3093274 0.5061626 3.568707e-05)
(-0.3359245 0.495726 -1.900073e-05)
(-0.07999809 0.6450126 0.001447228)
(-0.1317401 0.6393511 -0.0007992709)
(-0.1835242 0.6218415 0.0008789965)
(-0.2292438 0.599205 -3.330785e-05)
(-0.268654 0.5741054 0.0001885888)
(-0.2996933 0.5496316 8.222363e-07)
(-0.3238086 0.5302064 0.0001183724)
(-0.3443636 0.5180483 3.629982e-05)
(-0.09020022 0.7029931 0.001574535)
(-0.1483626 0.6955113 -0.0005351174)
(-0.2069081 0.6742338 0.001284765)
(-0.256999 0.6457935 0.0008765276)
(-0.2970549 0.6121284 0.0006583337)
(-0.3242255 0.5783395 0.0006574103)
(-0.3409437 0.5516529 0.0005795047)
(-0.3532443 0.5375731 0.0004101739)
(-0.02485485 0.004196298 -0.0016069)
(-0.04426478 0.004017814 -0.002664508)
(-0.06691753 0.003709525 -0.002564203)
(-0.08773893 0.003423395 -0.003242794)
(-0.107312 0.003250797 -0.00297238)
(-0.125011 0.0029188 -0.004110093)
(-0.1402474 0.002269632 -0.005681146)
(-0.1528614 0.001608955 -0.005989854)
(-0.004078971 0.02492648 0.001821573)
(-0.03056191 0.03031612 4.419728e-05)
(-0.05058778 0.02922075 -7.612351e-05)
(-0.07000557 0.0274655 4.943663e-05)
(-0.08852598 0.02602122 -6.001176e-05)
(-0.106277 0.02397707 3.822778e-06)
(-0.1227352 0.02128245 2.703674e-05)
(-0.136765 0.01743055 8.821339e-05)
(-0.1480889 0.01311464 0.0001114471)
(-0.004265618 0.04399314 0.003665285)
(-0.03072369 0.05057683 0.000143465)
(-0.05129723 0.04928879 4.420757e-05)
(-0.07114994 0.04744651 0.0003768027)
(-0.09064818 0.04533488 0.0002854784)
(-0.1093211 0.04211435 0.0003857875)
(-0.1265218 0.03773945 0.0003330754)
(-0.1418771 0.03180552 0.0002954828)
(-0.1546713 0.02438002 0.0002328678)
(-0.004215872 0.06763528 0.003520907)
(-0.03073289 0.0714194 5.510209e-05)
(-0.05279339 0.06958347 -0.0003544099)
(-0.0733997 0.06760694 1.486736e-05)
(-0.09413822 0.06459759 -9.622305e-05)
(-0.1139828 0.06018853 1.730538e-05)
(-0.1328918 0.05428799 -2.178188e-06)
(-0.1500219 0.04598793 1.201413e-05)
(-0.1648726 0.03566537 1.117267e-05)
(-0.00410609 0.09094013 0.003776733)
(-0.03157174 0.09287463 0.0002301093)
(-0.0548305 0.09115816 -0.0002582756)
(-0.07614507 0.08890263 0.0001138287)
(-0.09814273 0.0854358 -1.210123e-05)
(-0.1196243 0.08037577 9.323996e-05)
(-0.1407996 0.07331374 6.581349e-05)
(-0.1605657 0.06310152 4.0264e-05)
(-0.1786335 0.04993076 4.735864e-05)
(-0.004276705 0.1143363 0.004392231)
(-0.03244335 0.1153137 0.0001586126)
(-0.05679934 0.1137655 -0.0004174573)
(-0.07904171 0.111582 -1.15809e-05)
(-0.1026031 0.1081541 -0.000141567)
(-0.1260882 0.1030022 -3.858487e-05)
(-0.1501919 0.09545206 -4.226996e-05)
(-0.1734631 0.08390683 -0.0001221491)
(-0.1966007 0.0678787 1.435042e-05)
(-0.004492252 0.138741 0.004619895)
(-0.0334325 0.1383657 0.0002503353)
(-0.05845142 0.1371847 -0.0004007694)
(-0.08169041 0.1352565 2.420507e-06)
(-0.1066796 0.1322946 -0.0001272225)
(-0.1322929 0.1277643 -5.119541e-05)
(-0.1598914 0.1206568 9.545716e-06)
(-0.1881598 0.108854 -0.0002257201)
(-0.2185939 0.0909552 3.590115e-05)
(-0.004762635 0.1637449 0.004015771)
(-0.03439152 0.1625029 0.0001962047)
(-0.05974785 0.1616002 -0.0004588604)
(-0.08389285 0.1605667 -4.147061e-05)
(-0.1100652 0.158787 -0.0001553226)
(-0.1375944 0.1563595 -0.0001386339)
(-0.1691818 0.1514868 6.004099e-05)
(-0.2032567 0.1427016 -0.0005355019)
(-0.2478737 0.1223768 0.0003336598)
(-0.004838677 0.1891248 0.004920007)
(-0.03464418 0.1870672 0.0001588032)
(-0.06021585 0.1861932 -0.0004607057)
(-0.08448932 0.1861448 -6.958295e-05)
(-0.1107829 0.1858208 -0.0001615952)
(-0.1395709 0.1864246 -0.0001862453)
(-0.1730742 0.1866195 0.0001994357)
(-0.2166444 0.1857344 -0.0004310278)
(-0.2769674 0.1662893 0.0004688059)
(-0.004774783 0.2147048 0.006526641)
(-0.0346275 0.2116916 0.0001007033)
(-0.06047304 0.2109913 -0.0004783251)
(-0.08426575 0.2119902 -9.55529e-05)
(-0.1097972 0.2137976 -0.0001706449)
(-0.137142 0.2186951 -0.0002838537)
(-0.1700519 0.2285468 0.0003868589)
(-0.2079108 0.2464992 -0.0008841619)
(-0.2970275 0.2423172 0.0003397878)
(-0.004611769 0.2402216 0.00769111)
(-0.03391344 0.2359062 5.218006e-05)
(-0.05972533 0.2351113 -0.0004741232)
(-0.08174871 0.2362967 -0.0002202685)
(-0.1041224 0.23837 -0.0003488244)
(-0.1244356 0.2461308 -0.0009842714)
(-0.1451717 0.2585525 -0.0007800863)
(-0.1540365 0.2963327 -0.007024301)
(-0.2350251 0.3801778 0.0015811)
(-0.8978745 0.1801216 0.01212253)
(-0.004521956 0.2657103 0.008756215)
(-0.03401502 0.2596195 3.596672e-05)
(-0.05986165 0.2580412 -0.0004527179)
(-0.08109915 0.2573459 -0.0001485676)
(-0.1002337 0.2564931 -0.0002764594)
(-0.116483 0.2586146 -0.0004171454)
(-0.1204167 0.2619321 -0.0005769874)
(-0.1145424 0.2798881 -0.00228237)
(-0.09775 0.3121815 0.0004832481)
(-0.004569684 0.2912322 0.009177129)
(-0.03493486 0.2838384 2.841546e-05)
(-0.06169455 0.2811203 -0.0004334176)
(-0.08323996 0.2779298 -0.0002090825)
(-0.1029059 0.2731957 -0.0002628606)
(-0.1188923 0.2667488 -0.0008890256)
(-0.124038 0.2573175 -0.0008474979)
(-0.1175208 0.2418189 -0.004054328)
(-0.09861748 0.243623 0.004026394)
(-0.004794778 0.3176429 0.009827138)
(-0.03697316 0.3091425 3.220323e-05)
(-0.06547997 0.3052032 -0.0004553007)
(-0.08893259 0.2996967 -0.0001400955)
(-0.1110898 0.2916395 -0.0002441425)
(-0.132063 0.2787465 -0.0003625894)
(-0.1451993 0.2610486 -0.0004393314)
(-0.1552278 0.220194 -0.002416555)
(-0.1605852 0.1599269 -0.003080216)
(-0.005127321 0.3456681 0.01033106)
(-0.0397555 0.3364436 4.656951e-05)
(-0.07082776 0.3317793 -0.0004395142)
(-0.09675534 0.3250322 -0.0002389622)
(-0.1236698 0.3156514 -3.510276e-07)
(-0.1493763 0.3013204 -0.001398583)
(-0.1779897 0.2820169 0.001598315)
(-0.1959222 0.2442232 -0.00776504)
(-0.2478977 0.2091117 0.01343125)
(-0.005527441 0.3758168 0.0107587)
(-0.04287225 0.3659718 7.037019e-05)
(-0.07655442 0.3608174 -0.0005178561)
(-0.1049938 0.3535525 -0.0001623077)
(-0.1348337 0.3436895 -0.0003614976)
(-0.1653018 0.3303612 -0.0005765366)
(-0.1952991 0.3126609 -0.00160946)
(-0.2306384 0.2862756 -0.005621294)
(-0.2699124 0.2572766 -0.009035168)
(-0.005967711 0.4083341 0.01119905)
(-0.04637946 0.3979688 0.0001343487)
(-0.0828735 0.392486 -0.0005041834)
(-0.1138275 0.3849085 -8.941508e-05)
(-0.1468233 0.3750842 -0.0001051955)
(-0.1800389 0.3621833 -0.0002085915)
(-0.213977 0.3480491 0.0004116713)
(-0.2513829 0.3300779 -0.001243654)
(-0.2981955 0.3160372 0.005007783)
(-0.00643057 0.443272 0.01156437)
(-0.04996876 0.4325474 0.0001945939)
(-0.0892089 0.4267421 -0.0005640121)
(-0.122324 0.4189303 -0.0001020767)
(-0.1574954 0.40906 -0.000323115)
(-0.192187 0.3969852 -0.000217603)
(-0.2269174 0.3844067 -0.0005760756)
(-0.264598 0.3708654 -0.0006336014)
(-0.3030737 0.3587305 -0.001622531)
(-0.006936616 0.4808002 0.01190583)
(-0.0539181 0.469742 0.0002937775)
(-0.09604717 0.4633795 -0.0005646533)
(-0.1314323 0.4549471 -4.569162e-05)
(-0.1686858 0.4444202 -0.0002239838)
(-0.2045877 0.4320869 -3.240805e-05)
(-0.2399756 0.4196241 3.24756e-05)
(-0.2763627 0.4069247 -1.294093e-05)
(-0.3129655 0.3974755 -0.0001212229)
(-0.007498945 0.5210187 0.01221781)
(-0.05829158 0.5098915 0.0003980199)
(-0.1035235 0.5027426 -0.0005907465)
(-0.1412122 0.4933373 -4.58226e-05)
(-0.1802889 0.4816669 -0.0002886222)
(-0.216868 0.4684758 -9.606834e-05)
(-0.2519646 0.4554705 -0.0001926074)
(-0.2865584 0.4432572 -0.0001293149)
(-0.3205066 0.4342793 -0.0003619433)
(-0.00814951 0.564279 0.01254456)
(-0.06328296 0.5531422 0.0005389821)
(-0.1120804 0.544713 -0.0006019645)
(-0.1524388 0.533518 -2.812514e-05)
(-0.1934884 0.5195911 -0.0003026812)
(-0.2307518 0.5040894 -6.020072e-05)
(-0.2652097 0.4889737 -0.0001022302)
(-0.2975098 0.47564 -1.094368e-05)
(-0.3283714 0.4661599 -3.954281e-05)
(-0.008929839 0.6108941 0.01286687)
(-0.06948797 0.6004503 0.0007118604)
(-0.1225825 0.5904363 -0.0005857471)
(-0.1662597 0.5769157 6.802837e-06)
(-0.2096543 0.5598003 -0.0002636555)
(-0.2474169 0.5409249 -7.842563e-05)
(-0.2803871 0.522328 -0.0001301361)
(-0.309372 0.5066808 -5.390661e-05)
(-0.3359799 0.4962326 -7.955427e-05)
(-0.009867685 0.6613668 0.01305358)
(-0.07664249 0.6520811 0.0008741705)
(-0.1350067 0.639671 -0.0006688227)
(-0.1829937 0.6223422 -9.720791e-05)
(-0.2294284 0.6000831 -0.000541116)
(-0.2682487 0.5748199 -0.0001771221)
(-0.2995116 0.5504218 -0.0002877339)
(-0.3236547 0.5309335 -0.0001009614)
(-0.3445088 0.5187186 -0.0001401927)
(-0.01438411 0.7430694 -0.01010614)
(-0.0863756 0.7102162 0.001150432)
(-0.1516545 0.6953911 -0.0004999545)
(-0.2057391 0.6742419 2.423304e-05)
(-0.257108 0.6451213 3.62251e-05)
(-0.2970114 0.6126427 -9.099962e-05)
(-0.3242137 0.5785517 -6.887366e-07)
(-0.3411628 0.552792 -1.206025e-05)
(-0.3534947 0.5383673 -5.831224e-05)
(-0.0246264 0.003313064 0.0009941752)
(-0.05208179 0.008786001 -0.0005458876)
(-0.06703377 0.007947409 0.001351338)
(-0.08698804 0.00841426 0.0001757962)
(-0.1034292 0.007464612 0.000405079)
(-0.119283 0.006641255 0.0003648185)
(-0.1328378 0.005400292 0.0002599307)
(-0.143812 0.004034934 0.000196996)
(-0.00332277 0.02505924 -0.0009318439)
(-0.02945482 0.02921197 5.747074e-05)
(-0.04930505 0.02880018 0.001083303)
(-0.0697416 0.02586801 0.001097539)
(-0.08850588 0.02527872 0.001082471)
(-0.106386 0.02306072 0.0009755492)
(-0.1227078 0.02053896 0.0009481466)
(-0.1369368 0.01701656 0.0009224187)
(-0.1485046 0.01284928 0.0007733305)
(-0.009284278 0.05303685 0.0007970791)
(-0.03042263 0.04911137 -0.001001014)
(-0.04989828 0.04787182 8.317116e-05)
(-0.07084941 0.04648166 0.0001819248)
(-0.09055801 0.04428916 0.0002682644)
(-0.1092451 0.04100388 0.0003574306)
(-0.1266349 0.03669054 0.0002934367)
(-0.1419938 0.0307712 0.0002299987)
(-0.1548132 0.02352645 0.0001681353)
(-0.008943648 0.06962395 -0.0009300441)
(-0.02923759 0.0710129 -0.001004354)
(-0.05162672 0.06927391 -0.0001126113)
(-0.07294489 0.06710599 -1.046099e-05)
(-0.09379454 0.0641549 0.000119068)
(-0.113828 0.05974231 0.0001900129)
(-0.1328217 0.05390114 0.0001805346)
(-0.1500038 0.04569124 0.00018274)
(-0.1649171 0.03544741 0.0001616282)
(-0.01021869 0.09248326 -5.539202e-05)
(-0.03090393 0.09251818 -0.001122335)
(-0.05344432 0.09091721 -0.000236899)
(-0.07568973 0.08858594 -0.0001382944)
(-0.09776693 0.08513133 -3.406055e-06)
(-0.1194502 0.08006903 5.799346e-05)
(-0.1407167 0.07303258 6.046946e-05)
(-0.1605244 0.06285196 4.60567e-05)
(-0.1786387 0.04975593 6.264036e-05)
(-0.01023298 0.1141942 -0.0004678463)
(-0.03159329 0.1151414 -0.001238774)
(-0.05529034 0.1136004 -0.0003643419)
(-0.07853696 0.1114174 -0.0002321514)
(-0.1021784 0.107988 -8.860478e-05)
(-0.1258694 0.1028507 -2.149884e-05)
(-0.1500605 0.09530757 1.920871e-07)
(-0.173375 0.0838284 -2.377649e-05)
(-0.1965604 0.06782378 8.631954e-05)
(-0.01061317 0.137427 -0.0002384873)
(-0.03262205 0.1383989 -0.001212048)
(-0.0569552 0.137078 -0.0003867231)
(-0.08118146 0.1351917 -0.0002485815)
(-0.1062399 0.1322134 -0.0001103114)
(-0.1320634 0.1277146 -5.15042e-05)
(-0.1597362 0.1206198 -2.032616e-05)
(-0.1880566 0.108877 -0.0001298228)
(-0.2186641 0.09108273 6.44815e-05)
(-0.01081018 0.1608051 -0.0003459204)
(-0.03335847 0.1624584 -0.001194535)
(-0.05829761 0.1615045 -0.0004689794)
(-0.08332804 0.160512 -0.000280504)
(-0.1095886 0.1587137 -0.0001453606)
(-0.1372953 0.1563266 -8.76342e-05)
(-0.1689427 0.1514124 -1.202714e-05)
(-0.2030176 0.1428151 -0.0001582756)
(-0.2478565 0.1224869 0.0004298828)
(-0.01084077 0.1845366 -0.0004030738)
(-0.03360642 0.186769 -0.001257738)
(-0.05869901 0.1861739 -0.0004750252)
(-0.08394026 0.1860932 -0.0003096054)
(-0.1103005 0.1857924 -0.0001744348)
(-0.1393117 0.1864968 -8.297029e-05)
(-0.1728219 0.1866243 -1.391391e-05)
(-0.2161406 0.1856569 0.000101649)
(-0.2769273 0.1665384 0.000595124)
(-0.01077227 0.208534 -0.0004799061)
(-0.03366551 0.2112738 -0.001424258)
(-0.05875363 0.2110418 -0.0004573379)
(-0.08371088 0.2119212 -0.0003451979)
(-0.1091975 0.2137108 -0.0001961977)
(-0.1367783 0.2187313 -7.090667e-05)
(-0.1694029 0.228215 -8.437293e-05)
(-0.2079603 0.2455359 0.0003069057)
(-0.2962915 0.2429313 0.0007438601)
(-0.010574 0.2326587 -0.0002477591)
(-0.03333477 0.2355654 -0.001583941)
(-0.05783894 0.2352052 -0.0004072251)
(-0.08133507 0.2362729 -0.0004338677)
(-0.1035574 0.2383511 -0.0003397939)
(-0.1246919 0.2463515 -0.0004103151)
(-0.1450818 0.2588378 -0.0009531814)
(-0.1570283 0.2961596 -0.001338498)
(-0.252431 0.3762548 -0.000704764)
(-0.9480103 0.1781222 0.009643923)
(-0.01057801 0.2566749 -6.816337e-05)
(-0.03361259 0.2593823 -0.001691982)
(-0.05780579 0.2581198 -0.0003606032)
(-0.08064638 0.2573795 -0.000399281)
(-0.09943948 0.2566223 -0.0002830216)
(-0.1163513 0.2590215 -6.003722e-05)
(-0.1191055 0.2624206 -0.000410235)
(-0.1159837 0.2803988 0.0008154898)
(-0.09814997 0.3097194 0.0006471092)
(-0.01086919 0.2811456 4.667193e-05)
(-0.03461367 0.283597 -0.001769605)
(-0.05949639 0.2811538 -0.000335677)
(-0.08275838 0.2779593 -0.0004203139)
(-0.1019518 0.2733136 -0.0003018611)
(-0.1187297 0.2670181 -6.67402e-05)
(-0.1222289 0.2575849 -0.0005181196)
(-0.1199075 0.2423241 0.001724086)
(-0.1021409 0.2409365 0.001187613)
(-0.01147275 0.3066451 4.500955e-06)
(-0.03660551 0.3088446 -0.001897778)
(-0.06308704 0.3052138 -0.000360661)
(-0.08836074 0.2997435 -0.0004444899)
(-0.1099772 0.291855 -0.0004035733)
(-0.1315802 0.2791541 -1.538648e-05)
(-0.1433881 0.2620033 -0.0009754445)
(-0.1581015 0.2218539 0.001827501)
(-0.1609642 0.1574292 -0.0007023616)
(-0.0123347 0.3339947 -7.961201e-06)
(-0.03930537 0.3361167 -0.002004501)
(-0.06822104 0.3317648 -0.000323802)
(-0.09604678 0.3250474 -0.0003819283)
(-0.1222682 0.3158801 -0.0002064369)
(-0.1483585 0.3016881 0.000518188)
(-0.1748237 0.2836315 -0.000290219)
(-0.1969747 0.2501496 0.004541216)
(-0.2512009 0.208397 -0.005676436)
(-0.01330661 0.3634385 -3.542295e-05)
(-0.04235235 0.3656186 -0.002164552)
(-0.07375721 0.3607545 -0.0003919458)
(-0.1041851 0.3534538 -0.0005382389)
(-0.1333294 0.3436919 -0.0004096588)
(-0.1637157 0.3300834 -0.0003508797)
(-0.1918912 0.3126085 -0.0004495791)
(-0.2277427 0.2850248 0.001699043)
(-0.2678401 0.2573604 0.0006451626)
(-0.0144106 0.3952966 -1.934185e-07)
(-0.04577604 0.3976207 -0.002245788)
(-0.07995009 0.3923972 -0.000337384)
(-0.1130573 0.3847459 -0.0004503543)
(-0.1456062 0.374923 -0.0001595345)
(-0.1791161 0.3615828 9.898239e-05)
(-0.2122606 0.3469505 0.0002208867)
(-0.2508754 0.3269075 0.001225777)
(-0.2979543 0.3114186 0.000847513)
(-0.01555071 0.4297204 2.015265e-05)
(-0.04932194 0.4322273 -0.002373409)
(-0.08615695 0.4266557 -0.0003820823)
(-0.1215774 0.4187885 -0.0005460444)
(-0.1564232 0.4089224 -0.0003193023)
(-0.191467 0.3965772 -0.0002846379)
(-0.2260025 0.3837973 -0.0004245203)
(-0.2635797 0.3693428 -0.0005752736)
(-0.303125 0.3576565 -0.0003376825)
(-0.01680013 0.4668301 9.740766e-05)
(-0.05320682 0.4694369 -0.002433697)
(-0.09286779 0.4633014 -0.0003467764)
(-0.1306887 0.4548209 -0.000493345)
(-0.1677188 0.4443031 -0.0001894192)
(-0.2040857 0.4317909 -8.413799e-05)
(-0.2394519 0.419159 -8.40095e-05)
(-0.2760006 0.4060121 5.60737e-05)
(-0.3126592 0.3961637 -1.688157e-05)
(-0.01819406 0.5069682 0.0002093689)
(-0.05753198 0.5096069 -0.002510421)
(-0.1002087 0.5026743 -0.0003437832)
(-0.1404728 0.4932318 -0.0005245468)
(-0.1793582 0.4815776 -0.0002312029)
(-0.216445 0.4683023 -0.0001810275)
(-0.251605 0.4552296 -0.0002410461)
(-0.2862721 0.4428177 -0.0002437612)
(-0.3203754 0.4338674 -0.0003251284)
(-0.01977843 0.5504042 0.0003623802)
(-0.06251052 0.5528564 -0.002564994)
(-0.1086308 0.5446379 -0.0003302223)
(-0.1516867 0.5334068 -0.0005103948)
(-0.1925581 0.519507 -0.0001933577)
(-0.2303703 0.503941 -0.0001058281)
(-0.2649326 0.4887833 -0.0001120484)
(-0.2973434 0.4753492 -4.063524e-05)
(-0.3282763 0.4658093 -7.324487e-05)
(-0.02174748 0.5980282 0.0005251895)
(-0.06864639 0.60019 -0.002620694)
(-0.118994 0.5903428 -0.0003089914)
(-0.1655001 0.5767974 -0.0005237581)
(-0.2087336 0.5597138 -0.0001838852)
(-0.24708 0.5408054 -0.000143244)
(-0.2801594 0.5221805 -0.0001429173)
(-0.3092413 0.5064536 -0.0001025961)
(-0.3359193 0.4959911 -0.0001219536)
(-0.02400804 0.6502923 0.0008582688)
(-0.07588838 0.6517473 -0.002652327)
(-0.1313064 0.6394733 -0.0003426755)
(-0.1822128 0.6220699 -0.0005740034)
(-0.2284857 0.599832 -0.000264783)
(-0.2679308 0.5744698 -0.0001464485)
(-0.2993496 0.5500865 -0.0001574012)
(-0.3235895 0.53057 -8.001875e-05)
(-0.3444747 0.5183883 -9.979265e-05)
(-0.02708412 0.7092309 0.001018155)
(-0.08548985 0.7100268 -0.002699056)
(-0.1478889 0.6951388 -0.0002777761)
(-0.2050262 0.6739602 -0.0006235817)
(-0.256273 0.6450081 -0.0001673525)
(-0.2968096 0.6123843 -0.0003051656)
(-0.3240653 0.5783058 -0.0001966711)
(-0.341068 0.5522646 -0.0001774544)
(-0.3534535 0.5378943 -0.0001172623)
(-0.02491939 0.002968949 -4.786858e-05)
(-0.05285306 0.007818734 -0.0004834315)
(-0.06775961 0.007599092 -0.0002485826)
(-0.08772843 0.008290764 -0.0001192529)
(-0.1045146 0.007343593 -0.000223614)
(-0.120604 0.006590157 -0.0002592006)
(-0.1341315 0.005379579 -0.0003177737)
(-0.145133 0.004049452 -0.0002649174)
(-0.003110241 0.02460295 8.831574e-05)
(-0.02937022 0.02923327 5.337745e-05)
(-0.04946609 0.02942779 0.0002413548)
(-0.06997323 0.02610167 2.877554e-05)
(-0.08855569 0.02550197 3.93041e-05)
(-0.1062883 0.02314963 -8.309513e-07)
(-0.1225297 0.02072061 4.470284e-06)
(-0.1366392 0.01721104 -2.930198e-05)
(-0.1481069 0.01304729 -7.508904e-06)
(-0.008243691 0.05296232 0.0003405948)
(-0.0311049 0.04941724 -0.0001004762)
(-0.04998038 0.04799199 7.150491e-05)
(-0.07101834 0.04658661 -9.700812e-06)
(-0.09060699 0.04436282 2.62193e-05)
(-0.1092316 0.04105597 1.718179e-05)
(-0.1265774 0.03675424 3.071522e-05)
(-0.1418678 0.03083334 -1.640051e-06)
(-0.1546344 0.02358413 6.311777e-06)
(-0.008766958 0.07038555 0.0005577707)
(-0.02968958 0.07137855 0.0001363141)
(-0.05175312 0.06945642 0.0001434887)
(-0.07311785 0.0672715 5.00716e-05)
(-0.09389042 0.0642593 5.111561e-05)
(-0.1138544 0.05980975 4.992029e-05)
(-0.1328 0.0539626 4.670874e-05)
(-0.1499154 0.04572125 2.435162e-05)
(-0.1647805 0.03549877 3.468514e-05)
(-0.0101289 0.09344877 0.000661972)
(-0.03115136 0.09263312 0.0001926449)
(-0.05357789 0.09098899 0.000122454)
(-0.07581577 0.08869121 4.526226e-05)
(-0.09786587 0.0851897 3.358738e-05)
(-0.1194757 0.08009685 3.653451e-05)
(-0.1407213 0.07305781 3.487579e-05)
(-0.1604607 0.06282564 3.02955e-07)
(-0.178529 0.04982214 3.291391e-05)
(-0.01004994 0.1153804 0.0004849038)
(-0.03178801 0.1151409 0.000181077)
(-0.05541925 0.1136526 5.75938e-05)
(-0.07864587 0.1114804 9.191866e-06)
(-0.1022872 0.1080184 -1.621801e-05)
(-0.125897 0.1028356 -1.0319e-05)
(-0.1501005 0.09530146 -6.566878e-06)
(-0.1732858 0.08369513 -6.922011e-05)
(-0.1964876 0.06789989 5.242668e-05)
(-0.01039295 0.1387982 0.0005176481)
(-0.03276645 0.1383034 0.0002129576)
(-0.05709267 0.1371006 5.750831e-05)
(-0.08128026 0.1352105 4.380136e-06)
(-0.1063635 0.1322084 -2.657922e-05)
(-0.1320839 0.1276358 -3.196763e-05)
(-0.1598479 0.1205519 -1.90275e-05)
(-0.1879486 0.1086353 -0.0001833229)
(-0.2185659 0.09141101 6.31794e-05)
(-0.01055541 0.1625322 0.0004260149)
(-0.03345582 0.1623073 0.0001896777)
(-0.05843002 0.1615172 1.941342e-05)
(-0.08343124 0.1604914 -2.381337e-05)
(-0.1097553 0.1586756 -5.70249e-05)
(-0.1373426 0.1562327 -8.200586e-05)
(-0.1691536 0.1512893 -5.181717e-05)
(-0.2027688 0.1421746 -0.0002438343)
(-0.2477372 0.1227834 0.0004448835)
(-0.01062961 0.1867199 0.0005064457)
(-0.03377492 0.1866346 0.0001988602)
(-0.0588642 0.1862002 2.17077e-05)
(-0.08406998 0.1860508 -3.958337e-05)
(-0.1104769 0.1857044 -7.064537e-05)
(-0.1393665 0.1862956 -6.99121e-05)
(-0.1725962 0.1861903 -7.339122e-05)
(-0.2157489 0.1846944 4.473222e-05)
(-0.2750695 0.1673454 0.0006510132)
(-0.01065587 0.210983 0.0006054464)
(-0.0339891 0.2111221 0.0001906624)
(-0.0589888 0.2110472 1.911921e-05)
(-0.08392023 0.2118252 -6.796565e-05)
(-0.1095126 0.2135592 -0.0001161145)
(-0.1370643 0.2182145 -0.0001807107)
(-0.1697333 0.2273723 -0.0003075572)
(-0.2079892 0.2439455 -0.0003120687)
(-0.294807 0.2436866 0.0005091317)
(-0.01051632 0.2352385 0.0007486865)
(-0.03375487 0.2353909 0.0002195483)
(-0.05817617 0.2352041 2.36578e-05)
(-0.08161943 0.2362236 -0.0001277547)
(-0.1041437 0.2382572 -0.0002219201)
(-0.125157 0.2461427 -0.0005318051)
(-0.1463932 0.2583234 -0.0009289371)
(-0.158982 0.293736 -0.001398111)
(-0.2568105 0.3744011 0.0002124745)
(-0.9728629 0.1777362 0.004379003)
(-0.01054835 0.2594428 0.0008090834)
(-0.0340799 0.2591941 0.0002343102)
(-0.0581673 0.2581458 3.012617e-05)
(-0.08095142 0.2573895 -0.0001109555)
(-0.09991608 0.256575 -0.0002352175)
(-0.1166862 0.2590601 -0.0003377622)
(-0.1194662 0.2624025 -0.0006109593)
(-0.1160339 0.2795821 -0.0006256469)
(-0.09677186 0.309021 0.0001961495)
(-0.01083749 0.284199 0.0008838815)
(-0.03509775 0.2834015 0.0002684712)
(-0.0598964 0.2811904 4.968682e-05)
(-0.0830981 0.2779571 -0.0001164685)
(-0.1025182 0.2731391 -0.0002640354)
(-0.1192311 0.2668691 -0.0003619827)
(-0.1227691 0.2565386 -0.0006212347)
(-0.119534 0.2427895 -0.0004885401)
(-0.1032388 0.2385547 -0.0006193297)
(-0.01145765 0.310036 0.0009314195)
(-0.03716888 0.3086837 0.0002620532)
(-0.06352591 0.3053223 1.93919e-05)
(-0.08883553 0.2998463 -0.0001637162)
(-0.1105701 0.2918441 -0.0004777456)
(-0.13274 0.2794111 -0.0005105429)
(-0.1435392 0.2611307 -0.001696031)
(-0.1619622 0.2249648 -0.0006654394)
(-0.1627265 0.1612093 -0.002870128)
(-0.01232336 0.3376685 0.001060121)
(-0.03990288 0.3359471 0.0003313744)
(-0.06864809 0.3318754 9.579695e-05)
(-0.0964728 0.3250635 -5.643812e-05)
(-0.1225935 0.3157959 -0.0002537527)
(-0.1494955 0.3010301 1.704605e-05)
(-0.1729186 0.283137 -0.0007975076)
(-0.2037407 0.2486837 0.001965722)
(-0.236127 0.2163208 -0.007903664)
(-0.01331689 0.3674542 0.001125457)
(-0.04304929 0.3654846 0.0003186119)
(-0.0743311 0.360944 5.20797e-05)
(-0.104838 0.3536189 -0.0002060306)
(-0.1344842 0.3438764 -0.0005171666)
(-0.1654786 0.3300585 -0.000910268)
(-0.1958324 0.313708 -0.001861404)
(-0.2326013 0.2902564 -0.003764741)
(-0.2764684 0.2647441 -0.005460418)
(-0.01442615 0.3996276 0.001229919)
(-0.04649334 0.3974939 0.0003826672)
(-0.08043466 0.3926429 0.0001570266)
(-0.1134569 0.385037 -3.490605e-05)
(-0.1461063 0.3753122 -0.0001497847)
(-0.179638 0.3623684 -0.0001473895)
(-0.2130092 0.3484496 -0.0003519864)
(-0.2511482 0.3307334 -0.000398493)
(-0.2920918 0.3150827 -0.0001250309)
(-0.01557197 0.4343573 0.001354719)
(-0.05009978 0.4320701 0.0004339903)
(-0.08670105 0.4268867 0.0001569285)
(-0.1220597 0.4190252 -8.092178e-05)
(-0.1570665 0.4091557 -0.0002660257)
(-0.1922039 0.39692 -0.0004109016)
(-0.2271197 0.384231 -0.000760388)
(-0.264562 0.3699002 -0.001165379)
(-0.3040438 0.3585271 -0.001460411)
(-0.01681796 0.4718636 0.001496927)
(-0.05400888 0.4692931 0.0005348746)
(-0.09337891 0.4635847 0.0002403203)
(-0.1310565 0.4551176 3.944947e-05)
(-0.1680937 0.4446355 -7.01128e-05)
(-0.2043677 0.4323036 -5.888089e-05)
(-0.2397672 0.4199182 -0.0001682482)
(-0.2762672 0.4073377 -0.0001624226)
(-0.312988 0.3977276 -0.0002694485)
(-0.01823273 0.5123515 0.001620691)
(-0.0584018 0.5094354 0.0006031498)
(-0.1007649 0.5029476 0.0002757678)
(-0.1408679 0.4934892 5.383903e-05)
(-0.1797537 0.4818068 -7.587789e-05)
(-0.2167508 0.4685715 -0.00010242)
(-0.2519474 0.4555216 -0.0002395497)
(-0.2865662 0.4431872 -0.0003245435)
(-0.3206853 0.4342485 -0.0004660562)
(-0.0198028 0.5562147 0.001853359)