/*--------------------------------*- C++ -*----------------------------------*\
  =========                 |
  \\      /  F ield         | OpenFOAM: The Open Source CFD Toolbox
   \\    /   O peration     | Website:  https://openfoam.org
    \\  /    A nd           | Version:  7
     \\/     M anipulation  |
\*---------------------------------------------------------------------------*/
FoamFile
{
    version     2.0;
    format      ascii;
    class       volScalarField;
    location    "0.06";
    object      epsilon;
}
// * * * * * * * * * * * * * * * * * * * * * * * * * * * * * * * * * * * * * //

dimensions      [0 2 -3 0 0 0 0];

internalField   nonuniform List<scalar> 
77308
(
0.002039061
0.002148416
0.002157179
0.002160408
0.002161225
0.002161511
0.0009500453
0.0009837174
0.0009948302
0.0009977532
0.0009985597
0.0009987999
0.000960103
0.001004425
0.001019016
0.001023106
0.001024277
0.001024576
0.0009644533
0.001012426
0.001029375
0.001034228
0.001035661
0.001036068
0.0009654544
0.001014545
0.001032268
0.001037512
0.001039096
0.001039564
0.0009656881
0.001015088
0.001033057
0.00103845
0.001040109
0.001040608
0.0009656819
0.001015106
0.001033101
0.001038514
0.001040185
0.001040693
0.0009654876
0.001014706
0.00103254
0.001037853
0.001039479
0.001039972
0.0009649265
0.0010135
0.001030861
0.001035901
0.001037402
0.001037855
0.0009630919
0.001009682
0.001025773
0.001030201
0.001031468
0.001031847
0.0009559068
0.0009963018
0.001008852
0.00101211
0.00101301
0.001013284
0.0009345649
0.0009557071
0.0009624475
0.0009640551
0.0009645374
0.0009647
0.001938084
0.002013054
0.002022394
0.002023641
0.002024107
0.002024378
0.008489561
0.008501795
0.008510834
0.008520377
0.008530253
0.008540572
0.001892523
0.001918164
0.001921145
0.001922009
0.001923029
0.001924225
0.0009428615
0.000965477
0.0009723645
0.0009740063
0.0009745628
0.0009748655
0.0009635841
0.001005012
0.001017971
0.001021423
0.001022473
0.00102295
0.0009704377
0.001018121
0.001034618
0.00103938
0.001040901
0.001041541
0.0009714809
0.001021048
0.001038866
0.001044219
0.001046004
0.001046784
0.0009715094
0.001021747
0.001040084
0.001045796
0.001047803
0.001048695
0.0009710082
0.001021411
0.001039952
0.001045816
0.001047947
0.001048933
0.0009703763
0.001020771
0.001039371
0.001045308
0.001047525
0.001048598
0.0009695377
0.001019724
0.001038216
0.001044122
0.001046372
0.001047525
0.0009683498
0.001017923
0.001036016
0.001041725
0.001043925
0.001045135
0.01118441
0.01118385
0.01118386
0.01118389
0.01118392
0.01118396
0.002028559
0.0111813
0.01118136
0.0111814
0.01118143
0.01118147
0.01118151
0.002055563
0.01118131
0.01118142
0.01118145
0.01118149
0.01118153
0.01118158
0.002070162
0.01118131
0.01118142
0.01118146
0.01118149
0.01118154
0.01118159
0.002073141
0.0111813
0.01118141
0.01118145
0.01118149
0.01118154
0.01118159
0.002073448
0.01118129
0.0111814
0.01118144
0.01118148
0.01118153
0.01118159
0.002073337
0.01118127
0.01118139
0.01118143
0.01118147
0.01118152
0.01118159
0.002073089
0.01118125
0.01118137
0.01118142
0.01118146
0.01118151
0.01118157
0.002072712
0.01118123
0.01118135
0.0111814
0.01118144
0.01118144
0.01118149
0.002072062
0.0111812
0.01118133
0.01118137
0.01118138
0.01118139
0.01118145
0.002070269
0.01118117
0.0111813
0.01118106
0.01118105
0.01118103
0.01118104
0.002058729
0.0111811
0.01118079
0.01118073
0.01118071
0.01118074
0.01118076
0.002032194
0.01118367
0.01118376
0.01118384
0.01118394
0.01118403
0.01118414
0.003799359
0.003923518
0.003985546
0.004006785
0.004011603
0.004012831
0.005919863
0.01125007
0.01122552
0.01122583
0.01122978
0.01122957
0.01123258
0.002087638
0.01115461
0.01110629
0.01109865
0.01110212
0.01110487
0.01110969
0.002109766
0.01118739
0.01118243
0.01118147
0.01118223
0.01118354
0.01118353
0.00211394
0.01118034
0.01117809
0.01118038
0.01118118
0.0111819
0.01118215
0.002111348
0.01118726
0.01118822
0.01119014
0.01118993
0.01119037
0.01119002
0.002108077
0.0111853
0.01118579
0.01118873
0.0111887
0.01118984
0.01118984
0.002104396
0.01118516
0.0111863
0.01118967
0.01119007
0.01119092
0.01119123
0.002100548
0.01118412
0.01118558
0.01118917
0.01118986
0.01119079
0.01119116
0.00209652
0.01118375
0.01118554
0.01118931
0.01119019
0.01119109
0.01119159
0.01114999
0.01118348
0.01118567
0.01118971
0.01119065
0.0111914
0.0111921
0.01118437
0.01118384
0.01118386
0.01118388
0.01118392
0.01118396
0.002045281
0.01118379
0.0111838
0.01118382
0.01118385
0.01118389
0.01118393
0.0009749545
0.01118124
0.0111838
0.01118383
0.01118386
0.01118391
0.01118396
0.0009903962
0.01118127
0.0111838
0.01118383
0.01118387
0.01118392
0.01118397
0.0009961072
0.01118127
0.01118379
0.01118383
0.01118387
0.01118392
0.01118398
0.0009973694
0.01118126
0.01118378
0.01118382
0.01118386
0.01118392
0.01118398
0.0009975651
0.01118124
0.01118376
0.01118381
0.01118385
0.01118391
0.01118397
0.0009973655
0.01118122
0.01118374
0.01118379
0.01118384
0.01118389
0.01118396
0.0009966981
0.0111812
0.01118372
0.01118376
0.01118381
0.01118387
0.01118394
0.0009946808
0.01118117
0.01118369
0.01118373
0.01118378
0.01118384
0.01118391
0.0009875121
0.01118114
0.01118364
0.01118369
0.01118375
0.0111838
0.01118387
0.0009690099
0.01118106
0.01117631
0.01117625
0.01117558
0.0111752
0.01117471
0.002054497
0.01118364
0.0007677114
0.0008242943
0.0008434468
0.0008484247
0.0008492686
0.003917356
0.005914921
0.01123298
0.01123291
0.01126638
0.01124528
0.01124684
0.01125022
0.0009727366
0.01109413
0.01119378
0.01119356
0.01119426
0.01119352
0.0111942
0.0009945689
0.01115263
0.01119131
0.01119302
0.011193
0.01119243
0.01119254
0.001002265
0.01113764
0.01119113
0.01119162
0.01119213
0.01119191
0.0111925
0.00100363
0.01114689
0.01119245
0.01119296
0.01119328
0.01119369
0.01119335
0.00100385
0.01114061
0.01119152
0.01119242
0.01119267
0.01119302
0.01119303
0.001003357
0.01113909
0.01119181
0.01119257
0.01119301
0.01119335
0.0111936
0.001002662
0.01113564
0.01119154
0.01119233
0.01119276
0.01119318
0.01119352
0.001001576
0.01113378
0.01119155
0.01119241
0.01119295
0.01119349
0.01119397
0.00099943
0.01113093
0.0111914
0.0111924
0.01119305
0.01119379
0.01119451
0.01118438
0.01118384
0.01118385
0.01118388
0.01118391
0.01118395
0.002058704
0.01118378
0.01118379
0.01118381
0.01118384
0.01118388
0.01118393
0.0009897242
0.01118127
0.0111838
0.01118382
0.01118386
0.0111839
0.01118395
0.001017174
0.01118133
0.0111838
0.01118383
0.01118387
0.01118391
0.01118397
0.001026176
0.01118134
0.01118379
0.01118383
0.01118387
0.01118392
0.01118398
0.001028332
0.01118132
0.01118378
0.01118382
0.01118386
0.01118392
0.01118398
0.001028708
0.0111813
0.01118376
0.0111838
0.01118385
0.01118391
0.01118397
0.001028439
0.01118128
0.01118374
0.01118378
0.01118383
0.01118389
0.01118396
0.001027421
0.01118126
0.01118371
0.01118376
0.01118381
0.01118387
0.01118393
0.001024242
0.01118124
0.01118368
0.01118373
0.01118378
0.01118384
0.0111839
0.001013315
0.01118121
0.01118364
0.01118369
0.01118374
0.0111838
0.01118386
0.0009822935
0.01118109
0.01117734
0.01117726
0.01117646
0.01117608
0.01117562
0.002114757
0.01118363
0.0008240684
0.0009055157
0.0009399264
0.0009497767
0.0009520793
0.003977882
0.005938532
0.01121942
0.0112408
0.01127811
0.0112629
0.01125682
0.01125453
0.0009863283
0.01107938
0.01119391
0.01119685
0.01119516
0.01119551
0.0111958
0.001020548
0.01114529
0.0111942
0.01119102
0.01119558
0.0111922
0.01119286
0.001032415
0.01114103
0.01119064
0.01119124
0.01119157
0.01119219
0.01119227
0.001034914
0.01114638
0.01119321
0.01119246
0.01119383
0.01119344
0.01119344
0.001035468
0.01114114
0.01119199
0.01119202
0.01119298
0.01119289
0.01119311
0.001035064
0.01113968
0.01119201
0.01119248
0.01119305
0.0111933
0.0111936
0.001034279
0.01113628
0.0111916
0.01119228
0.0111928
0.01119316
0.01119352
0.001032902
0.01113501
0.01119158
0.01119239
0.01119295
0.01119347
0.01119396
0.001029765
0.01113217
0.01119137
0.01119238
0.01119304
0.01119379
0.01119451
0.01118438
0.01118384
0.01118385
0.01118388
0.01118391
0.01118395
0.002061714
0.01118378
0.01118379
0.01118381
0.01118384
0.01118388
0.01118393
0.000995055
0.01118128
0.0111838
0.01118382
0.01118386
0.0111839
0.01118395
0.001025609
0.01118135
0.0111838
0.01118383
0.01118386
0.01118391
0.01118396
0.001036494
0.01118135
0.01118379
0.01118382
0.01118387
0.01118392
0.01118397
0.001039092
0.01118134
0.01118378
0.01118382
0.01118386
0.01118391
0.01118398
0.001039551
0.01118132
0.01118376
0.0111838
0.01118385
0.01118391
0.01118397
0.001039242
0.0111813
0.01118374
0.01118378
0.01118383
0.01118389
0.01118395
0.001038047
0.01118128
0.01118371
0.01118376
0.01118381
0.01118386
0.01118393
0.001034278
0.01118125
0.01118368
0.01118372
0.01118377
0.01118383
0.0111839
0.00102126
0.01118122
0.01118364
0.01118368
0.01118374
0.0111838
0.01118386
0.0009869968
0.0111811
0.01117757
0.01117756
0.01117667
0.01117631
0.01117584
0.002122519
0.01118363
0.0008420113
0.0009376908
0.0009794983
0.0009918739
0.0009948999
0.003997315
0.005941494
0.01122687
0.01127433
0.01125982
0.01126258
0.0112587
0.01125618
0.0009908163
0.01107659
0.01119297
0.01119407
0.01119276
0.01119362
0.01119358
0.001028592
0.01114571
0.01119187
0.01119498
0.01119144
0.01119549
0.01119217
0.001042442
0.01113646
0.01119097
0.01119099
0.01119153
0.01119169
0.01119228
0.001045582
0.01114798
0.01119208
0.01119392
0.01119257
0.0111939
0.0111931
0.001046366
0.01114255
0.01119136
0.01119252
0.01119235
0.01119321
0.01119292
0.001046029
0.01114106
0.01119161
0.01119269
0.01119294
0.01119339
0.01119352
0.001045273
0.01113755
0.01119145
0.01119243
0.01119273
0.01119321
0.0111935
0.00104377
0.01113571
0.01119152
0.01119243
0.01119291
0.01119348
0.01119395
0.001040155
0.01113285
0.01119134
0.0111924
0.01119304
0.01119381
0.01119453
0.01118438
0.01118384
0.01118385
0.01118388
0.01118391
0.01118395
0.002062014
0.01118378
0.01118379
0.01118381
0.01118384
0.01118388
0.01118392
0.0009950698
0.01118128
0.0111838
0.01118382
0.01118386
0.0111839
0.01118395
0.001025618
0.01118135
0.0111838
0.01118383
0.01118386
0.01118391
0.01118396
0.001036489
0.01118135
0.01118379
0.01118382
0.01118387
0.01118392
0.01118397
0.00103907
0.01118134
0.01118378
0.01118382
0.01118386
0.01118391
0.01118398
0.001039516
0.01118132
0.01118376
0.0111838
0.01118385
0.01118391
0.01118397
0.001039209
0.0111813
0.01118374
0.01118378
0.01118383
0.01118389
0.01118395
0.001038018
0.01118128
0.01118371
0.01118375
0.01118381
0.01118386
0.01118393
0.001034245
0.01118125
0.01118368
0.01118372
0.01118377
0.01118383
0.0111839
0.001021221
0.01118122
0.01118364
0.01118368
0.01118374
0.0111838
0.01118386
0.0009869726
0.0111811
0.01117758
0.01117756
0.01117667
0.01117631
0.01117585
0.002123161
0.01118363
0.0008420158
0.0009376953
0.0009795005
0.0009918772
0.0009949062
0.003999517
0.005949869
0.01128799
0.01127403
0.01126006
0.01126256
0.01125885
0.01125619
0.0009907885
0.01107515
0.01119303
0.01119397
0.01119275
0.01119364
0.01119361
0.001028557
0.01114573
0.01119188
0.01119505
0.01119142
0.01119558
0.01119215
0.00104242
0.01113651
0.01119099
0.01119099
0.01119152
0.01119169
0.01119227
0.001045566
0.01114795
0.01119207
0.01119393
0.01119256
0.01119391
0.0111931
0.001046356
0.01114262
0.01119136
0.01119253
0.01119235
0.01119322
0.01119293
0.001046019
0.01114103
0.01119161
0.0111927
0.01119294
0.01119339
0.01119352
0.001045268
0.01113757
0.01119146
0.01119244
0.01119273
0.01119321
0.0111935
0.001043769
0.01113569
0.01119152
0.01119243
0.01119291
0.01119349
0.01119395
0.001040159
0.01113284
0.01119135
0.01119241
0.01119305
0.01119382
0.01119453
0.01118437
0.01118383
0.01118385
0.01118387
0.01118391
0.01118395
0.002061056
0.01118378
0.01118379
0.01118381
0.01118384
0.01118388
0.01118393
0.0009897746
0.01118127
0.0111838
0.01118383
0.01118386
0.0111839
0.01118395
0.001017196
0.01118133
0.0111838
0.01118383
0.01118387
0.01118391
0.01118397
0.001026146
0.01118134
0.01118379
0.01118383
0.01118387
0.01118392
0.01118398
0.001028219
0.01118132
0.01118378
0.01118382
0.01118386
0.01118392
0.01118398
0.001028522
0.0111813
0.01118376
0.0111838
0.01118385
0.01118391
0.01118397
0.001028276
0.01118128
0.01118374
0.01118378
0.01118383
0.01118389
0.01118396
0.0010273
0.01118126
0.01118371
0.01118376
0.01118381
0.01118387
0.01118393
0.001024081
0.01118124
0.01118368
0.01118373
0.01118378
0.01118384
0.0111839
0.001013103
0.01118121
0.01118364
0.01118369
0.01118374
0.0111838
0.01118386
0.0009821424
0.01118109
0.01117734
0.01117726
0.01117646
0.01117608
0.01117563
0.002121267
0.01118363
0.0008240918
0.000905539
0.0009399453
0.0009497983
0.0009521088
0.003991728
0.005953939
0.01124872
0.01124035
0.0112783
0.01126356
0.01125676
0.0112544
0.0009862039
0.01107938
0.01119395
0.01119681
0.01119522
0.01119546
0.01119576
0.001020391
0.01114528
0.01119439
0.01119101
0.01119553
0.01119218
0.01119286
0.001032323
0.01114104
0.01119065
0.01119123
0.01119157
0.0111922
0.01119229
0.001034863
0.0111463
0.01119324
0.01119246
0.01119382
0.01119344
0.01119344
0.001035408
0.01114115
0.011192
0.01119202
0.01119298
0.01119289
0.01119311
0.001035016
0.01113966
0.01119202
0.01119248
0.01119305
0.0111933
0.0111936
0.001034259
0.01113631
0.01119161
0.01119228
0.0111928
0.01119317
0.01119353
0.0010329
0.01113501
0.01119158
0.01119239
0.01119295
0.01119348
0.01119397
0.001029777
0.01113217
0.01119137
0.01119238
0.01119304
0.0111938
0.01119452
0.01118437
0.01118385
0.01118387
0.01118389
0.01118393
0.01118397
0.002052217
0.01118379
0.0111838
0.01118382
0.01118386
0.01118389
0.01118394
0.0009749997
0.01118124
0.0111838
0.01118383
0.01118387
0.01118391
0.01118396
0.0009903905
0.01118127
0.0111838
0.01118383
0.01118387
0.01118392
0.01118397
0.0009960065
0.01118127
0.01118379
0.01118383
0.01118387
0.01118392
0.01118398
0.0009969311
0.01118126
0.01118378
0.01118382
0.01118386
0.01118392
0.01118398
0.0009966886
0.01118124
0.01118376
0.01118381
0.01118385
0.01118391
0.01118397
0.0009967559
0.01118122
0.01118374
0.01118379
0.01118384
0.01118389
0.01118396
0.0009963794
0.0111812
0.01118372
0.01118376
0.01118381
0.01118387
0.01118394
0.0009940611
0.01118117
0.01118369
0.01118373
0.01118378
0.01118384
0.01118391
0.0009865683
0.01118114
0.01118364
0.01118369
0.01118375
0.0111838
0.01118387
0.0009682163
0.01118106
0.01117631
0.01117625
0.01117559
0.01117521
0.01117472
0.002102546
0.01118364
0.0007678256
0.0008243658
0.0008434914
0.0008484864
0.0008493652
0.003961291
0.005952156
0.01124409
0.01123279
0.01126753
0.01124465
0.01124728
0.01124863
0.0009720759
0.01109426
0.01119365
0.01119361
0.01119398
0.01119349
0.01119413
0.0009937714
0.01115271
0.01119129
0.01119302
0.01119313
0.01119248
0.01119254
0.001001929
0.01113743
0.01119112
0.01119163
0.01119209
0.01119191
0.01119251
0.001003463
0.01114681
0.01119244
0.01119294
0.01119336
0.01119361
0.01119334
0.001003595
0.01114039
0.01119151
0.01119241
0.01119271
0.011193
0.01119302
0.001003147
0.01113905
0.01119182
0.01119257
0.01119301
0.01119334
0.0111936
0.001002592
0.01113564
0.01119155
0.01119234
0.01119279
0.01119319
0.01119352
0.001001562
0.0111338
0.01119156
0.01119243
0.01119294
0.01119348
0.01119397
0.0009994374
0.011131
0.01119141
0.01119244
0.01119312
0.01119384
0.01119452
0.01118432
0.01118442
0.01118449
0.01118455
0.01118463
0.01118472
0.002038411
0.01118129
0.01118134
0.01118138
0.01118141
0.01118145
0.0111815
0.00208575
0.01118131
0.01118142
0.01118146
0.0111815
0.01118154
0.01118159
0.002151846
0.01118131
0.01118142
0.01118146
0.0111815
0.01118154
0.0111816
0.002161218
0.0111813
0.01118142
0.01118146
0.01118149
0.01118154
0.0111816
0.002160907
0.01118129
0.0111814
0.01118144
0.01118148
0.01118153
0.01118159
0.002151965
0.01118128
0.01118139
0.01118143
0.01118147
0.01118152
0.01118158
0.002154816
0.01118125
0.01118137
0.01118142
0.01118146
0.0111815
0.01118155
0.002161924
0.01118123
0.01118135
0.0111814
0.01118143
0.01118143
0.01118148
0.002156405
0.0111812
0.01118133
0.01118136
0.01118137
0.01118138
0.01118144
0.002147982
0.01118117
0.0111813
0.01118105
0.01118104
0.01118102
0.01118103
0.002123902
0.0111811
0.01118077
0.01118072
0.0111807
0.01118073
0.01118076
0.002075455
0.01118366
0.01117618
0.01117751
0.01117663
0.01117633
0.01117576
0.003772137
0.006012647
0.006110889
0.006190137
0.006205638
0.006211026
0.005916637
0.0112357
0.01123794
0.0112546
0.01127637
0.01127609
0.01129173
0.002108957
0.01115538
0.01110853
0.01109999
0.01110319
0.01110675
0.01111133
0.002179009
0.01118743
0.01118161
0.01118107
0.01118159
0.01118324
0.01118285
0.002203894
0.01118034
0.01117782
0.0111802
0.01118088
0.01118204
0.01118188
0.002203179
0.01118735
0.01118811
0.01119011
0.01118979
0.01119054
0.01118984
0.002199019
0.01118545
0.01118574
0.01118876
0.01118853
0.01118981
0.01118978
0.002194283
0.01118498
0.01118651
0.01118962
0.01119008
0.01119092
0.01119123
0.002192293
0.01118407
0.01118563
0.0111891
0.01118977
0.01119078
0.01119117
0.002188165
0.01118368
0.01118565
0.01118933
0.01119052
0.01119109
0.0111916
0.002179445
0.01118333
0.01118564
0.01118955
0.01119055
0.01119134
0.0111921
0.01118581
0.0111859
0.01118598
0.0111861
0.01118626
0.01118645
0.004518234
0.0009362724
0.0009568769
0.0009636443
0.0009652472
0.0009656547
0.0009657367
0.00463212
0.0009568559
0.0009976919
0.001010544
0.001013931
0.001014845
0.001015088
0.004638796
0.0009636151
0.001010553
0.001026864
0.001031395
0.001032685
0.00103305
0.004639761
0.0009652151
0.001013965
0.001031429
0.001036518
0.001038029
0.001038471
0.004636887
0.000965748
0.001014924
0.00103276
0.001038062
0.00103968
0.001040162
0.004484343
0.0009663363
0.001015117
0.001033011
0.001038349
0.001039993
0.001040487
0.004479606
0.0009657558
0.001014762
0.001032522
0.00103778
0.001039387
0.001039872
0.004627491
0.0009652336
0.001013594
0.001030872
0.001035872
0.00103736
0.001037807
0.002088293
0.0009637044
0.001009847
0.001025824
0.001030201
0.001031454
0.001031831
0.004473673
0.0009568751
0.0009966258
0.001008974
0.001012134
0.001013035
0.00101333
0.004462926
0.0009356771
0.0009568936
0.0009626366
0.0009640924
0.0009646507
0.000965021
0.004274815
0.01117443
0.01117447
0.0111749
0.01117505
0.01117514
0.01117526
0.003779575
0.003695083
0.003696763
0.003701837
0.003704192
0.003711579
0.005937871
0.01095739
0.01100642
0.01103219
0.01104514
0.01105239
0.01107496
0.004870653
0.0009433016
0.0009655997
0.0009723606
0.0009740018
0.0009744795
0.0009748241
0.004384667
0.0009641574
0.001005123
0.001017992
0.001021414
0.00102241
0.001022923
0.004875534
0.0009705241
0.001018187
0.001034635
0.001039398
0.00104088
0.001041547
0.004876166
0.0009715427
0.001021086
0.001038868
0.001044229
0.001045994
0.001046778
0.004846105
0.0009718202
0.001021812
0.001040084
0.001045788
0.001047788
0.001048685
0.004731258
0.000971226
0.001021455
0.001039931
0.001045781
0.001047904
0.001048895
0.004809336
0.0009703915
0.001020741
0.001039291
0.0010452
0.001047405
0.001048497
0.004787151
0.0009694984
0.001019597
0.001037953
0.001043727
0.001045924
0.001047143
0.004762317
0.0009681966
0.001017379
0.001034865
0.001040072
0.001042062
0.001043499
0.004534002
0.001974834
0.01118601
0.004696758
0.01117886
0.00210136
0.002036771
0.002178699
0.01117949
0.01117982
0.01108513
0.01108563
0.002159074
0.002233363
0.002258351
0.01117952
0.0111798
0.01108162
0.01108099
0.002159199
0.002267306
0.002271332
0.01117979
0.01117979
0.01107601
0.01107612
0.002160913
0.002272992
0.002273685
0.01117979
0.01117979
0.01107062
0.01107108
0.002161295
0.00227414
0.002274273
0.01117978
0.01117978
0.01106403
0.01106427
0.002274511
0.01117977
0.01105558
0.001932334
0.001971798
0.004519363
0.01116157
0.00463011
0.01117254
0.001981335
0.001986546
0.004632235
0.01116456
0.004638338
0.01117268
0.001987714
0.001988104
0.004638888
0.01116158
0.004639887
0.01117262
0.001988227
0.001988143
0.004639843
0.0111614
0.004639177
0.01117297
0.001988153
0.001988015
0.00463906
0.0111606
0.004637981
0.01117316
0.001987983
0.001987813
0.004637815
0.01116037
0.004636495
0.01117326
0.001987761
0.001987546
0.004636286
0.01116025
0.004634759
0.0111717
0.001987473
0.001987163
0.00463454
0.01116026
0.004632824
0.01117026
0.001986983
0.001986009
0.004632578
0.01116069
0.004630394
0.01116901
0.001984763
0.001977917
0.004629989
0.01116104
0.00462575
0.01116723
0.001965728
0.001913115
0.004624223
0.01116162
0.004600276
0.01116537
0.00191851
0.003889418
0.00458482
0.01117877
0.005635652
0.01117855
0.008484622
0.004212798
0.003961481
0.01152344
0.008501172
0.004227045
0.004236143
0.003768783
0.003669766
0.01161915
0.01158262
0.008510239
0.004235659
0.004222964
0.003676291
0.003693693
0.01152633
0.01151189
0.008519411
0.004237542
0.004222217
0.00369583
0.003700826
0.01144478
0.01143668
0.008529082
0.004246904
0.00422468
0.003701608
0.003703463
0.01145871
0.011453
0.008539347
0.004255347
0.004228232
0.003703809
0.003705053
0.01147692
0.01149438
0.004263995
0.003705188
0.01150789
0.001859178
0.001981017
0.006029403
0.01108041
0.004861512
0.01118421
0.00196081
0.002006446
0.004906236
0.01113592
0.004888681
0.01118936
0.002015982
0.002022858
0.004901264
0.01117231
0.004888001
0.01111786
0.00202353
0.002021762
0.004900998
0.01115366
0.004869567
0.01118237
0.002020732
0.002018866
0.004876525
0.01115728
0.004851345
0.01117892
0.002017933
0.002015913
0.00485777
0.01115763
0.004830821
0.01118379
0.002014877
0.002012715
0.004834459
0.01115726
0.004809661
0.01118349
0.002011653
0.002009374
0.004811617
0.01115718
0.004787101
0.01118355
0.002008272
0.002005863
0.004787137
0.01115765
0.004763285
0.0111832
0.002004719
0.002002076
0.004762344
0.01115934
0.004737752
0.01118312
0.01118596
0.00450114
0.01118414
0.01118587
0.004595153
0.01118412
0.003767778
0.01159168
0.003666079
0.01151173
0.01118588
0.004596365
0.01118413
0.01118586
0.004601535
0.01118412
0.003671835
0.01165978
0.003687917
0.01142294
0.01118586
0.004602232
0.01118412
0.01118586
0.004603563
0.01118412
0.003689831
0.01150783
0.00369363
0.01141966
0.01118586
0.004604488
0.01118412
0.01118586
0.004603911
0.01118412
0.003694126
0.0115002
0.003694687
0.01147424
0.01118586
0.004604528
0.01118412
0.01118586
0.004603534
0.01118412
0.00369469
0.01142572
0.003694129
0.01149718
0.01118586
0.004604057
0.01118412
0.01118587
0.00460265
0.01118412
0.003693628
0.01142367
0.003689835
0.01150615
0.01118587
0.004601369
0.01118413
0.01118589
0.004595715
0.01118413
0.003687944
0.01142389
0.003671909
0.01165471
0.01118592
0.00459468
0.01118413
0.01118591
0.004500794
0.01118414
0.003666251
0.01152385
0.003768669
0.01159502
0.01118605
0.004695089
0.01117917
0.001901532
0.01118589
0.01108351
0.01108332
0.001913261
0.00196712
0.01118593
0.0110807
0.01108089
0.001979749
0.001986243
0.01118603
0.01107719
0.0110771
0.001987725
0.0019884
0.01118617
0.01107209
0.011072
0.001988731
0.001988788
0.01118635
0.01106552
0.01106549
0.001988997
0.001988979
0.01105749
0.001989182
0.01116351
0.004638203
0.01117262
0.001979558
0.001986011
0.01116178
0.004639826
0.0111726
0.001987424
0.001987985
0.01116068
0.004574934
0.01117312
0.001988059
0.001987803
0.01116033
0.004316764
0.01117279
0.001986555
0.001986168
0.0111787
0.005423437
0.0111785
0.001924789
0.003912311
0.003965884
0.01152821
0.008562891
0.004215993
0.003703744
0.01143564
0.0114639
0.008520709
0.008529531
0.003580754
0.004220869
0.003708581
0.0114962
0.01155391
0.008530604
0.008610273
0.004244961
0.003489257
0.01150022
0.008745045
0.003542345
0.01116848
0.003849017
0.01115751
0.003957093
0.01113514
0.003967129
0.01115849
0.003984904
0.01113349
0.003993283
0.01115717
0.003987544
0.01113173
0.003994132
0.01115757
0.00398693
0.01113326
0.003993736
0.01115675
0.003986244
0.01113384
0.003993099
0.01115648
0.00398536
0.01113547
0.003992315
0.01115628
0.003984344
0.01113756
0.003991429
0.01115606
0.003983219
0.01113986
0.003990441
0.01115597
0.003981995
0.01114238
0.003989352
0.01115586
0.003980552
0.01114515
0.003987484
0.01115598
0.00397388
0.01114865
0.00396598
0.01115716
0.003921881
0.01115343
0.003838089
0.001998281
0.003910463
0.00392669
0.01117418
0.01117376
0.01117877
0.01117808
0.002020807
0.003928435
0.003930535
0.01117455
0.01117369
0.01117904
0.01117769
0.002023449
0.00393084
0.003932185
0.01117493
0.0111737
0.01117894
0.01117732
0.002024073
0.003932399
0.003933823
0.01117505
0.01117349
0.01117887
0.01117693
0.002024462
0.003933953
0.003935485
0.01117514
0.01117328
0.01117878
0.01117649
0.003935541
0.01117525
0.01117862
0.008395819
0.003499625
0.008495524
0.003729821
0.003727934
0.00850446
0.003729656
0.0037302
0.008513008
0.00373266
0.003732608
0.008522004
0.003734409
0.003734141
0.008531439
0.003735825
0.003735447
0.008541426
0.00373718
0.003736706
0.0111746
0.003987602
0.01126276
0.004107597
0.001910807
0.002021826
0.002094309
0.01094756
0.01101089
0.01117431
0.01118718
0.001920696
0.002113963
0.002121352
0.01098686
0.01099733
0.0111856
0.01117782
0.001920375
0.002126304
0.002126055
0.01100661
0.0110613
0.01118094
0.01118236
0.001921152
0.00212883
0.002127458
0.01101145
0.01106136
0.01117929
0.01118159
0.001922337
0.002130256
0.002128295
0.01102404
0.01106283
0.01117911
0.01118181
0.002131324
0.01102892
0.01117942
0.0111828
0.004157705
0.01110945
0.004148087
0.01115389
0.004163173
0.01111888
0.00416025
0.01115812
0.004164252
0.01110865
0.004154074
0.01116056
0.004146946
0.01111476
0.004139152
0.0111603
0.004133515
0.01111487
0.004125484
0.01115947
0.004118221
0.0111138
0.004110692
0.0111589
0.004102681
0.01111283
0.004095345
0.01115822
0.004086299
0.01111363
0.004079527
0.01115905
0.0040692
0.01111667
0.004063232
0.0111703
0.01117012
0.0111786
0.005556662
0.01117796
0.002083159
0.01117881
0.005556308
0.01117801
0.003642665
0.00363908
0.01127273
0.002060123
0.01121575
0.00591235
0.01128548
0.002110762
0.01120423
0.01117054
0.01116999
0.01117437
0.005557675
0.01117791
0.002103002
0.01117454
0.005564566
0.01117804
0.003637554
0.003638055
0.01128344
0.002077742
0.01120325
0.00595233
0.01125026
0.002128196
0.0112009
0.01116996
0.01117022
0.01117467
0.005566113
0.01117806
0.002121306
0.01117468
0.005567227
0.01117807
0.003638938
0.003639121
0.01128676
0.002140462
0.01120087
0.005952836
0.01125585
0.002147514
0.01119792
0.01117007
0.01116985
0.0111747
0.00556731
0.0111781
0.002123166
0.0111747
0.005567417
0.01117811
0.003639396
0.003639429
0.01129285
0.002148784
0.0112007
0.005941153
0.01126971
0.002149251
0.01120061
0.01116964
0.01117005
0.0111747
0.005567405
0.01117811
0.002122501
0.0111747
0.0055673
0.0111781
0.003639466
0.003639443
0.01125324
0.002149593
0.01119912
0.0059424
0.0112894
0.002148751
0.01120033
0.01117019
0.01117024
0.01117468
0.005567223
0.01117807
0.002114618
0.01117467
0.005566073
0.01117806
0.003639346
0.003639229
0.01125413
0.002147556
0.0111971
0.005938457
0.01128624
0.002140407
0.01120166
0.01117033
0.01117025
0.01117453
0.005564479
0.01117805
0.002052732
0.01117437
0.005556147
0.01117792
0.003638721
0.003638391
0.01125048
0.002127975
0.01120106
0.005913571
0.01128423
0.002076965
0.01120333
0.01117019
0.0111697
0.0111788
0.00555166
0.01117801
0.001997997
0.01117852
0.005446067
0.01117794
0.003637184
0.003637046
0.01128716
0.002108309
0.01120416
0.00589041
0.01127293
0.002051933
0.01121596
0.01117335
0.01117015
0.01116325
0.004629726
0.01117274
0.001912971
0.001967032
0.01116123
0.004638457
0.01117292
0.001988154
0.001988089
0.01115998
0.004625782
0.01117161
0.001987446
0.001987541
0.01116012
0.004571918
0.01116973
0.001988476
0.001995504
0.01115661
0.004547354
0.01116875
0.002002525
0.001994089
0.01116076
0.004306843
0.01116675
0.001984339
0.00197635
0.01116147
0.004444515
0.0111653
0.001965899
0.001916421
0.01117351
0.01117888
0.01117697
0.002023696
0.002024138
0.00393306
0.003934564
0.01117342
0.01117863
0.01117649
0.002024389
0.002025837
0.003934905
0.003954556
0.01117857
0.002028076
0.004021361
0.003638566
0.003598435
0.003696959
0.0115978
0.01153222
0.008710252
0.003953045
0.004228112
0.003805992
0.003695815
0.01144855
0.01143637
0.003816972
0.008514818
0.003658811
0.003557595
0.003701021
0.01145954
0.01148594
0.008512672
0.008519727
0.003791861
0.003806444
0.01107919
0.004813066
0.01118511
0.001867559
0.00198761
0.01108455
0.01117898
0.01118167
0.001922463
0.001920213
0.002126956
0.002126665
0.01109873
0.01117798
0.01118345
0.001924077
0.001921461
0.002127799
0.002125941
0.01117401
0.001921721
0.002128712
0.0111442
0.004540209
0.01118879
0.001961472
0.002005283
0.01117038
0.004815798
0.01112124
0.002014731
0.00202266
0.01115502
0.004868557
0.01118242
0.002023352
0.002021695
0.01115701
0.004845135
0.01117843
0.002020697
0.002019029
0.01115459
0.004695639
0.0111834
0.002021094
0.002028276
0.01116427
0.004802847
0.01118435
0.002022845
0.002013583
0.01115717
0.004787101
0.01118344
0.002011633
0.002009333
0.01115758
0.004763254
0.01118318
0.002008257
0.002005847
0.01115923
0.004737712
0.01118309
0.002004694
0.002002054
0.01114788
0.003947857
0.01115394
0.003861606
0.01117301
0.01116983
0.0111579
0.00398189
0.0111545
0.003975698
0.01116118
0.003987109
0.01115424
0.003994081
0.01116082
0.003986808
0.01115486
0.003994251
0.01115986
0.003986185
0.01115554
0.003993774
0.01115914
0.00398534
0.01115637
0.003993087
0.01115851
0.003984353
0.0111573
0.003992288
0.01115798
0.003983227
0.01115825
0.003991382
0.01115752
0.003982003
0.01115929
0.003990389
0.01115715
0.003980632
0.01116033
0.003989249
0.01115637
0.003975999
0.01116139
0.003986871
0.01115482
0.003935778
0.01115973
0.003956519
0.01117085
0.003747158
0.01115804
0.003882726
0.008440476
0.003726487
0.003684273
0.004001657
0.01145866
0.004081453
0.01160744
0.01146624
0.003641519
0.003601134
0.01147678
0.01137728
0.008496791
0.003728684
0.00372726
0.004238953
0.01145273
0.01142994
0.004237175
0.01140396
0.01159963
0.008505319
0.003732172
0.003730933
0.004224294
0.01145306
0.01139323
0.00423333
0.01139834
0.01150406
0.008514071
0.00373409
0.003733089
0.004224483
0.01146539
0.01138947
0.004234905
0.01140393
0.01143174
0.008523365
0.003735517
0.003734544
0.004224815
0.01151519
0.01141457
0.004241325
0.01144516
0.01147351
0.008533038
0.003736879
0.003735872
0.004227789
0.01156581
0.01145897
0.004249324
0.01150258
0.01151875
0.004233074
0.01160873
0.01151085
0.01116831
0.004153541
0.01097669
0.00413037
0.01113942
0.004153462
0.01101984
0.00414354
0.01114652
0.004156283