/*--------------------------------*- C++ -*----------------------------------*\
  =========                 |
  \\      /  F ield         | OpenFOAM: The Open Source CFD Toolbox
   \\    /   O peration     | Website:  https://openfoam.org
    \\  /    A nd           | Version:  7
     \\/     M anipulation  |
\*---------------------------------------------------------------------------*/
FoamFile
{
    version     2.0;
    format      ascii;
    class       volScalarField;
    location    "0.06";
    object      nut;
}
// * * * * * * * * * * * * * * * * * * * * * * * * * * * * * * * * * * * * * //

dimensions      [0 2 -1 0 0 0 0];

internalField   nonuniform List<scalar> 
77308
(
0.0006095505
0.0005780327
0.0005756673
0.000574853
0.0005747075
0.0005747246
0.001320921
0.001275426
0.001261106
0.001257443
0.001256491
0.001256284
0.001306909
0.001248795
0.001230803
0.0012259
0.001224554
0.001224283
0.001300956
0.001238839
0.001218309
0.001212598
0.001210985
0.001210594
0.001299536
0.001236164
0.001214797
0.001208664
0.001206882
0.001206428
0.001299167
0.001235445
0.001213813
0.001207516
0.001205655
0.00120517
0.001299105
0.001235353
0.001213694
0.001207378
0.001205508
0.001205018
0.001299291
0.001235769
0.00121429
0.001208091
0.001206278
0.00120581
0.001299966
0.00123717
0.001216212
0.001210321
0.001208655
0.001208238
0.001302375
0.00124181
0.001222227
0.001217016
0.001215618
0.00121529
0.00131216
0.001258561
0.00124285
0.001238914
0.001237921
0.001237714
0.001342265
0.001312401
0.001303227
0.001301144
0.00130061
0.00130052
0.0006409896
0.0006167908
0.0006140177
0.0006137552
0.0006137549
0.0006138254
0.0001370641
0.0001370645
0.0001371186
0.0001371752
0.0001372348
0.0001372975
0.0006741379
0.0006651822
0.000664142
0.0006641247
0.00066425
0.000664459
0.001343673
0.001313237
0.001303952
0.001301889
0.001301428
0.001301406
0.001315995
0.001262422
0.001246828
0.001242986
0.001242078
0.001241967
0.001306273
0.001245953
0.001226492
0.00122143
0.001220151
0.00121994
0.001303377
0.001240788
0.001219961
0.001214196
0.001212651
0.001212378
0.001302379
0.001239062
0.001217708
0.001211658
0.001210004
0.001209702
0.00130178
0.001238204
0.001216665
0.001210497
0.001208805
0.001208509
0.001301427
0.001237843
0.001216313
0.001210164
0.001208503
0.001208241
0.001301265
0.0012379
0.00121656
0.001210559
0.001208999
0.001208801
0.001301553
0.001238883
0.001218072
0.001212423
0.001211071
0.001210984
0.0001007696
0.0001007694
0.0001007694
0.0001007694
0.0001007695
0.0001007695
0.0006127749
0.0001007952
0.0001007945
0.0001007944
0.0001007944
0.0001007945
0.0001007945
0.0006045667
0.000100795
0.0001007941
0.000100794
0.0001007941
0.0001007941
0.0001007942
0.0006002213
0.0001007949
0.000100794
0.000100794
0.0001007941
0.0001007941
0.0001007942
0.0005992984
0.0001007949
0.000100794
0.000100794
0.0001007941
0.0001007942
0.0001007943
0.0005991403
0.0001007949
0.000100794
0.000100794
0.0001007942
0.0001007942
0.0001007943
0.0005990853
0.0001007949
0.000100794
0.000100794
0.0001007941
0.0001007942
0.0001007943
0.000599059
0.0001007949
0.000100794
0.000100794
0.0001007941
0.0001007942
0.0001007943
0.0005990577
0.0001007949
0.000100794
0.0001007939
0.0001007941
0.0001007947
0.0001007949
0.0005991245
0.0001007948
0.0001007939
0.0001007939
0.0001007944
0.0001007949
0.0001007951
0.0005995249
0.0001007948
0.0001007939
0.0001007968
0.0001007974
0.0001007983
0.0001007989
0.000602814
0.0001007951
0.0001007986
0.0001007998
0.0001008006
0.0001008009
0.0001008014
0.0006106864
0.0001007694
0.0001007694
0.0001007695
0.0001007695
0.0001007695
0.0001007696
0.000321095
0.0003106694
0.0003057959
0.0003042673
0.0003040474
0.0003041187
0.0002266006
0.0001008891
0.0001007008
0.0001006197
0.0001006566
0.0001006161
0.0001005888
0.0006129738
0.0001012124
0.0001016772
0.0001017511
0.0001017304
0.0001017101
0.0001016618
0.0006051915
0.0001008246
0.00010091
0.0001009122
0.0001008858
0.0001008759
0.0001008842
0.0006039595
0.0001008967
0.0001009083
0.0001008881
0.0001008843
0.0001008834
0.000100884
0.00060336
0.0001008346
0.0001008371
0.0001008179
0.0001008202
0.0001008154
0.0001008206
0.0006029094
0.0001008463
0.00010085
0.0001008209
0.0001008235
0.0001008141
0.0001008167
0.000602474
0.0001008498
0.0001008468
0.0001008145
0.0001008147
0.0001008091
0.0001008086
0.0006020499
0.0001008584
0.0001008502
0.0001008169
0.0001008149
0.0001008093
0.0001008088
0.0006016324
0.0001008618
0.0001008516
0.0001008177
0.0001008149
0.0001008114
0.0001008112
0.0001012386
0.000100863
0.0001008498
0.0001008146
0.0001008128
0.0001008134
0.0001008138
0.0001007695
0.0001007692
0.0001007692
0.0001007692
0.0001007692
0.0001007693
0.0006077008
0.0001007693
0.0001007692
0.0001007692
0.0001007692
0.0001007693
0.0001007693
0.001286869
0.0001007956
0.0001007692
0.0001007692
0.0001007692
0.0001007693
0.0001007693
0.001266523
0.0001007953
0.0001007692
0.0001007692
0.0001007692
0.0001007693
0.0001007693
0.00125918
0.0001007952
0.0001007692
0.0001007692
0.0001007693
0.0001007693
0.0001007693
0.001257496
0.0001007952
0.0001007692
0.0001007692
0.0001007693
0.0001007693
0.0001007693
0.001257176
0.0001007952
0.0001007692
0.0001007692
0.0001007693
0.0001007693
0.0001007694
0.001257344
0.0001007952
0.0001007692
0.0001007692
0.0001007693
0.0001007693
0.0001007694
0.001258102
0.0001007951
0.0001007692
0.0001007693
0.0001007693
0.0001007693
0.0001007694
0.001260579
0.000100795
0.0001007692
0.0001007692
0.0001007693
0.0001007693
0.0001007694
0.001269708
0.000100795
0.0001007693
0.0001007693
0.0001007693
0.0001007694
0.0001007694
0.001294034
0.0001007954
0.0001008442
0.0001008453
0.0001008526
0.0001008572
0.0001008628
0.0006039303
0.0001007696
0.001636594
0.001523558
0.001488821
0.001480138
0.00147879
0.0003110689
0.0002267829
0.0001006356
0.0001008045
0.000100917
0.0001008218
0.0001008263
0.000100838
0.001302768
0.000101908
0.0001007937
0.0001007619
0.0001007749
0.0001007692
0.0001007692
0.001274998
0.000101212
0.0001007782
0.0001007817
0.0001007797
0.0001007768
0.0001007758
0.001264834
0.0001013209
0.0001007808
0.0001007775
0.0001007777
0.0001007758
0.0001007766
0.001261631
0.0001012573
0.0001007864
0.0001007832
0.0001007831
0.0001007831
0.0001007807
0.00126047
0.0001013076
0.0001007846
0.0001007826
0.000100782
0.0001007817
0.0001007803
0.001259786
0.000101325
0.0001007871
0.0001007841
0.0001007842
0.0001007838
0.0001007831
0.00125945
0.0001013569
0.0001007878
0.0001007846
0.0001007845
0.0001007843
0.0001007837
0.001259486
0.0001013761
0.0001007895
0.0001007862
0.0001007863
0.0001007864
0.0001007862
0.001260882
0.0001014037
0.0001007908
0.0001007876
0.000100788
0.0001007886
0.0001007891
0.0001007695
0.0001007692
0.0001007692
0.0001007692
0.0001007692
0.0001007693
0.0006036686
0.0001007693
0.0001007692
0.0001007692
0.0001007692
0.0001007693
0.0001007693
0.001267525
0.0001007954
0.0001007692
0.0001007692
0.0001007692
0.0001007693
0.0001007693
0.001232918
0.0001007946
0.0001007692
0.0001007692
0.0001007692
0.0001007693
0.0001007693
0.001221982
0.0001007945
0.0001007692
0.0001007692
0.0001007693
0.0001007693
0.0001007693
0.001219317
0.0001007945
0.0001007692
0.0001007692
0.0001007693
0.0001007693
0.0001007693
0.001218795
0.0001007945
0.0001007692
0.0001007692
0.0001007693
0.0001007693
0.0001007694
0.001219029
0.0001007945
0.0001007692
0.0001007692
0.0001007693
0.0001007693
0.0001007694
0.001220154
0.0001007944
0.0001007692
0.0001007692
0.0001007693
0.0001007693
0.0001007694
0.001223877
0.0001007943
0.0001007692
0.0001007692
0.0001007693
0.0001007693
0.0001007694
0.001237095
0.0001007943
0.0001007692
0.0001007693
0.0001007693
0.0001007694
0.0001007694
0.001276391
0.000100795
0.0001008336
0.0001008349
0.0001008436
0.0001008481
0.0001008534
0.0005863854
0.0001007696
0.001523906
0.001385896
0.001334861
0.001321024
0.001317944
0.0003061484
0.0002266275
0.0001006006
0.000100813
0.0001009305
0.0001008618
0.0001008331
0.0001008213
0.001285549
0.0001020907
0.0001007869
0.000100771
0.000100766
0.0001007675
0.0001007697
0.001242692
0.0001012786
0.0001007901
0.0001007728
0.000100788
0.0001007753
0.0001007765
0.001228384
0.0001013039
0.0001007783
0.0001007764
0.000100776
0.000100777
0.000100776
0.001223815
0.0001012612
0.0001007886
0.0001007819
0.0001007849
0.0001007826
0.000100781
0.001222213
0.0001013019
0.0001007862
0.0001007813
0.000100783
0.0001007814
0.0001007806
0.00122139
0.0001013187
0.0001007876
0.0001007839
0.0001007843
0.0001007837
0.0001007831
0.001221055
0.0001013504
0.0001007879
0.0001007845
0.0001007846
0.0001007842
0.0001007838
0.001221321
0.0001013632
0.0001007895
0.0001007861
0.0001007864
0.0001007864
0.0001007862
0.001223714
0.0001013908
0.0001007906
0.0001007875
0.000100788
0.0001007887
0.0001007891
0.0001007695
0.0001007692
0.0001007692
0.0001007692
0.0001007692
0.0001007693
0.0006027738
0.0001007693
0.0001007692
0.0001007692
0.0001007692
0.0001007693
0.0001007693
0.001260687
0.0001007953
0.0001007692
0.0001007692
0.0001007692
0.0001007693
0.0001007693
0.001222691
0.0001007945
0.0001007692
0.0001007692
0.0001007692
0.0001007693
0.0001007693
0.00120971
0.0001007943
0.0001007692
0.0001007692
0.0001007693
0.0001007693
0.0001007693
0.001206575
0.0001007943
0.0001007692
0.0001007692
0.0001007693
0.0001007693
0.0001007693
0.001205965
0.0001007943
0.0001007692
0.0001007692
0.0001007693
0.0001007693
0.0001007694
0.001206238
0.0001007943
0.0001007692
0.0001007692
0.0001007693
0.0001007693
0.0001007694
0.001207547
0.0001007942
0.0001007692
0.0001007692
0.0001007693
0.0001007693
0.0001007694
0.001211888
0.0001007941
0.0001007692
0.0001007692
0.0001007693
0.0001007693
0.0001007694
0.001227379
0.0001007941
0.0001007692
0.0001007693
0.0001007693
0.0001007694
0.0001007694
0.001270251
0.000100795
0.0001008312
0.0001008318
0.0001008413
0.0001008456
0.0001008511
0.0005841958
0.0001007696
0.001491179
0.001337938
0.001280465
0.001264471
0.001260734
0.0003046035
0.000226605
0.0001006228
0.0001009462
0.0001008489
0.0001008497
0.0001008279
0.0001008173
0.001279294
0.0001022087
0.0001007708
0.0001007676
0.0001007566
0.0001007605
0.0001007597
0.001233058
0.0001013091
0.0001007821
0.0001007874
0.0001007754
0.0001007874
0.0001007754
0.00121638
0.0001013362
0.0001007808
0.0001007751
0.0001007767
0.0001007756
0.0001007768
0.001211179
0.0001012485
0.0001007851
0.0001007867
0.0001007811
0.0001007841
0.0001007803
0.001209387
0.0001012895
0.0001007841
0.000100783
0.0001007812
0.0001007825
0.0001007803
0.001208494
0.0001013057
0.0001007863
0.0001007846
0.0001007841
0.0001007841
0.0001007829
0.001208185
0.0001013375
0.0001007874
0.000100785
0.0001007845
0.0001007844
0.0001007837
0.00120856
0.0001013559
0.0001007893
0.0001007863
0.0001007863
0.0001007865
0.0001007862
0.00121144
0.0001013831
0.0001007905
0.0001007876
0.0001007881
0.0001007888
0.0001007893
0.0001007695
0.0001007692
0.0001007692
0.0001007692
0.0001007692
0.0001007693
0.0006026776
0.0001007693
0.0001007692
0.0001007692
0.0001007692
0.0001007693
0.0001007693
0.001260668
0.0001007953
0.0001007692
0.0001007692
0.0001007692
0.0001007693
0.0001007693
0.001222681
0.0001007945
0.0001007692
0.0001007692
0.0001007692
0.0001007693
0.0001007693
0.001209716
0.0001007943
0.0001007692
0.0001007692
0.0001007693
0.0001007693
0.0001007693
0.0012066
0.0001007943
0.0001007692
0.0001007692
0.0001007693
0.0001007693
0.0001007693
0.001206006
0.0001007943
0.0001007692
0.0001007692
0.0001007693
0.0001007693
0.0001007694
0.001206277
0.0001007943
0.0001007692
0.0001007692
0.0001007693
0.0001007693
0.0001007694
0.00120758
0.0001007942
0.0001007692
0.0001007692
0.0001007693
0.0001007693
0.0001007694
0.001211928
0.0001007941
0.0001007692
0.0001007692
0.0001007693
0.0001007693
0.0001007694
0.001227426
0.0001007941
0.0001007692
0.0001007693
0.0001007693
0.0001007694
0.0001007694
0.001270282
0.000100795
0.0001008311
0.0001008318
0.0001008413
0.0001008456
0.0001008511
0.0005840154
0.0001007696
0.001491171
0.001337931
0.001280462
0.001264467
0.001260726
0.0003044302
0.0002267489
0.00010102
0.0001009446
0.0001008498
0.0001008496
0.0001008285
0.0001008173
0.001279316
0.0001022125
0.0001007708
0.000100767
0.0001007566
0.0001007605
0.0001007599
0.001233092
0.0001013074
0.0001007821
0.0001007876
0.0001007754
0.0001007877
0.0001007753
0.001216404
0.0001013358
0.0001007809
0.0001007751
0.0001007766
0.0001007755
0.0001007768
0.001211194
0.0001012485
0.0001007851
0.0001007867
0.0001007811
0.0001007841
0.0001007804
0.001209404
0.0001012888
0.000100784
0.000100783
0.0001007812
0.0001007825
0.0001007803
0.001208506
0.0001013059
0.0001007863
0.0001007846
0.0001007841
0.0001007841
0.0001007829
0.001208189
0.0001013373
0.0001007874
0.000100785
0.0001007845
0.0001007844
0.0001007837
0.001208559
0.0001013561
0.0001007893
0.0001007863
0.0001007863
0.0001007864
0.0001007862
0.001211433
0.0001013832
0.0001007905
0.0001007877
0.0001007881
0.0001007888
0.0001007892
0.0001007695
0.0001007692
0.0001007692
0.0001007692
0.0001007692
0.0001007693
0.0006029745
0.0001007693
0.0001007692
0.0001007692
0.0001007692
0.0001007693
0.0001007693
0.00126746
0.0001007954
0.0001007692
0.0001007692
0.0001007692
0.0001007693
0.0001007693
0.00123289
0.0001007946
0.0001007692
0.0001007692
0.0001007692
0.0001007693
0.0001007693
0.001222017
0.0001007945
0.0001007692
0.0001007692
0.0001007693
0.0001007693
0.0001007693
0.001219452
0.0001007945
0.0001007692
0.0001007692
0.0001007693
0.0001007693
0.0001007693
0.001219017
0.0001007945
0.0001007692
0.0001007692
0.0001007693
0.0001007693
0.0001007694
0.001219224
0.0001007945
0.0001007692
0.0001007692
0.0001007693
0.0001007693
0.0001007694
0.001220299
0.0001007944
0.0001007692
0.0001007692
0.0001007693
0.0001007693
0.0001007694
0.001224071
0.0001007943
0.0001007692
0.0001007692
0.0001007693
0.0001007693
0.0001007694
0.001237356
0.0001007943
0.0001007692
0.0001007693
0.0001007693
0.0001007694
0.0001007694
0.001276589
0.000100795
0.0001008336
0.0001008348
0.0001008435
0.0001008481
0.0001008534
0.0005845482
0.0001007696
0.001523863
0.00138586
0.001334834
0.001320994
0.001317903
0.0003050438
0.0002268091
0.0001008369
0.0001008113
0.0001009313
0.0001008642
0.0001008327
0.0001008207
0.001285713
0.0001020896
0.0001007869
0.0001007708
0.0001007662
0.0001007674
0.0001007697
0.001242902
0.0001012771
0.0001007907
0.0001007728
0.0001007879
0.0001007752
0.0001007765
0.001228507
0.0001013051
0.0001007784
0.0001007764
0.000100776
0.000100777
0.000100776
0.001223888
0.0001012619
0.0001007887
0.0001007818
0.0001007849
0.0001007826
0.000100781
0.001222287
0.0001013018
0.0001007862
0.0001007813
0.000100783
0.0001007814
0.0001007806
0.00122145
0.0001013189
0.0001007876
0.0001007839
0.0001007843
0.0001007837
0.0001007831
0.00122108
0.0001013502
0.0001007879
0.0001007845
0.0001007846
0.0001007842
0.0001007838
0.001221322
0.0001013633
0.0001007895
0.0001007861
0.0001007864
0.0001007864
0.0001007862
0.001223698
0.0001013909
0.0001007906
0.0001007875
0.000100788
0.0001007886
0.0001007891
0.0001007695
0.0001007692
0.0001007692
0.0001007692
0.0001007693
0.0001007693
0.0006056152
0.0001007693
0.0001007692
0.0001007692
0.0001007692
0.0001007693
0.0001007693
0.001286809
0.0001007957
0.0001007692
0.0001007692
0.0001007692
0.0001007693
0.0001007693
0.00126653
0.0001007953
0.0001007692
0.0001007692
0.0001007693
0.0001007693
0.0001007693
0.001259307
0.0001007952
0.0001007692
0.0001007692
0.0001007693
0.0001007693
0.0001007693
0.001258052
0.0001007952
0.0001007692
0.0001007692
0.0001007693
0.0001007693
0.0001007693
0.001258291
0.0001007952
0.0001007692
0.0001007692
0.0001007693
0.0001007693
0.0001007694
0.00125812
0.0001007952
0.0001007692
0.0001007692
0.0001007693
0.0001007693
0.0001007694
0.001258507
0.0001007951
0.0001007692
0.0001007693
0.0001007693
0.0001007693
0.0001007694
0.001261371
0.000100795
0.0001007692
0.0001007692
0.0001007693
0.0001007693
0.0001007694
0.001270934
0.000100795
0.0001007693
0.0001007693
0.0001007693
0.0001007694
0.0001007694
0.001295104
0.0001007954
0.0001008442
0.0001008452
0.0001008526
0.0001008571
0.0001008627
0.000589859
0.0001007696
0.001636349
0.001523425
0.001488741
0.001480029
0.001478621
0.0003074789
0.00022694
0.0001008353
0.000100804
0.0001009218
0.0001008195
0.0001008281
0.0001008318
0.001303655
0.0001019054
0.0001007928
0.0001007611
0.0001007738
0.0001007685
0.0001007693
0.001276007
0.0001012109
0.0001007782
0.0001007816
0.0001007802
0.000100777
0.0001007758
0.001265252
0.000101323
0.0001007808
0.0001007775
0.0001007776
0.0001007758
0.0001007766
0.001261835
0.0001012581
0.0001007863
0.0001007832
0.0001007834
0.0001007829
0.0001007806
0.001260792
0.0001013099
0.0001007846
0.0001007825
0.0001007821
0.0001007816
0.0001007803
0.001260056
0.0001013255
0.0001007871
0.0001007841
0.0001007842
0.0001007838
0.0001007831
0.001259537
0.000101357
0.0001007878
0.0001007846
0.0001007846
0.0001007843
0.0001007837
0.0012595
0.0001013761
0.0001007895
0.0001007862
0.0001007863
0.0001007864
0.0001007862
0.00126087
0.000101403
0.0001007909
0.0001007877
0.0001007882
0.0001007887
0.000100789
0.0001007695
0.0001007695
0.0001007696
0.0001007696
0.0001007696
0.0001007697
0.0006098139
0.0001007954
0.000100795
0.0001007949
0.0001007949
0.000100795
0.000100795
0.0005957006
0.0001007949
0.0001007941
0.000100794
0.000100794
0.0001007941
0.0001007941
0.000577019
0.0001007949
0.000100794
0.0001007939
0.000100794
0.0001007941
0.0001007941
0.0005744694
0.0001007949
0.000100794
0.000100794
0.0001007941
0.0001007942
0.0001007942
0.0005744686
0.0001007949
0.000100794
0.000100794
0.0001007941
0.0001007942
0.0001007943
0.0005768264
0.0001007948
0.000100794
0.000100794
0.0001007941
0.0001007942
0.0001007943
0.0005759368
0.0001007949
0.000100794
0.000100794
0.0001007941
0.0001007944
0.0001007945
0.0005739007
0.0001007948
0.000100794
0.0001007939
0.0001007942
0.0001007949
0.0001007951
0.0005752829
0.0001007948
0.0001007939
0.000100794
0.0001007945
0.000100795
0.0001007952
0.0005774427
0.0001007947
0.0001007939
0.0001007969
0.0001007975
0.0001007984
0.000100799
0.0005839919
0.0001007951
0.0001007988
0.0001007999
0.0001008007
0.000100801
0.0001008014
0.0005977357
0.0001007694
0.0001008481
0.000100835
0.0001008451
0.0001008493
0.0001008563
0.0003235014
0.0001986017
0.0001953918
0.0001929345
0.0001926167
0.0001926444
0.000226919
0.0001006013
0.0001006116
0.0001007094
0.0001008603
0.0001008707
0.0001009718
0.0006073366
0.0001012055
0.0001016561
0.0001017359
0.0001017196
0.0001016916
0.0001016498
0.0005853603
0.0001008244
0.0001009187
0.0001009182
0.0001008922
0.000100879
0.0001008924
0.0005800415
0.0001008963
0.0001009112
0.0001008903
0.0001008871
0.0001008823
0.0001008867
0.0005784612
0.0001008339
0.0001008381
0.0001008185
0.0001008218
0.0001008134
0.0001008225
0.000578391
0.0001008447
0.0001008506
0.0001008207
0.0001008252
0.0001008144
0.0001008175
0.0005780912
0.0001008515
0.0001008447
0.000100815
0.0001008146
0.0001008091
0.0001008086
0.0005771174
0.000100859
0.0001008498
0.0001008177
0.0001008158
0.0001008093
0.0001008088
0.000576596
0.0001008627
0.0001008505
0.0001008174
0.0001008114
0.0001008113
0.0001008112
0.0005762657
0.0001008646
0.0001008502
0.0001008159
0.0001008129
0.0001008131
0.0001008138
0.0001007706
0.0001007706
0.0001007707
0.0001007707
0.0001007708
0.0001007709
0.000269193
0.001340474
0.001311426
0.001302174
0.001300046
0.001299562
0.001299535
0.0002624442
0.001311395
0.001257312
0.001241223
0.001237094
0.001236041
0.00123583
0.0002620161
0.00130209
0.001241145
0.0012213
0.001215945
0.001214488
0.001214146
0.0002618982
0.001299863
0.00123688
0.001215795
0.001209832
0.001208133
0.001207708
0.0002619837
0.001299084
0.001235645
0.001214163
0.001207969
0.001206155
0.001205689
0.0002711689
0.001298217
0.001235338
0.001213799
0.00120757
0.001205732
0.001205257
0.0002713569
0.001298925
0.0012357
0.001214311
0.001208177
0.001206386
0.001205927
0.0002621683
0.00129955
0.001237055
0.001216197
0.001210355
0.001208704
0.001208295
0.0005943099
0.00130154
0.001241605
0.001222166
0.001217016
0.001215633
0.001215308
0.0002712481
0.001310819
0.001258148
0.001242698
0.001238883
0.001237889
0.001237657
0.000271773
0.001340655
0.001310759
0.001302969
0.001301093
0.001300456
0.001300084
0.0002840575
0.0001008656
0.0001008661
0.0001008627
0.0001008622
0.0001008623
0.0001008623
0.0003228257
0.0003306406
0.0003306568
0.0003303635
0.000330329
0.0003298474
0.0002264144
0.0001038008
0.0001037682
0.0001030653
0.0001029295
0.0001026669
0.0001026019
0.0002716242
0.001343123
0.001313207
0.001303988
0.001301998
0.00130156
0.00130156
0.0002963089
0.001315175
0.001262287
0.001246787
0.001243002
0.001242091
0.001242002
0.0002686781
0.001306137
0.001245898
0.001226467
0.001221444
0.001220158
0.001219963
0.0002668944
0.001303297
0.00124075
0.00121995
0.00121421
0.001212662
0.001212391
0.0002672423
0.001301956
0.001238996
0.001217706
0.001211679
0.001210024
0.001209722
0.0002713175
0.001301463
0.001238161
0.001216686
0.001210544
0.001208854
0.001208555
0.0002656331
0.001301411
0.001237879
0.001216405
0.0012103
0.001208651
0.00120837
0.0002649928
0.001301315
0.001238051
0.001216863
0.00121101
0.001209506
0.001209232
0.0002644765
0.001301754
0.001239549
0.001219412
0.00121439
0.001213277
0.001212929
0.0002682387
0.0006297909
0.0001007712
0.0002586269
0.0001008256
0.0005911372
0.0006102989
0.000569798
0.00010082
0.0001008177
0.0001017879
0.0001017825
0.0005751047
0.0005556007
0.0005493107
0.0001008211
0.0001008186
0.0001018242
0.0001018308
0.0005751262
0.0005471517
0.0005461819
0.0001008193
0.0001008192
0.0001018828
0.0001018818
0.000574724
0.0005458293
0.000545669
0.0001008199
0.0001008198
0.0001019394
0.0001019347
0.0005746988
0.0005456269
0.0005456081
0.0001008208
0.0001008207
0.0001020085
0.0001020063
0.0005456308
0.0001008219
0.0001020972
0.0006437775
0.0006307287
0.0002691366
0.0001010029
0.0002625838
0.0001008907
0.0006276283
0.000625941
0.0002624273
0.000100972
0.0002620661
0.000100889
0.0006255852
0.0006254095
0.0002620137
0.0001010025
0.0002619033
0.0001008892
0.0006253534
0.0006253295
0.0002618953
0.0001010039
0.0002618631
0.0001008852
0.0006253151
0.0006252963
0.0002618584
0.0001010117
0.0002618313
0.0001008826
0.0006252877
0.0006252723
0.0002618268
0.0001010135
0.0002617983
0.0001008809
0.000625268
0.0006252576
0.0002617937
0.0001010142
0.0002617652
0.0001008962
0.0006252599
0.0006252683
0.0002617595
0.0001010133
0.0002617345
0.0001009103
0.0006253077
0.0006255202
0.0002617297
0.0001010081
0.0002617182
0.0001009223
0.0006259061
0.0006280066
0.0002617171
0.000101004
0.0002618162
0.0001009398
0.0006319617
0.0006495512
0.0002618753
0.0001009972
0.0002631426
0.000100958
0.0006476402
0.0003133173
0.0002640446
0.0001008202
0.0002124246
0.0001008216
0.0001371513
0.0003140731
0.0003074362
0.0001013646
0.0001370646
0.0003115393
0.000310152
0.000323783
0.0003329765
0.000102104
0.0001020772
0.000137116
0.0003100427
0.0003096725
0.0003323907
0.0003309202
0.0001017227
0.0001016984
0.0001371691
0.0003100419
0.0003096613
0.0003307439
0.0003304368
0.00010118
0.0001011101
0.0001372275
0.0003102946
0.0003097319
0.0003303851
0.0003303791
0.0001012727
0.0001011883
0.00013729
0.0003105165
0.000309828
0.0003303671
0.0003304302
0.0001013794
0.0001014077
0.0003107411
0.0003304335
0.0001015543
0.0006865238
0.0006465939
0.0002229822
0.0001037131
0.0002701735
0.000101026
0.0006518355
0.0006361221
0.0002697244
0.0001014533
0.0002674157
0.0001009682
0.0006323217
0.0006303953
0.0002675991
0.0001010443
0.0002671199
0.0001015781
0.0006299703
0.0006294389
0.000267397
0.0001012348
0.0002667052
0.0001009509
0.0006292503
0.0006289861
0.0002668563
0.0001011842
0.0002663147
0.0001009414
0.0006288623
0.0006286124
0.0002664591
0.0001011711
0.0002658887
0.0001009029
0.0006284815
0.0006282277
0.0002659723
0.0001011645
0.0002654486
0.0001008945
0.0006280948
0.0006278349
0.0002654973
0.0001011568
0.0002649809
0.000100894
0.0006277036
0.0006274363
0.0002649882
0.0001011455
0.0002644893
0.0001008921
0.0006273114
0.0006270428
0.0002644759
0.0001011319
0.0002639743
0.0001008915
0.0001007706
0.0002702578
0.0001007705
0.0001007706
0.0002645179
0.0001007706
0.0003238307
0.0001020382
0.0003331462
0.0001016382
0.0001007706
0.0002644217
0.0001007706
0.0001007706
0.0002641337
0.0001007706
0.0003325937
0.0001022684
0.0003310825
0.000101119
0.0001007706
0.0002640937
0.0001007706
0.0001007706
0.0002639965
0.0001007706
0.0003309044
0.0001015939
0.0003305481
0.0001010784
0.0001007706
0.0002639413
0.0001007706
0.0001007706
0.0002639942
0.0001007706
0.000330502
0.0001015199
0.0003304488
0.000101282
0.0001007706
0.0002639635
0.0001007706
0.0001007706
0.0002640111
0.0001007706
0.0003304486
0.0001011375
0.0003305016
0.0001015032
0.0001007706
0.0002639728
0.0001007706
0.0001007706
0.0002640487
0.0001007706
0.0003305483
0.0001011023
0.000330904
0.0001015862
0.0001007706
0.0002641313
0.0001007705
0.0001007706
0.0002644608
0.0001007705
0.0003310802
0.0001011241
0.0003325865
0.0001022547
0.0001007709
0.0002645466
0.0001007706
0.0001007706
0.0002702795
0.0001007704
0.0003331303
0.0001016964
0.0003237514
0.0001020456
0.0001007713
0.0002587219
0.0001008222
0.0006544707
0.0001007708
0.0001018047
0.0001018067
0.0006504231
0.0006323107
0.0001007707
0.0001018339
0.000101832
0.000628239
0.000626146
0.0001007707
0.0001018707
0.0001018719
0.00062572
0.0006255025
0.0001007708
0.0001019242
0.0001019253
0.0006254615
0.0006254406
0.000100771
0.000101993
0.0001019936
0.0006254571
0.0006254599
0.0001020773
0.0006254976
0.0001009829
0.0002620722
0.0001008896
0.0006282094
0.0006261089
0.0001010004
0.0002619066
0.0001008894
0.000625678
0.0006254469
0.0001010109
0.0002655746
0.0001008831
0.0006253433
0.0006253608
0.0001010139
0.0002819705
0.0001008857
0.0006257445
0.0006257888
0.0001008209
0.0002212114
0.0001008221
0.0006454877
0.0003114072
0.0003070833
0.0001013932
0.0001357769
0.0003139902
0.0003303524
0.0001011492
0.0001012396
0.0001371684
0.0001372215
0.0003690492
0.0003102084
0.0003301215
0.0001015068
0.0001017447
0.0001372258
0.0001360296
0.0003108166
0.0003758733
0.0001014271
0.0001338026
0.0003778086
0.000100944
0.0003178512
0.0001010578
0.0003088861
0.0001012874
0.0003079399
0.000101047
0.0003066645
0.0001013038
0.0003057979
0.0001010603
0.0003064461
0.0001013214
0.0003056899
0.0001010555
0.0003064344
0.000101305
0.0003056734
0.000101063
0.0003064165
0.000101298
0.0003056532
0.0001010645
0.0003063919
0.00010128
0.0003056307
0.0001010651
0.0003063634
0.0001012571
0.0003056057
0.0001010656
0.0003063315
0.0001012318
0.0003055784
0.0001010648
0.0003062974
0.0001012042
0.0003055503
0.0001010642
0.00030627
0.0001011742
0.0003055753
0.000101061
0.0003066475
0.000101137
0.0003071651
0.0001010473
0.0003107028
0.0001010864
0.0003176742
0.0006214282
0.0003115828
0.0003103798
0.0001008683
0.0001008732
0.0001008198
0.0001008275
0.0006144992
0.0003102548
0.0003102203
0.0001008653
0.000100875
0.0001008181
0.0001008327
0.0006138171
0.0003102215
0.0003102541
0.0001008624
0.0001008759
0.0001008201
0.0001008376
0.0006137666
0.0003102584
0.0003102966
0.0001008622
0.0001008792
0.000100822
0.0001008428
0.0006138003
0.0003102987
0.0003103458
0.0001008623
0.0001008826
0.000100824
0.0001008487
0.0003103489
0.0001008625
0.000100827
0.0001386249
0.000349462
0.000137043
0.0003272546
0.0003274621
0.0001370752
0.0003274179
0.0003273897
0.0001371254
0.0003272943
0.000327306
0.000137179
0.0003272885
0.0003273124
0.0001372356
0.0003273217
0.000327348
0.0001372968
0.0003273711
0.0003273986
0.0001022687
0.000328204
0.0001025157
0.0003175583
0.000668262
0.00063236
0.000610664
0.0001038937
0.0001036002
0.0001011622
0.0001011957
0.0006644185
0.000605868
0.0006032838
0.0001037328
0.0001035612
0.0001012027
0.0001011611
0.0006639401
0.0006030942
0.0006027645
0.0001034679
0.0001030642
0.0001011401
0.0001010699
0.0006639986
0.0006029795
0.0006028306
0.0001031577
0.0001028404
0.0001011117
0.0001010479
0.0006641744
0.0006031119
0.0006029357
0.0001029642
0.0001026898
0.0001010994
0.0001010413
0.0006032786
0.0001028907
0.0001010973
0.0001019998
0.0003147503
0.0001025351
0.0003132539
0.000101469
0.0003118516
0.0001020449
0.0003106088
0.0001017203
0.0003115417
0.0001022237
0.000310315
0.0001015757
0.000311041
0.0001020652
0.0003098772
0.0001015637
0.0003106584
0.000102022
0.0003094851
0.0001015141
0.0003102234
0.000101983
0.0003090601
0.0001014786
0.0003097801
0.0001019367
0.0003086187
0.0001014267
0.0003093113
0.0001018785
0.0003081635
0.0001013768
0.0003088208
0.0001018084
0.0003076945
0.0001009221
0.0001009239
0.000100822
0.0002156143
0.0001008277
0.0005954812
0.0001008195
0.000215627
0.0001008273
0.0003352803
0.0003356254
0.00010088
0.000618288
0.0001008556
0.0002268096
0.0001010141
0.000603828
0.0001007945
0.0001009192
0.0001009249
0.000100866
0.0002155693
0.0001008282
0.0005897289
0.0001008643
0.0002152848
0.000100827
0.000335765
0.0003357184
0.0001009491
0.000612253
0.0001008382
0.0002269402
0.0001008733
0.0005980633
0.0001008722
0.0001009251
0.0001009222
0.0001008629
0.0002152214
0.0001008268
0.0005845375
0.0001008628
0.0002151759
0.0001008267
0.0003356302
0.0003356134
0.0001009898
0.0005947228
0.0001008131
0.0002267927
0.000100907
0.000592916
0.000100865
0.000100924
0.0001009262
0.0001008626
0.0002151721
0.0001008264
0.0005840143
0.0001008626
0.0002151682
0.0001008263
0.000335586
0.0003355834
0.0001010419
0.0005925792
0.0001008239
0.0002266072
0.000100946
0.0005923868
0.000100846
0.0001009283
0.000100924
0.0001008626
0.0002151686
0.0001008263
0.000584201
0.0001008626
0.0002151725
0.0001008264
0.0003355799
0.0003355818
0.0001008691
0.0005924263
0.0001008668
0.0002266171
0.0001010283
0.0005925796
0.0001008223
0.0001009227
0.0001009222
0.0001008628
0.0002151758
0.0001008267
0.0005864246
0.0001008629
0.0002152229
0.0001008268
0.0003355912
0.0003356018
0.0001008965
0.0005929328
0.0001008754
0.0002266268
0.0001009869
0.0005947491
0.0001008158
0.0001009213
0.0001009222
0.0001008643
0.0002152882
0.0001008269
0.0006044594
0.0001008661
0.0002156318
0.0001008282
0.0003356524
0.0003356833
0.0001008748
0.0005981262
0.0001008724
0.0002267817
0.000100952
0.0006124714
0.000100837
0.0001009234
0.0001009284
0.0001008196
0.0002158176
0.0001008273
0.0006213424
0.0001008229
0.0002202403
0.0001008279
0.000335805