/*--------------------------------*- C++ -*----------------------------------*\
  =========                 |
  \\      /  F ield         | OpenFOAM: The Open Source CFD Toolbox
   \\    /   O peration     | Website:  https://openfoam.org
    \\  /    A nd           | Version:  7
     \\/     M anipulation  |
\*---------------------------------------------------------------------------*/
FoamFile
{
    version     2.0;
    format      ascii;
    class       surfaceScalarField;
    location    "0.06";
    object      phi;
}
// * * * * * * * * * * * * * * * * * * * * * * * * * * * * * * * * * * * * * //

dimensions      [0 3 -1 0 0 0 0];

internalField   nonuniform List<scalar> 
228133
(
3.101951e-05
-1.687133e-05
-0.0004415625
-3.929358e-05
-1.296247e-05
3.442448e-05
3.342996e-06
1.489155e-05
-9.952435e-06
-0.0004317461
-8.956079e-05
5.633913e-06
-4.972349e-06
-0.0004372428
-0.0001049128
5.531166e-06
-5.849142e-06
-0.0004639103
-0.0001115112
7.160959e-06
-7.716998e-06
-0.0004924662
-0.0001182587
8.718201e-06
-0.0005296836
-0.0001270897
-9.022118e-06
-9.964446e-05
-0.001791916
-4.8554e-05
0.0004263184
0.0004196835
0.0005287505
0.0005211554
8.445225e-05
-8.729512e-05
7.901265e-05
-3.196291e-05
-0.0001312268
-0.00187238
-2.628762e-05
0.0004386844
0.000425601
0.0005357452
0.0005302191
-0.0001661298
-0.001961167
-3.945013e-05
0.0004528777
0.0004553076
0.0005659418
0.0005613934
-0.0001999134
-0.002075329
-4.282029e-05
0.000485536
0.0004801764
0.0005980143
0.0005882061
-0.0002490804
-0.002190914
-4.85091e-05
0.0005153943
0.0005127953
0.00063334
0.0006270608
-0.002368126
-5.073733e-05
0.00055718
0.000684525
-0.0002922495
0.0005474485
0.0006728788
-7.771009e-05
-0.001702493
-2.290064e-05
0.0001015487
-9.537526e-05
5.519168e-05
-5.017741e-05
-0.000154997
-0.001727065
-6.802765e-05
-0.0002326054
-0.001810059
-7.349949e-05
-0.000309319
-0.001909906
-8.870891e-05
-0.0003820386
-0.00202596
-9.223432e-05
-0.00218179
-0.0001025223
-0.0004658513
-0.0001674321
-0.001624045
-8.274292e-06
0.0001178839
-7.296923e-05
7.757324e-05
-2.522975e-05
-0.0002408549
-0.001648125
-5.517464e-06
-0.000328913
-0.001711839
-1.016109e-05
-0.0004256026
-0.001797736
-1.547946e-05
-0.0005245466
-0.00191183
-1.518563e-05
-0.002052903
-1.961437e-05
-0.0006338192
-0.0002066462
-0.001512269
-1.473992e-05
0.0001171581
-6.434137e-05
7.72692e-05
-2.047631e-05
-0.0003058028
-0.001528791
-2.01771e-05
-0.0004182031
-0.001583504
-1.593476e-05
-0.0005355502
-0.001661072
-1.93164e-05
-0.000661686
-0.001764959
-2.073432e-05
-0.00189593
-2.203439e-05
-0.0007966239
-0.0002551225
-0.001386186
-1.134968e-05
0.0001173028
-5.091018e-05
8.254924e-05
-8.552755e-06
-0.0003734787
-0.001399907
-1.052757e-05
-0.000505319
-0.001448
-3.663862e-06
-0.0006447689
-0.001516914
-4.7085e-06
-0.0007943744
-0.001612078
-3.275207e-06
-0.00173051
-4.142765e-06
-0.0009556519
-0.0002932665
-0.001236804
-1.459151e-05
0.0001134318
-3.824441e-05
8.330438e-05
-1.512024e-08
-0.0004301229
-0.001248664
-1.438655e-05
-0.0005824349
-0.001290576
-5.111666e-06
-0.0007423394
-0.001351763
-5.246021e-06
-0.0009145652
-0.001436145
-3.707226e-06
-0.001541787
-3.854279e-06
-0.001099433
-0.0003288302
-0.001071012
-1.57439e-05
0.0001089003
-2.4706e-05
8.393927e-05
1.064843e-05
-0.0004822614
-0.001081836
-1.339735e-05
-0.0006521734
-0.001117527
-3.136433e-06
-0.0008310193
-0.001170391
-2.525506e-06
-0.001023234
-0.001243507
-4.234515e-07
-0.001334753
-3.990261e-07
-0.001229869
-0.0003598375
-0.0008915366
-1.627633e-05
0.0001029407
-1.124025e-05
8.375142e-05
2.11859e-05
-0.0005277007
-0.0009004381
-1.353451e-05
-0.0007138285
-0.0009301028
-1.296828e-06
-0.0009094262
-0.0009747128
-8.087877e-08
-0.001119847
-0.001035635
2.549227e-06
-0.001112007
3.113442e-06
-0.001345706
-0.0003840682
-0.0006995908
-1.693494e-05
9.551224e-05
2.899444e-06
8.086595e-05
2.977936e-05
-0.0005665161
-0.0007069001
-1.109014e-05
-0.0007663253
-0.0007309599
6.662706e-07
-0.0009773475
-0.0007662577
2.567215e-06
-0.001203731
-0.0008140197
4.767546e-06
-0.0008743615
5.217924e-06
-0.001446594
-0.000408377
-0.0005057748
-9.913211e-06
8.736207e-05
1.962486e-05
7.759558e-05
3.989143e-05
-0.0005978123
-0.0005166693
-7.955391e-07
-0.000811276
-0.000532834
1.533786e-05
-0.001034709
-0.0005604457
1.762084e-05
-0.001274238
-0.0005965667
2.207651e-05
-0.0006417302
2.445584e-05
-0.001531325
-0.0004225835
-6.17981e-05
-4.19985e-06
7.922874e-05
3.776022e-05
7.380871e-05
5.038225e-05
-9.460947e-05
-7.484246e-05
-8.892141e-05
-0.0006249439
-5.270411e-05
1.928448e-05
-0.0001098563
-7.599693e-05
-9.503605e-05
-0.0008464274
-4.034115e-05
2.56088e-05
-0.0001244587
-7.271031e-05
-9.944906e-05
-0.001079166
-3.054019e-05
2.849752e-05
-0.0001422112
-7.423242e-05
-0.0001092203
-0.001328629
-2.128903e-05
2.980321e-05
-0.0001612278
-7.549923e-05
-0.0001188917
-1.308824e-05
3.181579e-05
-7.923051e-05
-0.001596123
-0.0001829312
-0.0001308016
5.682075e-05
-7.79388e-05
1.559821e-06
-7.4072e-06
-1.076786e-05
-1.19418e-05
-1.212293e-05
0.0001231006
-0.0001396978
1.984345e-06
-1.145327e-05
-3.871315e-06
-9.139943e-06
-1.362667e-05
0.000192541
-0.000202005
9.277132e-07
-1.0807e-05
4.533696e-07
-6.890026e-06
-1.456129e-05
0.0002591509
-0.0002608583
3.587576e-08
-1.090286e-05
4.135306e-06
-5.510433e-06
-1.659063e-05
0.000330201
-0.0003266561
-2.631029e-07
-1.043985e-05
8.118684e-06
-3.798685e-06
-1.845099e-05
0.0004068992
-1.423924e-07
-1.066745e-05
1.176615e-05
-2.401525e-06
-2.090697e-05
-0.0003976353
4.333882e-06
-1.191027e-07
-3.773691e-06
-1.987128e-07
-2.423701e-07
9.183487e-06
-1.046702e-06
-7.539337e-06
-1.530617e-08
-5.821434e-07
1.399068e-05
-1.950421e-06
-1.125319e-05
1.779778e-07
-9.650539e-07
1.906419e-05
-2.902363e-06
-1.522514e-05
2.284739e-07
-1.165145e-06
2.432364e-05
-3.90813e-06
-1.938969e-05
4.48422e-07
-1.47424e-06
2.989776e-05
-4.91357e-06
-2.382834e-05
6.924527e-07
-1.848288e-06
-0.002483988
-0.0003976106
0.0006200877
0.008928721
0.001526135
-0.002440275
-0.002897017
-0.002856054
-0.002446266
-0.0009948884
0.001229211
0.008902815
0.00141648
-0.002377767
-0.002878822
-0.002850763
-0.002436384
-0.001408654
0.001555451
0.008922164
0.0013958
-0.00234703
-0.002843436
-0.002837913
-0.002455173
-0.001853349
0.002024994
0.008964885
0.001313259
-0.002325962
-0.002842217
-0.00282644
-0.002462441
-0.002342328
0.002530399
0.0090312
0.001214392
-0.002309534
-0.002840333
-0.002821359
-0.002474703
-0.002856333
0.00909262
0.001173771
-0.002302814
-0.002842817
-0.002822018
0.003032291
0.006124378
0.03213258
0.001839079
-0.001746609
0.0004518575
-0.001664752
-0.0009392379
-0.008024884
-0.008103401
-0.009904025
-0.01016498
0.007614843
0.03259962
0.00414895
-0.008590226
-0.008160388
-0.01066873
-0.01081969
0.009098392
0.03248347
0.00438627
-0.008756176
-0.008318343
-0.01073387
-0.01054491
0.01084927
0.03221901
0.004193156
-0.008869512
-0.008286667
-0.01060867
-0.0103982
0.01266988
0.03205582
0.004238719
-0.009011519
-0.008266158
-0.01052485
-0.01031262
0.03217802
0.00388804
-0.009114707
-0.01050408
0.01464577
-0.008205528
-0.01021764
0.003274128
0.02944372
-5.604931e-05
-0.001395816
0.001213081
-0.0006314849
0.0002849988
0.006091695
0.02923029
0.000551756
0.008459211
0.02945432
0.000661643
0.01059919
0.02955406
0.0005249699
0.01265858
0.02955178
0.0004446527
0.02974582
0.000494616
0.01459616
0.004811301
0.02707893
0.0005190842
-0.00186419
0.0005266155
-0.001140561
-0.0004874548
0.006654882
0.02678765
0.0005990605
0.008782038
0.02685303
0.0004741273
0.01086637
0.02704016
0.000429563
0.01289139
0.0271179
0.0004088552
0.02739313
0.0004128206
0.01483126
0.004377346
0.02475336
9.529051e-05
-0.001595957
0.0005631709
-0.0009399945
-0.0001742885
0.006551084
0.02449294
0.0001209737
0.008748647
0.02461587
3.960088e-05
0.01097373
0.02475098
6.410333e-05
0.01314348
0.02491309
3.505543e-05
0.02529555
8.867355e-05
0.01515239
0.004850038
0.02242028
0.0001067034
-0.001592914
0.0004191524
-0.001063217
-0.0003866856
0.006970288
0.02216983
0.0002028679
0.009282043
0.02224359
6.052593e-05
0.01150022
0.02243574
9.706492e-05
0.01363464
0.02274898
2.969304e-05
0.02320854
6.694472e-05
0.0156547
0.004874688
0.01995186
0.0001270071
-0.001499296
0.0003352001
-0.00102302
-0.0003461631
0.007129444
0.01974065
0.0001744204
0.009500562
0.0198688
3.667949e-06
0.01179748
0.02011367
2.514516e-05
0.01403739
0.02053188
-2.2803e-05
0.02109095
-7.919038e-06
0.0161629
0.005135898
0.01736865
0.0001872093
-0.001446569
0.0002085126
-0.001064124
-0.0004377159
0.007451979
0.01722328
0.0002012851
0.009908149
0.01738913
2.350638e-05
0.01230267
0.01769074
2.840584e-05
0.01465032
0.0181935
-9.260113e-06
0.01885556
-6.406706e-06
0.01689211
0.005292015
0.01467897
0.0001998773
-0.001366137
9.145913e-05
-0.001059862
-0.0004676715
0.00772428
0.01459382
0.0001971946
0.01030053
0.01479321
1.967505e-05
0.01283495
0.01514035
1.597461e-05
0.01533917
0.01570706
-1.779078e-05
0.01646325
-1.790783e-05
0.0177494
0.005525148
0.0002041926
-0.001292278
-5.001138e-05
-0.001059811
-0.0005384643
0.0118902
0.0080735
0.0001837485
0.01186172
0.01078927
2.73495e-06
0.0120747
0.01349507
-1.352729e-05
0.01244807
0.01620802
-4.594881e-05
0.01304006
-5.944394e-05
0.01386369
0.01886702
1.533391e-05
4.176171e-05
-6.42006e-05
-0.0005240673
-1.237635e-05
1.69214e-06
4.031936e-05
2.172512e-06
-7.955055e-05
-0.002103469
-6.289477e-05
8.962855e-05
0.0001327827
-3.847229e-05
-4.345446e-05
9.673079e-05
-1.141769e-05
0.0001361663
-1.13378e-05
-5.847669e-05
-0.002183038
-9.07267e-05
0.0001541579
0.0001535196
-4.573173e-05
-4.21667e-05
-6.784166e-05
-0.002297088
-0.0001084575
0.0001662319
0.0001627494
-4.455432e-05
-3.876051e-05
-8.027573e-05
-0.002440488
-0.0001146271
0.000176419
0.0001721469
-4.667288e-05
-4.26379e-05
-0.002618827
-0.0001229865
0.0001893645
-5.06667e-05
-9.545589e-05
0.0001848187
-4.365409e-05
1.481701e-05
9.755439e-05
-2.062512e-05
-0.0004449975
2.632532e-06
1.114754e-05
-1.739247e-05
2.21748e-08
0.0001220883
0.000104654
0.0001300993
-5.437673e-05
-0.001997431
-2.207099e-05
0.0005111198
0.000524225
0.0004994527
0.0005053408
2.455132e-05
-2.161291e-05
1.513712e-05
-3.288905e-05
-9.44105e-05
-0.002068626
-2.109591e-05
-0.00014768
-0.002138438
-3.077997e-05
-0.000196064
-0.00225204
-3.948264e-05
-0.0002482837
-0.002393002
-4.377519e-05
-0.002571693
-4.317981e-05
-0.0003029744
2.731407e-05
0.0004450156
-2.181257e-05
-0.0004377483
-2.692919e-05
1.59318e-05
-1.268013e-05
1.090897e-05
-0.0001375395
-0.001913158
2.717699e-06
3.411581e-05
-1.287781e-05
1.187799e-05
-5.467935e-06
-0.0002079584
-0.002011292
-5.494283e-05
-0.0002806465
-0.002086421
-5.282712e-05
-0.0003577245
-0.002190942
-7.272857e-05
-0.0004404607
-0.00232871
-7.378974e-05
-0.002500695
-8.417956e-05
-0.0005298009
2.678382e-05
0.000447032
-3.639296e-05
-0.0004394655
-1.091168e-05
1.526162e-05
-1.230742e-05
1.000012e-05
-0.0001871594
-0.001825249
-4.415845e-06
5.756956e-05
-1.088317e-05
4.095984e-05
7.745527e-06
-0.0002835111
-0.001904253
-1.620445e-05
-0.0003864846
-0.001970858
-2.275109e-05
-0.0004941028
-0.002066687
-3.211531e-05
-0.0006098491
-0.002194896
-3.325287e-05
-0.002356404
-3.896127e-05
-0.0007347925
2.558006e-05
0.0004370392
-2.714834e-05
-0.0004142192
-3.549223e-05
1.461302e-05
-1.086854e-05
1.049599e-05
-0.0002438382
-0.001702945
-1.062235e-05
5.056285e-05
1.055479e-05
3.436028e-05
2.193899e-05
-0.0003648406
-0.001779703
-2.37252e-05
-0.0004929086
-0.001841159
-1.75644e-05
-0.0006281942
-0.001929552
-2.116527e-05
-0.0007736376
-0.002049479
-2.070691e-05
-0.002199439
-2.22439e-05
-0.000930393
2.384115e-05
0.0004108228
-3.584556e-05
-0.0003893005
-2.119183e-05
1.333199e-05
-1.117523e-05
9.517149e-06
-0.0002898188
-0.001562854
-1.342118e-05
6.185985e-05
1.771385e-05
4.416851e-05
2.805692e-05
-0.0004389753
-0.001625906
-1.516724e-05
-0.0005906302
-0.001681795
-1.137342e-05
-0.0007527451
-0.001761222
-1.092388e-05
-0.0009264853
-0.001870058
-8.955492e-06
-0.002006679
-9.448338e-06
-0.00111394
2.179486e-05
0.0003791783
-3.900087e-05
-0.0003533971
-1.948681e-05
1.213721e-05
-9.913981e-06
8.688508e-06
-0.0003345778
-0.001395762
-1.658734e-05
6.6641e-05
2.15949e-05
4.905625e-05
3.218859e-05
-0.0005055851
-0.001451167
-1.811873e-05
-0.0006808869
-0.001500813
-1.079212e-05
-0.0008675526
-0.001571607
-8.195223e-06
-0.001067667
-0.001668739
-4.911613e-06
-0.001790705
-4.182527e-06
-0.001283313
1.946748e-05
0.0003394932
-3.727645e-05
-0.0003104927
-2.093315e-05
1.082577e-05
-8.644602e-06
7.560515e-06
-0.0003744905
-0.001208311
-1.661555e-05
6.691761e-05
2.86804e-05
5.40815e-05
3.823168e-05
-0.0005664596
-0.001256507
-1.60883e-05
-0.0007631228
-0.001298938
-8.348501e-06
-0.0009727088
-0.001360443
-4.1038e-06
-0.001197045
-0.001444675
-1.518767e-07
-0.001550683
1.259771e-06
-0.001438725
1.698371e-05
0.0002923879
-3.678169e-05
-0.0002604663
-2.246914e-05
9.093257e-06
-5.280527e-06
6.53267e-06
-0.0004101456
-0.001006019
-1.804004e-05
6.81002e-05
4.004651e-05
5.710979e-05
4.436034e-05
-0.0006214303
-0.001043137
-1.562e-05
-0.0008380898
-0.001078529
-5.046682e-06
-0.001068694
-0.001130345
4.253589e-07
-0.001315323
-0.001201092
5.59642e-06
-0.001289984
7.76489e-06
-0.001580674
1.478814e-05
0.0002394917
-4.077556e-05
-0.0002091618
-1.615365e-05
7.701672e-06
-2.211146e-06
6.320573e-06
-0.0004398238
-0.0007937333
-1.696573e-05
7.180317e-05
4.50781e-05
6.282858e-05
4.785858e-05
-0.0006707713
-0.0008153067
-7.973478e-06
-0.0009068025
-0.0008435708
1.739579e-06
-0.001157535
-0.0008862588
9.213447e-06
-0.001424739
-0.0009433862
1.426616e-05
-0.001014559
1.7035e-05
-0.001711981
1.17992e-05
0.0001865641
-3.912758e-05
-0.0001546491
-1.199292e-05
6.219868e-06
-3.089684e-06
4.276175e-06
-0.0004674438
-0.0005596962
-9.308911e-06
7.130849e-05
4.850103e-05
6.36134e-05
4.937922e-05
-0.0007148305
-0.0005644285
-4.287097e-06
-0.0009701118
-0.0005866436
1.369208e-05
-0.001237775
-0.0006201188
1.914442e-05
-0.001523515
-0.0006616576
2.608732e-05
-0.0007119201
2.88758e-05
-0.001830574
7.993315e-06
0.0001285631
-3.830501e-05
-8.983932e-05
-1.232022e-05
3.701103e-06
-2.038651e-06
2.245653e-06
-0.0004986961
-7.005989e-05
-5.354573e-06
7.244563e-05
5.518318e-05
7.007802e-05
5.707132e-05
-8.249923e-05
-6.96694e-05
-9.239502e-05
-0.0007538169
-6.91306e-05
2.458334e-05
-9.145999e-05
-7.174493e-05
-8.227099e-05
-0.001020057
-6.834988e-05
2.56527e-05
-9.951327e-05
-7.01367e-05
-8.244769e-05
-0.001298223
-7.227399e-05
3.345775e-05
-0.000110333
-7.564858e-05
-8.865684e-05
-0.001594881
-7.424047e-05
3.620839e-05
-0.0001208488
-8.113569e-05
-9.517946e-05
-7.86169e-05
4.011364e-05
-8.807832e-05
-0.001913077
-0.0001316241
-0.0001037033
3.391507e-06
-2.586457e-05
-4.164835e-07
6.439111e-05
1.982642e-07
-8.785665e-07
-2.688457e-07
-8.499762e-06
-1.148276e-05
-1.159742e-05
-8.972426e-06
-2.471329e-07
5.891568e-05
-9.077283e-05
-4.095765e-05
3.002103e-06
-2.213927e-07
0.0001289049
-0.0001600434
-3.550258e-05
-2.268138e-06
6.734006e-07
0.0001947247
-0.0002258884
-3.68838e-05
-9.757791e-07
2.701833e-06
0.0002626336
-0.0002928549
-3.993896e-05
-4.815424e-06
3.145945e-06
0.0003345392
-0.000366084
-4.01049e-05
-5.736644e-06
2.075558e-06
0.0004108894
-4.208133e-05
-6.566006e-06
-0.0004429344
4.808818e-06
1.262315e-05
1.432677e-05
-4.737541e-05
3.257315e-06
-2.023158e-06
1.438258e-05
4.575332e-06
7.828541e-06
5.778438e-05
-7.043404e-05
3.571177e-06
-3.325303e-06
9.282889e-06
1.029225e-05
8.434916e-05
-9.733136e-05
-4.196205e-06
-2.39671e-06
1.295043e-05
1.046614e-05
0.0001145206
-0.0001277952
-6.632101e-06
-3.509763e-06
1.656095e-05
1.053784e-05
0.0001456333
-0.0001594773
-8.99455e-06
-4.260203e-06
2.041544e-05
1.02179e-05
0.0001784754
-1.144747e-05
-4.719987e-06
-0.0001929412
2.691664e-05
-0.0005568485
0.001946556
-2.091896e-05
-0.0007021979
-0.0006935059
-0.0009196505
-0.001225153
-0.008656571
0.0006261917
0.01034099
-0.000165803
3.692299e-05
-0.01035263
-0.001036953
0.001154654
0.01037037
-0.0001723568
-5.633141e-05
-0.01032656
-0.00152347
0.001706299
0.01017658
2.347761e-05
-0.0001323552
-0.01023787
-0.001964252
0.002196872
0.0100819
5.571479e-05
-0.0001605248
-0.01021128
-0.002465949
0.002651871
0.01006167
0.0001242099
-0.000209842
-0.01021437
-0.002950991
0.01005458
0.0001903285
0.003130298
-0.0002987305
-0.008179034
0.0006571129
0.007465976
0.0005124801
-4.398911e-05
8.548856e-05
-0.000199304
0.00738452
0.03612372
0.001283634
-0.01012128
-0.009890043
-0.009701569
-0.009733429
-0.00114285
-0.0006507742
-0.001079791
-0.0006330509
0.009181781
0.03786908
0.005195917
-0.01036407
-0.01013211
-0.01039365
-0.009823483
0.01108921
0.03795485
0.005817296
-0.0104058
-0.01032527
-0.01031544
-0.01024679
0.01327039
0.03754702
0.005452797
-0.01032809
-0.01021199
-0.01022941
-0.01021834
0.01551704
0.03751263
0.005561361
-0.01033473
-0.0101946
-0.01025633
-0.01029627
0.03758922
0.004994745
-0.01027572
-0.01030345
0.01783847
-0.01011045
-0.01032773
-0.0002297387
-0.007274231
-1.86895e-05
0.007396943
5.109931e-05
5.923825e-05
0.0001496119
-0.0001342334
0.003561116
0.03332626
-0.0007532881
-0.0001341653
0.0001495536
-0.0001966654
0.0001148552
0.006954947
0.03456022
0.0004667826
0.01004835
0.03457458
0.0009485148
0.01282804
0.03441879
0.0008735002
0.01545406
0.03450923
0.0008220383
0.0348427
0.0008598814
0.01783531
-0.0002477954
-0.007595328
0.0003775639
0.007221244
0.0001603905
4.658039e-05
0.000154448
-0.0001171037
0.005605528
0.03092861
0.0004629019
-0.0008482799
-0.0007406403
-0.0007907791
-0.0007719943
0.007944992
0.03188
0.0009398237
0.01039879
0.03165402
0.0009408835
0.01281488
0.03152514
0.0009071312
0.01519439
0.03164616
0.0008924146
0.03204083
0.000902555
0.01750653
-0.0002328593
-0.007002115
0.0004467303
0.006679872
5.658977e-05
3.607033e-05
0.0001342142
-0.0001185032
0.005063985
0.02824249
0.0001375591
-0.0008227428
-0.0004236565
-0.0007029892
-0.0004707483
0.007802102
0.02894879
0.0003140618
0.01043676
0.02881233
0.0002466344
0.01298432
0.0288229
0.0002187886
0.01541722
0.02906556
0.0001827571
0.0295325
0.0002502179
0.017764
-0.0002228911
-0.006501378
0.0004461376
0.006090586
0.000152074
2.122158e-05
0.0001266322
-0.0001123828
0.005482969
0.02544789
0.0002018242
-0.0008449531
-0.0005689857
-0.0007343246
-0.0006352232
0.008279754
0.0259818
0.0003730763
0.0108995
0.02600427
0.0002488468
0.01344692
0.02618392
0.0001886228
0.01589774
0.02653793
0.0001065042
0.02706445
0.000170356
0.01826237
-0.0002058313
-0.005844564
0.0004608152
0.005458117
0.0001075821
1.492834e-05
0.0001147707
-0.0001058185
0.005515489
0.02258042
0.0001767569
-0.0008541021
-0.0005213722
-0.0007394017
-0.0005828984
0.008387458
0.02302065
0.0002635961
0.01109573
0.02316361
0.0001360584
0.01376776
0.02343268
0.0001043567
0.0163587
0.02390503
1.915701e-05
0.02454497
3.396636e-05
0.01883629
-0.0001912167
-0.005213783
0.0004587322
0.004808102
0.0001331804
1.588261e-06
0.000101005
-9.760882e-05
0.005826863
0.01962816
0.0002103881
-0.0008819945
-0.000584898
-0.0007785764
-0.0006523068
0.008731721
0.02005024
0.0002668346
0.01153984
0.02025757
0.00012142
0.01432634
0.02059886
7.57163e-05
0.01704654
0.02117188
3.702882e-06
0.02193174
-3.937235e-06
0.0196573
-0.0001746688
-0.004537301
0.0004664061
0.004128389
0.0001410176
-1.12221e-05
7.791537e-05
-9.053628e-05
0.006010445
0.01658177
0.0002133192
-0.0008928335
-0.0006290925
-0.0007949836
-0.0006605871
0.009043811
0.01696882
0.0002452533
0.01199797
0.01722175
0.0001013421
0.01495348
0.01761875
4.057831e-05
0.01786162
0.01827315
-2.720793e-05
0.0191483
-4.398888e-05
0.02067114
0.0006819178
-5.226498e-06
-0.0002943975
-5.291722e-05
-0.00369115
0.003361774
0.006268698
0.0002107144
0.01345252
-0.0007072671
-0.0009157034
-0.0008410888
0.009444509
0.0002054776
0.01377128
0.0125757
5.428767e-05
0.01403901
0.01574099
-2.418358e-05
0.01446411
0.01890473
-8.85042e-05
0.01515196
-0.0001316259
0.01611006
0.02201516
3.992622e-05
3.956725e-06
-6.786225e-05
-0.0005079612
-2.646912e-06
2.131651e-06
3.97452e-05
1.884634e-06
-7.146658e-05
-0.002068801
-1.865184e-05
0.000137841
-1.884527e-05
0.0001376809
-1.697694e-05
-4.437881e-05
-0.002199396
-2.13029e-05
-5.540257e-05
-0.002295984
-2.573849e-05
-6.938743e-05
-0.0024626
-2.998466e-05
-0.002640688
-3.170412e-05
-8.385123e-05
0.0001042156
-1.47345e-05
-3.012929e-05
-0.0004319673
1.168668e-05
0.0001230468
0.0001082216
0.0001296606
-0.0001206231
-0.001975415
-1.669817e-05
0.0005015874
0.0005112543
0.0005051861
0.0005025679
3.494699e-05
3.442025e-06
3.605114e-05
-4.370157e-06
-0.0001324213
-0.002050322
-2.777645e-05
-0.0001729314
-0.002156456
-3.320853e-05
-0.0002152317
-0.002251003
-4.216261e-05
-0.0002686959
-0.002404897
-4.801324e-05
-0.002579557
-5.038613e-05
-0.0003226197
-6.229759e-05
-0.001659413
-3.024551e-05
5.267389e-05
3.140858e-05
-8.44928e-05
-1.124791e-05
0.0003864647
0.000489208
0.0004014982
0.0004864435
-0.0001288012
-0.001915185
8.991238e-06
-0.0002093455
-0.001985118
-3.96014e-05
-0.0002808216
-0.002093681
-4.412539e-05
-0.0003589099
-0.002186544
-5.909828e-05
-0.0004407874
-0.00233187
-6.493863e-05
-0.00250122
-7.200359e-05
-0.0005312994
-0.0001231631
-0.001527231
2.405562e-05
5.588627e-05
2.417309e-06
-7.268996e-05
-1.868772e-05
-0.0002045636
-0.001835493
-2.707787e-06
-0.0002963086
-0.001896166
-1.341172e-05
-0.0003989063
-0.001987199
-2.663398e-05
-0.0005050096
-0.002081146
-3.14094e-05
-0.0006204666
-0.002212881
-3.678439e-05
-0.002374388
-4.023149e-05
-0.000746028
-9.844576e-05
-0.001440703
-5.5755e-06
8.309844e-05
2.007892e-05
-7.499098e-05
-1.069303e-05
-0.0002336143
-0.001705159
-5.787964e-06
-0.000362237
-0.001772652
-1.861645e-05
-0.000495802
-0.001851969
-1.922965e-05
-0.0006349206
-0.001940153
-2.303917e-05
-0.0007825751
-0.00206233
-2.360235e-05
-0.002212117
-2.567447e-05
-0.0009414158
-0.0001315897
-0.001309868
4.787299e-07
6.837651e-05
1.329359e-05
-6.914974e-05
-1.224461e-05
-0.0002823506
-0.001559572
-8.247907e-06
-0.0004375885
-0.001621201
-1.138086e-05
-0.0005959306
-0.001691988
-1.301221e-05
-0.0007619367
-0.001773282
-1.178872e-05
-0.0009389116
-0.001883903
-1.040728e-05
-0.002020851
-1.042834e-05
-0.001129198
-0.0001452052
-0.001170094
-4.865352e-06
6.282406e-05
1.372535e-05
-5.788357e-05
-8.368806e-06
-0.0003208392
-0.001389988
-1.053799e-05
-0.0005007442
-0.001445846
-1.356943e-05
-0.0006848861
-0.00150658
-1.205951e-05
-0.0008777181
-0.001579463
-9.182269e-06
-0.001082688
-0.00167792
-5.925283e-06
-0.001800373
-4.874593e-06
-0.001302473
-0.0001664244
-0.001014214
-4.521326e-06
5.873388e-05
1.307373e-05
-4.89807e-05
-7.761673e-06
-0.0003598082
-0.001202562
-1.065748e-05
-0.0005624592
-0.001247706
-1.157694e-05
-0.0007693799
-0.001298662
-9.345997e-06
-0.0009868797
-0.001361535
-4.532207e-06
-0.001217641
-0.001447045
-2.654979e-07
-0.001553564
1.635834e-06
-0.001464826
-0.0001805951
-0.0008443287
-5.795465e-06
5.368564e-05
1.319701e-05
-4.260064e-05
-7.776866e-06
-0.0003936512
-0.0009962483
-1.12982e-05
-0.000616863
-0.001029429
-1.068604e-05
-0.0008474729
-0.001067415
-5.683401e-06
-0.001088827
-0.001120327
5.725465e-07
-0.001344298
-0.001192184
6.20503e-06
-0.001281632
8.859933e-06
-0.001617324
-0.0001910472
-0.0006586245
-5.571962e-06
3.991796e-05
1.028881e-05
-3.243384e-05
-6.858019e-06
-0.0004194438
-0.0007740664
-1.075122e-05
-0.0006688378
-0.0007843257
-3.682656e-06
-0.0009234694
-0.0008123296
1.285882e-06
-0.001187744
-0.0008566765
9.837063e-06
-0.001466273
-0.0009145728
1.518462e-05
-0.0009857047
1.832832e-05
-0.001763493
-0.0002009063
-0.0004668775
-6.950175e-06
3.180949e-05
5.989414e-06
-1.657664e-05
-5.112834e-06
-0.0004496939
-0.0005291688
-5.419127e-06
-0.0007168317
-0.0005188074
-2.667621e-06
-0.0009924697
-0.0005312205
8.221111e-06
-0.00127479
-0.0005685329
1.332174e-05
-0.001572298
-0.0006100487
1.907155e-05
-0.0006598261
2.118654e-05
-0.001890488
-0.000205532
-6.169888e-05
-6.011256e-06
-7.53762e-05
-6.393803e-05
-7.555154e-05
2.576375e-05
3.548597e-06
-2.381955e-06
-5.699991e-06
-0.0004620083
-5.937832e-05
-5.070514e-06
-7.64594e-05
-5.97818e-05
-7.7357e-05
-0.0007519747
-0.0002220281
1.777044e-05
-0.001036223
-0.0002356
1.428037e-05
-0.001317889
-0.0002721614
1.875286e-05
-0.001620726
-0.0002909858
1.998225e-05
-0.0003167182
2.196391e-05
-0.001945684
2.644491e-06
-2.460977e-05
4.602921e-07
-1.125058e-05
-8.774758e-06
-1.137804e-05
-8.790434e-06
5.718886e-05
-8.750906e-07
-8.854315e-05
-2.874346e-05
1.594566e-06
-0.0007275731
5.678611e-06
9.530968e-06
-9.425452e-07
1.752485e-05
-3.829628e-05
0.000132368
0.000114793
0.0001301478
0.0001347408
-0.0009398722
1.303453e-05
2.831081e-06
-1.034599e-05
2.984896e-05
-5.866942e-05
-0.001196672
7.452191e-06
8.7482e-06
-1.154165e-05
4.888253e-05
-6.89023e-05
-0.001469345
8.590423e-06
9.407617e-06
-1.631193e-05
6.436049e-05
-8.435954e-05
7.604482e-06
1.191847e-05
8.149536e-05
-0.00176817
-2.108875e-05
-9.782203e-05
1.308708e-05
-3.389837e-06
5.156376e-06
-3.129236e-05
2.778058e-06
1.366073e-05
5.452586e-05
-0.0006318682
-5.319837e-06
0.002009577
-0.000715575
-0.0007113412
-0.000394261
0.0001151712
-0.01024236
-6.324999e-05
0.0105168
6.790142e-05
0.003914143
0.03483823
-0.001251135
-0.003094826
-0.00294084
0.001148165
0.00154194
-0.003090369
0.0002448592
-0.003439835
0.0001015857
0.006879015
0.03579936
-0.002962735
-0.003580211
-0.002636287
0.001334678
0.001875201
0.008340349
0.03691572
0.0004215752
-0.003923499
-0.003073881
0.0008644366
0.001227075
0.01035229
0.03650477
0.0001860545
-0.003924243
-0.002933866
0.0009000374
0.001325287
0.03740908
0.0001441897
-0.004065464
0.0008188903
0.01200411
-0.0030552
0.001186954
0.004954492
0.03034646
0.001123599
-0.007633156
-0.00974686
-0.007944253
-0.009595601
-0.0009675912
-0.0007244195
0.000489861
-0.0003025307
0.009697702
0.03687825
0.0007669897
-0.01033471
-0.01025893
-0.00998647
-0.01052471
0.01058643
0.03620458
0.00294083
0.01093858
0.0362689
0.004995604
0.0131675
0.03741846
0.002721133
0.01469675
0.03718672
0.003350156
0.03712916
0.002614808
0.0173566
0.001971105
0.02772713
-0.00086458
-0.0007052263
0.0002061346
0.001408038
0.0006038505
0.004966315
0.03382803
-0.0006982792
0.007826884
0.0335648
0.000246
0.01053285
0.03383404
0.0006774032
0.0133811
0.03448601
0.0009576919
0.01599202
0.03455383
0.0008440158
0.03458787
0.0008851326
0.01850806
0.002488317
0.02551466
0.0001771427
-0.00110466
-0.0002391182
0.0009709111
-8.012015e-05
0.005401441
0.03114523
0.0002325834
0.008137692
0.03103335
0.0007350249
0.0106408
0.0315751
0.0006967189
0.0132572
0.03172501
0.001051736
0.01571061
0.03210589
0.0008869381
0.03213883
0.0009779001
0.0180843
0.002010426
0.02345437
-0.0001334268
-0.0008288902
-8.790637e-05
0.0009830329
0.0001170499
0.005037307
0.02823717
1.873807e-05
0.00781445
0.02830927
0.0002609982
0.01049147
0.02903251
0.0001122093
0.01312435
0.02902177
0.0002891442
0.01573104
0.02949964
0.0001823077
0.02964854
0.000332501
0.01813905
0.002293793
0.02129741
7.263155e-05
-0.0009012006
-0.0001801154
0.0008636536
8.200876e-06
0.005246453
0.02538029
0.0001060377
0.00802838
0.02566446
0.0002359526
0.0109126
0.02619445
0.0002026795
0.01356262
0.02639531
0.0001650644
0.01619997
0.02686324
0.0001055566
0.02727508
0.0001551054
0.01858868
0.002349184
0.01894866
2.445382e-05
-0.000764685
-0.0001108662
0.000785954
6.47053e-05
0.005352532
0.02246651
8.71942e-05
0.008243924
0.02287744
0.0001592215
0.01111004
0.02333668
0.0001277137
0.01388822
0.02360343
0.000118067
0.01658696
0.02415712
2.653656e-05
0.02474765
4.441876e-05
0.01910393
0.002536145
0.01650672
2.769463e-05
-0.0007250073
-0.0001235212
0.0006809535
4.567494e-05
0.005593177
0.01952111
9.875303e-05
0.008615883
0.01996317
0.000158405
0.01157893
0.02037863
0.0001164165
0.01444843
0.02074251
6.712659e-05
0.0172495
0.02136628
-6.521978e-06
0.02210774
-1.736346e-05
0.01990284
0.002615046
0.01398889
1.836516e-05
-0.0006441188
-0.0001130337
0.0005825765
5.900099e-05
0.005758797
0.01647947
0.0001112088
0.008931821
0.01688377
0.0001516226
0.01203133
0.01727885
0.0001016191
0.0150778
0.01770208
3.454038e-05
0.01806276
0.01839175
-3.764431e-05
0.01926513
-5.984696e-05
0.02092123
0.002760687
3.27572e-05
0.01129901
0.0004816479
7.327354e-05
-0.0005575151
-0.0001009768
0.006002418
0.0001113391
0.01333711
0.00932457
0.0001157181
0.01365138
0.01260634
5.462001e-05
0.01399675
0.01587412
-3.703878e-05
0.01444715
0.01912159
-0.0001095714
0.01516535
-0.0001567825
0.01612047
0.0222914
3.991909e-05
1.285589e-06
-7.003187e-05
-0.0005090424
-7.554254e-07
2.349117e-06
3.986923e-05
2.0984e-06
-9.912346e-05
-0.002028032
-1.338064e-05
0.0001446756
-7.006419e-06
0.0001433937
-6.704584e-06
-5.505043e-05
-0.002119541
-1.662215e-05
-6.074973e-05
-0.002245866
-1.841023e-05
-7.17768e-05
-0.002388334
-2.140782e-05
-0.002568327
-2.309017e-05
-8.628133e-05
0.0001070841
-5.992046e-06
-3.211031e-05
-0.0004319133
3.500197e-06
0.000124194
0.0001061122
0.0001291252
-0.0001088192
-0.001961217
-8.358402e-06
0.0005006839
0.0005005725
0.0005002581
0.0004972133
3.597619e-05
-4.26368e-06
3.772069e-05
-6.46452e-06
-0.0001206846
-0.0020322
-1.174386e-05
-0.0001605927
-0.002100702
-1.213934e-05
-0.0002039794
-0.002225351
-1.929009e-05
-0.0002533083
-0.002364302
-2.271538e-05
-0.002542601
-2.469235e-05
-0.0003047276
-0.0001031362
-0.001700293
-2.052382e-05
0.0004087075
0.0004908993
0.0004049067
0.0004891938
-0.0001504059
-0.001911008
6.051886e-06
-0.0002287573
-0.00197266
-2.078916e-05
-0.0002867745
-0.00206445
-2.235927e-05
-0.0003634638
-0.002175284
-3.247552e-05
-0.0004420457
-0.002315476
-3.518158e-05
-0.002486278
-3.967579e-05
-0.0005306954
-0.0001344924
-0.001552459
1.071426e-05
-0.0002098737
-0.00183739
-9.454219e-07
-0.0003028414
-0.001884758
-8.346133e-06
-0.0004007216
-0.001976379
-1.682394e-05
-0.0005066093
-0.002079016
-2.178775e-05
-0.0006218665
-0.002211225
-2.577657e-05
-0.002373229
-2.8556e-05
-0.0007465898
-0.0001024125
-0.001455463
-1.589851e-07
-0.000239688
-0.001703499
-2.403744e-06
-0.0003680106
-0.001764532
-1.051988e-05
-0.0005025255
-0.001848438
-1.265482e-05
-0.0006421836
-0.001945406
-1.699085e-05
-0.000790259
-0.002068408
-1.834385e-05
-0.002219232
-2.010953e-05
-0.000949821
-0.0001324788
-0.001323653
1.147158e-06
-0.0002821714
-0.001558444
-3.609978e-06
-0.0004386107
-0.001612719
-6.754215e-06
-0.0006004982
-0.001690097
-9.466034e-06
-0.0007691385