/*--------------------------------*- C++ -*----------------------------------*\
  =========                 |
  \\      /  F ield         | OpenFOAM: The Open Source CFD Toolbox
   \\    /   O peration     | Website:  https://openfoam.org
    \\  /    A nd           | Version:  7
     \\/     M anipulation  |
\*---------------------------------------------------------------------------*/
FoamFile
{
    version     2.0;
    format      ascii;
    class       volScalarField;
    location    "0.02";
    object      k;
}
// * * * * * * * * * * * * * * * * * * * * * * * * * * * * * * * * * * * * * //

dimensions      [0 2 -2 0 0 0 0];

internalField   nonuniform List<scalar> 
105056
(
0.003738714
0.003738552
0.003738682
0.003738844
0.003739016
0.003738543
0.003738073
0.003738159
0.003738311
0.003738478
0.003738675
0.003738158
0.003738214
0.003738345
0.0037385
0.003738838
0.00373831
0.003738345
0.003738459
0.003738598
0.00373901
0.003738477
0.003738498
0.003738596
0.003738722
0.00373918
0.003738645
0.003738661
0.003738746
0.00373886
0.003739349
0.003738818
0.003738831
0.003738906
0.003739009
0.00373952
0.003738997
0.003739006
0.003739073
0.003739166
0.003739694
0.00373918
0.003739184
0.003739244
0.00373933
0.003739871
0.003739367
0.003739363
0.003739421
0.003739499
0.00374005
0.003739558
0.003739548
0.003739601
0.003739673
0.00374023
0.003739749
0.003739733
0.003739784
0.003739852
0.003740412
0.003739943
0.00373992
0.00373997
0.003740033
0.003740596
0.00374014
0.003740112
0.003740159
0.003740219
0.003740781
0.003740339
0.003740306
0.003740354
0.003740407
0.003740967
0.003740541
0.003740504
0.003740546
0.003740599
0.003741155
0.003740744
0.003740707
0.00374074
0.003740795
0.003741345
0.00374095
0.003740912
0.003740939
0.003740997
0.003741537
0.003741158
0.003741119
0.003741141
0.003741198
0.003741731
0.003741367
0.003741329
0.003741347
0.003741399
0.003741927
0.00374158
0.003741543
0.003741556
0.003741602
0.003742126
0.003741796
0.003741762
0.00374177
0.003741812
0.003676949
0.003742018
0.003741986
0.003741988
0.003742028
0.00373755
0.003737722
0.00373791
0.003738095
0.003738281
0.003737569
0.003676722
0.003676724
0.003676726
0.003676728
0.00367673
0.00373773
0.003676726
0.003676727
0.003676729
0.003676731
0.003676733
0.003737918
0.003676729
0.00367673
0.003676732
0.003676734
0.003676736
0.003738105
0.003676732
0.003676733
0.003676735
0.003676737
0.003676739
0.003738294
0.003676735
0.003676736
0.003676738
0.00367674
0.003676742
0.003738484
0.003676738
0.003676739
0.003676741
0.003676743
0.003676745
0.003738674
0.003676742
0.003676743
0.003676745
0.003676747
0.003676749
0.003738863
0.003676745
0.003676746
0.003676748
0.00367675
0.003676752
0.003739053
0.003676748
0.003676749
0.003676751
0.003676753
0.003676755
0.003739243
0.003676751
0.003676752
0.003676755
0.003676757
0.003676759
0.003739436
0.003676755
0.003676756
0.003676758
0.00367676
0.003676762
0.003739629
0.003676758
0.003676759
0.003676761
0.003676763
0.003676765
0.003739825
0.003676762
0.003676763
0.003676765
0.003676767
0.003676769
0.003740022
0.003676765
0.003676766
0.003676768
0.00367677
0.003676772
0.003740221
0.003676769
0.00367677
0.003676772
0.003676774
0.003676776
0.003740422
0.003676772
0.003676773
0.003676775
0.003676777
0.00367678
0.003740625
0.003676776
0.003676777
0.003676779
0.003676781
0.003676783
0.003740829
0.00367678
0.00367678
0.003676783
0.003676785
0.003676787
0.003741036
0.003676784
0.003676784
0.003676786
0.003676788
0.003676791
0.003741246
0.003676787
0.003676788
0.00367679
0.003676792
0.003676794
0.003741457
0.003676791
0.003676791
0.003676794
0.003676796
0.003676798
0.003741671
0.003676795
0.003676795
0.003676798
0.0036768
0.003676802
0.003741993
0.003676799
0.003676799
0.003676801
0.003676804
0.003676806
0.003737576
0.003737742
0.003737934
0.003738124
0.003738313
0.003737595
0.003676722
0.003676723
0.003676725
0.003676728
0.00367673
0.00373775
0.003676725
0.003676726
0.003676728
0.003676731
0.003676733
0.003737941
0.003676728
0.003676729
0.003676731
0.003676734
0.003676736
0.003738133
0.003676731
0.003676732
0.003676735
0.003676737
0.003676739
0.003738324
0.003676734
0.003676736
0.003676738
0.00367674
0.003676742
0.003738516
0.003676738
0.003676739
0.003676741
0.003676743
0.003676745
0.003738708
0.003676741
0.003676742
0.003676744
0.003676746
0.003676748
0.003738899
0.003676744
0.003676745
0.003676747
0.003676749
0.003676751
0.003739092
0.003676747
0.003676748
0.00367675
0.003676752
0.003676754
0.003739285
0.00367675
0.003676751
0.003676753
0.003676755
0.003676758
0.00373948
0.003676754
0.003676755
0.003676757
0.003676759
0.003676761
0.003739676
0.003676757
0.003676758
0.00367676
0.003676762
0.003676764
0.003739875
0.00367676
0.003676761
0.003676763
0.003676765
0.003676767
0.003740075
0.003676763
0.003676765
0.003676767
0.003676769
0.003676771
0.003740277
0.003676767
0.003676768
0.00367677
0.003676772
0.003676774
0.00374048
0.00367677
0.003676771
0.003676774
0.003676776
0.003676778
0.003740686
0.003676774
0.003676775
0.003676777
0.003676779
0.003676781
0.003740894
0.003676778
0.003676778
0.003676781
0.003676783
0.003676785
0.003741103
0.003676781
0.003676782
0.003676784
0.003676786
0.003676789
0.003741316
0.003676785
0.003676786
0.003676788
0.00367679
0.003676792
0.00374153
0.003676789
0.003676789
0.003676792
0.003676794
0.003676796
0.003741747
0.003676792
0.003676793
0.003676795
0.003676798
0.0036768
0.003741966
0.003676796
0.003676797
0.003676799
0.003676801
0.003676804
0.003737579
0.003737746
0.003737939
0.00373813
0.003738318
0.003737597
0.003676722
0.003676723
0.003676725
0.003676728
0.00367673
0.003737753
0.003676725
0.003676726
0.003676728
0.003676731
0.003676733
0.003737947
0.003676728
0.003676729
0.003676732
0.003676734
0.003676736
0.003738138
0.003676731
0.003676732
0.003676735
0.003676737
0.003676739
0.00373833
0.003676734
0.003676736
0.003676738
0.00367674
0.003676742
0.003738523
0.003676738
0.003676739
0.003676741
0.003676743
0.003676745
0.003738716
0.003676741
0.003676742
0.003676744
0.003676746
0.003676748
0.003738909
0.003676744
0.003676745
0.003676747
0.003676749
0.003676751
0.003739103
0.003676747
0.003676748
0.00367675
0.003676752
0.003676754
0.003739296
0.00367675
0.003676751
0.003676753
0.003676755
0.003676758
0.003739491
0.003676753
0.003676755
0.003676757
0.003676759
0.003676761
0.003739688
0.003676757
0.003676758
0.00367676
0.003676762
0.003676764
0.003739887
0.00367676
0.003676761
0.003676763
0.003676765
0.003676767
0.003740088
0.003676763
0.003676765
0.003676767
0.003676769
0.003676771
0.00374029
0.003676767
0.003676768
0.00367677
0.003676772
0.003676774
0.003740494
0.00367677
0.003676771
0.003676774
0.003676776
0.003676778
0.003740699
0.003676774
0.003676775
0.003676777
0.003676779
0.003676781
0.003740908
0.003676777
0.003676778
0.003676781
0.003676783
0.003676785
0.003741118
0.003676781
0.003676782
0.003676784
0.003676786
0.003676789
0.00374133
0.003676785
0.003676786
0.003676788
0.00367679
0.003676792
0.003741545
0.003676788
0.003676789
0.003676791
0.003676794
0.003676796
0.003741761
0.003676792
0.003676793
0.003676795
0.003676797
0.0036768
0.00374198
0.003676796
0.003676797
0.003676799
0.003676801
0.003676804
0.003737579
0.003737746
0.00373794
0.003738131
0.003738319
0.003737597
0.003676722
0.003676723
0.003676725
0.003676727
0.00367673
0.003737754
0.003676725
0.003676726
0.003676728
0.003676731
0.003676733
0.003737948
0.003676728
0.003676729
0.003676732
0.003676734
0.003676736
0.00373814
0.003676731
0.003676732
0.003676735
0.003676737
0.003676739
0.003738331
0.003676734
0.003676736
0.003676738
0.00367674
0.003676742
0.003738524
0.003676738
0.003676739
0.003676741
0.003676743
0.003676745
0.003738717
0.003676741
0.003676742
0.003676744
0.003676746
0.003676748
0.003738911
0.003676744
0.003676745
0.003676747
0.003676749
0.003676751
0.003739104
0.003676747
0.003676748
0.00367675
0.003676752
0.003676754
0.003739298
0.00367675
0.003676751
0.003676753
0.003676755
0.003676758
0.003739492
0.003676753
0.003676755
0.003676757
0.003676759
0.003676761
0.003739689
0.003676757
0.003676758
0.00367676
0.003676762
0.003676764
0.003739888
0.00367676
0.003676761
0.003676763
0.003676765
0.003676767
0.003740089
0.003676763
0.003676765
0.003676767
0.003676769
0.003676771
0.003740291
0.003676767
0.003676768
0.00367677
0.003676772
0.003676774
0.003740495
0.00367677
0.003676771
0.003676774
0.003676776
0.003676778
0.0037407
0.003676774
0.003676775
0.003676777
0.003676779
0.003676781
0.003740908
0.003676777
0.003676778
0.003676781
0.003676783
0.003676785
0.003741118
0.003676781
0.003676782
0.003676784
0.003676786
0.003676789
0.003741331
0.003676785
0.003676786
0.003676788
0.00367679
0.003676792
0.003741545
0.003676788
0.003676789
0.003676791
0.003676794
0.003676796
0.003741762
0.003676792
0.003676793
0.003676795
0.003676797
0.0036768
0.003741981
0.003676796
0.003676797
0.003676799
0.003676801
0.003676804
0.003737579
0.003737746
0.00373794
0.003738131
0.003738319
0.003737597
0.003676722
0.003676723
0.003676725
0.003676727
0.00367673
0.003737754
0.003676725
0.003676726
0.003676728
0.003676731
0.003676733
0.003737948
0.003676728
0.003676729
0.003676732
0.003676734
0.003676736
0.00373814
0.003676731
0.003676732
0.003676735
0.003676737
0.003676739
0.003738331
0.003676734
0.003676736
0.003676738
0.00367674
0.003676742
0.003738524
0.003676738
0.003676739
0.003676741
0.003676743
0.003676745
0.003738717
0.003676741
0.003676742
0.003676744
0.003676746
0.003676748
0.003738911
0.003676744
0.003676745
0.003676747
0.003676749
0.003676751
0.003739104
0.003676747
0.003676748
0.00367675
0.003676752
0.003676754
0.003739298
0.00367675
0.003676751
0.003676753
0.003676755
0.003676758
0.003739492
0.003676753
0.003676755
0.003676757
0.003676759
0.003676761
0.003739689
0.003676757
0.003676758
0.00367676
0.003676762
0.003676764
0.003739888
0.00367676
0.003676761
0.003676763
0.003676765
0.003676767
0.003740088
0.003676763
0.003676765
0.003676767
0.003676769
0.003676771
0.00374029
0.003676767
0.003676768
0.00367677
0.003676772
0.003676774
0.003740494
0.00367677
0.003676771
0.003676774
0.003676776
0.003676778
0.0037407
0.003676774
0.003676775
0.003676777
0.003676779
0.003676781
0.003740908
0.003676777
0.003676778
0.003676781
0.003676783
0.003676785
0.003741118
0.003676781
0.003676782
0.003676784
0.003676786
0.003676789
0.003741331
0.003676785
0.003676786
0.003676788
0.00367679
0.003676792
0.003741545
0.003676788
0.003676789
0.003676791
0.003676794
0.003676796
0.003741762
0.003676792
0.003676793
0.003676795
0.003676798
0.0036768
0.00374198
0.003676796
0.003676797
0.003676799
0.003676801
0.003676804
0.003737579
0.003737746
0.00373794
0.00373813
0.003738319
0.003737598
0.003676722
0.003676723
0.003676725
0.003676728
0.00367673
0.003737754
0.003676725
0.003676726
0.003676728
0.003676731
0.003676733
0.003737947
0.003676728
0.003676729
0.003676732
0.003676734
0.003676736
0.003738139
0.003676731
0.003676733
0.003676735
0.003676737
0.003676739
0.00373833
0.003676734
0.003676736
0.003676738
0.00367674
0.003676742
0.003738523
0.003676738
0.003676739
0.003676741
0.003676743
0.003676745
0.003738716
0.003676741
0.003676742
0.003676744
0.003676746
0.003676748
0.00373891
0.003676744
0.003676745
0.003676747
0.003676749
0.003676751
0.003739103
0.003676747
0.003676748
0.00367675
0.003676752
0.003676754
0.003739297
0.00367675
0.003676751
0.003676753
0.003676755
0.003676758
0.003739491
0.003676753
0.003676755
0.003676757
0.003676759
0.003676761
0.003739689
0.003676757
0.003676758
0.00367676
0.003676762
0.003676764
0.003739888
0.00367676
0.003676761
0.003676763
0.003676765
0.003676767
0.003740088
0.003676763
0.003676765
0.003676767
0.003676769
0.003676771
0.003740291
0.003676767
0.003676768
0.00367677
0.003676772
0.003676774
0.003740495
0.00367677
0.003676771
0.003676774
0.003676776
0.003676778
0.0037407
0.003676774
0.003676775
0.003676777
0.003676779
0.003676781
0.003740908
0.003676777
0.003676778
0.003676781
0.003676783
0.003676785
0.003741119
0.003676781
0.003676782
0.003676784
0.003676786
0.003676789
0.003741331
0.003676785
0.003676786
0.003676788
0.00367679
0.003676792
0.003741545
0.003676788
0.003676789
0.003676792
0.003676794
0.003676796
0.003741762
0.003676792
0.003676793
0.003676795
0.003676798
0.0036768
0.003741981
0.003676796
0.003676797
0.003676799
0.003676801
0.003676804
0.003737578
0.003737743
0.003737935
0.003738126
0.003738315
0.003737596
0.003676722
0.003676723
0.003676725
0.003676728
0.00367673
0.003737751
0.003676725
0.003676726
0.003676728
0.003676731
0.003676733
0.003737943
0.003676728
0.003676729
0.003676731
0.003676734
0.003676736
0.003738135
0.003676731
0.003676732
0.003676735
0.003676737
0.003676739
0.003738326
0.003676734
0.003676736
0.003676738
0.00367674
0.003676742
0.00373852
0.003676738
0.003676739
0.003676741
0.003676743
0.003676745
0.003738713
0.003676741
0.003676742
0.003676744
0.003676746
0.003676748
0.003738906
0.003676744
0.003676745
0.003676747
0.003676749
0.003676751
0.003739099
0.003676747
0.003676748
0.00367675
0.003676752
0.003676754
0.003739293
0.00367675
0.003676751
0.003676753
0.003676755
0.003676758
0.003739488
0.003676754
0.003676755
0.003676757
0.003676759
0.003676761
0.003739685
0.003676757
0.003676758
0.00367676
0.003676762
0.003676764
0.003739884
0.00367676
0.003676761
0.003676763
0.003676765
0.003676767
0.003740085
0.003676764
0.003676765
0.003676767
0.003676769
0.003676771
0.003740287
0.003676767
0.003676768
0.00367677
0.003676772
0.003676774
0.003740491
0.00367677
0.003676771
0.003676774
0.003676776
0.003676778
0.003740697
0.003676774
0.003676775
0.003676777
0.003676779
0.003676781
0.003740905
0.003676778
0.003676778
0.003676781
0.003676783
0.003676785
0.003741115
0.003676781
0.003676782
0.003676784
0.003676786
0.003676789
0.003741328
0.003676785
0.003676786
0.003676788
0.00367679
0.003676792
0.003741543
0.003676789
0.003676789
0.003676792
0.003676794
0.003676796
0.003741759
0.003676792
0.003676793
0.003676795
0.003676798
0.0036768
0.003741978
0.003676796
0.003676797
0.003676799
0.003676801
0.003676804
0.003737586
0.003737758
0.003737947
0.003738135
0.003738321
0.003737605
0.003676722
0.003676724
0.003676726
0.003676728
0.00367673
0.003737765
0.003676726
0.003676727
0.003676729
0.003676731
0.003676733
0.003737954
0.003676729
0.00367673
0.003676732
0.003676734
0.003676736
0.003738143
0.003676732
0.003676733
0.003676735
0.003676737
0.003676739
0.003738332
0.003676735
0.003676736
0.003676738
0.00367674
0.003676742
0.003738521
0.003676738
0.003676739
0.003676741
0.003676743
0.003676745
0.003738709
0.003676742
0.003676743
0.003676745
0.003676747
0.003676749
0.003738898
0.003676745
0.003676746
0.003676748
0.00367675
0.003676752
0.003739089
0.003676748
0.003676749
0.003676751
0.003676753
0.003676755
0.003739281
0.003676751
0.003676752
0.003676754
0.003676757
0.003676759
0.003739475
0.003676755
0.003676756
0.003676758
0.00367676
0.003676762
0.00373967
0.003676758
0.003676759
0.003676761
0.003676763
0.003676765
0.003739866
0.003676762
0.003676763
0.003676765
0.003676767
0.003676769
0.003740063
0.003676765
0.003676766
0.003676768
0.00367677
0.003676772
0.003740263
0.003676769
0.003676769
0.003676772
0.003676774
0.003676776
0.003740465
0.003676772
0.003676773
0.003676775
0.003676777
0.003676779
0.003740669
0.003676776
0.003676777
0.003676779
0.003676781
0.003676783
0.003740874
0.00367678
0.00367678
0.003676782
0.003676785
0.003676787
0.003741082
0.003676784
0.003676784
0.003676786
0.003676788
0.003676791
0.003741292
0.003676787
0.003676788
0.00367679
0.003676792
0.003676794
0.003741505
0.003676791
0.003676791
0.003676794
0.003676796
0.003676798
0.003741719
0.003676795
0.003676795
0.003676798
0.0036768
0.003676802
0.003741992
0.003676799
0.003676799
0.003676801
0.003676804
0.003676806
0.003715135
0.003715518
0.003716271
0.003717014
0.003717747
0.003715143
0.003676746
0.003676753
0.003676761
0.003676769
0.003676777
0.00371553
0.003676752
0.003676758
0.003676766
0.003676773
0.003676781
0.003716286
0.003676759
0.003676764
0.00367677
0.003676778
0.003676785
0.003717038
0.003676765
0.003676771
0.003676776
0.003676782
0.00367679
0.003717781
0.003676771
0.003676777
0.003676783
0.003676789
0.003676794
0.00371853
0.003676778
0.003676783
0.003676789
0.003676795
0.003676801
0.003719274
0.003676785
0.00367679
0.003676796
0.003676802
0.003676807
0.003720019
0.003676791
0.003676797
0.003676802
0.003676808
0.003676814
0.003720759
0.003676798
0.003676803
0.003676809
0.003676815
0.00367682
0.003721498
0.003676805
0.00367681
0.003676816
0.003676822
0.003676827
0.003722247
0.003676811
0.003676817
0.003676822
0.003676828
0.003676834
0.003723006
0.003676818
0.003676824
0.003676829
0.003676835
0.003676841
0.003723767
0.003676825
0.003676831
0.003676836
0.003676842
0.003676848
0.003724535
0.003676832
0.003676838
0.003676844
0.003676849
0.003676855
0.003725313
0.003676839
0.003676845
0.003676851
0.003676856
0.003676862
0.003726097
0.003676846
0.003676853
0.003676858
0.003676864
0.003676869
0.003726888
0.003676853
0.00367686
0.003676865
0.003676871
0.003676877
0.003727684
0.00367686
0.003676867
0.003676873
0.003676879
0.003676884
0.003728491
0.003676868
0.003676875
0.00367688
0.003676886
0.003676892
0.003729301
0.003676875
0.003676883
0.003676888
0.003676894
0.0036769
0.003730122
0.003676883
0.003676891
0.003676896
0.003676902
0.003676907
0.003730948
0.00367689
0.003676899
0.003676904
0.00367691
0.003676916
0.003731786
0.003742464
0.003676907
0.003676912
0.003676918
0.003676924
0.003725691
0.003710668
0.003710676
0.003676724
0.00372583
0.003725363
0.003715132
0.003715394
0.003676726
0.003676729
0.003725272
0.003725773
0.003715513
0.003716112
0.00367673
0.003676734
0.003725686
0.003726221
0.003716264
0.003716823
0.003676735
0.003676739
0.003726144
0.003726675
0.003717004
0.003717541
0.003676739
0.003676744
0.003726609
0.003717734
0.003676744
0.003715084
0.003715105
0.003676724
0.003714706
0.00371473
0.003676724
0.003714703
0.003714726
0.003676723
0.0037147
0.003714726
0.003676723
0.003714699
0.003714723
0.003676723
0.0037147
0.003714726
0.003676723
0.003714699
0.003714723
0.003676723
0.003714698
0.003714724
0.003676723
0.003714696
0.003714723
0.003676723
0.003714698
0.003714724
0.003676723
0.003714697
0.003714723
0.003676723
0.003714701
0.003714722
0.003676723
0.003714698
0.003714723
0.003676723
0.003714701
0.003714727
0.003676723
0.003714701
0.003714729
0.003676724
0.003715085
0.003715106
0.003676724
0.003710665
0.003710672
0.003676724
0.003725691
0.003716112
0.003676732
0.003676734
0.003725276
0.003725773
0.003716825
0.003676733
0.003676739
0.003725687
0.003726221
0.003717542
0.003676738
0.003676744
0.003726145
0.003726675
0.003676742
0.003726609
0.003676728
0.003715383
0.003676732
0.003725826
0.003725358
0.003676734
0.0037161
0.003676739
0.003725269
0.003725771
0.00367674
0.003716814
0.003676745
0.003725687
0.003726225
0.003676747
0.003717538
0.003676752
0.003726146
0.003726686
0.003676753
0.003718271
0.003676759
0.003726617
0.003727155
0.00367676
0.003719009
0.003676766
0.003727094
0.003727631
0.003676767
0.003719753
0.003676773
0.003727577
0.003728113
0.003676774
0.0037205
0.003676781
0.003728068
0.003728596
0.003676781
0.00372125
0.003676788
0.003728549
0.003729071
0.003676788
0.003721998
0.003676796
0.003729028
0.003729551
0.003676795
0.003722755
0.003676803
0.003729506
0.003730036
0.003676826
0.00372583
0.003676835
0.003731458
0.003732024
0.003676834
0.003726617
0.003676844
0.003731957
0.003732533
0.003676842
0.003727411
0.003676852
0.003732461
0.00373305
0.003676851
0.003728216
0.003676861
0.003732969
0.00373357
0.003676859
0.003729026
0.00367687
0.003733483
0.003734097
0.003676895
0.00373239
0.003676907
0.003735594
0.00367728
0.003676759
0.003699025
0.003676762
0.003698701
0.003676755
0.003699198
0.003725826
0.003725358
0.003715142
0.003676728
0.003715389
0.003676732
0.003725269
0.003725771
0.003715528
0.003676734
0.003716107
0.003676739
0.003725686
0.003726225
0.003716286
0.00367674
0.003716822
0.003676745
0.003726146
0.003726686
0.003717036
0.003676747
0.00371755
0.003676752
0.003726617
0.003727155
0.003717779
0.003676753
0.003718284
0.003676759
0.003727093
0.003727631
0.003718528
0.00367676
0.003719025
0.003676766
0.003727577
0.003728113
0.003719273
0.003676767
0.003719769
0.003676773
0.003728067
0.003728596
0.003720017
0.003676774
0.00372052
0.003676781
0.003728549
0.003729071
0.003720757
0.003676781
0.003721269
0.003676788
0.003729027
0.003729551
0.003721497
0.003676788
0.00372202
0.003676796
0.003729507
0.003730035
0.003722246
0.003676796
0.003722774
0.003676803
0.003729989
0.003730526
0.003723003
0.003676803
0.003723538
0.003676811
0.003730473
0.003731019
0.003723765
0.003676811
0.003724303
0.003676819
0.003730963
0.003731518
0.003724533
0.003676818
0.003725077
0.003676827
0.003731457
0.003732023
0.003725311
0.003676826
0.003725855
0.003676835
0.003731957
0.003732533
0.003726095
0.003676834
0.003726644
0.003676844
0.00373246
0.00373305
0.003726885
0.003676842
0.003727439
0.003676852
0.003732968
0.003733569
0.003727682
0.003676851
0.003728244
0.003676861
0.003733482
0.003734096
0.003728489
0.003676859
0.003729053
0.00367687
0.003734001
0.003734627
0.003729299
0.003676868
0.003729875
0.003676879
0.003734524
0.003735166
0.003730119
0.003676876
0.003730702
0.003676888
0.003735054
0.003735711
0.003730946
0.003676885
0.003731542
0.003676897
0.003735594
0.003677281
0.003731787
0.003676895
0.003732391
0.003676906
0.003676758
0.003676757
0.003676759
0.003676758
0.003676759
0.003676758
0.003676759
0.003676758
0.003676759
0.003676758
0.003676759
0.003676758
0.003676759
0.003676758
0.003676758
0.003676758
0.003676758
0.003676757
0.003715395
0.003676724
0.003676729
0.00372583
0.003725361
0.003676803
0.003723514
0.003676811
0.003729988
0.003730525
0.00367681
0.00372428
0.003676819
0.003730474
0.003731018
0.003676818
0.00372505
0.003676799
0.003730963
0.0037315
0.003676868
0.003729847
0.003676879
0.003734001
0.003734628
0.003676876
0.003730675
0.003676888
0.003734525
0.003735166
0.003676885
0.003731513
0.003676853
0.003735056
0.003735689
0.003676746
0.003698826
0.00367675
0.003699977
0.00367675
0.003698811
0.003676757
0.003699971
0.003676757
0.003676756
0.003676758
0.003699792
0.003676763
0.003699124
0.003676758
0.003676757
0.003676758
0.003676757
0.003676758
0.003676757
0.003676758
0.003676757
0.003676758
0.003676757
0.003676758
0.003676757
0.003676758
0.003676757
0.003676757
0.003676756
0.003676758
0.003699028
0.003676746
0.00369883
0.003676751
0.003699979
0.00367675
0.003698811
0.003676757
0.00369997
0.003676775
0.003699731
0.00367677
0.003700269
0.00367677
0.003700933
0.003676775
0.003700208
0.00367679
0.003700894
0.003676774
0.003701385
0.003676781
0.003702071
0.003676787
0.00370135
0.003676806
0.003702043
0.003676786
0.003702469
0.003676793
0.003703192
0.0036768
0.003702468
0.003676822
0.00370316
0.003676799
0.003703545
0.003676806
0.003703557
0.003676765
0.003698695
0.003676753
0.003699178
0.003676765
0.003699769
0.003676774
0.003699125
0.00367678
0.003699721
0.003676763
0.003700252
0.00367678
0.003700911
0.00367679
0.003700221
0.003676796
0.003700922
0.003676774
0.003701366
0.003676795
0.003702054
0.003676807
0.003701386
0.003676812
0.003702083
0.003676785
0.003702459
0.00367681
0.00370319
0.003676825
0.00370252
0.00367683
0.003703224
0.003676798
0.003703557
0.003676826
0.003704316
0.003676843
0.003703634
0.003676848
0.003704357
0.003676811
0.003704659
0.003676842
0.00370544
0.003676862
0.003704757
0.003676866
0.003705484
0.003676824
0.003705765
0.003676859
0.003706574
0.003676882
0.003705875
0.003676885
0.003706619
0.003676838
0.00370688
0.003676876
0.003707709
0.003676903
0.003706991
0.003676894
0.003708858
0.003676924
0.003708109
0.003676925
0.003708903
0.003676868
0.003709125
0.003676911
0.003710014
0.003676946
0.00370923
0.003676946
0.00371005
0.003676884
0.003710261
0.00367693
0.003711178
0.003676969
0.003710359
0.003677037
0.003714703
0.003676953
0.003714895
0.00367706
0.00371588
0.003676971
0.003716078
0.00367703
0.003717133
0.00367709
0.003716111
0.003677085
0.00371707
0.003676989
0.003717273
0.003677052
0.003718356
0.003677117
0.003717288
0.003677109
0.003718268
0.003677009
0.003718481
0.003677074
0.003719591
0.003677144
0.003718474
0.003677135
0.003719479
0.003677029
0.003719699
0.003677097
0.003720836
0.003677172
0.003719673
0.003677194
0.003725203
0.003724572
0.003677289
0.003709103
0.003708535
0.003706989
0.003706918
0.003706996
0.003706939
0.003707141
0.003707139
0.003707014
0.003707119
0.003707067
0.003707002
0.003707122
0.003707158
0.003707082
0.003706994
0.003707117
0.003707113
0.003706982
0.003707087
0.003706914
0.003706894
0.003706998
0.003706934
0.003707089
0.003707095
0.00370713
0.003707155
0.003707003
0.003706957
0.003707044
0.003707124
0.003706906
0.003706923
0.003707035
0.003707032
0.003707032
0.003707097
0.00370907
0.003708533
0.003703688
0.003703536
0.003703781
0.003703394
0.003703681
0.003703533
0.003703785
0.003703377
0.003705287
0.00370529
0.003705508
0.003705065
0.003705615
0.003705367
0.0037054
0.003705597
0.003703926
0.003703579
0.003703689
0.003703843
0.003704448
0.003704416
0.003704198
0.00370465
0.003704772
0.003704491
0.003704556
0.003704719
0.003706145
0.003706176
0.003705924
0.003706414
0.003706994
0.003707057
0.003706785
0.003707296
0.003707312
0.00370716
0.00370714
0.003707351
0.003707845
0.003707942
0.003708181
0.003707651
0.003708159
0.003708053
0.003708002
0.003708227
0.003708698
0.00370883
0.003708519
0.003709069
0.003709009
0.003708943
0.003708866
0.003709106
0.003709554
0.003709722
0.00370996
0.003709388
0.00367687
0.003707757
0.003676853
0.003707948
0.003711282
0.003711522
0.00371114
0.003711755
0.003711588
0.003711635
0.003711484
0.003711772
0.003712155
0.003712432
0.003712024
0.003712661
0.003712459
0.003712544
0.003712367
0.003712673
0.003713033
0.003713346
0.003713573
0.003712914
0.003716002
0.003716238
0.003716329
0.003715967
0.003677009
0.003715853
0.003677004
0.003714944
0.003716911
0.003717188
0.003716889
0.003717273
0.003720333
0.003720948
0.003721137
0.003720313
0.003677155
0.003724425
0.003677114
0.003724614
0.003724224
0.003724979
0.003724251
0.00372515
0.003706742
0.003703935
0.003704675
0.003705118
0.003706718
0.003703876
0.003704548
0.003705101
0.003708063
0.003707425
0.003707058
0.003707022
0.003707054
0.003707001
0.0037071
0.003707095
0.003706942
0.003706939
0.003707024
0.003707028
0.003707005
0.003706932
0.003707091
0.003707108
0.003707034
0.003707026
0.003706927
0.003706975
0.003698692
0.003676752
0.003699203
0.003676757
0.003699792
0.003676769
0.003699131
0.003676757
0.003711201
0.003676945
0.003711403
0.003676967
0.003712347
0.003711494
0.003676949
0.003676992
0.003712358
0.003712556
0.003676991
0.003676917
0.003713533
0.003712632
0.003676969
0.003677015
0.003713527
0.003713718
0.003677013
0.003676934
0.003714656
0.003676984
0.003713782
0.003676934
0.003720698
0.003677125
0.003720932
0.00367716
0.003722095
0.003720883
0.00367712
0.003677199
0.003721928
0.003722168
0.003677188
0.00367707
0.003723366
0.0037221
0.003677144
0.003677229
0.003723172
0.003723425
0.003677214
0.003677092
0.003724571
0.003677171
0.00372333
0.003677082
0.003707
0.003707168
0.00370706
0.003707022
0.003707007
0.003706959
0.003707042
0.003707033
0.003707053
0.003706988
0.003707031
0.003707068
0.003706899
0.003706901
0.00370709
0.00370709
0.003707026
0.003707066
0.00370796
0.003707219
0.003706717
0.003703951
0.003705134
0.003704675
0.003706704
0.003703866
0.003705092
0.003704542
0.003703726
0.003703495
0.003703927
0.003703401
0.003703701
0.003703442
0.003703865
0.003703372
0.003705677
0.00370569
0.003705474
0.003705895
0.003704007
0.003703951
0.003703754
0.00370418
0.003704337
0.003704021
0.003704109
0.003704255
0.003704857
0.003704828
0.00370462
0.003705054
0.003705706
0.0037057
0.003705487
0.003705926
0.003706023
0.003705797
0.003705826
0.003705997
0.00370655
0.003706574
0.003706347
0.003706794
0.003706863
0.003706665
0.00370668
0.003706861
0.003707394
0.003707448
0.003707203
0.003707666
0.003707705
0.003707551
0.003707728
0.003707537
0.003708243
0.003708326
0.003708067
0.003708543
0.00370855
0.00370844
0.003708396
0.003708597
0.003709094
0.003709207
0.003708931
0.00370942
0.003709398
0.003709325
0.003709467
0.003709257
0.003711105
0.003711105
0.003710993
0.003711222
0.003711673
0.003711881
0.003711552
0.003712075
0.003711969
0.003712
0.003711871
0.003712105
0.003712543
0.003712784
0.003712434
0.00371297
0.003712838
0.003712902
0.003712996
0.003712754
0.003717001
0.003717405
0.003716963
0.003717555
0.00371978
0.003720282
0.003719789
0.003720409
0.00372007
0.0037204
0.003720401
0.003720095
0.003723918
0.003724371
0.003724329
0.003723999
0.003732636
0.003676904
0.003677127
0.003677135
0.003732637
0.003676904
0.003725096
0.003677224
0.003724504
0.003725069
0.003724595
0.003725089
0.003698696
0.003676758
0.003676764
0.003699178
0.00367678
0.003699726
0.003676764
0.003700251
0.003676796
0.003700928
0.003676775
0.003701365
0.003676812
0.003702087
0.003676786
0.003702459
0.00367683
0.003703226
0.003676799
0.003703557
0.003676848
0.00370436
0.003676812
0.00370466
0.003676866
0.003705488
0.003676825
0.003705765
0.003676885
0.003706623
0.003676839
0.003706881
0.003676905
0.003707761
0.003676854
0.003707999
0.003676925
0.003708906
0.003676869
0.003709127
0.003676946
0.003710055
0.003676885
0.00371026
0.003676968
0.003711205
0.003676901
0.003711405
0.003676991
0.003712361
0.003676918
0.003712556
0.003677014
0.003713526
0.003676935
0.00371372
0.003677037
0.0037147
0.003676953
0.003714894
0.00367706
0.003715881
0.003676971
0.00371608
0.003677085
0.003717071
0.00367699
0.003717276
0.003677109
0.00371827
0.003677009
0.003718484
0.003677135
0.003719483
0.003677029
0.003719702
0.003677161
0.003720701
0.00367705
0.003720932
0.003677187
0.003721932
0.003677071
0.003722172
0.003677215
0.00372317
0.003677093
0.003723426
0.003677243
0.003724422
0.003677115
0.003724691
0.003703682
0.003703533
0.003703786
0.003703379
0.003706127
0.003706161
0.003706375
0.003705925
0.003706452
0.00370624
0.003706247
0.003706465
0.003706963
0.003707029
0.00370724
0.003706779
0.003705297
0.003705296
0.00370506
0.003705533
0.003705604
0.003705386
0.003705402