/*--------------------------------*- C++ -*----------------------------------*\
  =========                 |
  \\      /  F ield         | OpenFOAM: The Open Source CFD Toolbox
   \\    /   O peration     | Website:  https://openfoam.org
    \\  /    A nd           | Version:  7
     \\/     M anipulation  |
\*---------------------------------------------------------------------------*/
FoamFile
{
    version     2.0;
    format      ascii;
    class       volScalarField;
    location    "0.02";
    object      nut;
}
// * * * * * * * * * * * * * * * * * * * * * * * * * * * * * * * * * * * * * //

dimensions      [0 2 -1 0 0 0 0];

internalField   nonuniform List<scalar> 
73374
(
0.0002743998
0.001339763
0.001313943
0.001305453
0.001303429
0.001302872
0.001302687
0.001302612
0.001302612
0.001302673
0.001302811
0.0002765589
0.001305487
0.00125848
0.001243935
0.001240086
0.001238957
0.001238576
0.001238449
0.001238454
0.001238572
0.001238802
0.0002766042
0.001294827
0.001241771
0.001223714
0.001218684
0.001217121
0.001216557
0.001216358
0.001216357
0.001216509
0.001216808
0.0002765566
0.001292144
0.001237199
0.001217951
0.001212298
0.001210448
0.001209745
0.001209495
0.00120948
0.001209647
0.001209984
0.0002764991
0.001291327
0.001235788
0.001216092
0.001210146
0.001208125
0.001207331
0.001207039
0.001207006
0.00120717
0.001207518
0.000276436
0.001290997
0.001235235
0.001215348
0.00120926
0.00120715
0.001206305
0.001205987
0.001205941
0.001206097
0.001206441
0.0002763724
0.001290843
0.001234991
0.001215022
0.00120887
0.001206718
0.001205853
0.00120553
0.001205486
0.001205644
0.001205986
0.0002763103
0.001290756
0.001234866
0.001214865
0.001208691
0.00120653
0.001205671
0.001205372
0.001205363
0.001205552
0.001205918
0.0002762494
0.001290699
0.001234795
0.001214786
0.001208614
0.001206476
0.001205664
0.001205446
0.001205551
0.001205861
0.001206319
0.0002761896
0.001290655
0.001234752
0.001214752
0.001208606
0.001206528
0.001205837
0.001205837
0.001206272
0.001206956
0.001207705
0.0002761308
0.001290619
0.001234726
0.00121475
0.001208659
0.001206703
0.00120634
0.001207062
0.001208615
0.001210555
0.0012123
0.0002760729
0.001290591
0.001234717
0.00121478
0.001208776
0.001207036
0.001207387
0.001210947
0.001216925
0.001222698
0.001228212
0.0002760157
0.001290569
0.001234721
0.001214837
0.001208954
0.001207537
0.001208973
0.001216901
0.001244891
0.00125216
0.001278415
0.0002759585
0.001290558
0.001234747
0.001214925
0.001209175
0.001208117
0.001210715
0.001222238
0.001251032
0.0005671284
0.0005857917
0.0002759004
0.001290565
0.001234805
0.001215051
0.001209419
0.001208634
0.001212097
0.001226863
0.00127425
0.0005841858
0.0002856133
0.0002758398
0.001290604
0.001234913
0.001215232
0.001209689
0.001209051
0.001212939
0.001229427
0.001277065
0.0005888438
0.0002945286
0.0002757756
0.001290686
0.00123507
0.001215464
0.001209987
0.001209414
0.001213428
0.001230082
0.001277387
0.0005889038
0.000294738
0.0002757067
0.0012908
0.001235239
0.001215689
0.001210249
0.001209677
0.00121363
0.001230302
0.001278652
0.0005894939
0.0002949908
0.0002756341
0.001290898
0.00123533
0.001215789
0.001210325
0.001209644
0.001213189
0.001228114
0.001276033
0.0005887281
0.0002953349
0.000275559
0.0005775416
0.000617821
0.0001011827
0.0001011188
0.0001014077
0.0001012356
0.0001011892
0.0001011457
0.0001011247
0.0001011199
0.000101121
0.0001011256
0.0006127535
0.0001011165
0.000101261
0.0001013055
0.0001013474
0.0001013496
0.0001013327
0.0001013382
0.0001013419
0.0001013449
0.0001013467
0.001295129
0.0001012308
0.0001011729
0.0001011646
0.0001011655
0.0001011618
0.0001011627
0.0001011601
0.0001011568
0.0001011541
0.0001011515
0.001276333
0.0001011921
0.0001011196
0.0001011303
0.0001011345
0.0001011344
0.0001011358
0.000101135
0.0001011327
0.0001011306
0.0001011287
0.001269578
0.0001011637
0.0001011082
0.0001011039
0.0001011042
0.0001011036
0.0001011044
0.0001011039
0.0001011035
0.0001011031
0.0001011027
0.001268018
0.0001011695
0.0001011048
0.0001011022
0.0001011031
0.0001011029
0.0001011033
0.0001011031
0.0001011029
0.0001011025
0.0001011022
0.001267614
0.0001011681
0.0001011031
0.0001010995
0.0001010997
0.0001010992
0.0001010992
0.0001010991
0.0001010991
0.000101099
0.0001010989
0.001267447
0.0001011684
0.0001011024
0.0001010989
0.000101099
0.0001010986
0.0001010986
0.0001010985
0.0001010986
0.0001010985
0.0001010985
0.00126736
0.0001011676
0.000101102
0.0001010984
0.0001010984
0.0001010978
0.0001010978
0.0001010977
0.0001010978
0.0001010977
0.0001010979
0.001267301
0.0001011668
0.0001011016
0.0001010981
0.000101098
0.0001010974
0.0001010974
0.0001010973
0.0001010975
0.0001010977
0.000101098
0.001267252
0.0001011657
0.0001011014
0.0001010978
0.0001010977
0.000101097
0.0001010969
0.0001010969
0.0001010972
0.0001010977
0.0001010984
0.001267208
0.0001011646
0.0001011012
0.0001010976
0.0001010976
0.0001010969
0.0001010968
0.0001010968
0.0001010971
0.0001010977
0.0001010992
0.001267166
0.0001011639
0.000101101
0.0001010974
0.0001010973
0.0001010965
0.0001010966
0.0001010967
0.0001010971
0.0001010986
0.0001011008
0.001267128
0.0001011638
0.0001011009
0.0001010974
0.0001010974
0.0001010966
0.0001010964
0.0001010965
0.0001010976
0.0001010987
0.0001011084
0.001267095
0.0001011648
0.0001011008
0.0001010972
0.0001010973
0.0001010963
0.0001010972
0.0001010963
0.0001010964
0.0001010937
0.0001010938
0.001267075
0.0001011671
0.0001011009
0.0001010971
0.0001010971
0.0001010963
0.0001010962
0.0001010962
0.0001010973
0.0001010895
0.0001010998
0.001267072
0.0001011711
0.0001011012
0.0001010971
0.0001010972
0.0001010964
0.0001010971
0.0001010966
0.0001010978
0.0001010927
0.0001012172
0.001267085
0.0001011766
0.0001011016
0.0001010973
0.0001010974
0.0001010967
0.0001010971
0.0001010973
0.0001010992
0.0001010937
0.0001011095
0.001267102
0.0001011833
0.0001011022
0.0001010977
0.0001010979
0.0001010972
0.0001010987
0.0001010987
0.0001011035
0.0001011064
0.000101498
0.001267088
0.0001011905
0.000101103
0.0001010984
0.0001010986
0.0001010977
0.0001011
0.0001011005
0.0001011045
0.0001011029
0.0001011778
0.0001011318
0.0001011865
0.0001011118
0.000101112
0.0001011106
0.0001011053
0.0001011049
0.0001011046
0.0001011015
0.0001011007
0.0001010963
0.0006075585
0.0001010973
0.0001011076
0.0001010946
0.0001010905
0.0001010921
0.000101092
0.0001010922
0.0001010905
0.0001010891
0.000101089
0.001272843
0.0001012132
0.0001010913
0.0001010912
0.0001010907
0.0001010892
0.000101089
0.0001010887
0.0001010888
0.0001010889
0.0001010889
0.001238805
0.0001012256
0.0001010887
0.0001010884
0.0001010884
0.0001010885
0.0001010885
0.0001010885
0.0001010885
0.0001010885
0.0001010886
0.001228106
0.0001011553
0.0001010888
0.0001010886
0.0001010886
0.0001010886
0.0001010887
0.0001010887
0.0001010887
0.0001010888
0.0001010888
0.001225436
0.0001011599
0.0001010886
0.0001010886
0.0001010886
0.0001010886
0.0001010887
0.0001010887
0.0001010888
0.0001010888
0.0001010889
0.001224721
0.0001011546
0.0001010888
0.0001010887
0.0001010888
0.0001010888
0.0001010888
0.0001010889
0.000101089
0.0001010891
0.0001010892
0.001224449
0.0001011548
0.0001010887
0.0001010887
0.0001010887
0.0001010888
0.0001010888
0.0001010889
0.000101089
0.0001010892
0.0001010894
0.001224324
0.0001011539
0.0001010887
0.0001010887
0.0001010887
0.0001010888
0.0001010889
0.000101089
0.0001010891
0.0001010894
0.0001010897
0.001224252
0.000101153
0.0001010887
0.0001010887
0.0001010887
0.0001010888
0.0001010889
0.000101089
0.0001010892
0.0001010895
0.00010109
0.001224198
0.0001011521
0.0001010887
0.0001010887
0.0001010887
0.0001010887
0.0001010888
0.000101089
0.0001010893
0.0001010897
0.0001010904
0.001224145
0.0001011513
0.0001010886
0.0001010886
0.0001010886
0.0001010886
0.0001010887
0.0001010889
0.0001010892
0.0001010898
0.0001010913
0.001224093
0.0001011506
0.0001010886
0.0001010886
0.0001010885
0.0001010885
0.0001010886
0.0001010888
0.0001010892
0.0001010905
0.0001010925
0.001224047
0.0001011506
0.0001010886
0.0001010885
0.0001010885
0.0001010884
0.0001010884
0.0001010885
0.0001010892
0.0001010903
0.0001010995
0.001224013
0.0001011514
0.0001010886
0.0001010885
0.0001010884
0.0001010883
0.0001010882
0.0001010883
0.0001010884
0.0001010928
0.0001010928
0.001224001
0.0001011536
0.0001010886
0.0001010885
0.0001010884
0.0001010883
0.0001010882
0.0001010882
0.000101089
0.0001010895
0.0001010963
0.00122402
0.0001011572
0.0001010887
0.0001010886
0.0001010885
0.0001010885
0.0001010885
0.0001010886
0.0001010895
0.0001010933
0.0001012162
0.001224069
0.0001011622
0.0001010888
0.0001010887
0.0001010887
0.0001010888
0.0001010889
0.0001010892
0.0001010912
0.0001010925
0.0001011087
0.001224128
0.0001011682
0.0001010889
0.0001010889
0.000101089
0.0001010892
0.0001010897
0.0001010907
0.000101095
0.000101107
0.0001016606
0.001224152
0.0001011746
0.0001010891
0.0001010892
0.0001010893
0.0001010898
0.0001010904
0.0001010927
0.0001010961
0.0001011044
0.0001011512
0.0001011295
0.0001013159
0.0001011159
0.0001011103
0.0001011146
0.0001011211
0.000101099
0.0001011015
0.0001011004
0.0001010949
0.0001010969
0.0006066629
0.0001011009
0.0001011035
0.0001011025
0.0001010972
0.0001011038
0.000101095
0.0001010932
0.0001010938
0.0001010912
0.0001010915
0.00126452
0.0001012112
0.0001010965
0.0001010894
0.0001010883
0.0001010887
0.0001010885
0.0001010886
0.0001010886
0.0001010886
0.0001010886
0.001226497
0.0001012338
0.0001010885
0.0001010884
0.0001010885
0.0001010887
0.0001010886
0.0001010885
0.0001010885
0.0001010885
0.0001010886
0.001213439
0.0001011527
0.0001010887
0.0001010885
0.0001010886
0.0001010886
0.0001010886
0.0001010887
0.0001010887
0.0001010888
0.0001010888
0.001210122
0.0001011598
0.0001010886
0.0001010885
0.0001010885
0.0001010885
0.0001010886
0.0001010887
0.0001010887
0.0001010888
0.0001010889
0.001209192
0.0001011534
0.0001010888
0.0001010887
0.0001010888
0.0001010888
0.0001010889
0.0001010889
0.000101089
0.0001010891
0.0001010892
0.001208838
0.0001011537
0.0001010887
0.0001010887
0.0001010887
0.0001010888
0.0001010888
0.0001010889
0.000101089
0.0001010892
0.0001010894
0.001208692
0.0001011527
0.0001010887
0.0001010887
0.0001010887
0.0001010888
0.0001010889
0.000101089
0.0001010891
0.0001010894
0.0001010897
0.001208627
0.0001011519
0.0001010887
0.0001010887
0.0001010887
0.0001010888
0.0001010889
0.000101089
0.0001010892
0.0001010895
0.00010109
0.001208572
0.0001011508
0.0001010887
0.0001010887
0.0001010887
0.0001010887
0.0001010888
0.000101089
0.0001010892
0.0001010897
0.0001010904
0.001208501
0.0001011498
0.0001010886
0.0001010886
0.0001010886
0.0001010886
0.0001010887
0.0001010889
0.0001010892
0.0001010898
0.0001010913
0.001208415
0.0001011491
0.0001010886
0.0001010886
0.0001010885
0.0001010885
0.0001010886
0.0001010887
0.0001010891
0.0001010905
0.0001010925
0.001208338
0.0001011493
0.0001010886
0.0001010885
0.0001010885
0.0001010884
0.0001010884
0.0001010885
0.0001010892
0.0001010904
0.0001010994
0.001208286
0.0001011501
0.0001010886
0.0001010885
0.0001010884
0.0001010883
0.0001010882
0.0001010883
0.0001010884
0.0001010941
0.000101093
0.001208273
0.0001011523
0.0001010886
0.0001010885
0.0001010884
0.0001010883
0.0001010882
0.0001010882
0.0001010891
0.0001010897
0.0001010969
0.001208308
0.0001011559
0.0001010887
0.0001010886
0.0001010885
0.0001010885
0.0001010885
0.0001010886
0.0001010896
0.0001010931
0.0001012205
0.001208391
0.0001011608
0.0001010888
0.0001010887
0.0001010887
0.0001010888
0.0001010889
0.0001010892
0.0001010912
0.0001010924
0.000101108
0.001208491
0.0001011666
0.0001010889
0.0001010889
0.000101089
0.0001010892
0.0001010897
0.0001010907
0.0001010951
0.0001011072
0.0001016617
0.001208552
0.000101173
0.0001010891
0.0001010892
0.0001010893
0.0001010898
0.0001010904
0.0001010927
0.0001010961
0.000101105
0.0001011517
0.0001011301
0.000101368
0.0001011096
0.0001011351
0.0001011228
0.0001010972
0.0001011035
0.0001010992
0.0001010947
0.0001010997
0.0001010945
0.0006065347
0.0001011004
0.0001010961
0.0001011008
0.0001011025
0.0001010892
0.0001010925
0.0001010902
0.000101089
0.0001010895
0.0001010892
0.001262813
0.0001012172
0.0001010946
0.0001010902
0.0001010884
0.0001010901
0.0001010886
0.0001010888
0.000101089
0.0001010888
0.0001010886
0.001223847
0.0001012406
0.0001010886
0.0001010883
0.0001010886
0.0001010885
0.0001010885
0.0001010884
0.0001010885
0.0001010885
0.0001010885
0.001210221
0.0001011546
0.0001010886
0.0001010886
0.0001010885
0.0001010888
0.0001010886
0.0001010887
0.0001010887
0.0001010887
0.0001010888
0.001206593
0.0001011619
0.0001010886
0.0001010885
0.0001010885
0.0001010886
0.0001010886
0.0001010886
0.0001010887
0.0001010888
0.0001010889
0.001205479
0.0001011537
0.0001010888
0.0001010887
0.0001010888
0.0001010888
0.0001010888
0.0001010889
0.000101089
0.0001010891
0.0001010892
0.00120504
0.000101154
0.0001010887
0.0001010887
0.0001010887
0.0001010888
0.0001010888
0.0001010889
0.000101089
0.0001010892
0.0001010894
0.001204929
0.0001011532
0.0001010887
0.0001010887
0.0001010887
0.0001010888
0.0001010889
0.000101089
0.0001010891
0.0001010894
0.0001010897
0.001204946
0.0001011516
0.0001010887
0.0001010887
0.0001010887
0.0001010888
0.0001010889
0.000101089
0.0001010892
0.0001010895
0.00010109
0.001204921
0.0001011511
0.0001010887
0.0001010886
0.0001010887
0.0001010887
0.0001010888
0.000101089
0.0001010892
0.0001010897
0.0001010904
0.00120479
0.0001011507
0.0001010886
0.0001010886
0.0001010886
0.0001010886
0.0001010887
0.0001010889
0.0001010892
0.0001010898
0.0001010913
0.00120458
0.0001011492
0.0001010886
0.0001010886
0.0001010885
0.0001010885
0.0001010886
0.0001010887
0.0001010891
0.0001010906
0.0001010925
0.001204383
0.0001011498
0.0001010886
0.0001010885
0.0001010885
0.0001010884
0.0001010884
0.0001010885
0.0001010892
0.0001010903
0.0001010993
0.001204264
0.0001011503
0.0001010886
0.0001010885
0.0001010884
0.0001010883
0.0001010882
0.0001010883
0.0001010884
0.0001010938
0.0001010926
0.001204225
0.0001011525
0.0001010886
0.0001010885
0.0001010884
0.0001010883
0.0001010882
0.0001010882
0.000101089
0.0001010897
0.000101097
0.001204265
0.000101156
0.0001010887
0.0001010886
0.0001010885
0.0001010885
0.0001010885
0.0001010886
0.0001010896
0.0001010932
0.0001012202
0.001204374
0.000101161
0.0001010888
0.0001010887
0.0001010887
0.0001010888
0.0001010889
0.0001010892
0.0001010912
0.0001010924
0.0001011079
0.00120451
0.0001011668
0.0001010889
0.0001010889
0.000101089
0.0001010892
0.0001010897
0.0001010907
0.0001010951
0.000101107
0.00010166
0.001204605
0.0001011732
0.0001010891
0.0001010892
0.0001010893
0.0001010898
0.0001010904
0.0001010927
0.0001010961
0.0001011044
0.0001011518
0.0001011299
0.0001013695
0.0001011108
0.0001011059
0.000101099
0.0001010992
0.000101095
0.0001011078
0.0001011016
0.0001010978
0.0001010935
0.0006064852
0.0001011033
0.0001010926
0.000101103
0.0001010904
0.0001010907
0.0001010897
0.0001010937
0.0001010894
0.0001010902
0.0001010889
0.001263905
0.0001012081
0.0001010943
0.0001010896
0.0001010946
0.0001010886
0.0001010904
0.0001010885
0.0001010888
0.0001010887
0.0001010891
0.001225545
0.0001012411
0.0001010886
0.0001010888
0.0001010885
0.0001010884
0.0001010885
0.0001010885
0.0001010885
0.0001010885
0.0001010885
0.001212019
0.0001011544
0.0001010888
0.0001010885
0.0001010889
0.0001010886
0.0001010887
0.0001010886
0.0001010886
0.0001010887
0.0001010888
0.001208105
0.000101161
0.0001010886
0.0001010885
0.0001010886
0.0001010886
0.0001010886
0.0001010886
0.0001010887
0.0001010888
0.0001010889
0.001206584
0.0001011537
0.0001010888
0.0001010887
0.0001010888
0.0001010888
0.0001010889
0.0001010889
0.000101089
0.0001010891
0.0001010892
0.001205968
0.0001011541
0.0001010887
0.0001010887
0.0001010887
0.0001010888
0.0001010888
0.0001010889
0.000101089
0.0001010892
0.0001010894
0.001206065
0.0001011533
0.0001010887
0.0001010887
0.0001010887
0.0001010888
0.0001010889
0.000101089
0.0001010891
0.0001010894
0.0001010897
0.001206426
0.0001011527
0.0001010887
0.0001010887
0.0001010887
0.0001010888
0.0001010888
0.000101089
0.0001010892
0.0001010895
0.00010109
0.001206535
0.0001011511
0.0001010887
0.0001010886
0.0001010887
0.0001010887
0.0001010888
0.000101089
0.0001010892
0.0001010897
0.0001010904
0.001206202
0.0001011499
0.0001010886
0.0001010886
0.0001010886
0.0001010886
0.0001010887
0.0001010889
0.0001010892
0.0001010898
0.0001010913
0.0012055
0.0001011491
0.0001010886
0.0001010885
0.0001010885
0.0001010885
0.0001010886
0.0001010887
0.0001010891
0.0001010906
0.0001010925
0.001204745
0.0001011502
0.0001010886
0.0001010885
0.0001010885
0.0001010884
0.0001010884
0.0001010885
0.0001010892
0.0001010903
0.0001010993
0.001204258
0.0001011502
0.0001010886
0.0001010885
0.0001010884
0.0001010883
0.0001010882
0.0001010883
0.0001010884
0.0001010938
0.0001010926
0.001204081
0.0001011525
0.0001010886
0.0001010885
0.0001010884
0.0001010883
0.0001010882
0.0001010882
0.000101089
0.0001010897
0.0001010969
0.001204113
0.0001011559
0.0001010887
0.0001010886
0.0001010885
0.0001010885
0.0001010885
0.0001010886
0.0001010896
0.0001010929
0.0001012188
0.001204254
0.0001011609
0.0001010888
0.0001010887
0.0001010887
0.0001010888
0.0001010889
0.0001010892
0.0001010911
0.0001010931
0.000101108
0.001204433
0.0001011668
0.0001010889
0.0001010889
0.000101089
0.0001010892
0.0001010897
0.0001010907
0.0001010951
0.000101105
0.0001016728
0.001204552
0.0001011732
0.0001010891
0.0001010892
0.0001010893
0.0001010898
0.0001010904
0.0001010927
0.0001010962
0.0001011026
0.0001011548
0.001204551
0.0001011294
0.000101353
0.0001011126
0.0001011183
0.0001011208
0.0001010973
0.0001011022
0.0001010975
0.0001010942
0.0001011005
0.0001010959
0.0006067601
0.0001011022
0.0001010944
0.0001010987
0.0001011021
0.0001010889
0.0001010927
0.0001010903
0.000101089
0.0001010932
0.0001010917
0.00127104
0.000101202
0.0001010943
0.0001010901
0.0001010888
0.0001010897
0.0001010886
0.0001010887
0.0001010886
0.0001010885
0.0001010886
0.001236094
0.0001012347
0.0001010886
0.0001010883
0.0001010886
0.0001010885
0.0001010885
0.0001010885
0.0001010885
0.0001010885
0.0001010886
0.001223295
0.0001011584
0.0001010886
0.0001010886
0.0001010885
0.0001010888
0.0001010886
0.0001010887
0.0001010887
0.0001010887
0.0001010888
0.00121807
0.0001011765
0.0001010886
0.0001010885
0.0001010885
0.0001010886
0.0001010886
0.0001010886
0.0001010887
0.0001010888
0.0001010889
0.001215364
0.0001011606
0.0001010888
0.0001010887
0.0001010888
0.0001010888
0.0001010889
0.0001010889
0.000101089
0.0001010891
0.0001010892
0.001214022
0.000101154
0.0001010887
0.0001010887
0.0001010887
0.0001010888
0.0001010889
0.0001010889
0.000101089
0.0001010892
0.0001010894
0.001215064
0.000101148
0.0001010887
0.0001010887
0.0001010887
0.0001010888
0.0001010889
0.000101089
0.0001010891
0.0001010894
0.0001010897
0.001216602
0.0001011405
0.0001010887
0.0001010887
0.0001010887
0.0001010888
0.0001010889
0.000101089
0.0001010892
0.0001010895
0.00010109
0.001217083
0.0001011513
0.0001010887
0.0001010886
0.0001010887
0.0001010887
0.0001010888
0.000101089
0.0001010892
0.0001010897
0.0001010904
0.001216179
0.0001011626
0.0001010886
0.0001010886
0.0001010886
0.0001010886
0.0001010887
0.0001010889
0.0001010892
0.0001010898
0.0001010913
0.001213973
0.0001011548
0.0001010886
0.0001010885
0.0001010885
0.0001010885
0.0001010886
0.0001010887
0.0001010891
0.0001010906
0.0001010925
0.001210501
0.0001011544
0.0001010886
0.0001010885
0.0001010885
0.0001010884
0.0001010884
0.0001010885
0.0001010892
0.0001010904
0.0001010994
0.001208134
0.00010115
0.0001010886
0.0001010885
0.0001010884
0.0001010883
0.0001010882
0.0001010883
0.0001010884
0.000101094
0.0001010928
0.001207654
0.0001011526
0.0001010886
0.0001010885
0.0001010884
0.0001010883
0.0001010882
0.0001010882
0.0001010891
0.0001010897
0.0001010968
0.001207676
0.0001011556
0.0001010887
0.0001010886
0.0001010885
0.0001010885
0.0001010885
0.0001010886
0.0001010895
0.0001010936
0.0001012188
0.001207933
0.0001011606
0.0001010888
0.0001010887
0.0001010887
0.0001010888
0.0001010889
0.0001010892
0.0001010911
0.000101094
0.0001011101
0.001208232
0.0001011664
0.0001010889
0.0001010889
0.000101089
0.0001010892
0.0001010897
0.0001010907
0.0001010953
0.0001011033
0.0001018546
0.001208362
0.0001011732
0.0001010891
0.0001010892
0.0001010893
0.0001010898
0.0001010904
0.0001010927
0.0001010961
0.0001011045
0.0001011695
0.001208341
0.000101179
0.0001010893
0.0001010893
0.0001011293
0.0001013003
0.0001011127
0.0001011412
0.0001011198
0.0001011135
0.0001011024
0.0001010986
0.0001011115
0.000101109
0.0001010968
0.0006094346
0.0001010992
0.0001011011
0.0001011057
0.0001010983
0.0001010995
0.000101094
0.0001010926
0.0001010935
0.0001010907
0.0001010908
0.00129108
0.0001011635
0.0001010943
0.0001010891
0.0001010883
0.0001010889
0.0001010886
0.0001010888
0.0001010885
0.0001010889
0.0001010891
0.001270401
0.0001012147
0.0001010885
0.0001010884
0.0001010887
0.0001010886
0.0001010886
0.0001010885
0.0001010886
0.0001010886
0.0001010886
0.001260242
0.0001011602
0.0001010887
0.0001010885
0.0001010885
0.0001010886
0.0001010886
0.0001010886
0.0001010886
0.0001010887
0.0001010888
0.001243364
0.0001011917
0.0001010887
0.0001010884
0.0001010886
0.0001010886
0.0001010886
0.0001010886
0.0001010887
0.0001010888
0.0001010889
0.001247835
0.0001011878
0.0001010889
0.0001010887
0.0001010888
0.0001010888
0.0001010888
0.0001010889
0.000101089
0.0001010891
0.0001010892
0.001231701
0.0001011557
0.0001010888
0.0001010887
0.0001010887
0.0001010888
0.0001010888
0.0001010889
0.000101089
0.0001010892
0.0001010894
0.001248314
0.0001011255
0.0001010886
0.0001010887
0.0001010887
0.0001010888
0.0001010889
0.000101089
0.0001010891
0.0001010894
0.0001010897
0.001243043
0.000101127
0.0001010886
0.0001010887
0.0001010887
0.0001010888
0.0001010888
0.000101089
0.0001010892
0.0001010895
0.00010109
0.001255114
0.0001011511
0.0001010887
0.0001010887
0.0001010887
0.0001010887
0.0001010888
0.000101089
0.0001010892
0.0001010897
0.0001010904
0.001241964
0.0001011781
0.0001010887
0.0001010886
0.0001010886
0.0001010886
0.0001010887
0.0001010889
0.0001010892
0.0001010898
0.0001010913
0.001246358
0.0001011776
0.0001010887
0.0001010885
0.0001010885
0.0001010885
0.0001010886
0.0001010888
0.0001010892
0.0001010905
0.0001010925
0.001226455
0.0001011578
0.0001010886
0.0001010885
0.0001010885
0.0001010884
0.0001010884
0.0001010885
0.0001010892
0.0001010903
0.0001010995
0.001222678
0.0001011517
0.0001010886
0.0001010885
0.0001010884
0.0001010883
0.0001010882
0.0001010883
0.0001010884
0.0001010928
0.0001010928
0.001221831
0.0001011538
0.0001010886
0.0001010885
0.0001010884
0.0001010883
0.0001010882
0.0001010882
0.000101089
0.0001010895
0.0001010966
0.001221847
0.0001011563
0.0001010887
0.0001010886
0.0001010885
0.0001010885
0.0001010885
0.0001010887
0.0001010894
0.0001010942
0.0001012188
0.00122243
0.000101161
0.0001010888
0.0001010887
0.0001010887
0.0001010888
0.0001010889
0.0001010892
0.0001010912
0.0001010943
0.0001011104
0.001223076
0.0001011676
0.0001010889
0.0001010889
0.000101089
0.0001010892
0.0001010897
0.0001010907
0.0001010954
0.0001011033
0.0001018918
0.001223284
0.0001011747
0.0001010891
0.0001010892
0.0001010893
0.0001010898
0.0001010904
0.0001010928
0.000101096
0.0001011035
0.0001011649
0.001223365
0.0001011798
0.0001010893
0.0001010893
0.0001010896
0.00010109
0.0001011278
0.0001012479
0.0001011174
0.000101123
0.0001011184
0.0001011097
0.0001011016
0.000101103
0.0001011292
0.0001010956
0.000101174
0.0006140588
0.0001011992
0.0001014764
0.0001016523
0.000101689
0.0001016849
0.0001016814
0.0001016427
0.0001016026
0.0001014296
0.0001014164
0.0006007394
0.00010113
0.000101137
0.0001011451
0.0001011459
0.0001011396
0.000101143
0.0001011416
0.0001011408
0.0001011446
0.0001011489
0.0005822656
0.0001011096
0.0001011333
0.0001011429
0.0001011461
0.0001011444
0.0001011434
0.0001011402
0.0001011401
0.0001011325
0.0001011347
0.0005776984
0.0001011057
0.0001011058
0.000101105
0.0001011062
0.0001011053
0.0001011052
0.0001011042
0.0001011039
0.0001011045
0.0001011048
0.0005729432
0.0001010985
0.0001011062
0.0001011021
0.0001011041
0.0001011034
0.0001011032
0.0001011023
0.0001011021
0.0001011021
0.0001011019
0.001266056
0.0001011779
0.0001011075
0.0001010986
0.0001010999
0.000101099
0.0001010989
0.0001010984
0.0001010984
0.0001010982
0.000101098
0.00126526
0.000101167
0.0001011025
0.0001010983
0.0001010986
0.0001010979
0.0001010978
0.0001010976
0.0001010976
0.0001010977
0.0001010976
0.001268099
0.0001011562
0.0001010981
0.0001010987
0.0001010977
0.0001010974
0.0001010972
0.0001010971
0.0001010972
0.0001010974
0.0001010976
0.0005714617
0.0001011044
0.0001011008
0.000101098
0.0001010977
0.0001010971
0.000101097
0.000101097
0.0001010972
0.0001010975
0.000101098
0.0005754347
0.000101106
0.0001011012
0.000101098
0.0001010975
0.0001010968
0.0001010968
0.0001010969
0.0001010972
0.0001010977
0.0001010984
0.0005726397
0.0001010975
0.0001011014
0.0001010968
0.0001010974
0.0001010967
0.0001010967
0.0001010968
0.0001010971
0.0001010977
0.0001010992
0.001265602
0.0001011679
0.0001011064
0.0001010968
0.0001010976
0.0001010965
0.0001010966
0.0001010967
0.0001010971
0.0001010986
0.0001011008
0.001262595
0.0001011802
0.0001011013
0.0001010968
0.0001010975
0.0001010966
0.0001010964
0.0001010965
0.0001010976
0.0001010987
0.0001011084
0.001260396
0.0001011626
0.0001011012
0.0001010972
0.0001010973
0.0001010963
0.000101097
0.0001010963
0.0001010964
0.0001010937
0.0001010927
0.001259058
0.0001011674
0.0001011006
0.0001010971
0.0001010971
0.0001010963
0.0001010962
0.0001010962
0.0001010973
0.0001010896
0.0001010985
0.001258977
0.0001011713
0.000101102
0.0001010973
0.0001010971
0.0001010964
0.0001010964
0.0001010966
0.00010111
0.0001010924
0.0001012175
0.001260189
0.0001011742
0.0001011022
0.0001010974
0.0001010973
0.0001010967
0.0001010969
0.0001010974
0.0001010994
0.0001011029
0.0001011165
0.001261005
0.0001011813
0.0001011023
0.0001010978
0.0001010979
0.0001010972
0.0001010996
0.0001010987
0.0001011033
0.0001011063
0.0001015589
0.001262583
0.0001011933
0.0001011041
0.0001010983
0.0001010984
0.0001010977
0.0001010994
0.0001011004
0.0001011047
0.000101103
0.0001011559
0.001264043
0.0001011962
0.0001011046
0.0001010988
0.0001010991
0.0001010983
0.0001011019
0.0001011004
0.0001011252
0.0001011514
0.0001011256
0.000101127
0.0001011817
0.000101155
0.0001012107
0.0001011283
0.0001011657
0.0001012858
0.0001011087
0.0002738531
0.001339305
0.001307901
0.001298497
0.00129609
0.001295822
0.001297014
0.001298579
0.001297975
0.001298818
0.001299221
0.0002695191
0.001312367
0.001258777
0.001242779
0.001238471
0.001237151
0.001236971
0.001237092
0.001237097
0.001237369
0.001237659
0.0002765052
0.001303769
0.001243819
0.00122402
0.001218475
0.001216744
0.00121617
0.001216016
0.001216021
0.001216181
0.001216426
0.0002667785
0.00130231
0.001239792
0.001218673
0.001212464
0.001210415
0.001209655
0.001209404
0.001209408
0.001209606
0.00120993
0.0005907904
0.001301377
0.001238397
0.001216956
0.001210467
0.001208243
0.001207376
0.001207081
0.001207086
0.001207313
0.001207698
0.0005831099
0.001299855
0.001237691
0.001216237
0.001209635
0.001207324
0.001206407
0.001206092
0.001206106
0.001206365
0.001206806
0.0005687836
0.001298677
0.001237391
0.001215913
0.001209268
0.001206922
0.001205989
0.001205674
0.001205707
0.001205999
0.001206489
0.0005791502
0.001297756
0.001237269
0.001215764
0.0012091
0.001206747
0.001205824
0.001205537
0.001205615
0.001205956
0.001206503
0.0005840865
0.001299904
0.001237407
0.001215726
0.001209033
0.001206697
0.001205818
0.001205612
0.001205801
0.001206266
0.001206917
0.0002682315
0.001300784
0.001237529
0.001215712
0.001209023
0.001206743
0.001205981
0.001205988
0.001206495
0.001207316
0.001208242
0.000592208
0.001300329
0.001237251
0.001215648
0.001209055
0.001206905
0.001206469
0.001207184
0.001208785
0.001210825
0.001212699
0.0005831065
0.001297954
0.001236769
0.001215559
0.001209133
0.001207215
0.001207489
0.00121103
0.001217024
0.001222836
0.001228388
0.0005698553
0.00129567
0.001236388
0.00121551
0.001209264
0.001207686
0.001209039
0.001216922
0.001244892
0.001252096
0.001278181
0.0005735591
0.001295558
0.00123634
0.001215555
0.001209452
0.001208229
0.001210677
0.001222012
0.001250714
0.0001052325
0.0001042842
0.0005664352
0.001297298
0.001236567
0.001215679
0.001209663
0.001208693
0.001211878
0.001225288
0.001271719
0.0001013351
0.0001011026
0.0005653058
0.001297412
0.001236656
0.00121582
0.001209893
0.001209052
0.001212594
0.001227669
0.001262275
0.0001015387
0.0001012768
0.0005684042
0.001295704
0.00123657
0.00121598
0.001210174
0.001209411
0.001213081
0.001229445
0.001288036
0.001308771
0.0001013906
0.0005776891
0.001294392
0.0012366
0.001216193
0.001210501
0.0012098
0.001213438
0.001228716
0.001264338
0.0001070452
0.0001013162
0.0005737342
0.001294425
0.001236535
0.001216357
0.001210746
0.001210014
0.001213339
0.001226933
0.001274173
0.000102803
0.000101176
0.0005766105
0.001293073
0.00123622
0.001216329
0.001210731
0.001209791
0.001212365
0.001223742
0.001252573
0.0001033878
0.0001012581
0.0002560675
0.0006475744
0.0001014903
0.0002687354
0.0001015507
0.0006518148
0.0006353664
0.0001012441
0.0001012253
0.0001019241
0.0001021575
0.000631723
0.0006296785
0.0001013291
0.000101222
0.0001020802
0.0001021698
0.0006293206
0.0006291248
0.0001014026
0.0001011746
0.0001021816
0.0001020868
0.0006290858
0.0006290338
0.0001012639
0.0001012006
0.000102074
0.0001020198
0.0006290384
0.0006290019
0.000101306
0.0001012266
0.0001020046
0.0001019466
0.000629045
0.0006290033
0.0001013504
0.0001012639
0.0001019628
0.0001019054
0.0006290615
0.0006290025
0.0001013944
0.0001013177
0.0001019466
0.000101873
0.0006290709
0.0006290064
0.0001013316
0.0001013376
0.0001019383
0.0001018467
0.000629083
0.0006290178
0.0001013336
0.0001013487
0.0001019315
0.0001018267
0.0006291046
0.0006290428
0.0001013405
0.0001013624
0.0001019254
0.0001018165
0.0006340677
0.0002765091
0.0006121907
0.0006117427
0.0001016062
0.0005966273
0.0001012426
0.0006061445
0.0002765155
0.0006032044
0.0006050954
0.0001015623
0.0005911016
0.0001016452
0.0006024535
0.0002764862
0.0006020648
0.0005877445
0.0001015421
0.0005859237
0.0001016066
0.0006019477
0.0002764357