/*--------------------------------*- C++ -*----------------------------------*\
  =========                 |
  \\      /  F ield         | OpenFOAM: The Open Source CFD Toolbox
   \\    /   O peration     | Website:  https://openfoam.org
    \\  /    A nd           | Version:  7
     \\/     M anipulation  |
\*---------------------------------------------------------------------------*/
FoamFile
{
    version     2.0;
    format      ascii;
    class       volScalarField;
    location    "0.02";
    object      p;
}
// * * * * * * * * * * * * * * * * * * * * * * * * * * * * * * * * * * * * * //

dimensions      [0 2 -2 0 0 0 0];

internalField   nonuniform List<scalar> 
105056
(
0.4265389
0.4251091
0.4221328
0.4192321
0.4161702
0.4276299
0.4262093
0.4241852
0.4211033
0.4171678
0.4300644
0.4276905
0.4256583
0.4226042
0.4185661
0.4322983
0.4300752
0.4280275
0.4249713
0.4210373
0.4345575
0.4331692
0.4312378
0.4280832
0.4241131
0.4364768
0.4365354
0.434452
0.43126
0.4272226
0.438832
0.4401509
0.4380802
0.4348948
0.4308406
0.4413289
0.4439123
0.4418438
0.4386826
0.4346366
0.4442463
0.4478895
0.4459201
0.4427503
0.4387124
0.4473797
0.4521079
0.4502273
0.4470564
0.4430179
0.4508689
0.4565801
0.4548022
0.4515951
0.4475702
0.4548209
0.4613304
0.4596752
0.4563855
0.4523656
0.4589577
0.4663637
0.4647989
0.4614541
0.4574157
0.4634391
0.4716143
0.4701638
0.4667278
0.4626877
0.4681214
0.4771362
0.4758009
0.4723628
0.4681822
0.4731825
0.4828899
0.4816466
0.4782192
0.4739328
0.4784331
0.4888478
0.4876902
0.4843007
0.4798877
0.4839308
0.4950224
0.493967
0.4906136
0.4861464
0.4896838
0.5013013
0.5004838
0.4971497
0.4926706
0.4959041
0.5076452
0.5072073
0.503916
0.499416
0.5022324
0.5142081
0.5141745
0.5109166
0.5063966
0.5088427
0.5210057
0.5213498
0.518159
0.5135889
0.4617845
0.5280638
0.52876
0.5255508
0.5209687
0.4248767
0.4219365
0.4194454
0.4167283
0.4136137
0.428358
0.4264509
0.4247476
0.4231197
0.4217814
0.4202948
0.430921
0.4278634
0.4261311
0.4262065
0.4247678
0.422706
0.4328788
0.4289492
0.4254645
0.4255401
0.4236805
0.4218003
0.4348624
0.4296437
0.4262229
0.4267734
0.4249126
0.4230426
0.437192
0.4303161
0.4274298
0.4278705
0.4259821
0.4241044
0.4396433
0.4303262
0.428801
0.4287263
0.4270034
0.4251275
0.4424878
0.4308908
0.4306861
0.430241
0.4287098
0.4268309
0.4457834
0.4320157
0.4324748
0.4318149
0.4303532
0.4284863
0.4491155
0.4337197
0.4344487
0.4338304
0.4323793
0.4305486
0.4526914
0.4359584
0.4365804
0.4361358
0.4346033
0.4328113
0.4566861
0.4381868
0.4389614
0.4386294
0.4370846
0.4353314
0.4607678
0.4408028
0.4416936
0.4413912
0.4398468
0.4381007
0.465057
0.4435614
0.4447253
0.4443827
0.4428549
0.4411171
0.4698546
0.446128
0.4479947
0.4476175
0.4461249
0.4443821
0.4749862
0.4494206
0.4514837
0.4511152
0.4496136
0.4478817
0.480196
0.4533694
0.4552732
0.4548791
0.4533568
0.4516241
0.4857634
0.4571588
0.4591714
0.45882
0.4573188
0.4555987
0.4914378
0.4611313
0.4632404
0.4629784
0.4615079
0.4597944
0.4971543
0.4653614
0.4675318
0.4673521
0.46591
0.4641968
0.5030924
0.4698738
0.4720778
0.4719739
0.4705503
0.4688436
0.509242
0.4745431
0.4768316
0.4768011
0.4754087
0.4737143
0.5156765
0.4794762
0.4818201
0.4818575
0.4804917
0.4788083
0.4530571
0.4845598
0.4869646
0.4870812
0.4857514
0.4840932
0.424624
0.4206555
0.417795
0.4147424
0.4110447
0.4286363
0.4264363
0.4239302
0.4221453
0.4210355
0.4194002
0.4321549
0.4286929
0.4262504
0.4268832
0.4250901
0.4231149
0.4344909
0.4299585
0.4246817
0.4253768
0.4231837
0.4214251
0.436801
0.4303972
0.4257616
0.4271103
0.4248892
0.4232143
0.4396728
0.4312597
0.4270044
0.4281937
0.4257537
0.4240861
0.4428284
0.4313303
0.4285211
0.4290682
0.4268391
0.4251875
0.4468398
0.432062
0.4306319
0.4306492
0.4286211
0.4269447
0.4509734
0.4334268
0.4324738
0.4322302
0.430267
0.428598
0.4549644
0.4354424
0.4345359
0.4343004
0.4323323
0.4307058
0.4590886
0.4379086
0.4366922
0.4366197
0.4345539
0.432981
0.4634749
0.4404548
0.4391295
0.4391869
0.4370568
0.4355313
0.4681962
0.4432874
0.4418859
0.4419784
0.4398297
0.4383211
0.4731781
0.4463623
0.4449247
0.444997
0.4428633
0.4413561
0.4787149
0.4494923
0.4482662
0.4482357
0.4461378
0.4446357
0.4843164
0.452609
0.4518823
0.4517074
0.4496572
0.4481581
0.4904585
0.4555154
0.4556787
0.4554011
0.4533868
0.4519135
0.4973244
0.4584165
0.4594787
0.459327
0.4573288
0.4558938
0.5036183
0.4625896
0.4634794
0.463503
0.4615031
0.4601104
0.5097586
0.4674075
0.4677989
0.4679212
0.4659123
0.4645614
0.516057
0.472339
0.4723907
0.4725744
0.470546
0.4692289
0.5227004
0.4773619
0.4772216
0.4774457
0.4754008
0.4741038
0.5296297
0.4825523
0.4822758
0.4825409
0.4804758
0.4792035
0.5368019
0.4878891
0.4875422
0.487837
0.4857518
0.4844845
0.4249197
0.4193945
0.4156537
0.4125378
0.4093874
0.4284167
0.4264745
0.4232639
0.4209345
0.4199644
0.4184311
0.4333858
0.4294045
0.4262804
0.4273754
0.425717
0.4235451
0.4364496
0.4312838
0.4241369
0.4252941
0.4232181
0.4212693
0.4388354
0.4318529
0.4252862
0.4268534
0.4248843
0.4230435
0.4414913
0.4323956
0.4266015
0.428306
0.4258882
0.4240679
0.4449761
0.4319423
0.4279793
0.4289896
0.4267739
0.4250072
0.4487865
0.4325147
0.4302187
0.4306262
0.4286287
0.4268553
0.4530315
0.4337412
0.4320295
0.4321437
0.4302102
0.4284514
0.4574752
0.4356808
0.4340697
0.434223
0.4322761
0.4305715
0.4618738
0.4379953
0.4361765
0.4365357
0.4344843
0.4328332
0.4663394
0.4405037
0.4385416
0.4391007
0.4369737
0.4353767
0.4710631
0.4432821
0.4412574
0.4418796
0.4397417
0.4381568
0.4763799
0.4463506
0.4442372
0.4448942
0.4427666
0.4411837
0.4815976
0.4496206
0.4475535
0.4481421
0.4460535
0.4444602
0.4876217
0.4530822
0.4511936
0.4516389
0.4495722
0.4479777
0.4936005
0.4566956
0.4551078
0.4553878
0.4533203
0.4517302
0.5008625
0.460337
0.4591014
0.4593349
0.4572676
0.4557089
0.5084054
0.4634497
0.4630003
0.4634658
0.4614337
0.4599106
0.515227
0.4678347
0.4671942
0.4678515
0.4658319
0.4643396
0.5214742
0.4728082
0.4717575
0.4724996
0.470483
0.4690089
0.5284014
0.4778289
0.4765728
0.477372
0.4753538
0.4738978
0.5353866
0.4830111
0.4816163
0.4824721
0.4804656
0.4790214
0.542607
0.4882988
0.486835
0.4877542
0.4857538
0.4843264
0.4251706
0.4194122
0.4155534
0.4124199
0.4079375
0.4282754
0.4265057
0.4231451
0.4207537
0.419922
0.418242
0.4337125
0.4296028
0.4263255
0.4276819
0.4260292
0.4238176
0.4369031
0.4315532
0.4238399
0.4252936
0.4231188
0.4211433
0.4394089
0.4321064
0.4249411
0.426878
0.4248805
0.4230734
0.4430564
0.4326449
0.4264328
0.428446
0.4258664
0.4240697
0.4457713
0.4323817
0.4276662
0.4291249
0.4267129
0.4250049
0.4493627
0.4329466
0.429974
0.4307949
0.4286027
0.426889
0.4534234
0.4341571
0.4317783
0.4323088
0.43017
0.4284761
0.4582672
0.4360719
0.4338275
0.4344028
0.4322458
0.430613
0.4623657
0.4383847
0.4359104
0.4367259
0.4344444
0.4328757
0.4667191
0.4409762
0.4382504
0.4393111
0.4369367
0.4354267
0.4711109
0.4437787
0.4409347
0.4420999
0.4396993
0.4382087
0.4764865
0.446978
0.4439067
0.4451188
0.4427307
0.44124
0.481866
0.4502599
0.4472101
0.4483628
0.4460098
0.4445168
0.4884508
0.453666
0.4508242
0.4518544
0.449536
0.4480393
0.4947043
0.4572644
0.4547194
0.4556098
0.4532817
0.4517931
0.5024095
0.461157
0.4587748
0.459573
0.4572328
0.4557709
0.5101801
0.464417
0.462706
0.4637016
0.4613828
0.4599641
0.5174511
0.4685822
0.466842
0.4680648
0.4657641
0.4643802
0.5240471
0.4735375
0.4713758
0.472693
0.4703826
0.4690209
0.5311699
0.478593
0.4761697
0.4775358
0.4752133
0.4738487
0.5384829
0.4837515
0.4812019
0.4826226
0.4802973
0.4789445
0.5458309
0.4890666
0.486417
0.4878588
0.4855161
0.4841127
0.4252432
0.4193466
0.415679
0.412277
0.4080367
0.4281524
0.4265223
0.4231722
0.4207622
0.4199266
0.4182097
0.4333413
0.4295401
0.4263452
0.4276753
0.4260348
0.4237967
0.4366788
0.431488
0.4238387
0.4252866
0.423112
0.4211352
0.4392956
0.4320221
0.424933
0.4268644
0.4248775
0.4230646
0.442882
0.4325401
0.4263702
0.428429
0.4258498
0.4240641
0.4456121
0.4322208
0.4276682
0.4291015
0.426703
0.4250009
0.4489628
0.4327865
0.4299703
0.430772
0.428591
0.4268826
0.4532152
0.4340376
0.4317808
0.4322878
0.430159
0.4284706
0.4579669
0.4359838
0.4338291
0.4343848
0.4322344
0.4306046
0.4625064
0.4383081
0.4359118
0.4367082
0.4344338
0.4328698
0.4672893
0.4408913
0.4382513
0.4392944
0.4369263
0.4354187
0.472441
0.4437433
0.4409346
0.4420888
0.4396915
0.4382052
0.4782357
0.446954
0.4439053
0.4451131
0.4427239
0.4412353
0.4838323
0.450263
0.4472078
0.448361
0.4460069
0.4445172
0.4907407
0.4536549
0.4508218
0.4518565
0.4495358
0.4480395
0.4966256
0.4572961
0.4547189
0.4556193
0.4532894
0.4518027
0.5032316
0.461205
0.4587818
0.4595919
0.4572488
0.4557864
0.5108808
0.4645453
0.4627298
0.4637341
0.4614146
0.4600002
0.5182586
0.4686304
0.4668677
0.4681103
0.4658146
0.4644383
0.5249894
0.4736446
0.471417
0.4727678
0.4704713
0.4691247
0.5319571
0.478714
0.4762295
0.4776463
0.4753438
0.4740099
0.539316
0.4839374
0.4812869
0.4827773
0.4804719
0.4791447
0.5467946
0.4892521
0.4865371
0.488091
0.4857888
0.484474
0.4249369
0.4192437
0.4152967
0.4120691
0.4082905
0.428331
0.4264593
0.4232461
0.4208948
0.4199305
0.4183941
0.4336597
0.4293971
0.4263219
0.4274003
0.4257405
0.4235664
0.4368733
0.4312646
0.4241556
0.4253301
0.423227
0.4212759
0.4393559
0.4318145
0.4252958
0.4268675
0.4248941
0.42305
0.442563
0.4323523
0.426627
0.4283219
0.4258991
0.4240731
0.4449303
0.431895
0.4279933
0.4289987
0.4267835
0.4250112
0.4485264
0.4324673
0.4302262
0.4306327
0.4286382
0.4268607
0.4526928
0.4337079
0.4320424
0.4321476
0.4302195
0.4284579
0.4572
0.4356447
0.4340844
0.4342283
0.4322869
0.4305794
0.4617865
0.4379554
0.4361948
0.4365386
0.4344939
0.4328413
0.4667916
0.4404661
0.4385582
0.4391066
0.4369836
0.4353848
0.4718492
0.4432419
0.4412752
0.4418821
0.439749
0.4381642
0.4774371
0.4463441
0.4442501
0.4449003
0.4427734
0.4411898
0.4830116
0.4496212
0.4475642
0.4481448
0.4460559
0.4444639
0.489083
0.4530859
0.4511938
0.4516412
0.4495709
0.4479771
0.494867
0.45668
0.4551055
0.4553828
0.4533102
0.4517226
0.5014327
0.4603298
0.4590828
0.4593251
0.4572479
0.4556888
0.50911
0.4634909
0.4629793
0.4634459
0.4613992
0.4598737
0.5159307
0.4677795
0.467141
0.4678088
0.4657685
0.4642651
0.5225082
0.4727558
0.4716884
0.472439
0.4704017
0.4689117
0.5293788
0.4777674
0.4764595
0.4772542
0.475189
0.4736792
0.5364337
0.4829759
0.4815206
0.4823777
0.4803715
0.4789067
0.5439937
0.488225
0.4866623
0.4874841
0.4854053
0.483791
0.4250005
0.4200233
0.4172115
0.4141941
0.4105424
0.4283925
0.4264297
0.4239343
0.4221215
0.421028
0.4193831
0.4328432
0.4287157
0.4262758
0.4269103
0.4251165
0.4231384
0.4350147
0.4299426
0.4247117
0.4254105
0.4231965
0.4214319
0.4373864
0.4303953
0.4257951
0.4271227
0.4249042
0.423224
0.440297
0.4312205
0.4270309
0.4281955
0.4257632
0.4240925
0.4434756
0.4312849
0.4285489
0.429067
0.426848
0.4251914
0.4474143
0.4319772
0.4306565
0.4306431
0.4286273
0.4269465
0.4516075
0.4333546
0.4324909
0.4322222
0.4302711
0.4285972
0.4556755
0.4353841
0.4345512
0.434292
0.4323336
0.4307036
0.4598329
0.4378529
0.4366997
0.43661
0.434554
0.4329769
0.4643916
0.4403957
0.4391368
0.439176
0.4370547
0.4355265
0.4692245
0.4432395
0.4418905
0.4419679
0.4398285
0.4383153
0.4743414
0.4463324
0.4449333
0.4449888
0.4428606
0.4413512
0.4798268
0.4494745
0.4482703
0.4482309
0.4461374
0.4446306
0.4856073
0.4525878
0.4518896
0.4517047
0.4496557
0.4481542
0.4918328
0.4555044
0.4556806
0.4554043
0.453389
0.4519108
0.4990346
0.4584181
0.4594816
0.4593346
0.4573293
0.4558922
0.5057715
0.4626179
0.4634798
0.4635192
0.461508
0.4601103
0.5118883
0.4673957
0.4677946
0.4679348
0.4659106
0.4645521
0.5181471
0.4723843
0.4723879
0.4726035
0.4705527
0.4692171
0.5247751
0.4774007
0.4772146
0.4774731
0.4753913
0.4740576
0.5316932
0.4826365
0.4822749
0.4825746
0.4804173
0.4790084
0.5389479
0.4879956
0.4875801
0.4879448
0.4857853
0.4843473
0.4246044
0.4216529
0.4190493
0.4162906
0.4130378
0.4286847
0.4264494
0.4247632
0.4231172
0.4217844
0.4202955
0.4312146
0.427883
0.4261579
0.4262313
0.4247899
0.4227252
0.4332746
0.4289495
0.4254831
0.4255467
0.423689
0.4218076
0.4354015
0.4296487
0.426242
0.4267863
0.4249194
0.4230485
0.4379474
0.4303299
0.4274524
0.4278814
0.4259903
0.4241092
0.4409571
0.4303498
0.4288232
0.4287371
0.4270089
0.4251319
0.4443881
0.4309265
0.4307084
0.4302523
0.4287162
0.4268366
0.4479366
0.4320357
0.4324912
0.4318231
0.4303574
0.4284928
0.4515666
0.4337368
0.4344645
0.4338386
0.4323853
0.4305559
0.4553456
0.4359639
0.4365913
0.4361433
0.4346083
0.4328209
0.4595045
0.43821
0.4389747
0.4386408
0.4370911
0.4353411
0.4638013
0.4407975
0.4417024
0.4413987
0.4398509
0.438112
0.4684955
0.443571
0.4447355
0.4443921
0.4428598
0.4411261
0.4739369
0.4461242
0.4480002
0.4476241
0.4461259
0.4443909
0.4788359
0.4494363
0.4514894
0.4511218
0.4496134
0.4478855
0.4837458
0.4533761
0.4552758
0.4548816
0.4533507
0.4516255
0.4897628
0.457175
0.4591723
0.4588182
0.457308
0.4555889
0.4958945
0.4611574
0.4632375
0.4629751
0.4614923
0.459785
0.5018715
0.4653905
0.4675195
0.4673345
0.4658713
0.4641539
0.507988
0.4698972
0.4720666
0.4719727
0.4705395
0.468856
0.5143323
0.474561
0.4767834
0.476734
0.4752816
0.4735582
0.5209158
0.479524
0.481834
0.4819526
0.4806084
0.479128
0.4530726
0.4845493
0.4868245
0.4869048
0.4853759
0.4836486
0.4252667
0.4232585
0.4206776
0.4176114
0.4143729
0.4280173
0.4265205
0.4249391
0.4226911
0.4201789
0.4173708
0.4296661
0.427779
0.4262069
0.4238643
0.4207559
0.4171052
0.4317126
0.4295146
0.4279968
0.4256447
0.4223584
0.4185845
0.4339572
0.431395
0.4304354
0.4282615
0.4249633
0.4211863
0.436399
0.4334155
0.4332663
0.4312275
0.4279119
0.4241104
0.4390369
0.4355013
0.436377
0.4343979
0.431114
0.4273116
0.4417991
0.437913
0.4398146
0.4379087
0.4346859
0.4308846
0.4448312
0.4406498
0.4433968
0.441588
0.4384352
0.4346364
0.4479103
0.4436535
0.4472064
0.445545
0.4424512
0.4386645
0.4511328
0.4468672
0.45124
0.4497452
0.4467
0.4429312
0.455033
0.450341
0.4555345
0.4541643
0.4511767
0.4474424
0.4588718
0.4541167
0.4601155
0.4588542
0.4559057
0.4522046
0.4629131
0.4581597
0.4649898
0.4638171
0.4608854
0.4572091
0.4672345
0.4624313
0.4700811
0.4690103
0.4660851
0.4624446
0.4717652
0.4669736
0.4754011
0.4744407
0.4715152
0.4678968
0.4765722
0.4718159
0.480971
0.4801268
0.4772099
0.4735956
0.4817105
0.4768831
0.4867325
0.4860268
0.4831396
0.4795239
0.4869076
0.4821048
0.4926917
0.49214
0.4892846
0.4856636
0.4922023
0.4875753
0.4988835
0.4984805
0.4956522
0.4920213
0.4976588
0.4932511
0.5052893
0.5050484
0.5022596
0.4986349
0.5033399
0.4991572
0.5119121
0.5118204
0.5090543
0.5054385
0.5092546
0.5052669
0.5187546
0.5188218
0.5160843
0.5125015
0.5153648
0.4506871
0.525803
0.5259456
0.5231802
0.5196109
0.4266582
0.4269593
0.4263287
0.4266552
0.4241235
0.4273129
0.425233
0.4284041
0.424747
0.4263794
0.4224359
0.4279387
0.4232333
0.4295016
0.4229263
0.4260463
0.4200117
0.4279165
0.4206628
0.4302989
0.4208582
0.4256809
0.4172637
0.427319
0.4175824
0.4304372
0.4184245
0.424975
0.4139005
0.4143656
0.4156978
0.4265916
0.4267042
0.4266468
0.4265836
0.4267808
0.4266171
0.4265394
0.4268706
0.4267005
0.4267957
0.4265467
0.4266582
0.4267655
0.4266627
0.4267
0.4268249
0.4265987
0.426696
0.4269484
0.4265925
0.426681
0.4269715
0.4266067
0.426741
0.427046
0.4265609
0.426661
0.4270769
0.4266025
0.4267046
0.4270177
0.4265796
0.4267013
0.4269508
0.4265928
0.426784
0.4269418
0.4265066
0.426695
0.4267669
0.4267565
0.4267305
0.4267242
0.4266768
0.4266543
0.4267184
0.426718
0.4266767
0.427007
0.4263353
0.4266937
0.4266991
0.429698
0.4229272
0.4260627
0.4224646
0.4279686
0.4303791
0.4208885
0.4257339
0.4200389
0.4279524
0.4304992
0.4184658
0.4250118
0.4173162
0.4273568
0.4157424
0.4139489
0.428464
0.4246559
0.4267035
0.4291199
0.4256956
0.4299837
0.4232223
0.4265926
0.4305174
0.4246016
0.4314854
0.4214957
0.4263113
0.4324164
0.4239408
0.433283
0.4204901
0.4262901
0.4344921
0.4237093
0.4352054
0.4198017
0.4265124
0.4369971
0.4239059
0.4373824
0.4196089
0.4272888
0.4398257
0.4243099
0.4400277
0.419962
0.4287539
0.4429652
0.4250699
0.4430075
0.4206765
0.4304229
0.4463106
0.4256643
0.4461312
0.4211105
0.4320901
0.4498368
0.4264795
0.449455
0.4218606
0.4339061
0.4534205
0.4274049
0.4529837
0.4228557
0.4359132
0.457187
0.4285778
0.4699732
0.42945
0.4464259
0.4748952
0.4365252
0.4748265
0.4318483
0.4497295
0.4800085
0.4392639
0.4799216
0.4344269
0.4531862
0.4852943
0.4421425
0.4851271
0.4370593
0.4567462
0.4907659
0.4452063
0.4904758
0.4399163
0.4604766
0.4963688
0.4484554
0.5141721
0.4537104
0.4775027
0.5210271
0.4653613
0.4266903
0.4267077
0.4268046
0.4251381
0.4255844
0.4268686
0.4290951
0.4256733
0.4279988
0.4284374
0.4246277
0.4266851
0.4304908
0.424583
0.4296372
0.4299593
0.4231827
0.4265757
0.4323916
0.4239128
0.4316981
0.4314578
0.421479
0.4262936
0.4344697
0.4236739
0.4339211
0.433251
0.4204563
0.4262659
0.4369569
0.4238554
0.4363618
0.4351597
0.4197376
0.426476
0.4397792
0.4242575
0.4389584
0.4373262
0.4195256
0.4272378
0.4428977
0.4250311
0.4417234
0.4399774
0.4199175
0.42873
0.4462763
0.4256312
0.4447852
0.4429644
0.4206375
0.4303906
0.4497886
0.4264375
0.447887
0.4460857
0.421074
0.4320652
0.4533963
0.427393
0.4510752
0.4494172
0.4217966
0.4338851
0.4571569
0.4285666
0.4549902
0.4529536
0.422828
0.4358923
0.4612197
0.4300567
0.4588971
0.4568172
0.4240678
0.4381107
0.4655191
0.4318418
0.4628888
0.4609306
0.4255632
0.4405867
0.4700732
0.4340367
0.467233
0.4652819
0.4273412
0.4433636
0.4748752
0.4365377
0.4717812
0.4699581
0.4294256
0.4464215
0.4799927
0.4392392
0.476572
0.4748088
0.4318228
0.4497181
0.4852644
0.4421119
0.4816836
0.4798913
0.4343533
0.4531663
0.4907278
0.445205
0.4868697
0.485086
0.4369918
0.4567203
0.4963287
0.448457
0.4921655
0.4904288
0.4398486
0.460437
0.502193
0.4519469
0.4976297
0.4960057
0.4429481
0.464371
0.5082272
0.455648
0.5033113
0.5018186
0.4462374
0.4685284
0.5145273
0.4595843
0.509225
0.5078898
0.4498121
0.4729095
0.5210035
0.465311
0.5153776
0.5141717
0.4536334
0.4774584
0.4267317
0.4266942
0.4268086
0.426716
0.4268057
0.4268174
0.4267911
0.4268322
0.4268074
0.4267853
0.4268195
0.4267851
0.4267891
0.4267835
0.4267821
0.4266892
0.4267228
0.4267494
0.4284517
0.4247781
0.4264061
0.4241553
0.4273303
0.4568193
0.4240907
0.4381239
0.4612109
0.4300855
0.4609441
0.4255675
0.4405931
0.4655393
0.4318705
0.4652847
0.4273542
0.4433551
0.4700694
0.4340363
0.4960577
0.4429817
0.4644043
0.5022342
0.4519439
0.5018564
0.4462938
0.468563
0.5082726
0.4556659
0.5079029
0.4498445
0.4729268
0.5145554
0.4595928
0.4260851
0.4268895
0.4268429
0.4257786
0.4272632
0.4264166
0.4264711
0.4275848
0.4266943
0.4267409
0.4253663
0.4268984
0.4268512
0.4248695
0.4266849
0.4267426
0.4267816
0.4267847
0.4267486
0.4269007
0.4268151
0.4268192
0.4267452
0.4268919
0.4267907
0.426887
0.42677
0.4268236
0.4267682
0.4267366
0.4267185
0.426735
0.4261186
0.4269233
0.4268804
0.4258064
0.4272883
0.4264395
0.4264929
0.4276112
0.4265531
0.4239048
0.4244704
0.4268022
0.4241268
0.4265408
0.4262478
0.4235497
0.4252319
0.4219604
0.4227373
0.4257578
0.4220347
0.4254205
0.4247237
0.4211372
0.4235222
0.4193631
0.4202769
0.4244216
0.4195887
0.424073
0.4230026
0.4185474
0.4215475
0.4165265
0.4173712
0.4227387
0.416887
0.4156593
0.4264359
0.4281608
0.4276888
0.4263519
0.4277883
0.4261201
0.426261
0.4282672
0.4264274
0.4291111
0.4285536
0.4260597
0.4286946
0.4260552
0.4264372
0.4292725
0.4271934
0.4305742
0.4298309
0.4265068
0.4301414
0.4264632
0.4272628
0.4310757
0.4281201
0.4324249
0.4315542
0.4270564
0.4317725
0.4269689
0.428135
0.4328745
0.4292495
0.4344226
0.4335936
0.4278665
0.4336468
0.4275684
0.4291366
0.4348937
0.4304258
0.4364891
0.4358138
0.4287288
0.4356025
0.4282609
0.4302811
0.4370017
0.4316265
0.4386058
0.437973
0.4297284
0.4375122
0.4291955
0.4315109
0.4392311
0.43319
0.4409221
0.4402127
0.4310672
0.4398201
0.4305508
0.4331035
0.4417776
0.4423922
0.4321591
0.4348747
0.4445788
0.4369535
0.4464529
0.4452692
0.4345438
0.4451117
0.4339267
0.4368275
0.4475177
0.4390892
0.4494275
0.4481293
0.4365739
0.4480242
0.435904
0.4389903
0.4506186
0.4501161
0.4635813
0.4620376
0.4473415
0.4535642
0.467733
0.4661772
0.4507506
0.4664887
0.4500235
0.45374
0.4698585
0.4572722
0.4722011
0.470657
0.4544145
0.4709604
0.4536141
0.4574329
0.4744469
0.4611178
0.476829
0.4752339
0.4582517
0.4755599
0.4573564
0.4612284
0.4791543
0.4651167
0.4816176
0.479995
0.4622448
0.4803428
0.4613139
0.4652551
0.4840355
0.5016933
0.4725591
0.505516
0.4834576
0.4266961
0.4267009
0.4266006
0.426732
0.4269614
0.4267316
0.4270688
0.4268738
0.4268137
0.4270708
0.4266176
0.4270394
0.4266513
0.427064
0.4269467
0.426865
0.4270007
0.426561
0.4268402
0.4265112
0.4267084
0.4265573
0.4265765
0.4269603
0.4268774
0.4269603
0.4270942
0.4268448
0.4270797
0.4266203
0.4270769
0.426619
0.4269688
0.4267719
0.426759
0.4269034
0.4264751
0.4268939
0.4267142
0.4267298
0.4260398
0.4275733
0.4272943
0.4257518
0.4273475
0.425829
0.4260962
0.4276435
0.4235946
0.4280746
0.4273209
0.4222258
0.4263233
0.4211964
0.4267201
0.422181
0.4262243
0.4281405
0.4261554
0.4277766
0.4279633
0.4249958
0.4287982
0.4254665
0.425935
0.4294746
0.4257317
0.4288832
0.4305219
0.4245879
0.4325746
0.4254526
0.4319419
0.424692
0.4346563
0.4256754
0.426972
0.4358583
0.4265295
0.433999
0.4335803
0.4249872
0.4260852
0.4368892
0.4275258
0.4382186
0.4270019
0.4359976
0.4353811
0.4254712
0.4393427
0.4266762
0.4282544
0.4406978
0.4276642
0.4380865
0.4374023
0.4262217
0.4275829
0.4419084
0.4349844
0.4435785
0.4425837
0.4327191
0.442508
0.4287909
0.447886
0.4305086
0.433054
0.4496399
0.4317869
0.4461354
0.4453585
0.4304131
0.4511286
0.4322974
0.4351954
0.4530383
0.4336598
0.4492674
0.4484028
0.4322668
0.4343059
0.4545834
0.4465025
0.4690725
0.4641799
0.4440932
0.4622462
0.4466364
0.4502468
0.4654761
0.450125
0.4737727
0.4475362
0.4685619
0.481393
0.4568348
0.4599222
0.4904385
0.4832815
0.5025945
0.501227
0.4804281
0.5027514
0.4747197
0.5132498
0.4780635
0.4263903
0.4272275
0.426988
0.4262574
0.427001
0.4261724
0.4264126
0.4271362
0.4266974
0.4266814
0.4267138
0.4266922
0.4267121
0.4269953
0.4270173
0.4269148
0.4271169
0.426785
0.426911
0.4267658
0.4269676
0.4267745
0.4266288
0.4270331
0.4264303
0.4270447
0.4266471
0.4267696
0.4251754
0.4256201
0.4268949
0.4268435
0.4269407
0.4269085
0.424913
0.4254073
0.4525833
0.4511715
0.4388504
0.4414321
0.4381467
0.4539545
0.4511527
0.4413951
0.4559881
0.4413926
0.444084
0.4545122
0.4406752
0.4575404
0.4547023
0.444078
0.4596544
0.4442237
0.4469467
0.4580922
0.443513
0.4470135
0.4613861
0.4583172
0.4865779
0.4849527
0.4664747
0.4693438
0.4654796
0.4891235
0.4853435
0.4694736
0.4917362
0.4709216
0.4737897
0.4901668
0.4698472
0.4944115
0.4905941
0.4739327
0.4970977
0.4755819
0.4784413
0.4956165
0.4744008
0.4785765
0.4998693
0.4960353
0.4266575
0.4267066
0.4268378
0.4267179
0.4268386
0.4268259
0.4269484
0.4269472
0.4266649
0.4270862
0.4266921
0.4270378
0.4266705
0.4270243
0.4269729
0.4266473
0.4269647
0.426431
0.426739
0.4266888
0.4264147
0.4272514
0.4262846
0.4270117
0.4270084
0.4261972
0.4271647
0.4264336
0.4270853
0.4259713
0.4261125
0.4272142
0.4263455
0.4274471
0.4273003
0.4262168
0.4222501
0.4276801
0.4207486
0.4267252
0.4276726
0.4254353
0.4282151
0.4258093
0.4256835
0.4284253
0.4254865
0.4280088
0.4286954
0.4248349
0.4296669
0.4254821
0.4301866
0.424709
0.4316905
0.4256468
0.4257533
0.4319039
0.4253865
0.430687
0.431739
0.4247509
0.4337811
0.4258924
0.4260407
0.4340441
0.4256456
0.4322502
0.4333912
0.4250457
0.4359367
0.4263017
0.4265391
0.4361794
0.4340696
0.4260757
0.4351609
0.4255096
0.4383091
0.4268343
0.4272025
0.4384412
0.426685
0.4360439
0.4370839
0.4261467
0.4407684
0.4275638
0.4280861
0.4409059
0.438154
0.4274997
0.4310356
0.4468471
0.4301663
0.4435276
0.4450136
0.4300606
0.4496996
0.4320912
0.432848
0.4500734
0.4318446
0.4464932
0.4480933
0.4317989
0.4530133
0.4340648
0.4348717
0.4534712
0.4496299
0.433739
0.4673482
0.4449275
0.4737593
0.4481372
0.481529
0.45585
0.4889385
0.4594661
0.4608041
0.489396
0.4833862
0.4588125
0.4792309
0.5121776
0.505058
0.4770504
0.5217036
0.5206682
0.5189997
0.5189238
0.5216727
0.5206369
0.5179645
0.5070647
0.4857638
0.5179936
0.4823319
0.5105439
0.428137
0.4276628
0.4264079
0.4263281
0.4263933
0.4290886
0.4285442
0.4260365
0.4271717
0.4305537
0.4298025
0.4264893
0.4280804
0.4323889
0.4315171
0.4270208
0.429184
0.4343673
0.4335134
0.4278134
0.4303546
0.4364275
0.435743
0.4286689
0.4315619
0.4385586
0.437921
0.4296689
0.4331384
0.4408759
0.4401672
0.4310234
0.4349347
0.4435358
0.4425661
0.4326668
0.4369087
0.4464082
0.4452353
0.4344947
0.4390657
0.4493921
0.4480657
0.4365528
0.4414026
0.4525596
0.4511288
0.4388158
0.4440532
0.4559612
0.454476
0.4413572
0.4469148
0.4596241
0.4580547
0.4441875
0.4500939
0.4635565
0.4619782
0.4473185
0.4535315
0.4677185
0.4661328
0.4507195
0.4572247
0.4721684
0.4705986
0.4543815
0.461072
0.4767952
0.4751661
0.458205
0.4650801
0.4815806
0.4799311
0.4621978
0.4692894
0.4865266
0.4849038
0.4664096
0.4737338
0.4916859
0.4901393
0.4708526
0.4783832
0.4970371
0.4955653
0.4755023
0.4832203
0.5025319
0.5011883
0.480345
0.4273262
0.425799
0.4260701
0.4276091
0.4215994
0.4274925
0.4265827
0.4195526
0.4253004
0.4183516
0.4256896
0.4197807
0.419404
0.426597
0.4255735
0.4166883
0.429117
0.4246231
0.4304721
0.4253413
0.426197
0.4313914
0.425815
0.4304099
0.4265339
0.4336311
0.4261868
0.4321228
0.471924
0.4493107
0.4521964
0.4802411
0.4579145
0.4837968
0.4550525
0.4780155
0.4619341
0.4889558
0.4589719
0.4828936
0.427762
0.426093
0.4262282
0.4282404
0.4286663
0.4260329
0.4264104
0.4292468
0.430114
0.4264298
0.4272354
0.431056
0.4317288
0.4269227
0.4280832
0.4328329
0.4335875
0.42751
0.4290725
0.4348396
0.4355415
0.4282116
0.4302139
0.4369384
0.4374495
0.4291462
0.4314572
0.4391806
0.4397763
0.4305022
0.4330509
0.4417306
0.4423466
0.432113
0.4348309
0.4445331
0.44507
0.4338773
0.4367863
0.4474756
0.44799
0.4358739
0.4389735
0.4506077
0.4511105
0.4381244
0.4413569
0.4539245
0.4546695
0.4406566
0.4440514
0.4575208
0.4582793
0.4434885
0.4469762
0.4613576
0.462225
0.4466031
0.4502146
0.4654789
0.4664533
0.4499863
0.4536967
0.4698288
0.4709051
0.4535622
0.4573806
0.474404
0.4755095
0.4572991
0.4611809
0.4791135
0.4802965
0.4612591
0.4652045
0.483994
0.4852987
0.4654331
0.4694176
0.4890598
0.4905299
0.4698102
0.4738898
0.4943435
0.4959872
0.4743505
0.4785183
0.4998003
0.4833837
0.4791198
0.5016487
0.5054501
0.4252025
0.4271596
0.4255569
0.427063
0.4343432
0.4581396
0.4516176
0.4365441
0.4604936
0.4402433
0.4382149
0.4561724
0.4432349
0.4646521
0.4410094
0.4600476
0.439472
0.4419711
0.4589933
0.4662059
0.4609469
0.4958336
0.4864256
0.4641208
0.49999
0.4676491
0.4708443
0.4933637
0.4653184
0.5014419
0.4916999
0.4685497
0.4263202
0.4274184
0.427282
0.4261855
0.4264722
0.4203928
0.4215648
0.4268642
0.4199789
0.4269007
0.4179528
0.425721
0.4254279
0.4175208
0.419244
0.4258401
0.4255363
0.4299323
0.425221
0.4291552
0.4719711
0.4484164
0.4787252
0.4517677
0.452946
0.4791881
0.4737203
0.4511041
0.4278207
0.4250332
0.4256002
0.427439
0.4337841
0.4565647
0.4513895
0.4362692
0.4570634
0.435853
0.4371275
0.4529511
0.4549528
0.4361143
0.4603946
0.4388021
0.4397458
0.4609776
0.4383318
0.4566104
0.4588239
0.4387596
0.4645972
0.4416211
0.4426223
0.4651396
0.4410925
0.4604954
0.4598899
0.4942997
0.4866046
0.4636243
0.4947971
0.4630186
0.4650698
0.4885104
0.4641939
0.4999039
0.4918545
0.4680275
0.5004059
0.4674743
0.4695705
0.4938324
0.5069878
0.50817
0.4270396
0.4251572
0.4255288
0.4271274
0.4264822
0.4238647
0.4244317
0.4267543
0.4251835
0.4219203
0.4226936
0.4257122
0.4234818
0.4193356
0.4202259
0.4243777
0.421507
0.4164921
0.4173158
0.4226987
0.4281258
0.4277489
0.4262004
0.4261355
0.4259166
0.4294595
0.4288602
0.4257156
0.426173
0.4313711
0.4303838
0.425799
0.4264999
0.4336011
0.4320889
0.4261553
0.426942
0.4358216
0.4339518
0.4265097
0.427476
0.4381666
0.435941
0.4269528
0.4281911
0.4406371
0.4380187
0.4276121
0.4294007
0.4433283
0.4403967
0.4285879
0.4311252
0.4463684
0.4431497
0.4300683
0.4330171
0.449603
0.4460968
0.4317492
0.4351636
0.4529944
0.4492182
0.4336271
0.4375656
0.4566369
0.4525825
0.4357743
0.4402313
0.4604776
0.4561445
0.4382201
0.4432309
0.4646364
0.4600197
0.4409969
0.4465058
0.4690452
0.4641337
0.4440978
0.4500919
0.4737388
0.4685368
0.4475027
0.4539172
0.4786735
0.4731752
0.4511929
0.4578687
0.4837509
0.4779587
0.4550121
0.4618878
0.48891
0.4828394
0.45893
0.4662122
0.4943215
0.4879756
0.4631359
0.4707481
0.4999277
0.4933038
0.4675906
0.4755542
0.5057785
0.4988739
0.4722907
0.4804956
0.511747
0.5045695
0.4771494
0.4260146
0.4275474
0.4272693
0.4257276
0.4251359
0.4281086
0.4276067
0.4242993
0.4240821
0.4265039
0.4262158
0.4235056
0.4220008
0.4253912
0.4246861
0.4210933
0.4195451
0.4240331
0.4229559
0.4185094
0.4168535
0.4156247
0.4270797
0.4235848
0.4241771
0.427302
0.4240948
0.4154114
0.424675
0.4171125
0.467396
0.4458028
0.4485769
0.4753414
0.4539477
0.4787076
0.4512228
0.4732154
0.4255705
0.4277905
0.4274108
0.4250137
0.427942
0.4249719
0.4254473
0.4287768
0.4290945
0.4245988
0.4253193
0.4304504
0.4304943
0.4245554
0.4254207
0.43255
0.4318965
0.4246433
0.4256292
0.4346071
0.4335164
0.4249252
0.4260232
0.4368213
0.4353135
0.4254051
0.4266116
0.4392735
0.4373448
0.4261683
0.4275278
0.4418527
0.4397889
0.4273434
0.4288822
0.4447467
0.4424606
0.4287485
0.4304638
0.4478372
0.4453145
0.430373
0.4322606
0.4510872
0.4483744
0.4322404
0.434274
0.4545651
0.4515984
0.4343189
0.43652
0.4581248
0.4551688
0.4367538
0.4391091
0.462058
0.458962
0.4394579
0.4419676
0.4662051
0.4630436
0.4424799
0.4451221
0.4706525
0.4673641
0.4457672
0.4485422
0.4753148
0.4718774
0.449263
0.4521517
0.4801888
0.4765002
0.4528826
0.4558891
0.4851669
0.4813288
0.4567726
0.4598592
0.4903816
0.4863675
0.4608913
0.4640605
0.4957815
0.4916381
0.4652847
0.4685104
0.5014262
0.4970609
0.4698315
0.4731283
0.5071902
0.5026782
0.4746326
0.4779657
0.5131756
0.4281532
0.427643
0.4243351
0.4251702
0.4566544
0.4358017
0.452599
0.4375928
0.4551921
0.4367591
0.4620502
0.4391167
0.4270591
0.4259452
0.4260848
0.4271882
0.4274884
0.4247448
0.425162
0.4276719
0.4242688
0.4281019
0.4233058
0.4274334
0.424089
0.4145907
0.4165787
0.4245925
0.4285304
0.4303419
0.4421502
0.4465128
0.4247727
0.4277013
0.4275184
0.4251967
0.4856545
0.5179098
0.5104575