/*--------------------------------*- C++ -*----------------------------------*\
  =========                 |
  \\      /  F ield         | OpenFOAM: The Open Source CFD Toolbox
   \\    /   O peration     | Website:  https://openfoam.org
    \\  /    A nd           | Version:  7
     \\/     M anipulation  |
\*---------------------------------------------------------------------------*/
FoamFile
{
    version     2.0;
    format      ascii;
    class       volScalarField;
    location    "0.09";
    object      k;
}
// * * * * * * * * * * * * * * * * * * * * * * * * * * * * * * * * * * * * * //

dimensions      [0 2 -2 0 0 0 0];

internalField   nonuniform List<scalar> 
77997
(
0.003693562
0.00369102
0.003690618
0.003690535
0.003690524
0.003690522
0.003690522
0.003690524
0.003690525
0.00369356
0.003723812
0.003723264
0.003723053
0.003723002
0.003722991
0.003722988
0.00372299
0.003722992
0.003691025
0.003723309
0.003722773
0.003722562
0.003722512
0.003722501
0.003722499
0.0037225
0.003722502
0.003690667
0.003723315
0.00372288
0.003722711
0.003722673
0.003722665
0.003722664
0.003722666
0.003722668
0.003690747
0.003723786
0.003723678
0.00372358
0.003723557
0.00372355
0.003723549
0.003723551
0.003723554
0.003691975
0.00369389
0.003692739
0.003692553
0.003692531
0.003692528
0.003692527
0.003692533
0.003692545
0.003692554
0.003612923
0.00362996
0.003629652
0.003629625
0.003629615
0.003629606
0.00362964
0.003629586
0.00362936
0.003629616
0.003765944
0.00376842
0.003770043
0.003771534
0.003773346
0.003775559
0.003778193
0.003781282
0.003784866
0.003747429
0.00374765
0.003747781
0.003748069
0.003748414
0.003748844
0.003749351
0.003749946
0.003750632
0.003747344
0.003747667
0.003747807
0.003748039
0.003748388
0.003748818
0.003749339
0.003749946
0.003750648
0.003747446
0.003748003
0.003748239
0.003748518
0.003748888
0.003749333
0.003749866
0.003750488
0.003751205
0.003747083
0.003747633
0.003747836
0.003748102
0.00374846
0.003748895
0.003749419
0.003750029
0.003750732
0.003746806
0.003747349
0.003747579
0.003747853
0.003748213
0.003748643
0.003749158
0.003749755
0.003750444
0.003746378
0.00374689
0.003747098
0.003747364
0.003747713
0.003748133
0.003748635
0.003749217
0.003749885
0.003745939
0.003746414
0.003746618
0.00374688
0.003747222
0.003747633
0.003748122
0.003748688
0.003749337
0.003745427
0.003745859
0.003746047
0.0037463
0.003746634
0.003747034
0.00374751
0.003748061
0.00374869
0.003744878
0.003745264
0.003745439
0.003745684
0.00374601
0.003746401
0.003746865
0.0037474
0.003748011
0.003744282
0.003744618
0.003744777
0.003745013
0.003745331
0.003745713
0.003746166
0.003746688
0.003747281
0.003743649
0.003743932
0.003744075
0.003744303
0.003744614
0.003744988
0.003745432
0.003745942
0.00374652
0.00374298
0.003743209
0.003743336
0.003743555
0.00374386
0.003744227
0.003744663
0.003745162
0.003745727
0.003742283
0.003742453
0.003742564
0.003742775
0.003743074
0.003743436
0.003743865
0.003744357
0.003744912
0.003741558
0.003741669
0.003741763
0.003741967
0.003742262
0.00374262
0.003743045
0.003743531
0.003744079
0.003740811
0.003740861
0.003740938
0.003741135
0.003741426
0.003741781
0.003742204
0.003742688
0.003743233
0.003740045
0.003740033
0.003740093
0.003740284
0.003740572
0.003740926
0.003741349
0.003741834
0.003742379
0.003693797
0.003723216
0.003722852
0.003722728
0.003722708
0.003722705
0.003722703
0.003722701
0.003693791
0.003441499
0.003441627
0.003441623
0.003441622
0.003441622
0.003441622
0.003441622
0.003441622
0.003723198
0.003441628
0.003441492
0.003441491
0.003441491
0.003441491
0.00344149
0.00344149
0.00344149
0.003722978
0.003441624
0.00344149
0.003441489
0.003441489
0.003441489
0.003441489
0.003441489
0.003441489
0.003723297
0.00344162
0.003441488
0.003441487
0.003441487
0.003441487
0.003441487
0.003441487
0.003441487
0.003693396
0.003441471
0.003441637
0.003441635
0.003441632
0.003441632
0.003441632
0.003441632
0.003441632
0.003694034
0.003687124
0.003685809
0.003685524
0.003685485
0.003685479
0.003685481
0.003685488
0.003685502
0.003443732
0.003443838
0.003443796
0.003443856
0.003443891
0.003443947
0.003444007
0.003444078
0.003444159
0.003742899
0.003442616
0.003442611
0.003442629
0.003442655
0.003442685
0.003442722
0.003442765
0.003442817
0.003442878
0.003746638
0.003442562
0.00344257
0.003442588
0.003442624
0.003442656
0.003442696
0.003442742
0.003442797
0.003442861
0.003746101
0.003442567
0.003442569
0.003442586
0.003442615
0.003442649
0.00344269
0.003442738
0.003442794
0.003442859
0.003745565
0.00344258
0.003442567
0.003442591
0.003442624
0.003442661
0.003442705
0.003442755
0.003442813
0.00344288
0.003745123
0.003442563
0.003442563
0.003442589
0.003442622
0.003442661
0.003442705
0.003442757
0.003442816
0.003442883
0.003743945
0.003442572
0.003442559
0.003442588
0.003442624
0.003442665
0.003442711
0.003442763
0.003442823
0.003442891
0.003743065
0.003442561
0.003442552
0.003442582
0.003442619
0.003442662
0.00344271
0.003442765
0.003442824
0.003442891
0.003741859
0.00344256
0.003442543
0.003442575
0.003442614
0.003442657
0.003442706
0.003442761
0.003442821
0.003442887
0.003740648
0.003442549
0.003442531
0.003442565
0.003442605
0.003442649
0.003442698
0.003442753
0.003442812
0.003442877
0.00373933
0.00344254
0.003442517
0.003442552
0.003442593
0.003442637
0.003442686
0.003442741
0.0034428
0.003442863
0.003737939
0.003442524
0.003442501
0.003442536
0.003442578
0.003442622
0.003442671
0.003442726
0.003442783
0.003442845
0.003736481
0.003442503
0.003442482
0.003442518
0.00344256
0.003442605
0.003442653
0.003442707
0.003442764
0.003442824
0.003734952
0.003442476
0.003442461
0.003442497
0.00344254
0.003442584
0.003442632
0.003442686
0.003442741
0.003442799
0.003733366
0.003442446
0.003442438
0.003442474
0.003442517
0.003442561
0.003442609
0.003442662
0.003442716
0.003442772
0.003731762
0.003442413
0.003442413
0.003442449
0.003442492
0.003442536
0.003442584
0.003442636
0.003442689
0.003442743
0.003443572
0.003442381
0.003442385
0.003442421
0.003442464
0.00344251
0.003442557
0.003442609
0.00344266
0.003442712
0.003694089
0.003723271
0.003722645
0.003722458
0.003722428
0.003722423
0.003722419
0.003722416
0.003694078
0.003441369
0.003441497
0.003441492
0.003441491
0.00344149
0.00344149
0.00344149
0.00344149
0.003723213
0.003441499
0.003441368
0.003441368
0.003441368
0.003441368
0.003441368
0.003441368
0.003441368
0.003722798
0.003441494
0.003441368
0.003441368
0.003441368
0.003441368
0.003441368
0.003441368
0.003441368
0.003723329
0.003441492
0.003441502
0.003441492
0.003441491
0.003441491
0.003441492
0.003441492
0.003441492
0.003692403
0.00344164
0.003730086
0.003728437
0.003727831
0.003727671
0.003727635
0.003727632
0.003727634
0.003687536
0.003443768
0.003442592
0.003442567
0.003442596
0.003442617
0.003442648
0.003442683
0.003442726
0.00374774
0.003442558
0.003442373
0.003442412
0.003442439
0.003442472
0.003442505
0.003442547
0.003442596
0.003747113
0.003442563
0.003442407
0.003442425
0.003442455
0.003442485
0.003442523
0.003442567
0.003442619
0.00344268
0.00374735
0.003442545
0.003442422
0.003442441
0.003442468
0.003442504
0.003442544
0.003442592
0.003442647
0.003442711
0.003746878
0.003442556
0.003442428
0.003442451
0.00344248
0.003442516
0.003442558
0.003442608
0.003442665
0.003442731
0.003746576
0.003442547
0.003442427
0.003442454
0.003442485
0.003442523
0.003442567
0.003442619
0.003442677
0.003442744
0.003746096
0.003442542
0.003442425
0.003442455
0.003442488
0.003442528
0.003442574
0.003442626
0.003442685
0.003442753
0.003745612
0.003442532
0.003442419
0.003442451
0.003442486
0.003442527
0.003442574
0.003442627
0.003442686
0.003442754
0.003745051
0.003442521
0.003442411
0.003442444
0.003442482
0.003442524
0.003442571
0.003442625
0.003442684
0.00344275
0.003744454
0.003442508
0.003442399
0.003442434
0.003442473
0.003442516
0.003442564
0.003442617
0.003442676
0.003442742
0.003743809
0.003442492
0.003442386
0.003442422
0.003442461
0.003442505
0.003442553
0.003442607
0.003442665
0.003442729
0.003743129
0.003442474
0.003442369
0.003442406
0.003442447
0.003442491
0.003442539
0.003442592
0.003442649
0.003442711
0.003742414
0.003442454
0.003442351
0.003442388
0.003442429
0.003442473
0.003442521
0.003442574
0.00344263
0.00344269
0.00374167
0.003442432
0.00344233
0.003442368
0.003442409
0.003442453
0.003442501
0.003442552
0.003442607
0.003442666
0.0037409
0.003442407
0.003442307
0.003442345
0.003442386
0.003442431
0.003442478
0.003442529
0.003442582
0.003442639
0.003740109
0.003442381
0.003442281
0.00344232
0.003442361
0.003442405
0.003442452
0.003442502
0.003442555
0.00344261
0.003739301
0.003442353
0.003442254
0.003442292
0.003442334
0.003442378
0.003442425
0.003442474
0.003442525
0.003442578
0.003694074
0.00372325
0.003722595
0.003722384
0.003722353
0.00372235
0.003722344
0.00372234
0.003694051
0.003441369
0.003441495
0.00344149
0.003441488
0.003441487
0.003441487
0.003441487
0.003441488
0.003723152
0.003441498
0.003441368
0.003441368
0.003441368
0.003441368
0.003441368
0.003441368
0.003441368
0.003722728
0.003441493
0.003441368
0.003441368
0.003441368
0.003441368
0.003441368
0.003441368
0.003441368
0.003723266
0.003441491
0.003441492
0.003441483
0.003441481
0.003441481
0.003441481
0.003441481
0.003441481
0.003692223
0.003441637
0.00372844
0.003726225
0.003725219
0.00372494
0.003724876
0.003724867
0.00372487
0.003686262
0.003443739
0.003442549
0.003442518
0.003442565
0.003442574
0.003442612
0.003442636
0.003442674
0.003747835
0.003442557
0.003442369
0.003442399
0.003442419
0.003442451
0.003442485
0.003442526
0.003442575
0.003747411
0.003442551
0.003442393
0.003442407
0.003442438
0.003442467
0.003442506
0.003442548
0.0034426
0.003747719
0.003442536
0.003442413
0.003442429
0.003442453
0.003442487
0.003442527
0.003442573
0.003442628
0.003442691
0.003747278
0.003442546
0.003442424
0.003442447
0.003442473
0.003442508
0.003442551
0.0034426
0.003442657
0.003442723
0.003746972
0.003442538
0.003442425
0.003442451
0.003442481
0.003442519
0.003442563
0.003442614
0.003442673
0.00344274
0.003746471
0.003442533
0.003442424
0.003442454
0.003442487
0.003442526
0.003442572
0.003442624
0.003442683
0.003442751
0.003745968
0.003442523
0.003442418
0.00344245
0.003442485
0.003442526
0.003442573
0.003442626
0.003442686
0.003442753
0.003745381
0.003442513
0.00344241
0.003442444
0.003442481
0.003442523
0.003442571
0.003442624
0.003442684
0.00344275
0.003744759
0.0034425
0.003442399
0.003442434
0.003442473
0.003442516
0.003442564
0.003442617
0.003442676
0.003442742
0.003744085
0.003442484
0.003442385
0.003442421
0.003442461
0.003442505
0.003442553
0.003442607
0.003442665
0.003442729
0.003743374
0.003442467
0.003442369
0.003442406
0.003442446
0.00344249
0.003442539
0.003442592
0.003442649
0.003442711
0.003742626
0.003442447
0.00344235
0.003442388
0.003442429
0.003442473
0.003442521
0.003442574
0.00344263
0.00344269
0.003741846
0.003442424
0.003442329
0.003442367
0.003442409
0.003442453
0.003442501
0.003442552
0.003442607
0.003442666
0.003741041
0.0034424
0.003442306
0.003442344
0.003442386
0.00344243
0.003442477
0.003442528
0.003442582
0.003442639
0.003740212
0.003442374
0.00344228
0.003442319
0.003442361
0.003442405
0.003442452
0.003442502
0.003442554
0.003442609
0.003739366
0.003442346
0.003442253
0.003442292
0.003442334
0.003442378
0.003442424
0.003442474
0.003442525
0.003442578
0.003694077
0.003723269
0.003722625
0.003722419
0.003722392
0.00372239
0.003722384
0.003722378
0.003694045
0.003441369
0.003441495
0.003441489
0.003441487
0.003441486
0.003441486
0.003441486
0.003441486
0.003723146
0.003441498
0.003441368
0.003441368
0.003441368
0.003441368
0.003441368
0.003441368
0.003441368
0.003722723
0.003441492
0.003441368
0.003441368
0.003441368
0.003441368
0.003441368
0.003441368
0.003441368
0.003723258
0.003441491
0.003441491
0.003441481
0.003441478
0.003441479
0.003441479
0.003441479
0.003441479
0.003692205
0.003441635
0.003727869
0.00372528
0.003724072
0.003723727
0.003723648
0.003723637
0.00372364
0.003685985
0.003443764
0.003442548
0.003442534
0.003442582
0.003442591
0.00344263
0.003442654
0.003442693
0.003747839
0.003442556
0.003442365
0.003442395
0.003442419
0.003442452
0.003442486
0.003442527
0.003442575
0.00374732
0.003442555
0.003442385
0.003442401
0.003442427
0.003442456
0.003442494
0.003442536
0.003442587
0.003747724
0.003442533
0.003442406
0.003442418
0.003442439
0.003442474
0.003442513
0.00344256
0.003442614
0.00374725
0.003442545
0.003442418
0.003442439
0.003442461
0.003442495
0.003442537
0.003442585
0.003442642
0.003442707
0.003746966
0.003442535
0.003442422
0.003442447
0.003442476
0.003442512
0.003442556
0.003442607
0.003442666
0.003442733
0.003746459
0.003442532
0.003442422
0.003442451
0.003442484
0.003442523
0.003442568
0.00344262
0.00344268
0.003442747
0.003745956
0.003442522
0.003442416
0.003442448
0.003442484
0.003442525
0.003442571
0.003442624
0.003442684
0.003442751
0.003745364
0.003442512
0.003442409
0.003442442
0.00344248
0.003442522
0.00344257
0.003442623
0.003442683
0.003442749
0.003744736
0.003442498
0.003442397
0.003442433
0.003442472
0.003442515
0.003442563
0.003442617
0.003442676
0.003442741
0.003744054
0.003442483
0.003442384
0.00344242
0.00344246
0.003442504
0.003442553
0.003442606
0.003442665
0.003442729
0.003743335
0.003442465
0.003442367
0.003442405
0.003442446
0.00344249
0.003442538
0.003442591
0.003442649
0.003442711
0.003742578
0.003442445
0.003442349
0.003442387
0.003442428
0.003442473
0.003442521
0.003442573
0.003442629
0.00344269
0.00374179
0.003442423
0.003442328
0.003442366
0.003442408
0.003442453
0.0034425
0.003442552
0.003442607
0.003442666
0.003740975
0.003442399
0.003442304
0.003442343
0.003442385
0.00344243
0.003442477
0.003442528
0.003442582
0.003442639
0.003740137
0.003442372
0.003442279
0.003442318
0.00344236
0.003442405
0.003442452
0.003442502
0.003442554
0.003442609
0.00373928
0.003442344
0.003442251
0.003442291
0.003442333
0.003442377
0.003442424
0.003442473
0.003442524
0.003442578
0.00369408
0.003723296
0.003722672
0.003722476
0.003722453
0.003722452
0.003722445
0.003722438
0.003694047
0.003441369
0.003441495
0.003441489
0.003441487
0.003441486
0.003441486
0.003441486
0.003441486
0.003723168
0.003441498
0.003441368
0.003441368
0.003441368
0.003441368
0.003441368
0.003441368
0.003441368
0.003722754
0.003441492
0.003441368
0.003441368
0.003441368
0.003441368
0.003441368
0.003441368
0.003441368
0.003723279
0.003441491
0.003441491
0.003441481
0.003441479
0.003441479
0.003441479
0.003441479
0.003441479
0.00369221
0.003441635
0.003727867
0.003725278
0.00372407
0.003723724
0.003723645
0.003723634
0.003723637
0.003685961
0.003443762
0.003442549
0.003442533
0.003442582
0.003442591
0.003442631
0.003442654
0.003442693
0.003747838
0.003442556
0.003442366
0.003442395
0.00344242
0.003442452
0.003442486
0.003442527
0.003442575
0.00374732
0.003442555
0.003442385
0.0034424
0.003442427
0.003442456
0.003442494
0.003442536
0.003442587
0.003747724
0.003442533
0.003442406
0.003442418
0.003442439
0.003442474
0.003442513
0.003442559
0.003442613
0.003747253
0.003442545
0.003442418
0.003442439
0.003442461
0.003442495
0.003442536
0.003442585
0.003442642
0.003746972
0.003442535
0.003442422
0.003442447
0.003442476
0.003442512
0.003442556
0.003442607
0.003442665
0.003746459
0.003442532
0.003442422
0.003442451
0.003442484
0.003442523
0.003442568
0.00344262
0.003442679
0.003442747
0.003745956
0.003442522
0.003442416
0.003442448
0.003442484
0.003442525
0.003442571
0.003442624
0.003442684
0.003442751
0.003745365
0.003442512
0.003442409
0.003442443
0.00344248
0.003442522
0.00344257
0.003442623
0.003442683
0.00344275
0.003744736
0.003442498
0.003442397
0.003442433
0.003442472
0.003442515
0.003442563
0.003442617
0.003442676
0.003442742
0.003744054
0.003442483
0.003442384
0.00344242
0.00344246
0.003442504
0.003442553
0.003442606
0.003442665
0.003442729
0.003743334
0.003442465
0.003442367
0.003442405
0.003442446
0.00344249
0.003442539
0.003442591
0.003442649
0.003442711
0.003742578
0.003442445
0.003442349
0.003442387
0.003442428
0.003442473
0.003442521
0.003442573
0.003442629
0.00344269
0.003741787
0.003442423
0.003442328
0.003442366
0.003442408
0.003442452
0.0034425
0.003442552
0.003442607
0.003442666
0.003740972
0.003442398
0.003442304
0.003442344
0.003442386
0.00344243
0.003442478
0.003442528
0.003442582
0.003442639
0.003740135
0.003442372
0.003442278
0.003442318
0.00344236
0.003442405
0.003442452
0.003442502
0.003442554
0.003442609
0.003739285
0.003442344
0.003442251
0.003442291
0.003442334
0.003442378
0.003442425
0.003442474
0.003442524
0.003442578
0.003694106
0.003723406
0.003722851
0.003722692
0.003722673
0.003722671
0.003722665
0.003722654
0.003694063
0.003441369
0.003441496
0.003441491
0.003441489
0.003441488
0.003441488
0.003441488
0.003441488
0.00372329
0.003441498
0.003441368
0.003441368
0.003441368
0.003441368
0.003441368
0.003441368
0.003441368
0.003722908
0.003441493
0.003441368
0.003441368
0.003441368
0.003441368
0.003441368
0.003441368
0.003441368
0.003723402
0.003441491
0.003441492
0.003441483
0.003441481
0.003441481
0.003441481
0.003441481
0.003441481
0.003692268
0.003441637
0.003728435
0.003726219
0.003725213
0.003724932
0.003724869
0.003724861
0.003724865
0.003686053
0.003443758
0.003442548
0.003442519
0.003442568
0.003442577
0.003442615
0.003442636
0.003442673
0.003747841
0.003442557
0.003442369
0.003442399
0.003442419
0.003442451
0.003442486
0.003442528
0.003442577
0.003747416
0.003442551
0.003442393
0.003442407
0.003442438
0.003442467
0.003442506
0.003442547
0.0034426
0.003747726
0.003442537
0.003442413
0.003442429
0.003442453
0.003442488
0.003442527
0.003442574
0.003442628
0.003747275
0.003442546
0.003442424
0.003442447
0.003442473
0.003442508
0.00344255
0.003442599
0.003442656
0.003746959
0.003442538
0.003442425
0.003442452
0.003442482
0.003442519
0.003442563
0.003442613
0.003442672
0.003746468
0.003442534
0.003442424
0.003442454
0.003442487
0.003442526
0.003442571
0.003442624
0.003442683
0.003745965
0.003442524
0.003442418
0.00344245
0.003442486
0.003442527
0.003442573
0.003442626
0.003442686
0.003442753
0.003745384
0.003442513
0.00344241
0.003442444
0.003442481
0.003442524
0.003442571
0.003442624
0.003442684
0.003442751
0.00374477
0.0034425
0.003442399
0.003442434
0.003442473
0.003442516
0.003442564
0.003442617
0.003442676
0.003442742
0.003744082
0.003442485
0.003442385
0.003442421
0.003442461
0.003442505
0.003442553
0.003442607
0.003442665
0.003442729
0.003743373
0.003442466
0.003442369
0.003442406
0.003442446
0.003442491
0.003442539
0.003442592
0.003442649
0.003442711
0.003742626
0.003442447
0.00344235
0.003442388
0.003442429
0.003442473
0.003442521
0.003442573
0.003442629
0.00344269
0.003741847
0.003442424
0.003442329
0.003442367
0.003442408
0.003442453
0.0034425
0.003442552
0.003442607
0.003442666
0.003741042
0.0034424
0.003442306
0.003442344
0.003442386
0.00344243
0.003442478
0.003442528
0.003442582
0.003442639
0.00374021
0.003442374
0.00344228
0.003442319
0.00344236
0.003442405
0.003442452
0.003442502
0.003442555
0.00344261
0.003739352
0.003442346
0.003442253
0.003442291
0.003442333
0.003442378
0.003442425
0.003442474
0.003442525
0.003442578
0.003694326
0.003723687
0.003723426
0.003723328
0.003723309
0.003723309
0.003723303
0.003723291
0.003694287
0.003441369
0.003441499
0.003441495
0.003441494
0.003441494
0.003441493
0.003441494
0.003441494
0.003723599
0.0034415
0.003441368
0.003441368
0.003441368
0.003441368
0.003441368
0.003441368
0.003441368
0.003723441
0.003441497
0.003441368
0.003441368
0.003441368
0.003441368
0.003441368
0.003441368
0.003441368
0.003723703
0.003441494
0.003441502
0.003441492
0.003441491
0.003441492
0.003441492
0.003441492
0.003441492
0.00369278
0.00344164
0.003730084
0.003728436
0.003727827
0.003727666
0.003727632
0.003727631
0.003727636
0.003686657
0.003443812
0.003442587
0.00344256
0.00344259
0.00344261
0.003442641
0.00344268
0.003442728
0.003747739
0.003442559
0.003442375
0.003442414
0.003442438
0.003442469
0.003442502
0.003442542
0.003442594
0.00374712
0.003442564
0.003442407
0.003442424
0.003442455
0.003442485
0.003442524
0.003442567
0.00344262
0.003747345
0.003442546
0.003442422
0.003442442
0.003442469
0.003442504
0.003442544
0.003442592
0.003442647
0.003746917
0.003442556
0.003442428
0.003442452
0.00344248
0.003442516
0.003442558
0.003442607
0.003442664
0.00374661
0.003442547
0.003442428
0.003442455
0.003442486
0.003442524
0.003442568
0.003442619
0.003442677
0.003746068
0.003442544
0.003442426
0.003442455
0.003442489
0.003442528
0.003442574
0.003442626
0.003442685
0.003745614
0.003442532
0.003442419
0.003442451
0.003442487
0.003442528
0.003442574
0.003442627
0.003442687
0.00374506
0.003442522
0.003442411
0.003442444
0.003442482
0.003442524
0.003442572
0.003442625
0.003442684
0.003442751
0.00374445
0.003442509
0.003442399
0.003442434
0.003442473
0.003442516
0.003442564
0.003442618
0.003442677
0.003442742
0.003743814
0.003442493
0.003442386
0.003442422
0.003442462
0.003442505
0.003442554
0.003442607
0.003442665
0.003442729
0.003743137
0.003442474
0.003442369
0.003442406
0.003442447
0.003442491
0.003442539
0.003442592
0.003442649
0.003442711
0.003742423
0.003442454
0.003442351
0.003442389
0.00344243
0.003442474
0.003442522
0.003442574
0.00344263
0.00344269
0.003741664
0.003442432
0.00344233
0.003442368
0.003442409
0.003442453
0.003442501
0.003442552
0.003442607
0.003442666
0.003740885
0.003442408
0.003442306
0.003442346
0.003442388
0.003442432
0.003442479
0.003442529
0.003442583
0.003442639
0.003740131
0.00344238
0.00344228
0.003442319
0.00344236
0.003442405
0.003442452
0.003442503
0.003442555
0.00344261
0.003739356
0.003442351
0.003442253
0.003442293
0.003442339
0.003442384
0.00344243
0.003442475
0.003442525
0.003442578
0.003694576
0.003693555
0.003692088
0.003692039
0.003691798
0.003691734
0.003691729
0.003691763
0.003691612
0.003694656
0.0034415
0.003441497
0.003441496
0.003441496
0.003441496
0.003441496
0.003441496
0.003441496
0.003693535
0.003441498
0.003441492
0.003441491
0.00344149
0.00344149
0.00344149
0.00344149
0.00344149
0.003691856
0.003441496
0.00344149
0.003441489
0.003441489
0.003441488
0.003441488
0.003441488
0.003441488
0.003692183
0.003441494
0.003441488
0.003441487
0.003441487
0.003441487
0.003441487
0.003441487
0.003441487
0.003693166
0.003441471
0.003441638
0.003441636
0.003441633
0.003441632
0.003441632
0.003441633
0.003441633
0.003690439
0.003643168
0.003639645
0.003638276
0.003638112
0.003638178
0.003638197
0.003638258
0.003638285
0.003443728
0.003443979
0.003444158
0.003444093
0.003444121
0.003444158
0.003444229
0.003444288
0.003444341
0.003746076
0.003442619
0.003442626
0.00344265
0.003442675
0.003442706
0.003442742
0.003442786
0.003442829
0.003747368
0.00344256
0.003442568
0.003442585
0.003442621
0.003442653
0.003442692
0.003442738
0.003442796
0.003746696
0.003442566
0.003442569
0.003442588
0.003442616
0.003442651
0.003442692
0.003442739
0.003442795
0.003745504
0.003442586
0.003442565
0.003442592
0.003442624
0.003442661
0.003442704
0.003442754
0.003442812
0.003745261
0.003442566
0.003442565
0.003442589
0.003442623
0.003442661
0.003442706
0.003442757
0.003442816
0.003743816
0.003442568
0.003442562
0.003442588
0.003442624
0.003442665
0.003442711
0.003442763
0.003442823
0.00374303
0.003442565
0.003442549
0.003442583
0.00344262
0.003442662
0.003442709
0.003442764
0.003442824
0.003742304
0.003442565
0.003442541
0.003442576
0.003442614
0.003442657
0.003442705
0.00344276
0.003442819
0.003740407
0.003442544
0.003442535
0.003442564
0.003442605
0.003442648
0.003442697
0.003442751
0.00344281
0.003442875
0.003739396
0.003442541
0.003442518
0.003442552
0.003442593
0.003442637
0.003442686
0.003442739
0.003442797
0.003442861
0.003738336
0.003442523
0.003442499
0.003442537
0.003442578
0.003442622
0.003442671
0.003442724
0.003442781
0.003442843
0.003736503
0.003442482
0.003442484
0.003442518
0.003442561
0.003442605
0.003442653
0.003442705
0.003442762
0.003442822
0.003735847
0.003442464
0.00344246
0.003442497
0.003442539
0.003442584
0.003442633
0.003442686
0.00344274
0.003442798
0.003733239
0.00344242
0.003442441
0.003442473
0.003442518
0.003442562
0.00344261
0.00344266
0.003442714
0.003442771
0.003731908
0.003442419
0.003442406
0.003442449
0.003442502
0.003442556
0.003442604
0.003442646
0.003442692
0.003442745
0.003731905
0.00344239
0.003442381
0.003442424
0.003442471
0.003442518
0.003442564
0.003442613
0.003442657
0.00344271
0.003693969
0.003693802
0.00363307
0.003636966
0.003627695
0.003626349
0.003628861
0.003627703
0.003625801
0.003627548
0.003724518
0.003724011
0.003723869
0.003723857
0.003723845
0.003723829
0.003723821
0.003723832
0.003624575
0.003724082
0.003723108
0.003722823
0.003722762
0.003722747
0.003722741
0.003722741
0.003722742
0.003624814
0.003724051
0.003723103
0.003722819
0.003722756
0.003722742
0.003722741
0.003722743
0.003722746
0.003693976
0.003724367
0.003723833
0.003723652
0.003723599
0.003723587
0.003723595
0.003723603
0.003723614
0.003693929
0.003441861
0.003441854
0.003441857
0.003441858
0.003441858
0.00344186
0.00344186
0.003441861
0.003441861
0.003697329
0.003695487
0.003695457
0.003694697
0.003694319
0.003695007
0.003694952
0.003695417
0.003695492
0.003447093
0.003447167
0.003447396
0.003446684
0.003447224
0.003447732
0.003448062
0.003448829
0.003450265
0.003768276
0.003747259
0.003747412
0.003747511
0.003747829
0.003748161
0.003748581
0.003749162
0.003749861
0.003772048
0.003747469
0.003747844
0.003748039
0.003748255
0.003748609
0.003749056
0.003749522
0.003750042
0.003772794
0.003747399
0.003747929
0.003748159
0.003748434
0.003748803
0.003749254
0.003749806
0.00375045
0.003771647
0.003747048
0.003747672
0.003747886
0.003748153
0.00374851
0.003748948
0.003749462
0.003750058
0.003763179
0.003746801
0.003747368
0.003747563
0.003747844
0.003748199
0.003748632
0.003749149
0.003749749
0.003761257
0.003746421
0.003746884
0.003747111
0.003747374
0.003747725
0.003748145
0.003748645
0.003749224
0.003764159
0.003745939
0.003746417
0.003746619
0.003746879
0.003747222
0.003747633
0.003748121
0.003748687
0.003756832
0.003745448
0.003745869
0.00374605
0.003746303
0.003746637
0.003747037
0.003747513
0.003748062
0.003757806
0.003744905
0.00374526
0.003745441
0.003745683
0.00374601
0.003746401
0.003746866
0.003747401
0.003754721
0.003744276
0.003744619
0.003744779
0.003745013
0.003745331
0.003745714
0.003746168
0.003746689
0.003747281
0.003749258
0.003743661
0.003743925
0.003744073
0.003744298
0.003744611
0.003744986
0.003745431
0.003745941
0.003746519
0.003747283
0.003742988
0.003743202
0.003743332
0.003743553
0.00374386
0.003744228
0.003744665
0.003745163
0.003745729
0.003745206
0.003742266
0.003742443
0.003742548
0.003742758
0.00374306
0.003743424
0.00374386
0.003744352
0.003744911
0.003740859
0.003741534
0.003741649
0.00374175
0.00374197
0.00374227
0.003742634
0.003743058
0.003743536
0.003744085
0.003733815
0.003740769
0.003740838
0.00374089
0.003741056
0.00374136
0.00374172
0.003742185
0.003742667
0.003743229
0.003729737
0.003739926
0.003740042
0.003740049
0.003740362
0.003740676
0.003741049
0.003741424
0.003741849
0.0037424
0.003610199
0.003610171
0.00369416
0.003623161
0.003623115
0.003441624
0.003694198
0.003691921
0.003690824
0.00369238
0.003442124
0.003689552
0.003442091
0.003689468
0.003690724
0.003688883
0.003689724
0.003442292
0.003687988
0.003442283
0.00368874
0.00369069
0.003688958
0.003687601
0.003442278
0.003687644
0.003442278
0.003689508
0.003691084
0.003691533
0.003688113
0.003442291
0.003690165
0.00344231
0.003691941
0.003693716
0.003695767
0.003690417
0.00344187
0.003614464
0.003441893
0.003630209
0.003814507
0.00358072
0.003698018
0.003456684
0.003629684
0.003813049
0.0038147
0.003696391
0.003695322
0.003461526
0.003458258
0.003629649
0.003816057
0.003817707
0.003694651
0.003694353
0.003455711
0.0034561
0.003629651
0.003819027
0.00382024
0.003694225
0.003694174
0.003455816
0.003456695
0.003629606
0.003821778
0.003823276
0.003694153
0.003694146
0.00345587
0.003457184
0.00362961
0.003825166
0.003826992
0.003694142
0.003694138
0.003456052
0.003457614
0.003629604
0.00382931
0.003831511
0.003694139
0.00369414
0.00345626
0.003457966
0.003629358
0.003834266
0.003836828
0.003694145
0.00369414
0.003456521
0.003458342
0.0036296
0.003840084
0.003843014
0.003694148
0.003694166
0.003456818
0.003458745
0.003846821
0.003694171
0.003457176
0.00376679
0.003751882
0.003451242
0.003777996
0.003444975
0.003747134
0.003748932
0.003768371
0.003448453
0.003782707
0.003444949
0.003746745
0.003746665
0.003771938
0.003447815
0.003785348
0.003445193
0.003746113
0.003745494
0.003772698
0.003448147
0.003783722
0.003445133
0.003745147
0.003744665
0.003771295
0.003447946
0.003781901
0.003445136
0.003744309
0.003743749
0.003769539
0.003448045
0.003779418
0.003445074
0.003743474
0.003742794
0.003767217
0.003448005
0.003776683
0.003445035
0.003742477
0.003741745
0.003764654
0.003448037
0.00377357
0.003444967
0.003741424
0.003740612
0.003761757
0.00344802
0.003770142
0.003444904
0.003740267
0.003739392
0.003758599
0.003448003
0.003766411
0.003444829
0.003739032
0.003738095
0.003755178
0.003447967
0.003762404
0.00344475
0.003737721
0.003736735
0.003751528
0.003447917
0.003758137
0.003444665
0.00373634
0.003735312
0.003747656
0.003447853
0.003753637
0.003444575
0.0037349
0.00373383
0.003743585
0.003447774
0.003748925
0.003444478
0.003733409
0.003732295
0.00373933
0.003447683
0.003744017
0.003444377
0.003731865
0.003730716
0.0037349
0.00344758
0.003738946
0.003444274
0.003730289
0.003729104
0.003730324
0.003447461
0.003733759
0.003444169
0.003624574
0.003624548
0.003441388
0.003625298
0.003625299
0.003441388
0.003697676
0.003461945
0.003696961
0.00345883
0.003625282
0.003625287
0.003441388
0.003625271
0.003625302
0.003441388
0.003696416
0.00345529
0.003696161
0.003455336
0.003625276
0.003625291
0.003441388
0.00362527
0.003625301
0.003441388
0.003696048
0.003455599
0.003696
0.003455322
0.003625286
0.003625286
0.003441388
0.003625264
0.003625306
0.003441388
0.003695981
0.003455331
0.003695974
0.003455309
0.00362527
0.003625301
0.003441388
0.003625278
0.0036253
0.003441388
0.003695974
0.003455314
0.003695981
0.003455321
0.003625304
0.003625278