/*--------------------------------*- C++ -*----------------------------------*\
  =========                 |
  \\      /  F ield         | OpenFOAM: The Open Source CFD Toolbox
   \\    /   O peration     | Website:  https://openfoam.org
    \\  /    A nd           | Version:  7
     \\/     M anipulation  |
\*---------------------------------------------------------------------------*/
FoamFile
{
    version     2.0;
    format      ascii;
    class       volScalarField;
    location    "0.09";
    object      nut;
}
// * * * * * * * * * * * * * * * * * * * * * * * * * * * * * * * * * * * * * //

dimensions      [0 2 -1 0 0 0 0];

internalField   nonuniform List<scalar> 
109978
(
0.000655044
0.0006382674
0.0006366037
0.0006363565
0.0006362832
0.0006363811
0.0006372405
0.0006064269
0.000603224
0.0006027832
0.0006027014
0.0006028706
0.0006356786
0.0006033993
0.0005997736
0.0005992316
0.0005991407
0.0005993615
0.0006355402
0.0006030171
0.000599286
0.0005986973
0.0005985991
0.0005988385
0.0006355373
0.000602951
0.000599183
0.0005985702
0.0005984668
0.0005987106
0.0006355587
0.000602943
0.0005991622
0.0005985392
0.0005984306
0.0005986757
0.0006355831
0.0006029542
0.000599166
0.0005985362
0.0005984265
0.0005986725
0.0006356195
0.0006029712
0.0005991812
0.0005985482
0.0005984369
0.0005986829
0.0006356594
0.0006029953
0.0005992024
0.0005985661
0.0005984539
0.0005986999
0.0006356976
0.0006030242
0.0005992266
0.0005985886
0.0005984762
0.0005987221
0.0006357333
0.0006030574
0.0005992529
0.0005986132
0.0005984995
0.0005987454
0.0006357699
0.0006030899
0.0005992807
0.000598641
0.0005985271
0.0005987729
0.0006358085
0.0006031244
0.0005993121
0.0005986722
0.0005985579
0.0005988034
0.0006358481
0.00060316
0.0005993467
0.0005987065
0.0005985915
0.0005988365
0.0006358887
0.0006031981
0.0005993842
0.0005987435
0.0005986278
0.0005988722
0.0006359307
0.0006032388
0.0005994244
0.0005987833
0.0005986669
0.0005989107
0.0006359749
0.0006032826
0.0005994678
0.0005988263
0.0005987097
0.0005989522
0.0006360221
0.0006033297
0.0005995149
0.0005988735
0.0005987561
0.0005989978
0.0006360731
0.0006033823
0.0005995683
0.0005989276
0.0005988097
0.0005990505
0.000636129
0.0006034454
0.000599636
0.0005989979
0.00059888
0.0005991198
0.000636204
0.000603545
0.000599751
0.0005991202
0.0005990036
0.0005992408
0.0006363479
0.0006037623
0.0006000099
0.0005993968
0.0005992789
0.0005995025
0.0001009919
0.0006041701
0.0006004817
0.0005998951
0.0005997638
0.0005999353
0.0005964928
0.0005969851
0.0005969078
0.0005968377
0.0005967472
0.0005966799
0.0001007025
0.0001005685
0.0001005403
0.0001005418
0.000100541
0.0001005412
0.0001006674
0.0001005472
0.0001005414
0.0001005409
0.0001005403
0.0001005406
0.0001006536
0.0001005442
0.0001005418
0.0001005404
0.0001005404
0.0001005406
0.0001006475
0.000100546
0.0001005416
0.0001005403
0.0001005404
0.0001005406
0.0001006515
0.0001005488
0.0001005412
0.0001005404
0.0001005405
0.0001005406
0.0001006632
0.0001005489
0.0001005409
0.0001005405
0.0001005406
0.0001005407
0.000100661
0.0001005463
0.0001005408
0.0001005406
0.0001005406
0.0001005408
0.000100661
0.0001005444
0.0001005409
0.0001005407
0.0001005407
0.0001005409
0.0001006694
0.0001005425
0.000100541
0.0001005407
0.0001005408
0.000100541
0.0001006794
0.0001005419
0.0001005411
0.0001005407
0.0001005408
0.000100541
0.0001006872
0.0001005415
0.0001005411
0.0001005408
0.0001005409
0.0001005411
0.0001006952
0.0001005413
0.0001005412
0.0001005408
0.000100541
0.0001005412
0.0001007044
0.0001005411
0.0001005412
0.0001005409
0.000100541
0.0001005413
0.0001007126
0.0001005411
0.0001005413
0.000100541
0.0001005411
0.0001005413
0.0001007214
0.000100541
0.0001005414
0.000100541
0.0001005412
0.0001005414
0.0001007321
0.0001005411
0.0001005415
0.0001005411
0.0001005413
0.0001005415
0.0001007426
0.0001005411
0.0001005416
0.0001005412
0.0001005413
0.0001005416
0.0001007535
0.0001005412
0.0001005417
0.0001005413
0.0001005414
0.0001005417
0.000100765
0.0001005414
0.0001005418
0.0001005414
0.0001005415
0.0001005418
0.0001007765
0.0001005415
0.0001005419
0.0001005414
0.0001005416
0.0001005418
0.0001007875
0.0001005417
0.000100542
0.0001005415
0.0001005417
0.0001005419
0.0001007992
0.0001005421
0.0001005421
0.0001005416
0.0001005418
0.000100542
0.0001007648
0.0001005424
0.0001005423
0.0001005417
0.0001005419
0.0001005422
0.000597589
0.0005974816
0.0005973895
0.0005973493
0.0005972563
0.0005971505
0.0001007016
0.000100553
0.0001005413
0.0001005409
0.0001005405
0.0001005407
0.0001007333
0.0001005439
0.0001005411
0.0001005419
0.0001005402
0.0001005405
0.000100651
0.0001005467
0.0001005401
0.0001005409
0.0001005402
0.0001005404
0.0001006843
0.0001005476
0.0001005397
0.0001005416
0.0001005402
0.0001005406
0.000100665
0.0001005455
0.0001005397
0.0001005416
0.0001005403
0.0001005405
0.000100658
0.0001005441
0.0001005399
0.0001005415
0.0001005403
0.0001005407
0.0001006531
0.0001005425
0.00010054
0.0001005413
0.0001005404
0.0001005407
0.0001006522
0.0001005416
0.0001005401
0.0001005409
0.0001005404
0.0001005408
0.0001006572
0.0001005413
0.0001005401
0.0001005408
0.0001005405
0.0001005408
0.0001006687
0.000100541
0.0001005402
0.0001005408
0.0001005405
0.0001005409
0.0001006734
0.0001005403
0.0001005403
0.0001005408
0.0001005405
0.0001005409
0.000100675
0.0001005402
0.0001005404
0.0001005408
0.0001005406
0.000100541
0.0001006765
0.0001005402
0.0001005405
0.000100541
0.0001005407
0.0001005411
0.0001006841
0.0001005402
0.0001005405
0.0001005412
0.0001005407
0.0001005412
0.0001006949
0.0001005402
0.0001005406
0.0001005413
0.0001005408
0.0001005412
0.0001007049
0.0001005402
0.0001005407
0.0001005414
0.0001005409
0.0001005413
0.0001007115
0.0001005402
0.0001005408
0.0001005415
0.0001005409
0.0001005414
0.0001007192
0.0001005402
0.0001005408
0.0001005415
0.000100541
0.0001005415
0.00010073
0.0001005402
0.0001005409
0.0001005416
0.0001005411
0.0001005416
0.0001007383
0.0001005403
0.000100541
0.0001005417
0.0001005411
0.0001005417
0.000100748
0.0001005403
0.0001005411
0.0001005418
0.0001005412
0.0001005418
0.0001007588
0.0001005403
0.0001005412
0.0001005418
0.0001005413
0.0001005419
0.0001007731
0.0001005404
0.0001005413
0.0001005419
0.0001005414
0.000100542
0.0005975809
0.0005976981
0.0005976135
0.0005975908
0.000597482
0.0005973534
0.000100637
0.0001005488
0.0001005418
0.00010054
0.0001005404
0.0001005406
0.0001006787
0.000100552
0.0001005386
0.0001005432
0.0001005402
0.0001005405
0.0001006791
0.0001005467
0.0001005392
0.0001005407
0.0001005403
0.0001005405
0.0001006439
0.0001005419
0.0001005393
0.0001005404
0.0001005403
0.0001005404
0.0001006396
0.0001005413
0.0001005395
0.0001005402
0.0001005403
0.0001005405
0.0001006422
0.000100541
0.0001005397
0.0001005402
0.0001005403
0.0001005405
0.0001006442
0.0001005407
0.0001005398
0.0001005403
0.0001005404
0.0001005407
0.0001006401
0.0001005409
0.0001005398
0.0001005404
0.0001005405
0.0001005407
0.0001006437
0.0001005408
0.0001005399
0.0001005405
0.0001005405
0.0001005408
0.0001006527
0.0001005407
0.0001005399
0.0001005405
0.0001005406
0.0001005408
0.0001006579
0.000100541
0.0001005399
0.0001005405
0.0001005407
0.0001005409
0.0001006684
0.0001005408
0.00010054
0.0001005407
0.0001005407
0.000100541
0.0001006742
0.0001005403
0.0001005401
0.0001005407
0.0001005408
0.000100541
0.0001006892
0.0001005403
0.0001005402
0.0001005407
0.0001005408
0.0001005411
0.0001007047
0.0001005402
0.0001005403
0.0001005408
0.0001005409
0.0001005411
0.0001007155
0.0001005402
0.0001005403
0.0001005408
0.000100541
0.0001005412
0.0001007216
0.0001005401
0.0001005404
0.0001005409
0.000100541
0.0001005413
0.0001007289
0.0001005401
0.0001005405
0.0001005409
0.0001005411
0.0001005413
0.0001007408
0.0001005402
0.0001005406
0.000100541
0.0001005412
0.0001005414
0.0001007535
0.0001005402
0.0001005406
0.0001005411
0.0001005413
0.0001005415
0.0001007614
0.0001005403
0.0001005407
0.0001005412
0.0001005414
0.0001005416
0.000100774
0.0001005403
0.0001005408
0.0001005413
0.0001005414
0.0001005417
0.0001007904
0.0001005404
0.0001005409
0.0001005414
0.0001005415
0.0001005418
0.0005976089
0.0005977268
0.0005976911
0.0005976798
0.0005975574
0.0005974248
0.0001006362
0.0001005471
0.0001005417
0.0001005401
0.0001005403
0.0001005405
0.0001008551
0.0001005533
0.0001005388
0.0001005429
0.0001005402
0.0001005407
0.0001006874
0.0001005455
0.0001005396
0.000100541
0.0001005405
0.0001005405
0.0001006412
0.0001005411
0.0001005395
0.0001005407
0.0001005402
0.0001005406
0.0001006367
0.0001005405
0.0001005396
0.0001005403
0.0001005403
0.0001005405
0.0001006382
0.0001005405
0.0001005396
0.0001005404
0.0001005402
0.0001005406
0.0001006402
0.0001005404
0.0001005397
0.0001005405
0.0001005403
0.0001005407
0.0001006447
0.0001005404
0.0001005398
0.0001005405
0.0001005404
0.0001005407
0.000100645
0.0001005407
0.0001005399
0.0001005406
0.0001005404
0.0001005408
0.0001006509
0.0001005401
0.0001005399
0.0001005407
0.0001005405
0.0001005408
0.0001006503
0.0001005398
0.00010054
0.0001005406
0.0001005405
0.0001005409
0.0001006554
0.0001005401
0.00010054
0.0001005408
0.0001005406
0.000100541
0.0001006845
0.0001005412
0.00010054
0.0001005413
0.0001005407
0.0001005411
0.0001006991
0.000100541
0.0001005401
0.0001005414
0.0001005407
0.0001005412
0.0001007116
0.000100541
0.0001005401
0.0001005413
0.0001005408
0.0001005412
0.0001007219
0.000100541
0.0001005402
0.0001005414
0.0001005409
0.0001005413
0.0001007311
0.0001005412
0.0001005403
0.0001005415
0.0001005409
0.0001005414
0.0001007411
0.000100541
0.0001005403
0.0001005414
0.000100541
0.0001005415
0.0001007508
0.0001005409
0.0001005404
0.0001005414
0.0001005411
0.0001005415
0.0001007548
0.0001005407
0.0001005405
0.0001005414
0.0001005411
0.0001005416
0.000100765
0.0001005407
0.0001005406
0.0001005414
0.0001005412
0.0001005417
0.00010078
0.0001005406
0.0001005407
0.0001005415
0.0001005413
0.0001005418
0.0001007971
0.0001005406
0.0001005408
0.0001005416
0.0001005414
0.0001005419
0.0005975959
0.0005977166
0.0005976775
0.0005976476
0.0005975516
0.0005974138
0.0001006547
0.0001005467
0.0001005417
0.0001005401
0.0001005403
0.0001005405
0.000100781
0.0001005531
0.0001005388
0.0001005429
0.0001005402
0.0001005407
0.0001007069
0.0001005454
0.0001005396
0.000100541
0.0001005405
0.0001005405
0.0001006384
0.000100541
0.0001005395
0.0001005407
0.0001005402
0.0001005406
0.0001006373
0.0001005404
0.0001005396
0.0001005403
0.0001005403
0.0001005405
0.0001006378
0.0001005405
0.0001005396
0.0001005404
0.0001005402
0.0001005406
0.0001006387
0.0001005404
0.0001005397
0.0001005405
0.0001005403
0.0001005407
0.0001006396
0.0001005403
0.0001005398
0.0001005405
0.0001005404
0.0001005407
0.0001006398
0.0001005407
0.0001005399
0.0001005406
0.0001005404
0.0001005408
0.0001006441
0.00010054
0.0001005399
0.0001005407
0.0001005405
0.0001005408
0.000100655
0.0001005398
0.00010054
0.0001005406
0.0001005405
0.0001005409
0.0001006704
0.0001005401
0.00010054
0.0001005408
0.0001005406
0.000100541
0.0001006896
0.0001005411
0.00010054
0.0001005413
0.0001005407
0.0001005411
0.0001007131
0.000100541
0.0001005401
0.0001005414
0.0001005407
0.0001005412
0.0001007266
0.000100541
0.0001005401
0.0001005413
0.0001005408
0.0001005412
0.0001007357
0.000100541
0.0001005402
0.0001005414
0.0001005409
0.0001005413
0.000100744
0.0001005411
0.0001005403
0.0001005415
0.0001005409
0.0001005414
0.0001007523
0.000100541
0.0001005404
0.0001005414
0.000100541
0.0001005415
0.0001007598
0.0001005408
0.0001005404
0.0001005414
0.0001005411
0.0001005415
0.0001007677
0.0001005408
0.0001005405
0.0001005414
0.0001005411
0.0001005416
0.0001007792
0.0001005407
0.0001005406
0.0001005414
0.0001005412
0.0001005417
0.0001007863
0.0001005405
0.0001005407
0.0001005415
0.0001005413
0.0001005418
0.0001007999
0.0001005406
0.0001005408
0.0001005416
0.0001005413
0.0001005419
0.000597692
0.0005976972
0.0005976361
0.0005976126
0.0005975113
0.0005973799
0.0001006295
0.0001005485
0.0001005418
0.00010054
0.0001005404
0.0001005406
0.0001007836
0.0001005518
0.0001005385
0.0001005432
0.0001005402
0.0001005405
0.0001006761
0.0001005467
0.0001005392
0.0001005406
0.0001005403
0.0001005405
0.00010064
0.0001005419
0.0001005393
0.0001005404
0.0001005403
0.0001005404
0.0001006407
0.0001005412
0.0001005395
0.0001005402
0.0001005403
0.0001005406
0.000100642
0.000100541
0.0001005397
0.0001005402
0.0001005403
0.0001005405
0.0001006481
0.0001005406
0.0001005398
0.0001005403
0.0001005404
0.0001005407
0.000100641
0.0001005408
0.0001005398
0.0001005404
0.0001005405
0.0001005408
0.0001006419
0.0001005408
0.0001005399
0.0001005405
0.0001005405
0.0001005408
0.0001006478
0.0001005406
0.0001005399
0.0001005405
0.0001005406
0.0001005408
0.0001006619
0.000100541
0.0001005399
0.0001005405
0.0001005407
0.0001005409
0.0001006758
0.0001005408
0.00010054
0.0001005407
0.0001005407
0.000100541
0.0001006854
0.0001005403
0.0001005401
0.0001005407
0.0001005408
0.000100541
0.0001006963
0.0001005402
0.0001005402
0.0001005407
0.0001005408
0.0001005411
0.0001007094
0.0001005401
0.0001005403
0.0001005408
0.0001005409
0.0001005411
0.0001007194
0.0001005401
0.0001005404
0.0001005408
0.000100541
0.0001005412
0.0001007286
0.0001005401
0.0001005404
0.0001005409
0.000100541
0.0001005413
0.0001007366
0.0001005401
0.0001005405
0.0001005409
0.0001005411
0.0001005413
0.0001007448
0.0001005401
0.0001005406
0.000100541
0.0001005412
0.0001005414
0.0001007584
0.0001005402
0.0001005407
0.0001005411
0.0001005413
0.0001005415
0.0001007679
0.0001005402
0.0001005408
0.0001005412
0.0001005414
0.0001005416
0.0001007812
0.0001005402
0.0001005409
0.0001005413
0.0001005415
0.0001005417
0.000100796
0.0001005403
0.0001005409
0.0001005413
0.0001005415
0.0001005418
0.0005976295
0.0005975263
0.0005974444
0.0005974566
0.0005973315
0.0005972125
0.0001006798
0.0001005527
0.0001005414
0.0001005408
0.0001005405
0.0001005407
0.0001007239
0.0001005437
0.0001005412
0.0001005419
0.0001005402
0.0001005405
0.0001007396
0.0001005465
0.0001005401
0.0001005409
0.0001005402
0.0001005404
0.000100653
0.0001005474
0.0001005396
0.0001005415
0.0001005402
0.0001005406
0.0001006454
0.0001005454
0.0001005397
0.0001005415
0.0001005403
0.0001005405
0.0001006463
0.0001005439
0.0001005398
0.0001005415
0.0001005403
0.0001005407
0.000100645
0.0001005423
0.00010054
0.0001005413
0.0001005404
0.0001005407
0.0001006415
0.0001005414
0.0001005402
0.0001005409
0.0001005404
0.0001005408
0.0001006408
0.0001005411
0.0001005402
0.0001005408
0.0001005405
0.0001005408
0.0001006467
0.0001005408
0.0001005402
0.0001005408
0.0001005405
0.0001005409
0.000100657
0.0001005402
0.0001005403
0.0001005408
0.0001005405
0.0001005409
0.0001006664
0.0001005401
0.0001005404
0.0001005408
0.0001005406
0.000100541
0.0001006814
0.0001005401
0.0001005405
0.000100541
0.0001005407
0.0001005411
0.0001006913
0.0001005401
0.0001005406
0.0001005412
0.0001005407
0.0001005412
0.0001007021
0.0001005401
0.0001005407
0.0001005413
0.0001005408
0.0001005412
0.0001007114
0.0001005401
0.0001005408
0.0001005414
0.0001005409
0.0001005413
0.0001007199
0.0001005401
0.0001005408
0.0001005415
0.0001005409
0.0001005414
0.0001007279
0.0001005401
0.0001005409
0.0001005415
0.000100541
0.0001005415
0.0001007371
0.0001005401
0.000100541
0.0001005416
0.0001005411
0.0001005416
0.0001007484
0.0001005401
0.0001005411
0.0001005417
0.0001005411
0.0001005417
0.0001007589
0.0001005402
0.0001005412
0.0001005418
0.0001005412
0.0001005418
0.0001007718
0.0001005402
0.0001005413
0.0001005418
0.0001005413
0.0001005419
0.0001007871
0.0001005403
0.0001005414
0.0001005419
0.0001005414
0.000100542
0.0005979909
0.0005983866
0.0005982343
0.0005982322
0.0005981019
0.0005980132
0.0001007711
0.0001005685
0.0001005403
0.0001005419
0.000100541
0.0001005412
0.000100695
0.0001005468
0.0001005414
0.0001005409
0.0001005403
0.0001005406
0.0001006939
0.0001005439
0.0001005418
0.0001005404
0.0001005404
0.0001005406
0.0001006794
0.0001005457
0.0001005415
0.0001005403
0.0001005404
0.0001005405
0.0001006668
0.0001005485
0.0001005412
0.0001005404
0.0001005405
0.0001005406
0.0001006633
0.0001005487
0.0001005409
0.0001005405
0.0001005405
0.0001005407
0.0001006623
0.0001005461
0.0001005408
0.0001005406
0.0001005406
0.0001005408
0.0001006564
0.0001005442
0.0001005409
0.0001005407
0.0001005407
0.0001005409
0.0001006507
0.0001005423
0.000100541
0.0001005407
0.0001005408
0.000100541
0.0001006549
0.0001005418
0.0001005411
0.0001005407
0.0001005408
0.000100541
0.0001006579
0.0001005413
0.0001005411
0.0001005407
0.0001005409
0.0001005411
0.000100662
0.0001005412
0.0001005411
0.0001005408
0.000100541
0.0001005412
0.0001006721
0.000100541
0.0001005412
0.0001005409
0.000100541
0.0001005412
0.0001006849
0.0001005409
0.0001005413
0.0001005409
0.0001005411
0.0001005413
0.0001006931
0.0001005409
0.0001005414
0.000100541
0.0001005412
0.0001005414
0.0001006995
0.0001005409
0.0001005415
0.0001005411
0.0001005412
0.0001005415
0.0001007081
0.0001005409
0.0001005416
0.0001005412
0.0001005413
0.0001005416
0.0001007164
0.0001005411
0.0001005417
0.0001005413
0.0001005414
0.0001005416
0.0001007237
0.0001005412
0.0001005418
0.0001005413
0.0001005415
0.0001005417
0.0001007327
0.0001005413
0.0001005419
0.0001005414
0.0001005416
0.0001005418
0.0001007432
0.0001005415
0.000100542
0.0001005415
0.0001005416
0.0001005419
0.0001007558
0.0001005419
0.0001005421
0.0001005416
0.0001005417
0.000100542
0.0001007648
0.0001005423
0.0001005422
0.0001005417
0.0001005418
0.0001005421
0.0002122213
0.0002099157
0.0002096748
0.0002096084
0.000209454
0.0002093332
0.0001014712
0.0001012781
0.0001011349
0.0001009078
0.0001009811
0.0001009391
0.0001009371
0.000102796
0.0001014345
0.0001010479
0.0001007474
0.0001008902
0.0001008259
0.0001008419
0.0001020081
0.0001013883
0.0001011078
0.0001007553
0.0001009144
0.0001008346
0.0001008467
0.0001016671
0.0001013872
0.0001011138
0.0001007616
0.0001009091
0.0001008342
0.0001008445
0.0001014257
0.0001013721
0.0001011181
0.0001007796
0.0001009102
0.0001008433
0.0001008489
0.0001012695
0.0001013712
0.0001011165
0.0001007942
0.000100912
0.0001008453
0.0001008514
0.0001012522
0.0001013713
0.0001011063
0.0001008103
0.0001009143
0.0001008501
0.0001008568
0.0001012782
0.0001013793
0.0001010917
0.0001008233
0.0001009159
0.0001008531
0.0001008608
0.0001012933
0.0001013909
0.0001010843
0.0001008349
0.0001009179
0.0001008573
0.0001008654
0.000101307
0.0001014025
0.0001010881
0.0001008445
0.0001009217
0.0001008629
0.0001008706
0.0001013624
0.0001013989
0.0001011002
0.0001008528
0.0001009265
0.0001008693
0.0001008761
0.0001014233
0.0001014045
0.0001011063
0.0001008587
0.0001009306
0.0001008734
0.0001008804
0.0001014897
0.0001014105
0.0001011104
0.0001008631
0.0001009355
0.0001008781
0.0001008853
0.0001015617
0.0001014167
0.0001011169
0.0001008674
0.0001009404
0.000100883
0.0001008903
0.0001016387
0.000101425
0.0001011234
0.0001008721
0.0001009455
0.0001008883
0.0001008953
0.0001017174
0.0001014326
0.0001011306
0.0001008769
0.0001009507
0.0001008932
0.0001009001
0.0001018006
0.0001014409
0.000101138
0.0001008815
0.0001009557
0.0001008982
0.0001009049
0.0001018928
0.0001014502
0.0001011459
0.0001008859
0.0001009608
0.000100903
0.0001009095
0.0001019935
0.0001014584
0.0001011541
0.0001008901
0.0001009657
0.0001009075
0.000100914
0.0001021017
0.0001014645
0.0001011624
0.0001008939
0.0001009708
0.0001009119
0.0001009183
0.000102217
0.0001014683
0.0001011707
0.0001008971
0.0001009753
0.0001009156
0.0001009222
0.0001023455
0.0001014702
0.0001011778
0.0001008993
0.0001009792
0.0001009189
0.0001009255
0.0001024859
0.0006367413
0.0001011826
0.0001009005
0.0001009813
0.0001009199
0.000100928
0.0003038163
0.000188056
0.000100793
0.000100631
0.0003055844
0.000294102
0.0001014666
0.0001006863
0.0001030973
0.0001008084
0.0002938961
0.0002934258
0.0001027956
0.0001007883
0.0001009124
0.0001008056
0.0002936326
0.0002933944
0.0001020078
0.0001007691
0.0001009375
0.0001007793
0.000293613
0.000293386
0.0001016665
0.0001007359
0.0001009667
0.0001007524
0.0002936313
0.000293396
0.0001014254
0.0001007094
0.0001010398
0.0001007181
0.0002936641
0.0002934171
0.0001012691
0.0001006898
0.0001011363
0.0001006996
0.0002936817
0.0002934237
0.0001012522
0.0001006789
0.0001013506
0.0001006896
0.0002937077
0.0002934376
0.0001012793
0.0001006559
0.0001014947
0.0001006571
0.000293743
0.0002934565
0.0001012946
0.0001006371
0.0001015775
0.000100639
0.0002937936
0.0002934841
0.0001013087
0.0001006258
0.0001016651
0.0001006268
0.0002938493
0.0002935175
0.0001013643
0.0001006137
0.0001017649
0.0001006215
0.0002938998
0.0002935532
0.0001014256
0.0001006011
0.0001018661
0.0001006175
0.0002939492
0.0002935914
0.0001014924
0.0001005938
0.0001019588
0.0001006132
0.0002940033
0.0002936331
0.0001015646
0.0001005861
0.0001020463
0.00010061
0.0002940622
0.0002936761
0.0001016419
0.0001005794
0.0001021429
0.0001006082
0.00029412
0.0002937218
0.0001017211
0.000100575
0.0001022444
0.0001006069
0.000294178
0.0002937722
0.0001018046
0.0001005703
0.0001023483
0.0001006053
0.000294238
0.0002938282
0.0001018972
0.0001005655
0.0001024572
0.0001006032
0.0002943008
0.0002938883
0.0001019982
0.000100561
0.0001025735
0.0001006007
0.0002943668
0.0002939535
0.0001021065
0.0001005574
0.0001026738
0.0001005979
0.0002944376
0.0002940273
0.0001022223
0.0001005534
0.0001027584
0.0001005946
0.0002945198
0.0002941368
0.0001023512
0.0001005492
0.0001028396
0.0001005913
0.0002946568
0.0001013407
0.0001024922
0.0001005453
0.0001029192
0.0001005862
0.0002120168
0.0001013167
0.0001006564
0.0002097074
0.0001026778
0.0001007275
0.0002097722
0.0001009695
0.0001007129
0.0002096382
0.0001027104
0.0001007338
0.0002095324
0.0001009097
0.0001007254
0.0002095852
0.000102077
0.0001007073
0.0002094546
0.0001009379
0.0001006969
0.000209555
0.0001010969
0.0001007253
0.0002094719
0.0001022824
0.0001007164
0.0002095745
0.0001009078
0.0001007069
0.0002095726
0.0001022606
0.0001007083
0.0002096165
0.0001009113
0.0001007263
0.0002096339
0.0001026926
0.0001007291
0.0002097453
0.0001009578
0.0001007129
0.0002097103
0.0001026748
0.0001007291
0.0002120099
0.0001013267
0.0001006541
0.0001880621
0.0001007922
0.0001006309
0.0003038191
0.0002097317
0.0001005213
0.0001005539
0.0003058037
0.000294361
0.0002095755
0.0001005539
0.0001005459
0.0002942637
0.0002937179
0.0002095163
0.0001005467
0.000100546
0.0002938233
0.0002936046
0.0002093682
0.0001005471
0.0001005449
0.0002937081
0.0002934769
0.0002092655
0.0001005463
0.000100545
0.0002935784
0.0002933832
0.0001005461
0.0002934889
0.0001006858
0.0001030975
0.0001008087
0.0003055862
0.000294103
0.000100788
0.0001009138
0.0001008057
0.0002938963
0.0002934257
0.0001007686
0.0001009386
0.0001007793
0.0002936336
0.0002933957
0.0001007091
0.0001010403
0.0001007181
0.0002936331
0.0002933963
0.000100689
0.0001011368
0.0001006995
0.0002936646
0.0002934161
0.0001006783
0.0001013508
0.0001006898
0.0002936809
0.0002934228
0.0001006557
0.0001014947
0.0001006574
0.000293707
0.000293436
0.0001006369
0.0001015775
0.0001006393
0.0002937417
0.0002934547
0.0001006257
0.0001016652
0.0001006271
0.0002937921
0.0002934831
0.0001006135
0.0001017648
0.0001006217
0.0002938486
0.0002935157
0.0001006008
0.0001018663
0.0001006179
0.0002938983
0.0002935523
0.0001005862
0.0001020465
0.0001006103
0.0002940034
0.0002936322
0.0001005782
0.0001021432
0.0001006084
0.0002940615
0.0002936752
0.0001005738
0.0001022448
0.000100607
0.0002941194
0.000293721
0.000100569
0.0001023487
0.0001006054
0.0002941775
0.0002937714
0.0001005641
0.0001024577
0.0001006033
0.0002942375
0.0002938267
0.0001005598
0.0001025741
0.0001006008
0.0002942996
0.0002938869
0.0001005561
0.0001026745
0.0001005979
0.0002943673
0.000293955
0.0001005523
0.0001027592
0.0001005946
0.0002944392
0.0002940267
0.000100548
0.0001028406
0.0001005913
0.0002945214
0.0002941369
0.0001005441
0.0001029203
0.0001005864
0.0002946581
0.00010134
0.0001018453
0.000145484
0.0001005131
0.0001428961
0.0001002819
0.0001423856
0.0001003138
0.0001426946
0.0001003577
0.0001425604
0.0001003057
0.0001427763
0.0001002912
0.0001426379
0.0001003018
0.0001429438
0.0001002727
0.0001427364
0.0001002884
0.0001430779
0.000100256
0.0001428063
0.0001001629
0.0001431633
0.0001002712
0.0001428448
0.0001001695
0.0001431932
0.0001002823
0.0001428718
0.000100169
0.0001432116
0.0001002829
0.0001428586
0.0001001626
0.0001432266
0.0001002498
0.0001428465
0.0001001627
0.0001432615
0.0001001962
0.0001428505
0.0001001576
0.0001432883
0.0001001622
0.0001428651
0.000100147
0.0001433134
0.0001001484
0.0001428908
0.0001001389
0.0001433415
0.0001001443
0.0001429214
0.0001001348
0.0001433707
0.0001001487
0.0001429619
0.0001001392
0.0001434019
0.0001001626
0.0001430057
0.0001001526
0.0001434335
0.0001001862
0.0001430533
0.0001001746
0.0001434652
0.0001002165
0.000143112
0.0001002019
0.0001434991
0.0001002521
0.0001431727
0.0001002335
0.0001435362
0.0001002925
0.0001432373
0.0001002689
0.0001435807
0.0001003369
0.0001433042
0.0001003064
0.0001436342
0.0001003858
0.0001433742
0.0001003466
0.0001436969
0.0001004374
0.0001434496
0.0001003894
0.00014377
0.0001004929
0.00014354
0.0001017262
0.0001012439
0.0001015688
0.0001020621
0.0001021229
0.0001023178
0.0001023377
0.0001022725
0.00010226
0.0001020889
0.0001024722
0.0001020573
0.0001025006
0.0001019181
0.0001018123
0.0001016344
0.0001013434
0.0001019664
0.0001007354
0.0001009677
0.0001007524
0.0002936127
0.0002933871
0.0001005928
0.0001019587
0.0001006135
0.0002939483
0.0002935903
0.0001002315
0.0001427496
0.0001005686
0.0001478149
0.0001013143
0.000102149
0.0001007099
0.0001425234
0.0001003839
0.0001424525
0.0001003284
0.0001426003
0.0001003007
0.0001427726
0.0001002919
0.0001426751
0.0001003106
0.0001428821
0.0001002686
0.0001427648
0.0001003194
0.0001430051
0.0001002552
0.0001428238
0.000100209
0.0001431461
0.000100276
0.0001428602
0.0001001677
0.0001431976
0.0001002876
0.0001428522
0.0001001658
0.0001432241
0.0001002817
0.0001428408
0.000100164
0.0001432262
0.0001002392
0.0001428427
0.0001001986
0.0001432448
0.0001001849
0.0001428448
0.000100173
0.0001432796
0.0001001612
0.0001428659
0.0001001601
0.0001433047
0.0001001476
0.0001428932
0.00010015
0.0001433297
0.00010014
0.0001429298
0.000100147
0.000143354
0.0001001374
0.0001429703
0.0001001514
0.0001433807
0.0001001423
0.0001430191
0.0001001661
0.0001434071
0.0001001592
0.0001430699
0.0001001904
0.0001434322
0.000100181
0.0001431278
0.0001002215
0.0001434615
0.0001002085
0.0001431908
0.0001002554
0.0001434937
0.0001002423
0.0001432581
0.0001002926
0.000143531
0.0001002805
0.0001433276
0.0001003322
0.0001435745
0.0001003203
0.0001434014
0.0001003738
0.000143627
0.0001003629
0.0001434818
0.0001004171
0.0001436891
0.00010041
0.0001013134
0.0001437749
0.0001004524
0.0001018392
0.000101548
0.0001023018
0.0001019234
0.000102563
0.0001023276
0.0001020491
0.0001023409
0.0001022857
0.0001024776
0.000101799
0.000102429
0.0001016063
0.0001021345
0.0001017603
0.0001014325
0.0001018673
0.0001455644
0.0001010516
0.0001436589
0.0001007965
0.0001481789
0.000100232
0.000142758
0.0001005784
0.0001478554
0.000100721
0.0001436651
0.0001008005
0.0001432162
0.0001007884
0.0001431588
0.0001006964
0.0001432919
0.000100736
0.0001433687
0.0001008175
0.0001431407
0.0001008194
0.0001430658
0.0001007107
0.0001432474
0.0001007314
0.0001432323
0.0001008312
0.0001430107
0.000100815
0.0001429575
0.000100705
0.0001431184
0.0001007303
0.0001431256
0.000100829
0.0001428995
0.000100815
0.0001428337
0.0001007055
0.0001429989
0.0001007257
0.0001429897
0.0001008274
0.0001427686
0.0001008126
0.0001427151
0.0001007027
0.0001428655
0.0001007227
0.0001428666
0.0001008259
0.0001005137
0.0001428988
0.0001002823
0.0001423864
0.00010071
0.0001425222
0.0001003843
0.0001424545
0.0001003137
0.0001426936
0.0001003561
0.0001425599
0.0001003283
0.0001425988
0.0001003013
0.0001427729
0.0001003056
0.0001427746
0.00010029
0.000142637
0.0001002918
0.0001426751
0.0001003117
0.0001428813
0.0001002884
0.0001430775
0.0001002552
0.0001428059
0.0001002551
0.0001428232
0.0001002092
0.0001431456
0.0001001629
0.0001431626
0.0001002687
0.0001428444
0.0001002759
0.0001428598
0.0001001677
0.0001431972
0.0001001694
0.0001431928
0.0001002793
0.0001428714
0.0001002875
0.0001428517
0.0001001658
0.0001432238
0.0001001632
0.000143275
0.0001001959
0.0001428505
0.0001001848
0.0001428442
0.0001001743
0.0001432793
0.0001001473
0.000143327
0.0001001482
0.000142891
0.0001001477
0.0001428929
0.0001001503
0.0001433295
0.0001001348
0.0001433705
0.0001001486
0.0001429616
0.0001001374
0.0001429699
0.0001001515
0.0001433803
0.000100139
0.0001434021
0.0001001571
0.0001430053
0.0001001424
0.0001430186
0.0001001662
0.0001434066
0.0001001524
0.0001434337
0.0001001807
0.0001430529
0.0001001593
0.0001430696
0.0001001905
0.0001434318
0.0001001744
0.0001434659
0.0001002108
0.0001431116
0.0001001811
0.0001431274
0.0001002217
0.000143461
0.0001002016
0.0001434999
0.0001002461
0.0001431725
0.0001002689
0.0001435804
0.000100337
0.000143304
0.0001002805
0.0001433272
0.0001003324
0.0001435742
0.000100306
0.0001436364
0.0001003794
0.000143374
0.0001003205
0.0001434009
0.0001003741
0.0001436269
0.0001003462
0.0001436994
0.0001004309
0.000143449
0.0001003631
0.000143483
0.0001004174
0.0001436884
0.0001003889
0.0001437735
0.0001004864
0.0001435421
0.0001004105
0.0001470077
0.0001437747
0.0001004529
0.0001828126
0.000169345
0.0003058016
0.0002943603
0.0002122141
0.0002097321
0.0001005213
0.0001005539
0.0001746597
0.0001734733
0.0001747937
0.000173595
0.0001746525
0.0001746801
0.0001744998
0.0001746662
0.0001749049
0.0001735766
0.0001745627
0.0001749934
0.0001744194
0.0001740391
0.0001751973
0.0001757572
0.0001749189
0.0001739592
0.0001010547
0.0001436631
0.0001007966
0.0001481394
0.0001738447
0.0001734428
0.000174302
0.0001737258
0.0001748568
0.0001753909
0.0001748433
0.0001751307
0.000173813
0.0001739682
0.0001740842
0.0001748263
0.0001732425
0.0001738058
0.0001742728
0.0001738198
0.0001747559
0.0001736149
0.0001818315
0.0001682594
0.0001597845
0.0001586766
0.0001596663
0.0001587194
0.0001053836
0.0001483059
0.0001053552
0.0001485524
0.0001594963
0.0001586639
0.0001586077
0.0001596407
0.000159306
0.0001585332
0.0001593905
0.0001584809
0.0001593528
0.0001585805
0.0001585139