/*--------------------------------*- C++ -*----------------------------------*\
  =========                 |
  \\      /  F ield         | OpenFOAM: The Open Source CFD Toolbox
   \\    /   O peration     | Website:  https://openfoam.org
    \\  /    A nd           | Version:  7
     \\/     M anipulation  |
\*---------------------------------------------------------------------------*/
FoamFile
{
    version     2.0;
    format      ascii;
    class       surfaceScalarField;
    location    "0.09";
    object      phi;
}
// * * * * * * * * * * * * * * * * * * * * * * * * * * * * * * * * * * * * * //

dimensions      [0 3 -1 0 0 0 0];

internalField   nonuniform List<scalar> 
234023
(
3.512189e-10
-3.261001e-09
1.219878e-09
3.222457e-10
5.455094e-10
3.576593e-10
6.099586e-10
4.308776e-09
-6.16417e-09
1.647709e-09
4.11561e-10
8.362577e-09
-1.054698e-08
1.969072e-09
3.870485e-10
1.371413e-08
-1.674768e-08
2.925193e-09
3.28295e-10
2.100031e-08
-2.595313e-08
4.606748e-09
6.203511e-10
3.224385e-08
-3.964114e-08
7.056656e-09
8.357322e-10
4.947256e-08
-6.175414e-08
1.143207e-08
1.436829e-09
7.652772e-08
-9.593194e-08
1.780944e-08
2.147561e-09
1.191386e-07
2.688868e-08
2.121221e-09
-1.478251e-07
-4.557067e-10
-8.112278e-10
3.007937e-09
1.64957e-10
-5.555288e-10
-5.200078e-10
-7.379142e-10
-1.798536e-08
1.956387e-08
1.980601e-09
1.636517e-09
2.297025e-09
2.420557e-09
2.329192e-09
-2.246002e-09
-3.246823e-09
-2.919133e-09
-3.484781e-09
-3.12514e-08
2.656678e-08
2.832331e-09
-2.66788e-09
-4.664736e-09
-3.90691e-09
-4.349623e-09
-5.081993e-08
3.919688e-08
3.422425e-09
-3.664949e-09
-7.071531e-09
-5.476835e-09
-6.236686e-09
-8.037674e-08
5.931191e-08
4.117661e-09
-5.239786e-09
-1.020701e-08
-8.256771e-09
-9.509003e-09
-1.255819e-07
9.24477e-08
5.327733e-09
-8.09463e-09
-1.597399e-08
-1.275093e-08
-1.486785e-08
-1.950919e-07
1.44313e-07
7.308699e-09
-1.235934e-08
-2.501693e-08
-1.991607e-08
-2.356933e-08
-3.026215e-07
2.272194e-07
9.849019e-09
-1.976858e-08
-3.917438e-08
-3.147156e-08
-3.766477e-08
3.567615e-07
1.344577e-08
-3.081625e-08
-6.098259e-08
-4.959124e-08
-5.837693e-08
-4.71845e-07
-3.47422e-09
-5.011563e-10
3.909258e-09
1.085683e-10
-1.111474e-08
2.334384e-08
1.880769e-09
5.892697e-10
1.953253e-09
1.564627e-09
1.650899e-09
-1.865807e-08
3.176508e-08
2.784531e-09
-2.989426e-08
4.735827e-08
3.556671e-09
-4.695254e-08
7.215562e-08
4.788079e-09
-7.316825e-08
1.131759e-07
6.1902e-09
-1.131493e-07
1.76154e-07
9.087077e-09
-1.748326e-07
2.769122e-07
1.293191e-08
4.357568e-07
1.861572e-08
-2.716217e-07
-4.361402e-09
2.762999e-10
3.914624e-09
1.840317e-10
5.067451e-10
2.191348e-08
2.259382e-09
-9.87414e-10
4.2594e-10
-2.803879e-10
1.439863e-11
5.487881e-10
3.032617e-08
1.778856e-09
1.607624e-09
4.487902e-08
1.817497e-09
3.16592e-09
6.873208e-08
2.417304e-09
6.383658e-09
1.077084e-07
3.026258e-09
1.393297e-08
1.690564e-07
3.769263e-10
2.783514e-08
2.661212e-07
-2.161941e-09
4.207054e-07
-6.91951e-09
5.05535e-08
-3.684298e-09
4.250631e-10
3.150069e-09
1.967283e-10
8.744695e-09
3.475324e-09
1.420213e-09
-1.598749e-09
-5.394501e-10
-1.127773e-09
-9.130844e-10
3.94987e-09
4.367058e-09
4.53933e-09
1.520254e-08
4.714419e-09
1.397179e-09
5.967165e-09
6.022101e-09
6.112237e-09
2.548891e-08
6.684937e-09
1.221513e-09
9.031294e-09
8.954427e-09
9.02122e-09
4.143324e-08
1.005738e-08
1.316561e-09
1.395613e-08
1.404608e-08
1.406977e-08
6.718518e-08
1.571843e-08
1.184565e-09
2.180216e-08
2.198097e-08
2.200557e-08
1.079285e-07
2.414342e-08
7.351966e-10
3.475253e-08
3.447692e-08
3.518077e-08
1.729987e-07
3.809825e-08
-1.249065e-09
5.502823e-08
5.408723e-08
5.602201e-08
6.067401e-08
-4.557068e-09
8.711511e-08
8.558698e-08
8.904624e-08
2.767089e-07
-2.900988e-09
6.010669e-10
2.004218e-09
4.100509e-10
-1.746399e-09
2.302497e-09
2.265334e-09
8.247977e-10
-3.45468e-09
4.434186e-09
2.867995e-09
1.156007e-09
-6.540882e-09
7.622835e-09
4.236592e-09
1.439564e-09
-1.060735e-08
1.244104e-08
6.502463e-09
1.995244e-09
-1.775501e-08
2.094424e-08
1.020071e-08
2.707995e-09
-2.893055e-08
3.35863e-08
1.577191e-08
4.204667e-09
-4.680589e-08
5.409382e-08
2.522207e-08
6.203002e-09
-7.506391e-08
8.720989e-08
4.066428e-08
8.493221e-09
-1.204618e-07
6.538664e-08
1.306582e-08
1.393334e-07
-9.682211e-08
-1.205647e-10
1.267306e-11
-5.410093e-11
1.875641e-10
5.550488e-11
-5.764119e-10
6.261631e-12
5.406755e-10
-3.309524e-12
9.644835e-11
-1.088023e-09
-2.060228e-10
1.125882e-09
1.799398e-10
1.574724e-10
-2.268187e-09
6.977182e-12
2.014128e-09
1.4244e-10
1.934103e-10
-3.466158e-09
-3.922561e-10
3.24044e-09
4.108151e-10
4.441156e-10
-6.050751e-09
3.455026e-10
5.426577e-09
7.262558e-11
3.973734e-10
-9.624457e-09
3.024696e-10
8.373649e-09
3.141147e-10
7.941436e-10
-1.476478e-08
3.960529e-10
1.329505e-08
5.028888e-10
8.977916e-10
-2.393055e-08
3.253145e-10
2.17248e-08
8.863139e-10
1.496181e-09
-3.895307e-08
-1.390023e-10
3.438266e-08
1.446482e-09
3.558665e-09
0.0003602258
4.038361e-05
-2.676203e-05
-0.001552221
-8.902869e-05
0.0003558617
0.0004611031
0.0004504376
0.0003648176
1.94636e-05
-1.536327e-05
-9.793944e-05
-0.001564063
0.0003643918
0.0004690861
0.0004596068
0.0003707617
1.300025e-05
-1.270771e-05
-9.5855e-05
-0.001587427
0.0003695771
0.0004761177
0.0004665327
0.0003755259
1.397619e-05
-1.455928e-05
-9.569122e-05
-0.001607713
0.0003739328
0.0004821255
0.0004724027
0.0003810575
1.708955e-05
-1.731039e-05
-9.65984e-05
-0.001632052
0.0003791229
0.0004892968
0.0004793945
0.0003876714
2.062229e-05
-2.042287e-05
-9.797241e-05
-0.00166116
0.0003854069
0.0004980001
0.0004878547
0.0003955811
2.448875e-05
-2.390451e-05
-9.970556e-05
-0.001695688
0.0003929118
0.0005083616
0.0004979553
0.0004048771
2.874108e-05
-2.784805e-05
-0.0001017243
-0.001736134
0.000401716
0.0005205331
0.0005098393
0.0004157204
3.35214e-05
-3.242903e-05
-0.0001037632
-0.001783447
0.0004119491
0.0005347394
0.000523709
-0.000586839
-0.02488815
-0.001195245
0.0007228202
-0.0009409692
0.0005488275
-0.0001672025
0.006028025
0.006175503
0.007178781
0.007124444
-0.0006505309
-0.02491857
-0.00190668
0.006288887
0.00624384
0.007201364
0.007154845
-0.0006732869
-0.02498123
-0.002125374
0.006359229
0.006311294
0.007240083
0.007218754
-0.0007543005
-0.02520148
-0.00215313
0.006434658
0.006384971
0.007310614
0.007305376
-0.0008828429
-0.02552113
-0.002191046
0.006534499
0.006475954
0.007416706
0.007413555
-0.001038708
-0.02595511
-0.002217171
0.006652288
0.006582639
0.00754747
0.007545751
-0.001216704
-0.02647583
-0.002255975
0.00679214
0.006709818
0.007704744
0.007703103
-0.001417677
-0.02709355
-0.002301312
0.006956078
0.006860078
0.007890349
0.007889324
-0.02780615
-0.002358227
0.007146682
0.008106471
-0.001644313
0.007034517
0.008103342
-0.0004772266
-0.02443317
-0.0002442173
0.00101028
-0.0008986719
0.000415962
-0.000261098
-0.0006724875
-0.02415827
-0.0005650374
-0.0008718168
-0.02417133
-0.0006105739
-0.001074194
-0.02431682
-0.0006822831
-0.001302184
-0.02460483
-0.0006883045
-0.001549546
-0.02500064
-0.0007071134
-0.001819546
-0.02549064
-0.0007151974
-0.002115678
-0.02606817
-0.0007292433
-0.02673488
-0.0007447457
-0.002442202
-0.0006975204
-0.02413572
-7.378071e-05
0.001048561
-0.0008296945
0.0004698051
-0.0002148181
-0.000897219
-0.02385106
-0.000107513
-0.001146904
-0.02382294
-9.86999e-05
-0.001414691
-0.02394157
-0.000107463
-0.001710489
-0.02420112
-0.0001079151
-0.002031615
-0.0245709
-0.0001086087
-0.002381689
-0.02503195
-0.0001086105
-0.002764049
-0.02557628
-0.0001095326
-0.02620353
-0.0001113685
-0.003184026
-0.0006842774
-0.02376472
-3.82314e-05
0.0009919515
-0.0008322084
0.0004276725
-0.0002359124
-0.001006395
-0.02347469
-5.424946e-05
-0.001348915
-0.02343535
-4.507496e-05
-0.001701347
-0.02353133
-5.780554e-05
-0.002075699
-0.02377019
-5.658105e-05
-0.002473504
-0.02411288
-6.021909e-05
-0.0029018
-0.02454437
-5.928388e-05
-0.003365104
-0.02505284
-6.013049e-05
-0.02563764
-6.068847e-05
-0.003870306
-0.0008046516
-0.0233575
-2.944939e-05
0.0009902199
-0.0007988467
0.0004487099
-0.0002132059
-0.001183402
-0.0230665
-2.943639e-05
-0.001584909
-0.02302868
-5.1613e-06
-0.002000726
-0.02311072
-4.793138e-06
-0.002439534
-0.02333059
-7.850432e-07
-0.002904394
-0.02364749
-5.305092e-07
-0.003402376
-0.02404761
1.21999e-06
-0.003938655
-0.02451837
1.806121e-06
-0.02505747
2.031083e-06
-0.004520857
-0.0008800178
-0.02288907
-3.414502e-05
0.000979354
-0.0007752918
0.0004484248
-0.0002067509
-0.001324663
-0.02260008
-2.177915e-05
-0.001789928
-0.02255522
-8.196234e-06
-0.002269541
-0.0226235
-7.602109e-06
-0.002772351
-0.02282333
-4.453127e-06
-0.003301457
-0.02311375
-4.631861e-06
-0.003864675
-0.02348121
-3.177912e-06
-0.00446764
-0.02391222
-3.179652e-06
-0.0244035
-3.43814e-06
-0.005118168
-0.0009823112
-0.02237016
-3.704934e-05
0.0009727846
-0.0007453477
0.0004626425
-0.0001896269
-0.00147527
-0.02208095
-2.616886e-05
-0.001992832
-0.02203194
-5.710709e-06
-0.002526606
-0.02208726
-2.471859e-06
-0.003084879
-0.02226713
2.07411e-06
-0.003670538
-0.02253108
2.994784e-06
-0.004291588
-0.02286502
4.855402e-06
-0.004953333
-0.02325559
5.113245e-06
-0.02369821
4.772242e-06
-0.005663399
-0.001065131
-0.02180081
-4.0419e-05
0.0009621445
-0.0007177081
0.0004696892
-0.000177927
-0.001607548
-0.02151321
-2.532586e-05
-0.002175217
-0.02145724
-7.034726e-06
-0.002759334
-0.02149949
-3.648834e-06
-0.003368329
-0.02165868
5.427393e-07
-0.004004952
-0.02189596
1.495965e-06
-0.004676947
-0.02219625
3.228867e-06
-0.005389576
-0.0225464
3.437779e-06
-0.02294062
2.830528e-06
-0.006149999
-0.001149342
-0.02118554
-4.386784e-05
0.0009508855
-0.0006878465
0.0004786088
-0.0001637122
-0.00173285
-0.02090022
-2.948096e-05
-0.002344371
-0.02083786
-7.855482e-06
-0.002972493
-0.02086725
-4.119998e-06
-0.003625845
-0.02100611
7.813439e-07
-0.004306732
-0.02121703
1.961862e-06
-0.005022775
-0.02148413
3.922304e-06
-0.005778677
-0.0217947
4.202885e-06
-0.02214206
3.548036e-06
-0.006580777
-0.001222705
-0.02052944
-4.561844e-05
0.0009366299
-0.0006582936
0.0004851227
-0.0001512286
-0.001844353
-0.02024717
-3.140095e-05
-0.002495582
-0.02017819
-8.449671e-06
-0.003163023
-0.02019499
-4.819624e-06
-0.003855535
-0.02031387
2.795947e-07
-0.004575017
-0.02049898
1.426949e-06
-0.005328599
-0.02073397
3.416112e-06
-0.006120659
-0.0210063
3.656231e-06
-0.02130898
2.856335e-06
-0.0069566
-0.001290556
-0.01983689
-4.735793e-05
0.0009207761
-0.0006278295
0.000491007
-0.0001385886
-0.001944851
-0.01955831
-3.456097e-05
-0.002630875
-0.01948311
-9.049247e-06
-0.003332432
-0.01948785
-5.581515e-06
-0.004058795
-0.01958744
-6.991773e-08
-0.004811191
-0.01974767
1.092058e-06
-0.005596459
-0.01995187
3.175251e-06
-0.006418043
-0.02018814
3.428693e-06
-0.02044871
2.569498e-06
-0.007280882
-0.001349769
-0.01911261
-4.82974e-05
0.0009026348
-0.0005973495
0.0004952511
-0.0001267561
-0.002032936
-0.01883807
-3.707692e-05
-0.002749487
-0.01875731
-9.254929e-06
-0.003480741
-0.01875058
-6.018911e-06
-0.004236246
-0.01883177
-1.698981e-07
-0.005016538
-0.01896831
9.328514e-07
-0.00582798
-0.01914348
3.048269e-06
-0.006673491
-0.01934591
3.274493e-06
-0.01956752
2.333477e-06
-0.007557011
-0.001402101
-0.01836063
-4.948437e-05
0.0008830628
-0.0005665093
0.0004982988
-0.0001152483
-0.002109652
-0.01809095
-3.956466e-05
-0.002852456
-0.01800498
-9.518299e-06
-0.003608939
-0.01798753
-6.5667e-06
-0.004389123
-0.01805124
-3.454025e-07
-0.005192723
-0.01816544
7.295757e-07
-0.006025635
-0.01831349
2.923934e-06
-0.006890078
-0.01848463
3.171015e-06
-0.01867073
2.182376e-06
-0.007789053
-0.001446657
-0.01758509
-5.046344e-05
0.0008616438
-0.0005356419
0.0005001508
-0.0001045658
-0.002174858
-0.01732158
-4.117356e-05
-0.002940051
-0.01723069
-9.097007e-06
-0.003717953
-0.01720326
-6.367988e-06
-0.00451897
-0.0172504
1.791463e-07
-0.005341965
-0.01734366
1.216057e-06
-0.00619232
-0.01746653
3.392192e-06
-0.007071359
-0.01760917
3.577744e-06
-0.01776302
2.473555e-06
-0.007981549
-0.001484214
-0.01679121
-4.945864e-05
0.0008381749
-0.0005046144
0.00050044
-9.421297e-05
-0.002229263
-0.01653298
-4.35494e-05
-0.003013062
-0.016438
-8.893456e-06
-0.003808703
-0.01640112
-6.491988e-06
-0.00462707
-0.01643252
4.893122e-07
-0.005465956
-0.01650628
1.498936e-06
-0.006330424
-0.01660583
3.772075e-06
-0.007220832
-0.01672278
4.015705e-06
-0.0168481
2.928344e-06
-0.00813868
-0.001513828
-5.082238e-05
0.0008139703
-0.0004735522
0.0004991312
-8.448138e-05
-0.01598162
-0.002272633
-4.284296e-05
-0.01573133
-0.00307174
-7.37183e-06
-0.01563152
-0.003882168
-4.891908e-06
-0.0155858
-0.004715075
2.354036e-06
-0.01560197
-0.005567441
3.354209e-06
-0.01565727
-0.00644348
5.450153e-06
-0.01573524
-0.007342639
5.576608e-06
-0.0158292
4.271124e-06
-0.0159294
-0.008265603
4.80567e-10
-6.249746e-10
-3.309083e-09
1.21445e-09
6.913277e-10
7.361636e-10
4.648797e-10
5.5917e-10
-3.945548e-08
1.55833e-08
4.179108e-09
-8.723086e-11
-2.040838e-09
1.716661e-10
-7.730048e-10
4.807035e-09
6.674428e-09
5.091374e-09
6.538959e-09
-6.267013e-08
2.245246e-08
5.837221e-09
2.688321e-10
-3.690752e-09
4.425727e-11
-1.178505e-09
-9.936026e-08
3.485076e-08
6.965281e-09
1.169539e-09
-5.336893e-09
8.302474e-10
-1.274124e-09
-1.553347e-07
5.378146e-08
8.818915e-09
2.010104e-09
-7.790868e-09
1.45996e-09
-1.585042e-09
-2.423832e-07
8.393099e-08
1.156843e-08
3.655809e-09
-1.131434e-08
2.554437e-09
-2.308255e-09
-3.775221e-07
1.313367e-07
1.486245e-08
5.721106e-09
-1.64894e-08
4.30092e-09
-3.137098e-09
2.056857e-07
1.89578e-08
9.317147e-09
-2.452232e-08
7.143782e-09
-3.848884e-09
-5.890349e-07
-3.279171e-10
-5.200844e-10
-1.008511e-09
3.060637e-09
6.106061e-10
-5.155619e-10
-5.144338e-10
-6.457226e-10
-2.108504e-08
2.228508e-08
3.933056e-09
-2.806079e-09
-3.469254e-09
-2.735379e-09
-3.45645e-09
2.30551e-09
2.582103e-09
2.413376e-09
2.422204e-09
-3.786177e-08
3.053056e-08
5.015314e-09
-6.193865e-08
4.427639e-08
6.042128e-09
-9.776621e-08
6.758297e-08
7.672032e-09
-1.524377e-07
1.048154e-07
9.473221e-09
-2.373069e-07
1.644496e-07
1.25411e-08
-3.687339e-07
2.58021e-07
1.546228e-08
4.053537e-07
2.028393e-08
-5.744709e-07
-5.510718e-09
2.087889e-08
3.621832e-09
-7.029651e-10
-8.91645e-10
2.563731e-10
-7.102798e-10
-3.644949e-09
-4.562399e-09
-3.489011e-09
-4.898257e-09
-1.235216e-08
2.732849e-08
4.079999e-09
-2.098054e-08
3.701275e-08
5.187415e-09
-3.419779e-08
5.499044e-08
6.520764e-09
-5.345714e-08
8.372482e-08
8.379323e-09
-8.280406e-08
1.303894e-07
1.080611e-08
-1.278842e-07
2.049656e-07
1.448815e-08
-1.976248e-07
3.226847e-07
1.902086e-08
5.076312e-07
2.574292e-08
-3.063611e-07
5.882953e-10
1.905218e-08
3.91925e-09
-9.573067e-10
-5.637529e-10
3.271565e-11
-5.01447e-10
6.187015e-10
2.540491e-08
4.315198e-09
1.174383e-09
3.401594e-08
4.566028e-09
2.903348e-09
5.033145e-08
5.081976e-09
7.030052e-09
7.678968e-08
5.860834e-09
1.483405e-08
1.197604e-07
6.435419e-09
2.653996e-08
1.871607e-07
7.315893e-09
4.669727e-08
2.945268e-07
6.376908e-09
4.623622e-07
4.823267e-09
8.072938e-08
3.489844e-09
2.793995e-09
3.604812e-09
-9.927792e-10
-4.494403e-10
-1.143907e-10
-2.953714e-10
4.16854e-09
3.408878e-09
3.793608e-09
1.176486e-08
1.471339e-08
4.167091e-09
2.300487e-08
1.923481e-08
5.244959e-09
3.863493e-08
2.939583e-08
6.371044e-09
6.297529e-08
4.554439e-08
8.381521e-09
1.021576e-07
7.150041e-08
1.054187e-08
1.635141e-07
1.13081e-07
1.356617e-08
2.612536e-07
1.793174e-07
1.616862e-08
2.813111e-07
2.101392e-08
4.171506e-07
-9.229387e-10
1.028621e-09
9.328605e-10
3.574095e-10
6.100425e-10
5.427993e-10
4.058045e-10
2.259375e-08
5.477386e-10
5.124265e-09
-2.497425e-09
-2.671211e-09
-2.706082e-09
-2.244267e-09
-1.712265e-09
-1.20055e-09
-1.205819e-09
-9.896797e-10
7.081472e-10
1.837093e-10
1.54006e-09
3.892886e-08
-3.988135e-10
4.32492e-09
-2.362775e-09
-1.358358e-09
-1.282346e-09
-8.370029e-10
9.720151e-10
3.069566e-09
1.097484e-09
6.420279e-08
7.963302e-10
5.879743e-09
-3.04153e-09
-1.751825e-09
-1.79028e-09
-7.211849e-10
1.91197e-09
-4.45697e-12
2.305471e-09
1.040008e-07
1.114985e-09
6.116872e-09
-4.222286e-09
-1.773063e-09
-2.433179e-09
-5.346312e-10
3.175056e-09
8.607411e-10
3.771888e-09
1.685723e-07
2.138475e-09
6.511513e-09
-6.264217e-09
-2.534305e-09
-3.78772e-09
-7.049568e-10
5.165563e-09
1.461884e-09
5.519033e-09
2.692817e-07
3.864137e-09
5.799241e-09
-8.901215e-09
-3.268733e-09
-5.006946e-09
-4.234176e-10
8.701642e-09
2.539719e-09
9.749911e-09
4.316161e-07
6.259545e-09
2.125956e-09
-1.312614e-08
-4.233565e-09
-7.496774e-09
-5.953841e-11
1.420898e-08
3.948701e-09
1.628501e-08
9.805362e-09
-3.451428e-09
-1.904755e-08
-4.681255e-09
-1.109035e-08
1.434571e-09
2.297275e-08
4.830243e-09
2.547114e-08
6.878679e-07
-1.141907e-09
-2.326798e-09
3.051782e-09
1.183859e-09
-1.761325e-10
-3.966751e-09
5.199228e-09
-1.104911e-09
-2.449127e-09
-6.061061e-09
8.177892e-09
1.085629e-09
-3.866134e-09
-9.667868e-09
1.349286e-08
1.238849e-09
-5.007e-09
-1.613369e-08
2.19101e-08
1.645331e-09
-7.517859e-09
-2.616798e-08
3.532874e-08
2.597289e-09
-1.068117e-08
-4.26507e-08
5.693973e-08
3.118891e-09
-1.437897e-08
-6.894656e-08
9.082643e-08
2.926009e-09
-2.565946e-08
-1.098377e-07
8.538623e-09
1.446865e-07
-1.688056e-08
0.0006532829
0.0006733266
-0.0003238147
-0.006532175
-0.0003382839
0.0007588463
7.525561e-06
1.826699e-05
1.437371e-05
0.0007689575
7.261126e-06
0.0008054364
9.829074e-05
-5.720483e-05
-0.006610641
-0.0007705768
0.0008104977
9.199597e-06
1.764363e-05
0.0008013942
8.596421e-06
-2.327116e-05
-0.006721648
-0.0008405951
0.000808325
5.949053e-06
8.879964e-06
0.0008104606
3.857342e-05
-4.021379e-05
-0.006785346
-0.0008770765
0.0008155852
6.142521e-06
9.024595e-06
0.0008195571
4.389632e-05
-5.147155e-05
-0.006892695
-0.0008733622
0.0008241871
5.720772e-06
8.550357e-06
0.0008326108
5.928401e-05
-6.484598e-05
-0.007013954
-0.0008883612
0.0008366093
6.257437e-06
9.154519e-06
0.0008480548
7.115784e-05
-7.743134e-05
-0.007160722
-0.0009016186
0.0008515139
6.767653e-06
9.684541e-06
0.0008664551
8.485534e-05
-9.084134e-05
-0.007332713
-0.0009187774
0.0008690048
7.089599e-06
9.94138e-06
0.0008870062
9.852926e-05
-0.007529887
-0.0009367552
0.0008887281
6.701507e-06
9.668283e-06
-0.0001051354
0.0001972539
0.005335398
-0.0001236287
-0.005149191
-0.0001218261
6.209194e-05
-0.0001703174
-2.977992e-05
-0.0007182008
-0.02787533
-0.0004218626
0.00690923
0.007005275
0.006796569
0.006847536
0.0002431901
-0.0001521546
0.0002898935
-0.0001193916
-0.0006170864
-0.02866507
-0.0008491751
0.006924728
0.006946381
0.006823733
0.006811606
-0.0007332625
-0.02883367
-0.0010609
0.007036701
0.007043307
0.006899583
0.006905781
-0.0008431909
-0.02914568
-0.001096534
0.007115729
0.007126191
0.006974063
0.006983033
-0.001001416
-0.02951674
-0.001154982
0.007226328
0.007240894
0.007079067
0.007092615
-0.001180552
-0.03002312
-0.001163407
0.007352918
0.00737167
0.007202916
0.007220991
-0.001382111
-0.03062634
-0.001190134
0.007506101
0.007528064
0.007353285
0.007374602
-0.001604178
-0.03134431
-0.001215484
0.007685941
0.007710553
0.007529565
0.007554487
-0.0321726
0.007893763
0.007733079
-0.001852883
0.007922327
0.007763764
-0.001249852
0.0002010698
0.005312202
-0.0001615996
-0.005048289
-0.0001817612
9.394639e-05
-0.0001773124
-3.825601e-05
-0.000534578
-0.02773618
-0.0002499013
0.000222751
-0.0001310724
0.000246277
6.315873e-05
-0.0007542243
-0.02830455
-0.0007059072
-0.0009966243
-0.02837309
-0.0008287521
-0.001248835
-0.02857478
-0.00100098
-0.001515451
-0.02891077
-0.001027667
-0.001805004
-0.02937157
-0.001069115
-0.002118138
-0.02994454
-0.001083857
-0.002461349
-0.03062314
-0.001107199
-0.03140865
-0.001131359
-0.002838689
0.0002238779
0.005073864
-0.0001470795
-0.004957397
-0.0001462561
0.0001275275
-0.0001588314
-1.570459e-05
-0.0007120936
-0.02737516
-0.0001513449
0.0002381319
-8.795133e-05
0.0002012612
7.719295e-05
-0.001033415
-0.02784818
-0.0002425624
-0.0013248
-0.02789289
-0.0002875157
-0.00164335
-0.02803735
-0.0003263438
-0.001986005
-0.02832998
-0.0003460432
-0.002360792
-0.02875135
-0.0003540349
-0.002769369
-0.02928642
-0.0003581552
-0.003215442
-0.02992433
-0.0003622718
-0.03066175
-0.0003688686
-0.003704839
0.0002217391
0.005031789
-0.0001427324
-0.004920797
-0.0001524747
0.0001303516
-0.000154697
-1.31787e-05
-0.0007786496
-0.02691609
-5.877233e-05
0.0002446963
-8.171094e-05
0.0001509515
2.618751e-05
-0.001174818
-0.027371
-0.0001352618
-0.001580368
-0.02737646
-0.0001559586
-0.001994155
-0.02748771
-0.0001936572
-0.002429827
-0.02774792
-0.0002029728
-0.002893551
-0.02813358
-0.0002142713
-0.003392412
-0.02863141
-0.0002154295
-0.003932505
-0.02922545
-0.0002189147
-0.02991099
-0.0002226984
-0.00452126
0.0002225144
0.005008741
-0.0001906152
-0.004831393
-0.0001808541
0.0001322586
-0.0001502193
-1.043191e-05
-0.0008821465
-0.02643773
-5.402263e-05
0.0002543014
-4.353221e-05
0.0001692282
4.835973e-05
-0.001375063
-0.02684843
-5.908336e-05
-0.001841681
-0.02685478
-6.022293e-05
-0.002330063
-0.02694222
-6.189328e-05
-0.002839293
-0.02717773
-6.17389e-05
-0.003381175
-0.02753041
-6.181086e-05
-0.003961447
-0.02799016
-5.975739e-05
-0.004587134
-0.02853852
-5.943767e-05
-0.02916899
-6.079134e-05
-0.005266304
0.0002173206
0.004831462
-0.0001507898
-0.00472647
-0.0001457335
0.0001310924
-0.0001471754
-9.705642e-06
-0.00101903
-0.02589513
-3.006802e-05
0.0002760476
-3.927057e-05
0.0001785769
5.700111e-05
-0.001548284
-0.02629454
-4.641994e-05
-0.002088348
-0.02627991
-4.299688e-05
-0.002646012
-0.02634955
-4.261241e-05
-0.003229074
-0.02655955
-3.957597e-05
-0.003844465
-0.0268806
-3.905911e-05
-0.004499953
-0.02730145
-3.640348e-05
-0.005202459
-0.02780281
-3.638481e-05
-0.02837632
-3.82324e-05
-0.005960338
0.0002141208
0.00478848
-0.0001816919
-0.004636036
-0.0001628813
0.0001300039
-0.0001438866
-8.108984e-06
-0.001114927
-0.02530299
-3.149118e-05
0.0002884488
-3.023545e-05
0.0001906817
6.833845e-05
-0.001719661
-0.02568143
-3.454406e-05
-0.002318125
-0.02565856
-2.859921e-05
-0.002938853
-0.02571175
-1.954498e-05
-0.00358514
-0.02589808
-1.310614e-05
-0.004265876
-0.02618803
-8.837143e-06
-0.004988071
-0.02656966
-4.733433e-06
-0.005758694
-0.02702341
-3.663348e-06
-0.02753948
-5.400923e-06
-0.006585358
0.0002104218
0.004655377
-0.0001730174
-0.00452438
-0.000152713
0.0001295698
-0.0001393581
-5.900025e-06
-0.001221115
-0.02465403
-2.478556e-05
0.0003007837
-1.946134e-05
0.000199327
7.586928e-05
-0.001876158
-0.0250169
-3.481671e-05
-0.002532151
-0.02498221
-2.739032e-05
-0.003209604
-0.02501999
-1.795142e-05
-0.003914521
-0.02518226
-1.035911e-05
-0.004653856
-0.02544168
-5.513028e-06
-0.005435154
-0.02578416
-9.737816e-07
-0.006264395
-0.02619094
2.142201e-07
-0.0266502
-1.904773e-06
-0.007148941
0.0002065857
0.004554922
-0.0001842442
-0.004412903
-0.0001544929
0.0001285621
-0.0001346711
-3.758268e-06
-0.001312634
-0.02395475
-2.495788e-05
0.0003101246
-9.902251e-06
0.0002098579
8.436193e-05
-0.00202107
-0.02430228
-3.566187e-05
-0.002727144
-0.02425755
-2.643947e-05
-0.003455481
-0.02428066
-1.511713e-05
-0.004211103
-0.02441961
-6.245504e-06
-0.005001686
-0.02464889
-2.475519e-07
-0.005833766
-0.02495312
4.960182e-06
-0.006713233
-0.02531376
6.489454e-06
-0.02571819
4.212534e-06
-0.007645909
0.0002023367
0.004431908
-0.0001851666
-0.004293002
-0.0001520464
0.0001274896
-0.0001296778
-1.841018e-06
-0.001397014
-0.0232096
-2.335159e-05
0.0003193345
1.105037e-07
0.0002185207
9.163352e-05
-0.002151413
-0.02354158
-3.770393e-05
-0.002902962
-0.02348708
-2.737469e-05
-0.003676562
-0.02349587
-1.600625e-05
-0.004477217
-0.02361221
-6.466803e-06
-0.005312341
-0.02381204
-2.980346e-07
-0.006187984
-0.02407925
5.194151e-06
-0.007109348
-0.0243955
6.752172e-06
-0.02474789
4.273519e-06
-0.008081063
0.0001977567
0.00430831
-0.0001894487
-0.00416779
-0.0001512175
0.0001261052
-0.0001245544
8.391838e-07
-0.001471941
-0.02242386
-2.341114e-05
0.0003270195
9.333353e-06
0.0002271248
9.877073e-05
-0.002268283
-0.02273989
-3.990853e-05
-0.003059611
-0.02267648
-2.832259e-05
-0.003872742
-0.02267165
-1.666846e-05
-0.004712353
-0.02276623
-6.439738e-06
-0.005585613
-0.02293776
7.211891e-08
-0.006497909
-0.02316961
5.826901e-06
-0.007453422
-0.02344404
7.48739e-06
-0.02374738
4.855816e-06
-0.008456215
0.0001928787
0.004176786
-0.0001930316
-0.004034485
-0.0001508443
0.0001245248
-0.0001193019
3.47377e-06
-0.001536478
-0.02160346
-2.293506e-05
0.0003333523
1.739993e-05
0.0002346406
0.0001053296
-0.002370761
-0.0219012
-4.148128e-05
-0.003197025
-0.02183048
-2.898398e-05
-0.004044675
-0.02181267
-1.734926e-05
-0.004917889
-0.02188656
-6.620463e-06
-0.005823344
-0.02203133
-4.043757e-08
-0.006766017
-0.02222971
5.821221e-06
-0.007749319
-0.0224649
7.433835e-06
-0.02272301
4.625292e-06
-0.008775983
0.0001878202
0.00403679
-0.0001951411
-0.003894487
-0.0001498827
0.0001228169
-0.0001138824
5.967025e-06
-0.001594822
-0.02075203
-2.274168e-05
0.0003387358
2.541954e-05
0.0002409002
0.0001115942
-0.002460063
-0.02103194
-4.35836e-05
-0.003316353
-0.02095398
-2.97311e-05
-0.00419334
-0.02092399
-1.825688e-05
-0.005094879
-0.02097844
-6.93593e-06
-0.00602737
-0.02109789
-2.280753e-07
-0.006994895
-0.02126512
5.864617e-06
-0.008000204
-0.02146401
7.589496e-06
-0.02168102
4.736073e-06
-0.009044754
0.0001826051
0.003890273
-0.0001954001
-0.003751713
-0.0001475244
0.0001210809
-0.0001082254
8.903682e-06
-0.001644715
-0.01987342
-2.127993e-05
0.0003432847
3.214358e-05
0.0002454582
0.0001160367
-0.002535914
-0.02013724
-4.46716e-05
-0.003417751
-0.02005225
-2.899101e-05
-0.004319662
-0.02001105
-1.739615e-05
-0.005245205
-0.02004718
-5.536722e-06
-0.006200205
-0.02014291
1.241563e-06
-0.00718803
-0.02028119
7.281068e-06
-0.00821021
-0.02044719
8.942323e-06
-0.0206268
5.824532e-06
-0.009267779
0.0001769246
0.003746884
-0.0002023008
-0.003596867
-0.0001521015
0.0001186254
-0.0001028316
1.166717e-05
-0.001680601
-0.01897793
-2.180684e-05
0.0003421674
3.879111e-05
0.0002513861
0.0001251145
-0.002598957
-0.01921744
-4.499176e-05
-0.00350199
-0.01912959
-2.851982e-05
-0.004424769
-0.01907774
-1.703006e-05
-0.005370424
-0.01909658
-4.449759e-06
-0.006343846
-0.01917043
2.438323e-06
-0.007348039
-0.01928203
8.807932e-06
-0.008383566
-0.01941831
1.065709e-05
-0.01956495
7.599118e-06
-0.009450087
-4.689052e-05
-2.18971e-05
-2.28138e-05
9.053082e-05
0.003802226
-0.003801155
-0.00172219
-1.903995e-05
-0.01806324
0.0001279135
0.0003487469
0.0002521619
-0.002650257
-4.527439e-05
-0.01828694
-0.003570404
-2.46486e-05
-0.01819217
-0.004510139
-1.230714e-05
-0.01813059
-0.005472685
1.142684e-06
-0.01813283
-0.006461945
8.103706e-06
-0.01818592
-0.007479612
1.391203e-05
-0.01827283
-0.008525375
1.547926e-05
-0.01838245
1.185164e-05
-0.01849998
-0.009597918
4.737475e-10
-8.295231e-10
-3.182081e-09
1.144411e-09
1.022244e-09
7.110473e-10
4.24078e-10
4.042449e-10
-3.856606e-08
1.506864e-08
5.604125e-09
4.70911e-09
6.295132e-09
4.974436e-09
6.426289e-09
-6.172129e-08
2.201494e-08
7.174332e-09
-9.844318e-08
3.490811e-08
8.934275e-09
-1.549335e-07
5.394168e-08
1.158816e-08
-2.426363e-07
8.486916e-08
1.482682e-08
-3.792622e-07
1.330226e-07
1.905011e-08
2.09278e-07
2.494587e-08
-5.94046e-07
-4.772337e-10
-8.503801e-10
-8.718225e-10
3.015353e-09
1.043649e-09
-4.733936e-10
-4.971185e-10
-7.187174e-10
-1.977475e-08
2.189869e-08
5.616146e-09
-2.731703e-09
-3.638241e-09
-2.736933e-09
-3.402968e-09
2.042882e-09
2.451584e-09
2.173719e-09
2.367247e-09
-3.630235e-08
3.01172e-08
6.663682e-09
-6.038084e-08
4.401294e-08
8.395859e-09
-9.577104e-08
6.75837e-08
1.065326e-08
-1.504551e-07
1.049563e-07
1.36091e-08
-2.347391e-07
1.645248e-07
1.778302e-08
-3.661315e-07
2.580894e-07
2.258412e-08
4.056875e-07
2.997061e-08
-5.718089e-07
-4.274544e-09
2.085207e-08
4.598557e-09
-3.871519e-09
-4.699214e-09
-3.517596e-09
-4.854407e-09
-1.087019e-08
2.720017e-08
5.436908e-09
-1.920351e-08
3.681069e-08
7.089781e-09
-3.18022e-08
5.462628e-08
8.820071e-09
-5.025191e-08
8.335643e-08
1.162802e-08
-7.854939e-08
1.298723e-07
1.47988e-08
-1.221386e-07
2.03765e-07
1.972065e-08
-1.898868e-07
3.203096e-07
2.521063e-08
5.040838e-07
3.377742e-08
-2.959051e-07
7.909555e-10
1.926282e-08
4.956883e-09
1.874161e-09
2.448288e-08
6.236273e-09
4.502149e-09
3.198588e-08
6.869591e-09
9.04946e-09
4.653916e-08
8.92424e-09
1.641453e-08
7.152062e-08
1.081769e-08
2.806769e-08
1.117299e-07
1.359817e-08
4.690806e-08
1.759859e-07
1.676015e-08
7.707713e-08
2.767259e-07
2.011981e-08
4.35798e-07
2.481767e-08
1.256018e-07
4.460154e-09
3.01465e-09
4.347343e-09
3.799147e-09
3.751824e-09
3.788361e-09
1.511813e-08
1.267227e-08
5.311217e-09
2.888346e-08
1.555501e-08
7.838158e-09
4.808547e-08
2.369856e-08
9.962817e-09
7.770526e-08
3.715957e-08
1.320861e-08
1.23842e-07
5.888385e-08
1.726391e-08
1.968275e-07
9.335338e-08
2.289874e-08
3.113706e-07
1.479369e-07
2.999829e-08
2.342961e-07
4.024297e-08
4.929794e-07
-1.127204e-09
1.042671e-09
1.2148e-09
4.944046e-10
4.019271e-10
6.598683e-10
4.185818e-10
1.940348e-08
1.291928e-10
9.493281e-09
-2.542753e-09
-2.219204e-09
-2.4599e-09
-1.897081e-09
-1.406219e-09
4.731484e-10
-1.300521e-09
3.348677e-08
5.601455e-09
5.443001e-08
8.405675e-09
8.715868e-08
1.028845e-08
1.388782e-07
1.33631e-08
2.206627e-07
1.687234e-08
3.495564e-07
2.039417e-08
2.60025e-08
5.53912e-07
-1.738285e-09
-1.193364e-09
1.99574e-09
1.126602e-09
0.0008076289
0.0001159491
-0.0007337376
-0.006563592
-6.297886e-05
0.0008058817
-1.862142e-05
-1.549321e-05
-0.0005602313
-0.02734456
-0.000554046
0.0009056074
0.001469175
-0.000195699
-0.0001753569
0.0008865235
-0.0002453598
0.001426132
-0.0002466805
-0.0001427724
-0.02760632
-0.0006259651
0.001500804
0.001540703
-0.0002454383
-0.0002334135
-0.000245655
-0.02801962
-0.0008020934
0.001613216
0.001603761
-0.0001987685
-0.0001946433
-0.0002873817
-0.02843026
-0.0007856951
0.00161363
0.00160104
-0.0002071446
-0.0002073367
-0.0003604873
-0.02893064
-0.0008040682
0.001645475
0.00162842
-0.0002043884
-0.000207038
-0.00042463
-0.02952654
-0.0008124629
0.001673519
0.001652257
-0.0002089009
-0.0002124021
-0.03022631
-0.0008266384
0.001710079
0.001684465
-0.0002120285
-0.0002162473
-0.0004994956
-0.001038834
-0.02370283
-0.0003401348
0.005603994
0.006701984
0.005847842
0.006684127
0.0005090083
0.000444709
-0.0007381355
2.826534e-05
-0.0004933985