/*--------------------------------*- C++ -*----------------------------------*\
  =========                 |
  \\      /  F ield         | OpenFOAM: The Open Source CFD Toolbox
   \\    /   O peration     | Website:  https://openfoam.org
    \\  /    A nd           | Version:  7
     \\/     M anipulation  |
\*---------------------------------------------------------------------------*/
FoamFile
{
    version     2.0;
    format      ascii;
    class       volVectorField;
    location    "0.09";
    object      U;
}
// * * * * * * * * * * * * * * * * * * * * * * * * * * * * * * * * * * * * * //

dimensions      [0 1 -1 0 0 0 0];

internalField   nonuniform List<vector> 
77997
(
(-2.812773e-07 7.143138e-08 1.89014e-08)
(-5.865804e-07 1.402237e-07 5.115082e-08)
(-1.160333e-06 1.139352e-07 2.844005e-08)
(-1.978506e-06 1.809294e-07 2.625266e-08)
(-3.061074e-06 2.993192e-07 7.365266e-08)
(-4.658328e-06 4.708299e-07 1.236573e-07)
(-7.193783e-06 7.699379e-07 2.102801e-07)
(-1.103465e-05 1.186414e-06 3.141809e-07)
(-1.712817e-05 1.685803e-06 3.318795e-07)
(-2.598843e-08 3.327625e-07 2.069039e-08)
(-3.31819e-07 4.516913e-07 3.079867e-08)
(-6.239308e-07 6.185705e-07 5.124731e-08)
(-1.062569e-06 9.004922e-07 5.973425e-08)
(-1.699083e-06 1.358437e-06 6.801895e-08)
(-2.687315e-06 2.116001e-06 9.019088e-08)
(-4.184838e-06 3.298378e-06 1.280842e-07)
(-6.502369e-06 5.19008e-06 1.828571e-07)
(-1.01034e-05 8.091576e-06 2.52454e-07)
(-2.947309e-08 4.929841e-07 -1.437425e-09)
(-2.146348e-07 6.352337e-07 1.90214e-08)
(-3.726549e-07 8.576284e-07 4.700078e-08)
(-6.247003e-07 1.281722e-06 5.256801e-08)
(-9.879573e-07 1.949464e-06 7.937812e-08)
(-1.554599e-06 3.047106e-06 9.217583e-08)
(-2.424438e-06 4.765879e-06 1.539777e-07)
(-3.738852e-06 7.509408e-06 2.210565e-07)
(-5.819195e-06 1.184292e-05 3.319955e-07)
(2.747011e-08 6.073465e-07 3.017994e-08)
(2.253442e-08 6.497388e-07 4.703927e-08)
(1.056393e-08 9.013376e-07 2.78186e-08)
(3.061789e-08 1.344155e-06 3.647284e-08)
(7.729731e-08 2.06407e-06 7.099982e-08)
(1.27626e-07 3.257656e-06 1.179629e-07)
(2.708373e-07 5.054739e-06 2.164721e-09)
(5.725129e-07 7.930196e-06 -4.319354e-08)
(1.065541e-06 1.245475e-05 -1.235887e-07)
(1.774464e-08 5.248417e-07 1.792406e-08)
(1.695126e-07 5.508133e-07 1.824202e-08)
(3.244861e-07 7.603949e-07 1.569401e-08)
(5.43262e-07 1.124587e-06 1.33639e-08)
(8.883056e-07 1.726624e-06 1.151829e-08)
(1.43915e-06 2.697869e-06 3.69129e-09)
(2.314644e-06 4.285025e-06 -5.170591e-09)
(3.708949e-06 6.784117e-06 -3.110371e-08)
(5.91193e-06 1.082667e-05 -9.590538e-08)
(3.440994e-08 4.142822e-07 1.201715e-08)
(1.956315e-07 3.428361e-07 1.135702e-08)
(3.50611e-07 4.562454e-07 -1.6045e-08)
(6.703932e-07 6.601384e-07 -4.874542e-08)
(1.093444e-06 9.893571e-07 -8.509289e-08)
(1.888539e-06 1.570972e-06 -1.908361e-07)
(3.012319e-06 2.410543e-06 -2.195275e-07)
(4.897794e-06 3.842995e-06 -3.385034e-07)
(7.873401e-06 6.176373e-06 -5.697269e-07)
(1.250337e-05 9.965111e-06 -9.224198e-07)
(-8.519429e-08 1.762141e-08 -2.744583e-08)
(2.824674e-07 -1.439406e-08 2.583348e-08)
(4.812888e-07 1.26694e-07 -2.009423e-08)
(9.80106e-07 5.152433e-08 1.196802e-08)
(1.594871e-06 3.000894e-07 -5.448842e-08)
(2.837662e-06 -5.387487e-08 1.436308e-07)
(4.366181e-06 6.863522e-08 1.307582e-07)
(6.907946e-06 1.312062e-07 1.055689e-07)
(1.120158e-05 3.674712e-07 -3.192441e-08)
(1.72257e-05 1.008963e-06 -8.837219e-08)
(-0.01892467 -0.688676 -0.02917983)
(-0.02177606 -0.7073228 -0.03285601)
(-0.02090095 -0.7186439 -0.03198082)
(-0.02177849 -0.7278157 -0.03188635)
(-0.02329911 -0.7386384 -0.03212263)
(-0.02505415 -0.7516448 -0.03243381)
(-0.02702512 -0.7671094 -0.03279252)
(-0.0292441 -0.7852371 -0.03317886)
(-0.03179557 -0.8063149 -0.03354386)
(-0.01999187 -0.6790796 -0.02029289)
(-0.01541646 -0.6901275 -0.02878688)
(-0.01702269 -0.6964061 -0.03121955)
(-0.01842616 -0.7051984 -0.03104658)
(-0.02201013 -0.715405 -0.03142201)
(-0.02590365 -0.7279664 -0.03168694)
(-0.03055048 -0.7427263 -0.03208554)
(-0.03566224 -0.7601133 -0.03244966)
(-0.04150273 -0.7802164 -0.0329317)
(-0.01120726 -0.6620786 -0.0007730904)
(-0.01544882 -0.669751 -0.002833321)
(-0.02082624 -0.6733216 -0.002099691)
(-0.02683099 -0.6806073 -0.002229329)
(-0.03281277 -0.6898453 -0.001943842)
(-0.03964138 -0.7016338 -0.001900361)
(-0.04677621 -0.7156635 -0.001776399)
(-0.05470572 -0.7321499 -0.001710604)
(-0.06332401 -0.7511769 -0.001649593)
(-0.01706295 -0.6633068 0.000849097)
(-0.02094178 -0.672255 0.001056549)
(-0.02850711 -0.6774395 0.001710529)
(-0.03565766 -0.6844348 0.001785668)
(-0.04380083 -0.6937881 0.001930913)
(-0.05251479 -0.7051063 0.00202766)
(-0.06195948 -0.7187018 0.002113133)
(-0.07225779 -0.7345343 0.00219209)
(-0.08350388 -0.7528211 0.002262772)
(-0.0137704 -0.651513 0.0002825551)
(-0.02340824 -0.6607704 0.0004231444)
(-0.03293256 -0.6645723 0.0009357887)
(-0.04306885 -0.6711143 0.0008895684)
(-0.05329434 -0.6796171 0.001020358)
(-0.06432554 -0.6902517 0.001029513)
(-0.07596915 -0.7029876 0.001088243)
(-0.08858379 -0.7178392 0.001130013)
(-0.1022364 -0.7349487 0.001182099)
(-0.01648981 -0.6433118 0.0003850507)
(-0.02757158 -0.6524214 3.268732e-05)
(-0.03896213 -0.6571096 0.0006872153)
(-0.05075688 -0.6633272 0.0005986476)
(-0.06291755 -0.6715953 0.0007007985)
(-0.07579168 -0.6815574 0.0007045083)
(-0.08943768 -0.6935191 0.000744213)
(-0.1040875 -0.7073736 0.0007694222)
(-0.1199153 -0.7232908 0.0007966033)
(-0.01757974 -0.6303614 5.171528e-05)
(-0.03075256 -0.6392393 8.821149e-05)
(-0.04387858 -0.6434073 0.0004004364)
(-0.05759286 -0.6492046 0.000301725)
(-0.07156675 -0.656797 0.000366156)
(-0.08628979 -0.6660189 0.0003504044)
(-0.1017928 -0.677034 0.0003784274)
(-0.118325 -0.6897653 0.0003846038)
(-0.1360902 -0.7043218 0.0004006301)
(-0.01970916 -0.6175397 2.012589e-05)
(-0.03425081 -0.6261433 -0.0001301568)
(-0.04892624 -0.6302754 0.0002946742)
(-0.06414384 -0.6356741 0.0001786344)
(-0.07973505 -0.6427521 0.0002350531)
(-0.09604151 -0.6512334 0.0002151036)
(-0.1132019 -0.66133 0.0002317604)
(-0.1313906 -0.6729328 0.0002318121)
(-0.1508568 -0.6861315 0.0002408613)
(-0.02127924 -0.6023719 -8.179383e-05)
(-0.03725439 -0.6105683 -9.293457e-05)
(-0.05340225 -0.6143259 0.0002472697)
(-0.07005922 -0.6192585 0.0001212652)
(-0.08712196 -0.6256859 0.0001630316)
(-0.1048717 -0.6333867 0.0001322505)
(-0.123499 -0.6425057 0.0001432703)
(-0.1431351 -0.6529451 0.0001374269)
(-0.1640543 -0.66475 0.0001428729)
(-0.02301842 -0.5863715 -0.00013163)
(-0.04013033 -0.5942175 -0.0001683117)
(-0.05760216 -0.5976941 0.0002117058)
(-0.07548974 -0.6021766 7.822283e-05)
(-0.09385202 -0.6079934 0.0001142553)
(-0.1128576 -0.6149267 8.320251e-05)
(-0.1327589 -0.623093 9.020865e-05)
(-0.1536345 -0.6323965 8.392159e-05)
(-0.175773 -0.6428491 8.753736e-05)
(-0.02449209 -0.5689203 -0.0001524631)
(-0.04267888 -0.5763623 -0.0001804419)
(-0.06134672 -0.5794799 0.0002116535)
(-0.08034487 -0.5834894 6.595083e-05)
(-0.09985925 -0.5886745 0.0001006137)
(-0.1199662 -0.5948385 6.307215e-05)
(-0.1409643 -0.6020635 6.794417e-05)
(-0.1628881 -0.6102551 5.917239e-05)
(-0.1860319 -0.6193981 6.026962e-05)
(-0.02591356 -0.5505505 -0.0001639521)
(-0.04497995 -0.5575961 -0.0002212753)
(-0.06471479 -0.5603795 0.0002094515)
(-0.08467062 -0.5639307 5.227943e-05)
(-0.1051884 -0.5685071 8.683949e-05)
(-0.1262405 -0.5739295 4.621097e-05)
(-0.1481691 -0.5802535 4.940736e-05)
(-0.1709648 -0.5873878 4.014996e-05)
(-0.1949199 -0.5952961 3.94267e-05)
(-0.02713785 -0.5311843 -0.0001528888)
(-0.0469979 -0.5378148 -0.0002515477)
(-0.06766778 -0.5402557 0.0002212856)
(-0.08846009 -0.5433538 5.101634e-05)
(-0.1098466 -0.5473368 8.648742e-05)
(-0.1317063 -0.5520444 4.246105e-05)
(-0.1544163 -0.5575097 4.359266e-05)
(-0.1779264 -0.5636459 3.3087e-05)
(-0.2025231 -0.5704001 3.164301e-05)
(-0.02825532 -0.5110435 -0.0001520166)
(-0.04875038 -0.5172434 -0.0002774467)
(-0.07024132 -0.51936 0.0002307257)
(-0.09174079 -0.5220209 4.784444e-05)
(-0.1138689 -0.5254375 8.527674e-05)
(-0.1364074 -0.5294685 3.859393e-05)
(-0.1597653 -0.5341295 3.930614e-05)
(-0.1838512 -0.5393412 2.791455e-05)
(-0.2089442 -0.5450365 2.48868e-05)
(-0.02922311 -0.4901804 -0.00015137)
(-0.05023021 -0.4959828 -0.0002894414)
(-0.07243435 -0.4977675 0.000247976)
(-0.09452858 -0.5000103 5.478525e-05)
(-0.1172856 -0.5028835 9.410455e-05)
(-0.1403931 -0.5062772 4.416916e-05)
(-0.1642846 -0.5101868 4.233729e-05)
(-0.1888301 -0.5145477 2.873897e-05)
(-0.2142965 -0.519279 2.341922e-05)
(-0.0300187 -0.468754 -0.0001075589)
(-0.05147597 -0.474125 -0.0003349072)
(-0.07425962 -0.4755929 0.0002573808)
(-0.09684969 -0.4774269 4.957932e-05)
(-0.1201285 -0.4797805 9.199214e-05)
(-0.1437066 -0.4825752 3.960412e-05)
(-0.1680324 -0.4857918 3.80026e-05)
(-0.1929416 -0.489384 2.443686e-05)
(-0.2186829 -0.493255 1.95358e-05)
(-0.03071385 -0.4468658 -0.0001175137)
(-0.05243282 -0.4518117 -0.0002903799)
(-0.07573034 -0.452961 0.0002811354)
(-0.09871072 -0.4544028 6.712605e-05)
(-0.122429 -0.4562548 0.0001085986)
(-0.1464013 -0.4584903 5.242012e-05)
(-0.1710908 -0.4610629 4.622789e-05)
(-0.1962918 -0.4639653 2.993579e-05)
(-0.2222346 -0.4670719 2.088006e-05)
(-2.777069e-07 5.347397e-08 9.343868e-08)
(-8.182023e-07 2.019482e-07 9.444669e-08)
(-1.283712e-06 2.88965e-07 1.475316e-07)
(-2.091255e-06 4.406793e-07 1.412696e-07)
(-3.28842e-06 6.819001e-07 1.855708e-07)
(-5.14705e-06 1.052613e-06 2.227815e-07)
(-8.035088e-06 1.657124e-06 3.047494e-07)
(-1.25301e-05 2.578049e-06 3.293903e-07)
(-5.087025e-08 3.342526e-07 4.174814e-08)
(-3.398795e-07 4.363747e-07 7.228081e-08)
(-6.379908e-07 6.062421e-07 9.3502e-08)
(-1.097823e-06 8.445496e-07 1.02191e-07)
(-1.748223e-06 1.302837e-06 1.101128e-07)
(-2.751804e-06 2.008786e-06 1.253583e-07)
(-4.288419e-06 3.145635e-06 1.446101e-07)
(-6.68126e-06 4.91331e-06 1.503317e-07)
(-1.040519e-05 7.701552e-06 1.487834e-07)
(-6.66442e-08 5.986165e-07 8.274765e-08)
(-2.104633e-07 6.470647e-07 8.130977e-08)
(-3.482219e-07 8.676109e-07 1.000906e-07)
(-5.901318e-07 1.291016e-06 1.278309e-07)
(-9.373545e-07 1.964851e-06 1.566633e-07)
(-1.459314e-06 3.06177e-06 2.04612e-07)
(-2.260639e-06 4.825623e-06 2.718707e-07)
(-3.503471e-06 7.594037e-06 3.663854e-07)
(-5.438027e-06 1.194794e-05 4.890018e-07)
(2.189736e-08 5.388326e-07 1.047966e-07)
(1.560356e-08 6.526591e-07 8.498978e-08)
(2.529891e-08 8.962374e-07 9.27127e-08)
(4.771717e-08 1.347911e-06 1.037401e-07)
(1.079089e-07 2.059825e-06 1.19001e-07)
(2.514802e-07 3.220416e-06 1.369816e-07)
(4.737453e-07 5.045716e-06 1.749958e-07)
(8.03836e-07 7.939285e-06 1.824392e-07)
(1.399425e-06 1.246285e-05 1.634832e-07)
(4.354064e-08 5.013696e-07 9.341654e-08)
(1.628358e-07 5.563403e-07 9.207764e-08)
(3.942159e-07 7.432108e-07 1.161882e-07)
(6.560719e-07 1.083941e-06 1.475607e-07)
(1.066862e-06 1.648954e-06 2.064304e-07)
(1.738367e-06 2.552254e-06 2.859201e-07)
(2.793187e-06 3.971464e-06 3.912904e-07)
(4.442673e-06 6.229701e-06 5.047635e-07)
(7.061281e-06 9.763993e-06 7.178776e-07)
(3.735779e-08 2.398759e-07 9.489501e-08)
(3.610588e-07 2.18549e-07 1.553025e-07)
(6.364122e-07 2.726769e-07 1.698582e-07)
(1.043207e-06 4.296786e-07 2.143065e-07)
(1.696562e-06 6.440755e-07 2.552134e-07)
(2.770205e-06 1.009538e-06 3.309664e-07)
(4.465149e-06 1.611771e-06 4.263726e-07)
(7.08014e-06 2.552518e-06 5.336613e-07)
(1.138162e-05 3.962184e-06 6.649043e-07)
(2.926119e-07 -6.847228e-09 1.367409e-07)
(5.989806e-07 -1.822361e-07 -1.401538e-07)
(9.340739e-07 -9.336085e-09 4.130103e-07)
(1.480062e-06 -3.68073e-08 5.950046e-07)
(2.388913e-06 -6.064105e-08 6.790994e-07)
(3.796931e-06 -5.538744e-08 9.721874e-07)
(6.150211e-06 -1.233259e-07 1.208845e-06)
(9.899083e-06 -2.951204e-07 1.215208e-06)
(1.569982e-05 -2.755125e-07 2.387668e-06)
(-0.02087816 -0.6280433 -0.01886429)
(-0.006074894 -0.6600424 -0.01650099)
(-0.001845185 -0.6719872 -0.01117989)
(-0.005110836 -0.6777265 -0.01097891)
(-0.005867321 -0.6883524 -0.01040526)
(-0.007356415 -0.7004599 -0.01052513)
(-0.00850639 -0.7151121 -0.01064741)
(-0.009847296 -0.7323784 -0.01089135)
(-0.01119317 -0.7523706 -0.01113167)
(-0.003074761 -0.5743267 -0.01127822)
(-0.01756085 -0.6815042 0.001515228)
(-0.008549404 -0.6924214 0.002243502)
(-0.01487438 -0.7006145 0.003452905)
(-0.01655656 -0.7098585 0.005399588)
(-0.02081623 -0.7200515 0.005744629)
(-0.02462014 -0.732795 0.006334458)
(-0.02922871 -0.7477441 0.006506232)
(-0.03404775 -0.7653735 0.006655858)
(-0.03948903 -0.7857218 0.006744265)
(-0.006231157 -0.5910623 -0.01596923)
(-0.00645165 -0.6738889 0.0006563009)
(-0.01388082 -0.6804851 -0.004358783)
(-0.01865115 -0.6833314 -0.003205068)
(-0.02584137 -0.6916556 -0.005088433)
(-0.03172151 -0.7011484 -0.004776071)
(-0.03869063 -0.7133439 -0.005177411)
(-0.04567585 -0.7276076 -0.005130594)
(-0.0534708 -0.7443479 -0.005275854)
(-0.0618644 -0.7636674 -0.005357471)
(-0.002877042 -0.5713019 -0.01032437)
(-0.01153448 -0.6731574 -4.078565e-05)
(-0.02028244 -0.6755776 0.0003855526)
(-0.02717564 -0.6819353 0.001481185)
(-0.03485836 -0.6890432 0.001732043)
(-0.0429458 -0.6986591 0.001974045)
(-0.05167323 -0.7100829 0.002089747)
(-0.0611002 -0.7237955 0.002179817)
(-0.07134548 -0.739727 0.002224388)
(-0.0824978 -0.7581531 0.002287731)
(-0.002330789 -0.5690583 -0.01108016)
(-0.01341003 -0.660453 0.0002202563)
(-0.02313612 -0.6632652 -0.000493193)
(-0.03255886 -0.6674695 -0.0004127631)
(-0.0429648 -0.6743026 -0.000848025)
(-0.05313865 -0.6829178 -0.0007901474)
(-0.06424918 -0.6936744 -0.0009140467)
(-0.07585371 -0.7064728 -0.000895342)
(-0.08845656 -0.7213991 -0.000954355)
(-0.1020549 -0.7385966 -0.0009678814)
(-0.006274814 -0.5721308 -0.01679905)
(-0.01406967 -0.6514588 0.0001028963)
(-0.0277116 -0.6538261 0.000246302)
(-0.03843543 -0.6588965 0.0004410373)
(-0.05060116 -0.6652118 0.0004814896)
(-0.06267228 -0.6735782 0.000567993)
(-0.07562309 -0.683587 0.0005766083)
(-0.08927708 -0.6955882 0.0006098115)
(-0.1039527 -0.709465 0.0006084478)
(-0.1197859 -0.7254192 0.0006294831)
(-0.003147363 -0.5473417 -0.01008885)
(-0.01830327 -0.6381938 0.0004110255)
(-0.03093728 -0.6399827 0.0002677293)
(-0.04385846 -0.6444572 8.936127e-05)
(-0.05766702 -0.6503319 -2.235359e-05)
(-0.07157648 -0.6579937 -2.841273e-05)
(-0.0863641 -0.6672546 -7.628125e-05)
(-0.1018709 -0.6782974 -7.389053e-05)
(-0.1184351 -0.6910455 -9.903488e-05)
(-0.1362156 -0.7056293 -9.852645e-05)
(-0.004624074 -0.5431952 -0.01269278)
(-0.01911055 -0.6250457 0.0004048662)
(-0.03457324 -0.6269882 0.0003599556)
(-0.04879229 -0.6311745 0.0002212811)
(-0.06418801 -0.6366234 0.0001907433)
(-0.07969548 -0.6437365 0.0002059082)
(-0.09606127 -0.6522313 0.0001884236)
(-0.1132298 -0.6623365 0.0002031778)
(-0.1314507 -0.6739368 0.0001921391)
(-0.1509427 -0.6871373 0.0001996272)
(-0.004035052 -0.5269178 -0.01071732)
(-0.02144518 -0.6096003 0.0005860056)
(-0.03760188 -0.61109 0.0004071094)
(-0.05341246 -0.6149407 0.0001834787)
(-0.07016968 -0.6199055 0.0001027882)
(-0.08715885 -0.6263583 8.511461e-05)
(-0.104967 -0.6340698 5.62486e-05)
(-0.1236019 -0.6431953 5.533341e-05)
(-0.14327 -0.653634 4.31477e-05)
(-0.1642107 -0.6654416 4.312647e-05)
(-0.004463628 -0.5149762 -0.01100545)
(-0.02284841 -0.5933317 0.0006506808)
(-0.04053646 -0.5947962 0.0004059066)
(-0.05758379 -0.5982631 0.0002099439)
(-0.07560037 -0.6027748 0.000120892)
(-0.09387812 -0.6086037 0.0001173679)
(-0.1129381 -0.6155402 8.785408e-05)
(-0.1328455 -0.6237079 9.529356e-05)
(-0.1537511 -0.6330041 8.34722e-05)
(-0.1759124 -0.6434515 8.589522e-05)
(-0.004508649 -0.500478 -0.01057967)
(-0.0243573 -0.5755868 0.0007619773)
(-0.04312949 -0.5768386 0.000419173)
(-0.06134497 -0.5799386 0.0002225843)
(-0.08047492 -0.5839758 0.0001013124)
(-0.09989893 -0.5891629 9.283397e-05)
(-0.1200602 -0.595329 5.617856e-05)
(-0.1410643 -0.6025519 6.035084e-05)
(-0.163016 -0.6107354 4.784483e-05)
(-0.1861815 -0.6198709 4.830443e-05)
(-0.004678386 -0.4857644 -0.01046371)
(-0.02558984 -0.5569382 0.0008378536)
(-0.04548184 -0.5580683 0.0004071697)
(-0.06469423 -0.5607989 0.000237704)
(-0.08480626 -0.564376 9.433257e-05)
(-0.105224 -0.5689496 9.263825e-05)
(-0.1263305 -0.5743708 5.230389e-05)
(-0.148264 -0.5806921 5.912609e-05)
(-0.1710852 -0.5878176 4.60712e-05)
(-0.1950604 -0.5957172 4.750062e-05)
(-0.004869409 -0.4703973 -0.01047159)
(-0.0266003 -0.5372809 0.0009209666)
(-0.04755017 -0.5382375 0.0004044787)
(-0.06762711 -0.5406239 0.0002569913)
(-0.08860323 -0.543747 8.875601e-05)
(-0.1098801 -0.5477236 9.107143e-05)
(-0.1317964 -0.5524298 4.456263e-05)
(-0.1545091 -0.5578904 5.153388e-05)
(-0.1780438 -0.564018 3.693948e-05)
(-0.2026579 -0.5707624 3.647356e-05)
(-0.00497862 -0.454252 -0.01040441)
(-0.02760549 -0.516891 0.0009852104)
(-0.0493456 -0.5176206 0.000382983)
(-0.07018453 -0.5196916 0.0002665672)
(-0.09188958 -0.5223733 7.605737e-05)
(-0.1138984 -0.5257827 8.406065e-05)
(-0.1364946 -0.5298127 3.441917e-05)
(-0.1598527 -0.5344699 4.208923e-05)
(-0.1839616 -0.5396735 2.848614e-05)
(-0.2090708 -0.5453609 2.891045e-05)
(-0.005028806 -0.4369771 -0.010139)
(-0.02852423 -0.4957239 0.001054085)
(-0.05085673 -0.4963554 0.0003686992)
(-0.07236212 -0.4980696 0.0002874826)
(-0.09468066 -0.5003345 7.752822e-05)
(-0.1173117 -0.5031991 9.229151e-05)
(-0.1404789 -0.5065911 3.725901e-05)
(-0.1643693 -0.5104954 4.435457e-05)
(-0.1889355 -0.5148479 2.926923e-05)
(-0.2144171 -0.519571 2.733413e-05)
(-0.00553686 -0.4214985 -0.01115745)
(-0.028782 -0.4740457 0.001096745)
(-0.05217764 -0.4744178 0.0003386081)
(-0.07415137 -0.4758595 0.0002875226)
(-0.09700862 -0.4777097 5.830668e-05)
(-0.1201502 -0.4800574 7.972583e-05)
(-0.143789 -0.4828516 2.179522e-05)
(-0.1681106 -0.4860662 3.128764e-05)
(-0.1930397 -0.489652 1.920229e-05)
(-0.2187949 -0.4935182 1.809768e-05)
(0.008541869 -0.3830452 0.001005498)
(-0.0300102 -0.4519486 0.001153656)
(-0.0531396 -0.4520426 0.0003209538)
(-0.07564892 -0.4532145 0.0003095097)
(-0.09887333 -0.4546718 6.912376e-05)
(-0.1224517 -0.4565213 9.530416e-05)
(-0.1464861 -0.458755 3.723326e-05)
(-0.1711694 -0.4613227 4.295705e-05)
(-0.1963879 -0.4642161 2.936413e-05)
(-0.2223427 -0.4673157 2.339572e-05)
(-2.673742e-07 4.501651e-08 1.135723e-07)
(-7.946664e-07 1.963756e-07 1.610884e-07)
(-1.267718e-06 2.822335e-07 1.880278e-07)
(-2.073874e-06 4.575454e-07 2.458615e-07)
(-3.281558e-06 6.964594e-07 2.902765e-07)
(-5.17254e-06 1.103847e-06 3.828196e-07)
(-8.092138e-06 1.732504e-06 4.487542e-07)
(-1.268037e-05 2.734289e-06 5.924199e-07)
(-4.674582e-08 3.44128e-07 9.377791e-08)
(-3.169544e-07 4.40095e-07 1.320939e-07)
(-6.052893e-07 6.098731e-07 1.601985e-07)
(-1.053722e-06 8.550803e-07 1.8684e-07)
(-1.684802e-06 1.320916e-06 2.422277e-07)
(-2.664325e-06 2.044922e-06 2.877762e-07)
(-4.176643e-06 3.212346e-06 3.839563e-07)
(-6.522308e-06 5.031947e-06 4.607137e-07)
(-1.020124e-05 7.902827e-06 6.108758e-07)
(-3.9307e-08 6.178074e-07 1.243661e-07)
(-1.883084e-07 6.460808e-07 1.278779e-07)
(-3.04487e-07 8.615397e-07 1.590075e-07)
(-5.277507e-07 1.291149e-06 1.907327e-07)
(-8.376277e-07 1.971632e-06 2.432035e-07)
(-1.314284e-06 3.079343e-06 3.060652e-07)
(-2.061301e-06 4.828026e-06 4.007829e-07)
(-3.204152e-06 7.589275e-06 5.051062e-07)
(-5.021795e-06 1.192794e-05 6.711277e-07)
(1.504209e-08 5.367709e-07 1.318987e-07)
(3.379705e-08 6.619802e-07 1.397563e-07)
(7.630167e-08 9.148809e-07 1.588441e-07)
(1.536397e-07 1.353192e-06 1.917853e-07)
(2.765276e-07 2.077743e-06 2.488418e-07)
(4.777197e-07 3.229205e-06 3.054059e-07)
(7.900934e-07 5.0689e-06 3.884152e-07)
(1.298947e-06 7.947265e-06 4.571863e-07)
(2.087866e-06 1.24929e-05 5.87723e-07)
(4.639408e-08 5.194055e-07 1.298353e-07)
(2.234367e-07 5.446449e-07 1.414048e-07)
(4.797264e-07 6.998917e-07 1.859917e-07)
(7.995369e-07 9.934679e-07 2.374313e-07)
(1.297455e-06 1.501206e-06 3.236166e-07)
(2.081429e-06 2.324712e-06 4.225143e-07)
(3.292868e-06 3.641416e-06 5.792375e-07)
(5.213029e-06 5.695277e-06 7.719523e-07)
(8.198907e-06 8.956754e-06 1.074502e-06)
(4.629723e-09 2.766764e-07 1.034138e-07)
(3.233498e-07 2.086106e-07 1.783245e-07)
(6.668264e-07 2.356898e-07 1.718989e-07)
(1.110918e-06 3.501319e-07 2.257484e-07)
(1.787736e-06 5.229951e-07 2.863613e-07)
(2.875311e-06 8.190302e-07 3.769485e-07)
(4.554316e-06 1.29287e-06 4.903618e-07)
(7.226678e-06 2.06815e-06 5.916001e-07)
(1.138493e-05 3.290149e-06 7.737236e-07)
(2.387221e-07 -1.28169e-08 1.689333e-07)
(-0.02009882 -0.6549915 -0.007216226)
(-0.01751397 -0.6942259 -0.01539401)
(0.002709057 -0.692491 -0.008198513)
(-0.006995541 -0.7076259 -0.01224262)
(-0.006064338 -0.7167353 -0.01069592)
(-0.009082989 -0.7297235 -0.01116876)
(-0.01048733 -0.74469 -0.0111789)
(-0.01255014 -0.7625715 -0.01149839)
(-0.02517314 -0.6789539 -0.02022421)
(-0.002809127 -0.6892427 -0.0001642903)
(-0.007388261 -0.6681805 -0.002212673)
(-0.01108059 -0.6812165 -0.002597901)
(-0.01418467 -0.6872215 -0.001785611)
(-0.01962122 -0.6984215 -0.002591702)
(-0.02348883 -0.7106615 -0.002162291)
(-0.02827603 -0.72533 -0.00241236)
(-0.03305665 -0.7424446 -0.002455974)
(-0.006103948 -0.6565477 0.001114369)
(-0.01676912 -0.673395 -0.0007230198)
(-0.0191275 -0.6796087 -0.005598461)
(-0.01979608 -0.6835905 -0.004701148)
(-0.02660416 -0.6929312 -0.007053625)
(-0.03104602 -0.7025 -0.006811485)
(-0.03810757 -0.7149013 -0.007230963)
(-0.04474818 -0.7291786 -0.007228179)
(-0.05255269 -0.7460153 -0.007421522)
(-0.06087949 -0.7654167 -0.007552055)
(-0.00375735 -0.6621854 -0.00514648)
(-0.01072087 -0.6731172 -0.001966341)
(-0.0192859 -0.6713059 -0.001719477)
(-0.02648457 -0.677721 -0.001097481)
(-0.03432813 -0.683483 -0.001051508)
(-0.04257104 -0.6932284 -0.001065655)
(-0.0513291 -0.7044063 -0.0009702908)
(-0.06074711 -0.7180954 -0.0009344404)
(-0.07097621 -0.7339185 -0.000913243)
(-0.08210492 -0.7522515 -0.0009069094)
(-0.004270794 -0.6486009 0.0006225562)
(-0.01481303 -0.6595189 -0.0003420017)
(-0.02401709 -0.6624864 -0.001023785)
(-0.03313592 -0.6675511 -0.0007640517)
(-0.04318515 -0.6744665 -0.001227503)
(-0.05305138 -0.6832429 -0.001186892)
(-0.06406286 -0.694054 -0.001355234)
(-0.07555092 -0.7068943 -0.001330537)
(-0.08814219 -0.7218373 -0.001380658)
(-0.1017243 -0.7390639 -0.001383747)
(-0.004943861 -0.6410355 0.0003883435)
(-0.01565722 -0.651453 -0.0007662283)
(-0.02700843 -0.6529382 -0.0001054147)
(-0.03850264 -0.6580228 -7.747688e-06)
(-0.05037776 -0.6639466 8.040933e-05)
(-0.06257049 -0.672317 0.0001391635)
(-0.0754813 -0.682219 0.0001524349)
(-0.08913732 -0.6942058 0.0001946286)
(-0.1038166 -0.7080418 0.0002000202)
(-0.1196517 -0.7239803 0.0002192423)
(-0.005793827 -0.6279056 0.0006278504)
(-0.01817241 -0.6376802 -0.0001386606)
(-0.03088948 -0.6398547 -9.965842e-05)
(-0.04401919 -0.6444278 -5.245095e-05)
(-0.05761497 -0.650368 -9.606872e-05)
(-0.07155526 -0.658073 -7.951772e-05)
(-0.08627551 -0.6673439 -0.0001235439)
(-0.1017724 -0.6783912 -0.0001075083)
(-0.1183333 -0.6911371 -0.0001284534)
(-0.1361152 -0.7057284 -0.0001239168)
(-0.006404359 -0.6155359 0.0009079841)
(-0.01988477 -0.6249716 -0.0002226534)
(-0.03417235 -0.6267273 0.0001508452)
(-0.04889117 -0.6309517 9.894325e-05)
(-0.06402834 -0.6363392 0.0001767456)
(-0.0796616 -0.6434471 0.00020074)
(-0.09598871 -0.6519213 0.0001989655)
(-0.1131745 -0.6620197 0.0002192639)
(-0.1313981 -0.6736088 0.0002119992)
(-0.1508931 -0.6868099 0.0002217091)
(-0.006973795 -0.6003729 0.001081218)
(-0.02173269 -0.609376 -8.403565e-07)
(-0.03738855 -0.6110746 0.0001371304)
(-0.05350358 -0.6149021 7.618665e-05)
(-0.07005338 -0.6199163 0.0001048792)
(-0.08713964 -0.6263784 0.0001028664)
(-0.1049073 -0.6341016 8.490605e-05)
(-0.123557 -0.6432269 9.408039e-05)
(-0.1432289 -0.6536641 7.842921e-05)
(-0.1641738 -0.6654713 8.224768e-05)
(-0.007501535 -0.5845786 0.00120986)
(-0.0233437 -0.5932664 2.927644e-05)
(-0.04026972 -0.5947347 0.0001826212)
(-0.05765299 -0.5981915 0.0001100128)
(-0.07546286 -0.6027196 0.0001429972)
(-0.0938492 -0.608538 0.0001449646)
(-0.112883 -0.6154796 0.000131031)
(-0.1328111 -0.6236409 0.0001407842)
(-0.1537259 -0.6329359 0.0001283747)
(-0.1758903 -0.6433819 0.0001305009)
(-0.007972563 -0.5672116 0.001403499)
(-0.02483884 -0.5755312 0.0001043478)
(-0.0428994 -0.5768213 0.0001908104)
(-0.0614142 -0.5799116 0.0001131151)
(-0.08035033 -0.583979 0.0001216699)
(-0.09987194 -0.5891658 0.0001153626)
(-0.1200092 -0.5953423 9.186111e-05)
(-0.1410328 -0.6025647 9.658983e-05)
(-0.1629949 -0.6107494 8.072114e-05)
(-0.1861643 -0.6198855 7.810596e-05)
(-0.008407953 -0.5489776 0.001596109)
(-0.02618137 -0.5569457 0.0001352473)
(-0.04523981 -0.5580386 0.0002043654)
(-0.06475889 -0.5607704 0.0001278642)
(-0.08467895 -0.564367 0.0001232745)
(-0.1051913 -0.5689347 0.0001183672)
(-0.1262798 -0.5743646 8.996924e-05)
(-0.1482323 -0.5806833 9.412511e-05)
(-0.1710658 -0.58781 7.76078e-05)
(-0.1950461 -0.595709 7.386902e-05)
(-0.008786292 -0.5297378 0.001860335)
(-0.02736871 -0.5373238 0.0001715651)
(-0.04730218 -0.5382283 0.0002313045)
(-0.06770056 -0.5406117 0.0001532444)
(-0.08847817 -0.5437544 0.0001332689)
(-0.1098448 -0.5477269 0.0001259924)
(-0.1317469 -0.5524403 8.98077e-05)
(-0.1544772 -0.5578998 8.815996e-05)
(-0.1780253 -0.5640272 6.713734e-05)
(-0.2026457 -0.5707718 5.921794e-05)
(-0.009118303 -0.5097314 0.00201413)
(-0.02839889 -0.5169251 0.0002032887)
(-0.04909305 -0.5176375 0.0002358528)
(-0.07025221 -0.5196828 0.0001674052)
(-0.09176462 -0.5223813 0.0001279286)
(-0.1138581 -0.5257838 0.0001236394)
(-0.1364436 -0.5298186 8.159822e-05)
(-0.1598171 -0.5344738 8.01755e-05)
(-0.1839418 -0.5396769 5.999842e-05)
(-0.2090563 -0.5453643 5.064314e-05)
(-0.009392048 -0.4889945 0.00206261)
(-0.02926042 -0.4958167 0.0002667027)
(-0.05060898 -0.4963558 0.0002618532)
(-0.07241736 -0.4980731 0.0002185352)
(-0.09455493 -0.5003515 0.0001714613)
(-0.1172654 -0.5032083 0.0001659035)
(-0.1404267 -0.5066041 0.0001163717)
(-0.1643312 -0.5105055 0.0001028278)
(-0.1889162 -0.5148555 7.590925e-05)
(-0.2144025 -0.5195786 5.639611e-05)
(-0.009630402 -0.4677087 0.002611436)
(-0.03001376 -0.4741171 0.0002378937)
(-0.05187869 -0.4744755 0.0002736394)
(-0.07422519 -0.4758695 0.0002184286)
(-0.09688161 -0.47773 0.0001435279)
(-0.1200997 -0.4800692 0.0001442813)
(-0.1437338 -0.4828607 8.740225e-05)
(-0.1680677 -0.4860723 7.990978e-05)
(-0.1930157 -0.4896542 5.90373e-05)
(-0.218777 -0.4935203 4.194077e-05)
(-0.009814683 -0.4459696 0.00204312)
(-0.0305464 -0.4519517 0.0003305973)
(-0.05287384 -0.4521455 0.0002724159)
(-0.07565653 -0.4532196 0.0003021016)
(-0.09874373 -0.45469 0.0002374525)
(-0.1223893 -0.456522 0.0002404296)
(-0.146425 -0.4587591 0.0001748114)
(-0.1711245 -0.4613225 0.0001362288)
(-0.1963639 -0.4642149 0.0001041508)
(-0.2223264 -0.467315 6.41185e-05)
(-2.647376e-07 3.138953e-08 1.537688e-07)
(-7.599063e-07 1.870435e-07 1.766704e-07)
(-1.217312e-06 2.807157e-07 2.346346e-07)
(-2.015453e-06 4.371957e-07 2.735713e-07)
(-3.189076e-06 6.843563e-07 3.733374e-07)
(-5.048735e-06 1.0592e-06 4.589038e-07)
(-7.921288e-06 1.680366e-06 6.146127e-07)
(-1.244577e-05 2.621801e-06 7.825095e-07)
(-4.964092e-08 3.387173e-07 1.402112e-07)
(-2.925074e-07 4.435315e-07 1.584137e-07)
(-5.8372e-07 6.129459e-07 1.732381e-07)
(-1.007937e-06 8.658585e-07 2.228969e-07)
(-1.632936e-06 1.328969e-06 2.617132e-07)
(-2.584905e-06 2.07209e-06 3.446305e-07)
(-4.075861e-06 3.236595e-06 4.221659e-07)
(-6.392661e-06 5.089864e-06 5.414145e-07)
(-1.003639e-05 7.968702e-06 6.831037e-07)
(-4.021681e-08 6.308798e-07 1.403998e-07)
(-1.704168e-07 6.513666e-07 1.431592e-07)
(-2.652845e-07 8.728313e-07 1.861608e-07)
(-4.596698e-07 1.309421e-06 2.24926e-07)
(-7.346715e-07 1.997258e-06 2.951084e-07)
(-1.156068e-06 3.119732e-06 3.706551e-07)
(-1.828663e-06 4.893556e-06 4.931517e-07)
(-2.865943e-06 7.687081e-06 6.274666e-07)
(-4.528229e-06 1.207556e-05 8.317338e-07)
(3.375655e-08 5.247686e-07 1.555107e-07)
(6.002591e-08 6.581457e-07 1.705828e-07)
(1.248148e-07 9.001432e-07 1.75892e-07)
(2.505225e-07 1.34686e-06 2.465845e-07)
(4.179269e-07 2.058213e-06 2.938549e-07)
(7.090376e-07 3.205793e-06 3.966259e-07)
(1.125398e-06 5.018943e-06 5.066179e-07)
(1.788416e-06 7.872571e-06 6.681966e-07)
(2.822204e-06 1.234637e-05 8.703416e-07)
(4.199546e-08 5.223231e-07 1.335022e-07)
(2.425013e-07 5.570541e-07 1.233706e-07)
(5.369607e-07 6.900966e-07 1.874473e-07)
(9.051339e-07 9.934304e-07 2.495588e-07)
(1.447424e-06 1.463542e-06 3.287979e-07)
(2.307598e-06 2.271215e-06 4.459271e-07)
(3.622889e-06 3.532126e-06 5.904422e-07)
(5.689031e-06 5.53547e-06 7.94149e-07)
(8.907709e-06 8.664926e-06 1.054795e-06)
(3.423438e-08 2.737685e-07 1.446912e-07)
(3.991941e-07 1.646771e-07 2.511297e-07)
(7.218345e-07 2.219311e-07 1.757938e-07)
(1.207705e-06 3.539999e-07 2.706357e-07)
(1.904201e-06 5.043088e-07 3.236023e-07)
(3.07138e-06 7.901387e-07 4.347865e-07)
(4.831333e-06 1.22193e-06 5.649001e-07)
(7.606572e-06 1.936617e-06 7.426483e-07)
(1.197925e-05 3.049228e-06 9.889667e-07)
(1.848551e-07 -7.456947e-08 1.784966e-07)
(-0.01524003 -0.6567903 0.0009633916)
(-0.0128044 -0.687195 0.006002337)
(0.00665189 -0.6781025 0.009919599)
(-0.00529063 -0.6972759 0.01023842)
(-0.004957233 -0.7024741 0.0110108)
(-0.007815693 -0.7160574 0.01128582)
(-0.009314277 -0.7302251 0.01165591)
(-0.01118713 -0.7479252 0.01204782)
(-0.03323946 -0.6854665 -0.004924153)
(-0.000929972 -0.690622 0.001156555)
(-0.01084196 -0.6740678 0.0005637962)
(-0.009867722 -0.6882106 0.001964761)
(-0.01347476 -0.6950381 0.002509597)
(-0.01905818 -0.7061806 0.002537201)
(-0.02254764 -0.7187134 0.002779577)
(-0.02748946 -0.7335089 0.002801524)
(-0.0321338 -0.7509048 0.002860176)
(-0.00440051 -0.6625482 -0.003008788)
(-0.01178411 -0.6733365 0.0006722032)
(-0.01777649 -0.6779092 -0.0001028719)
(-0.01746612 -0.6811543 0.00181971)
(-0.02537047 -0.6905546 0.0008934631)
(-0.02994308 -0.699559 0.00120605)
(-0.0372272 -0.7121875 0.001094089)
(-0.04387379 -0.726335 0.001226222)
(-0.05163143 -0.7432272 0.001246902)
(-0.002107686 -0.6671381 -0.001848557)
(-0.009504005 -0.6730014 -0.0002243398)
(-0.01901277 -0.6724138 -0.0003856626)
(-0.02570601 -0.6800378 0.0001303467)
(-0.03356569 -0.6860063 -4.599036e-05)
(-0.04173061 -0.6960344 -0.0001023359)
(-0.05045868 -0.707396 -7.773173e-05)
(-0.05988289 -0.7212134 -3.681414e-05)
(-0.0700772 -0.7371735 -3.235034e-05)