/*--------------------------------*- C++ -*----------------------------------*\
  =========                 |
  \\      /  F ield         | OpenFOAM: The Open Source CFD Toolbox
   \\    /   O peration     | Website:  https://openfoam.org
    \\  /    A nd           | Version:  7
     \\/     M anipulation  |
\*---------------------------------------------------------------------------*/
FoamFile
{
    version     2.0;
    format      ascii;
    class       volScalarField;
    location    "0.03";
    object      nut;
}
// * * * * * * * * * * * * * * * * * * * * * * * * * * * * * * * * * * * * * //

dimensions      [0 2 -1 0 0 0 0];

internalField   nonuniform List<scalar> 
105127
(
0.0006238237
0.0005871826
0.0005814574
0.0005806719
0.0005804787
0.0006366699
0.0005991635
0.0005949525
0.0005942907
0.0005941819
0.0006390684
0.0006049804
0.000601299
0.0006007212
0.0006006851
0.0006388195
0.0006049754
0.0006013252
0.0006007547
0.00060075
0.000638553
0.0006047162
0.0006010638
0.0006004952
0.0006005082
0.0006383479
0.0006045129
0.0006008609
0.0006003005
0.0006003256
0.0006381829
0.0006043543
0.0006007077
0.0006001567
0.0006001905
0.0006380436
0.0006042214
0.0006005801
0.0006000359
0.0006000784
0.0006379232
0.0006041059
0.0006004695
0.0005999308
0.0005999819
0.000637817
0.000604004
0.0006003712
0.0005998371
0.0005998928
0.0006377223
0.0006039126
0.0006002828
0.0005997519
0.0005998113
0.0006376371
0.0006038306
0.0006002026
0.0005996742
0.0005997366
0.0006375598
0.000603756
0.0006001294
0.000599603
0.0005996676
0.0006374892
0.0006036876
0.000600062
0.0005995374
0.0005996038
0.000637425
0.0006036246
0.0006000002
0.0005994768
0.0005995444
0.0006373666
0.0006035663
0.0005999431
0.0005994205
0.0005994891
0.0006373125
0.0006035125
0.0005998901
0.0005993682
0.0005994378
0.0006372623
0.0006034625
0.0005998409
0.0005993197
0.0005993904
0.0006372157
0.0006034161
0.0005997954
0.0005992752
0.0005993468
0.0006371724
0.0006033731
0.0005997535
0.0005992347
0.0005993074
0.0006371324
0.0006033342
0.000599716
0.0005991983
0.0005992713
0.0006370966
0.0006033016
0.0005996859
0.000599168
0.0005992358
0.0006370712
0.0006032895
0.0005996812
0.0005991615
0.0005992124
0.0001010339
0.0001010341
0.0001010343
0.000599259
0.0005992864
0.0001016235
0.0001010774
0.0001010793
0.0001010706
0.0001010631
0.0001010689
0.0001010265
0.0001010345
0.0001010192
0.0001010142
0.0001010119
0.0001010411
0.0001010265
0.0001010185
0.0001010148
0.0001010129
0.0001010117
0.0001010212
0.0001010183
0.0001010169
0.0001010151
0.0001010139
0.0001010129
0.0001010167
0.0001010154
0.0001010138
0.0001010126
0.0001010118
0.0001010111
0.0001010143
0.0001010129
0.0001010124
0.0001010118
0.0001010114
0.0001010109
0.0001010131
0.0001010117
0.0001010113
0.000101011
0.0001010106
0.0001010103
0.0001010122
0.0001010107
0.0001010106
0.0001010104
0.0001010102
0.00010101
0.0001010116
0.0001010101
0.00010101
0.0001010099
0.0001010098
0.0001010097
0.0001010112
0.0001010097
0.0001010096
0.0001010095
0.0001010095
0.0001010094
0.0001010109
0.0001010093
0.0001010093
0.0001010093
0.0001010092
0.0001010092
0.0001010106
0.0001010091
0.0001010091
0.000101009
0.000101009
0.000101009
0.0001010103
0.0001010089
0.0001010089
0.0001010088
0.0001010088
0.0001010088
0.0001010101
0.0001010087
0.0001010087
0.0001010087
0.0001010087
0.0001010087
0.00010101
0.0001010085
0.0001010086
0.0001010086
0.0001010086
0.0001010085
0.0001010098
0.0001010084
0.0001010084
0.0001010084
0.0001010084
0.0001010084
0.0001010097
0.0001010083
0.0001010083
0.0001010083
0.0001010084
0.0001010084
0.0001010096
0.0001010082
0.0001010083
0.0001010083
0.0001010083
0.0001010083
0.0001010095
0.0001010082
0.0001010082
0.0001010082
0.0001010082
0.0001010082
0.0001010094
0.0001010081
0.0001010081
0.0001010081
0.0001010081
0.0001010081
0.0001010093
0.000101008
0.0001010081
0.0001010081
0.0001010081
0.0001010081
0.0001010092
0.000101008
0.000101008
0.000101008
0.000101008
0.000101008
0.0001010091
0.0001010079
0.000101008
0.000101008
0.000101008
0.000101008
0.0001010086
0.0001010079
0.0001010079
0.0001010079
0.0001010079
0.0001010079
0.0001016863
0.0001010571
0.0001010589
0.0001010586
0.000101056
0.0001010528
0.0001010248
0.0001010324
0.0001010188
0.000101014
0.0001010118
0.0001010353
0.0001010256
0.0001010185
0.0001010147
0.0001010124
0.0001010112
0.0001010131
0.0001010176
0.0001010167
0.0001010153
0.0001010139
0.0001010128
0.0001010122
0.0001010151
0.0001010137
0.0001010126
0.0001010117
0.000101011
0.000101011
0.0001010127
0.0001010123
0.0001010118
0.0001010113
0.0001010108
0.0001010105
0.0001010115
0.0001010113
0.0001010109
0.0001010106
0.0001010103
0.0001010102
0.0001010106
0.0001010105
0.0001010103
0.0001010101
0.0001010099
0.00010101
0.00010101
0.00010101
0.0001010098
0.0001010097
0.0001010096
0.0001010098
0.0001010096
0.0001010096
0.0001010095
0.0001010094
0.0001010093
0.0001010096
0.0001010092
0.0001010093
0.0001010092
0.0001010091
0.0001010091
0.0001010095
0.000101009
0.000101009
0.000101009
0.0001010089
0.0001010089
0.0001010094
0.0001010088
0.0001010088
0.0001010088
0.0001010088
0.0001010087
0.0001010093
0.0001010086
0.0001010086
0.0001010086
0.0001010086
0.0001010086
0.0001010092
0.0001010085
0.0001010085
0.0001010085
0.0001010085
0.0001010085
0.0001010091
0.0001010084
0.0001010084
0.0001010084
0.0001010084
0.0001010084
0.000101009
0.0001010083
0.0001010083
0.0001010083
0.0001010083
0.0001010083
0.0001010089
0.0001010082
0.0001010082
0.0001010082
0.0001010082
0.0001010082
0.0001010089
0.0001010081
0.0001010081
0.0001010081
0.0001010081
0.0001010082
0.0001010088
0.0001010081
0.0001010081
0.0001010081
0.0001010081
0.0001010081
0.0001010088
0.000101008
0.000101008
0.000101008
0.000101008
0.000101008
0.0001010087
0.000101008
0.000101008
0.000101008
0.000101008
0.000101008
0.0001010087
0.0001010079
0.0001010079
0.0001010079
0.0001010079
0.0001010079
0.0001010086
0.0001010079
0.0001010079
0.0001010079
0.0001010079
0.0001010079
0.0001017138
0.0001010562
0.0001010564
0.0001010544
0.0001010516
0.0001010502
0.0001010245
0.0001010325
0.000101019
0.0001010141
0.0001010119
0.0001010342
0.0001010256
0.0001010183
0.0001010146
0.0001010123
0.0001010111
0.0001010134
0.0001010178
0.0001010166
0.0001010149
0.0001010137
0.0001010126
0.0001010121
0.0001010151
0.0001010137
0.0001010125
0.0001010117
0.000101011
0.0001010109
0.0001010127
0.0001010123
0.0001010118
0.0001010113
0.0001010108
0.0001010105
0.0001010115
0.0001010112
0.0001010109
0.0001010105
0.0001010102
0.0001010102
0.0001010106
0.0001010105
0.0001010103
0.0001010101
0.0001010099
0.0001010099
0.00010101
0.00010101
0.0001010098
0.0001010097
0.0001010096
0.0001010097
0.0001010096
0.0001010096
0.0001010095
0.0001010094
0.0001010093
0.0001010096
0.0001010092
0.0001010093
0.0001010092
0.0001010091
0.0001010091
0.0001010094
0.000101009
0.000101009
0.000101009
0.0001010089
0.0001010089
0.0001010093
0.0001010088
0.0001010088
0.0001010088
0.0001010088
0.0001010087
0.0001010092
0.0001010086
0.0001010086
0.0001010086
0.0001010086
0.0001010086
0.0001010091
0.0001010085
0.0001010085
0.0001010085
0.0001010085
0.0001010085
0.000101009
0.0001010084
0.0001010084
0.0001010084
0.0001010084
0.0001010084
0.000101009
0.0001010083
0.0001010083
0.0001010083
0.0001010083
0.0001010083
0.0001010089
0.0001010082
0.0001010082
0.0001010082
0.0001010082
0.0001010082
0.0001010088
0.0001010081
0.0001010081
0.0001010081
0.0001010081
0.0001010082
0.0001010088
0.0001010081
0.0001010081
0.0001010081
0.0001010081
0.0001010081
0.0001010087
0.000101008
0.000101008
0.000101008
0.000101008
0.000101008
0.0001010087
0.000101008
0.000101008
0.000101008
0.000101008
0.000101008
0.0001010086
0.0001010079
0.0001010079
0.0001010079
0.0001010079
0.0001010079
0.0001010086
0.0001010079
0.0001010079
0.0001010079
0.0001010079
0.0001010079
0.0001016531
0.0001010532
0.0001010559
0.0001010542
0.0001010513
0.0001010501
0.0001010244
0.0001010323
0.000101019
0.0001010141
0.0001010119
0.0001010345
0.0001010255
0.0001010182
0.0001010145
0.0001010124
0.0001010111
0.0001010135
0.0001010177
0.0001010165
0.0001010148
0.0001010135
0.0001010125
0.0001010121
0.000101015
0.0001010136
0.0001010125
0.0001010117
0.000101011
0.0001010109
0.0001010126
0.0001010123
0.0001010118
0.0001010113
0.0001010108
0.0001010105
0.0001010115
0.0001010112
0.0001010109
0.0001010105
0.0001010102
0.0001010101
0.0001010106
0.0001010105
0.0001010103
0.0001010101
0.0001010099
0.0001010099
0.00010101
0.00010101
0.0001010098
0.0001010097
0.0001010096
0.0001010097
0.0001010096
0.0001010096
0.0001010095
0.0001010094
0.0001010093
0.0001010096
0.0001010092
0.0001010092
0.0001010092
0.0001010091
0.0001010091
0.0001010094
0.000101009
0.000101009
0.000101009
0.0001010089
0.0001010089
0.0001010093
0.0001010088
0.0001010088
0.0001010088
0.0001010088
0.0001010087
0.0001010092
0.0001010086
0.0001010086
0.0001010086
0.0001010086
0.0001010086
0.0001010091
0.0001010085
0.0001010085
0.0001010085
0.0001010085
0.0001010085
0.000101009
0.0001010084
0.0001010084
0.0001010084
0.0001010084
0.0001010084
0.000101009
0.0001010083
0.0001010083
0.0001010083
0.0001010083
0.0001010083
0.0001010089
0.0001010082
0.0001010082
0.0001010082
0.0001010082
0.0001010082
0.0001010088
0.0001010081
0.0001010081
0.0001010081
0.0001010081
0.0001010082
0.0001010088
0.0001010081
0.0001010081
0.0001010081
0.0001010081
0.0001010081
0.0001010087
0.000101008
0.000101008
0.000101008
0.000101008
0.000101008
0.0001010087
0.0001010079
0.000101008
0.000101008
0.000101008
0.000101008
0.0001010086
0.0001010079
0.0001010079
0.0001010079
0.0001010079
0.0001010079
0.0001010086
0.0001010079
0.0001010079
0.0001010079
0.0001010079
0.0001010079
0.0001016553
0.000101056
0.0001010582
0.0001010561
0.0001010527
0.00010105
0.0001010245
0.0001010324
0.0001010191
0.0001010141
0.0001010119
0.0001010341
0.0001010255
0.0001010183
0.0001010146
0.0001010124
0.0001010111
0.0001010135
0.0001010177
0.0001010165
0.0001010149
0.0001010136
0.0001010126
0.0001010122
0.000101015
0.0001010137
0.0001010125
0.0001010117
0.000101011
0.0001010109
0.0001010126
0.0001010123
0.0001010118
0.0001010113
0.0001010108
0.0001010105
0.0001010115
0.0001010112
0.0001010109
0.0001010105
0.0001010102
0.0001010101
0.0001010106
0.0001010105
0.0001010103
0.0001010101
0.0001010099
0.0001010099
0.00010101
0.00010101
0.0001010098
0.0001010097
0.0001010096
0.0001010097
0.0001010096
0.0001010096
0.0001010095
0.0001010094
0.0001010093
0.0001010096
0.0001010092
0.0001010092
0.0001010092
0.0001010091
0.0001010091
0.0001010094
0.000101009
0.000101009
0.000101009
0.0001010089
0.0001010089
0.0001010093
0.0001010088
0.0001010088
0.0001010088
0.0001010088
0.0001010087
0.0001010092
0.0001010086
0.0001010086
0.0001010086
0.0001010086
0.0001010086
0.0001010091
0.0001010085
0.0001010085
0.0001010085
0.0001010085
0.0001010085
0.000101009
0.0001010084
0.0001010084
0.0001010084
0.0001010084
0.0001010084
0.000101009
0.0001010083
0.0001010083
0.0001010083
0.0001010083
0.0001010083
0.0001010089
0.0001010082
0.0001010082
0.0001010082
0.0001010082
0.0001010082
0.0001010088
0.0001010081
0.0001010081
0.0001010081
0.0001010081
0.0001010082
0.0001010088
0.0001010081
0.0001010081
0.0001010081
0.0001010081
0.0001010081
0.0001010087
0.000101008
0.000101008
0.000101008
0.000101008
0.000101008
0.0001010087
0.0001010079
0.000101008
0.000101008
0.000101008
0.000101008
0.0001010086
0.0001010079
0.0001010079
0.0001010079
0.0001010079
0.0001010079
0.0001010086
0.0001010079
0.0001010079
0.0001010079
0.0001010079
0.0001010079
0.0001016972
0.0001010579
0.0001010566
0.0001010547
0.0001010519
0.0001010506
0.0001010248
0.0001010332
0.0001010191
0.0001010142
0.0001010119
0.0001010333
0.0001010256
0.0001010184
0.0001010147
0.0001010124
0.0001010111
0.0001010135
0.0001010177
0.0001010166
0.000101015
0.0001010138
0.0001010127
0.0001010121
0.0001010151
0.0001010137
0.0001010125
0.0001010117
0.000101011
0.0001010109
0.0001010127
0.0001010123
0.0001010118
0.0001010113
0.0001010108
0.0001010105
0.0001010115
0.0001010112
0.0001010109
0.0001010105
0.0001010102
0.0001010101
0.0001010106
0.0001010105
0.0001010103
0.0001010101
0.0001010099
0.0001010099
0.00010101
0.00010101
0.0001010098
0.0001010097
0.0001010096
0.0001010097
0.0001010096
0.0001010096
0.0001010095
0.0001010094
0.0001010093
0.0001010096
0.0001010092
0.0001010092
0.0001010092
0.0001010091
0.0001010091
0.0001010094
0.000101009
0.000101009
0.000101009
0.0001010089
0.0001010089
0.0001010093
0.0001010088
0.0001010088
0.0001010088
0.0001010088
0.0001010087
0.0001010092
0.0001010086
0.0001010086
0.0001010086
0.0001010086
0.0001010086
0.0001010091
0.0001010085
0.0001010085
0.0001010085
0.0001010085
0.0001010085
0.000101009
0.0001010084
0.0001010084
0.0001010084
0.0001010084
0.0001010084
0.000101009
0.0001010083
0.0001010083
0.0001010083
0.0001010083
0.0001010083
0.0001010089
0.0001010082
0.0001010082
0.0001010082
0.0001010082
0.0001010082
0.0001010088
0.0001010081
0.0001010081
0.0001010081
0.0001010081
0.0001010082
0.0001010088
0.0001010081
0.0001010081
0.0001010081
0.0001010081
0.0001010081
0.0001010087
0.000101008
0.000101008
0.000101008
0.000101008
0.000101008
0.0001010087
0.000101008
0.000101008
0.000101008
0.000101008
0.000101008
0.0001010086
0.0001010079
0.0001010079
0.0001010079
0.0001010079
0.0001010079
0.0001010086
0.0001010079
0.0001010079
0.0001010079
0.0001010079
0.0001010079
0.0001016917
0.0001010658
0.0001010584
0.0001010557
0.0001010525
0.0001010523
0.0001010264
0.0001010321
0.0001010191
0.0001010141
0.0001010119
0.0001010327
0.0001010255
0.0001010184
0.0001010148
0.0001010125
0.0001010113
0.0001010134
0.0001010178
0.0001010168
0.0001010152
0.0001010138
0.0001010128
0.0001010122
0.0001010151
0.0001010137
0.0001010126
0.0001010117
0.000101011
0.0001010109
0.0001010127
0.0001010124
0.0001010118
0.0001010113
0.0001010108
0.0001010105
0.0001010115
0.0001010113
0.0001010109
0.0001010106
0.0001010103
0.0001010101
0.0001010106
0.0001010105
0.0001010103
0.0001010101
0.0001010099
0.0001010099
0.00010101
0.00010101
0.0001010098
0.0001010097
0.0001010096
0.0001010097
0.0001010096
0.0001010096
0.0001010095
0.0001010094
0.0001010093
0.0001010096
0.0001010092
0.0001010093
0.0001010092
0.0001010091
0.0001010091
0.0001010094
0.000101009
0.000101009
0.000101009
0.0001010089
0.0001010089
0.0001010093
0.0001010088
0.0001010088
0.0001010088
0.0001010088
0.0001010087
0.0001010092
0.0001010086
0.0001010086
0.0001010086
0.0001010086
0.0001010086
0.0001010091
0.0001010085
0.0001010085
0.0001010085
0.0001010085
0.0001010085
0.000101009
0.0001010084
0.0001010084
0.0001010084
0.0001010084
0.0001010084
0.000101009
0.0001010083
0.0001010083
0.0001010083
0.0001010083
0.0001010083
0.0001010089
0.0001010082
0.0001010082
0.0001010082
0.0001010082
0.0001010082
0.0001010088
0.0001010081
0.0001010081
0.0001010081
0.0001010081
0.0001010082
0.0001010088
0.0001010081
0.0001010081
0.0001010081
0.0001010081
0.0001010081
0.0001010087
0.000101008
0.000101008
0.000101008
0.000101008
0.000101008
0.0001010087
0.000101008
0.000101008
0.000101008
0.000101008
0.000101008
0.0001010086
0.0001010079
0.0001010079
0.0001010079
0.0001010079
0.0001010079
0.0001010086
0.0001010079
0.0001010079
0.0001010079
0.0001010079
0.0001010079
0.00010163
0.0001010868
0.0001010855
0.000101078
0.0001010709
0.0001010567
0.0001010324
0.0001010322
0.0001010203
0.0001010151
0.0001010127
0.000101028
0.0001010258
0.0001010188
0.0001010151
0.0001010131
0.0001010119
0.0001010145
0.0001010183
0.0001010168
0.000101015
0.0001010138
0.0001010128
0.0001010129
0.0001010153
0.0001010139
0.0001010127
0.0001010118
0.0001010112
0.0001010114
0.0001010129
0.0001010124
0.0001010118
0.0001010114
0.0001010109
0.0001010109
0.0001010117
0.0001010113
0.000101011
0.0001010106
0.0001010103
0.0001010105
0.0001010107
0.0001010106
0.0001010104
0.0001010102
0.00010101
0.0001010102
0.0001010101
0.00010101
0.0001010099
0.0001010098
0.0001010096
0.0001010099
0.0001010097
0.0001010096
0.0001010095
0.0001010095
0.0001010094
0.0001010097
0.0001010093
0.0001010093
0.0001010093
0.0001010092
0.0001010092
0.0001010096
0.0001010091
0.0001010091
0.000101009
0.000101009
0.000101009
0.0001010095
0.0001010089
0.0001010089
0.0001010088
0.0001010088
0.0001010088
0.0001010093
0.0001010087
0.0001010087
0.0001010087
0.0001010087
0.0001010087
0.0001010092
0.0001010085
0.0001010086
0.0001010086
0.0001010086
0.0001010085
0.0001010091
0.0001010084
0.0001010084
0.0001010084
0.0001010084
0.0001010084
0.0001010091
0.0001010083
0.0001010083
0.0001010083
0.0001010084
0.0001010084
0.000101009
0.0001010082
0.0001010083
0.0001010083
0.0001010083
0.0001010083
0.0001010089
0.0001010082
0.0001010082
0.0001010082
0.0001010082
0.0001010082
0.0001010088
0.0001010081
0.0001010081
0.0001010081
0.0001010081
0.0001010081
0.0001010088
0.000101008
0.0001010081
0.0001010081
0.0001010081
0.0001010081
0.0001010087
0.000101008
0.000101008
0.000101008
0.000101008
0.000101008
0.0001010087
0.0001010079
0.000101008
0.000101008
0.000101008
0.000101008
0.0001010086
0.0001010079
0.0001010079
0.0001010079
0.0001010079
0.0001010079
0.000107963
0.0001041073
0.0001035841
0.0001032409
0.0001029905
0.0001010908
0.0001010967
0.000101084
0.000101073
0.0001010682
0.0001010657
0.0001010637
0.0001010805
0.0001010678
0.0001010605
0.0001010566
0.0001010538
0.0001010397
0.0001010551
0.0001010559
0.0001010518
0.0001010493
0.0001010474
0.0001010342
0.0001010505
0.0001010516
0.0001010493
0.0001010477
0.0001010464
0.0001010289
0.000101045
0.0001010478
0.0001010466
0.0001010456
0.0001010447
0.0001010259
0.0001010426
0.0001010453
0.0001010446
0.0001010441
0.0001010435
0.0001010236
0.0001010407
0.0001010434
0.0001010431
0.0001010427
0.0001010423
0.000101022
0.0001010395
0.000101042
0.0001010418
0.0001010416
0.0001010414
0.0001010208
0.0001010385
0.0001010409
0.0001010408
0.0001010407
0.0001010405
0.0001010197
0.0001010378
0.0001010399
0.0001010399
0.0001010399
0.0001010398
0.0001010189
0.0001010372
0.0001010391
0.0001010392
0.0001010392
0.0001010392
0.0001010182
0.0001010367
0.0001010385
0.0001010385
0.0001010386
0.0001010386
0.0001010176
0.0001010363
0.0001010379
0.000101038
0.0001010381
0.0001010381
0.000101017
0.000101036
0.0001010374
0.0001010375
0.0001010376
0.0001010376
0.0001010165
0.0001010357
0.000101037
0.0001010371
0.0001010372
0.0001010372
0.0001010161
0.0001010355
0.0001010366
0.0001010367
0.0001010368
0.0001010368
0.0001010157
0.0001010352
0.0001010363
0.0001010364
0.0001010365
0.0001010365
0.0001010153
0.000101035
0.000101036
0.0001010361
0.0001010362
0.0001010362
0.000101015
0.0001010349
0.0001010357
0.0001010358
0.0001010359
0.0001010359
0.0001010147
0.0001010347
0.0001010354
0.0001010356
0.0001010357
0.0001010357
0.0001010144
0.0001010345
0.0001010352
0.0001010354
0.0001010354
0.0001010355
0.0001010141
0.0001010344
0.000101035
0.0001010351
0.0001010352
0.0001010353
0.0001010136
0.0001010339
0.0001010341
0.0001010343
0.0001010342
0.0001010342
0.0002840448
0.0002938978
0.0001099315
0.0001011294
0.0001012168
0.0002953239
0.0002958925
0.0001010761
0.0001010509
0.0001010488
0.000101092
0.0002955896
0.0002955468
0.0001010627
0.0001010555
0.0001010293
0.0001010433
0.0002952959
0.0002952716
0.0001010386
0.0001010351
0.0001010235
0.0001010332
0.0002950571
0.0002950429
0.0001010332
0.0001010295
0.0001010204
0.000101027
0.0002948642
0.0002948586
0.0001010277
0.0001010249
0.0001010188
0.0001010238
0.0002947032
0.0002947022
0.0001010247
0.0001010223
0.0001010176
0.0001010216
0.0002945657
0.0002945676
0.0001010225
0.0001010204
0.0001010168
0.0001010199
0.0002944458
0.0002944495
0.0001010209
0.000101019
0.0001010161
0.0001010187
0.0002943398
0.0002943447
0.0001010197
0.0001010179
0.0001010156
0.0001010177
0.0002942449
0.0002942506
0.0001010187
0.000101017
0.0001010151
0.0001010169
0.0002941593
0.0002941655
0.0001010179
0.0001010163
0.0001010147
0.0001010162
0.0002940814
0.0002940879
0.0001010173
0.0001010156
0.0001010144
0.0001010156
0.0002940101
0.0002940169
0.0001010167
0.0001010151
0.0001010141
0.000101015
0.0002939445
0.0002939513
0.0001010162
0.0001010146
0.0001010138
0.0001010145
0.0002938839
0.0002938906
0.0001010157
0.0001010141
0.0001010136
0.0001010141
0.0002938277
0.0002938342
0.0001010153
0.0001010137
0.0001010133
0.0001010137
0.0002937754
0.0002937818
0.0001010149
0.0001010134
0.0001010131
0.0001010134
0.0002937268
0.000293733
0.0001010146
0.0001010131
0.0001010129
0.0001010131
0.0002936813
0.0002936875
0.0001010143
0.0001010128
0.0001010127
0.0001010128
0.0002936389
0.000293645
0.000101014
0.0001010125
0.0001010126
0.0001010125
0.0002935994
0.0002936056
0.0001010138
0.0001010122
0.0001010124
0.0001010123
0.0002935629
0.0002935709
0.0001010135
0.000101012
0.0001010123
0.0001010121
0.000293533
0.000101239
0.0001010136
0.0001010118
0.0001010124
0.0001010116
0.0001117478
0.0001010686
0.0001011982
0.0001113996
0.0001010657
0.0001011905
0.0001103964
0.0001010626
0.0001012018
0.0001113203
0.0001010639
0.0001012005
0.0001099079
0.0001010637
0.0001012034
0.0001112038
0.0001010647
0.000101201
0.0001109214
0.0001010643
0.000101199
0.0001113501
0.0001010661
0.0001012013
0.00011117
0.0001010651
0.0001011988
0.000110445
0.0001010654
0.0001012002
0.0001113053
0.0001010644
0.0001012022
0.0001099626
0.0001010653
0.0001012022
0.0001114168
0.000101063
0.0001012005
0.0001096083
0.0001010673
0.0001011989
0.0001117756
0.0001010679
0.0001011751
0.0001084613
0.0001010857
0.0001011678
0.0001071553
0.0001011574
0.0001011715
0.0003067379
0.0001041131
0.0001011473
0.0001010738
0.0003084804
0.0002969042
0.0001030387
0.0001010537
0.0001010488
0.0002957497
0.0002958193
0.000102786
0.0001010463
0.0001010383
0.0002955035
0.0002956287
0.0001010862
0.0001010468
0.0001010802
0.0003080384
0.0002964679
0.0001010581
0.0001010291
0.0001010425
0.000295865
0.0002955789
0.000101035
0.0001010236
0.000101033
0.0002953165
0.0002952777
0.0001010289
0.0001010204
0.000101027
0.0002950587
0.0002950453
0.0001010243
0.0001010188
0.0001010238
0.0002948649
0.0002948568
0.0001010218
0.0001010176
0.0001010216
0.0002947004
0.0002947014
0.0001010199
0.0001010168
0.0001010199
0.0002945639
0.0002945668
0.0001010186
0.0001010161
0.0001010187
0.0002944443
0.0002944487
0.0001010175
0.0001010156
0.0001010177
0.0002943385
0.0002943438
0.0001010166
0.0001010151
0.0001010169
0.0002942438
0.0002942497
0.0001010159
0.0001010147
0.0001010162
0.0002941583
0.0002941646
0.0001010152
0.0001010144
0.0001010156
0.0002940805
0.000294087
0.0001010147
0.0001010141
0.000101015
0.0002940094
0.0002940153
0.0001010142
0.0001010138
0.0001010145
0.0002939432
0.0002939504
0.0001010138
0.0001010135
0.0001010141
0.0002938833
0.0002938896
0.0001010134
0.0001010133
0.0001010137
0.0002938272
0.0002938332
0.000101013
0.0001010131
0.0001010134
0.000293775
0.0002937808
0.0001010127
0.0001010129
0.0001010131
0.0002937264
0.000293732
0.0001010124
0.0001010127
0.0001010128
0.000293681
0.0002936864
0.0001010122
0.0001010125
0.0001010125
0.0002936386
0.0002936438
0.0001010118
0.0001010124
0.0001010116
0.00029353
0.0001075654
0.0001021289
0.0001457103
0.0001012418
0.0001455517
0.0001013043
0.0001455206
0.0001011519
0.0001450006
0.0001011946
0.0001449929
0.0001011167
0.0001446319
0.0001011401
0.0001446386
0.0001010993
0.0001443599
0.0001011153
0.0001443688
0.0001010871
0.0001441435
0.0001010984
0.0001441527
0.0001010783
0.0001439633
0.0001010868
0.0001439713
0.0001010713
0.0001438086
0.0001010781
0.0001438155
0.0001010656
0.0001436738
0.0001010711
0.0001436796
0.0001010608
0.0001435544
0.0001010653
0.000143559
0.0001010566
0.0001434474
0.0001010605
0.0001434511
0.000101053
0.0001433507
0.0001010563
0.0001433537
0.0001010498
0.0001432625
0.0001010527
0.0001432651
0.000101047
0.0001431817
0.0001010495
0.0001431839
0.0001010445
0.0001431074
0.0001010467
0.0001431092
0.0001010422
0.0001430388
0.0001010442
0.0001430402
0.0001010402
0.0001429751
0.000101042
0.0001429762
0.0001010383
0.0001429159
0.0001010399
0.0001429167
0.0001010366
0.0001428608
0.0001010381
0.0001428612
0.0001010351
0.0001428092
0.0001010365
0.0001428094
0.0001010337
0.0001427609
0.0001010349
0.000142761
0.0001010324
0.0001427158
0.0001010335
0.0001427158
0.0001010313
0.0001426735
0.0001010323
0.0001426734
0.0001010302
0.000142634
0.0001010311
0.0001426339
0.000101982
0.000102008
0.0001019822
0.0001019812
0.0001019954
0.0001019708
0.0001019919
0.0001019893
0.000101997
0.0001019892
0.0001019858
0.0001019934
0.0001019833
0.0001020145
0.0001020046
0.0001020169
0.0001019265
0.000102108
0.0001033926
0.0001010699
0.000101062
0.0002963449
0.0002960905
0.0001025616
0.000101042
0.0001010336
0.0002953267
0.0002955039
0.000101012
0.0001010124
0.0001010123
0.0002935987
0.0002936031
0.0001010117
0.0001010122
0.0001010121
0.0002935609
0.0002935694
0.0001017322
0.0001457439
0.0001014577
0.0001458999
0.0001020949
0.0001020723
0.0001012253
0.0001452502
0.0001011998
0.0001452604
0.0001011486
0.0001448256
0.0001011419
0.0001448264
0.0001011163
0.0001445196
0.0001011149
0.0001445122
0.0001010989
0.0001442745
0.0001010983
0.0001442656
0.000101087
0.0001440751
0.0001010867
0.0001440662
0.0001010782
0.0001439051
0.000101078
0.0001438967
0.0001010711
0.0001437583
0.000101071
0.0001437508
0.0001010654
0.0001436291
0.0001010653
0.0001436226
0.0001010605
0.0001435141
0.0001010605
0.0001435086
0.0001010563
0.0001434108
0.0001010564
0.000143406
0.0001010527
0.0001433172
0.0001010528
0.000143313
0.0001010496
0.0001432318
0.0001010497
0.000143228
0.0001010468
0.0001431535
0.0001010469
0.0001431502
0.0001010443
0.0001430812
0.0001010443
0.0001430783
0.000101042
0.0001430143
0.000101042
0.0001430118
0.00010104
0.0001429522
0.00010104
0.00014295
0.0001010382
0.0001428944
0.0001010381
0.0001428925
0.0001010365
0.0001428405
0.0001010365
0.0001428388
0.000101035
0.0001427902
0.0001010349
0.0001427886
0.0001010336
0.0001427431
0.0001010336
0.0001427416
0.0001010323
0.0001426991
0.0001010323
0.0001426977
0.0001010312
0.0001426578
0.0001010311
0.0001426566
0.0001010301
0.0001015717
0.0001426183
0.0001010298
0.0001019966
0.0001019994
0.000102001
0.0001020074
0.0001019861
0.0001019961
0.0001019975
0.0001020039
0.0001019928
0.0001019834
0.0001020131
0.0001019908
0.0001020071
0.0001019826
0.0001020456
0.0001020382
0.0001019784
0.0001493912
0.0001012779
0.0001450341
0.0001012561
0.0001450843
0.0001012139
0.0001450095
0.0001012831
0.0001448961
0.0001011515
0.0001449949
0.0001011983
0.0001449845
0.0001011465
0.000144824
0.0001011415
0.0001448255
0.0001011166
0.0001446315
0.0001011404
0.0001446373
0.0001011162
0.0001445192
0.0001011148
0.0001445111
0.0001010992
0.0001443609
0.0001011152
0.0001443688
0.0001010989
0.0001442746
0.0001010983
0.0001442655
0.0001010871
0.0001441444
0.0001010983
0.0001441664
0.0001010782
0.0001439769
0.0001010868
0.0001439712
0.0001010782
0.000143905
0.000101078
0.0001438966
0.0001010713
0.0001438089
0.000101078
0.0001438153
0.0001010712
0.000143758
0.000101071
0.0001437505
0.0001010655
0.0001436739
0.000101071
0.0001436793
0.0001010654
0.0001436287
0.0001010654
0.0001436223
0.0001010607
0.0001435544
0.0001010653
0.0001435587
0.0001010605
0.0001435138
0.0001010606
0.0001435082
0.0001010566
0.0001434474
0.0001010604
0.0001434508
0.0001010563
0.0001434104
0.0001010564
0.0001434057
0.000101053
0.0001433504
0.0001010562
0.0001433533
0.0001010527
0.0001433168
0.0001010529
0.0001433125
0.0001010498
0.0001432622
0.0001010526
0.0001432646
0.0001010496
0.0001432314
0.0001010497
0.0001432276
0.000101047
0.0001431814
0.0001010495
0.0001431835
0.0001010444
0.0001431206
0.0001010467
0.0001431088
0.0001010443
0.0001430807
0.0001010443
0.0001430779
0.0001010422
0.0001430384
0.0001010442
0.0001430398
0.000101042
0.0001430138
0.0001010421
0.0001430114
0.0001010401
0.0001429747
0.0001010419
0.0001429757
0.00010104
0.0001429518
0.00010104
0.0001429496
0.0001010383
0.0001429156
0.0001010399
0.0001429163
0.0001010382
0.000142894
0.0001010382
0.0001428921
0.0001010366
0.0001428604
0.0001010381
0.0001428608
0.0001010365
0.0001428401
0.0001010365
0.0001428384
0.0001010351
0.0001428087
0.0001010364
0.000142809
0.0001010337
0.0001427606
0.0001010349
0.0001427607
0.0001010336
0.0001427427
0.0001010336
0.0001427412
0.0001010301
0.0001459596
0.0001426166
0.00010103
0.0001010134
0.0001012318
0.0001010134
0.0001010116
0.0001010116
0.0001074341
0.0001010292
0.0001015597
0.0001426007
0.0001010298
0.0001010295
0.0001459434
0.0001425968
0.00010103
0.00010652
0.0001437397
0.0001091804
0.0001093735
0.0001094718
0.0001096228
0.0001096358
0.0001096689
0.0001094239
0.0001096803
0.0001094164
0.0001097001
0.0001097137
0.0001094955
0.0001094703
0.0001093781
0.0001091232
0.0001090009
0.0001083228
0.0001088012
0.0001092719
0.0001087697
0.0001092366
0.000109495
0.0001095076
0.0001091065
0.0001093849
0.0001094575
0.0001097664
0.0001096216
0.0001097971
0.0001094081
0.0001098563
0.0001097665
0.0001096001
0.0001096502
0.0001091064
0.0001093328
0.0001070119
0.0001435158
0.0001016704
0.000146697
0.0001016332
0.0001519438
0.0001013592
0.0001463607
0.0001013837
0.0001514248
0.0001014928
0.0001462975
0.0001014913
0.0001459277
0.0001013492
0.0001456858
0.0001014168
0.0001457038
0.0001012335
0.0001447484
0.0001012116
0.0001448538
0.0001011835
0.000144808
0.000101244
0.0001446623
0.0001012484
0.0001458215
0.0001013611
0.0001455431
0.0001012136
0.0001452497
0.0001012054
0.0001453172
0.0001015606
0.0001513214
0.0001513043
0.0001015918
0.0001014649
0.00015102
0.0001015206
0.0001510183
0.0001014295
0.0001509075
0.0001508935
0.0001014477
0.0001010871
0.0001440887
0.0001010868
0.0001440798
0.0001012321
0.0001500569
0.0001012551
0.0001500541
0.0001012257
0.0001500117
0.0001499985
0.000101232
0.0001012068
0.0001499075
0.0001012263
0.0001499045
0.0001012021
0.0001498686
0.0001498559
0.0001012076
0.0001011705
0.0001496598
0.0001011853
0.0001496563
0.0001011678
0.0001496295
0.0001496178
0.0001011722
0.0001011571
0.0001495548
0.0001011702
0.0001495514
0.000101155
0.0001495277
0.0001495165
0.000101159
0.0001011461
0.0001494596
0.0001011577
0.0001494562
0.0001011442
0.0001494351
0.0001494244
0.000101148
0.0001011351
0.0001493502
0.0001493401
0.0001011387
0.0001010468
0.0001431666
0.0001010469
0.0001431498
0.000101116
0.0001491509
0.0001011235
0.0001491475
0.000101115