/*--------------------------------*- C++ -*----------------------------------*\
  =========                 |
  \\      /  F ield         | OpenFOAM: The Open Source CFD Toolbox
   \\    /   O peration     | Website:  https://openfoam.org
    \\  /    A nd           | Version:  7
     \\/     M anipulation  |
\*---------------------------------------------------------------------------*/
FoamFile
{
    version     2.0;
    format      ascii;
    class       volScalarField;
    location    "0.03";
    object      p;
}
// * * * * * * * * * * * * * * * * * * * * * * * * * * * * * * * * * * * * * //

dimensions      [0 2 -2 0 0 0 0];

internalField   nonuniform List<scalar> 
78470
(
3.032516
3.072213
3.058532
3.02079
3.008695
2.993216
2.97936
2.96343
2.944559
2.947409
3.253724
2.973373
3.075897
3.016385
3.024049
3.002102
2.989343
2.968639
2.925054
3.312507
2.948485
3.084623
3.007932
3.018839
3.003329
2.996928
2.981397
2.841908
3.400956
2.908011
3.093248
3.005202
3.035264
3.008632
3.007082
2.995736
2.770919
3.490471
2.909942
3.104546
2.994581
3.029003
3.009729
3.012946
3.009422
2.69872
3.550036
2.922908
3.126816
3.009461
3.046669
3.021372
3.026783
3.026293
2.622803
3.612383
2.945583
3.137673
3.007227
3.041377
3.016396
3.023875
3.02512
2.53328
3.654796
2.967843
3.149983
3.011984
3.044363
3.016429
3.018896
3.018586
2.500468
3.668165
2.977931
3.159599
3.008933
3.036884
3.00387
2.995678
2.98139
2.546727
3.660889
2.977112
3.173536
3.015965
3.038419
2.997762
2.958312
2.940521
2.541529
3.668714
2.988448
3.1959
3.030814
3.050488
2.987721
2.914396
2.832301
2.5684
3.657583
3.004407
3.231189
3.058914
3.070052
2.998186
2.803645
2.727571
2.563004
3.632274
3.005782
3.259474
3.112822
3.141796
3.060283
2.690637
2.421122
2.611161
3.636056
3.019238
3.30315
3.153671
3.231162
3.134859
2.881338
2.110174
2.608586
3.592918
3.005738
3.394179
3.349753
3.44705
3.365787
2.436659
2.648096
3.545507
2.962884
3.407741
3.356736
3.499628
3.571698
3.594971
2.710555
3.434898
2.917183
3.36141
3.32942
3.484624
3.592365
3.665465
2.611397
3.335444
2.861559
3.262275
3.215751
3.397861
3.504383
3.580647
2.565822
3.216461
2.775596
3.159712
3.07453
3.27196
3.357011
3.445227
2.464493
3.06761
2.636572
2.993831
2.897694
3.06305
3.160755
3.251014
2.348703
2.9244
2.474851
2.810249
2.652185
2.804987
2.882373
2.948584
2.211974
2.748918
2.281207
2.542702
2.338869
2.32937
2.381682
2.282488
1.546954
0.1123348
-1.730278
2.958012
2.999302
3.076984
3.032562
3.039163
3.015841
3.003012
2.984167
2.962055
3.530289
3.009707
3.052689
3.042771
3.05946
3.033476
3.026283
3.005193
2.990258
2.968653
3.487436
3.024931
3.104627
3.025727
3.078867
3.029375
3.029268
3.006697
2.997308
2.979761
3.4682
2.897029
3.140558
2.966118
3.105649
3.018327
3.047019
3.011844
3.00994
2.996218
3.471191
2.900384
3.161422
2.952392
3.120146
3.013291
3.049981
3.015632
3.018314
3.010212
3.475543
2.888538
3.157253
2.933348
3.131558
3.008756
3.058768
3.02022
3.026946
3.025127
3.472976
2.893395
3.151825
2.938148
3.135482
3.002568
3.051445
3.013615
3.022232
3.023792
3.454646
2.941382
3.150225
2.958518
3.144791
3.004939
3.048496
3.011034
3.017237
3.018427
3.430851
2.971304
3.147596
2.970613
3.156206
3.002765
3.041998
2.995593
2.990852
2.979898
3.4209
2.939754
3.161147
2.971105
3.17101
3.007689
3.036124
2.989911
2.954735
2.941685
3.432591
2.919653
3.189448
2.969374
3.191071
3.019671
3.050554
2.971518
2.90881
2.832641
3.442583
2.936762
3.19936
2.969037
3.221143
3.047851
3.065871
3.003137
2.794354
2.735672
3.456517
2.915906
3.237948
2.977426
3.254026
3.099421
3.130101
3.012281
2.695453
2.367274
3.461561
2.904907
3.184666
2.981322
3.293155
3.141858
3.208235
3.1461
3.018559
2.105797
3.419752
2.959527
3.220535
3.016703
3.35203
3.291928
3.477796
3.366586
2.243029
3.351192
2.808607
3.253476
2.981576
3.356797
3.323231
3.522468
3.581898
3.625766
3.294698
2.856824
3.231733
2.993844
3.337746
3.306504
3.506875
3.579667
3.636222
3.208946
2.810388
3.160413
2.938516
3.255506
3.221741
3.418451
3.494837
3.55784
3.082664
2.736429
3.04486
2.849399
3.149485
3.08366
3.293472
3.349071
3.385477
2.945404
2.623694
2.906657
2.714212
2.978863
2.909106
3.075502
3.164302
3.205479
2.786756
2.49076
2.753082
2.543358
2.79354
2.655602
2.824026
2.869126
2.868746
2.645485
2.336221
2.590801
2.348276
2.524362
2.345539
2.313255
2.316309
2.191399
2.499574
1.43073
0.05570485
-1.182049
2.941004
3.024864
3.04645
3.0632
3.025288
3.018661
3.000711
2.985337
2.963891
3.468472
3.029312
3.130866
3.007252
3.093085
3.021977
3.028179
3.00085
2.989216
2.967887
3.502409
2.918123
3.321143
2.912031
3.150009
2.99056
3.023049
2.996246
2.993039
2.978163
3.37937
2.838038
3.400068
2.871292
3.197835
2.980966
3.041004
3.003058
3.007734
2.995269
3.437023
2.717329
3.498131
2.805133
3.220593
2.965711
3.033625
3.002082
3.012365
3.008627
3.403656
2.66233
3.583485
2.771427
3.239397
2.984194
3.064095
3.017011
3.029776
3.026688
3.406798
2.577938
3.651985
2.742561
3.238417
2.992811
3.070051
3.013033
3.027628
3.026355
3.408812
2.520879
3.724274
2.758951
3.249168
3.016353
3.084673
3.018849
3.023734
3.022587
3.429453
2.442499
3.795477
2.788853
3.252612
3.007208
3.080056
3.002832
3.000406
2.985903
3.410893
2.457725
3.795567
2.799318
3.272491
3.012423
3.081611
2.9994
2.961993
2.948783
3.409174
2.545112
3.767796
2.782803
3.293936
3.01993
3.090931
2.975749
2.918916
2.841641
3.402997
2.563295
3.737907
2.792217
3.331467
3.030742
3.092707
3.007012
2.796479
2.745502
3.396171
2.586978
3.695408
2.777468
3.368115
3.080652
3.158841
3.010574
2.714086
2.384121
3.426846
2.599088
3.72861
2.792807
3.422169
3.122768
3.230659
3.165233
3.029001
2.106495
3.410165
2.632831
3.692006
2.784856
3.491634
3.314641
3.504733
3.372084
2.251924
3.378322
2.581124
3.606288
2.776988
3.49074
3.331574
3.55141
3.636736
3.647664
3.362101
2.622868
3.529786
2.786872
3.428664
3.272571
3.536765
3.585386
3.639166
3.370479
2.451749
3.424654
2.741899
3.323386
3.210465
3.423056
3.507697
3.198151
2.41433
3.30825
2.675416
3.217938
3.052802
3.309409
3.361608
3.081655
2.304667
3.158192
2.541394
3.055432
2.896006
3.085493
3.204515
3.470625
2.862673
2.200767
3.01867
2.37808
2.879142
2.623411
2.848061
2.888176
2.91172
2.798169
2.054182
2.839366
2.175442
2.601477
2.306649
2.306996
2.305074
2.140994
1.400034
0.07633555
-1.161364
2.962139
2.986091
3.023755
3.066485
3.023734
3.02081
3.000792
2.984946
2.962207
3.414027
3.033214
3.144972
3.005635
3.105671
3.028815
3.039136
3.0013
2.991234
2.968354
3.485112
2.856517
3.273639
2.912387
3.157368
2.9908
3.037727
2.999344
2.995212
2.978635
3.425362
2.730739
3.455157
2.831289
3.232304
3.005047
3.069057
3.013778
3.013903
2.997342
3.552777
2.654212
3.554829
2.753222
3.270912
2.999069
3.073585
3.012884
3.019792
3.010966
3.482131
2.621883
3.6205
2.712823
3.291602
3.007729
3.089271
3.022936
3.03296
3.027878
3.761252
2.426806
3.678488
2.681598
3.278889
2.983041
3.076874
3.009717
3.024174
3.025389
3.40289
2.594993
3.706456
2.710238
3.260133
2.955003
3.057308
3.005203
3.018025
3.021482
3.561575
2.537812
3.745387
2.731444
3.267605
2.942851
3.040238
2.983388
2.989868
2.984131
3.403459
2.540535
3.762498
2.740406
3.275998
2.94424
3.032808
2.980089
2.953132
2.949235
3.800668
2.413895
3.799182
2.728992
3.311277
2.956504
3.042443
2.957905
2.909538
2.840014
3.618419
2.491955
3.758477
2.727941
3.358902
3.007104
3.078828
3.00277
2.786139
2.750606
3.923191
2.425626
3.775842
2.734661
3.404816
3.059339
3.153414
2.989867
2.709376
2.366568
3.861826
2.379882
3.734272
2.739416
3.453807
3.118605
3.245977
3.161481
3.027932
2.10278
3.473395
2.585921
3.700845
2.74067
3.536193
3.30018
3.51052
3.357667
2.249239
3.842763
2.345783
3.695893
2.697027
3.556551
3.37164
3.573538
3.638396
3.660155
3.366894
2.650107
3.541186
2.754407
3.482431
3.288817
3.555698
3.579279
3.652913
3.495484
2.488614
3.434915
2.747615
3.352829
3.20867
3.432908
3.49025
3.15267
2.594959
3.282834
2.700076
3.247237
3.058812
3.323192
3.350906
3.216291
2.400339
3.121322
2.575052
3.064536
2.894784
3.101754
3.164102
3.588338
2.869876
2.368042
2.971663
2.415254
2.888086
2.624771
2.85879
2.878927
2.883388
2.909626
2.151656
2.808124
2.217088
2.606848
2.306702
2.305654
2.283028
2.116934
1.369962
0.06888401
-1.186844
2.964764
3.038753
3.029959
3.085551
3.019133
3.019406
2.99941
2.985209
2.962708
3.412421
2.996996
3.145408
2.981705
3.121855
3.023343
3.041948
2.999918
2.990729
2.96837
3.514845
2.85956
3.347464
2.872895
3.186921
2.977224
3.030815
2.993957
2.992435
2.978477
3.398228
2.734849
3.534555
2.78499
3.267311
3.005913
3.074841
3.012735
3.014709
2.997341
3.819937
2.439442
3.690264
2.670176
3.265257
2.978325
3.071626
3.00584
3.017522
3.011332
3.58334
2.496192
3.824297
2.621852
3.252608
2.948404
3.066027
3.011379
3.031492
3.029128
3.61227
2.424079
3.892704
2.596586
3.252482
2.933353
3.060117
3.00303
3.025399
3.028456
3.713099
2.281357
3.972331
2.638381
3.30455
2.973152
3.086644
3.011533
3.025136
3.02704
3.782287
2.102881
4.127246
2.721116
3.308181
2.952722
3.070179
2.990194
2.998734
2.991503
3.875993
2.040886
4.125802
2.716076
3.328797
2.949252
3.066432
2.988826
2.96201
2.957003
3.62475
2.515075
4.040463
2.66457
3.325804
2.943577
3.071902
2.962782
2.918735
2.849439
3.598856
2.37836
4.002326
2.663511
3.362159
2.974833
3.07657
3.002235
2.794395
2.756679
3.917539
2.394487
3.953906
2.643073
3.348041
3.032944
3.160779
2.991232
2.722159
2.358583
3.66294
2.404392
4.003842
2.68634
3.430125
3.077516
3.239105
3.162225
3.028224
2.094236
3.739694
2.422703
3.919487
2.638824
3.471285
3.260241
3.509246
3.357669
2.249342
3.934893
2.272856
3.816248
2.643329
3.515177
3.31711
3.574579
3.646595
3.666488
3.438981
2.613406
3.666377
2.66537
3.477252
3.262619
3.562637
3.586703
3.65589
3.626928
2.314025
3.548151
2.657228
3.352915
3.215771
3.437041
3.500061
3.142654
2.491135
3.365498
2.637591
3.243769
3.043635
3.324996
3.356871
3.18811
2.330712
3.192214
2.521715
3.081312
2.891533
3.107704
3.17655
3.51193
2.79064
2.228393
3.073405
2.370529
2.92151
2.619134
2.865607
2.875449
2.871542
2.839378
2.099933
2.870038
2.161486
2.61664
2.294378
2.304619
2.278333
2.108168
1.363427
0.06477348
-1.221691
2.97993
3.030935
3.004693
3.081889
3.01846
3.024457
3.002475
2.988001
2.966687
3.415564
2.961387
3.13213
2.967369
3.118113
3.016756
3.041714
3.002701
2.993304
2.971727
3.501401
2.912658
3.356021
2.87066
3.192695
2.978305
3.037509
2.99699
2.995813
2.981409
3.626335
2.484852
3.56045
2.747973
3.270041
3.008064
3.081455
3.014585
3.016349
3.000034
3.557706
2.514072
3.684013
2.677648
3.265085
2.955829
3.057917
3.005703
3.019433
3.013831
3.628445
2.425237
3.854617
2.618629
3.29012
2.980257
3.085701
3.02007
3.037111
3.033434
4.209258
1.904022
3.938154
2.628148
3.301015
2.99892
3.103283
3.023338
3.038596
3.035699
3.538856
2.468529
3.993534
2.630406
3.275699
2.973556
3.102442
3.025784
3.031875
3.032974
4.303402
1.753631
4.119354
2.736647
3.335197
2.983527
3.093583
3.001754
3.000751
2.997378
3.839689
1.994022
4.157496
2.757647
3.344875
2.986705
3.096096
3.001205
2.968189
2.964013
3.921535
2.02523
4.112946
2.737566
3.371592
2.988141
3.100889
2.975931
2.925306
2.858244
4.368528
1.677383
4.037189
2.716519
3.411417
3.036264
3.119211
3.018585
2.801641
2.767016
3.50024
2.649662
3.922898
2.686411
3.421197
3.043826
3.164846
2.997852
2.726646
2.364793
4.345288
1.712541
4.032725
2.735427
3.51494
3.163382
3.275056
3.170689
3.033054
2.102916
3.666367
2.449645
3.915035
2.63863
3.546115
3.312035
3.532166
3.361834
2.252482
3.600583
2.453011
3.822023
2.651371
3.497578
3.286828
3.597737
3.653348
3.664033
3.705895
2.27468
3.733026
2.599101
3.475746
3.29409
3.575191
3.590777
3.643234
3.231862
2.535831
3.497245
2.643847
3.361229
3.208906
3.43878
3.50076
3.235236
2.417674
3.368563
2.625931
3.259485
3.052098
3.329916
3.357974
3.133362
2.376483
3.186229
2.512666
3.068858
2.887295
3.103942
3.178528
3.564259
2.767079
2.222559
3.078874
2.374534
2.924678
2.621887
2.864414
2.867694
2.864881
2.759538
2.136201
2.862126
2.161311
2.612794
2.294736
2.307819
2.274664
2.105901
1.359676
0.06284194
-1.27195
3.001517
3.07269
3.047949
3.09862
3.033732
3.03702
3.008699
2.991759
2.965784
3.455021
3.017649
3.157206
2.999107
3.128869
3.022147
3.043653
3.006642
2.994732
2.972145
3.540539
2.877843
3.337179
2.913985
3.203817
2.999537
3.057693
3.00706
3.002794
2.984995
3.44995
2.816109
3.527486
2.824082
3.285693
2.980487
3.04981
3.007609
3.011357
3.000508
3.86562
2.465458
3.635638
2.736285
3.315747
3.028091
3.098251
3.028133
3.031151
3.018707
3.447169
2.607409
3.738259
2.669494
3.249853
2.94424
3.060291
3.012217
3.035186
3.03474
3.499229
2.672663
3.690605
2.675681
3.296142
2.952286
3.061548
3.01013
3.030987
3.034243
3.545505
2.457642
3.779151
2.676622
3.254742
2.936897
3.042372
3.004633
3.024762
3.031036
3.422581
2.694004
3.778883
2.733411
3.306785
2.952524
3.05029
2.99149
3.000569
2.997605
3.416003
2.550151
3.814624
2.721685
3.27307
2.937385
3.033445
2.985571
2.963795
2.963466
3.471251
2.67033
3.80346
2.727594
3.315029
2.944877
3.047386
2.964936
2.920983
2.858785
3.477857
2.696735
3.868914
2.716196
3.333822
2.965731
3.069505
3.004917
2.794669
2.770533
3.853444
2.372224
3.910501
2.711065
3.344547
3.022074
3.154186
2.994043
2.722241
2.380569
3.563595
2.479346
3.823877
2.70427
3.400316
3.075212
3.247974
3.169082
3.036434
2.126573
3.508915
2.589679
3.799034
2.707032
3.478338
3.239059
3.507799
3.363549
2.25708
4.007471
2.131445
3.752035
2.696173
3.571964
3.38902
3.596297
3.652494
3.638918
3.4516
2.740304
3.630266
2.728583
3.489901
3.242655
3.565017
3.581798
3.625862
3.630493
2.354097
3.494993
2.676884
3.380983
3.214016
3.444726
3.496147
3.176149
2.527303
3.344104
2.666545
3.25611
3.049952
3.325079
3.349474
3.099306
2.460537
3.111526
2.564998
3.069253
2.890081
3.100372
3.160031
3.391451
2.886721
2.346192
2.999886
2.403305
2.898102
2.624045
2.857788
2.855861
2.862655
2.914786
2.158021
2.803675
2.215705
2.612282
2.307291
2.317748
2.278245
2.114772
1.367015
0.0722802
-1.206933
2.995619
3.050427
3.030978
3.074372
3.034912
3.025102
3.012582
2.998216
2.981118
3.440943
2.981543
3.147869
2.98342
3.118136
3.022223
3.040358
3.009388
2.99884
2.979207
3.493358
2.909613
3.315344
2.896645
3.183467
2.990333
3.028885
3.00375
3.002045
2.988811
3.363086
2.641227
3.507585
2.825222
3.246161
2.988432
3.06488
3.01538
3.016698
3.004801
3.360729
2.68241
3.540625
2.764468
3.284203
2.968207
3.051997
3.011159
3.024259
3.019076
3.666958
2.278937
3.719109
2.704535
3.266662
2.989352
3.079019
3.023178
3.038613
3.037042
3.658993
2.517691
3.700793
2.71344
3.270829
3.014822
3.100401
3.030426
3.042921
3.041387
3.504046
2.501224
3.791453
2.752403
3.291937
3.020906
3.103429
3.031462
3.037526
3.038782
3.631782
2.473015
3.822143
2.774238
3.291917
3.034927
3.106981
3.022547
3.018743
3.006857
3.590211
2.431288
3.84811
2.782753
3.291478
3.020487
3.095823
3.012398
2.978477
2.970583
3.645119
2.537909
3.79124
2.743884
3.307824
3.044844
3.113484
2.994488
2.939165
2.868706
3.987683
2.103585
3.837345
2.736108
3.312606
3.00657
3.102549
3.016893
2.811706
2.774524
3.43275
2.653763
3.743825
2.743407
3.390328
3.087871
3.181195
3.025125
2.73847
2.410866
4.031729
2.154799
3.78469
2.722689
3.428669
3.114858
3.250592
3.17282
3.046992
2.155602
3.568901
2.520294
3.762663
2.725464
3.518753
3.318889
3.525148
3.371688
2.264999
3.561409
2.627054
3.687736
2.755741
3.480196
3.27094
3.578831
3.651591
3.634438
3.594303
2.255946
3.634894
2.703694
3.466456
3.306705
3.571191
3.601498
3.638522
3.141418
2.642968
3.387847
2.737411
3.33423
3.179445
3.426721
3.507505
3.06621
2.490827
3.327666
2.667187
3.247027
3.061043
3.317112
3.357252
3.071416
2.45905
3.126876
2.552251
3.036439
2.886144
3.067449
3.193045
3.367689
2.926117
2.194962
3.034241
2.398529
2.885545
2.623765
2.832671
2.826776
2.853288
2.866067
2.069694
2.827473
2.178486
2.602204
2.308793
2.337524
2.274297
2.135794
1.36127
0.08003904
-1.178408
3.001228
3.021038
2.985578
2.987821
2.939371
2.930266
2.917407
2.878803
2.850856
3.466303
3.055718
3.139208
3.025746
3.116225
3.022201
3.033105
3.014711
2.990763
2.975083
3.465245
2.92616
3.166695
2.979859
3.154864
3.034639
3.061897
3.016401
3.010697
2.993532
3.546316
2.939399
3.420797
2.909774
3.229297
2.99975
3.053473
3.015708
3.015075
3.005047
3.446208
2.841638
3.401007
2.889697
3.247341
3.02581
3.089217
3.030691
3.034525
3.024464
3.564
2.830828
3.484389
2.837945
3.245497
3.012306
3.086418
3.030351
3.042804
3.040385
4.546729
2.82407
3.297324
2.910972
3.21936
3.006533
3.079005
3.027898
3.04091
3.042105
4.448187
2.893156
3.267959
2.898533
3.205165
3.000309
3.065786
3.024278
3.034751
3.038333
4.336501
2.96194
3.263615
2.961734
3.217829
3.018814
3.075504
3.015605
3.01347
3.005284
4.142003
2.973766
3.29499
2.945242
3.227131
3.009693
3.052492
3.005472
2.9765
2.968583
3.580435
2.81174
3.319638
2.941391
3.260131
3.027675
3.081341
2.991503
2.934974
2.866108
3.662768
2.911731
3.577805
2.934698
3.327942
3.032291
3.089076
3.017882
2.820856
2.771997
3.618368
2.7008
3.564967
2.879448
3.356976
3.099251
3.166495
3.032733
2.72771
2.400072
3.601868
2.849311
3.51525
2.930422
3.406739
3.13692
3.245726
3.186467
3.05684
2.185606
3.867704
2.767391
3.469273
2.908053
3.461916
3.30025
3.512543
3.392792
2.275408
3.732531
2.526074
3.553952
2.802166
3.517032
3.371319
3.573557
3.571116
3.614735
3.481699
2.806475
3.493779
2.864353
3.447491
3.276785
3.545046
3.577959
3.640932
3.306955
2.674484
3.358254
2.807617
3.342051
3.217705
3.441741
3.502726
3.554077
3.333673
2.685464
3.26191
2.746842
3.217475
3.060258
3.312249
3.355868
3.401846
3.972653
2.526181
2.901517
2.658307
3.005553
2.892939
3.089289
3.129672
3.184273
3.105962
2.484591
2.786797
2.515272
2.807687
2.646842
2.797605
2.816147
2.809606
2.70541
2.329054
2.597001
2.343783
2.539986
2.344407
2.358912
2.267767
2.066968
2.537957
1.391842
0.09964442
-1.150652
3.024361
3.055166
2.955049
3.066865
2.986628
2.985918
2.978273
2.922599
2.907349
3.383622
2.921913
3.232043
2.95946
3.133912
3.015453
3.041159
3.021038
3.002064
2.987177
3.466825
2.929058
3.262368
2.953493
3.158388
3.020222
3.058821
3.016483
3.008287
2.994308
3.409656
2.797345
3.407147
2.894617
3.201447
2.994208
3.052729
3.015052
3.014574
3.007314
3.501714
2.797688
3.401521
2.85539
3.213046
2.98067
3.057286
3.020666
3.028971
3.023795
3.550377
2.702057
3.532669
2.847825
3.210748
2.981313
3.055135
3.025477
3.040071
3.040981
3.725858
2.825452
3.384277
2.846063
3.206904
3.017574
3.083322
3.034063
3.043223
3.044681
4.547229
2.741575
3.585551
2.887735
3.221592
3.017642
3.06603
3.030707
3.037444
3.040009
4.303259
2.644803
3.627517
2.931708
3.23831
3.041578
3.07695
3.027201
3.020658
3.008604
3.780939
2.686493
3.664058
2.929664
3.226345
3.016016
3.050083
3.012113
2.980978
2.968896
3.558502
2.86227
3.422215
2.893247
3.259735
3.037635
3.081862
3.007218
2.943026
2.867386
3.608466
2.670117
3.625975
2.889758
3.287974
3.03112
3.076256
3.009432
2.830201
2.765526
3.54739
2.810879
3.587628
2.883644
3.304928
3.09776
3.166075
3.077326
2.727106
2.461292
3.451109
2.631717
3.617081
2.924732
3.38133
3.137625
3.260391
3.160929
2.994051
2.180481
4.052073
2.718263
3.585791
2.892595
3.435207
3.315561
3.471084
3.365884
2.270289
3.465709
2.726416
3.536176
2.848731
3.4661
3.309268
3.538133
3.572945
3.61171
3.425984
2.62967
3.487593
2.825229
3.404945
3.284878
3.518686
3.587523
3.691258
3.306188
2.709631
3.309793
2.80549
3.303718
3.191689
3.414166
3.509508
3.58721
3.197936
2.582931
3.231467
2.730813
3.190994
3.055459
3.278875
3.367997
3.433287
3.189719
2.587653
2.975005
2.633531
2.995249
2.887002
3.067219
3.152616
3.208685
3.575446
2.338807
2.913785
2.486607
2.816005
2.649015
2.79421
2.83265
2.884507
2.68946
2.245485
2.702251
2.28418
2.544676
2.339404
2.344553
2.274897
2.223325
2.537087
1.420329
0.08392817
-1.599623
3.179586
3.314536
3.222142
3.214549
3.242761
3.219389
2.75731
3.219851
2.890761
3.100501
2.864343
3.19725
3.238799
3.019996
3.163523
2.986006
3.257248
3.023055
3.162848
3.196425
2.974356
3.166892
2.980769
3.131667
3.036515
3.106152
3.188013
2.950772
3.148389
2.941485
3.161075
3.034501
3.096775
3.171293
2.929058
3.132796
2.928134
3.133539
3.00004
3.063224
3.158421
2.916763
3.119929
2.911172
3.124981
2.981825
3.050183
3.143172
2.90068
3.105823
2.896699
3.109037
2.964061
3.033617
3.125558
2.885005
3.090108
2.879197
3.092502
2.948349
3.017946
2.865518
2.8585
2.929646
3.212828
3.261035
3.384907
3.026208
3.353097
2.952379
3.279258
3.298847
3.489749
2.9316
3.331034
2.911895
3.283194
3.33934
3.514997
2.916108
3.337959
2.907861
3.319438
3.375654
3.535625
2.909462
3.346118
2.915272
3.305339
3.40804
3.548483
2.91591
3.339667
2.912007
3.389072
3.401787
3.540865
2.881547
3.337632
2.909634
3.377355
3.333741
3.523492
2.850882
3.327465
2.893617
3.291604
3.34701
3.522751
2.854766
3.329569
2.871978
3.271581
3.39371
3.545903
2.873215
3.341612
2.877738
3.365265
3.313841
3.547647
2.853334
3.342069
2.907765
3.299309
3.219421
3.555301
2.880725
3.33004
2.930871
3.237751
3.263059
3.540696
2.893961
3.31574
2.897965
3.246151
3.210078
3.523955
2.883626
3.324428
2.896779
1.751393
1.165089
1.25653
2.966146
1.548747
0.8441522
1.188914
3.141915
3.2841
3.455098
2.89167
3.374779
2.88997
3.559715
2.242783
3.561918
3.22465
3.280844
3.345656
2.926719
3.498798
2.925497
3.653221
3.594228
3.634988
3.190922
3.09203
3.319584
2.949193
3.609176
2.959096
3.602044
3.672038
3.601184
3.068567
3.051622
3.240312
2.923315
3.475714
2.905853
3.487378
3.573257
3.505262
2.895833
2.9585
3.128495
2.862882
3.29371
2.82858
3.311547
3.430886
3.325932
2.758052
2.827209
3.005342
2.74804
3.106128
2.725445
3.029378
3.233626
3.066002
2.609661
2.687562
2.84889
2.612471
2.938786
2.604472
2.42652
2.862124
2.447124
2.458004
2.543536
2.7026
2.472158
2.7871
2.469574
-2.898057
-3.068936
2.194371
-2.645339
-3.345364
-2.29725
-1.982545
2.314166
2.555611
2.328057
3.189682
3.306072
3.205898
3.190274
3.381076
3.144159
1.564547
0.8498533
1.16504
3.034415
1.535126
0.8643842
1.172504
3.554458
2.252636
3.545672
-2.756673
-3.503392
2.151873
-2.808018
-3.488299
3.18812
3.390576
3.196117
3.181462
3.362169
3.114932
1.528094
0.8694244
1.175398
3.032004
1.529881
0.8774503
1.179061
3.545119
2.250369
3.555074
-2.809192
-3.452084
2.116514
-2.834117
-3.452454
3.212685
3.400554
3.124783
3.188448
3.363885
3.127321
1.52446
0.8772037
1.176837
3.028166
1.527207
0.8792651
1.177575
3.548601
2.248963
3.551738
-2.837729
-3.569991
2.108048
-2.849298
-3.476575
3.194098
3.458877
3.096849
3.195639
3.33985
3.142053
1.524544
0.8805378
1.171592
3.028656
1.525932
0.8826418
1.173412
3.549643
2.251224
3.558856
-2.849596
-3.57648
2.105554
-2.855617
-3.552774
3.214687
3.497028
3.092448
3.181245
3.411655
3.145179
1.530003
0.8860748
1.177989
3.035309
1.533354
0.8907937
1.181857
3.554099
2.256363
3.55503
-2.855243
-3.573217
2.115177
-2.845578
-3.573166
3.201784
3.419279
3.124982
3.195673
3.433971
3.132524
1.540332
0.8913737
1.192469
3.038839
1.541602
0.8934948
1.196112
3.561447
2.26248
3.560659
-2.842848
-3.471997
2.140869
-2.81959
-3.558639
3.204655
3.402693
3.118518
3.217735
3.422455
3.205267
3.567993
2.273094
3.562622
-2.821231
-3.437483
2.060596
-2.759428
-3.44226
3.210697
3.415471
3.147029
3.219204
3.311168
3.197414
3.564462
2.270244
3.575524
-2.760728
-3.399636
2.175039
-2.719249
-3.468722
3.250934
3.233052
3.266851
3.321175
3.129587
2.861069
3.196986
2.860484
3.182607
3.086888
3.081738
3.186348
2.996262
3.207059
3.122548
2.980078
3.153713
3.045602
2.925394
3.167889
3.090395
3.004238
3.124881
2.990075
3.190026
3.034839
2.963137
3.091139
2.958954
3.148497
3.061675
2.987192
3.07704
3.137309
2.926638
3.124113
3.019599
2.995831
3.026097
2.89652
3.101266
2.901942
2.856195
3.064375
3.565599
2.943899
3.248809
3.313158
3.015117
3.621634
3.02649
3.273499
3.024967
3.140541
3.499692
3.094897
3.256796
3.272924
3.002671
3.039365
3.538884
3.087356
3.967364
3.118655
3.278272
2.986553
3.067588
3.544639
3.174006
3.894667
3.071805
3.357659
3.045938
2.930549
3.438785
3.012493
3.416095
3.022413
3.783317
3.029286
2.898288
3.373238
2.880477
3.170296
3.347247
2.878315
3.39864
2.887705
3.31721
3.354054
2.977952
4.313006
2.90886
3.241014
3.173167
3.038485
3.819372
2.951957
3.744856
3.063016
3.411109
3.050101
3.201353
3.633609
3.192095
3.892412
3.097504
3.415608
3.076156
3.113449
3.537515
3.182483
3.423184
3.135439
3.790768
3.180715
3.111591
3.409108
2.945115
3.103318
3.201164
1.594318
0.8696597
1.235998
2.903531
1.805646
1.209383
1.422249
1.754906
2.139895
1.633061
2.91699
3.475024
3.058234
3.289382
3.114415
3.579126
2.453203
3.560199
3.120167
3.467812
3.109515
3.196561
3.132585
3.645363
3.641559
3.643317
3.099322
3.390851
3.017711
3.566337
2.988604
3.24844
3.056937
3.615946
3.709103
3.613581
3.028611
3.273284
2.937679
3.148261
2.902657
3.176384
3.015934
3.513215
3.584217
3.489478
2.905779
3.174918
2.875671
3.018161
2.778561
3.051691
2.946948
3.322327
3.452214
3.306653
2.653017
3.043849
2.665213
2.930514
2.592481
2.899145
2.747775
3.024217
3.257606
3.066125
2.450733
2.836501
2.556117
2.695451
2.5316
2.695748
2.434518
2.901799
2.400007
2.405152
2.769612
2.415986
2.454716
2.575788
-2.585867
-3.476645
2.259252
-3.019734
-3.014575
-2.015143
-2.271703
2.300273
2.330777
3.111586
3.061446
3.397177
2.925654
3.224059
3.163063
3.435904
2.836929
3.328226
3.192314
3.444908
2.832539
3.339024
3.203552
3.453939
2.866216
3.343319
3.200828
3.438268
2.913384
3.323439
3.15932
3.451909
2.971238
3.323199
3.182219
3.465965
2.979811
3.238591
2.990765
3.429666
2.961218
3.13358
2.928158
3.341653
2.981467
3.150077
3.070186
3.406846
3.029957
3.212641
3.084563
3.428984
2.980376
3.133428
2.921946
3.383295
2.862602
3.19731
3.142625
3.385766
2.865072
3.282174
3.141591
2.971026
3.149659
2.520193
3.142796
2.999254
3.017467
2.909766
1.62036
2.14008
1.734508
3.317514
2.856019
3.285053
3.007695
3.184544
3.529844
3.561757
3.346417
3.211351
3.479829
3.571817
3.287727
2.364491
3.164036
3.28447
3.218717
3.378041
2.9501
3.647924
3.622596
3.658321
3.552911
3.635006
3.57893
3.654173
3.644065
3.609545
3.636713
3.164069
3.189981
3.246679
3.139844
3.665006
3.568818
3.605562
3.563262
3.634255
3.544699
3.606966
3.630118
3.669352
3.63025
3.135175
3.032913
3.173887
3.060848
3.573413
3.468664
3.515661
3.496141
3.553211
3.421063
3.515366
3.555673
3.579001
3.569537
3.005517
2.856321
3.099145
2.930059
3.424717
3.304433
3.365909
3.361984
3.407258
3.242896
3.358324
3.408918
3.436276
3.44226
2.908887
2.718925
2.98454
2.82563
3.227843
3.052363
3.131152
3.160583
3.207354
2.995796
3.113424
3.192309
3.240443
3.235399
2.774457
2.582413
2.853446
2.686932
2.9194
2.630265
2.604497
2.847547
2.888229
2.574914
2.674926
2.792736
2.905675
2.839615
2.633107
2.442735
2.711734
2.545609
2.180481
1.867661
0.4108766
2.282311
2.10948
1.724368
0.5659005
1.638007
2.176953
1.515566
2.491839
2.300847
2.568065
2.40422
-2.935523
0.1089409
-2.434884
-1.081981
3.067709
2.956731
3.025394
2.975222
2.804772
3.166734
3.046167
2.947801
2.815433
3.195824
3.47121
3.564967
3.372971
3.192119
3.475085
3.573697
3.210667
2.248345
3.21529
1.993187
1.77287
0.5510732
2.283538
1.972547
1.755184
0.5108716
-2.155228
-2.097636
-2.433897
0.08599409
-2.434628
3.048584
2.929275
3.044449
2.959592
2.813821
3.160609
3.049995
2.944489
2.808905
3.198869
3.446959
3.566387
3.359596
3.202724
3.42178
3.585392
3.208638
2.252189
3.207738
2.338204
2.882906
2.315779
1.915646
1.768654
0.5064794
2.27257
1.921733
1.733844
0.4926235
-2.072013
-2.043447
-2.455872
0.07537526
-2.472516
3.073442
2.900584
3.04687
2.947807
2.805687
3.163931
3.047934
2.947992
2.803513
3.202272
3.421425
3.587149
3.359361
3.203307
3.422523
3.591509
3.199569
2.249507
3.199066
1.906316
1.742267
0.4904361
2.277401
1.907728
1.739011
0.4840348
-2.184795
-2.072692
-2.518507
0.06716625
-2.496364
3.041962
2.92272
3.047716
2.948619
2.803828
3.160772
3.048341
2.946111
2.803454
3.204924
3.417835
3.594334
3.354591
3.207325
3.413877
3.598353
3.198776
2.24984
3.198932
2.308618
2.866767
2.304702
1.904216
1.736706
0.4828513
2.27495
1.90273
1.733196
0.4808743
-2.185748
-2.170264
-2.533131
0.06171345
-2.543591
3.047019
2.932992
3.210539
3.422174
3.601836
3.367875
3.213806
3.429018
3.601893
3.201106
2.254101
3.20194
1.905721
1.733311
0.4818211
2.281245
1.909362
1.740196
0.4883554
-2.185658
-2.18366
-2.546156
0.06882253
-2.531899
2.967623
3.024691
3.212235
3.427179
3.601242
3.363143
3.214044
3.426396
3.598243
3.204732
2.258765
3.206018
2.313674
2.860172
2.332236
1.924138
1.740259
0.4914605
2.287107
1.939112
1.750187
0.5060486
-2.068694
-2.177968
-2.491367
0.08352547
-2.509606
2.950265
3.05932
1.551768
0.8972332
1.203197
3.046979
1.557484
0.8948072
1.206011
3.216401
3.433829
3.600085
3.387716
3.217012
3.46364
3.583371
3.214274
2.267806
3.217167
1.97332
1.734749
0.4986719
2.294447
2.160758
1.771723
0.4817805
-2.033083
-2.086029
-2.457541
0.08020821
-2.436769
2.973368
3.104154
1.569902
0.8924456
1.204218
3.042876
1.604238
0.8798292
1.202995
3.213022
3.488721
3.593248
3.385905
3.220958
3.4858
3.585916
3.233499
2.27352
3.232972
2.212047
1.752104
0.4751467
2.305191
2.198377
1.776422
0.5210393
-2.024446
-2.096778
-2.391933
0.05934077
-2.43436
2.957827
3.098806
2.995554
2.910382
3.031882
2.912096
3.100587
3.230361
3.496348
3.591138
3.384926
3.242961
3.541279
3.597523
3.215156
2.329257
3.200768
3.564568
3.43629
3.526431
3.510727
3.566555
3.472716
3.517918
3.412436
3.243493
3.361918
3.36051
3.426323
3.302485
3.37332
3.199794
2.985228
3.114714
3.155419
3.221
3.047467
3.138775
2.861461
2.564327
2.666061
2.873214
2.901874
2.63665
2.609665
2.146024
1.724849
0.5581927
2.393424
2.231099
1.882123
0.6356034
-2.471518
0.1948995
-2.93168
-1.730693
3.020466
3.151813
3.31848
2.9445
2.93525
3.074831
3.289311
3.175827
3.425609
2.879923
3.331442
3.219086
3.447906
2.837011
3.335753
3.219432
3.450459
2.853743
3.338737
3.183609
3.450573
2.903899
3.289471
3.177876
3.450818
2.976258
3.229829
3.116494
3.439476
3.026814
3.134395
2.935593
3.43195
3.001322
3.175411
2.992896
3.391875
2.941136
3.257327
3.142282
3.357407
2.974728
3.198886
2.962379
3.420045
2.959227
3.089701
2.961324
3.376601
2.904726
3.260304
3.237525
3.400022
2.825215
3.25043
3.216523
3.378757
2.830266
1.749794
2.635368
-1.448715
1.101027
2.610414
-1.525695
1.872912
1.138455
1.676264
-0.2380166
1.224535
1.577208
0.3025642
1.101217
3.345527
2.927212
3.327248
3.047502
3.383999
3.5483
3.403944
2.301498
3.198998
3.185152
3.320259
3.136217
3.200326
3.220315
3.666227