/*--------------------------------*- C++ -*----------------------------------*\
  =========                 |
  \\      /  F ield         | OpenFOAM: The Open Source CFD Toolbox
   \\    /   O peration     | Website:  https://openfoam.org
    \\  /    A nd           | Version:  7
     \\/     M anipulation  |
\*---------------------------------------------------------------------------*/
FoamFile
{
    version     2.0;
    format      ascii;
    class       volVectorField;
    location    "0.03";
    object      U;
}
// * * * * * * * * * * * * * * * * * * * * * * * * * * * * * * * * * * * * * //

dimensions      [0 1 -1 0 0 0 0];

internalField   nonuniform List<vector> 
105127
(
(-1.10564 0.3436938 -0.01277272)
(-0.9128178 0.4063896 0.0269263)
(-0.8132856 0.4343437 0.01688322)
(-0.7440395 0.4368427 0.01475239)
(-0.6893302 0.4387156 0.01435733)
(-1.186604 0.2038659 -0.05686886)
(-1.057983 0.2781868 0.005666466)
(-0.9634807 0.3098491 0.001274835)
(-0.8889578 0.3305531 -0.000645944)
(-0.8272176 0.3455866 -0.001390392)
(-1.07952 0.1839523 -0.02433387)
(-0.9992942 0.2741292 0.02111594)
(-0.9283752 0.3267477 0.01480686)
(-0.8655753 0.3611362 0.01198999)
(-0.8104847 0.3852634 0.0101591)
(-0.9834456 0.1276323 -0.02282743)
(-0.9339986 0.2026968 0.01787032)
(-0.8829394 0.2545091 0.01133743)
(-0.832978 0.2937697 0.008789406)
(-0.7868995 0.3221655 0.007519339)
(-0.9052226 0.1043819 -0.0203341)
(-0.8731966 0.1728267 0.0170496)
(-0.8371953 0.2246664 0.01187457)
(-0.7971938 0.2642991 0.009662703)
(-0.7592598 0.2959134 0.008397565)
(-0.8432577 0.0820288 -0.01895068)
(-0.8197675 0.1392979 0.01666259)
(-0.792802 0.1856658 0.01185195)
(-0.7615096 0.2238153 0.01013397)
(-0.7301914 0.2557097 0.008923871)
(-0.790643 0.06916367 -0.01770121)
(-0.7724153 0.1189596 0.01627572)
(-0.7517267 0.1611319 0.01172248)
(-0.7272639 0.1977939 0.0103636)
(-0.7008907 0.2281744 0.009255599)
(-0.7455604 0.05886321 -0.01675921)
(-0.7306222 0.1021467 0.01576025)
(-0.7142491 0.1399636 0.0114555)
(-0.6941941 0.173839 0.01020839)
(-0.6725176 0.2029471 0.00941442)
(-0.7060881 0.05130037 -0.01586616)
(-0.6933833 0.08950844 0.01529267)
(-0.6801477 0.1236725 0.01124204)
(-0.6634949 0.1549113 0.0100753)
(-0.6458249 0.1829309 0.009544407)
(-0.6711173 0.04525454 -0.01507867)
(-0.6599998 0.07931748 0.01482506)
(-0.6490592 0.1102802 0.01100484)
(-0.6350645 0.1390421 0.00994458)
(-0.6199747 0.1653368 0.009423178)
(-0.639812 0.04036295 -0.01436086)
(-0.629852 0.07099651 0.01437528)
(-0.6206657 0.09926447 0.01077041)
(-0.6086132 0.1257071 0.009793037)
(-0.5956625 0.1502437 0.009286388)
(-0.6115543 0.03632047 -0.01372525)
(-0.6026485 0.06412367 0.0140332)
(-0.5946574 0.0899548 0.0105297)
(-0.5841432 0.1143411 0.009624595)
(-0.5729073 0.1372392 0.009156271)
(-0.5858781 0.03293046 -0.01314288)
(-0.5778323 0.05832825 0.01371816)
(-0.5707491 0.08199633 0.01029726)
(-0.5615076 0.1045731 0.009444391)
(-0.5516311 0.1259308 0.009030932)
(-0.5623998 0.03003868 -0.01261326)
(-0.5550377 0.05334996 0.01341018)
(-0.5486564 0.07508489 0.01006861)
(-0.5404938 0.09611574 0.009262952)
(-0.5317403 0.1159998 0.00889513)
(-0.5408288 0.02755736 -0.01212486)
(-0.5339899 0.04900484 0.0130977)
(-0.5283611 0.06909383 0.009917353)
(-0.5209466 0.08864711 0.00907721)
(-0.5130662 0.1071889 0.008750695)
(-0.5209344 0.02537377 -0.01167976)
(-0.5145534 0.04519862 0.01279593)
(-0.5095178 0.06382295 0.00980563)
(-0.5027128 0.08200182 0.008890926)
(-0.4955575 0.09934719 0.008601222)
(-0.5025261 0.0234454 -0.01126444)
(-0.496546 0.04182678 0.01250724)
(-0.4919874 0.05916271 0.009726377)
(-0.4856909 0.07607344 0.008710372)
(-0.4791734 0.09231867 0.00844979)
(-0.4854373 0.0217261 -0.01088148)
(-0.4797996 0.0388158 0.01222978)
(-0.4756463 0.05501485 0.009608252)
(-0.469793 0.07073895 0.008534428)
(-0.4638545 0.08599313 0.008297971)
(-0.4695387 0.02017963 -0.01052198)
(-0.4641877 0.03610542 0.01196344)
(-0.4603957 0.05124463 0.009435825)
(-0.4550129 0.06591793 0.008383563)
(-0.4494946 0.08024787 0.008143037)
(-0.4547204 0.01877953 -0.01018964)
(-0.4496183 0.03364501 0.01170853)
(-0.446147 0.04778817 0.009253721)
(-0.4412598 0.06154807 0.008262942)
(-0.4360178 0.07497346 0.007985907)
(-0.4408913 0.01750561 -0.009877365)
(-0.4360119 0.03140062 0.01146298)
(-0.4328109 0.04460919 0.009078875)
(-0.4283433 0.05753533 0.008146375)
(-0.4233473 0.0701071 0.007834204)
(-0.427969 0.01633869 -0.009588375)
(-0.4232897 0.02933917 0.01122638)
(-0.4203128 0.04167786 0.008914798)
(-0.4162223 0.05382957 0.008037009)
(-0.4114347 0.06560466 0.007692219)
(-0.415887 0.01526186 -0.009315094)
(-0.4113887 0.02743127 0.01100097)
(-0.4086178 0.03899107 0.008760469)
(-0.4048148 0.0503753 0.007933045)
(-0.400297 0.06144343 0.007581467)
(-0.3752178 0.01286787 -0.01478273)
(-0.3893655 0.02466197 -0.02573952)
(-0.3932754 0.0352555 -0.02859199)
(-0.3941168 0.04717151 0.007879872)
(-0.3899076 0.05759978 0.007499594)
(-1.110745 0.3644909 -0.02912242)
(-0.9237742 0.4576619 -0.01156556)
(-0.832098 0.4597123 -0.013837)
(-0.7645163 0.4615969 -0.01214729)
(-0.7087135 0.4624071 -0.01110722)
(-1.285953 0.07457806 -0.004857703)
(-1.163904 0.2050369 -0.04019378)
(-1.031009 0.2750428 -0.04179968)
(-0.940438 0.3126884 -0.03627163)
(-0.8671111 0.3370298 -0.03658192)
(-0.8078453 0.3533263 -0.03850261)
(-1.104977 0.06166547 -0.00359005)
(-1.012976 0.2202434 0.009080605)
(-0.9530657 0.2934111 0.01747741)
(-0.8946205 0.3454938 0.02413868)
(-0.8384927 0.3791646 0.02642023)
(-0.7884379 0.4041259 0.02907409)
(-0.9941652 0.03123305 -0.004961245)
(-0.9568268 0.1303044 -0.01279584)
(-0.9032939 0.1941397 -0.008212795)
(-0.8590831 0.2401601 -0.009220045)
(-0.8110014 0.2763257 -0.009558715)
(-0.7677152 0.3044241 -0.009591643)
(-0.9049084 0.02643227 -0.004614445)
(-0.8774285 0.1185518 -0.00311168)
(-0.8442808 0.1775034 0.004176107)
(-0.8134216 0.2258709 0.005381123)
(-0.7767624 0.2636102 0.005573526)
(-0.7414018 0.2938932 0.005814312)
(-0.8384947 0.0191859 -0.005093441)
(-0.8231045 0.08929943 -0.006841591)
(-0.796464 0.1394974 -0.001623122)
(-0.7732687 0.1823608 -0.001648017)
(-0.7432903 0.2183911 -0.001912985)
(-0.713765 0.2485013 -0.001481161)
(-0.7836553 0.01618214 -0.005228737)
(-0.7712703 0.07733558 -0.005106099)
(-0.751508 0.1220922 0.0002524133)
(-0.7343656 0.1619645 0.000444845)
(-0.7104393 0.1963357 0.00033863)
(-0.6860951 0.2258037 0.0006170857)
(-0.7373601 0.0133909 -0.005347907)
(-0.7281306 0.06532079 -0.005177656)
(-0.7121531 0.1046057 -0.000293318)
(-0.6990842 0.1405081 -0.0002888572)
(-0.6795033 0.1724275 -0.0005744727)
(-0.6591863 0.2005485 -0.0004238679)
(-0.6972521 0.01151023 -0.005382369)
(-0.6897086 0.05720935 -0.004766098)
(-0.6765843 0.09229585 -5.078212e-05)
(-0.6665363 0.1249946 -1.049398e-05)
(-0.6503669 0.1546431 -0.0003229018)
(-0.633344 0.1813101 -0.0002530479)
(-0.6619612 0.01000895 -0.005380417)
(-0.6557183 0.0505075 -0.004535717)
(-0.6445968 0.08195824 -2.606646e-05)
(-0.6367538 0.1117088 -1.31236e-06)
(-0.6231999 0.139114 -0.0003320557)
(-0.608811 0.1641835 -0.000360748)
(-0.6305173 0.008827894 -0.005350692)
(-0.6252066 0.04515717 -0.00431897)
(-0.6155806 0.07358296 2.990381e-05)
(-0.6093919 0.1007761 6.420803e-05)
(-0.597892 0.1261265 -0.0002546488)
(-0.5856197 0.1496358 -0.0003483242)
(-0.6022269 0.007868803 -0.005302938)
(-0.5976283 0.04071549 -0.004136439)
(-0.5891471 0.06655881 6.994016e-05)
(-0.5842216 0.09149122 0.000110203)
(-0.5743442 0.1149622 -0.0001908748)
(-0.5637822 0.1369634 -0.0003397989)
(-0.5765777 0.007075682 -0.005242656)
(-0.5725342 0.03697784 -0.003973293)
(-0.5649511 0.06059634 0.0001037662)
(-0.5609994 0.08353648 0.0001451031)
(-0.5524213 0.1053085 -0.0001384798)
(-0.5432505 0.1258867 -0.0003049209)
(-0.5531769 0.006409026 -0.005174187)
(-0.5495754 0.0337817 -0.003823644)
(-0.5427136 0.05546091 0.0001305108)
(-0.5395191 0.07664127 0.0001696941)
(-0.5319968 0.09686955 -0.0001009611)
(-0.5239696 0.1161169 -0.000264449)
(-0.5317096 0.005839011 -0.005101484)
(-0.528475 0.03101128 -0.003684481)
(-0.5222 0.05098925 0.0001529302)
(-0.5195986 0.07061077 0.0001975654)
(-0.512949 0.08942795 -7.101873e-05)
(-0.5058654 0.1074401 -0.0002273449)
(-0.5119332 0.005344649 -0.005025629)
(-0.509004 0.02858175 -0.003554956)
(-0.5032085 0.04705821 0.0001738546)
(-0.5010874 0.06528613 0.0002340079)
(-0.4951705 0.08280921 -4.17512e-05)
(-0.4888661 0.09968142 -0.0001888941)
(-0.493649 0.00491204 -0.004948066)
(-0.4909777 0.02642938 -0.003434516)
(-0.4855782 0.04356542 0.0001914533)
(-0.483854 0.06051617 0.000268554)
(-0.4785565 0.07687594 -1.912634e-05)
(-0.4728994 0.09269604 -0.0001598962)
(-0.476695 0.004528339 -0.004870325)
(-0.4742453 0.02450487 -0.003323881)
(-0.4691945 0.04043511 0.0002005856)
(-0.4677824 0.05620445 0.0002758202)
(-0.4629931 0.07152291 -2.260125e-06)
(-0.4578946 0.08636709 -0.0001393354)
(-0.460937 0.00418556 -0.004792912)
(-0.4586796 0.02277262 -0.003222869)
(-0.4539424 0.03761155 0.0002020388)
(-0.4527708 0.05231568 0.0002614544)
(-0.4483971 0.06666649 1.122161e-05)
(-0.4437896 0.08059988 -0.0001226404)
(-0.4462611 0.003877222 -0.004717133)
(-0.4441704 0.02120274 -0.003129376)
(-0.4397085 0.03504809 0.0002010178)
(-0.4387317 0.04879004 0.0002477298)
(-0.434711 0.0622313 2.295818e-05)
(-0.4305301 0.07531493 -0.0001075185)
(-0.432571 0.00359932 -0.004643442)
(-0.4306261 0.01977036 -0.003041419)
(-0.4264055 0.03270479 0.0002010959)
(-0.4255907 0.04556494 0.0002417578)
(-0.4218741 0.05815866 3.315303e-05)
(-0.4180586 0.07044626 -9.594639e-05)
(-0.4197831 0.003347446 -0.004570848)
(-0.4179678 0.01845478 -0.002956994)
(-0.4139594 0.03054881 0.0002037174)
(-0.4132817 0.04259032 0.0002473857)
(-0.4098307 0.05439526 4.361901e-05)
(-0.4063267 0.06594111 -8.741737e-05)
(-0.4078247 0.003116601 -0.004499629)
(-0.4061285 0.01724121 -0.002875791)
(-0.40231 0.02855442 0.0002077102)
(-0.4017471 0.03983515 0.0002572554)
(-0.3985245 0.05091667 5.947346e-05)
(-0.3952872 0.0617574 -7.778521e-05)
(-0.3951509 0.002575822 0.003712866)
(-0.3950484 0.01611259 -0.002797572)
(-0.3914027 0.02670041 0.0002124347)
(-0.3909248 0.03727191 0.0002670619)
(-0.3879101 0.04766354 8.555014e-05)
(-0.3849137 0.05785084 -6.757405e-05)
(-1.114525 0.3701308 -0.01064991)
(-0.9455087 0.3996148 0.002347485)
(-0.8432039 0.4117447 0.002344945)
(-0.7716546 0.4386648 0.005480879)
(-0.7140173 0.4505444 0.006711288)
(-1.300101 0.07575401 0.0009199908)
(-1.168639 0.2104307 -0.002074216)
(-1.040833 0.2726432 -0.01167523)
(-0.9479749 0.309386 -0.01442994)
(-0.8720542 0.3340242 -0.01577333)
(-0.8113194 0.3505183 -0.01677163)
(-1.101081 0.06235992 0.00195306)
(-1.010936 0.2133693 0.007555037)
(-0.9557973 0.2968452 0.008043772)
(-0.8939906 0.3511286 0.01037101)
(-0.838964 0.3860882 0.01127706)
(-0.7883663 0.4089668 0.01188047)
(-0.9956655 0.03020175 0.002311668)
(-0.9575813 0.1266777 0.003794635)
(-0.910262 0.1895678 0.000409214)
(-0.8599462 0.236784 0.001112842)
(-0.8116582 0.2751588 -0.0002755528)
(-0.766822 0.3049399 -2.481115e-05)
(-0.9027544 0.02548347 0.001926799)
(-0.8757915 0.1167795 0.00544045)
(-0.8491897 0.1773476 0.00243057)
(-0.8135975 0.2243542 0.002633952)
(-0.7787612 0.2643633 0.00209314)
(-0.7415715 0.2931866 0.001747976)
(-0.8375883 0.01841168 0.001544922)
(-0.8228701 0.08785423 0.00407918)
(-0.8015374 0.1383275 0.0005968642)
(-0.7739796 0.1810963 0.0008384566)
(-0.7447218 0.2176718 0.0001895851)
(-0.7140818 0.2479476 0.0002919546)
(-0.7820584 0.01540721 0.00134325)
(-0.7708428 0.07656274 0.003773732)
(-0.7562452 0.1219674 0.0006387673)
(-0.7348957 0.1616018 0.001165419)
(-0.7117407 0.1963175 0.000592554)
(-0.6865215 0.2256504 0.0006782407)
(-0.7362389 0.01277907 0.001170147)
(-0.727959 0.06461815 0.003367579)
(-0.7167713 0.1043425 0.0002682835)
(-0.6995968 0.1400629 0.0007053939)
(-0.6806755 0.1721303 0.0001333952)
(-0.6595565 0.2002717 0.0002086544)
(-0.6962193 0.01098916 0.001052856)
(-0.6895439 0.05671491 0.003187532)
(-0.6810047 0.09224655 0.0002444782)
(-0.6670063 0.1248027 0.0006742932)
(-0.6514567 0.1545555 0.0001371596)
(-0.6336809 0.1812159 0.0002050158)
(-0.6610757 0.00956628 0.0009540486)
(-0.6555921 0.05007176 0.003021792)
(-0.64886 0.08192329 0.0001954041)
(-0.6372221 0.1115344 0.0005882237)
(-0.6242412 0.1390108 6.226807e-05)
(-0.6091128 0.1640763 0.0001105815)
(-0.6297383 0.008447208 0.0008732457)
(-0.625089 0.04478616 0.002893805)
(-0.6196914 0.07358366 0.0001870998)
(-0.6098551 0.1006514 0.0005504449)
(-0.5988831 0.126067 4.524534e-05)
(-0.585889 0.1495727 8.30375e-05)
(-0.6015392 0.007534903 0.0008046959)
(-0.5975178 0.04038422 0.00278297)
(-0.5931196 0.06656695 0.0001840678)
(-0.5846805 0.0913884 0.0005181855)
(-0.5752939 0.1149161 3.302129e-05)
(-0.5640243 0.1369093 5.95215e-05)
(-0.5759704 0.006779561 0.0007458573)
(-0.5724274 0.03667626 0.002683234)
(-0.5687933 0.06061106 0.0001853204)
(-0.5614542 0.08345431 0.0004940293)
(-0.5533375 0.1052725 2.670878e-05)
(-0.5434748 0.1258409 4.461051e-05)
(-0.552641 0.006142869 0.0006929146)
(-0.5494688 0.03350247 0.002591669)
(-0.5464312 0.05548179 0.0001889709)
(-0.5399713 0.07657142 0.0004765536)
(-0.5328848 0.09683942 2.306992e-05)
(-0.5241802 0.1160796 3.511985e-05)
(-0.5312434 0.005597769 0.0006449647)
(-0.5283652 0.03075099 0.002505698)
(-0.5258009 0.05101304 0.0001955726)
(-0.5200529 0.07053972 0.000459987)
(-0.513809 0.0894003 1.964152e-05)
(-0.5060666 0.1074086 2.904154e-05)
(-0.5115291 0.005124853 0.0006014186)
(-0.5088909 0.02833926 0.002425644)
(-0.5067075 0.0470805 0.0002018289)
(-0.5015438 0.0652069 0.0004371744)
(-0.4959968 0.08278516 1.588273e-05)
(-0.489059 0.09965302 2.519942e-05)
(-0.4933022 0.004710952 0.0005619846)
(-0.4908618 0.02620372 0.0023501)
(-0.4889886 0.04358769 0.0002066651)
(-0.4843107 0.06045136 0.0004082099)
(-0.4793448 0.07685896 1.309416e-05)
(-0.4730869 0.09267105 2.056106e-05)
(-0.4764009 0.004345297 0.0005261302)
(-0.4741252 0.02429626 0.002279935)
(-0.4725076 0.04045958 0.0002115422)
(-0.468238 0.05617575 0.0003955396)
(-0.4637604 0.07151168 1.339884e-05)
(-0.4580818 0.0863441 1.652285e-05)
(-0.4606907 0.004019328 0.0004936166)
(-0.4585535 0.02257873 0.002214768)
(-0.4571494 0.03763627 0.0002171417)
(-0.4532259 0.05230633 0.0003979201)
(-0.449161 0.06665759 1.452109e-05)
(-0.4439784 0.08057872 1.160723e-05)
(-0.4460577 0.003726639 0.0004638672)
(-0.4440394 0.02102149 0.002153531)
(-0.4428147 0.03507064 0.0002218447)
(-0.439187 0.04878139 0.0004002812)
(-0.4354736 0.06222285 1.457409e-05)
(-0.4307184 0.07529539 6.890676e-06)
(-0.4324046 0.003461572 0.0004367073)
(-0.4304915 0.01960031 0.00209566)
(-0.4294188 0.03272447 0.0002254732)
(-0.4260448 0.04555209 0.0004003481)
(-0.4226327 0.05815194 1.447915e-05)
(-0.4182468 0.07043089 2.639347e-06)
(-0.419651 0.003219901 0.0004111848)
(-0.4178311 0.01829554 0.002040455)
(-0.416888 0.03056708 0.0002275128)
(-0.4137335 0.042576 0.0003962771)
(-0.4105818 0.05439166 1.351276e-05)
(-0.4065165 0.06592751 -9.792305e-07)
(-0.4077302 0.002999247 0.0003875642)
(-0.4059909 0.01709089 0.001988061)
(-0.4051584 0.02857308 0.0002291304)
(-0.4021949 0.03982125 0.0003927224)
(-0.3992694 0.05090581 1.471314e-05)
(-0.3954823 0.06174265 -3.627051e-06)
(-0.3959998 0.002607354 0.0003064458)
(-0.3949122 0.01597334 0.001935278)
(-0.3941739 0.02672155 0.0002293837)
(-0.3913784 0.03726011 0.0003871061)
(-0.3886503 0.04765888 6.380777e-06)
(-0.3851081 0.05783805 -7.736886e-06)
(-1.115532 0.3669853 -0.007290717)
(-0.9451411 0.4039112 -0.0003928813)
(-0.8450163 0.4087337 0.0003947176)
(-0.7731217 0.4150473 0.000463629)
(-0.7145056 0.4175443 0.0004382798)
(-1.321768 0.07300806 -0.0007312759)
(-1.179211 0.2085317 -0.007129346)
(-1.043674 0.2695701 -0.01125248)
(-0.9492084 0.3079386 -0.01275101)
(-0.8724408 0.3330602 -0.01282562)
(-0.8113922 0.3500214 -0.01243324)
(-1.103069 0.06317996 0.0003096774)
(-1.007796 0.2165691 0.000730411)
(-0.9531879 0.2896903 0.001480886)
(-0.8917415 0.3435715 0.003223605)
(-0.8367672 0.3798225 0.004184111)
(-0.7863127 0.4031421 0.004240779)
(-0.9990872 0.03042233 0.000266268)
(-0.9577741 0.1255718 -0.002066216)
(-0.906384 0.1863533 0.0008272038)
(-0.8579952 0.2349471 0.001422096)
(-0.8100309 0.2743952 0.001231858)
(-0.7657157 0.3042462 0.0009881812)
(-0.9049081 0.02584164 0.0003906062)
(-0.8746088 0.1155242 -0.0006132999)
(-0.8463411 0.1753976 0.0006509003)
(-0.8141189 0.2257311 0.00111747)
(-0.7774891 0.263434 0.001555265)
(-0.7413299 0.2933358 0.001698762)
(-0.8398042 0.01826663 0.0002464729)
(-0.8233426 0.08769709 -0.0004457225)
(-0.8004623 0.1376899 7.356848e-05)
(-0.7740915 0.1804606 -0.0002890902)
(-0.7440538 0.2167753 0.0001302132)
(-0.7138593 0.2469979 7.037671e-05)
(-0.7844278 0.01537738 0.0001829098)
(-0.771386 0.07674193 -0.0007804914)
(-0.7548835 0.1219013 5.599572e-05)
(-0.734809 0.1618951 -9.738834e-05)
(-0.7111414 0.1963164 0.0001991845)
(-0.6862259 0.2257323 0.0003030444)
(-0.7382654 0.01272526 0.0001368914)
(-0.7285722 0.06482226 -0.0008618385)
(-0.7155592 0.1043325 -0.0001341244)
(-0.6996053 0.1400785 -0.0003358386)
(-0.6802074 0.1719954 -0.0001265963)
(-0.6593319 0.2000824 -7.675948e-05)
(-0.6980703 0.01096201 0.0001131774)
(-0.690133 0.05694787 -0.0008620565)
(-0.6798208 0.09234425 -0.000142767)
(-0.6670172 0.124946 -0.0003238149)
(-0.6510386 0.1546099 -0.0001412885)
(-0.6334805 0.1812358 -9.517381e-05)
(-0.6627076 0.009542754 9.70726e-05)
(-0.6561666 0.05028246 -0.0008389615)
(-0.6477296 0.08201637 -0.0001499885)
(-0.6372518 0.1116471 -0.0003333385)
(-0.6238738 0.139057 -0.0001740769)
(-0.6089547 0.1640819 -0.0001471923)
(-0.6311899 0.008427729 8.492772e-05)
(-0.6256457 0.04497803 -0.0008088871)
(-0.6185986 0.07367857 -0.0001380693)
(-0.6098893 0.1007668 -0.0003177934)
(-0.5985487 0.1261328 -0.0001685331)
(-0.5857623 0.1496047 -0.0001552976)
(-0.6028332 0.007517998 7.457056e-05)
(-0.5980588 0.04055813 -0.0007774861)
(-0.5920611 0.06665429 -0.0001222661)
(-0.5847182 0.09149323 -0.0002988249)
(-0.5749871 0.1149793 -0.0001570691)
(-0.5639268 0.1369472 -0.0001568852)
(-0.5771259 0.006763063 6.521616e-05)
(-0.5729532 0.03683443 -0.0007478064)
(-0.5677655 0.06068986 -0.0001062905)
(-0.5614926 0.08354939 -0.0002789089)
(-0.5530499 0.105331 -0.000142581)
(-0.5433979 0.1258835 -0.0001487105)
(-0.5536732 0.006126519 5.710873e-05)
(-0.5499812 0.03364749 -0.0007199417)
(-0.5454325 0.05555247 -9.135103e-05)
(-0.5400098 0.07665807 -0.0002609387)
(-0.5326106 0.09689285 -0.0001292654)
(-0.5241178 0.1161222 -0.0001382201)
(-0.5321644 0.005581946 4.990339e-05)
(-0.5288653 0.03088452 -0.0006938962)
(-0.5248289 0.05107679 -7.779609e-05)
(-0.5200909 0.07061985 -0.0002435867)
(-0.5135466 0.08944909 -0.0001174055)
(-0.506014 0.1074492 -0.000127637)
(-0.5123537 0.005109998 4.342133e-05)
(-0.5093795 0.02846231 -0.0006699551)
(-0.50576 0.04713814 -6.559494e-05)
(-0.5015805 0.06528015 -0.0002271285)
(-0.495745 0.08282935 -0.0001054031)
(-0.4890145 0.09969044 -0.0001159125)
(-0.4940411 0.004696789 3.763678e-05)
(-0.4913399 0.02631731 -0.0006480158)
(-0.4880645 0.04363912 -5.505691e-05)
(-0.4843464 0.06051675 -0.0002128655)
(-0.4791026 0.07689871 -9.501421e-05)
(-0.4730467 0.09270464 -0.0001060357)
(-0.4770635 0.004331528 3.237531e-05)
(-0.4745941 0.02440119 -0.0006276905)
(-0.4716069 0.04050512 -4.630878e-05)
(-0.4682723 0.05623375 -0.0002011282)
(-0.4635255 0.07154704 -8.65521e-05)
(-0.458043 0.08637462 -9.774017e-05)
(-0.4612846 0.004006102 2.771793e-05)
(-0.4590146 0.02267628 -0.0006088738)
(-0.4562714 0.03767715 -3.89284e-05)
(-0.453258 0.05235858 -0.0001903459)
(-0.4489321 0.06669011 -7.863108e-05)
(-0.4439398 0.08060709 -9.029915e-05)
(-0.44659 0.003713713 2.355538e-05)
(-0.4444933 0.02111245 -0.0005914605)
(-0.4419585 0.03510813 -3.276443e-05)
(-0.4392167 0.04883004 -0.0001805485)
(-0.4352496 0.06225284 -7.172309e-05)
(-0.4306792 0.07532113 -8.409522e-05)
(-0.4328836 0.003449258 1.98743e-05)
(-0.4309384 0.01968547 -0.0005749438)
(-0.428583 0.03275948 -2.696067e-05)
(-0.4260727 0.04559708 -0.0001710128)
(-0.4224142 0.05817895 -6.483336e-05)
(-0.4182077 0.07045478 -7.858348e-05)
(-0.420083 0.003208343 1.638013e-05)
(-0.4182719 0.01837563 -0.0005592723)
(-0.4160718 0.03059981 -2.129193e-05)
(-0.4137597 0.04261854 -0.0001617156)
(-0.4103679 0.05441649 -5.806681e-05)
(-0.4064766 0.06595027 -7.416695e-05)
(-0.4081175 0.002987782 1.353497e-05)
(-0.4064258 0.01716656 -0.000544158)
(-0.4043603 0.02860271 -1.570773e-05)
(-0.4022187 0.03986006 -0.0001528748)
(-0.3990587 0.05092743 -5.0619e-05)
(-0.3954417 0.06176486 -6.981094e-05)
(-0.3958907 0.002592685 -4.908809e-05)
(-0.3953417 0.01604309 -0.0005296522)
(-0.3933933 0.02674629 -9.681872e-06)
(-0.3913995 0.0372932 -0.000143998)
(-0.3884418 0.04767548 -4.22269e-05)
(-0.3850633 0.05785714 -6.852336e-05)
(-1.112642 0.3734743 -0.001455627)
(-0.9465913 0.397866 0.0002399376)
(-0.8452467 0.4087681 0.0001544002)
(-0.773258 0.4155057 0.0001101622)
(-0.7148332 0.4184567 7.637088e-05)
(-1.319396 0.07274532 -0.00012309)
(-1.180522 0.210766 0.0002159176)
(-1.045515 0.2705102 -0.0006608782)
(-0.9499416 0.3093252 -0.0007153525)
(-0.8728237 0.3341724 -0.0006074629)
(-0.8115531 0.3509305 -0.0004794867)
(-1.101456 0.0626394 0.0003090175)
(-1.00638 0.2156465 0.0008682173)
(-0.9521211 0.2894491 0.0003963802)
(-0.8925532 0.3347158 0.0001136747)
(-0.8367742 0.3694704 6.451879e-05)
(-0.7857949 0.3959419 0.0001575921)
(-0.9978517 0.03075941 0.0003497559)
(-0.9561158 0.1246066 0.0013416)
(-0.9050249 0.1855708 0.0008603943)
(-0.8564369 0.2346388 0.0008838824)
(-0.8099253 0.2726119 0.000575107)
(-0.7661627 0.3014228 0.0004263296)
(-0.9034045 0.02599312 0.0003812852)
(-0.8733325 0.1119586 0.0008453895)
(-0.8473531 0.1759931 0.0006208307)
(-0.8138159 0.2241336 0.000944819)
(-0.7778809 0.2622662 0.0006625492)
(-0.741677 0.2925207 0.0007312349)
(-0.8383995 0.01810081 0.0003194283)
(-0.8228462 0.0871723 0.001442241)
(-0.8011464 0.1372542 0.0002754567)
(-0.7739533 0.1799042 0.0005964958)
(-0.7444079 0.2160965 0.0002296199)
(-0.7140403 0.2462473 0.0002599849)
(-0.7833635 0.01527646 0.0002488257)
(-0.7708761 0.0762031 0.001111056)
(-0.7553259 0.1218134 0.0003274609)
(-0.7347692 0.1615998 0.0005220867)
(-0.7113999 0.1960827 0.0002587083)
(-0.6863198 0.2255087 0.0002692193)
(-0.7373414 0.01267143 0.0002147708)
(-0.7281528 0.06460309 0.001008405)
(-0.7160293 0.1042064 0.0002572916)
(-0.6996173 0.1398857 0.0004201257)
(-0.6804833 0.1718126 0.000171709)
(-0.6594347 0.1998816 0.000167855)
(-0.6972348 0.0109238 0.0001940198)
(-0.6897503 0.05679705 0.0009300569)
(-0.6802648 0.09229149 0.0002357476)
(-0.66704 0.1248575 0.0003847903)
(-0.6513006 0.1545411 0.0001554974)
(-0.6335768 0.1811597 0.0001515661)
(-0.6619375 0.009513994 0.0001807706)
(-0.6558142 0.05017883 0.0008784572)
(-0.6481652 0.08198387 0.0002162976)
(-0.6372846 0.1115896 0.0003545161)
(-0.6241303 0.1390138 0.00013587)
(-0.60905 0.16403 0.0001289613)
(-0.6304688 0.00840446 0.0001718749)
(-0.6253136 0.04489571 0.0008365838)
(-0.6190209 0.0736626 0.0002038353)
(-0.6099261 0.1007321 0.0003343483)
(-0.5987966 0.126114 0.0001258495)
(-0.5858541 0.1495795 0.0001194196)
(-0.602151 0.007498338 0.0001647387)
(-0.5977419 0.04048911 0.0008015197)
(-0.5924711 0.06664567 0.0001946784)
(-0.5847575 0.09146962 0.000317425)
(-0.5752269 0.1149697 0.000117904)
(-0.5640152 0.1369312 0.0001117278)
(-0.5764766 0.006745722 0.0001584861)
(-0.5726487 0.03677375 0.0007703313)
(-0.568163 0.06068535 0.0001870977)
(-0.5615335 0.08353209 0.0003030192)
(-0.5532816 0.1053262 0.0001115695)
(-0.5434835 0.1258735 0.0001049338)
(-0.5530528 0.006110944 0.0001529339)
(-0.5496873 0.03359287 0.0007420202)
(-0.5458172 0.05555018 0.0001807718)
(-0.5400517 0.07664438 0.0002911666)
(-0.5328357 0.0968902 0.0001067742)
(-0.5242009 0.116115 0.0001002826)
(-0.5315718 0.005567599 0.000147671)
(-0.5285804 0.03083471 0.0007160715)
(-0.525202 0.05107573 0.0001753673)
(-0.5201341 0.07060777 0.0002804132)
(-0.5137648 0.08944744 0.0001024225)
(-0.5060953 0.1074441 9.628093e-05)
(-0.511786 0.005096961 0.0001426836)
(-0.509103 0.02841623 0.0006920779)
(-0.5061224 0.04713745 0.0001704626)
(-0.501625 0.06526883 0.0002696228)
(-0.4959562 0.08282857 9.780487e-05)
(-0.4890934 0.09968648 9.17477e-05)
(-0.4934963 0.004684836 0.0001380602)
(-0.4910714 0.0262747 0.0006697071)
(-0.4884171 0.04363887 0.0001659022)
(-0.4843917 0.06050712 0.0002592629)
(-0.4793069 0.0768986 9.358874e-05)
(-0.4731238 0.09270089 8.73257e-05)
(-0.4765395 0.004320401 0.0001337788)
(-0.4743327 0.02436176 0.0006487671)
(-0.4719494 0.04050532 0.0001615814)
(-0.4683182 0.05622658 0.0002508344)
(-0.4637248 0.07154756 9.038448e-05)
(-0.4581192 0.086371 8.353346e-05)
(-0.4607802 0.003995696 0.0001297859)
(-0.4587597 0.02263967 0.0006291588)
(-0.4566035 0.03767763 0.0001576544)
(-0.4533046 0.05235347 0.0002437703)
(-0.4491277 0.06669072 8.774077e-05)
(-0.4440154 0.08060294 8.018541e-05)
(-0.4461037 0.003704023 0.000126128)
(-0.4442445 0.02107835 0.0006107107)
(-0.4422809 0.03510893 0.0001536294)
(-0.4392642 0.04882588 0.0002367641)
(-0.4354423 0.06225447 8.465132e-05)
(-0.4307541 0.07531778 7.659378e-05)
(-0.4324145 0.003440102 0.0001226191)
(-0.4306953 0.01965396 0.0005931008)
(-0.4288961 0.03276092 0.00014946)
(-0.4261205 0.04559415 0.0002298311)
(-0.4226043 0.05818146 8.134581e-05)
(-0.4182827 0.07045098 7.313191e-05)
(-0.41963 0.00319975 0.0001191756)
(-0.4180337 0.01834662 0.0005758527)
(-0.416376 0.03060231 0.0001444872)
(-0.4138076 0.04261718 0.0002215177)
(-0.4105568 0.05442226 7.665561e-05)
(-0.4065536 0.06594645 6.895938e-05)
(-0.4076802 0.0029796 0.0001163569)
(-0.4061918 0.01713982 0.0005588068)
(-0.4046561 0.02860719 0.0001385189)
(-0.4022658 0.03986044 0.0002125702)
(-0.3992468 0.05093695 7.174277e-05)
(-0.3955204 0.06175817 6.579432e-05)
(-0.3954941 0.002589204 0.0001044859)
(-0.3951097 0.01601868 0.000541292)
(-0.3936809 0.02675316 0.0001310111)
(-0.391445 0.03729491 0.0002019541)
(-0.3886323 0.04769246 6.257365e-05)
(-0.3851533 0.05784801 6.21932e-05)
(-1.110811 0.3726679 0.000344418)
(-0.9418848 0.4150721 -0.0007760419)
(-0.844429 0.4368979 -0.0009608817)
(-0.7746693 0.4463997 -0.0008023243)
(-0.7170911 0.4500819 -0.0006845186)
(-1.320085 0.07259274 -3.690601e-05)
(-1.179663 0.2105453 0.002090653)
(-1.044475 0.2711606 0.005827612)
(-0.9488894 0.3098989 0.007618673)
(-0.8724361 0.3349991 0.008715698)
(-0.8115357 0.351865 0.008812394)
(-1.101881 0.06253445 -6.928083e-06)
(-1.007982 0.2141978 -0.001448907)
(-0.953333 0.2874288 -0.001099948)
(-0.8923384 0.3386006 -0.001194646)
(-0.8368868 0.3757073 -0.00158072)
(-0.7861708 0.3998506 -0.00162456)
(-0.998174 0.03082613 -6.91531e-06)
(-0.9567496 0.1247399 -0.001097217)
(-0.9061627 0.1854751 -0.00147425)
(-0.8579932 0.2338844 -0.002268384)
(-0.8104124 0.2732652 -0.001964068)
(-0.7661502 0.3021796 -0.00164898)
(-0.9036262 0.02611284 -4.74474e-05)
(-0.8734692 0.1123163 -0.001016786)
(-0.8473801 0.1761168 -0.001018849)
(-0.8139503 0.2246746 -0.00130219)
(-0.7780473 0.2634004 -0.001206235)
(-0.7413393 0.2929417 -0.001190569)
(-0.8386036 0.01798958 -3.688385e-05)
(-0.822966 0.08726875 -0.001550303)
(-0.8012205 0.1373534 -0.0004708397)
(-0.7740697 0.1800293 -0.0008167295)
(-0.7444136 0.216369 -0.0004869997)
(-0.7139484 0.2465096 -0.0004443847)
(-0.7835113 0.01527018 -2.129481e-05)
(-0.7709453 0.07628603 -0.001200679)
(-0.7553727 0.1218985 -0.0004743882)
(-0.7348186 0.1617327 -0.0006843647)
(-0.7114241 0.1962645 -0.0004487251)
(-0.6863169 0.2256395 -0.0004559544)
(-0.7374577 0.01266916 -1.35688e-05)
(-0.7281914 0.06464084 -0.001053642)
(-0.7160558 0.1042575 -0.0003318429)
(-0.699641 0.1399542 -0.0005075798)
(-0.6804939 0.1718991 -0.0002713284)
(-0.659435 0.1999665 -0.000268221)
(-0.6973312 0.01092159 -9.854674e-06)
(-0.6897725 0.05681756 -0.0009620719)
(-0.680281 0.09232008 -0.0002879988)
(-0.6670534 0.1248952 -0.000447455)
(-0.6513076 0.1545856 -0.0002281245)
(-0.6335802 0.1812036 -0.0002283597)
(-0.6620197 0.009511416 -7.52425e-06)
(-0.6558263 0.05018967 -0.0008981837)
(-0.6481746 0.08200025 -0.0002486357)
(-0.6372925 0.111611 -0.0003940745)
(-0.6241347 0.1390385 -0.0001826144)
(-0.6090533 0.1640556 -0.0001800726)
(-0.6305408 0.008402061 -6.435158e-06)
(-0.6253207 0.04490138 -0.0008498501)
(-0.6190267 0.07367154 -0.000225967)
(-0.6099309 0.1007435 -0.0003617353)
(-0.5987994 0.1261273 -0.0001587868)
(-0.5858566 0.1495936 -0.0001559729)
(-0.6022142 0.007496225 -5.783567e-06)
(-0.5977466 0.04049223 -0.0008104991)
(-0.5924748 0.06665066 -0.0002097833)
(-0.5847606 0.09147601 -0.0003362376)
(-0.5752288 0.1149773 -0.0001410262)
(-0.5640171 0.1369393 -0.0001376164)
(-0.5765328 0.00674349 -5.424015e-06)
(-0.5726517 0.03677551 -0.0007765548)
(-0.5681654 0.06068811 -0.0001977159)
(-0.5615357 0.08353565 -0.0003163373)
(-0.5532829 0.1053306 -0.0001279988)
(-0.5434847 0.1258783 -0.000123524)
(-0.5531031 0.006108652 -5.240749e-06)
(-0.5496894 0.03359389 -0.0007464019)
(-0.545819 0.05555192 -0.0001883442)
(-0.5400534 0.07664656 -0.0003004939)
(-0.5328364 0.09689292 -0.000118316)
(-0.5242016 0.1161181 -0.0001136446)
(-0.5316168 0.005565615 -5.200901e-06)
(-0.528582 0.03083532 -0.0007191907)
(-0.5252033 0.0510768 -0.0001808978)
(-0.5201353 0.0706093 -0.0002871941)
(-0.5137653 0.08944948 -0.0001106445)
(-0.5060956 0.1074462 -0.0001058941)
(-0.5118266 0.005095166 -5.132907e-06)
(-0.5091042 0.02841659 -0.0006944026)
(-0.5061233 0.04713814 -0.0001746215)
(-0.5016257 0.06526988 -0.0002748489)
(-0.4959564 0.08283001 -0.000103971)
(-0.4890935 0.099688 -9.870093e-05)
(-0.4935331 0.004683172 -5.102875e-06)
(-0.4910723 0.02627483 -0.0006714863)
(-0.4884178 0.04363921 -0.0001690668)
(-0.4843922 0.06050752 -0.0002630877)
(-0.4793069 0.07689955 -9.792409e-05)
(-0.4731234 0.09270202 -9.22353e-05)
(-0.476573 0.004318865 -5.112494e-06)
(-0.4743338 0.0243616 -0.0006503521)
(-0.47195 0.04050531 -0.0001643013)
(-0.4683183 0.0562266 -0.0002541161)
(-0.4637244 0.07154839 -9.377297e-05)
(-0.458118 0.08637219 -8.718168e-05)
(-0.4608109 0.003994236 -5.094458e-06)
(-0.4587609 0.02263906 -0.0006306547)
(-0.4566041 0.03767696 -0.0001600301)
(-0.4533043 0.05235283 -0.0002466863)
(-0.4491266 0.06669109 -9.007987e-05)
(-0.444013 0.08060409 -8.279024e-05)
(-0.446132 0.00370253 -5.114614e-06)
(-0.444246 0.02107707 -0.0006124669)