/*--------------------------------*- C++ -*----------------------------------*\
  =========                 |
  \\      /  F ield         | OpenFOAM: The Open Source CFD Toolbox
   \\    /   O peration     | Website:  https://openfoam.org
    \\  /    A nd           | Version:  7
     \\/     M anipulation  |
\*---------------------------------------------------------------------------*/
FoamFile
{
    version     2.0;
    format      ascii;
    class       volScalarField;
    location    "0.04";
    object      k;
}
// * * * * * * * * * * * * * * * * * * * * * * * * * * * * * * * * * * * * * //

dimensions      [0 2 -2 0 0 0 0];

internalField   nonuniform List<scalar> 
105056
(
0.003727425
0.003727132
0.003727394
0.003727716
0.003728059
0.003727099
0.003726188
0.003726361
0.003726664
0.003726998
0.003727362
0.003726359
0.003726472
0.003726734
0.003727043
0.003727688
0.003726662
0.003726733
0.003726962
0.00372724
0.003728032
0.003726993
0.003727038
0.003727236
0.003727489
0.00372837
0.003727329
0.003727362
0.003727535
0.003727763
0.003728707
0.003727673
0.003727701
0.003727853
0.00372806
0.003729048
0.003728029
0.00372805
0.003728185
0.003728373
0.003729395
0.003728395
0.003728405
0.003728528
0.003728699
0.003729746
0.003728768
0.003728762
0.003728879
0.003729037
0.003730101
0.003729147
0.00372913
0.003729237
0.003729384
0.003730461
0.003729529
0.003729499
0.003729603
0.003729739
0.003730823
0.003729916
0.003729873
0.003729974
0.003730102
0.003731188
0.003730308
0.003730256
0.00373035
0.003730471
0.003731556
0.003730705
0.003730643
0.003730738
0.003730847
0.003731926
0.003731106
0.003731037
0.003731121
0.003731229
0.003732299
0.003731511
0.003731442
0.003731509
0.003731619
0.003732676
0.003731921
0.00373185
0.003731905
0.003732021
0.003733057
0.003732335
0.003732263
0.003732309
0.003732422
0.003733443
0.003732752
0.003732681
0.003732719
0.003732822
0.003733834
0.003733175
0.003733108
0.003733136
0.003733228
0.00373423
0.003733606
0.003733544
0.003733561
0.003733646
0.003607065
0.003734047
0.00373399
0.003733998
0.003734077
0.003725094
0.003725469
0.003725842
0.003726211
0.003726582
0.003725168
0.003606396
0.003606399
0.003606405
0.003606412
0.003606418
0.003725502
0.003606404
0.003606407
0.003606413
0.003606419
0.003606425
0.003725876
0.003606413
0.003606416
0.003606422
0.003606428
0.003606434
0.003726249
0.003606422
0.003606425
0.003606431
0.003606436
0.003606442
0.003726624
0.003606431
0.003606434
0.003606439
0.003606445
0.003606451
0.003727003
0.00360644
0.003606442
0.003606448
0.003606454
0.00360646
0.003727382
0.003606449
0.003606451
0.003606457
0.003606463
0.003606468
0.003727759
0.003606458
0.00360646
0.003606466
0.003606472
0.003606477
0.003728138
0.003606467
0.003606469
0.003606475
0.003606481
0.003606487
0.003728515
0.003606476
0.003606479
0.003606484
0.00360649
0.003606496
0.0037289
0.003606485
0.003606488
0.003606494
0.003606499
0.003606505
0.003729287
0.003606495
0.003606497
0.003606503
0.003606509
0.003606514
0.003729676
0.003606504
0.003606506
0.003606512
0.003606518
0.003606524
0.003730067
0.003606514
0.003606516
0.003606522
0.003606528
0.003606534
0.003730463
0.003606523
0.003606526
0.003606532
0.003606537
0.003606543
0.003730861
0.003606533
0.003606535
0.003606541
0.003606547
0.003606553
0.003731264
0.003606543
0.003606545
0.003606551
0.003606557
0.003606563
0.003731671
0.003606553
0.003606555
0.003606561
0.003606567
0.003606573
0.003732083
0.003606564
0.003606565
0.003606571
0.003606577
0.003606583
0.003732499
0.003606574
0.003606575
0.003606582
0.003606588
0.003606594
0.003732919
0.003606585
0.003606586
0.003606592
0.003606598
0.003606604
0.003733344
0.003606595
0.003606596
0.003606603
0.003606609
0.003606615
0.003733963
0.003606605
0.003606606
0.003606613
0.003606619
0.003606626
0.00372516
0.003725521
0.003725905
0.003726286
0.003726664
0.003725233
0.003606396
0.003606399
0.003606404
0.00360641
0.003606416
0.003725551
0.003606404
0.003606407
0.003606412
0.003606418
0.003606424
0.003725933
0.003606412
0.003606415
0.003606421
0.003606427
0.003606432
0.003726315
0.00360642
0.003606424
0.003606429
0.003606435
0.003606441
0.003726697
0.003606429
0.003606432
0.003606438
0.003606444
0.003606449
0.00372708
0.003606438
0.003606441
0.003606447
0.003606452
0.003606458
0.003727463
0.003606447
0.003606449
0.003606455
0.003606461
0.003606466
0.003727845
0.003606455
0.003606458
0.003606464
0.00360647
0.003606475
0.003728229
0.003606464
0.003606467
0.003606473
0.003606478
0.003606484
0.003728615
0.003606473
0.003606476
0.003606482
0.003606487
0.003606493
0.003729004
0.003606482
0.003606485
0.003606491
0.003606496
0.003606502
0.003729396
0.003606491
0.003606494
0.0036065
0.003606506
0.003606511
0.003729792
0.0036065
0.003606503
0.003606509
0.003606515
0.003606521
0.003730191
0.003606509
0.003606512
0.003606518
0.003606524
0.00360653
0.003730594
0.003606519
0.003606522
0.003606528
0.003606534
0.003606539
0.003731001
0.003606528
0.003606531
0.003606537
0.003606543
0.003606549
0.003731411
0.003606538
0.003606541
0.003606547
0.003606553
0.003606559
0.003731825
0.003606548
0.003606551
0.003606557
0.003606563
0.003606569
0.003732244
0.003606558
0.00360656
0.003606567
0.003606573
0.003606579
0.003732666
0.003606568
0.00360657
0.003606577
0.003606583
0.003606589
0.003733093
0.003606578
0.00360658
0.003606587
0.003606593
0.003606599
0.003733525
0.003606588
0.003606591
0.003606597
0.003606603
0.00360661
0.003733962
0.003606599
0.003606601
0.003606607
0.003606614
0.00360662
0.003725165
0.003725529
0.003725916
0.003726297
0.003726674
0.003725237
0.003606396
0.003606399
0.003606404
0.00360641
0.003606416
0.003725559
0.003606404
0.003606407
0.003606412
0.003606418
0.003606424
0.003725944
0.003606412
0.003606415
0.003606421
0.003606427
0.003606432
0.003726327
0.00360642
0.003606424
0.003606429
0.003606435
0.003606441
0.003726709
0.003606429
0.003606432
0.003606438
0.003606444
0.003606449
0.003727094
0.003606438
0.003606441
0.003606447
0.003606452
0.003606458
0.003727479
0.003606446
0.00360645
0.003606455
0.003606461
0.003606466
0.003727865
0.003606455
0.003606458
0.003606464
0.00360647
0.003606475
0.00372825
0.003606464
0.003606467
0.003606473
0.003606479
0.003606484
0.003728636
0.003606473
0.003606476
0.003606482
0.003606487
0.003606493
0.003729024
0.003606482
0.003606485
0.003606491
0.003606497
0.003606502
0.003729418
0.003606491
0.003606494
0.0036065
0.003606506
0.003606511
0.003729815
0.0036065
0.003606503
0.003606509
0.003606515
0.003606521
0.003730215
0.003606509
0.003606512
0.003606518
0.003606524
0.00360653
0.003730619
0.003606519
0.003606522
0.003606528
0.003606534
0.003606539
0.003731026
0.003606528
0.003606531
0.003606537
0.003606543
0.003606549
0.003731434
0.003606538
0.003606541
0.003606547
0.003606553
0.003606559
0.00373185
0.003606547
0.003606551
0.003606557
0.003606563
0.003606569
0.003732269
0.003606557
0.00360656
0.003606567
0.003606573
0.003606579
0.003732694
0.003606567
0.00360657
0.003606577
0.003606583
0.003606589
0.003733121
0.003606577
0.00360658
0.003606587
0.003606593
0.003606599
0.003733553
0.003606588
0.003606591
0.003606597
0.003606603
0.00360661
0.00373399
0.003606598
0.003606601
0.003606607
0.003606614
0.00360662
0.003725166
0.00372553
0.003725918
0.003726299
0.003726676
0.003725238
0.003606396
0.003606399
0.003606404
0.00360641
0.003606416
0.003725561
0.003606404
0.003606407
0.003606412
0.003606418
0.003606424
0.003725947
0.003606412
0.003606415
0.003606421
0.003606427
0.003606432
0.00372633
0.00360642
0.003606424
0.003606429
0.003606435
0.003606441
0.003726711
0.003606429
0.003606432
0.003606438
0.003606444
0.003606449
0.003727097
0.003606438
0.003606441
0.003606446
0.003606452
0.003606458
0.003727481
0.003606446
0.003606449
0.003606455
0.003606461
0.003606466
0.003727867
0.003606455
0.003606458
0.003606464
0.00360647
0.003606475
0.003728253
0.003606464
0.003606467
0.003606473
0.003606479
0.003606484
0.003728638
0.003606473
0.003606476
0.003606482
0.003606487
0.003606493
0.003729026
0.003606482
0.003606485
0.003606491
0.003606496
0.003606502
0.00372942
0.003606491
0.003606494
0.0036065
0.003606506
0.003606511
0.003729817
0.0036065
0.003606503
0.003606509
0.003606515
0.003606521
0.003730217
0.003606509
0.003606512
0.003606518
0.003606524
0.00360653
0.00373062
0.003606519
0.003606522
0.003606528
0.003606534
0.003606539
0.003731028
0.003606528
0.003606531
0.003606537
0.003606543
0.003606549
0.003731435
0.003606538
0.003606541
0.003606547
0.003606553
0.003606559
0.00373185
0.003606547
0.003606551
0.003606557
0.003606563
0.003606569
0.003732269
0.003606557
0.00360656
0.003606567
0.003606573
0.003606579
0.003732692
0.003606567
0.00360657
0.003606576
0.003606583
0.003606589
0.003733119
0.003606577
0.00360658
0.003606587
0.003606593
0.003606599
0.00373355
0.003606587
0.00360659
0.003606597
0.003606603
0.003606609
0.003733986
0.003606598
0.003606601
0.003606607
0.003606614
0.00360662
0.003725166
0.003725531
0.003725918
0.0037263
0.003726676
0.003725238
0.003606396
0.003606399
0.003606404
0.00360641
0.003606416
0.003725561
0.003606404
0.003606407
0.003606412
0.003606418
0.003606424
0.003725948
0.003606412
0.003606415
0.003606421
0.003606427
0.003606432
0.003726331
0.00360642
0.003606424
0.003606429
0.003606435
0.003606441
0.003726712
0.003606429
0.003606432
0.003606438
0.003606444
0.003606449
0.003727097
0.003606438
0.003606441
0.003606447
0.003606452
0.003606458
0.003727481
0.003606446
0.00360645
0.003606455
0.003606461
0.003606467
0.003727867
0.003606455
0.003606458
0.003606464
0.00360647
0.003606475
0.003728253
0.003606464
0.003606467
0.003606473
0.003606479
0.003606484
0.003728638
0.003606473
0.003606476
0.003606482
0.003606487
0.003606493
0.003729025
0.003606482
0.003606485
0.003606491
0.003606497
0.003606502
0.003729418
0.003606491
0.003606494
0.0036065
0.003606506
0.003606511
0.003729814
0.0036065
0.003606503
0.003606509
0.003606515
0.003606521
0.003730214
0.003606509
0.003606512
0.003606518
0.003606524
0.00360653
0.003730617
0.003606519
0.003606522
0.003606528
0.003606534
0.003606539
0.003731024
0.003606528
0.003606531
0.003606537
0.003606543
0.003606549
0.003731434
0.003606538
0.003606541
0.003606547
0.003606553
0.003606559
0.003731849
0.003606547
0.003606551
0.003606557
0.003606563
0.003606569
0.003732268
0.003606557
0.00360656
0.003606567
0.003606573
0.003606579
0.003732691
0.003606567
0.00360657
0.003606577
0.003606583
0.003606589
0.003733118
0.003606577
0.00360658
0.003606587
0.003606593
0.003606599
0.003733549
0.003606587
0.003606591
0.003606597
0.003606603
0.00360661
0.003733985
0.003606598
0.003606601
0.003606607
0.003606614
0.00360662
0.003725166
0.00372553
0.003725918
0.003726298
0.003726675
0.003725238
0.003606396
0.003606399
0.003606404
0.00360641
0.003606416
0.003725561
0.003606404
0.003606407
0.003606412
0.003606418
0.003606424
0.003725947
0.003606412
0.003606415
0.003606421
0.003606427
0.003606432
0.003726329
0.00360642
0.003606424
0.003606429
0.003606435
0.003606441
0.00372671
0.003606429
0.003606432
0.003606438
0.003606444
0.003606449
0.003727095
0.003606438
0.003606441
0.003606447
0.003606452
0.003606458
0.003727479
0.003606446
0.00360645
0.003606455
0.003606461
0.003606467
0.003727865
0.003606455
0.003606458
0.003606464
0.00360647
0.003606475
0.003728251
0.003606464
0.003606467
0.003606473
0.003606479
0.003606484
0.003728637
0.003606473
0.003606476
0.003606482
0.003606487
0.003606493
0.003729025
0.003606482
0.003606485
0.003606491
0.003606497
0.003606502
0.003729418
0.003606491
0.003606494
0.0036065
0.003606506
0.003606511
0.003729814
0.0036065
0.003606503
0.003606509
0.003606515
0.003606521
0.003730215
0.003606509
0.003606513
0.003606518
0.003606524
0.00360653
0.003730618
0.003606519
0.003606522
0.003606528
0.003606534
0.003606539
0.003731025
0.003606528
0.003606531
0.003606537
0.003606543
0.003606549
0.003731436
0.003606538
0.003606541
0.003606547
0.003606553
0.003606559
0.003731851
0.003606547
0.003606551
0.003606557
0.003606563
0.003606569
0.00373227
0.003606557
0.00360656
0.003606567
0.003606573
0.003606579
0.003732694
0.003606567
0.00360657
0.003606577
0.003606583
0.003606589
0.003733121
0.003606577
0.003606581
0.003606587
0.003606593
0.003606599
0.003733553
0.003606588
0.003606591
0.003606597
0.003606603
0.00360661
0.003733988
0.003606598
0.003606601
0.003606607
0.003606614
0.00360662
0.003725161
0.003725522
0.003725907
0.003726289
0.003726668
0.003725235
0.003606396
0.003606399
0.003606404
0.00360641
0.003606416
0.003725553
0.003606404
0.003606407
0.003606412
0.003606418
0.003606424
0.003725936
0.003606412
0.003606415
0.003606421
0.003606427
0.003606432
0.003726319
0.003606421
0.003606424
0.003606429
0.003606435
0.003606441
0.003726702
0.003606429
0.003606432
0.003606438
0.003606444
0.003606449
0.003727088
0.003606438
0.003606441
0.003606447
0.003606452
0.003606458
0.003727473
0.003606447
0.00360645
0.003606455
0.003606461
0.003606466
0.003727858
0.003606455
0.003606458
0.003606464
0.00360647
0.003606475
0.003728243
0.003606464
0.003606467
0.003606473
0.003606478
0.003606484
0.00372863
0.003606473
0.003606476
0.003606482
0.003606487
0.003606493
0.003729019
0.003606482
0.003606485
0.003606491
0.003606496
0.003606502
0.003729413
0.003606491
0.003606494
0.0036065
0.003606506
0.003606511
0.003729811
0.0036065
0.003606503
0.003606509
0.003606515
0.003606521
0.003730211
0.003606509
0.003606513
0.003606518
0.003606524
0.00360653
0.003730615
0.003606519
0.003606522
0.003606528
0.003606534
0.003606539
0.003731022
0.003606528
0.003606531
0.003606537
0.003606543
0.003606549
0.003731433
0.003606538
0.003606541
0.003606547
0.003606553
0.003606559
0.003731848
0.003606548
0.003606551
0.003606557
0.003606563
0.003606569
0.003732267
0.003606558
0.00360656
0.003606567
0.003606573
0.003606579
0.003732692
0.003606568
0.00360657
0.003606577
0.003606583
0.003606589
0.00373312
0.003606578
0.00360658
0.003606587
0.003606593
0.003606599
0.003733552
0.003606588
0.003606591
0.003606597
0.003606604
0.00360661
0.003733988
0.003606599
0.003606601
0.003606608
0.003606614
0.003606621
0.003725178
0.003725554
0.003725932
0.003726307
0.003726681
0.003725252
0.003606396
0.003606399
0.003606405
0.003606411
0.003606417
0.003725582
0.003606404
0.003606407
0.003606413
0.003606419
0.003606425
0.003725959
0.003606413
0.003606416
0.003606422
0.003606428
0.003606434
0.003726336
0.003606422
0.003606425
0.00360643
0.003606436
0.003606442
0.003726713
0.003606431
0.003606433
0.003606439
0.003606445
0.003606451
0.003727089
0.00360644
0.003606442
0.003606448
0.003606454
0.003606459
0.003727464
0.003606449
0.003606451
0.003606457
0.003606463
0.003606468
0.003727842
0.003606458
0.00360646
0.003606466
0.003606472
0.003606477
0.003728222
0.003606467
0.003606469
0.003606475
0.003606481
0.003606486
0.003728606
0.003606476
0.003606478
0.003606484
0.00360649
0.003606496
0.003728993
0.003606485
0.003606488
0.003606494
0.003606499
0.003606505
0.003729383
0.003606494
0.003606497
0.003606503
0.003606509
0.003606514
0.003729773
0.003606504
0.003606506
0.003606512
0.003606518
0.003606524
0.003730166
0.003606513
0.003606516
0.003606522
0.003606528
0.003606533
0.003730565
0.003606523
0.003606525
0.003606532
0.003606537
0.003606543
0.003730967
0.003606533
0.003606535
0.003606541
0.003606547
0.003606553
0.003731373
0.003606543
0.003606545
0.003606551
0.003606557
0.003606563
0.003731782
0.003606553
0.003606555
0.003606561
0.003606567
0.003606573
0.003732196
0.003606564
0.003606565
0.003606571
0.003606577
0.003606583
0.003732614
0.003606574
0.003606575
0.003606582
0.003606588
0.003606594
0.003733037
0.003606585
0.003606585
0.003606592
0.003606598
0.003606604
0.003733464
0.003606595
0.003606596
0.003606602
0.003606609
0.003606615
0.003733962
0.003606606
0.003606606
0.003606613
0.003606619
0.003606625
0.00368077
0.003681561
0.003683059
0.003684536
0.003685995
0.003680804
0.003606476
0.003606495
0.003606519
0.003606541
0.003606564
0.00368161
0.003606493
0.003606508
0.003606532
0.003606554
0.003606575
0.003683116
0.00360651
0.003606526
0.003606542
0.003606564
0.003606585
0.003684618
0.003606528
0.003606543
0.00360656
0.003606576
0.003606598
0.003686103
0.003606546
0.003606561
0.003606578
0.003606594
0.00360661
0.003687596
0.003606564
0.003606579
0.003606595
0.003606612
0.003606628
0.003689079
0.003606582
0.003606597
0.003606613
0.00360663
0.003606646
0.003690561
0.0036066
0.003606615
0.003606632
0.003606648
0.003606664
0.00369203
0.003606618
0.003606634
0.00360665
0.003606666
0.003606682
0.003693497
0.003606637
0.003606652
0.003606668
0.003606685
0.003606701
0.003694981
0.003606655
0.003606671
0.003606687
0.003606704
0.00360672
0.003696484
0.003606674
0.00360669
0.003606706
0.003606722
0.003606739
0.003697991
0.003606693
0.003606709
0.003606725
0.003606741
0.003606758
0.00369951
0.003606712
0.003606729
0.003606745
0.003606761
0.003606777
0.003701047
0.003606731
0.003606748
0.003606764
0.00360678
0.003606796
0.003702597
0.00360675
0.003606768
0.003606784
0.0036068
0.003606816
0.00370416
0.00360677
0.003606789
0.003606804
0.003606821
0.003606836
0.003705728
0.00360679
0.003606809
0.003606825
0.003606841
0.003606857
0.003707317
0.00360681
0.00360683
0.003606845
0.003606862
0.003606877
0.003708912
0.00360683
0.003606851
0.003606866
0.003606883
0.003606899
0.003710525
0.003606851
0.003606872
0.003606888
0.003606905
0.00360692
0.003712149
0.003606873
0.003606893
0.003606909
0.003606926
0.003606942
0.003713794
0.003734879
0.003606916
0.003606932
0.003606949
0.003606965
0.003701646
0.003672005
0.003672042
0.003606402
0.003701918
0.003701022
0.003680761
0.00368134
0.003606406
0.003606415
0.003700815
0.003701846
0.003681547
0.003682752
0.003606418
0.003606428
0.003701636
0.003702742
0.003683037
0.003684163
0.00360643
0.003606441
0.003702542
0.003703651
0.003684508
0.003685583
0.003606443
0.003606455
0.003703465
0.003685961
0.003606455
0.003680682
0.003680776
0.0036064
0.003679954
0.00368005
0.0036064
0.003679946
0.003680039
0.003606399
0.003679941
0.003680041
0.003606399
0.003679936
0.003680034
0.003606399
0.003679938
0.00368004
0.003606399
0.003679934
0.003680032
0.003606399
0.003679932
0.003680035
0.003606399
0.003679927
0.003680031
0.003606399
0.003679932
0.003680036
0.003606399
0.003679932
0.003680032
0.003606399
0.003679939
0.003680031
0.003606399
0.003679933
0.003680031
0.003606399
0.003679944
0.003680044
0.003606399
0.003679941
0.003680046
0.0036064
0.003680686
0.00368078
0.0036064
0.003671997
0.003672031
0.003606401
0.003701646
0.003682748
0.003606424
0.003606428
0.003700827
0.003701845
0.003684165
0.003606425
0.003606441
0.003701637
0.003702741
0.003685585
0.003606438
0.003606455
0.003702544
0.003703651
0.003606451
0.003703467
0.00360641
0.003681307
0.003606422
0.003701898
0.003701001
0.003606427
0.003682712
0.003606441
0.003700803
0.00370183
0.003606445
0.003684124
0.003606459
0.00370163
0.003702739
0.003606462
0.003685556
0.003606478
0.003702542
0.003703664
0.00360648
0.003687005
0.003606497
0.003703478
0.003704607
0.003606499
0.003688467
0.003606516
0.003704425
0.003705561
0.003606517
0.003689939
0.003606535
0.003705383
0.003706526
0.003606536
0.003691417
0.003606554
0.003706355
0.003707489
0.003606555
0.003692901
0.003606574
0.003707309
0.003708438
0.003606574
0.003694381
0.003606594
0.003708256
0.003709396
0.003606594
0.00369588
0.003606614
0.003709202
0.003710365
0.003606675
0.00370197
0.003606697
0.003713059
0.003714331
0.003606695
0.003703528
0.003606719
0.003714042
0.003715345
0.003606716
0.003705101
0.003606741
0.003715035
0.003716374
0.003606737
0.003706696
0.003606763
0.003716037
0.003717409
0.003606758
0.003708301
0.003606785
0.003717047
0.003718457
0.003606849
0.003714996
0.003606878
0.003721199
0.003607892
0.003606519
0.00364921
0.003606514
0.003648603
0.003606497
0.003649627
0.003701898
0.003701
0.003680801
0.003606411
0.003681322
0.003606422
0.003700802
0.00370183
0.003681604
0.003606428
0.003682733
0.003606441
0.003701629
0.00370274
0.003683113
0.003606445
0.003684146
0.003606459
0.003702541
0.003703664
0.003684612
0.003606463
0.003685588
0.003606478
0.003703476
0.003704607
0.003686096
0.003606481
0.003687042
0.003606497
0.003704423
0.003705562
0.003687589
0.003606499
0.003688511
0.003606516
0.003705382
0.003706526
0.003689075
0.003606518
0.003689984
0.003606535
0.003706353
0.00370749
0.003690554
0.003606536
0.00369147
0.003606555
0.003707308
0.003708439
0.003692025
0.003606555
0.003692955
0.003606574
0.003708254
0.003709396
0.003693491
0.003606575
0.00369444
0.003606594
0.003709203
0.003710364
0.003694976
0.003606594
0.003695934
0.003606614
0.003710156
0.003711344
0.003696477
0.003606614
0.003697449
0.003606635
0.003711112
0.003712326
0.003697985
0.003606634
0.003698965
0.003606655
0.003712079
0.003713321
0.003699503
0.003606654
0.003700498
0.003606676
0.003713055
0.00371433
0.003701041
0.003606675
0.00370204
0.003606697
0.00371404
0.003715346
0.00370259
0.003606695
0.003703603
0.003606719
0.003715032
0.003716374
0.003704151
0.003606716
0.003705177
0.003606741
0.003716033
0.003717408
0.003705723
0.003606738
0.003706774
0.003606763
0.003717045
0.003718456
0.003707311
0.003606759
0.003708378
0.003606785
0.003718065
0.003719513
0.003708905
0.003606781
0.003710007
0.003606808
0.003719095
0.003720584
0.003710518
0.003606803
0.003711647
0.00360683
0.003720137
0.003721667
0.003712142
0.003606826
0.003713313
0.003606854
0.0037212
0.003607894
0.003713795
0.003606848
0.003714998
0.003606874
0.003606518
0.003606516
0.003606519
0.003606516
0.003606519
0.003606516
0.003606519
0.003606517
0.003606519
0.003606517
0.003606519
0.003606517
0.003606519
0.003606517
0.003606519
0.003606516
0.003606516
0.003606514
0.003681339
0.003606401
0.003606414
0.003701918
0.003701018
0.003606613
0.003697384
0.003606635
0.003710156
0.003711342
0.003606633
0.003698901
0.003606655
0.003711114
0.003712325
0.003606653
0.003700426
0.003606599
0.003712082
0.003713272
0.00360678
0.003709928
0.003606808
0.003718068
0.003719514
0.003606802
0.00371157
0.003606831
0.003719099
0.003720583
0.003606824
0.003713233
0.003606732
0.003720141
0.003721605
0.003606472
0.003648897
0.003606483
0.003651083
0.003606486
0.003648833
0.003606505
0.003651053
0.003606513
0.003606511
0.003606505
0.003650834
0.003606519
0.003649434
0.003606516
0.003606514
0.003606516
0.003606514
0.003606516
0.003606514
0.003606517
0.003606514
0.003606517
0.003606514
0.003606517
0.003606514
0.003606516
0.003606514
0.003606516
0.003606513
0.003606517
0.003649215
0.003606472
0.003648908
0.003606485
0.003651086
0.003606486
0.003648832
0.003606505
0.003651052
0.003606553
0.00365068
0.00360654
0.003651764
0.003606537
0.003653116
0.00360655
0.003651585
0.003606593
0.003652961
0.00360655
0.003653978
0.00360657
0.00365537
0.003606582
0.003653834
0.003606634
0.003655235
0.003606583
0.003656123
0.003606605
0.00365759
0.003606616
0.003656035
0.003606677
0.003657446
0.003606617
0.003658243
0.003606639
0.003658182
0.003606529
0.00364858
0.003606491
0.003649545
0.003606526
0.003650739
0.003606553
0.003649442
0.00360657
0.003650662
0.003606519
0.003651677
0.003606567
0.003653017
0.003606598
0.003651631
0.003606614
0.003653043
0.00360655
0.003653883
0.003606608
0.003655277
0.003606645
0.003653938
0.003606659
0.003655351
0.003606581
0.003656048
0.003606649
0.003657529
0.003606693
0.003656186
0.003606706
0.003657619
0.003606613
0.003658214
0.003606691
0.00365976
0.003606743
0.003658392
0.003606753
0.003659863
0.003606645
0.003660392
0.003606734
0.003661984
0.003606793
0.003660617
0.003606801
0.003662089
0.003606679
0.003662577
0.003606778
0.003664224
0.003606843
0.003662827
0.003606851
0.003664322
0.003606713
0.003664779
0.003606822
0.003666469
0.003606896
0.003665033
0.003606869
0.003668741
0.003606949
0.003667239
0.003606954
0.003668831
0.003606783
0.003669211
0.003606912
0.003671024
0.003607004
0.003669442
0.003607008
0.003671089
0.00360682
0.003671451
0.003606959
0.00367332
0.00360706
0.00367166
0.003607232
0.003680208
0.003606977
0.003680588
0.003607288
0.003682508
0.003607017
0.003682915
0.003607203
0.00368506
0.003607347
0.003682926
0.003607346
0.003684826
0.003607056
0.003685267
0.003607255
0.003687467
0.003607407
0.003685222
0.003607405
0.00368716
0.003607098
0.003687642
0.003607307
0.003689898
0.003607468
0.003687534
0.003607464
0.003689514
0.003607141
0.003690037
0.00360736
0.003692347
0.003607533
0.003689868
0.003607583
0.003700871
0.003699386
0.003607788
0.003668955
0.003667829
0.003664809
0.003664669
0.003664821
0.003664711
0.003665106
0.003665101
0.003664861
0.003665059
0.003664962
0.003664831
0.003665072
0.003665136
0.003664989
0.003664818
0.003665061
0.003665048
0.003664794
0.003664997
0.003664662
0.003664618
0.003664828
0.003664696
0.003665007
0.003665009
0.003665084
0.00366513
0.003664835
0.003664741
0.003664914
0.003665069
0.003664644
0.003664676
0.003664901
0.003664887
0.003664893
0.003665016
0.00366889
0.003667827
0.003658301
0.003658051
0.003658501
0.003657753
0.003658294
0.003658047
0.003658521
0.00365772
0.003661463
0.00366153
0.003661937
0.003661053
0.003662117
0.00366166
0.003661706
0.003662108
0.003658783
0.003658126
0.003658342
0.003658616
0.003659816
0.003659803
0.00365934
0.003660252
0.003660454
0.003659941
0.003660053
0.003660361
0.003663175
0.003663295
0.003662748
0.003663767
0.003664855
0.003665042
0.003664449
0.003665528
0.003665462
0.003665223
0.00366516
0.00366558
0.003666541
0.003666796
0.003667291
0.003666159
0.003667131
0.00366699
0.003666863
0.003667314
0.00366823
0.003668558
0.003667874
0.003669057
0.003668806
0.003668751
0.00366857
0.003669051
0.003669925
0.003670325
0.003670829
0.003669591
0.003606805
0.003666569
0.003606747
0.003666846
0.003673352
0.003673893
0.003673055
0.0036744
0.003673896
0.003674074
0.00367374
0.003674332
0.003675084
0.003675697
0.003674804
0.0036762
0.003675614
0.003675871
0.003675485
0.003676115
0.003676827
0.003677512
0.003678013
0.003676564
0.003682608
0.003683167
0.00368335
0.00368259
0.003607151
0.00368248
0.003607122
0.003680645
0.0036844
0.00368504
0.003684409
0.003685214
0.003691318
0.003692582
0.003693026
0.003691219
0.00360747
0.003699095
0.003607317
0.003699634
0.003699043
0.003700555
0.00369903
0.00370097
0.003664271
0.003658823
0.003660239
0.003661127
0.003664232
0.003658709
0.003659998
0.003661092
0.003666909
0.003665665
0.003664945
0.003664868
0.003664935
0.003664829
0.003665023
0.003665016
0.003664713
0.003664711
0.003664872
0.003664886
0.003664836
0.003664698
0.003665004
0.003665038
0.003664895
0.003664878
0.003664688
0.003664771
0.003648576
0.003606488
0.003649636
0.0036065
0.003650831
0.003606536
0.003649447
0.003606502
0.003673349
0.003606981
0.003673706
0.00360706
0.003675627
0.003673888
0.003607006
0.003607115
0.003675617
0.003675978
0.003607119
0.003606895
0.003677966
0.003676121
0.003607054
0.003607173
0.003677907
0.003678269
0.003607173
0.003606934
0.003680125
0.003607077
0.003678374
0.003606951
0.003691881
0.003607391
0.003692461
0.003607523
0.003694822
0.003692222
0.003607414
0.003607592
0.003694266
0.003694892
0.003607587
0.003607228
0.00369732
0.003694588
0.003607469
0.003607656
0.003696671
0.003697361
0.003607646
0.003607274
0.003699625
0.00360748
0.003696974
0.003607285
0.00366483
0.003665147
0.003664944
0.003664872
0.003664841
0.003664749
0.003664911
0.003664891
0.003664932
0.003664801
0.003664891
0.003664956
0.003664631
0.00366463
0.003665003
0.003664999
0.00366488
0.003664953
0.003666708
0.003665257
0.003664222
0.003658855
0.003661158
0.003660239
0.003664204
0.003658689
0.003661075
0.003659985
0.003658381
0.003657948
0.003658759
0.003657767
0.003658335
0.003657848
0.003658642
0.003657709
0.00366221
0.003662302
0.003661847
0.003662675
0.003658932
0.003658869
0.003658459
0.003659298
0.003659591
0.003659
0.003659161
0.003659422
0.003660614
0.003660606
0.003660169
0.003661033
0.003662294
0.00366233
0.003661884
0.003662762
0.003662913
0.003662515
0.003662547
0.003662869
0.003663963
0.00366406
0.003663581
0.003664481
0.003664568
0.003664228
0.003664232
0.003664576
0.003665632
0.003665789
0.003665268
0.003666213
0.003666226
0.003665981
0.003666289
0.003665924
0.003667312
0.003667527
0.003666972
0.003667952
0.003667887
0.003667739
0.003667617
0.003668005
0.003668998
0.003669271
0.003668679
0.003669692
0.003669556
0.003669486
0.003669723
0.003669317
0.003672919
0.003673005
0.003672741
0.003673184
0.003674097
0.003674559
0.003673854
0.003674948
0.003674622
0.003674769
0.003674472
0.003674923
0.003675816
0.003676343
0.003675598
0.003676719
0.003676336
0.00367655
0.003676678
0.003676214
0.00368463
0.003685476
0.003684553
0.003685782
0.003690131
0.003691161
0.003690146
0.00369142
0.003690602
0.003691332
0.003691257
0.0036907
0.0036982
0.003699152
0.003698986
0.003698409
0.003715458
0.003606871
0.003607502
0.003607521
0.00371546
0.003606871
0.003700343
0.003607602
0.003699373
0.003700558
0.003699616
0.003700615
0.003648581
0.003606506
0.003606527
0.003649546
0.00360657
0.003650675
0.003606522
0.003651677
0.003606613
0.003653059
0.003606552
0.003653882
0.003606659
0.003655362
0.003606583
0.003656047
0.003606706
0.003657627
0.003606615
0.003658214
0.003606753
0.003659872
0.003606648
0.003660395
0.003606801
0.003662102
0.003606682
0.003662578
0.003606851
0.003664333
0.003606716
0.003664781
0.003606901
0.00366658
0.00360675
0.003666988
0.003606954
0.003668839
0.003606786
0.003669214
0.003607008
0.003671101
0.003606822
0.00367145
0.003607063
0.003673359
0.00360686
0.003673708
0.003607119
0.003675627
0.003606898
0.003675979
0.003607175
0.003677908
0.003606937
0.003678272
0.003607231
0.003680204
0.003606976
0.003680585
0.003607288
0.003682511
0.003607017
0.003682919
0.003607346
0.003684832
0.003607058
0.003685272
0.003607405
0.003687167
0.0036071
0.003687648
0.003607464
0.003689525
0.003607143
0.003690043
0.003607525
0.003691891
0.003607186
0.003692461
0.003607586
0.003694275
0.003607231
0.003694897
0.00360765
0.003696671
0.003607276
0.00369736
0.00360771
0.003699089
0.003607322
0.003699847
0.003658295
0.003658047
0.003658521
0.003657723
0.003663119
0.003663256
0.003663658
0.003662752
0.003663767
0.003663383
0.003663378
0.003663832
0.003664768
0.003664973
0.003665375
0.003664438
0.003661498
0.00366155
0.003661041
0.003662013
0.003662083