/*--------------------------------*- C++ -*----------------------------------*\
  =========                 |
  \\      /  F ield         | OpenFOAM: The Open Source CFD Toolbox
   \\    /   O peration     | Website:  https://openfoam.org
    \\  /    A nd           | Version:  7
     \\/     M anipulation  |
\*---------------------------------------------------------------------------*/
FoamFile
{
    version     2.0;
    format      ascii;
    class       volScalarField;
    location    "0.04";
    object      nut;
}
// * * * * * * * * * * * * * * * * * * * * * * * * * * * * * * * * * * * * * //

dimensions      [0 2 -1 0 0 0 0];

internalField   nonuniform List<scalar> 
73374
(
0.0002755602
0.001340063
0.001314334
0.001305837
0.001303773
0.001303215
0.001303029
0.001302952
0.001302951
0.001303011
0.001303154
0.0002777198
0.001305961
0.001258977
0.001244458
0.001240601
0.001239467
0.001239118
0.001239
0.001239004
0.001239132
0.001239377
0.0002777282
0.001295279
0.001242262
0.001224216
0.001219179
0.001217611
0.001217077
0.001216872
0.001216877
0.001217044
0.001217363
0.0002776383
0.001292543
0.001237627
0.001218386
0.001212734
0.001210884
0.001210199
0.001209957
0.001209953
0.001210136
0.001210495
0.0002775326
0.001291697
0.001236182
0.001216495
0.001210552
0.001208534
0.001207753
0.001207469
0.001207449
0.001207631
0.001208004
0.0002774151
0.001291324
0.001235589
0.001215706
0.001209622
0.001207517
0.001206681
0.001206373
0.001206341
0.001206515
0.001206885
0.0002772977
0.001291133
0.001235307
0.001215343
0.001209195
0.001207047
0.00120619
0.001205876
0.001205844
0.001206021
0.001206389
0.000277182
0.001291007
0.001235143
0.001215145
0.001208974
0.001206818
0.001205964
0.001205672
0.001205672
0.001205877
0.001206267
0.0002770683
0.001290911
0.001235033
0.001215027
0.001208858
0.001206723
0.001205913
0.001205699
0.00120581
0.001206131
0.001206608
0.0002769564
0.00129083
0.001234952
0.001214955
0.00120881
0.001206733
0.001206042
0.00120604
0.001206474
0.001207156
0.001207915
0.0002768461
0.001290757
0.001234889
0.001214916
0.001208827
0.00120687
0.001206504
0.001207221
0.00120876
0.001210694
0.00121243
0.0002767374
0.001290693
0.001234844
0.00121491
0.001208908
0.001207168
0.001207512
0.001211057
0.001217011
0.001222733
0.001228198
0.0002766298
0.001290635
0.001234813
0.001214934
0.001209054
0.001207639
0.001209066
0.001216983
0.001244916
0.001252188
0.001278316
0.0002765223
0.001290588
0.001234805
0.00121499
0.001209247
0.001208195
0.001210793
0.001222307
0.001251064
0.0005671087
0.0005856233
0.0002764129
0.001290559
0.001234827
0.001215085
0.001209465
0.001208693
0.001212171
0.00122694
0.001274329
0.0005843575
0.000285739
0.0002762986
0.001290559
0.001234899
0.001215233
0.001209709
0.001209093
0.001213008
0.001229522
0.001277191
0.0005891455
0.000295092
0.0002761773
0.001290598
0.001235017
0.001215429
0.001209976
0.001209434
0.001213488
0.001230189
0.001277543
0.0005893149
0.0002954424
0.0002760463
0.001290665
0.001235141
0.001215614
0.001210202
0.001209668
0.001213674
0.001230409
0.001278854
0.0005899964
0.0002959034
0.0002759056
0.001290713
0.001235183
0.001215666
0.001210234
0.001209593
0.0012132
0.001228183
0.001276227
0.0005892455
0.0002964935
0.0002757562
0.0005778884
0.0006181841
0.000101112
0.0001009778
0.0001015284
0.0001011535
0.0001010931
0.0001010304
0.0001010051
0.0001010046
0.0001010117
0.0001010239
0.0006131416
0.0001009752
0.000101275
0.0001013569
0.0001014607
0.0001014654
0.0001014053
0.0001014347
0.0001014485
0.0001014526
0.0001014547
0.001295291
0.0001012115
0.0001011223
0.0001010989
0.0001011036
0.0001010957
0.00010109
0.0001010853
0.0001010806
0.0001010733
0.0001010658
0.001276795
0.0001011384
0.0001009988
0.0001010267
0.000101037
0.0001010369
0.0001010433
0.0001010416
0.0001010352
0.0001010294
0.0001010244
0.001270002
0.000101076
0.0001009701
0.0001009605
0.0001009596
0.0001009562
0.0001009614
0.0001009583
0.0001009573
0.0001009567
0.0001009566
0.001268392
0.0001010916
0.0001009641
0.0001009585
0.0001009603
0.0001009594
0.0001009611
0.0001009604
0.0001009597
0.0001009588
0.0001009582
0.001267952
0.0001010888
0.0001009584
0.0001009508
0.000100951
0.0001009491
0.0001009498
0.0001009494
0.0001009492
0.000100949
0.0001009491
0.001267745
0.000101091
0.0001009575
0.0001009503
0.0001009507
0.0001009495
0.0001009498
0.0001009497
0.0001009496
0.0001009496
0.0001009496
0.001267619
0.0001010892
0.0001009565
0.000100949
0.0001009491
0.0001009479
0.0001009481
0.0001009477
0.0001009479
0.0001009477
0.0001009483
0.001267521
0.0001010877
0.0001009559
0.0001009485
0.0001009486
0.0001009473
0.0001009474
0.0001009472
0.0001009475
0.0001009481
0.0001009484
0.001267435
0.0001010855
0.0001009554
0.0001009479
0.0001009479
0.0001009463
0.0001009462
0.0001009463
0.0001009468
0.0001009478
0.0001009492
0.001267353
0.0001010834
0.0001009549
0.0001009476
0.0001009477
0.0001009462
0.0001009462
0.0001009461
0.0001009467
0.0001009478
0.0001009509
0.001267275
0.0001010819
0.0001009546
0.0001009471
0.0001009471
0.0001009454
0.0001009455
0.0001009457
0.0001009465
0.0001009495
0.0001009539
0.0012672
0.0001010817
0.0001009543
0.0001009471
0.0001009474
0.0001009458
0.0001009452
0.0001009453
0.0001009476
0.0001009496
0.0001009687
0.001267131
0.0001010836
0.0001009542
0.0001009464
0.0001009473
0.0001009449
0.0001009479
0.000100945
0.000100945
0.0001009409
0.0001009413
0.001267073
0.0001010884
0.0001009544
0.0001009465
0.0001009468
0.0001009449
0.0001009447
0.0001009447
0.0001009468
0.0001009315
0.0001009639
0.00126703
0.0001010965
0.0001009548
0.0001009464
0.000100947
0.0001009452
0.0001009474
0.0001009456
0.0001009481
0.0001009387
0.0001011259
0.001267001
0.0001011077
0.0001009556
0.0001009468
0.0001009473
0.0001009457
0.0001009468
0.0001009469
0.0001009509
0.0001009396
0.0001009712
0.001266971
0.0001011212
0.0001009569
0.0001009475
0.0001009485
0.0001009466
0.0001009507
0.0001009497
0.0001009594
0.0001009654
0.0001017005
0.001266906
0.000101136
0.0001009585
0.0001009488
0.0001009498
0.0001009477
0.0001009531
0.0001009533
0.0001009609
0.0001009725
0.0001011182
0.0001010131
0.0001010833
0.0001009821
0.0001009826
0.0001009765
0.0001009661
0.0001009656
0.0001009649
0.0001009556
0.0001009639
0.0001009514
0.0006079679
0.0001009475
0.0001009621
0.000100938
0.0001009291
0.0001009339
0.0001009316
0.0001009329
0.0001009312
0.0001009271
0.0001009277
0.001273051
0.0001011518
0.0001009341
0.000100933
0.0001009329
0.0001009294
0.0001009295
0.0001009288
0.0001009293
0.0001009299
0.0001009299
0.001239277
0.0001012154
0.0001009296
0.000100929
0.000100929
0.0001009292
0.0001009291
0.0001009292
0.0001009292
0.0001009292
0.0001009293
0.001228536
0.0001010624
0.0001009294
0.000100929
0.0001009291
0.0001009291
0.0001009293
0.0001009293
0.0001009294
0.0001009295
0.0001009297
0.001225825
0.0001010749
0.0001009293
0.0001009291
0.0001009292
0.0001009293
0.0001009294
0.0001009294
0.0001009295
0.0001009297
0.0001009298
0.001225074
0.0001010625
0.0001009296
0.0001009295
0.0001009295
0.0001009296
0.0001009297
0.0001009298
0.00010093
0.0001009302
0.0001009304
0.001224762
0.0001010639
0.0001009295
0.0001009294
0.0001009294
0.0001009295
0.0001009297
0.0001009298
0.0001009301
0.0001009304
0.0001009308
0.001224599
0.0001010616
0.0001009295
0.0001009294
0.0001009294
0.0001009296
0.0001009297
0.0001009299
0.0001009303
0.0001009307
0.0001009313
0.001224489
0.00010106
0.0001009294
0.0001009293
0.0001009294
0.0001009295
0.0001009297
0.00010093
0.0001009304
0.0001009311
0.0001009321
0.001224396
0.0001010581
0.0001009294
0.0001009292
0.0001009293
0.0001009294
0.0001009296
0.0001009299
0.0001009305
0.0001009315
0.0001009329
0.001224307
0.0001010564
0.0001009293
0.0001009291
0.0001009292
0.0001009292
0.0001009294
0.0001009297
0.0001009305
0.0001009316
0.0001009346
0.001224218
0.0001010548
0.0001009292
0.000100929
0.000100929
0.000100929
0.0001009291
0.0001009295
0.0001009303
0.0001009331
0.0001009368
0.001224136
0.0001010548
0.0001009291
0.0001009289
0.0001009288
0.0001009287
0.0001009287
0.000100929
0.0001009303
0.0001009325
0.0001009503
0.001224065
0.0001010564
0.0001009291
0.0001009288
0.0001009287
0.0001009285
0.0001009283
0.0001009285
0.0001009287
0.0001009381
0.0001009382
0.001224015
0.0001010609
0.0001009291
0.0001009289
0.0001009287
0.0001009286
0.0001009284
0.0001009283
0.0001009299
0.0001009309
0.0001009463
0.001223994
0.0001010683
0.0001009293
0.000100929
0.000100929
0.0001009289
0.0001009288
0.0001009292
0.000100931
0.0001009391
0.000101121
0.001224
0.0001010786
0.0001009295
0.0001009293
0.0001009293
0.0001009294
0.0001009298
0.0001009303
0.0001009343
0.0001009373
0.0001009698
0.001224013
0.0001010908
0.0001009299
0.0001009297
0.0001009299
0.0001009304
0.0001009313
0.0001009334
0.0001009421
0.0001009659
0.0001020526
0.001223985
0.000101104
0.0001009302
0.0001009302
0.0001009305
0.0001009315
0.0001009327
0.0001009372
0.0001009439
0.0001009745
0.0001010892
0.0001010089
0.0001012843
0.0001009839
0.0001009763
0.0001009711
0.0001010009
0.0001009546
0.0001009648
0.0001009594
0.0001009504
0.0001009562
0.0006070791
0.0001009537
0.0001009509
0.0001009517
0.0001009403
0.0001009532
0.0001009372
0.000100934
0.0001009355
0.0001009308
0.0001009314
0.001264723
0.0001011532
0.0001009438
0.0001009306
0.0001009279
0.0001009291
0.0001009283
0.0001009292
0.0001009288
0.0001009288
0.0001009291
0.001226974
0.0001012302
0.0001009293
0.0001009288
0.0001009293
0.0001009293
0.0001009293
0.0001009292
0.0001009292
0.0001009292
0.0001009293
0.001213875
0.0001010549
0.0001009295
0.0001009292
0.0001009296
0.0001009291
0.0001009294
0.0001009293
0.0001009294
0.0001009295
0.0001009296
0.001210517
0.0001010745
0.0001009292
0.000100929
0.0001009289
0.000100929
0.0001009291
0.0001009292
0.0001009294
0.0001009296
0.0001009298
0.001209548
0.0001010599
0.0001009296
0.0001009295
0.0001009296
0.0001009296
0.0001009298
0.0001009299
0.00010093
0.0001009302
0.0001009305
0.001209154
0.0001010615
0.0001009295
0.0001009294
0.0001009295
0.0001009295
0.0001009297
0.0001009299
0.0001009301
0.0001009304
0.0001009308
0.001208969
0.0001010592
0.0001009295
0.0001009294
0.0001009295
0.0001009296
0.0001009297
0.00010093
0.0001009303
0.0001009307
0.0001009313
0.001208866
0.0001010578
0.0001009294
0.0001009293
0.0001009294
0.0001009295
0.0001009297
0.0001009299
0.0001009304
0.000100931
0.000100932
0.001208774
0.0001010555
0.0001009294
0.0001009292
0.0001009293
0.0001009294
0.0001009296
0.0001009299
0.0001009304
0.0001009315
0.0001009328
0.001208665
0.0001010535
0.0001009293
0.0001009291
0.0001009292
0.0001009292
0.0001009294
0.0001009297
0.0001009304
0.0001009316
0.0001009345
0.001208542
0.0001010519
0.0001009292
0.000100929
0.000100929
0.000100929
0.0001009291
0.0001009294
0.0001009302
0.000100933
0.0001009369
0.001208428
0.0001010524
0.0001009291
0.0001009289
0.0001009288
0.0001009288
0.0001009287
0.0001009289
0.0001009305
0.0001009327
0.00010095
0.00120834
0.000101054
0.0001009291
0.0001009289
0.0001009287
0.0001009285
0.0001009284
0.0001009285
0.0001009288
0.0001009412
0.0001009386
0.001208289
0.0001010585
0.0001009291
0.0001009289
0.0001009287
0.0001009286
0.0001009284
0.0001009284
0.00010093
0.0001009316
0.0001009478
0.001208284
0.0001010657
0.0001009293
0.000100929
0.000100929
0.0001009288
0.0001009288
0.0001009292
0.0001009311
0.0001009385
0.0001011356
0.001208324
0.0001010758
0.0001009295
0.0001009293
0.0001009293
0.0001009294
0.0001009298
0.0001009303
0.0001009343
0.0001009372
0.0001009686
0.001208377
0.0001010877
0.0001009299
0.0001009297
0.0001009299
0.0001009303
0.0001009313
0.0001009333
0.0001009421
0.0001009663
0.000102044
0.001208387
0.0001011008
0.0001009302
0.0001009302
0.0001009305
0.0001009314
0.0001009327
0.0001009371
0.000100944
0.0001009756
0.0001010887
0.0001010065
0.0001013636
0.0001009735
0.0001010104
0.0001009964
0.0001009519
0.0001009622
0.0001009575
0.0001009504
0.0001009587
0.000100948
0.0006069747
0.0001009525
0.0001009373
0.0001009488
0.0001009488
0.0001009273
0.0001009306
0.0001009295
0.0001009267
0.0001009276
0.0001009267
0.001263018
0.0001011638
0.0001009409
0.0001009313
0.0001009287
0.0001009315
0.0001009293
0.0001009293
0.0001009302
0.0001009298
0.0001009293
0.001224326
0.0001012469
0.0001009295
0.0001009285
0.0001009292
0.0001009291
0.0001009291
0.0001009289
0.000100929
0.0001009289
0.0001009292
0.001210652
0.0001010596
0.0001009293
0.0001009296
0.000100929
0.0001009297
0.0001009291
0.0001009296
0.0001009296
0.0001009295
0.0001009295
0.001206985
0.0001010796
0.0001009293
0.0001009289
0.000100929
0.0001009291
0.0001009292
0.0001009292
0.0001009294
0.0001009295
0.0001009298
0.001205834
0.0001010599
0.0001009296
0.0001009295
0.0001009295
0.0001009297
0.0001009297
0.0001009299
0.0001009301
0.0001009302
0.0001009305
0.001205355
0.0001010622
0.0001009295
0.0001009294
0.0001009294
0.0001009295
0.0001009296
0.0001009299
0.0001009301
0.0001009304
0.0001009308
0.001205207
0.0001010605
0.0001009295
0.0001009294
0.0001009294
0.0001009296
0.0001009297
0.00010093
0.0001009303
0.0001009307
0.0001009313
0.001205186
0.0001010574
0.0001009294
0.0001009293
0.0001009294
0.0001009295
0.0001009297
0.0001009299
0.0001009304
0.000100931
0.000100932
0.001205122
0.0001010561
0.0001009293
0.0001009292
0.0001009293
0.0001009294
0.0001009296
0.0001009299
0.0001009305
0.0001009315
0.0001009328
0.001204955
0.0001010555
0.0001009293
0.0001009291
0.0001009292
0.0001009292
0.0001009294
0.0001009297
0.0001009304
0.0001009316
0.0001009346
0.001204707
0.0001010518
0.0001009292
0.000100929
0.000100929
0.000100929
0.0001009291
0.0001009294
0.0001009302
0.000100933
0.0001009369
0.001204474
0.0001010534
0.0001009291
0.0001009289
0.0001009288
0.0001009287
0.0001009287
0.0001009289
0.0001009304
0.0001009326
0.0001009498
0.001204318
0.0001010541
0.0001009291
0.0001009288
0.0001009287
0.0001009285
0.0001009284
0.0001009285
0.0001009287
0.0001009407
0.0001009378
0.001204241
0.0001010589
0.0001009291
0.0001009289
0.0001009287
0.0001009286
0.0001009284
0.0001009283
0.00010093
0.0001009315
0.0001009478
0.001204241
0.000101066
0.0001009293
0.000100929
0.000100929
0.0001009288
0.0001009288
0.0001009292
0.0001009311
0.0001009385
0.0001011306
0.001204307
0.0001010762
0.0001009295
0.0001009293
0.0001009293
0.0001009294
0.0001009298
0.0001009303
0.0001009343
0.000100937
0.0001009684
0.001204396
0.0001010881
0.0001009298
0.0001009297
0.0001009299
0.0001009303
0.0001009313
0.0001009333
0.0001009421
0.000100966
0.000102055
0.00120444
0.0001011013
0.0001009302
0.0001009302
0.0001009305
0.0001009314
0.0001009327
0.0001009371
0.0001009439
0.000100974
0.0001010909
0.0001010065
0.0001014031
0.0001009742
0.0001009867
0.0001009545
0.0001009549
0.0001009513
0.0001009716
0.000100963
0.0001009529
0.0001009462
0.0006069298
0.0001009583
0.0001009312
0.0001009558
0.0001009312
0.0001009278
0.0001009292
0.0001009349
0.0001009273
0.0001009288
0.0001009262
0.001264121
0.000101141
0.0001009393
0.0001009305
0.0001009401
0.0001009293
0.0001009337
0.000100929
0.0001009292
0.0001009294
0.000100931
0.001226027
0.0001012497
0.0001009297
0.0001009295
0.0001009292
0.0001009289
0.0001009291
0.000100929
0.0001009289
0.0001009291
0.0001009292
0.001212453
0.0001010594
0.00010093
0.0001009288
0.0001009305
0.000100929
0.0001009302
0.0001009291
0.0001009293
0.0001009293
0.00010093
0.001208499
0.0001010774
0.0001009291
0.000100929
0.0001009291
0.0001009292
0.0001009293
0.0001009293
0.0001009294
0.0001009296
0.0001009299
0.001206938
0.0001010602
0.0001009297
0.0001009294
0.0001009296
0.0001009296
0.0001009298
0.0001009298
0.00010093
0.0001009302
0.0001009305
0.001206283
0.0001010622
0.0001009295
0.0001009293
0.0001009295
0.0001009295
0.0001009297
0.0001009298
0.00010093
0.0001009303
0.0001009308
0.001206341
0.0001010601
0.0001009295
0.0001009294
0.0001009295
0.0001009295
0.0001009297
0.0001009299
0.0001009303
0.0001009307
0.0001009313
0.001206666
0.0001010594
0.0001009294
0.0001009293
0.0001009294
0.0001009295
0.0001009297
0.0001009299
0.0001009304
0.000100931
0.000100932
0.001206738
0.0001010559
0.0001009293
0.0001009292
0.0001009293
0.0001009294
0.0001009296
0.0001009299
0.0001009304
0.0001009315
0.0001009328
0.001206367
0.0001010539
0.0001009293
0.0001009291
0.0001009292
0.0001009292
0.0001009294
0.0001009297
0.0001009304
0.0001009316
0.0001009346
0.001205627
0.0001010519
0.0001009292
0.000100929
0.000100929
0.000100929
0.0001009291
0.0001009294
0.0001009302
0.0001009331
0.0001009369
0.001204835
0.0001010542
0.0001009291
0.0001009289
0.0001009288
0.0001009287
0.0001009287
0.0001009289
0.0001009304
0.0001009326
0.0001009498
0.001204312
0.0001010542
0.0001009291
0.0001009288
0.0001009287
0.0001009285
0.0001009284
0.0001009285
0.0001009287
0.0001009406
0.0001009377
0.001204097
0.0001010589
0.0001009291
0.0001009289
0.0001009287
0.0001009286
0.0001009284
0.0001009283
0.0001009299
0.0001009314
0.0001009475
0.00120409
0.0001010658
0.0001009293
0.000100929
0.000100929
0.0001009288
0.0001009288
0.0001009292
0.0001009312
0.0001009384
0.000101133
0.001204187
0.000101076
0.0001009295
0.0001009293
0.0001009294
0.0001009294
0.0001009298
0.0001009303
0.0001009342
0.0001009382
0.0001009682
0.001204319
0.000101088
0.0001009298
0.0001009297
0.0001009299
0.0001009303
0.0001009313
0.0001009332
0.0001009421
0.0001009624
0.0001020603
0.001204388
0.0001011011
0.0001009302
0.0001009302
0.0001009305
0.0001009314
0.0001009327
0.0001009371
0.0001009441
0.0001009704
0.0001010967
0.00120433
0.0001010055
0.0001013714
0.0001009804
0.0001009785
0.000100992
0.0001009519
0.0001009605
0.0001009526
0.000100948
0.0001009594
0.0001009517
0.0006071909
0.0001009571
0.0001009337
0.000100946
0.000100948
0.0001009266
0.0001009308
0.0001009295
0.0001009264
0.0001009344
0.0001009324
0.001271253
0.000101129
0.0001009398
0.0001009311
0.0001009296
0.0001009313
0.0001009293
0.0001009291
0.0001009291
0.000100929
0.0001009287
0.001236576
0.0001012371
0.0001009295
0.0001009286
0.0001009291
0.0001009291
0.0001009291
0.000100929
0.0001009291
0.0001009291
0.0001009293
0.001223723
0.0001010664
0.0001009292
0.0001009296
0.000100929
0.0001009297
0.0001009291
0.0001009296
0.0001009295
0.0001009297
0.0001009295
0.001218468
0.0001011091
0.0001009292
0.0001009289
0.0001009291
0.0001009291
0.0001009291
0.0001009292
0.0001009294
0.0001009296
0.0001009299
0.001215718
0.0001010765
0.0001009297
0.0001009295
0.0001009296
0.0001009297
0.0001009298
0.0001009299
0.0001009301
0.0001009303
0.0001009305
0.001214331
0.0001010625
0.0001009295
0.0001009294
0.0001009294
0.0001009296
0.0001009297
0.0001009299
0.0001009301
0.0001009304
0.0001009308
0.00121534
0.0001010507
0.0001009294
0.0001009294
0.0001009294
0.0001009296
0.0001009297
0.00010093
0.0001009303
0.0001009308
0.0001009314
0.001216842
0.0001010356
0.0001009294
0.0001009293
0.0001009294
0.0001009295
0.0001009297
0.0001009299
0.0001009304
0.000100931
0.000100932
0.001217276
0.0001010559
0.0001009294
0.0001009292
0.0001009293
0.0001009294
0.0001009296
0.0001009299
0.0001009304
0.0001009315
0.0001009328
0.001216343
0.0001010799
0.0001009293
0.0001009291
0.0001009291
0.0001009292
0.0001009294
0.0001009297
0.0001009304
0.0001009315
0.0001009345
0.001214095
0.0001010631
0.0001009293
0.000100929
0.000100929
0.000100929
0.0001009291
0.0001009294
0.0001009302
0.000100933
0.0001009369
0.001210583
0.0001010629
0.0001009291
0.0001009289
0.0001009288
0.0001009288
0.0001009287
0.0001009289
0.0001009305
0.0001009327
0.00010095
0.001208186
0.0001010527
0.0001009291
0.0001009288
0.0001009287
0.0001009285
0.0001009284
0.0001009285
0.0001009287
0.000100941
0.0001009382
0.001207667
0.0001010586
0.0001009291
0.0001009289
0.0001009287
0.0001009286
0.0001009284
0.0001009284
0.00010093
0.0001009316
0.0001009473
0.001207652
0.0001010649
0.0001009293
0.000100929
0.000100929
0.0001009288
0.0001009288
0.0001009292
0.000100931
0.00010094
0.0001011254
0.001207865
0.0001010755
0.0001009295
0.0001009293
0.0001009294
0.0001009294
0.0001009298
0.0001009304
0.0001009341
0.0001009399
0.0001009742
0.001208118
0.0001010872
0.0001009299
0.0001009297
0.0001009299
0.0001009303
0.0001009313
0.0001009331
0.0001009426
0.000100959
0.000102367
0.001208197
0.0001011014
0.0001009302
0.0001009302
0.0001009305
0.0001009315
0.0001009327
0.0001009372
0.0001009441
0.0001009742
0.0001011224
0.001208121
0.0001011132
0.0001009306
0.0001009305
0.0001010063
0.000101288
0.0001009786
0.0001010336
0.0001009932
0.000100983
0.0001009632
0.0001009525
0.000100981
0.0001009704
0.0001009527
0.0006098575
0.0001009532
0.0001009472
0.0001009587
0.0001009444
0.0001009446
0.000100937
0.0001009354
0.0001009354
0.000100931
0.0001009306
0.001291258
0.0001010513
0.0001009401
0.000100929
0.0001009282
0.0001009297
0.0001009288
0.0001009296
0.0001009289
0.0001009295
0.0001009305
0.001270875
0.0001011913
0.0001009292
0.0001009288
0.0001009293
0.0001009292
0.0001009292
0.0001009291
0.0001009292
0.0001009293
0.0001009293
0.001260653
0.0001010668
0.0001009295
0.0001009293
0.000100929
0.0001009291
0.0001009292
0.0001009292
0.0001009293
0.0001009295
0.0001009299
0.00124374
0.0001011383
0.0001009296
0.0001009288
0.0001009291
0.0001009292
0.0001009293
0.0001009293
0.0001009294
0.0001009296
0.0001009299
0.001248186
0.0001011284
0.0001009299
0.0001009295
0.0001009296
0.0001009296
0.0001009297
0.0001009298
0.00010093
0.0001009302
0.0001009304
0.001232006
0.0001010673
0.0001009296
0.0001009294
0.0001009294
0.0001009295
0.0001009296
0.0001009298
0.00010093
0.0001009304
0.0001009308
0.001248586
0.0001010046
0.0001009293
0.0001009294
0.0001009294
0.0001009295
0.0001009297
0.0001009299
0.0001009303
0.0001009307
0.0001009313
0.001243272
0.0001010078
0.0001009292
0.0001009294
0.0001009294
0.0001009295
0.0001009297
0.0001009299
0.0001009304
0.000100931
0.000100932
0.001255302
0.0001010522
0.0001009294
0.0001009293
0.0001009293
0.0001009294
0.0001009296
0.0001009299
0.0001009305
0.0001009314
0.0001009329
0.001242112
0.0001011103
0.0001009295
0.0001009291
0.0001009292
0.0001009292
0.0001009294
0.0001009297
0.0001009305
0.0001009316
0.0001009346
0.001246484
0.0001011094
0.0001009294
0.000100929
0.000100929
0.000100929
0.0001009291
0.0001009295
0.0001009303
0.0001009331
0.0001009368
0.001226539
0.0001010701
0.0001009292
0.0001009289
0.0001009288
0.0001009287
0.0001009287
0.000100929
0.0001009303
0.0001009325
0.0001009503
0.001222728
0.0001010578
0.0001009291
0.0001009288
0.0001009287
0.0001009285
0.0001009283
0.0001009285
0.0001009287
0.000100938
0.0001009384
0.001221845
0.0001010613
0.0001009291
0.0001009289
0.0001009287
0.0001009286
0.0001009284
0.0001009283
0.0001009299
0.000100931
0.0001009468
0.001221821
0.0001010662
0.0001009293
0.000100929
0.000100929
0.0001009289
0.0001009288
0.0001009293
0.0001009308
0.0001009408
0.0001011231
0.001222361
0.000101076
0.0001009295
0.0001009293
0.0001009294
0.0001009294
0.0001009298
0.0001009303
0.0001009342
0.0001009406
0.0001009756
0.001222961
0.0001010897
0.0001009299
0.0001009297
0.0001009299
0.0001009303
0.0001009313
0.0001009332
0.0001009429
0.0001009591
0.000102443
0.001223118
0.0001011039
0.0001009302
0.0001009302
0.0001009305
0.0001009315
0.0001009327
0.0001009374
0.0001009439
0.0001009716
0.0001011182
0.001223143
0.0001011142
0.0001009306
0.0001009305
0.000100931
0.0001009319
0.0001010019
0.0001012165
0.0001009914
0.0001009999
0.000100987
0.0001009659
0.0001009539
0.0001009612
0.0001010067
0.000100959
0.0001011492
0.0006144669
0.0001011579
0.0001016746
0.0001020157
0.0001020861
0.000102085
0.0001020826
0.0001019988
0.0001019223
0.0001016259
0.0001015989
0.0006014785
0.0001010165
0.0001010458
0.0001010682
0.0001010678
0.0001010515
0.0001010577
0.0001010539
0.0001010547
0.0001010478
0.0001010561
0.0005830117
0.0001009716
0.0001010243
0.0001010443
0.0001010484
0.0001010431
0.0001010415
0.0001010364
0.0001010387
0.0001010236
0.0001010322
0.0005784158
0.0001009623
0.0001009651
0.0001009653
0.000100968
0.0001009658
0.0001009651
0.0001009629
0.0001009623
0.0001009651
0.0001009646
0.000573595
0.0001009492
0.0001009662
0.0001009571
0.0001009641
0.0001009622
0.0001009619
0.000100959
0.0001009584
0.0001009597
0.0001009582
0.00126615
0.0001011018
0.0001009668
0.0001009481
0.0001009517
0.0001009498
0.0001009496
0.0001009481
0.0001009482
0.000100948
0.000100948
0.001265541
0.0001010865
0.0001009573
0.0001009482
0.0001009494
0.0001009481
0.000100948
0.0001009476
0.0001009476
0.0001009477
0.0001009475
0.001268463
0.0001010699
0.0001009478
0.0001009494
0.0001009474
0.0001009467
0.0001009466
0.0001009465
0.0001009468
0.0001009472
0.0001009477
0.0005717616
0.0001009648
0.0001009541
0.000100948
0.0001009477
0.0001009464
0.0001009463
0.0001009463
0.0001009468
0.0001009474
0.0001009484
0.0005758246
0.0001009655
0.0001009553
0.0001009484
0.0001009475
0.0001009459
0.000100946
0.0001009463
0.0001009468
0.0001009478
0.0001009492
0.0005730094
0.0001009473
0.0001009549
0.0001009457
0.0001009473
0.0001009456
0.0001009457
0.000100946
0.0001009467
0.0001009478
0.0001009509
0.001265499
0.0001010813
0.0001009667
0.0001009457
0.0001009479
0.0001009454
0.0001009454
0.0001009457
0.0001009465
0.0001009495
0.0001009539
0.001262667
0.0001011151
0.0001009557
0.0001009455
0.0001009475
0.0001009457
0.0001009451
0.0001009453
0.0001009476
0.0001009496
0.0001009686
0.001260444
0.0001010794
0.0001009556
0.0001009466
0.0001009474
0.0001009449
0.0001009475
0.000100945
0.000100945
0.0001009409
0.0001009378
0.001259055
0.000101089
0.0001009539
0.0001009463
0.0001009468
0.0001009449
0.0001009448
0.0001009447
0.0001009468
0.000100931
0.000100953
0.001258937
0.0001010968
0.0001009565
0.0001009468
0.0001009468
0.0001009452
0.0001009458
0.0001009456
0.0001009775
0.0001009377
0.0001011234
0.001260107
0.0001011023
0.000100957
0.0001009467
0.0001009471
0.0001009458
0.0001009461
0.0001009472
0.0001009515
0.0001009578
0.0001009882
0.001260876
0.0001011169
0.0001009571
0.0001009476
0.0001009485
0.0001009466
0.0001009529
0.0001009497
0.0001009589
0.0001009676
0.0001017916
0.001262401
0.0001011413
0.000100961
0.0001009484
0.0001009494
0.0001009477
0.000100952
0.0001009531
0.0001009614
0.0001009715
0.0001011019
0.001263808
0.0001011479
0.0001009621
0.0001009496
0.000100951
0.0001009486
0.0001009591
0.0001009531
0.0001009935
0.0001010772
0.0001010409
0.0001010374
0.0001011216
0.0001011392
0.0001011692
0.0001010367
0.0001011117
0.0001013018
0.0001009813
0.0002749652
0.001339442
0.001308145
0.001298836
0.001296421
0.001296129
0.001297336
0.001298877
0.001298268
0.001299059
0.00129956
0.0002706386
0.001312865
0.00125926
0.001243276
0.001238973
0.001237649
0.001237482
0.001237611
0.001237622
0.001237926
0.001238253
0.0002775916
0.001304216
0.001244322
0.001224546
0.001219003
0.001217271
0.0012167
0.001216557
0.001216564
0.001216744
0.001217004
0.0002678453
0.001302704
0.001240199
0.001219097
0.001212893
0.001210849
0.001210097
0.001209853
0.001209868
0.001210091
0.001210435
0.0005910878
0.001301753
0.00123879
0.001217355
0.001210873
0.001208653
0.001207794
0.001207506
0.001207524
0.001207777
0.001208181
0.0005837184
0.001300178
0.001238041
0.00121659
0.001209993
0.001207687
0.001206777
0.001206472
0.0012065
0.00120678
0.001207246
0.0005693688
0.00129896
0.001237702
0.00121623
0.00120959
0.001207247
0.001206323
0.001206016
0.001206063
0.001206375
0.001206889
0.0005796866
0.001298
0.001237544
0.001216042
0.001209382
0.001207032
0.001206113
0.001205833
0.001205921
0.001206278
0.001206849
0.0005847014
0.001300108
0.001237645
0.001215966
0.001209276
0.001206942
0.001206066
0.001205863
0.001206058
0.001206534
0.001207204
0.0002689381
0.001300953
0.001237726
0.001215915
0.001209226
0.001206947
0.001206185
0.00120619
0.001206695
0.001207515
0.001208451
0.0005922797
0.001300468
0.001237414
0.001215814
0.001209222
0.001207072
0.001206632
0.001207342
0.001208929
0.001210963
0.001212829
0.0005834356
0.001298056
0.001236896
0.001215689
0.001209264
0.001207346
0.001207614
0.001211138
0.00121711
0.001222869
0.001228373
0.0005701694
0.001295732
0.001236477
0.001215606
0.001209364
0.001207787
0.001209132
0.001217002
0.001244915
0.001252122
0.00127808
0.0005738196
0.001295581
0.001236398
0.001215619
0.001209524
0.001208306
0.001210755
0.00122208
0.001250745
0.0001095689
0.0001075325
0.0005666791
0.001297289
0.001236588
0.001215712
0.001209709
0.001208752
0.001211952
0.001225364
0.001271801
0.0001015147
0.0001009762
0.0005654963
0.001297366
0.001236642
0.001215821
0.001209913
0.001209094
0.001212664
0.001227763
0.001262409
0.0001019041
0.0001012258
0.0005685516
0.001295616
0.001236515
0.001215945
0.001210162
0.001209431
0.001213138
0.001229558
0.001288199
0.00130886
0.0001015341
0.0005777645
0.001294257
0.001236501
0.001216117
0.001210454
0.001209792
0.00121348
0.001228826
0.00126454
0.0001134241
0.0001013799
0.0005737586
0.001294241
0.001236387
0.001216234
0.001210654
0.001209962
0.00121335
0.001227001
0.001274374
0.0001045662
0.0001011696
0.0005765657
0.001292835
0.001236019
0.001216151
0.001210585
0.001209684
0.001212317
0.001223748
0.001252681
0.0001056206
0.0001012716
0.0002570556
0.0006480809
0.0001016474
0.000269564
0.0001017353
0.0006521778
0.0006357653
0.0001011909
0.0001012644
0.000102446
0.0001028251
0.0006321572
0.0006301124
0.0001015005
0.0001011745
0.000102689
0.000102817
0.0006297798
0.0006296049
0.0001016592
0.0001010835
0.0001028467
0.0001026236
0.0006295757
0.0006294983
0.0001013269
0.0001011333
0.0001026518
0.0001025517
0.0006295151
0.0006294341
0.000101417
0.0001012217
0.0001025392
0.0001024095
0.0006295457
0.000629451
0.0001015306
0.0001013259
0.0001024808
0.0001023565
0.0006295891
0.0006294525
0.0001016447
0.0001014349
0.0001024533
0.0001022988
0.0006296079
0.0006294566
0.0001015777
0.0001015076
0.0001024392
0.0001022445
0.0006296251
0.000629471
0.0001015878
0.0001015409
0.0001024302
0.0001022129
0.000629655
0.0006295017
0.0001015902
0.0001015709
0.0001024154
0.0001022028
0.0006349158
0.00027756
0.000612968
0.000612163
0.0001018531
0.0005974249
0.0001012207
0.000606877
0.0002774767
0.0006039109
0.0006057994
0.0001017115
0.0005918115
0.0001018221
0.0006031809
0.0002774172
0.0006027465
0.0005884782
0.0001016625
0.0005866332
0.0001017231
0.0006026548
0.0002773261
0.0006024968
0.0005862974
0.0001017233