/*--------------------------------*- C++ -*----------------------------------*\
  =========                 |
  \\      /  F ield         | OpenFOAM: The Open Source CFD Toolbox
   \\    /   O peration     | Website:  https://openfoam.org
    \\  /    A nd           | Version:  7
     \\/     M anipulation  |
\*---------------------------------------------------------------------------*/
FoamFile
{
    version     2.0;
    format      ascii;
    class       volVectorField;
    location    "0.04";
    object      U;
}
// * * * * * * * * * * * * * * * * * * * * * * * * * * * * * * * * * * * * * //

dimensions      [0 1 -1 0 0 0 0];

internalField   nonuniform List<vector> 
105056
(
(0.009198954 -0.009180613 4.865924e-06)
(0.01811275 -0.008318027 -0.000354555)
(0.02693279 -0.00745951 -0.0004996255)
(0.03562196 -0.006652149 -0.0006439894)
(0.04444042 -0.005979731 -0.0007722147)
(0.008366453 -0.0181058 0.0003591851)
(0.01786437 -0.01781304 1.536847e-06)
(0.02695484 -0.0174951 -7.312729e-05)
(0.03570787 -0.01726962 -0.0002919035)
(0.04438011 -0.01699929 -0.0005658566)
(0.00755174 -0.02694708 0.0004944702)
(0.01761621 -0.02690328 7.094872e-05)
(0.02688451 -0.0267287 -2.370182e-06)
(0.03568501 -0.02658001 -0.000161044)
(0.04444665 -0.02641828 -0.0004390291)
(0.006801484 -0.035704 0.0006364722)
(0.01749272 -0.03570274 0.000283119)
(0.02688302 -0.0355399 0.0001491046)
(0.03576921 -0.03542957 -9.295946e-06)
(0.04456614 -0.03527474 -0.0002436781)
(0.00618248 -0.04464407 0.0007576716)
(0.01734436 -0.04447424 0.0005484872)
(0.02690917 -0.04435999 0.0004144415)
(0.03586599 -0.04423452 0.0002202624)
(0.04473706 -0.04409418 -2.157762e-05)
(0.005521 -0.05334232 0.0008768248)
(0.01715201 -0.05307163 0.0007935356)
(0.02695705 -0.05314417 0.0006522212)
(0.03599877 -0.05298292 0.0004465395)
(0.0449151 -0.05280445 0.0001792859)
(0.004835878 -0.06198765 0.0009941308)
(0.01700269 -0.06168649 0.001011352)
(0.02703377 -0.06200399 0.0008993207)
(0.03616039 -0.06180718 0.0006850707)
(0.04512765 -0.06159205 0.0004068701)
(0.004149662 -0.07071761 0.001067838)
(0.01694434 -0.07048849 0.001245663)
(0.02715964 -0.07087094 0.001142285)
(0.03635522 -0.07065321 0.0009166489)
(0.04537588 -0.07040698 0.0006369292)
(0.003483605 -0.0796204 0.001150304)
(0.01690458 -0.07944264 0.00149012)
(0.02729845 -0.07977687 0.001393532)
(0.03657271 -0.07955878 0.001149345)
(0.04565603 -0.07928584 0.000867221)
(0.002888246 -0.08859019 0.001221743)
(0.01688794 -0.08853767 0.001724044)
(0.02738967 -0.08864982 0.001617529)
(0.03680578 -0.08853004 0.001379091)
(0.04596667 -0.08822236 0.00109293)
(0.002288664 -0.09767367 0.001310669)
(0.01687867 -0.09773282 0.001951466)
(0.02757091 -0.09767467 0.001831803)
(0.0370775 -0.09755258 0.001610438)
(0.04631014 -0.09722413 0.001317573)
(0.001655825 -0.1068354 0.001422796)
(0.01685462 -0.1069891 0.002167171)
(0.02773986 -0.1067054 0.002045464)
(0.03737253 -0.1066572 0.001837222)
(0.04668322 -0.106299 0.001537927)
(0.00104114 -0.1160696 0.001517517)
(0.01684124 -0.1163299 0.002384261)
(0.02792385 -0.115804 0.002261597)
(0.0376794 -0.115835 0.00207236)
(0.04708218 -0.1154518 0.001759676)
(0.0004194456 -0.1253757 0.001635591)
(0.01684445 -0.1257698 0.002594453)
(0.02814786 -0.1250599 0.002469956)
(0.03797903 -0.1250669 0.002288078)
(0.04750832 -0.1246915 0.001977069)
(-0.000183835 -0.1347513 0.001740977)
(0.0168626 -0.1353255 0.002809705)
(0.02838389 -0.1344082 0.002680705)
(0.03837927 -0.1345238 0.002505642)
(0.04797135 -0.1339992 0.002196284)
(-0.0007712609 -0.1441768 0.001858179)
(0.01688445 -0.144975 0.003020941)
(0.02863044 -0.143917 0.002882568)
(0.03871006 -0.1438471 0.002705685)
(0.04844402 -0.1434317 0.002412066)
(-0.001335679 -0.1536875 0.001964502)
(0.01691486 -0.1547209 0.003235263)
(0.02893081 -0.1536255 0.003102862)
(0.03908035 -0.1532532 0.002914842)
(0.04891962 -0.1529814 0.002623851)
(-0.001888407 -0.1632823 0.002074288)
(0.0169842 -0.164563 0.003441297)
(0.02920729 -0.1634075 0.003312087)
(0.03949435 -0.1628297 0.003123554)
(0.04947775 -0.162771 0.002851315)
(-0.002429966 -0.1730026 0.002181366)
(0.01705496 -0.174485 0.003638514)
(0.02950041 -0.1733003 0.003527787)
(0.03990766 -0.172555 0.003320728)
(0.05002717 -0.1725264 0.003043218)
(-0.002957155 -0.1828224 0.002312896)
(0.01712602 -0.1844857 0.00381621)
(0.02979319 -0.1833035 0.003734929)
(0.04033807 -0.1824181 0.003514466)
(0.05054053 -0.1822249 0.003234044)
(-0.003481812 -0.1927522 0.002435395)
(0.01720628 -0.1946138 0.003994428)
(0.03011108 -0.1934595 0.003947592)
(0.04078632 -0.1923893 0.003709868)
(0.05108306 -0.1920276 0.003435378)
(-0.003977147 -0.2027748 0.002567547)
(0.01729547 -0.204848 0.004177699)
(0.03044175 -0.2037409 0.004158126)
(0.04125245 -0.2024712 0.003911033)
(0.05167604 -0.2019659 0.003640503)
(0.01774787 -0.2221625 0.01922062)
(0.01739524 -0.2152099 0.004371978)
(0.03078525 -0.2141535 0.004383723)
(0.04171805 -0.2126681 0.004105378)
(0.05225644 -0.2121012 0.003845172)
(0.01057419 -0.001703878 0.0003869249)
(0.01845656 -0.002097281 0.0008723269)
(0.02715024 -0.00196587 0.001379642)
(0.03577939 -0.00200253 0.001835089)
(0.04444593 -0.002151891 0.002357834)
(0.00172303 -0.01063348 -0.0003688396)
(0.01291167 -0.01288905 1.886955e-06)
(0.02138356 -0.01291224 -1.780615e-05)
(0.03011653 -0.01271792 0.0001211816)
(0.03870241 -0.01272851 5.410283e-05)
(0.04734928 -0.01267749 5.782156e-05)
(0.002112744 -0.01851914 -0.0008506753)
(0.01295961 -0.0213797 9.037214e-06)
(0.02141433 -0.02133979 -9.943404e-06)
(0.03015332 -0.02130575 6.338553e-05)
(0.03878786 -0.02126039 3.272724e-05)
(0.04748288 -0.0211391 7.226739e-05)
(0.001989248 -0.02725553 -0.001358601)
(0.01282411 -0.03014692 -0.0001281892)
(0.02147932 -0.03009418 -6.161912e-05)
(0.03019334 -0.03000177 1.298627e-05)
(0.03885752 -0.02993867 -5.118177e-05)
(0.04758645 -0.0298145 5.121285e-06)
(0.002028566 -0.03598512 -0.001817108)
(0.01290837 -0.03881892 -6.07855e-05)
(0.02155766 -0.03879363 -3.03824e-05)
(0.03030271 -0.03869815 6.073224e-05)
(0.03897724 -0.03859134 -1.451084e-07)
(0.04772989 -0.03844279 5.719524e-05)
(0.002180793 -0.04478258 -0.002336645)
(0.01295272 -0.04760669 -6.333433e-05)
(0.02158682 -0.04760579 -7.771778e-05)
(0.03039614 -0.04750437 -3.273195e-06)
(0.0391158 -0.04737092 -5.780182e-05)
(0.04790322 -0.04719561 -3.42041e-07)
(0.002385087 -0.05362966 -0.003024223)
(0.01310097 -0.05639711 -6.393795e-06)
(0.02165622 -0.05639832 -5.920687e-05)
(0.03054189 -0.05626847 2.813444e-05)
(0.03928922 -0.05610737 -2.387231e-05)
(0.04811536 -0.05590554 3.482392e-05)
(0.002565257 -0.0624833 -0.003810541)
(0.0131979 -0.06528397 3.211746e-05)
(0.02171698 -0.06526528 -7.200156e-05)
(0.03069398 -0.06512753 1.180545e-05)
(0.03948249 -0.06494348 -4.335315e-05)
(0.04835598 -0.06471365 1.303193e-05)
(0.002693495 -0.07131721 -0.004441114)
(0.01328922 -0.07420885 5.561156e-05)
(0.02181703 -0.0741485 -5.478379e-05)
(0.03087236 -0.07399859 2.294808e-05)
(0.03970736 -0.07379091 -3.193597e-05)
(0.04863301 -0.07353079 2.111098e-05)
(0.002781183 -0.08018216 -0.004982862)
(0.01335419 -0.08319919 6.554124e-05)
(0.02193245 -0.08310481 -4.524446e-05)
(0.03106153 -0.08294189 2.337223e-05)
(0.03995505 -0.08271354 -3.374837e-05)
(0.04893931 -0.08242167 1.584838e-05)
(0.002816704 -0.0890367 -0.00537766)
(0.01343653 -0.09222074 5.928243e-05)
(0.02207991 -0.09211905 -3.947693e-05)
(0.03127506 -0.09193454 2.830914e-05)
(0.04023301 -0.09168709 -3.090843e-05)
(0.04928057 -0.09136455 1.76549e-05)
(0.002889066 -0.09806132 -0.005870611)
(0.0135425 -0.1012919 7.03475e-05)
(0.02222485 -0.1012024 -3.323108e-05)
(0.03150589 -0.1009943 3.751632e-05)
(0.04053122 -0.1007303 -2.861332e-05)
(0.04965154 -0.1003785 1.849397e-05)
(0.00297388 -0.1071451 -0.006390963)
(0.01366341 -0.110445 8.330567e-05)
(0.02238439 -0.1103554 -3.318284e-05)
(0.0317606 -0.1101282 4.57866e-05)
(0.04085572 -0.1098441 -2.591778e-05)
(0.05005442 -0.1094645 2.070005e-05)
(0.003056199 -0.116305 -0.006973915)
(0.01379438 -0.1196729 0.0001019938)
(0.02254871 -0.1195794 -3.397449e-05)
(0.03203207 -0.1193383 5.300246e-05)
(0.04120231 -0.1190367 -2.234003e-05)
(0.05048586 -0.1186299 2.35246e-05)
(0.003140453 -0.1255396 -0.007539448)
(0.01393867 -0.128994 0.0001236815)
(0.02272652 -0.1288817 -3.760081e-05)
(0.03231954 -0.1286295 5.898262e-05)
(0.04157182 -0.1283071 -1.871392e-05)
(0.05094756 -0.1278782 2.642003e-05)
(0.003218517 -0.1348774 -0.008001518)
(0.01409497 -0.1384128 0.0001494769)
(0.02292112 -0.1382697 -4.037015e-05)
(0.03262394 -0.1380103 6.511033e-05)
(0.04196204 -0.1376646 -1.235004e-05)
(0.0514312 -0.1372157 3.115536e-05)
(0.003292749 -0.1442835 -0.008358465)
(0.01424456 -0.1479163 0.0001809738)
(0.0231373 -0.1477508 -4.393877e-05)
(0.03294315 -0.1474811 6.558081e-05)
(0.04237544 -0.1471204 -9.308949e-06)
(0.05194145 -0.1466497 3.643947e-05)
(0.00338347 -0.1537802 -0.008730318)
(0.01439364 -0.1575051 0.0002137185)
(0.02336489 -0.1573249 -4.556498e-05)
(0.03327408 -0.157044 6.865307e-05)
(0.04280285 -0.1566702 -8.097989e-06)
(0.05247536 -0.156179 4.190405e-05)
(0.003488125 -0.1633624 -0.009143854)
(0.01454269 -0.1671843 0.000243674)
(0.02360716 -0.1669973 -4.414522e-05)
(0.03361874 -0.1667075 7.18901e-05)
(0.04325052 -0.1663193 -5.744374e-06)
(0.05303046 -0.1658067 4.850299e-05)
(0.003592517 -0.1730717 -0.009666826)
(0.01470438 -0.1769656 0.0002611611)
(0.02385058 -0.1767744 -4.023707e-05)
(0.03397404 -0.1764775 7.455163e-05)
(0.04371386 -0.1760756 -3.724026e-06)
(0.05360417 -0.175546 5.811207e-05)
(0.003691196 -0.1828814 -0.0101666)
(0.01486984 -0.1868548 0.0002704377)
(0.02410361 -0.1866565 -3.540157e-05)
(0.03434022 -0.1863545 7.61554e-05)
(0.04419244 -0.1859423 -3.580045e-06)
(0.05419626 -0.1853995 6.481022e-05)
(0.003788909 -0.1928121 -0.0106751)
(0.01504424 -0.1968559 0.0002771575)
(0.02435848 -0.1966484 -2.808965e-05)
(0.03471184 -0.196341 7.925212e-05)
(0.04467967 -0.1959195 -3.000959e-06)
(0.05480072 -0.1953649 6.940627e-05)
(0.003883712 -0.202829 -0.0111324)
(0.01521873 -0.2069696 0.0002847923)
(0.02462508 -0.2067516 -1.890189e-05)
(0.03509379 -0.2064398 8.273866e-05)
(0.04517986 -0.2060111 -6.885709e-06)
(0.0554224 -0.2054466 7.436077e-05)
(0.0002501099 -0.2181622 0.01113955)
(0.01540503 -0.2171925 0.0002959843)
(0.02489529 -0.2169704 -9.042712e-06)
(0.03547909 -0.2166561 8.805033e-05)
(0.04568529 -0.2162218 -7.484829e-06)
(0.05605732 -0.21565 7.978696e-05)
(0.01056723 -0.001563535 6.750506e-06)
(0.0187125 -0.002586702 0.0003137875)
(0.02757497 -0.002543418 0.0003919165)
(0.03644626 -0.00259237 0.0004279267)
(0.04530703 -0.002800457 0.0005225843)
(0.001585557 -0.01061965 -1.420342e-05)
(0.01289705 -0.01287235 -5.673949e-06)
(0.02152934 -0.01274813 9.922675e-05)
(0.03015637 -0.01256082 0.0001617678)
(0.03872444 -0.0125211 0.000132033)
(0.04738458 -0.01248556 0.0001369778)
(0.00259034 -0.0187484 -0.0003067811)
(0.01278814 -0.02152635 -0.0001075968)
(0.02150931 -0.02142663 -1.237874e-05)
(0.0301056 -0.02121861 -3.294836e-06)
(0.03882138 -0.02134857 -2.768711e-05)
(0.04751324 -0.0212701 -9.392922e-06)
(0.002507784 -0.02768286 -0.0003472264)
(0.01267389 -0.03018502 -0.0001777536)
(0.02133002 -0.03007194 -6.994394e-06)
(0.0302003 -0.03000409 1.593752e-05)
(0.03889737 -0.02994398 1.582686e-07)
(0.04761093 -0.0298198 2.836832e-05)
(0.002612642 -0.03662257 -0.0004205893)
(0.01269884 -0.03884061 -0.0001555377)
(0.0216271 -0.03881069 2.396681e-05)
(0.03030456 -0.03875429 1.979264e-05)
(0.03902111 -0.0386398 7.066974e-07)
(0.0477509 -0.03849538 2.705653e-05)
(0.002826048 -0.04559726 -0.0005056134)
(0.01274342 -0.04764873 -0.0001538486)
(0.0217313 -0.04763909 7.277345e-06)
(0.03040672 -0.04753516 -2.475147e-05)
(0.03916865 -0.04739111 -2.473201e-05)
(0.04792794 -0.04721924 -7.312059e-08)
(0.003084818 -0.05458385 -0.0005683803)
(0.01292683 -0.05644461 -0.0001394671)
(0.02180209 -0.0564328 1.203756e-05)
(0.03055578 -0.05629258 -1.407929e-05)
(0.03933831 -0.05612819 -1.358534e-05)
(0.04813522 -0.05592893 7.998456e-06)
(0.003368439 -0.06356529 -0.0006890862)
(0.01306894 -0.06534864 -0.0001569525)
(0.02187074 -0.06529511 -4.451901e-06)
(0.03071375 -0.06515309 -2.88336e-05)
(0.03953329 -0.06496166 -2.528092e-05)
(0.04837624 -0.06473243 -5.875024e-06)
(0.003634395 -0.07252843 -0.0007524328)
(0.01316129 -0.0742861 -0.0001726492)
(0.02199083 -0.0741697 1.334823e-06)
(0.03089176 -0.07402282 -2.797733e-05)
(0.03975975 -0.07380628 -2.08396e-05)
(0.04865092 -0.07354676 -3.065181e-06)
(0.00385297 -0.08155244 -0.0008297395)
(0.01321467 -0.08327315 -0.0001947184)
(0.0221209 -0.08312627 2.3636e-06)
(0.03107953 -0.08296616 -3.39966e-05)
(0.04000981 -0.08273048 -2.342249e-05)
(0.04895703 -0.08243907 -7.448244e-06)
(0.004019132 -0.09061838 -0.0009276091)
(0.01328242 -0.09230133 -0.0001989375)
(0.02227866 -0.09214456 7.570038e-06)
(0.0312907 -0.09195958 -3.212243e-05)
(0.04028736 -0.09170512 -2.232252e-05)
(0.04929716 -0.09138158 -7.101941e-06)
(0.004205159 -0.09976815 -0.001024888)
(0.01337714 -0.1013837 -0.0002201219)
(0.02243886 -0.1012348 7.147922e-06)
(0.03152212 -0.1010234 -3.47913e-05)
(0.04058857 -0.100751 -2.358777e-05)
(0.04966856 -0.1003972 -8.52902e-06)
(0.004394302 -0.1089812 -0.001118598)
(0.01349711 -0.110541 -0.0002345672)
(0.0226137 -0.1103917 7.070263e-06)
(0.03177637 -0.1101569 -3.477975e-05)
(0.0409134 -0.1098662 -2.393868e-05)
(0.05007153 -0.109484 -8.815493e-06)
(0.004618356 -0.1182972 -0.001225041)
(0.01362016 -0.1197688 -0.000256342)
(0.0227996 -0.1196198 5.60073e-06)
(0.0320483 -0.1193671 -3.506854e-05)
(0.04126028 -0.1190583 -2.52311e-05)
(0.05050346 -0.1186505 -9.163877e-06)
(0.004847131 -0.1277031 -0.001344925)
(0.0137599 -0.1290739 -0.0002713485)
(0.02299302 -0.1289276 4.90936e-06)
(0.03233865 -0.1286589 -3.48671e-05)
(0.04162964 -0.1283323 -2.395509e-05)
(0.05096325 -0.1279012 -9.027224e-06)
(0.00506313 -0.1371929 -0.001446465)
(0.01390816 -0.1384616 -0.0002848478)
(0.02319042 -0.1383193 -4.172129e-07)
(0.03264448 -0.138037 -3.58263e-05)
(0.04201971 -0.1376933 -2.70453e-05)
(0.05144858 -0.1372407 -1.044417e-05)
(0.005305519 -0.1467784 -0.001635072)
(0.0140666 -0.1479485 -0.0002821403)
(0.02339111 -0.1478014 -4.178294e-06)
(0.0329654 -0.1475092 -3.398439e-05)
(0.04242814 -0.1471465 -2.804967e-05)
(0.05195863 -0.1466741 -1.056701e-05)
(0.005525838 -0.1564383 -0.001722856)
(0.01423317 -0.157544 -0.0002837874)
(0.02360097 -0.1573782 -1.066142e-05)
(0.03330007 -0.1570797 -3.53548e-05)
(0.04285604 -0.1566979 -2.865427e-05)
(0.05249107 -0.1562059 -9.906981e-06)
(0.005761777 -0.1662231 -0.00194625)
(0.01441082 -0.1672549 -0.0002724402)
(0.02382437 -0.1670539 -1.595493e-05)
(0.03364647 -0.1667506 -3.640516e-05)
(0.04330232 -0.1663511 -2.986457e-05)
(0.05304515 -0.165841 -1.132122e-05)
(0.005964384 -0.1761154 -0.002080359)
(0.01458157 -0.1770733 -0.0002694987)
(0.02407174 -0.1768342 -2.212947e-05)
(0.03400362 -0.1765246 -3.955973e-05)
(0.04376602 -0.1761097 -3.200143e-05)
(0.05361832 -0.1755824 -1.501532e-05)
(0.006195544 -0.1861023 -0.00221873)
(0.01474247 -0.186985 -0.0002593997)
(0.02433717 -0.1867222 -2.484042e-05)
(0.03437198 -0.1864041 -4.025478e-05)
(0.04424472 -0.1859768 -3.315497e-05)
(0.05420915 -0.1854333 -1.678212e-05)
(0.006423692 -0.1961949 -0.002288727)
(0.01489688 -0.1969955 -0.0002585522)
(0.02461439 -0.1967201 -2.959686e-05)
(0.0347507 -0.1963936 -4.259538e-05)
(0.04473685 -0.195956 -3.39856e-05)
(0.05481558 -0.195399 -1.733895e-05)
(0.006661136 -0.2063926 -0.002403279)
(0.01505426 -0.2071088 -0.0002550489)
(0.02489692 -0.2068295 -3.251389e-05)
(0.0351389 -0.2064952 -4.464012e-05)
(0.04523957 -0.206049 -3.655893e-05)
(0.05543498 -0.2054803 -1.955641e-05)
(0.006900004 -0.2167189 -0.002532377)
(0.0152167 -0.2173384 -0.000265827)
(0.02518202 -0.2170537 -4.009663e-05)
(0.03553461 -0.2167135 -4.963893e-05)
(0.04575273 -0.2162611 -3.953964e-05)
(0.05606638 -0.215682 -2.129761e-05)
(0.01052592 -0.00153204 -1.205121e-05)
(0.0187728 -0.002291625 1.870309e-05)
(0.02767008 -0.002179064 8.047851e-05)
(0.03654297 -0.002176751 9.183094e-05)
(0.04537361 -0.002550284 0.0001889542)
(0.001545242 -0.01058839 8.859927e-06)
(0.01284227 -0.01282239 -7.277762e-06)
(0.02157955 -0.01263761 1.546948e-05)
(0.03015664 -0.01240236 5.825883e-05)
(0.03869942 -0.01235562 3.341127e-05)
(0.04736474 -0.01231734 4.237357e-05)
(0.002320799 -0.01882932 -3.313863e-05)
(0.01266914 -0.02157791 -2.595249e-05)
(0.02152979 -0.02143982 -9.565161e-06)
(0.03009997 -0.02120422 2.268811e-05)
(0.03880325 -0.02138532 -2.134892e-05)
(0.04752542 -0.02131046 -1.233689e-06)
(0.002237309 -0.02776372 -8.882489e-05)
(0.0125304 -0.03018062 -6.177459e-05)
(0.02128868 -0.03010979 -3.067621e-05)
(0.03018797 -0.02998229 5.700186e-06)
(0.03888432 -0.02994447 -2.594203e-05)
(0.04762206 -0.02982237 -1.045861e-06)
(0.002259005 -0.03673436 -9.43867e-05)
(0.01258033 -0.03879426 -3.234495e-05)
(0.02162347 -0.03877859 1.08401e-05)
(0.03031028 -0.03874992 4.067526e-05)
(0.03901228 -0.03864107 3.704342e-07)
(0.04776212 -0.03849797 2.312747e-05)
(0.002534745 -0.04569219 -0.0001225944)
(0.01255851 -0.04761316 -5.117565e-05)
(0.02178351 -0.04764667 -6.075546e-06)
(0.03041422 -0.04755072 3.258707e-06)
(0.0391708 -0.04740223 -2.267031e-05)
(0.04794058 -0.04723159 3.807334e-07)
(0.002596719 -0.05474664 -2.238513e-05)
(0.0127892 -0.0564258 -3.79529e-05)
(0.02184491 -0.05642854 1.58461e-05)
(0.03056584 -0.05628797 1.615983e-05)
(0.03934205 -0.05612161 -5.969335e-06)
(0.04814725 -0.05592448 1.442074e-05)
(0.003036742 -0.0637663 -3.959822e-05)
(0.01294645 -0.06534668 -4.610836e-05)
(0.02190911 -0.06529544 7.468819e-06)
(0.03072374 -0.06515724 7.324629e-06)
(0.03953687 -0.06496399 -1.392438e-05)
(0.04838929 -0.06473716 4.970755e-06)
(0.003328514 -0.07281599 -3.900968e-05)
(0.01304246 -0.07428025 -4.091906e-05)
(0.02202854 -0.07416241 1.408454e-05)
(0.03090125 -0.07402037 1.028401e-05)
(0.03976417 -0.07380253 -8.799611e-06)
(0.04866381 -0.07354493 8.252265e-06)
(0.003485073 -0.0818568 -2.36317e-05)
(0.01308971 -0.08326276 -4.253209e-05)
(0.02216066 -0.08312151 1.634718e-05)
(0.03108707 -0.08296394 8.729114e-06)
(0.04001369 -0.08272947 -9.557605e-06)
(0.04896973 -0.08243899 6.181596e-06)
(0.003807348 -0.09094384 -0.0001290627)
(0.01314935 -0.09228739 -3.177579e-05)
(0.02231308 -0.09213968 2.048125e-05)
(0.03129651 -0.09195483 1.09519e-05)
(0.04029019 -0.0917029 -7.986633e-06)
(0.04930922 -0.09137952 6.974306e-06)
(0.004046765 -0.1000552 -0.0001721528)
(0.01323983 -0.101373 -3.533445e-05)
(0.02247431 -0.1012313 2.324165e-05)
(0.0315266 -0.1010188 1.211473e-05)
(0.04058972 -0.1007492 -7.61346e-06)
(0.0496803 -0.1003953 7.40383e-06)
(0.004332873 -0.1093083 -0.0002308752)
(0.01335915 -0.1105306 -3.117656e-05)
(0.02264832 -0.1103889 2.525422e-05)
(0.0317809 -0.1101524 1.380305e-05)
(0.04091389 -0.1098643 -6.789858e-06)
(0.05008253 -0.1094816 7.943441e-06)
(0.004469411 -0.1186477 -0.0002064881)
(0.01347589 -0.1197631 -3.381931e-05)
(0.022835 -0.1196171 2.684317e-05)
(0.03205302 -0.1193638 1.489516e-05)
(0.04126005 -0.1190566 -6.468907e-06)
(0.05051412 -0.1186482 8.569706e-06)
(0.004768751 -0.1280779 -0.0002678039)
(0.01360512 -0.12908 -3.701773e-05)
(0.02303 -0.1289267 2.828261e-05)
(0.0323432 -0.1286575 1.53618e-05)
(0.04162992 -0.1283307 -5.925916e-06)
(0.05097326 -0.1278987 8.977057e-06)
(0.004918951 -0.1375715 -0.0002273123)
(0.01374143 -0.1384846 -5.095184e-05)
(0.02323914 -0.138321 2.774871e-05)
(0.03265064 -0.1380387 1.458847e-05)
(0.04202111 -0.1376919 -5.838329e-06)
(0.05145857 -0.1372381 9.886687e-06)
(0.005178053 -0.1471681 -0.0002729794)
(0.01388697 -0.1479802 -7.102404e-05)
(0.02345625 -0.1478063 2.635203e-05)
(0.03297345 -0.1475119 1.200631e-05)
(0.04243256 -0.147147 -6.300253e-06)
(0.0519692 -0.1466719 1.017829e-05)
(0.004929602 -0.1566657 -6.928292e-05)
(0.01404472 -0.1575647 -0.0001039742)
(0.02368604 -0.1573849 2.270025e-05)
(0.03331127 -0.1570802 9.51874e-06)
(0.04286217 -0.1566988 -7.65826e-06)
(0.05250274 -0.1562038 1.079321e-05)
(0.005302382 -0.1665155 -0.0001272268)
(0.01421432 -0.167244 -0.0001217284)
(0.02391776 -0.1670601 1.876998e-05)
(0.03366078 -0.1667482 8.240843e-06)
(0.04330965 -0.166352 -8.614844e-06)
(0.05305701 -0.1658385 1.12814e-05)
(0.005429676 -0.1764039 -0.0001008101)
(0.01439321 -0.1770315 -0.0001267185)
(0.02415702 -0.1768381 1.431156e-05)
(0.03402066 -0.1765213 8.394967e-06)
(0.04377271 -0.1761115 -9.383286e-06)
(0.05363088 -0.1755812 1.292972e-05)
(0.005795087 -0.1864785 -0.0002042114)
(0.01458187 -0.1869278 -0.0001164591)
(0.0244012 -0.1867223 1.102736e-05)
(0.03438878 -0.1864009 9.369113e-06)
(0.0442503 -0.1859797 -9.786528e-06)
(0.05422178 -0.1854344 1.402216e-05)
(0.005893524 -0.1965415 -0.0001870777)
(0.01477403 -0.1969392 -0.0001039663)
(0.0246545 -0.1967166 9.866607e-06)
(0.03476488 -0.1963909 1.120974e-05)
(0.04473938 -0.19596 -9.354082e-06)
(0.05482823 -0.1954019 1.679011e-05)
(0.006172452 -0.2067728 -0.0002792324)
(0.01496121 -0.2070662 -8.500007e-05)
(0.02491701 -0.2068228 1.014241e-05)
(0.03514721 -0.2064916 1.190549e-05)
(0.04523899 -0.2060528 -1.189553e-05)
(0.05544791 -0.2054835 1.626888e-05)
(0.006459856 -0.2171032 -0.0003492423)
(0.01513079 -0.2173121 -7.128293e-05)
(0.02519341 -0.2170454 1.336811e-05)
(0.0355366 -0.2167077 1.607477e-05)
(0.04574748 -0.2162627 -9.468834e-06)
(0.05607917 -0.2156836 2.364239e-05)
(0.01050455 -0.001523892 -9.957327e-06)
(0.01875153 -0.002296387 -8.054957e-06)
(0.02769474 -0.002030906 -1.345371e-05)
(0.03653557 -0.002165334 -3.618969e-06)
(0.04534237 -0.002214604 2.542527e-05)
(0.001526624 -0.01059783 1.235883e-06)
(0.01283284 -0.01281586 -1.479265e-06)
(0.02160337 -0.01261032 1.162723e-05)
(0.03014541 -0.01239193 1.969813e-05)
(0.03870016 -0.0123241 1.377661e-05)
(0.04737427 -0.01227502 2.377225e-05)
(0.002114028 -0.01889515 3.561925e-06)
(0.01263182 -0.0216006 -1.17279e-05)
(0.02153093 -0.02143736 -4.399216e-06)
(0.03008256 -0.02110201 8.534989e-06)
(0.03879986 -0.02137661 -1.001393e-05)
(0.04752739 -0.02132657 -6.799622e-06)
(0.001887629 -0.02787235 4.199025e-06)
(0.01252282 -0.03016909 -1.598133e-05)
(0.02119436 -0.03012817 -7.791397e-06)
(0.03017709 -0.02996708 1.791563e-06)
(0.03889171 -0.02993372 2.097008e-06)
(0.04762829 -0.02981601 7.357754e-06)
(0.001873893 -0.03679399 4.76376e-06)
(0.0125579 -0.03878983 -1.255123e-05)
(0.02160966 -0.03877393 8.155852e-06)
(0.03029556 -0.03875684 2.849189e-06)
(0.03901779 -0.03865008 9.562895e-07)
(0.0477649 -0.03851281 2.391536e-06)
(0.001947228 -0.04571114 4.421848e-06)
(0.01254884 -0.04761511 -1.390148e-05)
(0.0218008 -0.04765151 7.495618e-06)
(0.03041465 -0.04755567 -4.888258e-06)
(0.0391863 -0.04740598 -1.013942e-06)
(0.04794747 -0.04723864 1.646683e-07)
(0.002589828 -0.05473828 -9.720243e-05)
(0.01273091 -0.05643596 -2.013862e-05)
(0.02187158 -0.05642223 1.348792e-05)
(0.03055787 -0.05629084 -4.267741e-06)
(0.03935784 -0.05612316 6.757995e-07)
(0.04815276 -0.05592911 2.037892e-07)
(0.002972125 -0.06374471 -8.364877e-05)
(0.01288513 -0.06534715 -2.13068e-05)
(0.02193405 -0.06529715 1.096871e-05)
(0.03071659 -0.06516023 -6.959055e-06)
(0.039553 -0.06496626 -1.437979e-06)
(0.04839508 -0.06474102 -2.810762e-06)
(0.003257225 -0.07278604 -4.395028e-05)
(0.01298922 -0.07427721 -2.463523e-05)
(0.02205268 -0.07416072 1.156026e-05)
(0.03089366 -0.07402185 -7.240157e-06)
(0.03978042 -0.07380269 -1.007119e-06)
(0.04866904 -0.07354645 -2.795266e-06)
(0.003326824 -0.08184587 -1.575053e-05)
(0.01303776 -0.08325768 -2.79331e-05)
(0.02218356 -0.08311939 1.181498e-05)
(0.03107863 -0.08296557 -9.073854e-06)
(0.04003043 -0.0827298 -1.688618e-06)
(0.04897435 -0.08244056 -4.111639e-06)
(0.00379505 -0.09091428 -6.278461e-05)
(0.01310595 -0.09228683 -2.835367e-05)
(0.02233292 -0.09213714 1.321325e-05)
(0.03128685 -0.09195624 -9.576869e-06)
(0.04030673 -0.09170296 -1.675202e-06)
(0.04931368 -0.09138028 -4.457052e-06)
(0.004052902 -0.1000268 -8.74647e-05)
(0.01319477 -0.1013752 -3.415946e-05)
(0.02249737 -0.1012295 1.385187e-05)
(0.03151577 -0.1010203 -1.125703e-05)
(0.0406074 -0.1007495 -1.998625e-06)
(0.0496842 -0.1003961 -5.465316e-06)
(0.004327233 -0.1092855 -9.503076e-05)
(0.01331463 -0.1105311 -3.99606e-05)
(0.02267078 -0.1103875 1.434712e-05)
(0.03176906 -0.1101535 -1.211276e-05)
(0.04093168 -0.1098647 -2.726138e-06)
(0.05008636 -0.1094824 -6.125977e-06)
(0.004451174 -0.1186057 -8.703043e-05)
(0.0134299 -0.1197655 -3.873996e-05)
(0.02286034 -0.1196163 1.533776e-05)
(0.03204021 -0.119365 -1.327212e-05)
(0.04127906 -0.1190571 -3.243091e-06)
(0.05051755 -0.1186491 -6.983374e-06)
(0.004709203 -0.1280542 -0.000111802)
(0.01355459 -0.1290813 -4.328431e-05)
(0.02305716 -0.1289263 1.521441e-05)
(0.03232997 -0.1286589 -1.418424e-05)
(0.04164878 -0.1283316 -3.95348e-06)
(0.05097685 -0.1278998 -7.678381e-06)
(0.004787012 -0.1375177 -7.906749e-05)
(0.01368849 -0.1384853 -4.416452e-05)
(0.0232676 -0.138321 1.509437e-05)
(0.03263665 -0.1380401 -1.571193e-05)
(0.04204003 -0.1376933 -5.038812e-06)
(0.05146213 -0.1372395 -8.971789e-06)
(0.005021816 -0.1471379 -9.691994e-05)
(0.0138273 -0.1479907 -4.977738e-05)
(0.02348596 -0.1478064 1.442974e-05)
(0.032959 -0.1475141 -1.701343e-05)
(0.04245101 -0.1471482 -6.633858e-06)
(0.05197338 -0.1466731 -1.024055e-05)
(0.004535114 -0.1566294 7.604536e-06)
(0.01396111 -0.1575831 -5.276379e-05)
(0.02372655 -0.157386 1.444996e-05)
(0.03329623 -0.1570836 -1.937214e-05)
(0.0428822 -0.1567004 -8.321378e-06)
(0.05250659 -0.1562053 -1.230557e-05)
(0.004680662 -0.1663905 1.409189e-05)
(0.01411486 -0.167265 -6.50596e-05)
(0.02396667 -0.1670629 1.221778e-05)
(0.03364591 -0.1667522 -2.260372e-05)
(0.04333044 -0.1663537 -1.144424e-05)
(0.05306163 -0.16584 -1.511104e-05)
(0.005013177 -0.1763283 -9.73052e-06)
(0.01427712 -0.1770544 -7.865572e-05)
(0.02421919 -0.176843 8.891711e-06)
(0.03400696 -0.1765245 -2.690565e-05)
(0.04379563 -0.1761125 -1.483464e-05)
(0.05363571 -0.1755815 -1.923946e-05)
(0.005011156 -0.1862307 1.526755e-05)
(0.01445259 -0.1869475 -9.55628e-05)
(0.02447491 -0.1867276 3.312359e-06)
(0.03437784 -0.1864018 -3.176138e-05)
(0.0442744 -0.1859781 -2.041509e-05)
(0.05422747 -0.1854312 -2.475261e-05)
(0.00512173 -0.1963126 2.760007e-05)
(0.01463077 -0.1969475 -0.0001079797)
(0.02474069 -0.1967208 -1.892632e-06)
(0.0347577 -0.1963898 -3.705929e-05)
(0.0447668 -0.1959572 -2.588017e-05)
(0.05483475 -0.1953963 -3.154885e-05)
(0.005301031 -0.206519 3.04927e-05)
(0.01481646 -0.2070576 -0.0001198001)
(0.0250054 -0.2068237 -8.678549e-06)
(0.0351426 -0.2064864 -4.385789e-05)
(0.04526733 -0.2060445 -3.526671e-05)
(0.05545471 -0.2054687 -4.202845e-05)
(0.005572985 -0.2168499 1.297265e-05)
(0.01499931 -0.2172884 -0.0001175197)
(0.02528186 -0.2170465 -1.325212e-05)
(0.03553695 -0.2167053 -5.056592e-05)
(0.04578295 -0.2162604 -4.492606e-05)
(0.05608903 -0.2156742 -5.569944e-05)
(0.01054992 -0.001525234 -4.200228e-06)
(0.01878943 -0.002191464 -6.933062e-06)
(0.02769003 -0.002029732 -5.013262e-06)
(0.03653585 -0.001976173 -5.049093e-06)
(0.04533596 -0.002232301 -9.680226e-06)
(0.00153202 -0.01056823 -6.779378e-06)
(0.01283337 -0.01281044 7.642651e-06)
(0.02160311 -0.01261252 -7.518696e-06)
(0.03014636 -0.01239378 -1.398569e-05)
(0.03870144 -0.01232282 -8.591204e-06)
(0.04737412 -0.01228417 -1.715257e-05)
(0.00221873 -0.01887211 -5.022697e-06)
(0.0126366 -0.02159669 1.955838e-05)
(0.02152723 -0.02143581 4.069351e-06)
(0.03008299 -0.02110532 -7.612301e-06)
(0.03880057 -0.02137711 8.854553e-06)
(0.04752685 -0.02132787 8.198401e-06)
(0.001942952 -0.02787038 -7.775853e-06)
(0.01252342 -0.03016979 2.389274e-05)
(0.02119393 -0.03012828 8.3583e-06)
(0.03017708 -0.02996662 -1.878331e-07)
(0.03889159 -0.02993314 -1.822784e-06)
(0.04762814 -0.0298173 -5.59297e-06)
(0.001886382 -0.03680217 -8.459809e-06)
(0.01255968 -0.03878951 2.013318e-05)
(0.02160419 -0.03877075 -8.944512e-06)
(0.03029554 -0.03875637 -2.182822e-06)
(0.03901669 -0.03865036 -2.521873e-08)
(0.04776466 -0.03851332 -1.153587e-06)
(0.001998382 -0.0457181 -9.206233e-06)
(0.01252898 -0.04761138 2.702251e-05)
(0.02179587 -0.04765273 -4.124061e-06)
(0.03041132 -0.04755616 7.501355e-06)
(0.03918523 -0.04740601 2.463024e-06)
(0.04794685 -0.047239 8.90578e-07)
(0.002741355 -0.05474594 2.013394e-05)
(0.01274269 -0.05642938 3.933362e-05)
(0.02186187 -0.05642637 -1.384775e-05)
(0.03055804 -0.0562908 7.504467e-06)
(0.03935649 -0.05612376 4.645922e-07)
(0.04815264 -0.05592964 7.606346e-07)
(0.003129953 -0.06373263 2.189005e-05)
(0.01289945 -0.06534947 4.205509e-05)
(0.02192276 -0.06529761 -1.065559e-05)
(0.03071648 -0.06516092 1.014525e-05)
(0.03955154 -0.06496669 2.430436e-06)
(0.04839477 -0.06474137 3.599589e-06)
(0.003378197 -0.07277463 -4.207396e-07)
(0.01299886 -0.07428485 4.09892e-05)
(0.02204526 -0.07416155 -1.162154e-05)
(0.03089387 -0.07402277 9.863432e-06)
(0.03977942 -0.07380308 1.758505e-06)
(0.0486687 -0.07354691 3.377045e-06)
(0.003511845 -0.08184452 -5.186633e-06)
(0.01304454 -0.08326446 4.186679e-05)
(0.02217902 -0.08311991 -1.250682e-05)
(0.03107897 -0.08296638 1.119337e-05)
(0.04002947 -0.08273022 2.089676e-06)
(0.04897423 -0.08244091 4.338456e-06)
(0.00370192 -0.09090448 8.882261e-06)
(0.01310685 -0.09229141 4.012358e-05)
(0.02233146 -0.09213748 -1.421105e-05)
(0.03128716 -0.09195693 1.110592e-05)
(0.04030619 -0.09170336 1.747396e-06)
(0.04931352 -0.09138079 4.321196e-06)
(0.003791877 -0.09999574 2.367122e-05)
(0.0131933 -0.101382 4.44806e-05)
(0.02249674 -0.1012298 -1.549795e-05)
(0.03151609 -0.1010212 1.201873e-05)
(0.0406067 -0.10075 1.424953e-06)
(0.04968417 -0.1003966 4.749385e-06)
(0.003805233 -0.1092197 1.563792e-05)
(0.01330773 -0.1105322 3.753875e-05)
(0.02267434 -0.1103874 -1.669661e-05)
(0.03176921 -0.1101544 1.140971e-05)
(0.04093182 -0.1098652 1.25643e-06)
(0.05008615 -0.109483 4.636897e-06)
(0.003676385 -0.1184958 -9.902156e-06)
(0.01342946 -0.1197633 3.867194e-05)
(0.02285959 -0.1196163 -1.833122e-05)
(0.03204006 -0.1193658 1.13673e-05)
(0.04127884 -0.1190577 7.604615e-07)
(0.05051752 -0.1186497 4.549963e-06)
(0.003910267 -0.1279107 4.026021e-06)
(0.013554 -0.129082 3.552267e-05)
(0.02305813 -0.1289267 -1.942251e-05)
(0.03232966 -0.1286598 1.020889e-05)
(0.04164881 -0.1283324 1.621612e-07)
(0.0509766 -0.1279006 4.085613e-06)