/*--------------------------------*- C++ -*----------------------------------*\
  =========                 |
  \\      /  F ield         | OpenFOAM: The Open Source CFD Toolbox
   \\    /   O peration     | Website:  https://openfoam.org
    \\  /    A nd           | Version:  7
     \\/     M anipulation  |
\*---------------------------------------------------------------------------*/
FoamFile
{
    version     2.0;
    format      ascii;
    class       volVectorField;
    location    "0.1";
    object      C;
}
// * * * * * * * * * * * * * * * * * * * * * * * * * * * * * * * * * * * * * //

dimensions      [0 1 0 0 0 0 0];

internalField   nonuniform List<vector> 
77308
(
(0.4512391 0.256941 0.04454651)
(0.6502365 0.2552352 0.04225305)
(0.8499622 0.2548419 0.0420805)
(1.049954 0.2547845 0.04202005)
(1.24996 0.2547778 0.04200798)
(1.44996 0.2547761 0.04200736)
(0.499088 0.4988685 0.09627873)
(0.6996127 0.4981889 0.0929683)
(0.8996921 0.497696 0.09192592)
(1.099877 0.4974733 0.0916583)
(1.299958 0.4974 0.09158765)
(1.499985 0.4973814 0.09157063)
(0.4995498 0.699388 0.09526091)
(0.6995511 0.6988518 0.09103389)
(0.8994931 0.6985241 0.0897245)
(1.099781 0.6983276 0.08936673)
(1.299921 0.6982487 0.08926755)
(1.499973 0.6982218 0.08924602)
(0.4995381 0.8995924 0.09482814)
(0.6994964 0.8992051 0.09030983)
(0.8993793 0.8989768 0.08881584)
(1.099718 0.8988629 0.08839937)
(1.299893 0.898815 0.08828054)
(1.49996 0.898799 0.08825035)
(0.4994575 1.099844 0.09472607)
(0.6994132 1.099687 0.09011658)
(0.899318 1.09959 0.08856182)
(1.099682 1.099541 0.08811455)
(1.299876 1.099521 0.08798343)
(1.499952 1.099515 0.08794854)
(0.4994202 1.299967 0.09470025)
(0.6993717 1.299935 0.09006532)
(0.8992882 1.299919 0.08849119)
(1.099665 1.299915 0.08803195)
(1.299866 1.299915 0.087895)
(1.499947 1.299917 0.08785777)
(0.499411 1.500031 0.09469713)
(0.6993608 1.500072 0.09006)
(0.8992803 1.50011 0.08848384)
(1.09966 1.500141 0.0880232)
(1.299864 1.50016 0.08788544)
(1.499945 1.500169 0.08784779)
(0.4994196 1.700095 0.09471219)
(0.6993722 1.700209 0.09009172)
(0.8992901 1.700308 0.08852857)
(1.099667 1.700378 0.08807628)
(1.299868 1.700418 0.08794258)
(1.499948 1.700434 0.08790639)
(0.4994547 1.900201 0.09476305)
(0.6994157 1.900431 0.0901953)
(0.8993237 1.90062 0.08866979)
(1.099688 1.900749 0.08823981)
(1.29988 1.900816 0.08811662)
(1.499955 1.900841 0.08808403)
(0.4995344 2.100368 0.09493995)
(0.6995098 2.100774 0.09053429)
(0.8993962 2.101095 0.08910869)
(1.099732 2.101302 0.0887279)
(1.299903 2.101404 0.08862405)
(1.499966 2.101438 0.08859777)
(0.499568 2.300305 0.09565336)
(0.6996016 2.300708 0.09175408)
(0.8995396 2.301092 0.09060974)
(1.099811 2.301386 0.0903215)
(1.299939 2.30152 0.09024701)
(1.499981 2.301554 0.09022932)
(0.4991845 2.500198 0.09784518)
(0.6997576 2.500316 0.09567162)
(0.8997835 2.500764 0.09500255)
(1.099923 2.501058 0.09484888)
(1.299981 2.501166 0.09480762)
(1.499997 2.501169 0.09479851)
(0.4500392 2.648831 0.04685044)
(0.6489192 2.645955 0.04508828)
(0.8489653 2.645923 0.04488404)
(1.049002 2.645977 0.04486255)
(1.249011 2.645996 0.04485968)
(1.449013 2.645992 0.04486178)
(0.4120079 2.818784 0.01019974)
(0.6122166 2.818795 0.01019573)
(0.8122216 2.818796 0.01019568)
(1.012222 2.818796 0.0101956)
(1.212222 2.818796 0.01019557)
(1.412222 2.818796 0.01019557)
(0.449098 3.046299 0.04891809)
(0.6498115 3.046383 0.0482675)
(0.8499696 3.046286 0.04819226)
(1.049996 3.046247 0.04818497)
(1.249999 3.046239 0.0481841)
(1.449999 3.046243 0.04818647)
(0.4991084 3.298578 0.09768874)
(0.6997043 3.297948 0.09545459)
(0.8997715 3.297368 0.09477944)
(1.099922 3.297033 0.09462679)
(1.299982 3.296918 0.09458764)
(1.499997 3.296925 0.0945785)
(0.4995723 3.499343 0.0956448)
(0.6995936 3.498656 0.09173733)
(0.899538 3.498152 0.09059446)
(1.099812 3.497809 0.09030796)
(1.299939 3.497659 0.09023472)
(1.499982 3.497627 0.09021723)
(0.4995368 3.699515 0.09494749)
(0.699509 3.69899 0.09054542)
(0.8993971 3.698598 0.08912298)
(1.099733 3.698354 0.08874399)
(1.299903 3.698237 0.08864101)
(1.499966 3.698202 0.08861493)
(0.4994564 3.899748 0.09476683)
(0.699416 3.89946 0.09020203)
(0.8993239 3.89923 0.08867885)
(1.099688 3.899077 0.08825005)
(1.29988 3.898998 0.08812732)
(1.499954 3.89897 0.08809481)
(0.4994191 4.099877 0.09471347)
(0.6993703 4.09973 0.09009395)
(0.899288 4.099607 0.08853148)
(1.099665 4.099519 0.08807957)
(1.299866 4.099471 0.08794602)
(1.499947 4.099451 0.08790954)
(0.4994064 4.299944 0.09469534)
(0.6993539 4.299876 0.09005702)
(0.899274 4.299815 0.08847969)
(1.099655 4.29977 0.08801807)
(1.29986 4.299744 0.08787968)
(1.499944 4.29973 0.08784137)
(0.4994064 4.499988 0.09469368)
(0.6993541 4.499972 0.09005346)
(0.8992738 4.499955 0.08847469)
(1.099655 4.499941 0.08801222)
(1.29986 4.499931 0.08787341)
(1.499943 4.499921 0.08783489)
(0.4994203 4.700037 0.09470774)
(0.6993718 4.700075 0.09008191)
(0.8992877 4.700102 0.08851488)
(1.099664 4.700118 0.0880606)
(1.299865 4.700124 0.08792626)
(1.499946 4.700119 0.08788923)
(0.4994645 4.900131 0.09475489)
(0.6994218 4.900267 0.09017764)
(0.8993235 4.90036 0.08864629)
(1.099686 4.900419 0.08821463)
(1.299878 4.900449 0.08809222)
(1.499953 4.900451 0.08805957)
(0.4517012 0.2581493 0.2458091)
(0.7012643 0.3067542 0.291653)
(0.9003342 0.3051692 0.2908719)
(1.099963 0.3046524 0.2905711)
(1.299969 0.3045417 0.2904358)
(1.49999 0.3045229 0.290397)
(0.2590664 0.4507311 0.2507371)
(0.500131 0.4989448 0.2924443)
(0.6996196 0.4965715 0.2875855)
(0.899668 0.4947739 0.2856402)
(1.099812 0.4941098 0.2849554)
(1.299907 0.493898 0.284729)
(1.499956 0.4938372 0.2846722)
(0.2584697 0.6504035 0.2516637)
(0.4995499 0.69906 0.2910984)
(0.698928 0.6978506 0.2849988)
(0.8993129 0.6968622 0.2824029)
(1.099632 0.6963593 0.2814626)
(1.299817 0.6961529 0.281143)
(1.499911 0.6960816 0.2810594)
(0.2581538 0.8500087 0.2521299)
(0.4989286 0.8995048 0.2904983)
(0.6983879 0.8989211 0.2836981)
(0.8989942 0.8984353 0.2806324)
(1.099459 0.8981517 0.2794831)
(1.299726 0.8980207 0.2790827)
(1.499865 0.8979735 0.278972)
(0.2580876 1.049984 0.2521571)
(0.4986422 1.099803 0.2902793)
(0.6980894 1.099583 0.2832257)
(0.8987897 1.099398 0.2799502)
(1.099337 1.099286 0.278682)
(1.299658 1.099234 0.2782286)
(1.499828 1.099218 0.2780996)
(0.2580774 1.249993 0.2521528)
(0.4985352 1.300003 0.290204)
(0.6979548 1.300016 0.2830673)
(0.8986853 1.300038 0.2797137)
(1.099269 1.300064 0.2783943)
(1.299618 1.300086 0.2779152)
(1.499806 1.3001 0.2777764)
(0.2580751 1.449998 0.252152)
(0.498509 1.500181 0.2901962)
(0.6979177 1.500406 0.2830534)
(0.8986559 1.500623 0.2796924)
(1.09925 1.500788 0.2783673)
(1.299607 1.500887 0.2778849)
(1.4998 1.500933 0.2777444)
(0.2580752 1.650004 0.2521525)
(0.4985344 1.70042 0.2902469)
(0.6979554 1.700931 0.2831654)
(0.8986928 1.701409 0.2798583)
(1.099279 1.701758 0.2785685)
(1.299627 1.701955 0.2781041)
(1.499812 1.70204 0.2779702)
(0.2580773 1.850013 0.252155)
(0.4986266 1.90083 0.2904011)
(0.6980892 1.901822 0.2834992)
(0.8988113 1.902719 0.2803434)
(1.099364 1.903341 0.2791472)
(1.299681 1.903673 0.2787277)
(1.499844 1.903803 0.2786101)
(0.2580846 2.05003 0.2521629)
(0.4988546 2.101598 0.2908203)
(0.6983949 2.103463 0.2843846)
(0.8990533 2.105061 0.2815808)
(1.09952 2.106078 0.2805741)
(1.299773 2.106576 0.2802359)
(1.499895 2.106753 0.2801461)
(0.2581163 2.250065 0.2521843)
(0.4993879 2.303118 0.2919886)
(0.6990202 2.306595 0.2867655)
(0.8994699 2.309302 0.2847302)
(1.099758 2.310788 0.2840539)
(1.299899 2.311428 0.2838351)
(1.499959 2.311618 0.2837818)
(0.2583582 2.449922 0.2519755)
(0.5003638 2.50631 0.2948735)
(0.6999514 2.512063 0.2923404)
(0.8999968 2.515625 0.2915059)
(1.100018 2.517156 0.291216)
(1.300024 2.517672 0.2911004)
(1.500015 2.517737 0.291074)
(0.2589337 2.649832 0.2510639)
(0.449792 2.656123 0.2473514)
(0.6501958 2.661202 0.2464153)
(0.8501893 2.663872 0.2463374)
(1.050097 2.664832 0.2463476)
(1.250029 2.66508 0.2463301)
(1.449989 2.665059 0.2463298)
(0.4509917 2.833557 0.2518425)
(0.6496093 2.834317 0.2482005)
(0.8501633 2.834674 0.2468575)
(1.050133 2.834789 0.2468282)
(1.250067 2.834808 0.2468149)
(1.450036 2.834806 0.2468036)
(0.2305067 3.025307 0.2253472)
(0.4496352 3.032606 0.2484308)
(0.6503849 3.027641 0.2483947)
(0.850264 3.025724 0.2486145)
(1.050152 3.025174 0.2487208)
(1.250078 3.025064 0.2487352)
(1.45004 3.025091 0.2487374)
(0.2587232 3.250084 0.2516768)
(0.5006578 3.289884 0.2948199)
(0.7000075 3.282284 0.2922462)
(0.9000075 3.278138 0.2914088)
(1.100022 3.276423 0.2911343)
(1.300027 3.275865 0.2910325)
(1.500015 3.275825 0.2910137)
(0.2581882 3.449861 0.2521776)
(0.4994926 3.495665 0.2920017)
(0.6990681 3.491171 0.2867835)
(0.8994879 3.487925 0.2847592)
(1.099765 3.48621 0.2840916)
(1.299903 3.485491 0.283879)
(1.499961 3.485296 0.2838296)
(0.2580987 3.649924 0.2521724)
(0.4988939 3.697905 0.2908359)
(0.6984209 3.695541 0.2844128)
(0.8990659 3.693605 0.28162)
(1.099525 3.69241 0.2806195)
(1.299774 3.691838 0.2802848)
(1.499895 3.691645 0.2801969)
(0.2580818 3.849962 0.2521578)
(0.4986408 3.898941 0.2904102)
(0.6980983 3.897698 0.2835167)
(0.8988144 3.896603 0.2803679)
(1.099363 3.895861 0.2791758)
(1.299678 3.895473 0.2787582)
(1.499842 3.895323 0.2786414)
(0.2580767 4.049979 0.2521534)
(0.4985347 4.099462 0.2902494)
(0.6979496 4.098814 0.2831709)
(0.8986836 4.098219 0.2798662)
(1.099269 4.097791 0.2785775)
(1.299619 4.097552 0.278113)
(1.499807 4.097446 0.2779786)
(0.2580748 4.249987 0.2521521)
(0.4984948 4.299744 0.2901917)
(0.6978916 4.29943 0.283045)
(0.8986287 4.299133 0.2796793)
(1.099227 4.298911 0.2783502)
(1.299591 4.298777 0.2778649)
(1.49979 4.298706 0.2777221)
(0.2580745 4.449992 0.2521518)
(0.4984934 4.499922 0.2901865)
(0.6978915 4.499821 0.2830329)
(0.8986275 4.499723 0.2796615)
(1.099226 4.499646 0.2783292)
(1.29959 4.499592 0.2778425)
(1.499789 4.499545 0.2776987)
(0.2580757 4.649996 0.2521525)
(0.4985337 4.700076 0.2902319)
(0.6979508 4.700159 0.2831302)
(0.8986798 4.700237 0.2798073)
(1.099264 4.70029 0.2785096)
(1.299615 4.700312 0.2780424)
(1.499804 4.700288 0.2779056)
(0.3503974 4.950105 0.2470525)
(0.4986547 4.900276 0.2903726)
(0.6981066 4.900598 0.2834319)
(0.8988054 4.900898 0.2802512)
(1.099351 4.901122 0.2790476)
(1.299669 4.901251 0.2786313)
(1.499834 4.901263 0.2785143)
(0.4523204 0.2583581 0.4490227)
(0.7024363 0.3064647 0.4967505)
(0.9007322 0.3038726 0.4955585)
(1.099982 0.3030735 0.4951374)
(1.299956 0.3028835 0.4949493)
(1.49998 0.3028421 0.4948903)
(0.2586969 0.451768 0.4503254)
(0.5002321 0.4994376 0.4970723)
(0.6997929 0.4965087 0.4940026)
(0.8996731 0.4937832 0.4921287)
(1.099758 0.492657 0.4913001)
(1.299857 0.4922793 0.4909847)
(1.499922 0.4921667 0.4908935)
(0.3080886 0.7013001 0.500751)
(0.4985812 0.6992725 0.4960335)
(0.6987057 0.6976718 0.4917543)
(0.8990935 0.6961098 0.4891173)
(1.099451 0.6952336 0.4879169)
(1.299688 0.6948592 0.4874552)
(1.49983 0.6947273 0.4873206)
(0.3066112 0.9003499 0.5016468)
(0.4968635 0.8995067 0.4955067)
(0.6976085 0.8987439 0.4904086)
(0.8984502 0.8979462 0.4870801)
(1.099101 0.8974218 0.4854935)
(1.299497 0.8971723 0.4848788)
(1.499726 0.8970799 0.4846967)
(0.3060775 1.099974 0.501801)
(0.4961299 1.099802 0.4952679)
(0.6969565 1.099548 0.4898036)
(0.8979931 1.099272 0.4861003)
(1.098828 1.099082 0.4842543)
(1.299342 1.098991 0.4835244)
(1.499641 1.098962 0.483303)
(0.3059565 1.300009 0.5017891)
(0.495872 1.300089 0.4951714)
(0.6966625 1.300213 0.4895772)
(0.8977585 1.300336 0.485732)
(1.098673 1.300438 0.4837764)
(1.299249 1.300508 0.4829887)
(1.499588 1.30055 0.4827459)
(0.3059347 1.500083 0.5017826)
(0.4958081 1.500421 0.4951612)
(0.6965804 1.500959 0.4895574)
(0.8976919 1.50151 0.4856983)
(1.09863 1.501935 0.483729)
(1.299224 1.502189 0.4829327)
(1.499575 1.50231 0.4826865)
(0.3059486 1.700188 0.5017954)
(0.495856 1.700917 0.4952311)
(0.6966572 1.70207 0.4897228)
(0.8977735 1.703236 0.485961)
(1.098696 1.70411 0.484062)
(1.29927 1.704609 0.4833025)
(1.499604 1.704829 0.4830703)
(0.3060055 1.900372 0.5018356)
(0.4960415 1.901782 0.4954295)
(0.696934 1.903997 0.4901884)
(0.8980367 1.906185 0.4866944)
(1.098889 1.907748 0.4849823)
(1.299396 1.908588 0.4843157)
(1.49968 1.908931 0.4841179)
(0.3061876 2.100675 0.5019109)
(0.4965148 2.103384 0.4958924)
(0.6975729 2.107577 0.4912876)
(0.8985722 2.111536 0.4883979)
(1.09924 2.114116 0.487062)
(1.299608 2.115376 0.4865588)
(1.499802 2.115846 0.4864175)
(0.3068536 2.300825 0.5018713)
(0.4976863 2.306447 0.4969033)
(0.6988271 2.31429 0.4936494)
(0.8994142 2.320941 0.4918248)
(1.099737 2.324602 0.4910296)
(1.299886 2.326183 0.490737)
(1.499953 2.326707 0.4906611)
(0.3086255 2.500672 0.5011097)
(0.5000321 2.511895 0.4987061)
(0.7006159 2.525025 0.4976377)
(0.9004209 2.53438 0.4972276)
(1.100233 2.538412 0.4970691)
(1.30014 2.539817 0.4969709)
(1.500084 2.540178 0.4969421)
(0.2584423 2.647861 0.4518346)
(0.4505718 2.661058 0.4498746)
(0.706939 2.737895 0.5062567)
(0.9023158 2.746117 0.5070484)
(1.10061 2.748646 0.5073808)
(1.300282 2.749279 0.5073422)
(1.500161 2.74938 0.5072843)
(0.4472724 2.834286 0.4496245)
(0.230521 3.025629 0.4250367)
(0.4503807 3.027731 0.4502249)
(0.7071542 3.04978 0.5063365)
(0.9023519 3.041078 0.5072183)
(1.100621 3.038419 0.5076326)
(1.300293 3.037757 0.5076384)
(1.500173 3.037667 0.507598)
(0.3089927 3.29805 0.5010893)
(0.5004984 3.282607 0.4986694)
(0.7007265 3.266898 0.4975545)
(0.9004654 3.256451 0.4971521)
(1.100251 3.25203 0.4970264)
(1.300151 3.250509 0.4969541)
(1.500092 3.250147 0.4969413)
(0.3069506 3.498666 0.501881)
(0.4978856 3.49138 0.4969075)
(0.6989529 3.481632 0.4936632)
(0.8994617 3.473804 0.4918527)
(1.099758 3.469623 0.4910672)
(1.299896 3.467855 0.4907856)
(1.499958 3.467295 0.490718)
(0.30622 3.699112 0.501916)
(0.4965951 3.695638 0.4959023)
(0.6976403 3.690435 0.4913101)
(0.8986062 3.685697 0.4884353)
(1.099253 3.682683 0.4871086)
(1.299612 3.68124 0.4866113)
(1.499803 3.680719 0.4864737)
(0.306017 3.899529 0.501838)
(0.4960707 3.897745 0.495436)
(0.6969574 3.895 0.4902032)
(0.8980457 3.892352 0.4867185)
(1.098888 3.890494 0.4850124)
(1.29939 3.88951 0.4843492)
(1.499675 3.889114 0.4841529)
(0.3059501 4.099761 0.5017956)
(0.4958556 4.098837 0.4952326)
(0.6966455 4.097395 0.4897273)
(0.8977531 4.095957 0.4859682)
(1.098673 4.094893 0.4840703)
(1.299251 4.094288 0.4833109)
(1.499591 4.094014 0.4830781)
(0.3059264 4.299886 0.50178)
(0.4957753 4.299437 0.495155)
(0.696523 4.298727 0.4895449)
(0.8976295 4.298005 0.4856778)
(1.098576 4.297451 0.4837003)
(1.299185 4.297115 0.4828986)
(1.499551 4.296933 0.4826484)
(0.3059261 4.499965 0.5017799)
(0.4957747 4.49981 0.4951497)
(0.6965224 4.499563 0.4895302)
(0.8976261 4.499309 0.4856539)
(1.098572 4.499107 0.4836708)
(1.299181 4.498966 0.4828667)
(1.499549 4.498851 0.4826149)
(0.3059554 4.700033 0.5017962)
(0.4958646 4.700111 0.4952142)
(0.6966481 4.700239 0.4896774)
(0.8977416 4.700378 0.4858886)
(1.098658 4.700484 0.4839742)
(1.299239 4.700525 0.4832096)
(1.499584 4.70047 0.4829732)
(0.3060832 4.900079 0.5018223)
(0.4961442 4.900453 0.4953937)
(0.6969784 4.901026 0.4900977)
(0.8980184 4.90164 0.4865568)
(1.098854 4.902132 0.4848273)
(1.299365 4.902422 0.4841647)
(1.499656 4.902459 0.4839693)
(0.4523205 0.2583337 0.6497833)
(0.70261 0.3061361 0.6986537)
(0.9008762 0.3033365 0.6978632)
(1.09998 0.3023855 0.6975179)
(1.299944 0.3021568 0.6973824)
(1.499973 0.3021044 0.6973382)
(0.2584036 0.4522682 0.6499901)
(0.4997334 0.4994435 0.6988434)
(0.6995713 0.4961845 0.6973866)
(0.8995697 0.4930644 0.6962743)
(1.099689 0.4917085 0.6956927)
(1.299811 0.4912347 0.6954465)
(1.499894 0.491086 0.695367)
(0.3066813 0.7023338 0.7000836)
(0.4969734 0.6993163 0.6981962)
(0.698004 0.6974629 0.6961019)
(0.8987564 0.6955592 0.694429)
(1.099258 0.6944284 0.6935072)
(1.299568 0.6939274 0.693115)
(1.499757 0.6937441 0.6929907)
(0.3041667 0.9006974 0.7003299)
(0.4942773 0.8995103 0.6978369)
(0.6963659 0.8986318 0.6952254)
(0.8978047 0.8976254 0.6929813)
(1.098726 0.8969085 0.6916623)
(1.299277 0.8965519 0.6910993)
(1.499597 0.8964179 0.6909237)
(0.3033718 1.099993 0.7004466)
(0.4931175 1.099821 0.6976577)
(0.6953659 1.09957 0.6947701)
(0.8970915 1.099245 0.6921655)
(1.098281 1.098987 0.6905376)
(1.299025 1.098854 0.6898144)
(1.499456 1.098814 0.6895885)
(0.3031796 1.300021 0.7004401)
(0.4927126 1.300179 0.6975831)
(0.6949127 1.300434 0.6945909)
(0.8967142 1.300694 0.6918419)
(1.098019 1.3009 0.6900665)
(1.298869 1.301034 0.6892493)
(1.499369 1.301112 0.6889924)
(0.3031431 1.50013 0.7004356)
(0.4926122 1.500637 0.6975779)
(0.6947857 1.501498 0.6945812)
(0.8966075 1.502424 0.691821)
(1.097947 1.503164 0.6900288)
(1.298828 1.503614 0.689199)
(1.499346 1.50383 0.6889371)
(0.3031619 1.700287 0.700448)
(0.4926822 1.70135 0.6976379)
(0.6949021 1.703146 0.694727)
(0.8967377 1.70507 0.692068)
(1.098057 1.70658 0.6903617)
(1.298905 1.707465 0.6895811)
(1.499396 1.707859 0.6893378)
(0.3032456 1.900561 0.7004838)
(0.4929601 1.902592 0.6977944)
(0.6953233 1.906019 0.6951064)
(0.8971646 1.909647 0.6927218)
(1.098382 1.912384 0.691252)
(1.299114 1.913885 0.6906025)
(1.499522 1.914501 0.6904046)
(0.3035183 2.100987 0.7005416)
(0.4936771 2.104847 0.6981203)
(0.6962928 2.111286 0.6959085)
(0.8979967 2.117804 0.6940705)
(1.09894 2.122236 0.6930006)
(1.299458 2.124412 0.6925438)
(1.499723 2.125244 0.6924113)
(0.3044816 2.301005 0.7005074)
(0.4954717 2.308972 0.6987149)
(0.6981146 2.320664 0.697328)
(0.8991964 2.331078 0.6962656)
(1.099691 2.33697 0.6956789)
(1.299882 2.339537 0.69544)
(1.49996 2.340441 0.6953714)
(0.3073421 2.500289 0.7003274)
(0.499026 2.515332 0.699566)
(0.7007359 2.5343 0.6992449)
(0.9006865 2.548567 0.6990852)
(1.100403 2.554844 0.699008)
(1.300247 2.557084 0.6989457)
(1.500155 2.557751 0.6989182)
(0.2571663 2.644853 0.6492062)
(0.4504472 2.66371 0.6501023)
(0.7079026 2.74609 0.7019406)
(0.9036109 2.756129 0.703033)
(1.100953 2.759843 0.7032538)
(1.300437 2.760851 0.7032581)
(1.500257 2.761078 0.7032281)
(0.4459293 2.834644 0.6501574)
(0.2304952 3.025669 0.6249931)
(0.450635 3.025819 0.6502219)
(0.7082185 3.041102 0.7019578)
(0.9037114 3.030514 0.7031112)
(1.100985 3.026628 0.7033873)
(1.300455 3.02557 0.7034243)
(1.500273 3.025338 0.7034107)
(0.3077257 3.298256 0.7003228)
(0.499542 3.278604 0.6995567)
(0.7008863 3.256591 0.6992389)
(0.9007653 3.240851 0.6990986)
(1.100439 3.234028 0.6990484)
(1.300268 3.231606 0.6990072)
(1.50017 3.230903 0.6989924)
(0.3046 3.498322 0.7005078)
(0.4957143 3.488326 0.6987146)
(0.6982873 3.474135 0.697329)
(0.8992618 3.462014 0.6962666)
(1.099724 3.455315 0.6956818)
(1.2999 3.452447 0.6954516)
(1.49997 3.451466 0.6953902)
(0.3035609 3.698713 0.7005427)
(0.4937833 3.693848 0.6981246)
(0.6963926 3.685983 0.6959195)
(0.8980541 3.678242 0.6940937)
(1.098961 3.673074 0.6930318)
(1.299466 3.670581 0.6925785)
(1.499726 3.669651 0.6924497)
(0.3032609 3.899293 0.7004847)
(0.493 3.896751 0.6977989)
(0.6953587 3.892546 0.695118)
(0.8971815 3.888185 0.6927434)
(1.09838 3.884947 0.6912816)
(1.299106 3.883193 0.6906358)
(1.499515 3.882479 0.6904402)
(0.3031632 4.099637 0.7004482)
(0.4926801 4.098304 0.6976407)
(0.6948838 4.096078 0.6947349)
(0.8967058 4.093725 0.6920812)
(1.098021 4.091897 0.6903782)
(1.298874 4.090829 0.6895993)
(1.499375 4.090342 0.6893571)
(0.3031294 4.299825 0.7004341)
(0.4925612 4.29917 0.6975766)
(0.6946968 4.298064 0.6945801)
(0.8965077 4.296878 0.6918172)
(1.097859 4.295929 0.6900194)
(1.298763 4.29534 0.6891849)
(1.499307 4.295024 0.688921)
(0.3031302 4.499944 0.7004341)
(0.4925615 4.499707 0.6975722)
(0.6946949 4.499303 0.6945672)
(0.8965008 4.498867 0.6917945)
(1.097851 4.498508 0.6899895)
(1.298757 4.498258 0.6891514)
(1.499304 4.498063 0.6888859)
(0.3031769 4.700044 0.7004489)
(0.4926999 4.700128 0.6976254)
(0.6948859 4.700276 0.6946913)
(0.8966813 4.70045 0.6920053)
(1.09799 4.700589 0.6902792)
(1.298851 4.700639 0.6894909)
(1.499362 4.700549 0.6892456)
(0.3033776 4.900092 0.7004689)
(0.493136 4.900583 0.6977658)
(0.6953887 4.901355 0.6950272)
(0.8971185 4.902235 0.6925848)
(1.098311 4.902968 0.6910818)
(1.299055 4.903402 0.6904309)
(1.499481 4.903462 0.6902385)
(0.4523095 0.2583316 0.8499488)
(0.7025741 0.3060717 0.8995566)
(0.9008679 0.3032363 0.899239)
(1.099971 0.3022577 0.8990827)
(1.299936 0.3020175 0.8990167)
(1.499969 0.3019615 0.8989942)
(0.2583385 0.4522957 0.8499827)
(0.4995138 0.4994272 0.8996268)
(0.6994078 0.4961127 0.8991016)
(0.8994834 0.4929046 0.8986477)
(1.099641 0.4914867 0.8983831)
(1.299783 0.4909822 0.8982611)
(1.499878 0.4908205 0.8982173)
(0.3061838 0.7025352 0.8999045)
(0.4963543 0.6993261 0.8994045)
(0.6975766 0.6974029 0.8986813)
(0.8985205 0.6953842 0.8980324)
(1.099131 0.6941558 0.8976303)
(1.299496 0.6936036 0.8974421)
(1.499715 0.6933981 0.8973755)
(0.3034229 0.9008567 0.8998951)
(0.4932785 0.8995186 0.8992963)
(0.6956422 0.8986087 0.8984338)
(0.8973771 0.8975277 0.8975991)
(1.098486 0.8967299 0.8970383)
(1.299142 0.8963199 0.8967732)
(1.499519 0.8961637 0.8966837)
(0.3024793 1.100007 0.8998968)
(0.4919269 1.099842 0.8992503)
(0.694448 1.099614 0.8983198)
(0.896509 1.099288 0.8973669)
(1.097942 1.099016 0.8966751)
(1.298827 1.09887 0.8963327)
(1.499344 1.098825 0.8962199)
(0.302253 1.30003 0.8998967)
(0.4914503 1.300238 0.8992378)
(0.6939046 1.300584 0.8982888)
(0.8960421 1.300946 0.897296)
(1.097619 1.301233 0.8965457)
(1.298627 1.301417 0.8961615)
(1.499231 1.301523 0.8960356)
(0.3022101 1.500154 0.8998976)
(0.4913319 1.500766 0.899246)
(0.6937526 1.501824 0.8983091)
(0.895911 1.502999 0.8973263)
(1.097528 1.503964 0.8965787)
(1.298572 1.504566 0.8961941)
(1.499202 1.504859 0.8960684)
(0.3022317 1.700337 0.8999034)
(0.4914141 1.701598 0.8992749)
(0.6938936 1.703776 0.8983798)
(0.8960743 1.706195 0.8974496)
(1.097673 1.708174 0.8967552)
(1.298673 1.709375 0.8964059)
(1.499266 1.709914 0.8962933)
(0.3023287 1.900653 0.8999168)
(0.4917404 1.903041 0.8993358)
(0.6944009 1.907172 0.8985291)
(0.8966084 1.911735 0.8977179)
(1.098079 1.915346 0.8971418)
(1.298941 1.917386 0.8968602)
(1.499429 1.918223 0.8967699)
(0.3026464 2.101128 0.8999379)
(0.4925783 2.105615 0.8994505)
(0.6955584 2.113281 0.8988114)
(0.8976038 2.121341 0.8982114)
(1.098735 2.127018 0.897802)
(1.299366 2.129854 0.8976044)
(1.49968 2.130945 0.8975453)
(0.303775 2.301077 0.8999654)
(0.4946473 2.310161 0.899641)
(0.6976799 2.323677 0.8992649)
(0.8990067 2.336029 0.8989498)
(1.099639 2.343201 0.8987566)
(1.299873 2.346354 0.8986693)
(1.499963 2.347492 0.8986429)
(0.3068956 2.500323 0.8999919)
(0.4986409 2.516655 0.8998859)
(0.7007411 2.537874 0.8998066)
(0.9007982 2.554169 0.8997562)
(1.100482 2.561498 0.8997267)
(1.3003 2.564157 0.8997067)
(1.500191 2.564978 0.8996981)
(0.257007 2.644714 0.8490042)
(0.4503908 2.664627 0.850033)
(0.7083257 2.74847 0.9002802)
(0.903931 2.759616 0.9004389)
(1.101098 2.763798 0.9004954)
(1.300514 2.764964 0.9005015)
(1.500306 2.765239 0.9004974)
(0.4459061 2.834756 0.8501047)
(0.2304917 3.025665 0.8249933)
(0.450729 3.025283 0.8500972)
(0.7087062 3.038599 0.9002824)
(0.9040736 3.026867 0.9004566)
(1.101145 3.022497 0.9005295)
(1.300538 3.021275 0.9005468)
(1.500325 3.02099 0.9005491)
(0.3072798 3.298185 0.8999911)
(0.4991751 3.277116 0.8998839)
(0.7009193 3.252675 0.8998069)
(0.9008993 3.23477 0.8997642)
(1.10053 3.226823 0.8997446)
(1.300326 3.22395 0.8997323)
(1.500208 3.223078 0.8997287)
(0.303898 3.498205 0.8999656)
(0.4949033 3.486937 0.8996413)
(0.6978667 3.470682 0.8992671)
(0.8990769 3.456372 0.8989553)
(1.099678 3.448225 0.8987658)
(1.299895 3.444699 0.8986821)
(1.499976 3.443457 0.8986591)
(0.3026921 3.69854 0.8999387)
(0.4926931 3.692933 0.8994532)
(0.6956704 3.683635 0.8988181)
(0.8976726 3.674095 0.898223)
(1.098757 3.667474 0.8978143)
(1.299375 3.664218 0.8976157)
(1.499683 3.662993 0.897559)
(0.3023452 3.899182 0.899918)
(0.4917839 3.89621 0.8993406)
(0.6944407 3.891168 0.8985409)
(0.8966297 3.885704 0.8977387)
(1.09808 3.881435 0.8971717)
(1.29893 3.879044 0.8968962)
(1.49942 3.878073 0.8968094)
(0.3022326 4.099576 0.899905)
(0.4914095 4.098004 0.8992823)
(0.6938694 4.095318 0.898398)
(0.8960339 4.092374 0.8974802)
(1.097628 4.089988 0.8967969)
(1.298634 4.088543 0.8964557)
(1.499239 4.08788 0.8963482)
(0.3021933 4.299795 0.8998996)
(0.4912695 4.299015 0.8992572)
(0.6936432 4.297672 0.8983363)
(0.8957858 4.296184 0.8973704)
(1.097417 4.294956 0.8966351)
(1.29849 4.294173 0.8962589)
(1.499151 4.293752 0.8961394)
(0.3021943 4.499932 0.8998992)
(0.4912697 4.499642 0.8992538)
(0.6936395 4.499136 0.8983275)
(0.8957749 4.498571 0.8973543)
(1.097403 4.498091 0.8966123)
(1.29848 4.497752 0.8962322)
(1.499147 4.497497 0.8961122)
(0.302249 4.700047 0.8999039)
(0.4914325 4.700126 0.8992718)
(0.6938673 4.700265 0.8983694)
(0.8959944 4.700427 0.897428)
(1.097576 4.700558 0.8967203)
(1.298599 4.700593 0.8963635)
(1.499222 4.700472 0.8962545)
(0.302485 4.900093 0.8999114)
(0.491945 4.900632 0.8993205)
(0.6944666 4.901471 0.8984861)
(0.8965258 4.902434 0.8976383)
(1.097961 4.903222 0.897028)
(1.298851 4.903669 0.8967319)
(1.499372 4.903709 0.8966458)
(0.4523015 0.2583349 1.049991)
(0.7025488 0.3061631 1.099952)
(0.9008498 0.3033882 1.099874)
(1.099967 0.3024397 1.09983)
(1.299936 0.3022103 1.099812)
(1.499969 0.3021569 1.099806)
(0.2583316 0.4522998 1.049999)
(0.4995076 0.4994879 1.10012)
(0.699396 0.4962923 1.100209)
(0.8994795 0.4931951 1.100243)
(1.099641 0.4918352 1.100251)
(1.299783 0.4913542 1.100248)
(1.499878 0.4912005 1.10024)
(0.3061825 0.7025449 1.100047)
(0.4963464 0.6993925 1.100319)
(0.6975682 0.6975713 1.10064)
(0.8985175 0.6956518 1.100881)
(1.099131 0.6944838 1.101007)
(1.299496 0.6939589 1.101051)
(1.499715 0.6937637 1.101056)
(0.3034221 0.9008652 1.100063)
(0.4932755 0.8995616 1.1005)
(0.6956385 0.8987153 1.101071)
(0.897376 0.8977027 1.101585)
(1.098487 0.8969523 1.101906)
(1.299143 0.8965653 1.102039)
(1.49952 0.8964178 1.102072)
(0.3024798 1.100012 1.100076)
(0.4919277 1.099866 1.100619)
(0.694449 1.099671 1.101365)
(0.89651 1.099385 1.102108)
(1.097944 1.099143 1.102628)
(1.298828 1.099013 1.10287)
(1.499345 1.098974 1.102938)
(0.3022549 1.300032 1.100087)
(0.4914548 1.30025 1.100684)
(0.6939094 1.300613 1.101523)
(0.8960455 1.300995 1.102391)
(1.097622 1.301298 1.103035)
(1.298629 1.301492 1.103353)
(1.499232 1.301601 1.103447)
(0.3022131 1.500155 1.100093)
(0.4913389 1.500772 1.100709)
(0.6937599 1.501839 1.101583)
(0.8959161 1.503023 1.102493)
(1.097531 1.503997 1.103179)
(1.298574 1.504604 1.103524)
(1.499203 1.504899 1.103629)
(0.3022345 1.700338 1.100091)
(0.4914211 1.701601 1.100701)
(0.6939013 1.703783 1.101561)
(0.8960798 1.706207 1.10245)
(1.097676 1.70819 1.103109)
(1.298675 1.709394 1.103435)
(1.499267 1.709934 1.103535)
(0.3023311 1.900654 1.10008)
(0.4917468 1.903043 1.100652)
(0.6944082 1.907175 1.10144)
(0.8966138 1.911741 1.102229)
(1.098082 1.915354 1.102786)
(1.298942 1.917396 1.103055)
(1.49943 1.918233 1.103138)
(0.3026493 2.101128 1.100061)
(0.4925854 2.105617 1.100544)
(0.6955661 2.113284 1.101174)
(0.8976092 2.121345 1.101763)
(1.098738 2.127023 1.102162)
(1.299368 2.129859 1.102354)
(1.499681 2.130951 1.102409)
(0.3037785 2.301077 1.100035)
(0.4946549 2.310162 1.100358)
(0.697687 2.32368 1.10073)
(0.8990112 2.336032 1.101039)
(1.099641 2.343203 1.101228)
(1.299874 2.346357 1.101312)
(1.499963 2.347495 1.101337)
(0.3068979 2.500323 1.100008)
(0.4986458 2.516656 1.100114)
(0.7007453 2.537876 1.100192)
(0.9008007 2.554171 1.10024)
(1.100483 2.5615 1.100267)
(1.3003 2.564158 1.100286)
(1.500191 2.564979 1.100294)
(0.2569939 2.644713 1.048991)
(0.4503816 2.664763 1.049933)
(0.7083266 2.748471 1.099718)
(0.9039318 2.759617 1.099559)
(1.101098 2.763799 1.099501)
(1.300514 2.764964 1.099495)
(1.500306 2.765239 1.099498)
(0.4459094 2.834769 1.049983)
(0.2304914 3.025664 1.024993)
(0.4507428 3.025216 1.049966)
(0.708707 3.038599 1.099716)
(0.9040741 3.026866 1.099541)
(1.101145 3.022497 1.099467)
(1.300538 3.021274 1.099448)
(1.500325 3.020989 1.099446)
(0.3072817 3.298185 1.100009)
(0.4991791 3.277115 1.100116)
(0.7009228 3.252674 1.100191)
(0.9009012 3.234769 1.100232)
(1.100531 3.226821 1.100251)
(1.300326 3.223949 1.100262)
(1.500209 3.223077 1.100266)
(0.3039006 3.498205 1.100035)
(0.4949089 3.486937 1.100358)
(0.697872 3.470681 1.100731)
(0.8990801 3.456371 1.101041)
(1.09968 3.448224 1.101228)
(1.299895 3.444698 1.101311)
(1.499976 3.443456 1.101334)
(0.3026939 3.698539 1.100061)
(0.4926975 3.692933 1.100545)
(0.6956752 3.683634 1.101178)
(0.8976758 3.674093 1.101771)
(1.098759 3.667471 1.102177)
(1.299376 3.664214 1.102375)
(1.499684 3.66299 1.102432)
(0.3023463 3.899182 1.100081)
(0.4917871 3.896209 1.100657)
(0.6944444 3.891166 1.101452)
(0.8966323 3.885701 1.10225)
(1.098082 3.881429 1.102814)
(1.298931 3.879037 1.103088)
(1.49942 3.878067 1.103176)
(0.3022337 4.099575 1.100094)
(0.4914123 4.098002 1.100713)
(0.6938726 4.095314 1.10159)
(0.896036 4.092367 1.102501)
(1.097629 4.089976 1.103178)
(1.298635 4.088529 1.103517)
(1.49924 4.087865 1.103626)
(0.3021941 4.299794 1.100099)
(0.4912715 4.299012 1.100734)
(0.6936454 4.297663 1.101643)
(0.895787 4.296167 1.102596)
(1.097417 4.294931 1.10332)
(1.29849 4.294142 1.103692)
(1.499152 4.29372 1.103815)
(0.3021947 4.499931 1.100098)
(0.4912704 4.499635 1.100733)
(0.6936401 4.499118 1.101639)
(0.8957743 4.498535 1.102588)
(1.097402 4.498035 1.103309)
(1.29848 4.49768 1.103681)
(1.499148 4.49742 1.103807)
(0.3022489 4.700044 1.100092)
(0.4914319 4.700112 1.100707)
(0.6938654 4.700226 1.101578)
(0.8959905 4.700347 1.102478)
(1.097572 4.700428 1.103148)
(1.298596 4.700422 1.103486)
(1.499222 4.700285 1.103604)
(0.3024845 4.900088 1.100083)
(0.4919426 4.900605 1.100651)
(0.6944604 4.90139 1.101438)
(0.8965141 4.902256 1.102217)
(1.097949 4.902919 1.10276)
(1.298842 4.903255 1.103018)
(1.499371 4.903242 1.103111)
(0.4523122 0.258353 1.250008)
(0.7023655 0.3066746 1.299817)
(0.9007066 0.3041617 1.299561)
(1.099966 0.3033699 1.299442)
(1.299945 0.3031786 1.299446)
(1.499973 0.3031348 1.29945)
(0.258353 0.4522924 1.250011)
(0.4997035 0.4997009 1.300665)
(0.6995223 0.4969482 1.301365)
(0.8995542 0.4942773 1.301818)