/*--------------------------------*- C++ -*----------------------------------*\
  =========                 |
  \\      /  F ield         | OpenFOAM: The Open Source CFD Toolbox
   \\    /   O peration     | Website:  https://openfoam.org
    \\  /    A nd           | Version:  7
     \\/     M anipulation  |
\*---------------------------------------------------------------------------*/
FoamFile
{
    version     2.0;
    format      ascii;
    class       volScalarField;
    location    "0.1";
    object      Cx;
}
// * * * * * * * * * * * * * * * * * * * * * * * * * * * * * * * * * * * * * //

dimensions      [0 1 0 0 0 0 0];

internalField   nonuniform List<scalar> 
77308
(
0.4512391
0.6502365
0.8499622
1.049954
1.24996
1.44996
0.499088
0.6996127
0.8996921
1.099877
1.299958
1.499985
0.4995498
0.6995511
0.8994931
1.099781
1.299921
1.499973
0.4995381
0.6994964
0.8993793
1.099718
1.299893
1.49996
0.4994575
0.6994132
0.899318
1.099682
1.299876
1.499952
0.4994202
0.6993717
0.8992882
1.099665
1.299866
1.499947
0.499411
0.6993608
0.8992803
1.09966
1.299864
1.499945
0.4994196
0.6993722
0.8992901
1.099667
1.299868
1.499948
0.4994547
0.6994157
0.8993237
1.099688
1.29988
1.499955
0.4995344
0.6995098
0.8993962
1.099732
1.299903
1.499966
0.499568
0.6996016
0.8995396
1.099811
1.299939
1.499981
0.4991845
0.6997576
0.8997835
1.099923
1.299981
1.499997
0.4500392
0.6489192
0.8489653
1.049002
1.249011
1.449013
0.4120079
0.6122166
0.8122216
1.012222
1.212222
1.412222
0.449098
0.6498115
0.8499696
1.049996
1.249999
1.449999
0.4991084
0.6997043
0.8997715
1.099922
1.299982
1.499997
0.4995723
0.6995936
0.899538
1.099812
1.299939
1.499982
0.4995368
0.699509
0.8993971
1.099733
1.299903
1.499966
0.4994564
0.699416
0.8993239
1.099688
1.29988
1.499954
0.4994191
0.6993703
0.899288
1.099665
1.299866
1.499947
0.4994064
0.6993539
0.899274
1.099655
1.29986
1.499944
0.4994064
0.6993541
0.8992738
1.099655
1.29986
1.499943
0.4994203
0.6993718
0.8992877
1.099664
1.299865
1.499946
0.4994645
0.6994218
0.8993235
1.099686
1.299878
1.499953
0.4517012
0.7012643
0.9003342
1.099963
1.299969
1.49999
0.2590664
0.500131
0.6996196
0.899668
1.099812
1.299907
1.499956
0.2584697
0.4995499
0.698928
0.8993129
1.099632
1.299817
1.499911
0.2581538
0.4989286
0.6983879
0.8989942
1.099459
1.299726
1.499865
0.2580876
0.4986422
0.6980894
0.8987897
1.099337
1.299658
1.499828
0.2580774
0.4985352
0.6979548
0.8986853
1.099269
1.299618
1.499806
0.2580751
0.498509
0.6979177
0.8986559
1.09925
1.299607
1.4998
0.2580752
0.4985344
0.6979554
0.8986928
1.099279
1.299627
1.499812
0.2580773
0.4986266
0.6980892
0.8988113
1.099364
1.299681
1.499844
0.2580846
0.4988546
0.6983949
0.8990533
1.09952
1.299773
1.499895
0.2581163
0.4993879
0.6990202
0.8994699
1.099758
1.299899
1.499959
0.2583582
0.5003638
0.6999514
0.8999968
1.100018
1.300024
1.500015
0.2589337
0.449792
0.6501958
0.8501893
1.050097
1.250029
1.449989
0.4509917
0.6496093
0.8501633
1.050133
1.250067
1.450036
0.2305067
0.4496352
0.6503849
0.850264
1.050152
1.250078
1.45004
0.2587232
0.5006578
0.7000075
0.9000075
1.100022
1.300027
1.500015
0.2581882
0.4994926
0.6990681
0.8994879
1.099765
1.299903
1.499961
0.2580987
0.4988939
0.6984209
0.8990659
1.099525
1.299774
1.499895
0.2580818
0.4986408
0.6980983
0.8988144
1.099363
1.299678
1.499842
0.2580767
0.4985347
0.6979496
0.8986836
1.099269
1.299619
1.499807
0.2580748
0.4984948
0.6978916
0.8986287
1.099227
1.299591
1.49979
0.2580745
0.4984934
0.6978915
0.8986275
1.099226
1.29959
1.499789
0.2580757
0.4985337
0.6979508
0.8986798
1.099264
1.299615
1.499804
0.3503974
0.4986547
0.6981066
0.8988054
1.099351
1.299669
1.499834
0.4523204
0.7024363
0.9007322
1.099982
1.299956
1.49998
0.2586969
0.5002321
0.6997929
0.8996731
1.099758
1.299857
1.499922
0.3080886
0.4985812
0.6987057
0.8990935
1.099451
1.299688
1.49983
0.3066112
0.4968635
0.6976085
0.8984502
1.099101
1.299497
1.499726
0.3060775
0.4961299
0.6969565
0.8979931
1.098828
1.299342
1.499641
0.3059565
0.495872
0.6966625
0.8977585
1.098673
1.299249
1.499588
0.3059347
0.4958081
0.6965804
0.8976919
1.09863
1.299224
1.499575
0.3059486
0.495856
0.6966572
0.8977735
1.098696
1.29927
1.499604
0.3060055
0.4960415
0.696934
0.8980367
1.098889
1.299396
1.49968
0.3061876
0.4965148
0.6975729
0.8985722
1.09924
1.299608
1.499802
0.3068536
0.4976863
0.6988271
0.8994142
1.099737
1.299886
1.499953
0.3086255
0.5000321
0.7006159
0.9004209
1.100233
1.30014
1.500084
0.2584423
0.4505718
0.706939
0.9023158
1.10061
1.300282
1.500161
0.4472724
0.230521
0.4503807
0.7071542
0.9023519
1.100621
1.300293
1.500173
0.3089927
0.5004984
0.7007265
0.9004654
1.100251
1.300151
1.500092
0.3069506
0.4978856
0.6989529
0.8994617
1.099758
1.299896
1.499958
0.30622
0.4965951
0.6976403
0.8986062
1.099253
1.299612
1.499803
0.306017
0.4960707
0.6969574
0.8980457
1.098888
1.29939
1.499675
0.3059501
0.4958556
0.6966455
0.8977531
1.098673
1.299251
1.499591
0.3059264
0.4957753
0.696523
0.8976295
1.098576
1.299185
1.499551
0.3059261
0.4957747
0.6965224
0.8976261
1.098572
1.299181
1.499549
0.3059554
0.4958646
0.6966481
0.8977416
1.098658
1.299239
1.499584
0.3060832
0.4961442
0.6969784
0.8980184
1.098854
1.299365
1.499656
0.4523205
0.70261
0.9008762
1.09998
1.299944
1.499973
0.2584036
0.4997334
0.6995713
0.8995697
1.099689
1.299811
1.499894
0.3066813
0.4969734
0.698004
0.8987564
1.099258
1.299568
1.499757
0.3041667
0.4942773
0.6963659
0.8978047
1.098726
1.299277
1.499597
0.3033718
0.4931175
0.6953659
0.8970915
1.098281
1.299025
1.499456
0.3031796
0.4927126
0.6949127
0.8967142
1.098019
1.298869
1.499369
0.3031431
0.4926122
0.6947857
0.8966075
1.097947
1.298828
1.499346
0.3031619
0.4926822
0.6949021
0.8967377
1.098057
1.298905
1.499396
0.3032456
0.4929601
0.6953233
0.8971646
1.098382
1.299114
1.499522
0.3035183
0.4936771
0.6962928
0.8979967
1.09894
1.299458
1.499723
0.3044816
0.4954717
0.6981146
0.8991964
1.099691
1.299882
1.49996
0.3073421
0.499026
0.7007359
0.9006865
1.100403
1.300247
1.500155
0.2571663
0.4504472
0.7079026
0.9036109
1.100953
1.300437
1.500257
0.4459293
0.2304952
0.450635
0.7082185
0.9037114
1.100985
1.300455
1.500273
0.3077257
0.499542
0.7008863
0.9007653
1.100439
1.300268
1.50017
0.3046
0.4957143
0.6982873
0.8992618
1.099724
1.2999
1.49997
0.3035609
0.4937833
0.6963926
0.8980541
1.098961
1.299466
1.499726
0.3032609
0.493
0.6953587
0.8971815
1.09838
1.299106
1.499515
0.3031632
0.4926801
0.6948838
0.8967058
1.098021
1.298874
1.499375
0.3031294
0.4925612
0.6946968
0.8965077
1.097859
1.298763
1.499307
0.3031302
0.4925615
0.6946949
0.8965008
1.097851
1.298757
1.499304
0.3031769
0.4926999
0.6948859
0.8966813
1.09799
1.298851
1.499362
0.3033776
0.493136
0.6953887
0.8971185
1.098311
1.299055
1.499481
0.4523095
0.7025741
0.9008679
1.099971
1.299936
1.499969
0.2583385
0.4995138
0.6994078
0.8994834
1.099641
1.299783
1.499878
0.3061838
0.4963543
0.6975766
0.8985205
1.099131
1.299496
1.499715
0.3034229
0.4932785
0.6956422
0.8973771
1.098486
1.299142
1.499519
0.3024793
0.4919269
0.694448
0.896509
1.097942
1.298827
1.499344
0.302253
0.4914503
0.6939046
0.8960421
1.097619
1.298627
1.499231
0.3022101
0.4913319
0.6937526
0.895911
1.097528
1.298572
1.499202
0.3022317
0.4914141
0.6938936
0.8960743
1.097673
1.298673
1.499266
0.3023287
0.4917404
0.6944009
0.8966084
1.098079
1.298941
1.499429
0.3026464
0.4925783
0.6955584
0.8976038
1.098735
1.299366
1.49968
0.303775
0.4946473
0.6976799
0.8990067
1.099639
1.299873
1.499963
0.3068956
0.4986409
0.7007411
0.9007982
1.100482
1.3003
1.500191
0.257007
0.4503908
0.7083257
0.903931
1.101098
1.300514
1.500306
0.4459061
0.2304917
0.450729
0.7087062
0.9040736
1.101145
1.300538
1.500325
0.3072798
0.4991751
0.7009193
0.9008993
1.10053
1.300326
1.500208
0.303898
0.4949033
0.6978667
0.8990769
1.099678
1.299895
1.499976
0.3026921
0.4926931
0.6956704
0.8976726
1.098757
1.299375
1.499683
0.3023452
0.4917839
0.6944407
0.8966297
1.09808
1.29893
1.49942
0.3022326
0.4914095
0.6938694
0.8960339
1.097628
1.298634
1.499239
0.3021933
0.4912695
0.6936432
0.8957858
1.097417
1.29849
1.499151
0.3021943
0.4912697
0.6936395
0.8957749
1.097403
1.29848
1.499147
0.302249
0.4914325
0.6938673
0.8959944
1.097576
1.298599
1.499222
0.302485
0.491945
0.6944666
0.8965258
1.097961
1.298851
1.499372
0.4523015
0.7025488
0.9008498
1.099967
1.299936
1.499969
0.2583316
0.4995076
0.699396
0.8994795
1.099641
1.299783
1.499878
0.3061825
0.4963464
0.6975682
0.8985175
1.099131
1.299496
1.499715
0.3034221
0.4932755
0.6956385
0.897376
1.098487
1.299143
1.49952
0.3024798
0.4919277
0.694449
0.89651
1.097944
1.298828
1.499345
0.3022549
0.4914548
0.6939094
0.8960455
1.097622
1.298629
1.499232
0.3022131
0.4913389
0.6937599
0.8959161
1.097531
1.298574
1.499203
0.3022345
0.4914211
0.6939013
0.8960798
1.097676
1.298675
1.499267
0.3023311
0.4917468
0.6944082
0.8966138
1.098082
1.298942
1.49943
0.3026493
0.4925854
0.6955661
0.8976092
1.098738
1.299368
1.499681
0.3037785
0.4946549
0.697687
0.8990112
1.099641
1.299874
1.499963
0.3068979
0.4986458
0.7007453
0.9008007
1.100483
1.3003
1.500191
0.2569939
0.4503816
0.7083266
0.9039318
1.101098
1.300514
1.500306
0.4459094
0.2304914
0.4507428
0.708707
0.9040741
1.101145
1.300538
1.500325
0.3072817
0.4991791
0.7009228
0.9009012
1.100531
1.300326
1.500209
0.3039006
0.4949089
0.697872
0.8990801
1.09968
1.299895
1.499976
0.3026939
0.4926975
0.6956752
0.8976758
1.098759
1.299376
1.499684
0.3023463
0.4917871
0.6944444
0.8966323
1.098082
1.298931
1.49942
0.3022337
0.4914123
0.6938726
0.896036
1.097629
1.298635
1.49924
0.3021941
0.4912715
0.6936454
0.895787
1.097417
1.29849
1.499152
0.3021947
0.4912704
0.6936401
0.8957743
1.097402
1.29848
1.499148
0.3022489
0.4914319
0.6938654
0.8959905
1.097572
1.298596
1.499222
0.3024845
0.4919426
0.6944604
0.8965141
1.097949
1.298842
1.499371
0.4523122
0.7023655
0.9007066
1.099966
1.299945
1.499973
0.258353
0.4997035
0.6995223
0.8995542
1.099688
1.299812
1.499895
0.3066766
0.4969461
0.6979775
0.8987478
1.099256
1.299569
1.499758
0.3041647
0.4942694
0.6963563
0.897804
1.098728
1.299279
1.499598
0.3033744
0.4931225
0.6953709
0.8970971
1.098286
1.299028
1.499458
0.3031895
0.4927326
0.6949303
0.8967258
1.098026
1.298873
1.499371
0.3031592
0.492644
0.6948124
0.8966238
1.097956
1.298832
1.499349
0.303176
0.4927119
0.694929
0.8967549
1.098067
1.29891
1.499398
0.3032561
0.4929846
0.6953479
0.8971811
1.098391
1.299119
1.499525
0.3035324
0.4937074
0.6963198
0.8980131
1.098949
1.299462
1.499725
0.3045006
0.495508
0.6981419
0.8992106
1.099697
1.299885
1.499961
0.3073565
0.4990513
0.700753
0.9006947
1.100407
1.300249
1.500156
0.2570327
0.4504109
0.7079066
0.9036132
1.100954
1.300437
1.500257
0.4458962
0.2304919
0.4507
0.7082216
0.9037132
1.100985
1.300455
1.500273
0.3077375
0.4995629
0.7009003
0.9007721
1.100442
1.300269
1.50017
0.3046149
0.4957423
0.6983079
0.8992725
1.099729
1.299902
1.499971
0.3035695
0.4938019
0.6964093
0.8980643
1.098966
1.299468
1.499727
0.3032659
0.4930122
0.6953713
0.89719
1.098385
1.299108
1.499516
0.3031685
0.4926918
0.6948949
0.896713
1.098025
1.298876
1.499375
0.3031336
0.4925705
0.694705
0.8965126
1.097862
1.298764
1.499308
0.303132
0.4925654
0.6946978
0.8965011
1.09785
1.298756
1.499305
0.303177
0.4926991
0.694882
0.8966734
1.097981
1.298845
1.499362
0.3033765
0.4931304
0.6953738
0.8970919
1.098282
1.299035
1.49948
0.4520456
0.7013554
0.9003738
1.099964
1.299963
1.499982
0.2585451
0.5001337
0.6996808
0.8996498
1.09976
1.29986
1.499924
0.3080842
0.49853
0.6986738
0.8990875
1.099453
1.29969
1.499831
0.3066117
0.4968533
0.6976061
0.8984549
1.099105
1.2995
1.499728
0.3060868
0.4961441
0.6969711
0.898004
1.098834
1.299345
1.499642
0.305997
0.4959349
0.6967006
0.8977776
1.098682
1.299253
1.49959
0.3060159
0.4959276
0.6966396
0.8977181
1.098641
1.299229
1.499577
0.3060051
0.495948
0.6967123
0.8977996
1.098708
1.299275
1.499607
0.306035
0.4961007
0.6969796
0.898061
1.098901
1.299401
1.499683
0.3062453
0.4966035
0.6976285
0.8985982
1.099252
1.299613
1.499804
0.3069429
0.4978232
0.6988911
0.8994391
1.099747
1.299891
1.499955
0.3087034
0.5001385
0.7006593
0.9004359
1.100238
1.300142
1.500085
0.2574189
0.450515
0.7069503
0.9023204
1.100612
1.300282
1.500161
0.4463723
0.2305001
0.4505487
0.7071622
0.9023551
1.100621
1.300292
1.500174
0.3090572
0.5005872
0.7007649
0.9004787
1.100255
1.300153
1.500092
0.3070243
0.4979939
0.6990043
0.899481
1.099765
1.299899
1.499959
0.3062505
0.4966467
0.6976743
0.8986221
1.09926
1.299615
1.499804
0.3060319
0.4960997
0.6969804
0.8980583
1.098894
1.299393
1.499676
0.3059734
0.4958931
0.6966688
0.8977646
1.098679
1.299253
1.499592
0.3059459
0.4958066
0.696542
0.8976383
1.09858
1.299186
1.499552
0.3059324
0.4957862
0.6965306
0.8976292
1.098572
1.299181
1.49955
0.3059565
0.4958657
0.696647
0.8977363
1.098652
1.299235
1.499586
0.3060823
0.496139
0.6969654
0.8979952
1.098829
1.299351
1.499661
0.4515436
0.652123
0.8492104
1.048994
1.248987
1.44899
0.25885
0.5000565
0.6995372
0.8996873
1.099831
1.299917
1.499961
0.2578241
0.4995461
0.6989397
0.8993266
1.099641
1.299821
1.499913
0.2564664
0.4989372
0.6984033
0.8990051
1.099465
1.299729
1.499866
0.2562809
0.4986679
0.6981104
0.8988009
1.099342
1.299661
1.499829
0.2562826
0.4986688
0.6980056
0.8987028
1.099276
1.299621
1.499807
0.2564567
0.4988896
0.6980032
0.8986805
1.099258
1.29961
1.499801
0.2563936
0.498747
0.6980293
0.8987162
1.099287
1.29963
1.499814
0.256247
0.4987436
0.6981442
0.8988323
1.099372
1.299684
1.499845
0.2563499
0.4990742
0.6984709
0.8990774
1.099529
1.299776
1.499896
0.256511
0.499813
0.6991156
0.899495
1.099766
1.299903
1.499961
0.2569894
0.5006815
0.7000129
0.9000115
1.100023
1.300028
1.500016
0.2579918
0.4505098
0.650954
0.8506429
1.050399
1.250256
1.450176
0.4481959
0.655231
0.8500795
1.049061
1.24883
1.448747
0.230527
0.4500773
0.6574956
0.8507944
1.049855
1.249633
1.449542
0.2583035
0.5009375
0.7000787
0.9000234
1.100027
1.300032
1.500011
0.2567628
0.4998263
0.6991513
0.8995088
1.099771
1.299905
1.49996
0.2563488
0.4989864
0.6984625
0.8990803
1.099531
1.299776
1.499895
0.2562697
0.4986887
0.6981243
0.8988252
1.099367
1.29968
1.499842
0.2562876
0.4986559
0.6979841
0.8986949
1.099273
1.29962
1.499807
0.2562968
0.4985917
0.6979217
0.8986383
1.099231
1.299592
1.49979
0.2562559
0.4985156
0.6979036
0.8986326
1.099227
1.29959
1.499789
0.2562502
0.498538
0.6979543
0.8986802
1.099263
1.299614
1.499805
0.2562788
0.4986547
0.6981034
0.898796
1.099342
1.299668
1.499842
0.4260221
0.6245026
0.8244692
1.024463
1.224464
1.424464
0.234076
0.4992649
0.6997285
0.8997409
1.099894
1.299964
1.499989
0.2335825
0.4996169
0.699596
0.8995143
1.099789
1.299923
1.499973
0.233552
0.4995605
0.6995167
0.8993881
1.099722
1.299895
1.49996
0.2335446
0.4994708
0.6994242
0.8993228
1.099684
1.299876
1.499952
0.2335525
0.4994917
0.6993919
0.8992943
1.099666
1.299867
1.499947
0.234226
0.4996538
0.6993963
0.8992889
1.099662
1.299864
1.499946
0.234241
0.499545
0.6994025
0.899298
1.099669
1.299869
1.499948
0.2335731
0.4995854
0.699439
0.8993303
1.09969
1.299881
1.499955
0.257736
0.4997965
0.6995434
0.8994045
1.099735
1.299904
1.499967
0.2342432
0.4998526
0.6996335
0.8995448
1.099813
1.299941
1.499982
0.234285
0.4993191
0.6996854
0.8997792
1.099926
1.299988
1.499998
0.2333285
0.448969
0.6497933
0.8500351
1.050051
1.250038
1.450038
0.4252462
0.6247263
0.8246828
1.024658
1.224644
1.424643
0.2304848
0.4492057
0.6500125
0.8499352
1.050033
1.250125
1.449873
0.2338002
0.4993045
0.6997418
0.899778
1.099924
1.29999
1.499987
0.2318291
0.4997857
0.6996309
0.899546
1.099814
1.29994
1.499981
0.2336408
0.4995831
0.6995248
0.8994019
1.099735
1.299904
1.499966
0.2335462
0.4994889
0.6994271
0.8993277
1.099689
1.299881
1.499954
0.2335971
0.4995888
0.6993895
0.8992927
1.099666
1.299867
1.499947
0.2339391
0.4995328
0.6993714
0.8992785
1.099656
1.299861
1.499943
0.2335527
0.4994228
0.6993616
0.8992773
1.099656
1.299861
1.499942
0.2335433
0.4994246
0.699377
0.899292
1.099667
1.299867
1.499945
0.2335435
0.4994607
0.6993949
0.8992733
1.099646
1.299883
1.5
0.3774998
0.3486308
0.3788626
0.2333059
0.3473312
0.5505982
0.4508886
0.5509716
0.4508892
0.5530926
0.4487408
0.5492594
0.7502157
0.6486296
0.7508897
0.6517957
0.751766
0.6494392
0.7498577
0.950028
0.8488056
0.9510463
0.8490859
0.9511276
0.8497822
0.9500261
1.150037
1.048882
1.151084
1.048897
1.151105
1.049877
1.150066
1.350039
1.248901
1.351092
1.248891
1.351107
1.249904
1.350077
1.448905
1.448892
1.449913
0.3465797
0.3488741
0.2340717
0.3482387
0.2335922
0.3481075
0.3491859
0.3493005
0.2335815
0.3480078
0.2335552
0.3479005
0.3492965
0.3492888
0.2335518
0.3478573
0.2335448
0.3478148
0.3492849
0.3492792
0.2335444
0.3478015
0.2335434
0.3477878
0.3492781
0.3492764
0.2335433
0.3477842
0.2335431
0.3477806
0.3492762
0.3492759
0.233543
0.3477791
0.233543
0.3477799
0.3492761
0.3492773
0.233543
0.347779
0.2335432
0.3477839
0.3492784
0.3492826
0.2335432
0.3477836
0.2335438
0.3477966
0.3492876
0.3492909
0.2335438
0.3478002
0.2335457
0.347834
0.3493002
0.3491717
0.2335461
0.3478567
0.2335563
0.3479547
0.3488723
0.3464392
0.2335612
0.3480722
0.2336564
0.3484214
0.3477485
0.3734762
0.2337225
0.3486322
0.2299707
0.3473891
0.3874169
0.3746218
0.3748348
0.3770653
0.5877709
0.4240054
0.5754707
0.4252395
0.5755417
0.4258117
0.575573
0.7877772
0.6244276
0.7755271
0.6247126
0.7754128
0.624694
0.7754251
0.9877779
0.8244619
0.9755332
0.8246757
0.9753904
0.824653
0.9754081
1.187778
1.024466
1.175534
1.024658
1.175374
1.02464
1.175394
1.387778
1.224467
1.375534
1.224645
1.375367
1.224628
1.375387
1.424466
1.42464
1.424622
0.3462122
0.3478699
0.2302395
0.348579
0.2337361
0.3488305
0.3463732
0.3488143
0.233662
0.3484368
0.233561
0.3480541
0.3491544
0.3492924
0.2335565
0.3479545
0.2335461
0.3478524
0.3492881
0.3492866
0.2335458
0.3478358
0.2335438
0.3477993
0.3492825
0.3492783
0.2335438
0.3477977
0.2335432
0.3477832
0.3492773
0.349276
0.2335433
0.3477843
0.233543
0.3477782
0.3492759
0.3492755
0.233543
0.3477794
0.233543
0.3477772
0.3492755
0.3492759
0.233543
0.3477782
0.2335431
0.3477786
0.3492762
0.3492779
0.2335431
0.3477801
0.2335434
0.3477846
0.3492795
0.3492858
0.2335434
0.3477889
0.2335445
0.347804
0.3789576
0.2341533
0.3493608
0.3790222
0.2337356
0.3496795
0.3719401
0.3744438
0.3687004
0.3713565
0.3790412
0.2337291
0.3496872
0.3790308
0.2337077
0.3496374
0.3687193
0.3713738
0.3687822
0.3714241
0.3790348
0.2337047
0.3496154
0.3790395
0.2336981
0.3495883
0.3687859
0.3714263
0.3688034
0.3714458
0.3790451
0.233694
0.3495653
0.3790324
0.2336975
0.3495658
0.3688012
0.3714453
0.3688016
0.371449
0.3790298
0.2336951
0.349551
0.3790379
0.2336988
0.3495731
0.3688016
0.371449
0.3688014
0.3714453
0.3790473
0.2336962
0.349579
0.379047
0.2337019
0.3496076
0.3688035
0.3714459
0.3687863
0.3714265
0.3790321
0.2337078
0.3496441
0.3789644
0.2337319
0.3496707
0.3687827
0.3714245
0.3687226
0.3713752
0.3789569
0.2337377
0.349631
0.3771595
0.2341549
0.3493163
0.3687057
0.3713586
0.3719685
0.3744598
0.3775737
0.2333129
0.3475231
0.3481656
0.5755731
0.4488328
0.5494726
0.4503442
0.5510055
0.775548
0.6497582
0.7498451
0.6489448
0.75088
0.9755348
0.8499446
0.9499319
0.8489654
0.9509461
1.175535
1.049999
1.149959
1.049005
1.15097
1.375536
1.250017
1.349968
1.249018
1.350976
1.450024
1.449022
0.3480354
0.2335557
0.3479186
0.3492126
0.3493174
0.3478638
0.233545
0.3478208
0.3493023
0.3492918
0.347856
0.2338176
0.3481099
0.3492913
0.3493395
0.349032
0.2331956
0.3495346
0.349553
0.3497651
0.3502578
0.2306089
0.3482675
0.3482282
0.3734634
0.3748624
0.3770961
0.3873853
0.3746497
1.175374
1.024751
1.175315
1.012222
1.187778
1.025909
1.175511
1.375366
1.224676
1.375432
1.212222
1.387769
1.224486
1.375569
1.424578
1.412297
1.424431
0.2659731
0.2682042
0.2654149
0.2667549
0.265496
0.2667058
0.2653583
0.2670655
0.265385
0.2671043
0.2653483
0.2670837
0.2653641
0.2671091
0.2653458
0.2670801
0.2653589
0.267108
0.2653453
0.2670792
0.2653575
0.2671078
0.2653451
0.2670789
0.2653572
0.2671077
0.2653452
0.2670789
0.2653572
0.2671077
0.2653457
0.267079
0.2653574
0.2671079
0.2653473
0.2670794
0.2653583
0.2671088
0.2653545
0.2670822
0.2653626
0.267107
0.2653987
0.2670417
0.2653863
0.266834
0.2659159
0.2666111
0.2656156
0.265591
0.5509217
0.4243224
0.5749479
0.4486697
0.5494236
0.4489232
0.5497305
0.750896
0.6249554
0.7750021
0.6498062
0.7499505
0.649969
0.7500297
0.9509687
0.824988
0.9750079
0.8500262
0.9500198
0.8500468
0.9500391
1.150989
1.024992
1.175009
1.050049
1.150013
1.050036
1.150022
1.350992
1.224992
1.375008
1.250041
1.350001
1.250022
1.350011
1.424992
1.450032
1.450014
0.2838582
0.2667193
0.4877385
0.4244323
0.4747869
0.687776
0.6249915
0.6749994
0.8877777
0.8250029
0.8750036
1.087778
1.025002
1.075002
1.287778
1.225001
1.275001
1.487778
1.425001
1.475001
0.2657713
0.2658174
0.266487
0.2666433
0.5496669
0.4498233
0.5506194
0.4490672
0.5496371
0.4485356
0.5492618
0.7499287
0.6487402
0.7508392
0.6499031
0.7500006
0.6496887
0.7499152
0.9499963
0.8489264
0.9509729
0.8500327
0.9500362
0.849992
0.9500245
1.150005
1.048986
1.151001
1.050034
1.150025
1.050033
1.150026
1.350006
1.248999
1.351006
1.250021
1.350014
1.250029
1.350015
1.449
1.450014
1.450021
0.2653943
0.2665746
0.2654623
0.2666445
0.2653546
0.2670548
0.2653754
0.2671029
0.2653473
0.2670814
0.2653618
0.2671088
0.2653456
0.2670795
0.2653585
0.2671079
0.2653451
0.2670789
0.2653575
0.2671078
0.2653451
0.2670789
0.2653572
0.2671077
0.2653451
0.2670789
0.2653571
0.2671077
0.2653452
0.2670789
0.2653572
0.2671077
0.2653459
0.267079
0.2653576
0.267108
0.26758
0.267519
0.3509811
0.2302028
0.3483515
0.2578274
0.3511073
0.2302037
0.3484017
0.2666993
0.2666396
0.3501555
0.259172
0.3516564
0.2305247
0.3502926
0.2581156
0.3519544
0.2675755
0.2675741
0.3509769
0.2301996
0.3483634
0.2574094
0.3506006
0.2301789
0.3482947
0.2666008
0.2666007
0.3502654
0.2587493
0.3518793
0.2304999
0.3501993
0.2577114
0.3515321
0.267579
0.2675901
0.3504267
0.2301743
0.3482557
0.2570319
0.350296
0.230171
0.3482312
0.2665991
0.2665995
0.3501623
0.2574677
0.3513708
0.2304919
0.3501417
0.2573331
0.3512465
0.2675778
0.2675976
0.3502586
0.2301707
0.3482205
0.2569938
0.3502371
0.2301704
0.3482153
0.2665981
0.2665983
0.3501348
0.2573089
0.3512138
0.2304914
0.350132
0.257296
0.3511945
0.2675611
0.2675685
0.3502374
0.2301705
0.3482154
0.2570074
0.3502601
0.2301708
0.348221
0.2665976
0.2665981
0.3501321
0.257296
0.3511948
0.2304917
0.3501352
0.2573092
0.351215
0.2675994
0.2676033
0.3503
0.230171
0.3482324
0.2571691
0.3504372
0.2301744
0.3482587
0.2665984
0.2665991
0.3501426
0.2573338
0.3512492
0.2304953
0.3501641
0.2574693
0.3513773
0.2675994
0.2675977
0.3506288
0.2301792
0.3483036
0.2584808
0.3510658
0.2302041
0.3483951
0.2665995
0.2666004
0.3502037
0.257716
0.3515472
0.2305219
0.3502774
0.2587653
0.3519218
0.2675791
0.2675629
0.3514064
0.2302176
0.3485377
0.2597137
0.3520799
0.2305409
0.3489362
0.2666081
0.2666275
0.3503322
0.2581661
0.3520652
0.2305888
0.3503365
0.2593498
0.3519677
0.2669672
0.2673595
0.3483366
0.2335938
0.3481748
0.3465861
0.3489474
0.347807
0.2335465
0.3478052
0.3492859
0.3492819
0.3484716
0.2335815
0.3479748
0.3493995
0.3493227
0.3479909
0.2338043
0.34852
0.3493853
0.3499098
0.3486795
0.2339109
0.3488658
0.3503162
0.3499748
0.349266
0.2332277
0.3497473
0.3496716
0.3496716
0.3488949
0.2343635
0.3492134
0.3490234
0.3466736
1.150012
1.050037
1.150021
1.049002
1.150988
1.024992
1.175008
1.350004
1.250015
1.350007
1.249008
1.350997
1.224991
1.375044
1.45004
1.449026
1.425472
0.2669323
0.2668369
0.5755564
0.4258187
0.5756879
0.4120601
0.5743909
0.4240101
0.5777318
0.775425
0.624751
0.7753215
0.6233594
0.787783
0.6245139
0.7740951
0.9753907
0.8244751
0.9755946
0.8122244
0.9877778
0.822084
0.9779141
0.3493969
0.2339235
0.3496234
0.3470079
0.3484767
1.149918
1.050033
1.150009
1.049996
1.149756
1.048987
1.150989
1.350157
1.250051
1.350045
1.250252
1.350175
1.249017
1.351028
1.449992
1.44983
1.448978
0.3489315
0.2331249
0.3493009
0.3465353
0.3491036
0.3496877
0.2338221
0.3485448
0.3496448
0.349413
0.347992
0.2335477
0.3478388
0.3493201
0.349295
0.3478246
0.2335701
0.3478722
0.3492904
0.3493179
0.3482342
0.2340677
0.3489632
0.3495821
0.3502354
0.3486179
0.2335696
0.347979
0.3499282
0.3493838
0.3478169
0.2335435
0.3477879
0.349291
0.3492792
0.3477829
0.2335434
0.3477859
0.3492774
0.3492789
0.3477902
0.2335445
0.347805
0.3492806
0.3492872
0.2655914
0.2670178
0.2655077
0.2662774
0.2668237
0.2673388
0.265404
0.2670367
0.2653855
0.266853
0.2653579
0.2670805
0.2653631
0.2671087
0.2653483
0.2670791
0.2653585
0.2671094
0.2653459
0.2670789
0.2653575
0.2671081
0.2653453
0.2670789
0.2653572
0.2671078
0.2653451
0.2670789
0.2653572
0.2671077
0.2653452
0.2670789
0.2653574
0.2671078
0.2653457
0.2670795
0.2653584
0.267108
0.2653476
0.2670816
0.265362
0.2671089
0.2653569
0.2670594
0.2653793
0.2671047
0.2654219
0.2665505
0.2655134
0.2666676
0.2662988
0.2664167
0.2663867
0.266805
0.3099875
0.3735713
0.3216243
0.2680884
0.2690188
0.3228996
0.3741715
0.3237671
0.2667548
0.2667047
0.2725259
0.2714623
0.5121959
0.5749746
0.5249227
0.4752958
0.4245327
0.4748162
0.5243433
0.5749706
0.5248761
0.7122209
0.775002
0.7249999
0.6755112
0.6249555
0.6750052
0.7244535
0.7750144
0.7249776
0.9122222
0.9750016
0.9250014
0.8755311
0.8249846
0.8750172
0.924466
0.975017
0.9249863
1.112222
1.175001
1.125
1.075533
1.024987
1.075017
1.124467
1.175016
1.124986
1.312222
1.375
1.324999
1.275533
1.224986
1.275016
1.324467
1.375015
1.324985
1.475533
1.424985
1.475016
0.2656272
0.2667499
0.2654982
0.2667394
0.2653842
0.2670329
0.2653781
0.2668207
0.2653534
0.2670816
0.2653617
0.2671058
0.2653473
0.2670794
0.2653582
0.2671087
0.2653457
0.267079
0.2653573
0.267108
0.2653453
0.2670789
0.2653571
0.2671078
0.2653451
0.2670789
0.2653571
0.2671077
0.2653451
0.2670789
0.2653572
0.2671077
0.2653452
0.2670791
0.2653576
0.2671078
0.265346
0.2670798
0.2671081
0.265359
0.2675936
0.2675777
0.2726615
0.272644
0.2666017
0.2666094
0.2726223
0.2726266
0.267577
0.2675763
0.2726215
0.2726209
0.2665994
0.2666
0.2726184
0.2726195
0.2675883
0.2675957
0.2726179
0.2726185
0.2665984
0.2665991
0.2726183
0.2726184
0.2675717
0.2675755
0.2726184
0.2726192
0.2665976
0.2665981
0.2726188
0.2726192
0.2675771
0.2675888
0.2726188
0.2726192
0.2665981
0.2665983
0.2726184
0.2726192
0.2675971
0.2675928
0.2726184
0.2726185
0.2665992
0.2665995
0.272618
0.2726186
0.2675706
0.2675742
0.2726185
0.2726197
0.2666032
0.2666016
0.2726223
0.2726212
0.2675576
0.2675227
0.2726238
0.272631
0.2668033
0.2666864
0.2727006
0.2726565
0.266355
0.2684322
0.321599
0.3749199
0.3737325
0.3231352
0.2657994
0.2668633
0.2655902
0.2662143
0.4747289
0.4242606
0.4244113
0.4755425
0.5248376
0.5755855
0.5749162
0.5246142
0.6749672
0.624331
0.6249366
0.6754295
0.7249764
0.7756148
0.7749876
0.724526
0.8749929
0.8243575
0.8249856
0.8754492
0.9249951
0.9756273
0.9749988
0.9245404
1.074998
1.024367
1.024995
1.075454
1.124999
1.17563
1.175002
1.124544
1.274999
1.22437
1.224997
1.275455
1.325
1.37563
1.375002
1.324545
1.475
1.42437
1.424998
1.475455
0.2653622
0.2670686
0.2653901
0.2671068
0.2653476
0.2670782
0.2653581
0.2671081
0.2701481
0.2673337
0.2669844
0.2286797
0.2675267
0.2674728
0.2663617
0.2663847
0.2673693
0.2726586
0.2718882
0.2838405
0.2667273
0.3735707
0.3099666
0.3216086
0.2685338
0.2698605
1.025002
1.087778
1.075001
1.175
1.112222
1.125001
1.026728
1.074091
1.073275
1.174986
1.122086
1.123082
1.224999
1.287776
1.274993
1.225
1.277903
1.276895
1.424756
1.474005
1.473055
0.2335449
0.349292
0.2335449
0.3478199
0.3478219
0.3492941
0.2653486
0.2670795
0.2277754
0.2671092
0.2653591
0.2653487
0.2670798
0.2671093
0.2653593
0.2273051
0.2300867
0.2251655
0.226951
0.2251955
0.2269066
0.225156
0.2269545
0.2251716
0.2269348
0.2251559
0.2269528
0.2251703
0.2269353
0.2251558
0.2269526
0.2251701
0.2269355
0.2251559
0.2269526
0.22517
0.2269355
0.2251559
0.2269526
0.22517
0.2269355
0.2251559
0.2269526
0.22517
0.2269355
0.2251559
0.2269527
0.2251701
0.2269356
0.2251559
0.2269526
0.2251701
0.2269356
0.2251559
0.2269521
0.2251701
0.226935
0.2251568
0.2269506
0.2251706
0.2269239
0.2251921
0.2269134
0.2251905
0.2267989
0.2279283
0.2282378
0.2265347
0.2298305
0.2252393
0.2269192
0.2253483
0.226797
0.225159
0.2269117
0.225177
0.2268884
0.2251559
0.2269513
0.2251704
0.2269341
0.2251559
0.2269522
0.2251701
0.2269353
0.2251559
0.2269526
0.2251701
0.2269355
0.2251559
0.2269526
0.22517
0.2269355
0.2251559
0.2269526
0.22517
0.2269355
0.2251559
0.2269526
0.22517
0.2269355
0.2251559
0.2269526
0.22517
0.2269355
0.2251559
0.2269526
0.22517
0.2269356
0.2269269
0.226942
0.2269206
0.2269338
0.2270421
0.2270413
0.2269466
0.2270483
0.2269812
0.2270254
0.22705
0.2270245
0.2270266
0.2269376
0.2269468
0.2269458
0.2269454
0.2270628
0.5494828
0.4490842
0.5497506
0.4510199
0.5507753
0.4248964
0.5497672
0.7499569
0.6499266
0.7500503
0.6477777
0.75073
0.6237745
0.775024
0.9500248
0.8500603
0.950043
0.8489616
0.9509723
0.8249981
0.9750069
0.549725
0.4487546
0.549346
0.4491939
0.5498962
0.4499372
0.5506557
0.9501393
0.8499793
0.9500435
0.8497232
0.9502443
0.8489143
0.9509856
0.225214
0.226956
0.2251963
0.2268895
0.2269546
0.2269519
0.2251577
0.2269506
0.2251702
0.2269267
0.225156
0.2269517
0.2251699
0.2269352
0.2251559
0.2269524
0.22517
0.2269355
0.2251559
0.2269525
0.22517
0.2269356
0.2251559
0.2269526
0.22517
0.2269355
0.2251559
0.2269526
0.22517
0.2269355
0.2251559
0.2269527
0.22517
0.2269356
0.2251559
0.2269526
0.2251701
0.2269356
0.2251559
0.2269522
0.2251702
0.2269352
0.225156
0.2269511
0.2251707
0.2269337
0.2251631
0.2269067
0.2251855
0.2268879
0.2254621
0.2267889
0.2258192
0.2269763
0.2262431
0.2272676
0.2255082
0.2273686
0.2251688
0.2269214
0.2251776
0.2269074
0.2251564
0.2269509
0.2251703
0.226924
0.2251559
0.2269521
0.22517
0.226935
0.2251559
0.2269526
0.2251701
0.2269356
0.2251559
0.2269526
0.22517
0.2269356
0.2251559
0.2269526
0.22517
0.2269355
0.2251559
0.2269526
0.22517
0.2269355
0.2251559
0.2269526
0.22517
0.2269355
0.2251559
0.2269526
0.22517
0.2269356
0.2251701
0.2269526
0.2251559
0.2269356
0.2269249
0.2269349
0.2269802
0.2269141
0.226983
0.2270238
0.2270292
0.2269977
0.227042
0.2269835
0.2269591
0.226949
0.2270355
0.2270234
0.2269361
0.2270626
0.2274965
0.2305908
0.3621678
0.3877528
0.3873675
0.3620711
0.2252221
0.226938
0.2251992
0.2268726