/*--------------------------------*- C++ -*----------------------------------*\
  =========                 |
  \\      /  F ield         | OpenFOAM: The Open Source CFD Toolbox
   \\    /   O peration     | Website:  https://openfoam.org
    \\  /    A nd           | Version:  7
     \\/     M anipulation  |
\*---------------------------------------------------------------------------*/
FoamFile
{
    version     2.0;
    format      ascii;
    class       volScalarField;
    location    "0.1";
    object      Cy;
}
// * * * * * * * * * * * * * * * * * * * * * * * * * * * * * * * * * * * * * //

dimensions      [0 1 0 0 0 0 0];

internalField   nonuniform List<scalar> 
77308
(
0.256941
0.2552352
0.2548419
0.2547845
0.2547778
0.2547761
0.4988685
0.4981889
0.497696
0.4974733
0.4974
0.4973814
0.699388
0.6988518
0.6985241
0.6983276
0.6982487
0.6982218
0.8995924
0.8992051
0.8989768
0.8988629
0.898815
0.898799
1.099844
1.099687
1.09959
1.099541
1.099521
1.099515
1.299967
1.299935
1.299919
1.299915
1.299915
1.299917
1.500031
1.500072
1.50011
1.500141
1.50016
1.500169
1.700095
1.700209
1.700308
1.700378
1.700418
1.700434
1.900201
1.900431
1.90062
1.900749
1.900816
1.900841
2.100368
2.100774
2.101095
2.101302
2.101404
2.101438
2.300305
2.300708
2.301092
2.301386
2.30152
2.301554
2.500198
2.500316
2.500764
2.501058
2.501166
2.501169
2.648831
2.645955
2.645923
2.645977
2.645996
2.645992
2.818784
2.818795
2.818796
2.818796
2.818796
2.818796
3.046299
3.046383
3.046286
3.046247
3.046239
3.046243
3.298578
3.297948
3.297368
3.297033
3.296918
3.296925
3.499343
3.498656
3.498152
3.497809
3.497659
3.497627
3.699515
3.69899
3.698598
3.698354
3.698237
3.698202
3.899748
3.89946
3.89923
3.899077
3.898998
3.89897
4.099877
4.09973
4.099607
4.099519
4.099471
4.099451
4.299944
4.299876
4.299815
4.29977
4.299744
4.29973
4.499988
4.499972
4.499955
4.499941
4.499931
4.499921
4.700037
4.700075
4.700102
4.700118
4.700124
4.700119
4.900131
4.900267
4.90036
4.900419
4.900449
4.900451
0.2581493
0.3067542
0.3051692
0.3046524
0.3045417
0.3045229
0.4507311
0.4989448
0.4965715
0.4947739
0.4941098
0.493898
0.4938372
0.6504035
0.69906
0.6978506
0.6968622
0.6963593
0.6961529
0.6960816
0.8500087
0.8995048
0.8989211
0.8984353
0.8981517
0.8980207
0.8979735
1.049984
1.099803
1.099583
1.099398
1.099286
1.099234
1.099218
1.249993
1.300003
1.300016
1.300038
1.300064
1.300086
1.3001
1.449998
1.500181
1.500406
1.500623
1.500788
1.500887
1.500933
1.650004
1.70042
1.700931
1.701409
1.701758
1.701955
1.70204
1.850013
1.90083
1.901822
1.902719
1.903341
1.903673
1.903803
2.05003
2.101598
2.103463
2.105061
2.106078
2.106576
2.106753
2.250065
2.303118
2.306595
2.309302
2.310788
2.311428
2.311618
2.449922
2.50631
2.512063
2.515625
2.517156
2.517672
2.517737
2.649832
2.656123
2.661202
2.663872
2.664832
2.66508
2.665059
2.833557
2.834317
2.834674
2.834789
2.834808
2.834806
3.025307
3.032606
3.027641
3.025724
3.025174
3.025064
3.025091
3.250084
3.289884
3.282284
3.278138
3.276423
3.275865
3.275825
3.449861
3.495665
3.491171
3.487925
3.48621
3.485491
3.485296
3.649924
3.697905
3.695541
3.693605
3.69241
3.691838
3.691645
3.849962
3.898941
3.897698
3.896603
3.895861
3.895473
3.895323
4.049979
4.099462
4.098814
4.098219
4.097791
4.097552
4.097446
4.249987
4.299744
4.29943
4.299133
4.298911
4.298777
4.298706
4.449992
4.499922
4.499821
4.499723
4.499646
4.499592
4.499545
4.649996
4.700076
4.700159
4.700237
4.70029
4.700312
4.700288
4.950105
4.900276
4.900598
4.900898
4.901122
4.901251
4.901263
0.2583581
0.3064647
0.3038726
0.3030735
0.3028835
0.3028421
0.451768
0.4994376
0.4965087
0.4937832
0.492657
0.4922793
0.4921667
0.7013001
0.6992725
0.6976718
0.6961098
0.6952336
0.6948592
0.6947273
0.9003499
0.8995067
0.8987439
0.8979462
0.8974218
0.8971723
0.8970799
1.099974
1.099802
1.099548
1.099272
1.099082
1.098991
1.098962
1.300009
1.300089
1.300213
1.300336
1.300438
1.300508
1.30055
1.500083
1.500421
1.500959
1.50151
1.501935
1.502189
1.50231
1.700188
1.700917
1.70207
1.703236
1.70411
1.704609
1.704829
1.900372
1.901782
1.903997
1.906185
1.907748
1.908588
1.908931
2.100675
2.103384
2.107577
2.111536
2.114116
2.115376
2.115846
2.300825
2.306447
2.31429
2.320941
2.324602
2.326183
2.326707
2.500672
2.511895
2.525025
2.53438
2.538412
2.539817
2.540178
2.647861
2.661058
2.737895
2.746117
2.748646
2.749279
2.74938
2.834286
3.025629
3.027731
3.04978
3.041078
3.038419
3.037757
3.037667
3.29805
3.282607
3.266898
3.256451
3.25203
3.250509
3.250147
3.498666
3.49138
3.481632
3.473804
3.469623
3.467855
3.467295
3.699112
3.695638
3.690435
3.685697
3.682683
3.68124
3.680719
3.899529
3.897745
3.895
3.892352
3.890494
3.88951
3.889114
4.099761
4.098837
4.097395
4.095957
4.094893
4.094288
4.094014
4.299886
4.299437
4.298727
4.298005
4.297451
4.297115
4.296933
4.499965
4.49981
4.499563
4.499309
4.499107
4.498966
4.498851
4.700033
4.700111
4.700239
4.700378
4.700484
4.700525
4.70047
4.900079
4.900453
4.901026
4.90164
4.902132
4.902422
4.902459
0.2583337
0.3061361
0.3033365
0.3023855
0.3021568
0.3021044
0.4522682
0.4994435
0.4961845
0.4930644
0.4917085
0.4912347
0.491086
0.7023338
0.6993163
0.6974629
0.6955592
0.6944284
0.6939274
0.6937441
0.9006974
0.8995103
0.8986318
0.8976254
0.8969085
0.8965519
0.8964179
1.099993
1.099821
1.09957
1.099245
1.098987
1.098854
1.098814
1.300021
1.300179
1.300434
1.300694
1.3009
1.301034
1.301112
1.50013
1.500637
1.501498
1.502424
1.503164
1.503614
1.50383
1.700287
1.70135
1.703146
1.70507
1.70658
1.707465
1.707859
1.900561
1.902592
1.906019
1.909647
1.912384
1.913885
1.914501
2.100987
2.104847
2.111286
2.117804
2.122236
2.124412
2.125244
2.301005
2.308972
2.320664
2.331078
2.33697
2.339537
2.340441
2.500289
2.515332
2.5343
2.548567
2.554844
2.557084
2.557751
2.644853
2.66371
2.74609
2.756129
2.759843
2.760851
2.761078
2.834644
3.025669
3.025819
3.041102
3.030514
3.026628
3.02557
3.025338
3.298256
3.278604
3.256591
3.240851
3.234028
3.231606
3.230903
3.498322
3.488326
3.474135
3.462014
3.455315
3.452447
3.451466
3.698713
3.693848
3.685983
3.678242
3.673074
3.670581
3.669651
3.899293
3.896751
3.892546
3.888185
3.884947
3.883193
3.882479
4.099637
4.098304
4.096078
4.093725
4.091897
4.090829
4.090342
4.299825
4.29917
4.298064
4.296878
4.295929
4.29534
4.295024
4.499944
4.499707
4.499303
4.498867
4.498508
4.498258
4.498063
4.700044
4.700128
4.700276
4.70045
4.700589
4.700639
4.700549
4.900092
4.900583
4.901355
4.902235
4.902968
4.903402
4.903462
0.2583316
0.3060717
0.3032363
0.3022577
0.3020175
0.3019615
0.4522957
0.4994272
0.4961127
0.4929046
0.4914867
0.4909822
0.4908205
0.7025352
0.6993261
0.6974029
0.6953842
0.6941558
0.6936036
0.6933981
0.9008567
0.8995186
0.8986087
0.8975277
0.8967299
0.8963199
0.8961637
1.100007
1.099842
1.099614
1.099288
1.099016
1.09887
1.098825
1.30003
1.300238
1.300584
1.300946
1.301233
1.301417
1.301523
1.500154
1.500766
1.501824
1.502999
1.503964
1.504566
1.504859
1.700337
1.701598
1.703776
1.706195
1.708174
1.709375
1.709914
1.900653
1.903041
1.907172
1.911735
1.915346
1.917386
1.918223
2.101128
2.105615
2.113281
2.121341
2.127018
2.129854
2.130945
2.301077
2.310161
2.323677
2.336029
2.343201
2.346354
2.347492
2.500323
2.516655
2.537874
2.554169
2.561498
2.564157
2.564978
2.644714
2.664627
2.74847
2.759616
2.763798
2.764964
2.765239
2.834756
3.025665
3.025283
3.038599
3.026867
3.022497
3.021275
3.02099
3.298185
3.277116
3.252675
3.23477
3.226823
3.22395
3.223078
3.498205
3.486937
3.470682
3.456372
3.448225
3.444699
3.443457
3.69854
3.692933
3.683635
3.674095
3.667474
3.664218
3.662993
3.899182
3.89621
3.891168
3.885704
3.881435
3.879044
3.878073
4.099576
4.098004
4.095318
4.092374
4.089988
4.088543
4.08788
4.299795
4.299015
4.297672
4.296184
4.294956
4.294173
4.293752
4.499932
4.499642
4.499136
4.498571
4.498091
4.497752
4.497497
4.700047
4.700126
4.700265
4.700427
4.700558
4.700593
4.700472
4.900093
4.900632
4.901471
4.902434
4.903222
4.903669
4.903709
0.2583349
0.3061631
0.3033882
0.3024397
0.3022103
0.3021569
0.4522998
0.4994879
0.4962923
0.4931951
0.4918352
0.4913542
0.4912005
0.7025449
0.6993925
0.6975713
0.6956518
0.6944838
0.6939589
0.6937637
0.9008652
0.8995616
0.8987153
0.8977027
0.8969523
0.8965653
0.8964178
1.100012
1.099866
1.099671
1.099385
1.099143
1.099013
1.098974
1.300032
1.30025
1.300613
1.300995
1.301298
1.301492
1.301601
1.500155
1.500772
1.501839
1.503023
1.503997
1.504604
1.504899
1.700338
1.701601
1.703783
1.706207
1.70819
1.709394
1.709934
1.900654
1.903043
1.907175
1.911741
1.915354
1.917396
1.918233
2.101128
2.105617
2.113284
2.121345
2.127023
2.129859
2.130951
2.301077
2.310162
2.32368
2.336032
2.343203
2.346357
2.347495
2.500323
2.516656
2.537876
2.554171
2.5615
2.564158
2.564979
2.644713
2.664763
2.748471
2.759617
2.763799
2.764964
2.765239
2.834769
3.025664
3.025216
3.038599
3.026866
3.022497
3.021274
3.020989
3.298185
3.277115
3.252674
3.234769
3.226821
3.223949
3.223077
3.498205
3.486937
3.470681
3.456371
3.448224
3.444698
3.443456
3.698539
3.692933
3.683634
3.674093
3.667471
3.664214
3.66299
3.899182
3.896209
3.891166
3.885701
3.881429
3.879037
3.878067
4.099575
4.098002
4.095314
4.092367
4.089976
4.088529
4.087865
4.299794
4.299012
4.297663
4.296167
4.294931
4.294142
4.29372
4.499931
4.499635
4.499118
4.498535
4.498035
4.49768
4.49742
4.700044
4.700112
4.700226
4.700347
4.700428
4.700422
4.700285
4.900088
4.900605
4.90139
4.902256
4.902919
4.903255
4.903242
0.258353
0.3066746
0.3041617
0.3033699
0.3031786
0.3031348
0.4522924
0.4997009
0.4969482
0.4942773
0.4931338
0.4927366
0.4926124
0.7023657
0.6995438
0.6980385
0.6964591
0.6955122
0.6950905
0.6949362
0.9007231
0.8996415
0.8989558
0.8981462
0.8975563
0.8972593
0.8971477
1.100007
1.099888
1.099733
1.099511
1.099328
1.099232
1.099206
1.300028
1.300211
1.300513
1.300823
1.301069
1.301225
1.301312
1.500133
1.500653
1.501536
1.502486
1.503246
1.503707
1.503928
1.700288
1.701358
1.703165
1.705101
1.70662
1.707511
1.707908
1.900562
1.902597
1.90603
1.909664
1.912405
1.913909
1.914527
2.100988
2.104851
2.111295
2.117815
2.122249
2.124426
2.12526
2.301006
2.308977
2.320674
2.331089
2.33698
2.339547
2.340453
2.500288
2.515338
2.53431
2.548575
2.55485
2.557091
2.55776
2.644706
2.664328
2.746094
2.756131
2.759845
2.760854
2.761081
2.834724
3.025665
3.025445
3.0411
3.030511
3.026624
3.025567
3.025334
3.298258
3.278602
3.256586
3.240845
3.23402
3.231598
3.230895
3.498321
3.488325
3.474131
3.462008
3.455307
3.452438
3.451457
3.698712
3.693848
3.68598
3.678236
3.673065
3.670572
3.669642
3.899293
3.89675
3.892541
3.888176
3.884934
3.883177
3.882463
4.099636
4.0983
4.096068
4.093707
4.091871
4.090798
4.09031
4.299824
4.299162
4.298043
4.296838
4.295871
4.295269
4.294951
4.499941
4.49969
4.499258
4.49878
4.498377
4.498094
4.49789
4.700038
4.700094
4.700181
4.700258
4.700286
4.700248
4.700124
4.90008
4.900517
4.901158
4.901812
4.902261
4.902451
4.902398
0.2585359
0.3080852
0.306614
0.3060843
0.3059655
0.3059407
0.4520354
0.5001355
0.4985427
0.496876
0.4961654
0.4959199
0.4958472
0.7013573
0.6997023
0.6987307
0.6976998
0.6970929
0.6968264
0.6967322
0.9003854
0.8997143
0.8992382
0.8987
0.8983287
0.8981489
0.8980825
1.099991
1.099897
1.099773
1.099623
1.099513
1.099461
1.099448
1.300021
1.300127
1.300313
1.300496
1.300639
1.300729
1.30078
1.500088
1.500439
1.501004
1.501582
1.502027
1.502291
1.502417
1.700186
1.700933
1.702095
1.703271
1.704154
1.704658
1.704881
1.900379
1.90179
1.904012
1.906205
1.907772
1.908615
1.90896
2.10068
2.103387
2.107592
2.111554
2.114134
2.115396
2.11587
2.300823
2.306461
2.314316
2.320964
2.32462
2.326205
2.326736
2.500671
2.511928
2.525065
2.534404
2.538427
2.539837
2.540208
2.645221
2.662719
2.737913
2.746127
2.748651
2.749287
2.749392
2.834547
3.025661
3.0265
3.049768
3.041065
3.038404
3.037738
3.037649
3.298058
3.282596
3.26688
3.256429
3.252006
3.25048
3.250118
3.49866
3.491383
3.481626
3.473791
3.469607
3.467835
3.467275
3.699109
3.695641
3.690432
3.685688
3.682671
3.681227
3.680705
3.89953
3.897744
3.894994
3.892342
3.89048
3.889495
3.889098
4.099762
4.098832
4.097384
4.095939
4.094867
4.094258
4.093983
4.299882
4.299429
4.298706
4.297966
4.297395
4.297048
4.296864
4.49996
4.499793
4.499516
4.499222
4.498979
4.49881
4.498689
4.700026
4.700074
4.700139
4.700185
4.700189
4.700152
4.700072
4.900066
4.900381
4.900819
4.901215
4.901444
4.901516
4.901468
0.2588489
0.257824
0.2564666
0.2562792
0.2562545
0.2562522
0.4515504
0.5000586
0.4995539
0.4989494
0.4986689
0.4985676
0.4985406
0.6521236
0.6995482
0.6989686
0.6984496
0.6981652
0.6980413
0.6979994
0.8492113
0.8997168
0.8993963
0.8991161
0.8989451
0.8988639
0.8988348
1.048995
1.09989
1.099783
1.099691
1.099634
1.099609
1.099602
1.248989
1.300014
1.300094
1.300161
1.300213
1.300247
1.300267
1.449029
1.500182
1.500438
1.500674
1.500851
1.500956
1.501005
1.648991
1.70046
1.700954
1.701434
1.701787
1.701987
1.702073
1.849139
1.900836
1.901835
1.902735
1.903358
1.903691
1.903824
2.049062
2.101591
2.103482
2.105081
2.106094
2.106596
2.106778
2.248991
2.30315
2.306652
2.309338
2.310811
2.311459
2.311664
2.448463
2.506462
2.5122
2.515676
2.517181
2.517718
2.517825
2.646904
2.658743
2.670052
2.675408
2.67725
2.677718
2.677765
2.833382
2.842468
2.842705
2.842888
2.842915
2.842916
3.025636
3.030045
3.008321
3.003191
3.002122
3.001933
3.001925
3.251694
3.289831
3.282229
3.278083
3.276362
3.275782
3.275745
3.44895
3.495702
3.491167
3.487907
3.486188
3.485464
3.485269
3.648884
3.69792
3.695541
3.693598
3.6924
3.691826
3.691633
3.848936
3.898938
3.897694
3.896597
3.895853
3.895463
3.895313
4.048969
4.09945
4.098806
4.098209
4.097778
4.097536
4.09743
4.248973
4.29975
4.29942
4.299113
4.298882
4.298742
4.29867
4.448985
4.499914
4.499795
4.499676
4.499577
4.499508
4.499459
4.648993
4.700054
4.7001
4.700125
4.700123
4.700103
4.700071
4.951011
4.900231
4.900469
4.90064
4.900712
4.900723
4.900707
0.2340759
0.2335824
0.233552
0.2335445
0.2335434
0.2335433
0.4260101
0.4992639
0.4996186
0.4995634
0.4994685
0.4994296
0.4994192
0.6245025
0.6997307
0.6996022
0.6995268
0.6994354
0.6993931
0.69938
0.8244693
0.8997468
0.8995286
0.8994109
0.8993524
0.8993265
0.8993181
1.024463
1.099905
1.099818
1.099767
1.099744
1.099734
1.099732
1.224454
1.299974
1.29998
1.299984
1.29999
1.299995
1.299999
1.424754
1.50003
1.500087
1.500133
1.500168
1.500189
1.500198
1.624186
1.700117
1.700219
1.700318
1.700389
1.70043
1.700446
1.824507
1.90018
1.900439
1.900628
1.900756
1.900824
1.90085
2.050013
2.100391
2.100797
2.10111
2.101312
2.101417
2.101456
2.224545
2.300372
2.300791
2.301131
2.301405
2.30155
2.301604
2.42418
2.500532
2.500631
2.500832
2.501082
2.501236
2.501345
2.624784
2.654583
2.656433
2.656852
2.657125
2.657262
2.657498
2.83343
2.832865
2.832867
2.832892
2.832898
2.832937
3.025254
3.036193
3.034159
3.033769
3.033172
3.033479
3.032586
3.2244
3.298542
3.29789
3.297313
3.296972
3.296828
3.296838
3.424428
3.499366
3.498651
3.498141
3.497796
3.497643
3.49761
3.624463
3.699523
3.69899
3.698595
3.69835
3.698232
3.698197
3.824462
3.899742
3.899459
3.899228
3.899074
3.898995
3.898967
4.02459
4.09985
4.099728
4.099604
4.099516
4.099467
4.099447
4.224305
4.299972
4.299875
4.299811
4.299764
4.299736
4.299722
4.424463
4.499989
4.499967
4.499945
4.499925
4.499911
4.499901
4.624464
4.700032
4.70006
4.700071
4.70007
4.700065
4.70006
4.824465
4.900109
4.90019
4.900214
4.900216
4.900213
4.900214
0.2295667
0.3496291
0.2333711
0.3775393
0.3482118
0.2556249
0.3500735
0.3514057
0.2570885
0.254958
0.3476859
0.3458553
0.2550015
0.3510032
0.3507738
0.2550583
0.2538656
0.3446161
0.343807
0.2547972
0.3506287
0.3505566
0.2535798
0.2534346
0.3434471
0.3432388
0.25478
0.3505298
0.350514
0.2534023
0.2533865
0.3431681
0.343125
0.2547767
0.3505093
0.3505062
0.2533827
0.2533812
0.3431132
0.3431046
0.3505055
0.2533811
0.3431042
0.4504524
0.5509574
0.426007
0.4488731
0.5755698
0.5494082
0.6488592
0.7508208
0.6244996
0.6496832
0.7755461
0.7497834
0.8489239
0.9509232
0.8244677
0.8499025
0.9755341
0.9499062
1.048991
1.150963
1.024462
1.049984
1.175535
1.149952
1.249015
1.350975
1.224464
1.250017
1.375536
1.349972
1.449022
1.550979
1.424464
1.450033
1.575537
1.549986
1.649025
1.750983
1.624465
1.650046
1.775537
1.750004
1.849031
1.950991
1.824466
1.850068
1.975539
1.950036
2.049042
2.150996
2.024467
2.050108
2.175542
2.150102
2.249034
2.350832
2.22447
2.250195
2.375541
2.350266
2.448469
2.54835
2.424465
2.450487
2.575463
2.551018
2.648023
2.779639
2.624229
2.652544
2.77751
2.757339
2.818787
2.97523
2.834549
2.953934
2.818796
2.975299
2.975326
2.833361
2.832695
2.954328
2.954796
2.818797
2.975332
2.97533
2.832738
2.832848
2.954741
2.954616
2.818796
2.97533
2.975328
2.832861
2.832886
2.954602
2.954574
2.818796
2.975328
2.975328
2.832891
2.832894
2.95457
2.954566
2.818796
2.975328
2.975328
2.832895
2.832894
2.954564
2.954566
2.975328
2.832894
2.954566
3.046949
3.151619
3.025113
3.039183
3.17581
3.146247
3.251322
3.351449
3.224532
3.248412
3.375526
3.349261
3.449133
3.550955
3.424452
3.449601
3.575527
3.549736
3.648997
3.750954
3.624456
3.649855
3.775532
3.749867
3.849006
3.950967
3.82446
3.849947
3.975534
3.949921
4.049015
4.150973
4.024462
4.049988
4.175535
4.149947
4.249019
4.350976
4.224463
4.250009
4.375535
4.349961
4.449021
4.550978
4.424464
4.45002
4.575536
4.549971
4.649024
4.750982
4.624464
4.65003
4.775537
4.749984
4.849031
4.950997
4.824465
4.850046
4.975538
4.95001
0.2335859
0.3771288
0.3491385
0.2336994
0.3789528
0.3494527
2.833357
2.954461
2.832679
2.954993
0.2336962
0.3789638
0.349538
0.2336955
0.379019
0.3495625
2.832719
2.954942
2.832829
2.954818
0.2336948
0.3790281
0.3495561
0.233695
0.3790298
0.3495541
2.832842
2.954803
2.832868
2.954776
0.2336987
0.3790221
0.3495592
0.2336945
0.3790302
0.3495506
2.832871
2.954772
2.832875
2.954768
0.233697
0.3790336
0.3495695
0.2336944
0.379031
0.3495611
2.832875
2.954768
2.832871
2.954772
0.2336978
0.3790207
0.3495737
0.2337052
0.3789936
0.3495837
2.832867
2.954776
2.832842
2.954804
0.233705
0.3789977
0.34961
0.2337237
0.378988
0.3496494
2.832829
2.954818
2.832719
2.954942
0.2337324
0.3789809
0.3496404
0.2341565
0.3771396
0.3493058
2.83268
2.954993
2.833362
2.954458
0.2333152
0.3775466
0.3475114
0.3481449
0.2335937
0.3483332
0.3481739
0.3465817
0.3489458
0.2335556
0.3480353
0.3479188
0.349212
0.3493172
0.2335449
0.3478642
0.3478206
0.3493021
0.3492918
0.2335435
0.3478044
0.347791
0.3492855
0.3492796
0.2335433
0.3477875
0.3477846
0.3492783
0.3492772
0.3477856
0.3492774
0.6497582
0.775548
0.7498458
0.6489445
0.75088
0.8499459
0.9755348
0.9499338
0.8489656
0.9509462
1.250014
1.375591
1.349928
1.249017
1.350972
1.449861
1.575057
1.550074
1.448971
1.551009
2.652597
2.777225
2.757627
2.648284
2.78017
2.834575
2.953926
2.819291
2.975224
2.832896
2.954049
2.954426
2.818796
2.818796
2.969094
2.975088
2.832917
2.954416
2.953597
2.818796
2.819146
2.975083
2.968052
2.953597
2.819555
2.968053
0.2673648
0.2692469
0.4747435
0.4242439
0.4244796
0.4755404
0.6749545
0.6243079
0.6249223
0.6754131
0.8749876
0.8243477
0.824978
0.8754435
1.074997
1.024364
1.024992
1.075453
1.274999
1.224369
1.224997
1.275455
1.475
1.42437
1.424998
1.475455
1.675
1.62437
1.624998
1.675455
1.875002
1.82437
1.824999
1.875456
2.075004
2.024371
2.025001
2.075457
2.275011
2.224373
2.225005
2.275456
2.475045
2.424326
2.42502
2.475226
2.675748
2.623899
2.625275
2.674257
2.646238
2.779644
2.779677
2.653994
2.655013
2.757571
2.757907
2.645875
2.779674
2.779687
2.655808
2.656387
2.75833
2.758617
2.645956
2.779688
2.779692
2.656748
2.656983
2.75879
2.758892
2.645991
2.779692
2.779693
2.657106
2.657178
2.758943
2.75897
2.645996
2.779693
2.779692
2.657205
2.657209
2.75898
2.758979
2.779692
2.657189
2.75897
2.818195
2.83149
2.818796
2.833108
2.833093
2.818796
2.833099
2.833101
2.818796
2.833111
2.83311
2.818796
2.833114
2.833112
2.818796
2.833115
2.833113
2.818796
2.833114
2.833112
3.073988
3.024826
3.022225
3.075544
3.046302
3.150263
3.152681
3.036254
3.035314
3.143078
3.141251
3.046328
3.152988
3.153035
3.034698
3.034335
3.140097
3.139365
3.04626
3.152964
3.152916
3.034129
3.034011
3.138937
3.138668
3.046241
3.152888
3.152871
3.033952
3.033923
3.138531
3.138452
3.04624
3.152866
3.152867
3.033913
3.033915
3.138425
3.138426
3.152875
3.033929
3.138456
3.274925
3.224757
3.224845
3.275808
3.474983
3.424388
3.42497
3.475458
3.674993
3.624366
3.624988
3.675453
3.874997
3.824369
3.824994
3.875455
4.074998
4.024369
4.024996
4.075455
4.274999
4.22437
4.224997
4.275455
4.474999
4.42437
4.424998
4.475455
4.675
4.62437
4.624998
4.675455
4.875001
4.82437
4.824999
4.875456
0.2675348
0.2675007
2.65341
2.777323
2.757709
2.646894
2.654189
2.776983
2.758001
2.832522
2.832497
3.036525
3.150054
3.144057
3.025636
3.035757
3.1529
3.142652
0.2675659
0.2675636
2.655031
2.776989
2.758404
2.645222
2.655654
2.776955
2.758686
2.832487
2.83249
3.035195
3.151873
3.141436
3.025661
3.034849
3.154483
3.14065
0.2675964
0.267595
2.656018
2.776947
2.758856
2.644706
2.656246
2.77695
2.758954
2.832497
2.832498
3.034652
3.154841
3.140218
3.025665
3.034542
3.154983
3.139957
0.2675504
0.2675621
2.65636
2.77695
2.759002
2.644713
2.656415
2.776951
2.759023
2.8325
2.8325
3.034489
3.154973
3.13983
3.025664
3.034467
3.154973
3.13977
0.2675932
0.267572
2.656415
2.776951
2.759023
2.644714
2.656361
2.776951
2.759002
2.8325
2.8325
3.034467
3.154973
3.13977
3.025665
3.034489
3.154973
3.13983
0.267536
0.2675731
2.656247
2.77695
2.758954
2.644852
2.656019
2.776947
2.758856
2.832499
2.832499
3.034542
3.154983
3.139957
3.025669
3.034652
3.154841
3.140217
0.2675775
0.2675505
2.655659
2.776955
2.758687
2.647858
2.655044
2.77699
2.758408
2.832495
2.832493
3.034849
3.154482
3.140648
3.025629
3.035195
3.151872
3.141433
0.2675816
0.2676127
2.654222
2.776983
2.758017
2.649917
2.653455
2.777227
2.757812
2.832484
2.832483
3.035754
3.152897
3.142645
3.025347
3.036497
3.150017
3.144045
0.2669406
0.2673165
0.4488248
0.5755726
0.5494706
0.4503356
0.5510037
1.050001
1.175531
1.149961
1.049005
1.15097
1.650151
1.775556
1.750024
1.649036
1.750987
1.850054
1.976705
1.949965
1.849016
1.950899
2.050104
2.175021
2.150129
2.049033
2.151099
2.250046
2.375057
2.350365
2.249007
2.350881
2.450617
2.575767
2.551041
2.448538
2.548549
2.657201
2.758952
2.758981
2.645988
2.646007
2.779691
2.779693
2.657361
2.759011
2.759093
2.646047
2.646184
2.7797
2.78003
2.759296
2.646463
2.780753
2.832493
2.832211
2.832879
2.954321
2.954601
2.819859
2.83359
2.975292
2.972012
2.832862
2.954418
2.954083
2.832122
2.818835
2.970025
2.969084
2.832888
2.954285
2.95426
2.818814
2.818796
2.971892
2.971893
3.039022
3.175538
3.146287
3.046839
3.151699
3.033557
3.138318
3.138261
3.044565
3.045571
3.152753
3.152754
3.032568
3.138187
3.138016
3.045521
3.044024
3.15272
3.152598
3.138052
3.044031
3.152608
3.248388
3.376017
3.349096
3.251326
3.351398
3.449709
3.57547
3.549839
3.449149
3.550965
3.649876
3.775536
3.749871
3.649001
3.750955
3.849949
3.975551
3.949917
3.849007
3.950966
4.049927
4.175513
4.14989
4.048951
4.150929
4.250105
4.375518
4.349982
4.249113
4.350992
4.45002
4.575536
4.54997
4.449021
4.550977
4.650029
4.775536
4.749982
4.649024
4.750982
4.850044
4.975537
4.950006
4.849031
4.950996
0.3221307
0.3749793
0.3738932
0.3235335
0.2674101
0.2674245
0.5248394
0.5755636
0.5749029
0.5246033
0.7249662
0.775603
0.7749783
0.7245131
0.9249912
0.9756239
0.9749957
0.9245363
1.124998
1.175629
1.175001
1.124543
1.325
1.37563
1.375002
1.324544
1.525001
1.57563
1.575003
1.524545
1.725001
1.775631
1.775004
1.724545
1.925002
1.975631
1.975005
1.924545
2.125005
2.175634
2.17501
2.124547
2.325012
2.375611
2.375024
2.324542
2.525062
2.575157
2.575152
2.524177
2.72682
2.778442
2.779915
2.724644
2.818528
2.833087
2.832806
2.974638
2.970085
2.974186
2.964752
2.966264
2.832514
2.83223
2.96559
2.966728
2.818794
2.833094
2.833087
2.975327
2.964419
2.964324
2.975323
2.96429
2.964314
2.818796
2.833109
2.833104
2.975333
2.964284
2.964272
2.975333
2.964264
2.964269
2.818796
2.833114
2.833111
2.975328
2.964262
2.964259
2.975328
2.964257
2.964258
2.818796
2.833115
2.833112
2.975328
2.964256
2.964256
2.975328
2.964255
2.964255
2.818796
2.833115
2.833113
2.975327
2.964255
2.964255
2.975327
2.964256
2.964255
2.975328
2.964255
2.964256
3.124504
3.175852
3.174773
3.124736
3.324945
3.375673
3.374971
3.324767
3.524986
3.575626
3.574992
3.524544
3.724995
3.775629
3.774998
3.724543
3.924998
3.97563
3.975
3.924544
4.124999
4.17563
4.175002
4.124545
4.325
4.37563
4.375002
4.324545
4.525
4.57563
4.575002
4.524545
4.725001
4.775631
4.775003
4.724545
4.925002
4.975633
4.924546
4.975005
0.2675498
0.2675586
2.965392
2.965374
2.832484
2.832484
2.965371
2.965376
0.2675709
0.2675956
2.965366
2.965361
2.832495
2.832493
2.965355
2.965358
0.267581
0.2675855
2.965354
2.965352
2.832499
2.832499
2.96535
2.965351
0.2675625
0.2675609
2.96535
2.965349
2.8325
2.8325
2.965349
2.965349
0.2675762
0.2675826
2.965349
2.965349
2.8325
2.8325
2.96535
2.965349
0.26751
0.267522
2.96535
2.965351
2.832497
2.832498
2.965354
2.965352
0.267606
0.2675993
2.965355
2.965358
2.832487
2.83249
2.965366
2.965362
0.2675586
0.2674901
2.965371
2.965376
2.832511
2.832493
2.965393
2.965375
0.2663102
0.2682841
0.2657846
0.2668464
0.2655794
0.2661716
0.3215475
0.3748891
0.3737055
0.3230454
0.2654363
0.2666541
0.2655384
0.2667026
0.2654185
0.2670452
0.2653943
0.2668569
0.2653609
0.2670671
0.2653888
0.2671055
0.2653585
0.2670807
0.265364
0.2671084
0.2653479
0.2670819
0.2653635
0.2671079
0.2653473
0.2670781
0.2653579
0.2671079
0.2653449
0.2670784
0.2653578
0.2671068
0.2653447
0.2670777
0.2653565
0.2671067
0.2653443
0.2670777
0.2653565
0.2671065
0.2653443
0.2670776
0.2653563
0.2671065
0.2653445
0.2670776
0.2653565
0.2671065
0.6749672
0.6243309
0.6249364
0.6754295
0.9249951
0.9756272
0.9749989
0.9245406
2.675617
2.623703
2.624676
2.675081
2.674228
2.727281
2.778499
2.779897
2.724918
2.965581
2.966648
2.818239
2.831493
2.833257
2.818574
2.832836
2.974566
2.969892
2.833111
2.818796
2.833111
2.833112
2.818796
2.833111
2.958936
2.969094
2.958936
2.963885
2.971892
2.96124
2.833114
2.818808
2.833121
2.963875
2.971869
2.961176
2.957474
2.968946
2.95856
5.024466
5.049056
5.024466
5.050081
5.050075
5.049055
5.075005
5.024373
5.087748
5.07546
5.025001
5.075005
5.024373
5.07546
5.025001
0.2274744
0.2306327
0.4374679
0.4120301
0.4123979
0.4377302
0.6375071
0.6120982
0.6124755
0.6377546
0.8375111
0.81211
0.812482
0.837761
1.037512
1.012113
1.012483
1.037762
1.237512
1.212113
1.212484
1.237763
1.437512
1.412113
1.412484
1.437763
1.637512
1.612113
1.612484
1.637763
1.837512
1.812113
1.812484
1.837763
2.037512
2.012113
2.012484
2.037763
2.237512
2.212114
2.212484
2.237763
2.437514
2.412114
2.412485
2.437757
2.63755
2.612073
2.6125
2.637637
2.844981
2.814657
2.817542
2.843201
3.037328
3.011995
3.012028
3.037794
3.237509
3.21214
3.212476
3.237794
3.437512
3.412112
3.412483
3.437762
3.637512
3.612113
3.612484
3.637763
3.837512
3.812113
3.812484
3.837763
4.037512
4.012113
4.012484
4.037763
4.237512
4.212113
4.212484
4.237763
4.437512
4.412113
4.412484
4.437763
4.637512
4.612113
4.612484
4.637763
4.837512
4.812113
4.812484
4.837763
0.2270053
0.2269496
0.2270164
0.2269695
0.2269842
0.2269846
0.2270022
0.2269659
0.2269979
0.2269173
0.2269634
0.227012
0.2269634
0.2270007
0.2270647
0.2270657
0.2270139
0.2269395
2.655804
2.758184
2.758854
2.650173
2.646136
2.781295
2.755946
2.656685
2.758931
2.758818
2.647308
2.646281
2.781032
2.779854
2.657021
2.758843
2.758908
2.646021
2.645981
2.779739
2.779692
3.03511
3.143045
3.141152
3.046244
3.045777
3.150249
3.152616
3.033656
3.13876
3.138494
3.045618
3.045596
3.152852
3.152807
0.3621794
0.3877578
0.387373
0.3620905
0.2269204
0.226924
0.5624779
0.5878707
0.5875072
0.5622295
0.762486
0.7878834
0.7875142
0.7622347
0.9624875
0.9878861
0.9875157
0.9622368
1.162488
1.187887
1.187516
1.162237
1.362488
1.387887
1.387516
1.362237
1.562488
1.587887
1.587516
1.562237
1.762488
1.787887
1.787516
1.762237
1.962488
1.987887
1.987516
1.962237
2.162488
2.187887
2.187516
2.162237
2.362488
2.387888
2.387517
2.362238
2.562492
2.587849
2.587529
2.562202
2.763649
2.788746
2.790156
2.762691
2.9608
2.987422
2.986586
2.960617
3.162474
3.187904
3.187509
3.162252
3.362486
3.387885
3.387515
3.362243
3.562488
3.587886
3.587516
3.562237
3.762488
3.787887
3.787516
3.762237
3.962488
3.987887
3.987516
3.962237
4.162488
4.187887
4.187516
4.162237
4.362488
4.387887
4.387516
4.362237
4.562488
4.587887
4.587516
4.562237
4.762488
4.787887
4.787516
4.762237
4.987516
4.987887
4.962488
4.962237
0.2270133
0.2269686
0.2270141
0.2270892
0.2270367
0.2270132
0.226912
0.2269195
0.2269262
0.2270355
0.2269243
0.226948
0.2269269
0.2269415
0.227024
0.2269421
0.2273064
0.2300941
0.2252181
0.2269348
0.2251973
0.2268653
0.3621457
0.3877427
0.3873592
0.3620445
0.2251658
0.2269339
0.2268955
0.2251972
0.225158
0.2269493
0.2251707
0.2269249
0.2251564
0.2269523
0.2269335
0.2251717
0.2251564
0.2269517
0.2251704
0.2269349
0.2251563
0.2269523
0.2269352
0.2251706
0.2251563
0.2269527
0.2269356
0.2251704
0.2251563
0.2269526
0.2269355
0.2251703
0.2251563
0.2269526
0.2269355
0.2251703
0.637509
0.612103
0.6124778
0.6377577
0.7249764
0.7756148
0.7749876
0.7245259
0.8749929
0.8243574
0.8249857
0.8754494
1.274996
1.224369
1.224995
1.275455
1.324996
1.375631
1.375001
1.324544
1.474434
1.424375
1.425002
1.475226
1.525003
1.575858
1.525
1.575566
1.524526
2.63821
2.612099
2.612503
2.637649
2.763711
2.788915
2.790236
2.762773
2.844997
2.814779
2.843215
2.817605
2.960857
2.987519
2.987535
2.960755
2.964735
2.974156
2.966187
2.833239
2.818822
2.833143
2.957474
2.968945
2.958557
2.83363
2.832607
2.833522
0.2561124
0.2863928
0.284391
0.259875
0.2272768
0.227084
0.4624549
0.4878696
0.4874934
0.4622044
0.6624828
0.6878712
0.6875118
0.6622084
0.862486
0.8878757
0.8875144
0.8622134
1.062487
1.087877
1.087515
1.062214
1.262487
1.287877
1.287515
1.262215
1.462487
1.487877
1.487515
1.462215
1.662487
1.687877
1.687515
1.662215
1.862487
1.887877
1.887515
1.862215
2.062487
2.087877
2.087515
2.062215
2.262487
2.287877
2.287516
2.262215
2.462488
2.487853
2.487518
2.462202
2.66254
2.687716
2.687637
2.66203
3.062393
3.087876
3.087477
3.062264
3.262483
3.287904
3.287513
3.26225
3.462487
3.487876
3.487515
3.462214
3.662487
3.687877
3.687515
3.662214