/*--------------------------------*- C++ -*----------------------------------*\
  =========                 |
  \\      /  F ield         | OpenFOAM: The Open Source CFD Toolbox
   \\    /   O peration     | Website:  https://openfoam.org
    \\  /    A nd           | Version:  7
     \\/     M anipulation  |
\*---------------------------------------------------------------------------*/
FoamFile
{
    version     2.0;
    format      ascii;
    class       volScalarField;
    location    "0.1";
    object      Cz;
}
// * * * * * * * * * * * * * * * * * * * * * * * * * * * * * * * * * * * * * //

dimensions      [0 1 0 0 0 0 0];

internalField   nonuniform List<scalar> 
77308
(
0.04454651
0.04225305
0.0420805
0.04202005
0.04200798
0.04200736
0.09627873
0.0929683
0.09192592
0.0916583
0.09158765
0.09157063
0.09526091
0.09103389
0.0897245
0.08936673
0.08926755
0.08924602
0.09482814
0.09030983
0.08881584
0.08839937
0.08828054
0.08825035
0.09472607
0.09011658
0.08856182
0.08811455
0.08798343
0.08794854
0.09470025
0.09006532
0.08849119
0.08803195
0.087895
0.08785777
0.09469713
0.09006
0.08848384
0.0880232
0.08788544
0.08784779
0.09471219
0.09009172
0.08852857
0.08807628
0.08794258
0.08790639
0.09476305
0.0901953
0.08866979
0.08823981
0.08811662
0.08808403
0.09493995
0.09053429
0.08910869
0.0887279
0.08862405
0.08859777
0.09565336
0.09175408
0.09060974
0.0903215
0.09024701
0.09022932
0.09784518
0.09567162
0.09500255
0.09484888
0.09480762
0.09479851
0.04685044
0.04508828
0.04488404
0.04486255
0.04485968
0.04486178
0.01019974
0.01019573
0.01019568
0.0101956
0.01019557
0.01019557
0.04891809
0.0482675
0.04819226
0.04818497
0.0481841
0.04818647
0.09768874
0.09545459
0.09477944
0.09462679
0.09458764
0.0945785
0.0956448
0.09173733
0.09059446
0.09030796
0.09023472
0.09021723
0.09494749
0.09054542
0.08912298
0.08874399
0.08864101
0.08861493
0.09476683
0.09020203
0.08867885
0.08825005
0.08812732
0.08809481
0.09471347
0.09009395
0.08853148
0.08807957
0.08794602
0.08790954
0.09469534
0.09005702
0.08847969
0.08801807
0.08787968
0.08784137
0.09469368
0.09005346
0.08847469
0.08801222
0.08787341
0.08783489
0.09470774
0.09008191
0.08851488
0.0880606
0.08792626
0.08788923
0.09475489
0.09017764
0.08864629
0.08821463
0.08809222
0.08805957
0.2458091
0.291653
0.2908719
0.2905711
0.2904358
0.290397
0.2507371
0.2924443
0.2875855
0.2856402
0.2849554
0.284729
0.2846722
0.2516637
0.2910984
0.2849988
0.2824029
0.2814626
0.281143
0.2810594
0.2521299
0.2904983
0.2836981
0.2806324
0.2794831
0.2790827
0.278972
0.2521571
0.2902793
0.2832257
0.2799502
0.278682
0.2782286
0.2780996
0.2521528
0.290204
0.2830673
0.2797137
0.2783943
0.2779152
0.2777764
0.252152
0.2901962
0.2830534
0.2796924
0.2783673
0.2778849
0.2777444
0.2521525
0.2902469
0.2831654
0.2798583
0.2785685
0.2781041
0.2779702
0.252155
0.2904011
0.2834992
0.2803434
0.2791472
0.2787277
0.2786101
0.2521629
0.2908203
0.2843846
0.2815808
0.2805741
0.2802359
0.2801461
0.2521843
0.2919886
0.2867655
0.2847302
0.2840539
0.2838351
0.2837818
0.2519755
0.2948735
0.2923404
0.2915059
0.291216
0.2911004
0.291074
0.2510639
0.2473514
0.2464153
0.2463374
0.2463476
0.2463301
0.2463298
0.2518425
0.2482005
0.2468575
0.2468282
0.2468149
0.2468036
0.2253472
0.2484308
0.2483947
0.2486145
0.2487208
0.2487352
0.2487374
0.2516768
0.2948199
0.2922462
0.2914088
0.2911343
0.2910325
0.2910137
0.2521776
0.2920017
0.2867835
0.2847592
0.2840916
0.283879
0.2838296
0.2521724
0.2908359
0.2844128
0.28162
0.2806195
0.2802848
0.2801969
0.2521578
0.2904102
0.2835167
0.2803679
0.2791758
0.2787582
0.2786414
0.2521534
0.2902494
0.2831709
0.2798662
0.2785775
0.278113
0.2779786
0.2521521
0.2901917
0.283045
0.2796793
0.2783502
0.2778649
0.2777221
0.2521518
0.2901865
0.2830329
0.2796615
0.2783292
0.2778425
0.2776987
0.2521525
0.2902319
0.2831302
0.2798073
0.2785096
0.2780424
0.2779056
0.2470525
0.2903726
0.2834319
0.2802512
0.2790476
0.2786313
0.2785143
0.4490227
0.4967505
0.4955585
0.4951374
0.4949493
0.4948903
0.4503254
0.4970723
0.4940026
0.4921287
0.4913001
0.4909847
0.4908935
0.500751
0.4960335
0.4917543
0.4891173
0.4879169
0.4874552
0.4873206
0.5016468
0.4955067
0.4904086
0.4870801
0.4854935
0.4848788
0.4846967
0.501801
0.4952679
0.4898036
0.4861003
0.4842543
0.4835244
0.483303
0.5017891
0.4951714
0.4895772
0.485732
0.4837764
0.4829887
0.4827459
0.5017826
0.4951612
0.4895574
0.4856983
0.483729
0.4829327
0.4826865
0.5017954
0.4952311
0.4897228
0.485961
0.484062
0.4833025
0.4830703
0.5018356
0.4954295
0.4901884
0.4866944
0.4849823
0.4843157
0.4841179
0.5019109
0.4958924
0.4912876
0.4883979
0.487062
0.4865588
0.4864175
0.5018713
0.4969033
0.4936494
0.4918248
0.4910296
0.490737
0.4906611
0.5011097
0.4987061
0.4976377
0.4972276
0.4970691
0.4969709
0.4969421
0.4518346
0.4498746
0.5062567
0.5070484
0.5073808
0.5073422
0.5072843
0.4496245
0.4250367
0.4502249
0.5063365
0.5072183
0.5076326
0.5076384
0.507598
0.5010893
0.4986694
0.4975545
0.4971521
0.4970264
0.4969541
0.4969413
0.501881
0.4969075
0.4936632
0.4918527
0.4910672
0.4907856
0.490718
0.501916
0.4959023
0.4913101
0.4884353
0.4871086
0.4866113
0.4864737
0.501838
0.495436
0.4902032
0.4867185
0.4850124
0.4843492
0.4841529
0.5017956
0.4952326
0.4897273
0.4859682
0.4840703
0.4833109
0.4830781
0.50178
0.495155
0.4895449
0.4856778
0.4837003
0.4828986
0.4826484
0.5017799
0.4951497
0.4895302
0.4856539
0.4836708
0.4828667
0.4826149
0.5017962
0.4952142
0.4896774
0.4858886
0.4839742
0.4832096
0.4829732
0.5018223
0.4953937
0.4900977
0.4865568
0.4848273
0.4841647
0.4839693
0.6497833
0.6986537
0.6978632
0.6975179
0.6973824
0.6973382
0.6499901
0.6988434
0.6973866
0.6962743
0.6956927
0.6954465
0.695367
0.7000836
0.6981962
0.6961019
0.694429
0.6935072
0.693115
0.6929907
0.7003299
0.6978369
0.6952254
0.6929813
0.6916623
0.6910993
0.6909237
0.7004466
0.6976577
0.6947701
0.6921655
0.6905376
0.6898144
0.6895885
0.7004401
0.6975831
0.6945909
0.6918419
0.6900665
0.6892493
0.6889924
0.7004356
0.6975779
0.6945812
0.691821
0.6900288
0.689199
0.6889371
0.700448
0.6976379
0.694727
0.692068
0.6903617
0.6895811
0.6893378
0.7004838
0.6977944
0.6951064
0.6927218
0.691252
0.6906025
0.6904046
0.7005416
0.6981203
0.6959085
0.6940705
0.6930006
0.6925438
0.6924113
0.7005074
0.6987149
0.697328
0.6962656
0.6956789
0.69544
0.6953714
0.7003274
0.699566
0.6992449
0.6990852
0.699008
0.6989457
0.6989182
0.6492062
0.6501023
0.7019406
0.703033
0.7032538
0.7032581
0.7032281
0.6501574
0.6249931
0.6502219
0.7019578
0.7031112
0.7033873
0.7034243
0.7034107
0.7003228
0.6995567
0.6992389
0.6990986
0.6990484
0.6990072
0.6989924
0.7005078
0.6987146
0.697329
0.6962666
0.6956818
0.6954516
0.6953902
0.7005427
0.6981246
0.6959195
0.6940937
0.6930318
0.6925785
0.6924497
0.7004847
0.6977989
0.695118
0.6927434
0.6912816
0.6906358
0.6904402
0.7004482
0.6976407
0.6947349
0.6920812
0.6903782
0.6895993
0.6893571
0.7004341
0.6975766
0.6945801
0.6918172
0.6900194
0.6891849
0.688921
0.7004341
0.6975722
0.6945672
0.6917945
0.6899895
0.6891514
0.6888859
0.7004489
0.6976254
0.6946913
0.6920053
0.6902792
0.6894909
0.6892456
0.7004689
0.6977658
0.6950272
0.6925848
0.6910818
0.6904309
0.6902385
0.8499488
0.8995566
0.899239
0.8990827
0.8990167
0.8989942
0.8499827
0.8996268
0.8991016
0.8986477
0.8983831
0.8982611
0.8982173
0.8999045
0.8994045
0.8986813
0.8980324
0.8976303
0.8974421
0.8973755
0.8998951
0.8992963
0.8984338
0.8975991
0.8970383
0.8967732
0.8966837
0.8998968
0.8992503
0.8983198
0.8973669
0.8966751
0.8963327
0.8962199
0.8998967
0.8992378
0.8982888
0.897296
0.8965457
0.8961615
0.8960356
0.8998976
0.899246
0.8983091
0.8973263
0.8965787
0.8961941
0.8960684
0.8999034
0.8992749
0.8983798
0.8974496
0.8967552
0.8964059
0.8962933
0.8999168
0.8993358
0.8985291
0.8977179
0.8971418
0.8968602
0.8967699
0.8999379
0.8994505
0.8988114
0.8982114
0.897802
0.8976044
0.8975453
0.8999654
0.899641
0.8992649
0.8989498
0.8987566
0.8986693
0.8986429
0.8999919
0.8998859
0.8998066
0.8997562
0.8997267
0.8997067
0.8996981
0.8490042
0.850033
0.9002802
0.9004389
0.9004954
0.9005015
0.9004974
0.8501047
0.8249933
0.8500972
0.9002824
0.9004566
0.9005295
0.9005468
0.9005491
0.8999911
0.8998839
0.8998069
0.8997642
0.8997446
0.8997323
0.8997287
0.8999656
0.8996413
0.8992671
0.8989553
0.8987658
0.8986821
0.8986591
0.8999387
0.8994532
0.8988181
0.898223
0.8978143
0.8976157
0.897559
0.899918
0.8993406
0.8985409
0.8977387
0.8971717
0.8968962
0.8968094
0.899905
0.8992823
0.898398
0.8974802
0.8967969
0.8964557
0.8963482
0.8998996
0.8992572
0.8983363
0.8973704
0.8966351
0.8962589
0.8961394
0.8998992
0.8992538
0.8983275
0.8973543
0.8966123
0.8962322
0.8961122
0.8999039
0.8992718
0.8983694
0.897428
0.8967203
0.8963635
0.8962545
0.8999114
0.8993205
0.8984861
0.8976383
0.897028
0.8967319
0.8966458
1.049991
1.099952
1.099874
1.09983
1.099812
1.099806
1.049999
1.10012
1.100209
1.100243
1.100251
1.100248
1.10024
1.100047
1.100319
1.10064
1.100881
1.101007
1.101051
1.101056
1.100063
1.1005
1.101071
1.101585
1.101906
1.102039
1.102072
1.100076
1.100619
1.101365
1.102108
1.102628
1.10287
1.102938
1.100087
1.100684
1.101523
1.102391
1.103035
1.103353
1.103447
1.100093
1.100709
1.101583
1.102493
1.103179
1.103524
1.103629
1.100091
1.100701
1.101561
1.10245
1.103109
1.103435
1.103535
1.10008
1.100652
1.10144
1.102229
1.102786
1.103055
1.103138
1.100061
1.100544
1.101174
1.101763
1.102162
1.102354
1.102409
1.100035
1.100358
1.10073
1.101039
1.101228
1.101312
1.101337
1.100008
1.100114
1.100192
1.10024
1.100267
1.100286
1.100294
1.048991
1.049933
1.099718
1.099559
1.099501
1.099495
1.099498
1.049983
1.024993
1.049966
1.099716
1.099541
1.099467
1.099448
1.099446
1.100009
1.100116
1.100191
1.100232
1.100251
1.100262
1.100266
1.100035
1.100358
1.100731
1.101041
1.101228
1.101311
1.101334
1.100061
1.100545
1.101178
1.101771
1.102177
1.102375
1.102432
1.100081
1.100657
1.101452
1.10225
1.102814
1.103088
1.103176
1.100094
1.100713
1.10159
1.102501
1.103178
1.103517
1.103626
1.100099
1.100734
1.101643
1.102596
1.10332
1.103692
1.103815
1.100098
1.100733
1.101639
1.102588
1.103309
1.103681
1.103807
1.100092
1.100707
1.101578
1.102478
1.103148
1.103486
1.103604
1.100083
1.100651
1.101438
1.102217
1.10276
1.103018
1.103111
1.250008
1.299817
1.299561
1.299442
1.299446
1.29945
1.250011
1.300665
1.301365
1.301818
1.302042
1.30213
1.302149
1.299846
1.301406
1.302948
1.304106
1.304712
1.30495
1.305011
1.299621
1.301922
1.304198
1.306099
1.307181
1.307621
1.307745
1.299526
1.302207
1.304907
1.30731
1.308786
1.309424
1.309613
1.299546
1.302344
1.305233
1.307868
1.309553
1.310317
1.31055
1.29956
1.302385
1.305324
1.308021
1.309761
1.310559
1.310805
1.299551
1.302344
1.305224
1.307848
1.309524
1.310286
1.310519
1.299516
1.302198
1.30487
1.307236
1.308689
1.309327
1.30952
1.299461
1.30188
1.304084
1.305911
1.306972
1.307423
1.307552
1.299499
1.30129
1.302673
1.303729
1.304311
1.304547
1.304614
1.299678
1.300439
1.300758
1.300914
1.300988
1.301049
1.301077
1.248958
1.249841
1.29806
1.296965
1.296743
1.296738
1.296768
1.249863
1.224993
1.249838
1.29804
1.296885
1.296607
1.296569
1.296582
1.299681
1.300444
1.30076
1.300898
1.300947
1.300987
1.301001
1.299497
1.301287
1.302671
1.303731
1.304314
1.304543
1.304605
1.299459
1.301876
1.304079
1.305902
1.306962
1.307415
1.307544
1.299516
1.3022
1.304878
1.307249
1.308707
1.309352
1.309548
1.299552
1.302356
1.305256
1.307903
1.309601
1.310378
1.310622
1.299565
1.302417
1.305403
1.308153
1.309941
1.310772
1.31104
1.299564
1.302416
1.305402
1.308151
1.309937
1.310769
1.311042
1.299547
1.302354
1.305256
1.3079
1.30959
1.310367
1.310628
1.299525
1.302204
1.304889
1.30726
1.308701
1.309331
1.309555
1.449793
1.49915
1.49829
1.498149
1.498163
1.498166
1.44979
1.501752
1.503339
1.504171
1.504524
1.504651
1.504674
1.499157
1.503354
1.506867
1.508909
1.509789
1.510107
1.510187
1.498308
1.504216
1.508954
1.511968
1.513362
1.513882
1.514026
1.498178
1.504604
1.509899
1.513442
1.515179
1.515851
1.516048
1.498212
1.504769
1.51028
1.514043
1.515938
1.516691
1.516918
1.498245
1.504807
1.510374
1.51419
1.516124
1.5169
1.517136
1.498222
1.504758
1.510246
1.513984
1.515863
1.51661
1.516836
1.498175
1.504573
1.509802
1.513281
1.514981
1.51564
1.515834
1.498107
1.504117
1.508716
1.511596
1.512923
1.513421
1.513561
1.498172
1.503108
1.506365
1.50818
1.508967
1.509258
1.509334
1.498924
1.501317
1.502386
1.502781
1.502932
1.503031
1.503064
1.448324
1.449865
1.493755
1.492954
1.492618
1.492658
1.492719
1.450193
1.424985
1.449739
1.493657
1.492773
1.492357
1.492349
1.492388
1.498935
1.501331
1.502446
1.502846
1.502969
1.503041
1.503053
1.498148
1.503092
1.506339
1.508147
1.50893
1.509211
1.509278
1.498092
1.5041
1.508691
1.511564
1.512888
1.513384
1.513522
1.498164
1.504565
1.509795
1.513277
1.514981
1.515643
1.51584
1.498209
1.504765
1.510267
1.514021
1.515915
1.516673
1.516908
1.498224
1.50484
1.510442
1.5143
1.51627
1.51707
1.517323
1.498219
1.50484
1.510444
1.514301
1.516268
1.517068
1.517328
1.498201
1.504767
1.510271
1.514019
1.515899
1.516654
1.51691
1.498173
1.504572
1.509806
1.513259
1.514912
1.515551
1.515796
1.649458
1.647384
1.644066
1.643874
1.643871
1.643869
1.649459
1.705325
1.708215
1.709257
1.709602
1.709707
1.70972
1.647385
1.70822
1.713623
1.715798
1.716539
1.716775
1.71683
1.644068
1.709274
1.715817
1.718697
1.719743
1.720095
1.720188
1.643877
1.709637
1.716588
1.71978
1.720995
1.721421
1.721539
1.643886
1.709758
1.716855
1.720171
1.721461
1.721925
1.722057
1.644003
1.709746
1.716911
1.720258
1.721565
1.722038
1.722174
1.643954
1.709738
1.716822
1.720121
1.721399
1.721857
1.721989
1.643964
1.709608
1.716503
1.71965
1.720838
1.721254
1.72137
1.64383
1.70919
1.715627
1.718423
1.719422
1.719757
1.719847
1.644056
1.708
1.713262
1.715284
1.715949
1.716168
1.716225
1.644632
1.705211
1.707745
1.708518
1.708791
1.708916
1.708964
1.647077
1.650879
1.650171
1.649821
1.649704
1.649748
1.649796
1.648413
1.65119
1.652012
1.651498
1.651493
1.65155
1.624954
1.650196
1.639457
1.636387
1.635891
1.63585
1.635875
1.647427
1.705161
1.707758
1.708597
1.708868
1.708973
1.708991
1.644162
1.707966
1.713217
1.715245
1.715908
1.71612
1.716169
1.643877
1.709166
1.71559
1.718382
1.71938
1.719713
1.719801
1.64387
1.709591
1.716485
1.719631
1.720822
1.721238
1.721355
1.643886
1.70974
1.716828
1.72013
1.721416
1.72188
1.722015
1.643893
1.7098
1.716949
1.72031
1.721635
1.722119
1.722264
1.643882
1.709808
1.716952
1.720312
1.721635
1.722119
1.722268
1.643879
1.709755
1.716834
1.720126
1.721396
1.721853
1.722006
1.643876
1.709598
1.716481
1.719569
1.720678
1.721057
1.721224
1.822361
1.820583
1.820543
1.820536
1.820536
1.820535
1.82236
1.902298
1.904412
1.905086
1.905241
1.905278
1.905281
1.820583
1.904413
1.908347
1.909518
1.909819
1.909897
1.909914
1.820543
1.905089
1.909522
1.910966
1.911357
1.911464
1.911491
1.820536
1.90525
1.909831
1.911366
1.9118
1.911926
1.911958
1.820539
1.905306
1.90992
1.911483
1.911935
1.912069
1.912104
1.821173
1.905367
1.909941
1.911508
1.911963
1.912098
1.912135
1.821158
1.905314
1.909913
1.91147
1.911917
1.91205
1.912085
1.82057
1.905267
1.909813
1.911331
1.911758
1.91188
1.911912
1.847903
1.905121
1.909481
1.910896
1.911272
1.911375
1.911401
1.82142
1.904444
1.908276
1.909401
1.909681
1.909755
1.909775
1.821172
1.902272
1.904448
1.905016
1.905155
1.905204
1.905233
1.822344
1.856195
1.857536
1.857421
1.857421
1.857448
1.857578
1.826239
1.829555
1.828869
1.82883
1.82884
1.829083
1.824704
1.853401
1.854272
1.854281
1.854411
1.854286
1.854546
1.820931
1.902352
1.90455
1.905218
1.905367
1.905403
1.905412
1.82257
1.904414
1.908273
1.909408
1.909691
1.909763
1.90978
1.820577
1.905062
1.909459
1.910879
1.911256
1.911358
1.911384
1.820535
1.905239
1.909801
1.911322
1.911749
1.911872
1.911904
1.820769
1.905317
1.909911
1.911469
1.911919
1.912053
1.912089
1.821691
1.905327
1.909946
1.911519
1.911979
1.912117
1.912155
1.820535
1.905308
1.909944
1.911519
1.911978
1.912116
1.912156
1.820536
1.905289
1.909907
1.911463
1.911906
1.912037
1.912079
1.820536
1.90523
1.909774
1.911256
1.911643
1.911748
1.9118
0.01972063
0.0460173
0.1717008
0.1779912
0.1446829
0.04320772
0.04459981
0.04165499
0.1426086
0.1421007
0.1398295
0.1362024
0.04204054
0.04062211
0.04016511
0.1389038
0.1405517
0.1337922
0.1326069
0.04204099
0.040007
0.03993608
0.140626
0.1406005
0.1321177
0.131878
0.04201051
0.03990935
0.03989753
0.140535
0.1405054
0.1317853
0.1317318
0.04200714
0.03989308
0.03989143
0.1404936
0.1404875
0.131715
0.1317046
0.03989148
0.1404868
0.1317039
0.04703654
0.04608645
0.1776079
0.1444925
0.1794074
0.1442748
0.04586119
0.04573871
0.1794116
0.1441443
0.1794479
0.1440139
0.04571242
0.04570066
0.1794552
0.1439748
0.1794635
0.1439412
0.04569693
0.0456962
0.1794636
0.1439338
0.1794637
0.1439247
0.04569536
0.04569523
0.1794638
0.1439229
0.1794639
0.1439207
0.04569499
0.04569522
0.1794639
0.1439198
0.179464
0.1439215
0.04569535
0.04569613
0.1794639
0.143921
0.1794641
0.1439272
0.04569673
0.04569912
0.179464
0.1439279
0.1794645
0.1439444
0.04570235
0.04571976
0.1794645
0.1439524
0.179466
0.144005
0.04574812
0.04590295
0.1794665
0.1440584
0.1794648
0.1442681
0.04619082
0.04747225
0.1794601
0.1445312
0.1793403
0.1452354
0.04733432
0.02302202
0.1790795
0.1460802
0.1762807
0.1476125
0.01020609
0.02257256
0.1768146
0.1773846
0.01019596
0.02241922
0.02233227
0.1741401
0.1710646
0.1747214
0.1715531
0.01019575
0.02232743
0.0223247
0.1710859
0.1711501
0.171565
0.171614
0.01019559
0.02232437
0.02232465
0.1711541
0.1711729
0.1716164
0.1716381
0.01019557
0.02232463
0.02232474
0.17117
0.1711674
0.1716371
0.171641
0.01019557
0.0223247
0.02232475
0.1711645
0.1711619
0.1716395
0.1716396
0.02232477
0.1711609
0.1716392
0.04981031
0.04686286
0.176302
0.1477877
0.1790717
0.1457794
0.04727208
0.04615044
0.1793346
0.1450718
0.1794583
0.1444718
0.0458905
0.04574619
0.1794637
0.1442551
0.1794662
0.144051
0.04571955
0.0457023
0.1794659
0.1440056
0.1794644
0.143951
0.04569928
0.04569666
0.1794644
0.1439452
0.179464
0.1439275
0.04569622
0.04569527
0.1794641
0.1439276
0.1794639
0.1439205
0.04569518
0.04569491
0.179464
0.1439213
0.179464
0.1439189
0.04569492
0.04569503
0.1794639
0.1439199
0.1794639
0.1439202
0.04569541
0.04569595
0.1794639
0.1439215
0.1794639
0.1439258
0.04569694
0.04569891
0.1794638
0.1439294
0.179464
0.1439433
0.2220803
0.2261304
0.24764
0.3750712
0.375557
0.3488978
0.2260963
0.2259053
0.3755969
0.3755791
0.4241783
0.4244928
0.4494579
0.5754729
0.575541
0.5497213
0.4247031
0.4246865
0.5754328
0.5754326
0.6244258
0.6244688
0.649854
0.7755228
0.7755315
0.7499197
0.6246553
0.6246461
0.7754079
0.7754127
0.824459
0.8244655
0.8499589
0.9755331
0.9755316
0.9499793
0.8246349
0.8246291
0.9753856
0.9753913
1.024466
1.024465
1.049998
1.175533
1.175535
1.15001
1.024614
1.024609
1.175365
1.175371
1.224466
1.224469
1.250029
1.375529
1.375527
1.350047
1.224592
1.224587
1.375345
1.375354
1.424456
1.424452
1.450085
1.575495
1.575492
1.550159
1.424567
1.424567
1.575299
1.575313
1.624426
1.624426
1.65034
1.773828
1.773831
1.750927
1.624407
1.62442
1.773979
1.774093
1.821967
1.821965
1.853236
1.952187
1.820584
1.854642
1.855424
1.952483
1.9538
1.82055
1.855728
1.85593
1.954096
1.954249
1.820536
1.855996
1.856042
1.954281
1.954296
1.820536
1.856055
1.856066
1.954301
1.954302
1.820535
1.856068
1.856069
1.954302
1.954302
1.856065
1.954302
1.855729
1.82055
1.855931
1.954097
1.954249
1.855997
1.820536
1.856044
1.954281
1.954297
1.856079
1.820696
1.856102
1.954303
1.9543
1.856165
1.822064
1.856225
1.954269
1.954262
1.854275
1.824219
1.85267
1.95282
1.977117
1.823351
1.822611
1.989894
1.977436
1.828833
1.828886
1.828404
1.989805
1.989805
1.973465
1.977644
1.828961
1.828399
1.829136
1.989805
1.989895
1.977645
1.97292
1.829138
1.990058
1.97292
0.07232669
0.02333005
0.07183702
0.02267772
0.07186481
0.02261159
0.07177905
0.02251594
0.0717928
0.02245684
0.07176813
0.02250019
0.0717721
0.02244979
0.07176682
0.02250052
0.07176914
0.02244949
0.07176662
0.02250062
0.0717686
0.0224494
0.07176658
0.02250068
0.07176842
0.0224494
0.07176668
0.02250073
0.07176848
0.02244943
0.07176713
0.02250078
0.07176869
0.0224495
0.07176859
0.02250085
0.07176952
0.02244967
0.07177799
0.02250163
0.0717742
0.02245388
0.07184258
0.02253211
0.07181035
0.02257205
0.07213732
0.02283031
0.07201628
0.02333878
0.04542575
0.02289555
0.02280545
0.1442587
0.1432338
0.1468076
0.146494
0.04491929
0.02279601
0.02279082
0.1428725
0.1426691
0.1463839
0.1463393
0.04486701
0.02279039
0.02279
0.1426218
0.1425888
0.1463274
0.1463218
0.04486054
0.02278988
0.02278966
0.1425833
0.1425726
0.1463175
0.1463125
0.04485997
0.02278956
0.02278964
0.1425698
0.142568
0.1463086
0.1463074
0.0227897
0.1425732
0.1463097
0.01031528
0.07349601
0.01019665
0.0732685
0.0731928
0.01019545
0.07314672
0.0731466
0.01019534
0.07314977
0.0731497
0.01019528
0.07315034
0.07314948
0.01019523
0.07314943
0.0731486
0.01019525
0.0731493
0.0731487
0.07220198
0.02364396
0.07293457
0.02290025
0.04847999
0.04585422
0.04427727
0.1465957
0.1460428
0.1434228
0.142141
0.04820986
0.04391208
0.04373394
0.1458611
0.1457986
0.1416919
0.1414639
0.04818698
0.04369651
0.04367994
0.1457849
0.1457838
0.141412
0.1413808
0.04818419
0.04367653
0.04367568
0.145785
0.1457849
0.14138
0.1413735
0.04818482
0.0436756
0.04367645
0.1457849
0.1457862
0.1413747
0.1413757
0.04367853
0.1457904
0.1413829
0.0718546
0.0226787
0.07190207
0.02261232
0.07178167
0.02251946
0.07179721
0.02245678
0.07176878
0.02250119
0.07177299
0.0224498
0.07176702
0.02250079
0.0717696
0.02244953
0.07176663
0.02250075
0.07176882
0.02244943
0.07176654
0.02250071
0.07176848
0.0224494
0.07176652
0.0225007
0.07176839
0.0224494
0.07176667
0.02250072
0.07176846
0.02244943
0.07176717
0.02250077
0.07176871
0.02244951
0.2748208
0.2246937
0.24865
0.2253398
0.249322
0.3529969
0.3495185
0.375046
0.3498254
0.2249344
0.2749766
0.2491705
0.2510496
0.2484773
0.3750447
0.3497582
0.3529905
0.3494464
0.4749723
0.4249541
0.4498295
0.4250364
0.449985
0.5516786
0.5499924
0.5750155
0.5500333
0.4250026
0.4750038
0.4499624
0.4518276
0.4497864
0.5750148
0.5500253
0.551684
0.5499929
0.6750002
0.6249923
0.6500047
0.6249926
0.6500407
0.751042
0.7500292
0.7750077
0.7500322
0.6250031
0.6750029
0.6500365
0.6491996
0.6499902
0.775007
0.7500312
0.7510483
0.7500375
0.8749971
0.8250012
0.8500086
0.8249926
0.8500217
0.9510086
0.9500112
0.9750076
0.9500059
0.8250013
0.875001
0.850021
0.8489977
0.8499982
0.9750069
0.9500064
0.9510149
0.9500206
1.075
1.025001
1.049989
1.024992
1.049994
1.150996
1.149992
1.175007
1.149978
1.025
1.075
1.049994
1.048985
1.049979
1.175007
1.149979
1.151002
1.150002
1.275008
1.225006
1.249971
1.224992
1.249968
1.350794
1.349998
1.375007
1.34996
1.224998
1.274998
1.249969
1.248951
1.249962
1.375007
1.349964
1.3508
1.35001
1.475007
1.425
1.450015
1.424984
1.44997
1.548178
1.550192
1.574962
1.550024
1.424996
1.474997
1.449975
1.448316
1.450008
1.574963
1.550038
1.548176
1.550218
1.675014
1.625009
1.650523
1.624954
1.650195
1.749355
1.75134
1.774826
1.750711
1.624998
1.675008
1.650242
1.647023
1.650561
1.774778
1.75081
1.749051
1.751516
1.875574
1.825134
1.854642
1.820584
1.855425
1.952482
1.9538
1.856058
1.820537
1.856071
1.954301
1.954303
1.856141
1.820549
1.85609
1.954296
1.954304
1.856099
1.822099
1.85611
1.954327
1.954494
1.85615
1.821524
1.856081
1.954656
1.954468
1.856053
1.822062
1.855892
1.954239
1.954055
1.855565
1.82127
1.854918
1.953813
1.95261
1.857433
1.853683
1.853689
1.955139
1.955141
1.977214
1.977215
1.857495
1.853707
1.85379
1.955147
1.955171
1.977216
1.977323
1.854054
1.955221
1.977709
1.825204
1.875529
1.829762
1.825272
1.828671
1.990076
1.978185
1.977582
1.975184
1.828921
1.828833
1.828905
1.977879
1.98981
1.974065
1.97347
1.828827
1.828658
1.828641
1.989807
1.989805
1.975196
1.975195
1.852126
1.821638
1.854211
1.95041
1.953293
1.854281
1.858635
1.858637
1.951763
1.951791
1.956313
1.956312
1.854549
1.858638
1.858659
1.951793
1.951726
1.95631
1.956294
1.858652
1.951725
1.956292
1.854966
1.822019
1.855612
1.952746
1.953811
1.85589
1.820701
1.856014
1.954066
1.954248
1.856006
1.820536
1.856052
1.954278
1.954297
1.856057
1.820559
1.856081
1.954301
1.954308
1.856092
1.821864
1.856054
1.954376
1.954577
1.856083
1.82056
1.856095
1.954478
1.954325
1.856083
1.820536
1.85608
1.954305
1.954305
1.856078
1.820536
1.856073
1.954304
1.954304
1.856069
1.820536
1.856054
1.954303
1.954301
0.07199412
0.02273256
0.07188459
0.02324639
0.1238662
0.1744584
0.07182151
0.02253298
0.07180009
0.02256159
0.07177625
0.02250228
0.07177297
0.02245285
0.07176816
0.02250099
0.07176916
0.02244939
0.07176691
0.02250078
0.07176848
0.02244941
0.07176656
0.0225007
0.07176842
0.02244945
0.07176654
0.02250068
0.07176849
0.02244945
0.07176667
0.02250076
0.07176875
0.02244948
0.07176706
0.02250081
0.07176957
0.02244956
0.0717689
0.02250115
0.07177318
0.02244991
0.07178288
0.02251971
0.07179918
0.02245694
0.07187732
0.02274757
0.07195556
0.02262716
0.07221597
0.02391648
0.07254715
0.0230625
0.01025719
0.07336879
0.07342864
0.02360139
0.07537449
0.02327892
0.07651589
0.07614948
0.1748281
0.1245127
0.1750124
0.1260873
0.01019568
0.07314781
0.07315653
0.02235496
0.07645189
0.076353
0.02233931
0.0763013
0.07631832
0.01019539
0.07314912
0.07314728
0.02232508
0.07630042
0.07629876
0.02232416
0.07629811
0.07629945
0.01019532
0.07315057
0.07314975
0.02232462
0.07629891
0.07630073
0.02232452
0.07630075
0.07630136
0.01019525
0.07314961
0.07314917
0.02232461
0.076301
0.0763028
0.02232461
0.07630179
0.07630298
0.01019523
0.07314924
0.07314849
0.02232468
0.07630184
0.07630331
0.02232473
0.07630235
0.07630333
0.02232486
0.0763024
0.07630405
0.07203952
0.02265839
0.07192375
0.02272283
0.07183264
0.02253126
0.07180577
0.02256606
0.07177755
0.02250153
0.07177377
0.02245388
0.07176857
0.02250086
0.07176939
0.02244968
0.07176709
0.02250076
0.07176863
0.02244948
0.0717667
0.02250072
0.07176842
0.02244946
0.07176657
0.0225007
0.07176839
0.0224494
0.07176657
0.02250071
0.07176844
0.0224494
0.07176668
0.02250076
0.07176871
0.02244944
0.07176713
0.02250075
0.02244955
0.07176961
0.3248979
0.3749402
0.2249328
0.2749665
0.3750023
0.3249945
0.3749994
0.3249902
0.5249805
0.5749827
0.4250021
0.4750022
0.5750036
0.5250034
0.5750024
0.5250033
0.7249959
0.7749937
0.6250035
0.675002
0.7750019
0.7250022
0.7750012
0.7250028
0.9249995
0.9750021
0.8250021
0.8750004
0.9750002
0.9250004
0.9749995
0.9250012
1.124999
1.175
1.025001
1.074999
1.174999
1.124999
1.174998
1.125
1.325002
1.374998
1.224999
1.274997
1.374997
1.324997
1.374996
1.324998
1.525011
1.575007
1.424997
1.474997
1.574997
1.524996
1.574998
1.524998
1.725021
1.775044
1.625001
1.67501
1.775085
1.725032
1.775071
1.725035
1.926973
1.976214
1.927599
1.977142
1.927934
1.976485
1.927606
1.977141
1.92793
1.976493
1.928116
1.977253
1.928028
1.977369
1.92815
1.977463
1.928184
1.977428
1.928214
1.97748
1.928196
1.97754
1.928219
1.977495
1.928223
1.977544
1.928229
1.977497
1.928224
1.977548
1.928229
1.977497
1.928228
1.977548
1.928231
1.977497
1.928228
1.977548
1.92823
1.977497
1.928229
1.977548
1.928231
1.977497
1.928229
1.977548
1.928231
1.977497
1.928229
1.977548
1.92823
1.977497
1.928229
1.977548
1.928216
1.977482
1.928199
1.977543
1.928229
1.977497
1.928228
1.977548
1.92773
1.977332
1.927955
1.925778
1.977335
1.927783
1.976086
1.927507
1.977107
1.824991
1.873892
1.989686
1.926521
1.926938
1.989748
1.926657
1.97649
1.924599
1.926852
1.989805
1.926852
1.926853
1.989805
1.926852
1.923073
1.973465
1.923072
1.92366
1.975195
1.923842
1.926857
1.989807
1.926868
1.923663
1.975206
1.923859
1.923712
1.97347
1.923182
1.820536
0.04570344
0.1794641
0.1439567
1.856039
1.954296
0.07176888
0.02250096
0.0846009
0.02244969
0.0717698
1.92823
1.977499
1.97755
1.92823
0.0343554
0.009413546
0.03523018
0.01030891
0.03522283
0.0102904
0.03523132
0.01030301
0.03522636
0.0102811
0.03523049
0.01030325
0.03522508
0.01028074
0.03523043
0.01030336
0.03522486
0.01028071
0.03523043
0.01030335
0.03522486
0.01028074
0.03523044
0.01030339
0.03522488
0.01028075
0.03523045
0.0103034
0.03522488
0.01028075
0.03523047
0.01030341
0.0352249
0.01028077
0.03523049
0.01030345
0.03522501
0.01028077
0.03523092
0.01030359
0.03522522
0.01028087
0.03523272
0.01030418
0.03522667
0.01028464
0.03523686
0.01032179
0.03523104
0.01033744
0.03584065
0.01052323
0.03493454
0.01025392
0.03524501
0.01044462
0.03530787
0.0103714
0.03523504
0.01031556
0.03523077
0.01029293
0.03523134
0.01030385
0.03522634
0.01028115
0.03523057
0.01030356
0.03522515
0.01028078
0.03523049
0.01030343
0.03522494
0.01028078
0.03523046
0.0103034
0.0352249
0.01028076
0.03523045
0.01030339
0.03522489
0.01028076
0.03523045
0.01030339
0.03522488
0.01028076
0.03523045
0.01030339
0.03522488
0.01028075
0.03523047
0.0103034
0.0352249
0.01028076
0.2374771
0.2124774
0.4374836
0.412491
0.6375099
0.6124902
0.8375171
0.8125092
1.037501
1.012482
1.237514
1.212498
1.437498
1.412479
1.637513
1.612487
1.837518
1.812507
1.857355
1.853894
1.854627
1.953774
1.954286
1.977746
1.952812
1.857482
1.854296
1.853827
1.95552
1.955201
1.977984
1.977242
1.857423
1.853704
1.853684
1.955135
1.955137
1.977219
1.977212
1.854003
1.856591
1.857873
1.95111
1.951515
1.954174
1.955724
1.854283
1.8586
1.85863
1.951782
1.951788
1.956292
1.956309
0.03520779
0.01031234
0.03521147
0.01031724
0.1624631
0.1874819
0.03523252
0.01030467
0.03522648
0.01028402
0.03523076
0.01030368
0.03522512
0.01028074
0.03523045
0.01030344
0.03522491
0.01028067
0.03523042
0.01030341
0.03522486
0.01028071
0.03523043
0.01030339
0.03522487
0.01028075
0.03523045
0.0103034
0.03522488
0.01028075
0.03523046
0.0103034
0.0352249
0.01028076
0.0352305
0.01030344
0.03522496
0.01028079
0.03523064
0.01030358
0.03522522
0.01028086
0.03523153
0.01030402
0.03522658
0.01028124
0.03523654
0.01032145
0.03523325
0.01029505
0.03517949
0.01074188
0.03511505
0.01043823
0.03540214
0.01053339
0.03537129
0.01060342
0.03523575
0.01031285
0.03522993
0.010292
0.03523242
0.01030402
0.03522639
0.01028448
0.03523084
0.01030353
0.03522515
0.01028082
0.03523047
0.01030343
0.03522499
0.01028076
0.03523046
0.0103034
0.0352249
0.01028077
0.03523045
0.01030339
0.03522489
0.01028075
0.03523045
0.01030339
0.03522488
0.01028076
0.03523045
0.01030339
0.03522488
0.01028075
0.03523045
0.0103034
0.03522489
0.01028076