/*--------------------------------*- C++ -*----------------------------------*\
  =========                 |
  \\      /  F ield         | OpenFOAM: The Open Source CFD Toolbox
   \\    /   O peration     | Website:  https://openfoam.org
    \\  /    A nd           | Version:  7
     \\/     M anipulation  |
\*---------------------------------------------------------------------------*/
FoamFile
{
    version     2.0;
    format      ascii;
    class       volScalarField;
    location    "0.1";
    object      epsilon;
}
// * * * * * * * * * * * * * * * * * * * * * * * * * * * * * * * * * * * * * //

dimensions      [0 2 -3 0 0 0 0];

internalField   nonuniform List<scalar> 
109978
(
0.001917221
0.001970862
0.00197561
0.001976144
0.001976103
0.001975523
0.001971067
0.002075563
0.002086018
0.002087301
0.002087259
0.002086358
0.001975835
0.002086225
0.002098139
0.002099753
0.002099701
0.002098607
0.001976332
0.002087573
0.002099861
0.002101643
0.00210163
0.002100472
0.001976411
0.002087817
0.002100303
0.002102132
0.002102129
0.00210095
0.001976419
0.002087942
0.002100424
0.002102278
0.002102294
0.002101111
0.001976395
0.002087993
0.002100452
0.002102341
0.002102363
0.002101179
0.001976409
0.002088003
0.002100478
0.002102362
0.002102389
0.002101205
0.001976417
0.002088004
0.002100484
0.002102371
0.0021024
0.002101217
0.001976404
0.002088006
0.002100486
0.002102375
0.002102406
0.002101223
0.001976412
0.002088006
0.002100483
0.002102377
0.002102409
0.002101224
0.001976415
0.002088006
0.002100479
0.002102377
0.00210241
0.002101225
0.001976405
0.002088005
0.002100476
0.002102377
0.002102409
0.002101224
0.001976415
0.002088004
0.002100476
0.002102376
0.002102408
0.002101224
0.001976405
0.002088002
0.002100465
0.002102375
0.002102407
0.002101222
0.001976407
0.002088002
0.002100463
0.002102372
0.002102405
0.00210122
0.001976413
0.002087998
0.002100459
0.002102368
0.002102398
0.002101216
0.001976399
0.002087996
0.002100456
0.002102359
0.002102389
0.002101206
0.001976407
0.002087982
0.002100434
0.002102336
0.002102362
0.002101179
0.00197639
0.002087945
0.002100385
0.002102266
0.002102287
0.002101104
0.00197633
0.002087788
0.002100175
0.002102022
0.002102033
0.002100855
0.001976057
0.002087235
0.002099477
0.002101247
0.002101256
0.002100122
0.01042664
0.002086049
0.002098049
0.002099711
0.002099759
0.002098801
0.002105407
0.002107228
0.002106915
0.002106865
0.002106851
0.002106752
0.01043758
0.01042585
0.01042574
0.01042574
0.01042573
0.01042574
0.0104366
0.01042568
0.01042563
0.0104256
0.0104256
0.0104256
0.01043658
0.0104257
0.01042562
0.0104256
0.01042559
0.01042559
0.01043655
0.01042569
0.01042563
0.0104256
0.01042559
0.01042558
0.01043656
0.0104257
0.01042563
0.0104256
0.01042558
0.01042558
0.01043655
0.0104257
0.01042562
0.0104256
0.01042558
0.01042558
0.01043655
0.0104257
0.01042562
0.0104256
0.01042558
0.01042558
0.01043655
0.0104257
0.01042562
0.0104256
0.01042558
0.01042558
0.01043655
0.0104257
0.01042562
0.0104256
0.01042558
0.01042558
0.01043654
0.0104257
0.01042562
0.0104256
0.01042558
0.01042558
0.01043654
0.0104257
0.01042562
0.0104256
0.01042558
0.01042558
0.01043654
0.0104257
0.01042562
0.0104256
0.01042558
0.01042558
0.01043654
0.0104257
0.01042562
0.0104256
0.01042558
0.01042558
0.01043654
0.0104257
0.01042562
0.0104256
0.01042558
0.01042558
0.01043654
0.0104257
0.01042562
0.0104256
0.01042558
0.01042558
0.01043654
0.0104257
0.01042562
0.0104256
0.01042558
0.01042558
0.01043654
0.0104257
0.01042562
0.0104256
0.01042558
0.01042558
0.01043654
0.0104257
0.01042562
0.0104256
0.01042558
0.01042558
0.01043654
0.0104257
0.01042562
0.0104256
0.01042558
0.01042558
0.01043654
0.0104257
0.01042562
0.0104256
0.01042558
0.01042558
0.01043654
0.0104257
0.01042562
0.01042559
0.01042558
0.01042558
0.01043654
0.01042569
0.01042562
0.01042559
0.01042558
0.01042558
0.01043653
0.01042569
0.01042562
0.01042559
0.01042558
0.01042558
0.002102498
0.002107259
0.002106605
0.002106357
0.00210635
0.002106386
0.01043656
0.01042566
0.01042562
0.01042561
0.0104256
0.0104256
0.01043518
0.01042559
0.01042555
0.01042551
0.01042549
0.01042548
0.01043516
0.01042563
0.01042558
0.01042552
0.01042549
0.01042548
0.01043513
0.01042563
0.01042558
0.01042553
0.0104255
0.01042548
0.01043514
0.01042563
0.01042559
0.01042553
0.0104255
0.01042548
0.01043513
0.01042563
0.01042559
0.01042553
0.0104255
0.01042548
0.01043513
0.01042563
0.01042559
0.01042553
0.0104255
0.01042548
0.01043513
0.01042563
0.01042559
0.01042553
0.0104255
0.01042548
0.01043513
0.01042563
0.01042559
0.01042553
0.0104255
0.01042548
0.01043513
0.01042563
0.01042559
0.01042553
0.0104255
0.01042548
0.01043513
0.01042563
0.01042559
0.01042553
0.0104255
0.01042548
0.01043513
0.01042563
0.01042559
0.01042553
0.0104255
0.01042548
0.01043513
0.01042563
0.01042559
0.01042553
0.0104255
0.01042548
0.01043513
0.01042563
0.01042559
0.01042553
0.0104255
0.01042548
0.01043513
0.01042563
0.01042559
0.01042553
0.0104255
0.01042548
0.01043513
0.01042563
0.01042559
0.01042553
0.0104255
0.01042548
0.01043513
0.01042563
0.01042559
0.01042553
0.0104255
0.01042548
0.01043513
0.01042563
0.01042559
0.01042553
0.0104255
0.01042548
0.01043513
0.01042563
0.01042559
0.01042553
0.0104255
0.01042548
0.01043513
0.01042563
0.01042559
0.01042553
0.0104255
0.01042548
0.01043513
0.01042563
0.01042559
0.01042553
0.0104255
0.01042548
0.01043513
0.01042563
0.01042558
0.01042553
0.0104255
0.01042548
0.01043513
0.01042563
0.01042558
0.01042553
0.0104255
0.01042548
0.002102027
0.002106844
0.002105983
0.002105706
0.002105674
0.002105769
0.01043658
0.01042563
0.01042559
0.01042559
0.01042559
0.01042559
0.01043517
0.01042555
0.01042553
0.01042551
0.01042549
0.01042548
0.01043516
0.01042556
0.01042554
0.01042551
0.01042549
0.01042548
0.01043514
0.01042556
0.01042555
0.01042553
0.0104255
0.01042548
0.01043516
0.01042556
0.01042555
0.01042553
0.0104255
0.01042548
0.01043515
0.01042556
0.01042555
0.01042553
0.0104255
0.01042548
0.01043516
0.01042556
0.01042555
0.01042553
0.0104255
0.01042548
0.01043515
0.01042556
0.01042555
0.01042553
0.0104255
0.01042548
0.01043515
0.01042556
0.01042555
0.01042553
0.0104255
0.01042548
0.01043515
0.01042556
0.01042555
0.01042553
0.0104255
0.01042548
0.01043515
0.01042556
0.01042555
0.01042553
0.0104255
0.01042548
0.01043515
0.01042556
0.01042555
0.01042553
0.0104255
0.01042548
0.01043515
0.01042556
0.01042555
0.01042553
0.0104255
0.01042548
0.01043515
0.01042556
0.01042555
0.01042553
0.0104255
0.01042548
0.01043515
0.01042556
0.01042555
0.01042553
0.0104255
0.01042548
0.01043515
0.01042556
0.01042555
0.01042553
0.0104255
0.01042548
0.01043515
0.01042556
0.01042555
0.01042553
0.0104255
0.01042548
0.01043515
0.01042556
0.01042555
0.01042553
0.0104255
0.01042548
0.01043515
0.01042556
0.01042555
0.01042553
0.0104255
0.01042548
0.01043515
0.01042556
0.01042555
0.01042553
0.0104255
0.01042548
0.01043515
0.01042556
0.01042555
0.01042553
0.0104255
0.01042548
0.01043515
0.01042556
0.01042555
0.01042553
0.0104255
0.01042548
0.01043515
0.01042556
0.01042555
0.01042553
0.0104255
0.01042548
0.002101873
0.002106688
0.00210583
0.002105473
0.00210542
0.002105524
0.01043657
0.01042561
0.01042558
0.01042559
0.01042558
0.01042558
0.01043513
0.01042552
0.01042552
0.0104255
0.01042549
0.01042548
0.01043514
0.01042553
0.01042551
0.0104255
0.01042549
0.01042548
0.01043511
0.01042552
0.01042552
0.01042551
0.01042549
0.01042548
0.01043512
0.01042552
0.01042552
0.01042551
0.0104255
0.01042548
0.01043512
0.01042552
0.01042552
0.01042551
0.0104255
0.01042548
0.01043512
0.01042552
0.01042551
0.01042551
0.0104255
0.01042548
0.01043512
0.01042552
0.01042551
0.01042551
0.0104255
0.01042548
0.01043512
0.01042552
0.01042551
0.01042551
0.0104255
0.01042548
0.01043512
0.01042552
0.01042551
0.01042551
0.0104255
0.01042548
0.01043512
0.01042552
0.01042551
0.01042551
0.0104255
0.01042548
0.01043512
0.01042552
0.01042551
0.01042551
0.0104255
0.01042548
0.01043512
0.01042552
0.01042551
0.01042551
0.0104255
0.01042548
0.01043512
0.01042552
0.01042551
0.01042551
0.0104255
0.01042548
0.01043512
0.01042552
0.01042551
0.01042551
0.0104255
0.01042548
0.01043512
0.01042552
0.01042551
0.01042551
0.0104255
0.01042548
0.01043512
0.01042552
0.01042551
0.01042551
0.0104255
0.01042548
0.01043512
0.01042552
0.01042551
0.01042551
0.0104255
0.01042548
0.01043512
0.01042552
0.01042551
0.01042551
0.0104255
0.01042548
0.01043512
0.01042552
0.01042551
0.01042551
0.0104255
0.01042548
0.01043512
0.01042552
0.01042551
0.01042551
0.0104255
0.01042548
0.01043512
0.01042552
0.01042551
0.01042551
0.0104255
0.01042548
0.01043512
0.01042552
0.01042551
0.01042551
0.0104255
0.01042548
0.002101857
0.002106675
0.002105786
0.002105443
0.002105398
0.00210551
0.01043657
0.01042561
0.01042558
0.01042559
0.01042558
0.01042558
0.01043513
0.01042552
0.01042552
0.0104255
0.01042549
0.01042548
0.01043515
0.01042553
0.01042551
0.0104255
0.01042549
0.01042548
0.01043512
0.01042552
0.01042552
0.01042551
0.0104255
0.01042548
0.01043513
0.01042552
0.01042552
0.01042551
0.0104255
0.01042548
0.01043512
0.01042552
0.01042552
0.01042551
0.0104255
0.01042548
0.01043512
0.01042552
0.01042551
0.01042551
0.0104255
0.01042548
0.01043512
0.01042552
0.01042551
0.01042551
0.0104255
0.01042548
0.01043512
0.01042552
0.01042551
0.01042551
0.0104255
0.01042548
0.01043512
0.01042552
0.01042551
0.01042551
0.0104255
0.01042548
0.01043512
0.01042552
0.01042551
0.01042551
0.0104255
0.01042548
0.01043512
0.01042552
0.01042551
0.01042551
0.0104255
0.01042548
0.01043512
0.01042552
0.01042551
0.01042551
0.0104255
0.01042548
0.01043512
0.01042552
0.01042551
0.01042551
0.0104255
0.01042548
0.01043512
0.01042552
0.01042551
0.01042551
0.0104255
0.01042548
0.01043512
0.01042552
0.01042551
0.01042551
0.0104255
0.01042548
0.01043512
0.01042552
0.01042551
0.01042551
0.0104255
0.01042548
0.01043512
0.01042552
0.01042551
0.01042551
0.0104255
0.01042548
0.01043512
0.01042552
0.01042551
0.01042551
0.0104255
0.01042548
0.01043512
0.01042552
0.01042551
0.01042551
0.0104255
0.01042548
0.01043512
0.01042552
0.01042551
0.01042551
0.01042549
0.01042548
0.01043512
0.01042552
0.01042551
0.01042551
0.01042549
0.01042548
0.01043512
0.01042552
0.01042551
0.01042551
0.01042549
0.01042548
0.002101876
0.002106704
0.002105872
0.002105555
0.002105541
0.002105646
0.01043658
0.01042563
0.01042559
0.01042559
0.01042559
0.01042559
0.01043515
0.01042554
0.01042553
0.0104255
0.01042549
0.01042548
0.01043516
0.01042555
0.01042553
0.01042551
0.01042549
0.01042548
0.01043514
0.01042555
0.01042554
0.01042552
0.0104255
0.01042548
0.01043515
0.01042555
0.01042554
0.01042552
0.0104255
0.01042548
0.01043514
0.01042555
0.01042554
0.01042552
0.0104255
0.01042548
0.01043515
0.01042555
0.01042554
0.01042552
0.0104255
0.01042548
0.01043514
0.01042555
0.01042554
0.01042552
0.0104255
0.01042548
0.01043514
0.01042555
0.01042554
0.01042552
0.0104255
0.01042548
0.01043514
0.01042555
0.01042554
0.01042552
0.0104255
0.01042548
0.01043514
0.01042555
0.01042554
0.01042552
0.0104255
0.01042548
0.01043514
0.01042555
0.01042554
0.01042552
0.0104255
0.01042548
0.01043514
0.01042555
0.01042554
0.01042552
0.0104255
0.01042548
0.01043514
0.01042555
0.01042554
0.01042552
0.0104255
0.01042548
0.01043514
0.01042555
0.01042554
0.01042552
0.0104255
0.01042548
0.01043514
0.01042555
0.01042554
0.01042552
0.0104255
0.01042548
0.01043514
0.01042555
0.01042554
0.01042552
0.0104255
0.01042548
0.01043514
0.01042555
0.01042554
0.01042552
0.0104255
0.01042548
0.01043514
0.01042555
0.01042554
0.01042552
0.0104255
0.01042548
0.01043514
0.01042555
0.01042554
0.01042552
0.0104255
0.01042548
0.01043514
0.01042555
0.01042554
0.01042552
0.0104255
0.01042548
0.01043514
0.01042555
0.01042554
0.01042552
0.0104255
0.01042548
0.01043514
0.01042555
0.01042554
0.01042551
0.01042549
0.01042548
0.002102058
0.002107155
0.002106523
0.002106229
0.002106228
0.002106308
0.01043657
0.01042565
0.01042561
0.0104256
0.0104256
0.0104256
0.01043517
0.01042558
0.01042554
0.0104255
0.01042549
0.01042548
0.01043518
0.01042561
0.01042556
0.01042551
0.01042549
0.01042548
0.01043512
0.01042561
0.01042556
0.01042551
0.01042549
0.01042548
0.01043513
0.01042561
0.01042556
0.01042552
0.01042549
0.01042548
0.01043512
0.01042561
0.01042556
0.01042552
0.01042549
0.01042548
0.01043512
0.01042561
0.01042556
0.01042552
0.01042549
0.01042548
0.01043512
0.01042561
0.01042556
0.01042552
0.01042549
0.01042548
0.01043511
0.01042561
0.01042556
0.01042552
0.01042549
0.01042548
0.01043511
0.01042561
0.01042556
0.01042552
0.01042549
0.01042548
0.01043511
0.01042561
0.01042556
0.01042552
0.01042549
0.01042548
0.01043511
0.01042561
0.01042556
0.01042552
0.01042549
0.01042548
0.01043511
0.01042561
0.01042556
0.01042552
0.01042549
0.01042548
0.01043511
0.01042561
0.01042556
0.01042552
0.01042549
0.01042548
0.01043511
0.01042561
0.01042556
0.01042552
0.01042549
0.01042548
0.01043511
0.01042561
0.01042556
0.01042552
0.01042549
0.01042548
0.01043511
0.01042561
0.01042556
0.01042552
0.01042549
0.01042548
0.01043511
0.01042561
0.01042556
0.01042552
0.01042549
0.01042548
0.01043511
0.01042561
0.01042556
0.01042552
0.01042549
0.01042548
0.01043511
0.01042561
0.01042556
0.01042552
0.01042549
0.01042548
0.01043511
0.01042561
0.01042556
0.01042551
0.01042549
0.01042548
0.01043511
0.01042561
0.01042556
0.01042551
0.01042549
0.01042548
0.01043511
0.0104256
0.01042556
0.01042551
0.01042549
0.01042548
0.0021007
0.002103361
0.002102973
0.002102854
0.002102852
0.002102827
0.01043681
0.01042582
0.01042573
0.01042573
0.01042573
0.01042573
0.0104355
0.01042564
0.01042561
0.01042559
0.01042559
0.0104256
0.01043555
0.01042565
0.0104256
0.01042559
0.01042558
0.01042559
0.0104355
0.01042564
0.0104256
0.01042558
0.01042558
0.01042558
0.01043551
0.01042564
0.01042559
0.01042558
0.01042558
0.01042558
0.0104355
0.01042564
0.01042559
0.01042558
0.01042558
0.01042558
0.0104355
0.01042564
0.01042559
0.01042558
0.01042558
0.01042558
0.0104355
0.01042564
0.01042559
0.01042558
0.01042558
0.01042558
0.0104355
0.01042564
0.01042559
0.01042558
0.01042558
0.01042558
0.0104355
0.01042564
0.01042559
0.01042558
0.01042558
0.01042558
0.0104355
0.01042564
0.01042559
0.01042558
0.01042558
0.01042558
0.0104355
0.01042564
0.01042559
0.01042558
0.01042558
0.01042558
0.0104355
0.01042564
0.01042559
0.01042558
0.01042558
0.01042558
0.0104355
0.01042564
0.01042559
0.01042558
0.01042558
0.01042558
0.0104355
0.01042564
0.01042559
0.01042558
0.01042558
0.01042558
0.0104355
0.01042564
0.01042559
0.01042558
0.01042558
0.01042558
0.0104355
0.01042564
0.01042559
0.01042558
0.01042558
0.01042558
0.0104355
0.01042564
0.01042559
0.01042558
0.01042558
0.01042558
0.0104355
0.01042564
0.01042559
0.01042558
0.01042558
0.01042558
0.0104355
0.01042564
0.01042559
0.01042558
0.01042558
0.01042558
0.0104355
0.01042564
0.01042559
0.01042558
0.01042558
0.01042558
0.01043549
0.01042564
0.01042559
0.01042558
0.01042558
0.01042558
0.01043549
0.01042564
0.01042559
0.01042558
0.01042559
0.01042559
0.005959531
0.006076554
0.006080208
0.006080777
0.006080848
0.006080712
0.01047183
0.0104251
0.01042424
0.01042423
0.01042419
0.01042419
0.01042433
0.01046833
0.01042641
0.01042529
0.01042505
0.01042494
0.01042493
0.01042509
0.01046832
0.01042622
0.01042511
0.01042483
0.01042477
0.01042475
0.01042489
0.01046829
0.01042608
0.01042516
0.01042486
0.01042475
0.01042472
0.01042486
0.01046829
0.0104262
0.01042508
0.01042483
0.01042474
0.01042472
0.01042485
0.01046827
0.01042614
0.01042509
0.01042482
0.01042474
0.01042472
0.01042484
0.01046829
0.01042612
0.01042511
0.01042483
0.01042474
0.01042471
0.01042484
0.01046828
0.01042611
0.01042508
0.01042482
0.01042473
0.01042471
0.01042484
0.01046828
0.01042612
0.01042508
0.01042482
0.01042473
0.01042471
0.01042484
0.01046828
0.01042612
0.01042508
0.01042482
0.01042473
0.01042471
0.01042484
0.01046828
0.01042611
0.01042508
0.01042481
0.01042473
0.01042471
0.01042484
0.01046828
0.01042614
0.01042508
0.01042481
0.01042473
0.01042471
0.01042484
0.01046828
0.01042611
0.01042508
0.01042481
0.01042473
0.01042471
0.01042484
0.01046828
0.01042612
0.01042508
0.01042481
0.01042473
0.01042471
0.01042484
0.01046828
0.01042613
0.01042508
0.01042481
0.01042473
0.01042471
0.01042484
0.01046828
0.01042611
0.01042508
0.01042481
0.01042473
0.01042471
0.01042484
0.01046828
0.01042612
0.01042508
0.01042481
0.01042473
0.01042471
0.01042484
0.01046828
0.01042612
0.01042509
0.01042482
0.01042473
0.01042471
0.01042484
0.01046828
0.01042611
0.01042508
0.01042482
0.01042473
0.01042471
0.01042484
0.01046828
0.01042614
0.01042509
0.01042482
0.01042474
0.01042471
0.01042484
0.01046828
0.01042613
0.0104251
0.01042483
0.01042474
0.01042472
0.01042484
0.01046828
0.01042612
0.01042511
0.01042484
0.01042475
0.01042473
0.01042485
0.01046834
0.01042616
0.01042513
0.01042487
0.01042481
0.01042473
0.01042488
0.004152434
0.006771978
0.01047449
0.01043349
0.004123812
0.004299012
0.005959507
0.006086914
0.01043425
0.0104341
0.004297999
0.004308142
0.006076573
0.006091792
0.01043444
0.01043445
0.004302532
0.004308696
0.006080215
0.006091909
0.01043458
0.01043449
0.00430292
0.004308811
0.006080798
0.006092056
0.01043459
0.01043452
0.004302962
0.004308561
0.006080876
0.006092002
0.01043461
0.01043452
0.004302518
0.006080728
0.01043461
0.004113777
0.004274028
0.01046974
0.01043326
0.01046863
0.01043327
0.004279609
0.004282888
0.01046549
0.01043283
0.01046842
0.01043283
0.004284313
0.004284045
0.01046548
0.01043279
0.01046838
0.01043283
0.004283885
0.004283646
0.01046545
0.0104328
0.01046836
0.01043282
0.004284125
0.004284074
0.01046545
0.01043281
0.01046835
0.01043282
0.004284143
0.004284154
0.01046544
0.01043281
0.01046834
0.01043283
0.004284029
0.004284245
0.01046545
0.01043283
0.01046834
0.01043283
0.004284147
0.004284228
0.01046544
0.01043282
0.01046834
0.01043283
0.004284216
0.00428427
0.01046545
0.01043283
0.01046834
0.01043283
0.004284084
0.004284201
0.01046544
0.01043282
0.01046834
0.01043283
0.004284169
0.00428422
0.01046544
0.01043282
0.01046833
0.01043283
0.004284188
0.004284241
0.01046544
0.01043282
0.01046833
0.01043283
0.004284101
0.004284186
0.01046544
0.01043282
0.01046833
0.01043282
0.004284185
0.004284195
0.01046544
0.01043283
0.01046833
0.01043283
0.004284079
0.004284143
0.01046544
0.01043282
0.01046833
0.01043282
0.004284163
0.004284213
0.01046544
0.01043282
0.01046833
0.01043283
0.004284184
0.004284248
0.01046544
0.01043283
0.01046833
0.01043283
0.004284104
0.004284193
0.01046544
0.01043282
0.01046833
0.01043283
0.004284206
0.004284184
0.01046544
0.01043282
0.01046833
0.01043283
0.004284102
0.004284154
0.01046544
0.01043282
0.01046834
0.01043283
0.004284102
0.004284134
0.01046544
0.01043282
0.01046833
0.01043283
0.004283909
0.004283485
0.01046544
0.01043282
0.01046834
0.01043282
0.004282988
0.01017578
0.0104683
0.01043282
0.01046541
0.01042876
0.005960488
0.01046832
0.01042481
0.006030531
0.01046756
0.0104245
0.006033678
0.01046443
0.01042378
0.006032733
0.01046729
0.01042363
0.006034549
0.01046441
0.01042371
0.006034687
0.01046733
0.01042375
0.006034462
0.01046438
0.01042376
0.006034462
0.01046729
0.01042375
0.006033987
0.01046437
0.01042374
0.006034897
0.01046731
0.01042374
0.006033459
0.01046437
0.01042374
0.006035327
0.01046729
0.01042369
0.006032996
0.01046435
0.01042364
0.006033416
0.01046741
0.01042372
0.006030615
0.01046453
0.01042448
0.005960662
0.01047056
0.01042481
0.006772071
0.01047138
0.01043344
0.004152438
0.01043452
0.004302535
0.01042917
0.01046859
0.01043327
0.004113774
0.004274019
0.01042876
0.01046838
0.01043282
0.004279621
0.004282883
0.01042874
0.01046832
0.01043282
0.00428394
0.004283632
0.01042874
0.01046831
0.01043281
0.004284092
0.004284068
0.01042874
0.0104683
0.01043283
0.0042841
0.004284155
0.01042876
0.01046831
0.01043283
0.004284099
0.004284285
0.01042875
0.0104683
0.01043282
0.004284002
0.00428413
0.01042875
0.0104683
0.01043283
0.004284078
0.004284217
0.01042875
0.0104683
0.01043283
0.004284131
0.004284119
0.01042875
0.0104683
0.01043282
0.004283971
0.004284053
0.01042876
0.0104683
0.01043283
0.004284226
0.004284267
0.01042875
0.0104683
0.01043282
0.004284039
0.004284071
0.01042875
0.0104683
0.01043282
0.004284034
0.004284148
0.01042875
0.0104683
0.01043282
0.00428417
0.004284219
0.01042875
0.0104683
0.01043282
0.004284074
0.004284179
0.01042875
0.0104683
0.01043282
0.004284086
0.004284086
0.01042876
0.0104683
0.01043282
0.004284053
0.004284156
0.01042875
0.0104683
0.01043282
0.004284227
0.004284143
0.01042875
0.0104683
0.01043282
0.004284166
0.00428406
0.01042875
0.0104683
0.01043282
0.004283974
0.004283449
0.0104328
0.01046826
0.01042873
0.004282972
0.0101742
0.0104375
0.008776387
0.01042576
0.008860901
0.01042382
0.008877325
0.01042473
0.008883313
0.01042332
0.008884853
0.01042453
0.008886308
0.01042318
0.008890439
0.01042464
0.008886856
0.01042283
0.008886088
0.01042453
0.008889199
0.01042284
0.008886679
0.01042451
0.008887931
0.01042279
0.008886774
0.01042452
0.008887193
0.01042283
0.008886745
0.0104245
0.008887187
0.01042283
0.008886838
0.01042448
0.008886876
0.01042281
0.008886849
0.01042452
0.008886934
0.01042283
0.008886767
0.0104245
0.008886947
0.01042282
0.008886846
0.01042449
0.008886909
0.01042282
0.008886832
0.01042452
0.0088869
0.01042282
0.008886803
0.01042449
0.008887057
0.01042281
0.00888679
0.01042451
0.008886825
0.01042282
0.008886734
0.0104245
0.008886973
0.01042282
0.008886855
0.01042449
0.008886822
0.01042281
0.008886794
0.01042451
0.008886869
0.01042282
0.008886768
0.01042449
0.008886975
0.01042281
0.008886746
0.01042452
0.008886841
0.01042283
0.008886645
0.0104245
0.008886847
0.01042283
0.008886682
0.01042456
0.008886753
0.01042285
0.008886709
0.0104245
0.008886837
0.01042283
0.008885618
0.01040446
0.01040529
0.01040414
0.01040235
0.01040582
0.01040099
0.01040347
0.01040245
0.01040482
0.01040102
0.0104041
0.01040193
0.01040379
0.01040315
0.01040454
0.01040405
0.01043618
0.01042757
0.006086915
0.01043424
0.01043409
0.00412381
0.004299072
0.006091801
0.01043437
0.01043444
0.004298049
0.004308185
0.006091906
0.01043449
0.01043448
0.004302556
0.004308696
0.006092057
0.0104345
0.0104345
0.004302954
0.004308858
0.006092016
0.01043425
0.01043028
0.004302979
0.004308561
0.01042873
0.01046834
0.01043282
0.004284333
0.00428408
0.01042875
0.0104683
0.01043282
0.004284074
0.004284156
0.01044494
0.008869868
0.01044475
0.008551996
0.01043612
0.01042738
0.01042519
0.008882953
0.01042337
0.008877811
0.0104248
0.008888676
0.01042308
0.008885492
0.01042459
0.00888752
0.01042282
0.008886629
0.01042455
0.008886417
0.010423
0.008888365
0.01042445
0.008886577
0.01042286
0.008888343
0.01042449
0.008886717
0.01042282
0.008886917
0.01042443
0.008886898
0.01042279
0.00888693
0.01042445
0.008886897
0.01042279
0.008886931
0.01042445
0.008886833
0.01042279
0.00888698
0.01042445
0.008886867
0.01042279
0.008886844
0.01042445
0.008886869
0.01042278
0.008886857
0.01042445
0.008886863
0.01042279
0.008886849
0.01042447
0.008886925
0.01042278
0.008886859
0.01042446
0.008886838
0.01042279
0.008886963
0.01042446
0.008886822
0.0104228
0.008886968
0.01042446
0.008886894
0.01042278
0.00888681
0.01042446
0.008886832
0.01042279
0.00888688
0.01042446
0.008886855
0.01042279
0.008886826
0.01042446
0.008886747
0.0104228
0.008887154
0.01042445
0.00888674
0.01042279
0.008886789
0.01042445
0.00888673
0.0104228
0.008886707
0.01042451
0.008886593
0.01042276
0.008886535
0.01042438
0.00986016
0.008886887
0.01041642
0.01040496
0.01040326
0.01040371
0.01040418
0.01040331
0.01040169
0.01040462
0.01040166
0.0104033
0.01040249
0.01040386
0.01040285
0.01040547
0.01040105
0.01040509
0.01040407
0.01043714
0.008776776
0.01043843
0.008942216
0.01043868
0.008592168
0.01044497
0.008869661
0.01044479
0.008551771
0.01043843
0.008947389
0.01043639
0.008969785
0.01042576
0.008860742
0.01042379
0.008877315
0.01042519
0.008883031
0.0104234
0.008877784
0.01042473
0.008883396
0.01042329
0.008884898
0.01042479
0.008888696
0.01042311
0.00888552
0.01042463
0.008886137
0.01042283
0.008886147
0.01042455
0.008886425
0.01042304
0.008888224
0.01042453
0.008889342
0.0104228
0.008886716
0.01042445
0.008886617
0.01042288
0.008888412
0.01042447
0.00888693
0.01042281
0.00888739
0.01042459
0.008888047
0.01042277
0.008886278
0.01042453
0.008886864
0.01042281
0.008886759
0.01042448
0.008887212
0.01042281
0.008886927
0.01042456
0.008887013
0.01042277
0.008886122
0.01042454
0.008886827
0.01042282
0.008886697
0.01042446
0.008886932
0.01042283
0.00888719
0.0104245
0.008887065
0.01042279
0.008886844
0.01042447
0.008886944
0.01042281
0.008886935
0.0104245
0.008886792
0.01042279
0.00888686
0.01042447
0.008887316
0.0104228
0.008886794
0.0104245
0.008886708
0.01042281
0.008887346
0.01042451
0.0088862
0.0104229
0.008885698
0.01042447
0.008683534
0.008885862
0.01041618
0.006843191
0.007510672
0.007260337
0.007297824
0.007263548
0.007290199
0.007273184
0.007275764
0.007265768
0.007282573
0.007265189
0.007298148
0.007283224
0.007255714
0.007280312
0.007260043
0.007219998
0.007219991
0.007266678
0.007301684
0.01043848
0.008941871
0.01043779
0.008591585
0.007317081
0.00730938
0.007255336
0.007296647
0.007250372
0.007209565
0.007235095
0.007255673
0.007299791
0.007294907
0.0072956
0.007230977
0.007317356
0.00730456
0.007292149
0.007286743
0.007256074
0.007288541
0.006883909
0.00756155
0.01035714
0.008507073
0.0103495
0.008500397
0.007932809
0.007987067
0.007940263
0.007982566
0.0103611
0.008501296
0.008499607
0.01035211
0.01036095
0.008504938
0.008502969
0.01035289
0.01036088
0.008506645
0.01035269
0.008504312
0.01036093
0.008506107
0.01035274
0.008504156
0.0103606
0.008505776
0.008504295
0.01035258
0.01036097
0.008506368
0.01035275
0.008504188
0.01042452
0.008888076
0.01042276
0.008886794
0.01042448
0.008887766
0.01042281
0.008887036
0.01042449
0.008886998
0.01042277
0.008886847
0.01042452
0.008887817
0.01042278
0.008886336
0.01042455
0.008887401
0.01042277
0.00888691
0.01042446
0.008887762
0.01042281
0.008887614
0.01042452
0.008886971
0.01042281
0.008886407
0.01042451
0.008887506
0.01042279
0.008886287
0.01042462
0.008887589
0.01042276
0.008885933
0.01042455
0.008886319
0.0104228
0.008886687
0.0104245
0.008886128
0.0104228
0.008886012
0.01042446
0.008886095
0.01042283
0.008886054
0.01042458
0.008886272
0.01042278
0.008886731
0.01042454
0.008887634
0.01042278
0.008886266
0.01042455
0.008887541
0.01042276
0.008887314
0.01042449
0.008887036
0.01042282
0.008887238
0.0104245
0.008888368
0.01042277
0.00888696
0.01042447
0.008887345
0.01042278
0.008887155
0.01036083
0.008506387
0.008504416
0.01035267
0.01036081
0.008506442
0.01035263
0.00850437
0.01036082
0.008506399
0.008504538
0.01035251
0.01042452
0.008887726
0.01042277
0.008886369
0.01036082
0.008506382
0.01035266
0.008504352
0.01036086
0.00850635
0.01035265
0.008504462
0.01036082
0.008506253
0.008504448
0.01035251
0.01036084
0.008506322
0.01035265
0.008504506
0.01036092
0.00850633
0.008504325
0.01035265
0.01042447
0.00888859
0.01042274
0.008886717
0.01036093
0.008506131
0.00850409
0.01035278
0.01036066
0.008504696
0.008503331
0.0103528
0.007310331
0.007832842
0.007711537
0.007586784
0.01046788
0.008502696
0.01046962
0.008456749
0.007078792
0.007232769
0.007270271
0.007310982
0.007270319
0.007302593
0.007207828
0.007246129
0.007291369
0.007296633
0.007235327
0.007233722
0.007272844
0.007300275
0.0073138
0.007259116
0.007282165
0.007299031
0.007268945
0.007263647
0.008921734
0.01044003
0.00896063
0.01043766
0.008977671
0.008939498
0.01043899
0.01043451
0.008944185
0.008970113
0.01043842
0.01043546
0.008981028
0.008945779
0.01044033
0.01043463
0.008946209
0.008970466
0.01043834
0.0104363
0.008981176
0.008946333
0.01044047
0.01043451
0.008946306
0.008969237
0.01043831
0.01043634
0.008981333
0.008944958
0.01044052
0.01043457
0.008946457
0.008970079
0.0104374
0.01043631
0.008982518
0.01042672
0.008945923
0.0104317
0.0088864
0.01042319
0.008889746
0.0104245
0.008886786
0.01042286
0.008885907
0.01042456
0.008887049
0.01042281
0.008886794
0.01042451
0.008887429
0.01042279
0.008887856
0.01042446
0.007291176
0.007294669
0.007276017
0.007306285
0.00729786
0.007285497
0.007288838
0.007298671
0.007275419
0.00725599
0.007296862
0.007266233
0.007316199
0.00732026
0.007247591
0.00720285
0.007240555
0.007265784
0.007034182
0.007182239
0.007313106
0.007840278
0.007586894
0.007733617
0.01046723
0.008510382
0.008494701
0.01046941
0.01035706
0.008481035
0.01035056
0.008490116
0.007939469
0.007988476
0.007944058
0.01036066
0.00850527
0.008502956
0.01035288
0.01036069
0.008505762
0.01035275
0.008504168
0.01036062
0.008505923
0.01035275
0.008504341
0.01036091
0.008506864
0.008504719
0.01035272
0.01036074
0.008506446
0.008504474
0.01035269
0.01036072
0.008506349
0.01035255
0.008504468
0.01036078
0.008506799
0.008504752
0.01035273
0.01036075
0.008506356
0.008504436
0.01035271
0.0103607
0.008506268
0.01035255
0.008504439
0.0103607
0.008506346
0.01035259
0.008504516
0.01036081
0.008506308
0.008504474
0.01035268
0.01036085
0.00850642
0.01035252
0.008504421
0.01036066
0.008506126
0.008504369
0.01035274
0.01036069
0.008506098
0.008504131
0.01035277
0.01036079
0.008506428
0.01035252
0.008503626
0.01043541
0.01043543
0.01043541
0.0104358
0.01046825
0.01042637
0.01042521
0.01042503
0.01042492
0.01042487
0.01042486
0.01017523
0.0104683
0.01043282
0.009859055
0.01041631
0.01042876
0.01017516
0.008683204
0.01041632
0.01043771
0.008921522
0.01043227
0.008961602
0.01043843
0.008945067
0.01043547
0.008971021
0.01043825
0.00894695
0.01043628
0.008970406
0.01043832
0.008947139
0.01043634
0.008970037
0.01043834
0.008947265
0.01043638
0.008970038
0.01043835
0.008947297
0.01043639
0.008969834
0.0103611
0.008501795
0.0103523
0.008499611
0.01036096
0.008504905
0.01035294
0.008502957
0.01036107
0.008506103
0.01035279
0.008504208
0.0103608
0.008506362
0.01035264
0.008504155
0.01036063
0.00850584
0.01035272
0.008504369
0.01036079
0.008506089
0.01035275
0.008504449
0.01036082
0.008506343
0.01035269
0.008504541
0.01036082
0.008506373
0.01035265
0.00850457
0.01036084
0.008506436
0.01035263
0.008504618
0.01036084
0.008506432
0.01035265
0.008504544
0.01036084
0.008506373
0.01035265
0.008504563
0.01036085
0.008506388
0.01035264
0.008504588
0.01036084