/*--------------------------------*- C++ -*----------------------------------*\
  =========                 |
  \\      /  F ield         | OpenFOAM: The Open Source CFD Toolbox
   \\    /   O peration     | Website:  https://openfoam.org
    \\  /    A nd           | Version:  7
     \\/     M anipulation  |
\*---------------------------------------------------------------------------*/
FoamFile
{
    version     2.0;
    format      ascii;
    class       volScalarField;
    location    "0.1";
    object      k;
}
// * * * * * * * * * * * * * * * * * * * * * * * * * * * * * * * * * * * * * //

dimensions      [0 2 -2 0 0 0 0];

internalField   nonuniform List<scalar> 
109978
(
0.003738894
0.003738857
0.003738864
0.003738898
0.003738918
0.003738943
0.003739095
0.003739873
0.00373986
0.003739882
0.003739922
0.003739944
0.003739117
0.00374009
0.003739962
0.003739934
0.003739935
0.003739953
0.003739065
0.003740092
0.003739936
0.00373992
0.003739938
0.003739962
0.003739031
0.00374005
0.003739985
0.003739937
0.003739944
0.003739965
0.003739008
0.003740102
0.003739985
0.003739932
0.003739943
0.003739965
0.003738966
0.003740135
0.003739961
0.003739934
0.003739946
0.00373997
0.00373898
0.003740134
0.003739973
0.003739934
0.003739947
0.003739971
0.003738987
0.003740131
0.003739971
0.003739934
0.003739947
0.003739972
0.003738972
0.00374013
0.00373997
0.003739934
0.003739947
0.003739973
0.003738981
0.003740129
0.003739965
0.003739934
0.003739947
0.003739972
0.003738984
0.003740129
0.00373996
0.003739933
0.003739947
0.003739972
0.003738972
0.003740128
0.003739955
0.003739933
0.003739946
0.003739971
0.003738985
0.003740127
0.003739956
0.003739931
0.003739945
0.00373997
0.003738972
0.003740124
0.003739943
0.00373993
0.003739944
0.003739969
0.003738974
0.003740125
0.003739942
0.003739929
0.003739943
0.003739968
0.003738983
0.003740122
0.00373994
0.003739928
0.003739942
0.003739967
0.003738966
0.003740125
0.003739944
0.003739928
0.003739943
0.003739967
0.003738981
0.003740123
0.00373994
0.003739929
0.003739941
0.003739967
0.003738979
0.003740125
0.003739953
0.00373993
0.003739941
0.003739967
0.00373898
0.003740123
0.003739959
0.003739928
0.00373994
0.003739964
0.003738975
0.003740119
0.003739969
0.003739926
0.003739937
0.003739962
0.003412427
0.003740125
0.003739981
0.003739929
0.003739937
0.003739959
0.003739433
0.00373897
0.003738824
0.003738843
0.003738847
0.003738854
0.003412557
0.003411076
0.00341106
0.00341106
0.003411059
0.003411059
0.003412432
0.003411047
0.003411042
0.003411039
0.003411039
0.003411039
0.003412426
0.003411049
0.003411042
0.003411039
0.003411037
0.003411037
0.003412421
0.003411048
0.003411042
0.003411038
0.003411037
0.003411037
0.003412424
0.003411049
0.003411042
0.003411038
0.003411037
0.003411036
0.003412421
0.003411049
0.003411041
0.003411038
0.003411037
0.003411036
0.003412421
0.003411049
0.003411041
0.003411038
0.003411037
0.003411036
0.00341242
0.003411049
0.003411041
0.003411038
0.003411037
0.003411036
0.00341242
0.003411049
0.003411041
0.003411038
0.003411037
0.003411036
0.00341242
0.003411049
0.003411041
0.003411038
0.003411037
0.003411036
0.00341242
0.003411049
0.003411041
0.003411038
0.003411036
0.003411036
0.00341242
0.003411049
0.003411041
0.003411038
0.003411036
0.003411036
0.00341242
0.003411049
0.003411041
0.003411038
0.003411036
0.003411036
0.00341242
0.003411049
0.003411041
0.003411038
0.003411036
0.003411036
0.00341242
0.003411049
0.003411041
0.003411038
0.003411036
0.003411036
0.00341242
0.003411049
0.003411041
0.003411038
0.003411036
0.003411036
0.00341242
0.003411049
0.003411041
0.003411038
0.003411036
0.003411036
0.00341242
0.003411049
0.003411041
0.003411038
0.003411036
0.003411036
0.00341242
0.003411049
0.003411041
0.003411038
0.003411036
0.003411036
0.00341242
0.003411049
0.003411041
0.003411038
0.003411036
0.003411036
0.00341242
0.003411048
0.003411041
0.003411038
0.003411036
0.003411036
0.00341242
0.003411048
0.003411041
0.003411038
0.003411036
0.003411036
0.003412418
0.003411048
0.003411041
0.003411038
0.003411036
0.003411036
0.003740382
0.003740292
0.003739981
0.003739921
0.003739935
0.003739937
0.003412413
0.003411047
0.003411041
0.00341104
0.003411039
0.003411039
0.003412245
0.003411035
0.003411031
0.003411026
0.003411023
0.003411023
0.003412242
0.003411041
0.003411034
0.003411027
0.003411023
0.003411022
0.003412238
0.00341104
0.003411035
0.003411028
0.003411024
0.003411022
0.003412238
0.00341104
0.003411035
0.003411028
0.003411024
0.003411022
0.003412238
0.00341104
0.003411035
0.003411028
0.003411024
0.003411022
0.003412238
0.00341104
0.003411035
0.003411028
0.003411024
0.003411022
0.003412238
0.00341104
0.003411035
0.003411028
0.003411024
0.003411022
0.003412238
0.00341104
0.003411035
0.003411028
0.003411024
0.003411022
0.003412238
0.00341104
0.003411035
0.003411028
0.003411024
0.003411022
0.003412238
0.00341104
0.003411035
0.003411028
0.003411024
0.003411022
0.003412238
0.00341104
0.003411035
0.003411028
0.003411024
0.003411022
0.003412238
0.00341104
0.003411035
0.003411028
0.003411024
0.003411022
0.003412238
0.00341104
0.003411035
0.003411028
0.003411024
0.003411022
0.003412238
0.00341104
0.003411035
0.003411028
0.003411024
0.003411022
0.003412238
0.00341104
0.003411035
0.003411028
0.003411024
0.003411022
0.003412238
0.00341104
0.003411035
0.003411028
0.003411024
0.003411022
0.003412238
0.00341104
0.003411035
0.003411028
0.003411024
0.003411022
0.003412238
0.00341104
0.003411035
0.003411028
0.003411024
0.003411022
0.003412238
0.00341104
0.003411035
0.003411028
0.003411024
0.003411022
0.003412238
0.00341104
0.003411035
0.003411028
0.003411024
0.003411022
0.003412238
0.00341104
0.003411034
0.003411028
0.003411024
0.003411022
0.003412237
0.003411039
0.003411034
0.003411028
0.003411024
0.003411022
0.003740378
0.003740568
0.003740101
0.003740075
0.003740055
0.003740052
0.003412416
0.003411044
0.003411038
0.003411038
0.003411037
0.003411037
0.003412242
0.00341103
0.003411029
0.003411026
0.003411023
0.003411022
0.003412241
0.003411032
0.00341103
0.003411026
0.003411023
0.003411022
0.003412239
0.003411031
0.003411031
0.003411028
0.003411024
0.003411022
0.00341224
0.003411032
0.003411031
0.003411028
0.003411024
0.003411022
0.00341224
0.003411032
0.003411031
0.003411028
0.003411025
0.003411022
0.00341224
0.003411032
0.003411031
0.003411028
0.003411025
0.003411022
0.00341224
0.003411032
0.003411031
0.003411028
0.003411025
0.003411022
0.00341224
0.003411032
0.003411031
0.003411028
0.003411025
0.003411022
0.00341224
0.003411032
0.003411031
0.003411028
0.003411025
0.003411022
0.00341224
0.003411032
0.003411031
0.003411028
0.003411025
0.003411022
0.00341224
0.003411032
0.003411031
0.003411028
0.003411025
0.003411022
0.00341224
0.003411032
0.003411031
0.003411028
0.003411025
0.003411022
0.00341224
0.003411032
0.003411031
0.003411028
0.003411025
0.003411022
0.00341224
0.003411032
0.003411031
0.003411028
0.003411025
0.003411022
0.00341224
0.003411032
0.003411031
0.003411028
0.003411025
0.003411022
0.00341224
0.003411032
0.003411031
0.003411028
0.003411025
0.003411022
0.00341224
0.003411032
0.003411031
0.003411028
0.003411025
0.003411022
0.00341224
0.003411032
0.003411031
0.003411028
0.003411025
0.003411022
0.00341224
0.003411032
0.003411031
0.003411028
0.003411025
0.003411022
0.00341224
0.003411032
0.003411031
0.003411028
0.003411024
0.003411022
0.00341224
0.003411031
0.00341103
0.003411028
0.003411024
0.003411022
0.00341224
0.003411031
0.00341103
0.003411028
0.003411024
0.003411022
0.003740322
0.0037406
0.003740189
0.003740087
0.003740046
0.003740031
0.003412415
0.003411041
0.003411036
0.003411037
0.003411036
0.003411036
0.003412238
0.003411026
0.003411027
0.003411025
0.003411023
0.003411022
0.003412239
0.003411028
0.003411027
0.003411025
0.003411023
0.003411022
0.003412235
0.003411026
0.003411027
0.003411026
0.003411024
0.003411023
0.003412236
0.003411027
0.003411026
0.003411025
0.003411024
0.003411022
0.003412236
0.003411026
0.003411026
0.003411025
0.003411024
0.003411023
0.003412236
0.003411027
0.003411026
0.003411025
0.003411024
0.003411023
0.003412236
0.003411026
0.003411026
0.003411025
0.003411024
0.003411023
0.003412236
0.003411026
0.003411026
0.003411025
0.003411024
0.003411023
0.003412236
0.003411026
0.003411026
0.003411025
0.003411024
0.003411023
0.003412236
0.003411026
0.003411026
0.003411025
0.003411024
0.003411023
0.003412236
0.003411026
0.003411026
0.003411025
0.003411024
0.003411023
0.003412236
0.003411026
0.003411026
0.003411025
0.003411024
0.003411022
0.003412236
0.003411026
0.003411026
0.003411025
0.003411024
0.003411022
0.003412236
0.003411026
0.003411026
0.003411025
0.003411024
0.003411022
0.003412236
0.003411026
0.003411026
0.003411025
0.003411024
0.003411022
0.003412236
0.003411026
0.003411026
0.003411025
0.003411024
0.003411022
0.003412236
0.003411026
0.003411026
0.003411025
0.003411024
0.003411022
0.003412236
0.003411026
0.003411026
0.003411025
0.003411024
0.003411022
0.003412236
0.003411026
0.003411026
0.003411025
0.003411024
0.003411022
0.003412236
0.003411026
0.003411026
0.003411025
0.003411024
0.003411022
0.003412236
0.003411026
0.003411026
0.003411025
0.003411024
0.003411022
0.003412236
0.003411026
0.003411026
0.003411025
0.003411024
0.003411023
0.003740277
0.003740594
0.003740149
0.003740061
0.003740035
0.003740026
0.003412414
0.003411041
0.003411036
0.003411037
0.003411036
0.003411036
0.003412237
0.003411026
0.003411027
0.003411025
0.003411023
0.003411022
0.00341224
0.003411028
0.003411027
0.003411025
0.003411023
0.003411022
0.003412235
0.003411026
0.003411027
0.003411026
0.003411024
0.003411023
0.003412237
0.003411027
0.003411026
0.003411025
0.003411024
0.003411022
0.003412236
0.003411026
0.003411026
0.003411026
0.003411024
0.003411023
0.003412236
0.003411027
0.003411026
0.003411025
0.003411024
0.003411023
0.003412236
0.003411026
0.003411026
0.003411025
0.003411024
0.003411023
0.003412236
0.003411026
0.003411026
0.003411025
0.003411024
0.003411023
0.003412236
0.003411026
0.003411026
0.003411025
0.003411024
0.003411023
0.003412236
0.003411026
0.003411026
0.003411025
0.003411024
0.003411023
0.003412236
0.003411026
0.003411026
0.003411025
0.003411024
0.003411023
0.003412236
0.003411026
0.003411026
0.003411025
0.003411024
0.003411023
0.003412236
0.003411026
0.003411026
0.003411025
0.003411024
0.003411023
0.003412236
0.003411026
0.003411026
0.003411025
0.003411024
0.003411022
0.003412236
0.003411026
0.003411026
0.003411025
0.003411024
0.003411022
0.003412236
0.003411026
0.003411026
0.003411025
0.003411024
0.003411022
0.003412236
0.003411026
0.003411026
0.003411025
0.003411024
0.003411022
0.003412236
0.003411026
0.003411026
0.003411025
0.003411024
0.003411022
0.003412236
0.003411026
0.003411026
0.003411025
0.003411024
0.003411022
0.003412236
0.003411026
0.003411026
0.003411025
0.003411024
0.003411022
0.003412236
0.003411026
0.003411026
0.003411025
0.003411024
0.003411022
0.003412236
0.003411026
0.003411026
0.003411025
0.003411024
0.003411022
0.003740294
0.003740528
0.003740123
0.003740052
0.00374005
0.003740044
0.003412416
0.003411044
0.003411038
0.003411038
0.003411037
0.003411037
0.00341224
0.00341103
0.003411029
0.003411026
0.003411023
0.003411022
0.003412241
0.003411032
0.00341103
0.003411026
0.003411023
0.003411022
0.003412238
0.003411031
0.003411031
0.003411028
0.003411024
0.003411022
0.00341224
0.003411032
0.003411031
0.003411028
0.003411025
0.003411022
0.003412239
0.003411032
0.003411031
0.003411028
0.003411025
0.003411022
0.003412239
0.003411032
0.003411031
0.003411028
0.003411025
0.003411022
0.003412239
0.003411032
0.003411031
0.003411028
0.003411025
0.003411022
0.003412239
0.003411032
0.003411031
0.003411028
0.003411025
0.003411022
0.003412239
0.003411032
0.003411031
0.003411028
0.003411025
0.003411022
0.003412239
0.003411032
0.003411031
0.003411028
0.003411025
0.003411022
0.003412239
0.003411032
0.003411031
0.003411028
0.003411025
0.003411022
0.003412239
0.003411032
0.003411031
0.003411028
0.003411025
0.003411022
0.003412239
0.003411032
0.003411031
0.003411028
0.003411025
0.003411022
0.003412239
0.003411032
0.003411031
0.003411028
0.003411025
0.003411022
0.003412239
0.003411032
0.003411031
0.003411028
0.003411025
0.003411022
0.003412239
0.003411032
0.003411031
0.003411028
0.003411025
0.003411022
0.003412239
0.003411032
0.003411031
0.003411028
0.003411025
0.003411022
0.003412239
0.003411032
0.003411031
0.003411028
0.003411025
0.003411022
0.003412239
0.003411032
0.003411031
0.003411028
0.003411025
0.003411022
0.003412239
0.003411032
0.003411031
0.003411028
0.003411024
0.003411022
0.003412239
0.003411031
0.00341103
0.003411027
0.003411024
0.003411022
0.003412239
0.003411031
0.00341103
0.003411027
0.003411024
0.003411022
0.00374016
0.003740424
0.003740138
0.003740051
0.003740067
0.003740073
0.003412416
0.003411047
0.003411041
0.00341104
0.003411039
0.003411039
0.003412243
0.003411035
0.003411031
0.003411026
0.003411023
0.003411022
0.003412244
0.003411041
0.003411034
0.003411027
0.003411023
0.003411022
0.003412236
0.00341104
0.003411035
0.003411028
0.003411024
0.003411022
0.003412237
0.00341104
0.003411035
0.003411028
0.003411024
0.003411022
0.003412236
0.00341104
0.003411035
0.003411028
0.003411024
0.003411022
0.003412235
0.00341104
0.003411035
0.003411028
0.003411024
0.003411022
0.003412235
0.00341104
0.003411035
0.003411028
0.003411024
0.003411022
0.003412235
0.00341104
0.003411035
0.003411028
0.003411024
0.003411022
0.003412235
0.00341104
0.003411035
0.003411028
0.003411024
0.003411022
0.003412235
0.00341104
0.003411035
0.003411028
0.003411024
0.003411022
0.003412235
0.00341104
0.003411035
0.003411028
0.003411024
0.003411022
0.003412235
0.00341104
0.003411035
0.003411028
0.003411024
0.003411022
0.003412235
0.00341104
0.003411035
0.003411028
0.003411024
0.003411022
0.003412235
0.00341104
0.003411035
0.003411028
0.003411024
0.003411022
0.003412235
0.00341104
0.003411035
0.003411028
0.003411024
0.003411022
0.003412235
0.00341104
0.003411035
0.003411028
0.003411024
0.003411022
0.003412235
0.00341104
0.003411035
0.003411028
0.003411024
0.003411022
0.003412235
0.00341104
0.003411035
0.003411028
0.003411024
0.003411022
0.003412235
0.00341104
0.003411035
0.003411028
0.003411024
0.003411022
0.003412235
0.00341104
0.003411035
0.003411028
0.003411024
0.003411022
0.003412235
0.00341104
0.003411034
0.003411028
0.003411024
0.003411022
0.003412235
0.003411039
0.003411034
0.003411027
0.003411024
0.003411022
0.003739818
0.00373934
0.003739332
0.00373935
0.003739369
0.003739377
0.003412451
0.003411076
0.00341106
0.00341106
0.003411059
0.003411059
0.003412284
0.003411047
0.003411042
0.003411039
0.003411039
0.003411039
0.003412291
0.003411049
0.003411042
0.003411039
0.003411037
0.003411037
0.003412284
0.003411048
0.003411042
0.003411038
0.003411037
0.003411037
0.003412285
0.003411049
0.003411042
0.003411038
0.003411037
0.003411036
0.003412284
0.003411049
0.003411041
0.003411038
0.003411037
0.003411036
0.003412284
0.003411049
0.003411041
0.003411038
0.003411037
0.003411036
0.003412284
0.003411049
0.003411041
0.003411038
0.003411037
0.003411036
0.003412284
0.003411049
0.003411041
0.003411038
0.003411037
0.003411036
0.003412283
0.003411049
0.003411041
0.003411038
0.003411037
0.003411036
0.003412283
0.003411049
0.003411041
0.003411038
0.003411036
0.003411036
0.003412283
0.003411049
0.003411041
0.003411038
0.003411036
0.003411036
0.003412283
0.003411049
0.003411041
0.003411038
0.003411036
0.003411036
0.003412283
0.003411049
0.003411041
0.003411038
0.003411036
0.003411036
0.003412283
0.003411049
0.003411041
0.003411038
0.003411036
0.003411036
0.003412283
0.003411049
0.003411041
0.003411038
0.003411036
0.003411036
0.003412283
0.003411049
0.003411041
0.003411038
0.003411036
0.003411036
0.003412283
0.003411049
0.003411041
0.003411038
0.003411036
0.003411036
0.003412283
0.003411049
0.003411041
0.003411038
0.003411036
0.003411036
0.003412283
0.003411049
0.003411041
0.003411038
0.003411037
0.003411036
0.003412283
0.003411049
0.003411041
0.003411038
0.003411037
0.003411036
0.003412283
0.003411049
0.003411041
0.003411038
0.003411037
0.003411037
0.003412283
0.003411048
0.003411041
0.003411038
0.003411038
0.003411038
0.00374854
0.003765099
0.003766189
0.00376644
0.003766473
0.003766475
0.003417119
0.003412465
0.003412506
0.00341252
0.003412521
0.003412522
0.003412522
0.003416583
0.003412484
0.003412482
0.003412486
0.003412472
0.003412472
0.003412471
0.003416582
0.003412426
0.003412423
0.003412433
0.003412437
0.003412435
0.003412436
0.003416578
0.003412417
0.003412416
0.003412428
0.003412429
0.003412428
0.003412429
0.003416579
0.003412433
0.00341242
0.003412426
0.003412426
0.003412426
0.003412427
0.003416576
0.003412428
0.003412418
0.003412426
0.003412426
0.003412426
0.003412426
0.003416578
0.003412424
0.003412414
0.003412426
0.003412425
0.003412426
0.003412426
0.003416577
0.003412423
0.003412414
0.003412425
0.003412425
0.003412426
0.003412426
0.003416577
0.003412425
0.003412414
0.003412425
0.003412425
0.003412426
0.003412426
0.003416577
0.003412425
0.003412414
0.003412425
0.003412425
0.003412426
0.003412426
0.003416577
0.003412424
0.003412414
0.003412424
0.003412425
0.003412426
0.003412426
0.003416577
0.003412428
0.003412414
0.003412424
0.003412425
0.003412426
0.003412426
0.003416577
0.003412424
0.003412414
0.003412424
0.003412425
0.003412426
0.003412426
0.003416577
0.003412426
0.003412414
0.003412424
0.003412425
0.003412426
0.003412426
0.003416577
0.003412428
0.003412414
0.003412424
0.003412425
0.003412426
0.003412426
0.003416577
0.003412424
0.003412414
0.003412424
0.003412425
0.003412426
0.003412426
0.003416577
0.003412426
0.003412414
0.003412424
0.003412425
0.003412426
0.003412426
0.003416577
0.003412426
0.003412414
0.003412424
0.003412425
0.003412426
0.003412426
0.003416577
0.003412424
0.003412414
0.003412425
0.003412425
0.003412426
0.003412426
0.003416577
0.003412428
0.003412414
0.003412425
0.003412425
0.003412426
0.003412426
0.003416577
0.003412426
0.003412415
0.003412425
0.003412425
0.003412426
0.003412426
0.003416578
0.003412424
0.003412414
0.003412426
0.003412426
0.003412428
0.003412426
0.003416577
0.00341243
0.003412419
0.003412425
0.003412434
0.003412432
0.003412434
0.00374444
0.003766214
0.003417491
0.003412074
0.003743183
0.003751633
0.003748538
0.003769807
0.003412196
0.003412127
0.003748507
0.003752437
0.00376509
0.003771065
0.003412181
0.003412188
0.003748985
0.003752505
0.003766182
0.003771134
0.0034122
0.003412195
0.003749053
0.003752552
0.003766438
0.003771201
0.0034122
0.0034122
0.003749085
0.003752568
0.003766476
0.003771215
0.003412204
0.0034122
0.003749101
0.003766481
0.003412203
0.00373701
0.003736871
0.003417122
0.003412238
0.003416634
0.003412221
0.003737661
0.003737529
0.00341659
0.003412141
0.00341659
0.003412133
0.003738255
0.003737944
0.003416589
0.003412131
0.003416582
0.003412124
0.003737839
0.003737671
0.003416585
0.00341212
0.003416579
0.003412123
0.003737945
0.003737913
0.003416586
0.003412119
0.003416578
0.00341212
0.003737949
0.003737953
0.003416583
0.003412119
0.003416576
0.00341212
0.003737876
0.003738005
0.003416585
0.00341212
0.003416577
0.003412122
0.003737946
0.003737995
0.003416584
0.00341212
0.003416576
0.00341212
0.003737987
0.003738021
0.003416584
0.00341212
0.003416576
0.00341212
0.003737908
0.003737978
0.003416584
0.003412119
0.003416576
0.00341212
0.003737958
0.003737989
0.003416584
0.003412119
0.003416576
0.00341212
0.003737969
0.003738005
0.003416584
0.003412119
0.003416576
0.00341212
0.003737918
0.00373797
0.003416584
0.003412119
0.003416576
0.00341212
0.003737968
0.003737975
0.003416584
0.00341212
0.003416575
0.00341212
0.003737904
0.003737943
0.003416584
0.003412119
0.003416576
0.00341212
0.003737956
0.003737986
0.003416584
0.00341212
0.003416576
0.00341212
0.003737968
0.00373801
0.003416584
0.00341212
0.003416576
0.00341212
0.00373792
0.003737974
0.003416584
0.003412119
0.003416576
0.00341212
0.003737983
0.00373797
0.003416584
0.00341212
0.003416575
0.00341212
0.003737925
0.003737961
0.003416583
0.003412119
0.003416576
0.00341212
0.003737935
0.003738002
0.003416584
0.003412119
0.003416576
0.00341212
0.003737897
0.003737939
0.003416584
0.003412119
0.003416576
0.003412121
0.003737868
0.003420114
0.003416575
0.00341212
0.003416584
0.003412136
0.003752896
0.003416951
0.00341227
0.003753863
0.00341649
0.003412252
0.003755035
0.003416465
0.003412204
0.003754257
0.003416444
0.003412192
0.003755105
0.003416462
0.003412195
0.003755121
0.003416451
0.003412189
0.003755138
0.003416459
0.003412184
0.003754995
0.003416445
0.003412183
0.003754801
0.003416456
0.003412185
0.003755187
0.003416449
0.003412183
0.003754651
0.003416457
0.003412188
0.003755585
0.003416444
0.003412189
0.003754463
0.003416452
0.003412191
0.003754752
0.003416461
0.003412206
0.003753718
0.003416479
0.003412252
0.003752945
0.003416956
0.003412273
0.003766163
0.003417498
0.003412074
0.003744445
0.003412203
0.003749099
0.003412253
0.003416634
0.003412221
0.003737014
0.003736873
0.003412156
0.00341659
0.003412133
0.003737666
0.003737526
0.003412135
0.003416579
0.003412123
0.003737847
0.003737671
0.003412134
0.003416578
0.00341212
0.003737936
0.003737911
0.003412134
0.003416576
0.003412121
0.003737926
0.003737962
0.003412136
0.003416577
0.003412122
0.003737914
0.003738023
0.003412135
0.003416576
0.003412121
0.003737852
0.003737934
0.003412135
0.003416576
0.003412121
0.003737905
0.003737986
0.003412135
0.003416576
0.00341212
0.003737928
0.003737926
0.003412135
0.003416576
0.00341212
0.003737834
0.003737874
0.003412135
0.003416576
0.00341212
0.003737979
0.003738005
0.003412135
0.003416576
0.003412121
0.003737866
0.003737898
0.003412135
0.003416576
0.00341212
0.003737879
0.003737941
0.003412135
0.003416575
0.00341212
0.003737956
0.003737986
0.003412135
0.003416576
0.00341212
0.003737897
0.003737957
0.003412135
0.003416575
0.00341212
0.0037379
0.003737905
0.003412134
0.003416576
0.00341212
0.003737886
0.003737943
0.003412135
0.003416576
0.00341212
0.003738006
0.003737966
0.003412135
0.003416576
0.003412121
0.003737984
0.003737948
0.003412135
0.003416576
0.003412121
0.003737942
0.003737914
0.00341212
0.003416575
0.003412135
0.003737868
0.003420226
0.003415208
0.003773776
0.003415039
0.003756895
0.003414911
0.003757639
0.003414866
0.003757912
0.00341491
0.003758257
0.003414885
0.003758632
0.003414916
0.003759868
0.003414865
0.003758767
0.003414868
0.003758541
0.003414858
0.003759494
0.003414884
0.003758716
0.003414857
0.003759109
0.003414872
0.003758745
0.003414856
0.003758874
0.003414869
0.003758735
0.003414854
0.003758872
0.003414868
0.003758766
0.003414853
0.003758776
0.003414865
0.003758768
0.003414856
0.003758795
0.003414867
0.003758744
0.003414854
0.003758798
0.003414866
0.003758769
0.003414853
0.003758788
0.003414864
0.003758764
0.003414856
0.003758783
0.003414866
0.003758754
0.003414853
0.003758834
0.003414864
0.003758751
0.003414855
0.00375876
0.003414866
0.003758733
0.003414853
0.003758807
0.003414865
0.003758773
0.003414852
0.003758761
0.003414864
0.003758753
0.003414855
0.003758775
0.003414866
0.003758744
0.003414853
0.003758809
0.003414865
0.003758739
0.003414854
0.003758768
0.003414866
0.003758709
0.003414853
0.003758772
0.003414865
0.003758721
0.003414859
0.003758748
0.003414867
0.003758742
0.003414851
0.003758842
0.003414866
0.003758633
0.003416038
0.003416027
0.003415961
0.003415934
0.003415787
0.003416028
0.00341594
0.003415949
0.003415833
0.003416064
0.003415892
0.003415957
0.003415936
0.003415869
0.003415882
0.003415907
0.00341556
0.003415987
0.00376982
0.003412195
0.003412127
0.003743187
0.003751636
0.003771078
0.003412181
0.003412188
0.003748511
0.00375244
0.003771144
0.0034122
0.003412195
0.003748988
0.003752507
0.003771207
0.003412201
0.0034122
0.003749056
0.003752552
0.003771217
0.003412201
0.003412215
0.003749086
0.003752566
0.003412146
0.003416582
0.003412124
0.00373826
0.003737951
0.003412135
0.003416575
0.00341212
0.003737898
0.00373795
0.003414387
0.003762153
0.003414516
0.00375667
0.003415567
0.003416006
0.003414904
0.003757896
0.003414915
0.003757243
0.003414866
0.003759364
0.003414893
0.00375843
0.003414871
0.003758973
0.003414879
0.003758711
0.003414861
0.003758636
0.003414885
0.003759244
0.003414859
0.003758683
0.00341487
0.003759238
0.003414859
0.003758726
0.003414866
0.003758791
0.003414857
0.003758781
0.003414867
0.003758789
0.003414855
0.003758783
0.003414865
0.003758792
0.003414854
0.003758762
0.003414866
0.003758811
0.003414855
0.003758773
0.003414865
0.003758765
0.003414853
0.003758775
0.003414864
0.003758771
0.003414853
0.003758772
0.003414865
0.00375877
0.003414856
0.003758791
0.003414865
0.00375877
0.003414854
0.003758764
0.003414864
0.003758806
0.003414855
0.00375876
0.003414865
0.003758806
0.003414854
0.003758784
0.003414864
0.003758757
0.003414853
0.003758763
0.003414864
0.003758781
0.003414855
0.00375877
0.003414864
0.003758761
0.003414854
0.003758738
0.003414865
0.003758868
0.003414854
0.003758737
0.003414864
0.003758751
0.003414853
0.003758737
0.003414866
0.00375873
0.003414861
0.003758737
0.003414865
0.003758691
0.003414851
0.003439064
0.003759161
0.003414893
0.003415868
0.003415937
0.003415923
0.003415763
0.003415959
0.00341597
0.003415876
0.003415977
0.003415949
0.003415929
0.003415873
0.003415862
0.003415839
0.003416019
0.003415977
0.003416066
0.003415205
0.0037738
0.003416077
0.003782762
0.003416706
0.00376868
0.003414393
0.003762164
0.003414513
0.003756665
0.003416472
0.003776087
0.003415854
0.003782571
0.003415039
0.003756902
0.003414911
0.003757652
0.003414905
0.003757907
0.003414915
0.003757251
0.003414865
0.003757922
0.00341491
0.003758264
0.003414866
0.00375934
0.003414893
0.003758446
0.003414864
0.003758788
0.003414869
0.003758549
0.003414861
0.003758629
0.003414886
0.003759193
0.003414857
0.003759527
0.003414882
0.003758719
0.003414859
0.003758686
0.003414869
0.003759248
0.003414859
0.003758782
0.003414865
0.003758925
0.003414868
0.003759135
0.003414871
0.003758844
0.003414857
0.003758766
0.003414866
0.003758732
0.003414858
0.003758872
0.003414865
0.003758782
0.003414864
0.003758807
0.003414866
0.003758797
0.003414858
0.003758756
0.003414867
0.003758713
0.003414857
0.003758783
0.003414866
0.003758864
0.003414854
0.003758824
0.003414865
0.003758759
0.003414855
0.003758789
0.003414866
0.003758785
0.003414855
0.003758744
0.003414864
0.003758765
0.003414854
0.003758905
0.003414868
0.003758744
0.003414858
0.003758718
0.003414864
0.00375892
0.003414859
0.003758633
0.00341487
0.003758682
0.003414857
0.00376032
0.003758814
0.003414892
0.003736115
0.003761356
0.003753193
0.003755268
0.003756102
0.003755714
0.003756916
0.003757883
0.003754402
0.003757028
0.003757228
0.003757445
0.003756772
0.003757209
0.00375653
0.0037523
0.00375453
0.003754714
0.003756528
0.003758541
0.003416066
0.003782748
0.003416686
0.003768658
0.003759552
0.003755348
0.003752675
0.003757823
0.00375516
0.003751532
0.003755082
0.003757399
0.003757147
0.003757386
0.003758414
0.003753428
0.003757001
0.00375711
0.003756931
0.003757674
0.003754873
0.003754531
0.003736797
0.003761828
0.003423842
0.003753858
0.003424072
0.003752726
0.003750757
0.003754823
0.003753601
0.003753105
0.003423507
0.00375186
0.003751245
0.003423354
0.003423843
0.00375308
0.003752412
0.003423648
0.003423905
0.003753527
0.003423665
0.003752781
0.003423927
0.003753432
0.003423669
0.003752772
0.003423827
0.003753331
0.003752819
0.003423717
0.003423902
0.003753514
0.003423661
0.003752783
0.003414856
0.003759147
0.00341487
0.003758744
0.00341486
0.003758952
0.003414862
0.00375879
0.003414856
0.003758804
0.003414869
0.003758756
0.003414868
0.003758912
0.003414866
0.003758782
0.003414861
0.003758809
0.003414866
0.003758752
0.003414858
0.003758947
0.003414868
0.003758972
0.00341486
0.0037588
0.003414869
0.003758886
0.003414861
0.003758813
0.003414864
0.003758769
0.003414872
0.003758961
0.003414869
0.003758731
0.00341487
0.003758846
0.003414871
0.003758966
0.003414856
0.003758791
0.003414867
0.003758759
0.003414857
0.003758781
0.003414868
0.003758771
0.003414868
0.003758832
0.003414871
0.00375899
0.003414869
0.003758857
0.003414866
0.003758762
0.003414859
0.003758828
0.003414865
0.003758756
0.003414861
0.00375882
0.003414867
0.003758854
0.003414855
0.003759149
0.003414865
0.00375877
0.003414856
0.003758819
0.003414863
0.003758831
0.003423866
0.003753516
0.003752865
0.003423655
0.003423869
0.003753543
0.003423662
0.003752852
0.003423869
0.003753529
0.003752882
0.003423655
0.003414864
0.00375888
0.003414865
0.003758794
0.003423864
0.003753514
0.003423653
0.003752845
0.003423879
0.003753515
0.003423657
0.003752876
0.003423867
0.003753485
0.003752875
0.003423663
0.003423872
0.003753508
0.003423659
0.003752893
0.003423886
0.003753508
0.003752833
0.003423657
0.003414855
0.003759374
0.003414872
0.003758721
0.003423891
0.003753442
0.003752761
0.003423662
0.003423836
0.003753272
0.003752737
0.0034237
0.003748734
0.003753434
0.003756535
0.003747343
0.003424574
0.003758199
0.003422514
0.00375388
0.003748387
0.003751711
0.003754593
0.003758319
0.003756428
0.003758316
0.003750681
0.003753297
0.003755191
0.003757563
0.003753365
0.003752729
0.003755613
0.003755137
0.003757792
0.003756126
0.003755457
0.003757548
0.003759543
0.003756387
0.003774266
0.003415893
0.003781748
0.003416895
0.003785188
0.003775274
0.003415718
0.003416353
0.00377561
0.003782916
0.003416566
0.003415789
0.003785922
0.003776017
0.003415653
0.003416318
0.003775994
0.003782684
0.003416456
0.003415839
0.003785938
0.003775791
0.003415656
0.003416355
0.003776012
0.003782559
0.003416474
0.003415849
0.003785971
0.00377568
0.003415652
0.003416361
0.003776055
0.003782557
0.003416458
0.00341585
0.003786017
0.003416393
0.003775693
0.003415679
0.003758634
0.003414915
0.003759894
0.003414886
0.003758989
0.003414882
0.003758729
0.003414873
0.003758794
0.003414867
0.003758747
0.003414861
0.003758845
0.003414864
0.003758985
0.003414858
0.003758874
0.003758405
0.003757168
0.003756822
0.003758384
0.003754498
0.003756445
0.003758108
0.00375807
0.00375324
0.003756456
0.003757243
0.003755437
0.00375786
0.003755187
0.003751751
0.003752653
0.003756269
0.003747814
0.00375075
0.003748594
0.003753406
0.003747162
0.003756797
0.003424448
0.003758219
0.003754457
0.003422547