/*--------------------------------*- C++ -*----------------------------------*\
  =========                 |
  \\      /  F ield         | OpenFOAM: The Open Source CFD Toolbox
   \\    /   O peration     | Website:  https://openfoam.org
    \\  /    A nd           | Version:  7
     \\/     M anipulation  |
\*---------------------------------------------------------------------------*/
FoamFile
{
    version     2.0;
    format      ascii;
    class       volScalarField;
    location    "0.1";
    object      k;
}
// * * * * * * * * * * * * * * * * * * * * * * * * * * * * * * * * * * * * * //

dimensions      [0 2 -2 0 0 0 0];

internalField   nonuniform List<scalar> 
77308
(
0.003693599
0.003690935
0.003690831
0.003691105
0.003691461
0.003691949
0.00372346
0.003722824
0.003722653
0.003722745
0.003722879
0.003723136
0.003723058
0.003721968
0.003721693
0.003721738
0.003721868
0.003722092
0.00372294
0.003721786
0.003721446
0.003721461
0.003721621
0.003721834
0.003722769
0.003721557
0.003721189
0.003721202
0.003721352
0.003721578
0.003722649
0.003721422
0.003721056
0.00372107
0.003721234
0.003721466
0.003722484
0.003721244
0.003720882
0.003720906
0.00372108
0.003721326
0.003722309
0.003721074
0.003720729
0.003720769
0.00372096
0.003721221
0.003722125
0.003720907
0.003720589
0.003720655
0.003720866
0.003721143
0.003721968
0.003720815
0.003720551
0.003720655
0.003720891
0.003721187
0.003721967
0.003721006
0.003720863
0.00372102
0.003721282
0.003721593
0.003722238
0.003721849
0.003721885
0.003722089
0.003722356
0.003722653
0.003692218
0.003690617
0.003691009
0.003691557
0.003692267
0.00369302
0.003498252
0.003502405
0.003506546
0.003510986
0.003515532
0.003520271
0.003767046
0.003766826
0.003766631
0.003768171
0.003770683
0.003773868
0.003747215
0.003750195
0.003750189
0.003750539
0.003751211
0.003752072
0.003756539
0.003758579
0.003759838
0.003760716
0.00376161
0.003762839
0.003754753
0.003757374
0.003758431
0.003759862
0.003761126
0.003762495
0.003751237
0.003753356
0.00375449
0.003755709
0.00375705
0.003758687
0.003748873
0.003751142
0.003752409
0.00375396
0.003755666
0.003757546
0.003745815
0.00374787
0.003749234
0.003750915
0.003752879
0.003755058
0.003742924
0.003745021
0.003746621
0.003748581
0.003750896
0.00375342
0.003739779
0.003741908
0.00374372
0.003745986
0.003748664
0.00375159
0.003736627
0.003738873
0.003740982
0.003743622
0.003746704
0.003750093
0.003410362
0.00341021
0.003410215
0.003410223
0.003410233
0.003410245
0.003694058
0.003410349
0.003410343
0.00341035
0.00341036
0.003410371
0.003410384
0.003693285
0.003410344
0.003410346
0.003410353
0.003410363
0.003410376
0.00341039
0.003692828
0.003410341
0.003410343
0.003410352
0.003410364
0.003410378
0.003410394
0.003692508
0.003410339
0.003410343
0.003410352
0.003410365
0.00341038
0.003410396
0.003692197
0.003410336
0.00341034
0.00341035
0.003410364
0.003410379
0.003410397
0.003691715
0.003410332
0.003410336
0.003410347
0.003410361
0.003410377
0.003410396
0.003691247
0.003410326
0.003410331
0.003410342
0.003410357
0.003410373
0.003410392
0.00369065
0.003410319
0.003410324
0.003410335
0.003410351
0.00341037
0.00341039
0.003690037
0.00341031
0.003410315
0.003410328
0.003410345
0.003410364
0.003410383
0.003689434
0.003410301
0.003410306
0.003410334
0.003410352
0.003410373
0.003410395
0.003689075
0.003410293
0.003410322
0.003410342
0.00341036
0.003410378
0.003410398
0.003689014
0.003410164
0.003410189
0.003410213
0.003410238
0.003410267
0.003410296
0.003637136
0.003634515
0.003634097
0.003635006
0.003636395
0.003637973
0.003911798
0.003429957
0.003417529
0.003416772
0.003419811
0.003419417
0.003420837
0.003786683
0.003416082
0.003417716
0.003417761
0.003417764
0.003417994
0.003417894
0.003776208
0.003413028
0.003414489
0.003414519
0.003413735
0.003413815
0.003414011
0.003777651
0.003413323
0.003413146
0.003413135
0.003413161
0.003413315
0.003413409
0.003770866
0.003413154
0.003413452
0.003413403
0.003413378
0.003413322
0.003413414
0.003763835
0.003412987
0.003413306
0.003413133
0.003413201
0.003413189
0.00341329
0.003756006
0.003413031
0.003413301
0.003413153
0.003413281
0.003413332
0.003413408
0.00374803
0.003413032
0.003413197
0.003413083
0.003413214
0.003413286
0.003413376
0.003739767
0.003413035
0.003413216
0.003413138
0.003413297
0.003413427
0.003413559
0.003416263
0.003412983
0.003413178
0.003413137
0.003413335
0.003413553
0.003413754
0.003410352
0.003410202
0.003410208
0.003410214
0.003410225
0.003410236
0.003693723
0.00341019
0.003410191
0.003410198
0.003410205
0.003410217
0.00341023
0.003722727
0.003410347
0.003410192
0.0034102
0.003410209
0.003410222
0.003410236
0.003722036
0.003410344
0.00341019
0.003410201
0.003410211
0.003410224
0.00341024
0.003721853
0.003410341
0.003410189
0.0034102
0.003410212
0.003410226
0.003410242
0.003721621
0.003410337
0.003410187
0.003410198
0.00341021
0.003410225
0.003410243
0.003721444
0.003410333
0.003410183
0.003410194
0.003410208
0.003410223
0.003410241
0.003721236
0.003410326
0.003410177
0.003410189
0.003410203
0.003410219
0.003410237
0.003721034
0.003410319
0.00341017
0.003410183
0.003410197
0.003410213
0.003410232
0.003720854
0.00341031
0.003410162
0.003410174
0.003410189
0.003410206
0.003410224
0.003720807
0.0034103
0.003410152
0.003410165
0.00341018
0.003410197
0.003410215
0.003720948
0.003410292
0.003410553
0.003410568
0.003410621
0.003410659
0.003410706
0.003688422
0.003410162
0.003727159
0.003725777
0.003725476
0.003725573
0.003725821
0.003633688
0.003907275
0.003417548
0.00343004
0.003442154
0.003436155
0.003436282
0.003438023
0.003748469
0.003420705
0.003413117
0.003412598
0.003413005
0.003412844
0.003413068
0.003756833
0.003416017
0.003412454
0.003412878
0.003413024
0.003412707
0.003412773
0.003755254
0.003415224
0.003412547
0.003412584
0.003412661
0.00341259
0.003412745
0.003751478
0.00341557
0.003412993
0.003413016
0.003413044
0.003413157
0.00341302
0.003749344
0.003415547
0.003412739
0.003412904
0.003412938
0.003413035
0.003412962
0.003746083
0.003415661
0.003412851
0.003412974
0.003413101
0.003413178
0.00341322
0.003743107
0.003415757
0.003412791
0.003412915
0.00341302
0.003413129
0.003413206
0.003739773
0.003415844
0.00341285
0.003412976
0.003413121
0.003413272
0.003413398
0.003736554
0.003415935
0.003412833
0.003412998
0.003413182
0.003413402
0.003413603
0.003410353
0.003410201
0.003410205
0.003410213
0.003410221
0.003410233
0.003693379
0.00341019
0.003410189
0.003410195
0.003410204
0.003410214
0.003410227
0.003722396
0.003410346
0.003410192
0.003410199
0.003410209
0.00341022
0.003410235
0.003721397
0.00341034
0.003410191
0.0034102
0.00341021
0.003410224
0.003410239
0.003721105
0.003410337
0.003410189
0.003410199
0.003410211
0.003410225
0.003410242
0.00372084
0.003410333
0.003410186
0.003410197
0.00341021
0.003410225
0.003410242
0.003720649
0.003410328
0.003410182
0.003410194
0.003410207
0.003410223
0.00341024
0.003720433
0.003410321
0.003410177
0.003410189
0.003410202
0.003410218
0.003410237
0.003720227
0.003410314
0.003410169
0.003410182
0.003410196
0.003410212
0.003410231
0.003720067
0.003410304
0.003410161
0.003410173
0.003410187
0.003410204
0.003410223
0.003720123
0.003410295
0.00341015
0.003410163
0.003410178
0.003410195
0.003410213
0.003720623
0.003410289
0.003410495
0.003410512
0.00341057
0.003410609
0.003410653
0.003686689
0.003410161
0.003725658
0.003723586
0.003722889
0.003722898
0.003723159
0.003631846
0.003916499
0.003414754
0.003433441
0.003446544
0.003442038
0.003440467
0.003440465
0.003750856
0.003422401
0.003413364
0.003413159
0.003413035
0.003413316
0.003413542
0.003756745
0.003416302
0.003413321
0.003412239
0.003413663
0.003412737
0.003412831
0.003756424
0.00341556
0.003412309
0.003412447
0.003412525
0.003412655
0.003412674
0.003752355
0.003415634
0.003413206
0.003412786
0.00341328
0.003413118
0.003413055
0.003749999
0.003415534
0.003412916
0.003412726
0.003413072
0.003412994
0.003413009
0.003746698
0.003415657
0.003412941
0.003412926
0.003413117
0.00341315
0.003413224
0.003743449
0.003415752
0.003412818
0.003412882
0.003413037
0.00341312
0.003413208
0.003739933
0.003415779
0.003412859
0.003412963
0.003413124
0.003413264
0.003413395
0.003736544
0.003415877
0.003412818
0.003412986
0.003413179
0.003413399
0.003413605
0.003410354
0.003410201
0.003410205
0.003410212
0.003410221
0.003410232
0.003693305
0.00341019
0.003410189
0.003410195
0.003410203
0.003410214
0.003410227
0.003722281
0.003410346
0.003410191
0.003410198
0.003410208
0.003410219
0.003410233
0.003721176
0.00341034
0.00341019
0.0034102
0.00341021
0.003410223
0.003410238
0.003720835
0.003410336
0.003410189
0.003410199
0.003410211
0.003410224
0.003410241
0.003720542
0.003410332
0.003410186
0.003410197
0.003410209
0.003410224
0.003410242
0.003720348
0.003410326
0.003410182
0.003410193
0.003410207
0.003410222
0.00341024
0.003720128
0.00341032
0.003410176
0.003410188
0.003410202
0.003410218
0.003410236
0.003719926
0.003410312
0.003410169
0.003410181
0.003410195
0.003410211
0.00341023
0.003719779
0.003410303
0.00341016
0.003410172
0.003410186
0.003410203
0.003410222
0.003719892
0.003410293
0.003410149
0.003410162
0.003410177
0.003410194
0.003410212
0.003720485
0.003410287
0.003410481
0.003410494
0.003410558
0.003410595
0.00341064
0.003686456
0.00341016
0.003725131
0.00372265
0.003721758
0.003721705
0.003721965
0.003631282
0.003918284
0.003416343
0.003443996
0.003440922
0.003442167
0.00344171
0.003440106
0.003749772
0.003425199
0.003412518
0.00341286
0.003412265
0.003412722
0.003412648
0.003757076
0.003417257
0.003412662
0.003413307
0.00341241
0.003413536
0.003412665
0.003756033
0.00341547
0.003412543
0.003412327
0.003412566
0.003412536
0.00341276
0.003752059
0.003415641
0.003412799
0.003413337
0.003412807
0.00341327
0.003412945
0.003749704
0.003415549
0.003412634
0.003412963
0.003412792
0.00341314
0.00341294
0.00374637
0.003415602
0.003412755
0.003413021
0.003413072
0.003413208
0.003413204
0.003743377
0.00341567
0.003412742
0.003412972
0.00341301
0.003413147
0.003413202
0.003739826
0.003415732
0.003412837
0.003412989
0.003413106
0.003413274
0.003413387
0.003736423
0.003415821
0.003412803
0.003412998
0.003413175
0.00341341
0.003413614
0.003410354
0.003410201
0.003410205
0.003410212
0.003410221
0.003410232
0.003693245
0.00341019
0.003410189
0.003410195
0.003410203
0.003410214
0.003410227
0.003722281
0.003410346
0.003410191
0.003410198
0.003410208
0.003410219
0.003410233
0.003721175
0.00341034
0.00341019
0.003410199
0.00341021
0.003410223
0.003410238
0.003720834
0.003410336
0.003410189
0.003410199
0.00341021
0.003410224
0.003410241
0.00372054
0.003410331
0.003410186
0.003410197
0.003410209
0.003410224
0.003410241
0.003720349
0.003410326
0.003410181
0.003410193
0.003410206
0.003410222
0.00341024
0.003720129
0.00341032
0.003410176
0.003410188
0.003410202
0.003410218
0.003410236
0.003719925
0.003410312
0.003410169
0.003410181
0.003410195
0.003410211
0.00341023
0.00371978
0.003410303
0.00341016
0.003410172
0.003410186
0.003410203
0.003410222
0.003719893
0.003410293
0.003410149
0.003410162
0.003410177
0.003410194
0.003410212
0.003720485
0.003410287
0.003410481
0.003410494
0.003410558
0.003410595
0.003410641
0.003686437
0.00341016
0.003725131
0.00372265
0.003721758
0.003721706
0.003721965
0.003631227
0.003928865
0.003436044
0.003443171
0.003441019
0.003442097
0.003441855
0.003440138
0.003749726
0.003424874
0.003412526
0.003412791
0.003412253
0.003412683
0.00341268
0.003757062
0.003417117
0.003412677
0.003413328
0.003412399
0.003413662
0.003412657
0.00375603
0.003415458
0.003412562
0.003412325
0.003412558
0.003412534
0.003412752
0.003752054
0.003415634
0.003412799
0.003413342
0.003412801
0.003413276
0.003412946
0.003749717
0.003415547
0.003412635
0.003412964
0.003412793
0.003413146
0.003412942
0.00374638
0.0034156
0.003412755
0.003413023
0.003413074
0.00341321
0.003413204
0.003743367
0.003415671
0.003412743
0.003412976
0.003413012
0.00341315
0.003413203
0.003739816
0.003415734
0.003412837
0.003412992
0.003413105
0.003413274
0.003413387
0.003736417
0.00341582
0.003412804
0.003413002
0.003413179
0.003413412
0.003413613
0.003410353
0.0034102
0.003410204
0.003410212
0.00341022
0.003410232
0.003693347
0.00341019
0.003410189
0.003410195
0.003410204
0.003410214
0.003410227
0.003722396
0.003410346
0.003410192
0.003410199
0.003410209
0.00341022
0.003410235
0.003721396
0.00341034
0.00341019
0.0034102
0.00341021
0.003410224
0.003410239
0.003721105
0.003410337
0.003410189
0.003410199
0.003410211
0.003410225
0.003410242
0.003720843
0.003410333
0.003410186
0.003410197
0.00341021
0.003410225
0.003410242
0.003720653
0.003410328
0.003410182
0.003410194
0.003410207
0.003410222
0.00341024
0.003720437
0.003410321
0.003410176
0.003410188
0.003410202
0.003410218
0.003410237
0.003720231
0.003410314
0.003410169
0.003410181
0.003410196
0.003410212
0.003410231
0.003720071
0.003410304
0.003410161
0.003410173
0.003410188
0.003410204
0.003410223
0.003720128
0.003410295
0.00341015
0.003410163
0.003410178
0.003410195
0.003410214
0.003720627
0.003410289
0.003410495
0.003410512
0.00341057
0.003410609
0.003410653
0.003686496
0.003410161
0.003725657
0.003723586
0.003722889
0.003722898
0.003723159
0.003631414
0.003928994
0.003424792
0.003433597
0.003446891
0.00344278
0.003440433
0.003440412
0.00375089
0.00342225
0.003413405
0.003413151
0.00341302
0.003413298
0.003413505
0.003756822
0.00341625
0.003413445
0.003412234
0.003413654
0.003412688
0.003412822
0.003756475
0.003415607
0.003412318
0.003412433
0.003412524
0.003412665
0.003412681
0.003752418
0.003415638
0.003413224
0.003412777
0.003413276
0.003413113
0.003413053
0.003750017
0.003415542
0.003412921
0.003412718
0.003413073
0.003412993
0.003413006
0.003746707
0.003415658
0.003412944
0.003412925
0.003413117
0.00341315
0.003413225
0.003743454
0.003415751
0.003412821
0.003412882
0.003413038
0.00341312
0.00341321
0.003739934
0.003415781
0.003412861
0.003412964
0.003413125
0.003413266
0.003413398
0.003736541
0.00341588
0.003412819
0.003412986
0.003413177
0.0034134
0.003413609
0.003410351
0.003410205
0.003410209
0.003410217
0.003410227
0.003410239
0.003693566
0.003410191
0.003410191
0.003410198
0.003410207
0.003410218
0.003410231
0.003722723
0.003410347
0.003410193
0.0034102
0.00341021
0.003410222
0.003410237
0.003722033
0.003410344
0.003410191
0.0034102
0.003410211
0.003410224
0.00341024
0.00372185
0.003410341
0.003410189
0.003410199
0.003410211
0.003410225
0.003410242
0.003721629
0.003410337
0.003410186
0.003410197
0.00341021
0.003410225
0.003410242
0.003721465
0.003410332
0.003410182
0.003410194
0.003410207
0.003410223
0.003410241
0.003721255
0.003410326
0.003410177
0.003410189
0.003410203
0.003410219
0.003410237
0.003721039
0.003410319
0.00341017
0.003410182
0.003410197
0.003410213
0.003410232
0.003720869
0.00341031
0.003410162
0.003410174
0.003410189
0.003410206
0.003410224
0.003720833
0.0034103
0.003410152
0.003410165
0.00341018
0.003410197
0.003410215
0.003720972
0.003410292
0.003410553
0.003410568
0.003410621
0.003410659
0.003410705
0.003687043
0.003410162
0.003727155
0.003725775
0.003725474
0.003725573
0.003725819
0.003632321
0.003929816
0.003424511
0.003430034
0.003442011
0.003435458
0.003437184
0.003437539
0.003748487
0.003420622
0.00341305
0.003412619
0.003412921
0.003412811
0.003413089
0.003756798
0.003416011
0.003412446
0.003412955
0.003412989
0.003412725
0.00341275
0.003755234
0.003415231
0.003412557
0.003412593
0.003412647
0.003412584
0.003412751
0.003751462
0.003415574
0.003412988
0.003413013
0.003413069
0.00341314
0.00341301
0.003749345
0.003415563
0.003412734
0.003412899
0.003412953
0.00341303
0.003412953
0.003746107
0.003415667
0.003412854
0.003412974
0.003413104
0.003413176
0.00341322
0.00374311
0.003415759
0.003412794
0.00341292
0.003413029
0.003413131
0.003413208
0.003739768
0.003415849
0.003412852
0.003412983
0.00341312
0.003413271
0.003413398
0.003736546
0.003415932
0.003412834
0.00341301
0.003413204
0.003413416
0.003413605
0.003410336
0.003410365
0.003410384
0.003410401
0.003410421
0.003410446
0.003694118
0.003410353
0.003410354
0.003410361
0.00341037
0.003410382
0.003410395
0.00369275
0.003410343
0.003410345
0.003410353
0.003410364
0.003410377
0.003410391
0.003690656
0.003410342
0.003410344
0.003410353
0.003410364
0.003410378
0.003410393
0.00369046
0.003410339
0.003410342
0.003410352
0.003410365
0.003410379
0.003410396
0.003689964
0.003410336
0.00341034
0.00341035
0.003410364
0.003410379
0.003410397
0.003689877
0.003410331
0.003410336
0.003410347
0.003410361
0.003410377
0.003410396
0.003689142
0.003410326
0.00341033
0.003410342
0.003410357
0.003410374
0.003410393
0.003688429
0.003410319
0.003410324
0.003410335
0.003410351
0.003410371
0.003410391
0.003687973
0.00341031
0.003410315
0.003410328
0.003410346
0.003410365
0.003410384
0.003687421
0.003410301
0.003410306
0.003410335
0.003410353
0.003410374
0.003410396
0.003687457
0.003410293
0.003410323
0.003410342
0.003410361
0.003410379
0.003410398
0.003687944
0.003410159
0.003410632
0.003410571
0.003410649
0.003410682
0.003410749
0.003637948
0.003573323
0.003572991
0.003573663
0.003576204
0.003579175
0.003909687
0.003417013
0.003425872
0.003433436
0.003444166
0.003445953
0.003452717
0.003789557
0.003416057
0.003417701
0.003417632
0.003417899
0.003418037
0.003417995
0.003773942
0.003413039
0.003414585
0.003414538
0.003413802
0.003413818
0.003414106
0.003781789
0.003413325
0.003413184
0.003413161
0.003413175
0.003413314
0.003413426
0.003771935
0.003413159
0.003413457
0.003413418
0.003413392
0.003413299
0.003413425
0.003765884
0.003412976
0.003413308
0.003413133
0.003413216
0.003413185
0.003413295
0.003757402
0.003413029
0.003413291
0.003413156
0.003413284
0.003413331
0.00341341
0.003749392
0.003413042
0.003413197
0.003413089
0.003413221
0.003413284
0.003413378
0.003740603
0.003413048
0.00341321
0.003413139
0.003413277
0.003413425
0.003413563
0.003726499
0.003412995
0.003413181
0.003413134
0.003413313
0.003413528
0.00341375
0.003410756
0.003410783
0.003410806
0.003410838
0.003410881
0.003410934
0.003627772
0.003723714
0.003723298
0.003723184
0.003723262
0.003723406
0.003723597
0.003626344
0.003723192
0.003722208
0.00372196
0.003722
0.003722149
0.003722355
0.003625803
0.003722941
0.003721798
0.003721465
0.003721486
0.003721639
0.003721856
0.003625118
0.003722784
0.003721581
0.003721218
0.00372123
0.003721384
0.003721607
0.003624244
0.003722642
0.003721419
0.003721055
0.00372107
0.003721234
0.003721467
0.003627322
0.003722466
0.003721243
0.003720884
0.003720909
0.003721083
0.003721329
0.003626198
0.003722298
0.003721069
0.003720727
0.003720769
0.00372096
0.00372122
0.003620333
0.003722116
0.003720903
0.003720589
0.003720654
0.003720866
0.003721143
0.003688893
0.00372195
0.00372081
0.003720549
0.003720654
0.003720891
0.003721187
0.003621083
0.003721937
0.003720997
0.003720859
0.003721019
0.003721281
0.003721591
0.003619696
0.003722203
0.003721816
0.003721879
0.003722088
0.003722354
0.003722646
0.003623138
0.003410749
0.003410771
0.003410784
0.003410808
0.003410832
0.003410863
0.00363762
0.003641556
0.003643075
0.003644523
0.003646102
0.003647678
0.003913753
0.003435121
0.003444497
0.003435788
0.003435895
0.003432066
0.003435794
0.003883171
0.003747343
0.003750491
0.0037502
0.003750729
0.003751222
0.003752294
0.003829754
0.003756416
0.003758564
0.003759783
0.003760706
0.00376143
0.003762828
0.003853953
0.003754701
0.003757446
0.003758432
0.003759958
0.003761086
0.003762573
0.003834281
0.003751256
0.003753373
0.003754473
0.003755782
0.003757048
0.003758703
0.003819429
0.003748867
0.003751178
0.003752405
0.003754001
0.003755678
0.00375757
0.003792417
0.00374575
0.003747898
0.003749223
0.003750936
0.003752879
0.003755066
0.003777493
0.003742934
0.003745018
0.003746619
0.003748611
0.003750923
0.003753453
0.003756161
0.003739777
0.003741899
0.00374371
0.00374597
0.003748634
0.003751562
0.003734348
0.003736615
0.003738879
0.003740934
0.003743722
0.0037468
0.003750212
0.003627208
0.003695678
0.003410824
0.003624142
0.00341067
0.003691802
0.003694128
0.003690147
0.003410652
0.003410667
0.003415533
0.003415494
0.003690507
0.003688799
0.003687985
0.003410697
0.00341069
0.003415708
0.003415744
0.003690842
0.003688084
0.003688134
0.003410714
0.00341071
0.003416064
0.003416065
0.003691105
0.003688443
0.003688397
0.003410736
0.003410729
0.003416407
0.003416328
0.003691519
0.00368883
0.003688911
0.003410761
0.003410756
0.003416744
0.00341671
0.003689406
0.003410796
0.003417256
0.00369637
0.00369556
0.003627928
0.003411612
0.003626757
0.003411032
0.003695269
0.003695085
0.003626187
0.003411407
0.003626168
0.003411023
0.003695223
0.003694945
0.003625845
0.003411591
0.003625227
0.003410999
0.003694811
0.003694572
0.003625152
0.003411585
0.003624332
0.003410967
0.003694541
0.00369424
0.003624258
0.003411619
0.003623211
0.003410935
0.003694125
0.003693832
0.00362309
0.003411614
0.003621879
0.003410912
0.003693684
0.003693349
0.003621722
0.003411605
0.003620414
0.003410978
0.003693213
0.00369281
0.00362024
0.003411582
0.003618814
0.003411028
0.003692703
0.003692272
0.003618661
0.003411536
0.003617064
0.003411074
0.003692221
0.003691933
0.003616816
0.003411496
0.003615223
0.003411144
0.003692218
0.003693208
0.00361491
0.003411445
0.003613838
0.003411225
0.003692714
0.003633689
0.003614008
0.003410466
0.003580762
0.003410445
0.003498357
0.003856086
0.003632124
0.003531201
0.003502113
0.003843889
0.003840214
0.003637926
0.003642063
0.003557467
0.003552698
0.003506206
0.003838816
0.003830787
0.003642101
0.003642973
0.003537181
0.003533967
0.003510433
0.003840769
0.003831057
0.003643109
0.003644383
0.003514433
0.003515484
0.00351489
0.003847753
0.003833136
0.003644535
0.003646007
0.003523999
0.003521764
0.003519687
0.003853576
0.003835783
0.003646148
0.003647766
0.003530101
0.003535293
0.003859386
0.003647857
0.003540235
0.003768521
0.003789353
0.003913909
0.003457672
0.003858918
0.003419061
0.003781257
0.003776015
0.003883844
0.003419392
0.003846816
0.003418401
0.003772232
0.003773108
0.003856425
0.003415711
0.003843028
0.003416882
0.003772318
0.003767401
0.003855717
0.003416772
0.003827821
0.003415811
0.003764267
0.003760401
0.003834164
0.003416119
0.003811452
0.00341434
0.003757957
0.003754078
0.003818008
0.003415867
0.003793542
0.003414621
0.003751333
0.00374726
0.0037976
0.003415615
0.003774908
0.003414194
0.003744377
0.003740172
0.003777728
0.003415525
0.003755037
0.003414226
0.003737183
0.003732767
0.00375612
0.003415359
0.003734193
0.003414021
0.003729719
0.00372493
0.00373436
0.003415347
0.00371192
0.003414001
0.003410801
0.003628799
0.003410322
0.003410778
0.003626493
0.003410321
0.003637547
0.003553535
0.003640555
0.003537905
0.003410778
0.003626066
0.00341032
0.003410774
0.003626399
0.003410318
0.00364026
0.003562507
0.003639706
0.003510087
0.003410775
0.003626217
0.003410318
0.003410774
0.003626009
0.003410317
0.003639651
0.003530123
0.003639504
0.003508509
0.003410776
0.003625942
0.003410318
0.003410775
0.003626205
0.003410318
0.003639492
0.003528454
0.003639465
0.003521458
0.003410776
0.003626563
0.003410318
0.003410775
0.003626311
0.003410318
0.003639467
0.003511028
0.003639491
0.003527095
0.003410774
0.003626081
0.003410317
0.003410775
0.003625948
0.003410318
0.003639504
0.003509799
0.003639655
0.00352971
0.003410776
0.003626139
0.003410319
0.003410781
0.003626159
0.00341032
0.003639707
0.003510388
0.003640256
0.003561924
0.003410794
0.003626536
0.00341032
0.00341079
0.003628811
0.003410319
0.003640552
0.003541647
0.003637521
0.003554081
0.003410832
0.003624179
0.003410636
0.003697556
0.003410784
0.003415621
0.00341563
0.003697533
0.003696085
0.003410793
0.003415779
0.003415772
0.003695902
0.00369571
0.003410821
0.003415976
0.003415987
0.003695913
0.003695887
0.003410859
0.003416258
0.003416269
0.003696195
0.003696178
0.003410907
0.003416619
0.003416627
0.003696582
0.003696566
0.00341706
0.003697063
0.003411487
0.003626146
0.003411027
0.003695376
0.003695075
0.003411575
0.003625233
0.003411001
0.003695224
0.003694944
0.003411615
0.003624763
0.003410946
0.003694531
0.003694227
0.003411615
0.00363022
0.003410947
0.003694161
0.003693787
0.003410471
0.003587114
0.003410449
0.003692523
0.003632945
0.003632011
0.003532863
0.003495792
0.003857213
0.00364597
0.00351421
0.003526677
0.003510953
0.003514978
0.003848903
0.003833844
0.003647826
0.003534767
0.003551645
0.00351547
0.003516856
0.003850675
0.003832367
0.003535825
0.003513972
0.00386775
0.003411621
0.003645282
0.003412254
0.003642599
0.003413419
0.003640952
0.003412199
0.003641995
0.003413503
0.003639733
0.0034123
0.003641911
0.003413622
0.003639224
0.003412201
0.003641312
0.003413469
0.003638872
0.003412248
0.003640667
0.003413441
0.003638188
0.003412217
0.003639758
0.003413312
0.003637395
0.003412174
0.003638723
0.003413151
0.003636517
0.003412126
0.003637579
0.003412978
0.003635545
0.00341208
0.003636348
0.003412798
0.003634473
0.003412029
0.003635013
0.003412591
0.003633352
0.003411956
0.003633707
0.003412362
0.003632742
0.003411847
0.003633614
0.003412073
0.003635352
0.003690967
0.003633227
0.003634022
0.003410762
0.003410805
0.003410447
0.003410507
0.003690939
0.003634153
0.003635399
0.003410769
0.00341084
0.003410466
0.003410564
0.003691547
0.003635687
0.003636976
0.003410782
0.003410867
0.0034105
0.003410619
0.003692211
0.003637236
0.003638616
0.003410805
0.003410916
0.003410538
0.003410676
0.003692955
0.003638803
0.003640342
0.003410836
0.003410966
0.003410577
0.003410741
0.00364049
0.00341087
0.003410624
0.003498844
0.003644421
0.003499747
0.003638588
0.003638957
0.003503432
0.003639962
0.003640105
0.003507378
0.003641241
0.003641218
0.003511567
0.003642555
0.003642456
0.003515952
0.003643991
0.003643811
0.003520622
0.003645544
0.003645279
0.003449708
0.003860814
0.003465665
0.003850106
0.003769808
0.003784559
0.003785286
0.003435337
0.003443937
0.003418794
0.003422706
0.003767369
0.003789392
0.003787365
0.00344066
0.003441686
0.003423991
0.003421143
0.00376468
0.003792677
0.003791574
0.003439659
0.003440624
0.003421406
0.003419812
0.003766598
0.003795456
0.003793644
0.003434825
0.00343655
0.003420286
0.003418666
0.003769627
0.003798107
0.003795601
0.003433718
0.003434846
0.003419862
0.003418666
0.003800317
0.003434171
0.003419916
0.003444764
0.003854683
0.003438011
0.003840268
0.003425001
0.003828326
0.003429142
0.003819189
0.003433333
0.003826515
0.003431182
0.00381385
0.003429694
0.003808449
0.003428708
0.003796541
0.00342923
0.003794353
0.003427976
0.003781915
0.003427883
0.003778558
0.003427108
0.003765904
0.003426766
0.003762545
0.003426099
0.00374928
0.00342515
0.003745468
0.003425115
0.003732149
0.00342355
0.003727563
0.003424102
0.003714534
0.00341137
0.00341138
0.003410478
0.003583116
0.003410479
0.003687718
0.003410456
0.003583095
0.003410481
0.003640405
0.003640552
0.003429816
0.003761892
0.003419257
0.003906369
0.003438191
0.003762961
0.003415644
0.003411331
0.003411376
0.003410744
0.003583027
0.003410483
0.003687031
0.003410732
0.003582781
0.003410478
0.003640529
0.003640531
0.003433307
0.003759025
0.003416646
0.003929844
0.003424741
0.003762163
0.003417397
0.003411375
0.003411346
0.003410724
0.00358272
0.003410477
0.003686495
0.003410723
0.00358269
0.003410477
0.003640465
0.003640463
0.003434162
0.003761649
0.003416296
0.003928167
0.003426447
0.003763363
0.003416809
0.00341137
0.003411385
0.003410721
0.003582676
0.003410475
0.003686438
0.003410721
0.003582679
0.003410475
0.003640446
0.003640448
0.003436197
0.00376237
0.003416645
0.0039195
0.00342952
0.003762494
0.003416931
0.003411407
0.00341136
0.003410721
0.003582674
0.003410476
0.003686457
0.003410721
0.003582674
0.003410475
0.003640448
0.003640446
0.00342553
0.003763478
0.003417065
0.003918257
0.003434976
0.00376233
0.003416039
0.003411356
0.003411358
0.003410723
0.003582683
0.003410477
0.003686693
0.003410724
0.003582721
0.003410478
0.00364045
0.003640448
0.003425908
0.003763432
0.003417001
0.003916351
0.003434012
0.003761834
0.003416263
0.003411349
0.003411359
0.003410732
0.00358278
0.003410478
0.003688473
0.003410744
0.003583072
0.003410483
0.003640484
0.003640489
0.003424801
0.003762131
0.003417459
0.00390672
0.003433416
0.003758926
0.003416621
0.00341138
0.003411404
0.003410457
0.003583233
0.003410481
0.003690019
0.003410484
0.003586441
0.00341048
0.00364059
0.003640576
0.003438795
0.003763259
0.003415637
0.003912012
0.003429963
0.003762359
0.003419433
0.00341126
0.003411378
0.003411501
0.003626756
0.003411026
0.003696807
0.003695752
0.0034116
0.003624353
0.003410969
0.003694818
0.003694568
0.003411616
0.00362058
0.003410975
0.003693793
0.003693361
0.003411589
0.003619968
0.003411064
0.003693179
0.003692586
0.003411806
0.003619561
0.003411095
0.003692384
0.003692066
0.003411516
0.003624339
0.003411174
0.00369224
0.003691964
0.003411453
0.003618559
0.003411229
0.003692199
0.003693103
0.003410914
0.003410537
0.003410673
0.003691556
0.003692214
0.003637216
0.003638591
0.003410955
0.003410592
0.003410748
0.003692259
0.003692935
0.003638764
0.00363988
0.003410636
0.003692885
0.003638164
0.003640622
0.003641775
0.003641356
0.003553806
0.003539112
0.003491475
0.00363396
0.003843849
0.003833169
0.003642906
0.003512073
0.003514888
0.003637652
0.003506094
0.003847649
0.003833025
0.003644375
0.003520483
0.003529164
0.00350644
0.003510421
0.003823862
0.003831468
0.003457106
0.003858115
0.003418887
0.003768792
0.003789276
0.003434551
0.003420216
0.003418414
0.003774281
0.003767631
0.003793181
0.003792765
0.003434897
0.00341971
0.003418927
0.003775623
0.003775831
0.003795476
0.003794334
0.003420332
0.003776643
0.003798515
0.0034196
0.003834839
0.003418632
0.003781109
0.003777257
0.003415723
0.003838911
0.003416731
0.003773497
0.003773599
0.003416789
0.003827604
0.003415723
0.003772289
0.003767317
0.003416058
0.003811775
0.003414365
0.003764203
0.003760289
0.003415986
0.003788303
0.003414857
0.003757967
0.003754524
0.003415266
0.003774101
0.00341431
0.003751853
0.0037473
0.003415485
0.003755103
0.003414174
0.003744339
0.003740114
0.003415348
0.003734163
0.003414011
0.003737154
0.003732751
0.003415344
0.003711867
0.003413995
0.003729706
0.003724919
0.003412724
0.00364294
0.003412528
0.003643844
0.003411265
0.003411396
0.003412214
0.003641885
0.003412493