/*--------------------------------*- C++ -*----------------------------------*\
  =========                 |
  \\      /  F ield         | OpenFOAM: The Open Source CFD Toolbox
   \\    /   O peration     | Website:  https://openfoam.org
    \\  /    A nd           | Version:  7
     \\/     M anipulation  |
\*---------------------------------------------------------------------------*/
FoamFile
{
    version     2.0;
    format      ascii;
    class       volScalarField;
    location    "0.1";
    object      Ux;
}
// * * * * * * * * * * * * * * * * * * * * * * * * * * * * * * * * * * * * * //

dimensions      [0 1 -1 0 0 0 0];

internalField   nonuniform List<scalar> 
77308
(
-0.001130477
-0.001240312
-0.0009898423
-0.00109164
-0.00140738
-0.001671336
-0.002823657
-0.00299467
-0.003950975
-0.004915382
-0.006126708
-0.00751308
-0.0003167896
-0.002712993
-0.004464448
-0.007192449
-0.008866202
-0.01135421
-0.003476253
-0.005130467
-0.007372163
-0.009880704
-0.01258704
-0.01524304
-0.004000613
-0.006506175
-0.009472513
-0.01262642
-0.01588904
-0.01940938
-0.005042473
-0.008151142
-0.01167601
-0.01532638
-0.01924314
-0.02340242
-0.0057885
-0.009377862
-0.01346189
-0.01766419
-0.02215264
-0.02693917
-0.006658036
-0.01054426
-0.01514517
-0.01978947
-0.02481221
-0.03012944
-0.00714445
-0.01151748
-0.01649589
-0.02158657
-0.02705091
-0.03286121
-0.007571408
-0.01236913
-0.0176809
-0.02310131
-0.02896939
-0.03515735
-0.008102559
-0.01290899
-0.01849813
-0.02424712
-0.03036354
-0.03690434
-0.008420688
-0.01338505
-0.01913041
-0.02489864
-0.03122198
-0.03786341
-0.005834276
-0.01247577
-0.01928583
-0.02459158
-0.03138632
-0.03847792
-0.006939377
-0.0145077
-0.02154561
-0.02962065
-0.03759991
-0.04583524
0.01794843
0.07364866
0.1039456
0.139847
0.1801462
0.221959
0.1451269
0.1838502
0.2254714
0.2763871
0.3267712
0.3796941
0.05741971
0.1388422
0.2096717
0.2702297
0.330809
0.3864754
0.1088607
0.1559201
0.220437
0.2802701
0.3406101
0.3966605
0.08927722
0.1513679
0.217231
0.281633
0.3473955
0.4068243
0.1065301
0.1653249
0.2353949
0.3006007
0.3638846
0.4235321
0.101992
0.1677443
0.2391961
0.3070678
0.3732414
0.4366969
0.1111948
0.1758862
0.2503638
0.3205455
0.3894734
0.4564665
0.1122046
0.1813285
0.2585263
0.3325133
0.405555
0.4774868
0.1177269
0.1890426
0.2696262
0.3478231
0.4255791
0.5045556
-0.001276633
-0.001539551
-0.001327888
-0.00163674
-0.001929397
-0.002321546
-0.001204069
-0.001201189
-0.001057544
-0.002764424
-0.003652399
-0.004983832
-0.006162093
-0.0006346663
-0.001808019
-0.003852232
-0.005275894
-0.007195818
-0.008953843
-0.01097663
-0.0007333283
-0.003229486
-0.005100619
-0.007579741
-0.009910102
-0.0125511
-0.01529997
-0.0003385325
-0.004093796
-0.006890778
-0.009673811
-0.01281763
-0.01602024
-0.0195359
-0.0008606442
-0.00469601
-0.008406216
-0.01170475
-0.01540064
-0.0192847
-0.02345406
-0.001370598
-0.005441162
-0.009683972
-0.01347514
-0.01776841
-0.02220674
-0.02701168
-0.001154544
-0.006306313
-0.0108164
-0.01514213
-0.0198794
-0.02486211
-0.03020408
-0.00122465
-0.006772848
-0.01183195
-0.01649323
-0.02169138
-0.02710329
-0.03294156
-0.001631004
-0.007267493
-0.0127128
-0.01772872
-0.0232559
-0.02906654
-0.03528283
-0.001640868
-0.007767804
-0.01323058
-0.01855339
-0.02435742
-0.03042704
-0.03699337
-0.001757074
-0.008617327
-0.01383426
-0.01951664
-0.02542005
-0.03177723
-0.038501
-0.0007701722
-0.006486425
-0.01327331
-0.01914545
-0.02443875
-0.03109855
-0.03772081
-0.006927959
-0.01143829
-0.01702594
-0.02351122
-0.02949632
-0.0359354
0.01431845
0.002043223
0.05579746
0.1215933
0.1521638
0.18487
0.2226571
0.03271649
0.1330275
0.1752252
0.2293975
0.2802845
0.3317804
0.3833894
-0.002529405
0.04875842
0.1277249
0.2039036
0.2702473
0.3353465
0.3937757
0.01073628
0.1100824
0.1547848
0.2184717
0.2786486
0.3387537
0.3961085
0.01576241
0.09115308
0.153956
0.221411
0.2854614
0.3469842
0.405811
0.01557484
0.09747471
0.1715065
0.2373303
0.301534
0.3626945
0.4220209
0.01652552
0.09348341
0.1730942
0.2390481
0.3077808
0.3728959
0.4364936
0.01654639
0.1042569
0.1810019
0.2494115
0.3206853
0.388581
0.455759
0.01750439
0.106193
0.1859967
0.2574608
0.3327688
0.4048679
0.477095
0.05260246
0.1119029
0.1934868
0.2684838
0.3479619
0.4247701
0.5042253
-0.001047374
-0.0004829943
-0.0007158057
-0.001189265
-0.00155274
-0.002001603
-0.001578172
-0.003220275
-0.002378539
-0.00360465
-0.004257977
-0.005578774
-0.006796543
-0.0001332631
-0.0007857087
-0.003854254
-0.004901897
-0.007150471
-0.00873038
-0.01086928
-0.00189562
-0.003708722
-0.005403977
-0.00779188
-0.01013921
-0.01266157
-0.01543909
-0.0008535132
-0.003674649
-0.006707986
-0.009489583
-0.01278345
-0.01595597
-0.01952288
-0.001601356
-0.004731539
-0.00816927
-0.01171019
-0.01539342
-0.01930419
-0.02348801
-0.001670265
-0.00533002
-0.009349608
-0.01338449
-0.01770081
-0.02218942
-0.02702179
-0.002054693
-0.006105
-0.01050247
-0.01506708
-0.01981234
-0.0248623
-0.03022663
-0.00216518
-0.00661174
-0.01144373
-0.01639891
-0.02162668
-0.02711575
-0.03298628
-0.002349595
-0.006949314
-0.01223036
-0.01763112
-0.02315625
-0.02907213
-0.03530867
-0.002392144
-0.007514554
-0.01286435
-0.01845718
-0.02436769
-0.0304904
-0.03710539
-0.0025609
-0.007600756
-0.01317558
-0.01946713
-0.02525528
-0.03170265
-0.03846008
-0.0005731763
-0.006172233
-0.01460659
-0.01884898
-0.02527358
-0.03140238
-0.03831717
-0.007595905
-0.03546541
-0.0642749
-0.0006345023
0.1247293
0.1656998
0.1759756
0.2528118
0.04341871
0.1472084
0.2110339
0.2007158
0.2647838
0.2969783
0.3449255
0.01776559
0.08859657
0.1561834
0.2020747
0.2729613
0.3299162
0.3912669
0.03069481
0.09314212
0.1611315
0.2134842
0.2776547
0.3392036
0.394049
0.01903671
0.08469053
0.1552703
0.2154902
0.2828798
0.3428227
0.4056067
0.02591636
0.09325926
0.1633425
0.2305626
0.2976548
0.359814
0.42295
0.02703705
0.09360866
0.1674122
0.234065
0.3056238
0.3713661
0.4365239
0.03168751
0.1003146
0.1755204
0.2464147
0.319207
0.3873477
0.4555596
0.03323076
0.102018
0.1808442
0.2554177
0.3312701
0.4039792
0.4767774
0.03642065
0.1080798
0.1885531
0.2665085
0.3466825
0.4237744
0.5041973
-0.001086673
-0.001640539
-0.001184163
-0.001544003
-0.001721061
-0.002143255
-0.001523115
-0.00270704
-0.001913241
-0.003249918
-0.00390472
-0.005278201
-0.006323053
-0.001253714
-0.001143704
-0.004706642
-0.005260305
-0.007475831
-0.0089721
-0.01107215
-0.002071165
-0.003704466
-0.005503341
-0.007870927
-0.01006428
-0.01270178
-0.01539625
-0.0008758956
-0.003891828
-0.006942671
-0.009688399
-0.01293264
-0.01607865
-0.01962538
-0.001622325
-0.004823
-0.008230825
-0.01177718
-0.01543492
-0.01935513
-0.02352416
-0.001616548
-0.005395654
-0.009429262
-0.01345689
-0.01778137
-0.02225912
-0.02709475
-0.001915903
-0.006021222
-0.01053844
-0.01511025
-0.01988165
-0.02493453
-0.03030805
-0.002033236
-0.006594503
-0.01150327
-0.01645641
-0.02172359
-0.02721054
-0.03309759
-0.002291226
-0.007036258
-0.01229623
-0.01774351
-0.02329696
-0.02921381
-0.03546352
-0.00223313
-0.007576659
-0.0129693
-0.01858225
-0.02451794
-0.03062715
-0.0372594
-0.002453908
-0.00768981
-0.01316364
-0.01964846
-0.02536149
-0.03178876
-0.0385162
-0.000330554
-0.005929726
-0.01487185
-0.01930642
-0.02577792
-0.03199746
-0.03900108
-0.007444459
-0.02844681
-0.07083845
-0.01617137
0.122489
0.170066
0.1938712
0.214227
0.04705471
0.1479205
0.2267379
0.178421
0.2380663
0.2866147
0.3639893
0.03074435
0.09133987
0.1676231
0.2018762
0.2681276
0.336694
0.4005191
0.0308326
0.09467548
0.1674395
0.2140364
0.2762416
0.3384832
0.3987227
0.0235923
0.0835425
0.1589429
0.2210062
0.2782483
0.3480719
0.4050669
0.02559927
0.08992163
0.170121
0.2322435
0.2952595
0.3644662
0.4209672
0.02931542
0.0929484
0.1704187
0.2375453
0.3056729
0.3727846
0.4358028
0.0334161
0.1024712
0.1771466
0.2478133
0.3193391
0.3880522
0.4554501
0.03318612
0.1019522
0.1819598
0.2560016
0.3318442
0.4044991
0.4769558
0.0354174
0.1093402
0.1896679
0.2671826
0.3473795
0.4242033
0.5047611
-0.001031388
-0.001194899
-0.0009925627
-0.001491936
-0.001603277
-0.002106143
-0.00187354
-0.003036272
-0.002049616
-0.003563342
-0.00414256
-0.005441954
-0.00652429
-0.001858749
-0.0006714695
-0.004747079
-0.005084808
-0.007494837
-0.008890922
-0.01104948
-0.002178395
-0.004040237
-0.005644968
-0.00801103
-0.01019546
-0.01277114
-0.01547828
-0.0009033595
-0.003852313
-0.00691383
-0.009628175
-0.01293425
-0.01605899
-0.01963136
-0.001686427
-0.004872168
-0.008210444
-0.01179395
-0.01545849
-0.01938142
-0.02355888
-0.001608927
-0.005351351
-0.009353111
-0.01342066
-0.01777116
-0.02226777
-0.0271186
-0.001950317
-0.006001336
-0.01046418
-0.0150903
-0.01987827
-0.02496174
-0.03034591
-0.002040241
-0.006544688
-0.01140801
-0.01642478
-0.02172317
-0.02724973
-0.03314897
-0.002265629
-0.006931882
-0.01216367
-0.01770044
-0.02327878
-0.02924088
-0.03550176
-0.002195483
-0.007516685
-0.01286253
-0.01852641
-0.02450852
-0.03063561
-0.03729338
-0.002434506
-0.007556291
-0.01297476
-0.01959836
-0.02529102
-0.03175304
-0.03848571
-0.000341367
-0.005849046
-0.01478816
-0.01916499
-0.02577193
-0.03191848
-0.03896512
-0.007507701
-0.02616277
-0.09038593
-0.09606007
0.04890779
0.2278299
0.1722916
0.2752968
0.04929052
0.1518961
0.3000184
0.2346312
0.2042667
0.2857606
0.3010574
0.03285856
0.09359724
0.1782761
0.2239134
0.2586204
0.3255078
0.3782807
0.03499862
0.09632337
0.1621654
0.2190901
0.2729304
0.3353149
0.387629
0.01982595
0.0870274
0.1522878
0.2171391
0.2871541
0.3349738
0.4074171
0.02363306
0.09699603
0.154481
0.2294302
0.288834
0.3550209
0.4202509
0.02602005
0.09124083
0.1658018
0.226589
0.3037928
0.3669966
0.4357143
0.03006226
0.09981707
0.1731762
0.2442847
0.3195066
0.3863026
0.4557759
0.03194387
0.10071
0.1801879
0.2552025
0.3315651
0.4039291
0.4770099
0.03517753
0.1083832
0.1881424
0.2662037
0.3468026
0.4235268
0.504761
-0.001085452
-0.001614837
-0.001177212
-0.001560386
-0.001719752
-0.002167056
-0.002213468
-0.002901593
-0.002011772
-0.00345519
-0.004032416
-0.005408992
-0.006462641
-0.00196948
-0.000773109
-0.00492772
-0.005208694
-0.007583805
-0.009007215
-0.01114243
-0.002201718
-0.004005918
-0.005653265
-0.008022306
-0.01018496
-0.01280009
-0.01548854
-0.0009510913
-0.003897075
-0.006989216
-0.009693916
-0.01298677
-0.01611706
-0.01968027
-0.001707421
-0.004886256
-0.008233674
-0.01181913
-0.01547707
-0.01940881
-0.02358026
-0.001621123
-0.005370314
-0.009379211
-0.01344849
-0.01779583
-0.02229437
-0.02714189
-0.00194523
-0.005998546
-0.01047368
-0.01510344
-0.01989163
-0.02497814
-0.03036069
-0.002046314
-0.006555019
-0.01142057
-0.01643836
-0.02173593
-0.02726278
-0.03316131
-0.002279094
-0.006948415
-0.01217293
-0.01771281
-0.02328774
-0.02925085
-0.03551037
-0.002199168
-0.007521798
-0.0128678
-0.01853321
-0.02451473
-0.03064316
-0.03730088
-0.002434809
-0.007559499
-0.01298058
-0.01960337
-0.02529559
-0.03175883
-0.03849048
-0.0003310909
-0.005828636
-0.01478922
-0.01917166
-0.02577654
-0.03192417
-0.03897151
-0.007548986
0.004804688
0.03065812
-0.03622353
0.06472403
0.2474466
0.1919614
0.2726831
0.05012921
0.1533164
0.2977396
0.2257792
0.2016282
0.2913195
0.3031921
0.03314778
0.09324622
0.1781511
0.2226848
0.2572967
0.325955
0.381953
0.03519747
0.09538184
0.1617769
0.2203819
0.2724153
0.3363063
0.3887231
0.01981063
0.08711221
0.151897
0.2170873
0.2869883
0.3341645
0.4077532
0.02407887
0.09706061
0.1546782
0.2294098
0.28866
0.354897
0.4204016
0.02619927
0.09098829
0.1658381
0.2262646
0.3038311
0.3668704
0.4357893
0.02960203
0.09992782
0.1730951
0.2442412
0.3195645
0.386356
0.455895
0.03187174
0.1007396
0.1801852
0.2552936
0.3317173
0.4039841
0.4770513
0.03515761
0.1083461
0.1880272
0.2661488
0.3468838
0.4236303
0.5048896
-0.001058363
-0.001180231
-0.0009649261
-0.001434459
-0.00162547
-0.002089364
-0.001431285
-0.0030062
-0.002066854
-0.003571338
-0.004175571
-0.005469807
-0.006568526
-0.001301579
-0.0009988394
-0.004495111
-0.005224289
-0.007448699
-0.008971954
-0.01109113
-0.0020632
-0.003795118
-0.005573453
-0.007989136
-0.01022472
-0.01281587
-0.0155251
-0.000892402
-0.003882381
-0.006911516
-0.0096932
-0.01295236
-0.01611147
-0.01966581
-0.001631492
-0.004842985
-0.008262132
-0.01183077
-0.0154944
-0.01941333
-0.02358437
-0.001638886
-0.005405453
-0.009430912
-0.01347744
-0.01780107
-0.02228744
-0.02712541
-0.001930579
-0.006046417
-0.01055494
-0.01513331
-0.01990623
-0.02496204
-0.03033668
-0.002038104
-0.006582363
-0.01149784
-0.0164682
-0.0217336
-0.0272275
-0.03311458
-0.002279156
-0.007001292
-0.01228972
-0.01774848
-0.02330531
-0.02922891
-0.03547907
-0.002237674
-0.007572348
-0.01297196
-0.01859292
-0.02452651
-0.03063906
-0.03726951
-0.002461943
-0.007697705
-0.01316659
-0.01965059
-0.02537005
-0.03180768
-0.03853377
-0.0003284145
-0.005860422
-0.01488588
-0.01931291
-0.02578994
-0.03201224
-0.03901216
-0.007282831
-0.008497271
0.02443689
-0.04077336
0.1075034
0.1636355
0.1957621
0.2123289
0.04556303
0.1415281
0.2171131
0.1842393
0.2368089
0.2874492
0.3602285
0.03084834
0.09052169
0.1675054
0.2019728
0.2670406
0.3362933
0.3991074
0.03097833
0.09449595
0.1691033
0.2146982
0.2760492
0.3381712
0.3979856
0.02399244
0.08347828
0.1594319
0.2216441
0.2780651
0.3480813
0.4047665
0.02595217
0.09031814
0.1706979
0.2324293
0.2952587
0.3645417
0.4208212
0.02934809
0.09291666
0.1706488
0.2375884
0.3057135
0.3727884
0.4357659
0.0331587
0.1022473
0.1772216
0.2478087
0.3193524
0.3879984
0.4554037
0.03311381
0.1018066
0.1820143
0.2559621
0.3318076
0.4043685
0.4768746
0.03540794
0.1093652
0.1897639
0.2671709
0.3472771
0.4238925
0.504468
-0.001114542
-0.001184997
-0.001102526
-0.001485994
-0.001754914
-0.002203798
-0.0008962375
-0.002820454
-0.002169432
-0.003635335
-0.004240069
-0.005587879
-0.006670815
-0.0005692786
-0.001048137
-0.004396543
-0.005279251
-0.007489816
-0.009090108
-0.01119616
-0.001919292
-0.003673392
-0.005572452
-0.007970417
-0.01023765
-0.01286272
-0.01557393
-0.0009662232
-0.003825519
-0.006903379
-0.009711872
-0.01295343
-0.01614417
-0.01969204
-0.001676109
-0.004827859
-0.008256297
-0.01182885
-0.01548537
-0.01941923
-0.02358506
-0.001726412
-0.005405651
-0.009420494
-0.0134748
-0.01777784
-0.02227606
-0.02710061
-0.002010467
-0.006030025
-0.0105336
-0.01510914
-0.0198614
-0.02492052
-0.03028106
-0.002183067
-0.006641124
-0.01147525
-0.01644611
-0.02166629
-0.02716061
-0.03302738
-0.002404973
-0.007044456
-0.01225565
-0.01767325
-0.02318467
-0.02910662
-0.03533841
-0.002403485
-0.007537775
-0.01288417
-0.01848568
-0.02439061
-0.03051675
-0.03712595
-0.002566446
-0.007613524
-0.01319827
-0.01948548
-0.02527581
-0.03172678
-0.03847887
-0.0003929055
-0.005734894
-0.01460967
-0.01886836
-0.0252807
-0.03141691
-0.03831963
-0.007391992
-0.007086967
0.01742313
-0.0006183636
0.1383232
0.1488105
0.1998
0.2385323
0.04246963
0.1465074
0.206985
0.2031645
0.2686641
0.294589
0.3480813
0.01720303
0.08881291
0.1547506
0.2018884
0.2746957
0.331024
0.3933333
0.03046844
0.09433003
0.160169
0.216167
0.2775894
0.3389108
0.3952507
0.01954096
0.08480366
0.15526
0.2152755
0.2825619
0.3433288
0.4058744
0.02623284
0.09401046
0.1635893
0.23037
0.2977803
0.3603681
0.4230809
0.02718459
0.09384502
0.1676416
0.2339696
0.3058657
0.3714945
0.4366125
0.03179553
0.1004024
0.1754814
0.2463342
0.3193731
0.3874989
0.4557674
0.03312906
0.1021302
0.1809333
0.2556601
0.3317736
0.4040747
0.4768671
0.03628693
0.1079656
0.1883707
0.2662158
0.3468806
0.424098
0.5047367
-5.038153e-05
-0.000851657
-0.001215242
-0.001515749
-0.001743127
-0.002010028
-0.000744413
-0.001809281
-0.002072654
-0.003487495
-0.004376066
-0.005567421
-0.006734304
-0.0009893061
-0.001700267
-0.003425989
-0.005192509
-0.007180557
-0.009007211
-0.01107218
3.231276e-05
-0.003343358
-0.005431628
-0.00787011
-0.01019942
-0.01282942
-0.01556295
-0.0008545919
-0.004127144
-0.006896434
-0.009764653
-0.01289705
-0.01613476
-0.01964994
-0.0008440023
-0.004925736
-0.008452044
-0.01185851
-0.01552186
-0.01941885
-0.02357956
-0.001140643
-0.005607615
-0.00966794
-0.01355621
-0.01782263
-0.02228301
-0.027084
-0.001154408
-0.006241111
-0.01087898
-0.01519203
-0.01993622
-0.02492642
-0.03026741
-0.00109764
-0.006854316
-0.01177305
-0.01654442
-0.02171563
-0.02714937
-0.03298138
-0.0013188
-0.007299751
-0.01265765
-0.01775748
-0.02327292
-0.02910876
-0.03532124
-0.001835849
-0.007853004
-0.01323005
-0.01859626
-0.02437994
-0.03044787
-0.03700653
-0.001407762
-0.008696583
-0.01384522
-0.01950487
-0.02543739
-0.03187344
-0.03859081
-0.0005781224
-0.005100343
-0.01221027
-0.01727791
-0.0230877
-0.02918447
-0.03586543
-0.007231106
-0.01167702
-0.01870556
-0.0263972
-0.03431204
-0.0424232
5.325496e-05
-0.06746301
0.01150778
0.07248829
0.107898
0.1387486
0.1609432
0.07349269
0.1291335
0.1762659
0.2318415
0.2788707
0.3313308
0.3863176
-0.01477391
0.04717559
0.1281237
0.2046925
0.2686786
0.3343769
0.3937591
0.01187206
0.1064966
0.1534877
0.2183973
0.2781309
0.3384989
0.3963538
0.01335135
0.09125556
0.1538952
0.2212147
0.285773
0.3471363
0.4057507
0.01659846
0.0975988
0.1718837
0.2372703
0.3017745
0.3628605
0.4220651
0.01885695
0.09327542
0.1734536
0.2389766
0.3079993
0.372906
0.4365391
0.01821481
0.1040602
0.1811021
0.2493488
0.3208265
0.3885816
0.4558198
0.01920981
0.106272
0.1861674
0.2576117
0.3330103
0.4047483
0.4770702
0.01736129
0.1120215
0.1938029
0.2687666
0.3483165
0.4245776
0.5040077
-0.000500026
-0.001074648
-0.001190434
-0.001366281
-0.001559185
-0.001770203
-0.003093698
-0.0006895158
-0.002199191
-0.003303493
-0.004302956
-0.005466461
-0.006615024
-0.0009168275
-0.001848642
-0.003769541
-0.005372707
-0.00729943
-0.009115076
-0.01116556
-0.001097284
-0.003282373
-0.00542741
-0.007869401
-0.01022773
-0.01286128
-0.01559465
-0.0007399797
-0.004381847
-0.006797796
-0.009809903
-0.01288258
-0.0161478
-0.0196487
-0.0007239973
-0.005235299
-0.008232727
-0.01188588
-0.01547569
-0.01941163
-0.02355336
-0.001607313
-0.005829747
-0.00944113
-0.01357668
-0.01776213
-0.02226438
-0.02704225
-0.0004295372
-0.006621576
-0.01059961
-0.01521397
-0.01985705
-0.02489071
-0.03020455
-0.001091931
-0.007395308
-0.01153801
-0.01658287
-0.021634
-0.027109
-0.03291116
-0.002445241
-0.007695536
-0.01237776
-0.01773153
-0.02313463
-0.02901447
-0.03519634
-0.001010247
-0.008154701
-0.0129434
-0.0185495
-0.02428519
-0.03039693
-0.03691277
-0.001073847
-0.008472184
-0.01344169
-0.01912989
-0.02493428
-0.03125663
-0.03789774
-0.0005203635
-0.006312428
-0.01211818
-0.01790968
-0.02388036
-0.03041671
-0.03687436
-0.006848013
-0.01381368
-0.02125029
-0.02891656
-0.03675147
-0.04539774
-0.02648358
0.02146801
0.03746965
0.08721904
0.1244164
0.1774977
0.2128586
0.04270645
0.1497538
0.1832804
0.2274385
0.2768756
0.3272731
0.3825621
0.00129029
0.05846503
0.1409769
0.2097484
0.2712657
0.3305803
0.3870445
0.01701234
0.1082149
0.1562215
0.2205565
0.2809306
0.340128
0.3969259
0.00829235
0.08847226
0.1511433
0.2169226
0.2811814
0.3473367
0.4064049
0.01188572
0.1059839
0.1651796
0.2349475
0.3005023
0.3642462
0.4234688
0.006177214
0.09907762
0.1685672
0.2386641
0.3074291
0.3733429
0.4367108
0.00916839
0.1097651
0.1761795
0.2499653
0.3207703
0.3896605
0.4567366
0.009390927
0.1122014
0.1816344
0.2589488
0.3334433
0.4056802
0.4775983
0.009923229
0.1174096
0.1889705
0.2688259
0.3479396
0.4262441
0.5057378
-0.003942435
0.002613376
-0.005231685
-0.003629561
0.00294701
-0.0009516435
-0.001395047
0.004492326
-0.0001725252
-0.0003474329
0.002259139
0.002661193
-0.0004284532
-0.0008671838
0.003670987
-0.001142568
0.0007474163
0.002589445
0.001707581
-0.0005699867
-0.003291371
0.001929553
-0.001520133
0.0004200193
8.046213e-05
-0.0007118094
-0.0006212883
-0.005628056
0.001475593
-0.001798729
0.0003684928
-0.001612307
-0.001472104
-0.0009352934
-0.006266999
0.0006495956
-0.0021093
7.34502e-05
-0.001910249
-0.002514089
-0.007509447
-0.002383886
-0.002874313
-0.007085742
0.004639732
-0.003014737
-0.008862341
0.001140996
0.004973705
-0.006531174
0.006251431
-0.0009652634
-0.006408387
0.0006242403
0.007269049
-0.008247802
0.004703049
-0.001093538
-0.008645104
0.0005385196
0.004769695
-0.007739168
0.004215959
-0.0007017712
-0.008347124
0.0001877568
0.004692881
-0.00847216
0.00315855
-0.0006868504
-0.008685528
0.0001925514
0.003438718
-0.008191002
0.002258729
-0.0007517953
-0.008661959
-0.0001018892
0.002763082
-0.00776517
0.001355387
-0.0007559278
-0.008342801
1.651778e-05
0.001599346
-0.007335993
0.0004954635
-0.0009074739
-0.00802545
-2.260769e-05
0.000476667
-0.007009257
-0.0005340439
-0.001019379
-0.007508985
-0.0003376208
-0.0004519624
-0.006417783
-0.001828344
-0.0009948795
-0.00665997
-0.0004207595
-0.001492582
-0.005945016
-0.002982689
-0.0008772766
-0.006152953
-0.0003358811
-0.002798199
-0.004400429
-0.005228753
-0.0006855593
-0.004183494
-0.0006095291
-0.004351495
-0.006494654
-0.01718489
-0.0059099
-0.002473107
-0.01374531
-0.004228535
0.0008847819
-0.006772422
-0.01256904
-0.01520332
0.02399201
-0.0210022
0.007614152
0.0187296
-0.01380397
-0.02012797
0.008421031
0.02140603
-0.02866975
0.0438022
0.04087702
-0.02127516
-0.0277052
0.01186604
0.05158218
-0.03661809
0.06831572
0.04786401
-0.02893989
-0.0357281
0.04572805
0.04902883
-0.04528081
0.08070812
0.05588987
-0.03701585
-0.04416688
0.0429772
0.04858609
0.08870702
-0.04543192
0.04417072
0.02156458
-0.0401174
-0.02091635
0.07659991
-0.00323199
0.01116045
0.08751356
0.05504883
0.04471718
0.1024807
0.01136869
0.0747325
0.04831119
-0.04175275
0.004553876
0.05494833
0.001639416
-0.03791236
0.06939978
0.02365964
0.01696248
0.08028261
0.006251712
0.03849549
0.06273535
0.01709813
0.00937795
0.07331963
0.004850906
0.003943829
0.06397227
0.0173477
0.01272029
0.08153451
0.00498732
0.02768797
0.06562624
0.01813415
0.0099275
0.08156686
0.00500089
0.01919822
0.06697129
0.01914904
0.01039163
0.08325622
0.005850493
0.02929552
0.06900644
0.02153556
0.009723733
0.08511342
0.005063798
0.0281025
0.07063646
0.02541584
0.01005171
0.08435343
0.005525527
0.03349595
-0.006826476
-0.003328177
0.002400106
-0.006595203
-0.00368227
0.002636083
-0.004527372
-0.06951876
-0.00456912
0.03216967
-0.006722176
-0.003697429
0.001963194
-0.006801737
-0.004342817
0.002199907
-0.003775826
-0.001972981
-0.003502247
-0.05535238
-0.006862182
-0.004768337
0.001716794
-0.00681235
-0.003400002
0.001720342
-0.003542827
-0.00741529
-0.003381772
-0.07667773
-0.006831197
-0.003206058
0.00161865
-0.006873553
-0.004369569
0.001844458
-0.003437661
-0.01055616
-0.003395656
-0.04902816
-0.006862073
-0.004964856
0.001637514
-0.006879056
-0.004375973
0.001804081
-0.003410798
-0.07444515
-0.003431414
-0.01018742
-0.006811942
-0.003418694
0.00163942
-0.0067733
-0.003452442
0.001664224
-0.003375683
-0.08488091
-0.003599872
-0.005967482
-0.006642123
-0.003473673
0.001406721
-0.006650476
-0.004476864
0.001442174
-0.0035205
-0.0536868
-0.003785588
-2.028985e-05
-0.005208905
-0.00409311
6.003407e-05
-0.005269362
-0.003754154
-0.0002064835
-0.004588614
0.03208012
-0.004547666
-0.06975322
-0.0006720319
-0.004007506
0.0007953461
-0.0004082099
0.0005108414
-0.0004949283
-0.0004266819
-0.002945234
0.0006175725
0.0004852083
-0.000682411
-0.0009947991
-0.00327398
0.0008568168
0.0004020064
-0.001427266
-0.001682394
-0.003996638
0.0004652475
0.0003039874
-0.001971887
-0.002242076
-0.004695085
-1.183902e-05
0.0002013299
-0.002519356
-0.002816419
-0.005473576
-0.0004813717
-0.003114264
-0.006319594
-0.007492292
0.0004247637
0.006290349
-0.007411832
0.005473003
-0.008334467
0.0005352747
0.005036068
-0.008180843
0.004718272
-0.008642568
8.200874e-05
0.00379159
-0.008503292
0.003168455
-0.008405736
-0.0006816875
0.002771847
-0.007810469
0.002088012
-0.004227165
-0.0006362314
-0.004387216
-0.004365117
-0.00493529
-0.006012297
-0.006809844
-0.006099087
-0.01754827
-0.03519775
0.0137717
0.0519779
-0.02954887
-0.03709519
0.05059
0.0595159
-0.04512966
0.03366416
0.03594925
-0.03756074
-0.04362745
0.07402372
0.03857132
0.03418309
-0.04484245
0.06342928
0.004432312
0.00172646
0.003202686
-0.009237187
-0.009811113
0.004601092
0.001250402
-0.01076878
-0.01188747
0.00306813
-0.0002333287
-0.01239062
-0.01322892
0.001450782
0.001623156
-0.01030662
-0.01119783
0.002976015
0.0002650612
-0.01073233
-0.01164705
0.001730962
3.670259e-05
-0.009975691
-0.01089098
0.001423177
-4.921317e-05
-0.008938113
-0.009733325
0.001259889
-0.0002891002
-0.008076465
-0.008797252
0.0008853877
-0.0008120451
-0.007232299
-0.007928354
0.0002376631
-0.001108919
-0.006010365
-0.006515629
-0.0002190281
-0.001164847
-0.004496171
-0.004781975
-0.0006385873
-0.0005644651
-0.002537221
-0.002528607
-0.000584253
-0.01049307
-0.00602892
-0.01174377
-0.006299305
-0.009592733
-0.006459853
-0.01018895
-0.01690051
-0.01264602
-0.01837523
-0.01210098
-0.01532606
-0.01176209
-0.0156896
-0.02432324
-0.02006943
-0.02571179
-0.0178615
-0.02112888
-0.01757323
-0.02168974
-0.03052252
-0.02735723
-0.03315885
-0.02375718
-0.02732394
-0.02367919
-0.02796239
-0.03785547
-0.03456994
-0.04099904
-0.03007587
-0.03380212
-0.03006644
-0.03453997
-0.04232216
-0.03692874
-0.03684649
-0.002732335
-0.001939815
-0.009382045
-0.006019865
-0.007669316
-0.01629207
-0.01241458
-0.01354118
-0.02326736
-0.01857921
-0.01881376
-0.03105392
-0.02441219
-0.02434829
-0.03899842
-0.0312041
-0.03089937
-0.04746814
-0.03871601
-0.03821421
0.00334298
0.03588139
-0.02075154
0.03544291
0.0634958
0.04800879
0.0655812
0.01739264
0.06261659
0.0134618
0.05359948
0.1172285
0.143571
0.1255209
0.04917016
0.09280551
0.08553384
0.1468015
0.1544316
0.2078701
0.1783509
0.07848994
0.1097713
0.1673842
0.2142314
0.1953072
0.2699512
0.2423562
0.1330455
0.152276
0.2387626
0.2794461
0.2369876
0.3241063
0.3004486
0.1813906
0.2088841
0.2944795
0.334694
0.3734664
0.2265581
0.3525425
0.06072165
0.006275093
0.01097359
0.04260808
0.01907913
-0.0001342441
0.003326323
0.009556079
0.05382868
0.006832736
0.009149677
0.02387076
0.04014464
-0.003044577
0.01148976
0.01200548
0.05309276
0.01497775
0.01870884
0.02176541
0.05094668
0.01169101
0.02393581
0.01758929
0.05217619
0.01855159
0.02862617
0.02066358
0.04965027
0.02010602
0.0339854
0.02100897
0.04570949
0.02668975
0.03824774
0.02235664
-0.0006879948
-0.0005227977
-0.004287474
-0.0004154721
-0.004342399
-0.000558465
-0.003933054
-0.0003971773
-0.004685262
-0.001561013
-0.001941931
0.1396409
0.01135645
0.05810056
0.00792841
0.08911687
0.01342305
-0.0007997772
0.000303391
-5.468458e-05
-0.004385017
-0.0003574898
-0.004035151
-0.0003900384
-0.004221464
-0.0003660938
-0.004073638
-0.001440682
-0.001589101
0.124786
-0.003081966
0.03503442
-0.009832855
0.1474752
0.01338953
0.04127921
-0.0002060924
0.0006156227
-0.004371305
-0.0003259712
-0.004080247
-0.0003379559
-0.004234864
-0.0003525793
-0.004057036
-0.00133243
-0.001347617
0.1081664
0.01213505
0.01824785
-0.008329947
0.1501368
0.01245573
0.04123783
-6.407589e-05
-0.0004446899
-0.004262693
-0.0003202143
-0.004104481
-0.0003421475
-0.00422681
-0.0003436823
-0.004102434
-0.001317513
-0.001320718
0.1010036
0.009501856
0.01159266
0.01226419
0.1410814
0.007978061
0.02796356
-0.0007632482
8.558599e-05
-0.004227316
-0.000324415
-0.004104821
-0.0003309018
-0.004259194
-0.0003245979
-0.004103275
-0.001337651
-0.001308113
0.1468375
0.01281899
0.03598953
-0.03055011
0.08969075
-0.002951939
0.01242616
-0.0006569363
-0.0002563799
-0.004232488
-0.0003509496
-0.004064183
-0.0003248986
-0.004382427
-0.0003267934
-0.004084497
-0.001306477
-0.001273934
0.1461378
0.0153058
0.04463052
-0.02865234
0.105624
-0.001046885
0.01783414
-0.0004820302
-0.0007008174
-0.00422237
-0.0003654288
-0.004084405
-0.0005708662
-0.004394038
-0.0003576983
-0.004045408
-0.00139703
-0.001365536
0.1467756
0.01584566
0.04008586
-0.03535265
0.1269512
-0.002439344
0.03533669
-0.0003706674
-0.0008278397
-0.003967506
-0.000398423
-0.004725356
-0.0007522008
-0.00433656
-0.0004352795
-0.004369331
-0.001831995
-0.001628502
0.09187977
0.01624382
-0.0002064486
0.0186036
0.1453446
0.0142997
0.06094382
-0.0009817675
-0.001015599
-0.007543982
0.001180442
0.006404159
-0.005808519
0.005917676
-0.008568113
0.0001758311
0.004470337
-0.00796273
0.003995432
-0.008072094
-0.000340042
0.001747928
-0.008125094
0.001225944
-0.007971107
-0.001178887
-2.459008e-05
-0.007159106
0.0004161267
-0.006592128
0.0009407415
-0.0007554107
-0.007440062
-0.0007729034
-0.006908781
-0.0007455975
-0.001662355
-0.006296881
-0.001817409
-0.006038318
-0.0004487383
-0.002775333
-0.005904311
-0.002925896
-0.02764141
-0.02371873
-0.02807593
-0.02464737
-0.03068631
-0.02738364
-0.03322293
-0.03384518
-0.03012401
-0.03455144
-0.03144319
-0.0382819
-0.03457628
-0.04145041
-0.03701429
-0.03772091
-0.04221899
-0.002165163
-0.001840389
-0.0130618
-0.01935162
-0.02270383
-0.006794811
-0.01162899
-0.01135632
0.02256687
-0.02012785
0.006655984
0.04947195
-0.0147382
-0.02109083
0.01017685
-0.008223352
-0.02769191
0.01819967
0.04528679
-0.02151872
-0.02866773
0.0525428
0.06485969
0.08100673
-0.005251108
0.007013834
0.02727598
-0.04191572
0.1696554
0.2370582
0.2851841
0.1393283
0.180103
0.2739472
0.2323456
0.1989796
0.293591
0.3361707
0.1925332
0.2490159
0.3268622
0.3136978
0.3547301
0.2057224
0.3735005
0.09887236
-0.02002259
0.08788009
0.08944898
0.04274974
0.06633879
-0.002589767
-0.03864362
0.04581118
-0.04661057
0.08017219
0.006100721
0.04159516
0.06828827
0.02372005
0.07400465
0.004353485
0.003361407
0.06214614
0.01677959
0.08012891
0.004760603
0.03030619
0.06217086
0.01545484
0.08177922
0.005905419
0.0204009
0.06726962
0.01976524
0.08352491
0.00555145
0.02958414
0.06864145
0.01964117
0.08479818
0.004956955
0.02779266
0.06938121
0.02163738
0.08400291
0.00545783
0.03314953
0.07069411
0.02542919
-0.004696999
0.006616234
0.007433632
-0.004973532
-2.192724e-05
0.0009944416
-0.004228302
0.008169457
0.008119055
-0.004785637
-0.002535927
0.008989226
0.0095848
-0.003801822
-0.001704055
0.01052673
0.0108914
-0.001939671
-0.002285678
0.008766891
0.008898386
-0.003044049
-0.002360318
0.008123955
0.008180619
-0.002879708
-0.002391208
0.007289848
0.007229009
-0.00276786
-0.002538604
0.006094729
0.005938725
-0.00297175
-0.002564604
0.004863
0.004755645
-0.003050364
-0.002401691
0.003638728
0.003620381
-0.002835632
-0.002420057
0.002214408
0.002230316
-0.002707563
-0.002517883
0.0004343033
0.0003621136
-0.002540569
-0.002016728