/*--------------------------------*- C++ -*----------------------------------*\
  =========                 |
  \\      /  F ield         | OpenFOAM: The Open Source CFD Toolbox
   \\    /   O peration     | Website:  https://openfoam.org
    \\  /    A nd           | Version:  7
     \\/     M anipulation  |
\*---------------------------------------------------------------------------*/
FoamFile
{
    version     2.0;
    format      ascii;
    class       volScalarField;
    location    "0.1";
    object      Ux;
}
// * * * * * * * * * * * * * * * * * * * * * * * * * * * * * * * * * * * * * //

dimensions      [0 1 -1 0 0 0 0];

internalField   nonuniform List<scalar> 
109978
(
-0.4992875
-0.4940831
-0.4942322
-0.494519
-0.4947754
-0.4949393
-0.5048196
-0.501782
-0.5026335
-0.50322
-0.5038193
-0.5040453
-0.5054468
-0.5036736
-0.5031161
-0.5036883
-0.5038717
-0.5040034
-0.5042734
-0.5038697
-0.5031483
-0.5032705
-0.5034971
-0.5036302
-0.5047233
-0.5029735
-0.5035606
-0.5033066
-0.5033958
-0.5035045
-0.5045116
-0.503813
-0.5036056
-0.5032248
-0.5033268
-0.5034848
-0.5027306
-0.5047207
-0.5030822
-0.503204
-0.5033445
-0.5035276
-0.5031993
-0.5045351
-0.5032994
-0.5031888
-0.5033267
-0.5035415
-0.5038831
-0.504546
-0.5034995
-0.5031627
-0.5032933
-0.5035437
-0.5028314
-0.5045511
-0.5034889
-0.5031545
-0.503283
-0.5035501
-0.5034001
-0.5045327
-0.5034759
-0.5031415
-0.5032655
-0.5035393
-0.5036231
-0.504529
-0.5033682
-0.503123
-0.5032604
-0.5035348
-0.5030027
-0.5045147
-0.5033749
-0.5031141
-0.5032464
-0.5035237
-0.5038552
-0.504472
-0.5034109
-0.5030919
-0.5032296
-0.5035119
-0.5031009
-0.5041679
-0.5031398
-0.5029819
-0.5032169
-0.5034963
-0.5031129
-0.5044324
-0.5031057
-0.5029736
-0.5032082
-0.5034811
-0.5037308
-0.5041004
-0.5030957
-0.5029269
-0.503198
-0.5034803
-0.5028241
-0.504475
-0.5031717
-0.5029575
-0.5032078
-0.5034854
-0.5041499
-0.5043543
-0.5030905
-0.5029735
-0.5032037
-0.5034857
-0.5032775
-0.5045385
-0.5032104
-0.5031002
-0.503222
-0.5034947
-0.5036753
-0.5044441
-0.5034483
-0.5030987
-0.5032241
-0.5034807
-0.5030082
-0.5043743
-0.5035287
-0.5031044
-0.5032264
-0.5034675
-0.4908511
-0.5043288
-0.5035495
-0.5030864
-0.50324
-0.5034557
-0.4952111
-0.4952904
-0.4951924
-0.4954416
-0.495551
-0.4955798
-0.5011184
-0.5007301
-0.495977
-0.4983287
-0.4975001
-0.4980245
-0.4971554
-0.49969
-0.4975803
-0.4983738
-0.4979121
-0.4981475
-0.4982023
-0.499271
-0.4963982
-0.498459
-0.4977793
-0.4981607
-0.4979054
-0.4991068
-0.4970267
-0.4985155
-0.4978901
-0.4981828
-0.4980871
-0.4989907
-0.4967363
-0.4986248
-0.4978527
-0.4982689
-0.4980276
-0.498832
-0.4970142
-0.4985994
-0.4980332
-0.498368
-0.4979553
-0.4989804
-0.497103
-0.4985591
-0.4979813
-0.4983212
-0.4979089
-0.4989201
-0.4971672
-0.4985985
-0.4980526
-0.4983617
-0.4979028
-0.4989687
-0.4972371
-0.4986308
-0.4980407
-0.4983476
-0.4979329
-0.4989625
-0.4971974
-0.4986359
-0.4980609
-0.4983611
-0.4979293
-0.4989765
-0.4972427
-0.4986421
-0.4980611
-0.4983602
-0.4979244
-0.4989743
-0.4972513
-0.4986489
-0.498074
-0.4983624
-0.4979176
-0.4989855
-0.4972267
-0.4986408
-0.4980571
-0.4983652
-0.4979203
-0.4989714
-0.4972599
-0.498649
-0.4980707
-0.4983698
-0.4979286
-0.4989734
-0.4972399
-0.4986487
-0.4980599
-0.4983679
-0.4979267
-0.4989682
-0.4972515
-0.4986446
-0.4980573
-0.4983694
-0.4979296
-0.4989529
-0.4972571
-0.4986494
-0.4980594
-0.4983703
-0.4979327
-0.4989668
-0.4972352
-0.4986393
-0.4980495
-0.4983606
-0.4979137
-0.4989451
-0.497224
-0.4986483
-0.4980465
-0.4983635
-0.4978875
-0.4989692
-0.4971757
-0.4986405
-0.4980481
-0.4983454
-0.4979431
-0.4989345
-0.4971963
-0.4986304
-0.4980397
-0.4983661
-0.4978904
-0.4989679
-0.4970961
-0.4986358
-0.4980373
-0.4983388
-0.4978886
-0.4988959
-0.4970275
-0.4985968
-0.4980958
-0.498398
-0.501503
-0.504843
-0.5040862
-0.5038224
-0.5042909
-0.5043994
-0.5017796
-0.4997154
-0.4976402
-0.4983882
-0.4979988
-0.4982923
-0.4983418
-0.4990954
-0.4997382
-0.4986619
-0.4987485
-0.4983419
-0.4983803
-0.4992457
-0.499173
-0.4985426
-0.4983535
-0.4982675
-0.4974023
-0.4990816
-0.4993412
-0.4986114
-0.4986421
-0.4983516
-0.4974632
-0.4992393
-0.4992861
-0.4985761
-0.4984943
-0.4983044
-0.4974371
-0.4991217
-0.4992674
-0.4985565
-0.4985545
-0.4983219
-0.4973738
-0.4991613
-0.4991972
-0.4985522
-0.4985049
-0.4983046
-0.4974034
-0.4990568
-0.4991847
-0.4985276
-0.4985168
-0.498311
-0.4974451
-0.4990239
-0.4991607
-0.498517
-0.4984976
-0.4983034
-0.4976116
-0.4989807
-0.4991521
-0.498508
-0.498498
-0.4983056
-0.4976248
-0.498998
-0.4991495
-0.4985075
-0.4984927
-0.498303
-0.497632
-0.4990014
-0.4991482
-0.4985078
-0.498493
-0.4983045
-0.4976255
-0.4989721
-0.4991428
-0.4985051
-0.4984916
-0.498304
-0.4976276
-0.4989916
-0.4991456
-0.4985078
-0.4984923
-0.4983049
-0.4976278
-0.4989622
-0.499142
-0.4985044
-0.4984917
-0.4983053
-0.4976273
-0.498997
-0.499146
-0.4985103
-0.4984942
-0.4983061
-0.4976274
-0.4990226
-0.4991509
-0.4985126
-0.4984958
-0.4983078
-0.4976228
-0.4989832
-0.4991452
-0.498511
-0.4984967
-0.498308
-0.4976206
-0.4990043
-0.4991575
-0.498513
-0.4985009
-0.4983109
-0.4976063
-0.4990096
-0.499149
-0.4985143
-0.4985034
-0.4983131
-0.4975991
-0.4990186
-0.4991517
-0.4985132
-0.4985093
-0.4983174
-0.4976289
-0.4989944
-0.4991671
-0.4985177
-0.4985137
-0.498321
-0.4975236
-0.4989793
-0.4991607
-0.4985073
-0.4985082
-0.4983237
-0.4999349
-0.5069195
-0.5044361
-0.5050788
-0.5050584
-0.5050991
-0.503307
-0.4993571
-0.4970485
-0.4984576
-0.4979035
-0.4982705
-0.4985691
-0.4987398
-0.4994093
-0.4986833
-0.4986436
-0.498427
-0.4991141
-0.4988047
-0.4978137
-0.4984121
-0.4980499
-0.4983007
-0.4989195
-0.4987409
-0.4986299
-0.4986746
-0.4984417
-0.4984296
-0.4995617
-0.4986528
-0.49839
-0.4985872
-0.4982487
-0.4983748
-0.4994052
-0.4986648
-0.4985399
-0.498646
-0.4983874
-0.4984452
-0.4995767
-0.4986507
-0.4985374
-0.4986097
-0.4983337
-0.4984106
-0.4995094
-0.4986077
-0.4985251
-0.498619
-0.4983698
-0.4984379
-0.4995355
-0.4985928
-0.4985306
-0.4986088
-0.4983558
-0.4984231
-0.4995277
-0.4985703
-0.4985179
-0.4986077
-0.498364
-0.4984309
-0.4995375
-0.4985677
-0.4985213
-0.4986054
-0.4983605
-0.4984275
-0.4995345
-0.4985585
-0.4985188
-0.4986054
-0.4983629
-0.4984294
-0.4995364
-0.49856
-0.4985171
-0.4986035
-0.4983606
-0.4984289
-0.4995317
-0.4985552
-0.4985185
-0.4986046
-0.4983623
-0.49843
-0.49953
-0.4985585
-0.4985168
-0.4986043
-0.4983613
-0.4984297
-0.4995306
-0.4985544
-0.4985187
-0.4986042
-0.4983615
-0.4984302
-0.4995294
-0.4985538
-0.4985198
-0.4986055
-0.4983621
-0.498431
-0.4995255
-0.4985601
-0.4985184
-0.4986045
-0.4983604
-0.4984289
-0.4995221
-0.4985641
-0.4985193
-0.4986067
-0.4983614
-0.4984318
-0.4995291
-0.4985727
-0.4985198
-0.4986068
-0.4983604
-0.4984278
-0.4995157
-0.4985666
-0.4985171
-0.4986047
-0.4983596
-0.4984323
-0.4995201
-0.4985908
-0.4985203
-0.4986083
-0.4983575
-0.4984268
-0.4995227
-0.4985667
-0.4985027
-0.498601
-0.4983608
-0.4984342
-0.4988667
-0.5072559
-0.5046834
-0.5047219
-0.5046544
-0.5044971
-0.5037028
-0.4991595
-0.4971527
-0.498282
-0.4979699
-0.4981738
-0.498
-0.4984901
-0.4994097
-0.4986705
-0.4987599
-0.4984434
-0.4993999
-0.4990484
-0.4984565
-0.4985429
-0.4982359
-0.498314
-0.4982719
-0.4986212
-0.4989067
-0.4986216
-0.4986408
-0.4984456
-0.4989922
-0.4988561
-0.4987298
-0.4986088
-0.4984433
-0.4983991
-0.4987495
-0.4987295
-0.498764
-0.4986139
-0.498569
-0.4984509
-0.498904
-0.4987801
-0.4987375
-0.4986035
-0.4985051
-0.498425
-0.4988372
-0.4987283
-0.4987314
-0.4985989
-0.4985374
-0.4984438
-0.4988762
-0.4987443
-0.4987283
-0.4985935
-0.4985177
-0.498433
-0.4988643
-0.4987265
-0.4987209
-0.4985901
-0.4985247
-0.4984389
-0.4988734
-0.4987311
-0.4987205
-0.4985882
-0.4985194
-0.4984354
-0.4988688
-0.4987245
-0.4987186
-0.4985876
-0.4985211
-0.4984372
-0.4988708
-0.4987253
-0.4987172
-0.4985863
-0.4985195
-0.4984368
-0.4988677
-0.4987228
-0.4987172
-0.4985866
-0.4985203
-0.4984376
-0.4988678
-0.4987225
-0.4987166
-0.4985863
-0.49852
-0.4984377
-0.4988666
-0.4987215
-0.4987167
-0.4985864
-0.4985207
-0.4984385
-0.4988652
-0.4987202
-0.4987175
-0.4985873
-0.4985219
-0.4984396
-0.498866
-0.4987213
-0.4987179
-0.4985872
-0.4985223
-0.4984395
-0.4988643
-0.4987203
-0.4987188
-0.4985879
-0.4985249
-0.498443
-0.4988667
-0.498722
-0.4987224
-0.4985883
-0.4985265
-0.4984422
-0.4988637
-0.4987195
-0.4987214
-0.4985875
-0.4985321
-0.4984517
-0.4988632
-0.4987205
-0.4987324
-0.4985875
-0.49854
-0.4984523
-0.4990386
-0.4987134
-0.498728
-0.4985871
-0.498552
-0.4984802
-0.498305
-0.5068764
-0.5048259
-0.5040775
-0.5042732
-0.5043768
-0.502388
-0.4991252
-0.4971492
-0.498285
-0.4979981
-0.4982498
-0.4979963
-0.4984862
-0.4994045
-0.498671
-0.4987627
-0.4984391
-0.4998702
-0.499046
-0.4984567
-0.4985438
-0.4982407
-0.4983253
-0.4987202
-0.4986216
-0.4989074
-0.4986226
-0.4986432
-0.4984472
-0.4992133
-0.4988568
-0.4987303
-0.4986093
-0.4984446
-0.498401
-0.4989744
-0.4987296
-0.4987643
-0.4986145
-0.49857
-0.4984519
-0.4990856
-0.4987795
-0.4987381
-0.498604
-0.4985058
-0.4984255
-0.4990244
-0.4987281
-0.4987315
-0.4985993
-0.4985379
-0.4984442
-0.4990538
-0.4987451
-0.4987288
-0.4985939
-0.498518
-0.498433
-0.4990412
-0.498727
-0.4987212
-0.4985903
-0.4985248
-0.4984387
-0.4990488
-0.4987323
-0.4987202
-0.4985877
-0.498519
-0.4984351
-0.4990421
-0.4987257
-0.4987192
-0.4985876
-0.4985211
-0.498437
-0.499043
-0.4987265
-0.498718
-0.4985864
-0.4985195
-0.4984365
-0.4990397
-0.4987239
-0.4987179
-0.4985869
-0.4985203
-0.4984374
-0.4990393
-0.4987233
-0.4987179
-0.4985866
-0.4985201
-0.4984373
-0.4990405
-0.4987226
-0.4987169
-0.4985863
-0.4985202
-0.4984377
-0.4990392
-0.4987222
-0.4987176
-0.4985869
-0.4985208
-0.4984382
-0.4990406
-0.4987228
-0.4987179
-0.4985875
-0.4985206
-0.4984375
-0.4990413
-0.4987226
-0.4987181
-0.4985881
-0.4985209
-0.4984379
-0.4990421
-0.4987231
-0.4987217
-0.4985905
-0.4985203
-0.4984372
-0.4990429
-0.4987222
-0.4987221
-0.4985928
-0.4985192
-0.4984359
-0.4990458
-0.4987236
-0.4987283
-0.4985978
-0.4985144
-0.4984339
-0.4988294
-0.4987276
-0.4987314
-0.4986049
-0.4985067
-0.4984231
-0.4989805
-0.5055273
-0.5049618
-0.5044877
-0.5047456
-0.5047496
-0.5029964
-0.4992921
-0.4970122
-0.4984616
-0.4978965
-0.4982101
-0.4986641
-0.4987358
-0.4994119
-0.4986832
-0.4986492
-0.4984387
-0.4994879
-0.4987984
-0.4977968
-0.4984026
-0.4980383
-0.4982874
-0.4990297
-0.49874
-0.4986298
-0.4986746
-0.4984397
-0.4984292
-0.4997444
-0.4986497
-0.4983873
-0.4985845
-0.4982466
-0.4983737
-0.4995269
-0.4986616
-0.4985386
-0.498646
-0.4983864
-0.4984434
-0.4995656
-0.4986446
-0.4985358
-0.4986098
-0.4983338
-0.4984108
-0.4994735
-0.498606
-0.4985226
-0.4986198
-0.4983691
-0.4984371
-0.4994873
-0.4986023
-0.4985272
-0.4986097
-0.4983548
-0.4984226
-0.4994582
-0.49857
-0.4985172
-0.4986084
-0.4983634
-0.4984311
-0.4994778
-0.4985761
-0.4985153
-0.4986051
-0.4983591
-0.4984272
-0.4994434
-0.4985666
-0.4985186
-0.4986065
-0.4983617
-0.4984295
-0.4994511
-0.4985702
-0.4985158
-0.4986052
-0.4983608
-0.4984295
-0.4994497
-0.4985687
-0.4985171
-0.4986056
-0.4983612
-0.49843
-0.4994362
-0.4985611
-0.4985177
-0.4986061
-0.4983619
-0.4984308
-0.4994459
-0.4985596
-0.4985145
-0.4986036
-0.4983611
-0.4984312
-0.4994362
-0.4985618
-0.4985174
-0.4986054
-0.4983615
-0.4984322
-0.4994431
-0.4985624
-0.4985184
-0.4986032
-0.4983619
-0.4984311
-0.4994562
-0.4985621
-0.4985142
-0.4986016
-0.4983641
-0.4984388
-0.4994431
-0.4985623
-0.4985274
-0.4986015
-0.4983686
-0.4984341
-0.4994525
-0.4985595
-0.4985202
-0.4985953
-0.4983779
-0.4984626
-0.4994834
-0.4985644
-0.4985418
-0.4985843
-0.4983842
-0.4984615
-0.4995286
-0.4985657
-0.4985
-0.4985724
-0.4984271
-0.4985604
-0.4976522
-0.5050091
-0.5043107
-0.5050485
-0.5058653
-0.5060028
-0.5019391
-0.4997263
-0.4976262
-0.4983804
-0.4979861
-0.498282
-0.4995875
-0.4990944
-0.4997483
-0.4986649
-0.498755
-0.4983506
-0.5006909
-0.4992436
-0.4991693
-0.4985409
-0.4983527
-0.4982679
-0.4984175
-0.4990816
-0.4993431
-0.4986125
-0.4986466
-0.4983563
-0.4984518
-0.4992382
-0.4992854
-0.498576
-0.4984953
-0.498305
-0.4981701
-0.499116
-0.4992648
-0.4985567
-0.4985568
-0.498324
-0.4980756
-0.4991664
-0.499199
-0.4985553
-0.4985066
-0.4983059
-0.4980785
-0.4990528
-0.499182
-0.4985293
-0.4985183
-0.4983122
-0.4980472
-0.4990341
-0.4991644
-0.4985186
-0.4984981
-0.4983039
-0.4980459
-0.4989864
-0.4991521
-0.4985082
-0.4984985
-0.4983052
-0.4980511
-0.4989296
-0.4991431
-0.4984987
-0.4984895
-0.4983014
-0.4980439
-0.4989933
-0.4991527
-0.4985059
-0.4984937
-0.4983041
-0.4980394
-0.4989689
-0.4991481
-0.4985033
-0.4984913
-0.4983033
-0.4980669
-0.4990038
-0.4991528
-0.498509
-0.4984931
-0.4983048
-0.4980469
-0.4989913
-0.4991558
-0.4985067
-0.4984939
-0.4983055
-0.4980469
-0.4989819
-0.4991448
-0.4985063
-0.4984929
-0.4983054
-0.4980459
-0.4990114
-0.4991499
-0.4985077
-0.4984964
-0.4983074
-0.4980464
-0.4990127
-0.499146
-0.4985125
-0.4984995
-0.4983087
-0.4980523
-0.4989748
-0.4991437
-0.4985088
-0.4985004
-0.4983088
-0.4980582
-0.4991204
-0.4991551
-0.4985305
-0.4985094
-0.4983165
-0.4980668
-0.4991569
-0.4991642
-0.4985462
-0.4985149
-0.4983152
-0.4980687
-0.4991501
-0.4991753
-0.4985678
-0.4985237
-0.4983209
-0.4980825
-0.4991464
-0.4992314
-0.4986005
-0.4984997
-0.4982869
-0.4980903
-0.4964202
-0.4984796
-0.4995167
-0.5001436
-0.5002523
-0.5009907
-0.5007169
-0.4959587
-0.4983201
-0.4974817
-0.4979916
-0.4985448
-0.4996878
-0.4975846
-0.4983689
-0.4979146
-0.498154
-0.5005812
-0.4992659
-0.4964044
-0.4984524
-0.4977628
-0.4981451
-0.498991
-0.4991038
-0.4970253
-0.4985129
-0.4978758
-0.4981797
-0.4994049
-0.4989874
-0.4967358
-0.4986196
-0.4978551
-0.4982807
-0.4991514
-0.4988275
-0.4970069
-0.4986076
-0.4980326
-0.4983575
-0.4992644
-0.4989787
-0.4970921
-0.4985662
-0.4979874
-0.4983276
-0.4991726
-0.4989158
-0.497137
-0.4986123
-0.4980511
-0.4983592
-0.4991578
-0.4989592
-0.4971522
-0.4986377
-0.4980364
-0.4983457
-0.4990786
-0.4989688
-0.4971948
-0.4986399
-0.4980581
-0.4983625
-0.4991071
-0.4989825
-0.4971437
-0.4986431
-0.4980557
-0.4983613
-0.4990369
-0.4989665
-0.4972353
-0.4986525
-0.4980636
-0.4983615
-0.4990571
-0.4989586
-0.4971891
-0.4986506
-0.4980629
-0.4983705
-0.4991244
-0.498958
-0.4971967
-0.4986458
-0.4980602
-0.4983683
-0.4990833
-0.4989445
-0.4972374
-0.4986569
-0.4980638
-0.4983723
-0.4990345
-0.498964
-0.497191
-0.4986415
-0.4980576
-0.4983753
-0.4990117
-0.498944
-0.4972247
-0.49865
-0.498045
-0.4983682
-0.4990495
-0.49898
-0.49722
-0.4986244
-0.4980405
-0.4983607
-0.4990545
-0.4989587
-0.497161
-0.4986201
-0.4980314
-0.4983816
-0.4990749
-0.4989773
-0.4972144
-0.4986028
-0.4980327
-0.4983362
-0.499093
-0.4989471
-0.4971432
-0.4985467
-0.4980253
-0.4984133
-0.4991135
-0.4989593
-0.4971828
-0.4984513
-0.4979776
-0.4984098
-0.499062
-0.4988738
-0.4968164
-0.4983389
-0.4981122
-0.4986209
-0.5123379
-0.5484207
-0.5518489
-0.552982
-0.5531792
-0.5531886
-0.5074875
-0.4913329
-0.4968129
-0.4999294
-0.5014558
-0.5022489
-0.5023733
-0.5063411
-0.4885255
-0.4974024
-0.5014958
-0.5031499
-0.5037414
-0.5038801
-0.5058159
-0.4881255
-0.4965151
-0.5011329
-0.5029232
-0.5035269
-0.5036373
-0.5057746
-0.4888421
-0.4960396
-0.5010562
-0.5031973
-0.5040077
-0.504013
-0.5057635
-0.4901152
-0.4962224
-0.5007544
-0.5028874
-0.5039074
-0.5041405
-0.5056577
-0.489984
-0.4965275
-0.5006785
-0.5028268
-0.5038948
-0.5041722
-0.5057774
-0.490474
-0.4957426
-0.5007644
-0.5027447
-0.5038974
-0.5041746
-0.5057631
-0.4905264
-0.4958004
-0.5004818
-0.502689
-0.5038917
-0.5041757
-0.5056996
-0.490661
-0.4960184
-0.500213
-0.5026249
-0.5038866
-0.5041912
-0.5056908
-0.4909133
-0.4957502
-0.5001996
-0.5026304
-0.5038856
-0.504194
-0.5056691
-0.4907483
-0.495875
-0.5000773
-0.5026259
-0.5038862
-0.5042048
-0.5056661
-0.4909589
-0.4957485
-0.5000881
-0.5026373
-0.5038874
-0.504202
-0.5056678
-0.490738
-0.4958351
-0.5000567
-0.502643
-0.503886
-0.5042108
-0.5056406
-0.4907774
-0.4959536
-0.500018
-0.5026502
-0.5038926
-0.5042111
-0.5056311
-0.4908984
-0.495913
-0.5000045
-0.5026656
-0.5038963
-0.5042136
-0.5056256
-0.4906482
-0.4958505
-0.500059
-0.5026841
-0.5038993
-0.5042113
-0.5056315
-0.4908054
-0.495806
-0.5000115
-0.5026727
-0.5039081
-0.5042079
-0.5056585
-0.4908065
-0.4956233
-0.5003149
-0.502665
-0.5038897
-0.5042171
-0.5056482
-0.4906066
-0.4958535
-0.500259
-0.5026212
-0.5038651
-0.5042293
-0.5056634
-0.490767
-0.4957693
-0.5005135
-0.5026163
-0.503843
-0.5042206
-0.5057016
-0.4906081
-0.4957547
-0.500646
-0.5026739
-0.5038191
-0.5041352
-0.5057886
-0.4904147
-0.4956377
-0.500718
-0.5028407
-0.5036722
-0.5039292
-0.5059083
-0.4902246
-0.4957227
-0.4999824
-0.5022818
-0.5039
-0.5039708
-0.5148879
-0.5273389
-0.5015933
-0.5099194
-0.5134275
-0.5391253
-0.5123982
-0.5584526
-0.4902
-0.5006348
-0.5317329
-0.5437442
-0.5483907
-0.5633987
-0.4928999
-0.4990493
-0.534545
-0.5439936
-0.5518338
-0.5636728
-0.4960793
-0.4976693
-0.5350854
-0.5442572
-0.5529788
-0.564015
-0.4972509
-0.497633
-0.5353249
-0.5443868
-0.5531901
-0.5641313
-0.4975448
-0.497693
-0.5354404
-0.5532113
-0.4976366
-0.4899068
-0.4901563
-0.5074438
-0.5048835
-0.5065666
-0.5069609
-0.4926077
-0.4908041
-0.5063306
-0.5037947
-0.5063431
-0.5060492
-0.4949909
-0.492746
-0.5058183
-0.5037783
-0.5061399
-0.5046805
-0.4930509
-0.4920344
-0.5057721
-0.5038694
-0.5060503
-0.5051818
-0.4931199
-0.4932368
-0.505767
-0.5037363
-0.5058975
-0.5045716
-0.4931873
-0.4930399
-0.5056039
-0.5035975
-0.5057716
-0.5035264
-0.4920619
-0.4934363
-0.5057767
-0.5039304
-0.5057602
-0.5032751
-0.4928345
-0.4934249
-0.505684
-0.5035146
-0.505691
-0.5031963
-0.4932553
-0.4937032
-0.5056856
-0.5033622
-0.5056966
-0.5031455
-0.4924057
-0.4931709
-0.5056947
-0.5035564
-0.5056888
-0.503178
-0.4929059
-0.4932457
-0.5056408
-0.5033964
-0.5056408
-0.503196
-0.4930326
-0.4936911
-0.5056274
-0.5033611
-0.5056448
-0.5031583
-0.4925785
-0.4932897
-0.5056188
-0.5033628
-0.5056441
-0.5031507
-0.4930593
-0.493051
-0.505626
-0.5032712
-0.5056202
-0.5031848
-0.4923926
-0.4927304
-0.5055927
-0.5033248
-0.5056326
-0.503212
-0.4929976
-0.4933926
-0.5056075
-0.5032894
-0.505638
-0.5031614
-0.4930866
-0.4938746
-0.5056317
-0.503347
-0.5056471
-0.5031637
-0.4926857
-0.4931449
-0.5056182
-0.5033484
-0.5056502
-0.5031797
-0.4933987
-0.4929417
-0.5056323
-0.5032266
-0.5056509
-0.5033117
-0.4929901
-0.4930362
-0.5056016
-0.5033269
-0.5056683
-0.5032941
-0.4929022
-0.4938297
-0.5056291
-0.5033688
-0.5056673
-0.503203
-0.4929069
-0.4933852
-0.5057279
-0.5038903
-0.5057027
-0.5031817
-0.492222
-0.4990384
-0.5057272
-0.5037051
-0.5057283
-0.5035381
-0.5100915
-0.4993637
-0.5069166
-0.5163072
-0.5007693
-0.5075663
-0.518543
-0.4999437
-0.5065964
-0.5158161
-0.499346
-0.5062021
-0.5191088
-0.4999566
-0.5053978
-0.5182315
-0.4994926
-0.5057991
-0.5183701
-0.4994403
-0.5051748
-0.5178191
-0.4990357
-0.5054352
-0.5163933
-0.4992863
-0.5051498
-0.5190407
-0.4992615
-0.5053623
-0.5155791
-0.4992167
-0.5059589
-0.5215735
-0.4991422
-0.5059563
-0.5161774
-0.4992052
-0.506176
-0.5167836
-0.5003706
-0.506556
-0.5163347
-0.5001864
-0.5075433
-0.5102406
-0.4996545
-0.5068758
-0.527089
-0.5016565
-0.5099475
-0.5148937
-0.4976367
-0.5354287
-0.5048959
-0.5065787
-0.506971
-0.4899118
-0.4901791
-0.5037962
-0.5063389
-0.5060502
-0.4926343
-0.4908112
-0.5038834
-0.5060482
-0.5051877
-0.4930733
-0.4920323
-0.5037529
-0.5058944
-0.5045444
-0.4929215
-0.4929207
-0.5037297
-0.5057769
-0.5034342
-0.4925269
-0.4930632
-0.5038308
-0.5057895
-0.5032782
-0.4931168
-0.493726
-0.503875
-0.5057317
-0.5031985
-0.4921572
-0.4929943
-0.5034829
-0.5056807
-0.5031872
-0.4929152
-0.493621
-0.5034579
-0.5056748
-0.5031813
-0.4926896
-0.4929223
-0.5035134
-0.5056584
-0.5033543
-0.4922408
-0.4922825
-0.5032345
-0.5056886
-0.5031665
-0.4933943
-0.4937878
-0.5035092
-0.5056766
-0.5031783
-0.4922807
-0.4926421
-0.5034137
-0.505659
-0.5032983
-0.4925202
-0.4928798
-0.5033576
-0.5056605
-0.5031907
-0.4930822
-0.4934044
-0.5034306
-0.5056764
-0.5031732
-0.4925332
-0.4930126
-0.5034311
-0.5056474
-0.5032693
-0.4925667
-0.4926205
-0.5034332
-0.5056923
-0.503356
-0.4926885
-0.4928349
-0.5032252
-0.5056781
-0.5034252
-0.4939371
-0.4930332
-0.5033034
-0.5056761
-0.5035135
-0.4937379
-0.4930185
-0.50363
-0.5056767
-0.5036374
-0.4931358
-0.4931786
-0.5047114
-0.5056348
-0.5034225
-0.4930451
-0.5022496
-0.5127642
-0.5234704
-0.492985
-0.5012156
-0.496698
-0.5022031
-0.4958786
-0.5018729
-0.4941463
-0.502854
-0.4990529
-0.5039009
-0.4956294
-0.5091998
-0.4976321
-0.5039353
-0.4984795
-0.5034096
-0.4980628
-0.5085908
-0.4991892
-0.5041511
-0.4985638
-0.5067755
-0.4994618
-0.5042129
-0.4984876
-0.5049231
-0.4989615
-0.5040703
-0.4987676
-0.504937
-0.4989594
-0.5043811
-0.4989574
-0.5044349
-0.4989943
-0.5044116
-0.498608
-0.5045485
-0.4988151
-0.5042331
-0.4987702
-0.5045062
-0.4988816
-0.5044724
-0.4988315
-0.5045675
-0.4988795
-0.5043985
-0.4986142
-0.5044265
-0.498851
-0.5042716
-0.4988368
-0.5048094
-0.498956
-0.5043716
-0.4985492
-0.5042925
-0.4988406
-0.5041864
-0.4987365
-0.5045793
-0.4988607
-0.5045784
-0.4988381
-0.504431
-0.49893
-0.504414
-0.498579
-0.5044475
-0.498849
-0.5042494
-0.4988201
-0.5047173
-0.4990094
-0.5043458
-0.4986374
-0.504429
-0.4988676
-0.5041262
-0.4987424
-0.5045483
-0.4989144
-0.5042127
-0.4984727
-0.5043854
-0.4986845
-0.5042985
-0.4982117
-0.5053366
-0.4987539
-0.5039062
-0.5130312
-0.5080185
-0.5144322
-0.5154499
-0.517613
-0.5170365
-0.5185526
-0.5176437
-0.5191961
-0.5182392
-0.5182124
-0.5182312
-0.5159619
-0.5166172
-0.5136652
-0.512485
-0.5202479
-0.5136336
-0.5584749
-0.4901617
-0.5006106
-0.5134348
-0.5391356
-0.563415
-0.4928905
-0.4990407
-0.5317463
-0.543755
-0.5636818
-0.4960814
-0.4976662
-0.534557
-0.5440039
-0.5640161
-0.4972468
-0.4976311
-0.5350952
-0.5442529
-0.5641168
-0.4975464
-0.4976946
-0.5353213
-0.5443774
-0.5037816
-0.5061464
-0.5046704
-0.4949996
-0.4927867
-0.5034035
-0.5056622
-0.503226
-0.4926997
-0.4933244
-0.5108102
-0.514248
-0.49768
-0.5110864
-0.5205714
-0.513638
-0.4946199
-0.5031014
-0.4944798
-0.4999833
-0.4960155
-0.5075254
-0.4969432
-0.5030625
-0.4970031
-0.5048797
-0.4984529
-0.5041157
-0.4989563
-0.5035908
-0.4975135
-0.5073502
-0.4995046
-0.5037746
-0.4982162
-0.507535
-0.4990291
-0.5040444
-0.4986065
-0.5045362
-0.4992921
-0.5043746
-0.4988994
-0.5042556
-0.4990457
-0.5044702
-0.4989534
-0.5044002
-0.499039
-0.504278
-0.4989178
-0.5047733
-0.4990426
-0.504385
-0.498891
-0.5042781
-0.4989395
-0.5044603
-0.4988828
-0.5044171
-0.4989424
-0.5043391
-0.4988819
-0.5044858
-0.4988653
-0.5044731
-0.4989153
-0.5043328
-0.4988985
-0.5042951
-0.4987566
-0.5047561
-0.4989053
-0.504324
-0.4987366
-0.5046223
-0.4989236
-0.5045919
-0.4988967
-0.5043746
-0.4989657
-0.5043337
-0.4988642
-0.5046515
-0.4989
-0.5044148
-0.498801
-0.5043235
-0.4989387
-0.504228
-0.4987285
-0.5052648
-0.4990493
-0.5043078
-0.4988213
-0.5042761
-0.4990088
-0.504181
-0.4987635
-0.5043073
-0.4985804
-0.5041938
-0.4990235
-0.5040454
-0.4993695
-0.5163015
-0.507554
-0.4979337
-0.5126556
-0.5134372
-0.5176292
-0.5166278
-0.5160459
-0.516536
-0.517629
-0.5175391
-0.5180124
-0.5179439
-0.5179214
-0.5168001
-0.5132759
-0.5167316
-0.5114181
-0.508511
-0.5128225
-0.5235505
-0.4951393
-0.5336976
-0.5022192
-0.5220265
-0.5107843
-0.5142613
-0.4976898
-0.5110504
-0.4949796
-0.5291304
-0.5008602
-0.5342594
-0.4930047
-0.5012305
-0.4967106
-0.5022287
-0.494622
-0.5031346
-0.4944944
-0.4999972
-0.4958697
-0.5018924
-0.4941517
-0.5028728
-0.496042
-0.5074615
-0.4969092
-0.5031453
-0.4976347
-0.5039739
-0.4984571
-0.5034145
-0.4989566
-0.5035671
-0.4974764
-0.5071522
-0.4979851
-0.5086314
-0.4992219
-0.5041365
-0.4995023
-0.5037722
-0.4981603
-0.5075214
-0.4993339
-0.5043683
-0.498825
-0.5052147
-0.4983444
-0.5068197
-0.4992096
-0.5046395
-0.4985108
-0.5041794
-0.4988982
-0.5041036
-0.4988836
-0.504959
-0.4988897
-0.5043155
-0.4985705
-0.5044018
-0.4989798
-0.5044694
-0.4984812
-0.5041838
-0.4988825
-0.5040292
-0.4989015
-0.5043665
-0.4987917
-0.504916
-0.4989204
-0.5045548
-0.4990267
-0.5043892
-0.4988474
-0.5044536
-0.499025
-0.5044545
-0.4990828
-0.504276
-0.498882
-0.5043837
-0.4987431
-0.5052123
-0.4992303
-0.5042857
-0.4993135
-0.5041179
-0.498625
-0.5055379
-0.4992012
-0.5037429
-0.4981217
-0.5036594
-0.4982273
-0.5121419
-0.5043761
-0.4998995
-0.503739
-0.497746
-0.5267692
-0.5341687
-0.541258
-0.5336124
-0.5398707
-0.5435505
-0.5375587
-0.537471
-0.5434855
-0.5368269
-0.5358979
-0.5460137
-0.54202
-0.5248105
-0.5342178
-0.5380442
-0.5360211
-0.541386
-0.4949056
-0.5336565
-0.5022463
-0.5219629
-0.5418782
-0.5338103
-0.5278925
-0.546266
-0.5343551
-0.5271057
-0.5334515
-0.5458744
-0.5350559
-0.5449713
-0.54534
-0.5290698
-0.5353244
-0.5438544
-0.5349657
-0.5388478
-0.5346036
-0.5267902
-0.5038741
-0.4977665
-0.5091386
-0.5075182
-0.5122663
-0.505493
-0.4910402
-0.4907357
-0.4963821
-0.4890235
-0.5052159
-0.5033673
-0.4995057
-0.505996
-0.5058025
-0.5076872
-0.504454
-0.5022998
-0.5070714
-0.5082648
-0.5034508
-0.5055462
-0.5072169
-0.5077738
-0.5032851
-0.5052812
-0.5067538
-0.5081434
-0.5055336
-0.5054365
-0.506676
-0.5081784
-0.5030907
-0.5052954
-0.4984589
-0.5070398
-0.499392
-0.5040862
-0.499121
-0.505375
-0.4987928
-0.5041929
-0.4984628
-0.5042451
-0.4991454
-0.5041466
-0.4987533
-0.5048395
-0.4991365
-0.5042222
-0.4985676
-0.5043253
-0.4990311
-0.5041959
-0.4989661
-0.505077
-0.4990005
-0.5055977
-0.4987956
-0.5043481
-0.4986778
-0.5050261
-0.4985899
-0.5043824
-0.4989469
-0.5042591
-0.498205
-0.5053544
-0.4990422
-0.5039815
-0.4984281
-0.5044033
-0.4989531
-0.5055481
-0.498821
-0.5042743
-0.4987768
-0.5042952
-0.4989871
-0.5042606
-0.498813
-0.5043205
-0.4984123
-0.5043849
-0.4989737
-0.5058726
-0.4985708
-0.5046213
-0.499098
-0.5042355
-0.4984671
-0.5044172
-0.4990109
-0.5042229
-0.4988199
-0.5046322
-0.4988184
-0.5049142
-0.4987553
-0.5071755
-0.499108
-0.5044009
-0.498916
-0.5044226
-0.4988439
-0.5047912
-0.5064122
-0.5085752
-0.5062999
-0.5033666
-0.5064972
-0.5088071
-0.5037335
-0.5063752
-0.506459
-0.5086069
-0.5063772
-0.503455
-0.4986382
-0.5046691
-0.4991656
-0.5043749
-0.5064172
-0.5085596
-0.5033616
-0.5061939
-0.5064694
-0.5085666
-0.5034146
-0.5062378
-0.5065586
-0.5084727
-0.5065108
-0.5037256
-0.5065653
-0.5085998
-0.5036273
-0.5065756
-0.5065735
-0.5084515
-0.5060023
-0.5033512
-0.4985286
-0.5083437
-0.4997401
-0.5041983
-0.506716
-0.5078695
-0.5056446
-0.5031384
-0.5067982
-0.5073509
-0.506189
-0.5044598
-0.5013554
-0.4912462
-0.5027918
-0.4827465
-0.5189946
-0.5121232
-0.511748
-0.5153548
-0.5170377
-0.5260579
-0.5270934
-0.541918
-0.5353228
-0.5454764
-0.5259537
-0.5299442
-0.5336485
-0.5462009
-0.5314114
-0.5297209
-0.541712
-0.5315896
-0.5356428
-0.5431406
-0.5305807
-0.538432
-0.5482977
-0.5352971
-0.5245562
-0.4991511
-0.5335761
-0.4985959
-0.5391432
-0.5279218
-0.4997634
-0.5034959
-0.5283307
-0.5354921
-0.4959288
-0.5003947
-0.5408739
-0.5292889
-0.4988559
-0.5042674
-0.5293272
-0.5348489
-0.4950339
-0.5011728
-0.5407095
-0.5284895
-0.4973211
-0.5034802
-0.5290821
-0.5342855
-0.4948502
-0.5006682
-0.5407508
-0.5280061
-0.4971285
-0.5034306
-0.529128
-0.5342195
-0.4949022
-0.500788
-0.5407657
-0.5034933
-0.5279575
-0.4971588
-0.5039004
-0.4956282
-0.5092388
-0.4990423
-0.5048851
-0.4984541
-0.50414
-0.4969789
-0.5043878
-0.4989243
-0.5042534
-0.4986143
-0.5045196
-0.4990245
-0.5058862
-0.4987951
-0.5431223
-0.5400508
-0.5408856
-0.5325778
-0.5422003
-0.5314975
-0.5339486
-0.5444383
-0.545634
-0.530372
-0.5321846
-0.5452346
-0.53001
-0.5455511
-0.5392899
-0.5263365
-0.5256976
-0.5386736
-0.5166852
-0.5260197
-0.5014836
-0.4911725
-0.4827678
-0.5026599
-0.5195075
-0.51187
-0.515366
-0.5116698
-0.5083072
-0.5005116
-0.5078639
-0.4970473
-0.4942263
-0.4916131
-0.496248
-0.5061803
-0.5075716
-0.5047327
-0.5029945
-0.5071827
-0.5078218
-0.5048213
-0.5059291
-0.5069335
-0.507993
-0.504797
-0.5062099
-0.5065669
-0.5087836
-0.5061488
-0.5034547
-0.5064059
-0.5087803
-0.5063253
-0.5032292
-0.5064506
-0.5085523
-0.5034148
-0.5063733
-0.5064841
-0.5086381
-0.5064592
-0.5033653
-0.5064348
-0.5084754
-0.5062398
-0.503202
-0.5064524
-0.5085255
-0.5036675
-0.5064527
-0.5065452
-0.5087067
-0.5036088
-0.5065738
-0.5066207
-0.5085541
-0.5065462
-0.5036352
-0.5065197
-0.5087454
-0.5034154
-0.5062541
-0.5066772
-0.5083236
-0.5064738
-0.5040878
-0.506719
-0.5082914
-0.5058544
-0.5034661
-0.5066119
-0.5093088
-0.5033845
-0.5056697
-0.4988356
-0.4995673
-0.498087
-0.4992149
-0.5058553
-0.4904204
-0.4945692
-0.4996168
-0.5031895
-0.5032183
-0.5033787
-0.5006049
-0.5058529
-0.5041282
-0.5185132
-0.4992121
-0.5045522
-0.4990076
-0.5146655
-0.497995
-0.4986277
-0.5245464
-0.4990653
-0.5335501
-0.4959369
-0.5283029
-0.500423
-0.5354815
-0.4950395
-0.5292729
-0.5012052
-0.5348461
-0.4948457
-0.5290657
-0.5006753
-0.534284
-0.4949005
-0.5290967
-0.5008076
-0.5342338
-0.4949828
-0.5291418
-0.5008584
-0.5342731
-0.5052035
-0.5034207
-0.5059895
-0.499492
-0.5057821
-0.5076678
-0.5022833
-0.5044437
-0.5061269
-0.5077902
-0.5027071
-0.5045717
-0.5070389
-0.5082704
-0.5034766
-0.5055327
-0.5068302
-0.5081921
-0.5053658
-0.5056216
-0.5067155
-0.5080544
-0.5043187
-0.5064527
-0.5065074
-0.5084891
-0.5037113
-0.5063981
-0.5065329
-0.508542
-0.5037934
-0.5065191
-0.5065456
-0.5086461
-0.5035844
-0.5065613
-0.5064724
-0.5087241
-0.5035362
-0.5064128
-0.5065025
-0.5085585
-0.5036053
-0.5065138
-0.5065496
-0.5086152
-0.5036445
-0.5065893
-0.5064614
-0.5086202
-0.5034621
-0.5064461
-0.5065442
-0.508575
-0.5037772
-0.5065226
-0.5064266
-0.5085698
-0.5033829
-0.5063745
-0.5064604
-0.5085081
-0.5036071
-0.50645
-0.5065283
-0.5086199
-0.5035742
-0.5065616
-0.5064269
-0.5085967
-0.5034706
-0.5064328
-0.5065049
-0.5085266
-0.5037018
-0.5064791
-0.5064755
-0.5085568
-0.5035149
-0.5064122
-0.5065538
-0.5084727
-0.5036336
-0.5065
-0.5064549
-0.5085509
-0.503391
-0.506225
-0.5064763
-0.5084827
-0.5037373
-0.5059323
-0.4986009
-0.4930025
-0.4988444
-0.4935285
-0.5091203
-0.5074907
-0.5122245
-0.5054843
-0.4997752
-0.539121
-0.5035096
-0.5279216
-0.4988666
-0.5408254
-0.5042763
-0.529289
-0.4973212
-0.540687
-0.5034814
-0.5285066
-0.4971247
-0.5407176
-0.5034379
-0.5280165
-0.4971583
-0.5407705
-0.5034935