/*--------------------------------*- C++ -*----------------------------------*\
  =========                 |
  \\      /  F ield         | OpenFOAM: The Open Source CFD Toolbox
   \\    /   O peration     | Website:  https://openfoam.org
    \\  /    A nd           | Version:  7
     \\/     M anipulation  |
\*---------------------------------------------------------------------------*/
FoamFile
{
    version     2.0;
    format      ascii;
    class       volScalarField;
    location    "0.1";
    object      Uy;
}
// * * * * * * * * * * * * * * * * * * * * * * * * * * * * * * * * * * * * * //

dimensions      [0 1 -1 0 0 0 0];

internalField   nonuniform List<scalar> 
109978
(
-0.007477527
-0.01103143
-0.01079496
-0.01094036
-0.0108148
-0.01082122
0.001432849
-0.004326087
-0.002586535
-0.004088197
-0.004047303
-0.004047041
0.0001348309
0.0002135089
-0.001313042
-0.0005771755
-0.0006502272
-0.0007119771
0.0008632309
0.0001125911
-0.0001799596
-6.453207e-06
-0.0001168764
-0.0001265846
0.0001059522
3.299549e-05
-0.0001052516
2.91457e-05
1.330245e-05
8.709209e-06
0.0002721979
0.0001717373
-3.001474e-05
6.123718e-05
4.012218e-05
4.1592e-05
-0.0005622823
1.186576e-05
-3.030426e-05
2.603955e-05
3.172998e-05
2.948551e-05
-1.235893e-07
3.968271e-05
2.245114e-05
2.736576e-05
2.200213e-05
1.852949e-05
5.547943e-05
9.107482e-06
8.751315e-07
1.669409e-05
7.863578e-06
1.254391e-05
-2.770124e-05
9.719755e-07
2.283158e-05
1.49823e-05
1.080288e-05
1.57189e-05
-6.378099e-05
1.689097e-06
2.801075e-05
1.168907e-05
1.055388e-05
1.401512e-05
5.556166e-05
-8.551525e-08
4.33055e-05
1.125247e-05
1.517935e-05
1.699932e-05
-3.885961e-05
2.304605e-06
1.440669e-06
1.07716e-05
1.615279e-05
2.013954e-05
8.771544e-05
-9.318395e-07
3.196539e-05
1.031148e-05
1.899253e-05
2.59412e-05
-1.629816e-05
-3.297845e-06
5.106567e-05
-7.647339e-06
1.935076e-05
2.622052e-05
-0.0002006309
1.330866e-06
6.16971e-06
8.826854e-06
1.512787e-05
1.952493e-05
1.910232e-05
4.479789e-05
7.591569e-06
5.834408e-06
1.195963e-05
1.134271e-05
0.0001280462
-4.622927e-06
-6.547985e-06
1.323823e-05
1.00498e-05
8.778684e-06
8.313768e-05
2.288863e-05
8.310242e-06
3.75321e-05
1.771643e-05
1.652867e-05
-0.000254826
-1.277473e-06
-8.978405e-05
1.861938e-05
2.580805e-05
2.640751e-05
-2.966399e-05
-1.948294e-06
7.305755e-05
2.847311e-05
3.976655e-05
4.223973e-05
-8.771744e-05
2.710328e-06
6.546377e-05
2.124062e-05
4.116179e-05
4.800026e-05
-0.0002054815
3.454909e-05
0.0004109821
1.48688e-05
2.806256e-05
3.702075e-05
-0.01785548
0.003385455
0.001820291
0.001631653
0.001609748
0.001615372
-0.008575634
-0.005154047
0.0005691054
-0.0001012827
0.00041181
0.0001397538
-0.0004652249
0.0007426871
0.00030019
0.0002590311
4.764901e-05
-7.763365e-05
-0.0007311193
-0.0006581597
0.0001583412
-5.45817e-05
3.274847e-05
4.649777e-06
-4.601529e-05
0.0005389151
0.0003511565
0.0002128055
0.0001928613
0.0001626943
-3.038526e-05
0.0001008437
0.000239119
0.0001270293
0.0001634713
-8.293892e-06
1.013667e-06
0.0005365401
-7.060224e-06
0.0001797395
6.418367e-05
5.102616e-05
-3.255461e-06
0.0001674459
1.469207e-07
1.886427e-05
2.782468e-06
8.097442e-07
1.100308e-05
0.0002157189
0.0001113437
8.453501e-05
4.015593e-05
2.649066e-05
8.477983e-06
3.655177e-05
4.025725e-05
6.283448e-06
3.378115e-06
-1.748415e-06
7.08797e-06
4.015088e-05
3.36142e-05
3.57445e-05
2.207268e-05
1.440611e-05
5.248125e-06
6.59029e-05
1.445612e-05
1.284194e-05
1.404741e-06
3.094458e-07
6.151559e-06
-1.644324e-05
6.425401e-06
-2.406088e-07
7.663945e-06
3.616046e-06
4.406238e-06
8.484392e-06
7.520016e-06
-1.172841e-06
7.443187e-06
1.886674e-06
5.273465e-06
1.44249e-05
1.19735e-05
1.311936e-06
4.15998e-06
-1.413201e-06
4.845013e-06
-8.137511e-06
1.227337e-06
-7.021651e-06
5.251409e-06
6.495526e-06
3.108725e-06
3.10401e-05
1.19446e-05
6.531684e-06
1.178223e-05
6.492903e-06
5.063956e-06
-2.992689e-05
-6.668272e-06
-5.965799e-06
-2.376676e-06
1.928667e-06
5.331379e-06
-4.782919e-05
-5.633798e-06
-7.495892e-06
-4.603129e-06
4.874393e-06
4.88764e-06
-6.841889e-05
-2.121421e-05
-9.655521e-06
-2.300735e-05
-1.07296e-05
2.630372e-06
-2.306763e-05
-3.773814e-06
4.780432e-06
1.418179e-05
9.303378e-06
9.389694e-06
-0.0001118659
-3.043781e-05
-3.108562e-05
-2.562042e-05
-2.277905e-05
5.222417e-06
-7.880843e-05
3.949163e-05
9.532284e-05
7.768085e-05
3.668133e-05
4.887247e-06
1.583328e-05
-1.581777e-05
-1.684981e-05
-6.879979e-07
9.844143e-06
-0.01907342
0.00799758
0.005436467
0.005259891
0.005139525
0.005050512
-0.00791834
-0.003968424
-0.0001272796
0.0002537146
0.0001857051
0.0002151099
0.0003560714
0.001829881
0.0003562066
0.0005731669
7.812168e-05
5.292963e-05
-0.0002210854
-0.0007820622
-3.640776e-05
1.244817e-06
0.0001058358
7.930824e-05
0.0001436971
0.0002253458
0.0001025906
0.000237999
8.53905e-05
8.871363e-05
5.050078e-05
-0.0001528725
-5.844406e-05
-6.1644e-05
1.331321e-05
2.120323e-05
3.514319e-05
-1.990232e-05
3.161987e-05
7.28576e-05
4.907928e-05
6.585053e-05
3.772146e-05
-0.0001011342
-1.736214e-05
-2.052548e-05
1.325227e-05
1.611197e-05
3.61169e-05
-2.802617e-06
-1.120629e-05
2.503897e-05
2.660016e-05
3.424534e-05
4.527833e-05
-2.91037e-05
-1.269515e-05
-7.59029e-06
8.277271e-06
1.060227e-05
3.004608e-05
5.260666e-06
4.86341e-06
1.139716e-05
1.445377e-05
1.664834e-05
2.84813e-05
9.7566e-07
6.040179e-06
2.279675e-06
6.845154e-06
7.278799e-06
2.798498e-05
2.058042e-06
5.28047e-06
6.402959e-06
7.567834e-06
7.714728e-06
2.774271e-05
1.857061e-06
3.938529e-06
3.100576e-06
3.947674e-06
3.667695e-06
2.751853e-05
2.534332e-06
2.620124e-06
3.120021e-06
3.672852e-06
3.152949e-06
2.723264e-05
2.614225e-06
4.343434e-06
2.28326e-06
1.619057e-06
5.087843e-07
2.724364e-05
9.02819e-06
9.958341e-06
3.642214e-06
1.779748e-06
-7.714957e-07
2.70621e-05
-6.758207e-07
-1.599053e-07
-2.491132e-07
-7.24973e-07
-2.330244e-06
2.741505e-05
5.140729e-06
4.519987e-07
1.538116e-06
-3.365184e-07
-3.246802e-06
2.716363e-05
2.037659e-06
4.745502e-06
1.795784e-06
1.327857e-06
-3.919417e-06
2.784188e-05
-4.054949e-06
9.852303e-07
8.560451e-07
8.730817e-07
-6.618827e-06
3.077483e-05
1.295796e-05
5.582525e-06
-1.860692e-06
1.15737e-06
-9.205982e-06
3.20579e-05
-8.683789e-06
-1.724384e-05
-2.321184e-05
-1.22848e-05
-2.143723e-05
3.852166e-05
-7.439314e-06
5.146703e-06
-9.579856e-06
-5.598187e-07
-2.308913e-05
-0.02200587
0.007512392
0.006065411
0.004623496
0.004459405
0.004523545
-0.007609077
-0.00536413
-0.000310455
-0.0001655486
-4.696692e-05
-4.590497e-05
0.0001916825
0.001431949
0.0003414588
0.0003834565
0.0001845072
0.0001327915
-0.0002387309
-0.001017606
-9.201524e-05
-0.0002466341
2.379749e-05
-4.421426e-05
0.0002137333
0.0004934427
0.0001606081
0.0003165585
0.0001487955
0.0001463034
-2.807012e-07
-0.0001455855
-1.328194e-05
-7.53598e-05
3.292941e-05
-9.431143e-06
7.21039e-05
0.0001817438
7.081072e-05
0.0001592015
7.362921e-05
7.904318e-05
1.258653e-05
-3.086546e-05
-1.687872e-05
-2.490483e-05
5.662185e-06
1.81562e-06
3.215706e-05
4.858561e-05
3.527269e-05
5.826149e-05
3.588829e-05
3.731479e-05
1.917391e-06
-1.226369e-05
-5.432626e-06
-6.605228e-06
2.627734e-06
3.374941e-06
2.198273e-05
1.209917e-05
1.375692e-05
2.103569e-05
1.685366e-05
1.705112e-05
2.168632e-05
3.417322e-06
2.019288e-06
2.331119e-06
3.613945e-06
3.871329e-06
2.426382e-05
3.083986e-06
5.964229e-06
7.033665e-06
7.441697e-06
7.246854e-06
2.349852e-05
2.13437e-06
2.958902e-06
2.387322e-06
3.526945e-06
3.141951e-06
2.421729e-05
3.08477e-06
4.278264e-06
3.562524e-06
3.670181e-06
2.729139e-06
2.426615e-05
1.324625e-06
2.09373e-06
1.206342e-06
2.3648e-06
2.270001e-06
2.392116e-05
5.766444e-06
4.166911e-06
2.746087e-06
2.777696e-06
1.520422e-06
2.449686e-05
-1.171269e-06
7.976735e-07
-5.393826e-07
4.994271e-07
1.134184e-07
2.411408e-05
-7.093443e-07
2.793507e-06
2.08773e-08
5.84254e-07
-5.511549e-07
2.817648e-05
-1.869595e-06
1.078445e-07
-3.833065e-06
-3.417789e-06
-4.299863e-06
2.659441e-05
-5.994194e-07
3.619858e-06
3.613644e-07
2.703871e-06
-7.623558e-07
2.38572e-05
-6.110181e-06
-1.556853e-06
-1.088834e-05
-7.166187e-06
-8.8441e-06
3.227624e-05
-9.179158e-06
4.099594e-06
3.514435e-06
5.962328e-06
1.464207e-06
2.464939e-05
-1.014789e-05
-4.217685e-06
-1.255485e-05
-6.08807e-06
-5.005581e-06
-0.02134921
0.004965377
0.005946549
0.003834185
0.003845042
0.003830105
-0.007149674
-0.004953568
-0.000578357
0.0001541847
-8.267472e-06
6.233148e-05
-2.812151e-05
0.00180514
0.000544003
0.0004610023
0.0001981252
0.0001130307
-0.000144109
-0.0009993361
-0.0001088211
-0.0001500943
2.979196e-05
-2.357153e-06
0.000201947
0.0004736084
0.0001512605
0.0002958695
0.0001163492
0.0001302696
-2.812284e-05
-0.0002317776
-1.181856e-05
-9.846075e-05
1.236843e-05
-8.623369e-06
6.150784e-05
0.0001306056
5.349328e-05
0.0001256169
6.259606e-05
7.636112e-05
5.389557e-06
-6.437518e-05
-1.203e-05
-3.504023e-05
3.657006e-06
4.87199e-07
2.681799e-05
3.561078e-05
2.21e-05
4.76267e-05
3.244568e-05
3.698533e-05
1.171999e-05
-1.834849e-05
-5.572048e-06
-8.981777e-06
3.292785e-06
4.44717e-06
2.044527e-05
1.002563e-05
1.062335e-05
1.781765e-05
1.578354e-05
1.715103e-05
1.748982e-05
-1.295924e-06
1.28197e-06
1.241112e-06
4.240665e-06
4.76391e-06
1.947405e-05
4.720146e-06
6.239052e-06
7.676666e-06
7.609065e-06
7.619116e-06
1.793507e-05
1.175268e-06
2.627228e-06
2.625305e-06
3.451162e-06
3.394713e-06
1.884734e-05
2.981315e-06
3.650627e-06
3.83995e-06
4.117704e-06
3.413295e-06
1.817186e-05
1.227023e-06
2.222286e-06
1.905241e-06
2.134844e-06
1.093883e-06
1.862529e-05
3.075119e-06
3.403827e-06
2.19474e-06
2.363468e-06
6.118421e-07
1.843237e-05
1.136567e-06
2.246671e-06
7.566854e-07
1.332311e-06
-2.130705e-06
1.785058e-05
2.15063e-06
3.713929e-06
1.018328e-06
2.270256e-06
-3.1781e-06
1.882074e-05
2.747477e-06
4.899028e-06
-1.252726e-06
1.919295e-06
-8.548685e-06
1.848945e-05
4.073056e-06
8.206792e-06
-6.696791e-08
5.676289e-06
-1.125766e-05
2.01317e-05
3.455519e-06
8.627928e-06
-9.366798e-06
5.242665e-06
-2.71747e-05
2.00348e-05
5.10201e-07
1.216458e-05
-6.556272e-06
1.236282e-05
-2.932534e-05
-1.899734e-05
-5.769265e-06
1.705962e-05
-2.65065e-05
1.62942e-05
-7.038781e-05
-0.02073582
0.005852211
0.003678852
0.003643735
0.003386192
0.003477272
-0.007430935
-0.004972437
-0.0005886563
0.0001474475
-1.589638e-05
3.909414e-05
-0.0006667413
0.001820056
0.0005509038
0.0004645139
0.0002061428
0.0001401852
-0.0001625203
-0.0009959498
-0.0001088379
-0.0001507475
2.992581e-05
-2.537827e-06
0.0001741541
0.0004751137
0.000153184
0.0002980071
0.0001184656
0.0001358083
-1.897706e-05
-0.0002315195
-1.132607e-05
-9.775235e-05
1.349869e-05
-6.661936e-06
5.185783e-05
0.000131545
5.441513e-05
0.0001266421
6.350085e-05
7.804625e-05
7.143672e-06
-6.415175e-05
-1.144556e-05
-3.456567e-05
4.314852e-06
1.497676e-06
2.498651e-05
3.552847e-05
2.224968e-05
4.767072e-05
3.270341e-05
3.742481e-05
1.257758e-05
-1.814794e-05
-5.746719e-06
-9.015659e-06
3.320821e-06
4.674647e-06
1.844868e-05
8.7659e-06
9.448057e-06
1.721336e-05
1.558525e-05
1.724347e-05
1.574323e-05
-1.156536e-06
1.15319e-06
1.171406e-06
4.168156e-06
4.748501e-06
1.818441e-05
5.927542e-06
6.891547e-06
8.097995e-06
7.741709e-06
7.656839e-06
1.65691e-05
1.332723e-06
2.830003e-06
2.558671e-06
3.387897e-06
3.367566e-06
1.692885e-05
3.720684e-06
3.885853e-06
4.031453e-06
4.083573e-06
3.473631e-06
1.674051e-05
1.477888e-07
1.315864e-06
1.339564e-06
1.668593e-06
1.142972e-06
1.645412e-05
1.04598e-06
1.999095e-06
1.262176e-06
1.595181e-06
8.165909e-07
1.705377e-05
9.355509e-07
1.966981e-06
6.519159e-07
5.086326e-07
-1.258578e-06
1.63125e-05
1.479091e-08
2.162463e-06
-9.258418e-08
6.000104e-07
-1.068476e-06
1.657057e-05
3.023342e-06
4.885437e-06
-5.003982e-07
-5.625867e-07
-3.703751e-06
1.711209e-05
5.590893e-06
7.872329e-06
7.930479e-08
1.744344e-07
-1.580403e-06
1.788319e-05
3.928778e-06
6.95316e-06
-5.619903e-06
-4.260587e-06
-4.771283e-06
1.761605e-05
3.412166e-06
4.709564e-06
-6.528489e-06
-6.508748e-06
2.171624e-06
-2.039311e-05
-1.508126e-06
-9.148143e-07
-2.36472e-05
-2.257489e-05
5.07129e-06
-0.01934825
0.008563673
0.002662953
0.003962364
0.004114765
0.004169811
-0.007567347
-0.005322247
-0.0002683749
-0.0001446558
-2.083144e-05
-4.781963e-06
-0.0009572173
0.001448262
0.0003199752
0.0003648864
0.0001712561
0.0001147862
-2.991179e-05
-0.001015842
-8.778708e-05
-0.0002412109
3.140273e-05
-3.136293e-05
0.0001723636
0.0004938392
0.0001575331
0.0003147441
0.0001449112
0.0001390099
-5.951626e-06
-0.0001470036
-1.269659e-05
-7.557897e-05
3.350577e-05
-1.056559e-05
6.548528e-05
0.0001801166
7.064072e-05
0.0001579186
7.214069e-05
7.624274e-05
9.469922e-06
-3.264269e-05
-1.619542e-05
-2.566534e-05
5.530786e-06
7.969334e-07
3.61055e-05
4.534017e-05
3.500992e-05
5.636125e-05
3.477721e-05
3.651855e-05
1.507213e-05
-1.049958e-05
-5.422966e-06
-6.466721e-06
2.787514e-06
3.369207e-06
2.514447e-05
8.441791e-06
1.225177e-05
1.987451e-05
1.650688e-05
1.634917e-05
1.742144e-05
3.774511e-06
2.643044e-06
2.110977e-06
3.809012e-06
4.19748e-06
2.36959e-05
1.064064e-05
9.57752e-06
9.925607e-06
9.297006e-06
8.474336e-06
1.868463e-05
8.996713e-07
3.447783e-06
2.515296e-06
3.973628e-06
3.287824e-06
2.07363e-05
6.725796e-06
5.203024e-06
4.798933e-06
4.566e-06
3.579334e-06
2.021813e-05
-1.617279e-06
4.52996e-07
9.433738e-07
2.408097e-06
1.180969e-06
1.830502e-05
5.814844e-07
2.125168e-06
6.508005e-07
2.237581e-06
8.165687e-07
1.999326e-05
2.27533e-06
7.035056e-07
-1.172621e-06
1.116597e-06
-2.287671e-06
1.835864e-05
-4.228822e-06
1.085356e-06
-1.340467e-06
4.262493e-06
-4.576202e-06
1.822369e-05
3.001866e-06
4.562158e-06
-7.57069e-06
4.682865e-06
-1.576594e-05
1.993757e-05
7.350885e-06
1.096213e-05
-3.333408e-06
1.427755e-05
-1.989258e-05
1.823279e-05
-5.073866e-06
1.280235e-05
-3.160567e-05
2.402064e-05
-6.61461e-05
1.514466e-05
-5.622512e-06
3.336417e-05
-4.850847e-06
5.431217e-05
-6.207846e-05
-2.467596e-05
-6.719431e-06
8.626491e-05
-8.325149e-05
8.626647e-05
-0.0002886248
-0.02058485
0.007972587
0.006297967
0.005094996
0.004825426
0.004827613
-0.006694035
-0.004016266
-0.0001183233
0.0002608248
0.0002013973
0.0002477099
-0.0007370736
0.001838866
0.0003527527
0.0005708274
7.023512e-05
3.929767e-05
-5.658358e-05
-0.0007883973
-3.561336e-05
2.469895e-06
0.0001084923
8.232038e-05
0.000194797
0.0002269022
0.0001013711
0.0002366614
8.272159e-05
8.526804e-05
-2.749453e-06
-0.0001556249
-5.876605e-05
-6.046056e-05
1.424235e-05
2.488385e-05
5.34123e-05
-1.478263e-05
3.553232e-05
7.480225e-05
4.985655e-05
6.725621e-05
2.979747e-05
-0.0001013409
-1.432219e-05
-1.972028e-05
1.450712e-05
1.75674e-05
3.232363e-05
-2.760938e-06
-1.284644e-05
2.341085e-05
2.636558e-05
3.405913e-05
3.134893e-05
-2.902672e-05
-1.490846e-05
-8.816049e-06
7.180429e-06
1.026707e-05
3.059821e-05
-4.133189e-06
-7.681464e-06
7.600859e-06
1.262917e-05
1.643435e-05
2.665233e-05
3.252659e-06
3.803708e-06
2.013264e-06
6.579437e-06
6.986029e-06
2.693377e-05
1.255758e-05
1.330657e-05
9.294983e-06
8.584665e-06
7.870892e-06
2.59358e-05
3.214545e-06
7.168548e-06
3.304134e-06
4.163145e-06
3.564314e-06
2.625944e-05
1.025623e-05
7.497991e-06
5.549923e-06
4.494859e-06
3.003163e-06
2.492978e-05
-4.206649e-06
-2.239675e-06
9.028375e-08
5.06298e-07
2.997731e-07
2.595787e-05
-3.571461e-06
1.015854e-06
7.521546e-07
-9.394594e-08
-1.93307e-06
2.500255e-05
1.720428e-06
6.639726e-06
3.331567e-06
6.951856e-08
-2.303747e-06
2.537784e-05
-7.53539e-06
-9.643531e-07
-1.676013e-07
-3.794536e-06
-4.493201e-06
2.532075e-05
5.652249e-06
2.05009e-05
6.935399e-06
8.475381e-07
-1.524102e-06
2.399481e-05
2.669474e-05
4.281265e-05
1.228055e-05
-1.028788e-06
-5.618303e-07
2.334098e-05
3.348831e-05
4.478921e-05
1.840528e-05
-2.904315e-06
8.41548e-06
2.262828e-05
6.541144e-05
4.121714e-05
9.763821e-07
-1.420792e-05
1.831833e-05
-3.322573e-05
8.596405e-05
6.284957e-05
6.694044e-05
-4.560958e-05
0.0001221732
-0.02254549
0.007661313
0.004769858
0.003984552
0.003896806
0.003896683
-0.006559755
-0.005154986
0.0005719857
-9.801732e-05
0.0004240109
0.0001538338
-0.0007168967
0.0007604769
0.000300745
0.0002516842
4.582586e-05
-8.690701e-05
-0.0001507679
-0.0006578793
0.000160633
-4.921554e-05
3.227884e-05
2.69311e-05
0.0001188937
0.0005421913
0.0003526301
0.0002231044
0.000193363
0.0001537302
6.579402e-05
9.140778e-05
0.0002447129
0.0001232953
0.0001579908
-2.559703e-05
2.971973e-05
0.0005262817
-3.768845e-07
0.0001794658
5.847914e-05
4.707513e-05
5.132215e-05
0.0001410617
7.03915e-06
1.482681e-05
4.609199e-06
-2.662461e-06
3.265203e-05
0.0001326758
0.0001057005
7.456657e-05
3.50466e-05
2.746539e-05
3.840721e-05
6.465918e-05
3.329525e-05
7.274294e-06
6.335285e-06
8.26814e-07
4.12667e-05
2.200639e-05
2.812915e-05
3.127819e-05
2.263154e-05
1.072509e-05
2.525022e-05
4.831379e-05
1.376335e-05
7.356462e-06
1.078243e-06
2.424457e-06
2.935186e-05
6.276706e-05
2.408285e-05
1.684719e-05
1.651522e-05
9.600614e-06
2.224768e-05
-3.984503e-05
7.193234e-07
-9.711488e-07
7.838378e-06
1.953562e-06
2.777215e-05
5.230465e-05
1.282149e-05
6.253508e-06
6.366991e-06
5.36291e-06
2.573382e-05
-7.62811e-06
2.725249e-06
-4.441101e-07
7.198958e-06
1.864517e-06
2.243292e-05
-2.234016e-05
-5.385868e-06
-9.424623e-06
1.861455e-06
9.057805e-06
2.2823e-05
1.685423e-05
-2.659001e-05
-1.268668e-05
-1.076734e-05
4.397174e-06
2.493551e-05
-7.102555e-05
-2.023797e-05
-7.474446e-06
1.136092e-05
3.704764e-06
2.158929e-05
-3.056019e-05
-2.483128e-05
-2.510783e-05
-4.151407e-06
-2.06202e-05
2.36106e-05
-4.03732e-05
-5.259271e-05
-2.079661e-05
2.147423e-05
-2.103333e-05
1.593037e-05
-0.000152225
-7.79084e-05
-0.0001173249
7.584057e-05
-7.245852e-05
1.652582e-05
-0.0002827456
-3.739379e-05
5.005942e-05
0.0001826618
-5.81203e-05
-2.764337e-05
-0.0004628019
-7.135124e-05
-0.0003211274
0.000542439
-0.0006586047
-0.01530823
-0.001350883
-0.001141118
-0.001233997
-0.001286126
-0.001296436
-0.004318538
0.005811651
-0.004416303
-0.006597073
-0.006899963
-0.007019828
-0.007040252
-0.001414152
0.001679292
-0.000929404
-0.002232027
-0.003154176
-0.003126648
-0.003244352
-0.001885041
0.00182575
-0.0005900898
-0.0005197084
-0.0002546515
-0.0003045218
-0.0003391042
-0.001916686
-0.0006570708
0.0003777798
0.000387392
0.0003406967
0.0002053598
0.0001893547
-0.001825124
0.0007273894
0.0004224824
0.0002688106
0.0001815186
8.090501e-05
0.000165099
-0.00196183
0.0003797985
-0.0005617798
-0.0001358361
-2.228445e-05
5.53867e-05
9.336285e-05
-0.001982061
0.000160886
0.0001126238
-9.114818e-06
-3.712165e-05
-8.946396e-06
3.594586e-06
-0.001993854
4.509654e-05
7.017712e-05
-9.059984e-05
-2.492325e-05
-4.37327e-06
2.429348e-06
-0.001974362
-5.949714e-06
-0.0001642483
-0.0001250015
-5.917957e-05
-4.156166e-05
-3.433047e-05
-0.001981765
-2.712758e-05
-0.0002022168
-0.00012403
-5.469947e-05
-2.963389e-05
-2.200266e-05
-0.001998699
-0.0002320982
-7.859118e-05
-0.0001226335
-6.178262e-05
-3.501717e-05
-2.724558e-05
-0.001993106
0.0001578694
-0.0002201907
-0.0001077063
-5.066841e-05
-2.967922e-05
-2.514336e-05
-0.00199762
-1.378659e-05
-0.0001449863
-9.880489e-05
-6.028474e-05
-3.633487e-05
-3.270851e-05
-0.001985156
-6.577384e-05
-2.870043e-05
-8.608563e-05
-5.392339e-05
-3.017303e-05
-2.605982e-05
-0.001995497
-1.410384e-05
-0.0003550133
-0.000111057
-5.723297e-05
-3.811291e-05
-3.399929e-05
-0.001993049
6.50615e-06
-0.0001530426
-0.0001083853
-7.000832e-05
-3.473997e-05
-2.832405e-05
-0.00199395
4.200952e-06
-0.0002640404
-6.604087e-05
-4.769244e-05
-4.493231e-05
-4.372112e-05
-0.001992103
-5.050391e-05
-0.0001333916
-2.108854e-05
-4.719426e-05
-6.828394e-05
-3.714687e-05
-0.001992097
-0.0001832029
-0.0002547385
-2.107817e-05
-4.842234e-05
-7.427527e-05
-3.826711e-05
-0.001991391
2.751233e-05
-0.0001781834
2.544786e-06
1.859025e-05
-3.650272e-05
-3.80151e-05
-0.001985395
-3.731548e-05
-0.0001865532
1.102807e-05
1.074024e-06
-5.294126e-05
-2.318622e-05
-0.001980997
9.335491e-05
-3.058683e-05
-8.16654e-05
2.571458e-05
-0.0003248899
-8.452754e-05
-0.002033894
7.006079e-05
-0.0002708934
0.001207374
-0.0001064243
0.0001614356
-1.464911e-05
-0.008198232
-0.02215564
-0.00195293
-0.003032346
-0.01340346
0.002668528
-0.01535714
0.002236488
-0.0002628209
0.00397882
-0.01909925
0.003462663
-0.001350391
-0.0006062254
-0.006595628
0.009116776
-0.01919976
0.003963999
-0.001148936
-2.582077e-05
-0.008590567
0.008327706
-0.01896855
0.004261059
-0.001236826
-0.0001376924
-0.008484542
0.008398172
-0.01899009
0.004238427
-0.001280348
-4.480064e-05
-0.008599177
0.008412711
-0.01897563
-0.001295897
-0.00857688
-0.01739043
0.007014724
-0.004183365
0.00181223
0.002931252
0.000374178
-0.01570448
0.01019636
-0.001415371
0.0003987037
0.002198091
-0.0003676518
-0.01667274
0.01532555
-0.001884664
0.0009297839
0.002127596
0.0001824911
-0.01193628
0.01112664
-0.001919444
-5.127446e-05
0.002200229
0.0001669348
-0.01571312
0.01247211
-0.001825696
0.0003021077
0.002040376
1.017204e-05
-0.01457206
0.01384442
-0.001957005
1.799153e-05
0.00198195
-0.0001797738
-0.01358419
0.01346832
-0.00198619
5.188858e-05
0.002016551
4.269143e-05
-0.01343277
0.01333408
-0.001969144
3.486777e-05
0.001998767
4.135249e-05
-0.01349866
0.01418226
-0.001983216
-9.416557e-06
0.001994186
-1.743363e-05
-0.0131666
0.0133693
-0.001998135
1.374624e-06
0.002001676
5.278731e-05
-0.01355737
0.01353547
-0.001982906
1.643e-05
0.001994838
2.746501e-05
-0.01341881
0.01397044
-0.001989569
-2.297197e-05
0.00200061
-1.091382e-05
-0.01330012
0.01334607
-0.001991901
-2.148123e-05
0.001994944
4.066699e-05
-0.01362137
0.01387793
-0.001991711
1.561479e-06
0.001997701
-1.540218e-05
-0.01332426
0.01339984
-0.001993648
-1.953282e-05
0.001990939
2.659874e-05
-0.01364356
0.01341046
-0.001991188
5.147587e-06
0.001988741
2.332597e-05
-0.01351763
0.01394772
-0.001993969
-2.071729e-05
0.001998491
-1.361204e-05
-0.01335049
0.01345777
-0.001992945
-1.9241e-05
0.001991513
2.288449e-05
-0.01350513
0.01396725
-0.001995829
-1.644707e-05
0.002004072
-3.881769e-05
-0.01323266
0.01357621
-0.001986672
-2.355558e-06
0.00200087
3.049716e-05
-0.01335225
0.01447952
-0.001988031
-1.837423e-05
0.00197532
-4.935031e-05
-0.01287808
0.01406616
-0.002011262
-5.026691e-05
0.001984001
4.301238e-05
-0.01315444
0.000799912
-0.002024657
-7.084054e-05
0.00195364
-9.731505e-05
-0.01228545
-0.001882796
-0.001219691
-0.01249209
0.0008301355
-0.003038652
-0.0110388
-0.0009847266
0.002729744
-0.009621253
0.0007553397
0.001165817
-0.01084767
-0.0006726586
0.001808485
-0.009856384
-0.0003513565
0.002100961
-0.01045616
-0.0001213387
0.002355065
-0.009868746
-0.000175617
0.002245337
-0.01002219
-0.0005351633
0.001808712
-0.009881666
-0.0002078339
0.002628289
-0.009734276
-0.000122892
0.001959704
-0.01059654
-0.0006110381
0.002435953
-0.009304341
0.0004502546
0.001023802
-0.01055721
-0.0009675959
0.002424041
-0.01196082
0.0008902362
-0.003005153
-0.01242399
-0.001432588
-0.001075633
-0.02204114
-0.001843218
-0.003001663
-0.008155934
-0.008583038
-0.01895529
0.001848942
0.002937475
0.0003917095
-0.01739126
0.007019643
0.0004105974
0.002201022
-0.0003627203
-0.01570428
0.01019328
-4.774032e-05
0.002197877
0.000169044
-0.01193056
0.01119817
0.000319608
0.002028247
-4.436245e-05
-0.01561558
0.01300758
5.773887e-05
0.00198993
-0.0001452051
-0.01429058
0.01372258
-3.305003e-06
0.001998895
-3.92112e-05
-0.01335628
0.01434539
-1.588819e-05
0.002014154
5.785586e-05
-0.01301133
0.01377328
3.502465e-05
0.001998433
3.084598e-05
-0.01341881
0.01388364
-1.840718e-05
0.001999409
-2.490977e-05
-0.01333934
0.01427538
-3.677951e-05
0.001998097
8.968566e-05
-0.01311541
0.0131435
4.710861e-05
0.002002486
-4.537263e-05
-0.01414648
0.01432426
-3.684325e-05
0.002005856
5.091847e-05
-0.01315844
0.01371559
4.016309e-05
0.001995049
4.776721e-05
-0.01357536
0.01347681
-1.818785e-05
0.002000977
-3.250397e-05
-0.01369592
0.01417835
-1.775923e-05
0.002002675
1.14483e-05
-0.01325283
0.01370623
2.730561e-06
0.001997346
1.616147e-05
-0.01346127
0.01379897
-3.102742e-05
0.001992422
3.41797e-05
-0.01321435
0.01320679
-5.829541e-06
0.001990781
-1.904919e-05
-0.01392664
0.01375231
-3.280902e-05
0.001974653
-4.223299e-05
-0.01327492
0.01395611
1.109628e-05
0.001941586
-9.05568e-05
-0.01319038
0.01481754
7.001686e-05
0.00196301
0.0001696909
-0.01252508
0.0008601328
0.004659898
-0.01916292
0.003138576
-0.01264788
0.001071848
-0.002457387
-0.001036247
-0.01623221
-0.0006316508
0.01513107
-0.0004529719
-0.01651352
-0.001449761
0.007155601
-0.0004633191
-0.01477384
0.0007281397
0.01563974
0.00025246
-0.00816729
-0.0004584964
0.01549059
0.0009971915
-0.01045817
-0.0004432203
0.01536353
0.0003542527
-0.01316449
-0.0002924394
0.01483699
0.0003760909
-0.01376758
-0.0003757995
0.01496471
0.0003238647
-0.01529062
-0.0003507462
0.01536344
0.0002724504
-0.01414717
-0.000165547
0.01481934
0.0003331465
-0.01489872
-0.0003300548
0.01495321
0.0003321588
-0.01489788
-0.0003143736
0.01531381
0.0003611113
-0.01487572
-0.0002010063
0.0151036
0.0003801862
-0.01440261
-0.0002806487
0.01536373
0.0002976898
-0.01507923
-0.000202602
0.01529512
0.0003439502
-0.01465
-0.0003757918
0.0145776
0.0003086802
-0.01530129
-0.0002938062
0.01534
0.0003368281
-0.01482873
-0.0001762667
0.01520155
0.0003364804
-0.01451871
-0.0003379602
0.01539465
0.0002999478
-0.01441103
-0.0002700355
0.01507644
0.0003774058
-0.01454268
-0.0003357554
0.01528409
0.0005167278
-0.01427049
-0.0002791109
0.01431331
-0.0004167461
-0.01191033
0.000159647
0.01555643
-0.01685974
-0.01905169
-0.01732024
-0.01773887
-0.01500946
-0.01699611
-0.01641239
-0.01642124
-0.01520161
-0.01691224
-0.01644982
-0.01613292
-0.01665337
-0.01633662
-0.0197321
-0.01837612
0.0006925788
-0.01133889
0.002258302
-0.0002383243
0.003991797
-0.01336177
0.002665781
-0.0005955081
-0.006592001
0.0091203
-0.01910186
0.003456685
-2.227235e-05
-0.008591228
0.008334417
-0.0192165
0.003955995
-0.0001368313
-0.008494779
0.008395087
-0.0189831
0.004253248
-4.689663e-05
-0.008613184
0.008412485
-0.01900841
0.004249822
0.0009281301
0.002127397
0.0001964097
-0.01666596
0.01533552
-8.734313e-06
0.002000863
-2.337435e-05
-0.01345029
0.01419495
0.004488717
0.005638751
0.007689038
-0.02279092
0.0008461103
-0.01213902
0.0007985501
0.007806852
0.001013422
-0.01712378
-0.001800477
0.005744204
0.0004893981
-0.01329967
0.000692431
0.01413712
-0.0008813285
-0.0158072
-0.0003674373
0.01477134
0.000149088
-0.006958284
-0.0004798047
0.01520487
0.0007358349
-0.007864123
-0.0003166913
0.01536422
0.0004275899
-0.01411617
-0.0005091334
0.01534688
0.0005013238
-0.01543168
-0.0004297201
0.01514934
0.0003880541
-0.0152677
-0.0002847623
0.0154549
0.0004095301
-0.01428814
-0.0004549142
0.01528726
0.0004098933
-0.01537606
-0.0003879605
0.01531429
0.0003465035
-0.01532117
-0.000318042
0.01534927
0.000352897
-0.01504701
-0.0005128643
0.01529714
0.0002323684
-0.01532793
-0.000249326
0.0153293
0.0003732413
-0.01424892
-0.0004336183
0.01528496
0.0003798564
-0.01449833
-0.0004345857
0.0149416
0.0003192639
-0.01535825
-0.0003115631
0.01533602
0.0003786211
-0.01462888
-0.0004474271
0.01530462
0.0002242253
-0.01531768
-0.0002673299
0.01541761
0.0004084566
-0.01301446
-0.0003992254
0.0153416
0.0003785278
-0.01527561
-0.0003266103
0.01545526
0.0004543682
-0.01512127
-0.0005688296
0.01546191
-0.0001397351
-0.01536765
-0.0001071902
0.003425799
-0.007885187
0.0004277098
-0.02010463
-0.01889554
-0.01557185
-0.01549452
-0.01806081
-0.0181983
-0.01676565
-0.01634495
-0.01658817
-0.01631205
-0.01664407
-0.01724564
-0.01734884
-0.01679403
-0.01759741
-0.01882538
0.00481135
-0.01916553
0.002103753
-0.01513167
0.0008958622
-0.01309268
0.004330208
0.005668319
0.007787964
-0.02279795
0.01123285
-0.01229301
-0.009779744
-0.01055904
0.003170473
-0.0126238
0.0009909297
-0.002460577
0.00078212
0.00778082
0.001021193
-0.01712461
-0.00103487
-0.0162261
-0.0006127694
0.01513864
-0.001770235
0.005673439
0.0005159403
-0.0131378
-0.0004724416
-0.01477509
0.0007048189
0.01564115
-0.0003437357
0.01478842
8.864151e-05
-0.007253513
0.0002706943
-0.00821472
-0.0004439794
0.01550452
-0.0004992253
0.01524899
0.0007156006
-0.007712685
-0.0004163228
0.01555382
0.000226881
-0.01337359
0.001001738
-0.009815382
-0.0003110431
0.01369262
0.0003927481
-0.0151814
-0.0001528428
0.01516646
-0.0005731148
0.01415559
0.0002655232
-0.0152913
0.0006343319
-0.01533819
-0.0001848846
0.01485467
0.0002898087
-0.01508696
-1.08991e-05
0.0152447
-0.0004871201
0.01526134
0.0003120311
-0.01387589
0.0005213051
-0.01490989
-0.0004553048
0.01522872
-0.0004655554
0.01525133
0.0003393448
-0.01515387
0.0004754139
-0.01526087
-0.0004606394
0.014952
-0.0005967135
0.01338232
0.0003935493
-0.01533205
0.0004641065
-0.01527564
-0.0006205935
0.01214803
0.0002997836
-0.01510754
-2.960714e-06
0.01517573
-0.001013835
0.01339947
-0.01460851
0.0004276402
-0.01213067
-0.01538946
-0.01247788
-0.01697374
-0.01441132
-0.009137547
-0.01109777
-0.01465809
-0.01324447
-0.009207524
-0.01399586
-0.01007919
-0.007628143
-0.01531574
-0.01397576
-0.01041849
-0.01109598
-0.01526634
-0.01233364
-0.02011839
0.002139119
-0.01518672
0.0009063528
-0.01302598
-0.01812051
-0.01241023
-0.006400919
-0.01516604
-0.01266091
-0.01017162
-0.01079812
-0.01387951
-0.00833258
-0.01525941
-0.0142968
-0.01094641
-0.01090866
-0.01607789
-0.01058984
-0.01374632
-0.01673823
-0.01199249
-0.01245662
-0.01616847
-0.0004947924
0.008097094
0.003277846
-0.01307517
0.001722127
-0.001447501
-0.002117534
0.001320303
0.003727883
-0.009920881
0.01181836
0.002985171
0.001040807
-0.009813833
0.01388091
-0.001033373
0.001522351
-0.009886898
-0.001204947
0.01461941
-0.001247269
0.009964092
0.0009393589
-0.01379578
0.001860696
-0.009377283
0.01327229
-0.001432878
-0.001199579
0.009847929
0.001052305
-0.01393659
0.0009956992
-0.009662869
-0.0004949815
0.01512486
-0.0005174992
0.01303686
0.0004057838
-0.01526425
0.0002066526
-0.01533456
-6.377655e-05
0.01526091
-0.0007650622
0.01468029
0.0001896204
-0.01547971
0.0003588494
-0.01527742
-2.957255e-05
0.01527294
-0.0006324612
0.01420801
0.0006129613
-0.01286117
0.0004561247
-0.01528402
-0.0002383882
0.01354154
-0.0003042281
0.01549428
-0.0001527339
-0.01532827
0.0007666226
-0.01271588
6.554528e-05
0.01529915
-0.0008115273
0.0151519
0.000331328
-0.01237821
0.0001816925
-0.01527662
-0.000223726
0.0151998
-0.0002585037
0.01538583
0.0002544789
-0.01532453
0.0006819729