/*--------------------------------*- C++ -*----------------------------------*\
  =========                 |
  \\      /  F ield         | OpenFOAM: The Open Source CFD Toolbox
   \\    /   O peration     | Website:  https://openfoam.org
    \\  /    A nd           | Version:  7
     \\/     M anipulation  |
\*---------------------------------------------------------------------------*/
FoamFile
{
    version     2.0;
    format      ascii;
    class       volScalarField;
    location    "0.1";
    object      Uy;
}
// * * * * * * * * * * * * * * * * * * * * * * * * * * * * * * * * * * * * * //

dimensions      [0 1 -1 0 0 0 0];

internalField   nonuniform List<scalar> 
77308
(
-0.04833543
-0.05347107
-0.05630601
-0.06149571
-0.06477238
-0.07048733
-0.04802443
-0.05292224
-0.05674975
-0.06114865
-0.06378847
-0.07018225
-0.04372805
-0.04519418
-0.04804847
-0.05166386
-0.05435769
-0.05952555
-0.0435102
-0.0455317
-0.04809124
-0.05096297
-0.05429219
-0.05850722
-0.04015791
-0.04175224
-0.04359904
-0.04617415
-0.04906069
-0.05293919
-0.03758352
-0.03906506
-0.04085541
-0.04306701
-0.04590657
-0.04932993
-0.03379885
-0.035051
-0.03654641
-0.038523
-0.04100835
-0.04408699
-0.02983751
-0.03097275
-0.03228605
-0.03400174
-0.03620401
-0.03888568
-0.02532635
-0.02628723
-0.02737626
-0.02881695
-0.03069626
-0.0329621
-0.02054406
-0.02129742
-0.02211602
-0.0232923
-0.02475413
-0.02659249
-0.01546827
-0.01596082
-0.0167297
-0.01754867
-0.01871088
-0.02008808
-0.01033554
-0.01077316
-0.01095973
-0.01156734
-0.01229672
-0.01322955
-0.005655001
-0.005267904
-0.004500211
-0.00358231
-0.002934992
-0.002441942
-0.0003596905
0.0001175272
0.0008532243
0.001766704
0.002547315
0.003173231
1.035991
1.040161
1.026719
1.026178
1.0265
1.0298
0.9433928
0.9875799
0.9841798
0.9779332
0.9771897
0.9762198
0.8202173
0.8332644
0.8433236
0.8406027
0.8353823
0.8414893
0.7917129
0.8057672
0.8143582
0.8277068
0.8330128
0.8400578
0.7023966
0.7152964
0.7199716
0.7237379
0.7257426
0.7358377
0.6537212
0.6661132
0.6738007
0.6834012
0.6927711
0.7056459
0.5802185
0.5883438
0.5948552
0.6026898
0.613984
0.6279626
0.5156447
0.5239868
0.5331413
0.5436245
0.5585213
0.5759008
0.4401259
0.4478858
0.4566642
0.4675317
0.4838815
0.5036518
0.3658542
0.3732302
0.3825813
0.3944786
0.4120957
0.4343228
-0.04839206
-0.04795337
-0.05023508
-0.05303532
-0.0564071
-0.06051487
-0.05298681
-0.0476516
-0.0470075
-0.04842424
-0.05097323
-0.05417955
-0.05818937
-0.05036495
-0.04422858
-0.04677496
-0.04865459
-0.05154538
-0.05490959
-0.05907165
-0.05060509
-0.04347933
-0.04446325
-0.04644903
-0.04885777
-0.05204452
-0.05589059
-0.04728709
-0.04044604
-0.04210331
-0.04373634
-0.04623818
-0.04922164
-0.05294256
-0.04616518
-0.03780348
-0.03891445
-0.04056482
-0.04271759
-0.04550685
-0.04888273
-0.04123354
-0.03422118
-0.0351299
-0.03658567
-0.03855655
-0.04104887
-0.04410811
-0.03744705
-0.03011667
-0.03093851
-0.03221887
-0.03392326
-0.03610546
-0.03877661
-0.03083981
-0.02558106
-0.02632447
-0.02740181
-0.02884263
-0.03070565
-0.03297982
-0.02568404
-0.02077104
-0.02120483
-0.02200345
-0.02313028
-0.0245624
-0.02636807
-0.01929664
-0.01598619
-0.01608004
-0.01679007
-0.01763915
-0.0188175
-0.02020717
-0.01280413
-0.01023859
-0.009973826
-0.01016451
-0.01061694
-0.01115421
-0.01192379
-0.006969076
-0.005070783
-0.00495505
-0.004589005
-0.004924171
-0.004648415
-0.00497067
-0.0005025412
-0.0002077858
-0.0004482996
-0.000353892
-0.0004358228
-0.0003362822
1.040706
1.001831
1.039104
1.014669
1.004087
0.9977015
1.000731
0.9467358
0.9594613
0.992267
0.99808
0.9897816
0.9909191
0.9884227
0.8468456
0.8222585
0.8381172
0.8438302
0.8389764
0.8386439
0.8460406
0.862755
0.8074563
0.8256883
0.8308604
0.8329189
0.8390639
0.8483688
0.7998616
0.7244156
0.7330863
0.7225727
0.7212186
0.7259753
0.7376834
0.7380106
0.6672085
0.6768502
0.6797917
0.6880316
0.6981704
0.7114189
0.6632725
0.5893329
0.5912734
0.5949818
0.6029805
0.6140505
0.628446
0.5879985
0.5221927
0.526238
0.5345279
0.5453011
0.5600262
0.5775705
0.5090541
0.4442358
0.4480152
0.4561753
0.4670129
0.4832794
0.5030187
0.3487515
0.3698599
0.3735752
0.3828232
0.3946119
0.4121789
0.4343819
-0.04764075
-0.04719359
-0.05039666
-0.05250382
-0.05634113
-0.06044939
-0.05225492
-0.04806163
-0.04835627
-0.0506314
-0.05285327
-0.05656912
-0.06068121
-0.04735432
-0.04435259
-0.04586264
-0.0480172
-0.05006196
-0.05350551
-0.05733473
-0.04109033
-0.0442344
-0.04456734
-0.04712104
-0.04941524
-0.05273721
-0.0566595
-0.0404549
-0.04081638
-0.04191563
-0.04358774
-0.04585441
-0.04882416
-0.05245231
-0.03679032
-0.03808445
-0.03887219
-0.04070437
-0.04277159
-0.04560201
-0.04896459
-0.03333332
-0.03422651
-0.03507893
-0.03650677
-0.03840774
-0.04088026
-0.04390351
-0.02931675
-0.0301734
-0.030902
-0.03217577
-0.03383728
-0.03600727
-0.03866348
-0.02508772
-0.02562665
-0.02615561
-0.027195
-0.02854267
-0.03036627
-0.03259529
-0.02022297
-0.02063781
-0.02112704
-0.02175317
-0.0228585
-0.02423483
-0.02602785
-0.01504177
-0.01551612
-0.01535102
-0.01595756
-0.01666186
-0.01770575
-0.01900141
-0.009901246
-0.009712255
-0.009841773
-0.009420858
-0.009955874
-0.01042317
-0.01119249
-0.00608042
-0.004347658
-0.00288049
-0.002928622
-0.003457274
-0.003483675
-0.003775135
-9.984919e-05
1.056398
1.037416
0.7618544
0.852723
0.8688019
0.8171524
0.8973689
0.9455897
0.9989725
0.9444207
0.9575655
0.990424
0.980181
0.9853261
0.7970389
0.8352465
0.7997963
0.7992742
0.8312416
0.8203497
0.8279369
0.7797472
0.8214937
0.8115973
0.8132465
0.8339693
0.837795
0.8454086
0.6853576
0.726322
0.7084946
0.7173881
0.7176806
0.7292031
0.7323984
0.6479528
0.6704994
0.6672675
0.6784748
0.6877595
0.6999543
0.7091258
0.5718283
0.5892743
0.5845439
0.5957212
0.6006926
0.6148257
0.6270224
0.5096159
0.5224661
0.524601
0.5346144
0.5435807
0.5601398
0.5764591
0.4345073
0.4448719
0.4463522
0.4559903
0.4656608
0.4830599
0.5017441
0.3642326
0.3694862
0.372492
0.381646
0.3927659
0.4107282
0.4324889
-0.04817737
-0.04688213
-0.04950594
-0.0526323
-0.05597251
-0.06024738
-0.05310676
-0.04804158
-0.04791331
-0.04914017
-0.0518637
-0.05506973
-0.05920592
-0.04801209
-0.0442684
-0.04646124
-0.04799737
-0.05093515
-0.05414971
-0.05827716
-0.04212226
-0.04423573
-0.04423461
-0.04650185
-0.04868719
-0.05191925
-0.05572099
-0.04100401
-0.0407668
-0.0420985
-0.04361241
-0.04603921
-0.04896306
-0.05263607
-0.03726105
-0.03797201
-0.03873653
-0.04048502
-0.04251748
-0.04530419
-0.04863355
-0.03392113
-0.03420447
-0.03512229
-0.03649324
-0.03841267
-0.04086779
-0.04389233
-0.02970622
-0.03010033
-0.03085015
-0.03208495
-0.03372761
-0.03587096
-0.03851181
-0.02525191
-0.02559282
-0.02610346
-0.02714033
-0.02846469
-0.03026907
-0.03248936
-0.02037362
-0.02056438
-0.02103714
-0.0216023
-0.02265592
-0.02399906
-0.02576967
-0.01530726
-0.01558782
-0.01519099
-0.01571591
-0.01634661
-0.01736675
-0.01862979
-0.01003677
-0.009533529
-0.009655762
-0.00915357
-0.009642352
-0.01008829
-0.01085119
-0.006151076
-0.004288829
-0.002325485
-0.002455388
-0.003104719
-0.003115667
-0.003388159
-0.0001145149
1.071221
1.030214
0.7795142
0.763831
0.8717969
0.9177805
0.9225431
0.9821682
1.008999
0.9748709
0.9151272
0.9902376
0.9971668
0.9807967
0.8123657
0.8417404
0.8154792
0.7862222
0.8427666
0.8378114
0.8351675
0.7958462
0.8244511
0.8327597
0.8111889
0.8444008
0.8465325
0.8520214
0.7039387
0.7225138
0.7264738
0.7030047
0.739009
0.7318733
0.7402378
0.658868
0.6693653
0.6780765
0.6754694
0.6935845
0.6999816
0.712846
0.5883615
0.5890194
0.5913459
0.5930595
0.6060631
0.6157215
0.62984
0.5185455
0.5225985
0.5276394
0.534555
0.5462286
0.5610418
0.5782295
0.4421608
0.4465511
0.4480978
0.4561103
0.4670834
0.4837132
0.5027145
0.3693436
0.3705308
0.3732828
0.3822836
0.3938064
0.4115738
0.4336005
-0.04838889
-0.0468944
-0.04990399
-0.05250403
-0.05589609
-0.06010825
-0.0534967
-0.04814382
-0.04826333
-0.04963094
-0.05212475
-0.0554211
-0.05955242
-0.04904034
-0.0444911
-0.046162
-0.04776556
-0.05046749
-0.05366084
-0.05770857
-0.04254306
-0.04454311
-0.04426635
-0.04673615
-0.0488383
-0.05212521
-0.05592607
-0.04144262
-0.04085626
-0.04202764
-0.04353996
-0.04586852
-0.04878207
-0.05241126
-0.03731056
-0.03808054
-0.03873265
-0.04054573
-0.04254261
-0.04535261
-0.04867431
-0.03396818
-0.03422224
-0.03509298
-0.03645051
-0.03833687
-0.0407857
-0.04379105
-0.02970342
-0.03010826
-0.03081882
-0.03204833
-0.03367272
-0.03581057
-0.03843985
-0.02528827
-0.02558487
-0.02602344
-0.02703075
-0.02830684
-0.03008287
-0.03227641
-0.02036088
-0.02049914
-0.02095634
-0.02144268
-0.02245621
-0.02374712
-0.02549733
-0.01525126
-0.01550498
-0.01498156
-0.01545597
-0.0160195
-0.01698928
-0.01821292
-0.009899317
-0.009385654
-0.009561845
-0.0089195
-0.009411487
-0.009772987
-0.01052626
-0.006126325
-0.00430939
-0.002345433
-0.002360583
-0.003123361
-0.003037335
-0.003338862
-9.119052e-05
1.079525
1.04592
0.830726
0.5698142
0.9059355
0.8448759
0.9434257
0.9589443
1.025989
0.9754709
0.9699049
0.9620989
1.007425
0.9892476
0.8231418
0.8386957
0.8023679
0.8226338
0.8063878
0.83455
0.8220454
0.7876722
0.829144
0.8038574
0.849522
0.81523
0.852736
0.8353769
0.7019407
0.740025
0.693112
0.7399625
0.7086638
0.7495656
0.7309786
0.6509497
0.6764928
0.6616805
0.6885787
0.683894
0.707783
0.7091469
0.5796743
0.5955175
0.5805581
0.6044834
0.6005829
0.6197822
0.6283637
0.5186534
0.524926
0.5249932
0.538077
0.5427735
0.5622942
0.576579
0.4423331
0.4475523
0.4458685
0.4573972
0.4655482
0.4842766
0.5017805
0.3698111
0.3707477
0.3721962
0.3822613
0.3925011
0.4110796
0.4325635
-0.04846646
-0.04708445
-0.04984465
-0.05272577
-0.0562105
-0.06039823
-0.05272442
-0.04816118
-0.04814656
-0.04947105
-0.05210807
-0.05535266
-0.05951355
-0.04911043
-0.0444998
-0.04631302
-0.04790451
-0.05072928
-0.05393973
-0.05803823
-0.04252659
-0.04446518
-0.04413979
-0.04653287
-0.04864041
-0.05188823
-0.05567405
-0.04144858
-0.04084466
-0.04205243
-0.04353258
-0.04590503
-0.04880578
-0.05244961
-0.03726005
-0.03803124
-0.03866396
-0.04044527
-0.04243596
-0.045226
-0.04853812
-0.03397464
-0.03420833
-0.03508209
-0.03642231
-0.03831306
-0.0407525
-0.04375726
-0.02968097
-0.03008084
-0.03078872
-0.03200717
-0.03362812
-0.0357574
-0.0383827
-0.02524836
-0.02556353
-0.0260021
-0.02700957
-0.02828503
-0.03005739
-0.03224861
-0.02035466
-0.020488
-0.02094509
-0.02142604
-0.02243773
-0.0237253
-0.02547426
-0.01525966
-0.01550259
-0.01497632
-0.01544683
-0.01601002
-0.01697681
-0.01820034
-0.009902417
-0.009383848
-0.009558433
-0.008913643
-0.009406493
-0.009764389
-0.01051952
-0.006155729
-0.004346775
-0.002337685
-0.002357384
-0.003121349
-0.00303325
-0.003337119
-0.0001271693
1.087579
1.013757
0.7920472
0.5843723
0.9040999
0.9019056
0.9405765
0.9557118
1.02398
0.9709732
0.9754042
0.9576721
1.022849
0.9861432
0.8215031
0.8368063
0.8029966
0.8258536
0.802632
0.8419114
0.8227664
0.7874758
0.8280463
0.804047
0.8506496
0.813986
0.8550912
0.8350863
0.7021853
0.7391014
0.693373
0.7408951
0.7081386
0.7512812
0.7312791
0.6508988
0.676249
0.6618495
0.6888733
0.6838502
0.7083085
0.709206
0.5801503
0.5956151
0.580619
0.6048222
0.600642
0.6200765
0.6284096
0.5180587
0.5249318
0.5250727
0.5381993
0.5428683
0.5624994
0.5766949
0.4418956
0.4474341
0.4458256
0.4573511
0.4654794
0.4842973
0.5018114
0.3695851
0.3706566
0.3722675
0.3822604
0.3927704
0.4114522
0.4329521
-0.04811839
-0.04669684
-0.04945242
-0.05199732
-0.05546866
-0.05959667
-0.05353231
-0.04792436
-0.04815003
-0.0496408
-0.05218195
-0.05551952
-0.05966702
-0.04806171
-0.04423789
-0.04626274
-0.04795774
-0.05059109
-0.05381276
-0.05787532
-0.04211238
-0.04420396
-0.04430837
-0.04666015
-0.04886763
-0.05213422
-0.0559523
-0.04098193
-0.04075892
-0.04201199
-0.04354885
-0.04588802
-0.04880415
-0.05243572
-0.03723903
-0.03795257
-0.03873012
-0.04049259
-0.04252323
-0.04531328
-0.04863954
-0.03387869
-0.03417203
-0.03508212
-0.03644412
-0.0383398
-0.04078374
-0.0437903
-0.02970522
-0.03008291
-0.03082807
-0.03205866
-0.0336951
-0.03583469
-0.0384691
-0.02528945
-0.02558791
-0.0260824
-0.02711065
-0.02842434
-0.03022328
-0.03243738
-0.02034932
-0.02053162
-0.02101734
-0.02157722
-0.02263249
-0.02397305
-0.02574198
-0.01524108
-0.01555592
-0.0151686
-0.01569399
-0.01632576
-0.01734646
-0.01861302
-0.01002485
-0.009513789
-0.009649968
-0.009142488
-0.009635485
-0.01008015
-0.01084728
-0.006163527
-0.00433965
-0.002320288
-0.002452814
-0.003107346
-0.003114304
-0.003386339
-7.861029e-05
1.091367
1.024418
0.8257774
0.7622045
0.8514241
0.9155805
0.9036359
0.9827427
1.007451
0.9783019
0.9105779
0.9923477
0.9966819
0.984456
0.8156095
0.8440715
0.8207061
0.781432
0.8398115
0.8340777
0.8334463
0.7974515
0.824459
0.8350437
0.8100425
0.8442558
0.8462237
0.852147
0.7063622
0.7234662
0.7273224
0.7020287
0.7387164
0.7311437
0.7399042
0.6596918
0.6695068
0.678665
0.6752761
0.6937106
0.6999696
0.7129183
0.5887997
0.5896848
0.5917136
0.5930464
0.6061396
0.6156734
0.6298517
0.5187671
0.5227818
0.5278106
0.5346027
0.5463143
0.5610609
0.5782347
0.4423597
0.4467935
0.4481812
0.4562648
0.4672765
0.4838966
0.5027874
0.3693315
0.3704829
0.373254
0.3823403
0.393889
0.4116169
0.4336114
-0.0473818
-0.04727428
-0.04960753
-0.05235956
-0.05581847
-0.05998107
-0.05244994
-0.04764209
-0.04805889
-0.04955927
-0.05219875
-0.05549314
-0.0596364
-0.04751105
-0.04439257
-0.04630027
-0.04792375
-0.05064897
-0.05385132
-0.05791613
-0.04105578
-0.043909
-0.04419074
-0.04641728
-0.04865245
-0.0518778
-0.05568671
-0.04036251
-0.04079261
-0.04194007
-0.04347168
-0.0458064
-0.0487068
-0.05232976
-0.03668654
-0.03791479
-0.03867008
-0.04040336
-0.0424357
-0.04521139
-0.04853244
-0.03341825
-0.03418203
-0.03504405
-0.0364021
-0.03829434
-0.0407336
-0.04373641
-0.02929324
-0.03008892
-0.03080803
-0.03204985
-0.03369777
-0.0358438
-0.03848358
-0.02485771
-0.02556263
-0.02607588
-0.02712359
-0.0284622
-0.03027394
-0.03249213
-0.0201688
-0.02059291
-0.02108408
-0.02169631
-0.02279732
-0.02416258
-0.02594923
-0.01509591
-0.01547926
-0.01533472
-0.01591819
-0.01662492
-0.0176597
-0.01895452
-0.009901441
-0.009697351
-0.00982365
-0.009391352
-0.009926527
-0.01037924
-0.01115189
-0.006137091
-0.00454398
-0.002870588
-0.002920425
-0.003446437
-0.003465539
-0.003771817
-0.0001478721
1.096171
1.018716
0.7656013
0.8802002
0.8212215
0.8619645
0.8887134
0.9439107
0.9994039
0.9424335
0.9643268
0.9881214
0.9864815
0.9838375
0.7961386
0.8345771
0.7976336
0.8033207
0.8252211
0.8263027
0.8253839
0.7794154
0.8216401
0.8115402
0.8145136
0.8337932
0.8399932
0.8452904
0.6857565
0.725473
0.7076587
0.7181639
0.7183
0.7296973
0.7319635
0.6479561
0.6703009
0.6677493
0.6787502
0.6882289
0.7003338
0.7094042
0.5728644
0.5887782
0.5846971
0.5958857
0.6008645
0.6148037
0.6271292
0.5097292
0.5224761
0.5248181
0.5346954
0.544013
0.5605492
0.5769161
0.4345027
0.4447177
0.4461643
0.4557293
0.4653611
0.4829687
0.5017809
0.3641299
0.3691894
0.3725768
0.3812273
0.3935059
0.4116125
0.4335191
-0.04496784
-0.04664768
-0.05016225
-0.05291604
-0.05627722
-0.06048897
-0.05455624
-0.04652058
-0.0483938
-0.05072095
-0.0535763
-0.05703819
-0.06127302
-0.05044462
-0.04467878
-0.04639801
-0.0482354
-0.05092232
-0.05421616
-0.05826813
-0.04747636
-0.0432629
-0.04459428
-0.04671293
-0.04921011
-0.05246473
-0.05635054
-0.04775205
-0.04055309
-0.04192026
-0.04352875
-0.0459034
-0.04885523
-0.05248868
-0.04364164
-0.03774222
-0.03881773
-0.04047689
-0.04261555
-0.04539453
-0.04875121
-0.04103318
-0.03408797
-0.03506568
-0.03645185
-0.0383878
-0.04085026
-0.0438703
-0.03560736
-0.03006849
-0.03086359
-0.03212985
-0.03381772
-0.03598679
-0.03864207
-0.03130908
-0.02563232
-0.02625184
-0.02733683
-0.02874568
-0.03060093
-0.03286091
-0.02631551
-0.02064941
-0.0211584
-0.0219365
-0.02307534
-0.02449359
-0.02628872
-0.01920741
-0.01589239
-0.01603696
-0.01672895
-0.01756219
-0.01876088
-0.02017882
-0.01352837
-0.01017939
-0.009958168
-0.01013762
-0.01064445
-0.01114141
-0.01183625
-0.007260999
-0.00540915
-0.006035469
-0.005207926
-0.005532734
-0.005810973
-0.006371191
-0.0001241049
-0.0007572728
0.0002370773
5.499919e-05
-0.0001121714
-0.0001147538
1.059794
1.08819
1.047481
1.030701
1.024783
1.015783
1.018278
0.9534789
0.9591878
0.9949175
0.9965016
0.9929942
0.9929
0.9931252
0.8135227
0.8226177
0.8399065
0.8446596
0.839323
0.8409377
0.8471971
0.8939898
0.808276
0.8262388
0.8318344
0.8349421
0.8401203
0.849774
0.7898314
0.7249712
0.7329861
0.7227939
0.7215692
0.7260616
0.738094
0.7426088
0.6671542
0.677371
0.6801721
0.6886303
0.6986052
0.7120433
0.6620314
0.5897168
0.5915611
0.5951548
0.6032471
0.6142551
0.6286602
0.5915322
0.52262
0.5263947
0.5347816
0.5457075
0.5603303
0.5778638
0.5084055
0.4442436
0.4480574
0.4565147
0.4674861
0.4839095
0.5033739
0.3794601
0.3696361
0.3736496
0.3830508
0.3950902
0.4123347
0.4341275
-0.04549002
-0.04857412
-0.05029218
-0.05280351
-0.05608514
-0.06014449
-0.04989318
-0.04593913
-0.04784806
-0.04960251
-0.05229087
-0.05562587
-0.05978874
-0.05475056
-0.04468467
-0.04637237
-0.04832451
-0.05090294
-0.05417992
-0.05820078
-0.05410328
-0.04282981
-0.04430608
-0.04635606
-0.04878764
-0.05199931
-0.0558428
-0.05192064
-0.04029713
-0.04178931
-0.04348818
-0.04581258
-0.04874546
-0.05236498
-0.04847069
-0.03735289
-0.03873324
-0.04038907
-0.04250493
-0.04527571
-0.04861952
-0.04478153
-0.03374253
-0.03499665
-0.03640658
-0.03832638
-0.04078815
-0.04380202
-0.04106693
-0.02966787
-0.03080585
-0.03211535
-0.03380539
-0.03598297
-0.03864161
-0.03403983
-0.02528984
-0.02619676
-0.0272908
-0.02870694
-0.03057177
-0.03281893
-0.02632767
-0.02045418
-0.02126338
-0.02204263
-0.0232248
-0.02467098
-0.02649699
-0.02111999
-0.0153758
-0.01595631
-0.01667061
-0.01749458
-0.0186562
-0.02003391
-0.01580066
-0.01035519
-0.01074437
-0.01095902
-0.01159263
-0.01233969
-0.01325209
-0.007643493
-0.005239821
-0.005411169
-0.004984118
-0.00506371
-0.004941772
-0.005100314
0.0005236854
0.00108072
0.00129259
0.001917665
0.002961928
0.004109011
1.064609
0.9850641
0.9775025
0.9957838
0.9808741
0.9872301
0.9685244
1.031929
0.9447568
0.9893765
0.9840395
0.9809371
0.9747962
0.9791162
0.8441898
0.8194127
0.8359181
0.8451139
0.8423744
0.8352285
0.8435055
0.9110042
0.7913161
0.8076493
0.8148451
0.8300144
0.8325273
0.841972
0.8303455
0.7030765
0.7156428
0.720108
0.7256057
0.7257393
0.736326
0.7823256
0.6532476
0.6671506
0.6738883
0.684724
0.6930667
0.7064031
0.6877628
0.5796143
0.5887287
0.5947336
0.6031572
0.6139645
0.628184
0.6245915
0.5160914
0.5238459
0.5331947
0.5443593
0.559081
0.5766633
0.5461898
0.4401266
0.4474539
0.456317
0.4668186
0.4836573
0.5035435
0.4658088
0.3652878
0.3732638
0.3812162
0.3965825
0.4141483
0.4369212
-0.05203385
-0.05052141
-0.04791787
-0.05602147
-0.04952611
-0.04745806
-0.04709459
-0.04504152
-0.04374488
-0.04590638
-0.04716645
-0.04665038
-0.05233069
-0.04644598
-0.04492501
-0.04609563
-0.04777794
-0.04750611
-0.04722596
-0.05764396
-0.0479937
-0.05043984
-0.05164383
-0.05140507
-0.05117771
-0.05140802
-0.06030361
-0.05406816
-0.05245653
-0.05516914
-0.05343725
-0.0561633
-0.05310468
-0.06525281
-0.05649077
-0.05776916
-0.0580373
-0.0571128
-0.0586129
-0.05715443
-0.06261812
-0.06315871
-0.06521679
-0.04380754
-0.04742288
-0.05086538
-0.04473095
-0.05771478
-0.04571646
-0.0462956
-0.0478354
-0.05397616
-0.04377028
-0.05630857
-0.04524073
-0.04931399
-0.04845043
-0.05435612
-0.0432463
-0.05231453
-0.04177751
-0.04456775
-0.04351348
-0.05213858
-0.04148618
-0.04934196
-0.04005178
-0.04220013
-0.04060792
-0.0492877
-0.03902985
-0.04524325
-0.03655527
-0.03791931
-0.03706671
-0.04502169
-0.03587787
-0.04039695
-0.03335519
-0.03298292
-0.03182776
-0.03980435
-0.03156961
-0.03530077
-0.02874619
-0.02849456
-0.02624406
-0.03501113
-0.02737362
-0.02934353
-0.02399491
-0.02343042
-0.02049519
-0.029311
-0.02242262
-0.02289273
-0.01901756
-0.01804039
-0.0146758
-0.02201929
-0.01702333
-0.01623995
-0.01358493
-0.01268347
-0.008136538
-0.01494117
-0.01191734
-0.008716478
-0.008288399
-0.007194868
-0.002659017
-0.007755472
-0.006239942
-0.002284999
-0.003209334
-0.001858795
1.052186
-0.001073178
0.8978993
-0.002491587
1.045285
1.034475
0.0004944312
-0.00204699
0.9705793
0.9635818
-0.003296323
1.038456
1.023519
0.0009260176
-0.002748347
0.9601975
0.9839131
-0.003921419
1.041854
1.017224
0.00127558
-0.003607292
0.9433719
0.9796484
-0.004552099
1.046445
1.015618
0.001919537
-0.004417891
0.9886335
0.9840871
-0.005370453
1.047376
1.014617
0.002677918
-0.005138635
0.9948765
0.9824801
1.047732
0.003552014
0.9941019
1.050464
0.9985821
1.051518
0.9278372
0.9812197
0.9284242
0.9528528
0.8803925
1.029223
0.9526775
0.8944564
0.8687393
0.8372002
0.8607796
0.9073138
0.8219939
0.895176
0.8401538
0.8435942
0.7986624
0.9171275
0.8196583
0.8284203
0.766156
0.7558815
0.7221531
0.830318
0.734108
0.7679119
0.7065552
0.6958561
0.6581819
0.7767663
0.6821013
0.6959704
0.6341266
0.6284272
0.5880863
0.6993222
0.6076265
0.6232995
0.5666949
0.5574058
0.515393
0.6278247
0.5427053
0.5445748
0.4937547
0.482966
0.4394009
0.5463946
0.4679966
0.4641706
0.4191345
0.4057944
0.3597454
0.4658795
0.393913
0.3783595
0.3406258
-0.05023761
-0.04714252
-0.05054954
-0.04930017
-0.04761
-0.04884413
-0.001290982
0.9788988
-0.001725325
0.9647582
-0.04874548
-0.04551184
-0.04877146
-0.04902673
-0.04882324
-0.04816195
-0.001652823
1.019346
-0.0014464
0.9979322
-0.04843568
-0.04637057
-0.0481607
-0.04883466
-0.04653597
-0.04791948
-0.001486339
1.002264
-0.001466329
1.002343
-0.04888294
-0.04613585
-0.04825348
-0.048664
-0.04693494
-0.04807104
-0.001451583
1.009647
-0.001443901
1.004661
-0.04873782
-0.05101388
-0.04817435
-0.04882883
-0.04866506
-0.04821232
-0.001445507
0.9893986
-0.001456641
1.007117
-0.04877256
-0.04679019
-0.04813798
-0.04864709
-0.04582946
-0.04825086
-0.001462316
1.01147
-0.001525229
1.003222
-0.04903536
-0.04699337
-0.04850896
-0.04897831
-0.04622792
-0.04880771
-0.00145125
0.9991893
-0.001655649
1.021135
-0.04889785
-0.04802285
-0.04931256
-0.04883691
-0.04713991
-0.05048095
-0.001729827
0.9660177
-0.001291503
0.9807645
-0.04687866
-0.05603985
-0.04870747
-0.05009459
-0.04752347
-0.04820506
-0.04817999
-0.04852062
-0.04841972
-0.04893097
-0.04999275
-0.04986219
-0.04968339
-0.04948797
-0.05102652
-0.0520396
-0.05212926
-0.05162277
-0.05164439
-0.05375757
-0.05485322
-0.05485187
-0.05432469
-0.05426924
-0.05723907
-0.05840859
-0.05828518
-0.05783171
-0.0577884
-0.06271703
-0.06213483
-0.04457851
-0.05624262
-0.04503119
-0.04714366
-0.04743345
-0.04302979
-0.05238527
-0.04182796
-0.04897207
-0.0483758
-0.03862295
-0.04476428
-0.03678403
-0.04193391
-0.04037449
-0.03534545
-0.03940699
-0.03311723
-0.0377245
-0.03538789
-0.006186325
-0.002273356
-0.003145993
-0.00714794
-0.002566078
-0.00105553
0.8987844
-0.001782887
1.054098
-0.004479976
0.9993855
0.9877072
0.001816712
-0.004701281
1.034725
1.010383
-0.005462814
0.9864338
0.9846288
0.00233881
-0.005575095
1.047351
1.012993
1.002123
0.005732413
1.035544
-0.04843364
-0.05164871
-0.04346332
-0.04825816
-0.04820242
-0.04355518
-0.04126045
-0.0489607
-0.04714717
-0.0417664
-0.03907753
-0.04928445
-0.04711317
-0.03866475
-0.03791801
-0.04686926
-0.04473076
-0.0383443
-0.03493484
-0.04418441
-0.04202555
-0.03505509
-0.03150127
-0.04016126
-0.03818327
-0.03154813
-0.02778475
-0.03573991
-0.03386953
-0.02804495
-0.02366761
-0.030961
-0.02926886
-0.02398389
-0.01909479
-0.02574639
-0.02432689
-0.01927994
-0.01441706
-0.02002098
-0.01889603
-0.01458613
-0.009538285
-0.01403532
-0.01335218
-0.00945732
-0.004762238
-0.007270841
-0.007052722
-0.004624345
-0.007855458
-0.001593282
-0.003408957
-0.005268709
-0.007060215
-0.002946563
-0.003357753
-0.009094408
-0.001017466
-0.003924671
-0.005479257
-0.007658351
-0.002668544
-0.003503348
-0.01067689
-0.001112896
-0.004065466
-0.005000621
-0.007990094
-0.002431667
-0.003632639
-0.01159958
-0.0008559765
-0.004575162
-0.005071364
-0.008881296
-0.002231651
-0.003803095
-0.01312155
-0.0005259916
-0.005092643
-0.004991091
-0.009686906
-0.00214174
-0.004097569
-0.0002831211
-0.005162652
-0.002167151
-0.001413808
-0.001030041
-0.002216448
-0.0004045256
-0.001095868
-0.002829224
-3.081054e-05
-0.001252254
-0.003515361
0.0003985533
-0.001462993
-0.004201615
0.000641706
-0.001527701
-0.004724887
0.001001088
-0.001736665
-0.005268557
0.001419747
-0.002053918
0.9985754
1.017709
1.016326
1.003164
1.042081
0.9435855
0.9368036
0.9809872
1.00527
0.940664
0.9893548
1.022574
0.9593795
0.9476288
0.9931938
0.9950057
1.023249
1.056911
1.006896
0.9695616
0.9786809
0.9830477
0.9397913
1.043516
1.017643
1.003122
0.9764518
0.9807177
0.9880782
0.9420072
1.02993
1.007085
1.003952
0.9887305
0.9890859
0.9863669
0.9467595
1.019607
1.003812
0.993276
0.9830664
1.014878
0.9344547
0.9976614
0.9687119
0.9521302
0.7963052
0.8792692
0.8260913
0.8607137
0.7875114
0.8722082
0.8307585
0.8411029
0.7133062
0.790842
0.7504917
0.7636907
0.6534926
0.7251432
0.6974458
0.6973684
0.5833303
0.6550512
0.6283929
0.62566
0.5142653
0.5860069
0.5619892
0.5518564
0.4392914
0.5126643
0.4888126
0.4749071
0.3645152
0.4349807
0.4142724
0.3940891
-0.05417066
-0.05246554
-0.006744598
-0.002231857
-0.00288837
-0.007268188
-0.006298157
-0.002170114
-0.002745603
-0.0005996283
-0.0006861028
1.017875
0.9572124
1.022344
1.045368
0.9806003
0.9588403
0.98768
-0.05315134
-0.05089025
-0.006065708
-0.001991102
-0.00268817
-0.006153876
-0.006154239
-0.001870563
-0.002747993
-0.0005810898
-0.0006373487
0.9696912
0.9212414
0.9738038
1.09637
0.9937037
0.9132926
0.9549647
-0.05271527
-0.05029126
-0.006145673
-0.001752228
-0.002641519
-0.006161457
-0.006102756
-0.001780141
-0.002700778
-0.0005679117
-0.0005723001
0.9622409
0.9221592
1.008518
1.088347
0.9941272
0.9157918
0.9776593
-0.05274677
-0.05190269
-0.006058061
-0.001710198
-0.00264824
-0.006146893
-0.00606609
-0.001736445
-0.002677725
-0.00054544
-0.0005545806
0.970578
0.9317267
1.024027
1.056176
0.9686376
0.9172585
1.009841
-0.05170095
-0.05233155
-0.006062925
-0.001692758
-0.002674241
-0.006144049
-0.006068375
-0.001698829
-0.002651211
-0.0005450222
-0.0005607699
0.9991211
0.9183731
0.9961092
1.082362
0.9654904
0.9322033
1.02397
-0.05148061
-0.05237492
-0.006102343
-0.001732054
-0.002696085
-0.006154068
-0.006150498
-0.001753108
-0.002651123
-0.0005904523
-0.0005833942
0.9987714
0.914892
0.976172
1.071724
0.960411
0.9268989
1.005647
-0.05072163
-0.05313145
-0.00614255
-0.001853559
-0.002746606
-0.006053054
-0.006062708
-0.001991492
-0.002684647
-0.0006047164
-0.0005824201
0.9937803
0.913319
0.9532785
1.053793
0.9692256
0.9175228
0.9716937
-0.05364542
-0.05485263
-0.006269836
-0.002166707
-0.002742771
-0.006858498
-0.006710329
-0.002259864
-0.002871586
-0.0005979286
-0.0005210968
0.9660665
0.9644825
0.9816712
1.041815
1.017722
0.9629051
1.0206
-0.05495883
-0.05294446
-0.0443022
-0.05762341
-0.0464291
-0.04333652
-0.04846948
-0.04145877
-0.04956358
-0.03983214
-0.04456401
-0.04334937
-0.03086599
-0.03497357
-0.02833343
-0.03523306
-0.03247275
-0.02711349
-0.02345229
-0.02388658
-0.02889274
-0.02627977
-0.02230199
-0.02331717
-0.01922063
-0.02549913
-0.02125384
-0.01697969
-0.01580122
-0.01345818
-0.01841451
-0.0146905
-0.01176316
-0.009196182
-0.00828928
-0.0125532
-0.008038844
-0.008851987
-0.002176435
-0.003646701
-0.00357902
-0.01155955
-0.0008921473
-0.004595211
-0.0095408
-0.002666751
-0.004780625
-0.003028058
-0.01332053
-0.0005493281
-0.004902905
-0.002886172
-0.002640198
0.0002436867
-0.0008961011
-0.0008306796
-0.001517936
0.9738319
0.9646723
-0.0004771838
-0.001649089
1.044934
1.029168
-0.00273979
0.9403921
0.9964827
0.000934907
-0.003046079
1.034159
1.015636
-0.0036012
0.9450942
0.9900801
0.001125685
-0.003924396
1.044778
1.011119
0.9283103
0.9844236
0.9270145
1.052609
1.004478
0.944027
1.034719
1.008661
1.014305
1.009126
0.9662335
0.9824666
0.9491628
1.021441
1.007683
1.045957
1.002063
0.9800089
0.9804977
1.014002
1.022528
0.9828739
0.9589456
0.8680126
0.8495631
0.9513908
0.9054448
0.8061546
0.8782676
0.8375129
0.8540335
0.8695576
0.8176621
0.8272908
0.7614564
0.8442797
0.7977618
0.7338642
0.7697248
0.7073885
0.7550655
0.7208113
0.6852845
0.6878314
0.6364996
0.6948198
0.6603758
0.6101659
0.6164517
0.5647471
0.6325303
0.5892195
0.5399821
0.5444677
0.4914482
0.5568425
0.5148102
0.4673273
0.4640557
0.4182692
0.4826279
0.4392147
0.393467
0.3780853
0.3402842
0.4056539
0.3596095
-0.04404342
-0.05069555
-0.04975839
-0.04242579
-0.05376769
-0.05204329
-0.04469634
-0.04927101
-0.0474551
-0.04338688
-0.04324721
-0.04964618
-0.04713576
-0.04198904
-0.04171737
-0.04710571
-0.0442671
-0.03962382
-0.03928316
-0.04489162
-0.04220895
-0.0381349
-0.03608734
-0.04090265
-0.03847593
-0.03471452
-0.03225378
-0.03654495
-0.03431172
-0.03117304
-0.02819301
-0.03176386
-0.02982824
-0.02747876
-0.02395608
-0.02661463
-0.02511405
-0.0236823
-0.01914383
-0.02071573
-0.01962079
-0.01892927
-0.01400433
-0.01432797
-0.01374522
-0.01390625
-0.00891891
-0.007773816
-0.007703569
-0.008969223
-0.004106094
-0.002535119
-0.002079612
-0.004237544
-0.000847781
-0.001026024
-0.0007389487
1.029784
1.015453
1.037793
1.058448
1.054356
-0.0009129539
-0.0008612464
1.040049
1.045832
-0.0006908741
-0.001377122
-0.0006640064
1.041853
1.050194
1.051003
1.039642
1.04955
1.047056
-0.0002463187
-0.001897808
-0.0006872299
1.029349
1.040973
1.042673
1.03128
1.029946
1.03056
0.0001547112
-0.002539224
-0.0006540714
1.02443
1.036489
1.038449
1.025206
1.023111
1.022714
0.000733108
-0.002953077
-0.0005748431
1.020544
1.03585
1.03338
1.027194
1.019784
1.022797
0.001143661
-0.003489939
-0.0005598268
1.01961
1.03356
1.030394
1.02739
1.016464
1.021261
1.020197
1.031927
1.029004
0.9497238
0.9958892
0.9679671
0.9669725
0.8658581
0.8837603
0.8409328
0.904473
0.7809935
0.8688716
0.8115457
0.8316965
0.7484692
0.7913445
0.7529531
0.793965
0.6804635
0.7307953
0.6931291
0.7219238
0.6208136
0.6605568
0.6288159
0.6557541
0.5511316
0.5923199
0.561701
0.5845359
0.4837126
0.5191544
0.4910924
0.5135999
0.4130989
0.4428836
0.4188577
0.4380056
0.3407421
0.3612335
0.3593989
0.3432444
-0.05188306
-0.05397248
1.04153
1.04348
-0.0006053679
-0.0005232096
1.039528
1.037541
-0.05038918
-0.05310432
1.045343
1.041445
-0.0005972013
-0.0005821467
1.046764
1.051694
-0.05073169
-0.05264312
1.044997
1.041297