/*--------------------------------*- C++ -*----------------------------------*\
  =========                 |
  \\      /  F ield         | OpenFOAM: The Open Source CFD Toolbox
   \\    /   O peration     | Website:  https://openfoam.org
    \\  /    A nd           | Version:  7
     \\/     M anipulation  |
\*---------------------------------------------------------------------------*/
FoamFile
{
    version     2.0;
    format      ascii;
    class       volScalarField;
    location    "0.1";
    object      Uz;
}
// * * * * * * * * * * * * * * * * * * * * * * * * * * * * * * * * * * * * * //

dimensions      [0 1 -1 0 0 0 0];

internalField   nonuniform List<scalar> 
109978
(
-0.008667699
0.003052029
0.002516679
0.002418792
0.002371847
0.002370157
-0.01802908
0.007897845
0.005607923
0.005388576
0.00531461
0.005252439
-0.01721495
0.007114601
0.006287261
0.004879855
0.004561869
0.004537841
-0.01484542
0.005166933
0.004250331
0.003830715
0.004031467
0.003954837
-0.0176386
0.00800915
0.005310619
0.004210349
0.003811489
0.003635191
-0.01722618
0.005687284
0.005174552
0.00381456
0.003543657
0.003429509
-0.01402993
0.004074084
0.005227072
0.003708517
0.003547305
0.003502269
-0.0151255
0.004718868
0.005141037
0.003641598
0.003523603
0.003487607
-0.01641701
0.00454919
0.004875393
0.003531736
0.003485758
0.003467726
-0.01439129
0.004528468
0.004872967
0.003516675
0.003488887
0.003482245
-0.01559422
0.004528137
0.004720722
0.003484342
0.003476756
0.003451864
-0.01599693
0.004497574
0.004607063
0.003438644
0.003486479
0.003453223
-0.01497869
0.004534771
0.004442139
0.003448394
0.003480704
0.003446576
-0.01639261
0.00462593
0.004476267
0.003419022
0.003458336
0.00343525
-0.01531679
0.005107542
0.003799138
0.003489457
0.003441831
0.003426832
-0.01554835
0.004666647
0.003663734
0.003490388
0.003454981
0.003423516
-0.01631375
0.005579963
0.003599076
0.003507311
0.00343913
0.003440449
-0.01505116
0.004552575
0.003848546
0.003513984
0.003483334
0.003444157
-0.01674034
0.00482541
0.003703251
0.003518924
0.003472393
0.003451426
-0.01481753
0.004379099
0.004684149
0.003557964
0.003522019
0.003503394
-0.01591029
0.004688727
0.004687809
0.003568931
0.003519078
0.003503766
-0.01419023
0.004638659
0.005041248
0.003656564
0.003533641
0.003562268
-0.003256606
0.005036008
0.005168622
0.003882247
0.00361963
0.003685115
-0.008075788
-0.01081026
-0.01118877
-0.01177981
-0.01184785
-0.01193322
-0.005254083
-0.003884459
0.0005664116
-2.413717e-05
0.0004550316
0.0002691901
-0.002876541
-0.001850641
0.0006354363
0.0007233101
0.000494506
0.0003506173
-0.002978015
-0.004113448
0.0004244639
0.0001962669
0.0002315361
2.828986e-05
-0.002761115
-0.003039606
0.0005207362
0.0005665397
0.0003010552
0.0002387183
-0.002919484
-0.003566618
0.000688925
0.0004564569
0.0003105688
0.0001129024
-0.002714067
-0.003229379
0.000861841
0.0007439389
0.0004237614
0.0001695826
-0.002704611
-0.003160435
0.0006746446
0.0006000588
0.000342856
0.0001066613
-0.002667332
-0.003011952
0.0007780251
0.0006947854
0.0003821656
0.0001308173
-0.00266692
-0.003055864
0.0007982649
0.0006621251
0.0003560033
0.0001059948
-0.002669216
-0.003012604
0.0008183734
0.0006943133
0.0003701644
0.0001134207
-0.002683567
-0.003040524
0.0008062395
0.0006912006
0.000364075
0.0001075424
-0.002688352
-0.003034157
0.0008033424
0.0007041416
0.0003665635
0.0001063535
-0.002678632
-0.003051661
0.0007823435
0.000686266
0.000367176
0.0001065095
-0.002701531
-0.003031627
0.0007946596
0.0006976675
0.0003703797
0.0001035901
-0.002690392
-0.003020702
0.0007950619
0.0006859337
0.0003699401
0.0001012623
-0.002692675
-0.003046875
0.0007888056
0.0006875193
0.0003765206
0.0001088654
-0.002710236
-0.003075775
0.0008098359
0.0006896133
0.0003823822
0.0001107266
-0.002697266
-0.003043708
0.0007845318
0.0006824784
0.0003791011
0.000115868
-0.002704356
-0.003103897
0.0008033837
0.0006713654
0.000373947
0.000116508
-0.00264653
-0.003084261
0.0007727797
0.0006601092
0.0003515176
0.0001093349
-0.002690622
-0.003107702
0.0007931458
0.0006462047
0.0003603497
0.0001120069
-0.002667215
-0.003186552
0.0007608288
0.0006417472
0.0003298336
8.540296e-05
-0.002716942
-0.00303577
0.0009079682
0.0008162275
0.0004428421
0.0001434738
-0.00105715
-0.003394531
-0.002683135
-0.004416327
-0.004378912
-0.004266558
-0.000168527
0.0009922671
-0.0001121545
0.0002033087
1.336506e-05
2.145237e-05
0.001160805
0.002204515
0.0003452409
0.000826688
0.0002527293
0.0002940103
0.001107066
0.001732101
1.782175e-05
0.0003570843
0.0001612263
0.0002407677
0.001168228
0.001749599
0.0001386647
0.0006665554
0.0002473558
0.000257717
0.0009800036
0.001714061
-0.0001211757
0.000479847
0.000129012
0.0002286595
0.001006221
0.001495298
-7.846416e-05
0.0004812245
0.0001316235
0.0002633419
0.001048444
0.001397536
-5.247418e-05
0.0004671487
0.000142503
0.0002582493
0.001048102
0.001344773
-9.371355e-05
0.0004444566
0.0001355242
0.0002667458
0.001067875
0.001310446
-0.000126437
0.0004436779
0.0001398855
0.0002698987
0.001145782
0.001335901
-0.0001375084
0.0004352441
0.0001362493
0.0002731164
0.001161587
0.001296816
-0.0001458138
0.0004303576
0.0001353347
0.0002718091
0.001165199
0.001281294
-0.0001497804
0.0004249077
0.0001370708
0.0002762141
0.00116302
0.001315972
-0.0001462705
0.0004376123
0.0001345558
0.0002747853
0.001163002
0.001278229
-0.0001544092
0.0004286142
0.0001333592
0.0002772639
0.001158728
0.001313588
-0.0001534673
0.0004403096
0.0001345111
0.0002794862
0.001165331
0.001279829
-0.000154055
0.0004367314
0.0001310719
0.000273744
0.001165236
0.001265611
-0.0001617687
0.0004364702
0.0001264352
0.0002747307
0.00115238
0.001306436
-0.0001474778
0.0004406874
0.0001320906
0.0002709043
0.001149658
0.001306918
-0.0001539432
0.0004423545
0.000131328
0.00026926
0.001157943
0.001343504
-0.0001288867
0.0004447194
0.0001486995
0.0002750657
0.001131119
0.001319971
-0.0001504477
0.0004330884
0.0001191582
0.0002592894
0.001136556
0.00142585
-0.0001079115
0.0004633822
0.0001644508
0.0002873038
0.001121332
0.001384733
-0.0001858208
0.0003391469
5.093005e-05
0.0002243218
-3.647935e-05
-0.0005493102
-0.002161911
-0.0006972727
-0.0007402196
-0.0006516824
-0.0004350193
-0.0005662995
-0.0001708518
-0.0001168255
-9.325411e-05
-0.000119676
0.0001478539
-0.0001777171
0.0001381871
0.0001228418
0.0001851096
0.0001301117
4.034821e-05
-0.0006815669
-1.557193e-05
-0.0001940103
4.041426e-05
-5.194764e-05
0.0002586675
-0.0003959237
6.856211e-05
-1.061848e-05
0.0001152626
5.287497e-05
0.0003080148
-0.0005273708
4.761936e-05
-0.0001334013
8.135372e-05
-8.735038e-06
0.000326298
-0.0004112222
0.0001078259
-3.093972e-05
0.0001240262
3.034722e-05
0.0003366966
-0.0003968836
7.904075e-05
-7.74138e-05
9.990114e-05
4.035696e-06
0.0003426986
-0.0003628041
0.000113826
-4.138403e-05
0.0001173534
1.809351e-05
0.0003436767
-0.0003507717
0.0001113267
-5.286455e-05
0.0001073569
7.697589e-06
0.0003464254
-0.0003393615
0.0001211798
-4.290393e-05
0.0001124544
1.259539e-05
0.0003487304
-0.0003404129
0.0001171417
-4.577822e-05
0.000109442
9.372013e-06
0.0003501168
-0.0003402217
0.0001167604
-4.380828e-05
0.0001105123
1.037828e-05
0.000348033
-0.0003365223
0.0001180307
-4.374802e-05
0.0001105878
1.006419e-05
0.0003498085
-0.0003399063
0.0001156072
-4.428324e-05
0.0001100035
9.526476e-06
0.0003482405
-0.0003361227
0.0001189089
-4.37883e-05
0.0001099362
9.635365e-06
0.0003501864
-0.0003418904
0.0001133877
-4.548697e-05
0.0001094546
9.776066e-06
0.0003506876
-0.0003453775
0.0001123738
-4.54708e-05
0.0001098059
1.05854e-05
0.0003472203
-0.0003396016
0.0001148189
-4.554563e-05
0.0001103936
9.864314e-06
0.0003470127
-0.0003509985
0.0001143873
-4.719049e-05
0.0001110402
9.412948e-06
0.0003458794
-0.0003437997
0.0001136938
-4.987025e-05
0.0001103379
4.740638e-06
0.000343723
-0.0003457113
0.000119309
-4.922726e-05
0.0001141279
3.579689e-06
0.0003433259
-0.000362958
0.0001172087
-6.002146e-05
0.0001130247
-1.274228e-05
0.0003477129
-0.0003288967
0.0001502954
-3.178626e-05
0.0001393323
-5.039215e-06
-1.233753e-05
-0.0001533014
-0.0003347354
-0.0001243108
-9.358778e-05
-0.0001571147
-9.167901e-05
0.0003501472
-0.0001003224
0.0002499111
5.329668e-05
0.0001361908
0.0002203702
0.0003604854
9.064421e-05
0.0001840511
4.180422e-05
8.872979e-05
0.0001995724
0.0005275082
7.372223e-05
0.0003196992
7.421372e-05
0.0001440996
0.0001940194
0.0005342326
3.169902e-05
0.000292231
5.069385e-05
0.0001309637
0.0001808536
0.0005685134
6.726268e-05
0.0003073387
5.383823e-05
0.0001383056
0.0001769329
0.0005404581
3.072137e-05
0.0002772003
4.249393e-05
0.0001398756
0.0001709868
0.0005168327
5.330519e-05
0.0002786313
4.803744e-05
0.0001409106
0.0001622792
0.0005093488
3.780067e-05
0.0002685905
4.330846e-05
0.0001417896
0.0001604492
0.0005017912
4.061342e-05
0.0002681098
4.502842e-05
0.0001426214
0.0001586405
0.0005043503
3.815286e-05
0.0002667782
4.437288e-05
0.0001424446
0.0001575209
0.0004985871
3.665847e-05
0.0002649392
4.409127e-05
0.0001422227
0.0001562055
0.0004999394
3.718876e-05
0.0002648149
4.445016e-05
0.0001431931
0.0001577373
0.0005015691
3.770028e-05
0.0002658919
4.452444e-05
0.0001432987
0.0001561212
0.000499282
3.709695e-05
0.0002649034
4.43271e-05
0.0001433818
0.0001574233
0.0005023339
3.754343e-05
0.0002669181
4.539671e-05
0.0001439888
0.0001560465
0.0004983028
3.648702e-05
0.0002656985
4.476223e-05
0.0001428468
0.0001556807
0.000497716
3.528911e-05
0.0002653164
4.42655e-05
0.0001429968
0.0001574029
0.0005005782
3.7494e-05
0.0002663235
4.511209e-05
0.0001425212
0.0001573904
0.0004986109
3.453375e-05
0.0002649395
4.297817e-05
0.0001407932
0.0001600015
0.0005055042
4.165601e-05
0.0002683802
4.706135e-05
0.0001426701
0.0001600056
0.0005050014
3.83636e-05
0.0002646036
3.931373e-05
0.0001382125
0.0001660224
0.0005162374
5.006024e-05
0.000273438
4.938763e-05
0.0001467922
-6.936508e-06
0.0005200694
4.054469e-05
0.0002560485
2.70275e-05
0.0001368343
-0.0002869927
-3.544712e-05
2.308003e-05
-8.135307e-05
-6.866873e-05
-6.077053e-05
1.350656e-05
-0.0003746343
0.000116825
-0.0002340399
-4.342098e-05
-0.0001411987
-1.658732e-05
-0.0003669427
-9.760155e-05
-0.0001889762
-5.031522e-05
-0.0001018288
5.832115e-05
-0.0005297539
-7.128696e-05
-0.0003182306
-7.053394e-05
-0.0001405755
2.5457e-05
-0.0005345032
-3.206446e-05
-0.0002922929
-5.194125e-05
-0.0001313096
1.103448e-05
-0.000567853
-6.587097e-05
-0.0003056577
-5.173669e-05
-0.0001366199
5.920761e-06
-0.0005412492
-2.987699e-05
-0.0002767129
-4.202797e-05
-0.000139443
5.207987e-06
-0.0005166712
-5.123015e-05
-0.0002772641
-4.654004e-05
-0.0001402936
4.189193e-06
-0.0005116438
-3.564104e-05
-0.0002683932
-4.231079e-05
-0.0001413607
3.219044e-06
-0.0005051672
-3.869754e-05
-0.0002685526
-4.437008e-05
-0.0001423578
2.83777e-06
-0.0005046081
-3.622215e-05
-0.0002665237
-4.318429e-05
-0.0001417745
2.092423e-06
-0.0005068721
-3.732922e-05
-0.0002670157
-4.397496e-05
-0.0001425569
2.546544e-06
-0.0004999521
-3.48768e-05
-0.0002648872
-4.314394e-05
-0.0001422256
2.581937e-06
-0.0005010609
-3.404329e-05
-0.0002646481
-4.247255e-05
-0.0001423873
2.681758e-06
-0.0005001629
-3.415287e-05
-0.0002649082
-4.264517e-05
-0.000142309
2.768498e-06
-0.0004977489
-3.276565e-05
-0.0002643092
-4.249156e-05
-0.0001421815
2.218247e-06
-0.0005030507
-3.593321e-05
-0.0002664935
-4.348264e-05
-0.0001428265
2.20229e-06
-0.0005003307
-3.400809e-05
-0.0002657661
-4.261041e-05
-0.0001417247
2.215003e-06
-0.0005018835
-3.713888e-05
-0.0002676221
-4.332713e-05
-0.0001435895
1.749362e-06
-0.0005067577
-3.650883e-05
-0.0002679428
-3.979013e-05
-0.0001420329
2.662921e-06
-0.0005013698
-3.703171e-05
-0.0002730889
-3.915022e-05
-0.000149328
3.384968e-06
-0.0005035773
-3.325399e-05
-0.0002696895
-2.911678e-05
-0.0001500307
4.311828e-06
-0.0005098133
-3.262874e-05
-0.0002944959
-1.939009e-05
-0.0001888003
-0.0001728004
-0.0005116589
-1.453481e-05
-0.0002667989
1.581915e-05
-0.0001795894
-0.0007556925
0.001706519
-0.0001930057
2.823316e-05
0.0002372247
0.0002619907
2.18312e-05
0.0005673508
0.0001851612
0.0001261012
0.0001175134
0.0001682522
-0.0002151646
0.0001887113
-0.0001380661
-0.0001239193
-0.00018691
-0.0001349853
7.500341e-05
0.0006814351
1.640566e-05
0.0001963662
-3.507811e-05
6.144458e-05
-0.0001104712
0.0003971682
-6.765629e-05
1.128961e-05
-0.0001144788
-5.475123e-05
-0.0001397882
0.0005266675
-4.709346e-05
0.0001341187
-8.031774e-05
9.645671e-06
-0.000142481
0.0004093522
-0.000107792
3.201806e-05
-0.0001235106
-3.052193e-05
-0.0001669355
0.0003996869
-7.560549e-05
7.934931e-05
-9.896567e-05
-3.406344e-06
-0.0001616668
0.0003617272
-0.0001114184
4.282593e-05
-0.0001162996
-1.776315e-05
-0.0001657814
0.0003540437
-0.0001094782
5.315224e-05
-0.0001068825
-7.699045e-06
-0.0001658044
0.0003392252
-0.0001210426
4.310017e-05
-0.0001124871
-1.282525e-05
-0.0001650757
0.0003315353
-0.000126117
4.27803e-05
-0.0001105614
-9.646958e-06
-0.0001669406
0.0003435286
-0.0001188445
4.375127e-05
-0.0001107385
-1.112632e-05
-0.0001664683
0.0003390917
-0.0001200919
4.317675e-05
-0.0001108111
-1.015946e-05
-0.0001633941
0.0003453825
-0.0001144287
4.450684e-05
-0.0001099401
-1.010861e-05
-0.0001666161
0.0003488107
-0.0001164766
4.551601e-05
-0.0001093413
-1.004322e-05
-0.0001679372
0.0003383508
-0.0001174974
4.400513e-05
-0.0001099756
-1.056389e-05
-0.0001680583
0.0003427281
-0.0001172215
4.512216e-05
-0.0001102568
-1.228926e-05
-0.0001677756
0.0003415396
-0.0001124072
4.758655e-05
-0.00010991
-1.191576e-05
-0.0001666712
0.0003366936
-0.0001192503
4.598016e-05
-0.0001130503
-1.4523e-05
-0.0001679252
0.0003551594
-9.575707e-05
5.69406e-05
-0.0001074353
-9.874328e-06
-0.0001662525
0.0003641899
-8.351953e-05
5.953639e-05
-0.0001109667
-1.130813e-05
-0.0001634657
0.0003888163
-5.848369e-05
8.202359e-05
-0.0001044524
3.998818e-06
-0.0001452502
0.0004217092
-4.940268e-05
6.868312e-05
-0.000119916
7.483161e-06
0.0006364912
0.001293019
0.001325698
0.00189373
0.002072294
0.002141326
0.0001968894
-0.0009953041
8.896262e-05
-0.0002235677
-2.254591e-05
-3.051962e-05
-0.0005221118
-0.002199417
-0.0003384141
-0.0008221349
-0.0002406375
-0.0002863668
-8.392807e-05
-0.001732356
-1.864616e-05
-0.0003667547
-0.0001581289
-0.0002405922
-0.0004387057
-0.001747165
-0.000136093
-0.0006623327
-0.0002429471
-0.00024051
-0.0003654508
-0.00171101
0.0001243951
-0.0004771794
-0.0001218823
-0.0002300488
-0.000380332
-0.001501522
8.566449e-05
-0.0004803007
-0.000132433
-0.000262621
-0.0004196342
-0.001399767
6.215873e-05
-0.000463582
-0.000139296
-0.0002608927
-0.0003886757
-0.001370109
0.0001062957
-0.0004467966
-0.0001345186
-0.0002683556
-0.0004025352
-0.001369736
0.0001302593
-0.0004482361
-0.0001403826
-0.0002709531
-0.000390442
-0.001340463
0.0001436159
-0.0004364714
-0.0001327779
-0.0002721021
-0.00038122
-0.00139226
0.0001457027
-0.0004380421
-0.000135121
-0.0002758117
-0.0003841761
-0.001303857
0.0001553187
-0.0004313154
-0.0001340639
-0.0002734061
-0.0003871657
-0.001339222
0.0001600681
-0.0004310779
-0.0001277357
-0.0002740037
-0.0003764865
-0.001323369
0.0001528228
-0.0004349518
-0.0001304244
-0.000274501
-0.0003825243
-0.001296871
0.0001681775
-0.0004301335
-0.0001263338
-0.0002729768
-0.0003866816
-0.001333426
0.0001555268
-0.0004364223
-0.0001264697
-0.0002743777
-0.0003878717
-0.001303626
0.0001610976
-0.0004400961
-0.0001272257
-0.0002651821
-0.000387182
-0.001314437
0.0001311445
-0.0004462219
-0.0001355391
-0.0002669481
-0.000383009
-0.001366625
0.0001412659
-0.0004447585
-0.0001209638
-0.00025607
-0.0003865016
-0.001293242
0.000105375
-0.0004619649
-0.0001424478
-0.0002702477
-0.0003882254
-0.001331493
8.459083e-05
-0.0004581015
-0.0001152532
-0.0002549163
-0.0003935186
-0.001394814
2.484086e-05
-0.0005443791
-9.039066e-05
-0.0002751697
-0.0003779369
-0.001584175
1.349357e-05
-0.0004081083
1.502554e-05
-0.0002501961
0.00201222
0.003597256
0.004063874
0.004701834
0.004775027
0.004868489
-0.001985543
0.003893169
-0.0005716943
2.328202e-05
-0.0004605996
-0.0002742316
-0.003333174
0.00184338
-0.000632332
-0.0007197055
-0.00048822
-0.0003337033
-0.00262214
0.004118228
-0.0004270539
-0.0001857141
-0.0002324359
-2.986051e-05
-0.002876337
0.003041986
-0.0005198829
-0.00056581
-0.0003011004
-0.0002530715
-0.002689006
0.003563934
-0.0006923034
-0.000458241
-0.0003171634
-0.0001166985
-0.002713794
0.003213861
-0.0008644639
-0.0007391496
-0.0004201368
-0.0001711492
-0.002605164
0.00318882
-0.0006706105
-0.0005954786
-0.0003447764
-0.00010482
-0.002655051
0.003021761
-0.0007723612
-0.000684797
-0.0003803668
-0.0001296764
-0.002719885
0.003103083
-0.0007961451
-0.0006578573
-0.0003543809
-0.0001062411
-0.002752968
0.003024701
-0.0008161589
-0.0006909151
-0.0003731421
-0.0001155484
-0.002794438
0.003028097
-0.0008056369
-0.0006876512
-0.0003643482
-0.0001045373
-0.002802943
0.003053491
-0.0008156194
-0.0006958687
-0.0003682089
-0.00011016
-0.002794072
0.003042626
-0.0008149635
-0.0006954162
-0.0003727334
-0.0001075114
-0.002788564
0.003085334
-0.0007943765
-0.0006925339
-0.00037152
-0.000107443
-0.002791655
0.003091528
-0.0008213038
-0.0006946914
-0.0003738476
-0.0001076343
-0.002830458
0.003060941
-0.0008093711
-0.0006921997
-0.0003771457
-0.0001074248
-0.002832206
0.00307234
-0.0008175281
-0.0006780817
-0.0003728665
-0.0001189266
-0.002806685
0.003073857
-0.0007781167
-0.0006632044
-0.0003684007
-0.0001211848
-0.00282239
0.003034261
-0.0008321445
-0.0006681078
-0.0003799195
-0.0001328083
-0.0027916
0.003118679
-0.0007824436
-0.0006433111
-0.0003513133
-0.0001203001
-0.0027982
0.003142634
-0.00074625
-0.0006194081
-0.0003625301
-0.0001444364
-0.00279035
0.003211564
-0.0006630331
-0.0005571678
-0.0003542819
-0.0001664091
-0.002919083
0.003396697
-0.0005663015
-0.0006724861
-0.0003840667
-0.0001679639
0.02124735
0.02697503
0.02829386
0.02831981
0.02857069
0.02856366
0.002755422
0.01284011
0.01368658
0.01478711
0.01418795
0.01453331
0.01436634
0.0006201454
0.001537973
0.01197743
0.01316218
0.01351541
0.01378425
0.01365419
-0.00051234
0.001976361
0.00958304
0.01352321
0.01428403
0.01500673
0.01473401
-0.0008396124
0.002153232
0.008278513
0.01099815
0.01139336
0.01287417
0.01235409
-0.0008906109
0.003465703
0.01001209
0.01153093
0.01144333
0.0116811
0.01128677
-0.0009113942
0.002468462
0.008204543
0.01123407
0.0107818
0.01116735
0.01122018
-0.0008697351
0.003452894
0.007211832
0.01129277
0.01044473
0.01111239
0.01111502
-0.0009091151
0.003043492
0.007446728
0.01107125
0.01026629
0.01105854
0.01116454
-0.0008436378
0.002937769
0.007521342
0.01063482
0.01002921
0.01090052
0.01097977
-0.0008298728
0.00301807
0.007350523
0.01056287
0.01004
0.01085181
0.01092784
-0.0008433902
0.0030329
0.00751779
0.01033948
0.00993284
0.01076608
0.01082441
-0.000820859
0.003419129
0.007363173
0.01017172
0.009894675
0.01078191
0.01084643
-0.0008410176
0.003037735
0.007495513
0.01012539
0.009894401
0.01071889
0.01074319
-0.0008449501
0.003330299
0.00751572
0.009984693
0.009832156
0.01072875
0.01075617
-0.0008965204
0.003860148
0.007446449
0.009898786
0.009824715
0.01068606
0.01071216
-0.0008264505
0.002843252
0.007461682
0.009851281
0.009826354
0.01067449
0.01070538
-0.0008417685
0.003256352
0.007412657
0.009682589
0.009738082
0.0107943
0.01070925
-0.0008280895
0.003299456
0.007201931
0.01039333
0.00983215
0.01067696
0.01065938
-0.0008215769
0.002790623
0.007385776
0.01065166
0.01001964
0.010667
0.01067636
-0.0008462225
0.003874177
0.007060043
0.01091726
0.01034159
0.01064229
0.01091316
-0.0008366049
0.003680435
0.00697366
0.01102755
0.01098913
0.01124715
0.01129952
-0.0008423049
0.003359684
0.006990769
0.01152337
0.01143931
0.01107089
0.01262919
-0.0008499392
0.004115076
0.007574518
0.01092859
0.01019251
0.01290529
0.01430311
-0.01077865
-0.009317578
0.001250131
-0.001687413
0.0002286496
0.00389538
-0.02107424
0.003281507
0.005174647
0.006308664
-0.0004762696
0.001354755
-0.02702158
0.008454126
-0.005668008
0.01032287
-0.001471204
0.0008049923
-0.02827771
0.008370446
-0.008573736
0.009115422
-0.001546095
0.0007663426
-0.02831401
0.00893391
-0.008269006
0.009114101
-0.001627702
0.000737978
-0.02855736
0.008766167
-0.008469675
0.009081941
-0.001652416
-0.02854894
-0.008501568
-0.01004243
-0.01860237
-0.002752187
-0.01176676
0.002520323
-0.01021155
-0.01909367
-0.01364526
-0.0006134428
-0.005710934
0.001429064
-0.006600235
-0.01923417
-0.0189531
0.0005170374
-0.005806579
0.0008257269
-0.00565015
-0.01436501
-0.01427954
0.0008406197
-0.005104966
0.0008962973
-0.005491814
-0.01774682
-0.01494887
0.0008852956
-0.005123174
0.0008576918
-0.005041332
-0.01728323
-0.01737307
0.0009255905
-0.004859998
0.0007724132
-0.005535193
-0.01755271
-0.01841496
0.0008686654
-0.005437625
0.0008526184
-0.005643113
-0.01759707
-0.01795345
0.0008363947
-0.005415915
0.0008312042
-0.005559973
-0.01834628
-0.01735969
0.0008516176
-0.005454562
0.0008180506
-0.005595015
-0.01742352
-0.01835175
0.0008095107
-0.005368384
0.0008303733
-0.005532081
-0.01808529
-0.01838135
0.0008335127
-0.005419684
0.0008405062
-0.005509019
-0.01828717
-0.0172208
0.000839574
-0.005429107
0.0008299121
-0.005543097
-0.01769846
-0.01779193
0.0008201926
-0.005490869
0.0008209733
-0.005576605
-0.01840395
-0.0180394
0.0008428841
-0.005462864
0.0008213436
-0.005544573
-0.01806955
-0.01834588
0.0008217587
-0.005500421
0.0008245575
-0.005515561
-0.01767369
-0.01801269
0.000835516
-0.0054921
0.0008372881
-0.005508591
-0.01838282
-0.01698096
0.0008392636
-0.005405702
0.0008316092
-0.005507832
-0.01758484
-0.018227
0.0008242146
-0.005472935
0.0008314304
-0.005516163
-0.01805488
-0.01824571
0.0008464522
-0.005468225
0.0008098028
-0.005506961
-0.01661475
-0.01846884
0.0008206674
-0.005471439
0.0008289322
-0.005507237
-0.01785954
-0.01711668
0.0008254861
-0.00545618
0.0008286938
-0.005568326
-0.01591708
-0.01731778
0.0008260286
-0.0052773
0.0008263463
-0.005642271
-0.0178108
0.008558306
0.0008259131
-0.005477329
0.0007919053
-0.005443171
-0.01675293
0.0008725505
0.005084087
0.006616112
0.002117338
0.001037744
-0.0133817
-0.001703991
0.001586373
0.009601084
0.001789237
-1.216852e-05
-0.01428261
-0.002430626
0.0006627198
0.009338929
0.002158184
0.0005396545
-0.01379393
-0.001767337
0.0003156882
0.01012589
0.001797732
-3.39349e-06
-0.01435083
-0.00235097
-0.0001429715
0.01165537
0.001990587
-0.0003153598
-0.01234563
-0.002189763
-0.0004548135
0.01125885
0.002005935
-0.0003505343
-0.01129337
-0.002001854
-0.0005084728
0.01504126
0.002089964
-0.001628663
-0.005614715
-0.002277206
-0.000771964
0.01697809
-0.0007824369
-0.005088282
0.009190065
-0.001118617
0.001649458
0.01072907
0.008517653
0.001652348
0.01179184
-0.002508251
0.01022343
0.01004026
0.01861253
0.005716967
-0.001425364
0.006607953
0.01908313
0.01367463
0.005101438
-0.0008950096
0.005511908
0.01437955
0.01433
0.005153018
-0.0008488244
0.005095543
0.01786887
0.01598416
0.004885055
-0.0008256166
0.005583307
0.01721448
0.01824316
0.005397226
-0.0008578735
0.005669786
0.01604546
0.01778909
0.005268798
-0.0008375868
0.005617413
0.01636231
0.01815912
0.005406751
-0.0008685442
0.005619591
0.01660089
0.01741219
0.005484392
-0.0008225311
0.005598687
0.01759965
0.01777412
0.00543864
-0.0008148632
0.00553798
0.01636847
0.01754444
0.005560272
-0.0008277381
0.005548899
0.01715847
0.01691479
0.005423075
-0.0008406769
0.005577467
0.01679699
0.01830748
0.005390582
-0.000836863
0.005521839
0.01745394
0.01826875
0.005357407
-0.0008208886
0.005541912
0.0181199
0.01750276
0.005421572
-0.0008269517
0.005582647
0.01706671
0.01840982
0.005402
-0.0008563973
0.005460925
0.01762381
0.01837797
0.00541883
-0.0008250518
0.005549265
0.01646123
0.01806879
0.005517088
-0.0008528879
0.005430302
0.01695063
0.01832714
0.005438485
-0.0008940579
0.005410279
0.01677328
0.01780194
0.005307083
-0.0009971078
0.005283111
0.01695553
0.01692614
0.005134751
-0.0009417177
0.005117063
0.01477697
-0.007460142
0.001072391
-0.0004345674
-0.009501909
-0.004939455
-0.01215518
-0.002363292
-0.006577055
-0.02527702
-0.006168281
-0.02398893
-0.005725919
-0.02477274
-0.005726251
-0.003061334
-0.005919651
-0.02316634
-0.00616737
-0.02354028
-0.005763025
-0.006346299
-0.005225672
-0.02338221
-0.005475694
-0.01232573
-0.005233141
-0.02291385
-0.005504477
-0.01850172
-0.005480463
-0.02231217
-0.005297598
-0.01961761
-0.005238655
-0.02215576
-0.005209679
-0.02264122
-0.005208241
-0.02262797
-0.005367813
-0.02063962
-0.00537138
-0.02196943
-0.005210727
-0.02178066
-0.005223548
-0.02204246
-0.005187932
-0.02184664
-0.005172372
-0.02258133
-0.00524482
-0.02198438
-0.005289007
-0.02244931
-0.005236846
-0.02072088
-0.005164978
-0.02266933
-0.005266026
-0.02243048
-0.005328775
-0.0227808
-0.005207562
-0.02120096
-0.005219949
-0.02134536
-0.005158954
-0.0226342
-0.005176061
-0.02262967
-0.005232564
-0.02186423
-0.005277932
-0.02260278
-0.005253443
-0.02105143
-0.005218801
-0.0226713
-0.005362402
-0.02104967
-0.005379345
-0.0224439
-0.005307741
-0.02122999
-0.005290399
-0.02261577
-0.005471138
-0.02102611
-0.005550632
-0.0210099
-0.005616023
-0.01655991
-0.005492234
-0.02297998
-0.001553618
-0.0007662556
-0.0004264524
-0.0003627193
0.0001636557
-0.0003309119
8.490327e-05
-0.0004543236
0.0003775009
0.0001050522
0.0004127998
-0.0002341421
0.001025041
-0.0002176728
0.0004613022
0.0003834384
-0.006055922
0.003694149
-0.003175512
-0.005177716
-0.00635447
-0.0002377284
-0.00390026
-0.008437788
0.005666438
-0.01032725
0.0004727641
-0.00135584
-0.00835022
0.008575624
-0.009118792
0.001473227
-0.0008061186
-0.008905058
0.008284151
-0.00910805
0.001550801
-0.0007646066
-0.008742986
0.008488745
-0.009077522
0.001636258
-0.0007361877
0.005813627
-0.0008231431
0.005660757
0.01925367
0.01896603
0.005405321
-0.0008305319
0.005537623
0.01731223
0.01733662
-0.01153741
-0.0138504
-0.01028684
-0.0001874173
0.005545886
-0.002866136
-0.008470911
-0.01426182
-0.007432543
-0.02540911
-0.007126702
-0.006032066
-0.006551037
-0.01989551
-0.005943508
-0.01988204
-0.006111228
-0.02393199
-0.006101526
-0.02356756
-0.006275219
-0.007791698
-0.005719968
-0.02313459
-0.005923167
-0.008742111
-0.005603344
-0.0228856
-0.005525174
-0.0205666
-0.005293641
-0.02279363
-0.005257298
-0.02265755
-0.005210908
-0.02239944
-0.005187959
-0.02238593
-0.005206614
-0.02266408
-0.005267617
-0.0208149
-0.005243748
-0.02269876
-0.005237103
-0.02266361
-0.005170139
-0.02262249
-0.005158386
-0.0225853
-0.005210005
-0.02253013
-0.005219466
-0.02223929
-0.005210034
-0.02266612
-0.005232415
-0.02265564
-0.005206062
-0.02253573
-0.005248867
-0.02064923
-0.005210674
-0.02269636
-0.005270457
-0.0210355
-0.005202365
-0.02192748
-0.005159606
-0.02261291
-0.005187384
-0.02250672
-0.005226494
-0.02138885
-0.005219866
-0.02266467
-0.005209643
-0.0226544
-0.005182407
-0.02271105
-0.00530528
-0.01824256
-0.005249275
-0.02273627
-0.005237312
-0.02250285
-0.005310917
-0.02260832
-0.005292507
-0.02248173
-0.005362676
-0.02288521
-0.005478823
-0.02301435
-0.005429135
0.02167561
-0.009003462
-0.005655672
-0.001188532
-0.0006389484
-0.0007608954
6.097544e-06
-0.001523452
0.001033463
-0.000236146
-0.0002391913
0.0002109565
0.0006820427
0.0002593494
0.000872286
-0.000467079
0.0004596904
0.001638308
0.001184417
-0.001283129
0.0003017901
0.00572509
-8.54129e-05
-0.006345162
0.001340987
0.01159334
0.01382609
0.01036724
0.0001639991
-0.01081522
0.0009631622
0.01213127
7.117861e-05
0.009493282
0.004944028
0.0121801
0.00236387
0.008476641
0.01421581
0.007431702
0.02541694
0.006567853
0.02527991
0.006167382
0.02401004
0.007095309
0.006411477
0.006524853
0.01958923
0.005934938
0.02315464
0.006183829
0.02351953
0.006158638
0.02359402
0.00627021
0.008464895
0.005782553
0.006057149
0.005254532
0.02339758
0.005756217
0.02314615
0.005943673
0.008646024
0.005217102
0.02283861
0.005303901
0.01891178
0.005346468
0.01217809
0.005276342
0.02013914
0.005322066
0.02269129
0.005384671
0.02269294
0.005236854
0.02026861
0.005189265
0.02255768
0.005180512
0.0227946
0.00528447
0.02212907
0.005380586
0.02253651
0.00543048
0.02289098
0.00516234
0.02274705
0.005314081
0.01963992
0.005263902
0.02155852
0.005258917
0.0226042
0.005164464
0.02245314
0.005211585
0.02232268
0.005339197
0.02264891
0.005315101
0.02202393
0.005261289
0.01856302
0.005196386
0.02282838
0.005429966
0.02283216
0.005458303
0.01652741
0.006160273
0.02312268
0.005796474
0.02308296
0.005413228
0.01626291
0.02114913
0.005464871
0.01218823
-0.01629977
0.006124752
0.005099612
-0.0002165494
0.0008220194
-0.001185372
0.001101321
-0.0005159968
-0.0002391127
-0.001755349
0.002148756
-0.0004642346
0.002520763
0.001530815
0.0006723
0.001431328
4.917513e-06
-0.00146092
-0.006013658
-0.00570539
7.576871e-05
0.006276731
-0.001363174
0.005218658
0.004658488
-0.0007373705
2.54021e-05
-0.0008030873
-0.0009577677
-0.002583988
0.001041717
-0.001403131
-0.001389827
-0.0005969838
-0.001945368
-0.003846883
-0.001636842
0.001767798
-0.00189266
-0.003973665
-0.004671081
-0.01304444
0.01678947
-0.01208421
0.01745354
-0.01510233
0.01478398
0.0008650404
-0.0003750384
0.008211259
-1.431811e-05
-0.01405565
0.01606343
0.01901352
-0.01090014
-0.01456605
0.01784153
0.01296564
-0.01737548
-0.01447613
0.01807714
-0.01755162
0.0132826
-0.01448573
0.01810678
-0.0175769
0.01323159
-0.0147184
0.01671503
0.01407412
-0.01636285
-0.01467693
0.01789073
-0.01773119
0.01319061
0.005578178
0.01084527
0.005299677
0.02275975
0.005543132
0.01801445
0.005257634
0.02239691
0.005366971
0.02290674
0.005511781
0.02296207
0.005233403
0.02137688
0.005242021
0.02308997
0.005287298
0.0228465
0.005350899
0.02295562
0.004996515
0.02015663
0.005143932
0.01779316
0.005218314
0.02277479
0.005343414
0.01937711
0.005275927
0.02292099
0.005344029
0.02304983
0.005395773
0.01802181
0.005370205
0.02323557
0.005112694
0.02266088
0.005460823
0.01692502
0.005359873
0.02241341
0.005353322
0.02257858
0.005346191
0.02263096
0.005322986
0.02276795
0.005097677
0.02211538
0.005471888
0.0156341
0.00518921
0.02253593
0.005254693
0.02316124
0.005189603
0.02283639
0.005275157
0.02300877
0.005080639
0.02271919
0.005207531
0.02059124
0.00524183
0.01241695
0.004967198
0.02276075
0.005189706
0.02220251
0.005245534
0.02069601
-0.01498667
0.01781772
0.01304101
-0.0177332
-0.01511293
0.01760455
-0.01764268
0.01305665
-0.01504184
0.01783226
0.01304444
-0.0177235
0.005112809
0.02223922