/*--------------------------------*- C++ -*----------------------------------*\
  =========                 |
  \\      /  F ield         | OpenFOAM: The Open Source CFD Toolbox
   \\    /   O peration     | Website:  https://openfoam.org
    \\  /    A nd           | Version:  7
     \\/     M anipulation  |
\*---------------------------------------------------------------------------*/
FoamFile
{
    version     2.0;
    format      ascii;
    class       volScalarField;
    location    "0.1";
    object      Uz;
}
// * * * * * * * * * * * * * * * * * * * * * * * * * * * * * * * * * * * * * //

dimensions      [0 1 -1 0 0 0 0];

internalField   nonuniform List<scalar> 
77308
(
-0.001714381
-0.002321617
-0.002399175
-0.002779958
-0.002888517
-0.003288682
-0.001256962
-0.0007463981
-0.001168147
-0.001312469
-0.001476343
-0.001763633
-0.0006690598
-0.001514604
-0.001832793
-0.002012038
-0.002225647
-0.002270769
-6.511648e-05
0.0001807229
-4.567035e-05
-9.251458e-05
-9.197578e-05
-0.0002363439
-0.0001733961
-0.0003446763
-0.0003807744
-0.0005232922
-0.0005877293
-0.0006710498
6.652298e-05
-5.731504e-05
4.506733e-05
-3.068858e-05
-1.588751e-05
-5.627725e-05
7.30911e-06
-0.0001653783
-2.295083e-05
-0.0001070198
-0.0001073037
-0.0001328974
-1.96319e-05
-0.0001269229
3.828994e-05
-3.486084e-05
-2.181192e-05
-4.399598e-05
2.027546e-05
-0.0001378248
5.011127e-05
-2.47791e-05
-8.520891e-06
-2.403178e-05
-8.520454e-06
-0.0001741026
-1.464537e-06
-8.195258e-05
-8.672236e-05
-0.0001162046
7.211043e-05
3.289537e-05
0.0002245151
0.000179554
0.0002245022
0.0002480848
2.887514e-05
0.0001242456
0.0001668196
9.167874e-05
5.931392e-05
4.457671e-05
0.000384107
0.000769966
0.0005622886
0.0008249684
0.0009349294
0.00107504
0.0001488931
-0.0001319054
-0.0004696043
-0.0004201113
-0.0006383692
-0.0008856073
-0.02126795
0.01526521
0.04112793
0.03370931
0.02604034
0.02104066
0.02156336
0.02894831
0.02482969
0.0220338
0.02242537
0.02308657
0.006537365
0.01156676
0.0124537
0.01066281
0.007622387
0.007687267
0.00785223
0.004894923
0.003648315
0.004796426
0.004446374
0.004093448
-0.003085703
-0.003340571
-0.002576895
-0.001562047
-0.0003566808
-0.0005772935
-0.004633979
-0.002648565
-0.001996001
-0.001159131
-0.0005180782
-0.0005526521
-0.003639743
-0.0008226526
-0.002652622
-0.001488978
-0.001315748
-0.001211899
-0.002161311
0.0006972473
-0.001778231
-0.0006428295
-0.0006132795
-0.0004738212
-0.001606873
0.001089995
-0.001673359
-0.0004655624
-0.0005324836
-0.0002952196
-0.001396163
0.001377084
-0.001422851
-0.0003354623
-0.0004038341
-0.0003135552
-0.0008246739
-0.001467061
-0.002323147
-0.00275044
-0.002910059
-0.002987603
-0.001717512
0.0002289621
0.001424787
0.001389137
0.001582938
0.001351941
0.002073516
-0.002445722
7.878463e-05
-0.001153364
-0.001166347
-0.002067289
-0.001789852
-0.002477176
-0.001576026
0.0001737755
3.842395e-05
-0.0001026187
-0.0004988248
-0.000403634
-0.0007183841
-0.002988647
-5.266718e-05
-0.0004307912
-0.0003062408
-0.0005033345
-0.0004956189
-0.000588462
-0.001342043
-1.37623e-05
-0.000102299
-7.600273e-05
-0.000169896
-0.0001484316
-0.0002144395
-0.001331129
-7.046833e-05
-0.0002015802
-0.0001000851
-0.000155655
-0.0001303846
-0.000154651
-0.001334791
-2.429937e-05
-0.0001230336
-4.183548e-05
-6.847844e-05
-4.129885e-05
-5.430495e-05
-0.002152172
-5.345004e-05
-0.0001461258
-3.082155e-05
-5.631239e-05
-1.532744e-05
-1.983791e-05
-0.001797408
-6.3534e-05
-6.259091e-05
-1.005368e-06
7.456242e-06
4.080816e-05
4.745193e-05
-0.001349864
5.216719e-06
-0.0001587264
6.452579e-05
1.580049e-05
0.0001040116
0.0001040719
-0.001184229
-0.0001585117
0.0001378414
0.0001109429
0.0001463185
0.0001683681
0.0001914177
9.449177e-05
0.000359507
0.0005439286
0.0002727701
0.0002989286
0.0002463611
0.0005111581
-0.0001357446
-0.0004476314
-0.002545917
-0.003495951
-0.004585955
-0.005599356
0.01483377
-0.008867785
-0.1006853
-0.04787076
-0.03697614
-0.0309657
-0.0222784
0.05537896
0.008896741
0.07149359
0.06727971
0.05404263
0.06582972
0.04223723
0.01332965
-0.02388356
0.001757252
0.006267784
-0.0004617089
0.0006364348
0.0007042472
0.007706179
0.003279609
0.01510731
0.01278322
0.007047848
0.007575522
0.006988311
0.006164298
-0.0003224462
0.004129925
0.0007557238
0.001927493
1.46098e-05
0.003334939
0.01246171
-0.004790172
0.006281713
0.001009135
0.004048088
7.910301e-05
0.003297047
0.009011107
-0.003453573
0.002211632
-0.001309813
0.001460803
-0.001138291
0.0005809605
0.01049853
-0.002279684
0.002674372
-0.000775985
0.001130296
-0.0003626344
0.0003326317
0.01255942
-0.002079903
0.001663583
-0.0007437709
0.0004130771
-0.0004941425
-0.0001053995
0.0003296013
-0.00211216
0.001352982
-0.0006314208
7.375936e-05
-0.0003714857
-0.0007828226
-1.568607e-05
0.000290009
0.0004374273
0.0004154557
0.0004739346
0.000515338
0.001765336
-0.0001384057
-0.0005802293
-0.000734422
-0.001024163
-0.001117324
-0.001196487
-0.001513314
0.0004909083
-0.0006332585
-0.000351525
-0.0006112728
-0.0006264241
-0.0007213091
0.0008758104
5.296956e-05
-9.24249e-05
-0.0003200313
-0.0004091806
-0.0005081245
-0.000600755
-0.0003225207
-0.000128148
-0.0003408092
-0.0002260884
-0.0003504456
-0.0003494984
-0.0004199332
-1.378334e-05
-0.0002952599
-0.0001003539
-0.000167876
-0.0001755933
-0.0002003788
-0.0002363508
-0.0001638782
-0.0003651167
-0.00019138
-0.0001678227
-0.0001657022
-0.0001590623
-0.000180239
-1.806716e-05
-0.0003477831
-0.0001276998
-0.0001152752
-7.59815e-05
-6.861825e-05
-7.330743e-05
-0.0001496199
-0.0004196348
-0.0001598121
-0.0001126665
-7.883333e-05
-5.555881e-05
-5.901579e-05
-0.0002773354
-0.0004316747
1.110044e-06
-1.410785e-05
8.59949e-05
0.0001030484
0.0001230711
-0.0002949033
-0.0003143316
-0.0001697725
-8.388528e-06
-5.86322e-06
4.695387e-05
2.538876e-05
-0.0001636594
-0.0001954265
0.0005671254
0.0004396678
0.0006084389
0.000646433
0.0007052144
0.0004154517
-8.514791e-05
-0.0004914245
0.0003241466
2.745491e-05
0.0001815705
0.0001214106
0.0007130119
-0.008814379
-0.02777378
-0.07522852
-0.1333233
-0.07461578
-0.05337685
-0.07723438
0.04225788
0.01559184
0.05656245
0.05715583
0.05860496
0.05590117
0.05186268
-0.03275973
-0.0244542
0.005499885
0.01810787
0.01822421
0.01472623
0.01486198
0.01478434
0.0009279415
0.0129862
0.01482874
0.01620167
0.0147561
0.01499504
-0.005650471
0.0003797451
0.002117195
0.0028734
0.001641475
0.003180079
0.003067557
0.001896352
0.004458211
0.002960037
0.004074289
-0.000439144
0.001027872
0.001876349
-0.0007929818
0.002729366
0.0006649915
0.001315889
0.0001550417
-0.0001512473
0.000534046
0.001541883
0.003363208
0.001254706
0.0007149408
0.0001210475
-0.0002879549
-2.033088e-05
0.0003823811
0.003287969
0.001354315
0.0004482002
0.0001532741
-0.0002954376
-8.775502e-05
0.0006646858
0.003557272
0.001098774
0.0003797386
-0.0001476409
-0.0002927247
-0.000845477
1.779087e-05
-0.0005163553
-0.0006337764
-0.0007040431
-0.0008266029
-0.000860518
0.0004952907
8.777481e-05
0.0002665316
0.0004292949
0.0004907818
0.0003923041
0.0005300905
-0.0008193901
0.0002643308
-0.0005382331
-0.0006233931
-0.0009343706
-0.001005342
-0.001194444
0.0004474407
9.033652e-05
7.452051e-05
-0.0001394735
-0.0001249484
-0.0002186679
-0.0002584952
3.225691e-05
-4.18127e-06
-0.0002234019
-0.0002543969
-0.000375661
-0.0004129972
-0.0004866593
0.0001592708
1.089975e-05
-1.757487e-05
-9.271067e-05
-0.0001202516
-0.0001477574
-0.000179684
2.831639e-06
-4.367491e-05
-0.0001075289
-0.0001185059
-0.0001569341
-0.000164022
-0.0001914871
-8.139085e-05
-3.854834e-05
-5.958312e-05
-7.124973e-05
-8.392682e-05
-8.740226e-05
-0.0001022561
-4.863244e-05
-3.856984e-05
-7.500588e-05
-6.043093e-05
-7.67333e-05
-6.424432e-05
-7.634908e-05
2.207685e-05
-6.517219e-05
-1.70392e-05
-5.137705e-05
-3.520575e-05
-3.388832e-05
-4.002722e-05
2.227937e-05
-1.322489e-05
-9.30369e-05
-6.27486e-05
-9.701788e-05
-6.862288e-05
-9.551137e-05
-3.358413e-05
-0.000135688
7.104094e-05
-4.264851e-05
-6.468796e-05
-7.437468e-05
-9.895773e-05
0.000394052
5.932498e-05
-4.493113e-05
-8.690705e-05
-8.984908e-05
-0.000172623
-0.0002327005
0.0003264818
-0.001993945
-0.006069438
-0.01777115
-0.08672078
-0.001473294
-0.02897754
-0.01038589
0.02491161
0.00983155
0.02514901
0.09091665
-0.004604369
0.02783303
-0.001254352
-0.006736573
-0.01502537
-0.00886254
0.002053537
-0.0047597
-0.00103976
-0.00367392
0.0004398531
0.0008683503
0.003175761
0.00206733
0.008380991
0.004328899
0.00560465
-0.006212942
-0.002782709
0.000966491
-0.008145981
0.00256022
-0.004006853
0.004176444
-0.002402256
-0.006018559
0.003890253
-0.004237397
0.002633861
-0.002506629
0.001827482
-0.001070398
-0.003645749
0.0001029163
-0.003202363
0.001889886
-0.001607273
0.0009865209
-0.001283995
-0.002846053
5.198604e-05
-0.0020442
0.0002377067
-0.001307125
-0.0001277086
-0.002859008
-0.00164746
-0.0001824482
-0.001118973
7.381978e-05
-0.0006429323
-1.218467e-06
-0.001799885
-0.001590882
-0.0004967754
-0.000715509
-0.000286658
-0.0005660075
-0.0006979881
-1.912059e-05
8.216033e-06
7.234019e-06
8.408226e-06
2.706504e-05
1.64714e-06
-0.0007495461
-0.0001617197
-0.0002516824
-0.0002876711
-0.0004946162
-0.0005132541
-0.0005916175
-0.0002808811
0.0001007917
-0.0002632859
-0.0001198851
-0.0002471068
-0.0002335032
-0.0002827576
0.0001895799
-3.015419e-05
-0.0001448215
-0.0002265409
-0.0003020289
-0.0003488386
-0.0004047407
-0.0001143799
-9.210926e-05
-0.0001882706
-0.0001587195
-0.0002106394
-0.0002199866
-0.0002536781
-4.21116e-05
-0.0001327353
-0.0001193937
-0.0001543442
-0.0001750377
-0.0001965277
-0.0002207344
-0.0001333606
-0.0001556376
-0.000128755
-0.000127452
-0.0001307232
-0.0001314992
-0.0001402551
-9.90418e-05
-0.0001421678
-9.037071e-05
-9.854276e-05
-8.399317e-05
-7.79835e-05
-7.573208e-05
-0.0001141433
-0.0001454746
-8.799471e-05
-7.976893e-05
-5.848563e-05
-3.837929e-05
-3.233725e-05
-0.0001003663
-0.0001282648
-2.874307e-05
-3.794403e-05
1.380653e-06
1.784072e-05
3.147674e-05
-9.034723e-05
-9.459709e-05
-6.634768e-05
-2.762163e-05
-2.026987e-05
1.10898e-05
1.165688e-05
-5.090719e-05
-4.797152e-05
9.099967e-05
8.471472e-05
0.0001429502
0.0001747277
0.0001957155
0.0003070326
9.579572e-07
-4.548674e-05
8.675423e-05
8.119415e-05
0.0001540552
0.0001643754
5.726874e-05
-0.003028779
-0.02574545
-0.02888391
-0.007774693
-0.02017036
-0.0167128
-0.01929443
0.002659346
0.0218546
0.02051556
0.004519117
-0.01368013
-0.002534545
0.004057928
-0.0003306988
-0.00301843
0.001146021
-0.00264952
-0.003394556
-0.0001931931
-0.0002507333
0.001515862
0.001238874
-0.0004100737
-0.002770774
0.004104599
0.005230387
0.005793205
0.00185417
0.001067852
0.005716671
0.0005530725
0.006095726
0.001873596
0.007381112
0.0006117046
-0.00512976
0.003132141
-0.003702158
0.005329414
-0.001502745
0.004943967
0.001759319
-0.0001818154
0.002724035
-0.0008210345
0.004322981
-0.0009442076
0.002584203
0.000979695
0.0005285938
0.002875349
-0.001066784
0.002016633
-0.0007707139
0.0007212187
0.001285682
0.0009325409
0.001535822
-0.0002433668
0.0009569148
-0.000228524
0.0003220373
0.001509449
0.001054819
0.0007845558
-0.0001081936
4.591113e-05
-0.0004718118
-0.0005273515
-9.781758e-06
-0.0001158696
-0.0001464424
-5.515041e-05
-9.363832e-05
-6.269955e-05
-9.922985e-05
0.0001170956
2.336022e-05
5.274974e-05
2.529147e-05
2.972545e-05
2.66073e-05
0.0001294714
-0.0004022933
5.206682e-06
-0.0002078989
-7.206796e-05
-0.0001332962
-0.0001177051
-0.000312098
-0.0001488736
-8.325716e-05
-5.877495e-05
-5.524022e-05
-6.692867e-05
-7.36754e-05
-6.58395e-05
-0.000129528
-3.182008e-05
-0.0001098124
-7.626372e-05
-0.0001085324
-0.000108863
-9.625281e-05
-3.298011e-05
-5.417457e-05
-6.306029e-05
-7.337414e-05
-9.162275e-05
-0.0001042397
1.102088e-05
1.393759e-06
-1.915146e-05
-5.283244e-05
-6.262866e-05
-8.865756e-05
-0.000102615
-5.165007e-06
2.208768e-05
-3.42323e-05
-4.562655e-05
-7.402795e-05
-0.0001011209
-0.0001228136
1.474832e-05
3.571214e-05
-8.428393e-06
-3.457656e-05
-6.049608e-05
-9.658659e-05
-0.0001153399
3.752872e-06
3.429318e-05
-5.382366e-05
-5.594207e-05
-9.832988e-05
-0.0001273189
-0.0001521464
3.135328e-05
3.005793e-05
3.951017e-06
-4.512065e-05
-5.702278e-05
-9.739493e-05
-0.0001062009
6.334327e-06
-2.663003e-06
-0.0001442763
-0.0001446042
-0.0002079054
-0.0002499386
-0.0002849796
0.0002820188
-8.608924e-05
2.581409e-06
-0.0001454468
-0.0001438512
-0.000222828
-0.0002497892
-5.678466e-05
0.0008356082
-0.008617652
0.01830216
0.01188288
0.01686549
0.03933748
0.01551754
-0.001011684
-0.01803866
-0.01881179
-0.008905461
0.0192108
-0.01155386
-0.00254093
0.00120766
0.002809709
-0.001421819
0.00148161
0.00466854
-0.004049298
-0.001054937
-0.001720613
-0.0007487406
-4.395263e-05
0.001815975
-0.003243297
-0.006682709
-0.0060653
-0.002271859
-0.001033435
-0.006482262
-0.000930404
-0.006370135
-0.00253981
-0.007636727
-0.001285971
0.005066052
-0.003662965
0.003164558
-0.005484379
0.001116772
-0.005181249
-0.002459173
2.319503e-05
-0.003117407
0.0005976527
-0.004474833
0.0007531355
-0.002719678
-0.002190753
-0.0008357914
-0.00318637
0.0007669352
-0.002307624
0.0005465451
-0.00094712
-0.001593116
-0.001189133
-0.001706388
2.787274e-05
-0.001019246
0.0002061713
-0.000353301
-0.00186846
-0.001433787
-0.001122151
-0.0001962317
-0.0003183148
0.00035202
0.0003381213
4.828478e-05
-0.0002372771
-0.0003057814
-0.0001572347
-0.0002241313
-0.0002079129
-0.0005884631
6.736273e-05
-0.0002556159
-0.0002480714
-0.000368781
-0.0003876032
-0.0004494746
0.0006376187
-0.0007582471
4.705152e-05
-0.0001983325
-1.487698e-05
-5.188621e-05
-2.301224e-05
-0.0006000669
-0.0002464641
-0.0002111468
-0.0001595562
-0.000172973
-0.0001736425
-0.0001895448
-0.000206386
-0.0002550004
-4.808865e-05
-0.0001210547
-4.492842e-05
-7.329651e-05
-5.501289e-05
-0.0002250441
-0.0001570024
-0.0001232598
-0.0001130981
-0.0001097404
-0.0001272059
-0.0001327923
-9.353343e-05
-0.000103509
-3.803139e-05
-6.915764e-05
-4.860096e-05
-7.41103e-05
-7.167794e-05
-0.0001092591
-7.611148e-05
-5.919128e-05
-6.20555e-05
-6.160822e-05
-7.97155e-05
-8.306463e-05
-1.348434e-05
-5.212598e-05
-8.097717e-06
-4.572576e-05
-3.719365e-05
-6.711947e-05
-6.779555e-05
-1.368746e-05
-7.159346e-06
-4.538614e-05
-3.257504e-05
-5.308432e-05
-6.776192e-05
-7.141109e-05
-5.98352e-05
-3.912303e-05
3.934827e-05
-4.169385e-06
2.510017e-05
-1.318778e-05
5.289121e-06
-6.976917e-06
9.507825e-05
-0.0001248299
-1.452195e-05
2.892388e-06
4.864098e-06
1.917645e-05
0.0002550169
-0.0002019449
8.602753e-06
4.422498e-05
3.324905e-05
0.0001263174
0.0001758002
-0.0002389128
0.00640088
0.004101245
0.03376543
0.1055684
0.006564756
0.03257311
0.013652
-0.0249435
-0.01481618
-0.02479002
-0.0892339
0.01085271
-0.02684732
0.005861266
0.004946341
0.01333906
0.008660897
-0.002060682
0.005138082
0.0008047397
0.003896319
-0.0008587644
-0.001397102
-0.003144725
-0.002600499
-0.008399129
-0.004763091
-0.00512403
0.005079236
0.002375303
-0.001070624
0.007853234
-0.002701812
0.003839401
-0.004588839
0.001313194
0.005518131
-0.004101626
0.004244212
-0.003015834
0.002609963
-0.002030898
0.0008791218
0.003278062
-0.0002581087
0.003076826
-0.002133616
0.001608517
-0.001131062
0.001162715
0.002559363
-0.0002637051
0.001822284
-0.0005632429
0.00116976
-9.544661e-05
0.002488955
0.001377356
0.0001348864
0.0009254942
-8.15439e-06
0.0007704578
0.0001146649
0.001510565
0.001170167
0.0001191288
0.000244244
-0.0003154019
0.0001904546
0.0003264486
-6.476076e-05
0.0002749567
0.0004959865
0.0009106937
0.0008365737
0.0009854609
-0.001061866
0.0004563592
0.0001995557
0.0004891869
0.0004093308
0.0004910092
0.000493744
0.001316042
-0.0009160409
0.0004786881
0.0001163445
0.0005365238
0.0004971358
0.000617808
-0.001013464
-0.0001343836
-0.0001141225
2.106478e-05
3.874607e-05
6.660225e-05
7.273723e-05
0.0001925069
-9.185705e-05
0.0001460676
-2.404552e-05
8.409361e-05
4.134153e-05
7.826155e-05
-0.0001349861
0.0001128847
-2.276476e-05
-2.657102e-05
-4.421769e-05
-5.64395e-05
-5.84921e-05
0.0001370819
0.0001845296
8.369879e-05
8.328417e-06
1.778469e-06
-3.296164e-05
-2.992529e-05
9.329195e-05
0.0002707109
2.59698e-05
1.633138e-06
-4.983958e-05
-7.545527e-05
-8.79404e-05
1.682973e-05
0.0002656897
0.0001041554
1.517238e-05
-1.348609e-05
-5.538388e-05
-6.059089e-05
-1.818382e-05
0.0003084168
-4.872228e-05
-6.438006e-05
-0.0001565721
-0.0001894089
-0.000219011
0.0002368105
0.0002449145
0.0001360973
-4.85115e-05
-5.596865e-05
-0.0001165457
-9.600648e-05
0.00022582
0.0001512304
-0.0005995486
-0.000482023
-0.0006242922
-0.0006977068
-0.0007921289
0.0001075808
-0.0003256129
0.0004454201
-0.0003776868
-8.291644e-05
-0.000254028
-0.0002371879
-0.0004055674
0.002153888
0.01326829
0.07250138
0.1342651
0.05408562
0.06849988
0.07641233
-0.03735223
-0.01330726
-0.05460305
-0.05864602
-0.06537862
-0.05575968
-0.05655389
0.03311379
0.02372802
-0.004683029
-0.01967215
-0.01950028
-0.01702516
-0.01664904
-0.01473039
-0.00141626
-0.012573
-0.01578476
-0.01721154
-0.01617796
-0.01586171
0.005630624
-0.0003896101
-0.002123519
-0.003231937
-0.002297962
-0.00374184
-0.003735949
-0.001786679
-0.004574834
-0.002858357
-0.004428229
7.016606e-05
-0.001321156
-0.002192822
0.0006630858
-0.003143551
-0.000617542
-0.001562651
-0.0003252583
1.830545e-05
-0.0006761166
-0.001709254
-0.003591302
-0.001362626
-0.0009044971
-0.0002980644
0.000198841
-0.0001054206
-0.0003935351
-0.00347566
-0.001366784
-0.0005506021
-3.042735e-05
0.0004097552
0.000159311
-0.0007671231
-0.003796619
-0.001240793
-0.0003988195
0.0002148194
0.0005950114
0.0009133411
0.0006262062
0.0057169
0.005850071
0.00630832
0.00658385
0.007061111
-0.001092846
0.0007050279
-0.0001759356
0.0001187189
2.171652e-05
5.889826e-05
1.34951e-05
0.003379438
-0.0006488055
0.0002278483
-0.0001592938
9.055036e-05
3.488066e-05
0.0001008776
-0.0005500468
-0.0001030822
-8.756418e-05
1.342338e-05
2.5989e-05
4.007882e-05
4.502026e-05
0.004713288
-0.0001248507
0.0001954604
4.421485e-06
0.0001182217
7.868457e-05
0.0001122591
0.002036171
-8.656898e-05
3.887758e-05
-2.103198e-05
1.117849e-05
-9.847829e-06
-2.851662e-06
0.004240772
-2.871352e-05
0.0001138435
-3.879068e-06
4.035687e-05
1.734015e-06
1.139375e-05
0.001104972
-9.419877e-06
7.915389e-05
-1.888901e-05
-3.801812e-06
-3.893696e-05
-3.900521e-05
0.002834595
9.994802e-07
0.0001350619
-2.279437e-05
5.091309e-06
-4.734504e-05
-4.668292e-05
0.002554765
2.830955e-06
3.327027e-05
-4.322936e-05
-4.983344e-05
-9.055426e-05
-9.95162e-05
0.0009869748
-2.305854e-05
0.0001400631
-0.0001025555
-5.602191e-05
-0.000155903
-0.0001569849
0.001204247
0.0001683341
-0.0001838808
-0.0001387083
-0.0001836359
-0.0002132801
-0.0002319457
-6.323092e-05
-0.0002817583
0.0009431436
0.0001599003
0.001159904
0.0006648976
0.001346829
-0.0006104942
-0.002247608
-0.0003884449
0.0001029678
0.0004909799
0.0008640867
0.03794094
0.02418334
0.01167307
0.02573687
0.03021846
0.02509918
0.01665096
-0.01587165
-0.006949317
-0.06555733
-0.06258622
-0.05930078
-0.05888626
-0.04152732
-0.02169322
0.02282683
-0.00243251
-0.005384469
-0.000458252
0.0005372669
-0.0007582289
0.0001752554
-0.002867436
-0.01603102
-0.01288165
-0.008150398
-0.0067939
-0.00747696
0.0167891
0.0003453711
-0.00443074
-0.0009336104
-0.002700006
0.0003003103
-0.003768286
-0.003676537
0.004557236
-0.006330089
-0.0009610692
-0.004383827
-4.802538e-05
-0.003548941
0.00438907
0.002691185
-0.001728587
0.001185587
-0.001551608
0.001134001
-0.0006715674
-0.001554604
0.001884942
-0.002479042
0.0006763449
-0.001265813
0.000288884
-0.0004515538
-0.002899337
0.001871308
-0.001442448
0.0006138794
-6.42893e-05
0.00081564
0.0004506402
0.01523449
0.001929048
-0.001475634
0.0003846043
-0.0008634141
-2.479241e-06
0.0003658223
0.005425992
0.007099725
0.007499302
0.007854242
0.008285179
0.00879887
0.004073846
0.001742879
0.002194267
0.002656261
0.002779257
0.002972598
0.003179178
0.006742518
0.0001185107
9.744417e-05
1.03e-06
-2.06604e-05
-6.03403e-05
-5.665112e-05
0.006740698
7.652111e-05
-2.57854e-05
-1.805087e-05
-4.807993e-05
-3.545448e-05
-5.517904e-05
0.005603154
-2.246238e-06
1.830078e-06
-0.0001307959
-9.861396e-05
-0.0001248592
-0.0001249236
0.00608258
-6.015623e-05
4.699417e-05
-8.860013e-05
-4.061502e-05
-6.155412e-05
-5.677356e-05
0.005724264
-5.143662e-05
6.609169e-05
-8.552485e-05
-2.771008e-05
-4.802707e-05
-4.063742e-05
0.005615827
-5.27678e-05
0.0001094402
-6.925217e-05
-5.378182e-07
-2.079147e-05
-5.785264e-06
0.004801765
6.07778e-05
0.0001353155
-7.110149e-05
-1.195154e-05
-3.52396e-05
-2.71236e-05
0.003659341
4.562274e-05
0.0001713752
-7.18573e-06
6.061217e-05
6.282811e-05
9.184771e-05
0.003167709
-5.050311e-05
-5.084834e-05
-0.0002392776
-0.0002017109
-0.0002538369
-0.0002827279
0.00216098
-2.952023e-05
-0.0001612785
-0.000181885
-0.000146688
-7.393727e-05
-2.816077e-05
7.664048e-05
0.0002505616
0.001200929
0.0008950001
0.001266916
0.001585977
0.001710255
0.0004601988
0.001268251
0.002239257
0.003230794
0.004448942
0.005308898
-0.0132722
-0.06773689
-0.01179347
0.01314423
0.002639672
0.0176024
0.01185627
0.04575437
-0.02222231
-0.02423805
-0.022358
-0.02053128
-0.02029859
-0.02250405
0.01159974
-0.007236121
-0.01189038
-0.01355596
-0.01060124
-0.007930329
-0.008173622
0.03400449
-0.008389112
-0.005627401
-0.004320069
-0.00495855
-0.004416114
-0.004347188
0.01212526
0.002960253
0.003332661
0.002551222
0.001523202
0.0009345089
0.0004328224
0.01432851
0.004889417
0.00265833
0.002053133
0.0008318252
0.0005383204
0.0005259259
0.01513175
0.003844277
0.001215756
0.002569554
0.001450133
0.001387853
0.001271374
0.007271326
0.001993069
-0.0006331572
0.001559408
0.0003177415
0.0004301602
0.0003172401
0.003333694
0.001398629
-0.0009864422
0.001393781
0.0008359963
0.000942788
0.0008777129
-0.0005846088
0.001044981
-0.001802229
0.0006317929
-0.001012533
-0.0005135389
-0.0004076485
-0.00472044
-0.0004273161
0.0003914301
0.002722815
0.001858361
-0.002153636
-0.00329616
-0.002444408
0.0004218363
0.000475896
0.002030083
0.002109172
-0.002057164
-0.004837406
-0.004249266
-0.004915508
-0.005202525
0.005526379
0.005976199
-0.002287437
-0.004703977
-0.004540907
-0.005357732
-0.005241731
0.006543825
0.006185011
-0.002375803
-0.005319592
-0.004726967
-0.005707507
-0.005489684
0.007167313
0.005515837
-0.002641258
-0.005526088
-0.005140368
-0.00596254
-0.005729493
0.007072756
0.006094276
-0.006125716
-0.006396885
0.008410319
-0.001837563
0.001781333
-0.003747614
0.001585836
0.005592112
0.001219809
-0.0003707437
0.00209853
-0.006256517
-0.001503501
0.004476577
0.0007600105
-0.001186937
0.0009364748
-0.006786361
-0.00139443
0.006571075
0.001763561
-0.001843976
0.0007279034
-0.005647275
-0.001472839
0.005151486
0.001264277
-0.001130232
0.0005828337
-0.00594581
-0.001290023
0.005452227
0.000867169
-0.001191534
0.0005027543
-0.005198127
-0.00172124
0.004913875
0.001316626
-0.001249875
0.0002528209
-0.004830275
-0.001379744
0.004595739
0.001377742
-0.001349632
7.227326e-05
-0.003620865
-0.0008875515
0.003855684
0.0007012555
-0.001104015
-5.997453e-05
-0.003501696
-0.001155896
0.003318033
0.0008676022
-0.000751517
-0.0001008449
-0.002724122
-0.0008390132
0.002222327
0.0009713431
-0.0007173489
8.672049e-05
-0.001619527
-0.0005495171
0.0009952164
0.0003850477
2.078726e-05
0.0001493296
-0.000507126
-0.0002143082
-0.0002766154
0.0003356517
0.0001644943
-0.002119882
0.0005036051
0.005925671
0.0004997938
-0.01421741
-0.0009799059
-0.0004351747
0.0009438127
-0.06581832
0.04176053
0.0005886727
-0.01737525
-0.01657006
-0.001118552
0.00153218
-0.01337785
0.007777788
0.0008072088
-0.01787251
-0.01131749
-0.00224595
0.002138474
0.001915471
-0.004548257
0.0009904696
-0.01330966
-0.01193212
-0.003240994
0.002852151
0.001560819
-0.01168904
0.001143513
-0.01388846
-0.01301604
-0.004203963
0.003445581
-0.004275322
-0.0148518
-0.01534021
-0.005227965
-0.004354816
0.02427534
0.009344666
0.003829442
0.03599817
-0.03708849
0.006824128
0.0414971
0.01770619
-0.03243486
-0.001414747
-0.00130627
-0.02125355
0.005656199
-0.002332318
-0.01653353
-0.02603756
-0.02733363
-0.02835088
0.01015609
0.0004922522
-0.02094671
-0.007103499
-0.01069374
0.001411618
0.005959648
-0.001676105
-0.01025726
0.009911701
-0.02382335
-0.002185064
0.008950344
-0.0002411476
-0.01335293
0.002122865
-0.0235416
-0.002871489
0.009618837
0.0006841857
-0.01112233
0.005041034
-0.0239616
-0.003961788
0.01042319
0.001699533
-0.006540016
0.004958608
-0.02074573
-0.00461969
0.0110436
0.002078188
-0.003044425
0.004561013
-0.02217617
-0.004967482
0.01102563
0.002465841
0.0005285471
0.004501436
-0.02246891
-0.005219109
-0.001130276
-0.0006730163
-3.71433e-05
0.0007623627
0.004301335
0.0005561329
0.0002446763
0.00575893
0.0005232323
0.0196796
-0.0006946186
-0.001142172
-7.203923e-05
0.0007389126
0.003924319
0.0001228029
-0.0004203663
-0.01644483
0.000278365
-0.006077189
-0.0007426865
-0.003533045
-7.561054e-05
0.0006843973
0.003241011
-2.177864e-06
-0.0002705239
-0.02036913
0.0001358693
0.0133947
-0.0007846261
-0.002826358
-8.645103e-05
0.0007702927
0.003836052
-1.777649e-05
-0.0002689054
-0.003732827
0.0001780628
-0.005287277
-0.0007966371
-0.002980176
-0.0001038013
0.000761978
0.003269448
0.0001860733
-0.0002245059
-0.01002147
0.0002208273
0.01642748
-0.0007125703
-0.004560449
8.71942e-05
0.0007166297
0.003043683
5.92774e-05
-0.0001862967
-0.005646669
0.0002665035
0.02357749
-0.0007337974
-0.004349849
-0.0004108364
0.0008005404
0.002582189
-0.0002593042
-0.0002840301
0.00699566
0.000404802
0.01410526
-0.0006095547
-0.003600316
-0.0008723595
0.0007140658
0.0009804999
8.489131e-05
-0.0005172667
-0.02166391
-0.0002683046
-0.005305241
0.0006850513
-0.002489761
-0.002280767
0.001345319
0.005946473
-0.003024373
-0.004218376
0.002921115
0.00329951
0.007124398
-0.005987089
-0.00627159
0.003937304
0.003662313
0.007437788
-0.006742466
-0.006899251
0.003987693
0.003938567
0.007766046
-0.0071586
-0.007478551
0.004187178
0.004176061
0.008168892
-0.007619477
-0.008036672
0.004465788
0.004458497
-0.008156815
0.004788526
0.001298347
-0.00424019
-0.001175109
0.0005049523
-0.002082465
0.001307871
-0.006589008
-0.001831839
0.001117319
-0.0009351255
0.001479127
-0.00538138
-0.00150682
0.001054245
-0.0005980394
0.001512583
-0.002199453
-0.001731124
0.001569612
-0.0010621
0.0002249761
0.0003820178
-0.0002789238
0.0001539357
-0.0001582427
-0.0005230919
-0.007106097
-0.0001484867
0.001557218
-0.002923504
-4.267366e-05
0.01821476
0.0004271696
-0.0009287724
-0.01857248
0.0177035
-0.004036304
-0.0002479077
0.006840994
0.0005062727
-0.0003798873
0.02877
-0.004625147
0.0004441293
0.002566298
-0.007286749
-0.001121611
-0.0024119
0.00208733
-0.001101701
-0.00287389
4.857339e-05
0.0009930982
-0.001598754
-0.0009225296
-0.0006168403
0.0009331861
-0.00194282
-0.001454144
-0.001203315
-0.0002375726
-0.001842139
-0.001836413
-0.0007329983
0.0001459178
-0.001858959
-0.001524513
-0.0009167187
0.0001824671
-0.001782178
-0.001408207
-0.0008851584
4.094374e-05
-0.001606553
-0.001316535
-0.0007496256
0.0004057618
-0.001377169
-0.001274677
-0.0006141876
0.0003268129
-0.001258659
-0.0009904114
-0.0006069577
2.048729e-05
-0.001060174
-0.0004214965
-0.0004984967
7.286106e-05
-0.0007557314
-8.463885e-05
-0.0003274661
0.0001078912
-0.0001895624
-0.0003165259
7.005596e-05
0.0009169435
-2.463972e-05
0.0003328944
-0.0003588271
-0.0001608721
-0.000424003
0.0009512564
0.001004459
-0.0001405968
0.0003979902
-0.001016938
4.478871e-05
-0.001692836
0.001831056
0.001062235
-7.8091e-05
0.0005949199
-0.000893448
-0.0001774115
-0.002590695
0.002733024
0.001054655
-0.000112498
0.0006986266
-0.001465621
0.0001843451
-0.003901454
0.00371653
0.001182863
-0.0002062383
0.0007783267
-0.001445542
0.0004529826
-0.004678397
0.004613959
-0.0003066062
-0.001472134
-0.005710202
9.449383e-05
5.516304e-05
0.0002501895
-0.0009469075
0.0009580576
0.0002679601
-0.002301383
0.00188936
0.0003330327
-0.00388898
0.0025961
0.0004729703
-0.005463858
0.003213435
0.0005763906
-0.006657059
0.003941628
0.0006900914
-0.007906386
0.004779184
0.03685789
0.002640523
0.01012586
0.002456488
0.04318918
-0.01050246
0.02515777
0.07103907
0.003552245
-0.02188084
-0.03163988
0.04190222
0.01234153
0.02252295
-0.0002719596
-0.008805794
-0.036181
-0.05484264
0.01488671
0.0240976
0.02480936
-0.00380525
-0.01837272
-0.05414954
-0.08764864
0.006491282
0.02203719
0.02550247
-0.002548326
-0.01453697
-0.06035976
-0.08231922
0.002208411
0.0228347
0.02526186
-0.006996277
-0.02210262
-0.06130877
-0.08032621
0.02386702
-0.007772356
-0.05868749
0.007836925
0.006254844
0.003253761
0.01430009
0.012093
-0.0003633936
0.01512032
0.002076772
0.004613568
0.006927399
-0.01227065
0.008765431
0.008998221
0.003550308
0.00959532
0.005194899
0.003201049
0.005241712
-0.004540193
0.006239929
0.005050788
0.005193518
0.001201499
0.006644055
0.004148935
0.006365134
-9.731789e-05
0.007331302
0.004038656
0.007105879
0.001718134
0.007443589
0.003042756
0.007759499
0.001001622
0.007186205
0.0006465799
-0.001184781
-6.970659e-05
-0.000284657
-0.0002386944
3.975223e-05
-8.76617e-05
3.030023e-05
-0.0001170586
7.404442e-05
4.44983e-06
-0.01266141
-0.02880963
-0.0186566
-0.03895376
-0.02123888
-0.04026456
-0.03898824
1.502251e-05
0.0005009261
0.0001499526
5.835395e-05
0.0002057398
-0.0001315158
6.128878e-05
-1.970424e-07
-3.514948e-06
0.0001128779
0.0001221088
0.01871128
0.004389572
-0.03012631
0.0005696435
-0.001389914
-0.03314461
-0.01804748
-0.0006846204
0.0001007016
5.438892e-05
2.225624e-05
5.801065e-05
-0.0002937171
1.537719e-05
-3.961036e-05
-1.141305e-05
5.377356e-05
3.524473e-05
-0.002165421
0.03373342
-0.008237435
-1.210664e-05
0.00381924
-0.04011028
-0.003707795
8.108197e-05
-7.365932e-05
2.237829e-06
-3.705474e-05
-3.747889e-05
-0.0003337526
-1.874051e-05
-2.550216e-05
-1.233621e-05
-1.825088e-05
-1.830325e-05
-0.02472593
0.03163141
-0.005625822
0.005002401
0.03637871
-0.03435547
-0.0014323
0.0008370524
-0.000772669
-2.302511e-05
-1.073514e-05
-2.491879e-05
-0.0003493559
-4.144106e-05
4.96914e-06
-6.596211e-06
4.322223e-06
-1.792899e-05
-0.01192581
0.02875887
0.001019094
0.00294499
0.002378348
-0.03099209
0.005002071
-0.0003274002
0.000206155
-5.540782e-05
-2.614365e-07
-2.678909e-05
-0.0004161596
-7.860218e-05
-5.724112e-05
-9.202802e-05
-1.724613e-05
-7.679802e-05
-0.001818139
0.04331125
0.003013797
0.002836116
-0.003410623
-0.02930345
0.005260014