/*--------------------------------*- C++ -*----------------------------------*\
  =========                 |
  \\      /  F ield         | OpenFOAM: The Open Source CFD Toolbox
   \\    /   O peration     | Website:  https://openfoam.org
    \\  /    A nd           | Version:  7
     \\/     M anipulation  |
\*---------------------------------------------------------------------------*/
FoamFile
{
    version     2.0;
    format      ascii;
    class       surfaceScalarField;
    location    "0.04";
    object      phi;
}
// * * * * * * * * * * * * * * * * * * * * * * * * * * * * * * * * * * * * * //

dimensions      [0 3 -1 0 0 0 0];

internalField   nonuniform List<scalar> 
266918
(
0.0004063029
-0.0001633739
-0.008401272
-0.001703394
-0.0001838771
0.0003949343
8.884972e-06
1.956703e-05
1.714608e-05
-0.007925704
-0.001606408
-1.203416e-06
1.147307e-05
-0.00786383
-0.001592458
2.072691e-06
2.632441e-07
-0.007854262
-0.001588107
-1.136234e-07
1.334604e-07
-0.007839028
-0.001584153
6.288252e-07
-7.233635e-07
-0.007866942
-0.001583946
-2.105914e-06
2.383836e-06
-0.00784662
-0.00157851
-1.051781e-06
2.191717e-06
-0.007846434
-0.001576244
-0.0002463491
-0.03593233
-0.001603146
0.008832635
0.008999758
0.01067253
0.01028674
0.0007853235
-0.001654168
0.0005322432
-0.0006732413
-0.0003853068
-0.03648813
-0.00103557
0.008519001
0.008340938
0.01044177
0.01036094
-0.0001806521
-0.03632669
-0.000978261
0.008276755
0.008263521
0.01029918
0.01026083
-6.993211e-05
-0.0361648
-0.0009615599
0.008251583
0.008254613
0.01025379
0.01025565
-3.877071e-05
-0.03602173
-0.0009935189
0.008248948
0.008247148
0.01024604
0.01024195
-4.849405e-05
-0.03595465
-0.0009580054
0.00823214
0.008227963
0.01023102
0.01023125
4.504672e-05
-0.03593695
-0.001120183
0.008255745
0.008252729
0.01023021
0.01022491
2.883725e-05
-0.03587756
-0.001015361
0.008239232
0.008240872
0.01021664
0.01021238
-0.03584966
-0.0010775
0.008241936
0.00824351
0.01021692
0.01020798
4.564262e-05
0.00184531
-4.680359e-05
-0.001733508
-6.499865e-05
0.0004464493
-0.03560583
1.491369e-05
0.001315217
-0.001625583
1.103445e-05
-0.0004885277
0.0002781348
-0.03533152
-0.0009882982
0.0001661192
-0.03526223
-0.0009524508
1.456839e-05
-0.03516503
-0.0008482145
3.083663e-05
-0.03505445
-0.0009835522
4.433041e-05
-0.03496145
-0.001006693
6.019759e-05
-0.03510839
-0.000844432
7.354815e-05
-0.03495215
-0.0009387633
-0.03499096
-0.0008863878
0.0001012394
0.001890077
-6.649601e-05
-0.001758126
-6.545447e-05
-0.0001032861
-0.03560125
3.651912e-05
0.001538369
-0.001504654
0.0001913332
-0.0001628585
9.899275e-06
-0.03544399
-7.142199e-07
3.157238e-05
-0.03527276
-1.114036e-05
8.162572e-06
-0.0350927
-4.892567e-05
2.850738e-05
-0.03507551
7.223189e-07
8.579162e-05
-0.03494823
-7.050282e-05
5.923528e-05
-0.03503322
-4.86101e-05
0.0001102742
-0.03493185
-7.133986e-05
-0.03494697
-4.764035e-05
0.0001139178
0.001907719
-6.968875e-05
-0.001771881
-6.614884e-05
4.180583e-05
-0.03556131
-3.150418e-06
0.001525443
-0.001531134
0.0001041065
-0.0001770067
1.350037e-05
-0.03531362
-0.000102064
4.276099e-05
-0.03523751
-6.45066e-05
3.883717e-05
-0.03502144
-6.734026e-05
2.273003e-05
-0.03497111
-8.829787e-05
7.226108e-05
-0.03496555
-3.221327e-05
4.244385e-05
-0.03489345
-0.0001099531
0.0001030747
-0.03495229
-4.019141e-05
-0.03490204
-6.516151e-05
0.0001233155
0.001912066
-6.832723e-05
-0.001777041
-6.669766e-05
6.403656e-05
-0.03569126
6.733284e-05
0.001538467
-0.001526276
0.0001402675
-0.0001538802
5.009683e-05
-0.03540952
0.00010984
7.546214e-05
-0.03540679
0.0001439079
6.328606e-05
-0.03518748
0.0001782165
6.388919e-05
-0.03513536
0.0001636504
0.0001080693
-0.03522486
0.0002151326
6.535305e-05
-0.0349938
0.0001430613
0.0001239736
-0.03523098
0.0002200759
-0.03512756
0.0001906827
0.0001588093
0.001917072
-6.982336e-05
-0.001780384
-6.686533e-05
-6.009574e-05
-0.03563915
4.822177e-06
0.001546176
-0.001522947
0.0001341359
-0.0001542025
-7.126942e-05
-0.03539048
-7.863174e-06
-1.565695e-05
-0.03547555
1.315066e-05
-6.944177e-06
-0.03521948
2.329341e-05
2.88594e-05
-0.03518999
1.882059e-05
9.766085e-05
-0.03534417
5.051158e-05
5.511589e-05
-0.03494728
-3.966317e-06
0.0001296949
-0.03534479
3.922902e-05
-0.03521899
4.722589e-05
0.0001739092
0.001917623
-7.369749e-05
-0.001777676
-6.624898e-05
0.0001983047
-0.03617941
0.0002252559
0.00155118
-0.001516743
0.0001898222
-0.0001075547
0.0001786184
-0.03611389
0.0007431016
0.0002073821
-0.03644361
0.0009393009
0.0001731799
-0.0363564
0.001171116
0.0002055509
-0.03642983
0.001207474
0.0002358264
-0.03670351
0.001329059
5.771627e-05
-0.03587125
0.001102079
4.615997e-05
-0.03655349
0.001220266
-0.03662006
0.00122919
0.0002180407
0.001907481
-6.97331e-05
-0.001768042
-6.970577e-05
-0.0001904433
-0.03676203
0.0005717246
0.001527666
-0.001386734
0.0001226415
-6.223203e-05
-0.0002748538
-0.03711829
0.001088808
-0.000170283
-0.03753842
0.0009902385
-0.0003097702
-0.03760762
0.001390715
-0.00017337
-0.03745123
0.0008849977
-4.293468e-05
-0.03810889
0.001274947
-0.0001953957
-0.03592124
0.0002024561
-6.116011e-05
-0.03764298
0.0009552455
-0.03770708
0.000899319
0.0001265417
0.00188544
-9.012292e-05
-0.001709779
-8.553843e-05
-5.617181e-05
-0.009189955
0.00144695
0.002198299
-0.0006847481
0.001021757
2.204761e-05
-0.009669698
-0.01078193
-0.01106859
0.0003065069
-0.00961224
0.004432588
-0.009745928
-0.01116822
-0.01138716
0.0001457411
-0.009802851
0.005481779
-0.0100755
-0.01152656
-0.01145452
8.427985e-05
-0.01013639
0.005819785
-0.0102436
-0.01137826
-0.01160768
5.145104e-05
-0.01020383
0.005883323
-0.01025797
-0.01138765
-0.01145226
9.369312e-07
-0.01032259
0.006240618
-0.01044172
-0.01162554
-0.01190914
7.446809e-05
-0.01003265
0.0052391
-0.008162347
-0.01161739
-0.01142149
0.0002158959
-0.01020096
0.006362022
-0.01035009
-0.0117954
-0.01179998
-0.01038816
0.006178338
-0.01002912
-0.0115417
-0.0119221
0.0002115575
0.001702202
-5.782467e-05
-0.001620029
-2.434946e-05
9.224608e-05
0.0001976578
0.001107722
-0.002933071
-0.002385014
-0.002941666
-0.002327825
-0.0001093574
2.035514e-05
0.0009409043
-0.002901088
-0.00233052
-0.00287541
-0.002357121
2.298326e-05
-2.089618e-05
0.0007175692
-0.002980451
-0.002299175
-0.002829768
-0.002413112
-1.829339e-05
4.554929e-06
0.0008607768
-0.002980647
-0.002402339
-0.003080118
-0.002520316
-1.343223e-05
-2.752432e-05
0.0008178138
-0.003002363
-0.00246827
-0.002993525
-0.002516511
4.313243e-05
-0.0001191673
0.0008259506
-0.003109453
-0.002553805
-0.002990267
-0.002418961
0.0004659951
-0.0002289027
0.0007279912
-0.002380911
-0.002935159
-0.002898118
-0.002783538
0.0004489036
0.0006511353
-0.0003441108
-0.002927836
-0.002723771
-0.002895507
-0.00240977
-0.0001368667
0.000122994
0.0008262843
-0.002955948
-0.0024454
-0.003197187
-0.002602033
2.270336e-05
0.0004834667
-1.37066e-05
8.968399e-05
1.266046e-05
0.0004668486
1.07593e-05
9.051733e-05
0.0001192079
0.001824588
0.000291435
0.0001292325
0.0002467558
-2.176267e-05
0.0005116221
-1.158278e-05
0.0001033559
2.585978e-05
0.0004646982
2.611562e-07
9.108048e-05
-2.061731e-07
0.0005087058
-2.542722e-05
9.885205e-05
-1.031414e-05
0.0004662841
3.889391e-05
-7.071482e-06
-0.0003058434
0.002408876
0.000180001
0.0001256203
0.0002806953
-3.263939e-05
0.0005083369
5.377797e-06
9.942589e-05
-5.576872e-11
4.881701e-10
-6.657803e-10
4.413235e-10
-5.678621e-11
-8.129848e-11
-3.412318e-11
-3.595823e-11
3.038797e-11
9.052346e-10
-1.152644e-09
3.867838e-10
-3.105323e-11
-8.162662e-11
-2.203705e-11
-3.555347e-11
3.798749e-11
1.447672e-09
-1.662088e-09
3.387683e-10
2.121854e-12
-1.139461e-10
-4.547522e-11
-5.724173e-12
1.071275e-10
1.902322e-09
-2.183817e-09
3.382071e-10
-4.97755e-11
-1.289871e-10
7.56714e-12
6.507583e-12
1.503007e-10
2.479195e-09
-2.767994e-09
3.052627e-10
-5.127987e-11
-1.507942e-10
2.705718e-11
7.570512e-12
2.078446e-10
3.083662e-09
-3.38424e-09
2.901609e-10
-9.330148e-11
-1.643193e-10
4.693137e-11
1.283183e-11
2.474742e-10
3.73739e-09
-4.072904e-09
3.056476e-10
-1.097148e-10
-1.928972e-10
6.310956e-11
2.128832e-11
3.073825e-10
4.469564e-09
-4.808398e-09
3.01616e-10
-1.735768e-10
-2.204234e-10
8.510134e-11
3.756199e-11
4.060028e-10
5.272589e-09
-5.694445e-09
3.080999e-10
-2.226045e-10
-2.1568e-10
1.294634e-10
1.516181e-11
-3.662553e-09
4.670083e-09
1.586447e-10
3.072064e-10
7.686652e-10
3.568517e-10
5.625696e-10
-6.352451e-10
-8.600697e-10
-8.083995e-10
-8.587896e-10
-5.491691e-09
4.98699e-09
1.592585e-10
-6.006968e-10
-9.67531e-10
-8.454029e-10
-9.042189e-10
-7.425612e-09
5.057121e-09
1.371703e-10
-5.213639e-10
-1.005728e-09
-8.397876e-10
-8.940274e-10
-9.475049e-09
5.365477e-09
1.223497e-10
-4.629117e-10
-1.134093e-09
-8.900651e-10
-9.520727e-10
-1.168418e-08
5.725164e-09
1.747907e-10
-4.040774e-10
-1.27051e-09
-9.959346e-10
-1.02072e-09
-1.4097e-08
6.21524e-09
1.72501e-10
-3.826209e-10
-1.45226e-09
-9.951245e-10
-1.145445e-09
-1.674152e-08
6.843778e-09
1.492171e-10
-3.736528e-10
-1.650374e-09
-1.05473e-09
-1.270708e-09
-1.965574e-08
7.614791e-09
1.11968e-10
-4.00474e-10
-1.905568e-09
-1.100451e-09
-1.408098e-09
8.516873e-09
1.67471e-10
-4.334516e-10
-2.268782e-09
-1.167495e-09
-1.609653e-09
-2.286308e-08
-3.640863e-09
6.427577e-09
-2.948075e-11
7.588205e-11
7.70849e-10
3.900282e-10
6.75287e-10
-5.257498e-09
6.652727e-09
-4.933556e-11
-7.163631e-09
6.847103e-09
1.156085e-10
-9.164483e-09
7.213414e-09
1.526005e-10
-1.132138e-08
7.704306e-09
1.773459e-10
-1.361431e-08
8.311496e-09
1.96157e-10
-1.613758e-08
9.086457e-09
2.795337e-10
-1.888744e-08
1.00196e-08
3.433686e-10
1.114096e-08
3.982649e-10
-2.191164e-08
-3.459335e-09
8.235398e-09
-3.156355e-11
-2.84862e-10
9.584933e-10
2.995843e-10
7.090992e-10
-4.935574e-09
8.27634e-09
-1.481591e-10
-6.690992e-09
8.593114e-09
8.939538e-12
-8.503688e-09
9.019875e-09
5.557155e-12
-1.048758e-08
9.65929e-09
2.828654e-11
-1.263971e-08
1.043139e-08
3.152829e-11
-1.496506e-08
1.138472e-08
2.607146e-11
-1.751799e-08
1.253152e-08
3.956786e-11
1.390035e-08
4.584666e-11
-2.032501e-08
-3.133881e-09
9.96833e-09
-7.479506e-11
-3.776196e-10
9.244017e-10
2.230885e-10
7.047969e-10
-4.525024e-09
9.808021e-09
-1.410173e-10
-6.164564e-09
1.024469e-08
-1.300189e-11
-7.864984e-09
1.072049e-08
-9.069906e-13
-9.689057e-09
1.145486e-08
2.774782e-11
-1.163633e-08
1.234512e-08
3.280416e-11
-1.374512e-08
1.344163e-08
5.085975e-11
-1.60428e-08
1.476615e-08
6.178493e-11
1.634073e-08
7.567875e-11
-1.856026e-08
-2.689487e-09
1.145026e-08
-1.30679e-10
-4.489798e-10
1.01699e-09
7.62711e-11
6.93116e-10
-4.036791e-09
1.125626e-08
-1.019632e-10
-5.538124e-09
1.174695e-08
-1.388278e-12
-7.062895e-09
1.226187e-08
-1.757834e-11
-8.702785e-09
1.309253e-08
1.329196e-12
-1.044722e-08
1.408925e-08
-7.265645e-13
-1.233272e-08
1.53246e-08
1.471278e-12
-1.43733e-08
1.680142e-08
3.976584e-12
1.85557e-08
5.45114e-12
-1.659508e-08
-2.395372e-09
1.262499e-08
-2.040386e-10
-3.054673e-10
1.072381e-09
-3.923246e-11
6.959701e-10
-3.622964e-09
1.255125e-08
-6.783615e-11
-4.893558e-09
1.305339e-08
-3.719669e-11
-6.250481e-09
1.363478e-08
-1.679222e-11
-7.677903e-09
1.452346e-08
-4.441673e-12
-9.199158e-09
1.560962e-08
1.09429e-16
-1.0829e-08
1.694808e-08
5.271422e-12
-1.258145e-08
1.854396e-08
8.864093e-12
2.043031e-08
1.226602e-11
-1.446942e-08
-2.051766e-09
-2.163151e-10
-3.448776e-10
1.106569e-09
-1.391093e-10
6.723221e-10
1.359756e-08
-3.116396e-09
-3.993404e-11
1.365481e-08
-4.170577e-09
-3.928851e-11
1.414681e-08
-5.326146e-09
-9.683678e-12
1.479935e-08
-6.536848e-09
-7.226508e-12
1.574087e-08
-7.826979e-09
-3.081151e-12
1.690224e-08
-9.198298e-09
-1.803644e-12
1.832077e-08
-1.065972e-08
-8.41769e-13
2.000563e-08
-1.488051e-13
-1.221645e-08
2.198665e-08
0.0004038312
0.0003003941
-0.001250938
-0.01011911
-0.0002616003
2.350989e-06
0.0006212933
6.837415e-06
-2.394308e-05
0.0003703228
-1.62577e-05
-0.0006360972
-0.04105296
-0.001039866
0.001500145
0.002167753
-0.0003684085
-0.0005584551
0.001565928
-0.0003040218
0.002246213
-0.0002020258
-4.069148e-05
-0.04123783
-0.00140798
0.002304567
0.002357991
-0.0005546497
-0.0005478696
-1.046803e-05
-0.0412238
-0.001595413
0.002369879
0.002398746
-0.000543205
-0.0005302673
1.978978e-05
-0.04106729
-0.001607165
0.002372846
0.002369948
-0.0005300242
-0.0005364427
1.925726e-05
-0.04096518
-0.001613858
0.002367571
0.002371779
-0.0005387909
-0.0005309934
1.409412e-05
-0.04098083
-0.00163245
0.002370798
0.002364388
-0.0005154521
-0.0005206177
1.877592e-05
-0.04091311
-0.001619327
0.002364012
0.002361962
-0.0005235737
-0.0005301024
-0.04089802
-0.001622196
0.00236153
0.002359157
-0.0005204
-0.0005261174
1.930363e-05
0.001925335
0.0002193627
-0.0004436232
-0.008531156
6.983312e-06
0.002452926
0.002014619
0.002433364
0.0001604518
-0.0002217838
-1.647878e-05
0.0001936042
-0.04097141
-0.00080859
0.01013633
0.01044348
0.009958112
0.01011378
0.0001904523
-0.0005211181
0.0001671775
-0.0005049716
0.0002453639
-0.04137034
-0.0007699456
0.000145398
-0.04128818
-0.0008279408
8.132133e-05
-0.04114017
-0.0009811197
6.399772e-05
-0.04110832
-0.0009351639
9.018661e-05
-0.04100684
-0.0009425281
4.478752e-05
-0.04101017
-0.001045441
7.074913e-05
-0.04098533
-0.0009691036
-0.04096939
-0.001001068
6.569031e-05
-0.0005445277
-0.03604295
-0.0001629543
0.001016987
0.0004179922
-0.001586585
-0.0002955748
0.008135793
0.01048214
0.008304764
0.01027492
9.327991e-05
-0.04161714
2.283442e-05
-8.290505e-05
-0.04151286
-0.0006695904
3.825387e-05
-0.04150905
-0.0008527449
4.215045e-05
-0.04117951
-0.0008127651
3.158975e-05
-0.04115424
-0.0009270676
4.40027e-05
-0.04108275
-0.0009431976
6.686051e-05
-0.04097082
-0.0009066425
7.855186e-05
-0.04099565
-0.0009401376
-0.04094141
-0.0009284519
9.263405e-05
-0.0005110487
-0.03542157
0.0003367977
0.001409176
3.341085e-05
-0.001576469
-0.0003132495
-0.0001755517
-0.04182473
-9.138596e-05
-4.046725e-05
-0.04147576
-0.0001729011
-6.21751e-06
-0.04130235
-0.000252089
4.131255e-05
-0.04098929
-0.0002866772
6.523529e-05
-0.04086735
-0.000310091
6.674574e-05
-0.04079921
-0.0003555491
8.582565e-05
-0.04070571
-0.0003327999
0.0001019321
-0.04072364
-0.0003594503
-0.04067995
-0.0003357428
0.0001285835
0.0001233093
-0.03556123
-7.723496e-05
0.001551869
0.0002190121
-0.001521708
-0.000155588
3.72067e-05
-0.04170287
-3.890324e-05
3.425569e-05
-0.04150988
-6.499836e-05
5.715981e-05
-0.04130221
-8.755006e-05
5.685801e-05
-0.04098334
-7.299567e-05
6.839721e-05
-0.04087268
-9.451233e-05
9.114063e-05
-0.04076316
-9.10071e-05
9.543144e-05
-0.0407189
-0.0001010588
0.0001246591
-0.04068959
-0.0001034693
-0.04066423
-0.0001086893
0.0001524665
-6.350644e-05
-0.03552613
0.0001387677
0.001521264
0.000135864
-0.001548889
-0.0002186038
8.091723e-05
-0.04187874
9.877571e-05
0.0001063532
-0.0416231
0.0001976266
0.0001274752
-0.04140673
0.0002273091
0.0001157981
-0.04102715
0.0002337065
0.000113281
-0.04095818
0.0002516725
0.0001133822
-0.04081099
0.0002628572
0.0001273175
-0.04087159
0.0002818218
0.0001494403
-0.04077035
0.0002787176
-0.04080328
0.0002954971
0.0001836797
-6.453938e-05
-0.03540487
-5.017601e-05
0.001543161
0.0001739288
-0.001535569
-0.0001880622
-4.489699e-05
-0.04187875
-1.480361e-05
-7.700364e-05
-0.04158402
-1.482758e-05
1.122303e-05
-0.04144643
-3.537465e-05
5.162651e-05
-0.04104539
1.134755e-06
8.648273e-05
-0.04103059
5.637092e-05
6.300383e-05
-0.04088096
0.0001439602
0.0001539446
-0.04106065
9.415249e-05
0.0001297342
-0.04090003
0.0001931217
-0.04100779
0.0001683434
0.0002131283
3.060087e-05
-0.03569789
0.0002852935
0.00152363
0.0001851014
-0.001534971
-0.0001966316
0.0003956193
-0.04250428
0.0004857705
0.0004355384
-0.04235582
0.001474976
0.0004241414
-0.04242245
0.001926712
0.0003413787
-0.04203026
0.002238743
0.0002250981
-0.04215493
0.002448096
0.0001174742
-0.0419801
0.002535822
0.0001525102
-0.0424019
0.002408297
0.0001301464
-0.04212047
0.002463069
-0.04238319
0.00249731
0.0002374272
0.0002122624
-0.03584665
4.465743e-06
0.001546466
0.0001368013
-0.001521972
-0.0002292629
-9.481674e-05
-0.04189089
0.0002654107
-0.0002849537
-0.04173762
0.0006607516
-0.0001639917
-0.04157112
1.794907e-05
-0.0001355598
-0.04135732
0.0006893425
-0.0001003071
-0.04113004
-0.0001751473
-0.0001589352
-0.04107672
0.0004301977
0.0001529514
-0.04194682
-0.0005645093
8.378685e-05
-0.04162587
0.0005298051
-0.04175625
3.754055e-05
0.0003186323
0.0005148887
-0.008462801
6.924361e-05
0.002088349
0.0008542148
-0.0007680728
-0.0001959294
-0.01045713
-0.008895159
-0.01059425
0.0007873217
-0.01051288
0.001216022
-0.0104719
-0.01018238
-0.01076523
0.001268282
-0.01070571
0.005608633
-0.01089058
-0.01062278
-0.01117554
0.0007192612
-0.01125407
0.009326817
-0.01110736
-0.01088922
-0.01161648
0.0003789852
-0.01133191
0.01011363
-0.011283
-0.01090915
-0.01178683
0.000224606
-0.01140629
0.01022103
-0.0113879
-0.01083731
-0.01168186
2.148061e-05
-0.01150767
0.01089048
-0.01146893
-0.01086342
-0.01168344
0.0001050379
-0.01172931
0.009675132
-0.01152387
-0.01143509
-0.01177815
9.80185e-05
-0.01171411
0.01103226
-0.01161331
-0.01194931
-0.01101235
-0.01161983
0.01048933
-0.01168378
-0.01146616
-0.01161208
0.000412631
-2.101008e-05
0.0004108843
0.000233568
-0.002636257
-0.001882262
-0.002644173
-0.001923551
-0.0009836423
-0.0006429571
8.929002e-05
-0.009153148
0.0001775807
-0.0009780203
0.0004809743
-0.0002882669
-0.00965112
-0.000269279
-0.0007105535
9.807766e-05
-9.57782e-05
-0.01003954
-0.0005062699
-0.0008146736
-7.705661e-05
1.796801e-05
-0.01008356
-0.0003745785
-0.0007904804
-0.0001414886
-4.962198e-06
-0.01012833
-0.0003410176
-0.0008334407
2.223999e-05
-0.0002116138
-0.01016864
-0.0003162032
-0.0007401073
0.0001286748
-0.0001676598
-0.0102902
-0.0006600144
-0.0005468042
-1.871277e-05
0.0002659679
-0.01025248
-0.001162077
-0.0006349243
-3.16407e-05
-5.880826e-05
-0.01012962
-0.0007648335
1.099457e-11
-3.931625e-11
7.158996e-11
-7.266109e-12
-1.537127e-11
-2.078247e-11
-5.114051e-09
2.67344e-09
3.508245e-10
9.774789e-11
-1.037793e-11
1.734193e-10
7.830401e-11
5.482519e-10
6.134479e-10
5.458316e-10
6.781097e-10
-1.1964e-10
-1.217326e-10
-4.590399e-11
-3.49347e-10
-7.424866e-09
2.556647e-09
3.294503e-10
3.894275e-11
-1.046784e-10
1.419201e-10
-2.517667e-11
1.929015e-11
-1.824985e-10
-3.0168e-10
-1.627584e-10
-9.890873e-09
3.028663e-09
2.642614e-10
-1.06048e-11
-1.644186e-10
1.374275e-10
-8.942546e-11
-4.090192e-11
-3.27266e-10
-1.423002e-10
-1.907386e-10
-1.268499e-08
3.339223e-09
3.860927e-10
4.489013e-11
-2.131142e-10
1.612782e-10
-1.21447e-10
1.599805e-11
-3.655727e-10
-2.119283e-10
-2.423078e-10
-1.570112e-08
3.727147e-09
5.261488e-10
6.195804e-11
-2.600176e-10
1.529225e-10
-1.488929e-10
-1.285964e-11
-4.587695e-10
-3.040841e-10
-2.684646e-10
-1.905225e-08
4.083427e-09
5.923194e-10
9.260968e-11
-3.151534e-10
2.574108e-10
-1.800707e-10
-2.545035e-12
-5.401276e-10
-3.272935e-10
-3.102952e-10
-2.274208e-08
4.510002e-09
8.132492e-10
1.118313e-10
-3.819326e-10
3.133345e-10
-2.265688e-10
2.359891e-12
-6.622977e-10
-3.506107e-10
-4.414818e-10
-2.675972e-08
4.871834e-09
7.331509e-10
1.398177e-10
-4.474168e-10
4.43441e-10
-2.479942e-10
9.361405e-11
-7.298611e-10
-3.678149e-10
-4.741613e-10
5.250309e-09
8.164469e-10
1.755316e-10
-5.625291e-10
5.841937e-10
-2.688866e-10
1.146251e-10
-7.81731e-10
-3.720784e-10
-5.76855e-10
-3.114247e-08
-4.914225e-11
-6.922753e-10
-1.186695e-10
8.735972e-10
6.103848e-11
-5.155539e-11
6.774736e-12
-3.050778e-11
-4.556166e-09
5.136039e-09
2.425267e-10
4.04472e-10
5.077414e-10
4.314203e-10
6.648639e-10
-7.194401e-09
5.260991e-09
9.278948e-11
-9.624597e-09
5.39844e-09
1.97146e-10
-1.214767e-08
5.783635e-09
2.005316e-10
-1.499323e-08
6.394937e-09
3.522431e-10
-1.811296e-08
6.954787e-09
4.20281e-10
-2.146011e-08
7.585543e-09
4.197989e-10
-2.503301e-08
8.217765e-09
3.37221e-10
9.102424e-09
3.449965e-10
-2.906423e-08
-7.465905e-11
-1.083595e-09
-1.117367e-10
1.295103e-09
8.644267e-11
-7.157956e-11
9.676299e-12
-5.039798e-11
-4.138193e-09
7.268481e-09
-5.721702e-12
4.050636e-10
5.39202e-10
4.429814e-10
5.938087e-10
-6.384227e-09
7.540516e-09
-8.349467e-11
-8.788167e-09
7.834482e-09
8.306532e-11
-1.128814e-08
8.251448e-09
1.842272e-10
-1.386585e-08
8.885021e-09
2.643435e-10
-1.664222e-08
9.59896e-09
3.276087e-10
-1.966971e-08
1.050624e-08
3.850607e-10
-2.304088e-08
1.152367e-08
4.069418e-10
1.28122e-08
4.563563e-10
-2.681078e-08
-1.199851e-10
-1.577556e-09
5.821476e-12
1.726276e-09
1.555834e-10
-1.239424e-10
1.501785e-11
-8.195147e-11
-3.82244e-09
9.261989e-09
3.286581e-11
3.11425e-10
5.414774e-10
3.137852e-10
5.963772e-10
-5.881441e-09
9.584612e-09
-1.337991e-10
-7.99531e-09
9.92899e-09
2.734009e-11
-1.02241e-08
1.04426e-08
4.234397e-11
-1.259602e-08
1.117522e-08
1.091167e-10
-1.51557e-08
1.207355e-08
1.156691e-10
-1.793056e-08
1.316119e-08
1.446878e-10
-2.098551e-08
1.445867e-08
1.578142e-10
1.603727e-08
1.873034e-10
-2.435382e-08
-1.433878e-10
-1.956758e-09
3.72004e-11
2.097542e-09
1.704129e-10
-1.260813e-10
2.249446e-11
-1.02246e-10
-3.500613e-09
1.106221e-08
-1.93902e-12
2.354978e-10
5.141673e-10
2.789265e-10
5.976454e-10
-5.35056e-09
1.144025e-08
-1.477766e-10
-7.284788e-09
1.18821e-08
-3.251843e-11
-9.308647e-09
1.245493e-08
9.526429e-12
-1.145573e-08
1.32887e-08
6.036659e-11
-1.375314e-08
1.431687e-08
8.565348e-11
-1.624429e-08
1.559341e-08
1.085594e-10
-1.897175e-08
1.712183e-08
1.244531e-10
1.895244e-08
1.434328e-10
-2.195638e-08
-1.686396e-10
-2.332922e-09
5.978725e-11
2.486025e-09
1.804061e-10
-1.271005e-10
3.655424e-12
-1.019958e-10
-3.160864e-09
1.269859e-08
-4.40922e-11
1.472639e-10
5.027744e-10
2.284938e-10
5.581727e-10
-4.807054e-09
1.312409e-08
-1.40076e-10
-6.515241e-09
1.363159e-08
-4.400786e-11
-8.312858e-09
1.426816e-08
-3.416684e-11
-1.0228e-08
1.520077e-08
3.106818e-12
-1.227952e-08
1.635469e-08
1.179914e-11
-1.449061e-08
1.778066e-08
2.375464e-11
-1.688951e-08
1.949149e-08
3.170768e-11
2.152644e-08
4.012531e-11
-1.949979e-08
-1.877593e-10
-2.714319e-09
5.653099e-11
2.789205e-09
2.07194e-10
-9.78298e-11
6.054113e-12
-5.971822e-11
-2.771296e-09
1.411731e-08
-1.230538e-10
8.408162e-11
4.964713e-10
1.471918e-10
5.429533e-10
-4.233921e-09
1.46174e-08
-9.965074e-11
-5.732738e-09
1.516056e-08
-6.783401e-11
-7.310936e-09
1.586485e-08
-3.644956e-11
-8.977787e-09
1.687443e-08
-1.213948e-11
-1.075658e-08
1.813023e-08
2.157664e-12
-1.266271e-08
1.967912e-08
1.211814e-11
-1.471269e-08
2.153031e-08
1.8922e-11
2.372356e-08
2.507655e-11
-1.692366e-08
-2.004853e-10
-2.986721e-09
4.688545e-11
3.051815e-09
2.085212e-10
-8.843328e-11
1.862118e-11
-5.073631e-11
-2.375303e-09
-1.46383e-10
3.547746e-11
4.726387e-10
8.610699e-11
5.089283e-10
1.531886e-08
-3.609819e-09
-7.731965e-11
1.588917e-08
-4.879465e-09
-6.526997e-11
1.645481e-08
-6.215165e-09
-3.31565e-11
1.72236e-08
-7.627487e-09
-1.811449e-11
1.829702e-08
-9.130806e-09
-6.426946e-12
1.963672e-08
-1.072893e-08
-2.408099e-12
2.127735e-08
-1.24349e-08
4.948981e-12
2.323039e-08
6.089838e-12
-1.425068e-08
2.553286e-08
0.0006390929
3.781917e-05
-0.0009820914
-0.01004255
-2.710655e-05
-2.578714e-06
0.0006394762
-8.230723e-07
-0.0007005721
-0.04039896
-0.0002080162
0.002257068
-0.0002702267
0.002256606
-0.0002490086
2.309496e-05
-0.04040628
-0.0003139916
3.767985e-05
-0.04079862
-0.0003484636
2.394179e-05
-0.04057389
-0.0004197023
1.246146e-05
-0.04061086
-0.0004264153
1.86819e-05
-0.04059803
-0.0004337047
1.648195e-05
-0.04052544
-0.0004322919
-0.04049478
-0.0004389474
1.894647e-05
0.002053228
5.435407e-05
-0.0005460776
-0.008492087
-2.215823e-05
0.00245707
0.002046641
0.00244903
-0.0006238914
-0.04016364
-0.0003962755
0.01000671
0.01025854
0.009991973
0.01011891
0.0003280477
-0.0003321917
0.0003179284
-0.0003147078
-0.0001378158
-0.0410653
-0.0005896818
2.098098e-05
-0.04078034
-0.0006126777
4.251548e-05
-0.04099671
-0.0008045612
1.564994e-05
-0.04076876
-0.0007134244
4.305919e-05
-0.04079559
-0.0007852051
3.786185e-05
-0.04082537
-0.0008129
4.913572e-05
-0.04073716
-0.0007686578
-0.04072775
-0.0007802525
6.129377e-05
-0.001021891
-0.03628955
-0.0002133312
0.008396402
0.01034263
0.008383692
0.01023909
-0.0002271094
-0.04094927
1.36885e-05
-0.0003326659
-0.04118549
-0.0004438443
-8.78705e-05
-0.04122591
-0.0006519673
-8.696523e-05
-0.04111821
-0.0006921715
-3.276995e-06
-0.04101529
-0.0007642238
2.138757e-05
-0.04100484
-0.0007586121
3.42481e-05
-0.04097468
-0.0007701925
6.476959e-05
-0.04095638
-0.0007514385
-0.04092888
-0.0007525662
9.000944e-05
-0.0008236702
-0.03524864
0.0001195621
-0.0003584631
-0.0414245
-8.136464e-05
-0.0001729455
-0.04136706
-0.0001768473
-4.214196e-05
-0.04128612
-0.000322686
-1.850728e-05
-0.04105446
-0.0003740643
1.884601e-05
-0.0409354
-0.0004273393
5.33049e-05
-0.04095469
-0.0004401554
5.173866e-05
-0.04086871
-0.000437209
0.0001049732
-0.04095465
-0.0004144142
-0.04087783
-0.0004142707
0.0001324614
2.39584e-05
-0.03533317
-1.666634e-05
-3.711304e-05
-0.04132347
-7.885969e-05
-1.728358e-05
-0.04136606
-8.582665e-05
5.565665e-05
-0.0413196
-0.000127005
-1.726353e-05
-0.04089765
-0.0001568798
-7.301366e-06
-0.04089089
-0.0001489834
5.362749e-05
-0.04096035
-0.0001462808
4.841544e-05
-0.0408444
-0.0001201541
0.0001319672
-0.04101736
-0.0001243031
-0.04089651
-0.0001100735
0.0001520297
1.205048e-05
-0.03523974
3.329396e-05
0.0001046608
-0.04135738
4.007046e-05
0.000102778
-0.04131679
0.0001502468
9.940074e-05
-0.04120172
0.0001127998
5.96874e-05
-0.04077984
0.0001556033
5.487664e-05
-0.04081482
0.0001804213
0.0001143316
-0.04098418
0.0002272351
6.929065e-05
-0.04073732
0.0002197828
0.0001648609
-0.04108363
0.0002494183
-0.04087116
0.0002407358
0.0001942805
-6.356256e-05
-0.0350808
-0.0001455517
-0.0001611445
-0.0411327
-0.0001418954
-8.991869e-05
-0.04143273
2.989085e-05
-6.129879e-05
-0.04129146
2.574727e-05
1.169372e-05
-0.04098819
0.0001364941
4.508816e-05
-0.04101245
0.0002206043
0.0001155799
-0.04118143
0.0002707218
8.113125e-05
-0.04071116
0.0001024453
0.0001794169
-0.04115843
0.0001696345
-0.04079871
8.602887e-05
0.0001892828
0.0005503711
-0.03543609
9.021821e-05
0.00127565
-0.04168783
0.0003156254
0.001092519
-0.04097955
0.001204925
0.0007211429
-0.04069298
0.001699617
0.0004940198
-0.04052342
0.002001097
0.0003508094
-0.04054858
0.002127435
0.0002779112
-0.04070363
0.00213092
8.845104e-05
-0.03998387
0.001870466
0.0002193664
-0.04076647
0.001940192
-0.04005628
0.001746897
0.0002273466
0.0007939987
-0.03601369
-0.0002119311
0.0002903776
-0.04070848
-0.0002103161
-9.445343e-05
-0.04047297
0.0005390039
-0.000581734
-0.04015611
-3.164714e-05
-0.0005186228
-0.04022438
0.0003271913
-0.0003469186
-0.04062965
-0.0002657749
-2.439142e-05
-0.04083398
0.0002380172
4.969024e-06
-0.04008467
-0.0004930727
0.0002831046
-0.04098201
0.0004672109
-0.03979698
-0.0001716092
0.0002329511
0.00338999
-0.009086043
0.000507067
-0.01082127
-0.009129966
-0.01080422
0.005019513
-0.01037139
0.001383703
-0.01079168
-0.01038509
-0.01095753
0.003479218
-0.03699965
0.003675611
0.001694549
-0.03751864
0.008474021
0.001165841
-0.03962053
0.0100385
0.001190156
-0.04126161
0.01082868
0.001208449
-0.04219775
0.01223596
0.0006296795
-0.04108302
0.01125225
0.0008884729
-0.04288803
0.0126795
-0.04098558
0.01236085
0.0002055536
-0.0001075845
0.0002628147
7.673843e-05
-0.002713246
-0.001942692
-0.002670318
-0.001991755
-0.000509321
0.0004427797
-0.0006174933
-0.009496891
-0.0001904552
-0.003960485
-0.003561813
0.00203592
0.002130177
-0.000410738
-0.001054679
0.002421005
-0.0003611311
0.002074504
-0.0009617478
-0.00248957
-0.006877975
0.002568106
0.002878442
-0.0005866164
-0.0005692097
-0.001727048
-0.008462575
0.002673297
0.003062366
-0.000486189
-0.000388784
-0.001192026
-0.009782315
0.002683623
0.002972102
-0.000514435
-0.0003293246
-0.0007515149
-0.01078356
0.002704087
0.003051074
-0.0005147608
-0.0002616133
-0.0007534752
-0.01046556
0.00290951
0.003780273
-0.000410234
-5.580637e-05
-0.0009327199
-0.01128476
0.003433732
0.002624731
-0.0001128181
-0.0005285654
-0.01129374
0.003069723
0.003275134
-0.0001099298
7.975536e-05
-9.74533e-05
7.301319e-12
-3.015218e-11
-1.379099e-11
6.9465e-11
-1.478064e-11
-1.814173e-11
-4.382669e-09
1.909718e-09
-3.589065e-12
5.486175e-10
6.080852e-10
5.657459e-10
5.797505e-10
1.076336e-10
1.292831e-10
9.46185e-11
1.924519e-10
-6.082253e-09
1.863284e-09
1.65138e-10
-8.047925e-09
2.255792e-09
-2.618862e-11
-1.011487e-08
2.456867e-09
-4.680564e-12
-1.24861e-08
2.774186e-09
1.229421e-10
-1.511487e-08
3.035705e-09
1.846992e-10
-1.789689e-08
3.335254e-09
2.593928e-10
-2.090117e-08
3.644138e-09
9.212275e-11
4.064938e-09
1.432365e-10
-2.429371e-08
-1.680281e-09
4.529273e-09
1.091829e-10
-6.811084e-10
-8.479818e-10
-7.261168e-10
-6.389614e-10
-1.026036e-10
-1.389174e-10
1.504391e-10
2.627228e-11
-4.555965e-09
4.886348e-09
1.411259e-10
-7.28693e-09
4.618351e-09
6.839306e-11
-9.825827e-09
4.901183e-09
9.007582e-11
-1.249373e-08
5.233595e-09
9.137255e-11
-1.527253e-08
5.748098e-09
1.565393e-10
-1.83009e-08
6.301606e-09
1.821628e-10
-2.16482e-08
6.893772e-09
2.0754e-10
-2.542428e-08
7.584738e-09
1.713275e-10
8.43691e-09
1.903458e-10
-2.9643e-08
-1.690358e-09
6.186148e-09
-1.553863e-10
-1.783903e-10
-2.040118e-11
2.693573e-10
1.174029e-10
-3.911314e-09
7.131469e-09
-3.052893e-11
-6.549244e-09
7.254264e-09
-8.21021e-11
-9.122432e-09
7.505816e-09
5.097224e-11
-1.177971e-08
7.944003e-09
1.301651e-10
-1.455756e-08
8.580885e-09
2.085332e-10
-1.752567e-08
9.325658e-09
2.705983e-10
-2.07381e-08
1.01952e-08
2.94658e-10
-2.427505e-08
1.121899e-08
3.079224e-10
1.248224e-08
3.519672e-10
-2.821793e-08
-1.666465e-09
7.825503e-09
-2.499215e-11
-2.929485e-10
-7.037179e-11
3.033035e-10
1.109387e-10
-3.702405e-09
9.182408e-09
1.693031e-11
-5.970034e-09
9.433942e-09
-4.680321e-11
-8.284384e-09
9.812948e-09
3.345031e-11
-1.068628e-08
1.030401e-08
8.29512e-11
-1.319487e-08
1.104759e-08
1.497672e-10
-1.587682e-08
1.194909e-08
1.727242e-10
-1.879098e-08
1.304989e-08
2.026107e-10
-2.199754e-08
1.436352e-08
2.178721e-10
1.595248e-08
2.508065e-10
-2.553323e-08
-1.560166e-09
9.305584e-09
-2.654401e-11
-3.259823e-10
-7.696575e-11
3.703898e-10
1.376885e-10
-3.363257e-09
1.101316e-08
-3.048663e-11
-5.35826e-09
1.13797e-08
-9.947384e-11
-7.421416e-09
1.187544e-08
-3.325636e-11
-9.577721e-09
1.245664e-08
1.190947e-11
-1.183937e-08
1.329821e-08
6.970768e-11