/*--------------------------------*- C++ -*----------------------------------*\
  =========                 |
  \\      /  F ield         | OpenFOAM: The Open Source CFD Toolbox
   \\    /   O peration     | Website:  https://openfoam.org
    \\  /    A nd           | Version:  7
     \\/     M anipulation  |
\*---------------------------------------------------------------------------*/
FoamFile
{
    version     2.0;
    format      ascii;
    class       volVectorField;
    location    "0.04";
    object      U;
}
// * * * * * * * * * * * * * * * * * * * * * * * * * * * * * * * * * * * * * //

dimensions      [0 1 -1 0 0 0 0];

internalField   nonuniform List<vector> 
109978
(
(0.4626031 0.0420499 0.002894731)
(0.4723619 0.03270974 -0.00525486)
(0.4549412 0.02930684 -0.003793368)
(0.4445015 0.02945247 -0.003723064)
(0.4326828 0.02846781 -0.003564263)
(0.4208076 0.02820943 -0.003510837)
(0.4574129 0.02658503 0.007842748)
(0.48188 0.02565275 -0.008252615)
(0.461695 0.02598012 -0.006945293)
(0.4512196 0.02632843 -0.006397078)
(0.4386749 0.0265673 -0.006250353)
(0.4266185 0.02651589 -0.006137876)
(0.4520774 0.0356092 0.006087756)
(0.4837325 0.03868993 -0.007732623)
(0.4626088 0.03852278 -0.006923293)
(0.4519124 0.03868435 -0.00634896)
(0.439175 0.03870665 -0.006254602)
(0.4270862 0.03858476 -0.006140346)
(0.4561018 0.05010204 0.005965476)
(0.483255 0.05160104 -0.007555405)
(0.4626619 0.05107977 -0.007137291)
(0.4518404 0.05101285 -0.006537303)
(0.4390081 0.05091032 -0.006469799)
(0.4268607 0.05073196 -0.00633869)
(0.4590916 0.0628104 0.0054575)
(0.4832682 0.06445142 -0.007519533)
(0.4623605 0.06359696 -0.007222555)
(0.4513449 0.06340894 -0.006748272)
(0.4384772 0.06324082 -0.006743532)
(0.4262971 0.06299955 -0.00656726)
(0.462337 0.0748641 0.005429204)
(0.4831796 0.07701281 -0.007460934)
(0.462144 0.07597686 -0.007376055)
(0.4508952 0.07578792 -0.006909981)
(0.4379565 0.07553983 -0.006936063)
(0.4257411 0.07524803 -0.006781058)
(0.4648598 0.08603876 0.005247455)
(0.4831141 0.08938228 -0.00741454)
(0.4620239 0.08831278 -0.007583773)
(0.4505004 0.088154 -0.007102195)
(0.4375187 0.08787853 -0.007134466)
(0.4252702 0.0875428 -0.00700075)
(0.4688411 0.09762318 0.005078798)
(0.4831254 0.1017768 -0.007436754)
(0.4619325 0.100673 -0.007810949)
(0.4501512 0.1005326 -0.007305267)
(0.4370843 0.1002444 -0.007340572)
(0.4247654 0.09987908 -0.007222106)
(0.4729946 0.1094934 0.005174239)
(0.4834623 0.1143597 -0.007503712)
(0.4619143 0.1131739 -0.008043758)
(0.4498334 0.1129918 -0.007518289)
(0.4366422 0.1126838 -0.007550379)
(0.4242377 0.1122854 -0.007434901)
(0.4761205 0.12208 0.005227299)
(0.4838552 0.1271441 -0.007549134)
(0.461748 0.1258156 -0.008266464)
(0.4494941 0.1256008 -0.007714586)
(0.436217 0.1252592 -0.007743602)
(0.4237192 0.12481 -0.007629678)
(0.4782656 0.1349474 0.005199)
(0.4841837 0.140105 -0.007625361)
(0.4614933 0.1386069 -0.008476369)
(0.4490459 0.1383116 -0.007927962)
(0.4355887 0.137922 -0.007939804)
(0.4229609 0.1374157 -0.007827382)
(0.4799233 0.1479829 0.005240126)
(0.4843217 0.1532356 -0.007785445)
(0.4610881 0.1514985 -0.008682329)
(0.4485649 0.1511676 -0.00814142)
(0.4350031 0.1507259 -0.008161545)
(0.4222688 0.1501447 -0.008041628)
(0.4813633 0.1611365 0.005204402)
(0.4845049 0.1665445 -0.00803416)
(0.460756 0.1645351 -0.008894182)
(0.4481116 0.1641458 -0.00835738)
(0.4343955 0.1636518 -0.00837005)
(0.42152 0.1630046 -0.00824485)
(0.4825151 0.1744361 0.00504031)
(0.4844171 0.1798594 -0.008239501)
(0.4604428 0.1777502 -0.009109765)
(0.4476257 0.177305 -0.008561909)
(0.4337259 0.1767416 -0.008571181)
(0.4206949 0.1760101 -0.008442259)
(0.4834382 0.1879062 0.004843366)
(0.4842337 0.1933899 -0.008440544)
(0.4600735 0.1911614 -0.009321164)
(0.4470761 0.1906434 -0.008760281)
(0.4329751 0.1899975 -0.008767833)
(0.419771 0.1891696 -0.008634922)
(0.4841985 0.201554 0.004604035)
(0.4839738 0.2071173 -0.008632005)
(0.459625 0.2047694 -0.009528326)
(0.4464439 0.2041676 -0.0089534)
(0.4321258 0.2034285 -0.008960429)
(0.4187359 0.2024927 -0.00882413)
(0.4848537 0.2153514 0.004316131)
(0.483679 0.2210577 -0.008819669)
(0.4590937 0.2185797 -0.009731034)
(0.4457201 0.2178865 -0.009142659)
(0.4311695 0.2170443 -0.009149316)
(0.4175781 0.2159903 -0.009009445)
(0.4854722 0.2293819 0.004022408)
(0.4833183 0.2351948 -0.008994107)
(0.4584785 0.2326052 -0.009927315)
(0.4448946 0.2318125 -0.009328384)
(0.4300904 0.2308571 -0.009335001)
(0.4162862 0.2296761 -0.009189453)
(0.4860892 0.243647 0.003712683)
(0.4829353 0.249573 -0.009163576)
(0.4577806 0.2468644 -0.01011996)
(0.4439659 0.2459656 -0.009508582)
(0.4288808 0.2448874 -0.009514882)
(0.4148464 0.243567 -0.009363372)
(0.486497 0.2580961 0.003395763)
(0.482451 0.2641701 -0.009336836)
(0.4569835 0.2613753 -0.01030866)
(0.4429227 0.260366 -0.009682379)
(0.4275345 0.2591558 -0.009689462)
(0.4132482 0.2576795 -0.009533205)
(0.4869161 0.2728707 0.003072464)
(0.4818925 0.2790281 -0.009509698)
(0.456085 0.2761634 -0.01049417)
(0.441758 0.2750368 -0.009850192)
(0.4260331 0.273679 -0.009857457)
(0.4114709 0.2720309 -0.009695206)
(0.4871874 0.2880027 0.002737744)
(0.4812793 0.2942195 -0.009716997)
(0.4550776 0.2912586 -0.01067011)
(0.4404573 0.290003 -0.01001116)
(0.4243656 0.2884829 -0.01002336)
(0.409505 0.2866471 -0.009851575)
(0.4464112 0.3152114 -0.016391)
(0.4807945 0.3099418 -0.01008515)
(0.4539771 0.306695 -0.0108385)
(0.4390112 0.3052944 -0.0101734)
(0.4225184 0.3035981 -0.01019256)
(0.4073246 0.3015509 -0.01000621)
(0.4589927 0.01715424 0.02007831)
(0.4719598 -0.003234534 0.01692538)
(0.4550535 -0.001537338 0.02009808)
(0.4444764 -0.0007550207 0.01828875)
(0.4324675 -0.0007547772 0.01854149)
(0.4206668 -0.0006868396 0.01831349)
(0.4237985 -0.03625522 -0.04045424)
(0.4270596 -0.009718643 -0.03255183)
(0.487747 0.05067929 0.03015997)
(0.4391053 0.01217752 -0.005341475)
(0.4474132 0.02300188 0.004448778)
(0.4295008 0.01829922 -6.822633e-05)
(0.4682641 0.002523107 -0.1111126)
(0.3959956 0.009399687 -0.05766406)
(0.4936709 0.03951841 0.02755814)
(0.4344095 0.02828642 -0.01478091)
(0.4495771 0.03120351 0.00173638)
(0.4289005 0.02984682 -0.001987666)
(0.4818524 0.02159368 -0.1162084)
(0.3916655 0.03769036 -0.06521513)
(0.4859431 0.04582584 0.02113957)
(0.4316956 0.04418962 -0.01012812)
(0.4458938 0.04300429 0.002118957)
(0.4274465 0.04289054 -0.0009249685)
(0.4750325 0.03099706 -0.1020861)
(0.3943445 0.05841983 -0.06144358)
(0.48627 0.05370597 0.0221476)
(0.4320947 0.0550944 -0.01033512)
(0.4441679 0.05414135 0.000130588)
(0.4271851 0.05434703 -0.001901363)
(0.4664883 0.04087218 -0.08826697)
(0.4007606 0.07385857 -0.05613162)
(0.486409 0.06467076 0.02233002)
(0.4328761 0.06761156 -0.009512042)
(0.4436301 0.06648651 0.0002057476)
(0.426946 0.06656919 -0.001491428)
(0.4584767 0.05138386 -0.07758661)
(0.4071579 0.0858733 -0.04854587)
(0.4869574 0.07593352 0.02295495)
(0.4341676 0.07968579 -0.009233377)
(0.4443238 0.07848249 0.0008096312)
(0.4268834 0.07840295 -0.001684367)
(0.4515763 0.06184044 -0.06909023)
(0.4137999 0.09706138 -0.0401939)
(0.4864728 0.08781758 0.02178611)
(0.4353136 0.09204164 -0.009043777)
(0.4454944 0.09065389 0.001888197)
(0.4268494 0.09071083 -0.001460831)
(0.4461177 0.07374035 -0.05862718)
(0.4202506 0.1082984 -0.03444769)
(0.4863504 0.100412 0.02082003)
(0.4369606 0.1041785 -0.008299314)
(0.4470431 0.1028986 0.003191954)
(0.4267901 0.1029776 -0.001290464)
(0.4425329 0.08295814 -0.04826621)
(0.4239015 0.1203095 -0.03306588)
(0.485982 0.1137571 0.0199127)
(0.4382262 0.1162968 -0.007591799)
(0.447554 0.1154703 0.003563696)
(0.4266809 0.115528 -0.001125904)
(0.4404741 0.09124957 -0.04550498)
(0.4260421 0.1327152 -0.03306201)
(0.4861313 0.1272259 0.01979487)
(0.4389223 0.1285276 -0.006966694)
(0.4472596 0.1281852 0.003657076)
(0.4263848 0.1280139 -0.0009719133)
(0.4390395 0.1016557 -0.04227867)
(0.4276576 0.1449238 -0.03210599)
(0.486784 0.140479 0.02049739)
(0.4392023 0.1410365 -0.006525214)
(0.4470012 0.1409259 0.003805421)
(0.4259941 0.1405252 -0.0009066732)
(0.43786 0.1128326 -0.04067484)
(0.4292514 0.1575215 -0.03138705)
(0.4872732 0.1537406 0.02105536)
(0.4391678 0.1539051 -0.006476917)
(0.4466903 0.1538047 0.003786399)
(0.4254851 0.1532459 -0.0009917581)
(0.4370618 0.1239639 -0.03993443)
(0.4304296 0.1702558 -0.03188567)
(0.4872176 0.1670051 0.02141656)
(0.4387898 0.1669421 -0.006693783)
(0.4462967 0.1667682 0.003642145)
(0.4248714 0.1661583 -0.001092049)
(0.4365438 0.1362792 -0.03890787)
(0.4313805 0.1831769 -0.03383988)
(0.4872622 0.1802558 0.02170776)
(0.4384659 0.1800814 -0.006886392)
(0.4458818 0.1798667 0.003419941)
(0.4241926 0.179217 -0.001180539)
(0.4359988 0.1480063 -0.03792488)
(0.4319066 0.1964341 -0.03488942)
(0.4872204 0.1937159 0.02175457)
(0.4380736 0.1934402 -0.006953675)
(0.4454094 0.1931742 0.003367226)
(0.423412 0.192398 -0.00120156)
(0.435543 0.1588154 -0.03710799)
(0.4320878 0.2098943 -0.03543598)
(0.4871412 0.2073914 0.02188215)
(0.4375133 0.2069717 -0.007038894)
(0.4448102 0.2066614 0.003340776)
(0.4225108 0.2057288 -0.001248418)
(0.4350444 0.1699096 -0.03639863)
(0.4321651 0.223593 -0.03596008)
(0.4870363 0.2212647 0.02217953)
(0.4368082 0.2206862 -0.007152396)
(0.4441296 0.2203329 0.003335547)
(0.4214905 0.2192659 -0.001270491)
(0.4344074 0.1810834 -0.03567092)
(0.4322286 0.2374228 -0.03627458)
(0.4869625 0.2353806 0.02268427)
(0.4359406 0.2346183 -0.007307929)
(0.4433471 0.2342213 0.003326094)
(0.420351 0.2329955 -0.001300634)
(0.4336807 0.1923234 -0.03500078)
(0.4322306 0.2514217 -0.03654522)
(0.4869286 0.2497246 0.023285)
(0.4349215 0.2487973 -0.007505026)
(0.4424593 0.2483796 0.00337407)
(0.4190682 0.2469608 -0.001322102)
(0.4330135 0.2038769 -0.03436817)
(0.4320884 0.2655806 -0.03697341)
(0.4868739 0.2642963 0.02394025)
(0.4337815 0.2632567 -0.007744835)
(0.4414585 0.2628267 0.003466104)
(0.4176175 0.261196 -0.001351647)
(0.4325147 0.2158027 -0.03383059)
(0.4318724 0.280039 -0.03778842)
(0.4867506 0.2791113 0.02462295)
(0.4325359 0.2779894 -0.007955779)
(0.4403442 0.277541 0.003643061)
(0.4159775 0.2757163 -0.00137912)
(0.4320978 0.2280942 -0.03341901)
(0.4316819 0.2949672 -0.03876168)
(0.4867 0.2942555 0.02548426)
(0.4312128 0.2930078 -0.008145785)
(0.4391308 0.2925048 0.00383016)
(0.4141579 0.2905141 -0.001402922)
(0.4058652 0.2533784 -0.0470652)
(0.4314566 0.3102874 -0.03986798)
(0.4867235 0.3097632 0.02649676)
(0.4297765 0.308387 -0.008317916)
(0.4378021 0.3077704 0.00401873)
(0.4121555 0.3056201 -0.001434416)
(0.4533353 0.01412127 0.002688727)
(0.4923934 -0.008425762 0.002288203)
(0.4662924 -0.006745011 0.00243681)
(0.4545222 -0.00408656 0.001168297)
(0.4426442 -0.005574011 0.003614908)
(0.4307738 -0.005428778 0.00406583)
(0.4626285 -0.1283224 0.003146037)
(0.3922057 -0.03158111 -0.02551774)
(0.4897411 0.04449546 0.006383884)
(0.43357 0.005380669 -0.002263989)
(0.4503352 0.02253366 0.001945633)
(0.4286899 0.01663688 3.067746e-06)
(0.3450893 0.004480206 -0.06514804)
(0.4002665 0.008588151 -0.02496812)
(0.5219809 0.03348678 -0.001692339)
(0.447442 0.02386824 -0.01004591)
(0.4557307 0.02913892 -0.002319852)
(0.4312727 0.02899112 -0.001444251)
(0.2810361 0.01108634 -0.01180413)
(0.4033001 0.03585457 -0.02846044)
(0.5114262 0.04567317 -0.005656681)
(0.437371 0.04460415 -0.008383444)
(0.453744 0.04361102 -0.0009220763)
(0.4283778 0.04239721 -0.0004721309)
(0.3900363 0.0220284 0.004318547)
(0.4127523 0.06204268 -0.02686301)
(0.5099068 0.05600603 -0.005203401)
(0.4477149 0.05464639 -0.006482911)
(0.4552077 0.05326936 -0.001013769)
(0.4314795 0.05383345 -0.00159026)
(0.4240369 0.03014608 0.002273816)
(0.415979 0.07774271 -0.02620929)
(0.5091259 0.06813038 -0.004076375)
(0.4449222 0.06823158 -0.005724848)
(0.4542249 0.06640176 0.0005127249)
(0.4294548 0.06693506 -0.0005578396)
(0.4338412 0.0434854 0.0002219688)
(0.4193474 0.09121315 -0.02374988)
(0.507001 0.07941163 -0.002273689)
(0.4476524 0.08026803 -0.00517826)
(0.4533297 0.07822113 0.0008046764)
(0.4305774 0.07865995 -0.0008916764)
(0.441791 0.05655582 -0.003211149)
(0.4234178 0.1023069 -0.02125394)
(0.5039538 0.09072697 -0.0002960875)
(0.4467602 0.09274694 -0.004552761)
(0.4520592 0.09126725 0.0005847731)
(0.4293679 0.09137569 -4.693163e-05)
(0.4502677 0.07196299 -0.004486326)
(0.4263999 0.1118606 -0.01877081)
(0.4987446 0.102757 0.0004681059)
(0.4451024 0.1050125 -0.003808908)
(0.4503799 0.1034529 0.0004270842)
(0.4288885 0.1035918 0.0001274522)
(0.4568965 0.08301675 -0.003292904)
(0.4295511 0.122435 -0.01716521)
(0.4946388 0.1154081 6.887309e-05)
(0.4452001 0.1169801 -0.003396569)
(0.4490424 0.1158382 5.301077e-05)
(0.4285063 0.1159584 0.0002221416)
(0.4546761 0.08919583 -0.003414273)
(0.4300954 0.1345429 -0.01699619)
(0.4926506 0.128376 0.0002596523)
(0.4447673 0.129388 -0.002843358)
(0.4480218 0.1285633 0.0003311169)
(0.4279734 0.1283348 0.0004523031)
(0.4565489 0.09877861 -5.643061e-05)
(0.4289807 0.1471849 -0.01774985)
(0.49087 0.141097 0.0006306146)
(0.444198 0.1417542 -0.002505762)
(0.4472102 0.1409912 0.0005292657)
(0.427392 0.1406529 0.0003629927)
(0.4572205 0.1159593 0.003845164)
(0.4293276 0.1598581 -0.0184036)
(0.4900935 0.1540596 0.001171039)
(0.4445611 0.1542155 -0.002330008)
(0.4468056 0.1533575 0.0008607474)
(0.4270522 0.1531286 5.540391e-05)
(0.4554699 0.1309446 0.005641635)
(0.4297773 0.1721599 -0.01883122)
(0.4904903 0.1671981 0.002258543)
(0.4452844 0.1669924 -0.002165861)
(0.4466467 0.1660268 0.001319168)
(0.4265171 0.1658694 8.263426e-05)
(0.4535723 0.1437841 0.008111706)
(0.43014 0.1851531 -0.01930476)
(0.4913548 0.1804327 0.003079838)
(0.4460443 0.1799311 -0.002095642)
(0.4465461 0.1792163 0.001555582)
(0.4258755 0.1788967 0.0003103788)
(0.4526978 0.155774 0.009127411)
(0.4303531 0.1992316 -0.01973499)
(0.4918545 0.1939321 0.00357764)
(0.4456467 0.1931631 -0.00198057)
(0.4461906 0.192703 0.001683345)
(0.4250896 0.1922008 0.0006307333)
(0.4518165 0.1664651 0.009448768)
(0.4302145 0.2133447 -0.02004191)
(0.4921607 0.2077681 0.004075974)
(0.4451145 0.2066163 -0.001828569)
(0.4456863 0.2062317 0.001787507)
(0.4242449 0.2055767 0.0007401991)
(0.4513266 0.1782058 0.009520384)
(0.429749 0.2273609 -0.02016976)
(0.4923218 0.2218031 0.004570128)
(0.4444016 0.2203086 -0.001723548)
(0.445081 0.2199244 0.001835654)
(0.4233102 0.2191806 0.0008426858)
(0.4508273 0.1897829 0.009439111)
(0.4292531 0.2415081 -0.02027429)
(0.4925316 0.2360436 0.00524348)
(0.4437241 0.2342255 -0.001654718)
(0.4443923 0.2338675 0.001722423)
(0.4222433 0.2329582 0.0009022697)
(0.4502941 0.2010856 0.009279293)
(0.4286617 0.2557149 -0.02057503)
(0.4929855 0.2504696 0.006141998)
(0.4430008 0.2483665 -0.001533262)
(0.4436164 0.2480853 0.001533955)
(0.420991 0.2469683 0.0008587408)
(0.4499945 0.21325 0.009068084)
(0.4279473 0.270021 -0.02107809)
(0.4935992 0.2651597 0.00701414)
(0.4422507 0.2628061 -0.001374311)
(0.4427863 0.2625936 0.001436694)
(0.4195599 0.261218 0.0007799459)
(0.4493995 0.2256042 0.008512262)
(0.4267743 0.2843224 -0.0217973)
(0.4940384 0.2801313 0.007859545)
(0.441103 0.2775937 -0.001197383)
(0.4418115 0.2773688 0.001515146)
(0.4179005 0.2757625 0.0007622323)
(0.4487176 0.2379589 0.008042195)
(0.4253583 0.2989001 -0.02251558)
(0.4941227 0.295333 0.008586029)
(0.4395167 0.2926724 -0.001055572)
(0.4406602 0.2923824 0.001687052)
(0.4160642 0.2905816 0.0008210589)
(0.4479054 0.2502816 0.007713634)
(0.4238505 0.313839 -0.02332573)
(0.4940458 0.3108089 0.009277898)
(0.4375789 0.3081028 -0.0009792419)
(0.4393542 0.3077847 0.001843573)
(0.4140381 0.3057256 0.0008905528)
(0.4372216 0.01068621 -0.004029873)
(0.4969267 -0.009882635 -5.968531e-05)
(0.4691539 -0.008796662 -0.002853729)
(0.4551652 -0.004696855 -0.0003064407)
(0.4431587 -0.005291809 0.0007983998)
(0.4306935 -0.005085912 0.001175475)
(0.5157368 -0.1243305 0.003919264)
(0.3846931 -0.04458904 -0.01331296)
(0.4795049 0.03454348 0.001686256)
(0.4281661 0.00374231 -0.0006343855)
(0.4445565 0.01822114 -0.0002962017)
(0.4271553 0.01698512 0.0006902345)
(0.136085 -0.001858745 -0.002000075)
(0.4250837 0.01183075 -0.01239232)
(0.5361747 0.0246292 -0.001847796)
(0.4503586 0.02149293 -0.005297719)
(0.4582827 0.02881232 0.0006231454)
(0.430817 0.02937114 -0.0003616256)
(0.4665772 -0.04053621 0.005290172)
(0.4330453 0.03829906 -0.01095924)
(0.5129482 0.04470549 -0.004682253)
(0.4394167 0.0471209 -0.004850134)
(0.4470721 0.04195951 -0.001834119)
(0.4277537 0.0436728 0.0004908912)
(0.4549311 0.0248407 0.01030648)
(0.4270867 0.05758017 -0.01305676)
(0.5029973 0.05652527 -0.00356822)
(0.4414362 0.057508 -0.002443684)
(0.4524188 0.05496702 0.0001362122)
(0.4282846 0.05482501 0.0002566554)
(0.463968 0.04771298 0.006471622)
(0.424067 0.07379689 -0.01238822)
(0.4992383 0.06867561 -0.0002439143)
(0.4364191 0.07154824 -0.001133941)
(0.4468741 0.06734139 -0.0003502451)
(0.4265068 0.06832287 0.001197244)
(0.4718465 0.06185362 0.003000206)
(0.4237762 0.08847419 -0.01125844)
(0.4965869 0.08028194 0.002337381)
(0.437828 0.08208298 -0.0001625792)
(0.4453919 0.07885008 -0.0002893165)
(0.4260796 0.07894153 0.0009360861)
(0.4731695 0.08520575 0.000850579)
(0.4248708 0.1020019 -0.01161371)
(0.4949764 0.09168226 0.002116306)
(0.4390188 0.09352164 -2.888747e-05)
(0.4456875 0.09081714 0.0004457865)
(0.4262457 0.09074842 0.0007752112)
(0.4763877 0.08531913 0.0008443856)
(0.4300949 0.1126541 -0.009809675)
(0.4921367 0.1027483 0.002162978)
(0.4406684 0.1049241 -0.0005588201)
(0.4450503 0.1029263 0.0002975231)
(0.4263491 0.1031192 0.0006698303)
(0.4795555 0.08797437 0.00220274)
(0.4372132 0.1228062 -0.007245106)
(0.4917206 0.1150597 0.001505994)
(0.4432852 0.1169333 -0.001214086)
(0.4450568 0.1154466 5.375216e-05)
(0.4266199 0.1157398 0.0004573017)
(0.4750396 0.0921255 0.003084863)
(0.4381513 0.1342221 -0.005479)
(0.487457 0.1282371 0.0009479046)
(0.4421584 0.1296503 -0.001083806)
(0.4431458 0.1281186 -0.0003295665)
(0.4260001 0.1282802 0.0005179482)
(0.4731399 0.1051782 0.004377278)
(0.4389257 0.1472926 -0.006736459)
(0.4868254 0.1410817 0.0004250106)
(0.4421259 0.141968 -0.001196165)
(0.443532 0.1407848 1.015583e-05)
(0.4254671 0.1406312 0.0004759084)
(0.470478 0.1159886 0.00850552)
(0.4377242 0.160207 -0.00846154)
(0.4875308 0.1541283 0.0001946958)
(0.4403804 0.1551317 -0.001686145)
(0.4438329 0.1537612 0.0001313682)
(0.424698 0.1535052 0.0001681208)
(0.4663853 0.1289868 0.0113684)
(0.4342279 0.1729021 -0.01090328)
(0.4855278 0.1670511 0.0003404342)
(0.4374984 0.1682984 -0.001921762)
(0.4424919 0.1664524 -0.0001767246)
(0.4236391 0.1662596 -7.614645e-05)
(0.464304 0.1380607 0.01403141)
(0.4325235 0.1860684 -0.01206388)
(0.4847634 0.1801726 0.0006996234)
(0.4362182 0.1807564 -0.001948801)
(0.4417801 0.1793447 -0.0001856285)
(0.4227514 0.178962 -6.498393e-05)
(0.4631409 0.1477959 0.01458)
(0.4316752 0.1999544 -0.01209725)
(0.4847548 0.1936681 0.0007860142)
(0.4354902 0.1935928 -0.001726416)
(0.4411676 0.1925193 -6.641836e-05)
(0.4218589 0.1922412 0.0001153337)
(0.4622747 0.158748 0.01427677)
(0.4306082 0.2139638 -0.01241207)
(0.4849872 0.2074551 0.0009689064)
(0.4346495 0.2068377 -0.001553622)
(0.4403367 0.2058973 -5.537863e-05)
(0.4208824 0.205762 0.0001547732)
(0.4613746 0.1716228 0.0139889)
(0.4295827 0.2280722 -0.0128453)
(0.4854078 0.2214521 0.001139434)
(0.4340036 0.2203264 -0.001383334)
(0.4389542 0.2194004 -0.0002054446)
(0.4198216 0.2192964 0.0003179352)
(0.4606208 0.1842934 0.01358942)
(0.4289386 0.2420182 -0.01330566)
(0.4860294 0.2357002 0.0014086)
(0.4341389 0.2344353 -0.001136452)
(0.4378993 0.2331964 -0.0001769253)
(0.4187864 0.2329485 0.0004096105)
(0.4600506 0.195531 0.01330783)
(0.4282234 0.2559599 -0.01395707)
(0.4862773 0.2500474 0.0017563)
(0.4341945 0.2488006 -0.0007625963)
(0.437474 0.2473515 9.394063e-05)
(0.4176952 0.246776 0.0005561912)
(0.4595212 0.2071922 0.01316582)
(0.427443 0.2700021 -0.01475385)
(0.4864458 0.2646045 0.002016218)
(0.4337547 0.2634101 -0.0003800278)
(0.4373215 0.2619095 0.0004868286)
(0.4163889 0.2610325 0.0006803692)
(0.4588357 0.2193007 0.01282277)
(0.425972 0.2841589 -0.01572371)
(0.4859673 0.2794274 0.002229758)
(0.4324493 0.2781763 4.23123e-05)
(0.4365199 0.2767798 0.0008477865)
(0.4147331 0.2756958 0.0007851746)
(0.4579133 0.2315522 0.01238405)
(0.4242328 0.2987764 -0.01683612)
(0.485788 0.2946035 0.002713052)
(0.4308334 0.2930598 0.0004498916)
(0.434988 0.2917867 0.001000576)
(0.4128008 0.290618 0.000902435)
(0.4569916 0.2436838 0.01199876)
(0.4224092 0.3136238 -0.01798353)
(0.4859372 0.3101232 0.003444259)
(0.4292642 0.3083297 0.000816869)
(0.4332741 0.3070332 0.001091125)
(0.4106931 0.3057597 0.001007854)
(0.4359504 0.01019046 -0.007321978)
(0.4942507 -0.009348565 -0.0003508655)
(0.4707269 -0.008463025 -0.001195539)
(0.4591409 -0.006538602 -0.000175085)
(0.443763 -0.005285658 -9.876467e-05)
(0.431333 -0.005101308 0.0003277787)
(0.5298283 -0.1166446 0.006374926)
(0.3826782 -0.0471071 -0.004378508)
(0.483432 0.03986004 0.0002506466)
(0.4283278 0.004351739 -0.0005246653)
(0.4433599 0.01604189 -0.0004701725)
(0.4268162 0.01654376 -0.0004007934)
(0.1983749 0.003674538 -0.01297613)
(0.4213293 0.006141769 -0.002928946)
(0.5261055 0.01636919 -0.002507915)
(0.448637 0.02399558 -0.0001806404)
(0.4576916 0.02747386 -0.0001454345)
(0.4324004 0.02842506 -0.0004111143)
(0.4671413 -0.02997669 0.0003528232)
(0.452858 0.04393755 0.000470163)
(0.5159669 0.04350788 -0.002354532)
(0.4497156 0.04514775 -0.002260355)
(0.4513993 0.04228647 -0.001092138)
(0.4291979 0.0430309 -0.0009796502)
(0.4625769 0.0260369 0.003906886)
(0.4346975 0.05808276 0.0007115946)
(0.5078559 0.05773368 -0.001833109)
(0.4485176 0.05745424 -0.001749575)
(0.4541929 0.05578922 -0.0009303651)
(0.4326676 0.05417352 -0.0006119676)
(0.4732964 0.03718218 -0.002114305)
(0.4212614 0.07438022 -0.001442405)
(0.497601 0.07021884 -0.00124372)
(0.4407808 0.07208623 -0.001976443)
(0.4482769 0.06747948 -0.001002809)
(0.4275738 0.06769351 -0.0008898568)
(0.4794065 0.04907187 -0.002574299)
(0.4209808 0.0903596 -0.002261605)
(0.4918879 0.08185504 -0.001078348)
(0.4426263 0.08197007 -0.001114163)
(0.4489235 0.07875476 -0.0008288488)
(0.4309034 0.07891138 -0.0006843229)
(0.4816043 0.05889449 -0.001373321)
(0.4245653 0.1034701 -0.001678342)
(0.4937082 0.09262637 -0.0003165704)
(0.4444388 0.09350953 -0.00114522)
(0.4491968 0.09018643 -0.0007433288)
(0.430414 0.09115456 -0.0006101935)
(0.4854018 0.07106855 -0.001593547)
(0.428876 0.1135758 -0.001267286)
(0.492902 0.1032921 -2.951361e-05)
(0.4460492 0.1051407 -0.001293195)
(0.4479049 0.1026112 -0.0007425334)
(0.4295393 0.1032915 -0.0005740088)
(0.4890603 0.08316187 -0.002539686)
(0.4368391 0.1232472 -0.0007540643)
(0.4925553 0.1151605 -0.0001211202)
(0.4484876 0.1170874 -0.0009857075)
(0.4475865 0.1153788 -0.0007894409)
(0.4291705 0.1156305 -0.0004875554)
(0.4846888 0.09287137 -0.00230299)
(0.4396953 0.133894 -0.0004840694)
(0.4890941 0.128319 -0.0003672456)
(0.4470599 0.1296113 -0.001100892)
(0.4459937 0.1283244 -0.0007037859)
(0.427643 0.1283496 -0.0007271502)
(0.4827967 0.1131462 -0.001249887)
(0.4405176 0.1459105 -0.0008934562)
(0.4866605 0.1409738 -0.0006291097)
(0.4457687 0.1416353 -0.001109147)
(0.4452606 0.1406365 -0.000681779)
(0.4271086 0.1403229 -0.0007181658)
(0.4772374 0.1284588 0.001480925)
(0.4436361 0.158689 -0.001022329)
(0.488492 0.1538816 -0.001265226)
(0.446577 0.1539662 -0.0009570067)
(0.4463685 0.1531856 -0.001140922)
(0.4271401 0.1528423 -0.000690736)
(0.4707992 0.1279165 0.009336633)
(0.4458915 0.1715187 -0.001083912)
(0.4919187 0.1671857 -0.001700424)
(0.4481112 0.1669841 -0.001165963)
(0.4474018 0.1661899 -0.001805912)
(0.4272103 0.1658135 -0.0004368599)
(0.468123 0.1344615 0.01602355)
(0.4444362 0.1851154 -0.000358798)
(0.4920389 0.1805327 -0.002075987)
(0.448248 0.1800186 -0.00109734)
(0.4474619 0.179595 -0.00218764)
(0.4260768 0.1789316 -0.0008042255)
(0.4668563 0.145535 0.01560397)
(0.443209 0.1995572 -0.001380325)
(0.4922859 0.1941705 -0.001967501)
(0.4461406 0.1935593 -0.001655551)
(0.4467248 0.1930951 -0.002129521)
(0.4243318 0.1924236 -0.001349921)
(0.4661825 0.1565845 0.01495128)
(0.4421242 0.2131579 -0.001198352)
(0.4913749 0.2078566 -0.001729621)
(0.44559 0.2070737 -0.001415945)
(0.4458393 0.2064238 -0.002121954)
(0.423916 0.2056007 -0.0009410994)
(0.465412 0.1686257 0.01416838)
(0.4410675 0.227075 -0.001357025)
(0.4908788 0.221739 -0.001420448)
(0.4443763 0.2207782 -0.001212256)
(0.4449537 0.2200548 -0.002037274)
(0.4220998 0.2194241 -0.001340497)
(0.4648984 0.1801889 0.01337501)
(0.4395369 0.2409053 -0.00144386)
(0.4902702 0.2358663 -0.001094149)
(0.4432585 0.2346907 -0.0009894687)
(0.4437264 0.2337797 -0.001805537)
(0.421105 0.2330728 -0.001089979)
(0.4643374 0.1922155 0.01255197)
(0.4378331 0.2548531 -0.001361859)
(0.4890685 0.2501133 -0.0009166293)
(0.4423732 0.2488387 -0.0008172393)
(0.442289 0.2478725 -0.001570612)
(0.4194422 0.2472087 -0.001147345)
(0.4636986 0.2048952 0.01189491)
(0.4361452 0.2689589 -0.001307831)
(0.4880233 0.2646418 -0.0007797567)
(0.4411508 0.2633294 -0.0007338386)
(0.4407136 0.2625016 -0.00134316)
(0.4179001 0.2613911 -0.0009460177)
(0.46232 0.2177766 0.01187243)
(0.4338176 0.2830635 -0.001112897)
(0.4872438 0.2795057 -0.0005526768)
(0.4390209 0.2782058 -0.0006956221)
(0.4393157 0.2773746 -0.001159251)
(0.4161742 0.2758497 -0.0007662502)
(0.4605311 0.2300923 0.01167022)
(0.4310841 0.2974963 -0.0009603163)
(0.4861153 0.2946123 -0.000275725)
(0.4368909 0.2932954 -0.0005257301)
(0.4379302 0.2923523 -0.001004794)
(0.4142237 0.2906335 -0.0006641692)
(0.458598 0.2423843 0.01142692)
(0.4283958 0.3121831 -0.001248254)
(0.4848758 0.310007 -7.693592e-05)
(0.434719 0.3086975 -0.0002532537)
(0.4365467 0.3077778 -0.0008264224)
(0.4121252 0.305768 -0.0005801751)
(0.4366939 0.005156844 0.001287242)
(0.4942348 -0.009470488 6.571854e-05)
(0.4686775 -0.006311815 0.0005754153)
(0.4548182 -0.003750579 6.966178e-05)
(0.44162 -0.003621094 1.800953e-05)
(0.4287834 -0.003513979 1.32709e-05)
(0.5247435 -0.1275123 -0.001062593)
(0.3820483 -0.04665289 0.005099692)
(0.4832146 0.03990844 -0.0002295959)
(0.4283181 0.004254502 0.0006293938)
(0.4433305 0.01600314 0.0004677595)
(0.4268164 0.01654968 0.0004445434)
(0.142914 0.002165188 0.001853296)
(0.421512 0.0060848 0.002898509)
(0.5263353 0.0164504 0.002455287)
(0.4488597 0.02402779 0.0001907081)
(0.4577122 0.02746766 0.0001793952)
(0.4324702 0.02841862 0.0004177703)
(0.4930317 -0.08111114 -0.0009155173)
(0.4527142 0.04391436 -0.0003709709)
(0.5160755 0.04352061 0.002391731)
(0.4497045 0.04515789 0.00226262)
(0.4515127 0.04231375 0.001107553)
(0.4292039 0.04302998 0.0009880864)
(0.4734475 0.005789179 -0.001711937)
(0.4346214 0.05808105 -0.0006810976)
(0.5078901 0.05772939 0.001850532)
(0.4485104 0.05746182 0.001751364)
(0.454204 0.0557937 0.0009334279)
(0.4326626 0.05417862 0.0006123316)
(0.4810067 0.04097673 0.002402915)
(0.4212999 0.07438708 0.001490188)
(0.4976233 0.07021936 0.001245322)
(0.4407789 0.07209859 0.001977715)
(0.4482645 0.06747728 0.001003197)
(0.4275734 0.06769326 0.0008995326)
(0.4868246 0.05540606 0.003891582)
(0.4209871 0.09035136 0.002304825)
(0.4918628 0.08185557 0.001083304)
(0.4426554 0.08197364 0.001129811)
(0.448935 0.07874787 0.0008290881)
(0.430904 0.07891272 0.0006849157)
(0.4888616 0.0715705 0.00488593)
(0.4245759 0.103451 0.001701289)
(0.4937099 0.09262267 0.0003191307)
(0.4444628 0.09351185 0.001155026)
(0.449195 0.09018597 0.000744815)
(0.4304095 0.09115429 0.0006106803)
(0.491122 0.0879519 0.004572243)
(0.4288888 0.1135625 0.001281162)
(0.4929007 0.1032883 3.186311e-05)
(0.44607 0.1051417 0.001298355)
(0.4479032 0.1026116 0.0007430973)
(0.4295391 0.1032921 0.0005739854)
(0.4931281 0.09924011 0.002643992)
(0.4368473 0.1232398 0.0007656902)
(0.4925529 0.1151582 0.0001212503)
(0.4484948 0.1170873 0.0009895587)
(0.4475783 0.1153817 0.0007887063)
(0.4291624 0.1156319 0.000490149)
(0.4872579 0.103747 0.0008292993)
(0.4396994 0.1338795 0.0004985023)
(0.489074 0.1283203 0.0003680932)
(0.4470548 0.129614 0.001105527)
(0.4459848 0.1283257 0.0007042195)
(0.4276393 0.1283508 0.0007297274)
(0.4854916 0.1085336 0.0006685511)
(0.4404995 0.1459063 0.0009080718)
(0.4866307 0.1409756 0.000633922)
(0.4457679 0.1416354 0.001117557)
(0.4452512 0.1406369 0.0006838834)
(0.4271081 0.1403229 0.0007205549)
(0.4817846 0.1174486 0.00193323)
(0.4436339 0.1586967 0.001036355)
(0.488473 0.1538808 0.001270162)
(0.4465781 0.1539669 0.000964343)
(0.4463622 0.1531864 0.001144178)
(0.4271368 0.1528424 0.0006945243)
(0.4753316 0.1267935 -0.001138438)
(0.4458886 0.1715211 0.001093696)
(0.4918828 0.1671809 0.001703228)
(0.4480981 0.1669846 0.001174297)
(0.4473913 0.1661927 0.001809972)
(0.4272008 0.165814 0.0004450566)
(0.4674601 0.1375252 -0.009844348)
(0.4444604 0.1851155 0.0003636612)
(0.4920274 0.1805286 0.002073443)
(0.4482311 0.1800223 0.001106512)
(0.4474525 0.1795973 0.002192988)
(0.4260721 0.1789337 0.0008109451)
(0.4658073 0.145325 -0.01063639)
(0.443218 0.1995522 0.00137069)
(0.4922627 0.1941646 0.001963902)
(0.446123 0.1935687 0.001664662)
(0.4467117 0.1930959 0.002132814)
(0.4243295 0.1924257 0.001356213)
(0.4649188 0.1561007 -0.01076184)
(0.4421147 0.2131593 0.001197622)
(0.4913307 0.207855 0.001732963)
(0.4455661 0.2070754 0.001424531)
(0.4458218 0.2064274 0.002125241)
(0.4239093 0.2056044 0.0009527664)
(0.464038 0.1678921 -0.01070806)
(0.4410631 0.2270809 0.001369557)
(0.4908401 0.2217365 0.001425564)
(0.4443339 0.2207787 0.001217355)
(0.444924 0.2200603 0.002038198)
(0.4220913 0.2194307 0.001357581)
(0.4633121 0.1803812 -0.0105235)
(0.4395329 0.2409123 0.001466638)
(0.4902234 0.2358624 0.00110785)
(0.4432088 0.2346918 0.000994396)
(0.443675 0.2337856 0.00179876)
(0.4210948 0.2330826 0.001113532)
(0.4625294 0.1933309 -0.01031092)
(0.4378333 0.2548605 0.001394865)
(0.4890079 0.2501073 0.0009377818)
(0.442325 0.248845 0.0008277628)
(0.4421907 0.2478897 0.001549507)
(0.4194197 0.2472231 0.001180065)
(0.4614608 0.2067911 -0.01019138)
(0.4361637 0.268965 0.001350014)
(0.4879511 0.2646338 0.0008077988)
(0.4410481 0.2633463 0.0007593856)
(0.440584 0.26252 0.001329227)
(0.4178796 0.2613959 0.0009883651)
(0.459713 0.2201518 -0.01010555)
(0.4338453 0.283071 0.001151206)
(0.4872064 0.2795084 0.0005845322)
(0.4388904 0.2782328 0.0007306083)