/*--------------------------------*- C++ -*----------------------------------*\
  =========                 |
  \\      /  F ield         | OpenFOAM: The Open Source CFD Toolbox
   \\    /   O peration     | Website:  https://openfoam.org
    \\  /    A nd           | Version:  7
     \\/     M anipulation  |
\*---------------------------------------------------------------------------*/
FoamFile
{
    version     2.0;
    format      ascii;
    class       surfaceScalarField;
    location    "0.06";
    object      phi;
}
// * * * * * * * * * * * * * * * * * * * * * * * * * * * * * * * * * * * * * //

dimensions      [0 3 -1 0 0 0 0];

internalField   nonuniform List<scalar> 
234023
(
3.106607e-10
-3.437981e-09
1.337439e-09
3.983695e-10
5.761037e-10
4.127484e-10
6.158446e-10
4.655042e-09
-6.60958e-09
1.734264e-09
5.162202e-10
9.01392e-09
-1.131276e-08
2.04145e-09
5.02293e-10
1.473808e-08
-1.784513e-08
3.002035e-09
4.166264e-10
2.255551e-08
-2.766832e-08
4.769979e-09
7.388684e-10
3.459628e-08
-4.225661e-08
7.359646e-09
1.035582e-09
5.301565e-08
-6.55933e-08
1.183682e-08
1.626044e-09
8.187232e-08
-1.016e-07
1.83455e-08
2.229447e-09
1.273197e-07
2.770258e-08
2.086339e-09
-1.565933e-07
-5.430498e-10
-8.671119e-10
3.267644e-09
2.294829e-10
-6.046333e-10
-5.439695e-10
-8.007615e-10
-1.974321e-08
2.094733e-08
2.609523e-09
1.791564e-09
2.518658e-09
2.750769e-09
2.519952e-09
-2.373273e-09
-3.575374e-09
-2.981615e-09
-3.941164e-09
-3.430144e-08
2.830724e-08
3.668257e-09
-2.725477e-09
-5.078687e-09
-3.858664e-09
-4.937674e-09
-5.56748e-08
4.169426e-08
4.432786e-09
-3.665049e-09
-7.684146e-09
-5.374953e-09
-7.116723e-09
-8.790993e-08
6.300556e-08
5.475008e-09
-5.210361e-09
-1.111337e-08
-8.186361e-09
-1.071756e-08
-1.370879e-07
9.828681e-08
7.204965e-09
-8.126962e-09
-1.733663e-08
-1.2801e-08
-1.667936e-08
-2.124644e-07
1.53482e-07
9.849462e-09
-1.251744e-08
-2.71251e-08
-2.015216e-08
-2.621482e-08
-3.289224e-07
2.41512e-07
1.321096e-08
-2.006461e-08
-4.240189e-08
-3.199365e-08
-4.152192e-08
3.791019e-07
1.777114e-08
-3.120227e-08
-6.572497e-08
-5.04611e-08
-6.364405e-08
-5.128104e-07
-3.781263e-09
-4.910348e-10
4.150766e-09
1.887308e-10
-1.2123e-08
2.502239e-08
2.405101e-09
5.29557e-10
2.109405e-09
1.686811e-09
1.779575e-09
-2.049925e-08
3.392692e-08
3.427117e-09
-3.278147e-08
5.048203e-08
4.242993e-09
-5.132394e-08
7.669096e-08
5.761224e-09
-7.957645e-08
1.202542e-07
7.409932e-09
-1.225441e-07
1.87087e-07
1.086801e-08
-1.887254e-07
2.940583e-07
1.515145e-08
4.623568e-07
2.180639e-08
-2.924348e-07
-4.631116e-09
2.780286e-10
4.135571e-09
2.427675e-10
4.506803e-10
2.302163e-08
2.962379e-09
-1.008296e-09
5.363776e-10
-2.555338e-10
8.90878e-11
3.691939e-10
3.208047e-08
2.507748e-09
1.128073e-09
4.758567e-08
2.771159e-09
2.239554e-09
7.288035e-08
3.589903e-09
4.699803e-09
1.143144e-07
4.726521e-09
1.089335e-08
1.795874e-07
2.658244e-09
2.236122e-08
2.827239e-07
1.423585e-09
4.47519e-07
-2.398922e-09
4.084765e-08
-3.925795e-09
4.79855e-10
3.281032e-09
2.991509e-10
9.187039e-09
3.742176e-09
1.950327e-09
-1.793925e-09
-5.992869e-10
-1.26376e-09
-9.890812e-10
4.100945e-09
4.660651e-09
4.640041e-09
1.569251e-08
5.087472e-09
2.094928e-09
6.265939e-09
6.468813e-09
6.198015e-09
2.647369e-08
7.102773e-09
2.117342e-09
9.450289e-09
9.492843e-09
9.192358e-09
4.310429e-08
1.067277e-08
2.613441e-09
1.467418e-08
1.484614e-08
1.450051e-08
7.027908e-08
1.667657e-08
2.803553e-09
2.287734e-08
2.318633e-08
2.279211e-08
1.132109e-07
2.566374e-08
3.036979e-09
3.653102e-08
3.637364e-08
3.663608e-08
1.818476e-07
4.037446e-08
1.856128e-09
5.785601e-08
5.699146e-08
5.855215e-08
6.432708e-08
-1.864039e-10
9.168909e-08
9.041273e-08
9.362375e-08
2.90896e-07
-2.968042e-09
5.935093e-10
2.041173e-09
4.890343e-10
-1.691829e-09
2.272218e-09
2.381185e-09
1.043301e-09
-3.417179e-09
4.620976e-09
2.977659e-09
1.3436e-09
-6.611342e-09
7.875868e-09
4.426979e-09
1.560576e-09
-1.055036e-08
1.293084e-08
6.759887e-09
2.000461e-09
-1.803135e-08
2.18795e-08
1.073046e-08
2.733537e-09
-2.955025e-08
3.518295e-08
1.664729e-08
4.205447e-09
-4.80996e-08
5.681042e-08
2.641133e-08
6.288115e-09
-7.754067e-08
9.153294e-08
4.253278e-08
8.844945e-09
-1.248378e-07
6.833573e-08
1.372204e-08
1.458719e-07
-1.022984e-07
-3.266174e-11
-2.659238e-11
-4.112854e-11
2.037558e-10
1.119857e-11
-5.840094e-10
2.487524e-11
5.462114e-10
-1.586207e-11
1.203557e-10
-1.084371e-09
-2.319477e-10
1.150576e-09
1.89467e-10
2.287869e-10
-2.285527e-09
6.840923e-11
2.05956e-09
9.830023e-11
2.02905e-10
-3.545896e-09
-3.017718e-10
3.305357e-09
3.734973e-10
5.362488e-10
-6.194428e-09
4.237596e-10
5.6245e-09
1.661825e-11
4.292193e-10
-9.978168e-09
3.9682e-10
8.680651e-09
2.777288e-10
8.768171e-10
-1.533731e-08
5.839405e-10
1.379149e-08
4.137403e-10
1.060566e-09
-2.496481e-08
6.291168e-10
2.27375e-08
7.580348e-10
1.61673e-09
-4.067706e-08
2.859376e-10
3.596051e-08
1.404332e-09
3.472943e-09
0.0003454406
2.961794e-05
-1.837275e-05
-0.001466496
-9.045344e-05
0.0003406027
0.0004334034
0.0004262571
0.000349985
1.310575e-05
-9.575434e-06
-9.79125e-05
-0.001474796
0.0003470798
0.0004386201
0.0004334932
0.0003541761
9.083327e-06
-8.039549e-06
-9.655374e-05
-0.001493078
0.0003512374
0.0004441635
0.0004390108
0.0003581934
1.047668e-05
-9.826243e-06
-9.672762e-05
-0.001510779
0.0003550933
0.0004494114
0.0004441578
0.0003631174
1.297556e-05
-1.204143e-05
-9.768663e-05
-0.001532387
0.0003598267
0.0004557877
0.0004504081
0.0003691356
1.579871e-05
-1.444585e-05
-9.910598e-05
-0.001558627
0.0003656294
0.0004635798
0.0004580354
0.0003763161
1.881318e-05
-1.705388e-05
-0.0001008795
-0.001589772
0.0003725684
0.0004728714
0.0004671366
0.0003847617
2.211797e-05
-1.999447e-05
-0.000102911
-0.001626299
0.0003806864
0.000483796
0.000477842
0.0003945842
2.576184e-05
-2.335342e-05
-0.0001049216
-0.001669004
0.0003900675
0.0004965343
0.0004903307
-0.0004826412
-0.02356185
-0.00114188
0.0007202546
-0.001003087
0.0005800613
-0.0002952686
0.005707634
0.005852825
0.006841206
0.006782741
-0.0005732918
-0.02358438
-0.001855155
0.005953482
0.005916788
0.006849957
0.006809961
-0.0005871105
-0.02365204
-0.002082031
0.006016834
0.005978833
0.006883957
0.006868269
-0.0006601704
-0.02384895
-0.002114049
0.006087916
0.006048244
0.006951723
0.006948174
-0.000771791
-0.02414594
-0.002152623
0.006179232
0.006132569
0.007049452
0.007048929
-0.0009081655
-0.02454486
-0.002181051
0.00628814
0.006232211
0.007170625
0.007171306
-0.001062235
-0.02502661
-0.002219459
0.006416844
0.006350388
0.007315892
0.007317008
-0.001235346
-0.02559635
-0.002265079
0.006567855
0.00648981
0.007487424
0.007489454
-0.02625357
-0.002321708
0.006742946
0.007686675
-0.001429535
0.006651298
0.007688547
-0.0003938314
-0.02314231
-0.0002392837
0.001032692
-0.0009467266
0.0004920886
-0.0003644764
-0.0005826723
-0.02286538
-0.0005301638
-0.0007678559
-0.02288113
-0.0005857283
-0.0009521418
-0.02301465
-0.0006500092
-0.001156486
-0.02328295
-0.000658642
-0.001376089
-0.02364979
-0.0006754643
-0.001614254
-0.02410452
-0.0006839201
-0.001873917
-0.02463962
-0.0006970724
-0.02525681
-0.0007119686
-0.002158711
-0.0006058924
-0.02285168
-6.190847e-05
0.001056845
-0.0008904203
0.0005371897
-0.0003264373
-0.0007983818
-0.02257398
-9.890652e-05
-0.001028359
-0.02255361
-9.754254e-05
-0.001271854
-0.02266234
-0.000108822
-0.001538355
-0.02290593
-0.0001105198
-0.001825951
-0.02324984
-0.0001123493
-0.002138199
-0.02367981
-0.0001124617
-0.002477469
-0.02418662
-0.0001137224
-0.02477047
-0.0001155489
-0.002848257
-0.0006120166
-0.02251944
-2.82404e-05
0.001023151
-0.000881097
0.000506252
-0.0003402888
-0.0009067394
-0.02223043
-4.882765e-05
-0.001220527
-0.02219973
-4.009238e-05
-0.001541313
-0.02228868
-5.286602e-05
-0.001880928
-0.02251414
-5.217469e-05
-0.002239776
-0.0228353
-5.569259e-05
-0.002624584
-0.02323983
-5.517534e-05
-0.003038998
-0.02371621
-5.599578e-05
-0.02426383
-5.660723e-05
-0.003489032
-0.0007314996
-0.02214667
-2.382101e-05
0.001021863
-0.0008491501
0.0005261732
-0.0003163433
-0.001075125
-0.02186058
-2.622722e-05
-0.001443721
-0.0218272
-3.93798e-06
-0.001822348
-0.02190449
-5.571217e-06
-0.002222078
-0.02211253
-1.882706e-06
-0.002643654
-0.02241144
-2.283754e-06
-0.003094032
-0.02278865
-7.945117e-07
-0.003577233
-0.02323257
-4.390165e-07
-0.02374083
-3.206023e-07
-0.004099909
-0.000806745
-0.02171761
-2.86653e-05
0.00101213
-0.0008248214
0.0005251596
-0.0003061189
-0.001211434
-0.02143171
-2.418001e-05
-0.001639106
-0.02139288
-6.647816e-06
-0.002077326
-0.02145852
-7.74542e-06
-0.002536763
-0.02164893
-4.163555e-06
-0.003018624
-0.02192495
-4.629069e-06
-0.003530367
-0.02227362
-3.289248e-06
-0.004076572
-0.02268301
-3.352079e-06
-0.02314969
-3.646032e-06
-0.004664067
-0.0009061078
-0.02123994
-3.250314e-05
0.001005533
-0.0007948594
0.0005370335
-0.0002867589
-0.001355593
-0.0209557
-2.652151e-05
-0.001832432
-0.02091171
-4.331354e-06
-0.002321492
-0.02096635
-3.114048e-06
-0.002833381
-0.02113878
1.742383e-06
-0.003368899
-0.0213916
2.168681e-06
-0.003935709
-0.02171073
3.91567e-06
-0.004538177
-0.02208461
4.06208e-06
-0.02250856
3.712914e-06
-0.005183012
-0.0009889971
-0.02071455
-3.634265e-05
0.0009951786
-0.0007662354
0.0005421673
-0.0002711666
-0.001484284
-0.02043219
-2.823083e-05
-0.002008138
-0.02038186
-5.990241e-06
-0.00254485
-0.02042517
-4.46439e-06
-0.003104878
-0.02057917
4.142206e-07
-0.003689111
-0.02080836
9.946629e-07
-0.004304897
-0.02109767
2.732387e-06
-0.004956677
-0.02143572
2.888864e-06
-0.02181679
2.327042e-06
-0.005650778
-0.001071064
-0.02014573
-4.022789e-05
0.0009837407
-0.0007358554
0.0005484063
-0.0002538144
-0.001605826
-0.01986605
-3.137147e-05
-0.002171362
-0.01980954
-6.791532e-06
-0.0027503
-0.01984143
-4.797915e-06
-0.003353
-0.01997713
6.636791e-07
-0.003980099
-0.02018273
1.465756e-06
-0.004638829
-0.02044234
3.401599e-06
-0.005333201
-0.02074495
3.608e-06
-0.02108411
2.989425e-06
-0.006068869
-0.001144208
-0.01953737
-4.312646e-05
0.0009696273
-0.0007054215
0.0005523125
-0.0002375473
-0.001715364
-0.01926094
-3.395319e-05
-0.002318868
-0.01919832
-7.716233e-06
-0.002935768
-0.01921889
-5.640786e-06
-0.003576427
-0.01933654
6.575478e-08
-0.004241286
-0.01951882
9.483263e-07
-0.004937104
-0.01974949
2.957742e-06
-0.005667667
-0.02001755
3.162676e-06
-0.02031638
2.43897e-06
-0.006437837
-0.001211174
-0.0188934
-4.578467e-05
0.000953608
-0.0006742785
0.0005549235
-0.0002212701
-0.001814364
-0.01862107
-3.668254e-05
-0.002451562
-0.01855265
-8.463585e-06
-0.003101894
-0.01856227
-6.295096e-06
-0.003775849
-0.01866235
-2.356795e-07
-0.004473387
-0.01882195
6.692009e-07
-0.005201029
-0.01902461
2.767212e-06
-0.005961766
-0.01925981
2.993185e-06
-0.01952026
2.215071e-06
-0.006760107
-0.001270647
-0.018218
-4.770792e-05
0.0009354271
-0.0006428665
0.0005557947
-0.0002053949
-0.001902185
-0.01795043
-3.910316e-05
-0.002569199
-0.01787667
-8.96715e-06
-0.003248886
-0.01787576
-6.820171e-06
-0.003951815
-0.01795895
-4.69246e-07
-0.004677439
-0.01809677
4.435034e-07
-0.005431854
-0.01827279
2.5978e-06
-0.006217617
-0.01847687
2.824415e-06
-0.0187015
1.994263e-06
-0.007038368
-0.001323197
-0.01751508
-4.951121e-05
0.0009155924
-0.0006109974
0.0005550933
-0.0001899049
-0.001979271
-0.01725301
-4.134439e-05
-0.002672243
-0.01717431
-9.390118e-06
-0.003377304
-0.01716344
-7.255844e-06
-0.004105163
-0.01723046
-6.258352e-07
-0.004854695
-0.01734754
3.050793e-07
-0.005631556
-0.01749847
2.533941e-06
-0.006437709
-0.01767349
2.776364e-06
-0.01786514
1.900847e-06
-0.007275967
-0.001368798
-0.01678875
-5.0909e-05
0.0008938811
-0.0005787799
0.0005530761
-0.0001747957
-0.002045791
-0.01653301
-4.300829e-05
-0.002761079
-0.01644967
-9.355039e-06
-0.003487954
-0.01642936
-7.202174e-06
-0.004237152
-0.01648096
-3.075251e-07
-0.005006933
-0.01657841
6.471985e-07
-0.005802456
-0.01670583
2.881445e-06
-0.006624903
-0.01685414
3.089073e-06
-0.01701556
2.142591e-06
-0.007476623
-0.001407435
-0.01604308
-5.17314e-05
0.0008702173
-0.000546177
0.0005494082
-0.0001599508
-0.002102001
-0.01579372
-4.472946e-05
-0.002836193
-0.01570617
-9.304618e-06
-0.003581494
-0.01567691
-7.153093e-06
-0.004348807
-0.01571366
1.616836e-08
-0.005135594
-0.01579266
1.034003e-06
-0.005946661
-0.01589811
3.356158e-06
-0.006782339
-0.01602206
3.601735e-06
-0.01615649
2.65645e-06
-0.007644071
-0.001438628
-5.260296e-05
0.0008451967
-0.0005134774
0.0005437413
-0.0001456889
-0.01528162
-0.002147859
-4.485677e-05
-0.01503963
-0.00289778
-8.278965e-06
-0.01494797
-0.00365873
-5.891094e-06
-0.01491007
-0.004441499
1.603499e-06
-0.01493249
-0.005242918
2.596276e-06
-0.01499383
-0.006067034
4.81104e-06
-0.01507881
-0.006913347
4.960271e-06
-0.01518071
3.880331e-06
-0.01529115
-0.007782565
4.959225e-10
-7.81483e-10
-3.492633e-09
1.343462e-09
8.584199e-10
7.84136e-10
5.031102e-10
6.007256e-10
-4.258538e-08
1.666786e-08
5.436883e-09
-2.013761e-10
-2.304238e-09
1.192259e-10
-1.1331e-09
5.202817e-09
7.182454e-09
5.598696e-09
7.033232e-09
-6.777186e-08
2.396836e-08
7.342465e-09
1.6058e-10
-3.97037e-09
1.193584e-10
-1.659719e-09
-1.074284e-07
3.696663e-08
8.92534e-09
1.228701e-09
-5.764666e-09
1.029972e-09
-1.943939e-09
-1.678711e-07
5.705819e-08
1.149511e-08
2.153542e-09
-8.341188e-09
1.730692e-09
-2.551937e-09
-2.615888e-07
8.907744e-08
1.522308e-08
3.854527e-09
-1.218377e-08
2.9438e-09
-3.593041e-09
-4.068832e-07
1.394913e-07
1.954348e-08
6.162616e-09
-1.78575e-08
4.925037e-09
-4.734741e-09
2.185133e-07
2.52289e-08
1.031911e-08
-2.657003e-08
8.095744e-09
-5.604944e-09
-6.349357e-07
-4.640376e-10
-5.775742e-10
-1.023448e-09
3.36938e-09
7.496684e-10
-5.683058e-10
-5.611492e-10
-7.203963e-10
-2.282678e-08
2.393568e-08
5.10622e-09
-2.944269e-09
-3.948283e-09
-2.778857e-09
-3.867435e-09
2.49298e-09
2.735356e-09
2.696426e-09
2.614424e-09
-4.097385e-08
3.251547e-08
6.495842e-09
-6.711619e-08
4.725911e-08
7.849496e-09
-1.059608e-07
7.18937e-08
1.010166e-08
-1.651929e-07
1.116182e-07
1.268211e-08
-2.570284e-07
1.750989e-07
1.702649e-08
-3.99312e-07
2.749103e-07
2.144397e-08
4.320141e-07
2.859527e-08
-6.224237e-07
-5.94584e-09
2.230445e-08
4.572946e-09
-8.439622e-10
-1.052775e-09
2.005939e-10
-8.708301e-10
-3.917885e-09
-4.971352e-09
-3.687115e-09
-5.281231e-09
-1.346643e-08
2.926935e-08
5.184616e-09
-2.288977e-08
3.922582e-08
6.529331e-09
-3.739757e-08
5.852855e-08
8.187769e-09
-5.829121e-08
8.87483e-08
1.055325e-08
-9.002372e-08
1.383026e-07
1.376958e-08
-1.385469e-07
2.173319e-07
1.848926e-08
-2.134066e-07
3.421841e-07
2.43425e-08
5.382966e-07
3.324153e-08
-3.300166e-07
8.226097e-10
2.001537e-08
4.853632e-09
-1.094e-09
-7.112461e-10
-9.163941e-12
-5.553393e-10
8.629167e-10
2.678999e-08
5.628141e-09
1.278523e-09
3.576381e-08
6.085678e-09
2.753426e-09
5.339417e-08
6.970376e-09
6.402188e-09
8.121313e-08
8.454928e-09
1.341932e-08
1.271031e-07
9.831489e-09
2.383945e-08
1.987764e-07
1.210547e-08
4.199307e-08
3.132927e-07
1.302682e-08
4.921244e-07
1.411715e-08
7.246818e-08
3.530753e-09
3.062782e-09
4.596088e-09
-1.230936e-09
-6.38476e-10
-2.398067e-10
-4.656084e-10
4.369629e-09
3.600766e-09
3.949693e-09
1.225537e-08
1.519304e-08
5.332861e-09
2.403824e-08
1.960635e-08
6.919347e-09
4.046804e-08
3.050264e-08
8.357573e-09
6.583898e-08
4.746627e-08
1.123227e-08
1.073102e-07
7.471434e-08
1.411288e-08
1.72052e-07
1.186036e-07
1.858284e-08
2.762989e-07
1.882002e-07
2.257141e-08
2.960876e-07
2.98875e-08
4.429257e-07
-1.078069e-09
1.197001e-09
1.09075e-09
3.877178e-10
6.733891e-10
5.899328e-10
4.443026e-10
2.355612e-08
4.425932e-10
7.222544e-09
-2.779892e-09
-2.748307e-09
-2.834154e-09
-2.366812e-09
-2.13041e-09
-1.52793e-09
-1.451741e-09
-1.30252e-09
5.895159e-10
2.098503e-10
1.416596e-09
4.055996e-08
-5.793865e-10
6.54055e-09
-2.734146e-09
-1.957557e-09
-1.661686e-09
-1.244374e-09
6.708039e-10
3.148367e-09
8.392583e-10
6.704374e-08
6.315066e-10
8.951733e-09
-3.387457e-09
-2.612621e-09
-2.286098e-09
-1.314648e-09
1.336739e-09
-1.324957e-11
1.982345e-09
1.084437e-07
1.085572e-09
1.024387e-08
-4.506339e-09
-2.874892e-09
-3.096532e-09
-1.324827e-09
2.699346e-09
9.985717e-10
3.34513e-09
1.761536e-07
1.947177e-09
1.188809e-08
-6.690952e-09
-3.97776e-09
-4.581538e-09
-1.729457e-09
4.594412e-09
1.401877e-09
4.979405e-09
2.81641e-07
3.780472e-09
1.31467e-08
-9.477759e-09
-5.190942e-09
-6.045336e-09
-1.794804e-09
8.107403e-09
2.519017e-09
9.046325e-09
4.518756e-07
6.207643e-09
1.195378e-08
-1.404185e-08
-6.812482e-09
-8.876473e-09
-1.815848e-09
1.358465e-08
3.89113e-09
1.528231e-08
9.57716e-09
9.459953e-09
-2.050176e-08
-7.887178e-09
-1.254791e-08
-7.941872e-10
2.249652e-08
4.978707e-09
2.429009e-08
7.206571e-07
-1.473026e-09
-2.400953e-09
3.19349e-09
1.453876e-09
-5.879364e-10
-4.023809e-09
5.532943e-09
-1.004774e-09
-3.159378e-09
-6.192953e-09
8.559464e-09
1.368298e-09
-4.483437e-09
-9.690129e-09
1.398165e-08
1.426728e-09
-6.3153e-09
-1.630662e-08
2.275117e-08
2.248755e-09
-9.238286e-09
-2.641845e-08
3.661091e-08
3.406758e-09
-1.300293e-08
-4.321903e-08
5.895268e-08
4.202844e-09
-1.729444e-08
-7.015481e-08
9.367519e-08
4.317898e-09
-2.947791e-08
-1.117192e-07
1.081238e-08
1.477842e-07
-1.609634e-08
0.0006486608
0.0006585094
-0.0002838992
-0.006216902
-0.0003029725
0.0007695171
-3.430716e-05
-2.001811e-05
-3.810907e-05
0.0007770185
-4.006962e-05
0.0008209863
0.0001013828
-5.852683e-05
-0.006296481
-0.0008230118
0.0008228745
-1.476892e-05
-7.051941e-06
0.0008188247
1.012322e-05
-1.731962e-05
-0.006380086
-0.0009006279
0.000823166
-1.662694e-05
-1.342551e-05
0.0008276617
2.982821e-05
-3.111351e-05
-0.006443792
-0.0009307979
0.0008300484
-1.64002e-05
-1.340941e-05
0.0008361784
3.614011e-05
-4.049502e-05
-0.006537318
-0.0009305426
0.0008381857
-1.699239e-05
-1.40643e-05
0.0008483977
4.794808e-05
-5.093035e-05
-0.006648821
-0.0009450286
0.0008500252
-1.679266e-05
-1.385646e-05
0.0008629711
5.73152e-05
-6.080917e-05
-0.006782472
-0.0009593285
0.0008642619
-1.671076e-05
-1.381093e-05
0.0008804371
6.792216e-05
-7.124748e-05
-0.006939675
-0.0009770845
0.0008810733
-1.69503e-05
-1.418716e-05
0.0008999474
7.85622e-05
-0.007119165
-0.0009959117
0.0009000269
-1.81112e-05
-1.519324e-05
-8.251606e-05
0.0002123946
0.005117324
-0.0001559004
-0.004940651
-0.0001491539
8.638548e-05
-0.0001534872
-1.691159e-05
-0.0006371251
-0.02637931
-0.0004018573
0.006589217
0.00664143
0.00644893
0.006460324
0.000282272
-0.0002546737
0.0003325694
-0.0002236602
-0.0005509226
-0.02711317
-0.0008317305
0.006566147
0.006580203
0.006439846
0.006417341
-0.0006453974
-0.02728295
-0.001032756
0.006662797
0.006666655
0.00649722
0.006501477
-0.0007387763
-0.02756058
-0.001076632
0.006737604
0.006743197
0.006565598
0.006570139
-0.0008749901
-0.02790464
-0.001125441
0.006837562
0.006846366
0.006660412
0.00666933
-0.00103101
-0.0283682
-0.001137617
0.006954051
0.006965885
0.006774286
0.006786567
-0.001205501
-0.02892523
-0.001160402
0.007094016
0.007108332
0.006911823
0.006926488
-0.00139692
-0.02958612
-0.001185391
0.007258775
0.007275238
0.007073385
0.00709045
-0.03034872
0.007448462
0.007259221
-0.001609848
0.007468541
0.007280793
-0.001217081
0.0002287796
0.005204342
-0.0002058687
-0.004971356
-0.0002215167
0.0001233465
-0.0001549709
-2.755795e-06
-0.0004203132
-0.02624451
-0.0001876141
0.0002602728
-0.0002172028
0.0002334866
-4.270703e-05
-0.0006301113
-0.0267871
-0.0006464285
-0.000872102
-0.02685058
-0.0007761042
-0.00110308
-0.02703825
-0.0009413615
-0.001344636
-0.0273502
-0.0009715251
-0.001601693
-0.02777686
-0.001009753
-0.001877986
-0.02830813
-0.001024719
-0.002178576
-0.0289365
-0.001046103
-0.02966332
-0.001068665
-0.002507277
0.0002436364
0.005041501
-0.0001932782
-0.004898436
-0.0002082633
0.0001474747
-0.0001471191
1.448543e-05
-0.0006223821
-0.02587748
-0.0001258047
0.0002901737
-0.000161398
0.0002176551
-2.718382e-05
-0.0009200106
-0.02635882
-0.0002295609
-0.001190586
-0.02640024
-0.0002773113
-0.001479603
-0.02653516
-0.0003228925
-0.001789188
-0.0268091
-0.0003420359
-0.002125057
-0.02720095
-0.0003523899
-0.002489608
-0.0276999
-0.0003561397
-0.00288531
-0.02829366
-0.0003608631
-0.02897986
-0.0003671225
-0.00331719
0.0002432369
0.004973383
-0.000188091
-0.004858441
-0.0001989076
0.0001520294
-0.0001427789
1.956942e-05
-0.0006868082
-0.02548133
-4.827847e-05
0.000299665
-0.000148828
0.0001986894
-3.883306e-05
-0.00105743
-0.02591571
-0.0001213181
-0.001427542
-0.02592598
-0.0001442413
-0.001804396
-0.0260297
-0.0001814711
-0.002199282
-0.026275
-0.0001913893
-0.002617249
-0.02663625
-0.0002024243
-0.003065485
-0.02710286
-0.0002039874
-0.0035485
-0.0276593
-0.0002073386
-0.02830112
-0.0002110187
-0.004072829
0.0002417523
0.004947016
-0.0002161831
-0.004789223
-0.0002160639
0.0001513264
-0.0001393283
2.070362e-05
-0.0008051573
-0.02504042
-4.286913e-05
0.000315813
-0.0001316027
0.0002169076
-1.782286e-05
-0.00125065
-0.02544061
-5.583269e-05
-0.001678905
-0.02544539
-5.62701e-05
-0.002123222
-0.02552866
-6.229311e-05
-0.002586936
-0.02575097
-6.21935e-05
-0.003077863
-0.02608371
-6.389073e-05
-0.003602299
-0.02651709
-6.212132e-05
-0.004165538
-0.02703422
-6.227827e-05
-0.02762861
-6.365253e-05
-0.004774717
0.0002386392
0.004837061
-0.0002041501
-0.00470659
-0.0002019106
0.0001505706
-0.0001362449
2.262438e-05
-0.0009197682
-0.02454637
-2.773618e-05
0.0003299718
-0.0001159344
0.0002206092
-9.850672e-06
-0.001415328
-0.02492809
-4.11409e-05
-0.001910321
-0.02491841
-3.863619e-05
-0.002420639
-0.02498573
-4.035582e-05
-0.002953009
-0.02518591
-3.684927e-05
-0.003513076
-0.02549118
-3.709269e-05
-0.004108321
-0.02589055
-3.458325e-05
-0.00474432
-0.02636686
-3.470926e-05
-0.02691171
-3.644655e-05
-0.005428416
0.0002348678
0.004768866
-0.0002205568
-0.004614228
-0.0002067818
0.0001480712
-0.0001333817
2.314324e-05
-0.001025592
-0.02400111
-2.826445e-05
0.0003388046
-0.0001026859
0.0002347367
5.23112e-06
-0.00158131
-0.02436552
-3.337751e-05
-0.002131549
-0.02434653
-2.597195e-05
-0.002700496
-0.02439982
-2.007911e-05
-0.003292734
-0.02457867
-1.325892e-05
-0.003914795
-0.02485669
-1.026237e-05
-0.004573524
-0.02522154
-6.370596e-06
-0.005274656
-0.02565603
-5.634528e-06
-0.02615046
-7.280562e-06
-0.006024912
0.000231122
0.004657445
-0.0002193292
-0.004509052
-0.0002011706
0.0001461276
-0.0001297897
2.46472e-05
-0.001126135
-0.02340368
-2.564788e-05
0.000350336
-8.892411e-05
0.0002425692
1.403115e-05
-0.00173278
-0.02375312
-3.398557e-05
-0.002336527
-0.02372381
-2.496223e-05
-0.002959491
-0.02376353
-1.778849e-05
-0.003607214
-0.02392101
-9.527432e-06
-0.004285321
-0.02417199
-5.60213e-06
-0.005000917
-0.02450211
-1.099453e-06
-0.005759016
-0.02489496
-8.528951e-08
-0.02533899
-2.030937e-06
-0.006566131
0.0002268805
0.004550566
-0.0002240298
-0.004396557
-0.0001995539
0.0001434207
-0.0001261409
2.541393e-05
-0.001218558
-0.02275826
-2.610542e-05
0.000357761
-7.49792e-05
0.0002522147
2.402478e-05
-0.001873988
-0.02309313
-3.593175e-05
-0.002525473
-0.02305449
-2.462446e-05
-0.00319707
-0.02308103
-1.57044e-05
-0.003893651
-0.02321757
-6.192473e-06
-0.004621426
-0.02344157
-1.180279e-06
-0.005386567
-0.02373752
3.954869e-06
-0.006194094
-0.02408909
5.26583e-06
-0.02448411
3.20367e-06
-0.007049183
0.0002223767
0.004430064
-0.000225491
-0.004275774
-0.0001962772
0.0001408166
-0.0001221153
2.640017e-05
-0.001302005
-0.02206909
-2.593324e-05
0.0003648457
-6.206638e-05
0.0002595609
3.32995e-05
-0.002001791
-0.02238853
-3.876127e-05
-0.002696825
-0.02234124
-2.593149e-05
-0.003412112
-0.02235481
-1.657251e-05
-0.004152377
-0.022471
-6.236522e-06
-0.00492373
-0.02266838
-8.855993e-07
-0.005731919
-0.02293097
4.596711e-06
-0.006581422
-0.02324244
6.014931e-06
-0.02359049
3.792047e-06
-0.007476403
0.0002174838
0.004303467
-0.0002271247
-0.004148024
-0.0001933306
0.0001379881
-0.000117887
2.742679e-05
-0.001377466
-0.02134046
-2.626176e-05
0.000370315
-4.984953e-05
0.0002663415
4.250062e-05
-0.002117048
-0.02164389
-4.174087e-05
-0.002850822
-0.02158867
-2.725905e-05
-0.003604663
-0.02158979
-1.747528e-05
-0.004383275
-0.02168621
-6.421052e-06
-0.005192502
-0.02185779
-6.966587e-07
-0.006037554
-0.02208822
5.070357e-06
-0.006921995
-0.02236158
6.577335e-06
-0.02266491
4.226326e-06
-0.007849587
0.0002121659
0.004169657
-0.0002283973
-0.004012821
-0.000190555
0.000134938
-0.0001134992
2.851112e-05
-0.001444251
-0.0205769
-2.639763e-05
0.0003742107
-3.828762e-05
0.0002719203
5.154213e-05
-0.002219364
-0.02086351
-4.436942e-05
-0.002987361
-0.02080121
-2.843009e-05
-0.003775108
-0.0207904
-1.845764e-05
-0.00458716
-0.02086783
-6.795632e-06
-0.005428799
-0.0210148
-9.045279e-07
-0.006304951
-0.02121452
5.050956e-06
-0.007218499
-0.02145179
6.575292e-06
-0.0217135
4.088944e-06
-0.008172004
0.0002065086
0.004027997
-0.0002282505
-0.003871615
-0.0001868975
0.0001316916
-0.0001090015
2.956761e-05
-0.001503729
-0.01978243
-2.668216e-05
0.0003773113
-2.724993e-05
0.0002762804
6.008018e-05
-0.002309191
-0.02005235
-4.704959e-05
-0.003107
-0.01998331
-2.948321e-05
-0.003924086
-0.01996118
-1.939285e-05
-0.004764812
-0.0200206
-7.129616e-06
-0.005634193
-0.02014406
-1.05249e-06
-0.006536358
-0.02031496
5.135456e-06
-0.007473625
-0.0205185
6.755053e-06
-0.02074202
4.226999e-06
-0.008447425
0.0002004403
0.003881385
-0.0002277893
-0.00372528
-0.0001832704
0.000128167
-0.0001044502
3.079782e-05
-0.00155525
-0.01896173
-2.641059e-05
0.0003792928
-1.67159e-05
0.0002796214
6.78551e-05
-0.002386631
-0.01921526
-4.871901e-05
-0.00321005
-0.01913982
-2.942874e-05
-0.004052365
-0.01910703
-1.903587e-05
-0.004917695
-0.01914936
-6.214707e-06
-0.005810565
-0.01925061
6.725227e-08
-0.006734466
-0.01939444
6.264218e-06
-0.007690599
-0.01956715
7.87304e-06
-0.01975561
5.189796e-06
-0.008680057
0.0001940591
0.003730481
-0.0002281147
-0.00357198
-0.0001811159
0.0001243383
-9.976224e-05
3.209406e-05
-0.001597759
-0.01812008
-2.67312e-05
0.0003789678
-6.792057e-06
0.0002822667
7.6674e-05
-0.002451986
-0.01835558
-5.017756e-05
-0.003297138
-0.01827481
-2.916676e-05
-0.004160733
-0.01823201
-1.858039e-05
-0.005047155
-0.01825792
-5.007655e-06
-0.005959737
-0.01833842
1.421445e-06
-0.006901691
-0.01845708
7.94781e-06
-0.007873331
-0.0186016
9.692817e-06
-0.01875884
7.03301e-06
-0.008874482
-1.915223e-06
-3.840418e-05
-5.137412e-05
0.0001118784
0.003782519
-0.003802704
-0.001634436
-2.538732e-05
-0.01726071
8.33163e-05
0.0003794633
0.0002831489
-0.002505236
-4.975534e-05
-0.01747988
-0.003368528
-2.611766e-05
-0.01739368
-0.004250413
-1.464115e-05
-0.01734138
-0.005154809
-2.299994e-07
-0.01735169
-0.006084554
6.260728e-06
-0.01741234
-0.007041743
1.246583e-05
-0.01750754
-0.008025825
1.396833e-05
-0.01762653
1.094771e-05
-0.01775595
-0.009035782
5.016829e-10
-1.163159e-09
-3.323627e-09
1.273923e-09
1.263766e-09
7.544586e-10
4.814001e-10
4.553547e-10
-4.131451e-08
1.606554e-08
7.197722e-09
4.968161e-09
6.693233e-09
5.426362e-09
6.873324e-09
-6.636311e-08
2.342155e-08
9.254225e-09
-1.057336e-07
3.70462e-08
1.148407e-08
-1.663376e-07
5.727648e-08
1.515764e-08
-2.601399e-07
9.019809e-08
1.946392e-08
-4.063877e-07
1.413464e-07
2.533443e-08
2.22482e-07
3.336153e-08
-6.36286e-07
-5.319584e-10
-1.148853e-09
-8.404367e-10
3.297288e-09
1.294668e-09
-5.186775e-10
-5.264729e-10
-7.72506e-10
-2.129819e-08
2.337949e-08
7.197446e-09
-2.872968e-09
-4.10297e-09
-2.743016e-09
-3.735635e-09
2.152558e-09
2.583902e-09
2.433919e-09
2.591522e-09
-3.906117e-08
3.20412e-08
8.530896e-09
-6.508928e-08
4.692243e-08
1.078846e-08
-1.03193e-07
7.191239e-08
1.375481e-08
-1.621027e-07
1.117973e-07
1.778801e-08
-2.526415e-07
1.753047e-07
2.340316e-08
-3.939579e-07
2.751748e-07
3.014565e-08
4.326489e-07
4.044513e-08
-6.153066e-07
-4.38301e-09
2.23553e-08
5.836951e-09
-4.245833e-09
-5.151541e-09
-3.720017e-09
-5.230623e-09
-1.166145e-08
2.897209e-08
6.95447e-09
-2.072166e-08
3.906477e-08
8.964748e-09
-3.430371e-08
5.796469e-08
1.121537e-08
-5.412353e-08
8.833049e-08
1.482919e-08
-8.436704e-08
1.377095e-07
1.90498e-08
-1.308443e-07
2.161244e-07
2.550585e-08
-2.030213e-07
3.398615e-07
3.286659e-08
5.350781e-07
4.441425e-08
-3.159647e-07
8.715838e-10
2.043843e-08
6.230472e-09
2.135707e-09
2.585925e-08
7.910942e-09
4.833343e-09
3.372686e-08
8.89581e-09
9.363221e-09
4.920891e-08
1.165093e-08
1.680678e-08
7.565778e-08
1.441775e-08
2.85544e-08
1.184494e-07
1.835079e-08
4.743569e-08
1.868543e-07
2.324421e-08
7.773719e-08
2.942717e-07
2.880366e-08
4.639723e-07
3.681828e-08
1.265134e-07
4.718525e-09
3.293394e-09
5.470983e-09
3.989033e-09
3.978355e-09
4.009712e-09
1.60625e-08
1.310081e-08
6.71813e-09
3.058842e-08
1.597582e-08
1.001584e-08
5.07844e-08
2.480031e-08
1.250113e-08
8.225384e-08
3.878585e-08
1.669889e-08
1.311761e-07
6.173406e-08
2.181898e-08
2.089138e-07
9.79866e-08
2.911341e-08
3.310042e-07
1.556461e-07
3.83795e-08
2.467395e-07
5.173642e-08
5.252383e-07
-1.417544e-09
1.275181e-09
1.389367e-09
5.526615e-10
4.321863e-10
7.210276e-10
4.681803e-10
2.027989e-08
-5.762079e-11
1.177128e-08
-2.897168e-09
-2.329543e-09
-2.554712e-09
-2.064011e-09
-1.35287e-09
5.166788e-10
-1.234987e-09
3.479074e-08
7.715239e-09
5.703366e-08
1.111739e-08
9.158385e-08
1.401243e-08
1.463754e-07
1.824579e-08
2.330534e-07
2.358401e-08
3.699989e-07
2.933511e-08
3.844204e-08
5.869217e-07
-1.860425e-09
-1.528062e-09
2.019737e-09
1.387584e-09
0.0008269938
0.0001141883
-0.0007865001
-0.006254758
-5.932996e-05
0.0008274202
-5.086529e-05
-4.489508e-05
-0.0005085169
-0.02584652
-0.0005037974
0.0009552994
0.001486494
-0.0002799406
-0.0002478308
0.0009405359
-0.0003202527
0.001453129
-0.0003101826
-0.0001259625
-0.02606661
-0.0006298785
0.001538502
0.001576193
-0.0002904426
-0.000277277
-0.0002054246
-0.0264641
-0.0007956335
0.001635472
0.001628457
-0.0002463945
-0.0002434298
-0.0002409667
-0.02683812
-0.0007878034
0.001641537
0.001631229
-0.0002533364
-0.0002547362
-0.0002999375
-0.02729836
-0.0008056467
0.001671321
0.001657428
-0.0002524736
-0.0002563434
-0.0003525806
-0.02784459
-0.0008142778
0.001699919
0.001682592
-0.0002580126
-0.0002632027
-0.02848666
-0.0008278339
0.001735905
0.00171505
-0.0002632349
-0.0002693703
-0.0004135114
-0.0009910785
-0.02244985
-0.0003184406
0.005310386
0.006386226
0.005554121
0.006357392
0.000505343
0.0004823104
-0.0007785203
-5.789369e-05