/*--------------------------------*- C++ -*----------------------------------*\
  =========                 |
  \\      /  F ield         | OpenFOAM: The Open Source CFD Toolbox
   \\    /   O peration     | Website:  https://openfoam.org
    \\  /    A nd           | Version:  7
     \\/     M anipulation  |
\*---------------------------------------------------------------------------*/
FoamFile
{
    version     2.0;
    format      ascii;
    class       volVectorField;
    location    "0.06";
    object      U;
}
// * * * * * * * * * * * * * * * * * * * * * * * * * * * * * * * * * * * * * //

dimensions      [0 1 -1 0 0 0 0];

internalField   nonuniform List<vector> 
77997
(
(-2.533023e-07 9.517484e-08 3.538665e-08)
(-5.982258e-07 1.613952e-07 7.035292e-08)
(-1.201211e-06 1.404596e-07 5.339617e-08)
(-2.054028e-06 2.107652e-07 4.954103e-08)
(-3.214316e-06 3.462505e-07 1.059723e-07)
(-4.923951e-06 5.542279e-07 1.77577e-07)
(-7.603979e-06 8.850672e-07 2.778931e-07)
(-1.168221e-05 1.338568e-06 3.889203e-07)
(-1.818812e-05 1.885049e-06 4.048734e-07)
(-1.665811e-08 4.110366e-07 3.576521e-08)
(-3.337034e-07 5.106187e-07 4.368631e-08)
(-6.432831e-07 6.703267e-07 7.037031e-08)
(-1.108631e-06 9.636455e-07 8.534394e-08)
(-1.795601e-06 1.444168e-06 9.838728e-08)
(-2.860223e-06 2.254791e-06 1.358525e-07)
(-4.463554e-06 3.518415e-06 1.835049e-07)
(-6.944793e-06 5.534655e-06 2.559818e-07)
(-1.080155e-05 8.609175e-06 3.303779e-07)
(-2.589139e-08 5.587413e-07 4.930018e-09)
(-2.082913e-07 6.835803e-07 2.827551e-08)
(-3.74277e-07 9.190083e-07 6.298718e-08)
(-6.364965e-07 1.362648e-06 6.800683e-08)
(-1.024728e-06 2.064335e-06 1.022407e-07)
(-1.621561e-06 3.225296e-06 1.165014e-07)
(-2.531778e-06 5.050871e-06 1.909692e-07)
(-3.921212e-06 7.954148e-06 2.614794e-07)
(-6.114604e-06 1.253475e-05 3.853787e-07)
(2.996932e-08 6.422922e-07 3.592283e-08)
(3.006251e-08 6.890189e-07 6.678125e-08)
(2.32106e-08 9.584154e-07 4.085904e-08)
(3.960163e-08 1.430939e-06 5.975609e-08)
(8.072594e-08 2.190765e-06 9.35975e-08)
(1.290777e-07 3.463913e-06 1.560814e-07)
(2.64402e-07 5.377702e-06 4.24844e-08)
(5.447535e-07 8.442926e-06 1.24583e-08)
(9.878296e-07 1.325988e-05 -6.122713e-08)
(1.891234e-08 5.372202e-07 1.964322e-08)
(2.022974e-07 5.570253e-07 3.328195e-08)
(3.693378e-07 7.737312e-07 3.060999e-08)
(6.022054e-07 1.15333e-06 4.117013e-08)
(9.712355e-07 1.774723e-06 4.658296e-08)
(1.572005e-06 2.787234e-06 4.699926e-08)
(2.51877e-06 4.454805e-06 5.163098e-08)
(4.014701e-06 7.088746e-06 4.00258e-08)
(6.369878e-06 1.13737e-05 -2.698493e-08)
(4.840243e-08 3.940737e-07 2.301255e-08)
(2.014095e-07 3.414075e-07 1.454579e-08)
(3.728935e-07 4.551018e-07 -1.166715e-08)
(7.19988e-07 6.588018e-07 -4.902352e-08)
(1.150013e-06 9.871421e-07 -9.562264e-08)
(2.012191e-06 1.586059e-06 -2.107205e-07)
(3.197521e-06 2.452952e-06 -2.570202e-07)
(5.20305e-06 3.923058e-06 -3.848847e-07)
(8.381137e-06 6.385859e-06 -6.332083e-07)
(1.325062e-05 1.034794e-05 -1.042021e-06)
(-9.407213e-08 -8.386558e-08 -1.899749e-08)
(3.085904e-07 -3.547743e-08 3.547003e-08)
(4.887346e-07 1.19372e-07 -3.629445e-09)
(1.088507e-06 7.917257e-09 1.911647e-08)
(1.669134e-06 2.434842e-07 -4.262073e-09)
(3.080329e-06 -1.228038e-07 1.527232e-07)
(4.625446e-06 -2.353764e-09 1.514335e-07)
(7.296433e-06 -4.909708e-09 1.538143e-07)
(1.199471e-05 1.452216e-07 -3.553226e-08)
(1.830006e-05 7.355912e-07 -2.208296e-07)
(-0.01334489 -0.6522428 -0.03303515)
(-0.01732722 -0.6681796 -0.03604389)
(-0.01713185 -0.6772222 -0.03566375)
(-0.01807372 -0.6852139 -0.03578106)
(-0.01933387 -0.6948305 -0.03613514)
(-0.02077952 -0.7065451 -0.0365942)
(-0.02235081 -0.7204836 -0.03715369)
(-0.02412586 -0.7368466 -0.03778796)
(-0.02616754 -0.7558617 -0.03845278)
(-0.0157799 -0.6422577 -0.01981897)
(-0.01370885 -0.6531227 -0.02938652)
(-0.01467631 -0.65935 -0.03214609)
(-0.01615016 -0.6674124 -0.03214932)
(-0.01919864 -0.6768789 -0.03261859)
(-0.02267304 -0.6884318 -0.03298566)
(-0.0266884 -0.7020488 -0.0334606)
(-0.03111518 -0.7180432 -0.03392606)
(-0.03613066 -0.736505 -0.03452377)
(-0.008880404 -0.6275234 -0.001897161)
(-0.01309548 -0.633971 -0.00306282)
(-0.01826795 -0.6375271 -0.002656421)
(-0.02368325 -0.644134 -0.002658739)
(-0.02915071 -0.6527682 -0.002441592)
(-0.03520154 -0.6636327 -0.002407745)
(-0.04154 -0.676632 -0.002322082)
(-0.04849982 -0.6918575 -0.002283403)
(-0.05604837 -0.7094358 -0.002255133)
(-0.01431474 -0.6277031 0.0008353804)
(-0.01857857 -0.6361943 0.001055464)
(-0.02543233 -0.641125 0.001550256)
(-0.03206014 -0.647731 0.001614859)
(-0.03938797 -0.656459 0.001730831)
(-0.04722839 -0.6669974 0.001816854)
(-0.05566916 -0.679643 0.001897492)
(-0.06483374 -0.6943585 0.00196587)
(-0.07479141 -0.7113368 0.002029433)
(-0.01209758 -0.6173018 0.0003721248)
(-0.02102546 -0.6255864 0.0003814232)
(-0.02977809 -0.6294898 0.0008771738)
(-0.0389741 -0.6355441 0.0008338776)
(-0.04832749 -0.6435912 0.0009428588)
(-0.05826534 -0.6535084 0.0009519743)
(-0.0687776 -0.6654209 0.0009978805)
(-0.08007087 -0.679282 0.001036253)
(-0.09226984 -0.6952496 0.001082933)
(-0.0149392 -0.609681 0.0004062378)
(-0.02502462 -0.6180663 9.490356e-05)
(-0.03548757 -0.6225683 0.0006758204)
(-0.04621299 -0.628459 0.0005960663)
(-0.05734292 -0.636256 0.0006810268)
(-0.0690103 -0.6456383 0.0006846041)
(-0.08139515 -0.6568816 0.0007195877)
(-0.09460911 -0.6699082 0.0007442647)
(-0.1088541 -0.6848654 0.000769021)
(-0.01593156 -0.5979903 0.0001813946)
(-0.02815055 -0.6060951 -1.356229e-05)
(-0.04020404 -0.6101547 0.0003792431)
(-0.05269135 -0.6156439 0.0002694596)
(-0.06554024 -0.6228616 0.0003291155)
(-0.07891881 -0.6315902 0.0003148825)
(-0.09305758 -0.6420109 0.0003370394)
(-0.1080415 -0.654059 0.0003423775)
(-0.1241206 -0.6678349 0.0003550241)
(-0.01808478 -0.5860953 0.0001150741)
(-0.03148878 -0.5939764 -0.0001374839)
(-0.04503458 -0.597975 0.0002996858)
(-0.05891639 -0.6031468 0.0001770763)
(-0.07329273 -0.6098928 0.0002268388)
(-0.08817276 -0.6179841 0.0002063169)
(-0.1038835 -0.6275962 0.0002192405)
(-0.1204504 -0.6386614 0.0002189662)
(-0.1381596 -0.6512521 0.0002270073)
(-0.01967909 -0.5721922 3.737474e-05)
(-0.03443959 -0.5797428 -0.0001536563)
(-0.04936719 -0.5833896 0.0002417061)
(-0.06459739 -0.58815 0.0001064084)
(-0.08037402 -0.5943216 0.0001457283)
(-0.09662614 -0.601723 0.000116973)
(-0.1137427 -0.6104743 0.0001245878)
(-0.131707 -0.6205129 0.0001193708)
(-0.1508287 -0.6318756 0.0001237666)
(-0.02142604 -0.5573641 -1.911388e-05)
(-0.03722661 -0.5645912 -0.0001977294)
(-0.0534293 -0.5679683 0.0002182014)
(-0.06983425 -0.5723305 7.459506e-05)
(-0.08685635 -0.5779493 0.0001079922)
(-0.104323 -0.5846659 7.734635e-05)
(-0.1226745 -0.5925667 8.1883e-05)
(-0.141854 -0.6015924 7.550243e-05)
(-0.1621812 -0.61175 7.839764e-05)
(-0.02295463 -0.5412431 -5.659545e-05)
(-0.03973112 -0.5481143 -0.0002191456)
(-0.05709382 -0.5511617 0.0002095809)
(-0.07456472 -0.5550987 5.776981e-05)
(-0.09269824 -0.5601496 8.945292e-05)
(-0.1112397 -0.5661749 5.431483e-05)
(-0.1306669 -0.5732314 5.673454e-05)
(-0.1508893 -0.581258 4.905351e-05)
(-0.1722295 -0.5902395 4.985663e-05)
(-0.02440025 -0.5241655 -8.327778e-05)
(-0.04199044 -0.530679 -0.0002445085)
(-0.06040168 -0.5334137 0.0002078779)
(-0.07880863 -0.5369322 4.765975e-05)
(-0.09792165 -0.5414283 7.774881e-05)
(-0.1174002 -0.5467793 4.010354e-05)
(-0.1377535 -0.5530189 4.129002e-05)
(-0.1588597 -0.5600853 3.31732e-05)
(-0.1810367 -0.5679459 3.266306e-05)
(-0.02568675 -0.5061438 -9.626576e-05)
(-0.04399382 -0.5122933 -0.000262606)
(-0.06333589 -0.5147095 0.0002122759)
(-0.08256713 -0.5178128 4.473455e-05)
(-0.1025355 -0.5217666 7.37031e-05)
(-0.1228253 -0.5264631 3.402634e-05)
(-0.1439683 -0.5319186 3.350517e-05)
(-0.1658137 -0.5380717 2.456518e-05)
(-0.1886708 -0.5448761 2.403411e-05)
(-0.0268471 -0.4873289 -0.000110855)
(-0.04574952 -0.4931108 -0.0002758021)
(-0.06591101 -0.4952175 0.0002183733)
(-0.08585493 -0.4979163 4.324152e-05)
(-0.1065632 -0.5013467 7.257222e-05)
(-0.1275473 -0.5054176 3.102927e-05)
(-0.1493581 -0.5101312 3.002998e-05)
(-0.1718142 -0.5154294 2.046747e-05)
(-0.1952163 -0.5212545 1.857868e-05)
(-0.02787242 -0.4678133 -0.00012329)
(-0.04726288 -0.4732352 -0.0002831242)
(-0.06813256 -0.4750343 0.0002275566)
(-0.08868716 -0.4773407 4.684003e-05)
(-0.1100292 -0.480267 7.642716e-05)
(-0.1316054 -0.483743 3.295304e-05)
(-0.1539767 -0.4877585 3.041883e-05)
(-0.1769342 -0.492263 1.937706e-05)
(-0.2007648 -0.4971894 1.616176e-05)
(-0.02874104 -0.4477152 -0.0001309466)
(-0.04854328 -0.4527656 -0.0002945035)
(-0.07000912 -0.4542588 0.000233686)
(-0.09108024 -0.4561804 4.541109e-05)
(-0.1129588 -0.4586194 7.656353e-05)
(-0.1350352 -0.4615321 3.063332e-05)
(-0.1578753 -0.464897 2.788461e-05)
(-0.1812436 -0.4686766 1.646239e-05)
(-0.2054083 -0.4727918 1.35974e-05)
(-0.02945813 -0.4271357 -0.0001394347)
(-0.04957722 -0.4318109 -0.0002882829)
(-0.07154269 -0.433001 0.0002456432)
(-0.09304189 -0.4345468 5.388076e-05)
(-0.1153763 -0.4365121 8.499265e-05)
(-0.1378801 -0.4388912 3.688947e-05)
(-0.1611189 -0.4416472 3.220557e-05)
(-0.1848275 -0.4447686 1.891449e-05)
(-0.2092532 -0.4481576 1.382258e-05)
(-2.54911e-07 6.976691e-08 1.282428e-07)
(-8.298459e-07 2.252379e-07 1.357816e-07)
(-1.325475e-06 3.164228e-07 1.962963e-07)
(-2.190212e-06 4.726202e-07 2.064924e-07)
(-3.473913e-06 7.34094e-07 2.75934e-07)
(-5.455388e-06 1.124829e-06 3.439753e-07)
(-8.534854e-06 1.768756e-06 4.521326e-07)
(-1.331575e-05 2.731349e-06 4.975248e-07)
(-4.004239e-08 4.027411e-07 6.759165e-08)
(-3.347785e-07 4.897961e-07 1.028162e-07)
(-6.440667e-07 6.633209e-07 1.37351e-07)
(-1.131977e-06 9.118764e-07 1.521898e-07)
(-1.825297e-06 1.394678e-06 1.778857e-07)
(-2.900986e-06 2.145453e-06 2.105425e-07)
(-4.541089e-06 3.367041e-06 2.617507e-07)
(-7.101698e-06 5.262921e-06 2.964443e-07)
(-1.109808e-05 8.251423e-06 3.385617e-07)
(-5.961492e-08 6.491347e-07 1.105986e-07)
(-2.031924e-07 7.049567e-07 1.125826e-07)
(-3.43222e-07 9.255119e-07 1.373386e-07)
(-5.951723e-07 1.372859e-06 1.718071e-07)
(-9.64932e-07 2.07686e-06 2.128671e-07)
(-1.511822e-06 3.240332e-06 2.778659e-07)
(-2.351354e-06 5.1088e-06 3.70226e-07)
(-3.66808e-06 8.041446e-06 4.909564e-07)
(-5.70062e-06 1.265312e-05 6.572367e-07)
(3.624856e-08 5.696595e-07 1.339234e-07)
(3.39515e-08 6.957652e-07 1.222144e-07)
(4.40122e-08 9.472479e-07 1.371305e-07)
(6.952959e-08 1.439622e-06 1.550951e-07)
(1.316982e-07 2.188592e-06 1.880057e-07)
(2.810155e-07 3.432176e-06 2.2708e-07)
(5.019077e-07 5.373639e-06 2.982623e-07)
(8.24284e-07 8.464569e-06 3.484337e-07)
(1.392869e-06 1.327507e-05 3.850213e-07)
(5.549326e-08 5.235615e-07 1.331243e-07)
(1.861024e-07 5.766883e-07 1.256238e-07)
(4.521498e-07 7.833971e-07 1.631403e-07)
(7.349234e-07 1.15661e-06 2.005798e-07)
(1.168883e-06 1.751929e-06 2.83566e-07)
(1.900709e-06 2.712055e-06 3.818033e-07)
(3.040756e-06 4.231889e-06 5.276816e-07)
(4.800088e-06 6.638018e-06 6.699473e-07)
(7.639675e-06 1.04159e-05 9.432478e-07)
(5.505381e-08 2.329233e-07 1.299886e-07)
(3.999242e-07 2.076638e-07 2.232929e-07)
(7.157894e-07 2.450131e-07 2.503833e-07)
(1.136084e-06 4.029459e-07 3.218496e-07)
(1.815712e-06 6.163505e-07 3.968103e-07)
(2.971057e-06 9.764025e-07 5.134353e-07)
(4.763479e-06 1.584491e-06 6.647819e-07)
(7.525131e-06 2.526298e-06 8.459572e-07)
(1.208629e-05 3.976292e-06 1.033212e-06)
(3.215101e-07 -3.266159e-08 2.0508e-07)
(6.320955e-07 -2.147178e-07 -7.868694e-08)
(9.824815e-07 -1.983658e-08 5.467254e-07)
(1.524211e-06 -4.426414e-08 7.284592e-07)
(2.509811e-06 -7.848727e-08 9.54777e-07)
(3.996401e-06 -7.535202e-08 1.335292e-06)
(6.480347e-06 -1.516883e-07 1.682674e-06)
(1.040289e-05 -3.586945e-07 1.798261e-06)
(1.64623e-05 -4.421906e-07 3.183923e-06)
(-0.01368372 -0.5968203 -0.01304105)
(-0.006019145 -0.6325988 -0.01508322)
(-0.001407997 -0.6412338 -0.01123435)
(-0.003890067 -0.6472592 -0.01113433)
(-0.004663104 -0.6563474 -0.01065543)
(-0.005840803 -0.6675092 -0.01079518)
(-0.006772486 -0.6808944 -0.01096469)
(-0.007829142 -0.6967178 -0.01125219)
(-0.0089004 -0.7149852 -0.01154217)
(-0.003883387 -0.5435042 -0.01604539)
(-0.01572545 -0.6446681 0.001233118)
(-0.007476565 -0.6549429 0.001721143)
(-0.01305737 -0.6632647 0.002508306)
(-0.01451113 -0.6716175 0.004189004)
(-0.01814562 -0.681085 0.004493219)
(-0.02152001 -0.692765 0.004954142)
(-0.02549812 -0.7065466 0.005109099)
(-0.0296839 -0.7227596 0.005206657)
(-0.03435518 -0.7414613 0.005260415)
(-0.007435262 -0.5801865 -0.02026709)
(-0.004305835 -0.638653 0.001230881)
(-0.01064868 -0.6439834 -0.003541041)
(-0.0161965 -0.6467006 -0.00272614)
(-0.0226157 -0.6542099 -0.00442014)
(-0.02814825 -0.6630342 -0.004237948)
(-0.03430829 -0.6742358 -0.004567387)
(-0.04053667 -0.6874274 -0.004556153)
(-0.04736909 -0.7028597 -0.004678623)
(-0.05471691 -0.7206782 -0.004760928)
(-0.00301885 -0.5696545 -0.01409512)
(-0.01007543 -0.635714 0.0002226699)
(-0.01780577 -0.6394228 0.0003483216)
(-0.02430896 -0.6452139 0.00122019)
(-0.03136726 -0.6520508 0.001334821)
(-0.03867465 -0.6610064 0.001524135)
(-0.04654198 -0.6716573 0.00157986)
(-0.05497272 -0.6844091 0.001657829)
(-0.06409353 -0.6992139 0.00168338)
(-0.07396407 -0.7163187 0.001737529)
(-0.002582301 -0.5625109 -0.01287472)
(-0.01143253 -0.6252062 0.0003451689)
(-0.02077897 -0.6279365 -0.0003801438)
(-0.02934722 -0.6321505 -0.0002859802)
(-0.03882555 -0.6384785 -0.0007205415)
(-0.04812559 -0.6466248 -0.0006748871)
(-0.05811978 -0.6566487 -0.0007941666)
(-0.06860303 -0.6686204 -0.0007837483)
(-0.07988345 -0.682545 -0.0008395862)
(-0.09203426 -0.6985917 -0.0008556494)
(-0.004351322 -0.5608007 -0.01599264)
(-0.01308563 -0.6167535 0.0002496048)
(-0.02514914 -0.6192196 0.0001946953)
(-0.03503276 -0.623989 0.0004150233)
(-0.04609123 -0.6299979 0.0003580625)
(-0.05713876 -0.6378742 0.0004482365)
(-0.06886421 -0.6473041 0.0004238788)
(-0.08124932 -0.6585813 0.0004534358)
(-0.09447579 -0.6716297 0.0004430394)
(-0.1087135 -0.6866207 0.0004589216)
(-0.003415399 -0.5466881 -0.01329648)
(-0.01575377 -0.6048513 0.0003849879)
(-0.02841589 -0.6067413 0.0001822014)
(-0.04007435 -0.6110279 0.0001233482)
(-0.05274366 -0.6166029 -3.249644e-05)
(-0.06550702 -0.6238792 -7.487301e-06)
(-0.07893974 -0.6326449 -6.644481e-05)
(-0.09307466 -0.6430914 -5.954425e-05)
(-0.1080779 -0.6551553 -8.53645e-05)
(-0.1241632 -0.6689572 -8.534292e-05)
(-0.004290944 -0.538542 -0.01426489)
(-0.01737949 -0.5926591 0.0004118952)
(-0.03186035 -0.5945306 0.00023444)
(-0.04488363 -0.5986046 0.000225736)
(-0.05897252 -0.603827 0.0001239255)
(-0.07325412 -0.610607 0.0001727648)
(-0.0881827 -0.6187151 0.0001363223)
(-0.1038912 -0.6283379 0.0001543122)
(-0.1204771 -0.6394063 0.0001393597)
(-0.1381983 -0.652004 0.0001450034)
(-0.004165567 -0.5252286 -0.01334018)
(-0.01931976 -0.5785274 0.0005084649)
(-0.0348687 -0.5801175 0.0002433867)
(-0.04930436 -0.5838351 0.0001854194)
(-0.06470015 -0.5886327 5.226358e-05)
(-0.08038123 -0.5948289 8.339865e-05)
(-0.09668132 -0.6022429 4.147918e-05)
(-0.1137955 -0.6110018 5.0743e-05)
(-0.1317803 -0.6210416 3.702491e-05)
(-0.1509142 -0.6324083 3.815238e-05)
(-0.004409316 -0.5125986 -0.01321998)
(-0.0209697 -0.5634742 0.0005680118)
(-0.03770376 -0.5649558 0.0002334998)
(-0.05336647 -0.5683436 0.0002017487)
(-0.06994889 -0.5727329 6.064114e-05)
(-0.08686742 -0.5783659 0.0001029956)
(-0.1043801 -0.5850894 6.124476e-05)
(-0.1227271 -0.5929943 7.695794e-05)
(-0.1419264 -0.6020176 6.381322e-05)
(-0.1622655 -0.6121748 6.64067e-05)
(-0.004501213 -0.498463 -0.01284052)
(-0.0224715 -0.5471176 0.0006410723)
(-0.0402515 -0.5484239 0.0002223427)
(-0.05704106 -0.5514703 0.0002025176)
(-0.07469308 -0.5554303 4.056451e-05)
(-0.09271829 -0.560488 8.27416e-05)
(-0.1113052 -0.5665174 3.716277e-05)
(-0.1307281 -0.5735755 5.236762e-05)
(-0.1509687 -0.5815988 3.922796e-05)
(-0.1723207 -0.5905777 4.139318e-05)
(-0.004612909 -0.4836166 -0.0125501)
(-0.02381716 -0.5298227 0.0007021323)
(-0.04255263 -0.5309677 0.0002027481)
(-0.06034429 -0.533686 0.0002095075)
(-0.07894498 -0.5372242 3.197937e-05)
(-0.09794239 -0.5417239 7.935894e-05)
(-0.1174659 -0.547076 3.215778e-05)
(-0.1378147 -0.553316 4.918078e-05)
(-0.1589376 -0.5603786 3.593864e-05)
(-0.1811256 -0.5682351 3.87213e-05)
(-0.00474007 -0.4680504 -0.01232979)
(-0.02498809 -0.511585 0.0007634356)
(-0.04459803 -0.5125506 0.0001854992)
(-0.06327291 -0.5149503 0.0002175901)
(-0.08270923 -0.5180708 2.369384e-05)
(-0.1025563 -0.5220249 7.515004e-05)
(-0.1228914 -0.526722 2.46099e-05)
(-0.1440289 -0.5321766 4.257683e-05)
(-0.1658907 -0.5383258 2.876634e-05)
(-0.1887575 -0.5451251 3.047235e-05)
(-0.004801772 -0.4516127 -0.01200561)
(-0.02607246 -0.4925552 0.000814189)
(-0.04638996 -0.4933413 0.0001623859)
(-0.06584409 -0.4954331 0.0002215916)
(-0.08600174 -0.4981461 1.335842e-05)
(-0.1065829 -0.5015752 6.903706e-05)
(-0.1276127 -0.5056469 1.674614e-05)
(-0.1494164 -0.5103595 3.525045e-05)
(-0.171888 -0.5156537 2.188995e-05)
(-0.1952991 -0.5214743 2.432757e-05)
(-0.004875255 -0.4346205 -0.01173154)
(-0.02703073 -0.4728154 0.000862454)
(-0.04793474 -0.4734496 0.0001450278)
(-0.06806028 -0.4752312 0.000232399)
(-0.08883666 -0.4775504 1.284626e-05)
(-0.1100479 -0.4804739 7.26094e-05)
(-0.1316702 -0.4839506 1.668465e-05)
(-0.1540339 -0.487964 3.509966e-05)
(-0.1770053 -0.4924645 2.08934e-05)
(-0.2008444 -0.4973862 2.211013e-05)
(-0.005040952 -0.4175018 -0.01175753)
(-0.02774177 -0.4524968 0.0008917917)
(-0.04924912 -0.4529532 0.0001176207)
(-0.06993132 -0.4544351 0.0002293313)
(-0.09123293 -0.4563659 -1.922206e-06)
(-0.1129763 -0.4588021 6.295934e-05)
(-0.1350992 -0.4617161 5.253769e-06)
(-0.1579294 -0.4650799 2.596184e-05)
(-0.1813109 -0.4688565 1.425046e-05)
(-0.2054831 -0.4729687 1.576584e-05)
(0.01434544 -0.3808142 0.001189481)
(-0.028522 -0.4317088 0.0009277613)
(-0.05030109 -0.4319774 0.0001043961)
(-0.07146507 -0.4331691 0.0002423767)
(-0.09319653 -0.434724 6.358449e-06)
(-0.115394 -0.4366881 7.370437e-05)
(-0.1379452 -0.4390665 1.608667e-05)
(-0.1611731 -0.441819 3.338339e-05)
(-0.1848937 -0.4449356 2.018668e-05)
(-0.2093255 -0.4483203 1.8698e-05)
(-2.488948e-07 5.920746e-08 1.662861e-07)
(-7.943608e-07 2.169677e-07 2.204443e-07)
(-1.295462e-06 3.011086e-07 2.599802e-07)
(-2.150862e-06 4.856454e-07 3.368803e-07)
(-3.434478e-06 7.355837e-07 4.081006e-07)
(-5.436972e-06 1.169035e-06 5.390054e-07)
(-8.53339e-06 1.829081e-06 6.457139e-07)
(-1.340486e-05 2.886678e-06 8.557803e-07)
(-3.534493e-08 3.976139e-07 1.392597e-07)
(-3.048734e-07 4.924937e-07 1.821115e-07)
(-6.04e-07 6.597466e-07 2.163668e-07)
(-1.073713e-06 9.191079e-07 2.563681e-07)
(-1.742867e-06 1.406734e-06 3.307539e-07)
(-2.782078e-06 2.180662e-06 4.025921e-07)
(-4.385992e-06 3.429587e-06 5.371392e-07)
(-6.879733e-06 5.380091e-06 6.589226e-07)
(-1.079938e-05 8.454699e-06 8.777827e-07)
(-2.362418e-08 6.779939e-07 1.676705e-07)
(-1.739576e-07 7.017118e-07 1.746931e-07)
(-2.920637e-07 9.231527e-07 2.134616e-07)
(-5.18371e-07 1.374925e-06 2.582197e-07)
(-8.405611e-07 2.090021e-06 3.275932e-07)
(-1.331331e-06 3.266928e-06 4.20185e-07)
(-2.105369e-06 5.125418e-06 5.474943e-07)
(-3.297791e-06 8.06443e-06 6.979955e-07)
(-5.204849e-06 1.266688e-05 9.268669e-07)
(2.076866e-08 5.76935e-07 1.822283e-07)
(5.278644e-08 7.026831e-07 1.90259e-07)
(1.071063e-07 9.782555e-07 2.185438e-07)
(1.948583e-07 1.44516e-06 2.638445e-07)
(3.315352e-07 2.217876e-06 3.450931e-07)
(5.55514e-07 3.446019e-06 4.269413e-07)
(8.952417e-07 5.41318e-06 5.584948e-07)
(1.424172e-06 8.475491e-06 6.800325e-07)
(2.247639e-06 1.3319e-05 8.916732e-07)
(5.95345e-08 5.429523e-07 1.736547e-07)
(2.638112e-07 5.820357e-07 1.918699e-07)
(5.512273e-07 7.423025e-07 2.505679e-07)
(8.972524e-07 1.060479e-06 3.125652e-07)
(1.437071e-06 1.59796e-06 4.272962e-07)
(2.297275e-06 2.479984e-06 5.564695e-07)
(3.603678e-06 3.885558e-06 7.604268e-07)
(5.66841e-06 6.0857e-06 1.004209e-06)
(8.875395e-06 9.577742e-06 1.381227e-06)
(1.813115e-08 2.828322e-07 1.44551e-07)
(3.71759e-07 2.068811e-07 2.500557e-07)
(7.375859e-07 2.32422e-07 2.458201e-07)
(1.220182e-06 3.530242e-07 3.122565e-07)
(1.94388e-06 5.257222e-07 4.051767e-07)
(3.11775e-06 8.286798e-07 5.327334e-07)
(4.920988e-06 1.310361e-06 7.015765e-07)
(7.770908e-06 2.11642e-06 8.666056e-07)
(1.220998e-05 3.372406e-06 1.141469e-06)
(2.801414e-07 -4.626739e-08 2.348484e-07)
(-0.01735339 -0.6282469 -0.006614025)
(-0.01485757 -0.6534702 -0.01268069)
(0.002059208 -0.6518684 -0.00852401)
(-0.005697601 -0.6661538 -0.01210845)
(-0.005140738 -0.6745769 -0.01100272)
(-0.007531394 -0.6864638 -0.01142662)
(-0.008728658 -0.7001601 -0.01147254)
(-0.01039364 -0.716522 -0.01177377)
(-0.02458692 -0.6442203 -0.0198158)
(-0.002618432 -0.6532573 -0.0002731878)
(-0.006995243 -0.634406 -0.002889477)
(-0.009481432 -0.6452639 -0.003052966)
(-0.01233198 -0.6512167 -0.002574615)
(-0.01698018 -0.6613259 -0.003083172)
(-0.02045975 -0.6726236 -0.002801463)
(-0.02453885 -0.6861287 -0.002952379)
(-0.02867653 -0.7018857 -0.003040316)
(-0.004580245 -0.6215752 0.001439508)
(-0.01337254 -0.6374733 0.001033748)
(-0.0169751 -0.6421481 -0.004962573)
(-0.01738094 -0.6459571 -0.004527581)
(-0.02351114 -0.6544348 -0.006915776)
(-0.02767677 -0.6633889 -0.00682392)
(-0.03386356 -0.6747944 -0.007239055)
(-0.03980516 -0.6880095 -0.007272696)
(-0.04662461 -0.7035218 -0.007467062)
(-0.05392028 -0.7214046 -0.007607693)
(-0.002866267 -0.6261215 -0.003695673)
(-0.009667599 -0.6367847 -0.001323639)
(-0.01751058 -0.6356201 -0.001721961)
(-0.02382677 -0.6414439 -0.001193933)
(-0.03094541 -0.6470184 -0.00139124)
(-0.03828745 -0.656019 -0.001389289)
(-0.04617541 -0.6664689 -0.001384429)
(-0.05456414 -0.679172 -0.001339446)
(-0.0636751 -0.6938819 -0.001348453)
(-0.07352618 -0.7108939 -0.001347781)
(-0.003680954 -0.6143954 0.0007113757)
(-0.01302343 -0.6245922 -0.0001577725)
(-0.02161351 -0.6271323 -0.000844727)
(-0.02993663 -0.6320071 -0.0007152274)
(-0.03906389 -0.6383504 -0.001188116)
(-0.04806362 -0.6466038 -0.001189849)
(-0.0579721 -0.6566607 -0.001359748)
(-0.06834178 -0.6686597 -0.001348896)
(-0.0796122 -0.6825933 -0.001400069)
(-0.0917483 -0.6986585 -0.001409005)
(-0.004535706 -0.6075426 0.0006859055)
(-0.01438511 -0.616888 -0.0005565765)
(-0.02466649 -0.6184666 -0.000132862)
(-0.03512988 -0.623254 -1.44451e-05)
(-0.04594909 -0.6289185 -2.985699e-05)
(-0.05703482 -0.6367687 3.200369e-05)
(-0.0687398 -0.6461085 5.054821e-06)
(-0.08109782 -0.6573631 4.375069e-05)
(-0.09432999 -0.6703754 3.795485e-05)
(-0.1085637 -0.6853501 5.261534e-05)
(-0.005219156 -0.5958233 0.001062592)
(-0.01650793 -0.604599 -0.0001969208)
(-0.02822318 -0.6066081 -1.710185e-05)
(-0.0402662 -0.61097 -2.709907e-05)
(-0.05269997 -0.6165591 -9.789679e-05)
(-0.06547101 -0.6238557 -7.379952e-05)
(-0.07886418 -0.6326154 -0.000131772)
(-0.09297549 -0.6430571 -0.0001141039)
(-0.107984 -0.6551138 -0.0001373266)
(-0.1240685 -0.6689184 -0.000133793)
(-0.005908661 -0.5841781 0.001249362)
(-0.01832666 -0.592656 -0.0002470482)
(-0.03143023 -0.5944027 0.000112648)
(-0.04495662 -0.5984408 9.711804e-05)
(-0.05884098 -0.6036151 0.0001188292)
(-0.0731952 -0.6103759 0.0001619705)
(-0.08811816 -0.6184639 0.000138462)
(-0.1038268 -0.6280766 0.0001603036)
(-0.1204243 -0.6391319 0.0001479168)
(-0.1381466 -0.6517278 0.0001554969)
(-0.006456147 -0.5703833 0.001343276)
(-0.02006583 -0.5784731 -0.00014095)
(-0.03450183 -0.5801198 0.000109458)
(-0.04936148 -0.5838051 7.481442e-05)
(-0.06458463 -0.5886251 7.421345e-05)
(-0.08033024 -0.5948206 0.0001007673)
(-0.09662919 -0.6022383 7.14772e-05)
(-0.1137441 -0.6109939 8.773514e-05)
(-0.1317418 -0.6210317 7.088596e-05)
(-0.1508768 -0.6323986 7.494147e-05)
(-0.006994771 -0.5556858 0.001406873)
(-0.02167027 -0.5634971 -0.0001184948)
(-0.03730649 -0.5649546 0.0001127923)
(-0.05338093 -0.5682998 9.088606e-05)
(-0.06981141 -0.5726992 9.344998e-05)
(-0.08680351 -0.5783188 0.0001240547)
(-0.1043278 -0.5850446 9.840786e-05)
(-0.1226828 -0.5929426 0.0001144239)
(-0.1419009 -0.6019647 0.0001008464)
(-0.1622418 -0.6121207 0.000103825)
(-0.007461851 -0.5396837 0.001489841)
(-0.02312752 -0.5471616 -7.428118e-05)
(-0.03986674 -0.5484458 0.0001025863)
(-0.05703654 -0.5514543 8.602817e-05)
(-0.07455722 -0.555433 7.416282e-05)
(-0.09265088 -0.5604847 0.0001012271)
(-0.1112546 -0.5665208 7.088061e-05)
(-0.1306861 -0.573577 8.504607e-05)
(-0.1509479 -0.5816008 6.98666e-05)
(-0.1723024 -0.5905802 6.986161e-05)
(-0.007884686 -0.5227258 0.001555469)
(-0.02443805 -0.5298875 -4.706721e-05)
(-0.04216385 -0.5309916 9.072335e-05)
(-0.06031631 -0.5336709 8.941032e-05)
(-0.07880246 -0.5372228 6.875748e-05)
(-0.09786727 -0.5417141 9.746539e-05)
(-0.1174144 -0.5470723 6.369961e-05)
(-0.1377725 -0.5533103 7.709154e-05)
(-0.1589187 -0.5603738 6.13882e-05)
(-0.1811106 -0.5682302 6.025093e-05)
(-0.008256678 -0.5048233 0.001636511)
(-0.0256028 -0.5116557 -1.773142e-05)
(-0.04420548 -0.5125858 8.658167e-05)
(-0.06322688 -0.5149442 9.920632e-05)
(-0.08256436 -0.5180782 6.819285e-05)
(-0.1024755 -0.5220259 9.744184e-05)
(-0.1228396 -0.5267278 5.889213e-05)
(-0.1439861 -0.5321814 6.941049e-05)
(-0.1658722 -0.5383306 5.107392e-05)
(-0.188744 -0.5451302 4.800227e-05)
(-0.008583228 -0.4861235 0.00165906)
(-0.02662102 -0.492626 6.415214e-06)
(-0.04599548 -0.493383 7.247313e-05)
(-0.06577608 -0.4954289 0.0001046207)
(-0.08585366 -0.4981523 6.30124e-05)
(-0.106496 -0.5015752 9.421834e-05)
(-0.1275587 -0.5056507 5.206431e-05)
(-0.1493708 -0.5103622 6.305133e-05)
(-0.1718691 -0.5156564 4.461734e-05)
(-0.1952846 -0.5214777 4.028976e-05)
(-0.008866548 -0.4667308 0.001660801)
(-0.02749958 -0.4729023 4.453445e-05)
(-0.047536 -0.4734939 7.895185e-05)
(-0.06796902 -0.4752362 0.0001331426)
(-0.08868533 -0.4775649 8.536851e-05)
(-0.109956 -0.4804818 0.0001183871)
(-0.1316153 -0.4839608 7.017542e-05)
(-0.1539863 -0.4879715 7.447253e-05)
(-0.176987 -0.4924699 5.156587e-05)
(-0.2008298 -0.4973919 4.140197e-05)
(-0.009106369 -0.4467474 0.001737441)
(-0.0282433 -0.4525771 4.788016e-05)
(-0.04883896 -0.4530025 6.000624e-05)
(-0.06982433 -0.4544416 0.0001320545)
(-0.0910796 -0.4563786 6.744054e-05)
(-0.112879 -0.4588093 0.0001047955)
(-0.1350397 -0.461721 5.400636e-05)
(-0.1578768 -0.4650841 6.140904e-05)
(-0.1812885 -0.4688578 4.190621e-05)
(-0.2054664 -0.4729706 3.308128e-05)
(-0.009301082 -0.4262936 0.001635728)
(-0.02883908 -0.4317701 9.404764e-05)
(-0.04989243 -0.4320369 7.668665e-05)
(-0.07132839 -0.4331754 0.0001905788)
(-0.09303996 -0.4347369 0.0001292996)
(-0.1152895 -0.4366909 0.0001713668)
(-0.1378833 -0.4390692 0.000111669)
(-0.1611216 -0.4418213 9.851263e-05)
(-0.1848722 -0.4449354 6.967778e-05)
(-0.2093106 -0.4483211 4.651875e-05)
(-2.442127e-07 4.668872e-08 2.049132e-07)
(-7.472526e-07 2.067873e-07 2.334982e-07)
(-1.225349e-06 3.034214e-07 3.166504e-07)
(-2.065912e-06 4.631913e-07 3.69886e-07)
(-3.30569e-06 7.279299e-07 5.133975e-07)
(-5.273797e-06 1.121179e-06 6.304751e-07)
(-8.309117e-06 1.78518e-06 8.515037e-07)
(-1.310987e-05 2.773146e-06 1.084944e-06)
(-4.039554e-08 3.891001e-07 1.943023e-07)
(-2.745497e-07 4.953067e-07 2.090901e-07)
(-5.693152e-07 6.653243e-07 2.335538e-07)
(-1.008451e-06 9.296174e-07 3.016456e-07)
(-1.662754e-06 1.415679e-06 3.612028e-07)
(-2.666085e-06 2.207447e-06 4.797863e-07)
(-4.240074e-06 3.451991e-06 5.950588e-07)
(-6.691669e-06 5.440331e-06 7.726968e-07)
(-1.057052e-05 8.517769e-06 9.885799e-07)
(-2.83971e-08 6.874475e-07 1.863388e-07)
(-1.513353e-07 7.097405e-07 1.898646e-07)
(-2.380991e-07 9.349748e-07 2.468305e-07)
(-4.318289e-07 1.395294e-06 3.001076e-07)
(-7.097286e-07 2.120385e-06 3.969933e-07)
(-1.13643e-06 3.310493e-06 4.982087e-07)
(-1.825381e-06 5.202037e-06 6.684065e-07)
(-2.898671e-06 8.171295e-06 8.501596e-07)
(-4.633286e-06 1.283727e-05 1.134181e-06)
(5.277391e-08 5.626411e-07 1.951897e-07)
(8.939542e-08 7.039283e-07 2.238082e-07)
(1.694377e-07 9.588296e-07 2.333072e-07)
(3.177854e-07 1.441926e-06 3.295531e-07)
(5.063076e-07 2.199298e-06 3.974888e-07)
(8.375543e-07 3.427318e-06 5.374843e-07)
(1.293368e-06 5.366077e-06 6.880618e-07)
(2.00228e-06 8.415236e-06 9.096661e-07)
(3.085883e-06 1.317976e-05 1.193123e-06)
(5.878316e-08 5.499188e-07 1.715982e-07)
(2.855568e-07 5.931771e-07 1.610281e-07)
(6.224493e-07 7.366448e-07 2.483089e-07)
(1.02997e-06 1.06666e-06 3.26324e-07)
(1.620834e-06 1.564763e-06 4.307762e-07)
(2.568428e-06 2.428836e-06 5.807342e-07)
(4.00174e-06 3.778093e-06 7.693156e-07)
(6.224822e-06 5.914587e-06 1.03994e-06)
(9.689058e-06 9.256617e-06 1.375554e-06)
(4.795378e-08 2.789517e-07 1.785789e-07)
(4.645612e-07 1.666623e-07 3.060353e-07)
(8.162823e-07 2.288846e-07 2.454919e-07)
(1.347258e-06 3.69721e-07 3.641112e-07)
(2.092725e-06 5.226843e-07 4.46747e-07)
(3.366369e-06 8.193538e-07 5.96166e-07)
(5.253655e-06 1.267805e-06 7.822848e-07)
(8.21588e-06 2.001896e-06 1.018564e-06)
(1.287548e-05 3.158992e-06 1.357271e-06)
(2.470467e-07 -1.100699e-07 2.329912e-07)
(-0.01406599 -0.6312583 0.0008471496)
(-0.01274269 -0.6471122 0.004855803)
(0.005252275 -0.6391646 0.008005446)
(-0.00460709 -0.6571544 0.008134132)
(-0.004185838 -0.6622477 0.008764941)
(-0.006545831 -0.6746284 0.008968065)
(-0.007747661 -0.6876923 0.009274828)
(-0.009287798 -0.7038405 0.009596574)
(-0.03332658 -0.6499652 -0.004547663)
(-0.0006732596 -0.6547505 0.001195661)
(-0.0101296 -0.6387361 0.0007170641)
(-0.008231229 -0.6504486 0.00205027)
(-0.01160692 -0.6567805 0.002546449)
(-0.01637591 -0.6668929 0.002640146)
(-0.01959068 -0.6783664 0.002844902)
(-0.02377452 -0.691974 0.00290731)
(-0.02784002 -0.7079412 0.002968137)
(-0.004591784 -0.6268519 -0.001380896)
(-0.01027169 -0.6374661 0.001164554)
(-0.0162153 -0.6406597 7.891459e-05)
(-0.01555109 -0.6439021 0.001571395)
(-0.02249853 -0.6523274 0.000641991)
(-0.02666837 -0.6608945 0.0008302306)
(-0.03303894 -0.6724412 0.0006995779)
(-0.03894984 -0.6855851 0.000795591)
(-0.04573846 -0.7011271 0.0008043867)
(-0.001645958 -0.6316583 -0.001420657)
(-0.008515765 -0.636828 3.407392e-05)
(-0.01732866 -0.6365105 -0.0002857652)
(-0.02312434 -0.6433001 0.0001512914)
(-0.03026437 -0.6489193 -0.0001049397)
(-0.03753844 -0.6581688 -0.0001677397)
(-0.04541988 -0.6687495 -0.0001795539)
(-0.05380359 -0.6815697 -0.000134567)
(-0.06289368 -0.6963888 -0.0001385556)