/*--------------------------------*- C++ -*----------------------------------*\
  =========                 |
  \\      /  F ield         | OpenFOAM: The Open Source CFD Toolbox
   \\    /   O peration     | Website:  https://openfoam.org
    \\  /    A nd           | Version:  7
     \\/     M anipulation  |
\*---------------------------------------------------------------------------*/
FoamFile
{
    version     2.0;
    format      ascii;
    class       volScalarField;
    location    "0.07";
    object      epsilon;
}
// * * * * * * * * * * * * * * * * * * * * * * * * * * * * * * * * * * * * * //

dimensions      [0 2 -3 0 0 0 0];

internalField   nonuniform List<scalar> 
109978
(
0.001920021
0.001973604
0.001978349
0.001978873
0.001978828
0.001978241
0.001973953
0.002078163
0.002088612
0.002089888
0.002089832
0.002088923
0.001978728
0.002088777
0.002100733
0.002102355
0.002102304
0.002101203
0.001979228
0.00209014
0.002102454
0.002104242
0.002104229
0.002103062
0.001979338
0.002090394
0.00210288
0.002104726
0.002104724
0.002103537
0.001979349
0.002090506
0.002102998
0.002104873
0.002104888
0.002103697
0.001979341
0.00209054
0.002103038
0.002104935
0.002104956
0.002103764
0.001979351
0.002090549
0.002103056
0.002104955
0.002104981
0.002103789
0.001979355
0.002090553
0.002103058
0.002104964
0.002104992
0.002103801
0.001979348
0.002090555
0.00210306
0.002104968
0.002104997
0.002103806
0.001979353
0.002090555
0.002103059
0.00210497
0.002105001
0.002103808
0.001979354
0.002090555
0.002103057
0.00210497
0.002105001
0.002103809
0.00197935
0.002090555
0.002103056
0.00210497
0.002105001
0.002103808
0.001979354
0.002090554
0.002103055
0.002104969
0.002105
0.002103808
0.001979349
0.002090554
0.002103052
0.002104968
0.002104999
0.002103807
0.001979352
0.002090553
0.002103051
0.002104966
0.002104997
0.002103805
0.001979352
0.002090551
0.002103048
0.002104962
0.002104991
0.002103801
0.001979347
0.002090547
0.002103041
0.002104953
0.002104981
0.00210379
0.001979346
0.002090534
0.002103022
0.002104929
0.002104955
0.002103764
0.001979326
0.002090495
0.002102966
0.002104859
0.00210488
0.002103689
0.001979267
0.002090338
0.002102752
0.002104615
0.002104627
0.002103441
0.001978993
0.002089787
0.00210205
0.002103841
0.00210385
0.002102708
0.01099046
0.002088596
0.002100614
0.002102303
0.00210235
0.002101387
0.002108191
0.002110099
0.002109829
0.002109771
0.002109757
0.002109656
0.01099897
0.01099028
0.0109902
0.0109902
0.01099019
0.01099019
0.01099817
0.01099013
0.01099009
0.01099008
0.01099007
0.01099008
0.01099815
0.01099014
0.01099009
0.01099007
0.01099007
0.01099007
0.01099813
0.01099014
0.01099009
0.01099007
0.01099006
0.01099006
0.01099814
0.01099014
0.01099009
0.01099007
0.01099006
0.01099006
0.01099813
0.01099014
0.01099009
0.01099007
0.01099006
0.01099006
0.01099813
0.01099014
0.01099009
0.01099007
0.01099006
0.01099006
0.01099813
0.01099014
0.01099009
0.01099007
0.01099006
0.01099006
0.01099813
0.01099014
0.01099009
0.01099007
0.01099006
0.01099006
0.01099812
0.01099014
0.01099009
0.01099007
0.01099006
0.01099006
0.01099812
0.01099014
0.01099009
0.01099007
0.01099006
0.01099006
0.01099812
0.01099014
0.01099009
0.01099007
0.01099006
0.01099006
0.01099812
0.01099014
0.01099009
0.01099007
0.01099006
0.01099006
0.01099812
0.01099014
0.01099009
0.01099007
0.01099006
0.01099006
0.01099812
0.01099014
0.01099009
0.01099007
0.01099006
0.01099006
0.01099812
0.01099014
0.01099009
0.01099007
0.01099006
0.01099006
0.01099812
0.01099014
0.01099009
0.01099007
0.01099006
0.01099006
0.01099812
0.01099014
0.01099009
0.01099007
0.01099006
0.01099006
0.01099812
0.01099014
0.01099009
0.01099007
0.01099006
0.01099006
0.01099812
0.01099014
0.01099009
0.01099007
0.01099006
0.01099006
0.01099812
0.01099014
0.01099009
0.01099007
0.01099006
0.01099006
0.01099812
0.01099014
0.01099009
0.01099007
0.01099006
0.01099006
0.01099812
0.01099014
0.01099009
0.01099007
0.01099006
0.01099006
0.002104894
0.002109755
0.002109195
0.002108965
0.002108949
0.002108982
0.01099811
0.01099012
0.01099009
0.01099008
0.01099008
0.01099008
0.01099704
0.01099005
0.01099003
0.01098999
0.01098998
0.01098998
0.01099702
0.01099008
0.01099004
0.01099
0.01098998
0.01098997
0.010997
0.01099008
0.01099005
0.01099001
0.01098999
0.01098997
0.01099701
0.01099008
0.01099005
0.01099001
0.01098999
0.01098997
0.010997
0.01099008
0.01099005
0.01099001
0.01098999
0.01098998
0.010997
0.01099008
0.01099005
0.01099001
0.01098999
0.01098997
0.010997
0.01099008
0.01099005
0.01099001
0.01098999
0.01098998
0.010997
0.01099008
0.01099005
0.01099001
0.01098999
0.01098997
0.010997
0.01099008
0.01099005
0.01099001
0.01098999
0.01098997
0.010997
0.01099008
0.01099005
0.01099001
0.01098999
0.01098997
0.010997
0.01099008
0.01099005
0.01099001
0.01098999
0.01098997
0.010997
0.01099008
0.01099005
0.01099001
0.01098999
0.01098997
0.010997
0.01099008
0.01099005
0.01099001
0.01098999
0.01098997
0.010997
0.01099008
0.01099005
0.01099001
0.01098999
0.01098997
0.010997
0.01099008
0.01099005
0.01099001
0.01098999
0.01098997
0.010997
0.01099008
0.01099005
0.01099001
0.01098999
0.01098997
0.010997
0.01099008
0.01099005
0.01099001
0.01098999
0.01098997
0.010997
0.01099008
0.01099005
0.01099001
0.01098999
0.01098997
0.010997
0.01099008
0.01099005
0.01099001
0.01098999
0.01098997
0.010997
0.01099008
0.01099005
0.01099001
0.01098999
0.01098997
0.010997
0.01099008
0.01099005
0.01099001
0.01098999
0.01098997
0.010997
0.01099008
0.01099005
0.01099001
0.01098999
0.01098997
0.002104464
0.002109266
0.002108552
0.002108278
0.002108251
0.002108349
0.01099812
0.0109901
0.01099007
0.01099007
0.01099007
0.01099007
0.01099703
0.01099002
0.01099001
0.01098999
0.01098998
0.01098997
0.01099702
0.01099003
0.01099002
0.01099
0.01098998
0.01098997
0.01099701
0.01099003
0.01099003
0.01099001
0.01098999
0.01098997
0.01099701
0.01099003
0.01099003
0.01099001
0.01098999
0.01098998
0.01099701
0.01099003
0.01099003
0.01099001
0.01098999
0.01098998
0.01099701
0.01099003
0.01099003
0.01099001
0.01098999
0.01098998
0.01099701
0.01099003
0.01099003
0.01099001
0.01098999
0.01098998
0.01099701
0.01099003
0.01099003
0.01099001
0.01098999
0.01098998
0.01099701
0.01099003
0.01099003
0.01099001
0.01098999
0.01098998
0.01099701
0.01099003
0.01099003
0.01099001
0.01098999
0.01098998
0.01099701
0.01099003
0.01099003
0.01099001
0.01098999
0.01098998
0.01099701
0.01099003
0.01099003
0.01099001
0.01098999
0.01098998
0.01099701
0.01099003
0.01099003
0.01099001
0.01098999
0.01098998
0.01099701
0.01099003
0.01099003
0.01099001
0.01098999
0.01098998
0.01099701
0.01099003
0.01099003
0.01099001
0.01098999
0.01098998
0.01099701
0.01099003
0.01099003
0.01099001
0.01098999
0.01098998
0.01099701
0.01099003
0.01099003
0.01099001
0.01098999
0.01098998
0.01099701
0.01099003
0.01099003
0.01099001
0.01098999
0.01098998
0.01099701
0.01099003
0.01099003
0.01099001
0.01098999
0.01098998
0.01099701
0.01099003
0.01099003
0.01099001
0.01098999
0.01098998
0.01099701
0.01099003
0.01099002
0.01099001
0.01098999
0.01098998
0.01099701
0.01099003
0.01099002
0.01099001
0.01098999
0.01098998
0.002104326
0.00210911
0.002108364
0.002108035
0.002107994
0.002108103
0.01099812
0.01099008
0.01099006
0.01099007
0.01099006
0.01099006
0.010997
0.01099
0.01099
0.01098999
0.01098998
0.01098998
0.010997
0.01099001
0.01099
0.01098999
0.01098998
0.01098997
0.01099698
0.01099
0.01099
0.01098999
0.01098998
0.01098998
0.01099699
0.01099
0.01099
0.01098999
0.01098998
0.01098998
0.01099699
0.01099
0.01099
0.01098999
0.01098999
0.01098998
0.01099699
0.01099
0.01099
0.01098999
0.01098999
0.01098998
0.01099699
0.01099
0.01099
0.01098999
0.01098999
0.01098998
0.01099699
0.01099
0.01099
0.01098999
0.01098999
0.01098998
0.01099699
0.01099
0.01099
0.01098999
0.01098999
0.01098998
0.01099699
0.01099
0.01099
0.01098999
0.01098999
0.01098998
0.01099699
0.01099
0.01099
0.01098999
0.01098999
0.01098998
0.01099699
0.01099
0.01099
0.01098999
0.01098999
0.01098998
0.01099699
0.01099
0.01099
0.01098999
0.01098999
0.01098998
0.01099699
0.01099
0.01099
0.01098999
0.01098999
0.01098998
0.01099699
0.01099
0.01099
0.01098999
0.01098999
0.01098998
0.01099699
0.01099
0.01099
0.01098999
0.01098999
0.01098998
0.01099699
0.01099
0.01099
0.01098999
0.01098999
0.01098998
0.01099699
0.01099
0.01099
0.01098999
0.01098999
0.01098998
0.01099699
0.01099
0.01099
0.01098999
0.01098999
0.01098998
0.01099699
0.01099
0.01099
0.01098999
0.01098999
0.01098998
0.01099699
0.01099
0.01099
0.01098999
0.01098998
0.01098998
0.01099699
0.01099
0.01099
0.01098999
0.01098999
0.01098998
0.002104327
0.002109101
0.002108327
0.002108012
0.002107972
0.002108086
0.01099812
0.01099008
0.01099006
0.01099007
0.01099006
0.01099006
0.010997
0.01099
0.01099
0.01098999
0.01098998
0.01098998
0.01099701
0.01099001
0.01099
0.01098999
0.01098998
0.01098997
0.01099698
0.01099
0.01099
0.01098999
0.01098998
0.01098998
0.01099699
0.01099
0.01099
0.01098999
0.01098998
0.01098998
0.01099698
0.01099
0.01099
0.01098999
0.01098999
0.01098998
0.01099699
0.01099
0.01099
0.01098999
0.01098999
0.01098998
0.01099698
0.01099
0.01099
0.01098999
0.01098999
0.01098998
0.01099699
0.01099
0.01099
0.01098999
0.01098999
0.01098998
0.01099698
0.01099
0.01099
0.01098999
0.01098999
0.01098998
0.01099698
0.01099
0.01099
0.01098999
0.01098999
0.01098998
0.01099698
0.01099
0.01099
0.01098999
0.01098999
0.01098998
0.01099698
0.01099
0.01099
0.01098999
0.01098999
0.01098998
0.01099698
0.01099
0.01099
0.01098999
0.01098999
0.01098998
0.01099698
0.01099
0.01099
0.01098999
0.01098999
0.01098998
0.01099698
0.01099
0.01099
0.01098999
0.01098999
0.01098998
0.01099698
0.01099
0.01099
0.01098999
0.01098999
0.01098998
0.01099698
0.01099
0.01099
0.01098999
0.01098999
0.01098998
0.01099698
0.01099
0.01099
0.01098999
0.01098999
0.01098998
0.01099698
0.01099
0.01099
0.01098999
0.01098999
0.01098998
0.01099698
0.01099
0.01099
0.01098999
0.01098998
0.01098998
0.01099699
0.01099
0.01099
0.01098999
0.01098998
0.01098998
0.01099699
0.01099
0.01099
0.01098999
0.01098998
0.01098998
0.00210432
0.002109156
0.00210842
0.002108129
0.002108115
0.002108223
0.01099813
0.0109901
0.01099007
0.01099007
0.01099007
0.01099007
0.01099702
0.01099002
0.01099001
0.01098999
0.01098998
0.01098997
0.01099702
0.01099003
0.01099001
0.01098999
0.01098998
0.01098997
0.010997
0.01099002
0.01099002
0.01099
0.01098998
0.01098997
0.01099701
0.01099003
0.01099002
0.01099
0.01098999
0.01098997
0.010997
0.01099003
0.01099002
0.01099
0.01098999
0.01098998
0.010997
0.01099003
0.01099002
0.01099
0.01098999
0.01098998
0.010997
0.01099003
0.01099002
0.01099
0.01098999
0.01098998
0.010997
0.01099003
0.01099002
0.01099
0.01098999
0.01098998
0.010997
0.01099003
0.01099002
0.01099
0.01098999
0.01098998
0.010997
0.01099003
0.01099002
0.01099
0.01098999
0.01098998
0.010997
0.01099003
0.01099002
0.01099
0.01098999
0.01098998
0.010997
0.01099003
0.01099002
0.01099
0.01098999
0.01098998
0.010997
0.01099003
0.01099002
0.01099
0.01098999
0.01098998
0.010997
0.01099003
0.01099002
0.01099
0.01098999
0.01098998
0.010997
0.01099003
0.01099002
0.01099
0.01098999
0.01098998
0.010997
0.01099003
0.01099002
0.01099
0.01098999
0.01098998
0.010997
0.01099003
0.01099002
0.01099
0.01098999
0.01098998
0.010997
0.01099003
0.01099002
0.01099
0.01098999
0.01098998
0.010997
0.01099003
0.01099002
0.01099
0.01098999
0.01098997
0.010997
0.01099002
0.01099002
0.01099
0.01098999
0.01098997
0.010997
0.01099002
0.01099002
0.01099
0.01098998
0.01098997
0.010997
0.01099002
0.01099001
0.01099
0.01098998
0.01098998
0.00210454
0.002109636
0.002109076
0.00210881
0.0021088
0.002108875
0.01099812
0.01099012
0.01099008
0.01099008
0.01099008
0.01099008
0.01099703
0.01099005
0.01099002
0.01098999
0.01098998
0.01098998
0.01099703
0.01099007
0.01099003
0.01099
0.01098998
0.01098997
0.01099699
0.01099006
0.01099003
0.01099
0.01098998
0.01098998
0.01099699
0.01099007
0.01099003
0.01099
0.01098998
0.01098997
0.01099699
0.01099007
0.01099003
0.01099
0.01098998
0.01098998
0.01099699
0.01099007
0.01099003
0.01099
0.01098998
0.01098998
0.01099699
0.01099007
0.01099003
0.01099
0.01098998
0.01098998
0.01099698
0.01099007
0.01099003
0.01099
0.01098998
0.01098998
0.01099698
0.01099007
0.01099003
0.01099
0.01098998
0.01098998
0.01099698
0.01099007
0.01099003
0.01099
0.01098998
0.01098998
0.01099698
0.01099007
0.01099003
0.01099
0.01098998
0.01098998
0.01099698
0.01099007
0.01099003
0.01099
0.01098998
0.01098998
0.01099698
0.01099007
0.01099003
0.01099
0.01098998
0.01098998
0.01099698
0.01099007
0.01099003
0.01099
0.01098998
0.01098997
0.01099698
0.01099007
0.01099003
0.01099
0.01098998
0.01098997
0.01099698
0.01099007
0.01099003
0.01099
0.01098998
0.01098997
0.01099698
0.01099007
0.01099003
0.01099
0.01098998
0.01098997
0.01099698
0.01099007
0.01099003
0.01099
0.01098998
0.01098997
0.01099698
0.01099007
0.01099003
0.01099
0.01098998
0.01098997
0.01099698
0.01099006
0.01099003
0.01099
0.01098998
0.01098997
0.01099698
0.01099006
0.01099003
0.01099
0.01098998
0.01098997
0.01099698
0.01099006
0.01099003
0.01099
0.01098998
0.01098997
0.002103291
0.002106114
0.00210574
0.002105605
0.002105595
0.002105566
0.01099831
0.01099026
0.01099019
0.01099019
0.01099019
0.01099019
0.01099727
0.01099011
0.01099008
0.01099007
0.01099007
0.01099007
0.0109973
0.01099011
0.01099007
0.01099007
0.01099006
0.01099006
0.01099727
0.0109901
0.01099007
0.01099006
0.01099006
0.01099006
0.01099727
0.0109901
0.01099007
0.01099006
0.01099006
0.01099006
0.01099727
0.0109901
0.01099007
0.01099006
0.01099006
0.01099006
0.01099727
0.0109901
0.01099007
0.01099006
0.01099006
0.01099006
0.01099726
0.0109901
0.01099007
0.01099006
0.01099006
0.01099006
0.01099726
0.0109901
0.01099007
0.01099006
0.01099006
0.01099006
0.01099726
0.0109901
0.01099007
0.01099006
0.01099006
0.01099006
0.01099726
0.0109901
0.01099007
0.01099006
0.01099006
0.01099006
0.01099726
0.0109901
0.01099007
0.01099006
0.01099006
0.01099006
0.01099726
0.0109901
0.01099007
0.01099006
0.01099006
0.01099006
0.01099726
0.0109901
0.01099007
0.01099006
0.01099006
0.01099006
0.01099726
0.0109901
0.01099007
0.01099006
0.01099006
0.01099006
0.01099726
0.0109901
0.01099007
0.01099006
0.01099006
0.01099006
0.01099726
0.0109901
0.01099007
0.01099006
0.01099006
0.01099006
0.01099726
0.0109901
0.01099007
0.01099006
0.01099006
0.01099006
0.01099726
0.0109901
0.01099007
0.01099006
0.01099006
0.01099006
0.01099726
0.0109901
0.01099007
0.01099006
0.01099006
0.01099006
0.01099726
0.0109901
0.01099007
0.01099006
0.01099006
0.01099006
0.01099726
0.0109901
0.01099007
0.01099006
0.01099006
0.01099006
0.01099726
0.0109901
0.01099007
0.01099006
0.01099007
0.01099007
0.00595939
0.006069248
0.006072248
0.006072605
0.006072635
0.006072492
0.01102489
0.01098951
0.01098907
0.01098907
0.01098904
0.01098905
0.01098918
0.01102219
0.01099039
0.01098971
0.01098957
0.01098949
0.01098948
0.01098962
0.01102215
0.0109902
0.01098952
0.01098937
0.01098934
0.01098933
0.01098946
0.01102213
0.01099009
0.01098953
0.01098936
0.01098931
0.01098929
0.01098941
0.01102212
0.01099018
0.01098949
0.01098934
0.0109893
0.01098928
0.0109894
0.01102211
0.01099014
0.01098949
0.01098934
0.01098929
0.01098928
0.0109894
0.01102211
0.01099013
0.01098949
0.01098934
0.01098929
0.01098928
0.0109894
0.01102211
0.01099013
0.01098949
0.01098934
0.01098929
0.01098928
0.0109894
0.01102211
0.01099013
0.01098949
0.01098934
0.01098929
0.01098928
0.01098939
0.01102211
0.01099013
0.01098949
0.01098934
0.01098929
0.01098928
0.01098939
0.01102211
0.01099013
0.01098948
0.01098934
0.01098929
0.01098928
0.01098939
0.01102211
0.01099014
0.01098949
0.01098934
0.01098929
0.01098928
0.01098939
0.01102211
0.01099013
0.01098949
0.01098934
0.01098929
0.01098928
0.01098939
0.01102211
0.01099013
0.01098949
0.01098934
0.01098929
0.01098928
0.01098939
0.01102211
0.01099014
0.01098949
0.01098934
0.01098929
0.01098928
0.01098939
0.01102211
0.01099013
0.01098949
0.01098934
0.01098929
0.01098928
0.01098939
0.01102211
0.01099013
0.01098949
0.01098934
0.01098929
0.01098928
0.01098939
0.01102211
0.01099013
0.01098949
0.01098934
0.01098929
0.01098928
0.01098939
0.01102211
0.01099013
0.01098949
0.01098934
0.01098929
0.01098928
0.01098939
0.01102211
0.01099014
0.01098949
0.01098934
0.01098929
0.01098928
0.0109894
0.01102211
0.01099013
0.01098949
0.01098934
0.01098929
0.01098928
0.0109894
0.01102211
0.01099013
0.01098949
0.01098935
0.0109893
0.01098929
0.0109894
0.01102213
0.01099015
0.01098951
0.01098937
0.01098936
0.01098931
0.01098944
0.004155905
0.006766189
0.01102657
0.01099582
0.004127462
0.004299269
0.005959351
0.006075398
0.01099649
0.01099634
0.00430004
0.004307906
0.006069273
0.00607955
0.01099662
0.0109966
0.004304405
0.004308412
0.00607226
0.006079491
0.01099673
0.01099665
0.004304768
0.004308497
0.006072628
0.006079564
0.01099674
0.01099668
0.004304798
0.004308235
0.006072661
0.006079477
0.01099676
0.01099668
0.004304346
0.006072504
0.01099676
0.004119936
0.004280333
0.0110232
0.01099582
0.0110224
0.01099574
0.004285697
0.004289105
0.0110199
0.01099526
0.01102218
0.01099528
0.004290101
0.004290069
0.01101988
0.01099525
0.01102216
0.01099529
0.004289915
0.0042898
0.01101985
0.01099527
0.01102215
0.01099529
0.004290134
0.004290087
0.01101985
0.01099528
0.01102214
0.01099528
0.004290116
0.004290128
0.01101984
0.01099528
0.01102213
0.0109953
0.004290098
0.00429018
0.01101984
0.0109953
0.01102213
0.0109953
0.004290145
0.004290172
0.01101984
0.0109953
0.01102213
0.0109953
0.004290166
0.00429018
0.01101984
0.0109953
0.01102213
0.0109953
0.00429012
0.004290161
0.01101984
0.0109953
0.01102213
0.0109953
0.004290153
0.004290168
0.01101984
0.0109953
0.01102213
0.0109953
0.004290158
0.004290169
0.01101984
0.0109953
0.01102213
0.0109953
0.004290125
0.004290148
0.01101984
0.0109953
0.01102213
0.0109953
0.004290152
0.004290163
0.01101984
0.0109953
0.01102213
0.0109953
0.004290115
0.004290143
0.01101984
0.0109953
0.01102213
0.0109953
0.004290149
0.00429016
0.01101984
0.0109953
0.01102213
0.0109953
0.00429015
0.00429016
0.01101984
0.0109953
0.01102213
0.0109953
0.004290124
0.004290154
0.01101984
0.0109953
0.01102213
0.0109953
0.00429014
0.004290158
0.01101984
0.0109953
0.01102213
0.0109953
0.004290097
0.004290129
0.01101984
0.0109953
0.01102213
0.0109953
0.004290091
0.004290058
0.01101984
0.0109953
0.01102213
0.0109953
0.004289921
0.004289435
0.01101984
0.01099529
0.01102213
0.01099529
0.004289049
0.01085079
0.01102211
0.01099529
0.01101983
0.01099229
0.005961993
0.01102215
0.01099048
0.006030858
0.01102161
0.01099026
0.006033597
0.0110191
0.01098975
0.00603311
0.01102139
0.01098965
0.006034317
0.0110191
0.01098967
0.00603466
0.01102143
0.01098971
0.006034432
0.01101909
0.0109897
0.006034511
0.0110214
0.01098969
0.006034345
0.01101908
0.01098969
0.006034708
0.01102142
0.01098969
0.006033941
0.01101909
0.01098969
0.006034596
0.01102141
0.01098967
0.006033309
0.01101907
0.01098965
0.006033616
0.01102144
0.01098972
0.006030954
0.01101922
0.01099025
0.005962151
0.01102394
0.01099049
0.006766347
0.01102414
0.01099578
0.004155906
0.01099668
0.004304363
0.0109928
0.01102238
0.01099574
0.004119932
0.004280322
0.01099226
0.01102216
0.01099528
0.004285707
0.0042891
0.01099228
0.01102212
0.01099529
0.004289967
0.004289785
0.01099228
0.01102211
0.01099528
0.004290115
0.004290085
0.01099228
0.01102211
0.0109953
0.004290109
0.004290128
0.0109923
0.01102211
0.0109953
0.004290104
0.0042902
0.01099229
0.01102211
0.0109953
0.004290085
0.004290115
0.0109923
0.01102211
0.0109953
0.004290087
0.004290154
0.0109923
0.01102211
0.0109953
0.004290148
0.004290114
0.0109923
0.01102211
0.0109953
0.004290055
0.004290112
0.0109923
0.01102211
0.0109953
0.004290188
0.004290198
0.0109923
0.01102211
0.0109953
0.004290106
0.004290089
0.0109923
0.01102211
0.0109953
0.004290069
0.004290139
0.0109923
0.0110221
0.0109953
0.004290136
0.004290166
0.0109923
0.0110221
0.0109953
0.004290106
0.004290155
0.0109923
0.0110221
0.0109953
0.004290113
0.004290103
0.01099231
0.01102211
0.0109953
0.004290088
0.004290155
0.0109923
0.01102211
0.0109953
0.004290133
0.004290114
0.0109923
0.01102211
0.0109953
0.004290096
0.004290045
0.01099229
0.01102211
0.01099529
0.004289953
0.004289449
0.01099528
0.0110221
0.01099227
0.004289003
0.01084991
0.01099593
0.008756462
0.01099726
0.008856193
0.01099643
0.008871805
0.01099687
0.008879017
0.01099612
0.008879965
0.01099672
0.008881086
0.01099603
0.008882021
0.0109968
0.008881432
0.01099587
0.008881081
0.01099675
0.008881675
0.01099587
0.008881321
0.01099674
0.008881507
0.01099584
0.008881304
0.01099674
0.008881419
0.01099584
0.008881345
0.01099673
0.008881403
0.01099585
0.008881323
0.01099673
0.008881332
0.01099584
0.008881317
0.01099674
0.008881345
0.01099585
0.008881308
0.01099673
0.008881337
0.01099584
0.008881302
0.01099673
0.008881311
0.01099584
0.008881297
0.01099674
0.008881358
0.01099584
0.008881321
0.01099673
0.008881329
0.01099584
0.008881281
0.01099674
0.008881336
0.01099584
0.008881294
0.01099673
0.008881323
0.01099584
0.008881279
0.01099673
0.00888129
0.01099584
0.008881272
0.01099674
0.008881327
0.01099584
0.00888129
0.01099673
0.008881302
0.01099584
0.008881257
0.01099674
0.008881282
0.01099585
0.008881236
0.01099673
0.00888126
0.01099585
0.008881219
0.01099675
0.008881251
0.01099585
0.008881211
0.01099672
0.008880982
0.01099584
0.008880346
0.01097806
0.01097919
0.01097779
0.01097668
0.01097967
0.01097551
0.01097748
0.01097693
0.01097857
0.01097546
0.01097787
0.01097667
0.01097765
0.01097761
0.01097766
0.01097814
0.01099409
0.01098877
0.006075391
0.01099648
0.01099633
0.00412746
0.004299328
0.006079557
0.01099656
0.0109966
0.004300088
0.004307947
0.006079488
0.01099666
0.01099664
0.004304427
0.004308411
0.006079566
0.01099667
0.01099666
0.0043048
0.004308544
0.006079495
0.01099655
0.01099354
0.004304816
0.004308236
0.01099225
0.01102213
0.01099528
0.004290121
0.0042901
0.0109923
0.0110221
0.0109953
0.004290102
0.004290127
0.01100386
0.008858037
0.01100423
0.00854608
0.01099395
0.01098834
0.01099712
0.008877993
0.01099612
0.008874602
0.01099689
0.008881302
0.01099594
0.008880456
0.01099678
0.008881607
0.01099586
0.008881304
0.01099676
0.008881221
0.01099592
0.008881457
0.01099671
0.008881314
0.01099585
0.00888153
0.01099672
0.008881322
0.01099584
0.008881332
0.0109967
0.008881376
0.01099583
0.008881415
0.01099671
0.008881338
0.01099582
0.008881351
0.01099671
0.008881336
0.01099582
0.008881326
0.01099671
0.008881333
0.01099582
0.008881344
0.01099671
0.008881318
0.01099582
0.008881315
0.01099671
0.008881327
0.01099582
0.0088813
0.01099671
0.008881351
0.01099582
0.008881342
0.01099671
0.008881316
0.01099583
0.008881299
0.01099671
0.00888131
0.01099583
0.008881338
0.01099671
0.008881297
0.01099582
0.008881289
0.01099671
0.0088813
0.01099583
0.008881278
0.01099671
0.008881307
0.01099582
0.008881312
0.01099671
0.008881275
0.01099583
0.008881294
0.01099671
0.008881257
0.01099583
0.00888128
0.01099671
0.008881258
0.01099583
0.008881238
0.01099673
0.00888114
0.01099581
0.008881163
0.01099665
0.01066056
0.00888013
0.0109908
0.01097798
0.01097722
0.01097759
0.0109786
0.01097712
0.01097615
0.0109785
0.01097649
0.01097742
0.01097721
0.01097787
0.0109776
0.01097901
0.01097544
0.01097869
0.01097795
0.01099556
0.008756792
0.01099816
0.008917101
0.01099723
0.008574049
0.01100388
0.008857823
0.01100427
0.008545889
0.0109962
0.008928908
0.01099709
0.008944022
0.01099726
0.00885603
0.01099641
0.008871782
0.01099713
0.008878059
0.01099614
0.008874567
0.01099687
0.008879091
0.01099609
0.008880006
0.01099689
0.008881401
0.01099597
0.008880454
0.0109968
0.008880711
0.01099587
0.00888113
0.01099676
0.008881245
0.01099595
0.00888148
0.01099675
0.008881741
0.01099584
0.008881364
0.01099671
0.008881359
0.01099587
0.008881581
0.01099673
0.00888144
0.01099584
0.008881518
0.01099678
0.008881615
0.01099581
0.008880663
0.01099675
0.00888139
0.01099584
0.008881342
0.01099672
0.008881414
0.01099584
0.008881389
0.01099677
0.008881458
0.01099581
0.008880618
0.01099675
0.008881368
0.01099585
0.008881322
0.01099671
0.008881372
0.01099584
0.008881418
0.01099674
0.008881374
0.01099582
0.008881325
0.01099671
0.008881361
0.01099584
0.008881348
0.01099673
0.008881307
0.01099582
0.008881333
0.01099671
0.008881412
0.01099584
0.00888132
0.01099673
0.008881301
0.01099583
0.008881398
0.01099672
0.00888099
0.01099586
0.00888043
0.01099668
0.0086691
0.008880164
0.01099069
0.006863115
0.007511606
0.007275728
0.007311049
0.007274736
0.007302805
0.007284187
0.007285566
0.007278078
0.007293905
0.007275343
0.007309182
0.007294753
0.00726611
0.007291156
0.007275669
0.007233637
0.007232647
0.007279189
0.007312944
0.01099824
0.008916765
0.01099681
0.008573525
0.007326735
0.007322392
0.007270347
0.007306409
0.007263281
0.007224777
0.007247924
0.00726565
0.007311161
0.007305038
0.00730489
0.007245471
0.007328738
0.007315345
0.007303707
0.007297549
0.007269099
0.007303328
0.006903259
0.007562353
0.01097688
0.008515728
0.01097376
0.008510088
0.007932031
0.007985603
0.007940136
0.007980111
0.01097872
0.008512447
0.008512116
0.0109731
0.01097869
0.008512814
0.008512203
0.01097396
0.01097889
0.008514014
0.01097399
0.008513103
0.01097892
0.008513652
0.01097399
0.008513001
0.01097882
0.008513574
0.008513039
0.0109739
0.01097887
0.008513704
0.010974
0.008512985
0.01099674
0.008881558
0.01099581
0.008881348
0.01099672
0.008881758
0.01099584
0.008881484
0.01099672
0.008881497
0.01099582
0.008881425
0.01099674
0.008882027
0.01099583
0.0088809
0.01099676
0.008881863
0.01099581
0.008881483
0.01099671
0.008881809
0.01099583
0.00888159
0.01099675
0.008881411
0.01099583
0.008880666
0.01099673
0.008881964
0.01099583
0.008880848
0.01099679
0.008881663
0.01099581
0.008880617
0.01099675
0.008880755
0.01099584
0.008880724
0.01099674
0.008880594
0.01099583
0.008880534
0.01099671
0.008880597
0.01099585
0.00888056
0.01099677
0.008880737
0.01099582
0.008880687
0.01099675
0.008881991
0.01099583
0.008880861
0.01099675
0.008881959
0.01099581
0.00888187
0.01099673
0.008881415
0.01099585
0.008881544
0.01099674
0.008881786
0.01099581
0.008881434
0.01099671
0.008881704
0.01099581
0.008881465
0.01097881
0.008513659
0.008512914
0.01097399
0.01097882
0.00851366
0.01097398
0.008512888
0.01097881
0.008513644
0.00851299
0.01097388
0.01099674
0.008881996
0.01099583
0.008880861
0.0109788
0.008513661
0.01097398
0.008512891
0.01097883
0.008513606
0.01097398
0.008512933
0.01097883
0.008513592
0.008512898
0.01097389
0.01097883
0.00851359
0.01097398
0.008512916
0.01097885
0.008513606
0.008512902
0.01097397
0.01099671
0.008881358
0.01099579
0.008881301
0.01097887
0.008513598
0.008512849
0.01097401
0.01097873
0.008512531
0.008512089
0.01097401
0.007312461
0.007830464
0.007710607
0.007587228
0.0110225
0.008507697
0.01102677
0.008456894
0.007097697
0.007246688
0.007285334
0.007321409
0.007282332
0.007312408
0.007223651
0.007260539
0.007303923
0.007306577
0.007249486
0.007247756
0.007284221
0.007313177
0.007324744
0.007270332
0.007295152
0.007310637
0.00727572
0.007273554
0.008904958
0.01099891
0.008934517
0.0109957
0.008950716
0.00891873
0.01099831
0.01099314
0.008925777
0.00894357
0.01099607
0.01099614
0.008953479
0.00892445
0.01099965
0.0109933
0.008927633
0.008944407
0.01099615
0.01099699
0.008953658
0.008925396
0.01099975
0.01099328
0.008927844
0.008943443
0.01099611
0.01099705
0.008953788
0.00892426
0.01099979
0.01099333
0.008927995
0.008944325
0.0109957
0.01099707
0.00895496
0.01098741
0.008925235
0.01099337
0.008881183
0.01099604
0.008881318
0.01099671
0.008880886
0.01099588
0.008880588
0.01099676
0.008881507
0.01099584
0.008881352
0.01099673
0.008881743
0.01099583
0.008881741
0.0109967
0.007298849
0.00730273
0.007286741
0.007318989
0.007307363
0.007298891
0.007300609
0.007308649
0.007284887
0.007270296
0.007308843
0.007276815
0.007328917
0.007330377
0.007260027
0.007218449
0.007256276
0.007278113
0.00705338
0.00719667
0.007315358
0.007837879
0.007587291
0.007732405
0.01102177
0.008515392
0.008494007
0.01102666
0.01097706
0.008494077
0.01097284
0.008504567
0.007936493
0.007984461
0.007941872
0.01097855
0.008513094
0.008512171
0.01097405
0.01097875
0.008513561
0.01097399
0.008512954
0.01097872
0.008513644
0.01097401
0.008512994
0.01097891
0.00851403
0.008513197
0.01097403
0.01097876
0.008513638
0.008512943
0.01097399
0.01097875
0.008513625
0.01097389
0.008512932
0.01097882
0.008513982
0.008513133
0.01097404
0.01097876
0.008513632
0.008512936
0.01097399
0.01097874
0.008513615
0.0109739
0.008512917
0.01097875
0.008513596
0.01097396
0.008512919
0.01097881
0.008513596
0.008512911
0.01097399
0.01097883
0.008513611
0.01097389
0.008512912
0.01097872
0.008513592
0.008512898
0.01097401
0.01097871
0.008513525
0.008512843
0.01097402
0.01097878
0.008513514
0.0109739
0.008512421
0.01099713
0.01099714
0.01099713
0.01099741
0.01102208
0.01099032
0.01098961
0.01098953
0.01098945
0.01098945
0.01098944
0.01085048
0.0110221
0.01099529
0.01066042
0.01099073
0.01099229
0.01085024
0.00866826
0.01099072
0.01099578
0.008904747
0.01099307
0.0089355
0.01099612
0.008926661
0.01099614
0.008944488
0.01099612
0.008928383
0.01099696
0.008944356
0.01099616
0.008928669
0.01099704
0.008944255
0.01099618
0.008928798
0.01099707
0.008944285
0.01099618
0.008928811
0.01099709
0.008944062
0.01097872
0.008512908
0.01097322
0.008512128
0.01097869
0.008512791
0.01097399
0.0085122
0.01097887
0.008513653
0.010974
0.008513196
0.01097883
0.008513773
0.01097396
0.008512977
0.01097883
0.008513626
0.010974
0.008513087
0.01097883
0.008513693
0.01097402
0.008513015
0.01097882
0.008513712
0.01097398
0.008513045
0.01097882
0.008513705
0.01097398
0.008513019
0.01097883
0.008513681
0.01097397
0.008513011
0.01097883
0.008513686
0.01097398
0.008513009
0.01097883
0.008513668
0.01097398
0.008512992
0.01097883
0.008513657
0.01097398
0.008512989
0.01097882
0.00851368
0.01097398
0.008512995
0.01097883
0.008513655
0.01097398
0.008512958
0.01097882
0.008513669
0.01097398
0.008512984
0.01097883
0.008513645
0.01097399
0.008512963
0.01097883
0.008513642
0.01097398
0.008512969
0.01097882
0.008513657
0.01097398
0.008512972
0.01097883
0.008513636
0.01097398
0.008512953
0.01097883
0.008513632
0.01097399
0.008512956
0.01097884
0.008513615
0.01097399
0.008512934