/*--------------------------------*- C++ -*----------------------------------*\
  =========                 |
  \\      /  F ield         | OpenFOAM: The Open Source CFD Toolbox
   \\    /   O peration     | Website:  https://openfoam.org
    \\  /    A nd           | Version:  7
     \\/     M anipulation  |
\*---------------------------------------------------------------------------*/
FoamFile
{
    version     2.0;
    format      ascii;
    class       volScalarField;
    location    "0.07";
    object      k;
}
// * * * * * * * * * * * * * * * * * * * * * * * * * * * * * * * * * * * * * //

dimensions      [0 2 -2 0 0 0 0];

internalField   nonuniform List<scalar> 
77308
(
0.003710553
0.003708706
0.003708638
0.003708815
0.00370908
0.003709428
0.003731468
0.003730999
0.003730874
0.003730932
0.003731038
0.003731207
0.003731179
0.003730408
0.003730214
0.003730245
0.003730342
0.003730497
0.003731086
0.003730263
0.003730025
0.003730036
0.003730151
0.003730303
0.003730967
0.003730107
0.00372985
0.003729861
0.003729969
0.003730131
0.003730878
0.003730007
0.00372975
0.003729762
0.00372988
0.003730046
0.00373076
0.003729881
0.003729628
0.003729647
0.003729772
0.003729948
0.003730635
0.003729759
0.003729517
0.003729548
0.003729685
0.003729872
0.003730502
0.003729638
0.003729417
0.003729465
0.003729617
0.003729815
0.003730389
0.003729571
0.003729387
0.003729463
0.003729633
0.003729845
0.003730384
0.003729701
0.003729603
0.003729716
0.003729905
0.003730127
0.003730602
0.003730321
0.00373035
0.003730499
0.003730692
0.003730907
0.0037095
0.003708359
0.003708628
0.00370903
0.003709529
0.003710065
0.003570955
0.003573955
0.003576979
0.00358017
0.003583477
0.003586938
0.003766195
0.003766264
0.003766213
0.003767247
0.003768933
0.003771093
0.003751132
0.003752956
0.003752973
0.003753205
0.003753676
0.003754309
0.003754303
0.003755539
0.003756399
0.003757037
0.003757678
0.003758515
0.003753464
0.003755061
0.00375579
0.003756795
0.003757696
0.003758661
0.003750963
0.003752237
0.003753054
0.003753923
0.00375487
0.00375601
0.003749349
0.003750698
0.003751582
0.003752668
0.003753873
0.003755189
0.003747208
0.003748446
0.003749409
0.00375059
0.003751977
0.003753501
0.003745192
0.003746445
0.003747561
0.003748934
0.003750561
0.003752328
0.003743021
0.003744291
0.003745563
0.003747153
0.003749037
0.003751087
0.003740823
0.003742166
0.003743644
0.003745494
0.003747663
0.003750038
0.003505797
0.003505689
0.003505692
0.003505698
0.003505705
0.003505714
0.003710814
0.003505757
0.003505754
0.003505759
0.003505765
0.003505773
0.003505783
0.003710258
0.003505754
0.003505756
0.003505761
0.003505768
0.003505777
0.003505788
0.003709954
0.003505752
0.003505754
0.003505761
0.003505769
0.003505779
0.00350579
0.003709733
0.003505751
0.003505754
0.003505761
0.00350577
0.00350578
0.003505792
0.00370949
0.003505748
0.003505752
0.00350576
0.003505769
0.00350578
0.003505793
0.003709173
0.003505745
0.003505749
0.003505757
0.003505767
0.003505779
0.003505792
0.003708821
0.003505741
0.003505746
0.003505754
0.003505764
0.003505776
0.003505789
0.003708419
0.003505736
0.003505741
0.003505749
0.00350576
0.003505773
0.003505787
0.003707982
0.00350573
0.003505735
0.003505744
0.003505755
0.003505769
0.003505782
0.003707556
0.003505724
0.003505728
0.003505746
0.003505758
0.003505772
0.003505787
0.0037073
0.003505718
0.003505735
0.003505748
0.00350576
0.003505772
0.003505786
0.003707292
0.003505656
0.003505673
0.00350569
0.003505708
0.003505727
0.003505747
0.003670505
0.003668676
0.0036684
0.003669048
0.003670063
0.00367121
0.003874976
0.003520424
0.003511605
0.003510354
0.003511997
0.003511207
0.003511324
0.003774661
0.003509481
0.003510149
0.003510218
0.003510381
0.003510495
0.00351043
0.003769023
0.003507523
0.003508394
0.003508302
0.00350787
0.003507911
0.003508077
0.003769211
0.003507714
0.003507546
0.003507549
0.003507613
0.003507727
0.003507789
0.003764365
0.003507689
0.003507913
0.003507875
0.003507875
0.00350785
0.003507899
0.003759349
0.00350757
0.003507751
0.00350768
0.003507727
0.00350774
0.003507798
0.003753922
0.003507611
0.00350777
0.003507713
0.003507797
0.003507838
0.003507886
0.00374837
0.003507596
0.003507703
0.003507669
0.003507756
0.003507814
0.003507874
0.003742644
0.003507597
0.003507721
0.003507709
0.003507817
0.003507911
0.003508001
0.003509254
0.003507567
0.003507704
0.003507716
0.003507853
0.003508006
0.003508147
0.00350579
0.003505684
0.003505687
0.003505692
0.003505699
0.003505707
0.003710587
0.003505675
0.003505675
0.00350568
0.003505686
0.003505694
0.003505703
0.003730954
0.003505755
0.003505676
0.003505682
0.003505689
0.003505697
0.003505708
0.003730471
0.003505754
0.003505675
0.003505682
0.00350569
0.003505699
0.00350571
0.003730333
0.003505751
0.003505674
0.003505682
0.00350569
0.0035057
0.003505712
0.003730174
0.003505749
0.003505673
0.00350568
0.003505689
0.0035057
0.003505712
0.003730048
0.003505746
0.00350567
0.003505678
0.003505688
0.003505699
0.003505711
0.003729903
0.003505741
0.003505666
0.003505675
0.003505684
0.003505696
0.003505709
0.003729758
0.003505736
0.003505661
0.00350567
0.00350568
0.003505692
0.003505705
0.00372963
0.00350573
0.003505655
0.003505664
0.003505675
0.003505686
0.0035057
0.003729594
0.003505723
0.003505648
0.003505658
0.003505668
0.00350568
0.003505693
0.003729721
0.003505716
0.003505855
0.003505866
0.003505896
0.003505919
0.003505947
0.003706848
0.003505655
0.003734064
0.003733078
0.00373287
0.003732945
0.003733124
0.00366807
0.003873968
0.003511654
0.003516523
0.003524978
0.00351963
0.003519942
0.003520919
0.003751825
0.00351252
0.003507929
0.003507345
0.003507716
0.003507502
0.003507644
0.00375436
0.00350916
0.003507263
0.003507631
0.003507614
0.00350744
0.003507452
0.003753604
0.003508618
0.003507297
0.003507318
0.003507405
0.003507333
0.003507458
0.003751008
0.003508999
0.003507639
0.003507666
0.003507707
0.00350779
0.003507675
0.003749494
0.003508889
0.003507436
0.003507565
0.003507592
0.003507656
0.003507618
0.003747222
0.003508965
0.003507533
0.003507617
0.003507702
0.003507758
0.003507789
0.003745131
0.003508987
0.003507496
0.00350758
0.003507657
0.003507731
0.003507784
0.003742818
0.003509037
0.003507534
0.003507625
0.003507728
0.003507831
0.003507919
0.003740558
0.003509076
0.00350753
0.003507647
0.003507779
0.00350793
0.003508072
0.003505791
0.003505683
0.003505686
0.003505691
0.003505697
0.003505705
0.003710337
0.003505675
0.003505674
0.003505678
0.003505685
0.003505692
0.003505702
0.003730716
0.003505755
0.003505676
0.003505681
0.003505688
0.003505697
0.003505707
0.00373001
0.003505751
0.003505675
0.003505682
0.003505689
0.003505699
0.00350571
0.003729797
0.003505749
0.003505674
0.003505682
0.00350569
0.0035057
0.003505712
0.003729615
0.003505746
0.003505672
0.00350568
0.003505689
0.0035057
0.003505712
0.003729478
0.003505743
0.003505669
0.003505678
0.003505687
0.003505698
0.003505711
0.003729327
0.003505739
0.003505666
0.003505674
0.003505684
0.003505695
0.003505708
0.00372918
0.003505733
0.003505661
0.003505669
0.003505679
0.003505691
0.003505704
0.003729066
0.003505727
0.003505654
0.003505663
0.003505673
0.003505685
0.003505699
0.003729103
0.00350572
0.003505647
0.003505656
0.003505667
0.003505679
0.003505692
0.003729481
0.003505715
0.003505824
0.003505836
0.003505869
0.003505892
0.003505919
0.003705614
0.003505654
0.003732983
0.003731511
0.003731025
0.003731036
0.003731224
0.003666763
0.003881268
0.003508818
0.003518339
0.003527665
0.003523669
0.003522096
0.003521607
0.003753171
0.00351353
0.003507933
0.003508016
0.0035077
0.003507835
0.003507953
0.003754549
0.003509223
0.003507986
0.0035071
0.003508213
0.003507389
0.003507518
0.003754465
0.00350888
0.003507145
0.003507226
0.003507277
0.003507403
0.003507402
0.003751594
0.003508997
0.003507814
0.003507528
0.00350786
0.003507735
0.0035077
0.003749919
0.003508872
0.003507559
0.003507453
0.003507676
0.003507623
0.003507643
0.003747597
0.003508949
0.003507586
0.003507593
0.003507713
0.003507743
0.003507791
0.003745334
0.003508974
0.003507511
0.003507564
0.003507667
0.003507727
0.003507786
0.003742891
0.003508999
0.003507539
0.003507619
0.003507729
0.003507827
0.003507917
0.003740524
0.003509041
0.00350752
0.003507642
0.003507776
0.003507929
0.003508073
0.003505791
0.003505683
0.003505686
0.003505691
0.003505697
0.003505705
0.003710289
0.003505675
0.003505674
0.003505679
0.003505684
0.003505692
0.003505701
0.003730634
0.003505755
0.003505676
0.003505681
0.003505687
0.003505696
0.003505706
0.003729856
0.003505751
0.003505675
0.003505682
0.003505689
0.003505698
0.003505709
0.003729606
0.003505749
0.003505674
0.003505681
0.00350569
0.0035057
0.003505711
0.003729405
0.003505746
0.003505672
0.00350568
0.003505689
0.003505699
0.003505712
0.003729267
0.003505742
0.003505669
0.003505677
0.003505687
0.003505698
0.003505711
0.003729113
0.003505738
0.003505665
0.003505674
0.003505683
0.003505695
0.003505708
0.003728968
0.003505732
0.00350566
0.003505669
0.003505678
0.00350569
0.003505703
0.003728864
0.003505726
0.003505654
0.003505662
0.003505673
0.003505684
0.003505698
0.00372894
0.003505719
0.003505646
0.003505656
0.003505666
0.003505678
0.003505691
0.003729382
0.003505714
0.003505817
0.003505827
0.003505862
0.003505885
0.003505912
0.003705448
0.003505654
0.003732613
0.003730854
0.003730231
0.0037302
0.003730386
0.003666365
0.003882288
0.003510417
0.003526855
0.003522865
0.003523448
0.003522532
0.003521705
0.003752422
0.00351545
0.003507382
0.003507558
0.003507101
0.00350736
0.00350732
0.003754731
0.003509918
0.003507438
0.003508061
0.003507229
0.003508174
0.00350738
0.003754144
0.003508731
0.003507271
0.003507152
0.003507289
0.003507292
0.003507431
0.003751334
0.003509025
0.003507525
0.003507911
0.003507538
0.003507858
0.003507625
0.003749733
0.003508882
0.003507385
0.003507594
0.003507511
0.003507717
0.003507601
0.003747404
0.003508933
0.003507476
0.003507651
0.003507685
0.003507773
0.003507774
0.003745284
0.003508939
0.003507469
0.003507611
0.00350765
0.003507741
0.003507781
0.003742811
0.003508976
0.003507523
0.003507632
0.00350772
0.003507833
0.003507913
0.003740434
0.003509008
0.003507511
0.003507648
0.003507776
0.003507936
0.00350808
0.003505791
0.003505683
0.003505686
0.003505691
0.003505697
0.003505705
0.003710256
0.003505675
0.003505674
0.003505678
0.003505684
0.003505692
0.003505701
0.003730635
0.003505755
0.003505676
0.00350568
0.003505687
0.003505696
0.003505706
0.003729855
0.003505752
0.003505675
0.003505682
0.003505689
0.003505698
0.003505709
0.003729606
0.003505749
0.003505674
0.003505681
0.00350569
0.003505699
0.003505711
0.003729404
0.003505746
0.003505672
0.00350568
0.003505689
0.003505699
0.003505712
0.003729267
0.003505742
0.003505669
0.003505677
0.003505687
0.003505698
0.003505711
0.003729113
0.003505738
0.003505665
0.003505674
0.003505683
0.003505695
0.003505708
0.003728968
0.003505732
0.00350566
0.003505668
0.003505678
0.00350569
0.003505704
0.003728864
0.003505726
0.003505654
0.003505662
0.003505673
0.003505685
0.003505698
0.003728941
0.003505719
0.003505646
0.003505656
0.003505666
0.003505678
0.003505691
0.003729383
0.003505714
0.003505817
0.003505827
0.003505862
0.003505885
0.003505912
0.003705435
0.003505654
0.003732613
0.003730854
0.003730231
0.0037302
0.003730386
0.003666326
0.003888059
0.003528079
0.003526609
0.003522929
0.003523435
0.003522607
0.003521709
0.003752396
0.003515249
0.003507393
0.003507521
0.003507098
0.003507361
0.00350733
0.003754715
0.003509861
0.003507443
0.003508077
0.003507225
0.003508212
0.003507373
0.003754142
0.003508731
0.003507279
0.003507151
0.003507287
0.003507291
0.003507428
0.003751328
0.003509021
0.003507523
0.003507914
0.003507536
0.003507859
0.003507625
0.003749744
0.003508881
0.003507385
0.003507595
0.003507511
0.00350772
0.003507602
0.003747408
0.003508932
0.003507476
0.003507652
0.003507686
0.003507774
0.003507774
0.00374528
0.00350894
0.003507469
0.003507613
0.003507651
0.003507742
0.003507781
0.003742807
0.003508977
0.003507523
0.003507633
0.00350772
0.003507832
0.003507913
0.00374043
0.003509008
0.003507511
0.003507651
0.003507778
0.003507937
0.003508079
0.00350579
0.003505682
0.003505685
0.00350569
0.003505697
0.003505705
0.003710318
0.003505675
0.003505674
0.003505679
0.003505685
0.003505692
0.003505702
0.003730716
0.003505755
0.003505677
0.003505681
0.003505688
0.003505697
0.003505707
0.003730009
0.003505751
0.003505675
0.003505682
0.00350569
0.003505699
0.00350571
0.003729797
0.003505749
0.003505674
0.003505681
0.00350569
0.0035057
0.003505712
0.003729616
0.003505746
0.003505672
0.00350568
0.003505689
0.0035057
0.003505712
0.003729481
0.003505743
0.003505669
0.003505678
0.003505687
0.003505698
0.003505711
0.00372933
0.003505738
0.003505666
0.003505674
0.003505684
0.003505695
0.003505708
0.003729183
0.003505733
0.00350566
0.003505669
0.003505679
0.003505691
0.003505704
0.00372907
0.003505727
0.003505654
0.003505663
0.003505673
0.003505685
0.003505699
0.003729106
0.00350572
0.003505647
0.003505656
0.003505667
0.003505679
0.003505692
0.003729484
0.003505715
0.003505824
0.003505836
0.003505869
0.003505892
0.003505919
0.003705476
0.003505654
0.003732983
0.003731511
0.003731025
0.003731036
0.003731223
0.003666461
0.003889756
0.003518064
0.003518253
0.003527724
0.003523923
0.003522076
0.003521573
0.00375318
0.003513494
0.003507948
0.003508004
0.003507708
0.003507821
0.003507943
0.003754589
0.003509188
0.003508045
0.003507097
0.003508202
0.003507378
0.003507517
0.003754493
0.003508909
0.00350715
0.003507221
0.003507278
0.003507406
0.003507407
0.003751624
0.003508997
0.003507824
0.003507527
0.003507858
0.003507734
0.0035077
0.003749927
0.003508874
0.003507561
0.003507453
0.003507677
0.003507623
0.003507644
0.003747601
0.00350895
0.003507588
0.003507593
0.003507713
0.003507743
0.003507792
0.003745336
0.003508974
0.003507512
0.003507564
0.003507667
0.003507727
0.003507787
0.00374289
0.003509
0.003507539
0.003507619
0.00350773
0.003507829
0.003507919
0.003740522
0.003509042
0.00350752
0.003507641
0.003507775
0.00350793
0.003508076
0.003505789
0.003505686
0.003505689
0.003505694
0.003505701
0.00350571
0.003710474
0.003505675
0.003505676
0.003505681
0.003505687
0.003505695
0.003505704
0.003730953
0.003505755
0.003505677
0.003505682
0.003505689
0.003505698
0.003505708
0.00373047
0.003505754
0.003505675
0.003505682
0.00350569
0.003505699
0.00350571
0.003730332
0.003505751
0.003505674
0.003505681
0.00350569
0.0035057
0.003505712
0.00373018
0.003505749
0.003505672
0.00350568
0.003505689
0.0035057
0.003505712
0.003730064
0.003505745
0.00350567
0.003505678
0.003505687
0.003505698
0.003505711
0.003729915
0.003505741
0.003505666
0.003505674
0.003505684
0.003505696
0.003505709
0.003729763
0.003505736
0.003505661
0.00350567
0.00350568
0.003505692
0.003505705
0.003729641
0.00350573
0.003505655
0.003505664
0.003505675
0.003505686
0.0035057
0.003729613
0.003505723
0.003505648
0.003505658
0.003505668
0.00350568
0.003505693
0.003729737
0.003505716
0.003505855
0.003505866
0.003505896
0.003505919
0.003505947
0.003705864
0.003505655
0.003734061
0.003733077
0.003732869
0.003732944
0.003733122
0.003667098
0.003890381
0.003517418
0.003516487
0.003525187
0.00351938
0.003520145
0.003520526
0.00375183
0.003512484
0.003507889
0.003507343
0.003507644
0.00350748
0.003507636
0.003754336
0.003509153
0.003507259
0.003507642
0.003507636
0.003507453
0.00350745
0.003753593
0.003508623
0.003507296
0.003507323
0.003507396
0.003507332
0.003507459
0.003750997
0.003508998
0.003507635
0.003507662
0.003507727
0.003507772
0.003507671
0.003749495
0.003508895
0.003507434
0.00350756
0.003507602
0.00350765
0.003507615
0.003747234
0.003508967
0.003507536
0.003507617
0.003507704
0.003507756
0.00350779
0.003745131
0.003508988
0.003507498
0.003507583
0.003507663
0.003507733
0.003507786
0.003742813
0.00350904
0.003507535
0.003507629
0.003507727
0.00350783
0.003507919
0.003740553
0.003509074
0.003507531
0.003507656
0.003507795
0.00350794
0.003508073
0.003505779
0.003505799
0.003505813
0.003505825
0.003505839
0.003505857
0.003710826
0.00350576
0.00350576
0.003505766
0.003505772
0.003505781
0.00350579
0.003709846
0.003505753
0.003505756
0.003505762
0.003505769
0.003505778
0.003505789
0.003708397
0.003505752
0.003505755
0.003505761
0.003505769
0.003505779
0.00350579
0.003708233
0.00350575
0.003505754
0.003505761
0.00350577
0.00350578
0.003505792
0.003707906
0.003505748
0.003505752
0.003505759
0.003505769
0.00350578
0.003505792
0.00370781
0.003505745
0.003505749
0.003505757
0.003505767
0.003505778
0.003505791
0.003707322
0.003505741
0.003505745
0.003505754
0.003505764
0.003505776
0.00350579
0.003706795
0.003505736
0.003505741
0.003505749
0.00350576
0.003505774
0.003505788
0.00370647
0.00350573
0.003505735
0.003505744
0.003505756
0.003505769
0.003505783
0.003706103
0.003505724
0.003505728
0.003505746
0.003505758
0.003505772
0.003505787
0.003706116
0.003505718
0.003505735
0.003505748
0.00350576
0.003505773
0.003505786
0.003706504
0.003505653
0.003505911
0.003505884
0.003505931
0.003505961
0.003506002
0.003671092
0.003625053
0.003624859
0.003625345
0.003627151
0.003629286
0.003875766
0.003511339
0.003513262
0.003518317
0.00352581
0.003526066
0.003531022
0.003776715
0.003509488
0.003510133
0.003510152
0.003510394
0.003510499
0.00351051
0.003766903
0.003507527
0.003508432
0.003508345
0.003507893
0.003507921
0.003508127
0.00377206
0.003507708
0.00350756
0.003507564
0.003507617
0.003507729
0.003507796
0.003765262
0.00350769
0.003507915
0.003507884
0.003507883
0.003507838
0.003507905
0.003760905
0.003507562
0.003507752
0.00350768
0.003507734
0.003507739
0.003507802
0.003755018
0.00350761
0.003507766
0.003507715
0.003507798
0.003507838
0.003507888
0.003749359
0.0035076
0.003507703
0.003507672
0.003507759
0.003507812
0.003507875
0.003743253
0.003507604
0.003507719
0.003507708
0.003507805
0.00350791
0.003508003
0.003733316
0.003507573
0.003507705
0.003507713
0.003507837
0.00350799
0.003508146
0.003506079
0.003506097
0.003506113
0.003506136
0.003506167
0.003506205
0.003664009
0.003731661
0.003731359
0.003731286
0.003731344
0.00373145
0.003731588
0.003662965
0.003731267
0.003730566
0.003730392
0.003730423
0.00373053
0.003730678
0.003662559
0.00373109
0.003730277
0.003730045
0.003730062
0.003730172
0.003730327
0.003662054
0.003730976
0.003730121
0.003729868
0.003729878
0.003729989
0.003730149
0.003661427
0.003730874
0.003730006
0.003729751
0.003729764
0.003729881
0.003730049
0.003663588
0.003730747
0.00372988
0.003729629
0.003729649
0.003729774
0.00372995
0.003662804
0.003730627
0.003729756
0.003729516
0.003729548
0.003729685
0.003729872
0.003658614
0.003730496
0.003729636
0.003729416
0.003729465
0.003729617
0.003729815
0.003707349
0.003730377
0.003729568
0.003729386
0.003729462
0.003729633
0.003729845
0.003659133
0.003730363
0.003729695
0.0037296
0.003729716
0.003729904
0.003730126
0.003658128
0.003730578
0.003730298
0.003730346
0.003730498
0.00373069
0.003730901
0.003660572
0.003505959
0.003505975
0.003505984
0.003506002
0.003506021
0.003506043
0.00367084
0.00367364
0.003674718
0.003675752
0.003676886
0.003678021
0.003878871
0.003524169
0.003532225
0.003523927
0.003523717
0.003520171
0.003522935
0.003846871
0.003751249
0.00375318
0.003753016
0.003753366
0.003753704
0.003754471
0.003807214
0.003754238
0.003755542
0.00375637
0.003757042
0.003757561
0.003758515
0.003825134
0.003753432
0.003755109
0.003755785
0.00375686
0.003757667
0.003758716
0.003810806
0.003750971
0.003752249
0.003753039
0.003753972
0.003754869
0.003756021
0.003800102
0.00374934
0.003750721
0.003751579
0.003752693
0.003753878
0.003755204
0.003780706
0.003747165
0.003748463
0.003749402
0.003750602
0.003751976
0.003753505
0.003770189
0.0037452
0.003746443
0.00374756
0.003748954
0.003750579
0.00375235
0.003754885
0.003743017
0.003744286
0.003745555
0.003747141
0.003749017
0.003751069
0.003739356
0.003740815
0.00374217
0.003743614
0.003745566
0.003747735
0.003750121
0.003663801
0.003711992
0.003506128
0.003661299
0.003505944
0.003709297
0.003710815
0.003707997
0.003505942
0.003505955
0.003508485
0.003508467
0.003708419
0.00370703
0.003706465
0.003505972
0.003505969
0.003508579
0.003508597
0.003708632
0.003706517
0.003706524
0.003505984
0.003505981
0.003508749
0.003508748
0.003708832
0.003706713
0.003706727
0.003505997
0.003505994
0.003508911
0.003508896
0.003709119
0.003707002
0.003707055
0.003506014
0.003506012
0.003509102
0.003509097
0.003707375
0.003506036
0.003509352
0.003712452
0.003711888
0.003664102
0.003506435
0.003663193
0.003506132
0.00371167
0.003711531
0.003662872
0.003506341
0.003662777
0.003506124
0.003711589
0.003711401
0.003662584
0.003506427
0.003662147
0.003506114
0.003711333
0.00371116
0.003662071
0.003506423
0.003661497
0.003506094
0.003711123
0.003710911
0.003661412
0.003506438
0.003660691
0.003506077
0.00371084
0.003710611
0.003660583
0.003506433
0.00365974
0.00350606
0.003710532
0.003710271
0.003659612
0.003506423
0.003658676
0.00350609
0.003710192
0.003709891
0.003658536
0.003506408
0.003657537
0.003506116
0.003709827
0.003709507
0.003657397
0.00350638
0.003656288
0.003506135
0.00370948
0.003709259
0.0036561
0.003506357
0.003654955
0.003506168
0.003709466
0.003710164
0.003654733
0.003506325
0.00365396
0.003506205
0.003709865
0.003668141
0.00365408
0.003505811
0.003630392
0.003505799
0.003571058
0.003841225
0.003666918
0.003582356
0.003573787
0.003831014
0.00382665
0.003671056
0.003673996
0.003609708
0.003604488
0.003576774
0.00382557
0.003817379
0.003674027
0.003674646
0.00358898
0.003586154
0.003579824
0.003826726
0.003817202
0.003674742
0.003675647
0.003566284
0.003564428
0.003583067
0.00383303
0.003818978
0.00367576
0.003676799
0.003571856
0.003569565
0.003586526
0.003838554
0.003821401
0.003676913
0.003678049
0.003576929
0.003581086
0.003844143
0.003678137
0.003585802
0.003767276
0.00377666
0.003878762
0.003544096
0.003829704
0.003511187
0.003771569
0.003768404
0.003847434
0.003511049
0.003820163
0.00351092
0.003765669
0.003766439
0.003827594
0.003509249
0.003817522
0.00351015
0.003765728
0.003762044
0.003826166
0.003509807
0.003806081
0.003509271
0.003760124
0.003757267
0.003810669
0.003509412
0.003794546
0.003508383
0.003755739
0.003752788
0.003798958
0.003509219
0.00378183
0.003508521
0.003751099
0.003747984
0.003784406
0.003509022
0.003768613
0.003508273
0.003746249
0.003743
0.003770163
0.003508882
0.003754542
0.003508273
0.003741216
0.003737803
0.003754843
0.003508749
0.003739695
0.003508157
0.003735994
0.003732318
0.003739363
0.003508806
0.003723849
0.003508132
0.003506107
0.003664444
0.003505767
0.003506091
0.003662758
0.003505766
0.003670798
0.003604691
0.003672932
0.003586596
0.003506092
0.003662529
0.003505766
0.003506089
0.003662638
0.003505765
0.003672733
0.003618108
0.003672341
0.003561338
0.003506089
0.003662621
0.003505764
0.003506089
0.003662443
0.003505764
0.0036723
0.00358279
0.003672197
0.00355996
0.00350609
0.003662419
0.003505764
0.003506089
0.003662595
0.003505764
0.003672186
0.003580429
0.003672167
0.003572668
0.00350609
0.003662675
0.003505764
0.003506089
0.003662575
0.003505764
0.003672168
0.003562147
0.003672185
0.003579583
0.003506089
0.003662486
0.003505764
0.00350609
0.003662433
0.003505764
0.003672196
0.003561074
0.003672301
0.003582379
0.00350609
0.00366252
0.003505765
0.003506094
0.003662554
0.003505766
0.003672341
0.003561608
0.003672731
0.0036172
0.003506106
0.003662776
0.003505765
0.0035061
0.003664452
0.003505765
0.00367293
0.00358988
0.00367078
0.00360531
0.003506136
0.003661325
0.003505928
0.00371332
0.003506098
0.00350853
0.003508536
0.003713228
0.003712193
0.003506104
0.003508609
0.003508607
0.003712062
0.003711927
0.003506124
0.003508714
0.003508721
0.003712069
0.003712051
0.003506151
0.003508863
0.003508871
0.003712269
0.003712258
0.003506186
0.003509055
0.003509062
0.003712543
0.003712533
0.003509289
0.003712884
0.003506376
0.003662762
0.003506125
0.003711735
0.003711528
0.00350642
0.003662147
0.003506115
0.003711593
0.003711401
0.003506435
0.003661777
0.00350608
0.003711118
0.003710903
0.003506433
0.003665662
0.003506073
0.003710867
0.003710599
0.003505814
0.003634933
0.003505801
0.003709732
0.003667614
0.003666838
0.003583764
0.00356921
0.003842238
0.003676786
0.003564534
0.003572955
0.003580147
0.003583096
0.003837288
0.003820035
0.003678085
0.003582264
0.003596948
0.003583424
0.003584527
0.003835624
0.003821669
0.003581971
0.00358249
0.003860701
0.003506493
0.003676498
0.003506831
0.003674547
0.003507446
0.003673394
0.00350679
0.003674093
0.003507481
0.003672518
0.003506827
0.003673999
0.003507525
0.003672204
0.003506795
0.003673586
0.003507463
0.003671896
0.003506801
0.003673101
0.00350743
0.003671414
0.003506782
0.003672456
0.003507358
0.00367084
0.003506756
0.003671714
0.003507269
0.003670197
0.003506725
0.00367089
0.003507171
0.003669483
0.003506691
0.00367
0.003507066
0.003668709
0.003506658
0.003669039
0.003506954
0.00366789
0.003506611
0.003668091
0.003506829
0.003667432
0.003506546
0.003668019
0.003506668
0.003669277
0.003708623
0.00366781
0.003668389
0.003505966
0.003505991
0.003505802
0.003505836
0.003708613
0.003668478
0.003669379
0.003505974
0.003506015
0.003505817
0.003505871
0.003709038
0.00366956
0.003670507
0.003505984
0.003506036
0.00350584
0.003505906
0.003709523
0.003670661
0.003671687
0.003506002
0.003506067
0.003505866
0.003505943
0.003710055
0.003671781
0.003672926
0.003506022
0.003506099
0.003505893
0.003505984
0.003672988
0.003506044
0.003505924
0.0035714
0.003675778
0.003572075
0.00367161
0.003671881
0.00357474
0.003672583
0.003672704
0.003577599
0.003673495
0.003673524
0.00358061
0.003674451
0.003674435
0.003583777
0.003675476
0.003675411
0.003587148
0.003676574
0.003676458
0.003534895
0.003825686
0.003552169
0.00381736
0.003768136
0.003772759
0.003773408
0.003524208
0.003530278
0.003511872
0.003514787
0.003766641
0.003776551
0.003774899
0.003528451
0.003527566
0.003515001
0.003512688
0.003764679
0.003779167
0.003777923
0.003527077
0.003528786
0.003512946
0.00351175
0.003765892
0.003781262
0.003779536
0.00352233
0.003524728
0.003512072
0.003511136
0.003767939
0.003783176
0.003780799
0.003520998
0.003522431
0.003511778
0.003511076
0.003784829
0.003520707
0.003511791
0.003530704
0.003823668
0.003527222
0.00380956
0.003514927
0.003805711
0.003519454
0.003796517
0.003521048
0.003804312
0.003521176
0.003791623
0.003518444
0.003791507
0.003519221
0.003780243
0.003518186
0.003781642
0.003518516
0.003770121
0.003517022
0.003770466
0.003517651
0.003759124
0.003516181
0.003759075
0.003516665
0.003747697
0.003514938
0.00374703
0.003515728
0.003735929
0.003513968
0.003734425
0.003514891
0.003723811
0.003506366
0.00350637
0.003505818
0.003632063
0.003505816
0.003706344
0.003505805
0.003632052
0.003505818
0.003672871
0.003672967
0.00352274
0.003762452
0.003512799
0.003873032
0.00352828
0.003763586
0.003509779
0.003506348
0.003506367
0.003505955
0.003632005
0.003505819
0.003705856
0.003505949
0.003631832
0.003505817
0.003672958
0.003672956
0.003525806
0.003759802
0.003510436
0.003890461
0.0035187
0.003761261
0.003510761
0.003506366
0.003506353
0.003505945
0.003631794
0.003505816
0.003705476
0.003505944
0.003631771
0.003505816
0.003672912
0.003672912
0.003526931
0.00376139
0.003509676
0.003889147
0.003520242
0.0037621
0.003510145
0.003506363
0.00350637
0.003505943
0.003631764
0.003505816
0.003705435
0.003505943
0.003631766
0.003505816
0.0036729
0.003672902
0.003528966
0.003761959
0.003509872
0.003882624
0.003523199
0.003761813
0.003510222
0.003506377
0.00350636
0.003505943
0.003631765
0.003505816
0.003705449
0.003505943
0.003631763
0.003505816
0.003672901
0.0036729
0.003519221
0.003762344
0.003510382
0.003882652
0.003528025
0.003761932
0.003509688
0.003506358
0.003506357
0.003505945
0.003631768
0.003505816
0.003705617
0.003505945
0.003631794
0.003505817
0.003672903
0.003672901
0.003519751
0.003762175
0.00351024
0.0038812
0.00352678
0.003761471
0.003509841
0.003506354
0.003506359
0.003505949
0.003631832
0.003505816
0.003706884
0.003505955
0.003632037
0.003505819
0.003672926
0.003672929
0.003518766
0.00376125
0.003510798
0.003873467
0.00352596
0.003759764
0.003510421
0.003506371
0.003506387
0.003505806
0.00363215
0.003505818
0.003708001
0.003505821
0.00363444
0.003505817
0.003672996
0.003672991
0.003528777
0.003763625
0.003509726
0.003875273
0.003522802
0.003762468
0.003512895
0.003506308
0.003506368
0.003506384
0.003663196
0.003506128
0.003712769
0.003712016
0.003506429
0.003661506
0.003506095
0.003711337
0.003711159
0.00350643
0.003658798
0.003506091
0.003710571
0.003710271
0.003506411
0.003658196
0.003506132
0.003710164
0.003709735
0.003506521
0.003658036
0.003506145
0.003709573
0.003709351
0.003506366
0.003661447
0.003506183
0.003709491
0.003709283
0.003506329
0.003657309
0.003506208
0.003709451
0.00371009
0.003506066
0.003505865
0.003505942
0.003709028
0.003709523
0.003670646
0.003671665
0.003506094
0.003505898
0.003505985
0.003709519
0.003710034
0.003671753
0.003672585
0.003505927
0.003709979
0.003671344
0.003673015
0.003673841
0.003673499
0.003605442
0.003591203
0.003566084
0.003668162
0.003831315
0.003822083
0.003674597
0.003565856
0.003564863
0.00367098
0.003576683
0.003834304
0.00381996
0.003675641
0.003570809
0.003578149
0.003576889
0.003579815
0.003811352
0.003820819
0.003543538
0.003828616
0.003511052
0.003767466
0.003776634
0.003523228
0.003511884
0.003510937
0.003771186
0.00376608
0.003779478
0.003779146
0.003522931
0.003511722
0.003511262
0.003772133
0.003772103
0.003780931
0.003779662
0.003511972
0.00377267
0.003783348
0.003511113
0.00381142
0.003510825
0.003771419
0.003769103
0.003509218
0.003815102
0.003510088
0.003766372
0.003766576
0.003509828
0.003806015
0.003509214
0.003765613
0.003761985
0.003509404
0.003794832
0.003508409
0.003760075
0.003757187
0.003509298
0.003777461
0.003508555
0.0037557
0.00375317
0.00350885
0.003768362
0.003508391
0.003751534
0.003747968
0.003508868
0.003754609
0.003508243
0.003746201
0.003742961
0.003508747
0.003739675
0.003508152
0.0037412
0.003737793
0.003508808
0.003723816
0.003508127
0.003735986
0.003732311
0.0035071
0.003674781
0.003506968
0.00367551
0.00350631
0.003506377
0.003506804
0.003674073
0.003506952
0.003673246
0.003506712
0.003673929
0.003506955